/*--------------------------------*- C++ -*----------------------------------*\
  =========                 |
  \\      /  F ield         | OpenFOAM: The Open Source CFD Toolbox
   \\    /   O peration     | Website:  https://openfoam.org
    \\  /    A nd           | Version:  8
     \\/     M anipulation  |
\*---------------------------------------------------------------------------*/
FoamFile
{
    version     2.0;
    format      ascii;
    class       volScalarField;
    location    "0.08";
    object      p;
}
// * * * * * * * * * * * * * * * * * * * * * * * * * * * * * * * * * * * * * //

dimensions      [1 -1 -2 0 0 0 0];

internalField   nonuniform List<scalar> 
15677
(
124004
124004
124011
124019
124025
124028
124026
124013
123980
123907
123784
123614
123416
123210
123078
122991
122927
122883
122855
122837
122825
122822
122829
122844
122860
122874
122885
122893
122900
122906
122911
122917
122923
122929
122939
84847.1
84729.1
84532.4
84307
84098.3
83920.2
83769.1
83639.6
83555.5
83604.8
83808.9
84154.4
84556.6
84849.1
84910.5
84897.1
84834.8
84741.9
84643.6
84556
84486.6
84432.7
84390.6
84355.3
84323.2
84292.1
84262.2
84233.1
84204.7
84177.5
84152.1
84128.2
84104.6
84080.9
84061.8
111871
111865
111847
111790
111672
111487
111249
110979
110726
110566
110499
110532
110628
110676
110758
110937
111191
111514
111851
112148
112410
112633
112795
112908
112992
113060
113109
113134
113147
113156
113165
113173
113179
113186
113193
93485.8
93506.6
93533.7
93560.4
93584
93598.4
93596.2
93586.5
93589.5
93593.9
93619.3
93642.3
93624.2
93628.7
93770.5
93916.9
93988
93950.8
93844
93666.9
93427.6
93149.2
92879.8
92643.7
92444.6
92287.5
92177.1
92113.1
92072.7
92040.9
92013.4
91990.2
91970.2
91949.8
91933.4
104708
104725
104750
104779
104813
104854
104900
104951
105003
105059
105115
105150
105125
105055
105018
105092
105211
105306
105394
105514
105663
105826
105984
106134
106275
106397
106507
106609
106703
106789
106870
106943
107009
107070
107124
99042.9
99047.1
99050.2
99051
99049.3
99044.9
99037.6
99026.8
99011.4
98989.3
98958
98917.3
98855.7
98801.3
98753.1
98713.3
98672.5
98618.6
98543.4
98454.6
98349
98224.9
98105.9
98004.4
97920.7
97853.5
97805.2
97770.3
97740.5
97716.2
97694.2
97673.4
97655.3
97636.4
97619.9
103095
103102
103107
103112
103118
103126
103136
103146
103157
103169
103181
103181
103201
103230
103263
103295
103327
103357
103383
103410
103449
103505
103569
103636
103703
103765
103813
103850
103883
103915
103945
103972
103996
104018
104032
100462
100463
100459
100451
100438
100418
100392
100361
100328
100302
100282
100275
100273
100254
100221
100197
100182
100166
100149
100125
100087
100045
100006
99971.8
99943.9
99922.5
99905.5
99890.2
99878
99865.8
99854.3
99844.1
99835.2
99826.4
99820.2
102423
102420
102418
102417
102418
102419
102421
102426
102433
102443
102461
102489
102517
102539
102553
102551
102542
102533
102526
102523
102528
102541
102561
102579
102593
102604
102615
102625
102632
102640
102647
102652
102657
102663
102666
100831
100832
100832
100832
100831
100829
100827
100825
100822
100820
100820
100821
100821
100820
100818
100820
100825
100830
100830
100827
100822
100820
100817
100815
100813
100809
100804
100799
100794
100790
100787
100783
100781
100778
100779
102061
102061
102060
102061
102061
102062
102063
102065
102067
102068
102069
102069
102068
102065
102061
102055
102047
102040
102033
102027
102023
102018
102015
102014
102015
102016
102017
102018
102020
102022
102023
102024
102025
102027
102026
101146
101145
101144
101143
101142
101141
101140
101140
101140
101141
101143
101147
101153
101162
101171
101180
101188
101196
101205
101213
101220
101226
101229
101231
101231
101230
101228
101226
101225
101223
101222
101221
101220
101219
101220
101836
101836
101837
101837
101837
101837
101837
101836
101834
101831
101827
101822
101814
101804
101794
101783
101773
101763
101754
101745
101738
101733
101731
101729
101729
101728
101729
101730
101731
101732
101732
101733
101733
101734
101733
101325
101324
101323
101321
101320
101320
101320
101320
101322
101325
101330
101336
101346
101357
101369
101379
101388
101397
101404
101410
101415
101418
101421
101421
101421
101420
101419
101418
101417
101416
101416
101415
101415
101414
101415
101692
101692
101693
101693
101693
101693
101692
101691
101689
101686
101681
101675
101667
101657
101648
101640
101632
101625
101619
101614
101610
101608
101606
101606
101606
101606
101606
101607
101607
101607
101608
101608
101608
101608
101608
101440
101440
101440
101439
101439
101438
101438
101439
101440
101442
101446
101450
101456
101464
101471
101477
101482
101487
101490
101493
101496
101498
101498
101498
101498
101497
101497
101496
101495
101495
101495
101494
101494
101494
101494
101608
101608
101609
101609
101609
101609
101608
101607
101605
101603
101599
101595
101590
101584
101579
101574
101570
101567
101564
101562
101560
101559
101559
101559
101559
101559
101559
101559
101559
101559
101559
101559
101559
101559
101559
101497
101497
101496
101496
101496
101496
101496
101497
101498
101500
101502
101505
101508
101512
101515
101517
101519
101521
101523
101524
101525
101526
101526
101526
101525
101525
101525
101524
101524
101524
101523
101523
101523
101523
101523
101568
101568
101568
101568
101568
101568
101568
101567
101566
101564
101562
101560
101557
101554
101552
101549
101548
101546
101545
101544
101544
101543
101543
101543
101543
101543
101543
101543
101543
101543
101543
101543
101543
101543
101543
101522
101522
101522
101522
101522
101522
101522
101523
101523
101524
101525
101527
101528
101530
101531
101532
101532
101533
101534
101534
101534
101534
101534
101534
101534
101533
101533
101533
101533
101533
101532
101532
101533
101533
101533
101551
101551
101551
101551
101551
101550
101550
101549
101549
101548
101547
101546
101544
101543
101542
101541
101540
101540
101539
101539
101539
101538
101538
101538
101538
101538
101538
101538
101538
101538
101538
101538
101538
101538
101538
101533
101533
101533
101532
101532
101532
101533
101533
101533
101533
101534
101534
101535
101535
101536
101536
101536
101536
101536
101536
101536
101536
101536
101536
101536
101536
101536
101535
101535
101535
101535
101535
101535
101535
101535
101543
101543
101543
101543
101543
101543
101543
101542
101542
101542
101541
101540
101540
101539
101539
101538
101538
101538
101537
101537
101537
101537
101537
101537
101537
101537
101537
101537
101537
101536
101536
101536
101536
101536
101536
101536
101536
101536
101536
101536
101536
101536
101536
101536
101536
101537
101537
101537
101537
101537
101537
101537
101537
101537
101537
101536
101536
101536
101536
101536
101536
101536
101536
101536
101536
101536
101536
101536
101536
101535
101540
101540
101540
101540
101540
101540
101540
101539
101539
101539
101539
101538
101538
101538
101537
101537
101537
101537
101537
101537
101536
101536
101536
101536
101536
101536
101536
101536
101536
101536
101536
101536
101536
101536
101536
101537
101537
101537
101537
101537
101537
101537
101537
101537
101537
101537
101537
101537
101537
101537
101537
101536
101536
101536
101536
101536
101536
101536
101536
101536
101536
101536
101536
101536
101536
101535
101535
101535
101535
101535
101538
101538
101538
101538
101538
101538
101538
101538
101537
101537
101537
101537
101537
101537
101536
101536
101536
101536
101536
101536
101536
101536
101536
101536
101535
101535
101535
101535
101535
101535
101535
101535
101535
101535
101535
101537
101537
101537
101537
101537
101537
101537
101537
101536
101536
101536
101536
101536
101536
101536
101536
101536
101536
101535
101535
101535
101535
101535
101535
101535
101535
101535
101535
101535
101535
101535
101535
101535
101535
101535
101537
101537
101537
101537
101537
101537
101536
101536
101536
101536
101536
101536
101536
101536
101535
101535
101535
101535
101535
101535
101535
101535
101535
101535
101535
101535
101535
101535
101535
101535
101535
101535
101535
101535
101535
101536
101536
101536
101536
101536
101536
101536
101536
101536
101535
101535
101535
101535
101535
101535
101535
101535
101535
101535
101535
101535
101534
101534
101534
101535
101535
101535
101535
101535
101535
101535
101535
101535
101535
101534
122950
123012
123099
123190
123284
123381
123483
123588
123698
123813
123933
124059
124188
124317
124442
124565
124685
124802
124917
125029
125142
125244
84064.5
84011.8
83924.9
83827.1
83719
83599.2
83469.3
83334.1
83198.5
83062
82920.2
82779.8
82646.2
82522.5
82412.8
82315.2
82224.5
82140.5
82063
81990.3
81921.9
81875.7
113176
113164
113163
113165
113174
113188
113209
113238
113275
113318
113380
113463
113558
113645
113733
113825
113917
114007
114091
114168
114234
114276
91955.4
91933.8
91905.7
91900.7
91911.2
91928.5
91948.6
91965.2
91983.8
92014.1
92057.9
92111.4
92170.1
92247.1
92334.5
92428.6
92524.8
92622.5
92720.9
92817.4
92913.3
93020.4
107151
107176
107199
107211
107212
107199
107176
107148
107106
107043
106965
106888
106821
106760
106701
106643
106585
106529
106473
106419
106364
106303
97623.5
97635.2
97640.7
97646.4
97654.2
97663.7
97674.8
97687.6
97702.3
97718.9
97738.2
97762.2
97790.8
97822.8
97856.9
97893.1
97930.9
97970.1
98010.7
98052.5
98097.1
98149.9
104020
104008
103999
103987
103971
103953
103932
103908
103881
103850
103817
103782
103746
103709
103672
103634
103597
103559
103521
103484
103445
103403
99829.2
99847.4
99861.8
99875.5
99890.1
99906.1
99923.3
99941.7
99961.3
99982.2
100005
100027
100048
100068
100088
100108
100129
100151
100173
100195
100218
100243
102650
102633
102618
102600
102582
102561
102540
102518
102495
102472
102448
102424
102401
102379
102357
102336
102315
102295
102275
102254
102232
102209
100790
100806
100819
100831
100845
100859
100873
100888
100905
100921
100938
100954
100968
100980
100993
101004
101016
101026
101037
101048
101059
101070
102011
101998
101986
101974
101960
101947
101933
101920
101906
101892
101878
101864
101851
101839
101827
101816
101805
101795
101785
101775
101765
101753
101227
101237
101246
101255
101265
101275
101285
101295
101305
101314
101323
101331
101337
101343
101349
101354
101358
101362
101366
101370
101374
101378
101724
101717
101710
101703
101696
101688
101681
101673
101665
101658
101650
101643
101637
101632
101626
101621
101617
101612
101608
101604
101600
101595
101419
101426
101431
101436
101441
101446
101450
101455
101459
101463
101466
101470
101472
101474
101476
101478
101479
101480
101481
101482
101483
101483
101603
101600
101596
101592
101588
101585
101581
101578
101574
101571
101568
101565
101563
101561
101559
101557
101555
101554
101552
101550
101549
101546
101496
101499
101501
101504
101506
101508
101509
101511
101512
101514
101515
101516
101517
101518
101519
101519
101519
101520
101520
101519
101519
101519
101557
101556
101554
101552
101551
101549
101548
101547
101546
101545
101544
101543
101542
101541
101540
101539
101539
101538
101537
101536
101536
101535
101524
101525
101526
101527
101528
101529
101529
101530
101530
101531
101531
101531
101531
101531
101531
101531
101531
101530
101530
101530
101530
101529
101542
101542
101541
101541
101540
101540
101539
101538
101538
101537
101537
101537
101536
101536
101535
101535
101535
101534
101534
101534
101533
101533
101533
101534
101534
101534
101534
101534
101534
101535
101535
101535
101534
101534
101534
101534
101534
101534
101533
101533
101533
101533
101533
101532
101538
101537
101537
101537
101537
101537
101536
101536
101536
101536
101535
101535
101535
101535
101535
101534
101534
101534
101534
101534
101533
101533
101535
101535
101535
101535
101535
101535
101535
101535
101535
101535
101535
101535
101535
101535
101534
101534
101534
101534
101534
101534
101533
101533
101536
101536
101536
101536
101536
101536
101536
101536
101535
101535
101535
101535
101535
101535
101535
101534
101534
101534
101534
101534
101534
101533
101536
101536
101536
101536
101535
101535
101535
101535
101535
101535
101535
101535
101535
101535
101535
101534
101534
101534
101534
101534
101534
101534
101536
101536
101536
101536
101535
101535
101535
101535
101535
101535
101535
101535
101535
101535
101535
101534
101534
101534
101534
101534
101534
101534
101536
101535
101535
101535
101535
101535
101535
101535
101535
101535
101535
101535
101535
101535
101535
101534
101534
101534
101534
101534
101534
101534
101535
101535
101535
101535
101535
101535
101535
101535
101535
101535
101535
101535
101535
101535
101534
101534
101534
101534
101534
101534
101534
101534
101535
101535
101535
101535
101535
101535
101535
101535
101535
101535
101535
101535
101535
101535
101534
101534
101534
101534
101534
101534
101534
101534
101535
101535
101535
101535
101535
101535
101535
101535
101535
101535
101535
101535
101535
101535
101534
101534
101534
101534
101534
101534
101534
101534
101535
101535
101535
101535
101535
101535
101535
101535
101535
101535
101535
101535
101535
101535
101534
101534
101534
101534
101534
101534
101534
101534
125291
125290
125282
125274
125268
125260
81863.7
81851.7
81850.7
81853.3
81856.9
81868.1
114289
114331
114343
114332
114307
114270
93125
93209.4
93294.1
93378.3
93459.3
93534.6
106249
106218
106186
106155
106123
106093
98202
98234.8
98266.9
98300.2
98334.3
98367.1
103375
103357
103338
103318
103298
103277
100265
100275
100284
100294
100306
100317
102198
102190
102183
102174
102165
102155
101079
101080
101082
101085
101088
101091
101748
101745
101742
101738
101734
101730
101381
101379
101379
101379
101379
101380
101594
101592
101591
101590
101588
101586
101483
101482
101482
101481
101481
101481
101546
101545
101544
101544
101543
101542
101519
101518
101518
101517
101517
101517
101535
101534
101534
101534
101533
101533
101529
101529
101528
101528
101528
101528
101533
101532
101532
101532
101532
101531
101532
101532
101532
101531
101531
101531
101533
101533
101532
101532
101532
101532
101533
101533
101533
101532
101532
101532
101533
101533
101533
101533
101532
101532
101533
101533
101533
101533
101533
101533
101533
101533
101533
101533
101533
101533
101533
101533
101533
101533
101533
101533
101533
101533
101533
101533
101533
101533
101533
101533
101533
101533
101533
101533
101533
101533
101533
101533
101533
101533
101533
101533
101533
101533
101533
101533
125219
125118
124998
124883
124770
124655
124537
124416
124293
124167
124038
123909
123784
123663
123548
123437
123331
123230
123134
123040
122950
122886
81887.6
81936.1
82002.3
82067.4
82132.4
82199.2
82268.7
82341.8
82419.8
82505.1
82599.5
82700.9
82803.6
82906.9
83009.3
83109.4
83206.1
83298.8
83387.6
83474.8
83561.1
83622.3
114246
114206
114135
114051
113955
113846
113724
113592
113452
113304
113152
112999
112850
112705
112563
112425
112290
112157
112027
111899
111773
111659
93557.7
93566.1
93584.9
93602.9
93616.5
93624.7
93640.6
93641.8
93642
93640.3
93636.7
93630.4
93621.7
93615.3
93612.2
93612.3
93615.4
93622.3
93639.9
93652.8
93669.4
93678
106088
106096
106094
106091
106091
106093
106096
106099
106105
106111
106120
106132
106147
106160
106169
106174
106175
106173
106168
106160
106149
106143
98376.8
98375.2
98378.3
98381.5
98382.8
98382.1
98379.5
98375.1
98368.4
98358.7
98353.2
98337.7
98319.3
98300.7
98282
98263.4
98245.4
98228.5
98212.9
98198.9
98185.7
98167.6
103276
103283
103286
103286
103289
103293
103298
103304
103310
103318
103327
103338
103353
103369
103384
103398
103412
103425
103437
103448
103457
103470
100318
100309
100304
100299
100294
100289
100284
100278
100270
100262
100252
100239
100223
100207
100191
100174
100158
100142
100127
100113
100099
100081
102158
102163
102167
102172
102177
102182
102188
102194
102201
102208
102217
102227
102239
102252
102264
102277
102289
102301
102312
102323
102334
102345
101091
101084
101078
101073
101068
101063
101058
101052
101046
101039
101031
101022
101012
101001
100990
100979
100968
100957
100946
100936
100926
100914
101732
101736
101740
101744
101748
101752
101756
101761
101766
101771
101777
101784
101792
101801
101809
101817
101826
101834
101842
101850
101857
101865
101380
101376
101373
101371
101368
101365
101362
101358
101355
101351
101347
101342
101336
101330
101323
101317
101311
101304
101298
101292
101286
101278
101587
101589
101591
101593
101595
101597
101599
101602
101604
101607
101610
101614
101618
101622
101627
101632
101636
101641
101646
101650
101654
101658
101481
101480
101478
101477
101476
101475
101474
101472
101471
101469
101467
101465
101462
101459
101456
101453
101450
101447
101443
101440
101437
101432
101543
101544
101545
101545
101546
101547
101548
101549
101549
101550
101551
101552
101554
101556
101559
101561
101563
101566
101568
101571
101573
101574
101517
101516
101516
101516
101515
101515
101514
101514
101513
101512
101511
101510
101508
101507
101506
101505
101503
101502
101500
101499
101497
101495
101533
101533
101533
101533
101534
101534
101534
101534
101535
101535
101535
101536
101536
101537
101537
101538
101539
101540
101541
101542
101543
101543
101527
101527
101527
101527
101527
101527
101526
101526
101526
101526
101525
101525
101525
101524
101524
101523
101522
101522
101521
101520
101520
101518
101531
101531
101531
101531
101531
101531
101531
101531
101531
101531
101531
101531
101531
101532
101532
101532
101532
101533
101533
101533
101533
101533
101531
101531
101530
101530
101530
101530
101530
101530
101530
101530
101529
101529
101529
101529
101529
101528
101528
101528
101528
101527
101527
101526
101531
101532
101531
101531
101531
101531
101531
101531
101531
101531
101531
101531
101531
101531
101530
101530
101530
101530
101530
101531
101531
101530
101532
101532
101532
101531
101531
101531
101531
101531
101531
101531
101531
101530
101530
101530
101530
101530
101530
101529
101529
101529
101529
101528
101532
101532
101532
101532
101532
101532
101531
101531
101531
101531
101531
101531
101531
101530
101530
101530
101530
101530
101530
101530
101530
101529
101532
101532
101532
101532
101532
101532
101531
101531
101531
101531
101531
101531
101531
101530
101530
101530
101530
101530
101530
101529
101529
101529
101532
101532
101532
101532
101532
101532
101532
101531
101531
101531
101531
101531
101531
101530
101530
101530
101530
101530
101530
101530
101529
101529
101532
101532
101532
101532
101532
101532
101532
101531
101531
101531
101531
101531
101531
101530
101530
101530
101530
101530
101530
101529
101529
101529
101532
101532
101532
101532
101532
101532
101532
101531
101531
101531
101531
101531
101531
101530
101530
101530
101530
101530
101530
101529
101529
101529
101532
101532
101532
101532
101532
101532
101532
101531
101531
101531
101531
101531
101531
101530
101530
101530
101530
101530
101530
101529
101529
101529
101532
101532
101532
101532
101532
101532
101532
101531
101531
101531
101531
101531
101531
101530
101530
101530
101530
101530
101530
101529
101529
101529
101532
101532
101532
101532
101532
101532
101532
101531
101531
101531
101531
101531
101531
101530
101530
101530
101530
101530
101530
101529
101529
101529
122875
122867
122864
122862
122859
122856
122851
122844
122832
122818
122801
122785
122778
122786
122810
122851
122904
122988
123093
123214
123341
123505
123702
123843
123895
123918
123928
123933
123935
123936
123937
123937
123937
123938
123942
83618.6
83643.9
83675.6
83713.4
83760.6
83818.2
83890.2
83984.4
84100
84241.3
84421.9
84646.3
84918.4
85236.8
85583.6
85910.9
86164.6
86297.5
86273.4
86111.5
85807.8
85257.5
84505.8
83903.8
83594.5
83474.4
83520.5
83650
83787.4
83939.5
84113.7
84307.8
84513
84693.4
84804.9
111564
111468
111369
111266
111159
111047
110937
110838
110755
110670
110555
110396
110195
109946
109650
109341
109032
108724
108440
108076
107598
107039
106535
106268
106249
106427
106785
107180
107526
107788
107977
108110
108191
108216
108198
93675.8
93698.2
93725.7
93754.1
93785.2
93824.7
93870.8
93918
93965.5
94016.7
94071.6
94151.3
94299
94517.3
94803.2
95110.6
95398.1
95647
95845.7
96000.3
96112.9
96197.3
96271.4
96368
96459.5
96637.9
96842.2
97016.9
97160.9
97270
97348.7
97400.7
97425.4
97424.5
97405.6
106134
106100
106058
106011
105958
105897
105827
105748
105660
105567
105470
105369
105249
105137
105048
104987
104954
104948
104963
104982
105000
105023
105058
105084
105098
105103
105107
105109
105103
105096
105089
105084
105080
105078
105083
98151.3
98160.4
98173.5
98186.6
98201.4
98218.2
98236.7
98256.5
98276.9
98296.1
98316.1
98337
98363.9
98414.4
98479
98549.3
98622.1
98689.8
98746.2
98789.1
98821.1
98842.5
98844.7
98839
98830.6
98820.2
98806.4
98789.8
98772.7
98756.5
98743.5
98738.9
98741.9
98751.1
98762.4
103483
103473
103458
103442
103425
103406
103385
103363
103340
103318
103298
103275
103241
103189
103132
103087
103055
103034
103023
103021
103025
103034
103053
103073
103090
103105
103117
103124
103128
103130
103134
103138
103142
103142
103139
100064
100065
100070
100076
100082
100089
100096
100105
100114
100123
100131
100137
100148
100170
100204
100236
100269
100300
100329
100354
100375
100393
100400
100404
100411
100419
100428
100439
100451
100463
100475
100481
100483
100483
100482
102357
102353
102348
102342
102336
102328
102320
102311
102302
102293
102285
102277
102268
102249
102218
102195
102177
102163
102153
102148
102148
102153
102165
102178
102191
102201
102209
102215
102218
102219
102219
102218
102217
102217
102217
100904
100904
100906
100908
100910
100914
100917
100921
100926
100930
100935
100939
100942
100950
100967
100983
100998
101013
101025
101036
101044
101051
101053
101051
101050
101049
101050
101051
101052
101053
101055
101057
101058
101059
101060
101872
101870
101867
101865
101862
101859
101855
101851
101847
101844
101839
101834
101830
101826
101813
101800
101791
101784
101780
101777
101777
101779
101785
101791
101798
101803
101808
101812
101814
101816
101817
101818
101819
101819
101819
101274
101273
101274
101275
101276
101277
101279
101281
101283
101285
101288
101290
101291
101291
101295
101305
101312
101319
101324
101329
101332
101334
101335
101334
101332
101331
101331
101331
101332
101333
101335
101336
101337
101339
101339
101664
101662
101661
101660
101659
101657
101656
101654
101652
101649
101647
101644
101643
101642
101642
101635
101630
101627
101625
101625
101626
101628
101632
101637
101641
101645
101648
101650
101652
101654
101655
101655
101656
101656
101657
101430
101430
101430
101430
101431
101432
101432
101433
101435
101436
101437
101439
101440
101440
101440
101441
101444
101447
101449
101451
101452
101453
101453
101452
101451
101450
101450
101450
101450
101451
101452
101453
101454
101455
101455
101578
101577
101577
101576
101576
101575
101574
101573
101572
101571
101570
101569
101568
101567
101567
101568
101568
101566
101566
101567
101568
101570
101573
101576
101579
101582
101584
101586
101587
101588
101589
101589
101590
101590
101590
101494
101493
101494
101494
101494
101494
101494
101495
101496
101496
101497
101498
101498
101499
101499
101498
101497
101498
101499
101500
101500
101500
101500
101500
101499
101498
101498
101498
101498
101499
101499
101500
101500
101501
101501
101545
101545
101545
101544
101544
101544
101544
101543
101543
101542
101541
101541
101541
101540
101540
101541
101542
101543
101543
101544
101546
101548
101550
101552
101554
101556
101557
101559
101560
101560
101561
101561
101562
101562
101562
101518
101518
101518
101518
101518
101518
101518
101518
101518
101519
101519
101519
101519
101519
101519
101519
101519
101519
101518
101518
101519
101518
101518
101517
101517
101516
101516
101516
101516
101516
101517
101517
101518
101518
101518
101534
101534
101534
101534
101534
101534
101533
101533
101533
101533
101532
101532
101532
101532
101532
101532
101533
101533
101534
101535
101536
101538
101540
101542
101543
101544
101545
101546
101547
101547
101548
101548
101548
101548
101548
101526
101526
101526
101526
101526
101526
101526
101526
101526
101526
101526
101526
101526
101526
101526
101526
101526
101526
101526
101526
101526
101526
101525
101525
101525
101525
101524
101524
101524
101524
101525
101525
101525
101525
101526
101531
101531
101531
101530
101530
101530
101530
101530
101530
101530
101529
101529
101529
101529
101529
101529
101530
101530
101530
101531
101532
101533
101534
101535
101536
101537
101538
101538
101539
101539
101540
101540
101540
101540
101540
101529
101528
101528
101528
101528
101528
101528
101528
101528
101528
101528
101528
101528
101528
101528
101528
101528
101528
101528
101528
101528
101528
101528
101528
101528
101528
101528
101528
101528
101528
101528
101529
101529
101529
101529
101530
101530
101529
101529
101529
101529
101529
101529
101529
101529
101529
101529
101528
101528
101528
101528
101529
101529
101529
101529
101530
101530
101531
101531
101532
101533
101533
101534
101534
101535
101535
101535
101535
101535
101535
101529
101529
101529
101529
101529
101529
101529
101528
101528
101528
101528
101528
101528
101528
101528
101528
101528
101528
101528
101528
101528
101528
101529
101529
101529
101529
101529
101529
101529
101529
101530
101530
101530
101530
101530
101529
101529
101529
101529
101529
101529
101529
101529
101528
101528
101528
101528
101528
101528
101528
101528
101528
101528
101528
101528
101529
101529
101529
101530
101530
101530
101531
101531
101531
101532
101532
101532
101532
101532
101532
101529
101529
101529
101529
101529
101529
101529
101528
101528
101528
101528
101528
101528
101528
101528
101528
101528
101528
101528
101528
101528
101528
101528
101528
101529
101529
101529
101529
101529
101529
101529
101530
101530
101530
101530
101529
101529
101529
101529
101529
101529
101529
101528
101528
101528
101528
101528
101528
101528
101528
101528
101528
101528
101528
101528
101528
101528
101528
101529
101529
101529
101529
101529
101530
101530
101530
101530
101530
101530
101530
101529
101529
101529
101529
101529
101529
101528
101528
101528
101528
101528
101528
101528
101527
101527
101527
101527
101527
101527
101527
101528
101528
101528
101528
101528
101528
101528
101529
101529
101529
101529
101529
101529
101529
101529
101529
101529
101529
101529
101529
101528
101528
101528
101528
101528
101528
101528
101527
101527
101527
101527
101527
101527
101527
101527
101527
101527
101528
101528
101528
101528
101528
101528
101529
101529
101529
101529
101529
101529
101529
101529
101529
101529
101529
101528
101528
101528
101528
101528
101528
101528
101527
101527
101527
101527
101527
101527
101527
101527
101527
101527
101527
101527
101527
101528
101528
101528
101528
101528
101528
101528
101528
101528
101529
101529
101536
101536
101535
101535
101535
101535
101535
101535
101535
101535
101535
101535
101535
101534
101534
101534
101534
101534
101534
101534
101534
101534
101534
101534
101534
101534
101534
101534
101534
101534
101534
101534
101534
101534
101534
101535
101535
101535
101535
101535
101534
101534
101534
101534
101534
101534
101534
101534
101534
101534
101534
101534
101534
101533
101533
101533
101533
101534
101534
101534
101534
101534
101534
101534
101534
101534
101534
101534
101534
101534
101534
101534
101534
101534
101534
101534
101534
101534
101534
101534
101533
101533
101533
101533
101533
101533
101533
101533
101533
101533
101533
101533
101533
101533
101533
101533
101533
101533
101533
101534
101534
101534
101534
101534
101534
101533
101533
101533
101533
101533
101533
101533
101533
101533
101533
101533
101533
101533
101533
101532
101532
101532
101532
101532
101532
101532
101532
101532
101532
101533
101533
101533
101533
101533
101533
101533
101533
101533
101534
101533
101533
101533
101533
101533
101533
101532
101532
101532
101532
101532
101532
101532
101532
101532
101532
101532
101532
101532
101532
101532
101532
101532
101532
101532
101532
101532
101532
101532
101533
101533
101533
101533
101533
101533
101533
101532
101532
101532
101532
101532
101532
101532
101532
101532
101532
101532
101531
101531
101531
101531
101531
101531
101531
101531
101531
101531
101531
101531
101531
101531
101532
101532
101532
101532
101532
101532
101533
101533
101533
101533
101531
101531
101531
101531
101531
101531
101531
101531
101531
101531
101531
101531
101531
101531
101531
101531
101531
101530
101530
101530
101530
101531
101531
101531
101531
101531
101531
101531
101532
101532
101532
101532
101532
101533
101532
101531
101531
101531
101531
101531
101531
101531
101531
101531
101530
101530
101530
101530
101530
101530
101530
101530
101530
101530
101530
101530
101530
101530
101530
101530
101531
101531
101531
101531
101531
101532
101532
101532
101532
101532
101530
101530
101530
101530
101530
101530
101530
101530
101530
101530
101530
101530
101530
101530
101530
101530
101529
101529
101529
101529
101529
101529
101530
101530
101530
101530
101530
101530
101531
101531
101531
101531
101532
101532
101532
101530
101530
101530
101530
101530
101530
101530
101530
101530
101529
101529
101529
101529
101529
101529
101529
101529
101529
101529
101529
101529
101529
101529
101529
101529
101529
101530
101530
101530
101530
101531
101531
101531
101531
101531
101529
101529
101529
101529
101529
101529
101529
101529
101529
101529
101529
101529
101529
101529
101529
101529
101529
101528
101528
101528
101528
101528
101528
101528
101529
101529
101529
101529
101529
101530
101530
101530
101531
101531
101531
101529
101529
101529
101529
101529
101529
101529
101529
101529
101529
101529
101528
101528
101528
101528
101528
101528
101528
101528
101528
101528
101528
101528
101528
101528
101528
101528
101529
101529
101529
101529
101530
101530
101530
101530
101528
101528
101528
101528
101528
101528
101528
101528
101528
101528
101528
101528
101528
101528
101528
101528
101528
101528
101527
101527
101527
101527
101527
101527
101527
101528
101528
101528
101528
101529
101529
101529
101530
101530
101530
101528
101528
101528
101528
101528
101528
101528
101528
101528
101528
101528
101528
101528
101528
101527
101527
101527
101527
101527
101527
101527
101527
101527
101527
101527
101527
101527
101527
101528
101528
101528
101529
101529
101529
101529
101528
101528
101528
101528
101528
101528
101528
101528
101528
101528
101527
101527
101527
101527
101527
101527
101527
101527
101527
101527
101527
101526
101526
101526
101526
101526
101526
101527
101527
101527
101527
101528
101528
101529
101529
101527
101527
101527
101527
101527
101527
101527
101527
101527
101527
101527
101527
101527
101527
101527