/*--------------------------------*- C++ -*----------------------------------*\
  =========                 |
  \\      /  F ield         | OpenFOAM: The Open Source CFD Toolbox
   \\    /   O peration     | Website:  https://openfoam.org
    \\  /    A nd           | Version:  8
     \\/     M anipulation  |
\*---------------------------------------------------------------------------*/
FoamFile
{
    version     2.0;
    format      ascii;
    class       surfaceScalarField;
    location    "0.08";
    object      phi;
}
// * * * * * * * * * * * * * * * * * * * * * * * * * * * * * * * * * * * * * //

dimensions      [1 0 -1 0 0 0 0];

internalField   nonuniform List<scalar> 
31053
(
-1.00205e-05
8.80929e-06
-1.38974e-05
4.67512e-06
-1.33327e-05
2.56428e-06
-9.38776e-06
1.04727e-06
-2.83727e-06
-3.62833e-07
6.31847e-06
-2.31467e-06
1.89852e-05
-5.64544e-06
3.73295e-05
-1.16145e-05
6.64095e-05
-2.30912e-05
0.000115902
-4.46202e-05
0.000194523
-7.51258e-05
0.000296925
-0.000100446
0.000402783
-0.000105465
0.000489457
-8.69712e-05
0.000552193
-6.17201e-05
0.000595052
-4.10409e-05
0.000621525
-2.42073e-05
0.000635781
-1.16681e-05
0.000639812
-1.17192e-06
0.000635107
7.75251e-06
0.000622178
1.62972e-05
0.000605136
2.19243e-05
0.000586764
2.50181e-05
0.000568969
2.60895e-05
0.000552586
2.621e-05
0.000537695
2.61013e-05
0.000524511
2.55941e-05
0.000513311
2.46042e-05
0.000504291
2.31922e-05
0.00049761
2.13877e-05
0.000493342
1.9274e-05
0.000491442
1.69781e-05
0.000491797
1.45885e-05
0.000494252
1.21683e-05
1.04844e-05
0.000497217
-0.000122898
0.000131713
-0.000270128
0.000151909
-0.000434101
0.00016652
-0.000610126
0.000177035
-0.000792745
0.000182179
-0.000974496
0.00017932
-0.00114476
0.000164455
-0.00128852
0.000131934
-0.0013859
7.39955e-05
-0.00141466
-1.62394e-05
-0.00136315
-0.000127126
-0.00123044
-0.000233761
-0.00103021
-0.000306004
-0.000783157
-0.000333991
-0.00058169
-0.000262909
-0.000408377
-0.000213953
-0.000259176
-0.000172978
-0.00013092
-0.000139507
-2.08806e-05
-0.000110836
7.43961e-05
-8.72261e-05
0.00015791
-6.69873e-05
0.000225002
-4.49644e-05
0.000280411
-3.01813e-05
0.000328655
-2.19441e-05
0.000372013
-1.69387e-05
0.000411318
-1.30081e-05
0.000447236
-1.01416e-05
0.000479822
-7.81226e-06
0.000508918
-5.74537e-06
0.000534432
-3.97967e-06
0.000556422
-2.57739e-06
0.000575094
-1.56288e-06
0.000590753
-9.43924e-07
0.000603736
-6.93897e-07
-1.32933e-06
0.000615661
-5.13807e-06
0.000136747
6.34663e-07
0.00014601
1.19668e-05
0.000155038
2.48266e-05
0.000163999
3.60422e-05
0.000170746
4.24039e-05
0.00017269
3.98547e-05
0.000166652
2.19826e-05
0.000149345
-2.19855e-05
0.000117325
-0.000105789
6.66992e-05
-0.000252554
1.85376e-05
-0.000466773
-2.1047e-05
-0.000715752
-5.87402e-05
-0.000938228
-0.000113072
-0.00104346
-0.000159153
-0.00104975
-0.000209212
-0.000986548
-0.000237758
-0.000883485
-0.000244269
-0.000758335
-0.000237717
-0.000623005
-0.000224107
-0.0004859
-0.000205517
-0.000364016
-0.000168008
-0.000261881
-0.000133233
-0.000179858
-0.000104709
-0.000115902
-8.15182e-05
-6.65395e-05
-6.28912e-05
-2.89086e-05
-4.8203e-05
-1.66041e-06
-3.54183e-05
1.88397e-05
-2.65463e-05
3.52729e-05
-2.06668e-05
4.92144e-05
-1.67373e-05
6.15579e-05
-1.40916e-05
7.27418e-05
-1.22948e-05
8.29452e-05
-1.10507e-05
-9.72935e-06
9.1203e-05
6.25177e-05
7.44279e-05
0.00012071
8.80284e-05
0.000177681
9.8296e-05
0.000235061
0.000106874
0.000292308
0.000113786
0.000346928
0.000118398
0.000394033
0.000119923
0.000425356
0.00011843
0.000427498
0.000115617
0.000379578
0.000115123
0.000283411
0.000115282
0.000159
0.000104059
3.98671e-05
6.12094e-05
-3.73846e-05
-3.48845e-05
-3.60736e-05
-0.000159633
7.64739e-06
-0.000252126
7.04876e-05
-0.00029991
0.000135598
-0.00030877
0.000197428
-0.000298982
0.000256284
-0.000282457
0.000313019
-0.000261788
0.000358768
-0.000213357
0.000390656
-0.000164776
0.000408194
-0.000121944
0.000411987
-8.50437e-05
0.000403315
-5.39842e-05
0.000383721
-2.84059e-05
0.00035672
-8.24325e-06
0.000323565
6.76039e-06
0.000285735
1.7297e-05
0.00024494
2.41783e-05
0.000202742
2.82124e-05
0.000160429
3.01155e-05
0.000118968
3.05004e-05
2.95637e-05
7.9758e-05
1.22481e-05
6.20408e-05
2.97547e-05
7.03703e-05
5.14856e-05
7.64011e-05
7.56151e-05
8.25612e-05
0.000100823
8.83739e-05
0.000125718
9.32722e-05
0.000148748
9.6634e-05
0.000169346
9.7546e-05
0.000189718
9.49205e-05
0.000216548
8.78911e-05
0.000257518
7.38166e-05
0.000316463
4.45603e-05
0.000381132
-4.04672e-06
0.000409079
-6.34751e-05
0.000351578
-0.000102637
0.000228243
-0.000129265
7.10102e-05
-0.000143157
-8.85382e-05
-0.00014972
-0.000233448
-0.000154559
-0.000359903
-0.00015646
-0.000469344
-0.000152786
-0.000552349
-0.000130734
-0.000611993
-0.00010546
-0.000652704
-8.15164e-05
-0.000677439
-6.05564e-05
-0.000688445
-4.31985e-05
-0.000687739
-2.93087e-05
-0.000677704
-1.84527e-05
-0.000661583
-9.51427e-06
-0.000642258
-2.16555e-06
-0.000621085
2.88282e-06
-0.000599096
6.11323e-06
-0.000577382
8.30557e-06
-0.000556328
9.36087e-06
9.90693e-06
-0.000536746
2.97162e-05
3.23815e-05
5.86019e-05
4.15441e-05
8.79536e-05
4.71144e-05
0.000118937
5.16504e-05
0.000152317
5.50732e-05
0.000188775
5.69036e-05
0.000229201
5.63062e-05
0.000274954
5.1903e-05
0.000327675
4.23235e-05
0.000389293
2.64086e-05
0.000457626
5.62798e-06
0.000527656
-2.53312e-05
0.000574333
-5.05719e-05
0.000582446
-7.13961e-05
0.000555779
-7.57767e-05
0.000508217
-8.14877e-05
0.000452692
-8.74006e-05
0.000398955
-9.57508e-05
0.000349156
-0.000104535
0.000302052
-0.000109139
0.000256194
-0.000106721
0.0002136
-8.79665e-05
0.000174144
-6.58659e-05
0.000137385
-4.46452e-05
0.000102712
-2.57957e-05
6.91465e-05
-9.56254e-06
3.77304e-05
2.16327e-06
9.92467e-06
9.3993e-06
-1.43726e-05
1.48208e-05
-3.49995e-05
1.8493e-05
-5.26206e-05
2.05317e-05
-6.78306e-05
2.13476e-05
-8.0828e-05
2.13249e-05
-9.21904e-05
2.0744e-05
1.96098e-05
-0.000101874
1.39866e-05
1.83767e-05
2.96661e-05
2.58454e-05
4.59457e-05
3.08147e-05
6.26461e-05
3.49277e-05
7.94331e-05
3.82617e-05
9.58434e-05
4.04677e-05
0.00011122
4.09019e-05
0.000124478
3.86129e-05
0.000134439
3.23289e-05
0.000140944
1.98744e-05
0.000143756
2.7825e-06
0.000129878
-1.14796e-05
0.000104552
-2.52598e-05
7.13068e-05
-3.81875e-05
3.93196e-05
-4.38329e-05
9.05842e-06
-5.12734e-05
-2.07141e-05
-5.76775e-05
-5.49664e-05
-6.15552e-05
-9.70843e-05
-6.24846e-05
-0.000146079
-6.0223e-05
-0.000198042
-5.48463e-05
-0.00024298
-4.31147e-05
-0.000277592
-3.13374e-05
-0.000301158
-2.11575e-05
-0.000314063
-1.29649e-05
-0.000317366
-6.32794e-06
-0.000314975
-2.85449e-07
-0.000309953
4.32514e-06
-0.000303426
8.24884e-06
-0.000295502
1.05275e-05
-0.000286648
1.16409e-05
-0.000277343
1.20094e-05
-0.000267943
1.18952e-05
-0.000258697
1.14735e-05
1.10125e-05
-0.000250121
3.27063e-05
-1.42911e-05
7.03671e-05
-1.17731e-05
0.00011113
-9.90219e-06
0.000154856
-8.74728e-06
0.000201189
-8.01371e-06
0.000249242
-7.51814e-06
0.000297274
-7.05223e-06
0.000341915
-5.934e-06
0.000377439
-3.07588e-06
0.000396136
1.32943e-06
0.000389138
9.96909e-06
0.000357292
2.05827e-05
0.000307612
2.4625e-05
0.000250431
1.91592e-05
0.000201627
5.10301e-06
0.000160731
-1.0245e-05
0.000127572
-2.44039e-05
9.87893e-05
-3.26643e-05
7.27512e-05
-3.63518e-05
4.87427e-05
-3.61373e-05
2.6104e-05
-3.21409e-05
5.14028e-06
-2.20956e-05
-1.52518e-05
-1.09005e-05
-3.48579e-05
-1.5151e-06
-5.2868e-05
5.07417e-06
-6.82025e-05
9.02938e-06
-8.06496e-05
1.21793e-05
-9.06372e-05
1.43265e-05
-9.80324e-05
1.56544e-05
-0.000103827
1.63309e-05
-0.000108668
1.64886e-05
-0.000112903
1.62503e-05
-0.000116725
1.57219e-05
-0.00012024
1.4991e-05
1.40124e-05
-0.000123238
-1.27517e-05
-1.56243e-06
-2.30467e-05
-1.49707e-06
-3.13385e-05
-1.6245e-06
-3.8224e-05
-1.87327e-06
-4.4046e-05
-2.20259e-06
-4.89778e-05
-2.59756e-06
-5.29988e-05
-3.04283e-06
-5.54575e-05
-3.48735e-06
-5.47567e-05
-3.78996e-06
-5.00825e-05
-3.35833e-06
-3.84214e-05
-1.69666e-06
-1.81681e-05
3.25076e-07
5.86134e-06
5.761e-07
2.7624e-05
-2.64199e-06
3.97318e-05
-7.05725e-06
3.89032e-05
-9.49506e-06
2.52079e-05
-1.07737e-05
3.51962e-06
-1.10418e-05
-2.26389e-05
-1.02559e-05
-5.02057e-05
-8.62753e-06
-7.66044e-05
-5.79275e-06
-9.74427e-05
-1.30171e-06
-0.000111296
2.91393e-06
-0.000119896
7.0506e-06
-0.000125514
1.06613e-05
-0.000129452
1.29397e-05
-0.000131536
1.42399e-05
-0.00013199
1.47593e-05
-0.000131072
1.47187e-05
-0.000129044
1.42874e-05
-0.000126178
1.36095e-05
-0.000122737
1.27969e-05
-0.000118945
1.19194e-05
-0.000114989
1.10243e-05
1.02201e-05
-0.000111208
3.02999e-06
-4.56546e-06
5.49942e-06
-3.94225e-06
7.42447e-06
-3.52834e-06
8.79426e-06
-3.22267e-06
9.5653e-06
-2.9516e-06
9.65757e-06
-2.66524e-06
8.93779e-06
-2.29528e-06
7.35499e-06
-1.87296e-06
5.19521e-06
-1.59479e-06
3.15943e-06
-1.28046e-06
2.40729e-06
-8.9504e-07
3.37894e-06
-5.90869e-07
4.75617e-06
-7.41333e-07
3.66301e-06
-1.48597e-06
-1.19231e-06
-2.1442e-06
-7.62579e-06
-2.9984e-06
-1.48366e-05
-3.50397e-06
-2.2908e-05
-2.91746e-06
-3.19329e-05
-1.1851e-06
-4.20437e-05
1.52619e-06
-5.29415e-05
5.15761e-06
-6.21498e-05
7.9366e-06
-6.96697e-05
1.0456e-05
-7.5039e-05
1.24368e-05
-7.82085e-05
1.3844e-05
-8.0009e-05
1.47503e-05
-8.09842e-05
1.52226e-05
-8.15392e-05
1.53201e-05
-8.19209e-05
1.51049e-05
-8.22722e-05
1.46422e-05
-8.26682e-05
1.4008e-05
-8.31333e-05
1.3264e-05
-8.36646e-05
1.24518e-05
-8.42456e-05
1.16057e-05
1.07032e-05
-8.47289e-05
-3.75536e-06
-8.28216e-07
-6.58162e-06
-1.13871e-06
-8.79849e-06
-1.32954e-06
-1.04549e-05
-1.58303e-06
-1.15722e-05
-1.85093e-06
-1.21315e-05
-2.12373e-06
-1.20759e-05
-2.37077e-06
-1.1413e-05
-2.55869e-06
-1.03569e-05
-2.67724e-06
-8.94581e-06
-2.72244e-06
-7.34534e-06
-2.5309e-06
-5.83968e-06
-2.13771e-06
-5.06907e-06
-1.55963e-06
-5.85717e-06
-7.53449e-07
-8.22388e-06
1.69651e-07
-1.23371e-05
1.06135e-06
-1.79596e-05
2.06507e-06
-2.4318e-05
3.38917e-06
-3.13015e-05
5.75093e-06
-3.85537e-05
8.7319e-06
-4.56613e-05
1.2207e-05
-5.23095e-05
1.4548e-05
-5.7925e-05
1.60414e-05
-6.22601e-05
1.67468e-05
-6.52693e-05
1.68324e-05
-6.70573e-05
1.65205e-05
-6.77662e-05
1.59161e-05
-6.75747e-05
1.51154e-05
-6.66771e-05
1.41958e-05
-6.52613e-05
1.32165e-05
-6.3484e-05
1.22219e-05
-6.14708e-05
1.12431e-05
-5.93271e-05
1.03008e-05
-5.71357e-05
9.40772e-06
8.6224e-06
-5.50606e-05
-1.90995e-06
1.09465e-06
-4.06141e-06
1.02948e-06
-6.35966e-06
9.8017e-07
-8.8553e-06
9.21955e-07
-1.15326e-05
8.34625e-07
-1.43082e-05
6.60225e-07
-1.71315e-05
4.61572e-07
-1.99374e-05
2.57292e-07
-2.26809e-05
7.79282e-08
-2.53626e-05
-2.71165e-08
-2.7892e-05
1.36873e-08
-3.02937e-05
2.81221e-07
-3.27265e-05
8.92472e-07
-3.54756e-05
2.01728e-06
-3.83895e-05
3.10435e-06
-4.14017e-05
4.09015e-06
-4.4603e-05
5.28058e-06
-4.79228e-05
6.72138e-06
-5.06358e-05
8.47326e-06
-5.24767e-05
1.05802e-05
-5.33563e-05
1.30913e-05
-5.33788e-05
1.45733e-05
-5.28932e-05
1.55575e-05
-5.21128e-05
1.59669e-05
-5.11632e-05
1.58818e-05
-5.01953e-05
1.55509e-05
-4.93177e-05
1.50366e-05
-4.85903e-05
1.43859e-05
-4.80358e-05
1.36391e-05
-4.76517e-05
1.28301e-05
-4.74196e-05
1.19876e-05
-4.73136e-05
1.11348e-05
-4.73055e-05
1.02905e-05
-4.73689e-05
9.4689e-06
8.65799e-06
-4.74064e-05
7.60501e-07
3.26669e-07
1.61147e-06
1.70093e-07
2.4814e-06
1.0058e-07
3.32585e-06
6.63329e-08
4.08991e-06
5.75196e-08
4.65924e-06
7.58337e-08
4.97026e-06
1.33233e-07
4.96064e-06
2.47055e-07
4.57181e-06
4.44039e-07
3.75593e-06
7.62785e-07
2.48447e-06
1.25553e-06
7.42977e-07
1.98911e-06
-1.79628e-06
3.39411e-06
-5.1001e-06
5.27884e-06
-8.31884e-06
6.28282e-06
-1.18367e-05
7.57175e-06
-1.55723e-05
8.982e-06
-1.94691e-05
1.05862e-05
-2.34751e-05
1.24492e-05
-2.74918e-05
1.45688e-05
-3.13304e-05
1.69037e-05
-3.43689e-05
1.7589e-05
-3.64722e-05
1.76417e-05
-3.77485e-05
1.72267e-05
-3.83695e-05
1.64884e-05
-3.84453e-05
1.56142e-05
-3.80768e-05
1.46573e-05
-3.73598e-05
1.36595e-05
-3.63827e-05
1.26537e-05
-3.52247e-05
1.16649e-05
-3.39543e-05
1.07108e-05
-3.26283e-05
9.80326e-06
-3.12926e-05
8.94965e-06
-2.99817e-05
8.1535e-06
7.43875e-06
-2.87665e-05
-3.34527e-06
3.67317e-06
-6.69182e-06
3.51766e-06
-9.9845e-06
3.39413e-06
-1.31803e-05
3.26286e-06
-1.62243e-05
3.1023e-06
-1.9075e-05
2.92726e-06
-2.17117e-05
2.77066e-06
-2.41342e-05
2.67017e-06
-2.63464e-05
2.65693e-06
-2.83501e-05
2.76698e-06
-3.01522e-05
3.05784e-06
-3.17697e-05
3.60629e-06
-3.28919e-05
4.51497e-06
-3.35778e-05
5.96183e-06
-3.40048e-05
6.70569e-06
-3.43147e-05
7.87636e-06
-3.45214e-05
9.18234e-06
-3.46005e-05
1.06581e-05
-3.44837e-05
1.23245e-05
-3.40816e-05
1.41582e-05
-3.33353e-05
1.61485e-05
-3.24149e-05
1.66609e-05
-3.13122e-05
1.65323e-05
-3.01207e-05
1.60288e-05
-2.8982e-05
1.53438e-05
-2.79412e-05
1.45682e-05
-2.70229e-05
1.37345e-05
-2.62363e-05
1.28688e-05
-2.55784e-05
1.19922e-05
-2.50385e-05
1.11219e-05
-2.46018e-05
1.02713e-05
-2.42517e-05
9.45078e-06
-2.3972e-05
8.66771e-06
-2.37475e-05
7.92704e-06
7.21912e-06
-2.35297e-05
1.52704e-06
2.1412e-06
2.97061e-06
2.06861e-06
4.32638e-06
2.03225e-06
5.5406e-06
2.04175e-06
6.53701e-06
2.09808e-06
7.23836e-06
2.217e-06
7.5732e-06
2.42561e-06
7.47775e-06
2.75393e-06
6.89344e-06
3.22793e-06
5.77125e-06
3.87402e-06
4.08246e-06
4.7295e-06
1.82238e-06
5.84709e-06
-9.91728e-07
7.30764e-06
-4.2977e-06
9.24414e-06
-7.28369e-06
9.67023e-06
-1.00731e-05
1.06452e-05
-1.26472e-05
1.17368e-05
-1.50137e-05
1.3006e-05
-1.71699e-05
1.4463e-05
-1.90991e-05
1.60707e-05
-2.07589e-05
1.77924e-05
-2.18357e-05
1.77242e-05
-2.23367e-05
1.70219e-05
-2.24434e-05
1.61258e-05
-2.22587e-05
1.51508e-05
-2.18376e-05
1.414e-05
-2.12327e-05
1.31236e-05
-2.04921e-05
1.21231e-05
-1.96589e-05
1.11545e-05
-1.87702e-05
1.02294e-05
-1.78575e-05
9.3552e-06
-1.69458e-05
8.53628e-06
-1.60551e-05
7.77439e-06
-1.51997e-05
7.06945e-06
6.42828e-06
-1.44109e-05
-5.01732e-07
2.64264e-06
-1.41116e-06
2.97757e-06
-2.6317e-06
3.25215e-06
-4.10536e-06
3.5146e-06
-5.77516e-06
3.76689e-06
-7.57574e-06
4.0164e-06
-9.43479e-06
4.28327e-06
-1.12788e-05
4.59638e-06
-1.3037e-05
4.98421e-06
-1.46474e-05
5.48218e-06
-1.60613e-05
6.1407e-06
-1.72423e-05
7.02471e-06
-1.81757e-05
8.23674e-06
-1.88887e-05
9.95159e-06
-1.94017e-05
1.01775e-05
-1.97623e-05
1.09995e-05
-1.997e-05
1.19379e-05
-2.0018e-05
1.30472e-05
-1.98915e-05
1.43296e-05
-1.95875e-05
1.57599e-05
-1.90509e-05
1.72494e-05
-1.83076e-05
1.69753e-05
-1.74669e-05
1.61764e-05
-1.66264e-05
1.52813e-05
-1.58168e-05
1.4338e-05
-1.50571e-05
1.33776e-05
-1.43572e-05
1.24215e-05
-1.37222e-05
1.14862e-05
-1.31524e-05
1.05833e-05
-1.26449e-05
9.72081e-06
-1.21943e-05
8.90365e-06
-1.17934e-05
8.13464e-06
-1.14348e-05
7.41527e-06
-1.11122e-05
6.74629e-06
6.12231e-06
-1.08066e-05
7.37228e-07
1.90351e-06
1.52106e-06
2.19162e-06
2.30049e-06
2.47034e-06
3.02444e-06
2.78796e-06
3.63159e-06
3.15668e-06
4.0579e-06
3.58657e-06
4.23742e-06
4.09975e-06
4.10556e-06
4.72362e-06
3.61379e-06
5.47071e-06
2.73434e-06
6.35564e-06
1.46166e-06
7.40664e-06
-1.87539e-07
8.66634e-06
-2.17609e-06
1.02169e-05
-4.41687e-06
1.21831e-05
-6.33597e-06
1.20881e-05
-8.03677e-06
1.26922e-05
-9.51565e-06
1.3409e-05
-1.07644e-05
1.42887e-05
-1.17865e-05
1.5345e-05
-1.25549e-05
1.65221e-05
-1.2975e-05
1.76641e-05
-1.30444e-05
1.70402e-05
-1.29005e-05
1.60289e-05
-1.2601e-05
1.4979e-05
-1.21824e-05
1.39174e-05
-1.16744e-05
1.28679e-05
-1.11036e-05
1.18496e-05
-1.04928e-05
1.08746e-05
-9.86109e-06
9.95097e-06
-9.22399e-06
9.08334e-06
-8.59438e-06
8.27385e-06
-7.98294e-06
7.52313e-06
-7.39841e-06
6.83075e-06
-6.84707e-06
6.195e-06
5.61634e-06
-6.341e-06
-5.53873e-07
2.45765e-06
-1.18689e-06
2.82491e-06
-1.88996e-06
3.17369e-06
-2.64918e-06
3.54749e-06
-3.44807e-06
3.95591e-06
-4.27379e-06
4.41268e-06
-5.10875e-06
4.93513e-06
-5.92459e-06
5.53992e-06
-6.69745e-06
6.24406e-06
-7.41319e-06
7.07187e-06
-8.06638e-06
8.06026e-06
-8.66971e-06
9.27001e-06
-9.24295e-06
1.07902e-05
-9.80139e-06
1.27414e-05
-1.0285e-05
1.25713e-05
-1.06968e-05
1.31035e-05
-1.10077e-05
1.37192e-05
-1.11932e-05
1.44734e-05
-1.12487e-05
1.53998e-05
-1.11148e-05
1.63878e-05
-1.07481e-05
1.72971e-05
-1.02561e-05
1.65482e-05
-9.71523e-06
1.54884e-05
-9.15019e-06
1.44146e-05
-8.58263e-06
1.33507e-05
-8.02938e-06
1.23156e-05
-7.50078e-06
1.1322e-05
-7.00289e-06
1.03778e-05
-6.53793e-06
9.48717e-06
-6.10581e-06
8.65241e-06
-5.70585e-06
7.87507e-06
-5.33711e-06
7.15553e-06
-4.99804e-06
6.49277e-06
-4.68673e-06
5.8847e-06
5.32662e-06
-4.39608e-06
4.36373e-07
2.02126e-06
8.34029e-07
2.42727e-06
1.19287e-06
2.81489e-06
1.4917e-06
3.24873e-06
1.7004e-06
3.74729e-06
1.78634e-06
4.32685e-06
1.7183e-06
5.00331e-06
1.47293e-06
5.78543e-06
1.03436e-06
6.68283e-06
3.93804e-07
7.71266e-06
-4.49795e-07
8.90419e-06
-1.48567e-06
1.03063e-05
-2.68141e-06
1.19866e-05
-3.97291e-06
1.40336e-05
-5.04589e-06
1.3645e-05
-5.97848e-06
1.40369e-05
-6.76219e-06
1.45039e-05
-7.38033e-06
1.50927e-05
-7.78261e-06
1.58034e-05
-7.9367e-06
1.65434e-05
-7.89812e-06
1.72604e-05
-7.72085e-06
1.63729e-05
-7.44125e-06
1.52108e-05
-7.09053e-06
1.40659e-05
-6.69101e-06
1.29532e-05
-6.25747e-06
1.18842e-05
-5.80254e-06
1.08691e-05
-5.33813e-06
9.91535e-06
-4.87506e-06
9.026e-06
-4.42302e-06
8.20218e-06
-3.98965e-06
7.44341e-06
-3.58017e-06
6.74764e-06
-3.19749e-06
6.11156e-06
-2.8427e-06
5.53126e-06
5.00372e-06
-2.51856e-06
-3.38858e-07
2.36113e-06
-6.99696e-07
2.78921e-06
-1.08767e-06
3.20407e-06
-1.4973e-06
3.65971e-06
-1.92081e-06
4.17233e-06
-2.34747e-06
4.75522e-06
-2.76409e-06
5.42188e-06
-3.16221e-06
6.18575e-06
-3.5419e-06
7.06502e-06
-3.91273e-06
8.0863e-06
-4.29035e-06
9.28495e-06
-4.68866e-06
1.07081e-05
-5.11555e-06
1.24173e-05
-5.569e-06
1.44914e-05
-5.9637e-06
1.40437e-05
-6.30614e-06
1.43832e-05
-6.58452e-06
1.47861e-05
-6.77595e-06
1.52879e-05
-6.82999e-06
1.58613e-05
-6.73085e-06
1.64482e-05
-6.4964e-06
1.703e-05
-6.1795e-06
1.60598e-05
-5.81119e-06
1.48462e-05
-5.41278e-06
1.36709e-05
-5.00194e-06
1.25456e-05
-4.59319e-06
1.14784e-05
-4.19648e-06
1.04752e-05
-3.81809e-06
9.53958e-06
-3.46294e-06
8.67331e-06
-3.1341e-06
7.87563e-06
-2.83239e-06
7.14381e-06
-2.55667e-06
6.47386e-06
-2.30475e-06
5.86142e-06
-2.07425e-06
5.30237e-06
4.7922e-06
-1.86127e-06
1.76148e-07
2.1859e-06
3.00629e-07
2.66576e-06
3.90124e-07
3.11574e-06
4.36386e-07
3.61477e-06
4.25873e-07
4.18433e-06
3.45789e-07
4.837e-06
1.86008e-07
5.58359e-06
-6.24759e-08
6.43645e-06
-4.08226e-07
7.41331e-06
-8.56422e-07
8.53741e-06
-1.40507e-06
9.83693e-06
-2.04207e-06
1.1349e-05
-2.74444e-06
1.31241e-05
-3.47665e-06
1.52285e-05
-4.07423e-06
1.4646e-05
-4.58019e-06
1.48938e-05
-4.98893e-06
1.51995e-05
-5.26686e-06
1.55704e-05
-5.40317e-06
1.60022e-05
-5.4118e-06
1.64615e-05
-5.2987e-06
1.69216e-05
-5.09181e-06
1.58574e-05
-4.82266e-06
1.45811e-05
-4.51494e-06
1.3367e-05
-4.18617e-06
1.22203e-05
-3.84999e-06
1.11454e-05
-3.51758e-06
1.01457e-05
-3.1964e-06
9.2211e-06
-2.89012e-06
8.3695e-06
-2.60009e-06
7.58788e-06
-2.32662e-06
6.87244e-06
-2.06972e-06
6.21888e-06
-1.82946e-06
5.62291e-06
-1.60589e-06
5.08038e-06
4.58754e-06
-1.39983e-06
-1.92954e-07
2.37992e-06
-4.00929e-07
2.87494e-06
-6.25844e-07
3.34198e-06
-8.63423e-07
3.85385e-06
-1.10811e-06
4.43072e-06
-1.35592e-06
5.08675e-06
-1.60605e-06
5.83594e-06
-1.86157e-06
6.69448e-06
-2.1279e-06
7.68249e-06
-2.41157e-06
8.82433e-06
-2.72125e-06
1.01503e-05
-3.06466e-06
1.16966e-05
-3.44039e-06
1.35046e-05
-3.8327e-06
1.56262e-05
-4.16068e-06
1.4979e-05
-4.43821e-06
1.51763e-05
-4.65949e-06
1.54256e-05
-4.8074e-06
1.57232e-05
-4.8596e-06
1.60592e-05
-4.81215e-06
1.64188e-05
-4.6736e-06
1.67878e-05
-4.4677e-06
1.56559e-05
-4.2188e-06
1.43361e-05
-3.94504e-06
1.30968e-05
-3.66076e-06
1.19392e-05
-3.37689e-06
1.08645e-05
-3.10015e-06
9.87168e-06
-2.83444e-06
8.95784e-06
-2.58198e-06
8.11928e-06
-2.34381e-06
7.35176e-06
-2.12027e-06
6.65078e-06
-1.91144e-06
6.01175e-06
-1.71717e-06
5.43019e-06
-1.53717e-06
4.90175e-06
4.42209e-06
-1.3705e-06
1.69476e-08
2.36386e-06
7.52509e-09
2.88535e-06
-2.68889e-08
3.37751e-06
-8.98181e-08
3.91805e-06
-1.86642e-07
4.52898e-06
-3.23167e-07
5.22491e-06
-5.05025e-07
6.01965e-06
-7.37021e-07
6.9286e-06
-1.02172e-06
7.96962e-06
-1.35926e-06
9.16465e-06
-1.74712e-06
1.05414e-05
-2.17785e-06
1.21309e-05
-2.63821e-06
1.39691e-05
-3.11154e-06
1.61042e-05
-3.49947e-06
1.53713e-05
-3.82332e-06
1.55045e-05
-4.07524e-06
1.56818e-05
-4.2475e-06
1.58996e-05
-4.33307e-06
1.61489e-05
-4.33206e-06
1.64219e-05
-4.24697e-06
1.67068e-05
-4.09676e-06
1.55093e-05
-3.90367e-06
1.41463e-05
-3.68426e-06
1.28803e-05
-3.45097e-06
1.17086e-05
-3.21244e-06
1.06283e-05
-2.97432e-06
9.63569e-06
-2.74068e-06
8.72612e-06
-2.51439e-06
7.89474e-06
-2.29755e-06
7.1365e-06
-2.09163e-06
6.4463e-06
-1.89768e-06
5.81911e-06
-1.71633e-06
5.25001e-06
-1.54788e-06
4.73432e-06
4.26763e-06
-1.39251e-06
-1.26213e-07
2.49074e-06
-2.65266e-07
3.02517e-06
-4.16454e-07
3.52956e-06
-5.80008e-07
4.08258e-06
-7.56454e-07
4.70654e-06
-9.46983e-07
5.41671e-06
-1.15342e-06
6.22754e-06
-1.37783e-06
7.15466e-06
-1.62246e-06
8.21614e-06
-1.88842e-06
9.43276e-06
-2.17397e-06
1.08294e-05
-2.47662e-06
1.24364e-05
-2.79504e-06
1.42907e-05
-3.12867e-06
1.64415e-05
-3.41565e-06
1.56616e-05
-3.66611e-06
1.57582e-05
-3.86788e-06
1.58868e-05
-4.01062e-06
1.60455e-05
-4.08751e-06
1.62288e-05
-4.09312e-06
1.64305e-05
-4.02633e-06
1.66429e-05
-3.90335e-06
1.53889e-05
-3.74196e-06
1.39872e-05
-3.55587e-06
1.26962e-05
-3.35566e-06
1.15101e-05
-3.14911e-06
1.04233e-05
-2.94191e-06
9.42988e-06
-2.7383e-06
8.52374e-06
-2.54129e-06
7.69883e-06
-2.35296e-06
6.94917e-06
-2.17465e-06
6.26891e-06
-2.00716e-06
5.65244e-06
-1.85084e-06
5.09442e-06
-1.70572e-06
4.58982e-06
4.13388e-06
-1.57142e-06
-4.26912e-08
2.53385e-06
-1.05305e-07
3.08825e-06
-1.86925e-07
3.6117e-06
-2.89708e-07
4.18595e-06
-4.16389e-07
4.83388e-06
-5.70284e-07
5.57136e-06
-7.55226e-07
6.41334e-06
-9.74171e-07
7.37459e-06
-1.22826e-06
8.47135e-06
-1.51583e-06
9.72162e-06
-1.83099e-06
1.1146e-05
-2.16683e-06
1.27739e-05
-2.51897e-06
1.46447e-05
-2.88267e-06
1.68073e-05
-3.18571e-06
1.59666e-05
-3.4445e-06
1.60189e-05
-3.65386e-06
1.6098e-05
-3.80818e-06
1.62016e-05
-3.90301e-06
1.63254e-05
-3.93506e-06
1.64641e-05
-3.90264e-06
1.6612e-05
-3.81599e-06
1.53035e-05
-3.69097e-06
1.38632e-05
-3.54008e-06
1.25462e-05
-3.373e-06
1.13438e-05
-3.19709e-06
1.0248e-05
-3.01795e-06
9.25126e-06
-2.83977e-06
8.34601e-06
-2.66567e-06
7.52512e-06
-2.49786e-06
6.78171e-06
-2.33793e-06
6.10928e-06
-2.18687e-06
5.50164e-06
-2.04528e-06
4.95305e-06
-1.91341e-06
4.45813e-06
4.01191e-06
-1.79132e-06
-1.01018e-07
2.63499e-06
-2.16564e-07
3.20394e-06
-3.44861e-07
3.74016e-06
-4.86397e-07
4.32767e-06
-6.41573e-07
4.98927e-06
-8.10029e-07
5.74005e-06
-9.91901e-07
6.59548e-06
-1.18856e-06
7.57156e-06
-1.40214e-06
8.68527e-06
-1.63614e-06
9.95601e-06
-1.89477e-06
1.14051e-05
-2.17952e-06
1.30592e-05
-2.48843e-06
1.49542e-05
-2.81591e-06
1.71354e-05
-3.09528e-06
1.62465e-05
-3.33892e-06
1.6263e-05
-3.54149e-06
1.6301e-05
-3.69789e-06
1.63583e-05
-3.80375e-06
1.64314e-05
-3.85544e-06
1.65159e-05
-3.85026e-06
1.66068e-05
-3.79402e-06
1.52472e-05
-3.70016e-06
1.37692e-05
-3.57991e-06
1.24257e-05
-3.4422e-06
1.12058e-05
-3.29408e-06
1.00996e-05
-3.14103e-06
9.09786e-06
-2.98725e-06
8.19188e-06
-2.83588e-06
7.37341e-06
-2.68918e-06
6.63471e-06
-2.54876e-06
5.96856e-06
-2.41566e-06
5.36827e-06
-2.29049e-06
4.82762e-06
-2.17357e-06
4.34093e-06
3.90296e-06
-2.06488e-06
-6.49729e-08
2.69984e-06
-1.47624e-07
3.28644e-06
-2.44855e-07
3.83721e-06
-3.58752e-07
4.44136e-06
-4.91962e-07
5.12223e-06
-6.46475e-07
5.89429e-06
-8.22755e-07
6.77145e-06
-1.02118e-06
7.76962e-06
-1.2427e-06
8.90637e-06
-1.48797e-06
1.02008e-05
-1.75795e-06
1.16745e-05
-2.05284e-06
1.33534e-05
-2.36992e-06
1.52705e-05
-2.70293e-06
1.74675e-05
-2.98545e-06
1.65282e-05
-3.23303e-06
1.65097e-05
-3.4426e-06
1.65095e-05
-3.61074e-06
1.65253e-05
-3.73411e-06
1.65536e-05
-3.80949e-06
1.659e-05
-3.83395e-06
1.66298e-05
-3.80939e-06
1.52211e-05
-3.74729e-06
1.37056e-05
-3.65784e-06
1.23348e-05
-3.54935e-06
1.10959e-05
-3.42851e-06
9.97747e-06
-3.30062e-06
8.96878e-06
-3.16984e-06
8.05998e-06
-3.03933e-06
7.24187e-06
-2.91147e-06
6.5059e-06
-2.78797e-06
5.8442e-06
-2.67004e-06
5.24954e-06
-2.55846e-06
4.71531e-06
-2.4537e-06
4.23547e-06
3.80457e-06
-2.35596e-06
-8.35529e-08
2.783e-06
-1.81703e-07
3.38415e-06
-2.92478e-07
3.94748e-06
-4.15535e-07
4.56384e-06
-5.51327e-07
5.25737e-06
-7.01669e-07
6.04388e-06
-8.68776e-07
6.9377e-06
-1.05436e-06
7.95422e-06
-1.25996e-06
9.11084e-06
-1.48724e-06
1.04268e-05
-1.73795e-06
1.19237e-05
-2.0133e-06
1.36271e-05
-2.31244e-06
1.55677e-05
-2.63125e-06
1.7784e-05
-2.90658e-06
1.68013e-05
-3.15272e-06
1.67535e-05
-3.36668e-06
1.67211e-05
-3.5453e-06
1.67015e-05
-3.68537e-06
1.66911e-05
-3.78363e-06
1.66855e-05
-3.83678e-06
1.66801e-05
-3.84298e-06
1.52246e-05
-3.81179e-06
1.36719e-05
-3.75238e-06
1.2273e-05
-3.67243e-06
1.10137e-05
-3.57828e-06
9.8812e-06
-3.47507e-06
8.86361e-06
-3.36692e-06
7.95002e-06
-3.25704e-06
7.13032e-06
-3.14789e-06
6.39523e-06
-3.0413e-06
5.73623e-06
-2.9386e-06
5.14558e-06
-2.84069e-06
4.61624e-06
-2.74817e-06
4.14188e-06
3.71676e-06
-2.66135e-06
-6.76791e-08
2.8501e-06
-1.51772e-07
3.46757e-06
-2.4993e-07
4.04488e-06
-3.62451e-07
4.67549e-06
-4.90479e-07
5.38439e-06
-6.35251e-07
6.1875e-06
-7.9836e-07
7.09948e-06
-9.81426e-07
8.13578e-06
-1.18572e-06
9.3134e-06
-1.41225e-06
1.06513e-05
-1.66187e-06
1.21711e-05
-1.93503e-06
1.38976e-05
-2.23101e-06
1.58606e-05
-2.54694e-06
1.80965e-05
-2.82177e-06
1.70727e-05
-3.07083e-06
1.69992e-05
-3.29208e-06
1.69388e-05
-3.48306e-06
1.68889e-05
-3.64097e-06
1.68453e-05
-3.76271e-06
1.68033e-05
-3.84482e-06
1.67581e-05
-3.88191e-06
1.52578e-05
-3.88174e-06
1.36681e-05
-3.85247e-06
1.22404e-05
-3.80115e-06
1.09593e-05
-3.73374e-06
9.81091e-06
-3.65519e-06
8.78241e-06
-3.56954e-06
7.86195e-06
-3.48008e-06
7.03863e-06
-3.38932e-06
6.30245e-06
-3.29925e-06
5.64431e-06
-3.21132e-06
5.05597e-06
-3.12661e-06
4.53e-06
-3.04586e-06
4.05971e-06
3.63914e-06
-2.96952e-06
-7.29134e-08
2.92226e-06
-1.59179e-07
3.55297e-06
-2.57124e-07
4.14183e-06
-3.67571e-07
4.7848e-06
-4.91671e-07
5.50719e-06
-6.30762e-07
6.32511e-06
-7.86428e-07
7.25344e-06
-9.60374e-07
8.30777e-06
-1.15428e-06
9.50506e-06
-1.36973e-06
1.08642e-05
-1.60811e-06
1.24065e-05
-1.87037e-06
1.41564e-05
-2.15658e-06
1.61429e-05
-2.46516e-06
1.84005e-05
-2.73727e-06
1.73405e-05
-2.98808e-06
1.72455e-05
-3.21594e-06
1.71622e-05
-3.41879e-06
1.70871e-05
-3.59409e-06
1.70158e-05
-3.73882e-06
1.69432e-05
-3.84945e-06
1.68637e-05
-3.91713e-06
1.53207e-05
-3.94779e-06
1.36943e-05
-3.94863e-06
1.22371e-05
-3.926e-06
1.09328e-05
-3.88544e-06
9.76685e-06
-3.83171e-06
8.72546e-06
-3.76877e-06
7.79607e-06
-3.69991e-06
6.96707e-06
-3.62776e-06
6.22785e-06
-3.55441e-06
5.56874e-06
-3.48148e-06
4.98101e-06
-3.41017e-06
4.45684e-06
-3.34137e-06
3.98923e-06
-3.27569e-06
3.57192e-06
0.000488496
2.44043e-05
0.00047776
2.52688e-05
0.000466661
2.5319e-05
0.000454924
2.55945e-05
0.000442138
2.62291e-05
0.000427767
2.73353e-05
0.000411164
2.90194e-05
0.000391604
3.13485e-05
0.000368602
3.40824e-05
0.000342272
3.66064e-05
0.000312717
3.89665e-05
0.000281099
4.03152e-05
0.000250224
3.92553e-05
0.000220149
3.82808e-05
0.000190718
3.7496e-05
0.00016194
3.6744e-05
0.000133907
3.5947e-05
0.000106729
3.50899e-05
8.05327e-05
3.41539e-05
5.54697e-05
3.31159e-05
3.1695e-05
3.19364e-05
3.11502e-05
8.22459e-06
0.000646411
-6.16126e-06
0.000681985
-1.01151e-05
0.000720188
-1.26892e-05
0.000760413
-1.44312e-05
0.000801882
-1.50418e-05
0.000843656
-1.42448e-05
0.000884506
-1.16394e-05
0.00092275
-6.69648e-06
0.000956039
9.91256e-07
0.000981513
1.13214e-05
0.000994756
2.58973e-05
0.000992847
4.24025e-05
0.000975882
5.63919e-05
0.000945841
6.84723e-05
0.000904795
7.867e-05
0.000854627
8.70168e-05
0.000797052
9.36097e-05
0.000733583
9.86278e-05
0.000665545
0.000102246
0.000594081
0.000104621
0.000520168
0.00010588
0.000105556
0.000445783
9.50608e-05
-1.0238e-05
9.41269e-05
-9.37266e-06
9.00088e-05
-8.74258e-06
8.31969e-05
-7.78033e-06
7.45809e-05
-6.58524e-06
6.52461e-05
-5.06332e-06
5.65954e-05
-3.13745e-06
5.01206e-05
-3.62003e-07
4.69832e-05
3.99254e-06
4.75937e-05
1.05827e-05
5.39252e-05
1.94611e-05
6.65061e-05
2.97117e-05
8.39727e-05
3.88026e-05
0.000101977
5.03201e-05
0.000120364
6.0138e-05
0.000138897
6.83535e-05
0.000157338
7.505e-05
0.000175543
8.03121e-05
0.000193461
8.42239e-05
0.000211111
8.68717e-05
0.000228549
8.83459e-05
8.93944e-05
0.000244621
2.65092e-05
4.3167e-05
-2.93573e-05
4.66782e-05
-8.83991e-05
5.04633e-05
-0.000149717
5.36845e-05
-0.000212153
5.59871e-05
-0.000274361
5.72756e-05
-0.000334752
5.74046e-05
-0.000391154
5.62194e-05
-0.000440788
5.3818e-05
-0.000480687
5.0684e-05
-0.000508602
4.75868e-05
-0.000523701
4.50222e-05
-0.000527497
4.27987e-05
-0.000519204
4.2225e-05
-0.000502002
4.31259e-05
-0.000478656
4.51762e-05
-0.000451382
4.79237e-05
-0.000421945
5.0994e-05
-0.00039171
5.40835e-05
-0.000361727
5.69552e-05
-0.000332794
5.9458e-05
6.11054e-05
-0.000304484
-0.000507359
1.36648e-05
-0.000478787
1.79913e-05
-0.000449927
2.14905e-05
-0.000420866
2.45131e-05
-0.000391988
2.70049e-05
-0.000363741
2.89334e-05
-0.000336818
3.03842e-05
-0.00031199
3.12883e-05
-0.000289861
3.15866e-05
-0.000270757
3.14932e-05
-0.000254633
3.14021e-05
-0.000241069
3.14223e-05
-0.000229284
3.09918e-05
-0.000218574
3.15049e-05
-0.000208093
3.26468e-05
-0.000197143
3.424e-05
-0.000185293
3.60971e-05
-0.000172304
3.80409e-05
-0.000158105
3.99305e-05
-0.000142745
4.16542e-05
-0.000126352
4.31353e-05
4.46027e-05
-0.000109769
-0.000113594
2.54158e-05
-0.000122703
2.71289e-05
-0.000130246
2.90584e-05
-0.000136561
3.08495e-05
-0.000142034
3.24965e-05
-0.000147084
3.40003e-05
-0.000152051
3.53644e-05
-0.000157364
3.66126e-05
-0.000163505
3.77373e-05
-0.000170713
3.87111e-05
-0.000178853
3.95534e-05
-0.000187413
3.99911e-05
-0.00019578
3.93675e-05
-0.000203331
3.9063e-05
-0.000209645
3.89664e-05
-0.000214446
3.90419e-05
-0.000217585
3.92339e-05
-0.00021905
3.95007e-05
-0.000218943
3.98155e-05
-0.000217441
4.01421e-05
-0.000214766
4.04471e-05
4.04846e-05
-0.000210664
-0.000238959
1.42211e-05
-0.000228423
1.65625e-05
-0.000217944
1.85493e-05
-0.000207589
2.04672e-05
-0.000197468