/*--------------------------------*- C++ -*----------------------------------*\
  =========                 |
  \\      /  F ield         | OpenFOAM: The Open Source CFD Toolbox
   \\    /   O peration     | Website:  https://openfoam.org
    \\  /    A nd           | Version:  8
     \\/     M anipulation  |
\*---------------------------------------------------------------------------*/
FoamFile
{
    version     2.0;
    format      ascii;
    class       volVectorField;
    location    "0.08";
    object      U;
}
// * * * * * * * * * * * * * * * * * * * * * * * * * * * * * * * * * * * * * //

dimensions      [0 1 -1 0 0 0 0];

internalField   nonuniform List<vector> 
15677
(
(-0.180892 -146.514 0)
(-0.224523 -145.642 0)
(-0.257273 -140.083 0)
(-0.221973 -134.379 0)
(-0.118507 -128.53 0)
(0.0262307 -122.389 0)
(0.224557 -115.924 0)
(0.507411 -109.095 0)
(0.918883 -101.9 0)
(1.58175 -94.4862 0)
(2.7679 -87.2845 0)
(4.53708 -81.1488 0)
(6.62944 -76.4762 0)
(8.45555 -73.4829 0)
(9.85474 -76.6771 0)
(10.8196 -80.0986 0)
(11.4342 -83.6245 0)
(11.8129 -87.1257 0)
(11.9672 -90.3649 0)
(11.9613 -92.9037 0)
(11.7864 -94.6305 0)
(11.4951 -95.4443 0)
(11.1636 -95.4387 0)
(10.8225 -94.7651 0)
(10.4999 -93.5369 0)
(10.206 -91.964 0)
(9.94101 -90.3233 0)
(9.71112 -88.7774 0)
(9.51981 -87.3946 0)
(9.37053 -86.2172 0)
(9.26638 -85.2495 0)
(9.20723 -84.4586 0)
(9.19031 -83.8276 0)
(9.21318 -83.3573 0)
(9.2862 -83.0409 0)
(-2.12495 129.146 0)
(-5.82444 126.009 0)
(-10.2504 120.556 0)
(-15.133 114.754 0)
(-20.3694 108.344 0)
(-25.7391 101.067 0)
(-30.98 92.7316 0)
(-35.7491 83.0693 0)
(-39.4957 71.403 0)
(-41.2834 57.1003 0)
(-41.0416 42.1638 0)
(-37.9277 31.9116 0)
(-32.9057 29.2666 0)
(-26.1498 32.9793 0)
(-19.4945 40.5521 0)
(-14.0753 48.177 0)
(-9.48282 55.0134 0)
(-5.49343 60.8788 0)
(-2.07984 66.0448 0)
(0.861803 70.2644 0)
(3.43725 73.7434 0)
(5.58113 76.5869 0)
(7.31527 78.5955 0)
(8.79491 79.741 0)
(10.114 80.3062 0)
(11.308 80.6605 0)
(12.3992 80.9738 0)
(13.3962 81.3051 0)
(14.2959 81.6612 0)
(15.0935 82.0032 0)
(15.7886 82.2787 0)
(16.3834 82.4344 0)
(16.8844 82.4246 0)
(17.2988 82.2176 0)
(17.633 81.7927 0)
(-0.163342 69.8288 0)
(-0.0757421 63.9586 0)
(0.147975 57.3628 0)
(0.430461 49.6308 0)
(0.711385 40.1387 0)
(0.933316 28.4334 0)
(0.998243 14.0111 0)
(0.780693 -3.6231 0)
(0.127217 -24.5962 0)
(-1.19707 -47.4784 0)
(-3.88898 -67.6132 0)
(-8.11513 -81.5798 0)
(-13.9039 -87.2722 0)
(-20.0134 -86.417 0)
(-23.635 -82.2415 0)
(-24.805 -79.0515 0)
(-23.8602 -76.7178 0)
(-21.7081 -74.9174 0)
(-18.9919 -73.3151 0)
(-15.9209 -71.8089 0)
(-12.7006 -70.287 0)
(-9.68747 -68.8958 0)
(-7.10985 -67.9283 0)
(-4.99468 -67.4672 0)
(-3.3242 -67.4479 0)
(-2.03012 -67.772 0)
(-1.04549 -68.3274 0)
(-0.322671 -69.0143 0)
(0.20833 -69.7241 0)
(0.624928 -70.4224 0)
(0.967046 -71.0887 0)
(1.26332 -71.7106 0)
(1.5288 -72.2931 0)
(1.77795 -72.8469 0)
(2.01484 -73.3833 0)
(1.14454 79.8711 0)
(2.78873 80.3551 0)
(4.41833 78.1779 0)
(6.08353 75.2192 0)
(7.76919 71.8167 0)
(9.41301 67.9637 0)
(10.904 63.7571 0)
(12.1298 59.8828 0)
(12.7598 57.5037 0)
(12.1049 57.8802 0)
(9.94522 60.2051 0)
(6.41073 61.4734 0)
(2.46536 58.3297 0)
(-0.51041 47.4587 0)
(-1.44517 28.6854 0)
(-0.515881 12.6134 0)
(1.01804 3.3321 0)
(3.02621 0.0741599 0)
(4.89942 0.170072 0)
(6.63928 2.0398 0)
(8.36995 5.15955 0)
(9.91394 9.55423 0)
(11.1283 14.6162 0)
(11.8942 19.9828 0)
(12.2293 25.5427 0)
(12.1741 31.1382 0)
(11.7675 36.555 0)
(11.0793 41.4112 0)
(10.178 45.408 0)
(9.11116 48.5589 0)
(7.93507 51.0437 0)
(6.69533 52.9897 0)
(5.43406 54.4961 0)
(4.17183 55.646 0)
(2.93655 56.5102 0)
(0.234718 32.763 0)
(0.574204 31.2698 0)
(1.13828 28.5638 0)
(1.77613 25.5534 0)
(2.46837 22.1081 0)
(3.17879 18.1658 0)
(3.84491 13.7049 0)
(4.44176 8.62975 0)
(4.95822 2.88165 0)
(5.57955 -3.41907 0)
(6.47022 -10.6192 0)
(7.87841 -19.4746 0)
(9.62713 -30.8673 0)
(11.3693 -43.2676 0)
(11.0573 -51.4996 0)
(8.43045 -55.6761 0)
(4.25089 -56.7293 0)
(-0.376822 -55.3993 0)
(-4.55846 -53.5012 0)
(-8.24853 -51.8696 0)
(-11.4779 -50.5178 0)
(-14.0862 -49.1501 0)
(-16.0055 -47.5524 0)
(-17.3254 -45.7098 0)
(-18.197 -43.7099 0)
(-18.6703 -41.5928 0)
(-18.781 -39.2997 0)
(-18.6062 -36.7895 0)
(-18.2199 -34.0873 0)
(-17.7154 -31.4016 0)
(-17.1484 -28.9391 0)
(-16.5489 -26.8048 0)
(-15.9463 -25.0291 0)
(-15.3509 -23.5897 0)
(-14.7679 -22.4431 0)
(0.554451 35.7633 0)
(1.40789 38.3448 0)
(2.29607 38.0194 0)
(3.22603 37.092 0)
(4.22256 35.8018 0)
(5.30401 34.2473 0)
(6.48906 32.4933 0)
(7.82142 30.6153 0)
(9.33884 28.7241 0)
(11.1062 26.9718 0)
(13.1764 25.5239 0)
(15.3808 24.2458 0)
(17.4495 23.4603 0)
(18.2935 21.1364 0)
(17.909 18.0752 0)
(16.6566 15.4061 0)
(14.9721 12.9614 0)
(13.2067 10.1684 0)
(11.613 7.36265 0)
(10.1432 5.47398 0)
(8.70274 5.08895 0)
(7.32741 6.2487 0)
(6.06779 8.47709 0)
(4.88545 11.3254 0)
(3.77344 14.3776 0)
(2.71015 17.3178 0)
(1.68398 19.9143 0)
(0.743446 22.0617 0)
(-0.078552 23.8045 0)
(-0.782042 25.1653 0)
(-1.38224 26.175 0)
(-1.89646 26.9235 0)
(-2.33681 27.4933 0)
(-2.724 27.9384 0)
(-3.07131 28.29 0)
(0.308371 13.3219 0)
(0.687551 14.6703 0)
(1.19981 13.7228 0)
(1.73349 12.2801 0)
(2.25984 10.3866 0)
(2.7927 7.93485 0)
(3.29829 4.75735 0)
(3.74823 0.544052 0)
(4.11994 -4.86502 0)
(4.37594 -11.5808 0)
(4.53774 -19.1826 0)
(4.42724 -25.4793 0)
(3.73125 -29.1305 0)
(2.7861 -29.3417 0)
(1.72602 -28.0575 0)
(0.741414 -26.6368 0)
(-0.16528 -25.4835 0)
(-1.13405 -24.5436 0)
(-2.3253 -23.7123 0)
(-3.78017 -22.8787 0)
(-5.39703 -21.9975 0)
(-6.94544 -21.0573 0)
(-8.20829 -20.0268 0)
(-9.12526 -18.8813 0)
(-9.6897 -17.6258 0)
(-9.92543 -16.2691 0)
(-9.91835 -14.8036 0)
(-9.78283 -13.2473 0)
(-9.59676 -11.7691 0)
(-9.36654 -10.4551 0)
(-9.09964 -9.32838 0)
(-8.81171 -8.38283 0)
(-8.51549 -7.59952 0)
(-8.21598 -6.95749 0)
(-7.92302 -6.43638 0)
(0.612001 5.32765 0)
(1.76036 9.46948 0)
(3.12753 11.7549 0)
(4.57509 12.9041 0)
(6.12484 13.4217 0)
(7.74875 13.5652 0)
(9.41607 13.5149 0)
(11.0283 13.5492 0)
(12.4617 13.8581 0)
(13.4615 14.6204 0)
(13.6671 16.5687 0)
(12.9631 18.4625 0)
(11.4241 18.1518 0)
(9.47885 15.9981 0)
(7.66621 12.8479 0)
(6.13344 9.67781 0)
(4.88467 7.06571 0)
(3.8505 5.28965 0)
(2.92901 4.3197 0)
(2.06149 4.083 0)
(1.26833 4.52794 0)
(0.546409 5.54543 0)
(-0.160603 6.88238 0)
(-0.851714 8.29302 0)
(-1.50862 9.59529 0)
(-2.0884 10.7306 0)
(-2.56618 11.6766 0)
(-2.95548 12.4332 0)
(-3.25114 13.0615 0)
(-3.4734 13.6035 0)
(-3.65311 14.0736 0)
(-3.80712 14.4778 0)
(-3.94447 14.8211 0)
(-4.07546 15.1081 0)
(-4.19743 15.3386 0)
(-0.312908 -19.0815 0)
(-0.660539 -18.5358 0)
(-0.986704 -17.681 0)
(-1.24679 -16.8464 0)
(-1.47021 -16.0199 0)
(-1.65949 -15.1947 0)
(-1.81999 -14.3638 0)
(-1.94062 -13.5117 0)
(-1.97895 -12.5911 0)
(-1.90508 -11.5082 0)
(-1.61873 -10.197 0)
(-1.02621 -9.00933 0)
(-0.196445 -8.40276 0)
(0.666026 -8.54145 0)
(1.28484 -9.02994 0)
(1.50909 -9.22442 0)
(1.22586 -9.2038 0)
(0.557872 -9.1175 0)
(-0.316562 -8.94129 0)
(-1.28808 -8.68111 0)
(-2.26577 -8.31291 0)
(-3.11641 -7.7928 0)
(-3.72932 -7.14393 0)
(-4.11456 -6.39859 0)
(-4.35298 -5.56627 0)
(-4.51715 -4.72196 0)
(-4.62509 -3.92344 0)
(-4.67148 -3.20759 0)
(-4.66095 -2.57383 0)
(-4.60653 -2.02216 0)
(-4.51849 -1.54875 0)
(-4.40587 -1.1427 0)
(-4.27704 -0.793969 0)
(-4.1337 -0.494164 0)
(-3.98434 -0.240372 0)
(0.073998 14.5922 0)
(0.171204 14.4891 0)
(0.252105 13.8502 0)
(0.31467 13.0872 0)
(0.355399 12.2651 0)
(0.372109 11.4161 0)
(0.359674 10.5663 0)
(0.314573 9.73863 0)
(0.238011 8.958 0)
(0.149074 8.25225 0)
(0.0886927 7.64635 0)
(0.0995476 7.10105 0)
(0.164173 6.53968 0)
(0.197506 5.96177 0)
(0.0728016 5.44111 0)
(-0.158805 4.96707 0)
(-0.414738 4.60098 0)
(-0.707888 4.45901 0)
(-1.03413 4.52305 0)
(-1.39606 4.74597 0)
(-1.80706 5.11777 0)
(-2.19471 5.60156 0)
(-2.51694 6.10721 0)
(-2.76725 6.57986 0)
(-2.92678 7.00834 0)
(-3.01704 7.40632 0)
(-3.06736 7.77395 0)
(-3.09285 8.10244 0)
(-3.10934 8.38518 0)
(-3.12268 8.62035 0)
(-3.13645 8.81661 0)
(-3.15247 8.98252 0)
(-3.17187 9.1206 0)
(-3.19711 9.23394 0)
(-3.21971 9.32541 0)
(-0.10152 -17.3494 0)
(-0.215384 -16.1325 0)
(-0.313001 -14.8065 0)
(-0.388691 -13.5518 0)
(-0.443598 -12.3455 0)
(-0.476687 -11.1843 0)
(-0.485738 -10.0672 0)
(-0.469333 -9.00293 0)
(-0.434027 -8.01654 0)
(-0.384142 -7.13046 0)
(-0.321332 -6.35566 0)
(-0.256084 -5.6986 0)
(-0.204058 -5.16263 0)
(-0.198922 -4.73522 0)
(-0.263334 -4.41984 0)
(-0.390494 -4.17779 0)
(-0.590776 -3.9631 0)
(-0.834222 -3.71961 0)
(-1.09953 -3.41754 0)
(-1.38606 -3.04666 0)
(-1.6721 -2.59615 0)
(-1.94673 -2.0836 0)
(-2.19531 -1.56623 0)
(-2.39506 -1.07573 0)
(-2.54195 -0.622728 0)
(-2.63815 -0.215801 0)
(-2.6871 0.144597 0)
(-2.69613 0.462605 0)
(-2.67332 0.742846 0)
(-2.62621 0.989805 0)
(-2.56188 1.20808 0)
(-2.48596 1.40188 0)
(-2.40236 1.57481 0)
(-2.31317 1.73001 0)
(-2.21984 1.87782 0)
(-0.04854 14.3836 0)
(-0.128341 13.0846 0)
(-0.222207 11.7712 0)
(-0.323119 10.5457 0)
(-0.43358 9.38081 0)
(-0.549809 8.28151 0)
(-0.668985 7.26403 0)
(-0.78859 6.34608 0)
(-0.906666 5.54202 0)
(-1.02139 4.86249 0)
(-1.13131 4.31397 0)
(-1.23512 3.8922 0)
(-1.33441 3.59161 0)
(-1.44008 3.40353 0)
(-1.55902 3.32172 0)
(-1.68623 3.30942 0)
(-1.81765 3.34568 0)
(-1.95918 3.42286 0)
(-2.09265 3.53893 0)
(-2.19045 3.70403 0)
(-2.24857 3.933 0)
(-2.26496 4.21338 0)
(-2.25144 4.51118 0)
(-2.22401 4.76983 0)
(-2.18758 4.98551 0)
(-2.14507 5.1854 0)
(-2.10489 5.36719 0)
(-2.07047 5.52884 0)
(-2.04315 5.66968 0)
(-2.02329 5.78986 0)
(-2.01032 5.89019 0)
(-2.00316 5.97194 0)
(-2.00107 6.03671 0)
(-2.00459 6.08622 0)
(-2.00874 6.12437 0)
(0.0192151 -11.2496 0)
(0.054723 -10.3685 0)
(0.0924671 -9.40167 0)
(0.130899 -8.47823 0)
(0.167223 -7.58717 0)
(0.197553 -6.73434 0)
(0.217542 -5.92981 0)
(0.224437 -5.18515 0)
(0.215554 -4.50811 0)
(0.188604 -3.90161 0)
(0.141307 -3.36522 0)
(0.075474 -2.89338 0)
(-0.0184964 -2.47814 0)
(-0.151392 -2.1068 0)
(-0.296448 -1.78966 0)
(-0.445092 -1.50891 0)
(-0.607328 -1.2353 0)
(-0.777716 -0.950642 0)
(-0.954462 -0.640786 0)
(-1.13455 -0.304375 0)
(-1.31264 0.0533851 0)
(-1.46796 0.413304 0)
(-1.58275 0.763314 0)
(-1.65815 1.06613 0)
(-1.69961 1.31431 0)
(-1.71428 1.5327 0)
(-1.70723 1.72604 0)
(-1.68255 1.89788 0)
(-1.64426 2.05119 0)
(-1.59616 2.1886 0)
(-1.54161 2.31245 0)
(-1.48352 2.42481 0)
(-1.42388 2.52746 0)
(-1.36319 2.62192 0)
(-1.30062 2.71301 0)
(-0.0958005 10.4245 0)
(-0.243444 9.39852 0)
(-0.400579 8.42154 0)
(-0.552876 7.52345 0)
(-0.700677 6.67405 0)
(-0.839393 5.87487 0)
(-0.968392 5.13747 0)
(-1.08776 4.47502 0)
(-1.19697 3.89826 0)
(-1.29581 3.41438 0)
(-1.38442 3.02763 0)
(-1.46665 2.73623 0)
(-1.53263 2.53187 0)
(-1.57128 2.4097 0)
(-1.59478 2.36476 0)
(-1.61275 2.36843 0)
(-1.6247 2.41037 0)
(-1.6317 2.48792 0)
(-1.63192 2.60109 0)
(-1.62081 2.74699 0)
(-1.59356 2.92318 0)
(-1.55365 3.1204 0)
(-1.50582 3.31041 0)
(-1.45072 3.4691 0)
(-1.3947 3.6089 0)
(-1.34267 3.7398 0)
(-1.29612 3.85951 0)
(-1.25574 3.96677 0)
(-1.22165 4.06106 0)
(-1.19342 4.14249 0)
(-1.17042 4.21154 0)
(-1.15185 4.26895 0)
(-1.1373 4.31565 0)
(-1.12696 4.35262 0)
(-1.11651 4.38086 0)
(0.043754 -4.31332 0)
(0.115817 -4.20407 0)
(0.185403 -3.97429 0)
(0.24901 -3.70398 0)
(0.305075 -3.40215 0)
(0.348024 -3.07442 0)
(0.373369 -2.7263 0)
(0.379006 -2.36732 0)
(0.362325 -2.01226 0)
(0.319532 -1.67283 0)
(0.248677 -1.35344 0)
(0.149216 -1.05331 0)
(0.0218476 -0.767483 0)
(-0.132545 -0.485939 0)
(-0.290438 -0.220162 0)
(-0.434325 0.02364 0)
(-0.567717 0.258968 0)
(-0.690576 0.496021 0)
(-0.803145 0.740331 0)
(-0.905036 0.990426 0)
(-0.996334 1.24526 0)
(-1.06612 1.49281 0)
(-1.10396 1.69901 0)
(-1.11794 1.86506 0)
(-1.11602 2.01018 0)
(-1.10031 2.1385 0)
(-1.07446 2.25281 0)
(-1.0406 2.35512 0)
(-1.00109 2.44711 0)
(-0.957908 2.53034 0)
(-0.912774 2.60622 0)
(-0.867166 2.67601 0)
(-0.822272 2.74073 0)
(-0.777966 2.80114 0)
(-0.732427 2.85789 0)
(-0.00994473 6.02941 0)
(-0.0482013 5.57693 0)
(-0.105691 5.09712 0)
(-0.177092 4.64222 0)
(-0.261025 4.2056 0)
(-0.35343 3.79038 0)
(-0.451177 3.40249 0)
(-0.548983 3.04888 0)
(-0.644619 2.7373 0)
(-0.733614 2.47239 0)
(-0.813357 2.2554 0)
(-0.881515 2.08547 0)
(-0.936841 1.96175 0)
(-0.97785 1.88586 0)
(-1.0092 1.86018 0)
(-1.03325 1.86826 0)
(-1.0477 1.90749 0)
(-1.05492 1.98182 0)
(-1.05277 2.08801 0)
(-1.0416 2.2192 0)
(-1.02035 2.36951 0)
(-0.986569 2.50887 0)
(-0.943465 2.62529 0)
(-0.898686 2.73311 0)
(-0.854642 2.83259 0)
(-0.813215 2.92348 0)
(-0.774622 3.00549 0)
(-0.739359 3.07853 0)
(-0.707576 3.14279 0)
(-0.679186 3.19863 0)
(-0.653861 3.24645 0)
(-0.631473 3.28671 0)
(-0.61181 3.3199 0)
(-0.594611 3.34668 0)
(-0.577088 3.36775 0)
(0.0240482 -1.86389 0)
(0.064046 -1.53723 0)
(0.108319 -1.27979 0)
(0.150506 -1.05473 0)
(0.188039 -0.847657 0)
(0.217073 -0.654563 0)
(0.234895 -0.469728 0)
(0.236229 -0.289979 0)
(0.218256 -0.119366 0)
(0.179893 0.0398222 0)
(0.119135 0.189415 0)
(0.0369092 0.332229 0)
(-0.0654395 0.475237 0)
(-0.185474 0.628772 0)
(-0.302086 0.783251 0)
(-0.402544 0.928256 0)
(-0.491008 1.0726 0)
(-0.566606 1.2239 0)
(-0.630157 1.38534 0)
(-0.681002 1.55784 0)
(-0.715073 1.72727 0)
(-0.727073 1.87186 0)
(-0.723934 1.99135 0)
(-0.711237 2.09563 0)
(-0.691254 2.18694 0)
(-0.665286 2.26714 0)
(-0.634939 2.33802 0)
(-0.601868 2.4011 0)
(-0.567065 2.45764 0)
(-0.531663 2.50869 0)
(-0.496283 2.55494 0)
(-0.461701 2.59698 0)
(-0.42835 2.63545 0)
(-0.396357 2.67101 0)
(-0.364145 2.70423 0)
(-0.018426 3.71925 0)
(-0.051494 3.44445 0)
(-0.0912663 3.18515 0)
(-0.134184 2.95012 0)
(-0.180348 2.73211 0)
(-0.228233 2.53061 0)
(-0.277339 2.34786 0)
(-0.326409 2.18662 0)
(-0.373066 2.04671 0)
(-0.416845 1.92736 0)
(-0.456875 1.82815 0)
(-0.493397 1.74979 0)
(-0.527566 1.69508 0)
(-0.560193 1.66688 0)
(-0.591147 1.66677 0)
(-0.618202 1.68575 0)
(-0.639814 1.72584 0)
(-0.654246 1.79187 0)
(-0.661708 1.88427 0)
(-0.660704 1.9902 0)
(-0.645786 2.08906 0)
(-0.619342 2.17938 0)
(-0.588472 2.26452 0)
(-0.55578 2.34239 0)
(-0.522156 2.41254 0)
(-0.48898 2.47545 0)
(-0.457055 2.53151 0)
(-0.426659 2.58104 0)
(-0.398369 2.62429 0)
(-0.372048 2.66152 0)
(-0.347482 2.69323 0)
(-0.324812 2.72005 0)
(-0.304135 2.74271 0)
(-0.285306 2.76185 0)
(-0.266627 2.77792 0)
(0.0173353 -0.165648 0)
(0.0408343 0.0753536 0)
(0.0644201 0.233768 0)
(0.0851001 0.364225 0)
(0.101073 0.480349 0)
(0.110662 0.587784 0)
(0.11122 0.688519 0)
(0.101223 0.780536 0)
(0.0798017 0.862831 0)
(0.045915 0.936463 0)
(-0.000580617 1.00434 0)
(-0.0596525 1.07174 0)
(-0.129969 1.14376 0)
(-0.208844 1.22452 0)
(-0.28236 1.30746 0)
(-0.344546 1.38702 0)
(-0.397856 1.46834 0)
(-0.442207 1.55748 0)
(-0.47466 1.66141 0)
(-0.491873 1.76813 0)
(-0.494432 1.86604 0)
(-0.487283 1.95383 0)
(-0.472806 2.03147 0)
(-0.452792 2.09944 0)
(-0.429377 2.15882 0)
(-0.403504 2.21056 0)
(-0.375625 2.25577 0)
(-0.346946 2.29543 0)
(-0.318046 2.33012 0)
(-0.28947 2.36047 0)
(-0.261779 2.3873 0)
(-0.235453 2.41147 0)
(-0.210846 2.43361 0)
(-0.187747 2.45417 0)
(-0.165252 2.47346 0)
(-0.0114396 2.44565 0)
(-0.0353765 2.34912 0)
(-0.0590526 2.24174 0)
(-0.0854559 2.14253 0)
(-0.11295 2.05103 0)
(-0.141084 1.96808 0)
(-0.168938 1.8945 0)
(-0.195643 1.82955 0)
(-0.221044 1.77237 0)
(-0.245405 1.72313 0)
(-0.269726 1.68296 0)
(-0.295023 1.65341 0)
(-0.322011 1.63605 0)
(-0.35134 1.63271 0)
(-0.379413 1.64465 0)
(-0.40392 1.66821 0)
(-0.424264 1.70383 0)
(-0.440266 1.75695 0)
(-0.449415 1.82087 0)
(-0.447581 1.88667 0)
(-0.436321 1.95472 0)
(-0.417813 2.02089 0)
(-0.395042 2.0814 0)
(-0.369597 2.13554 0)
(-0.342851 2.18327 0)
(-0.315635 2.22474 0)
(-0.289086 2.26045 0)
(-0.263588 2.2913 0)
(-0.239384 2.31824 0)
(-0.21682 2.34206 0)
(-0.19599 2.36335 0)
(-0.177036 2.38243 0)
(-0.159758 2.3994 0)
(-0.14401 2.41429 0)
(-0.12916 2.42716 0)
(0.0088005 0.763889 0)
(0.0172581 0.928503 0)
(0.0249311 1.02126 0)
(0.0295664 1.09339 0)
(0.031019 1.1559 0)
(0.0278429 1.21118 0)
(0.0194245 1.25956 0)
(0.00521821 1.30129 0)
(-0.0154551 1.33789 0)
(-0.0432326 1.37159 0)
(-0.078162 1.40409 0)
(-0.119783 1.4373 0)
(-0.166902 1.47338 0)
(-0.217461 1.51429 0)
(-0.263602 1.55663 0)
(-0.301657 1.59961 0)
(-0.334005 1.64666 0)
(-0.35827 1.69997 0)
(-0.37253 1.75996 0)
(-0.377457 1.82229 0)
(-0.373702 1.8823 0)
(-0.362263 1.93886 0)
(-0.34542 1.98939 0)
(-0.325043 2.0337 0)
(-0.302889 2.07231 0)
(-0.279585 2.10588 0)
(-0.256173 2.13525 0)
(-0.233354 2.16111 0)
(-0.211544 2.18417 0)
(-0.190789 2.20498 0)
(-0.171206 2.22388 0)
(-0.152783 2.24102 0)
(-0.135503 2.25648 0)
(-0.119321 2.27036 0)
(-0.104096 2.28279 0)
(-0.00694384 1.88194 0)
(-0.022446 1.90386 0)
(-0.0379857 1.87661 0)
(-0.0550127 1.84493 0)
(-0.0727959 1.81393 0)
(-0.090893 1.78483 0)
(-0.109125 1.75796 0)
(-0.127573 1.73365 0)
(-0.14662 1.71253 0)
(-0.166688 1.69503 0)
(-0.188371 1.68163 0)
(-0.212169 1.673 0)
(-0.23897 1.67 0)
(-0.267607 1.67368 0)
(-0.294062 1.68552 0)
(-0.316289 1.70466 0)
(-0.334668 1.73152 0)
(-0.348791 1.76566 0)
(-0.356407 1.80585 0)
(-0.356454 1.84918 0)
(-0.349563 1.89419 0)
(-0.336678 1.93809 0)
(-0.319716 1.97804 0)
(-0.300295 2.01367 0)
(-0.279678 2.04513 0)
(-0.258591 2.07289 0)
(-0.237971 2.0976 0)
(-0.218003 2.11963 0)
(-0.198942 2.13922 0)
(-0.180902 2.15655 0)
(-0.163933 2.1718 0)
(-0.148039 2.18514 0)
(-0.13322 2.19672 0)
(-0.119508 2.20671 0)
(-0.106956 2.21529 0)
(0.00160725 1.23661 0)
(0.00128431 1.36482 0)
(-0.000312915 1.42495 0)
(-0.00410414 1.46632 0)
(-0.0102695 1.49887 0)
(-0.0193136 1.52578 0)
(-0.0316723 1.5485 0)
(-0.0477717 1.568 0)
(-0.0679096 1.58515 0)
(-0.092185 1.6009 0)
(-0.120517 1.61641 0)
(-0.15254 1.6323 0)
(-0.187462 1.64866 0)
(-0.224025 1.66591 0)
(-0.257308 1.68456 0)
(-0.285175 1.70599 0)
(-0.307555 1.73213 0)
(-0.324211 1.76257 0)
(-0.3343 1.79627 0)
(-0.337528 1.83254 0)
(-0.334176 1.86972 0)
(-0.32478 1.90511 0)
(-0.311206 1.93714 0)
(-0.294997 1.96556 0)
(-0.277284 1.99065 0)
(-0.258869 2.01282 0)
(-0.240303 2.03242 0)
(-0.221941 2.04971 0)
(-0.204049 2.06495 0)
(-0.186817 2.07839 0)
(-0.170382 2.09022 0)
(-0.154838 2.10064 0)
(-0.140235 2.10983 0)
(-0.126609 2.11796 0)
(-0.114285 2.12517 0)
(-0.00689868 1.71281 0)
(-0.0153853 1.78107 0)
(-0.0283769 1.78967 0)
(-0.0409826 1.7868 0)
(-0.0549753 1.78031 0)
(-0.0699558 1.77258 0)
(-0.0862536 1.7645 0)
(-0.103901 1.75662 0)
(-0.123054 1.74935 0)
(-0.144085 1.74312 0)
(-0.166864 1.73849 0)
(-0.190969 1.73562 0)
(-0.216504 1.73467 0)
(-0.243299 1.73664 0)
(-0.268684 1.74332 0)
(-0.290989 1.7544 0)
(-0.309759 1.77012 0)
(-0.324061 1.79012 0)
(-0.333188 1.81355 0)
(-0.336658 1.83946 0)
(-0.334133 1.86686 0)
(-0.326124 1.89375 0)
(-0.314251 1.91829 0)
(-0.299826 1.94022 0)
(-0.283849 1.95967 0)
(-0.267065 1.97683 0)
(-0.250016 1.99193 0)
(-0.233105 2.00515 0)
(-0.216625 2.01669 0)
(-0.200783 2.02674 0)
(-0.185718 2.03546 0)
(-0.171509 2.04302 0)
(-0.158182 2.04956 0)
(-0.145793 2.05522 0)
(-0.13487 2.06011 0)
(-0.00179152 1.49341 0)
(-0.006021 1.60604 0)
(-0.0125893 1.64943 0)
(-0.0204355 1.67636 0)
(-0.0304381 1.69621 0)
(-0.0425428 1.71186 0)
(-0.0571941 1.72435 0)
(-0.0747968 1.7341 0)
(-0.095279 1.74145 0)
(-0.118997 1.74656 0)
(-0.14543 1.7497 0)
(-0.173678 1.75193 0)
(-0.203553 1.75446 0)
(-0.23476 1.75856 0)
(-0.263646 1.76529 0)
(-0.288069 1.77465 0)
(-0.308482 1.78696 0)
(-0.324353 1.80205 0)
(-0.335239 1.81949 0)
(-0.340802 1.83868 0)
(-0.340816 1.85892 0)
(-0.335454 1.87869 0)
(-0.326081 1.8966 0)
(-0.313961 1.91245 0)
(-0.300051 1.92635 0)
(-0.285084 1.93845 0)
(-0.269614 1.94895 0)
(-0.254061 1.95802 0)
(-0.238739 1.96584 0)
(-0.223878 1.97257 0)
(-0.209642 1.97837 0)
(-0.196131 1.98337 0)
(-0.183385 1.9877 0)
(-0.171473 1.99146 0)
(-0.161166 1.99475 0)
(-0.00546599 1.70663 0)
(-0.0143355 1.79572 0)
(-0.0258713 1.8193 0)
(-0.0380751 1.82811 0)
(-0.0518618 1.831 0)
(-0.0666995 1.83116 0)
(-0.0826481 1.83006 0)
(-0.100042 1.82798 0)
(-0.118773 1.82487 0)
(-0.139176 1.82076 0)
(-0.161795 1.81562 0)
(-0.18674 1.81004 0)
(-0.21407 1.80528 0)
(-0.243446 1.80254 0)
(-0.271274 1.80298 0)
(-0.295336 1.80635 0)
(-0.31589 1.81255 0)
(-0.332438 1.82128 0)
(-0.344544 1.8321 0)
(-0.351838 1.84443 0)
(-0.354031 1.85769 0)
(-0.351048 1.87072 0)
(-0.343992 1.88244 0)
(-0.334034 1.89267 0)
(-0.322093 1.90147 0)
(-0.308897 1.90894 0)
(-0.295018 1.91524 0)
(-0.280894 1.9205 0)
(-0.26686 1.92489 0)
(-0.253163 1.92852 0)
(-0.23998 1.93152 0)
(-0.227417 1.934 0)
(-0.215513 1.93606 0)
(-0.204359 1.93776 0)
(-0.194959 1.93919 0)
(-0.0032229 1.65987 0)
(-0.0101396 1.76843 0)
(-0.0190421 1.8042 0)
(-0.0290848 1.82374 0)
(-0.0410083 1.83637 0)
(-0.0551272 1.8443 0)
(-0.0711789 1.8488 0)
(-0.0892702 1.85091 0)
(-0.109645 1.8511 0)
(-0.132302 1.84961 0)
(-0.157278 1.8466 0)
(-0.184706 1.84241 0)
(-0.214487 1.83781 0)
(-0.246191 1.8338 0)
(-0.275956 1.83174 0)
(-0.301672 1.83188 0)
(-0.323879 1.83414 0)
(-0.342244 1.8383 0)
(-0.356438 1.844 0)
(-0.366138 1.85076 0)
(-0.371049 1.85806 0)
(-0.370899 1.86508 0)
(-0.36654 1.87111 0)
(-0.359063 1.87603 0)
(-0.349361 1.87991 0)
(-0.338158 1.88286 0)
(-0.326033 1.88502 0)
(-0.313441 1.88652 0)
(-0.300734 1.88749 0)
(-0.28818 1.88806 0)
(-0.275978 1.88831 0)
(-0.264254 1.88833 0)
(-0.253056 1.8882 0)
(-0.242497 1.88797 0)
(-0.233836 1.8877 0)
(-0.00450694 1.76558 0)
(-0.0135742 1.86587 0)
(-0.0244027 1.89379 0)
(-0.0363164 1.90608 0)
(-0.0495203 1.91192 0)
(-0.0641756 1.91412 0)
(-0.0804188 1.9136 0)
(-0.0984616 1.91095 0)
(-0.11849 1.90663 0)
(-0.140654 1.9009 0)
(-0.165132 1.89392 0)
(-0.192107 1.886 0)
(-0.221624 1.87769 0)
(-0.253454 1.86975 0)
(-0.283841 1.86369 0)
(-0.310583 1.85986 0)
(-0.334197 1.85793 0)
(-0.35436 1.85764 0)
(-0.37075 1.85856 0)
(-0.38303 1.86022 0)
(-0.390869 1.8621 0)
(-0.393787 1.86361 0)
(-0.392365 1.86439 0)
(-0.387601 1.86437 0)
(-0.380358 1.86364 0)
(-0.371353 1.86231 0)
(-0.361171 1.86052 0)
(-0.350287 1.85841 0)
(-0.339072 1.85608 0)
(-0.327817 1.85365 0)
(-0.316745 1.85118 0)
(-0.305998 1.84874 0)
(-0.295632 1.84639 0)
(-0.285788 1.84415 0)
(-0.277995 1.84207 0)
(-0.00380983 1.7796 0)
(-0.0116939 1.88928 0)
(-0.0217998 1.92205 0)
(-0.0330895 1.93728 0)
(-0.0461349 1.94523 0)
(-0.0608915 1.94894 0)
(-0.0775507 1.94958 0)
(-0.0962898 1.94774 0)
(-0.117269 1.94381 0)
(-0.140605 1.93803 0)
(-0.166401 1.93063 0)
(-0.194739 1.92186 0)
(-0.225624 1.91217 0)
(-0.258891 1.90217 0)
(-0.290796 1.8935 0)
(-0.319165 1.88676 0)
(-0.344654 1.88157 0)
(-0.367013 1.87765 0)
(-0.38596 1.8746 0)
(-0.401173 1.8719 0)
(-0.4123 1.86903 0)
(-0.418654 1.8656 0)
(-0.420527 1.86156 0)
(-0.418822 1.85692 0)
(-0.414361 1.85181 0)
(-0.407847 1.84637 0)
(-0.399873 1.84074 0)
(-0.390924 1.83507 0)
(-0.381394 1.82947 0)
(-0.371598 1.82404 0)
(-0.361785 1.81885 0)
(-0.352119 1.81394 0)
(-0.342667 1.80935 0)
(-0.333598 1.8051 0)
(-0.326737 1.80121 0)
(-0.0044067 1.84252 0)
(-0.0132374 1.95072 0)
(-0.0238926 1.98089 0)
(-0.0357264 1.99357 0)
(-0.0491569 1.99903 0)
(-0.064198 2.00031 0)
(-0.0810498 1.9986 0)
(-0.0998974 1.99451 0)
(-0.12094 1.98835 0)
(-0.144363 1.98035 0)
(-0.170341 1.97073 0)
(-0.199016 1.95971 0)
(-0.230458 1.94766 0)
(-0.264605 1.93508 0)
(-0.297751 1.92373 0)
(-0.327669 1.91426 0)
(-0.355076 1.90617 0)
(-0.379755 1.89912 0)
(-0.401446 1.89263 0)
(-0.419831 1.88617 0)
(-0.434542 1.87915 0)
(-0.444669 1.87132 0)
(-0.45019 1.86291 0)
(-0.451895 1.85402 0)
(-0.450558 1.84481 0)
(-0.446861 1.83545 0)
(-0.441394 1.82613 0)
(-0.434657 1.817 0)
(-0.427064 1.80819 0)
(-0.418954 1.7998 0)
(-0.410603 1.79188 0)
(-0.402198 1.78448 0)
(-0.393823 1.77761 0)
(-0.385672 1.77129 0)
(-0.379893 1.76552 0)
(9.46401 -82.7848 0)
(9.34187 -82.6001 0)
(9.15867 -82.5215 0)
(8.98423 -82.5533 -3.15261e-17)
(8.79914 -82.701 0)
(8.58846 -82.9762 0)
(8.34177 -83.372 0)
(8.04418 -83.8543 0)
(7.68164 -84.4018 3.22098e-17)
(7.25124 -85.0075 0)
(6.75142 -85.6547 0)
(6.18597 -86.3126 -3.26882e-17)
(5.59287 -86.9333 0)
(5.00752 -87.4984 -3.42372e-17)
(4.43087 -88.0182 0)
(3.86046 -88.5135 0)
(3.29722 -88.9934 0)
(2.74343 -89.4678 3.68285e-17)
(2.19996 -89.9479 0)
(1.66903 -90.4461 1.8896e-17)
(1.17469 -90.978 0)
(0.699824 -91.5768 0)
(18.0742 80.9781 0)
(19.0982 79.9733 0)
(20.3074 79.1142 0)
(21.5794 78.4701 4.29429e-17)
(22.9099 78.1079 0)
(24.2844 78.0811 0)
(25.6748 78.4188 -8.31001e-17)
(27.0415 79.1016 0)
(28.3253 79.9768 -1.26975e-16)
(29.4277 80.7503 8.35837e-17)
(30.2502 81.4551 8.36041e-17)
(30.6595 82.1223 4.37099e-17)
(30.5804 82.8034 0)
(30.0478 83.5536 4.48812e-17)
(29.1331 84.3816 0)
(27.8565 85.2344 0)
(26.2991 86.0752 0)
(24.5037 86.9009 -1.35559e-16)
(22.5123 87.7067 0)
(20.3589 88.4821 -2.36629e-17)
(18.057 89.2066 0)
(15.7017 89.8392 -4.756e-17)
(2.26154 -74.0581 0)
(2.32185 -74.6846 0)
(2.2653 -75.0102 0)
(2.15038 -74.989 0)
(1.98154 -74.5566 0)
(1.77609 -73.6642 6.75958e-17)
(1.5692 -72.1892 6.55495e-17)
(1.39821 -69.9157 0)
(1.28726 -66.5854 6.58891e-17)
(1.26012 -62.0657 -6.5944e-17)
(1.35288 -56.588 -6.58917e-17)
(1.60091 -50.5246 0)
(1.9869 -44.3949 0)
(2.43327 -38.5964 0)
(2.8919 -33.2983 7.13703e-17)
(3.36038 -28.5795 0)
(3.83049 -24.4661 0)
(4.29943 -20.9515 7.06966e-17)
(4.76453 -18.01 0)
(5.22904 -15.6064 0)
(5.69956 -13.7012 0)
(6.14359 -12.2517 3.75297e-17)
(1.4801 57.385 0)
(-0.159691 58.2795 0)
(-1.8702 59.1346 0)
(-3.69623 59.8545 -8.30882e-17)
(-5.61981 60.2985 0)
(-7.55381 60.4412 8.12593e-17)
(-9.48977 60.1859 0)
(-11.3702 59.5162 0)
(-13.0875 58.4913 0)
(-14.5678 57.2246 0)
(-15.7155 55.8653 -1.69308e-16)
(-16.4736 54.5608 0)
(-16.8511 53.4411 0)
(-16.8433 52.5812 0)
(-16.4824 52.1145 8.62007e-17)
(-15.8854 52.0112 1.80062e-16)
(-15.1215 52.1639 0)
(-14.248 52.4879 0)
(-13.3226 52.9101 0)
(-12.3877 53.3647 0)
(-11.4714 53.7959 9.49911e-17)
(-10.5206 54.1634 0)
(-14.101 -21.2061 -1.40929e-16)
(-13.349 -19.8762 0)
(-12.6313 -18.7798 -1.52019e-16)
(-11.8847 -17.9547 7.47523e-17)
(-11.1352 -17.4124 0)
(-10.4004 -17.1484 -1.51928e-16)
(-9.66959 -17.1035 -1.56971e-16)
(-8.97812 -17.2954 -1.58146e-16)
(-8.37519 -17.7008 0)
(-7.84189 -18.1758 0)
(-7.39248 -18.5122 1.5746e-16)
(-7.00928 -18.4757 0)
(-6.69367 -17.9667 0)
(-6.42025 -17.0542 0)
(-6.16139 -15.8393 -3.35188e-16)
(-5.89015 -14.3821 -1.67472e-16)
(-5.59322 -12.7582 0)
(-5.26087 -11.0498 -1.74945e-16)
(-4.88722 -9.32991 0)
(-4.46982 -7.65708 1.77876e-16)
(-4.01027 -6.06889 -8.7573e-17)
(-3.56083 -4.59683 0)
(-3.4374 28.6563 1.70202e-16)
(-3.80182 28.9818 -1.79295e-16)
(-4.07745 29.2225 3.63042e-16)
(-4.31233 29.3955 1.81205e-16)
(-4.51909 29.5041 0)
(-4.70854 29.554 0)
(-4.8923 29.5506 1.86004e-16)
(-5.08117 29.5083 1.86599e-16)
(-5.29236 29.4232 0)
(-5.54203 29.2793 0)
(-5.83043 29.0672 0)
(-6.13978 28.8386 0)
(-6.45596 28.6728 0)
(-6.76036 28.5716 1.89385e-16)
(-7.0282 28.5052 1.93353e-16)
(-7.25064 28.4758 -1.92243e-16)
(-7.41956 28.4843 0)
(-7.53019 28.5296 1.97094e-16)
(-7.58418 28.6085 0)
(-7.58857 28.7115 -2.48587e-18)
(-7.54737 28.8226 1.9712e-16)
(-7.43625 28.9262 -2.03874e-16)
(-7.61576 -5.84951 -1.6785e-16)
(-7.30187 -5.19012 1.77531e-16)
(-7.00733 -4.60028 -1.78727e-16)
(-6.70839 -4.0812 1.72807e-18)
(-6.41222 -3.6274 1.82633e-16)
(-6.12353 -3.23227 0)
(-5.84557 -2.88774 0)
(-5.58133 -2.58485 0)
(-5.33404 -2.31412 0)
(-5.10714 -2.06473 3.73439e-16)
(-4.90712 -1.81878 0)
(-4.73855 -1.55376 0)
(-4.58745 -1.24051 0)
(-4.43381 -0.862566 -1.90029e-16)
(-4.27663 -0.416802 0)
(-4.11489 0.0824484 3.88167e-16)
(-3.94829 0.610375 0)
(-3.77436 1.14946 0)
(-3.58978 1.69169 0)
(-3.39235 2.2306 -1.97556e-16)
(-3.18465 2.76363 -1.98266e-16)
(-2.99419 3.27545 2.05219e-16)
(-4.31049 15.5649 1.90864e-16)
(-4.41827 15.7614 0)
(-4.47902 15.9036 0)
(-4.51605 16.0166 -4.08125e-16)
(-4.53145 16.1209 -1.21126e-18)
(-4.52811 16.2148 -2.04694e-16)
(-4.50785 16.2966 -4.10384e-16)
(-4.47327 16.3654 0)
(-4.42658 16.421 -4.11913e-16)
(-4.36915 16.4642 -2.44863e-18)
(-4.30114 16.4967 -4.12213e-16)
(-4.22644 16.5206 4.12269e-16)
(-4.15875 16.5396 0)
(-4.1034 16.5661 0)
(-4.05533 16.6123 0)
(-4.00881 16.6838 2.12041e-16)
(-3.95993 16.7769 0)
(-3.90859 16.8791 0)
(-3.85352 16.9848 0)
(-3.79458 17.0956 0)
(-3.73102 17.2123 0)
(-3.64659 17.3329 0)
(-3.85432 0.0623846 0)
(-3.74661 0.421298 0)
(-3.6453 0.764715 2.13827e-16)
(-3.54391 1.0911 -8.77063e-19)
(-3.44529 1.40526 2.16127e-16)
(-3.34946 1.71646 6.46551e-16)
(-3.25737 2.02965 4.30789e-16)
(-3.17063 2.34323 0)
(-3.08969 2.6552 4.32077e-16)
(-3.01542 2.96382 -4.3244e-16)
(-2.94834 3.26779 4.31983e-16)
(-2.8872 3.56374 1.74762e-18)
(-2.82453 3.84679 0)
(-2.75348 4.12024 0)
(-2.67309 4.38912 0)
(-2.58281 4.65294 1.76096e-18)
(-2.48069 4.90979 0)
(-2.36678 5.15627 0)
(-2.24075 5.39321 0)
(-2.10189 5.62479 0)
(-1.95451 5.85201 0)
(-1.81578 6.071 0)
(-3.23072 9.41712 0)
(-3.22948 9.52228 2.33455e-16)
(-3.2017 9.62488 -4.68804e-16)
(-3.16611 9.7233 2.35248e-16)
(-3.1215 9.82082 -4.71353e-16)
(-3.06633 9.92042 -1.24583e-18)
(-3.00062 10.0203 -4.71229e-16)
(-2.92332 10.1186 0)
(-2.83361 10.2126 0)
(-2.73083 10.2995 0)
(-2.61561 10.3766 0)
(-2.48945 10.4489 -4.71315e-16)
(-2.36311 10.5204 0)
(-2.24641 10.589 0)
(-2.13818 10.6546 0)
(-2.03675 10.7173 -4.87759e-16)
(-1.94088 10.7773 0)
(-1.84982 10.8348 -4.91322e-16)
(-1.76243 10.8903 -4.92977e-16)
(-1.67775 10.9466 2.47088e-16)
(-1.59356 11.0075 0)
(-1.50721 11.0765 2.55487e-16)
(-2.15119 2.08393 0)
(-2.10946 2.35405 -4.98462e-16)
(-2.06896 2.62316 2.496e-16)
(-2.02402 2.88519 0)
(-1.97812 3.14045 0)
(-1.93163 3.38958 -5.01474e-16)
(-1.88413 3.6329 5.01795e-16)
(-1.83499 3.87075 -5.02794e-16)
(-1.78365 4.1031 5.0268e-16)
(-1.73047 4.32743 0)
(-1.67687 4.54213 0)
(-1.62076 4.75161 0)
(-1.55832 4.9555 0)
(-1.48741 5.14877 0)
(-1.4082 5.3307 -5.15615e-16)
(-1.32165 5.50089 0)
(-1.2284 5.65891 0)
(-1.12907 5.80423 5.23822e-16)
(-1.02415 5.9362 5.2589e-16)
(-0.91346 6.05407 -2.6374e-16)
(-0.798875 6.15643 -2.64665e-16)
(-0.693489 6.24092 -2.7294e-16)
(-2.00285 6.165 0)
(-1.98649 6.22992 2.70068e-16)
(-1.95209 6.3044 0)
(-1.90883 6.385 5.40869e-16)
(-1.85666 6.47069 0)
(-1.7948 6.55901 0)
(-1.72276 6.6466 0)
(-1.642 6.73003 5.41661e-16)
(-1.55218 6.81126 -5.41186e-16)
(-1.45232 6.89406 5.39959e-16)
(-1.34377 6.97742 0)
(-1.22935 7.05994 5.37689e-16)
(-1.11532 7.13786 0)
(-1.00583 7.20843 -5.50028e-16)
(-0.900652 7.27212 5.54931e-16)
(-0.798888 7.32951 0)
(-0.699953 7.38116 5.61798e-16)
(-0.60348 7.42778 0)