/*--------------------------------*- C++ -*----------------------------------*\
  =========                 |
  \\      /  F ield         | OpenFOAM: The Open Source CFD Toolbox
   \\    /   O peration     | Website:  https://openfoam.org
    \\  /    A nd           | Version:  8
     \\/     M anipulation  |
\*---------------------------------------------------------------------------*/
FoamFile
{
    version     2.0;
    format      ascii;
    class       volScalarField;
    location    "0.12";
    object      epsilon;
}
// * * * * * * * * * * * * * * * * * * * * * * * * * * * * * * * * * * * * * //

dimensions      [0 2 -3 0 0 0 0];

internalField   nonuniform List<scalar> 
15677
(
59.7003
18.3535
52.6122
8.08764
25.8887
50.162
4.62722
13.2619
31.5741
50.4817
3.17784
7.72265
17.0788
37.2617
51.5979
2.48949
5.04242
10.0235
20.8056
42.6337
53.6525
2.14571
3.62249
6.4605
12.1575
24.5334
47.6444
55.7176
1.97986
2.8208
4.52363
7.72126
14.2696
28.241
52.0027
57.6516
1.91169
2.35296
3.40097
5.3082
8.91189
16.4156
31.7406
55.6817
59.3511
1.88416
2.08028
2.72279
3.90785
6.01908
10.1005
18.5253
34.9357
58.6989
60.8497
1.87055
1.9394
2.30686
3.05465
4.3561
6.70383
11.267
20.5552
37.7531
61.1709
62.1161
1.86765
1.87831
2.05634
2.52061
3.34679
4.77413
7.35932
12.4096
22.4442
40.2112
63.1605
63.2273
1.86862
1.84885
1.91652
2.18582
2.7117
3.61374
5.16294
7.99622
13.4958
24.1851
42.3024
64.7821
64.1533
1.86953
1.8387
1.85192
1.98254
2.3064
2.88548
3.85657
5.53304
8.59947
14.5248
25.7441
44.0865
66.0822
64.9868
1.86976
1.83698
1.82112
1.86771
2.05113
2.41761
3.04181
4.08289
5.87817
9.17358
15.4717
27.1386
45.5729
67.1356
65.713
1.86976
1.83725
1.81049
1.81333
1.89808
2.1172
2.51798
3.18534
4.29025
6.20357
9.70418
16.344
28.3517
46.8226
67.9946
66.3554
1.86971
1.83752
1.80818
1.78977
1.81537
1.93019
2.1783
2.6097
3.31507
4.48289
6.5018
10.197
17.1219
29.4076
47.8571
68.6928
66.9436
1.86969
1.83763
1.80788
1.78275
1.77568
1.82145
1.96212
2.23475
2.6921
3.43391
4.65725
6.77727
10.6395
17.8176
30.3023
48.7025
69.2901
67.4445
1.86967
1.83765
1.80789
1.78104
1.76143
1.76613
1.83163
1.99286
2.2857
2.7669
3.54025
4.81656
7.02309
11.0395
18.4172
31.0553
49.3973
69.7611
67.9524
1.86966
1.83765
1.80791
1.78072
1.75695
1.74392
1.76033
1.84301
2.02125
2.33193
2.83334
3.63631
4.95719
7.24451
11.3855
18.9348
31.6723
49.938
70.2055
68.3474
1.86966
1.83764
1.8079
1.78069
1.75567
1.7359
1.72948
1.75736
1.85434
2.04737
2.37297
2.89284
3.72032
5.08257
7.43483
11.6871
19.3597
32.1672
50.385
70.5316
68.8207
1.86966
1.83764
1.80788
1.78068
1.75535
1.7332
1.71726
1.718
1.75579
1.86548
2.07083
2.4096
2.94462
3.79442
5.18933
7.6001
11.9338
19.7102
32.5528
50.7024
70.8984
69.1346
1.86966
1.83763
1.80786
1.78067
1.75526
1.73237
1.71263
1.70132
1.70843
1.7557
1.87588
2.09188
2.44152
2.98999
3.85718
5.28117
7.7344
12.1386
19.9751
32.8382
50.9728
71.1382
69.6048
1.86966
1.83763
1.80785
1.78064
1.75522
1.73213
1.711
1.69452
1.68722
1.70085
1.75602
1.88548
2.11045
2.46955
3.02852
3.91083
5.35535
7.845
12.2907
20.1795
33.0407
51.1379
71.4823
69.861
1.86966
1.83762
1.80784
1.78062
1.75518
1.73204
1.71045
1.69192
1.67797
1.67535
1.69458
1.7568
1.89435
2.12703
2.49365
3.06153
3.95438
5.41599
7.92701
12.4088
20.3087
33.1646
51.2826
71.679
70.3324
1.86967
1.83762
1.80784
1.7806
1.75515
1.73198
1.71025
1.69097
1.67416
1.66375
1.66488
1.68957
1.7583
1.90264
2.1417
2.51474
3.0891
3.99049
5.46161
7.98929
12.4784
20.3946
33.2351
51.3684
72.0602
70.5813
1.86967
1.83761
1.80783
1.78059
1.75513
1.73193
1.71015
1.6906
1.67266
1.65872
1.65073
1.65639
1.68597
1.76019
1.91061
2.15529
2.5333
3.11275
4.01866
5.49606
8.02692
12.5258
20.4187
33.2373
51.4186
72.3517
430.216
1.86967
1.83761
1.80783
1.78057
1.75511
1.73189
1.71007
1.69042
1.67206
1.65661
1.64432
1.64019
1.64916
1.68332
1.76318
1.91891
2.16815
2.55025
3.13283
4.04165
5.51961
8.0516
12.5313
20.4079
33.2202
51.5174
88.5864
722.501
1.86967
1.8376
1.80783
1.78056
1.75509
1.73185
1.71002
1.6903
1.67178
1.65571
1.64153
1.63256
1.63059
1.64422
1.68332
1.76748
1.92788
2.18131
2.56656
3.15144
4.06045
5.53633
8.05792
12.5221
20.3782
33.1833
52.398
121.8
1010.41
1.86968
1.8376
1.80783
1.78055
1.75508
1.73182
1.70997
1.69022
1.67162
1.65529
1.64032
1.62906
1.62166
1.62425
1.64081
1.6847
1.77353
1.93852
2.19561
2.58364
3.16944
4.07716
5.54701
8.05535
12.5003
20.322
33.1902
54.8781
157.551
1267.5
1.86968
1.8376
1.80783
1.78054
1.75507
1.7318
1.70993
1.69015
1.67151
1.65505
1.63975
1.62745
1.61751
1.61424
1.61859
1.64129
1.68839
1.78224
1.9516
2.21228
2.60234
3.1885
4.09305
5.55447
8.04886
12.463
20.2627
33.2603
59.372
190.564
1507.49
1.86968
1.83759
1.80784
1.78053
1.75507
1.73177
1.7099
1.6901
1.67141
1.65489
1.63943
1.62666
1.61558
1.60936
1.60766
1.61827
1.64385
1.69566
1.79444
1.96828
2.23222
2.62433
3.20983
4.11049
5.5619
8.03747
12.4242
20.2001
33.4756
64.0385
222.029
1714.45
1.86968
1.83759
1.80784
1.78052
1.75506
1.73175
1.70988
1.69005
1.67134
1.65476
1.63921
1.62623
1.61462
1.60698
1.60237
1.60625
1.62021
1.64978
1.70738
1.81131
1.98955
2.25702
2.65065
3.23551
4.13087
5.57142
8.02848
12.3838
20.1304
33.8954
68.7787
249.959
1874.71
1.86968
1.83759
1.80784
1.78052
1.75506
1.73173
1.70986
1.69
1.67127
1.65466
1.63904
1.62595
1.61408
1.60578
1.59978
1.60024
1.60799
1.62562
1.66111
1.72459
1.83387
2.01694
2.28772
2.68313
3.26642
4.15673
5.58577
8.02141
12.3442
20.0691
34.41
73.0963
271.8
2001.63
1.86969
1.83758
1.80784
1.78051
1.75506
1.73172
1.70985
1.68996
1.67122
1.65457
1.63891
1.62574
1.61372
1.60511
1.59844
1.59727
1.60188
1.61323
1.63645
1.67865
1.74834
1.86364
2.05148
2.32598
2.72265
3.30484
4.18901
5.60644
8.02175
12.3047
20.014
34.9128
76.4263
289.203
2105.73
1.83758
1.86972
1.80785
1.7805
1.75506
1.7317
1.70984
1.68993
1.67118
1.6545
1.63879
1.62557
1.61345
1.60469
1.59768
1.59574
1.59887
1.60709
1.62393
1.65442
1.70344
1.78023
1.90175
2.09492
2.37281
2.77114
3.35127
4.22988
5.63434
8.02526
12.2641
19.9576
35.2805
78.9824
303.366
2194.33
1.80785
1.83768
1.8698
1.7805
1.75506
1.73169
1.70983
1.68989
1.67115
1.65443
1.63869
1.62543
1.61322
1.60438
1.59718
1.59492
1.59736
1.60414
1.61786
1.6424
1.68025
1.73711
1.82141
1.94993
2.14816
2.42986
2.82917
3.40785
4.27905
5.67018
8.03514
12.2238
19.8949
35.5364
80.9146
315.401
2272.51
1.78049
1.80801
1.83787
1.86987
1.75506
1.73168
1.70982
1.68986
1.67112
1.65436
1.63861
1.6253
1.61303
1.60413
1.5968
1.5944
1.59656
1.60273
1.61508
1.63689
1.66924
1.7157
1.78103
1.87376
2.00924
2.21291
2.49799
2.89863
3.47404
4.33794
5.71888
8.05601
12.1924
19.826
35.6738
82.4333
325.842
2343.24
1.75506
1.7807
1.80833
1.83808
1.86995
1.73166
1.70982
1.68984
1.6711
1.65431
1.63855
1.62519
1.61287
1.60393
1.59649
1.59403
1.59608
1.60205
1.6139
1.63472
1.66478
1.70644
1.76234
1.8374
1.93864
2.08173
2.28989
2.5786
2.97911
3.55151
4.41364
5.78482
8.08842
12.1665
19.7493
35.7485
83.622
335.291
2408.8
1.73165
1.75532
1.78111
1.80866
1.83828
1.87003
1.70982
1.68981
1.67109
1.65425
1.6385
1.62509
1.61274
1.60375
1.59624
1.59374
1.59575
1.6017
1.6135
1.6342
1.66371
1.70386
1.75597
1.82277
1.90779
2.01856
2.1684
2.38106
2.6717
3.0723
3.64908
4.5119
5.86361
8.13015
12.1504
19.6716
35.7452
84.6175
343.893
2470.07
1.70981
1.73194
1.75584
1.78154
1.809
1.8385
1.87011
1.68979
1.67107
1.6542
1.63846
1.625
1.61263
1.6036
1.59601
1.59351
1.5955
1.60149
1.61341
1.6344
1.66418
1.70437
1.75566
1.82003
1.89873
1.99536
2.11489
2.2717
2.48699
2.7784
3.18878
3.77396
4.62392
5.95341
8.18162
12.1398
19.5932
35.7251
85.4424
351.981
2528.23
1.68977
1.71015
1.73253
1.75637
1.78199
1.80934
1.83872
1.87019
1.67106
1.65416
1.63842
1.62491
1.61254
1.60346
1.59583
1.59331
1.5953
1.60135
1.61344
1.63489
1.66541
1.70662
1.75876
1.82337
1.90059
1.9926
2.10092
2.23101
2.39251
2.60961
2.91278
3.3355
3.91306
4.74857
6.05308
8.24131
12.1404
19.52
35.6814
86.1818
359.527
2583.22
1.67105
1.69012
1.71083
1.73314
1.75692
1.78244
1.8097
1.83895
1.87028
1.65412
1.6384
1.62483
1.61247
1.60334
1.59566
1.59315
1.59514
1.60125
1.61354
1.63545
1.66686
1.70961
1.76367
1.83038
1.90924
2.00143
2.10637
2.22717
2.36644
2.53381
2.76506
3.08416
3.50036
4.06625
4.88401
6.16151
8.30882
12.1452
19.4517
35.6234
86.8257
366.746
2635.9
1.65409
1.67144
1.69084
1.71152
1.73377
1.75749
1.78291
1.81007
1.83918
1.87036
1.63838
1.62476
1.61241
1.60322
1.59553
1.59301
1.595
1.60118
1.61367
1.63603
1.66833
1.71271
1.76929
1.83938
1.92178
2.01754
2.12465
2.24431
2.37545
2.52378
2.71287
2.96532
3.27836
3.6832
4.23242
5.029
6.27736
8.3828
12.1558
19.3916
35.5597
87.4347
373.545
2685.74
1.63836
1.65446
1.67224
1.69159
1.71224
1.73441
1.75807
1.78339
1.81044
1.83942
1.87045
1.62469
1.61237
1.60311
1.59542
1.59289
1.59489
1.60114
1.61381
1.63659
1.66975
1.71571
1.77488
1.84915
1.93663
2.03807
2.15088
2.27533
2.40772
2.55032
2.72356
2.94129
3.19395
3.49566
3.88253
4.41053
5.18223
6.3994
8.46189
12.1746
19.3384
35.5008
87.9858
380.094
2733.63
1.62463
1.63877
1.65527
1.67306
1.69236
1.71298
1.73508
1.75866
1.78388
1.81083
1.83966
1.87054
1.61234
1.603
1.59533
1.59278
1.59479
1.6011
1.61394
1.63712
1.6711
1.71853
1.78024
1.85876
1.95236
2.06157
2.18242
2.31555
2.45533
2.60226
2.77478
2.98338
3.20055
3.44585
3.73468
4.09811
4.5996
5.34242
6.52612
8.54527
12.1988
19.2935
35.4457
88.5243
386.268
2778.74
1.61232
1.62499
1.63963
1.65609
1.67391
1.69315
1.71374
1.73576
1.75927
1.78439
1.81122
1.83992
1.87063
1.60289
1.59527
1.59269
1.59471
1.60108
1.61408
1.63761
1.67237
1.72116
1.78531
1.86791
1.96775
2.08638
2.218
2.36266
2.51411
2.67206
2.85429
3.0699
3.28335
3.49227
3.72032
3.99097
4.32824
4.79773
5.50781
6.6563
8.63184
12.2278
19.2554
35.3986
89.0222
392.23
2822.12
1.6028
1.6127
1.62578
1.64052
1.65695
1.67478
1.69397
1.71452
1.73647
1.7599
1.78491
1.81163
1.84018
1.87073
1.59522
1.5926
1.59463
1.60105
1.6142
1.63807
1.67354
1.7236
1.79005
1.87653
1.98247
2.1108
2.25556
2.41571
2.58228
2.75635
2.95582
3.19022
3.41514
3.62471
3.81584
4.01728
4.26099
4.57012
5.00329
5.67756
6.78875
8.72068
12.2606
19.2248
35.359
89.5155
397.831
2862.73
1.59521
1.60305
1.61352
1.6266
1.64143
1.65784
1.67567
1.69481
1.71532
1.73719
1.76054
1.78545
1.81204
1.84044
1.87081
1.5925
1.59455
1.60103
1.61432
1.63849
1.67462
1.72584
1.79447
1.88458
1.99645
2.13433
2.29265
2.47227
2.65948
2.8542
3.0773
3.34013
3.58936
3.81386
4.0085
4.17054
4.33567
4.54321
4.82079
5.21553
5.85025
6.92246
8.81086
12.2967
19.2
35.3273
89.9771
403.249
2901.8
1.59241
1.59548
1.60364
1.61436
1.62745
1.64238
1.65876
1.67659
1.69568
1.71614
1.73794
1.7612
1.786
1.81245
1.84069
1.8709
1.59447
1.60101
1.61443
1.63888
1.6756
1.7279
1.79856
1.89205
2.00965
2.15676
2.32864
2.52902
2.74266
2.96616
3.21937
3.5203
3.80553
4.05894
4.26993
4.43588
4.55537
4.67335
4.83603
5.07524
5.43175
6.02446
7.05631
8.90157
12.3352
19.1819
35.3031
90.436
408.307
2938.11
1.59443
1.59236
1.59604
1.60423
1.61524
1.62834
1.64335
1.65971
1.67753
1.69658
1.71698
1.7387
1.76188
1.78654
1.81285
1.84093
1.87098
1.60097
1.61452
1.63923
1.6765
1.72978
1.80233
1.89895
2.02205
2.17796
2.36332
2.58493
2.82683
3.08863
3.38474
3.73507
4.06954
4.36629
4.60862
4.78857
4.90823
4.96929
5.02813
5.13837
5.33228
5.64956
6.19853
7.18937
8.99206
12.3757
19.168
35.2848
90.8687
413.214
2973.11
1.60099
1.59424
1.59225
1.59661
1.60487
1.61615
1.62927
1.64435
1.66069
1.6785
1.6975
1.71785
1.73949
1.76254
1.78707
1.81323
1.84116
1.87106
1.61459
1.63955
1.67732
1.7315
1.80578
1.90532
2.03361
2.19787
2.39655
2.63941
2.91028
3.21516
3.5702
3.99209
4.39323
4.75242
5.04397
5.25267
5.37694
5.4276
5.4114
5.39805
5.44792
5.59058
5.86763
6.37186
7.3211
9.08175
12.4174
19.1598
35.2741
91.2962
417.755
3005.4
1.61474
1.60056
1.59379
1.5921
1.59726
1.60557
1.61709
1.63025
1.64537
1.66171
1.6795
1.69845
1.71873
1.74027
1.76319
1.78758
1.81361
1.84139
1.87114
1.63982
1.67805
1.73307
1.80894
1.91118
2.04435
2.21646
2.42822
2.69192
2.99235
3.34408
3.76671
4.28923
4.7955
5.24659
5.61446
5.87143
6.0105
6.04403
5.9965
5.88088
5.7812
5.76261
5.84865
6.08333
6.54386
7.45081
9.17012
12.4599
19.1541
35.2665
91.7011
422.185
3036.55
1.64017
1.61391
1.59944
1.59328
1.59206
1.59794
1.60633
1.61806
1.63127
1.64643
1.66277
1.68052
1.69943
1.71961
1.74103
1.76382
1.78809
1.81397
1.84162
1.87122
1.67869
1.73448
1.81182
1.91656
2.05429
2.23378
2.45823
2.74209
3.07268
3.47442
3.97027
4.61344
5.28365
5.89594
6.38493
6.72198
6.88995
6.90378
6.79892
6.61712
6.37676
6.17568
6.08051
6.10562
6.2944
6.71309
7.57786
9.25673
12.5028
19.1536
35.2666
92.0983
426.25
3061.62
1.67941
1.63873
1.61164
1.59822
1.5929
1.59211
1.59864
1.60716
1.61906
1.63234
1.64751
1.66386
1.68156
1.7004
1.72046
1.74176
1.76444
1.78857
1.81433
1.84184
1.87129
1.73573
1.81441
1.92149
2.06345
2.24986
2.48652
2.78971
3.15104
3.60474
4.17787
4.9617
5.84863
6.73408
7.45259
7.92348
8.14684
8.13857
7.95057
7.64796
7.29017
6.89752
6.57956
6.39988
6.36059
6.50044
6.87852
7.70167
9.34121
12.5456
19.1548
35.2686
92.4732
429.705
3082.81
1.73706
1.67722
1.63467
1.60925
1.59716
1.59261
1.5923
1.59934
1.60808
1.62007
1.63346
1.64862
1.66498
1.6826
1.70134
1.72129
1.74248
1.76504
1.78905
1.81467
1.84205
1.87137
1.81675
1.92598
2.07187
2.26479
2.51307
2.83473
3.22716
3.7334
4.38755
5.33525
6.4941
7.75347
8.88204
9.63522
9.96514
9.94382
9.64226
9.15972
8.59244
8.01404
7.44084
6.99074
6.71914
6.61224
6.701
7.03941
7.8218
9.42325
12.5881
19.1578
35.2732
92.7898
432.551
3105.72
1.8191
1.73389
1.67071
1.63035
1.60712
1.59622
1.59237
1.59268
1.60004
1.60907
1.62112
1.63462
1.64976
1.6661
1.68361
1.70226
1.7221
1.74318
1.76562
1.78951
1.81501
1.84225
1.87144
1.93007
2.07958
2.27862
2.53791
2.87721
3.30074
3.85902
4.59885
5.73575
7.22199
8.95003
10.6435
11.9456
12.5728
12.5745
12.1383
11.4065
10.5286
9.6277
8.78441
8.00352
7.40697
7.03673
6.85946
6.89566
7.1952
7.93785
9.50259
12.63
19.1633
35.2804
93.0549
435.663
3130.84
1.93403
1.81471
1.7239
1.66391
1.62642
1.60515
1.59534
1.59206
1.59324
1.60074
1.61012
1.6222
1.63582
1.6509
1.66718
1.6846
1.70316
1.72289
1.74386
1.76618
1.78995
1.81533
1.84245
1.87147
2.08666
2.29139
2.56107
2.91725
3.3715
3.98075
4.81234
6.16327
8.02704
10.3102
12.7088
14.7842
16.0857
16.3437
15.7764
14.7279
13.4188
12.0443
10.7438
9.59465
8.58154
7.82583
7.3512
7.10134
7.08405
7.34547
8.04959
9.57907
12.6709
19.1694
35.2875
93.3513
439.032
3158.18
2.09329
1.92809
1.79979
1.71357
1.65765
1.62272
1.6033
1.59454
1.59175
1.59393
1.60148
1.61124
1.62332
1.63701
1.65202
1.66824
1.68556
1.70402
1.72365
1.74451
1.76673
1.79039
1.81565
1.84255
1.87147
2.30326
2.58261
2.95493
3.43918
4.09826
5.02893
6.61565
8.89859
11.8106
15.0419
18.0953
20.3884
21.4154
20.9859
19.5654
17.6893
15.6542
13.6867
11.9269
10.4364
9.17025
8.24483
7.66119
7.33708
7.26586
7.48996
8.15681
9.6525
12.7055
19.1754
35.2968
93.6735
442.75
3188.31
2.31412
2.08552
1.90611
1.78452
1.70403
1.65171
1.61921
1.6016
1.59381
1.59151
1.59469
1.60228
1.61239
1.62446
1.63818
1.65311
1.66926
1.6865
1.70487
1.7244
1.74516
1.76726
1.79081
1.81581
1.84255
1.87147
2.60275
2.99035
3.50364
4.21167
5.24932
7.0889
9.82336
13.4242
17.5978
21.8175
25.3959
27.6282
28.0077
26.5038
23.9128
20.9856
18.0799
15.4317
13.1616
11.3004
9.76479
8.66149
7.96542
7.56599
7.44087
7.62854
8.25945
9.71362
12.7355
19.183
35.3088
94.0389
446.771
3221.15
2.62072
2.3039
2.05346
1.88391
1.77038
1.69492
1.64603
1.61591
1.60002
1.59316
1.59138
1.59552
1.60314
1.61354
1.62559
1.63931
1.65418
1.67026
1.68742
1.70569
1.72513
1.74578
1.76778
1.79102
1.81581
1.84255
1.87147
3.02384
3.56486
4.32143
5.47368
7.57775
10.7874
15.1233
20.3287
25.8769
31.0123
34.8601
36.6313
35.8936
32.8717
28.772
24.5709
20.6597
17.254
14.4315
12.1774
10.3603
9.07342
8.2627
7.78755
7.60892
7.76093
8.34487
9.76596
12.7689
19.1926
35.3249
94.4369
451.225
3257.46
3.05326
2.60753
2.25724
2.02152
1.86332
1.75684
1.68616
1.64059
1.6128
1.59856
1.59262
1.59135
1.59638
1.60407
1.61465
1.62671
1.64041
1.65523
1.67123
1.68831
1.70649
1.72583
1.74638
1.76804
1.79102
1.81581
1.84255
1.87147
3.62327
4.42821
5.7016
8.07611
11.7768
16.8812
23.1874
30.1944
37.1185
42.9632
46.6843
47.4697
45.0593
40.035
34.0824
28.3944
23.3564
19.1287
15.7213
13.0584
10.9522
9.47837
8.55203
8.00133
7.76994
7.87002
8.41797
9.82383
12.8063
19.2045
35.3455
94.8915
456.055
3296.98
3.67413
3.03586
2.53949
2.21147
1.99187
1.84357
1.74377
1.67773
1.6354
1.60989
1.59722
1.59219
1.59145
1.59723
1.60503
1.61574
1.62782
1.64148
1.65626
1.67218
1.68918
1.70726
1.72652
1.74668
1.76804
1.79102
1.81581
1.84255
1.87147
4.53274
5.93039
8.57774
12.7781
18.6727
26.1284
34.6913
43.5854
51.7483
57.9431
60.994
60.1518
55.4447
47.9135
39.7727
32.403
26.1338
21.0326
17.017
13.9353
11.5363
9.8744
8.83255
8.20699
7.90377
7.96285
8.49867
9.88792
12.8483
19.2195
35.3725
95.3877
461.443
3340.82
4.62486
3.65163
2.9351
2.47387
2.16897
1.96341
1.82448
1.73115
1.66963
1.63046
1.60717
1.59602
1.59189
1.59172
1.59802
1.60603
1.61679
1.62891
1.64252
1.65726
1.6731
1.69003
1.70802
1.72686
1.74668
1.76804
1.79102
1.81581
1.84255
1.87143
6.15761
9.07845
13.7793
20.4737
29.1087
39.2925
50.2846
61.0087
70.1142
76.1374
77.8302
74.6176
66.9458
56.4064
45.7655
36.5434
28.9579
22.9449
18.306
14.8011
12.1089
10.2598
9.10352
8.37829
8.01824
8.06483
8.58788
9.95904
12.8955
19.2382
35.4063
95.9418
467.299
3388.42
4.59491
6.35862
3.49723
2.84022
2.41294
2.12817
1.93587
1.80601
1.71899
1.66187
1.62576
1.6047
1.59496
1.59167
1.59223
1.59878
1.60705
1.61782
1.62998
1.64353
1.65824
1.67399
1.69085
1.70839
1.72686
1.74668
1.76804
1.79102
1.81581
1.84245
1.87136
9.57391
14.7696
22.2629
32.0886
43.9285
57.0959
70.5407
82.876
92.4602
97.6283
97.1423
90.7398
79.4215
65.398
51.9803
40.7648
31.7982
24.8475
19.5778
15.6498
12.667
10.6332
9.32999
8.52505
8.14464
8.17706
8.6866
10.0381
12.9489
19.2614
35.4496
96.5336
473.876
3441.36
4.34081
6.33004
10.0118
3.35692
2.75225
2.35446
2.0887
1.90922
1.78818
1.70729
1.65445
1.62129
1.60247
1.59404
1.59136
1.59288
1.59953
1.60807
1.61882
1.63104
1.64452
1.65919
1.67487
1.69126
1.70839
1.72686
1.74668
1.76804
1.79102
1.81565
1.84225
1.87129
15.7391
24.0221
35.0336
48.5373
63.9129
80.1603
95.9166
109.479
118.911
122.385
118.786
108.331
92.7013
74.764
58.3381
45.0203
34.6273
26.7245
20.8235
16.4767
13.2081
10.9459
9.52442
8.6874
8.28444
8.30077
8.79597
10.1262
13.0093
19.2902
35.5027
97.2031
481.037
3498.62
4.11794
5.88199
10.0026
16.5969
3.22813
2.66791
2.29796
2.05051
1.88348
1.77101
1.69608
1.64737
1.61711
1.60049
1.59328
1.59113
1.59359
1.60027
1.60908
1.61982
1.63207
1.64549
1.66012
1.67529
1.69126
1.70838
1.72686
1.74668
1.76804
1.7908
1.81533
1.84204
1.87122
25.7345
37.9153
53.0674
70.6446
89.7108
108.962
126.729
140.976
149.464
150.259
142.531
127.155
106.596
84.3788
64.7641
49.2671
37.4214
28.5634
22.0363
17.2778
13.6615
11.2147
9.73995
8.8673
8.43929
8.43739
8.91731
10.2244
13.0779
19.3257
35.5694
97.9215
489.149
3562.5
3.91743
5.49116
9.18702
16.6518
27.2585
3.10538
2.58656
2.24337
2.01364
1.85868
1.75453
1.68537
1.64072
1.61335
1.59882
1.59264
1.591
1.59434
1.60104
1.61009
1.6208
1.63307
1.64645
1.66058
1.67529
1.69126
1.70838
1.72686
1.74668
1.76778
1.79038
1.815
1.84183
1.87114
40.7088
57.4787
77.2195
99.0665
121.793
143.817
163.153
177.393
183.984
180.991
168.07
146.936
120.908
94.1214
71.1896
53.4677
40.1612
30.3539
23.2106
17.9484
14.0512
11.513
9.97925
9.06699
8.6111
8.58856
9.05212
10.3343
13.156
19.3695
35.6504
98.7477
497.977
3631.09
3.72984
5.14031
8.45896
15.2855
27.4771
43.2031
2.98748
2.50812
2.19074
1.97815
1.83487
1.73876
1.67526
1.63466
1.61007
1.59738
1.59214
1.59098
1.59508
1.60182
1.61106
1.62176
1.63407
1.64691
1.66058
1.67528
1.69126
1.70839
1.72686
1.74638
1.76726
1.78994
1.81466
1.84161
1.87106
61.7362
83.5858
108.135
134.242
160.438
184.883
205.23
218.622
222.206
214.216
195.034
167.382
135.444
103.879
77.5534
57.591
42.8306
32.0875
24.1931
18.5245
14.4837
11.8445
10.2454
9.28899
8.80204
8.75616
9.20211
10.4574
13.2453
19.4234
35.7512
99.6401
508.093
3707.93
3.55269
4.81473
7.79726
14.0199
25.3839
43.7277
65.5406
2.87424
2.43269
2.14015
1.94409
1.8121
1.72386
1.66602
1.62929
1.60721
1.59615
1.59177
1.59106
1.59582
1.60262
1.61202
1.62273
1.63456
1.64689
1.66058
1.67528
1.69126
1.70839
1.72651
1.74577
1.76672
1.78949
1.81432
1.84139
1.87098
89.6992
116.857
146.199
176.383
205.757
232.195
252.881
264.424
263.74
249.477
223.015
188.198
150.02
113.549
83.8039
61.611
45.4167
33.5381
25.0367
19.1632
14.964
12.2134
10.5417
9.53622
9.0146
8.94236
9.36931
10.5957
13.3474
19.4896
35.8734
100.685
519.044
3789.6
3.38527
4.51045
7.17978
12.8337
23.4108
40.7308
66.5474
95.1516
2.76565
2.36039
2.0917
1.91156
1.79057
1.7102
1.65774
1.62451
1.6047
1.59512
1.59152
1.59126
1.59653
1.60345
1.613
1.6232
1.63454
1.64689
1.66058
1.67529
1.69126
1.70801
1.72582
1.74514
1.76616
1.78903
1.81396
1.84116
1.8709
125.181
157.604
191.53
225.513
257.735
285.686
305.916
314.431
308.076
286.248
251.589
209.099
164.47
123.047
89.8985
65.5068
47.5812
34.7838
25.9717
19.8722
15.4982
12.6243
10.8722
9.812
9.25164
9.1497
9.55594
10.7512
13.465
19.5709
36.0244
101.825
531.808
3897.09
3.22719
4.22691
6.60003
11.7059
21.5234
37.8784
62.4806
96.8265
132.571
2.6618
2.29139
2.0455
1.88083
1.77082
1.69794
1.65034
1.62027
1.60253
1.59425
1.59136
1.59162
1.59723
1.60434
1.61346
1.62316
1.63455
1.64689
1.66058
1.67529
1.69085
1.70725
1.72511
1.74449
1.7656
1.78855
1.8136
1.84092
1.87081
168.41
205.833
244.03
281.531
316.29
345.221
364.045
368.147
354.602
323.966
280.337
229.822
178.652
132.301
95.8023
68.7674
49.4403
36.1644
27.0091
20.6598
16.0928
13.0826
11.2412
10.1201
9.51643
9.38105
9.76484
10.9267
13.6002
19.6706
36.2086
103.177
547.868
4028.47
3.07805
3.96422
6.05825
10.6302
19.6921
35.1121
58.6041
91.5334
135.073
177.925
2.56288
2.22583
2.00193
1.85267
1.75308
1.68694
1.64372
1.61648
1.60068
1.59352
1.59116
1.5921
1.59799
1.60475
1.6134
1.62316
1.63455
1.64689
1.66058
1.67486
1.69001
1.70646
1.72438
1.74383
1.76501
1.78807
1.81322
1.84068
1.87072
219.263
261.302
303.475
344.292
381.319
410.624
426.871
424.951
402.633
362.053
308.868
250.144
192.449
141.254
100.74
71.5675
51.5007
37.696
28.1611
21.5357
16.7552
13.5942
11.6537
10.4648
9.81268
9.63975
9.99864
11.1245
13.7567
19.7929
36.4347
104.96
569.186
4162.45
2.93711
3.72299
5.55616
9.61001
17.9062
32.3901
54.816
86.5211
128.391
181.343
230.943
2.46918
2.16424
1.9621
1.82741
1.73715
1.67707
1.63779
1.6131
1.5991
1.5929
1.59101
1.59277
1.5983
1.60468
1.6134
1.62316
1.63454
1.64691
1.66012
1.67398
1.68916
1.70566
1.72363
1.74315
1.76442
1.78757
1.81284
1.84043
1.87063
277.339
323.632
369.611
413.686
452.77
481.694
493.898
484.114
451.431
399.948
336.84
269.879
205.766
148.727
104.977
74.6699
53.7865
39.3968
29.4414
22.5104
17.4937
14.1656
12.1153
10.8508
10.1446
9.92964
10.262
11.3502
13.9384
19.9429
36.7644
107.331
592.424
4297.84
2.80384
3.5056
5.09471
8.65479
16.1669
29.6928
51.0562
81.617
122.158
173.075
235.251
291.037
2.38156
2.10812
1.92643
1.80473
1.72284
1.66821
1.63249
1.61011
1.59775
1.59242
1.59113
1.59306
1.59815
1.60469
1.6134
1.62316
1.63456
1.64644
1.65917
1.67307
1.68828
1.70484
1.72286
1.74246
1.76381
1.78706
1.81244
1.84018
1.87054
342.087
392.435
442.299
489.815
530.754
558.243
564.52
544.802
500.249
437.152
363.968
288.878
216.853
155.13
109.666
78.1096
56.3242
41.2868
30.8656
23.5957
18.3173
14.8043
12.6321
11.2835
10.5169
10.2548
10.5559
11.6074
14.151
20.1611
37.2381
110.115
618.02
4433.04
2.67923
3.30773
4.67344
7.76703
14.4817
27.0173
47.289
76.7352
116.094
165.542
225.127
296.064
357.454
2.30218
2.05802
1.89449
1.78439
1.71
1.66027
1.62776
1.60748
1.59662
1.59229
1.59105
1.59293
1.59814
1.60469
1.6134
1.6232
1.63406
1.64548
1.65821
1.67215
1.68739
1.70399
1.72207
1.74174
1.76318
1.78653
1.81204
1.83992
1.87045
412.97
467.49
521.709
573.106
615.587
640.066
637.988
606.11
548.388
473.241
390.026
304.643
226.33
162.204
114.858
81.9253
59.1432
43.3884
32.4504
24.8047
19.2362
15.5182
13.2108
11.7688
10.9347
10.6211
10.8846
11.901
14.4448
20.4776
37.8344
113.302
645.759
4567.3
2.5663
3.12763
4.29409
6.94841
12.8681
24.3722
43.4996
71.8155
110.08
158.308
216.187
283.689
362.856
429.466
2.23174
2.01328
1.86589
1.76614
1.69848
1.65316
1.62353
1.60522
1.59601
1.59205
1.59074
1.59297
1.59814
1.60468
1.61346
1.62273
1.63306
1.6445
1.65723
1.6712
1.68647
1.70312
1.72127
1.74101
1.76253
1.78599
1.81162
1.83966
1.87036
489.641
548.934
608.441
664.342
707.708
726.817
713.381
667.126
595.229
507.871
411.581
318.085
236.77
170.016
120.607
86.1592
62.2759
45.7264
34.2148
26.1516
20.2611
16.3159
13.8586
12.3128
11.4037
11.0337
11.2538
12.2972
14.8432
20.8654
38.559
117.005
676.413
4698.79
2.46619
2.96707
3.95823
6.20491
11.3443
21.775
39.6887
66.8213
104.021
151.214
207.775
273.17
347.654
434.747
506.58
2.16921
1.97333
1.84029
1.74977
1.68816
1.64677
1.61982
1.60375
1.59548
1.59167
1.59076
1.59297
1.59815
1.60475
1.61299
1.62174
1.63204
1.6435
1.65622
1.67023
1.68553
1.70223
1.72044
1.74026
1.76187
1.78544
1.81121
1.83941
1.87027
572.187
637.52
703.813
764.845
807.595
817.909
789.66
726.996
640.264
536.463
429.912
332.845
248.263
178.641
126.972
90.8567
65.7575
48.3275
36.1791
27.6521
21.404
17.2067
14.5831
12.9222
11.9301
11.4979
11.746
12.8124
15.2991
21.3356
39.4519
121.294
709.571
4826.59
2.37769
2.82504
3.6715
5.5454
9.92935
19.2491
35.8683
61.7339
97.8493
144.123
199.691
263.544
335.29
415.874
511.152
588.834
2.11366
1.93766
1.81737
1.7351
1.67885
1.64112
1.61719
1.60269
1.59496
1.59171
1.59076
1.59292
1.5983
1.60433
1.61201
1.62077
1.631
1.64248
1.65519
1.66923
1.68457
1.70132
1.71959
1.73948
1.7612
1.7849
1.81082
1.83917
1.87019
661.478
735.026
810.237
876.547
915.685
912.527
865.785
784.974
677.476
560.737
449.978
349.027
260.897
188.154
134.013
96.0667
69.626
51.2209
38.3654
29.3227
22.6772
18.2002
15.3923
13.6039
12.5195
12.1166
12.3748
13.3788
15.8195
21.9016
40.5509
126.253
746.381
4948.53
2.2996
2.69849
3.43545
4.98327
8.6544
16.8212
32.0606
56.5472
91.5142
136.927
191.743
254.559
324.35
401.279
487.383
592.069
677.219
2.06427
1.90583
1.79686
1.7219
1.67059
1.63696
1.61546
1.60196
1.59503
1.59171
1.59074
1.59306
1.59799
1.60343
1.61104
1.61978
1.62994
1.64144
1.65415
1.6682
1.68359
1.70038
1.71873
1.7387
1.76053
1.78437
1.81043
1.83894
1.87011
759.634
844.921
931.592
1002.02
1032.21
1009.9
940.755
833.173
709.074
587.248
471.894
366.733
274.761
198.629
141.793
101.84
73.9214
54.4376
40.7972
31.1811
24.0939
19.3064
16.2942
14.3639
13.3013
12.8995
13.0538
13.9983
16.408
22.5868
41.8912
132.069
786.219
5063.77
2.23073
2.5858
3.23684
4.51551
7.54966
14.5354
28.2979
51.2679
84.9752
129.533
183.781
245.961
314.519
388.838
470.05
561.667
678.666
774.417
2.02034
1.87742
1.77843
1.71017
1.66434
1.63432
1.6145
1.60207
1.59503
1.59167
1.59105
1.59277
1.59721
1.6026
1.61005
1.61879
1.62887
1.64037
1.65308
1.66715
1.68258
1.69942
1.71784
1.73792
1.75988
1.78386
1.81005
1.83871
1.87002
871.047
973.325
1074.02
1144.03
1158.32
1108.98
1004.02
874.254
743.587
616.127
495.766
386.054
289.938
210.142
150.376
108.229
78.6853
58.0097
43.499
33.2456
25.6672
20.5351
17.2957
15.3671
14.2816
13.7338
13.7815
14.6695
17.075
23.4017
43.5547
138.791
830.67
5170.05
2.16997
2.48583
3.0664
4.12956
6.62013
12.4842
24.6478
45.9182
78.2034
121.85
175.662
237.553
305.463
378.154
455.828
541.022
639.074
774.291
886.101
1.98126
1.85198
1.76204
1.70112
1.66047
1.63306
1.61465
1.60206
1.59496
1.59205
1.59113
1.59209
1.59651
1.60179
1.60905
1.61778
1.62778
1.63927
1.65199
1.66608
1.68156
1.69845
1.71697
1.73717
1.75925
1.78337
1.80969
1.83849
1.86995
1003.88
1131.39
1245.18
1310.96
1294.1
1194.78
1058.45
919.307
781.186
647.488
521.678
407.065
306.5
222.759
159.822
115.284
83.9593
61.9698
46.4955
35.5344
27.4102
21.8949
18.6118
16.6146
15.3153
14.6134
14.5534
15.3948
17.8217
24.3846
45.5652
146.793
878.851
5267.04
2.11629
2.39761
2.91754
3.8122
5.84816
10.7114
21.2535
40.5757
71.1861
113.794
167.237
229.142
296.941
368.787
444.214
524.651
614.546
721.603
886.124
1024.59
1.94637
1.82941
1.7492
1.69565
1.65881
1.63328
1.61465
1.60196
1.59548
1.59229
1.59101
1.59161
1.5958
1.60101
1.60803
1.61675
1.62667
1.63815
1.65088
1.66497
1.68051
1.69748
1.71612
1.73644
1.75864
1.78289
1.80933
1.83828
1.86987
1174.71
1335.92
1473.73
1507.84
1415.64
1269.62
1118.8
968.668
822.056
681.434
549.698
429.823
324.502
236.537
170.186
123.054
89.7833
66.3497
49.8109
38.0654
29.3347
23.6758
20.2377
17.9192
16.3931
15.5305
15.3658
16.168
18.6629
25.5367
48.0647
156.067
932.784
5352.65
2.06865
2.32007
2.7858
3.55394
5.2136
9.20814
18.2071
35.4418
63.9827
105.287
158.348
220.521
288.708
360.444
434.614
511.958
595.605
692.582
814.852
1031.43
1214.41
1.91549
1.81156
1.74151
1.69354
1.65911
1.63328
1.6145
1.60269
1.59602
1.59243
1.59116
1.59126
1.59506
1.60025
1.60701
1.6157
1.62556
1.63699
1.64976
1.66386
1.67948
1.69655
1.71529
1.73574
1.75805
1.78242
1.80898
1.83807
1.86979
1419.08
1658.31
1775.17
1687.96
1523.05
1353.87
1185.92
1022.86
866.441
718.079
579.878
454.359
343.977
251.517
181.509
131.579
96.1929
71.1784
53.4676
40.8539
31.8485
25.8653
21.9278
19.2686
17.5043
16.4775
16.2126
16.9934
19.5935
26.9166
51.0421
167.273
991.359
5427.7
2.02665
2.25188
2.66862
3.34161
4.69466
7.95212
15.5149
30.6731
56.835
96.3297
148.829
211.458
280.512
352.833
426.676
502.131
581.611
670.637
780.242
931.807
1256.99
1526.02
1.89074
1.80106
1.7388
1.69395
1.65911
1.63306
1.61547
1.60377
1.59664
1.59292
1.59136
1.59106
1.59431
1.5995
1.606
1.61463
1.62444
1.63581
1.64862
1.66275
1.67848
1.69565
1.71449
1.73505
1.75747
1.78197
1.80865
1.83787
1.86972
1867.59
2109.85
2043.17
1847.65
1646.99
1450.1
1261.69
1082.8
914.769
757.581
612.262
480.681
364.934
267.718
193.82
140.89
103.216
76.4801
57.4834
44.4871
34.9276
28.1318
23.6664
20.6494
18.6382
17.4458
17.0906
17.8672
20.6386
28.5109
54.7179
180.294
1056.74
5490.3
1.99278
2.19239
2.56438
3.16274
4.27319
6.91247
13.1788
26.313
49.962
87.1584
138.583
201.688
272.058
345.668
420.056
494.733
571.494
655.02
754.916
889.725
1105.44
1712.25
2186.72
1.87629
1.79768
1.73935
1.69395
1.65881
1.63433
1.61723
1.60526
1.59779
1.59354
1.59153
1.59098
1.59357
1.59876
1.60501
1.61352
1.62332
1.63462
1.64749
1.66169
1.6775
1.69478
1.71371
1.73439
1.75691
1.78153
1.80832
1.83767
1.86969
2549.6
2537.31
2302.85