/*--------------------------------*- C++ -*----------------------------------*\
  =========                 |
  \\      /  F ield         | OpenFOAM: The Open Source CFD Toolbox
   \\    /   O peration     | Website:  https://openfoam.org
    \\  /    A nd           | Version:  8
     \\/     M anipulation  |
\*---------------------------------------------------------------------------*/
FoamFile
{
    version     2.0;
    format      ascii;
    class       volScalarField;
    location    "0.2";
    object      k;
}
// * * * * * * * * * * * * * * * * * * * * * * * * * * * * * * * * * * * * * //

dimensions      [0 2 -2 0 0 0 0];

internalField   nonuniform List<scalar> 
15677
(
0.334162
0.365034
0.294758
0.368736
0.357692
0.281039
0.370696
0.36008
0.366136
0.282766
0.371887
0.361634
0.361479
0.383345
0.288891
0.372612
0.363744
0.357746
0.368353
0.401717
0.300328
0.37304
0.365662
0.357855
0.358172
0.380146
0.419434
0.311843
0.373264
0.36718
0.359468
0.354606
0.361067
0.393349
0.434846
0.322672
0.373348
0.368305
0.361363
0.35479
0.353087
0.366939
0.406233
0.44799
0.332169
0.373349
0.369082
0.363071
0.356355
0.351145
0.353529
0.373603
0.418364
0.45885
0.34057
0.373314
0.369568
0.364446
0.358231
0.351951
0.348815
0.354817
0.380757
0.429197
0.468021
0.347653
0.373274
0.369824
0.365466
0.359968
0.353733
0.348406
0.347175
0.357156
0.387723
0.438944
0.475538
0.353881
0.373249
0.369926
0.366152
0.361402
0.355678
0.349783
0.345379
0.346352
0.359749
0.394527
0.447367
0.481976
0.359069
0.373239
0.36994
0.366551
0.362481
0.357436
0.351736
0.346227
0.342948
0.345916
0.362659
0.400777
0.454855
0.48728
0.363724
0.373239
0.369923
0.36674
0.363212
0.358867
0.353693
0.348089
0.34311
0.340882
0.345931
0.365527
0.40666
0.461205
0.49186
0.367775
0.373239
0.369908
0.366797
0.363638
0.359923
0.355399
0.350171
0.344764
0.340307
0.339208
0.346066
0.368444
0.411852
0.466832
0.495654
0.371365
0.373239
0.369901
0.366797
0.363836
0.360614
0.356744
0.352099
0.346891
0.341712
0.337827
0.337759
0.3464
0.371135
0.416653
0.471506
0.499012
0.374644
0.373238
0.369898
0.366787
0.363894
0.360995
0.357696
0.353699
0.348986
0.343844
0.338928
0.33559
0.336537
0.346804
0.373775
0.420727
0.475628
0.501906
0.377445
0.373238
0.369896
0.366777
0.363902
0.361143
0.358282
0.354897
0.350803
0.346071
0.341021
0.336381
0.333585
0.335469
0.347323
0.376063
0.424416
0.479023
0.504466
0.380268
0.373237
0.369896
0.36677
0.363897
0.361185
0.358551
0.355687
0.352227
0.348078
0.343346
0.338419
0.334055
0.331777
0.334584
0.347773
0.378224
0.427424
0.482002
0.506836
0.382482
0.373236
0.369895
0.366765
0.363891
0.361189
0.358656
0.356086
0.353223
0.349709
0.345518
0.340827
0.336027
0.331942
0.33017
0.333797
0.348262
0.37998
0.430115
0.484457
0.508876
0.385099
0.373236
0.369895
0.366762
0.363886
0.36118
0.358688
0.356258
0.353767
0.350896
0.347337
0.34315
0.338504
0.333854
0.330036
0.328747
0.333136
0.348639
0.381599
0.432199
0.486603
0.511006
0.386862
0.373236
0.369895
0.366759
0.363882
0.361171
0.358692
0.35632
0.354029
0.351577
0.348712
0.345147
0.340963
0.336401
0.331895
0.328358
0.327502
0.332563
0.349011
0.382809
0.434076
0.488386
0.512715
0.389454
0.373236
0.369894
0.366757
0.363879
0.361162
0.358687
0.356333
0.354145
0.351921
0.349542
0.346697
0.343125
0.338999
0.33452
0.330186
0.326891
0.326454
0.332083
0.349279
0.383936
0.435412
0.48999
0.514861
0.390889
0.373236
0.369894
0.366756
0.363877
0.361155
0.35868
0.356326
0.354186
0.352079
0.349991
0.34766
0.344847
0.341335
0.337259
0.332898
0.328715
0.325691
0.325597
0.331738
0.34954
0.384672
0.4367
0.491286
0.516309
0.393482
0.373236
0.369893
0.366755
0.363874
0.36115
0.358673
0.356314
0.354193
0.352137
0.350219
0.348191
0.345959
0.343232
0.339754
0.33579
0.331555
0.327572
0.324751
0.324975
0.331442
0.349724
0.385415
0.437475
0.492687
0.518865
0.394853
0.373237
0.369893
0.366754
0.363872
0.361146
0.358667
0.356302
0.354187
0.352148
0.350321
0.348465
0.346608
0.344473
0.341814
0.338489
0.334646
0.330562
0.326692
0.324086
0.324565
0.331415
0.349988
0.385854
0.438426
0.493577
0.520514
0.504592
0.373237
0.369892
0.366754
0.363871
0.361144
0.358661
0.356292
0.354176
0.352138
0.350356
0.348586
0.34697
0.345197
0.343217
0.340769
0.337521
0.333805
0.329866
0.326265
0.32388
0.324591
0.331505
0.350217
0.386344
0.438873
0.49554
0.529235
0.71062
0.373237
0.369892
0.366754
0.363869
0.361142
0.358656
0.356284
0.354164
0.352122
0.350357
0.348626
0.347152
0.345597
0.344087
0.342306
0.339936
0.336961
0.333547
0.329872
0.326349
0.324022
0.324792
0.331742
0.350533
0.38671
0.439778
0.496169
0.54604
0.885716
0.373237
0.369892
0.366754
0.363868
0.36114
0.358652
0.356278
0.354153
0.352106
0.350343
0.348626
0.347225
0.345793
0.344607
0.343231
0.341679
0.339781
0.337047
0.333754
0.330164
0.326734
0.324463
0.325275
0.332228
0.350975
0.387129
0.440478
0.495901
0.558814
1.02706
0.373238
0.369891
0.366754
0.363866
0.361139
0.358649
0.356273
0.354144
0.352092
0.350324
0.348609
0.34724
0.345873
0.344888
0.343768
0.342833
0.341751
0.340036
0.337493
0.334385
0.330924
0.327594
0.325362
0.326195
0.333032
0.351555
0.387743
0.440235
0.494426
0.568296
1.14908
0.373238
0.369891
0.366754
0.363865
0.361138
0.358646
0.35627
0.354136
0.352081
0.350306
0.348587
0.347226
0.345892
0.345015
0.344054
0.343557
0.342996
0.342175
0.340765
0.3385
0.335675
0.332402
0.329129
0.32684
0.327519
0.334146
0.352387
0.388234
0.439336
0.491319
0.57474
1.24754
0.373238
0.36989
0.366754
0.363864
0.361138
0.358643
0.356267
0.354129
0.352072
0.35029
0.348566
0.347199
0.345879
0.345049
0.344189
0.343977
0.343783
0.343571
0.343159
0.342235
0.34038
0.337792
0.334615
0.331311
0.32885
0.329286
0.335612
0.353407
0.38858
0.437467
0.485902
0.578942
1.31966
0.373238
0.36989
0.366755
0.363863
0.361138
0.358641
0.356264
0.354123
0.352064
0.350276
0.348547
0.347171
0.345852
0.345037
0.344246
0.344192
0.34425
0.344471
0.344787
0.345037
0.344629
0.343124
0.340736
0.337606
0.334164
0.331456
0.331505
0.337434
0.354611
0.388527
0.434208
0.479184
0.58157
1.37415
0.373238
0.36989
0.366755
0.363863
0.361137
0.358639
0.356263
0.354118
0.352057
0.350264
0.34853
0.347146
0.345823
0.345004
0.344252
0.34427
0.3445
0.345023
0.345877
0.34696
0.347862
0.347997
0.346828
0.344602
0.341419
0.337762
0.334657
0.33421
0.339614
0.355921
0.388229
0.429948
0.472378
0.583826
1.417
0.36989
0.373242
0.366755
0.363862
0.361137
0.358637
0.356261
0.354113
0.352052
0.350254
0.348516
0.347124
0.345795
0.344967
0.344227
0.344285
0.344614
0.345338
0.346576
0.348275
0.350134
0.351765
0.352458
0.351601
0.349447
0.34613
0.342107
0.338502
0.337369
0.342108
0.35747
0.387547
0.425438
0.466055
0.586099
1.45213
0.366755
0.3699
0.37325
0.363861
0.361137
0.358635
0.35626
0.354109
0.352048
0.350244
0.348504
0.347104
0.345769
0.344932
0.344194
0.344267
0.344652
0.345507
0.347007
0.349156
0.351741
0.354477
0.356887
0.358144
0.357523
0.355361
0.351754
0.347255
0.342946
0.340989
0.345259
0.359384
0.386599
0.421067
0.460295
0.588804
1.48211
0.363861
0.366772
0.36992
0.373258
0.361137
0.358633
0.356259
0.354105
0.352044
0.350236
0.348494
0.347088
0.345747
0.344901
0.344159
0.344237
0.344651
0.345586
0.34727
0.34974
0.352868
0.356462
0.360155
0.363385
0.365157
0.364698
0.362369
0.358354
0.35316
0.348005
0.345475
0.349069
0.361433
0.385696
0.416954
0.455313
0.591836
1.50847
0.361137
0.363882
0.366806
0.369941
0.373266
0.358632
0.356259
0.354102
0.352042
0.350229
0.348486
0.347073
0.345728
0.344874
0.344127
0.344206
0.344633
0.345618
0.347427
0.350133
0.353668
0.357921
0.362628
0.367347
0.371386
0.373624
0.373164
0.370542
0.365882
0.35984
0.354253
0.351075
0.353169
0.363632
0.384833
0.413223
0.450974
0.59536
1.53227
0.358631
0.361164
0.363926
0.36684
0.369963
0.373274
0.356258
0.354099
0.352039
0.350222
0.348479
0.34706
0.345711
0.34485
0.344099
0.344176
0.344612
0.345628
0.347522
0.350409
0.354255
0.359021
0.36453
0.370447
0.376209
0.38104
0.383597
0.38301
0.379837
0.374365
0.36806
0.361971
0.357206
0.357527
0.365971
0.384216
0.409849
0.447353
0.599114
1.55406
0.356258
0.358661
0.36122
0.363972
0.366876
0.369986
0.373282
0.354096
0.352037
0.350216
0.348473
0.347048
0.345697
0.34483
0.344074
0.34415
0.34459
0.345629
0.347584
0.35061
0.354715
0.359892
0.366047
0.372935
0.380105
0.386921
0.392425
0.39519
0.394191
0.390291
0.384782
0.378176
0.370381
0.363781
0.362095
0.368443
0.383732
0.40684
0.44426
0.603238
1.57431
0.354094
0.356293
0.358725
0.361277
0.364019
0.366913
0.370009
0.373291
0.352036
0.350211
0.348469
0.347038
0.345685
0.344812
0.344052
0.344126
0.344571
0.345628
0.347631
0.350765
0.355087
0.360628
0.367325
0.375023
0.383365
0.391826
0.399592
0.405682
0.40836
0.406766
0.403119
0.397576
0.389163
0.379371
0.370703
0.366832
0.371056
0.383645
0.404273
0.441657
0.607401
1.59317
0.352035
0.354131
0.356367
0.35879
0.361336
0.364067
0.366951
0.370032
0.3733
0.350206
0.348465
0.347028
0.345675
0.344796
0.344033
0.344106
0.344555
0.345627
0.34767
0.350896
0.355398
0.361266
0.368469
0.376874
0.386224
0.396089
0.405763
0.414412
0.420789
0.423203
0.422195
0.418866
0.411456
0.40088
0.388817
0.377887
0.371688
0.373667
0.383737
0.402073
0.439473
0.611816
1.61092
0.350201
0.352077
0.354209
0.356443
0.358857
0.361397
0.364116
0.366989
0.370057
0.373309
0.348462
0.347019
0.345667
0.344782
0.344017
0.344089
0.34454
0.345627
0.347705
0.351011
0.355671
0.361823
0.369507
0.378608
0.388868
0.399977
0.411312
0.422161
0.431396
0.437897
0.441448
0.44116
0.435944
0.42624
0.413168
0.3986
0.385246
0.376659
0.376301
0.383973
0.400225
0.437662
0.616109
1.62751
0.348459
0.350242
0.352164
0.35429
0.356521
0.358926
0.361459
0.364167
0.367029
0.370082
0.373318
0.347012
0.34566
0.344769
0.344002
0.344074
0.344528
0.345627
0.347737
0.351116
0.355916
0.362322
0.370441
0.380236
0.391433
0.403705
0.416553
0.429352
0.441069
0.450755
0.459054
0.463996
0.461777
0.454136
0.44172
0.425866
0.408604
0.392707
0.381686
0.378936
0.384417
0.398669
0.436166
0.62057
1.64319
0.347005
0.348503
0.350329
0.352253
0.354373
0.356601
0.358998
0.361523
0.364219
0.36707
0.370107
0.373328
0.345654
0.344758
0.34399
0.344061
0.344518
0.345628
0.347767
0.351211
0.356139
0.362777
0.371294
0.381734
0.393909
0.407436
0.421738
0.436362
0.450318
0.462797
0.474842
0.485407
0.488664
0.483799
0.473194
0.457699
0.438825
0.418719
0.400195
0.386716
0.381578
0.385012
0.397389
0.434946
0.624792
1.65784
0.34565
0.347042
0.348596
0.350419
0.352345
0.354459
0.356683
0.359071
0.361588
0.364273
0.367112
0.370134
0.373337
0.344747
0.343979
0.34405
0.34451
0.34563
0.347795
0.351298
0.356343
0.363194
0.37208
0.38312
0.396231
0.411125
0.427059
0.443497
0.459596
0.474645
0.490047
0.505124
0.514475
0.515213
0.506982
0.492898
0.473992
0.451899
0.428841
0.407644
0.391705
0.384206
0.385694
0.396366
0.433963
0.629135
1.6717
0.344738
0.345688
0.347127
0.348691
0.350512
0.35244
0.354547
0.356767
0.359146
0.361656
0.364328
0.367155
0.370161
0.373347
0.343969
0.34404
0.344503
0.345632
0.34782
0.351378
0.35653
0.363576
0.372805
0.384409
0.398411
0.414644
0.432427
0.450999
0.469286
0.486862
0.505445
0.524706
0.538881
0.546037
0.543352
0.531068
0.513021
0.49042
0.464955
0.438879
0.414995
0.396618
0.386818
0.386408
0.395553
0.433181
0.633161
1.68459
0.343962
0.344762
0.345771
0.347215
0.34879
0.350608
0.352538
0.354638
0.356854
0.359223
0.361725
0.364385
0.367199
0.370187
0.373356
0.344032
0.344496
0.345634
0.347843
0.35145
0.3567
0.363927
0.373473
0.385607
0.400458
0.417984
0.437624
0.458734
0.479704
0.499939
0.521768
0.545181
0.563859
0.575971
0.57983
0.572798
0.555808
0.53337
0.506825
0.477876
0.448753
0.422197
0.401424
0.38941
0.387149
0.394914
0.432569
0.637282
1.69681
0.344026
0.343973
0.344822
0.345855
0.347306
0.348892
0.350707
0.352638
0.354731
0.356944
0.359303
0.361796
0.364443
0.367242
0.370213
0.373365
0.344489
0.345635
0.347864
0.351516
0.356855
0.364247
0.374087
0.386716
0.402374
0.421147
0.442623
0.466359
0.490632
0.514306
0.539704
0.56758
0.590811
0.607541
0.616228
0.615609
0.603281
0.58095
0.553757
0.523068
0.490566
0.458399
0.429209
0.406099
0.39196
0.387912
0.394418
0.432101
0.641039
1.70811
0.344485
0.344014
0.344003
0.344882
0.345945
0.3474
0.348998
0.350809
0.352742
0.354828
0.357035
0.359385
0.361868
0.3645
0.367284
0.370239
0.373374
0.345635
0.347881
0.351577
0.356996
0.364541
0.37465
0.387741
0.404161
0.424129
0.447414
0.47379
0.501539
0.529709
0.559929
0.592959
0.621259
0.642757
0.65587
0.659573
0.653167
0.634553
0.606274
0.574014
0.539034
0.502944
0.467761
0.435997
0.410625
0.394452
0.388689
0.394042
0.431753
0.644882
1.71884
0.34564
0.344444
0.343987
0.344041
0.344946
0.346041
0.347499
0.349108
0.350915
0.352848
0.354927
0.35713
0.359469
0.36194
0.364556
0.367325
0.370263
0.373382
0.347896
0.35163
0.357125
0.364808
0.375167
0.388686
0.405821
0.426928
0.451979
0.480975
0.512286
0.545461
0.582174
0.622424
0.656949
0.684105
0.701879
0.709263
0.70606
0.692361
0.666406
0.631591
0.593999
0.554626
0.514947
0.476801
0.442537
0.414987
0.396872
0.389475
0.393761
0.431505
0.648331
1.72871
0.347917
0.345558
0.344354
0.343944
0.344093
0.345012
0.346142
0.347601
0.349222
0.351024
0.352958
0.35503
0.357226
0.359552
0.362009
0.364611
0.367365
0.370287
0.373391
0.351679
0.35724
0.365052
0.375639
0.389555
0.407358
0.429544
0.456302
0.48787
0.522826
0.561378
0.605338
0.655756
0.700148
0.735051
0.758742
0.76979
0.768452
0.755868
0.733103
0.698673
0.656748
0.613598
0.569773
0.526528
0.485488
0.44881
0.419174
0.399213
0.390259
0.393563
0.431339
0.65187
1.73812
0.351732
0.347769
0.345369
0.34426
0.343905
0.344155
0.345083
0.346248
0.347708
0.349338
0.351138
0.35307
0.355135
0.357321
0.359633
0.362077
0.364664
0.367403
0.370311
0.373399
0.357345
0.365272
0.376069
0.390352
0.408777
0.431981
0.460376
0.494449
0.533114
0.577308
0.628944
0.691686
0.752046
0.80095
0.833369
0.849014
0.84847
0.834238
0.809179
0.775321
0.731215
0.68162
0.632718
0.584418
0.537654
0.493801
0.454805
0.423179
0.401466
0.39104
0.393429
0.431242
0.655008
1.74564
0.357452
0.351501
0.347409
0.345172
0.344174
0.343873
0.344227
0.345158
0.346358
0.347819
0.349459
0.351255
0.353185
0.355239
0.357413
0.359712
0.362143
0.364715
0.367441
0.370333
0.373406
0.365472
0.376459
0.39108
0.410084
0.434243
0.464197
0.500695
0.543095
0.593048
0.652775
0.730387
0.812474
0.886032
0.93576
0.958381
0.958198
0.939314
0.907059
0.86602
0.818902
0.763901
0.706105
0.651288
0.59852
0.548302
0.50173
0.460515
0.426997
0.403627
0.391807
0.39335
0.431199
0.657798
1.75196
0.365669
0.357113
0.350908
0.347034
0.344992
0.344098
0.34385
0.344304
0.345239
0.346473
0.347935
0.349583
0.351375
0.353299
0.355341
0.357503
0.359789
0.362207
0.364765
0.367477
0.370355
0.373414
0.376817
0.391745
0.411284
0.436337
0.467769
0.506602
0.552711
0.608435
0.676844
0.77245
0.882107
0.989248
1.07127
1.11128
1.11273
1.087
1.04227
0.986664
0.926138
0.863647
0.796593
0.730115
0.669258
0.612051
0.55846
0.50927
0.46594
0.430628
0.405693
0.392562
0.393312
0.431204
0.660026
1.75878
0.377157
0.365192
0.356189
0.350292
0.346685
0.344827
0.344032
0.343837
0.344387
0.345328
0.346591
0.348056
0.34971
0.351495
0.35341
0.35544
0.357591
0.359864
0.362269
0.364814
0.367512
0.370377
0.373421
0.392357
0.412385
0.438272
0.471099
0.512165
0.561916
0.623377
0.701298
0.818058
0.960189
1.10752
1.23225
1.30941
1.32563
1.29375
1.23309
1.15572
1.07205
0.988968
0.909252
0.829139
0.753575
0.686588
0.624994
0.568124
0.51642
0.471078
0.434071
0.407663
0.393292
0.393312
0.431224
0.662583
1.76618
0.392926
0.376509
0.363806
0.355235
0.34971
0.346359
0.344674
0.343975
0.343835
0.344473
0.345424
0.346713
0.348182
0.349836
0.351613
0.353518
0.355537
0.357676
0.359937
0.362329
0.364862
0.367547
0.370397
0.373425
0.413404
0.440059
0.474194
0.517386
0.570679
0.637849
0.72624
0.866696
1.0443
1.23556
1.40914
1.53548
1.59205
1.571
1.49528
1.39216
1.27692
1.16166
1.05371
0.955336
0.861374
0.776415
0.703254
0.637341
0.577296
0.523186
0.475937
0.437331
0.409535
0.393912
0.393319
0.431277
0.665243
1.77421
0.414331
0.392072
0.374481
0.362383
0.354328
0.349159
0.346054
0.344533
0.34393
0.343845
0.344561
0.345529
0.346838
0.348309
0.349958
0.351728
0.353623
0.355631
0.357759
0.360007
0.362387
0.364908
0.36758
0.370408
0.373425
0.44172
0.477069
0.522273
0.57899
0.651857
0.751627
0.917334
1.13144
1.36768
1.59289
1.77497
1.88629
1.9079
1.83812
1.71036
1.55933
1.40278
1.25372
1.11942
1.00147
0.893122
0.798572
0.719237
0.649093
0.585982
0.529576
0.480521
0.44041
0.411077
0.394445
0.393338
0.431346
0.668334
1.78296
0.443206
0.413225
0.389157
0.372413
0.361027
0.353463
0.348631
0.345769
0.344403
0.343894
0.343872
0.34465
0.345643
0.346961
0.348435
0.350077
0.35184
0.353725
0.355723
0.357839
0.360076
0.362444
0.364952
0.367597
0.370408
0.373425
0.479755
0.526845
0.586857
0.665411
0.777282
0.968787
1.2189
1.49928
1.7763
2.01711
2.19104
2.27253
2.24665
2.11865
1.93263
1.73014
1.53036
1.34647
1.18519
1.0472
0.924214
0.819993
0.734527
0.660254
0.594193
0.5356
0.48484
0.44293
0.412387
0.395043
0.393371
0.431507
0.671544
1.79244
0.48212
0.441795
0.409088
0.386208
0.37044
0.359727
0.35263
0.348123
0.345505
0.344284
0.343863
0.343925
0.344739
0.345762
0.347082
0.348558
0.350194
0.351949
0.353825
0.355812
0.357917
0.360143
0.3625
0.364974
0.367597
0.370408
0.373425
0.531137
0.594308
0.678532
0.802956
1.01997
1.30464
1.62722
1.9545
2.25416
2.49454
2.64572
2.68417
2.5998
2.40573
2.15693
1.90088
1.6572
1.43838
1.25016
1.09214
0.95449
0.840629
0.749118
0.670833
0.601942
0.541271
0.488367
0.445065
0.413826
0.395706
0.393446
0.431646
0.675281
1.80279
0.534874
0.48035
0.43597
0.404942
0.383393
0.368543
0.358472
0.351827
0.347635
0.345257
0.344175
0.343823
0.343997
0.344829
0.345881
0.347201
0.348679
0.350308
0.352056
0.353922
0.355899
0.357993
0.360208
0.362527
0.364975
0.367597
0.370408
0.373425
0.601383
0.691244
0.82841
1.07002
1.38729
1.74952
2.12446
2.4811
2.78832
3.01433
3.12945
3.11281
2.96031
2.69388
2.37921
2.0687
1.78136
1.52823
1.31363
1.13592
0.98381
0.86044
0.763011
0.680844
0.609246
0.5459
0.491348
0.447396
0.415404
0.396458
0.393518
0.431956
0.679178
1.81398
0.607543
0.532649
0.472169
0.430189
0.40098
0.38068
0.366705
0.357256
0.351053
0.347171
0.345027
0.344078
0.343788
0.34408
0.344918
0.345999
0.347318
0.348797
0.350418
0.352159
0.354016
0.355983
0.358067
0.36024
0.362527
0.364975
0.367597
0.370408
0.373425
0.703548
0.853432
1.11832
1.46596
1.86508
2.28454
2.69492
3.06672
3.36845
3.56731
3.63392
3.55115
3.32227
2.9787
2.59643
2.23152
1.90142
1.61509
1.37502
1.17825
1.01206
0.879399
0.776213
0.690303
0.615214
0.549811
0.494599
0.449944
0.417139
0.397289
0.393675
0.4322
0.683723
1.82619
0.71436
0.604778
0.521064
0.464142
0.424664
0.397153
0.378045
0.364921
0.356081
0.35031
0.346735
0.344818
0.343992
0.343766
0.344167
0.345009
0.346116
0.347433
0.348912
0.350527
0.352261
0.354107
0.356066
0.358104
0.36024
0.362527
0.364974
0.367597
0.370408
0.373421
0.877782
1.16447
1.54019
1.97334
2.43391
2.89405
3.32633
3.70117
3.98553
4.14508
4.15142
3.9926
3.68062
3.25673
2.80631
2.38787
2.01641
1.69831
1.43394
1.21891
1.03914
0.897488
0.788731
0.698048
0.62026
0.554075
0.498144
0.45273
0.419047
0.398238
0.393814
0.4327
0.688508
1.83933
0.711018
0.899179
0.587733
0.509918
0.456466
0.419319
0.39343
0.375482
0.363192
0.354949
0.349602
0.346327
0.344628
0.343922
0.343758
0.344255
0.345102
0.34623
0.347546
0.349025
0.350633
0.352359
0.354197
0.356106
0.358103
0.36024
0.362527
0.364974
0.367597
0.370397
0.373414
1.2081
1.60979
2.07416
2.57234
3.07789
3.56544
4.00816
4.37518
4.63098
4.73958
4.67464
4.43119
4.03111
3.52527
3.00725
2.53678
2.12573
1.77746
1.4901
1.25775
1.065
0.914693
0.799015
0.704608
0.625767
0.558725
0.502014
0.455778
0.42115
0.399287
0.39408
0.433141
0.694075
1.85366
0.684274
0.896357
1.24564
0.571846
0.499279
0.449027
0.41411
0.389803
0.372994
0.361521
0.353863
0.348931
0.345951
0.344461
0.343868
0.343763
0.344342
0.345198
0.346342
0.347658
0.349134
0.350736
0.352455
0.354241
0.356106
0.358103
0.36024
0.362527
0.364974
0.36758
0.370376
0.373406
1.67457
2.16762
2.7
3.24647
3.78356
4.28736
4.73057
5.07988
5.29641
5.34285
5.19658
4.86153
4.37018
3.78226
3.19817
2.67769
2.22902
1.85232
1.54335
1.29466
1.0896
0.928862
0.807743
0.711778
0.63178
0.563799
0.506239
0.459115
0.423465
0.40049
0.394336
0.43388
0.700018
1.86899
0.659814
0.853215
1.24366
1.72968
0.556904
0.488951
0.441773
0.409032
0.386278
0.370585
0.359913
0.352825
0.348301
0.345614
0.344319
0.343829
0.343783
0.344426
0.345296
0.346451
0.347768
0.349241
0.350837
0.352502
0.354241
0.356106
0.358103
0.36024
0.362527
0.364952
0.367546
0.370355
0.373398
2.25376
2.8173
3.40036
3.9811
4.5384
5.04901
5.48414
5.80664
5.97351
5.94703
5.71063
5.2789
4.69497
4.02628
3.37844
2.81032
2.32614
1.92279
1.59361
1.32959
1.10983
0.940904
0.817305
0.719621
0.638348
0.569338
0.510853
0.46277
0.426023
0.401823
0.39475
0.434618
0.706894
1.88569
0.637248
0.812741
1.17961
1.72951
2.32665
0.542509
0.478866
0.434701
0.404092
0.382861
0.368261
0.35837
0.351844
0.347727
0.34532
0.344198
0.343801
0.343822
0.344507
0.345396
0.346557
0.347876
0.349346
0.350887
0.352501
0.35424
0.356106
0.358103
0.36024
0.362499
0.364907
0.367512
0.370333
0.37339
2.92453
3.54041
4.15917
4.76219
5.33027
5.84016
6.26001
6.54709
6.65396
6.54446
6.21071
5.67928
5.00335
4.2564
3.54774
2.93461
2.41712
1.98888
1.64086
1.35819
1.12701
0.954113
0.827787
0.728205
0.645528
0.575388
0.515895
0.466776
0.428842
0.403353
0.395187
0.435675
0.71437
1.90335
0.615972
0.774885
1.1168
1.64662
2.3294
3.01457
0.528508
0.469027
0.427824
0.399302
0.379563
0.366029
0.356908
0.350945
0.347214
0.34507
0.344095
0.343772
0.343877
0.344586
0.345496
0.346662
0.347984
0.349397
0.350886
0.352501
0.35424
0.356106
0.358103
0.360207
0.362443
0.36486
0.367476
0.37031
0.373382
3.66722
4.31924
4.96067
5.57597
6.14778
6.65151
7.04993
7.29295
7.32946
7.12776
6.69138
6.05946
5.29382
4.47213
3.70604
3.05068
2.50209
2.05068
1.67931
1.38239
1.14584
0.968608
0.839286
0.737608
0.653381
0.582
0.521407
0.471166
0.431963
0.405059
0.395802
0.436867
0.722945
1.92255
0.595693
0.739229
1.05546
1.56346
2.22961
3.02065
3.77233
0.514874
0.459457
0.421156
0.394675
0.37639
0.363907
0.355562
0.350138
0.346753
0.344852
0.344009
0.343745
0.343942
0.344663
0.345599
0.346767
0.348037
0.349395
0.350886
0.352501
0.35424
0.356106
0.358066
0.360141
0.362386
0.364812
0.367439
0.370286
0.373374
4.46245
5.13623
5.78917
6.40953
6.98089
7.47498
7.84617
8.03598
7.99173
7.68998
7.14805
6.41709
5.5655
4.67334
3.8535
3.15878
2.58124
2.10073
1.71173
1.4088
1.16645
0.98452
0.851908
0.747914
0.661976
0.589228
0.527436
0.475983
0.435408
0.407009
0.396522
0.438339
0.732464
1.94254
0.576288
0.705636
0.995426
1.48017
2.1286
2.90534
3.78078
4.5787
0.501624
0.450185
0.414718
0.390222
0.373373
0.361952
0.35435
0.349412
0.346345
0.344666
0.343937
0.343725
0.344012
0.344742
0.345705
0.346816
0.348035
0.349394
0.350886
0.352501
0.354241
0.356065
0.357991
0.360074
0.362326
0.364763
0.367402
0.370262
0.373365
5.29074
5.97357
6.62996
7.2517
7.82148
8.30367
8.64126
8.7677
8.63258
8.22495
7.57714
6.75062
5.81803
4.86021
3.99048
3.25921
2.64513
2.14279
1.74694
1.43759
1.18903
1.00199
0.865769
0.759217
0.671388
0.597135
0.534031
0.481268
0.439225
0.409209
0.397407
0.440216
0.743294
1.96803
0.557701
0.67412
0.936856
1.39641
2.02634
2.78838
3.6503
4.58688
5.41219
0.48879
0.44124
0.408527
0.385988
0.37059
0.360187
0.353258
0.348762
0.345985
0.344506
0.343877
0.343715
0.344087
0.344828
0.345756
0.346809
0.348035
0.349395
0.350886
0.352502
0.354196
0.355981
0.357915
0.360004
0.362266
0.364713
0.367363
0.370238
0.373356
6.13206
6.81452
7.47033
8.09389
8.66346
9.13144
9.42749
9.47935
9.24423
8.72747
7.97608
7.05926
6.05154
5.03317
4.11738
3.34006
2.6987
2.18832
1.78517
1.46898
1.21375
1.02117
0.880997
0.77162
0.6817
0.605789
0.541248
0.487068
0.443451
0.411695
0.39856
0.442187
0.757791
1.99752
0.539893
0.644712
0.880192
1.31216
1.92238
2.66952
3.51852
4.44028
5.41557
6.25163
0.476408
0.432654
0.402643
0.382084
0.368077
0.358595
0.352275
0.348182
0.34567
0.344367
0.343829
0.343719
0.344175
0.344863
0.345751
0.346808
0.348035
0.349395
0.350887
0.352454
0.354105
0.355896
0.357836
0.359933
0.362204
0.364662
0.367324
0.370213
0.373347
6.9675
7.64452
8.30077
8.9306
9.50219
9.95224
10.1966
10.162
9.81965
9.19351
8.34337
7.34299
6.26652
5.19277
4.21925
3.40772
2.75656
2.23759
1.82664
1.50315
1.24079
1.04223
0.897728
0.785236
0.693004
0.615263
0.549149
0.493438
0.448127
0.414554
0.399805
0.445363
0.776075
2.02611
0.522845
0.617385
0.826027
1.22771
1.81639
2.54823
3.38484
4.29372
5.25021
6.24433
7.0767
0.464522
0.424511
0.397221
0.378559
0.365809
0.35716
0.351392
0.347664
0.345392
0.344246
0.343799
0.34375
0.344217
0.344846
0.345752
0.346807
0.348034
0.349396
0.350836
0.352357
0.354013
0.355809
0.357755
0.35986
0.36214
0.364609
0.367283
0.370187
0.373337
7.78045
8.4527
9.116
9.75829
10.3338
10.7595
10.9393
10.8068
10.3528
9.62038
8.67862
7.60234
6.4637
5.32033
4.30432
3.48067
2.819
2.29082
1.87156
1.54031
1.27034
1.06532
0.91611
0.800186
0.7054
0.625638
0.557803
0.50043
0.453327
0.417725
0.401934
0.448805
0.797246
2.05312
0.506555
0.592043
0.774996
1.14364
1.70831
2.42393
3.24877
4.14617
5.0876
6.05519
7.0513
7.86857
0.453254
0.417025
0.39233
0.375379
0.363762
0.355867
0.3506
0.347201
0.345145
0.344152
0.343802
0.343752
0.344205
0.344842
0.345752
0.346808
0.348036
0.349344
0.350733
0.352257
0.353918
0.355719
0.357672
0.359785
0.362074
0.364554
0.367241
0.370161
0.373327
8.55818
9.23407
9.91138
10.5729
11.1545
11.5451
11.6463
11.4054
10.8391
10.0069
8.98229
7.83827
6.62027
5.4265
4.39578
3.55919
2.88629
2.34828
1.92015
1.58065
1.30259
1.09064
0.936294
0.8166
0.718995
0.637006
0.567278
0.508118
0.459063
0.42216
0.404304
0.454097
0.81976
2.07833
0.491139
0.568522
0.727696
1.06071
1.59828
2.29617
3.10947
3.9972
4.92603
5.87349
6.83126
7.81516
8.61324
0.442911
0.410288
0.387922
0.372511
0.361917
0.354704
0.349886
0.346785
0.344942
0.344107
0.34379
0.34372
0.344206
0.344842
0.34575
0.346814
0.347982
0.349238
0.350629
0.352155
0.35382
0.355627
0.357587
0.359709
0.362007
0.364499
0.367198
0.370134
0.373318
9.29214
9.97545
10.6759
11.3652
11.9572
12.3016
12.3064
11.9506
11.2759
10.3532
9.25557
8.0239
6.74993
5.54019
4.49394
3.6436
2.9587
2.41018
1.97262
1.62438
1.33772
1.11834
0.958435
0.834612
0.733903
0.649456
0.577664
0.516553
0.466674
0.427614
0.407956
0.458773
0.845434
2.10115
0.476978
0.546805
0.684618
0.979907
1.48664
2.16471
2.96614
3.84582
4.76521
5.6964
6.62562
7.55606
8.51478
9.30417
0.433629
0.404229
0.383951
0.369926
0.360254
0.353653
0.349242
0.34643
0.344817
0.344066
0.343751
0.343715
0.344206
0.344844
0.345753
0.346764
0.347872
0.34913
0.350522
0.352051
0.353721
0.355533
0.357499
0.35963
0.361938
0.364442
0.367154
0.370107
0.373308
9.98022
10.6876
11.4257
12.141
12.7332
13.015
12.9091
12.437
11.6625
10.6607
9.46799
8.17656
6.88796
5.66165
4.59907
3.73414
3.03647
2.47675
2.02916
1.67166
1.37589
1.14858
0.982686
0.854359
0.750237
0.6631
0.589033
0.527564
0.476082
0.433998
0.411162
0.465998
0.87323
2.12144
0.464247
0.527204
0.645877
0.902449
1.37398
2.02949
2.81807
3.69088
4.60402
5.52369
6.43005
7.32014
8.20898
9.13144
9.9254
0.425311
0.398782
0.380375
0.367597
0.358752
0.352702
0.348685
0.346179
0.34473
0.344014
0.343748
0.343714
0.344203
0.344858
0.3457
0.346657
0.347762
0.349019
0.350413
0.351944
0.353619
0.355436
0.35741
0.359549
0.361867
0.364384
0.367111
0.370081
0.373299
10.6152
11.3676
12.1637
12.904
13.4777
13.6722
13.4453
12.8618
11.9999
10.8958
9.64105
8.33771
7.03435
5.79101
4.71138
3.83106
3.11981
2.54817
2.08993
1.72263
1.41725
1.18152
1.00919
0.875968
0.768129
0.678023
0.603806
0.541114
0.486257
0.440496
0.416039
0.47297
0.904118
2.13852
0.452831
0.5097
0.612547
0.830536
1.26124
1.89059
2.66463
3.53118
4.441
5.35406
6.24421
7.10189
7.93577
8.77161
9.65892
10.4682
0.417863
0.393886
0.377158
0.365493
0.357391
0.351873
0.348275
0.346017
0.344657
0.344011
0.343747
0.343715
0.344211
0.344821
0.345591
0.346551
0.347651
0.348906
0.350302
0.351835
0.353514
0.355337
0.357318
0.359467
0.361794
0.364326
0.367069
0.370056
0.37329
11.197
12.0211
12.8921
13.6537
14.1803
14.2594
13.9081
13.2251
12.2526
11.085
9.82166
8.50694
7.18898
5.92829
4.831
3.93451
3.20889
2.62459
2.15506
1.77741
1.46191
1.21727
1.03805
0.899565
0.787657
0.697381
0.621928
0.555394
0.496858
0.448128
0.420564
0.482498
0.938596
2.15174
0.442619
0.493979
0.584402
0.766878
1.1506
1.74834
2.5053
3.3655
4.27452
5.18577
6.06644
6.90057
7.68985
8.45403
9.23046
10.0877
10.931
0.411196
0.389488
0.374257
0.36359
0.3562
0.351246
0.348021
0.345913
0.344654
0.344009
0.343746
0.343743
0.344167
0.344733
0.345488
0.346443
0.347539
0.34879
0.350188
0.351723
0.353406
0.355236
0.357223
0.359383
0.361722
0.364271
0.367028
0.370032
0.373282
11.7302
12.6586
13.6145
14.3769
14.8241
14.7628
14.2948
13.4896
12.4524
11.2794
10.0087
8.68357
7.35146
6.07339
4.95794
4.04457
3.30381
2.70611
2.22462
1.83604
1.50991
1.25588
1.06937
0.925208
0.812908
0.721021
0.640816
0.570262
0.508338
0.455955
0.426694
0.493321
0.976213
2.16046
0.433507
0.479829
0.56036
0.712826
1.04658
1.6044
2.33968
3.19257
4.10275
5.01679
5.89467
6.71393
7.46999
8.17536
8.85985
9.57433
10.4041
11.3108
0.405229
0.385529
0.371635
0.361919
0.355281
0.350869
0.347884
0.345909
0.344653
0.344007
0.343779
0.343736
0.344076
0.344652
0.345385
0.346332
0.347424
0.348672
0.350072
0.351608
0.353296
0.355133
0.357127
0.3593
0.361653
0.364217
0.366988
0.370008
0.373273
12.2243
13.2941
14.3306
15.0574
15.3845
15.174
14.5656
13.6937
12.6532
11.4769
10.2008
8.86658
7.52117
6.22597
5.09207
4.16122
3.40458
2.79273
2.2986
1.89852
1.56125
1.29738
1.10314
0.958172
0.843491
0.745421
0.660355
0.585881
0.5203
0.4649
0.433256
0.505783
1.01832
2.16614
0.425388
0.467104
0.539546
0.667612
0.952455
1.46374
2.1689
3.01116
3.92368
4.84479
5.72653
6.5394
7.27295
7.9337
8.54342
9.14101
9.79133
10.5928
11.6049
0.399876
0.38196
0.36933
0.360611
0.354738
0.35069
0.34788
0.345906
0.344649
0.344052
0.343786
0.343702
0.343998
0.344573
0.345283
0.346219
0.347309
0.348551
0.349953
0.351491
0.353183
0.355028
0.357032
0.359219
0.361585
0.364164
0.366949
0.369985
0.373265
12.6964
13.9379
15.0371
15.6826
15.8314
15.4467