/*--------------------------------*- C++ -*----------------------------------*\
  =========                 |
  \\      /  F ield         | OpenFOAM: The Open Source CFD Toolbox
   \\    /   O peration     | Website:  https://openfoam.org
    \\  /    A nd           | Version:  8
     \\/     M anipulation  |
\*---------------------------------------------------------------------------*/
FoamFile
{
    version     2.0;
    format      ascii;
    class       surfaceScalarField;
    location    "0.2";
    object      phi;
}
// * * * * * * * * * * * * * * * * * * * * * * * * * * * * * * * * * * * * * //

dimensions      [0 3 -1 0 0 0 0];

internalField   nonuniform List<scalar> 
31053
(
6.27591e-07
1.27524e-05
8.49362e-07
1.51582e-05
3.75858e-07
1.23766e-05
9.31935e-07
1.75574e-05
5.87946e-07
1.49461e-05
2.69026e-07
1.21075e-05
9.5544e-07
2.02165e-05
7.05643e-07
1.74397e-05
4.6352e-07
1.47516e-05
2.15483e-07
1.1892e-05
9.4628e-07
2.32492e-05
7.64638e-07
2.01575e-05
5.8823e-07
1.7315e-05
3.94989e-07
1.45721e-05
1.72094e-07
1.17199e-05
9.1615e-07
2.66901e-05
7.8912e-07
2.32247e-05
6.62491e-07
2.00832e-05
5.21756e-07
1.71883e-05
3.32344e-07
1.44119e-05
1.37658e-07
1.15823e-05
8.70545e-07
3.06656e-05
7.91277e-07
2.6688e-05
7.03619e-07
2.31835e-05
6.02162e-07
2.00028e-05
4.54089e-07
1.70665e-05
2.77895e-07
1.42717e-05
1.10697e-07
1.14716e-05
8.1296e-07
3.51976e-05
7.78003e-07
3.06789e-05
7.22458e-07
2.66691e-05
6.49625e-07
2.31361e-05
5.34584e-07
1.99223e-05
3.90427e-07
1.6954e-05
2.31232e-07
1.41511e-05
8.84788e-08
1.13831e-05
7.4612e-07
4.03868e-05
7.52982e-07
3.52226e-05
7.25292e-07
3.0676e-05
6.74146e-07
2.66446e-05
5.82838e-07
2.30878e-05
4.6712e-07
1.98456e-05
3.32247e-07
1.6853e-05
1.8968e-07
1.40499e-05
6.90737e-08
1.1314e-05
6.71781e-07
4.63543e-05
7.18261e-07
4.04216e-05
7.1524e-07
3.52327e-05
6.8165e-07
3.06685e-05
6.07858e-07
2.66196e-05
5.12834e-07
2.30421e-05
4.02461e-07
1.97754e-05
2.77317e-07
1.67653e-05
1.51293e-07
1.39677e-05
5.1325e-08
1.12627e-05
5.91679e-07
5.32201e-05
6.75816e-07
4.63968e-05
6.93643e-07
4.04432e-05
6.75727e-07
3.52386e-05
6.15604e-07
3.06608e-05
5.35197e-07
2.65972e-05
4.432e-07
2.30014e-05
3.38654e-07
1.97141e-05
2.24038e-07
1.66926e-05
1.14794e-07
1.39042e-05
3.44688e-08
1.12282e-05
5.07695e-07
6.1064e-05
6.27222e-07
5.32687e-05
6.6175e-07
4.64287e-05
6.58576e-07
4.04603e-05
6.09592e-07
3.52446e-05
5.39983e-07
3.0656e-05
4.60539e-07
2.65799e-05
3.72127e-07
2.29679e-05
2.74298e-07
1.96638e-05
1.71352e-07
1.6636e-05
7.92557e-08
1.38594e-05
1.80024e-08
1.12102e-05
4.22207e-07
7.00675e-05
5.73992e-07
6.11172e-05
6.20608e-07
5.33098e-05
6.30861e-07
4.64564e-05
5.91891e-07
4.0478e-05
5.30661e-07
3.52539e-05
4.59841e-07
3.06567e-05
3.82161e-07
2.65699e-05
2.98252e-07
2.2944e-05
2.08449e-07
1.96267e-05
1.18472e-07
1.65968e-05
4.40086e-08
1.38334e-05
1.74717e-09
1.12085e-05
3.38859e-07
8.04153e-05
5.17228e-07
7.01243e-05
5.71407e-07
6.11664e-05
5.9292e-07
5.33478e-05
5.63483e-07
4.64848e-05
5.09157e-07
4.04995e-05
4.44462e-07
3.52693e-05
3.73542e-07
3.06653e-05
2.98708e-07
2.65694e-05
2.20648e-07
2.29318e-05
1.40437e-07
1.96048e-05
6.4813e-08
1.6576e-05
8.666e-09
1.38265e-05
-1.45161e-08
1.1223e-05
2.74691e-07
7.62542e-05
4.56999e-07
8.04756e-05
5.15502e-07
7.01802e-05
5.4512e-07
6.12142e-05
5.24705e-07
5.33866e-05
4.76404e-07
4.65176e-05
4.16233e-07
4.05277e-05
3.49456e-07
3.52934e-05
2.79757e-07
3.06843e-05
2.09234e-07
2.65808e-05
1.38655e-07
2.29335e-05
6.97862e-08
1.95998e-05
1.00518e-08
1.65746e-05
-2.69441e-08
1.38389e-05
-3.0934e-08
1.12539e-05
2.22941e-07
7.62418e-05
4.0295e-07
7.63082e-05
4.54248e-07
8.05368e-05
4.88066e-07
7.02372e-05
4.75703e-07
6.12632e-05
4.32727e-07
5.34302e-05
3.75991e-07
4.65578e-05
3.11625e-07
4.05656e-05
2.44322e-07
3.53288e-05
1.77511e-07
3.0716e-05
1.13029e-07
2.66064e-05
5.18213e-08
2.29515e-05
-3.72632e-09
1.96136e-05
-4.59493e-08
1.65936e-05
-6.2976e-08
1.3871e-05
-4.75112e-08
1.13015e-05
1.81486e-07
7.62315e-05
3.52357e-07
7.62923e-05
3.99556e-07
7.63629e-05
4.22842e-07
8.06021e-05
4.16709e-07
7.02962e-05
3.78224e-07
6.13177e-05
3.23985e-07
5.34822e-05
2.60773e-07
4.66086e-05
1.93966e-07
4.06159e-05
1.28059e-07
3.53783e-05
6.60241e-08
3.0763e-05
9.65681e-09
2.66486e-05
-3.99789e-08
2.29878e-05
-8.00053e-08
1.96476e-05
-1.03083e-07
1.66337e-05
-9.93e-08
1.39228e-05
-6.40672e-08
1.13655e-05
1.48089e-07
7.62254e-05
3.05365e-07
7.62784e-05
3.48292e-07
7.63436e-05
3.63448e-07
7.64223e-05
3.48342e-07
8.06704e-05
3.13034e-07
7.03614e-05
2.60254e-07
6.13815e-05
1.97051e-07
5.3546e-05
1.29267e-07
4.66733e-05
6.2207e-08
4.06818e-05
-2.04841e-10
3.54445e-05
-5.51142e-08
3.08278e-05
-1.00964e-07
2.67096e-05
-1.36493e-07
2.30442e-05
-1.58753e-07
1.97033e-05
-1.61038e-07
1.66955e-05
-1.35638e-07
1.39943e-05
-8.04693e-08
1.1446e-05
1.20899e-07
7.62172e-05
2.62165e-07
7.62686e-05
3.00467e-07
7.63263e-05
3.07164e-07
7.63999e-05
2.84994e-07
7.64857e-05
2.377e-07
8.07458e-05
1.84872e-07
7.04368e-05
1.20442e-07
6.14581e-05
5.0252e-08
5.3625e-05
-1.96484e-08
4.67552e-05
-8.45837e-08
4.07662e-05
-1.40841e-07
3.55302e-05
-1.85992e-07
3.09128e-05
-2.18444e-07
2.67915e-05
-2.37172e-07
2.31227e-05
-2.39326e-07
1.97816e-05
-2.1928e-07
1.67791e-05
-1.71624e-07
1.40855e-05
-9.64596e-08
1.15425e-05
9.85634e-08
7.62123e-05
2.22805e-07
7.62566e-05
2.56082e-07
7.6313e-05
2.54383e-07
7.63791e-05
2.24341e-07
7.64605e-05
1.67927e-07
7.65554e-05
9.8386e-08
8.08322e-05
3.10088e-08
7.05262e-05
-4.31577e-08
6.15515e-05
-1.17646e-07
5.3723e-05
-1.86999e-07
4.68576e-05
-2.46844e-07
4.08722e-05
-2.9396e-07
3.56382e-05
-3.26024e-07
3.10204e-05
-3.41993e-07
2.68964e-05
-3.41061e-07
2.32244e-05
-3.20834e-07
1.98831e-05
-2.77145e-07
1.68846e-05
-2.06771e-07
1.41958e-05
-1.11849e-07
1.16543e-05
8.00872e-08
7.62085e-05
1.87144e-07
7.6248e-05
2.15093e-07
7.62975e-05
2.05343e-07
7.6362e-05
1.6715e-07
7.64362e-05
1.01226e-07
7.65272e-05
1.87442e-08
7.66351e-05
-7.06655e-08
8.09339e-05
-1.50899e-07
7.0634e-05
-2.3195e-07
6.16658e-05
-3.07796e-07
5.38438e-05
-3.73277e-07
4.6984e-05
-4.2459e-07
4.10028e-05
-4.58747e-07
3.57709e-05
-4.7421e-07
3.11526e-05
-4.70345e-07
2.70256e-05
-4.46855e-07
2.33504e-05
-4.02226e-07
2.00082e-05
-3.33828e-07
1.70117e-05
-2.40584e-07
1.43245e-05
-1.26319e-07
1.17806e-05
6.59142e-08
6.95962e-05
1.54983e-07
7.62406e-05
1.7743e-07
7.62857e-05
1.60159e-07
7.63427e-05
1.13913e-07
7.64153e-05
3.85592e-08
7.64989e-05
-5.70067e-08
7.6603e-05
-1.63672e-07
7.67281e-05
-2.72223e-07
8.10552e-05
-3.62475e-07
7.07645e-05
-4.47246e-07
6.18052e-05
-5.20737e-07
5.39912e-05
-5.78416e-07
4.71379e-05
-6.16829e-07
4.11609e-05
-6.33996e-07
3.59307e-05
-6.28959e-07
3.13112e-05
-6.01768e-07
2.71806e-05
-5.53072e-07
2.35013e-05
-4.82281e-07
2.01567e-05
-3.8847e-07
1.71596e-05
-2.72456e-07
1.44707e-05
-1.39671e-07
1.19203e-05
5.4963e-08
6.2555e-05
1.28596e-07
6.96226e-05
1.43007e-07
7.62751e-05
1.18847e-07
7.6327e-05
6.49404e-08
7.63917e-05
-1.94342e-08
7.64733e-05
-1.27715e-07
7.65696e-05
-2.51604e-07
7.66909e-05
-3.82423e-07
7.68383e-05
-5.08295e-07
8.12011e-05
-6.05266e-07
7.09225e-05
-6.89649e-07
6.19741e-05
-7.56353e-07
5.41692e-05
-8.0124e-07
4.73223e-05
-8.22122e-07
4.1349e-05
-8.17765e-07
3.61195e-05
-7.88094e-07
3.14975e-05
-7.34331e-07
2.73618e-05
-6.58002e-07
2.3677e-05
-5.59702e-07
2.03279e-05
-4.401e-07
1.73272e-05
-3.01891e-07
1.46329e-05
-1.51522e-07
1.20718e-05
4.6328e-08
5.62266e-05
1.07209e-07
6.25763e-05
1.14212e-07
6.96514e-05
8.13665e-08
7.63125e-05
2.041e-08
7.63715e-05
-7.23241e-08
7.64446e-05
-1.9257e-07
7.65381e-05
-3.33133e-07
7.66511e-05
-4.85997e-07
7.67945e-05
-6.39928e-07
7.69699e-05
-7.8071e-07
8.13765e-05
-8.79947e-07
7.11128e-05
-9.5902e-07
6.21768e-05
-1.01327e-06
5.43812e-05
-1.04006e-06
4.75402e-05
-1.03815e-06
4.15694e-05
-1.0074e-06
3.63388e-05
-9.49206e-07
3.17124e-05
-8.6579e-07
2.75696e-05
-7.59846e-07
2.38771e-05
-6.33072e-07
2.05209e-05
-4.87867e-07
1.75132e-05
-3.28033e-07
1.48094e-05
-1.61274e-07
1.22331e-05
3.94044e-08
5.05389e-05
8.97616e-08
5.62441e-05
9.04162e-08
6.26001e-05
5.0413e-08
6.96823e-05
-1.95813e-08
7.63525e-05
-1.19821e-07
7.6419e-05
-2.51001e-07
7.6503e-05
-4.07267e-07
7.66122e-05
-5.81422e-07
7.67466e-05
-7.6299e-07
7.69176e-05
-9.38313e-07
7.71275e-05
-1.09026e-06
8.15868e-05
-1.18641e-06
7.13402e-05
-1.25378e-06
6.24173e-05
-1.28954e-06
5.46307e-05
-1.29215e-06
4.77942e-05
-1.26174e-06
4.18237e-05
-1.19998e-06
3.65896e-05
-1.10949e-06
3.19561e-05
-9.93819e-07
2.78036e-05
-8.56676e-07
2.41007e-05
-7.01116e-07
2.07341e-05
-5.30454e-07
1.77156e-05
-3.50157e-07
1.49983e-05
-1.66737e-07
1.23998e-05
3.37694e-08
4.54256e-05
7.54451e-08
5.05532e-05
7.06814e-08
5.62638e-05
2.5203e-08
6.26253e-05
-5.20813e-08
6.97148e-05
-1.6174e-07
7.63945e-05
-3.02621e-07
7.64706e-05
-4.7327e-07
7.6569e-05
-6.675e-07
7.66983e-05
-8.75745e-07
7.68593e-05
-1.08505e-06
7.70643e-05
-1.27853e-06
7.73158e-05
-1.43692e-06
8.18373e-05
-1.52288e-06
7.16093e-05
-1.57175e-06
6.26995e-05
-1.58201e-06
5.49205e-05
-1.55377e-06
4.80863e-05
-1.48943e-06
4.21132e-05
-1.39212e-06
3.68722e-05
-1.26606e-06
3.22284e-05
-1.11592e-06
2.80628e-05
-9.46722e-07
2.43463e-05
-7.62075e-07
2.09658e-05
-5.66982e-07
1.79324e-05
-3.64113e-07
1.51957e-05
-1.34935e-07
1.25348e-05
2.91241e-08
4.08306e-05
6.364e-08
4.54374e-05
5.42796e-08
5.05696e-05
4.62384e-09
5.62844e-05
-7.80138e-08
6.26513e-05
-1.9506e-07
6.97481e-05
-3.47171e-07
7.6439e-05
-5.30617e-07
7.6528e-05
-7.43306e-07
7.66448e-05
-9.76771e-07
7.67993e-05
-1.21893e-06
7.69932e-05
-1.45331e-06
7.72391e-05
-1.66068e-06
7.75395e-05
-1.81879e-06
8.21332e-05
-1.88696e-06
7.19245e-05
-1.90932e-06
6.30268e-05
-1.88636e-06
5.52531e-05
-1.82091e-06
4.84177e-05
-1.71718e-06
4.24382e-05
-1.58029e-06
3.71865e-05
-1.41577e-06
3.25282e-05
-1.22976e-06
2.83459e-05
-1.02777e-06
2.4612e-05
-8.14591e-07
2.12134e-05
-5.92086e-07
1.81604e-05
-3.5659e-07
1.54173e-05
-8.55471e-08
1.26203e-05
2.52557e-08
3.66999e-05
5.38442e-08
4.08404e-05
4.06354e-08
4.54511e-05
-1.22481e-08
5.05865e-05
-9.8691e-08
5.63051e-05
-2.20936e-07
6.26772e-05
-3.81546e-07
6.97825e-05
-5.7894e-07
7.64873e-05
-8.08156e-07
7.65928e-05
-1.06493e-06
7.6733e-05
-1.33827e-06
7.69187e-05
-1.61234e-06
7.71522e-05
-1.86807e-06
7.74465e-05
-2.0828e-06
7.78035e-05
-2.23327e-06
8.24795e-05
-2.27461e-06
7.22898e-05
-2.26158e-06
6.34021e-05
-2.19796e-06
5.56302e-05
-2.08878e-06
4.87893e-05
-1.94076e-06
4.27987e-05
-1.76065e-06
3.75313e-05
-1.55572e-06
3.28542e-05
-1.33268e-06
2.86508e-05
-1.09792e-06
2.48954e-05
-8.53634e-07
2.14749e-05
-6.0031e-07
1.84041e-05
-3.29786e-07
1.56616e-05
-6.16915e-08
1.2682e-05
2.2007e-08
3.29892e-05
4.56596e-08
3.67081e-05
2.92452e-08
4.08518e-05
-2.61517e-08
4.5465e-05
-1.15177e-07
5.0603e-05
-2.40902e-07
5.6325e-05
-4.07245e-07
6.27029e-05
-6.14978e-07
6.98185e-05
-8.61553e-07
7.65407e-05
-1.13936e-06
7.66672e-05
-1.44171e-06
7.68364e-05
-1.75363e-06
7.706e-05
-2.05648e-06
7.73406e-05
-2.32736e-06
7.7691e-05
-2.54222e-06
7.81125e-05
-2.67598e-06
8.28809e-05
-2.68031e-06
7.27085e-05
-2.62318e-06
6.38273e-05
-2.51116e-06
5.60526e-05
-2.35238e-06
4.9201e-05
-2.15561e-06
4.31937e-05
-1.92973e-06
3.79053e-05
-1.68279e-06
3.32043e-05
-1.42229e-06
2.89751e-05
-1.15292e-06
2.51946e-05
-8.75908e-07
2.17505e-05
-5.95871e-07
1.86702e-05
-3.04549e-07
1.59044e-05
-5.61491e-08
1.27382e-05
1.92591e-08
2.96507e-05
3.87766e-08
3.29961e-05
1.96825e-08
3.67176e-05
-3.76316e-08
4.08633e-05
-1.28335e-07
4.54781e-05
-2.56206e-07
5.06183e-05
-4.2613e-07
5.63439e-05
-6.40685e-07
6.27286e-05
-9.00017e-07
6.9857e-05
-1.19939e-06
7.66008e-05
-1.52814e-06
7.67537e-05
-1.87551e-06
7.69583e-05
-2.22361e-06
7.72271e-05
-2.5495e-06
7.75628e-05
-2.82855e-06
7.79774e-05
-3.03436e-06
7.84709e-05
-3.14071e-06
8.33413e-05
-3.09794e-06
7.31833e-05
-2.98763e-06
6.43037e-05
-2.82021e-06
5.65204e-05
-2.60639e-06
4.96517e-05
-2.35764e-06
4.36216e-05
-2.08391e-06
3.83065e-05
-1.79417e-06
3.35762e-05
-1.495e-06
2.93172e-05
-1.19026e-06
2.5509e-05
-8.8612e-07
2.20408e-05
-5.86261e-07
1.89519e-05
-2.90419e-07
1.61387e-05
-6.02405e-08
1.27984e-05
1.69198e-08
2.66503e-05
3.2955e-08
2.96566e-05
1.1608e-08
3.30042e-05
-4.7116e-08
3.67271e-05
-1.38845e-07
4.08738e-05
-2.6785e-07
4.54898e-05
-4.39707e-07
5.06319e-05
-6.58361e-07
5.63616e-05
-9.26061e-07
6.27546e-05
-1.24126e-06
6.98989e-05
-1.59672e-06
7.66693e-05
-1.97664e-06
7.68548e-05
-2.36744e-06
7.71021e-05
-2.7465e-06
7.74241e-05
-3.08886e-06
7.78231e-05
-3.36694e-06
7.831e-05
-3.55242e-06
7.88826e-05
-3.62069e-06
8.38641e-05
-3.52022e-06
7.37159e-05
-3.34839e-06
6.48319e-05
-3.11898e-06
5.7033e-05
-2.84608e-06
5.01402e-05
-2.54268e-06
4.40803e-05
-2.21997e-06
3.87323e-05
-1.88668e-06
3.39678e-05
-1.54877e-06
2.96757e-05
-1.21375e-06
2.58366e-05
-8.89817e-07
2.23443e-05
-5.78731e-07
1.92402e-05
-2.86496e-07
1.6365e-05
-8.23687e-08
1.28808e-05
1.49172e-08
2.3956e-05
2.80047e-08
2.66553e-05
4.75773e-09
2.96634e-05
-5.49653e-08
3.30121e-05
-1.47243e-07
3.67355e-05
-2.76634e-07
4.08826e-05
-4.49186e-07
4.54993e-05
-6.69865e-07
5.06434e-05
-9.42531e-07
5.63781e-05
-1.26813e-06
6.27815e-05
-1.64323e-06
6.99454e-05
-2.05594e-06
7.67486e-05
-2.4863e-06
7.69737e-05
-2.91596e-06
7.72716e-05
-3.32e-06
7.76552e-05
-3.66983e-06
7.8126e-05
-3.93532e-06
7.86929e-05
-4.08919e-06
7.93511e-05
-4.10784e-06
8.44517e-05
-3.93975e-06
7.43072e-05
-3.69839e-06
6.54113e-05
-3.40194e-06
5.75888e-05
-3.06657e-06
5.06641e-05
-2.70705e-06
4.45674e-05
-2.33491e-06
3.91805e-05
-1.95856e-06
3.43776e-05
-1.58643e-06
3.00484e-05
-1.22855e-06
2.61753e-05
-8.91932e-07
2.26575e-05
-5.75043e-07
1.95288e-05
-3.5311e-07
1.66357e-05
-9.07215e-08
1.29715e-05
1.31961e-08
2.15337e-05
2.37729e-08
2.39602e-05
-1.0777e-09
2.66611e-05
-6.14804e-08
2.96699e-05
-1.53953e-07
3.30188e-05
-2.83188e-07
3.67421e-05
-4.55526e-07
4.08889e-05
-6.76684e-07
4.55061e-05
-9.51725e-07
5.06526e-05
-1.28352e-06
5.63935e-05
-1.67163e-06
6.28099e-05
-2.1086e-06
6.9998e-05
-2.57885e-06
7.68412e-05
-3.05586e-06
7.71136e-05
-3.51911e-06
7.74707e-05
-3.93941e-06
7.79248e-05
-4.28502e-06
7.84757e-05
-4.52618e-06
7.91298e-05
-4.63601e-06
7.98793e-05
-4.59385e-06
8.51058e-05
-4.34838e-06
7.49572e-05
-4.0312e-06
6.60406e-05
-3.66344e-06
5.81857e-05
-3.2637e-06
5.12207e-05
-2.84774e-06
4.50802e-05
-2.42709e-06
3.9649e-05
-2.01181e-06
3.4803e-05
-1.61245e-06
3.04323e-05
-1.2386e-06
2.6522e-05
-8.93171e-07
2.29756e-05
-7.0644e-07
1.98821e-05
-3.52114e-07
1.68971e-05
-9.95061e-08
1.3071e-05
1.17115e-08
1.93535e-05
2.01394e-08
2.15374e-05
-6.06816e-09
2.39652e-05
-6.69087e-08
2.66666e-05
-1.59313e-07
2.96753e-05
-2.88007e-07
3.30236e-05
-4.59485e-07
3.6746e-05
-6.79992e-07
4.08923e-05
-9.55477e-07
4.55098e-05
-1.29026e-06
5.06593e-05
-1.68623e-06
5.64081e-05
-2.13946e-06
6.28407e-05
-2.63946e-06
7.00587e-05
-3.16449e-06
7.69498e-05
-3.68372e-06
7.72782e-05
-4.17233e-06
7.77036e-05
-4.59733e-06
7.82371e-05
-4.92674e-06
7.88762e-05
-5.13036e-06
7.96242e-05
-5.18374e-06
8.04692e-05
-5.06942e-06
8.58268e-05
-4.73873e-06
7.56648e-05
-4.34033e-06
6.67175e-05
-3.89875e-06
5.88207e-05
-3.43426e-06
5.18072e-05
-2.96303e-06
4.56162e-05
-2.49773e-06
4.01349e-05
-2.05e-06
3.52406e-05
-1.63e-06
3.08237e-05
-1.24442e-06
2.68733e-05
-1.10146e-06
2.33707e-05
-6.96948e-07
2.0227e-05
-3.51136e-07
1.71487e-05
-1.06295e-07
1.31773e-05
1.73973e-05
1.04276e-08
1.70092e-08
1.93566e-05
-1.03537e-08
2.15416e-05
-7.14494e-08
2.39698e-05
-1.63597e-07
2.66708e-05
-2.91483e-07
2.96788e-05
-4.61656e-07
3.30258e-05
-6.80711e-07
3.67467e-05
-9.55232e-07
4.0892e-05
-1.2906e-06
4.55102e-05
-1.69048e-06
5.06636e-05
-2.15373e-06
5.64223e-05
-2.67398e-06
6.28753e-05
-3.2352e-06
7.01294e-05
-3.8117e-06
7.70778e-05
-4.36559e-06
7.74714e-05
-4.86834e-06
7.79746e-05
-5.28607e-06
7.85965e-05
-5.58544e-06
7.93313e-05
-5.73809e-06
8.01785e-05
-5.72217e-06
8.11219e-05
-5.52619e-06
8.66143e-05
-5.10335e-06
7.64278e-05
-4.62033e-06
6.74391e-05
-4.10422e-06
5.94907e-05
-3.5762e-06
5.24204e-05
-3.05339e-06
4.61718e-05
-2.54951e-06
4.06345e-05
-2.07564e-06
3.56862e-05
-1.63973e-06
3.1219e-05
-1.5379e-06
2.73097e-05
-1.08663e-06
2.37603e-05
-6.84869e-07
2.05607e-05
-3.48166e-07
1.73906e-05
-1.10611e-07
1.32879e-05
1.74e-05
1.42971e-08
2.7812e-05
8.45605e-09
-1.40486e-08
1.93603e-05
-7.52631e-08
2.15455e-05
-1.67022e-07
2.39732e-05
-2.93924e-07
2.66733e-05
-4.62501e-07
2.96796e-05
-6.7956e-07
3.30246e-05
-9.52118e-07
3.67436e-05
-1.28632e-06
4.08877e-05
-1.68715e-06
4.55069e-05
-2.15562e-06
5.06655e-05
-2.68863e-06
5.6437e-05
-3.27488e-06
6.29149e-05
-3.89508e-06
7.02127e-05
-4.51658e-06
7.72288e-05
-5.09447e-06
7.76976e-05
-5.59962e-06
7.82882e-05
-5.99585e-06
7.90069e-05
-6.2509e-06
7.98441e-05
-6.33836e-06
8.07947e-05
-6.24206e-06
8.18378e-05
-5.95557e-06
8.74665e-05
-5.4359e-06
7.72434e-05
-4.86691e-06
6.82017e-05
-4.27733e-06
6.01918e-05
-3.68932e-06
5.30564e-05
-3.12067e-06
4.6743e-05
-2.58436e-06
4.11432e-05
-2.0895e-06
3.6136e-05
-2.02778e-06
3.17089e-05
-1.51862e-06
2.77417e-05
-1.06498e-06
2.41404e-05
-6.6918e-07
2.08817e-05
-3.42388e-07
1.76224e-05
-1.12556e-07
1.34004e-05
1.74032e-05
-1.72418e-08
2.78161e-05
1.01834e-08
2.85519e-05
6.57543e-09
-7.8479e-08
1.93635e-05
-1.69763e-07
2.15482e-05
-2.95573e-07
2.39748e-05
-4.62377e-07
2.66732e-05
-6.77092e-07
2.96771e-05
-9.47008e-07
3.30195e-05
-1.2788e-06
3.67361e-05
-1.67841e-06
4.0879e-05
-2.14848e-06
4.54997e-05
-2.68847e-06
5.06653e-05
-3.2909e-06
5.6453e-05
-3.94183e-06
6.29617e-05
-4.61561e-06
7.03118e-05
-5.27251e-06
7.74068e-05
-5.86314e-06
7.79611e-05
-6.35633e-06
7.86487e-05
-6.71615e-06
7.94721e-05
-6.91148e-06
8.04172e-05
-6.92116e-06
8.14738e-05
-6.73381e-06
8.2616e-05
-6.35016e-06
8.83807e-05
-5.73124e-06
7.81077e-05
-5.07686e-06
6.90013e-05
-4.41714e-06
6.09197e-05
-3.77469e-06
5.37104e-05
-3.16632e-06
4.7325e-05
-2.60315e-06
4.16568e-05
-2.58472e-06
3.66929e-05
-2.00303e-06
3.21933e-05
-1.48798e-06
2.81647e-05
-1.03674e-06
2.4508e-05
-6.49519e-07
2.11888e-05
-3.33822e-07
1.78436e-05
-1.12424e-07
1.35129e-05
1.74059e-05
-8.1204e-08
2.78202e-05
-2.13647e-08
2.85558e-05
6.23584e-09
2.93118e-05
4.78749e-09
-1.71956e-07
1.93657e-05
-2.9662e-07
2.15492e-05
-4.61561e-07
2.3974e-05
-6.7373e-07
2.66698e-05
-9.40572e-07
2.96707e-05
-1.26911e-06
3.30098e-05
-1.66595e-06
3.67236e-05
-2.13495e-06
4.08655e-05
-2.67755e-06
4.54888e-05
-3.28928e-06
5.06637e-05
-3.9606e-06
5.64718e-05
-4.67179e-06
6.30179e-05
-5.39066e-06
7.04299e-05
-6.07273e-06
7.76164e-05
-6.66192e-06
7.82667e-05
-7.12787e-06
7.90604e-05
-7.43488e-06
7.99955e-05
-7.55649e-06
8.10526e-05
-7.4759e-06
8.22159e-05
-7.18897e-06
8.34548e-05
-6.70381e-06
8.93533e-05
-5.98532e-06
7.90162e-05
-5.2485e-06
6.98326e-05
-4.52403e-06
6.1669e-05
-3.83329e-06
5.43773e-05
-3.19124e-06
4.79131e-05
-3.22105e-06
4.22931e-05
-2.55344e-06
3.72433e-05
-1.96235e-06
3.26677e-05
-1.44726e-06
2.85752e-05
-1.00248e-06
2.4861e-05
-6.26252e-07
2.14813e-05
-3.22798e-07
1.8054e-05
-1.10609e-07
1.36235e-05
1.74077e-05
-1.73713e-07
2.78226e-05
-8.35474e-08
2.85597e-05
-2.5252e-08
2.93156e-05
2.47332e-09
3.00897e-05
3.10231e-09
-2.97213e-07
1.93663e-05
-4.60266e-07
2.15479e-05
-6.69797e-07
2.39701e-05
-9.33316e-07
2.66625e-05
-1.25805e-06
2.96597e-05
-1.65106e-06
3.29949e-05
-2.11708e-06
3.67058e-05
-2.65903e-06
4.08469e-05
-3.27483e-06
4.54743e-05
-3.95843e-06
5.06615e-05
-4.6951e-06
5.64951e-05
-5.45913e-06
6.30864e-05
-6.21401e-06
7.05712e-05
-6.90791e-06
7.78624e-05
-7.48028e-06
7.86191e-05
-7.90186e-06
7.95274e-05
-8.14082e-06
8.05799e-05
-8.17447e-06
8.17511e-05
-7.99315e-06
8.30201e-05
-7.60036e-06
8.43514e-05
-7.01137e-06
9.03794e-05
-6.19559e-06
7.99632e-05
-5.38153e-06
7.06901e-05
-4.59853e-06
6.24342e-05
-3.86604e-06
5.50521e-05
-3.95036e-06
4.86424e-05
-3.1826e-06
4.29223e-05
-2.50133e-06
3.77823e-05
-1.90799e-06
3.31284e-05
-1.3979e-06
2.89706e-05
-9.63188e-07
2.51979e-05
-6.00021e-07
2.17585e-05
-3.09824e-07
1.82532e-05
-1.07495e-07
1.3731e-05
1.74079e-05
-2.9747e-07
2.78217e-05
-1.7289e-07
2.85618e-05
-8.55989e-08
2.93192e-05
-2.89016e-08
3.00933e-05
-1.09794e-09
3.08896e-05
1.51958e-09
-4.58653e-07
1.93647e-05
-6.65534e-07
2.15437e-05
-9.25622e-07
2.39624e-05
-1.24624e-06
2.66507e-05
-1.63473e-06
2.96433e-05
-2.09645e-06
3.29743e-05
-2.63539e-06
3.66821e-05
-3.25133e-06
4.08234e-05
-3.941e-06
4.54569e-05
-4.6937e-06
5.06601e-05
-5.48927e-06
5.65252e-05
-6.29818e-06
6.31705e-05
-7.07677e-06
7.07401e-05
-7.7678e-06
7.81499e-05
-8.30578e-06
7.9023e-05
-8.66673e-06
8.00533e-05
-8.82179e-06
8.12272e-05
-8.75507e-06
8.25131e-05
-8.4647e-06
8.38844e-05
-7.96179e-06
8.53018e-05
-7.26928e-06
9.14531e-05
-6.361e-06
8.09427e-05
-5.47599e-06
7.15676e-05
-4.64152e-06
6.32097e-05
-4.78842e-06
5.58902e-05
-3.90448e-06
4.93642e-05
-3.11783e-06
4.35388e-05
-2.43158e-06
3.83059e-05
-1.84217e-06
3.35727e-05
-1.34165e-06
2.93491e-05
-9.20063e-07
2.55179e-05
-5.71619e-07
2.20203e-05
-2.95422e-07
1.84411e-05
-1.03433e-07
1.38344e-05
1.74061e-05
-4.56846e-07
2.78162e-05
-2.91939e-07
2.85605e-05
-1.71643e-07
2.9321e-05
-8.73487e-08
3.00967e-05
-3.23193e-08
3.0893e-05
-4.46974e-09
3.17095e-05
3.27233e-11
-6.61124e-07
1.93603e-05
-9.17771e-07
2.15358e-05
-1.23413e-06
2.39503e-05
-1.6177e-06
2.66337e-05
-2.07424e-06
2.96211e-05
-2.60854e-06
3.29474e-05
-3.22175e-06
3.66525e-05
-3.91278e-06
4.07952e-05
-4.67421e-06
4.54374e-05
-5.49045e-06
5.06613e-05
-6.338e-06
5.6565e-05
-7.18059e-06
6.32743e-05
-7.96916e-06
7.09414e-05
-8.64012e-06
7.84843e-05
-9.12672e-06
7.9483e-05
-9.40974e-06
8.06412e-05
-9.46661e-06
8.19387e-05
-9.28914e-06
8.33375e-05
-8.88333e-06
8.4806e-05
-8.26873e-06
8.63013e-05
-7.47567e-06
9.25677e-05
-6.48105e-06
8.19478e-05
-5.53265e-06
7.24587e-05
-5.75337e-06
6.41747e-05
-4.73528e-06
5.6721e-05
-3.82599e-06
5.00724e-05
-3.0309e-06
4.41381e-05
-2.34728e-06
3.8811e-05
-1.76737e-06
3.39984e-05
-1.28032e-06
2.97094e-05
-8.74317e-07
2.58206e-05
-5.4181e-07
2.22667e-05
-2.80094e-07
1.86178e-05
-9.87248e-08
1.39331e-05
1.74017e-05
-6.56697e-07
2.78042e-05
-4.44838e-07
2.85545e-05
-2.85875e-07
2.93193e-05
-1.70006e-07
3.00981e-05
-8.87909e-08
3.08961e-05
-3.55018e-08
3.17127e-05
-7.63707e-09
3.25534e-05
-1.36001e-09
-9.09969e-07
1.93525e-05
-1.22206e-06
2.15238e-05
-1.60052e-06
2.39331e-05
-2.05135e-06
2.66108e-05
-2.57991e-06
2.95925e-05
-3.18836e-06
3.2914e-05
-3.8773e-06
3.66171e-05
-4.64189e-06
4.07629e-05
-5.4703e-06
4.54172e-05
-6.34411e-06
5.06674e-05
-7.23355e-06
5.6618e-05
-8.09714e-06
6.34023e-05
-8.87922e-06
7.11805e-05
-9.51323e-06
7.88708e-05
-9.92996e-06
8.00032e-05
-1.0119e-05
8.12936e-05
-1.00652e-05
8.27148e-05
-9.76837e-06
8.42225e-05
-9.24353e-06
8.57808e-05
-8.51853e-06
8.73441e-05
-7.62939e-06
9.37161e-05
-6.55628e-06
8.29714e-05
-6.86491e-06
7.35703e-05
-5.69385e-06
6.51332e-05
-4.64226e-06
5.75373e-05
-3.72009e-06
5.07616e-05
-2.92586e-06
4.47167e-05
-2.25171e-06
3.92953e-05
-1.68606e-06
3.44042e-05
-1.21565e-06
3.00507e-05
-8.27049e-07
2.61059e-05
-5.11287e-07
2.24979e-05
-2.64287e-07
1.87834e-05
-9.36036e-08
1.40267e-05
1.73941e-05
-9.02361e-07
2.77837e-05
-6.36233e-07
2.85417e-05
-4.32108e-07
2.93126e-05
-2.79212e-07
3.0096e-05
-1.6793e-07
3.08973e-05
-8.99248e-08
3.17156e-05
-3.84403e-08
3.25564e-05
-1.06036e-08
3.34193e-05
-2.65395e-09
-1.21025e-06
1.93407e-05
-1.58357e-06
2.15068e-05
-2.02845e-06
2.39102e-05
-2.55059e-06
2.65815e-05
-3.15291e-06
2.9557e-05
-3.83726e-06
3.2874e-05
-4.60085e-06
3.6576e-05
-5.43489e-06
4.07275e-05
-6.32518e-06
4.53983e-05
-7.24752e-06
5.06814e-05
-8.16725e-06
5.66881e-05
-9.03631e-06
6.35594e-05
-9.79559e-06
7.14629e-05
-1.03738e-05
7.93147e-05
-1.07031e-05
8.05873e-05
-1.07837e-05
8.20121e-05
-1.06083e-05
8.35548e-05
-1.01862e-05
8.51652e-05
-9.54176e-06
8.6804e-05
-8.70939e-06
8.84241e-05
-7.73061e-06
9.48904e-05
-8.14592e-06
8.42524e-05
-6.80093e-06
7.46774e-05
-5.58586e-06
6.60768e-05
-4.51567e-06
5.83328e-05
-3.5919e-06
5.14276e-05
-2.80686e-06
4.52719e-05
-2.14799e-06
3.97573e-05
-1.60054e-06
3.4789e-05
-1.14916e-06
3.03728e-05
-7.7922e-07
2.63738e-05
-4.80672e-07
2.27142e-05
-2.48337e-07
1.89381e-05
-8.82705e-08
1.4115e-05
1.73827e-05
-1.19888e-06
2.77525e-05
-8.71138e-07
2.85204e-05
-6.14894e-07
2.92993e-05
-4.1872e-07
3.00889e-05
-2.72055e-07
3.08948e-05
-1.6545e-07
3.17164e-05
-9.07403e-08
3.2559e-05
-4.11193e-08
3.34221e-05
-1.33831e-08
3.43052e-05
-3.85055e-09
-1.56714e-06
1.93243e-05
-2.00598e-06
2.14843e-05
-2.52135e-06
2.3881e-05
-3.11667e-06
2.65452e-05
-3.79472e-06
2.95145e-05
-4.5543e-06
3.28274e-05
-5.38903e-06
3.65302e-05
-6.28819e-06
4.06905e-05
-7.23228e-06
4.53831e-05
-8.19262e-06
5.07068e-05
-9.12815e-06
5.678e-05
-9.98716e-06
6.3751e-05
-1.0705e-05
7.17941e-05
-1.12092e-05
7.98208e-05
-1.14346e-05
8.12382e-05
-1.13935e-05
8.27973e-05
-1.10883e-05
8.44568e-05
-1.05383e-05
8.61617e-05
-9.77541e-06
8.787e-05
-8.84096e-06
8.95345e-05
-9.6225e-06
9.6367e-05
-8.08142e-06
8.55329e-05
-6.67837e-06
7.57699e-05
-5.43695e-06
6.69981e-05
-4.36174e-06
5.91027e-05
-3.44655e-06
5.20673e-05
-2.67783e-06
4.58017e-05
-2.03905e-06
4.01958e-05
-1.51279e-06
3.51527e-05
-1.08217e-06
3.06758e-05
-7.31678e-07
2.66248e-05
-4.50404e-07
2.29163e-05
-2.32549e-07
1.90824e-05
-8.28766e-08
1.41979e-05
1.7367e-05
-1.55141e-06
2.77082e-05
-1.15458e-06
2.84881e-05
-8.38829e-07
2.9277e-05
-5.92634e-07
3.00748e-05
-4.04593e-07
3.08871e-05
-2.64331e-07
3.17135e-05
-1.62548e-07
3.25596e-05
-9.12531e-08
3.34245e-05
-4.35447e-08
3.43078e-05
-1.59812e-08
3.52191e-05
-4.95201e-09
-1.98431e-06
1.93026e-05
-2.49277e-06
2.14558e-05
-3.08059e-06
2.38449e-05
-3.75123e-06
2.65018e-05
-4.50468e-06
2.94649e-05
-5.33646e-06
3.27749e-05
-6.23868e-06
3.64807e-05
-7.19576e-06
4.0654e-05
-8.18413e-06
4.53746e-05
-9.16905e-06
5.07477e-05
-1.01058e-05
5.68986e-05
-1.09367e-05
6.39826e-05
-1.15947e-05
7.21796e-05
-1.20073e-05
8.03935e-05
-1.21134e-05
8.19581e-05
-1.19398e-05
8.36488e-05
-1.14997e-05
8.54182e-05
-1.08209e-05
8.72073e-05
-9.94351e-06
8.89726e-05
-1.10268e-05
9.09388e-05
-9.56517e-06
9.78507e-05
-7.94651e-06
8.6801e-05
-6.50617e-06
7.68391e-05
-5.25469e-06
6.78911e-05
-4.18678e-06
5.98429e-05
-3.28885e-06
5.26783e-05
-2.54236e-06
4.6305e-05
-1.9274e-06
4.06104e-05
-1.42452e-06
3.5495e-05
-1.01579e-06
3.09599e-05
-6.84998e-07
2.68594e-05
-4.20889e-07
2.31047e-05
-2.17145e-07
1.92167e-05
-7.75297e-08
1.42754e-05
1.73463e-05
-1.96363e-06
2.76479e-05
-1.4911e-06
2.84424e-05
-1.10894e-06
2.92437e-05
-8.05512e-07
3.00516e-05
-5.69522e-07
3.08723e-05
-3.89804e-07
3.17053e-05
-2.56088e-07
3.25562e-05
-1.59237e-07
3.34247e-05
-9.14402e-08
3.43099e-05
-4.56986e-08
3.52215e-05
-1.84014e-08
3.6155e-05
-5.95836e-09
-2.46525e-06
1.9275e-05
-3.04537e-06
2.14205e-05
-3.70793e-06
2.38016e-05
-4.45382e-06
2.64509e-05
-5.28006e-06
2.94085e-05
-6.18098e-06
3.27172e-05
-7.14426e-06
3.64292e-05
-8.15068e-06
4.06205e-05
-9.17099e-06
4.53765e-05
-1.01669e-05
5.08088e-05
-1.10875e-05
5.70495e-05
-1.18722e-05
6.42601e-05
-1.24523e-05
7.26245e-05
-1.27563e-05
8.10364e-05
-1.27298e-05
8.27481e-05
-1.24162e-05
8.45654e-05
-1.18381e-05
8.64354e-05
-1.10325e-05
8.82963e-05
-1.24306e-05
9.03764e-05
-1.09851e-05
9.23587e-05
-9.42325e-06
9.93274e-05
-7.75168e-06
8.80465e-05
-6.29338e-06
7.78778e-05
-5.04666e-06
6.8751e-05
-3.99662e-06
6.05507e-05
-3.12321e-06
5.32592e-05
-2.40354e-06
4.67812e-05
-1.81514e-06
4.1001e-05
-1.33717e-06
3.58164e-05
-9.50785e-07
3.12257e-05
-6.39719e-07
2.70782e-05
-3.92418e-07
2.32799e-05
-2.02272e-07
1.93414e-05
-7.23144e-08
1.43477e-05
1.73201e-05
-2.43903e-06
2.75685e-05
-1.88425e-06
2.83804e-05
-1.42901e-06
2.91965e-05
-1.06177e-06
3.00171e-05
-7.70986e-07
3.08483e-05
-5.45541e-07
3.16898e-05
-3.74381e-07
3.25475e-05
-2.4733e-07
3.3421e-05
-1.55526e-07
3.43098e-05
-9.13187e-08
3.52234e-05
-4.759e-08
3.61573e-05
-2.06461e-08
3.65889e-05
-6.86138e-09
-3.01147e-06
1.92411e-05
-3.66562e-06
2.13782e-05
-4.40307e-06
2.37508e-05
-5.22198e-06
2.63928e-05
-6.11844e-06
2.93459e-05
-7.08278e-06
3.26557e-05
-8.09942e-06
3.63779e-05
-9.14384e-06
4.05934e-05
-1.01835e-05
4.53931e-05
-1.1174e-05
5.08952e-05
-1.2061e-05
5.72382e-05
-1.27811e-05
6.45889e-05
-1.32655e-05
7.31337e-05
-1.34458e-05
8.17524e-05
-1.32765e-05
8.36083e-05
-1.28172e-05
8.55445e-05
-1.21008e-05
8.75036e-05
-1.38282e-05
8.96939e-05
-1.2415e-05
9.18063e-05
-1.08451e-05
9.37806e-05
-9.20871e-06
0.000100784
-7.50737e-06
8.92605e-05
-6.04909e-06
7.88802e-05
-4.81992e-06
6.95742e-05
-3.79662e-06
6.12241e-05
-2.95338e-06
5.3809e-05
-2.26398e-06
4.723e-05
-1.7041e-06
4.13679e-05
-1.2517e-06
3.61173e-05
-8.87852e-07
3.14738e-05
-5.96214e-07
2.7282e-05
-3.65161e-07
2.34428e-05
-1.88044e-07
1.94571e-05
-6.72938e-08
1.4415e-05
1.72878e-05
-2.9792e-06
2.74668e-05
-2.33733e-06
2.82992e-05
-1.80312e-06
2.91329e-05
-1.36544e-06
2.99687e-05
-1.01338e-06
3.08128e-05
-7.35534e-07
3.1665e-05
-5.20743e-07
3.25314e-05
-3.58286e-07
3.34117e-05
-2.38071e-07
3.43057e-05
-1.5143e-07
3.5223e-05
-9.08878e-08
3.61589e-05
-4.92243e-08
3.65909e-05
-2.26838e-08
3.55528e-05
-7.64069e-09
-3.6249e-06
1.92004e-05
-4.35343e-06
2.13286e-05
-5.16383e-06
2.36927e-05
-6.0536e-06
2.6328e-05
-7.01519e-06
2.92783e-05
-8.03602e-06
3.25923e-05
-9.0956e-06
3.63297e-05
-1.01665e-05
4.05763e-05
-1.121e-05
4.54292e-05
-1.21783e-05
5.10125e-05
-1.30136e-05
5.74707e-05
-1.36511e-05
6.49745e-05
-1.40233e-05
7.37113e-05
-1.40675e-05
8.25434e-05
-1.37469e-05
8.45381e-05
-1.31392e-05
8.65829e-05
-1.5212e-05
8.88874e-05
-1.3851e-05
9.11298e-05
-1.22872e-05
9.32484e-05
-1.06199e-05
9.51918e-05
-8.93364e-06
0.000102211
-7.2242e-06
9.04356e-05
-5.78172e-06
7.9842e-05
-4.58094e-06
7.03586e-05
-3.59134e-06
6.18621e-05
-2.78257e-06
5.43276e-05
-2.12591e-06
4.76518e-05
-1.59547e-06
4.17117e-05
-1.16902e-06
3.63985e-05
-8.27477e-07
3.17051e-05
-5.5469e-07
2.74716e-05
-3.39254e-07
2.3594e-05
-1.74546e-07
1.95644e-05
-6.25071e-08
1.44775e-05
1.72491e-05
-3.58612e-06
2.73401e-05
-2.85249e-06
2.81956e-05
-2.23365e-06
2.90497e-05
-1.71987e-06
2.99036e-05
-1.30032e-06
3.07632e-05
-9.63711e-07
3.16286e-05
-6.99073e-07
3.25059e-05
-4.95249e-07
3.33951e-05
-3.41648e-07
3.4296e-05
-2.28362e-07
3.52185e-05
-1.46964e-07
3.61581e-05
-9.01499e-08
3.65923e-05
-5.06081e-08
3.55545e-05
-2.44518e-08
3.45447e-05
-8.31416e-09
-4.30557e-06
1.91526e-05
-5.10679e-06
2.12715e-05