/*--------------------------------*- C++ -*----------------------------------*\
  =========                 |
  \\      /  F ield         | OpenFOAM: The Open Source CFD Toolbox
   \\    /   O peration     | Website:  https://openfoam.org
    \\  /    A nd           | Version:  8
     \\/     M anipulation  |
\*---------------------------------------------------------------------------*/
FoamFile
{
    version     2.0;
    format      ascii;
    class       volScalarField;
    location    "400";
    object      k;
}
// * * * * * * * * * * * * * * * * * * * * * * * * * * * * * * * * * * * * * //

dimensions      [0 2 -2 0 0 0 0];

internalField   nonuniform List<scalar> 
15677
(
0.991115
0.878329
0.495837
0.398731
0.38043
0.375727
0.374331
0.373838
0.373578
0.373423
0.373331
0.373282
0.373258
0.373248
0.373245
0.373244
0.373242
0.373241
0.373239
0.373239
0.373238
0.373237
0.373237
0.373237
0.373238
0.373238
0.373238
0.373239
0.373239
0.373239
0.37324
0.37324
0.37324
0.373241
0.373241
1.1916
0.830643
0.479791
0.386788
0.3726
0.370441
0.370024
0.369925
0.369987
0.37004
0.370044
0.370012
0.369971
0.369936
0.369916
0.369906
0.369902
0.3699
0.369898
0.369897
0.369896
0.369895
0.369895
0.369894
0.369893
0.369893
0.369892
0.369891
0.369891
0.36989
0.36989
0.369889
0.369889
0.369888
0.369888
1.13855
0.693057
0.41431
0.35854
0.355679
0.359201
0.36205
0.364007
0.365279
0.366077
0.366542
0.366772
0.366849
0.366848
0.366825
0.366804
0.36679
0.36678
0.366773
0.366769
0.366765
0.366762
0.366761
0.366759
0.366758
0.366758
0.366757
0.366757
0.366757
0.366757
0.366757
0.366757
0.366757
0.366757
0.366757
1.04263
0.659333
0.359186
0.31749
0.329869
0.342604
0.350922
0.356113
0.359362
0.361405
0.362667
0.3634
0.363772
0.363917
0.363943
0.363933
0.363919
0.363906
0.363898
0.363891
0.363886
0.363882
0.363878
0.363875
0.363873
0.363871
0.363869
0.363868
0.363867
0.363866
0.363865
0.363864
0.363863
0.363862
0.363862
0.977786
0.66832
0.358527
0.295979
0.309238
0.32692
0.33939
0.347555
0.352856
0.356301
0.358519
0.359899
0.360691
0.361079
0.361208
0.361234
0.361225
0.361209
0.361194
0.361182
0.361173
0.361165
0.36116
0.361156
0.361153
0.36115
0.361148
0.361147
0.361146
0.361145
0.361144
0.361143
0.361143
0.361142
0.361142
0.936349
0.691764
0.368841
0.283165
0.292386
0.312652
0.328233
0.338957
0.346181
0.351025
0.354247
0.356336
0.357618
0.358322
0.358615
0.358715
0.358737
0.358731
0.358717
0.358704
0.358692
0.358681
0.358673
0.358666
0.358661
0.358656
0.358652
0.358649
0.358646
0.358643
0.358641
0.358639
0.358637
0.358636
0.358634
0.910505
0.716382
0.392349
0.284178
0.281989
0.300826
0.318047
0.330693
0.339582
0.345737
0.349949
0.352769
0.354573
0.355634
0.356123
0.356317
0.356379
0.356386
0.356372
0.356355
0.356338
0.356324
0.356313
0.356304
0.356297
0.356291
0.356286
0.356282
0.356279
0.356276
0.356274
0.356272
0.35627
0.356269
0.356268
0.892815
0.732633
0.423978
0.289401
0.275527
0.291599
0.309251
0.32313
0.333316
0.340604
0.345732
0.349262
0.351598
0.35304
0.353758
0.354079
0.354209
0.354247
0.354247
0.354231
0.354212
0.354194
0.354178
0.354166
0.354155
0.354146
0.354138
0.354131
0.354125
0.35412
0.354116
0.354112
0.354108
0.354105
0.354102
0.880683
0.743969
0.456259
0.300407
0.272401
0.284353
0.301637
0.316271
0.327463
0.335716
0.34167
0.345866
0.34872
0.350544
0.351496
0.351947
0.352143
0.35221
0.352219
0.352204
0.352182
0.35216
0.352141
0.352125
0.352112
0.3521
0.352091
0.352083
0.352076
0.35207
0.352065
0.352061
0.352058
0.352055
0.352052
0.871079
0.74746
0.484009
0.315531
0.27284
0.27933
0.295352
0.310211
0.322096
0.331133
0.337812
0.342624
0.345972
0.348177
0.34938
0.349988
0.35028
0.3504
0.350434
0.350427
0.350403
0.350375
0.35035
0.350329
0.35031
0.350295
0.350281
0.350269
0.350259
0.35025
0.350242
0.350235
0.350228
0.350222
0.350217
0.864335
0.750038
0.508055
0.331838
0.274563
0.275739
0.290142
0.304919
0.317253
0.326905
0.334205
0.339574
0.343388
0.345959
0.3474
0.348147
0.348515
0.348673
0.348723
0.348723
0.3487
0.34867
0.348641
0.348615
0.348592
0.348573
0.348556
0.348542
0.34853
0.348519
0.34851
0.348503
0.348496
0.348491
0.348486
0.860269
0.75121
0.527751
0.347928
0.278083
0.273323
0.285865
0.300313
0.312912
0.323048
0.33088
0.336747
0.340991
0.343913
0.345606
0.346527
0.347013
0.347243
0.347329
0.34734
0.347315
0.347278
0.347241
0.347209
0.34718
0.347155
0.347134
0.347115
0.347098
0.347084
0.347071
0.347059
0.347048
0.347038
0.34703
0.858562
0.751289
0.54408
0.363503
0.282883
0.271918
0.282442
0.296379
0.309083
0.319579
0.327859
0.334175
0.338828
0.342095
0.344019
0.34507
0.345625
0.345891
0.345999
0.346025
0.346008
0.345972
0.345932
0.345895
0.345861
0.345831
0.345805
0.345782
0.345762
0.345745
0.34573
0.345717
0.345706
0.345696
0.345689
0.858966
0.75112
0.556276
0.377544
0.288175
0.271334
0.279677
0.293006
0.305728
0.316509
0.325177
0.331901
0.336925
0.340501
0.342669
0.343921
0.344629
0.344993
0.345146
0.345183
0.345162
0.345119
0.345072
0.345027
0.344988
0.344953
0.344922
0.344895
0.344872
0.344851
0.344832
0.344816
0.344801
0.344788
0.344776
0.860755
0.751024
0.566126
0.389937
0.293677
0.271451
0.27756
0.290199
0.302852
0.313845
0.322848
0.329938
0.335331
0.339271
0.341681
0.343031
0.343778
0.344165
0.344353
0.344425
0.344428
0.344394
0.344348
0.344301
0.344258
0.344219
0.344184
0.344154
0.344127
0.344103
0.344082
0.344063
0.344046
0.344031
0.344019
0.864621
0.7508
0.572651
0.400115
0.299072
0.271849
0.275902
0.287856
0.300423
0.311601
0.320915
0.328382
0.334139
0.338315
0.340948
0.342586
0.343565
0.344109
0.344368
0.344462
0.344476
0.344449
0.344406
0.344362
0.34432
0.344283
0.344249
0.344219
0.344193
0.34417
0.344149
0.344131
0.344116
0.344102
0.344092
0.870833
0.750828
0.578016
0.408377
0.303834
0.272604
0.274684
0.286003
0.298454
0.30979
0.319416
0.327204
0.333264
0.33796
0.340979
0.342737
0.343792
0.34439
0.344697
0.344829
0.344867
0.344857
0.344826
0.344791
0.344757
0.344726
0.344698
0.344673
0.344651
0.344632
0.344615
0.3446
0.344587
0.344574
0.344566
0.879022
0.750862
0.581052
0.414886
0.308173
0.273652
0.273832
0.284519
0.296929
0.308458
0.318336
0.326536
0.3332
0.338157
0.341354
0.343296
0.344482
0.345177
0.34556
0.345752
0.345834
0.345857
0.345853
0.34584
0.345825
0.345811
0.345797
0.345786
0.345776
0.345768
0.34576
0.345754
0.345748
0.345741
0.34574
0.889173
0.750791
0.583061
0.419633
0.311681
0.274672
0.273327
0.283557
0.295864
0.307534
0.317898
0.326611
0.333519
0.338806
0.342288
0.344491
0.345894
0.346756
0.347269
0.347563
0.347725
0.347813
0.347862
0.347893
0.347917
0.347936
0.347954
0.34797
0.347985
0.347998
0.348011
0.348021
0.34803
0.348037
0.348051
0.90128
0.750797
0.583278
0.422795
0.314608
0.275745
0.273142
0.282817
0.295255
0.307375
0.318066
0.327071
0.334383
0.340163
0.344103
0.346649
0.348303
0.349365
0.350041
0.350473
0.350758
0.350953
0.351096
0.351211
0.35131
0.351397
0.351477
0.351549
0.351615
0.351674
0.351729
0.351778
0.351822
0.351859
0.351906
0.915294
0.750868
0.582938
0.424915
0.316767
0.276741
0.273252
0.282809
0.295331
0.307628
0.318658
0.328128
0.336083
0.342474
0.346893
0.349816
0.351785
0.353112
0.354015
0.354651
0.355126
0.355495
0.355795
0.356052
0.35628
0.356485
0.356672
0.356843
0.356998
0.357139
0.357267
0.357384
0.357488
0.35758
0.357679
0.931155
0.751021
0.58203
0.425491
0.318427
0.277734
0.273562
0.28301
0.295702
0.308333
0.319912
0.330101
0.33872
0.345769
0.350764
0.354158
0.35653
0.358207
0.359426
0.360356
0.361114
0.361753
0.362299
0.362783
0.36322
0.363619
0.363984
0.364318
0.364623
0.364902
0.365155
0.365386
0.365593
0.365777
0.365965
0.948748
0.751202
0.58025
0.425213
0.319376
0.278673
0.274159
0.283534
0.296526
0.309727
0.322005
0.332925
0.342326
0.350164
0.355859
0.359839
0.362727
0.36487
0.366522
0.367871
0.369046
0.37009
0.371017
0.371856
0.372625
0.373332
0.373983
0.37458
0.375127
0.375628
0.376084
0.376501
0.376877
0.377213
0.377543
0.967967
0.751497
0.57791
0.424428
0.319978
0.279606
0.275022
0.284561
0.298031
0.311867
0.324906
0.336686
0.347007
0.355786
0.362331
0.367041
0.370587
0.37334
0.375583
0.37752
0.379296
0.380937
0.382432
0.383806
0.385079
0.386259
0.387352
0.38836
0.389289
0.390142
0.390922
0.391636
0.392284
0.39287
0.393426
0.988677
0.751838
0.575136
0.422892
0.320099
0.280549
0.276153
0.286053
0.300104
0.314703
0.328642
0.341431
0.352835
0.362734
0.370305
0.375919
0.380299
0.38385
0.386888
0.389636
0.392256
0.394754
0.397079
0.399251
0.401286
0.403187
0.404959
0.406604
0.408125
0.409527
0.410817
0.412
0.41308
0.414065
0.414975
1.01071
0.752331
0.572052
0.420738
0.320009
0.281545
0.277569
0.288012
0.30279
0.31829
0.333279
0.347241
0.359907
0.371126
0.379935
0.386655
0.392081
0.396672
0.400766
0.404621
0.408423
0.412146
0.415676
0.419014
0.422167
0.425136
0.427923
0.430526
0.432948
0.435194
0.437271
0.439187
0.440947
0.442567
0.444031
1.03397
0.752883
0.568692
0.418254
0.319791
0.282652
0.279272
0.290417
0.306067
0.322616
0.338815
0.354125
0.368252
0.381019
0.391297
0.399359
0.406097
0.412016
0.417498
0.422835
0.428248
0.433663
0.438882
0.443887
0.448676
0.453238
0.457556
0.461621
0.465431
0.468987
0.472297
0.475369
0.478211
0.480842
0.483181
1.05818
0.753584
0.565198
0.415443
0.319385
0.283877
0.281277
0.293297
0.309973
0.327725
0.345304
0.362152
0.377957
0.392521
0.404533
0.414218
0.422591
0.430203
0.437493
0.44481
0.452429
0.460231
0.467893
0.475343
0.482535
0.489433
0.496011
0.502253
0.508152
0.513702
0.518905
0.523768
0.5283
0.532528
0.536242
1.08331
0.754365
0.56156
0.412499
0.318963
0.285257
0.283579
0.296623
0.314466
0.333575
0.352701
0.371281
0.388987
0.405603
0.419631
0.431264
0.441632
0.451358
0.460963
0.470874
0.481436
0.492454
0.503414
0.514193
0.524757
0.535067
0.545068
0.554699
0.563909
0.572668
0.580968
0.588812
0.596216
0.603221
0.609364
1.10899
0.755273
0.557925
0.4094
0.318525
0.286803
0.28618
0.30041
0.319569
0.340192
0.361045
0.381565
0.401417
0.420372
0.436752
0.450722
0.463536
0.475927
0.488524
0.501862
0.516406
0.531928
0.547761
0.563743
0.579729
0.59552
0.610949
0.625923
0.640418
0.654444
0.668014
0.681133
0.69381
0.706066
0.716894
0.373245
0.373252
0.373259
0.373267
0.373275
0.373283
0.373292
0.373301
0.373309
0.373319
0.373328
0.373338
0.373347
0.373356
0.373365
0.373374
0.373382
0.373391
0.373399
0.373406
0.373414
0.373421
0.369898
0.369919
0.369941
0.369963
0.369985
0.370008
0.370032
0.370057
0.370082
0.370107
0.370134
0.370161
0.370188
0.370214
0.370239
0.370263
0.370287
0.370311
0.370333
0.370355
0.370377
0.370398
0.366774
0.366808
0.366842
0.366878
0.366914
0.366952
0.36699
0.36703
0.367071
0.367113
0.367156
0.367199
0.367243
0.367285
0.367325
0.367365
0.367404
0.367441
0.367477
0.367513
0.367547
0.36758
0.363883
0.363927
0.363973
0.36402
0.364068
0.364117
0.364168
0.36422
0.364274
0.364329
0.364386
0.364444
0.364501
0.364557
0.364612
0.364665
0.364716
0.364766
0.364815
0.364862
0.364909
0.364953
0.361169
0.361224
0.361281
0.36134
0.3614
0.361462
0.361525
0.361591
0.361658
0.361727
0.361797
0.36187
0.361941
0.362011
0.362078
0.362144
0.362208
0.36227
0.36233
0.362389
0.362446
0.362501
0.358665
0.358728
0.358793
0.35886
0.358929
0.359
0.359073
0.359149
0.359226
0.359305
0.359387
0.359471
0.359554
0.359635
0.359714
0.359791
0.359866
0.359938
0.360009
0.360078
0.360145
0.36021
0.356303
0.356375
0.35645
0.356527
0.356606
0.356688
0.356772
0.356858
0.356947
0.357038
0.357132
0.357228
0.357323
0.357415
0.357505
0.357593
0.357678
0.35776
0.357841
0.357919
0.357995
0.358069
0.354139
0.354217
0.354297
0.35438
0.354465
0.354552
0.354643
0.354736
0.354832
0.354931
0.355033
0.355138
0.355242
0.355343
0.355442
0.355539
0.355633
0.355724
0.355813
0.3559
0.355985
0.356067
0.352093
0.352178
0.352265
0.352356
0.352449
0.352545
0.352645
0.352747
0.352853
0.352962
0.353074
0.353188
0.353302
0.353412
0.35352
0.353624
0.353726
0.353825
0.353922
0.354016
0.354108
0.354197
0.350257
0.350343
0.350431
0.350523
0.350618
0.350716
0.350817
0.350922
0.35103
0.351142
0.351258
0.351378
0.351497
0.351614
0.351728
0.35184
0.351949
0.352056
0.352159
0.35226
0.352359
0.352454
0.348527
0.348617
0.348709
0.348805
0.348905
0.349009
0.349117
0.349228
0.349344
0.349463
0.349586
0.349712
0.349837
0.349959
0.350078
0.350194
0.350307
0.350417
0.350525
0.350631
0.350734
0.350835
0.347066
0.347149
0.347234
0.347323
0.347416
0.347512
0.347613
0.347717
0.347826
0.34794
0.34806
0.348184
0.34831
0.348434
0.348557
0.348677
0.348795
0.34891
0.349022
0.349132
0.349238
0.349343
0.345723
0.3458
0.34588
0.345966
0.346058
0.346155
0.346259
0.346367
0.346479
0.346596
0.346716
0.346839
0.346962
0.347082
0.3472
0.347316
0.34743
0.347543
0.347654
0.347763
0.347871
0.347979
0.344799
0.344855
0.344912
0.344973
0.345037
0.345104
0.345176
0.345254
0.345338
0.345431
0.345533
0.345645
0.345761
0.345878
0.345996
0.346112
0.346226
0.346337
0.346446
0.346553
0.346657
0.346761
0.344024
0.344045
0.344074
0.34412
0.344178
0.344245
0.344319
0.344399
0.344483
0.344569
0.344656
0.344744
0.344831
0.344919
0.345008
0.3451
0.345194
0.345291
0.345391
0.345491
0.345592
0.345696
0.344076
0.344044
0.343995
0.343951
0.343913
0.343885
0.343866
0.343858
0.343863
0.343884
0.343932
0.344001
0.344081
0.344166
0.344253
0.344339
0.344423
0.344504
0.344583
0.344661
0.344739
0.344823
0.34452
0.344421
0.344317
0.344226
0.344145
0.344072
0.34401
0.343959
0.343919
0.343885
0.343842
0.343804
0.343779
0.343767
0.34377
0.343787
0.343822
0.343875
0.343939
0.344009
0.344083
0.344167
0.345653
0.345452
0.345243
0.345057
0.344885
0.344726
0.344578
0.344443
0.344319
0.344204
0.344103
0.344013
0.343939
0.343882
0.343841
0.343811
0.343782
0.343755
0.343735
0.343725
0.343726
0.34375
0.347896
0.347519
0.347129
0.346773
0.346439
0.346125
0.345832
0.34556
0.345306
0.345069
0.344854
0.344659
0.344488
0.344343
0.344219
0.344114
0.344026
0.343953
0.343893
0.343845
0.343811
0.343806
0.351667
0.351053
0.350418
0.349829
0.349268
0.34873
0.348213
0.347716
0.347244
0.346798
0.346383
0.346
0.345658
0.34536
0.345104
0.344884
0.344694
0.344533
0.344394
0.344274
0.344174
0.344118
0.357331
0.356381
0.355402
0.354488
0.353612
0.352766
0.351951
0.351166
0.350413
0.349695
0.349014
0.348376
0.347795
0.347277
0.346811
0.346398
0.346035
0.345717
0.345438
0.345193
0.344982
0.344839
0.365478
0.364059
0.362606
0.361241
0.359928
0.358657
0.357426
0.356237
0.355092
0.353993
0.352944
0.351953
0.351046
0.350231
0.349499
0.348843
0.348258
0.347737
0.347274
0.346859
0.346494
0.346219
0.376882
0.374813
0.372708
0.370726
0.368812
0.366954
0.365151
0.363405
0.361718
0.360094
0.358537
0.357061
0.355705
0.354483
0.353383
0.352393
0.351504
0.350707
0.349993
0.34935
0.348779
0.348336
0.392555
0.38959
0.386597
0.383772
0.381037
0.378378
0.375791
0.373281
0.370852
0.368509
0.366258
0.36412
0.36215
0.360373
0.358771
0.357326
0.356025
0.354855
0.353802
0.352854
0.352006
0.351335
0.413853
0.409653
0.405452
0.401478
0.397623
0.393869
0.390213
0.38666
0.383217
0.379894
0.376698
0.37366
0.370859
0.36833
0.366048
0.363989
0.362132
0.360461
0.358956
0.357598
0.356382
0.355405
0.442602
0.436701
0.430856
0.425316
0.419935
0.414688
0.409573
0.404599
0.399775
0.395115
0.390632
0.38637
0.382442
0.378897
0.375698
0.372813
0.370214
0.367873
0.365766
0.363865
0.362161
0.360777
0.481386
0.47311
0.465009
0.457311
0.449824
0.442521
0.435402
0.42848
0.421771
0.415292
0.409064
0.403146
0.397693
0.392775
0.388342
0.384349
0.380754
0.37752
0.374613
0.371993
0.369645
0.36772
0.533986
0.522284
0.511058
0.500391
0.49
0.479848
0.469945
0.460314
0.450983
0.441983
0.433345
0.425157
0.417633
0.410863
0.404774
0.399299
0.394378
0.389957
0.385989
0.382419
0.379224
0.376587
0.606553
0.589345
0.573359
0.558375
0.543896
0.529809
0.516095
0.502766
0.489854
0.477397
0.465438
0.454103
0.443703
0.434371
0.426011
0.418527
0.411829
0.405834
0.400467
0.395652
0.391345
0.387757
0.713492
0.686514
0.661899
0.639239
0.617823
0.59741
0.577888
0.559192
0.541283
0.524138
0.507754
0.492251
0.478012
0.46521
0.453729
0.443461
0.4343
0.426143
0.418884
0.412414
0.40666
0.401857
0.373425
0.373425
0.373425
0.373425
0.373425
0.373425
0.370408
0.370408
0.370408
0.370408
0.370408
0.370408
0.367597
0.367597
0.367597
0.367597
0.367597
0.367597
0.364975
0.364975
0.364975
0.364975
0.364975
0.364975
0.362528
0.362528
0.362528
0.362528
0.362528
0.362528
0.360242
0.360242
0.360242
0.360242
0.360242
0.360242
0.358105
0.358105
0.358105
0.358105
0.358105
0.358105
0.356107
0.356107
0.356107
0.356107
0.356107
0.356107
0.354241
0.354241
0.354241
0.354241
0.354241
0.354241
0.352502
0.352501
0.352501
0.352501
0.352501
0.352502
0.350885
0.350884
0.350884
0.350884
0.350884
0.350885
0.349394
0.349392
0.349392
0.349392
0.349392
0.349394
0.348031
0.34803
0.34803
0.34803
0.34803
0.348032
0.34681
0.346804
0.346804
0.346804
0.346805
0.346811
0.345747
0.345744
0.345746
0.345746
0.345744
0.345748
0.344856
0.344842
0.34484
0.344841
0.344843
0.344858
0.344207
0.344199
0.344203
0.344203
0.344199
0.344208
0.343749
0.343723
0.343724
0.343724
0.343724
0.343751
0.34379
0.343759
0.343762
0.343762
0.34376
0.343792
0.344072
0.34403
0.344035
0.344036
0.344031
0.344075
0.344744
0.344686
0.344695
0.344696
0.344688
0.344748
0.346046
0.345963
0.345976
0.345976
0.345966
0.346051
0.348068
0.347959
0.347976
0.347977
0.347962
0.348074
0.350939
0.350797
0.350822
0.350823
0.350801
0.350947
0.354836
0.354653
0.354688
0.35469
0.354658
0.354846
0.359983
0.359751
0.3598
0.359802
0.359757
0.359995
0.366626
0.366333
0.366399
0.366401
0.36634
0.36664
0.375108
0.37475
0.37484
0.374843
0.374759
0.375126
0.385751
0.385304
0.385417
0.38542
0.385313
0.385772
0.39921
0.398654
0.398787
0.398791
0.398665
0.399235
0.373421
0.373414
0.373406
0.373398
0.37339
0.373382
0.373374
0.373365
0.373356
0.373347
0.373338
0.373328
0.373318
0.373309
0.3733
0.373292
0.373283
0.373275
0.373267
0.373259
0.373252
0.373245
0.370397
0.370376
0.370355
0.370333
0.37031
0.370287
0.370263
0.370238
0.370213
0.370187
0.370161
0.370134
0.370107
0.370081
0.370056
0.370031
0.370007
0.369984
0.369962
0.36994
0.369919
0.369898
0.36758
0.367546
0.367512
0.367476
0.36744
0.367402
0.367364
0.367324
0.367284
0.367242
0.367199
0.367155
0.367112
0.36707
0.367029
0.366989
0.366951
0.366913
0.366877
0.366841
0.366807
0.366774
0.364953
0.364908
0.364861
0.364813
0.364765
0.364714
0.364663
0.36461
0.364556
0.3645
0.364443
0.364385
0.364328
0.364272
0.364219
0.364166
0.364115
0.364066
0.364018
0.363972
0.363926
0.363883
0.362501
0.362445
0.362387
0.362328
0.362268
0.362206
0.362142
0.362076
0.362009
0.36194
0.361869
0.361797
0.361726
0.361656
0.361589
0.361523
0.36146
0.361398
0.361338
0.36128
0.361224
0.361169
0.360209
0.360144
0.360076
0.360007
0.359936
0.359863
0.359788
0.359712
0.359633
0.359553
0.359471
0.359387
0.359304
0.359224
0.359146
0.359071
0.358998
0.358927
0.358858
0.358792
0.358727
0.358664
0.358068
0.357993
0.357917
0.357838
0.357757
0.357675
0.35759
0.357503
0.357413
0.357322
0.357228
0.357132
0.357037
0.356945
0.356856
0.356769
0.356686
0.356604
0.356525
0.356449
0.356375
0.356303
0.356066
0.355983
0.355898
0.355811
0.355721
0.355629
0.355535
0.355439
0.355341
0.35524
0.355137
0.355033
0.35493
0.35483
0.354734
0.35464
0.35455
0.354462
0.354378
0.354296
0.354216
0.354139
0.354197
0.354106
0.354014
0.353919
0.353822
0.353723
0.353621
0.353517
0.35341
0.3533
0.353188
0.353074
0.352961
0.352851
0.352745
0.352643
0.352543
0.352447
0.352355
0.352265
0.352178
0.352095
0.352454
0.352357
0.352258
0.352156
0.352052
0.351946
0.351837
0.351725
0.351612
0.351496
0.351378
0.351259
0.351142
0.351029
0.35092
0.350815
0.350714
0.350616
0.350522
0.350431
0.350343
0.350258
0.350835
0.350733
0.350629
0.350523
0.350414
0.350303
0.35019
0.350075
0.349957
0.349836
0.349712
0.349587
0.349463
0.349343
0.349227
0.349116
0.349008
0.348905
0.348806
0.348711
0.34862
0.348532
0.349343
0.349237
0.349129
0.349019
0.348907
0.348791
0.348674
0.348555
0.348433
0.34831
0.348186
0.348062
0.347942
0.347827
0.347718
0.347613
0.347513
0.347417
0.347325
0.347237
0.347153
0.347071
0.347979
0.34787
0.347761
0.347651
0.34754
0.347427
0.347313
0.347198
0.347081
0.346963
0.346842
0.346719
0.346598
0.346481
0.346368
0.34626
0.346158
0.346062
0.345971
0.345886
0.345808
0.345733
0.346761
0.346656
0.346551
0.346444
0.346335
0.346223
0.34611
0.345994
0.345878
0.345763
0.345648
0.345538
0.345436
0.345343
0.345259
0.345182
0.345111
0.345044
0.344981
0.344921
0.344865
0.344809
0.345697
0.345591
0.34549
0.345389
0.34529
0.345194
0.3451
0.345009
0.344921
0.344835
0.344749
0.344662
0.344575
0.344488
0.344405
0.344326
0.344253
0.344188
0.344132
0.344089
0.344062
0.344044
0.344824
0.344739
0.344661
0.344583
0.344504
0.344423
0.34434
0.344254
0.344169
0.344086
0.344008
0.343941
0.343895
0.343876
0.343874
0.343884
0.343905
0.343936
0.343975
0.34402
0.344068
0.3441
0.344168
0.344084
0.34401
0.34394
0.343877
0.343826
0.343792
0.343777
0.343776
0.343789
0.343816
0.343855
0.3439
0.343935
0.343979
0.344033
0.344097
0.344172
0.344256
0.344348
0.344453
0.344552
0.343753
0.343729
0.343729
0.34374
0.343762
0.343791
0.343819
0.34385
0.343893
0.343952
0.344027
0.344119
0.344224
0.344342
0.34447
0.344609
0.34476
0.344923
0.345097
0.345285
0.345495
0.345697
0.34381
0.343816
0.343851
0.343901
0.343962
0.344037
0.344127
0.344234
0.344359
0.344506
0.344678
0.344875
0.345096
0.345338
0.345598
0.345875
0.346175
0.346493
0.346831
0.34719
0.347581
0.347958
0.344123
0.344181
0.344283
0.344405
0.344547
0.344711
0.344904
0.345126
0.345384
0.345683
0.346026
0.346413
0.346837
0.347291
0.347772
0.348277
0.348801
0.349344
0.349909
0.350501
0.351137
0.35175
0.344846
0.344992
0.345207
0.345457
0.34574
0.346062
0.346429
0.346845
0.347312
0.347831
0.34841
0.349053
0.349747
0.350478
0.351243
0.352039
0.352863
0.353716
0.354597
0.355515
0.356493
0.35744
0.346229
0.346509
0.346881
0.347301
0.347771
0.348297
0.348887
0.349546
0.35028
0.351094
0.351998
0.352995
0.354064
0.355181
0.356342
0.357545
0.358788
0.360068
0.361388
0.362755
0.364207
0.365619
0.34835
0.3488
0.349381
0.350032
0.350754
0.351559
0.352454
0.353448
0.35455
0.35577
0.35712
0.358604
0.360187
0.361836
0.363546
0.365312
0.36713
0.369
0.370921
0.372906
0.375006
0.377064
0.351353
0.352035
0.352895
0.353857
0.35492
0.356101
0.35741
0.35886
0.360464
0.362237
0.364196
0.366344
0.368632
0.37101
0.37347
0.376005
0.378612
0.381287
0.38403
0.386856
0.389841
0.392789
0.355428
0.35642
0.357654
0.35903
0.36055
0.362236
0.364103
0.366168
0.368451
0.370973
0.373758
0.376808
0.380055
0.383426
0.386909
0.390497
0.39418
0.397953
0.401817
0.40579
0.409977
0.414148
0.360807
0.362212
0.36394
0.365865
0.367994
0.370353
0.372966
0.375858
0.379057
0.382592
0.386496
0.390773
0.395325
0.400049
0.404928
0.409949
0.415099
0.420369
0.42576
0.431297
0.437118
0.442975
0.367758
0.369713
0.372094
0.374745
0.377681
0.38094
0.384553
0.388556
0.392987
0.397888
0.403305
0.409243
0.415566
0.42213
0.428915
0.435898
0.443063
0.450396
0.457894
0.465583
0.473648
0.481858
0.376635
0.379312
0.382551
0.386163
0.39017
0.394624
0.399569
0.405056
0.411141
0.417887
0.42536
0.433574
0.442339
0.451456
0.460888
0.470602
0.480565
0.490754
0.501156
0.511807
0.522981
0.534584
0.387819
0.39146
0.395825
0.400697
0.406115
0.412154
0.418885
0.426385
0.434739
0.444036
0.454364
0.46573
0.477862
0.490477
0.503525
0.516964
0.53076
0.544895
0.55939
0.574352
0.590263
0.607315
0.401935
0.406809
0.412641
0.419188
0.426517
0.434735
0.443939
0.454228
0.465698
0.478448
0.492585
0.508127
0.524744
0.542105
0.560206
0.579063
0.59871
0.619204
0.64065
0.663275
0.687759
0.714462
0.373241
0.373241
0.373241
0.37324
0.37324
0.37324
0.373239
0.373239
0.373238
0.373238
0.373238
0.373238
0.373238
0.373238
0.373238
0.373239
0.37324
0.373241
0.373242
0.373243
0.373245
0.373248
0.373257
0.373281
0.37333
0.373422
0.373577
0.373837
0.374329
0.375724
0.380424
0.398722
0.495839
0.878482
0.99131
0.369888
0.369888
0.369888
0.369889
0.369889
0.36989
0.36989
0.369891
0.369892
0.369892
0.369893
0.369893
0.369894
0.369895
0.369896
0.369897
0.369898
0.369899
0.369902
0.369906
0.369916
0.369936
0.369971
0.370012
0.370045
0.37004
0.369986
0.369923
0.370021
0.370435
0.37259
0.386772
0.479788
0.830767
1.19167
0.366758
0.366758
0.366758
0.366757
0.366757
0.366757
0.366757
0.366757
0.366758
0.366758
0.366759
0.36676
0.366761
0.366763
0.366765
0.366769
0.366774
0.36678
0.366789
0.366804
0.366824
0.366848
0.366848
0.366771
0.366541
0.366075
0.365276
0.364002
0.362042
0.35919
0.35566
0.358513
0.414293
0.693119
1.13856
0.363861
0.363862
0.363863
0.363863
0.363864
0.363865
0.363866
0.363868
0.363869
0.363871
0.363872
0.363875
0.363877
0.363881
0.363885
0.363891
0.363897
0.363906
0.363919
0.363933
0.363943
0.363917
0.363772
0.3634
0.362666
0.361404
0.35936
0.356108
0.350914
0.34259
0.329847
0.317458
0.359168
0.65941
1.04262
0.361142
0.361143
0.361143
0.361144
0.361144
0.361145
0.361146
0.361147
0.361149
0.361151
0.361153
0.361157
0.361161
0.361166
0.361173
0.361183
0.361194
0.361209
0.361225
0.361234
0.361208
0.361078
0.36069
0.359898
0.358517
0.356297
0.35285
0.347547
0.339378
0.326902
0.309213
0.295953
0.358562
0.6684
0.977773
0.358634
0.358636
0.358637
0.358639
0.358641
0.358643
0.358645
0.358648
0.358652
0.358656
0.35866
0.358666
0.358672
0.358681
0.358691
0.358703
0.358717
0.358731
0.358737
0.358715
0.358616
0.358323
0.357618
0.356336
0.354246
0.351023
0.346177
0.33895
0.328221
0.312635
0.292367
0.283162
0.368889
0.691843
0.93634
0.356269
0.35627
0.356271
0.356273
0.356275
0.356277
0.35628
0.356283
0.356287
0.356292
0.356298
0.356305
0.356314
0.356325
0.356339
0.356356
0.356373
0.356386
0.35638
0.356317
0.356123
0.355634
0.354573
0.352768
0.349947
0.345733
0.339575
0.330683
0.318034
0.30081
0.281976
0.284185
0.392427
0.716467
0.910511
0.354103
0.354106
0.354109
0.354112
0.354116
0.35412
0.354125
0.354131
0.354137
0.354145
0.354154
0.354165
0.354178
0.354194
0.354212
0.354232
0.354247
0.354248
0.35421
0.354081
0.35376
0.353042
0.351599
0.349262
0.345732
0.340602
0.333312
0.323123
0.309241
0.291586
0.275518
0.28942
0.424054
0.732679
0.892822
0.352055
0.352057
0.35206
0.352063
0.352067
0.352072
0.352078
0.352084
0.352092
0.352102
0.352114
0.352127
0.352143
0.352163
0.352185
0.352207
0.352221
0.352212
0.352145
0.351949
0.351497
0.350545
0.348721
0.345866
0.341668
0.335712
0.327458
0.316263
0.301627
0.284344
0.272405
0.300449
0.456356
0.744024
0.880705
0.350219
0.350224
0.35023
0.350236
0.350243
0.35025
0.350259
0.350269
0.350281
0.350295
0.35031
0.350329
0.350351
0.350377
0.350405
0.350429
0.350436
0.350403
0.350283
0.349993
0.349385
0.348181
0.345976
0.342627
0.337814
0.331133
0.322095
0.310208
0.295348
0.279328
0.272848
0.315579
0.484097
0.747491
0.871111
0.348491
0.348495
0.348501
0.348507
0.348514
0.348523
0.348533
0.348545
0.348559
0.348576
0.348596
0.348619
0.348645
0.348675
0.348705
0.348728
0.348729
0.348678
0.348519
0.348152
0.347405
0.345963
0.343391
0.339576
0.334207
0.326904
0.317251
0.304915
0.290138
0.275738
0.274578
0.331901
0.508148
0.750072
0.864386
0.347035
0.347043
0.347052
0.347062
0.347073
0.347085
0.347099
0.347116
0.347134
0.347156
0.347181
0.347211
0.347244
0.347282
0.347319
0.347345
0.347335
0.347251
0.347022
0.346536
0.345615
0.343921
0.340999
0.336754
0.330886
0.323052
0.312915
0.300316
0.285869
0.273331
0.278107
0.347987
0.527829
0.751231
0.860336
0.345699
0.345706
0.345715
0.345725
0.345738
0.345752
0.345768
0.345788
0.34581
0.345836
0.345867
0.345901
0.34594
0.345981
0.346018
0.346036
0.346011
0.345902
0.345634
0.34508
0.344029
0.342105
0.338837
0.334183
0.327866
0.319584
0.309086
0.296381
0.282446
0.271928
0.282915
0.363572
0.544159
0.751327
0.858664
0.344787
0.344797
0.34481
0.344823
0.344839
0.344856
0.344876
0.344899
0.344925
0.344956
0.344992
0.345033
0.345078
0.345127
0.345173
0.345195
0.34516
0.345009
0.344647
0.343939
0.342687
0.340517
0.336941
0.331916
0.325191
0.316521
0.305739
0.293017
0.27969
0.271354
0.288209
0.3776
0.556337
0.751162
0.859084
0.344039
0.34405
0.344064
0.34408
0.344097
0.344116
0.344138
0.344164
0.344194
0.344228
0.344268
0.344312
0.344361
0.34441
0.344448
0.344448
0.344376
0.344186
0.343798
0.343051
0.341701
0.339293
0.335351
0.329956
0.322864
0.313859
0.302864
0.29021
0.277574
0.271473
0.293715
0.38999
0.56618
0.751078
0.860899
0.344117
0.344125
0.344138
0.344152
0.344168
0.344186
0.344208
0.344232
0.344261
0.344294
0.344333
0.344376
0.344423
0.344468
0.3445
0.344489
0.344397
0.344143
0.3436
0.342622
0.340982
0.338344
0.334169
0.32841
0.32094
0.311624
0.300445
0.287878
0.275925
0.271877
0.299105
0.40015
0.572694
0.750878
0.864804
0.344598
0.344605
0.344616
0.344628
0.34464
0.344654
0.344671
0.344691
0.344714
0.344742
0.344774
0.34481
0.344848
0.344882
0.344898
0.344863
0.344734
0.344431
0.343834
0.342779
0.34102
0.338004
0.3333
0.327236
0.319447
0.309818
0.298478
0.286025
0.274708
0.272634
0.303866
0.408404
0.578056
0.750916
0.871051
0.345783
0.345783
0.345788
0.345792
0.345796
0.3458
0.345805
0.345812
0.345822
0.345834
0.345849
0.345866
0.345883
0.345891
0.345874
0.345797
0.34561
0.34523
0.344535
0.343349
0.341407
0.338209
0.333256
0.326587
0.318377
0.308497
0.296966
0.284554
0.273866
0.273686
0.308198
0.414895
0.581082
0.750965
0.879279
0.348112
0.348097
0.348089
0.348077
0.348063
0.348047
0.348029
0.348011
0.347992
0.347972
0.347953
0.347931
0.347905
0.347862
0.347782
0.347627
0.347339
0.346828
0.345967
0.344563
0.342357
0.338872
0.333583
0.326671
0.317956
0.30758
0.295904
0.283595
0.273363
0.274707
0.3117
0.419629
0.583087
0.750912
0.889475
0.351987
0.351939
0.3519
0.351853
0.351801
0.351742
0.351678
0.351608
0.351532
0.351449
0.351361
0.351264
0.351154
0.351019
0.350834
0.350557
0.350132
0.349459
0.348398
0.346744
0.344196
0.340251
0.334462
0.327144
0.318133
0.307441
0.295314
0.282868
0.273189
0.275784
0.314619
0.422776
0.583299
0.750927
0.901629
0.357785
0.357685
0.357592
0.357485
0.357365
0.357232
0.357086
0.356925
0.35675
0.356559
0.356352
0.356126
0.355874
0.355583
0.355225
0.354761
0.354133
0.353233
0.351908
0.349938
0.347012
0.342587
0.336188
0.328223
0.31874
0.307702
0.295397
0.28287
0.273304
0.276781
0.316771
0.424879
0.582955
0.751009
0.915692
0.366102
0.365914
0.365728
0.365519
0.365285
0.365027
0.364743
0.364432
0.364092
0.363722
0.363321
0.362884
0.362405