/*--------------------------------*- C++ -*----------------------------------*\
  =========                 |
  \\      /  F ield         | OpenFOAM: The Open Source CFD Toolbox
   \\    /   O peration     | Website:  https://openfoam.org
    \\  /    A nd           | Version:  8
     \\/     M anipulation  |
\*---------------------------------------------------------------------------*/
FoamFile
{
    version     2.0;
    format      ascii;
    class       volScalarField;
    location    "400";
    object      nut;
}
// * * * * * * * * * * * * * * * * * * * * * * * * * * * * * * * * * * * * * //

dimensions      [0 2 -1 0 0 0 0];

internalField   nonuniform List<scalar> 
15677
(
7.48316e-05
0.000154182
0.000258075
0.000722819
0.00180655
0.00331916
0.00477685
0.00581866
0.00636659
0.00658976
0.00667781
0.00671617
0.00671482
0.00670855
0.00670616
0.00670572
0.00670575
0.00670578
0.00670576
0.00670573
0.0067057
0.00670568
0.00670567
0.00670566
0.00670567
0.00670567
0.00670568
0.00670569
0.00670571
0.00670572
0.00670573
0.00670574
0.00670575
0.00670576
0.00670576
8.20518e-05
0.000137573
0.000177803
0.000375032
0.000873853
0.00172063
0.00284136
0.00405913
0.00517076
0.00598093
0.00641389
0.00659624
0.0066836
0.00670344
0.00670348
0.00670188
0.00670117
0.00670102
0.00670105
0.0067011
0.00670113
0.00670114
0.00670115
0.00670115
0.00670115
0.00670114
0.00670114
0.00670112
0.00670111
0.0067011
0.00670108
0.00670107
0.00670106
0.00670105
0.00670105
8.02045e-05
0.000111442
0.000147521
0.000310401
0.000665543
0.00126633
0.00211333
0.00314465
0.0042319
0.00521265
0.00595694
0.00639457
0.00659109
0.00667465
0.0066949
0.00669775
0.0066973
0.00669674
0.00669647
0.00669635
0.00669629
0.00669625
0.00669623
0.00669621
0.0066962
0.00669619
0.00669619
0.00669618
0.00669619
0.00669619
0.00669619
0.0066962
0.0066962
0.0066962
0.00669621
7.67517e-05
0.000108576
0.000125406
0.000257587
0.000566716
0.00106516
0.00176674
0.00264961
0.00364257
0.00462969
0.00548094
0.00609889
0.00645423
0.00661938
0.00667436
0.00668937
0.00669255
0.00669283
0.00669267
0.00669256
0.00669251
0.00669249
0.00669247
0.00669246
0.00669244
0.00669243
0.00669241
0.0066924
0.00669238
0.00669237
0.00669236
0.00669235
0.00669234
0.00669233
0.00669232
7.43267e-05
0.000111405
0.000122936
0.000234037
0.000504721
0.000947289
0.00156261
0.00234431
0.00325121
0.00420189
0.00508677
0.00580034
0.00628308
0.00654084
0.00664235
0.00667622
0.00668609
0.0066883
0.00668851
0.00668835
0.00668819
0.00668809
0.00668802
0.00668798
0.00668795
0.00668792
0.00668791
0.00668789
0.00668788
0.00668787
0.00668787
0.00668786
0.00668786
0.00668786
0.00668786
7.27348e-05
0.000117709
0.000123035
0.000212548
0.000461351
0.000868444
0.00142915
0.00214041
0.00297774
0.00388325
0.00476793
0.00553136
0.00609609
0.00643968
0.00659539
0.00665572
0.00667694
0.0066834
0.00668501
0.00668526
0.00668521
0.00668513
0.00668506
0.006685
0.00668495
0.00668491
0.00668488
0.00668484
0.00668482
0.00668479
0.00668477
0.00668475
0.00668473
0.00668471
0.0066847
7.17241e-05
0.000124137
0.000127113
0.000205287
0.00042792
0.000808108
0.00133249
0.0019944
0.00277796
0.00364093
0.00451137
0.00529875
0.0059206
0.00633601
0.00654053
0.00662894
0.00666413
0.00667658
0.00668035
0.00668122
0.00668125
0.00668113
0.00668101
0.00668092
0.00668085
0.0066808
0.00668076
0.00668072
0.00668069
0.00668067
0.00668065
0.00668064
0.00668063
0.00668063
0.00668062
7.10239e-05
0.000129472
0.000135623
0.000196367
0.000401303
0.000758903
0.00125713
0.00188338
0.0026256
0.00345181
0.00430329
0.00509989
0.00575981
0.00622959
0.00648031
0.00659765
0.00664882
0.00666908
0.0066763
0.00667854
0.00667908
0.00667909
0.00667899
0.00667888
0.00667878
0.00667869
0.00667862
0.00667856
0.00667851
0.00667846
0.00667842
0.00667838
0.00667835
0.00667832
0.00667829
7.05398e-05
0.000133932
0.000144979
0.000192034
0.000377245
0.000717519
0.00119505
0.00179504
0.00250562
0.00330129
0.00413327
0.00493085
0.00561556
0.00612709
0.00641778
0.00656278
0.0066305
0.00665936
0.00667049
0.00667427
0.00667531
0.00667545
0.00667536
0.00667523
0.00667512
0.00667502
0.00667494
0.00667487
0.00667481
0.00667476
0.00667471
0.00667468
0.00667465
0.00667463
0.00667462
7.01542e-05
0.00013661
0.000153671
0.000192648
0.000357517
0.000682401
0.00114333
0.00172289
0.00240861
0.00317905
0.00399282
0.00478712
0.00548788
0.00603162
0.00635625
0.00652685
0.0066113
0.00664983
0.00666602
0.00667221
0.00667426
0.00667473
0.00667471
0.00667457
0.00667441
0.00667427
0.00667415
0.00667405
0.00667396
0.00667388
0.00667382
0.00667376
0.0066737
0.00667365
0.0066736
6.98821e-05
0.000139314
0.000161888
0.000195243
0.000339929
0.0006486
0.00109781
0.0016625
0.00232926
0.00307917
0.00387655
0.00466539
0.00537618
0.00594443
0.00629719
0.00649062
0.00659071
0.00663845
0.00665941
0.00666784
0.00667085
0.00667168
0.00667179
0.00667169
0.00667154
0.00667138
0.00667124
0.00667112
0.00667101
0.00667091
0.00667083
0.00667076
0.0066707
0.00667065
0.00667061
6.97176e-05
0.000141496
0.000169155
0.000199178
0.000327574
0.000619505
0.00105702
0.00161044
0.00226261
0.00299634
0.00377979
0.00456245
0.0052793
0.00586631
0.00624268
0.00645641
0.00657155
0.00662923
0.00665607
0.00666758
0.00667201
0.00667335
0.00667359
0.00667348
0.00667329
0.00667308
0.0066729
0.00667274
0.00667261
0.0066725
0.0066724
0.00667232
0.00667224
0.00667217
0.0066721
6.96485e-05
0.000143163
0.000175707
0.000204032
0.000318917
0.000594333
0.0010213
0.00156582
0.0022076
0.00292801
0.00369962
0.00447614
0.00519661
0.00579803
0.00619339
0.00642449
0.00655275
0.00661858
0.00665003
0.00666406
0.0066698
0.00667176
0.00667227
0.00667228
0.00667213
0.00667194
0.00667174
0.00667155
0.00667137
0.0066712
0.00667104
0.0066709
0.00667077
0.00667067
0.00667058
6.96649e-05
0.00014441
0.00018106
0.00020921
0.000313404
0.000574043
0.000990557
0.00152769
0.00216092
0.00287237
0.00363382
0.00440472
0.00512699
0.00573897
0.00615074
0.00639707
0.00653787
0.00661343
0.00665105
0.00666835
0.00667562
0.00667817
0.00667885
0.00667888
0.00667868
0.00667843
0.00667818
0.00667796
0.00667777
0.00667762
0.0066775
0.00667742
0.00667737
0.00667733
0.0066773
6.97375e-05
0.00014539
0.00018585
0.000214317
0.000309892
0.000557558
0.00096446
0.0014956
0.00212258
0.00282621
0.00358121
0.00434662
0.00506994
0.0056916
0.00611505
0.00637444
0.00652541
0.00660635
0.00664764
0.00666761
0.00667655
0.00667997
0.00668108
0.00668131
0.00668124
0.00668105
0.00668084
0.00668063
0.00668042
0.00668022
0.00668002
0.0066798
0.00667957
0.00667933
0.00667909
6.98939e-05
0.00014606
0.000189458
0.000219092
0.000308325
0.000544093
0.000942675
0.00146907
0.00209197
0.00279014
0.00353938
0.004302
0.0050261
0.00565133
0.00608475
0.00635619
0.00651901
0.00661132
0.00665955
0.00668295
0.00669376
0.00669811
0.00669966
0.0067001
0.00670012
0.00669997
0.00669977
0.00669957
0.00669937
0.0066992
0.00669905
0.00669894
0.00669889
0.0066989
0.006699
7.01446e-05
0.000146545
0.000192973
0.000223438
0.000307581
0.00053398
0.00092508
0.00144825
0.00206853
0.0027632
0.00350842
0.00426773
0.00499087
0.00562753
0.00607522
0.00635311
0.00652084
0.00661621
0.0066669
0.00669215
0.00670402
0.00670901
0.00671092
0.0067116
0.00671177
0.00671175
0.00671166
0.00671154
0.00671142
0.00671132
0.00671125
0.0067112
0.00671118
0.00671117
0.00671113
7.04737e-05
0.000146783
0.0001953
0.000227656
0.00030845
0.000527549
0.00091182
0.00143213
0.00205194
0.00274549
0.00348778
0.00424628
0.00497684
0.00561561
0.00606765
0.00635406
0.00652803
0.00662784
0.00668188
0.00670947
0.00672282
0.00672872
0.00673124
0.00673232
0.00673281
0.00673304
0.00673317
0.00673324
0.0067333
0.00673335
0.00673341
0.00673348
0.00673353
0.00673357
0.00673361
7.08795e-05
0.000146741
0.000197308
0.000231005
0.000309515
0.000523011
0.000902432
0.00142254
0.00204199
0.00273451
0.00347882
0.00424108
0.00496876
0.00560969
0.00606664
0.00636073
0.00654355
0.00665022
0.00670937
0.00674054
0.00675628
0.00676365
0.00676711
0.00676888
0.0067699
0.00677058
0.00677108
0.00677149
0.00677184
0.00677215
0.00677242
0.00677265
0.00677284
0.00677297
0.0067731
7.13604e-05
0.000146591
0.00019862
0.000234508
0.00031182
0.000521469
0.000897459
0.0014158
0.00203847
0.00273619
0.00348098
0.00424083
0.00496884
0.00561505
0.00608054
0.00638265
0.0065717
0.00668362
0.00674672
0.00678088
0.00679877
0.00680787
0.00681279
0.00681574
0.00681779
0.00681939
0.00682074
0.00682192
0.00682297
0.00682391
0.00682475
0.00682551
0.00682619
0.00682681
0.00682743
7.19131e-05
0.000146263
0.000199754
0.000237405
0.00031415
0.000521344
0.000895672
0.00141716
0.00204404
0.00274304
0.00348915
0.00424964
0.00498362
0.00563707
0.00610934
0.00641796
0.00661319
0.00673057
0.00679795
0.00683539
0.0068563
0.0068681
0.00687517
0.00687997
0.00688362
0.00688661
0.00688916
0.00689142
0.00689344
0.00689527
0.00689693
0.00689845
0.00689984
0.0069011
0.0069023
7.25335e-05
0.000145744
0.000200558
0.000239418
0.000317641
0.000523922
0.000897826
0.00142155
0.00205236
0.00275476
0.00350659
0.00427366
0.00501298
0.00567284
0.0061523
0.00646775
0.00666959
0.00679235
0.00686423
0.00690563
0.00693055
0.00694558
0.00695548
0.00696286
0.00696892
0.00697421
0.00697893
0.00698322
0.00698712
0.00699067
0.0069939
0.00699685
0.00699952
0.00700192
0.00700415
7.32155e-05
0.000145084
0.000200918
0.000241517
0.000320582
0.000527971
0.000902699
0.00142966
0.00206647
0.00277629
0.00353521
0.00430922
0.00505568
0.00572348
0.00621097
0.006534
0.00674322
0.0068721
0.00694877
0.00699649
0.00702667
0.00704673
0.0070613
0.00707298
0.00708295
0.00709172
0.00709958
0.00710669
0.00711316
0.00711907
0.00712447
0.0071294
0.00713388
0.00713794
0.00714166
7.39534e-05
0.000144307
0.000200984
0.00024356
0.000324065
0.000533047
0.000910522
0.00144282
0.00208729
0.00280712
0.00357379
0.00435637
0.00511178
0.00578896
0.00628584
0.00661844
0.00683486
0.00696913
0.00705442
0.00710895
0.00714589
0.00717246
0.00719306
0.00721039
0.00722576
0.00723977
0.00725268
0.0072646
0.00727558
0.00728566
0.00729488
0.00730329
0.00731092
0.00731781
0.00732405
7.47403e-05
0.000143413
0.000200803
0.000245206
0.000327842
0.000539772
0.000921333
0.00146033
0.00211468
0.00284444
0.00362188
0.00441521
0.00518167
0.00587054
0.00637894
0.00672158
0.00694568
0.00708942
0.00718447
0.00724821
0.00729468
0.00733096
0.00736111
0.00738766
0.00741172
0.00743372
0.00745389
0.00747241
0.00748943
0.00750507
0.00751944
0.0075326
0.00754461
0.00755552
0.00756537
7.55687e-05
0.000142444
0.000200404
0.000246512
0.000332027
0.000547998
0.000934843
0.00148247
0.00214842
0.00288947
0.00367937
0.00448562
0.00526539
0.00596775
0.00649072
0.00684343
0.00707611
0.00723343
0.00733956
0.00741496
0.00747384
0.00752285
0.00756521
0.00760333
0.00763849
0.00767137
0.00770225
0.00773122
0.00775826
0.00778335
0.00780648
0.00782769
0.00784706
0.00786466
0.00788042
7.64329e-05
0.000141389
0.000199808
0.000247687
0.000336581
0.000557575
0.000950842
0.00150804
0.0021868
0.00294165
0.00374609
0.00456743
0.00536267
0.00608284
0.0066205
0.00698326
0.00723185
0.00740356
0.0075242
0.00761518
0.00769095
0.00775773
0.0078181
0.00787444
0.00792766
0.00797781
0.00802471
0.00806832
0.00810878
0.00814629
0.00818102
0.0082131
0.00824262
0.00826965
0.00829382
7.73226e-05
0.000140292
0.000199065
0.000248639
0.000341232
0.000568262
0.000969025
0.00153751
0.00223028
0.00300083
0.00382174
0.0046604
0.00547442
0.00621394
0.00676696
0.00714357
0.00741132
0.00759972
0.00773822
0.00784874
0.00794639
0.00803698
0.00812148
0.0082011
0.00827638
0.00834781
0.00841592
0.00848099
0.00854289
0.00860128
0.00865582
0.00870628
0.00875266
0.00879513
0.00883288
7.82354e-05
0.000139141
0.000198172
0.000249505
0.000346192
0.000580107
0.000989451
0.00157074
0.00227856
0.00306645
0.00390593
0.00476428
0.00560064
0.00635993
0.00692793
0.0073277
0.00761538
0.00782452
0.00798582
0.00812203
0.00824878
0.00837061
0.00848663
0.0085988
0.00870866
0.00881624
0.00892032
0.00901931
0.00911223
0.00919895
0.00927993
0.0093559
0.00942745
0.00949499
0.0095564
7.91573e-05
0.000137977
0.00019719
0.000250191
0.000351327
0.000592887
0.0010117
0.00160724
0.00233161
0.00313848
0.00399823
0.00487877
0.00574025
0.00651952
0.00710769
0.00753345
0.00784419
0.00807838
0.00826769
0.00843576
0.00859939
0.00876368
0.00892739
0.00909087
0.00925178
0.00940709
0.00955581
0.00969926
0.0098396
0.00997835
0.0101156
0.0102502
0.0103803
0.0105042
0.0106155
0.00670576
0.00670577
0.00670578
0.00670578
0.00670579
0.0067058
0.00670581
0.00670582
0.00670584
0.00670585
0.00670587
0.00670589
0.00670591
0.00670592
0.00670594
0.00670596
0.00670597
0.00670598
0.006706
0.00670601
0.00670602
0.00670603
0.00670106
0.0067011
0.00670113
0.00670116
0.00670119
0.00670122
0.00670125
0.00670127
0.0067013
0.00670132
0.00670135
0.00670138
0.0067014
0.00670143
0.00670146
0.00670148
0.00670151
0.00670154
0.00670157
0.0067016
0.00670163
0.00670166
0.00669623
0.00669628
0.00669633
0.00669639
0.00669645
0.00669652
0.00669658
0.00669665
0.00669672
0.00669679
0.00669687
0.00669694
0.00669701
0.00669708
0.00669715
0.00669721
0.00669727
0.00669733
0.00669738
0.00669743
0.00669748
0.00669753
0.00669234
0.0066924
0.00669245
0.00669251
0.00669257
0.00669262
0.00669268
0.00669274
0.0066928
0.00669287
0.00669293
0.006693
0.00669307
0.00669314
0.00669321
0.00669328
0.00669335
0.00669342
0.00669349
0.00669355
0.00669362
0.00669369
0.0066879
0.00668799
0.00668808
0.00668818
0.00668828
0.00668838
0.00668849
0.0066886
0.00668872
0.00668884
0.00668896
0.00668908
0.0066892
0.00668931
0.00668942
0.00668953
0.00668962
0.00668972
0.0066898
0.00668989
0.00668997
0.00669005
0.00668472
0.0066848
0.00668487
0.00668495
0.00668503
0.00668511
0.00668519
0.00668527
0.00668535
0.00668544
0.00668553
0.00668563
0.00668573
0.00668583
0.00668593
0.00668604
0.00668614
0.00668625
0.00668635
0.00668645
0.00668655
0.00668665
0.00668067
0.00668077
0.00668088
0.006681
0.00668112
0.00668125
0.00668139
0.00668154
0.0066817
0.00668186
0.00668202
0.00668219
0.00668235
0.0066825
0.00668264
0.00668277
0.00668289
0.00668301
0.00668313
0.00668324
0.00668334
0.00668345
0.00667831
0.00667838
0.00667846
0.00667853
0.00667861
0.00667869
0.00667877
0.00667884
0.00667893
0.00667901
0.0066791
0.0066792
0.00667932
0.00667943
0.00667956
0.00667969
0.00667982
0.00667996
0.00668009
0.00668023
0.00668036
0.00668049
0.00667466
0.00667475
0.00667485
0.00667496
0.00667509
0.00667523
0.00667539
0.00667556
0.00667575
0.00667594
0.00667614
0.00667634
0.00667652
0.00667669
0.00667684
0.00667698
0.00667711
0.00667723
0.00667735
0.00667747
0.00667759
0.0066777
0.00667359
0.00667362
0.00667365
0.00667368
0.00667371
0.00667374
0.00667375
0.00667377
0.00667378
0.0066738
0.00667384
0.0066739
0.00667398
0.00667409
0.00667423
0.00667437
0.00667453
0.00667468
0.00667484
0.00667499
0.00667514
0.00667528
0.0066706
0.0066706
0.00667062
0.00667066
0.00667074
0.00667084
0.00667099
0.00667117
0.00667137
0.00667159
0.0066718
0.00667199
0.00667216
0.00667229
0.00667239
0.00667248
0.00667256
0.00667264
0.00667272
0.00667282
0.00667292
0.00667303
0.00667202
0.00667192
0.00667182
0.00667171
0.00667158
0.00667141
0.00667121
0.00667099
0.00667077
0.00667056
0.0066704
0.00667031
0.0066703
0.00667036
0.00667048
0.00667062
0.00667078
0.00667094
0.00667108
0.00667122
0.00667133
0.00667144
0.00667041
0.00667011
0.00666984
0.00666964
0.00666953
0.00666952
0.00666962
0.0066698
0.00667002
0.00667023
0.0066704
0.00667048
0.00667047
0.00667039
0.00667026
0.00667012
0.00667
0.00666992
0.00666988
0.00666989
0.00666994
0.00667001
0.0066771
0.00667676
0.00667638
0.00667591
0.00667529
0.00667453
0.00667364
0.00667269
0.00667175
0.00667091
0.00667025
0.00666982
0.00666963
0.00666962
0.00666971
0.00666984
0.00666997
0.00667005
0.00667008
0.00667006
0.00667
0.00666993
0.00667826
0.00667678
0.00667561
0.00667483
0.00667441
0.00667435
0.00667455
0.00667488
0.00667521
0.00667539
0.00667528
0.00667483
0.0066741
0.00667323
0.00667235
0.00667155
0.00667089
0.00667042
0.00667012
0.00666996
0.00666992
0.00666996
0.00669853
0.00669747
0.00669585
0.00669391
0.00669158
0.00668876
0.00668571
0.00668265
0.00667977
0.00667732
0.00667576
0.00667496
0.00667475
0.00667487
0.00667508
0.00667523
0.00667519
0.00667493
0.00667446
0.00667385
0.00667317
0.0066725
0.00671006
0.00670779
0.00670555
0.00670332
0.00670137
0.00670004
0.00669895
0.00669796
0.00669697
0.0066958
0.0066937
0.00669099
0.00668774
0.00668448
0.00668149
0.00667897
0.00667717
0.00667611
0.00667561
0.00667546
0.00667548
0.00667558
0.0067319
0.00672829
0.00672483
0.00672159
0.00671853
0.0067156
0.00671288
0.00671027
0.00670767
0.00670499
0.00670238
0.00670003
0.00669853
0.00669734
0.00669626
0.00669515
0.00669359
0.00669146
0.00668886
0.00668619
0.00668368
0.0066815
0.00677022
0.00676408
0.006758
0.00675223
0.00674671
0.00674138
0.00673637
0.00673173
0.00672728
0.00672298
0.00671903
0.00671539
0.00671207
0.00670917
0.0067065
0.00670397
0.00670159
0.00669953
0.00669817
0.00669705
0.00669601
0.00669498
0.00682385
0.00681567
0.00680755
0.00679964
0.00679189
0.00678421
0.00677658
0.006769
0.00676157
0.00675422
0.00674724
0.00674068
0.00673458
0.00672919
0.00672454
0.00672039
0.00671675
0.0067136
0.00671076
0.00670824
0.00670597
0.00670398
0.00689728
0.00688532
0.00687337
0.00686174
0.00685036
0.00683922
0.00682829
0.00681763
0.00680735
0.00679761
0.00678826
0.00677928
0.00677078
0.00676292
0.00675555
0.00674875
0.00674248
0.00673685
0.00673168
0.00672704
0.00672293
0.00671946
0.00699735
0.00698033
0.00696328
0.00694663
0.00693037
0.00691447
0.00689894
0.00688381
0.00686915
0.00685503
0.00684144
0.00682841
0.00681624
0.00680509
0.00679491
0.00678574
0.00677754
0.00677006
0.00676316
0.00675682
0.00675102
0.00674576
0.00713252
0.00710858
0.0070846
0.00706118
0.00703829
0.00701591
0.00699407
0.00697278
0.0069521
0.00693209
0.00691277
0.00689428
0.00687708
0.00686139
0.0068471
0.00683414
0.00682241
0.00681174
0.006802
0.00679308
0.00678493
0.00677766
0.00731226
0.00727922
0.00724608
0.00721364
0.00718189
0.00715084
0.00712049
0.00709089
0.0070621
0.00703418
0.00700719
0.00698135
0.00695734
0.00693548
0.0069156
0.00689753
0.00688113
0.00686623
0.00685266
0.00684028
0.00682899
0.00681891
0.00755008
0.00750485
0.00745949
0.00741502
0.00737146
0.00732879
0.00728705
0.00724629
0.0072066
0.00716808
0.00713082
0.00709518
0.00706208
0.00703198
0.00700461
0.00697975
0.00695716
0.00693665
0.00691801
0.00690103
0.0068856
0.00687184
0.00786132
0.00780018
0.0077388
0.0076785
0.00761937
0.00756141
0.00750463
0.00744912
0.00739498
0.00734237
0.00729143
0.00724267
0.00719742
0.0071563
0.00711897
0.0070851
0.00705438
0.0070265
0.0070012
0.00697819
0.00695727
0.00693861
0.00826983
0.00818724
0.00810451
0.00802301
0.00794289
0.00786428
0.00778729
0.00771204
0.00763871
0.0075675
0.00749861
0.0074327
0.00737152
0.00731592
0.00726543
0.00721962
0.0071781
0.00714049
0.00710643
0.00707554
0.00704755
0.00702259
0.00880331
0.00869128
0.00858073
0.00847225
0.00836525
0.0082597
0.00815586
0.00805404
0.00795459
0.00785788
0.00776434
0.00767507
0.00759255
0.0075179
0.00745035
0.00738921
0.00733383
0.00728366
0.00723821
0.007197
0.00715968
0.00712639
0.00951938
0.00935653
0.00920039
0.00905181
0.00890821
0.00876786
0.00863019
0.00849528
0.00836347
0.00823503
0.00811012
0.00799001
0.00787832
0.00777705
0.00768562
0.00760336
0.00752943
0.00746292
0.00740298
0.00734878
0.00729967
0.00725572
0.0105735
0.0103243
0.0100799
0.00985098
0.00963668
0.00943395
0.00924034
0.00905419
0.00887477
0.0087028
0.00853865
0.00838256
0.00823764
0.00810535
0.00798454
0.00787455
0.00777503
0.00768554
0.00760544
0.00753382
0.00746972
0.00741293
0.00670604
0.00670604
0.00670604
0.00670604
0.00670604
0.00670604
0.00670167
0.00670167
0.00670167
0.00670167
0.00670167
0.00670167
0.00669755
0.00669755
0.00669755
0.00669755
0.00669755
0.00669755
0.00669372
0.00669372
0.00669372
0.00669372
0.00669372
0.00669372
0.00669009
0.00669009
0.00669009
0.00669009
0.00669009
0.00669009
0.0066867
0.00668671
0.00668671
0.00668671
0.00668671
0.0066867
0.00668349
0.00668349
0.00668349
0.00668349
0.00668349
0.0066835
0.00668055
0.00668056
0.00668056
0.00668056
0.00668056
0.00668055
0.00667776
0.00667775
0.00667775
0.00667775
0.00667775
0.00667776
0.00667535
0.00667535
0.00667536
0.00667536
0.00667536
0.00667535
0.00667308
0.00667308
0.00667308
0.00667308
0.00667308
0.00667308
0.00667148
0.00667146
0.00667145
0.00667145
0.00667146
0.00667149
0.00667007
0.0066701
0.00667012
0.00667012
0.0066701
0.00667008
0.00666982
0.00666971
0.00666966
0.00666966
0.00666972
0.00666983
0.00667009
0.00667024
0.00667033
0.00667033
0.00667024
0.0066701
0.00667194
0.00667161
0.00667145
0.00667146
0.00667162
0.00667196
0.00667591
0.00667627
0.00667645
0.00667645
0.00667627
0.00667591
0.0066801
0.00667958
0.00667942
0.00667942
0.0066796
0.00668013
0.00669454
0.00669459
0.0066946
0.0066946
0.0066946
0.00669455
0.00670298
0.00670287
0.0067029
0.00670291
0.00670288
0.00670301
0.00671772
0.00671751
0.00671755
0.00671755
0.00671754
0.00671776
0.00674307
0.0067427
0.00674271
0.00674272
0.00674274
0.00674313
0.00677397
0.00677363
0.00677365
0.00677366
0.00677367
0.00677404
0.0068138
0.00681331
0.00681335
0.00681336
0.00681336
0.00681389
0.00686492
0.00686432
0.00686439
0.00686441
0.00686438
0.00686503
0.00692922
0.00692845
0.00692856
0.00692858
0.00692853
0.00692936
0.00701016
0.00700927
0.00700944
0.00700947
0.00700936
0.00701032
0.00710987
0.00710888
0.00710916
0.0071092
0.00710898
0.00711007
0.00723382
0.00723247
0.00723274
0.00723278
0.00723259
0.00723404
0.00738525
0.00738394
0.00738433
0.00738438
0.00738408
0.00738552
0.00670603
0.00670602
0.00670601
0.006706
0.00670598
0.00670597
0.00670596
0.00670594
0.00670592
0.00670591
0.00670589
0.00670587
0.00670586
0.00670584
0.00670583
0.00670581
0.0067058
0.0067058
0.00670579
0.00670578
0.00670578
0.00670577
0.00670166
0.00670163
0.0067016
0.00670157
0.00670154
0.00670151
0.00670148
0.00670146
0.00670143
0.0067014
0.00670137
0.00670135
0.00670132
0.00670129
0.00670127
0.00670124
0.00670121
0.00670118
0.00670115
0.00670112
0.00670109
0.00670105
0.00669753
0.00669748
0.00669743
0.00669738
0.00669732
0.00669727
0.00669721
0.00669715
0.00669708
0.00669701
0.00669694
0.00669687
0.00669679
0.00669672
0.00669665
0.00669658
0.00669652
0.00669645
0.0066964
0.00669634
0.00669629
0.00669624
0.00669369
0.00669362
0.00669355
0.00669348
0.00669342
0.00669335
0.00669328
0.00669321
0.00669314
0.00669307
0.006693
0.00669293
0.00669286
0.0066928
0.00669274
0.00669268
0.00669262
0.00669256
0.0066925
0.00669244
0.00669239
0.00669233
0.00669005
0.00668997
0.00668989
0.0066898
0.00668971
0.00668962
0.00668952
0.00668942
0.00668931
0.0066892
0.00668908
0.00668896
0.00668884
0.00668872
0.0066886
0.00668849
0.00668838
0.00668828
0.00668818
0.00668809
0.006688
0.00668792
0.00668665
0.00668655
0.00668645
0.00668635
0.00668624
0.00668614
0.00668603
0.00668593
0.00668583
0.00668573
0.00668563
0.00668553
0.00668544
0.00668535
0.00668526
0.00668518
0.0066851
0.00668502
0.00668494
0.00668486
0.00668478
0.00668471
0.00668345
0.00668334
0.00668323
0.00668312
0.00668301
0.00668289
0.00668277
0.00668264
0.0066825
0.00668235
0.00668219
0.00668203
0.00668186
0.0066817
0.00668155
0.0066814
0.00668126
0.00668113
0.00668101
0.0066809
0.0066808
0.0066807
0.00668049
0.00668036
0.00668023
0.00668009
0.00667996
0.00667982
0.00667969
0.00667956
0.00667944
0.00667932
0.00667921
0.00667911
0.00667901
0.00667893
0.00667884
0.00667876
0.00667868
0.0066786
0.00667853
0.00667845
0.00667837
0.0066783
0.0066777
0.00667759
0.00667747
0.00667735
0.00667723
0.00667711
0.00667698
0.00667684
0.00667669
0.00667652
0.00667634
0.00667615
0.00667595
0.00667575
0.00667557
0.0066754
0.00667525
0.00667512
0.006675
0.00667489
0.0066748
0.00667471
0.00667528
0.00667514
0.00667499
0.00667484
0.00667468
0.00667453
0.00667437
0.00667423
0.0066741
0.00667399
0.00667391
0.00667385
0.00667382
0.0066738
0.00667378
0.00667377
0.00667375
0.00667372
0.00667369
0.00667365
0.00667361
0.00667358
0.00667303
0.00667292
0.00667282
0.00667273
0.00667265
0.00667257
0.00667249
0.0066724
0.0066723
0.00667217
0.00667201
0.00667181
0.0066716
0.00667139
0.00667119
0.00667102
0.00667089
0.00667079
0.00667073
0.0066707
0.00667069
0.0066707
0.00667145
0.00667134
0.00667122
0.00667109
0.00667094
0.00667079
0.00667063
0.00667049
0.00667039
0.00667033
0.00667035
0.00667045
0.00667061
0.00667082
0.00667105
0.00667127
0.00667146
0.00667162
0.00667174
0.00667184
0.00667193
0.00667202
0.00667002
0.00666994
0.0066699
0.0066699
0.00666994
0.00667003
0.00667015
0.00667029
0.00667042
0.0066705
0.00667051
0.00667043
0.00667026
0.00667004
0.00666983
0.00666967
0.00666959
0.00666962
0.00666975
0.00666998
0.00667027
0.00667058
0.00666994
0.00667001
0.00667007
0.00667009
0.00667006
0.00666998
0.00666986
0.00666973
0.00666965
0.00666968
0.00666989
0.00667033
0.00667102
0.00667188
0.00667284
0.00667379
0.00667467
0.00667542
0.006676
0.00667644
0.00667679
0.00667711
0.00666997
0.00666993
0.00666998
0.00667015
0.00667046
0.00667096
0.00667163
0.00667244
0.00667332
0.00667418
0.00667489
0.00667533
0.00667542
0.00667523
0.0066749
0.00667457
0.00667441
0.00667452
0.006675
0.00667586
0.00667709
0.00667861
0.00667252
0.00667321
0.00667389
0.00667451
0.00667497
0.00667522
0.00667525
0.0066751
0.00667489
0.0066748
0.00667504
0.00667589
0.00667754
0.00668007
0.00668301
0.00668611
0.00668918
0.00669197
0.00669423
0.00669612
0.00669765
0.00669867
0.00667559
0.00667548
0.00667547
0.00667564
0.00667618
0.00667729
0.00667915
0.00668171
0.00668471
0.00668796
0.00669118
0.00669386
0.00669593
0.0066971
0.00669811
0.00669912
0.00670022
0.0067016
0.00670364
0.00670587
0.00670811
0.00671036
0.00668156
0.00668379
0.00668633
0.00668903
0.00669164
0.00669374
0.00669525
0.00669636
0.00669744
0.00669864
0.00670015
0.00670254
0.00670521
0.00670792
0.00671056
0.0067132
0.00671596
0.00671893
0.006722
0.00672527
0.00672876
0.00673235
0.00669501
0.00669606
0.00669712
0.00669825
0.00669964
0.00670176
0.00670416
0.0067067
0.00670936
0.00671227
0.00671558
0.00671925
0.00672329
0.00672766
0.00673218
0.00673688
0.00674198
0.00674738
0.00675293
0.00675873
0.00676483
0.00677096
0.00670404
0.00670606
0.00670837
0.00671092
0.0067138
0.00671699
0.00672067
0.00672484
0.00672951
0.00673492
0.006741
0.0067476
0.00675471
0.00676215
0.00676968
0.00677735
0.00678503
0.00679275
0.00680053
0.00680844
0.00681656
0.0068247
0.00671954
0.00672307
0.00672725
0.00673196
0.00673719
0.00674288
0.00674919
0.00675601
0.00676337
0.00677121
0.00677966
0.00678869
0.00679819
0.0068081
0.00681853
0.00682931
0.00684032
0.00685153
0.00686294
0.00687458
0.0068865
0.0068984
0.00674588
0.00675122
0.00675711
0.00676353
0.0067705
0.00677804
0.00678628
0.0067955
0.00680569
0.00681681
0.00682891
0.006842
0.00685582
0.00687016
0.006885
0.00690029
0.00691594
0.00693193
0.00694824
0.00696488
0.00698188
0.0069988
0.00677781
0.0067852
0.00679347
0.0068025
0.00681234
0.00682309
0.00683489
0.00684789
0.00686218
0.00687783
0.00689493
0.0069135
0.00693313
0.00695343
0.00697436
0.00699585
0.00701786
0.00704034
0.00706328
0.0070867
0.00711059
0.00713437
0.00681911
0.00682935
0.00684079
0.00685333
0.00686703
0.00688205
0.00689854
0.00691665
0.00693653
0.00695832
0.00698219
0.00700812
0.00703554
0.00706384
0.00709297
0.00712284
0.00715339
0.00718458
0.00721638
0.00724879
0.00728178
0.00731457
0.00687209
0.00688607
0.00690172
0.00691889
0.00693772
0.00695839
0.00698108
0.007006
0.00703336
0.00706336
0.00709624
0.00713202
0.00716984
0.00720887
0.00724899
0.00729011
0.00733211
0.00737494
0.00741856
0.00746295
0.00750808
0.00755295
0.00693893
0.00695788
0.00697908
0.00700236
0.00702791
0.00705599
0.00708686
0.0071208
0.0071581
0.00719907
0.00724402
0.00729293
0.00734462
0.00739791
0.00745262
0.00750859
0.0075657
0.00762386
0.00768303
0.00774319
0.00780422
0.00786484
0.007023
0.00704833
0.00707671
0.00710795
0.00714233
0.00718021
0.00722192
0.00726781
0.00731825
0.00737363
0.00743438
0.00750049
0.00757037
0.00764248
0.00771656
0.0077924
0.00786982
0.00794865
0.00802878
0.00811005
0.0081923
0.00827413
0.0071269
0.00716068
0.00719851
0.00724018
0.00728605
0.00733656
0.00739219
0.00745343
0.0075209
0.00759525
0.00767717
0.00776667
0.00786154
0.00795942
0.00805986
0.00816243
0.00826679
0.00837259
0.00847954
0.00858769
0.00869754
0.00880848
0.00725635
0.00730094
0.0073507
0.00740552
0.00746601
0.00753298
0.00760724
0.00768964
0.00778095
0.00788178
0.00799262
0.00811302
0.00823967
0.00836963
0.0085027
0.00863858
0.00877691
0.00891759
0.00906118
0.00920934
0.0093645
0.00952567
0.00741372
0.00747136
0.00753631
0.00760875
0.0076896
0.00777969
0.00787962
0.00798974
0.00811035
0.00824203
0.00838583
0.00854224
0.00870859
0.00888256
0.00906372
0.0092513
0.00944598
0.00964934
0.00986371
0.0100919
0.0103345
0.0105807
0.00670577
0.00670577
0.00670576
0.00670575
0.00670575
0.00670573
0.00670572
0.00670571
0.0067057
0.00670569
0.00670569
0.00670569
0.00670569
0.00670571
0.00670572
0.00670575
0.00670578
0.00670579
0.00670576
0.00670573
0.00670615
0.00670855
0.00671481
0.00671616
0.00667777
0.00658969
0.0063664
0.00581822
0.00477613
0.00331829
0.00180582
0.000722412
0.00025791
0.000154125
7.48191e-05
0.00670104
0.00670104
0.00670104
0.00670105
0.00670106
0.00670108
0.00670109
0.0067011
0.00670111
0.00670111
0.00670112
0.00670112
0.00670112
0.00670111
0.0067011
0.00670107
0.00670103
0.00670101
0.00670116
0.00670188
0.00670348
0.00670345
0.00668361
0.00659623
0.0064138
0.00598066
0.00517027
0.0040585
0.00284071
0.0017201
0.000873517
0.00037486
0.000177727
0.000137547
8.20325e-05
0.00669622
0.00669622
0.00669621
0.00669621
0.00669621
0.00669621
0.00669621
0.00669621
0.00669621
0.00669622
0.00669623
0.00669624
0.00669626
0.00669629
0.00669632
0.00669638
0.00669649
0.00669676
0.00669731
0.00669775
0.0066949
0.00667464
0.00659105
0.00639448
0.00595672
0.00521227
0.00423139
0.00314409
0.00211282
0.00126595
0.0006653
0.000310269
0.000147459
0.000111417
8.01836e-05
0.00669231
0.00669231
0.00669232
0.00669233
0.00669234
0.00669235
0.00669236
0.00669237
0.00669238
0.00669239
0.0066924
0.00669241
0.00669243
0.00669245
0.00669247
0.00669253
0.00669264
0.00669281
0.00669253