/*--------------------------------*- C++ -*----------------------------------*\
  =========                 |
  \\      /  F ield         | OpenFOAM: The Open Source CFD Toolbox
   \\    /   O peration     | Website:  https://openfoam.org
    \\  /    A nd           | Version:  8
     \\/     M anipulation  |
\*---------------------------------------------------------------------------*/
FoamFile
{
    version     2.0;
    format      ascii;
    class       volScalarField;
    location    "400";
    object      p;
}
// * * * * * * * * * * * * * * * * * * * * * * * * * * * * * * * * * * * * * //

dimensions      [0 2 -2 0 0 0 0];

internalField   nonuniform List<scalar> 
15677
(
84.1462
81.1314
81.1095
81.3351
81.2988
81.2371
81.196
81.1579
81.1174
81.0755
81.0325
80.9888
80.945
80.9018
80.8637
80.8321
80.8049
80.7815
80.7613
80.7439
80.7288
80.7164
80.7065
80.6987
80.6924
80.6872
80.683
80.6795
80.6766
80.6742
80.6721
80.6704
80.6689
80.6676
80.6665
81.2216
80.2632
80.7815
80.835
80.7779
80.7769
80.7837
80.7848
80.784
80.7826
80.7803
80.7761
80.7695
80.7604
80.7498
80.7391
80.7285
80.7182
80.7086
80.6997
80.6916
80.6846
80.6789
80.6743
80.6706
80.6675
80.6649
80.6628
80.661
80.6595
80.6583
80.6572
80.6563
80.6555
80.6549
80.6849
80.4982
80.6999
80.6275
80.6138
80.626
80.6285
80.6283
80.6287
80.6293
80.6296
80.6298
80.6298
80.6294
80.6286
80.6275
80.6264
80.6252
80.6241
80.6231
80.6224
80.6218
80.6214
80.6212
80.6212
80.6213
80.6214
80.6216
80.6218
80.6221
80.6223
80.6226
80.6228
80.6231
80.6233
80.5365
80.5185
80.5596
80.5199
80.5323
80.5361
80.5341
80.5333
80.533
80.5328
80.5329
80.5334
80.5345
80.5363
80.5387
80.5414
80.5444
80.5479
80.5516
80.5557
80.5601
80.5645
80.5687
80.5725
80.576
80.5792
80.582
80.5846
80.5869
80.5889
80.5907
80.5924
80.5939
80.5952
80.5963
80.3959
80.4026
80.4056
80.3977
80.4085
80.4087
80.4096
80.4115
80.4135
80.416
80.4192
80.4235
80.4291
80.4362
80.4441
80.4524
80.461
80.4701
80.4795
80.4893
80.4993
80.5091
80.518
80.526
80.5333
80.5397
80.5455
80.5506
80.5551
80.5592
80.5628
80.566
80.5688
80.5714
80.5736
80.2776
80.2838
80.2831
80.2849
80.2899
80.2907
80.2929
80.2954
80.2983
80.3019
80.3067
80.3132
80.3218
80.3329
80.3458
80.3594
80.3738
80.3889
80.4047
80.421
80.4376
80.4538
80.4686
80.4818
80.4937
80.5042
80.5136
80.522
80.5294
80.536
80.5418
80.547
80.5516
80.5557
80.5592
80.1572
80.1611
80.1621
80.1651
80.1677
80.1696
80.1722
80.1749
80.1783
80.1829
80.1891
80.1975
80.209
80.2243
80.2424
80.2617
80.2825
80.3046
80.3277
80.3517
80.3763
80.4003
80.4222
80.4419
80.4595
80.4752
80.4892
80.5016
80.5126
80.5223
80.531
80.5387
80.5455
80.5516
80.5567
80.0159
80.0185
80.0208
80.0235
80.0257
80.0284
80.0313
80.0347
80.0391
80.045
80.0532
80.0646
80.0801
80.1009
80.1257
80.1524
80.1814
80.2122
80.2447
80.2784
80.3132
80.3471
80.3781
80.406
80.431
80.4533
80.4731
80.4907
80.5063
80.5202
80.5325
80.5434
80.5531
80.5618
80.569
79.8472
79.849
79.8518
79.8544
79.8569
79.8601
79.8636
79.8679
79.8736
79.8815
79.8923
79.9074
79.9281
79.956
79.9895
80.0257
80.0651
80.1073
80.1517
80.198
80.2458
80.2924
80.3351
80.3736
80.4081
80.4389
80.4663
80.4907
80.5123
80.5315
80.5485
80.5636
80.577
80.5889
80.5989
79.644
79.6455
79.6483
79.6512
79.6542
79.658
79.6623
79.6678
79.6752
79.6855
79.6997
79.7196
79.7468
79.7837
79.8282
79.8765
79.9292
79.9856
80.0452
80.1075
80.1718
80.2347
80.2923
80.3444
80.3911
80.4327
80.4699
80.5029
80.5322
80.5581
80.5812
80.6017
80.6199
80.6361
80.6495
79.3988
79.4001
79.4029
79.4063
79.4098
79.4142
79.4196
79.4266
79.4361
79.4494
79.4679
79.4937
79.5292
79.5774
79.6356
79.6989
79.7681
79.8424
79.9211
80.0034
80.0885
80.1719
80.2485
80.3176
80.3796
80.4351
80.4845
80.5285
80.5675
80.6022
80.6329
80.6602
80.6845
80.7061
80.7239
79.104
79.1051
79.1078
79.1116
79.1158
79.1211
79.1277
79.1364
79.1486
79.1655
79.1893
79.2224
79.2679
79.3299
79.4049
79.4867
79.5763
79.6727
79.7749
79.8819
79.9929
80.1017
80.2017
80.2921
80.3733
80.446
80.5109
80.5685
80.6198
80.6653
80.7057
80.7415
80.7735
80.8018
80.8251
78.7514
78.7521
78.7547
78.759
78.764
78.7703
78.7784
78.7893
78.8045
78.8258
78.8559
78.8977
78.9554
79.0339
79.1292
79.2333
79.3475
79.4706
79.6014
79.7386
79.8811
80.021
80.1497
80.2663
80.3712
80.4651
80.549
80.6236
80.69
80.7489
80.8013
80.8478
80.8892
80.926
80.956
78.3323
78.3328
78.3354
78.3402
78.3462
78.3537
78.3635
78.3769
78.3957
78.4223
78.4597
78.5119
78.5839
78.682
78.8012
78.9317
79.0752
79.2302
79.3951
79.5685
79.7488
79.9262
80.0897
80.238
80.3716
80.4914
80.5984
80.6937
80.7786
80.854
80.921
80.9806
81.0337
81.0808
81.1191
77.8395
77.8397
77.8423
77.8478
77.8548
77.8639
77.8757
77.8919
77.9149
77.9474
77.9933
78.0573
78.1458
78.2665
78.4135
78.5749
78.7526
78.9448
79.1499
79.3659
79.5909
79.8128
80.0179
80.2041
80.3721
80.5229
80.6577
80.7781
80.8853
80.9807
81.0654
81.1408
81.208
81.2678
81.316
77.2663
77.2663
77.269
77.275
77.2833
77.294
77.308
77.3273
77.3549
77.394
77.4494
77.5268
77.6339
77.7803
77.9589
78.1554
78.3723
78.6074
78.8589
79.1243
79.4015
79.6756
79.9293
80.1602
80.3689
80.5565
80.7246
80.8747
81.0086
81.1278
81.2339
81.3282
81.4125
81.4874
81.5474
76.6069
76.6066
76.6093
76.616
76.6255
76.638
76.6543
76.677
76.7095
76.7559
76.8216
76.9137
77.0414
77.2162
77.4301
77.6659
77.9269
78.2106
78.5148
78.8367
79.1738
79.508
79.8182
80.1011
80.3573
80.5881
80.7952
80.9804
81.1458
81.2932
81.4245
81.5414
81.646
81.7388
81.8128
75.8562
75.8557
75.8584
75.8656
75.8765
75.8907
75.9096
75.9358
75.9733
76.0273
76.1041
76.212
76.3618
76.5676
76.8202
77.0993
77.4091
77.7468
78.1098
78.4952
78.9
79.3026
79.6773
80.0199
80.3309
80.6116
80.864
81.0901
81.2923
81.4728
81.6338
81.7772
81.9056
82.0197
82.11
75.0104
75.0096
75.0123
75.0201
75.0323
75.0485
75.0697
75.0994
75.1422
75.2041
75.2923
75.4167
75.59
75.8288
76.1228
76.4486
76.8113
77.208
77.6357
78.0912
78.5714
79.0504
79.4978
79.9081
80.2815
80.6194
80.9238
81.1971
81.4419
81.6607
81.8561
82.0304
82.1867
82.3255
82.4345
74.0674
74.0662
74.0689
74.0773
74.0908
74.1087
74.1324
74.1654
74.2134
74.283
74.3828
74.5241
74.7218
74.9949
75.3322
75.7074
76.1264
76.5862
77.0838
77.6156
78.1782
78.7418
79.2699
79.7559
80.1994
80.6019
80.9653
81.2923
81.5858
81.8486
82.0835
82.2936
82.4821
82.6494
82.7798
73.0265
73.025
73.0277
73.0365
73.0512
73.0707
73.0965
73.1327
73.1854
73.2626
73.3738
73.532
73.754
74.0619
74.4437
74.8699
75.3477
75.8739
76.4455
77.0588
77.7104
78.3657
78.9823
79.5516
80.073
80.5475
80.9771
81.3647
81.7132
82.0259
82.306
82.5567
82.7823
82.9822
83.1366
71.8887
71.8868
71.8894
71.8987
71.9143
71.9353
71.963
72.0018
72.0589
72.143
72.2651
72.4394
72.6852
73.0274
73.4538
73.9316
74.4693
75.064
75.7125
76.4114
77.157
77.9105
78.6224
79.2824
79.889
80.4428
80.9458
81.4007
81.8107
82.1795
82.5103
82.8071
83.0747
83.3115
83.4925
70.6567
70.6545
70.6569
70.6666
70.683
70.7051
70.7341
70.7751
70.8358
70.926
71.0578
71.2471
71.5153
71.8906
72.3604
72.8891
73.4864
74.15
74.8769
75.6637
76.5072
77.3638
78.177
78.934
79.6326
80.2726
80.8557
81.3846
81.8627
82.2936
82.681
83.0292
83.3439
83.6221
83.8319
69.3349
69.3322
69.3345
69.3443
69.3614
69.3842
69.4141
69.4565
69.5199
69.6149
69.755
69.9576
70.2462
70.6521
71.1627
71.7401
72.3955
73.1269
73.9317
74.8071
75.7504
76.7134
77.6322
78.4914
79.2877
80.02
80.6895
81.2986
81.8508
82.3498
82.7994
83.2044
83.5716
83.8953
84.1358
67.929
67.926
67.928
67.9379
67.9552
67.9783
68.0085
68.0515
68.1164
68.2149
68.3614
68.575
68.8811
69.3141
69.8619
70.4844
71.1944
71.9906
72.8709
73.8335
74.8763
75.947
76.9739
77.9391
78.8374
79.667
80.4283
81.1232
81.7551
82.3277
82.8448
83.3117
83.7364
84.1098
84.382
66.4464
66.443
66.4448
66.4545
66.4718
66.4947
66.5244
66.567
66.6322
66.7325
66.8833
67.105
67.4251
67.8806
68.4606
69.1232
69.8828
70.7387
71.6902
72.7362
73.876
75.0532
76.1887
77.2614
78.2645
79.195
80.0521
80.8373
81.5535
82.2043
82.7936
83.3271
83.814
84.2407
84.5443
64.8957
64.8919
64.8933
64.9027
64.9196
64.9418
64.9703
65.0114
65.0754
65.1756
65.3283
65.555
65.8848
66.3575
66.9634
67.6597
68.462
69.3709
70.3869
71.5103
72.7418
74.0217
75.2637
76.4434
77.5521
78.5851
79.5406
80.4192
81.2233
81.9561
82.6213
83.2252
83.7784
84.261
84.5939
63.2859
63.2818
63.2827
63.2916
63.3079
63.3287
63.3552
63.3937
63.4551
63.5532
63.705
63.933
64.2679
64.7516
65.3764
66.0985
66.9352
67.8883
68.9602
70.1524
71.4676
72.8436
74.1871
75.4706
76.6833
77.8185
78.873
79.8462
80.7399
81.5569
82.3005
82.9775
83.6006
84.1408
84.4982
61.6278
61.6233
61.6238
61.632
61.6472
61.6662
61.6898
61.7246
61.7818
61.8756
62.0238
62.2493
62.5841
63.0722
63.7076
64.4466
65.3079
66.2951
67.412
68.6621
70.0503
71.5128
72.9504
74.3321
75.6445
76.8789
78.0305
79.0975
80.0808
80.9825
81.8052
82.5563
83.2508
83.848
84.2194
59.9305
59.9257
59.9255
59.9327
59.9465
59.963
59.983
60.013
60.0643
60.1518
60.2933
60.5124
60.8418
61.3272
61.9643
62.7103
63.5853
64.5946
65.7437
67.0384
68.486
70.0221
71.5421
73.0119
74.4161
75.7438
76.9885
78.1465
79.2172
80.2015
81.1012
81.925
82.6909
83.3423
83.7103
80.6653
80.6638
80.6623
80.6609
80.6596
80.6583
80.6571
80.656
80.6549
80.6539
80.6529
80.6521
80.6513
80.6506
80.6501
80.6496
80.6492
80.6488
80.6485
80.6483
80.6481
80.648
80.6541
80.6533
80.6526
80.6518
80.6511
80.6504
80.6497
80.6491
80.6485
80.648
80.6474
80.647
80.6465
80.6462
80.6459
80.6456
80.6454
80.6453
80.6451
80.645
80.645
80.6449
80.6238
80.6244
80.6251
80.6257
80.6263
80.6269
80.6275
80.6281
80.6287
80.6293
80.6298
80.6303
80.6308
80.6312
80.6316
80.632
80.6323
80.6326
80.6329
80.6331
80.6333
80.6335
80.598
80.6
80.6021
80.604
80.606
80.6079
80.6097
80.6115
80.6132
80.6148
80.6164
80.6179
80.6192
80.6204
80.6214
80.6223
80.6231
80.6238
80.6244
80.6249
80.6254
80.6258
80.5767
80.5802
80.5837
80.5872
80.5906
80.5939
80.5971
80.6002
80.6031
80.6059
80.6086
80.611
80.6132
80.6151
80.6168
80.6183
80.6195
80.6206
80.6214
80.6222
80.6228
80.6232
80.5641
80.5693
80.5746
80.5797
80.5848
80.5896
80.5943
80.5988
80.6031
80.6071
80.6109
80.6143
80.6174
80.6201
80.6223
80.6242
80.6258
80.6271
80.6282
80.629
80.6296
80.63
80.5639
80.571
80.5783
80.5854
80.5923
80.599
80.6053
80.6114
80.6171
80.6224
80.6274
80.6319
80.6358
80.6391
80.6419
80.6441
80.6459
80.6473
80.6483
80.649
80.6494
80.6495
80.5789
80.5884
80.5981
80.6076
80.6167
80.6254
80.6337
80.6416
80.6489
80.6557
80.6619
80.6674
80.6721
80.676
80.6791
80.6816
80.6834
80.6847
80.6855
80.6858
80.6858
80.6853
80.6124
80.6247
80.6373
80.6497
80.6615
80.6727
80.6833
80.6932
80.7023
80.7107
80.7182
80.7248
80.7303
80.7346
80.738
80.7404
80.7421
80.743
80.7433
80.743
80.7421
80.7407
80.6677
80.6833
80.6996
80.7154
80.7305
80.7446
80.7579
80.7702
80.7815
80.7916
80.8006
80.8082
80.8144
80.8191
80.8224
80.8246
80.8258
80.826
80.8254
80.8241
80.822
80.8192
80.748
80.7677
80.7884
80.8086
80.8275
80.8452
80.8617
80.8769
80.8905
80.9027
80.9132
80.9219
80.9287
80.9335
80.9367
80.9383
80.9386
80.9377
80.9358
80.9329
80.9291
80.9244
80.8567
80.8814
80.9076
80.9329
80.9566
80.9787
80.999
81.0174
81.0339
81.0483
81.0605
81.0703
81.0775
81.0823
81.0849
81.0856
81.0845
81.082
81.0783
81.0734
81.0672
81.0599
80.997
81.0277
81.0607
81.0923
81.1218
81.149
81.1738
81.1962
81.2159
81.2329
81.2469
81.2578
81.2654
81.2698
81.2715
81.2707
81.2679
81.2632
81.2569
81.2493
81.24
81.2293
81.1718
81.2097
81.2509
81.2903
81.3267
81.3602
81.3905
81.4175
81.441
81.4609
81.4769
81.4889
81.4967
81.5004
81.5008
81.4981
81.4927
81.4851
81.4757
81.4645
81.4513
81.4363
81.3831
81.4298
81.481
81.5298
81.5747
81.6157
81.6526
81.6851
81.7132
81.7364
81.7548
81.7679
81.7757
81.7784
81.7769
81.7716
81.7631
81.7519
81.7383
81.7228
81.7047
81.6843
81.6323
81.6897
81.7531
81.8134
81.8686
81.9186
81.9634
82.0026
82.036
82.0633
82.0843
82.0987
82.1063
82.1078
82.1039
82.0954
82.0829
82.0671
82.0485
82.0276
82.0035
81.9766
81.9193
81.9897
82.0682
82.1424
82.2101
82.2712
82.3256
82.373
82.4128
82.445
82.4691
82.485
82.4924
82.4921
82.4853
82.4729
82.4556
82.4343
82.4096
82.3822
82.351
82.3163
82.2427
82.3289
82.4257
82.517
82.6
82.6747
82.7409
82.798
82.8459
82.884
82.912
82.9297
82.9369
82.9347
82.9245
82.9074
82.8844
82.8566
82.8247
82.7896
82.7499
82.7059
82.5991
82.7044
82.8238
82.9359
83.0376
83.1289
83.2095
83.2789
83.3365
83.3821
83.4151
83.4352
83.4424
83.4381
83.424
83.4015
83.372
83.3365
83.2963
83.2522
83.2027
83.1479
82.9827
83.1115
83.2584
83.396
83.5206
83.6324
83.7308
83.8152
83.8851
83.94
83.9794
84.0029
84.0106
84.0042
83.9859
83.9574
83.9204
83.8763
83.8266
83.7721
83.7113
83.6442
83.3855
83.5427
83.7234
83.8921
84.0448
84.1817
84.3021
84.4053
84.4905
84.5573
84.6051
84.6334
84.6424
84.6342
84.6115
84.5765
84.5312
84.4774
84.4168
84.3508
84.2772
84.196
83.7963
83.9882
84.21
84.4167
84.6038
84.7716
84.9193
85.0458
85.1504
85.2324
85.2912
85.3262
85.3376
85.3282
85.3012
85.2593
85.2051
85.1407
85.0681
84.9891
84.9013
84.8041
84.2012
84.4349
84.7067
84.9596
85.1888
85.3946
85.5758
85.7314
85.8604
85.9618
86.0351
86.0795
86.0952
86.0857
86.0548
86.006
85.9423
85.8664
85.7808
85.6875
85.5839
85.4691
84.5828
84.8666
85.1989
85.5077
85.7882
86.0404
86.2632
86.4549
86.6144
86.7407
86.8329
86.8902
86.9128
86.9048
86.8709
86.8155
86.7421
86.654
86.5543
86.4456
86.3248
86.1905
84.9208
85.2641
85.669
86.0452
86.3877
86.6965
86.9701
87.2066
87.4043
87.5621
87.6789
87.7537
87.7866
87.7825
87.7472
87.6858
87.6029
87.5023
87.3877
87.2624
87.123
86.9677
85.1915
85.6045
86.0961
86.5527
86.9699
87.3474
87.683
87.9745
88.2198
88.4173
88.5659
88.664
88.7117
88.7148
88.6803
88.6143
88.5223
88.4092
88.2793
88.1365
87.9773
87.7993
85.3688
85.8619
86.4561
87.008
87.5141
87.974
88.3847
88.7434
89.0474
89.2948
89.4839
89.6129
89.6813
89.696
89.6653
89.5967
89.4969
89.3716
89.2261
89.0653
88.8854
88.6831
85.4245
86.0074
86.7222
87.3863
87.9978
88.5558
89.0567
89.4967
89.8726
90.1817
90.422
90.5909
90.6874
90.7193
90.6966
90.6284
90.5226
90.3862
90.2255
90.0464
89.8451
89.6175
85.3273
86.007
86.8613
87.6562
88.3911
89.065
89.6732
90.211
90.6743
91.0597
91.3643
91.5845
91.7186
91.775
91.7659
91.702
91.593
91.447
91.2719
91.0745
90.8515
90.5975
85.04
85.8263
86.8415
87.7898
88.6701
89.4813
90.217
90.8712
91.4388
91.9157
92.2986
92.5828
92.7653
92.8552
92.8668
92.8128
92.7045
92.5519
92.3642
92.1495
91.905
91.6255
80.6479
80.6478
80.6478
80.6478
80.6479
80.648
80.6449
80.6448
80.6448
80.6449
80.6449
80.6451
80.6337
80.6337
80.6338
80.6338
80.6338
80.6338
80.626
80.6262
80.6263
80.6264
80.6263
80.6262
80.6236
80.624
80.6241
80.6242
80.6241
80.6238
80.6304
80.631
80.6312
80.6313
80.6311
80.6306
80.6499
80.6508
80.6512
80.6513
80.6509
80.6501
80.6856
80.6868
80.6874
80.6874
80.6869
80.6858
80.7407
80.7424
80.7432
80.7432
80.7425
80.7409
80.8187
80.8211
80.8222
80.8222
80.8212
80.8189
80.9232
80.9264
80.9278
80.9279
80.9265
80.9234
81.0578
81.062
81.0638
81.0639
81.0621
81.058
81.226
81.2315
81.2338
81.2338
81.2316
81.2261
81.4313
81.4384
81.4413
81.4414
81.4385
81.4315
81.6773
81.6863
81.6899
81.69
81.6864
81.6774
81.967
81.9784
81.9829
81.9829
81.9784
81.9671
82.3036
82.3177
82.3232
82.3233
82.3178
82.3037
82.6896
82.707
82.7136
82.7136
82.707
82.6896
83.1273
83.1486
83.1565
83.1565
83.1486
83.1273
83.6186
83.6444
83.6537
83.6538
83.6444
83.6186
84.1647
84.1957
84.2067
84.2068
84.1958
84.1646
84.7665
84.8035
84.8163
84.8164
84.8035
84.7663
85.4243
85.4682
85.483
85.4831
85.4682
85.424
86.1378
86.1897
86.2067
86.2067
86.1896
86.1375
86.9062
86.9671
86.9865
86.9865
86.967
86.9059
87.7284
87.7994
87.8214
87.8214
87.7993
87.7279
88.6019
88.6843
88.7092
88.7092
88.6842
88.6013
89.5254
89.6205
89.6485
89.6485
89.6204
89.5247
90.4935
90.6027
90.6339
90.6338
90.6026
90.4926
91.5096
91.6328
91.6677
91.6676
91.6325
91.5087
80.6482
80.6484
80.6486
80.6489
80.6493
80.6497
80.6502
80.6507
80.6514
80.6521
80.6529
80.6539
80.6549
80.656
80.6571
80.6583
80.6596
80.6609
80.6623
80.6637
80.6652
80.6668
80.6452
80.6453
80.6454
80.6456
80.6458
80.646
80.6463
80.6466
80.6469
80.6474
80.6478
80.6484
80.649
80.6496
80.6502
80.6509
80.6517
80.6524
80.6532
80.654
80.6548
80.6557
80.6338
80.6336
80.6335
80.6333
80.6331
80.6329
80.6327
80.6324
80.632
80.6317
80.6313
80.6308
80.6303
80.6298
80.6293
80.6287
80.6282
80.6277
80.6271
80.6266
80.626
80.6254
80.626
80.6257
80.6254
80.6249
80.6244
80.6238
80.623
80.6222
80.6212
80.6201
80.6189
80.6175
80.6159
80.6143
80.6127
80.611
80.6092
80.6074
80.6055
80.6036
80.6017
80.5998
80.6235
80.6231
80.6226
80.622
80.6212
80.6202
80.6191
80.6177
80.6161
80.6142
80.6121
80.6097
80.6071
80.6043
80.6014
80.5984
80.5953
80.5921
80.5888
80.5854
80.582
80.5787
80.6302
80.63
80.6295
80.6288
80.6278
80.6266
80.6251
80.6232
80.6211
80.6185
80.6155
80.6121
80.6083
80.6043
80.6001
80.5957
80.5911
80.5863
80.5814
80.5763
80.5712
80.5662
80.6498
80.6498
80.6496
80.649
80.648
80.6467
80.645
80.6428
80.6402
80.6369
80.6331
80.6287
80.6238
80.6184
80.6127
80.6067
80.6004
80.5939
80.5871
80.5801
80.573
80.5661
80.6856
80.6862
80.6864
80.6862
80.6855
80.6843
80.6825
80.6802
80.6771
80.6733
80.6687
80.6632
80.657
80.6502
80.6429
80.6351
80.6269
80.6183
80.6093
80.6
80.5905
80.5813
80.741
80.7426
80.7436
80.744
80.7438
80.743
80.7414
80.7391
80.7358
80.7315
80.7262
80.7196
80.7121
80.7037
80.6945
80.6847
80.6741
80.663
80.6514
80.6392
80.6268
80.6149
80.8196
80.8225
80.8248
80.8262
80.8269
80.8268
80.8257
80.8236
80.8203
80.8157
80.8096
80.802
80.793
80.7828
80.7715
80.7592
80.746
80.7319
80.717
80.7014
80.6854
80.6701
80.9248
80.9297
80.9337
80.9367
80.9387
80.9396
80.9394
80.9379
80.9348
80.93
80.9233
80.9146
80.904
80.8918
80.8781
80.8629
80.8465
80.8288
80.81
80.7901
80.7697
80.7504
81.0603
81.0678
81.0742
81.0793
81.0831
81.0857
81.0868
81.0861
81.0836
81.0789
81.0717
81.0619
81.0496
81.0351
81.0185
81
80.9797
80.9577
80.9342
80.9091
80.8832
80.8591
81.2298
81.2407
81.2502
81.258
81.2644
81.2691
81.272
81.2728
81.2711
81.2667
81.2592
81.2483
81.2341
81.217
81.1972
81.1747
81.1498
81.1226
81.0933
81.0619
81.0294
80.9993
81.4368
81.4521
81.4656
81.4769
81.4865
81.4941
81.4994
81.5021
81.5018
81.498
81.4903
81.4783
81.462
81.4419
81.4182
81.391
81.3606
81.3272
81.2909
81.2519
81.2111
81.1738
81.6848
81.7055
81.7239
81.7397
81.7533
81.7646
81.7731
81.7783
81.7798
81.777
81.7692
81.7561
81.7375
81.7139
81.6856
81.6528
81.6158
81.5748
81.53
81.4816
81.4309
81.3849
81.9771
82.0045
82.0289
82.0501
82.0688
82.0846
82.097
82.1054
82.1091
82.1076
82.1
82.0855
82.0642
82.0366
82.0028
81.9633
81.9182
81.8681
81.8131
81.7532
81.6903
81.6338
82.3168
82.3521
82.3837
82.4114
82.4361
82.4574
82.4746
82.4869
82.4935
82.4936
82.4862
82.4703
82.4457
82.4131
82.3727
82.325
82.2703
82.209
82.1414
82.0676
81.9898
81.9205
82.7065
82.7511
82.7912
82.8267
82.8586
82.8865
82.9093
82.9261
82.9361
82.9381
82.9308
82.913
82.8845
82.8458
82.7974
82.7397
82.6731
82.5982
82.5153
82.4244
82.3284
82.2434
83.1485
83.204
83.2541
83.2986
83.3389
83.3743
83.4036
83.4257
83.4395
83.4435
83.4362
83.4159
83.3823
83.3361
83.2777
83.2076
83.1265
83.0349
82.9332
82.8216
82.7032
82.5993
83.6448
83.7129
83.7743
83.8291
83.879
83.923
83.9597
83.9877
84.0056
84.0116
84.0038
83.9801
83.94
83.8842
83.8134
83.728
83.6289
83.5168
83.3922
83.2552
83.1094
82.9823
84.1967
84.279
84.3533
84.4197
84.4804
84.534
84.5789
84.6134
84.6356
84.6433
84.6341
84.6056
84.557
84.4891
84.4027
84.2984
84.1771
84.0397
83.887
83.7189
83.5397
83.3844
84.8049
84.9033
84.992
85.0714
85.1441
85.2083
85.262
85.3032
85.3296
85.3384
85.3267
85.2915
85.2316
85.1483
85.0422
84.9143
84.7656
84.5972
84.41
84.204
83.9839
83.7945
85.4699
85.5861
85.6907
85.7845
85.8702
85.9458
86.0089
86.0569
86.0869
86.0958
86.0797
86.0351
85.9605
85.8574
85.7267
85.5694
85.3868
85.1803
84.951
84.699
84.4292
84.1985
86.1914
86.3273
86.4492
86.5585
86.6582
86.7459
86.8186
86.8731
86.9059
86.9131
86.8902
86.8326
86.7388
86.6105
86.4488
86.255
86.0306
85.7774
85.4969
85.1891
84.8593
84.579
86.9686
87.1259
87.2664
87.3924
87.5069
87.6071
87.6891
87.7493
87.7834
87.7866
87.7534
87.6783
87.5594
87.3991
87.1987
86.9598
86.6842
86.3742
86.0316
85.6568
85.2549
84.9158
87.8003
87.9805
88.1409
88.2843
88.4142
88.5268
88.6176
88.6823
88.7154
88.7113
88.6632
88.5647
88.4137
88.213
87.9645
87.6701
87.3321
86.9532
86.536
86.081
85.5931
85.1851
88.6842
88.8889
89.0702
89.2317
89.377
89.5016
89.6001
89.667
89.6961
89.6803
89.6116
89.4822
89.29
89.0388
88.7308
88.3686
87.9551
87.4936
86.9875
86.4376
85.8479
85.3609
89.6187
89.849
90.0517
90.2315
90.392
90.5275
90.6317
90.698
90.7188
90.6856
90.5889
90.4195
90.1754
89.8617
89.481
89.0368
88.5326
87.9728
87.3615
86.6998
85.9905
85.4148
90.5987
90.8556
91.0803
91.2783
91.4531
91.5978
91.705
91.7666
91.7736
91.7157
91.5817
91.3609
91.0516
90.6607
90.1917
89.6489
89.0369
88.361
87.6263
86.8344
85.9868
85.3157
91.6267
91.9094
92.1556
92.3708
92.558
92.7091
92.8152
92.8666
92.8526
92.7612
92.5791
92.2942
91.9055
91.4219
90.8475
90.1873
89.4472
88.6338
87.754
86.8095
85.8024
85.0262
80.6681
80.6692
80.6706
80.6721
80.6739
80.676
80.6785
80.6814
80.685
80.6892
80.6944
80.7008
80.7087
80.7186
80.7311
80.7462
80.7637
80.7839
80.8073
80.8346
80.8663
80.9044
80.9476
80.9914
81.0351
81.0781
81.1201
81.1606
81.1987
81.2398
81.3015
81.3378
81.1121
81.1342
84.149
80.6565
80.6572
80.6581
80.659
80.6602
80.6615
80.663
80.6649
80.667
80.6696
80.6728
80.6766
80.6813
80.687
80.694
80.7022
80.7111
80.7208
80.731
80.7416
80.7523
80.763
80.7721
80.7787
80.7829
80.7853
80.7866
80.7874
80.7864
80.7796
80.7806
80.8376
80.7841
80.2659
81.2241
80.6251
80.625
80.6248
80.6247
80.6245
80.6243
80.6241
80.624
80.6238
80.6238
80.6237
80.6238
80.624
80.6244
80.625
80.6258
80.6268
80.6279
80.6291
80.6303
80.6313
80.6322
80.6326
80.6326
80.6324
80.632
80.6315
80.6311
80.6312
80.6288
80.6166
80.6303
80.7027
80.5011
80.6876
80.5983
80.5973
80.5961
80.5947
80.5932
80.5915
80.5895
80.5873
80.5848
80.582
80.5788
80.5754
80.5716
80.5674
80.563
80.5586
80.5545
80.5508
80.5473
80.5443
80.5416
80.5392
80.5374
80.5363
80.5358
80.5357
80.536
80.5362
80.537
80.539
80.5353
80.5228
80.5625
80.5214
80.5394
80.5757
80.5737
80.5713
80.5686
80.5655
80.5621
80.5581
80.5536
80.5486
80.5429
80.5364
80.5292
80.5212
80.5123
80.5025
80.4924
80.4827
80.4732
80.4641
80.4554
80.4472
80.4392
80.4322
80.4266
80.4223
80.419
80.4166
80.4145
80.4126
80.4118
80.4115
80.4007
80.4087
80.4057
80.399
80.5615
80.5583
80.5544
80.5499
80.5449
80.5392
80.5327
80.5254
80.5171
80.5077
80.4972
80.4853
80.4721
80.4573
80.4411
80.4244
80.4081
80.3922
80.3771
80.3626
80.349
80.3361
80.325
80.3164
80.3099
80.3051
80.3014
80.2986
80.2961
80.2938
80.293
80.2881
80.2862
80.2869
80.2807
80.5592
80.5544
80.5486
80.5419
80.5344
80.5259
80.5162
80.5053
80.4929
80.479
80.4633
80.4457
80.4259
80.404
80.38
80.3553
80.3312
80.3081
80.2859
80.2651
80.2457
80.2276
80.2123
80.2008
80.1923
80.1861
80.1815
80.1781
80.1754
80.1728
80.1709
80.1683
80.1653
80.1643
80.1604
80.5716
80.5647
80.5564
80.5469
80.5361
80.524
80.5102
80.4947
80.4771
80.4573
80.435
80.41
80.382
80.351
80.317
80.2822
80.2483
80.2158
80.1849
80.1559
80.1291
80.1042
80.0833
80.0678
80.0564
80.0482
80.0423
80.0379
80.0345
80.0316
80.0288
80.0267
80.024
80.0217
80.0191
80.6016
80.592
80.5804
80.5672
80.5523
80.5355
80.5164
80.4949
80.4706
80.4432
80.4124
80.3778
80.3393
80.2965
80.2497
80.2018
80.1554
80.1109
80.0686
80.0291
79.9928
79.9592
79.9312
79.9105
79.8954
79.8846
79.8767
79.871
79.8667
79.8632
79.86
79.8575
79.8548
79.8521
79.8503
80.6523
80.6393
80.6234
80.6055
80.5852
80.5623
80.5365
80.5073
80.4743
80.4372
80.3955
80.3487
80.2966
80.2388
80.1758
80.1113
80.0489
79.9891
79.9326
79.8798
79.8314
79.7868
79.7498
79.7225
79.7027
79.6884
79.6781
79.6707
79.6652
79.6609
79.6571
79.6541
79.6512
79.6484
79.6469
80.7267
80.7093
80.6881
80.6641
80.6371
80.6065
80.572
80.533
80.4891
80.4397
80.3842
80.322
80.2528
80.1761
80.0925
80.0072
79.9247
79.8458
79.7714
79.702
79.6385
79.5802
79.532
79.4964
79.4706
79.452
79.4388
79.4292
79.4222
79.4168
79.4124
79.4089
79.4055
79.4027
79.4014
80.828
80.8051
80.7772
80.7455
80.7099
80.6697
80.6243
80.5732
80.5155
80.4507
80.3779
80.2965
80.206
80.1057
79.9967
79.8855
79.7783
79.6759
79.5793
79.4895
79.4075
79.3324
79.2703
79.2247
79.1916
79.1678
79.1508
79.1387
79.1299
79.1233
79.118
79.1139
79.11
79.1073
79.1063
80.9588
80.9293
80.8929
80.8518
80.8056
80.7534
80.6946
80.6283
80.5536
80.4698
80.3758
80.2707
80.1539
80.0249
79.8847
79.742
79.6045
79.4735
79.3502
79.2357
79.1314
79.036
78.9573
78.8995
78.8577
78.8276
78.8062
78.791
78.7801
78.7721
78.7658
78.7608
78.7564
78.7538
78.7531
81.1218
81.0841
81.0373
80.9846
80.9253
80.8585
80.7832
80.6984
80.603
80.4959
80.3761
80.2423
80.0937
79.9299
79.7521
79.5715
79.3979
79.2326
79.0774
78.9337
78.8029
78.6835
78.5852
78.5131
78.4609
78.4235
78.3969
78.3781
78.3647
78.3549
78.3473
78.3414
78.3365
78.3339
78.3334
81.3185
81.2709
81.2116
81.1447
81.0696
80.985
80.8898
80.7826
80.6623
80.5273
80.3763
80.2081
80.0216
79.8162
79.5939
79.3685
79.1521
78.9468
78.7542
78.5762
78.4146
78.2674
78.1465
78.0579
77.9938
77.9478
77.9153
77.8923
77.8761
77.8643
77.8552
77.8482
77.8427
77.8401
77.8399
81.5497
81.4903
81.4159
81.332
81.2379
81.1321
81.013
80.8791
80.7289
80.5607
80.3729
80.164
79.9328
79.6786
79.4041
79.1264
78.8606
78.6088
78.3732
78.156
77.9593
77.7804
77.6338
77.5265
77.449
77.3936
77.3544
77.3269
77.3075
77.2935
77.2828
77.2746
77.2685
77.2659
77.2659
81.8149
81.7416
81.6492
81.5451
81.4284
81.2973
81.15
80.9846
80.7993
80.592
80.361
80.1045
79.8212
79.5106
79.1759
78.8382
78.5158
78.2113
77.9271
77.6657
77.4296
77.2154
77.0403
76.9125
76.8203
76.7545
76.7081
76.6756
76.6529
76.6366
76.6241
76.6145
76.6079
76.6052
76.6055
82.1118
82.0222
81.9086
81.7806
81.6374
81.4767
81.2963
81.094
80.8678
80.6152
80.3342
80.0228
79.6798
79.3046
78.9015
78.4961
78.1101
77.7466
77.4084
77.0982
76.8187
76.5658
76.3597
76.2097
76.1017
76.0249
75.9709
75.9333
75.9071
75.8882
75.8739
75.8631
75.8558
75.8532
75.8537
82.436
82.3277
82.1895
82.0335
81.8595
81.6643
81.4455
81.2007
80.9272
80.6226
80.2844
79.9106
79.4998
79.0518
78.5721
78.0913
77.6351
77.2069
76.8096
76.4465
76.1202
75.8259
75.5867
75.4132
75.2887
75.2004
75.1385
75.0957
75.066
75.0447
75.0286
75.0164
75.0086
75.0059
75.0067
82.781
82.6513
82.4846
82.2964
82.0866
81.8518
81.589
81.2955
80.9683
80.6046
80.2018
79.7578
79.2713
78.7425
78.1782
77.6148
77.0823
76.5841
76.1236
75.7041
75.3284
74.9906
74.7172
74.5193
74.3778
74.2779
74.2083
74.1603
74.1273
74.1036
74.0857
74.0722
74.0638
74.0612
74.0623
83.1374
82.9837
82.7843
82.5592
82.3087
82.0288
81.7161
81.3675
80.9797
80.5498
80.0748
79.5529
78.9829
78.3656
77.7094
77.0571
76.4429
75.8706
75.3437
74.8654
74.4386
74.0562
73.748
73.5257
73.3674
73.256
73.1788
73.1261
73.0899
73.0641
73.0446
73.03
73.0211
73.0184
73.0199
83.4928
83.3126
83.0763
82.8092
82.5127
82.1819
81.8132
81.403
80.9479
80.4445
79.8902
79.283
78.6223
77.9095
77.1552
76.4086
75.7088
75.0595
74.4641
73.9257
73.4472
73.0203
72.6775
72.4315
72.257
72.1348
72.0507
71.9936
71.9547
71.9271
71.9061
71.8905
71.8812
71.8786
71.8805
83.8317
83.6227
83.3452
83.0308
82.6829
82.2956
81.8646
81.3864
80.8572
80.2737
79.6331
78.9339
78.1761
77.362
76.5044
75.6599
74.872
74.1442
73.4798
72.8816
72.3522
71.8818
71.506
71.2374
71.0479
70.916
70.8258
70.7651
70.7241
70.6951
70.673
70.6566
70.6469
70.6445
70.6467
84.135
83.8954
83.5723
83.2055
82.8007
82.3512
81.8522
81.2999
80.6904
80.0204
79.2875
78.4906
77.6304
76.7106
75.7465
74.802
73.9255
73.1197
72.3873
71.731
71.1529
70.6414
70.235
69.946
69.7432
69.603
69.5079
69.4445
69.4021
69.3722
69.3494
69.3324
69.3225
69.3203
69.3229
84.3805
84.1093
83.7365
83.3123
82.8456
82.3285
81.756
81.1239
80.4285
79.6667
78.8365
77.9374
76.9713
75.9432
74.8713
73.8272
72.8634
71.9819
71.1846
70.4736
69.8502
69.3015
68.8679
68.5614
68.3476
68.2009
68.1023
68.0374
67.9944
67.9643
67.9412
67.9239
67.914
67.912
67.915
84.5422
84.2395
83.8135
83.327
82.7938
82.2046
81.5537
80.8373
80.0517
79.194
78.2629
77.2588
76.1851
75.0484
73.8698
72.7286
71.6812
70.7284
69.8713
69.1105
68.4469
67.866
67.4097
67.0892
66.8672
66.7162
66.6159
66.5507
66.5081
66.4785
66.4556
66.4382
66.4285
66.4268
66.4302
84.5911
84.2592
83.7773
83.2244
82.6208
81.9557
81.2228
80.4185
79.5395
78.5834
77.5496
76.44
75.2591
74.0159
72.7344
71.5014
70.3764
69.359
68.4487
67.6451
66.9477
66.3407
65.8671
65.5368
65.3098
65.157
65.0567
64.9927
64.9516
64.9232
64.901
64.884
64.8746
64.8732
64.877
84.4946
84.1382
83.5987
82.9761
82.2993
81.5559
80.7388
79.8448
78.8711
77.816
76.68
75.4663
74.1815
72.8366
71.459
70.1421
68.9482
67.8747
66.92
66.0819
65.3585
64.7325
64.2478
63.9124
63.684
63.532
63.4338
63.3725
63.334
63.3075
63.2867
63.2704
63.2615
63.2605
63.2647
84.215
83.8447
83.2482
82.5542
81.8034
80.9808
80.079
79.0954
78.0279
76.8757
75.6404
74.3269
72.9439
71.5048
70.0404
68.6504
67.3984
66.2797
65.2908
64.4278
63.6874
63.0506
62.5614
62.226
62.0001
61.8517
61.7578
61.7007
61.6658
61.6422
61.6232
61.608
61.5998
61.5994
61.6039
83.7052
83.3382
82.6876
81.9222
81.0988
80.1991
79.2147
78.1438
76.9852
75.7399
74.4112
73.0059
71.5347
70.013
68.4749
67.0253
65.7285
64.5774
63.5661
62.6893
61.9417
61.3031
60.8165
60.4863
60.2668
60.125
60.0374
59.9861
59.9562
59.9362
59.9197
59.906
59.8988
59.899
59.9038
58.016
58.0112
58.0104
58.0166
58.0285
58.0419
58.0573
58.081
58.1244
58.2026
58.3336
58.5412
58.8588
59.3332
59.9621
60.7046
61.5822
62.6018
63.7709
65.0981
66.5937
68.194
69.7908
71.3473
72.8448
74.2683
75.6073
76.8553
78.0104
79.073
80.045
80.937
81.7705
82.4668
82.8101
55.8762
55.8709
55.8693
55.8742
55.8837
55.8928
55.9017
55.9166
55.9489
56.0139
56.1293
56.3185
56.6157
57.067
57.6731
58.3962
59.2585
60.2688
61.437
62.7748
64.2963
65.9411
67.5981
69.225
70.7963
72.2927
73.7023
75.0197
76.2445
77.3777
78.4206
79.3853
80.2974
81.0499
81.3448
53.7292
53.7236
53.7209
53.7239
53.7303
53.7342
53.7355
53.7401
53.7592
53.8079
53.9032
54.0686
54.3372
54.7537
55.3219
56.0082
56.8347
57.8117
58.9516
60.2694
61.7822
63.4321
65.1045
66.7514
68.347
69.8757
71.3297
72.7054
74.0008
75.2137
76.3415
77.395
78.4026
79.2268
79.488
51.6017
51.5957
51.5921
51.5931
51.5961
51.5945
51.5877
51.5809
51.5853
51.6154
51.6874
51.8243