/*--------------------------------*- C++ -*----------------------------------*\
  =========                 |
  \\      /  F ield         | OpenFOAM: The Open Source CFD Toolbox
   \\    /   O peration     | Website:  https://openfoam.org
    \\  /    A nd           | Version:  8
     \\/     M anipulation  |
\*---------------------------------------------------------------------------*/
FoamFile
{
    version     2.0;
    format      ascii;
    class       volScalarField;
    location    "0.38";
    object      nut;
}
// * * * * * * * * * * * * * * * * * * * * * * * * * * * * * * * * * * * * * //

dimensions      [0 2 -1 0 0 0 0];

internalField   nonuniform List<scalar> 
15677
(
0.000168246
0.000653037
0.000148413
0.00151386
0.000442479
0.000141513
0.00267569
0.000875862
0.000381146
0.000142388
0.00392151
0.00151899
0.000686631
0.000354242
0.000145484
0.00502448
0.0023562
0.00114639
0.000585564
0.00034024
0.000151244
0.00584093
0.00331744
0.00178074
0.000947588
0.000529189
0.000331989
0.000157041
0.00633518
0.00429874
0.0025676
0.00146301
0.000820645
0.000492337
0.00032696
0.000162483
0.00656292
0.00518778
0.00345288
0.00213118
0.00125674
0.000736869
0.000467292
0.000324077
0.000167247
0.00665849
0.00589356
0.0043554
0.00292163
0.00184085
0.00111158
0.000676972
0.000450264
0.0003225
0.000171458
0.00670551
0.00633837
0.00518099
0.00377847
0.00255612
0.00163068
0.00100381
0.000633637
0.000438519
0.000321931
0.000175001
0.00671439
0.00655356
0.0058455
0.00462484
0.00336184
0.00228501
0.00147141
0.00092328
0.000601731
0.000430583
0.000321867
0.000178109
0.00670993
0.00666159
0.00629578
0.00537681
0.00419608
0.00304353
0.00207607
0.00134748
0.000861287
0.000578107
0.000425135
0.000322327
0.000180694
0.00670632
0.00669877
0.00652963
0.00596429
0.00498347
0.00385547
0.00279361
0.00190952
0.00124962
0.000813101
0.000560409
0.000421645
0.000322958
0.000183005
0.00670547
0.00670436
0.00664685
0.00635687
0.00564955
0.00465414
0.003581
0.00259075
0.00177544
0.00117122
0.000775367
0.000547239
0.000419327
0.000323845
0.000185016
0.00670555
0.00670279
0.00668793
0.00656291
0.00614174
0.00536706
0.00437897
0.00335374
0.0024248
0.0016654
0.00110784
0.000745581
0.000537239
0.000418085
0.000324682
0.000186791
0.00670575
0.0067015
0.00669647
0.00665655
0.00644654
0.00593266
0.00511894
0.00414532
0.00316481
0.00228633
0.00157505
0.00105607
0.000722048
0.000529958
0.000417241
0.000325705
0.000188414
0.00670588
0.00670096
0.00669726
0.00668484
0.00660474
0.00632118
0.00573583
0.00490081
0.00394705
0.00300499
0.00217105
0.00149976
0.00101431
0.000703544
0.000524358
0.0004171
0.000326625
0.000189792
0.00670596
0.00670077
0.00669694
0.00669151
0.0066637
0.00654092
0.00618712
0.00555441
0.00471064
0.00377671
0.00287023
0.00207379
0.00143773
0.000980191
0.000688907
0.000520474
0.000417057
0.000327683
0.00019119
0.00670599
0.00670069
0.00669673
0.00669247
0.00668237
0.00663433
0.0064671
0.00605615
0.0053905
0.00454393
0.00363108
0.00275538
0.00199259
0.0013861
0.0009527
0.000677511
0.000517488
0.000417567
0.000328641
0.000192275
0.00670602
0.00670065
0.00669667
0.0066923
0.00668745
0.00666891
0.00659762
0.0063883
0.00593234
0.00524281
0.004399
0.00350569
0.00265843
0.00192432
0.00134396
0.000930376
0.00066868
0.000515742
0.000417988
0.000329692
0.000193572
0.00670603
0.00670061
0.00669667
0.00669208
0.00668849
0.00668051
0.00665121
0.00655547
0.00630923
0.00581648
0.00511165
0.00427256
0.00339879
0.00257635
0.00186804
0.00130922
0.00091295
0.000662054
0.000514411
0.000418907
0.000330707
0.000194435
0.00670603
0.00670059
0.00669669
0.00669195
0.00668856
0.00668381
0.00667166
0.00662989
0.00651017
0.00623079
0.00571073
0.00499514
0.00416367
0.00330777
0.00250817
0.00182149
0.00128179
0.000899054
0.00065723
0.000514129
0.000419622
0.000331721
0.000195719
0.00670603
0.00670058
0.00669669
0.00669187
0.0066885
0.00668451
0.00667864
0.006661
0.0066054
0.0064636
0.0061573
0.00561461
0.00489374
0.00407027
0.0032316
0.00245167
0.00178442
0.00125983
0.000889132
0.000654035
0.000513888
0.000420829
0.000332867
0.000196428
0.00670602
0.00670058
0.00669669
0.00669183
0.00668845
0.00668454
0.00668069
0.00667285
0.00664805
0.00657967
0.00641739
0.00608866
0.00552992
0.00480564
0.00399155
0.00316851
0.00240667
0.00175533
0.00124402
0.000881572
0.000652098
0.000514725
0.000421743
0.00033375
0.000197711
0.00670601
0.00670059
0.00669668
0.0066918
0.00668842
0.00668445
0.00668116
0.0066769
0.00666559
0.00663474
0.00655266
0.00637349
0.00602668
0.00545467
0.00473126
0.00392682
0.00311854
0.0023716
0.00173379
0.00123199
0.00087742
0.0006515
0.000515187
0.000423212
0.000335215
0.000198397
0.006706
0.0067006
0.00669666
0.00669179
0.0066884
0.00668437
0.00668119
0.00667809
0.00667215
0.006659
0.00661959
0.00652695
0.00633266
0.00597045
0.00539232
0.00467038
0.00387492
0.003079
0.00234558
0.00171936
0.00122616
0.000875148
0.000651893
0.000517064
0.000424216
0.000335977
5.33284e-05
0.00670598
0.00670062
0.00669664
0.0066918
0.00668838
0.00668432
0.00668115
0.00667832
0.00667434
0.00666889
0.00665031
0.00660626
0.00650231
0.00629661
0.0059253
0.005339
0.00462021
0.00383543
0.00305319
0.00233103
0.00171274
0.00122317
0.000875775
0.000653576
0.000518181
0.000426628
0.000283619
6.33578e-05
0.00670597
0.00670064
0.00669662
0.0066918
0.00668835
0.00668428
0.0066811
0.00667828
0.00667495
0.00667256
0.00666338
0.00664466
0.00659201
0.00648104
0.00626513
0.00588314
0.00529967
0.00458897
0.00381318
0.0030384
0.00232342
0.00171053
0.00122433
0.000877946
0.000655519
0.000520638
0.000420263
0.000219592
7.08142e-05
0.00670596
0.00670066
0.0066966
0.00669182
0.00668833
0.00668426
0.00668106
0.00667819
0.00667505
0.00667371
0.00666853
0.00666199
0.00663627
0.00658246
0.00646378
0.0062395
0.0058619
0.00527627
0.00456767
0.00379793
0.00303106
0.00232218
0.00171375
0.00122904
0.00088178
0.000658454
0.000521781
0.000400755
0.000178045
7.63331e-05
0.00670594
0.00670069
0.00669658
0.00669184
0.0066883
0.00668425
0.00668103
0.00667811
0.00667503
0.00667392
0.00667037
0.0066692
0.00665683
0.00663498
0.0065729
0.00645019
0.00623131
0.00584568
0.00525955
0.00455525
0.00379278
0.00303325
0.00232937
0.00172323
0.00123704
0.000887539
0.000662381
0.000520004
0.000368173
0.000152482
8.08324e-05
0.00670593
0.0067007
0.00669656
0.00669186
0.00668827
0.00668424
0.006681
0.00667804
0.00667499
0.00667386
0.00667092
0.00667186
0.00666585
0.00666021
0.00662929
0.00657227
0.00644938
0.00622517
0.00583684
0.00525349
0.00455702
0.00380204
0.00304713
0.00234492
0.00173765
0.00124855
0.000895102
0.000665873
0.000514467
0.000337069
0.000134079
8.43297e-05
0.00670592
0.00670072
0.00669654
0.00669188
0.00668825
0.00668425
0.00668097
0.00667799
0.00667495
0.00667373
0.00667105
0.00667259
0.00666956
0.00667141
0.00665761
0.00663869
0.0065757
0.00645304
0.00622539
0.00584183
0.00526513
0.00457403
0.0038236
0.00307075
0.00236772
0.00175699
0.00126304
0.000903852
0.000669619
0.000503674
0.000307044
0.000121041
8.68388e-05
0.00670591
0.00670074
0.00669652
0.00669189
0.00668822
0.00668426
0.00668094
0.00667795
0.00667491
0.0066736
0.00667105
0.00667265
0.0066709
0.00667595
0.00667113
0.00667193
0.00664486
0.00658532
0.00646348
0.00624203
0.00586346
0.00529109
0.00460481
0.00385701
0.00310398
0.0023976
0.00178086
0.00128055
0.000914099
0.000671603
0.000488907
0.000281092
0.00011248
8.87178e-05
0.0067059
0.00670075
0.0066965
0.00669191
0.00668819
0.00668427
0.0066809
0.00667793
0.00667487
0.00667349
0.00667101
0.00667251
0.00667132
0.00667744
0.00667719
0.00668777
0.00668048
0.00665853
0.00660466
0.00648844
0.00627286
0.00589977
0.00533233
0.00464938
0.00390235
0.00314659
0.00243427
0.00180912
0.00130051
0.000925078
0.000672895
0.000472704
0.000261373
0.000106645
9.01968e-05
0.00670077
0.0067059
0.00669648
0.00669193
0.00668817
0.00668428
0.00668087
0.00667792
0.00667483
0.00667341
0.00667097
0.00667232
0.00667144
0.00667776
0.00667962
0.00669494
0.00669784
0.00669711
0.00668421
0.00663628
0.00652735
0.00631867
0.0059524
0.00538896
0.00470805
0.00395948
0.00319847
0.00247758
0.00184154
0.00132341
0.000938657
0.000673244
0.000458347
0.000246316
0.000102543
9.14116e-05
0.00669647
0.0067008
0.0067059
0.00669195
0.00668815
0.00668429
0.00668085
0.00667791
0.0066748
0.00667334
0.00667093
0.00667214
0.00667145
0.00667767
0.00668054
0.00669784
0.00670593
0.00671646
0.00672726
0.00672075
0.00668177
0.00658166
0.0063819
0.0060218
0.00546196
0.00478102
0.00402841
0.00325937
0.00252721
0.00187782
0.00135106
0.000954879
0.000673499
0.000446287
0.000234613
9.95936e-05
9.24548e-05
0.00669196
0.00669648
0.00670085
0.00670589
0.00668813
0.0066843
0.00668082
0.0066779
0.00667476
0.00667329
0.00667088
0.00667199
0.00667143
0.00667747
0.00668089
0.00669889
0.00670938
0.00672582
0.00674972
0.00676735
0.00677144
0.00674282
0.00665385
0.00646341
0.00610983
0.00555193
0.00486826
0.00410889
0.003329
0.00258295
0.00192266
0.00138448
0.000972437
0.000674059
0.000436336
0.000225405
9.74301e-05
9.33748e-05
0.00668812
0.00669201
0.00669651
0.0067009
0.00670589
0.00668432
0.0066808
0.0066779
0.00667472
0.00667325
0.00667083
0.00667186
0.0066714
0.00667723
0.00668104
0.00669923
0.00671081
0.0067301
0.00676114
0.00679233
0.00682201
0.00683793
0.00682228
0.00674467
0.00656493
0.00621649
0.00565935
0.00497016
0.00420079
0.00340702
0.00265131
0.00197808
0.00142014
0.00099082
0.000675793
0.000428179
0.000218062
9.58328e-05
9.42092e-05
0.00668433
0.00668814
0.0066921
0.00669654
0.00670095
0.00670589
0.00668078
0.0066779
0.00667469
0.00667323
0.00667077
0.00667177
0.00667135
0.00667701
0.00668111
0.00669929
0.00671141
0.00673209
0.00676679
0.00680578
0.00685022
0.00689249
0.00692268
0.00692043
0.00685637
0.00668612
0.00634255
0.00578449
0.00508661
0.00430359
0.0035027
0.00273528
0.0020383
0.00145784
0.00101067
0.000678838
0.000421799
0.000212064
9.4614e-05
9.49745e-05
0.00668076
0.00668439
0.00668819
0.00669219
0.00669657
0.006701
0.00670589
0.0066779
0.00667466
0.00667321
0.00667072
0.00667171
0.0066713
0.00667682
0.00668115
0.00669925
0.00671168
0.00673313
0.00676979
0.0068131
0.00686676
0.00692528
0.00698416
0.00702863
0.00704027
0.00698762
0.00682776
0.00648757
0.00592569
0.00521792
0.00443012
0.00361989
0.00282652
0.00210267
0.00149745
0.00103111
0.000682832
0.000416649
0.000207116
9.37111e-05
9.56864e-05
0.0066779
0.00668079
0.0066845
0.00668825
0.00669228
0.00669661
0.00670105
0.00670589
0.00667464
0.0066732
0.00667067
0.00667166
0.00667123
0.00667667
0.00668118
0.00669918
0.00671182
0.00673375
0.00677159
0.00681739
0.0068766
0.0069454
0.00702237
0.00709777
0.00716014
0.00718506
0.0071423
0.00698793
0.0066498
0.00608293
0.0053784
0.0045862
0.0037477
0.00292401
0.00217077
0.00153873
0.00105206
0.000687868
0.000412687
0.0002029
9.29851e-05
9.63504e-05
0.00667462
0.00667796
0.00668087
0.00668461
0.00668832
0.00669237
0.00669664
0.0067011
0.00670589
0.00667318
0.00667063
0.00667164
0.00667115
0.00667656
0.00668121
0.0066991
0.0067119
0.0067342
0.00677284
0.00682033
0.00688307
0.00695845
0.00704775
0.00714282
0.00723842
0.00731694
0.00735731
0.00732306
0.00716961
0.00682838
0.00627253
0.0055728
0.00475576
0.00388507
0.00302707
0.00224184
0.00158183
0.00107287
0.000693801
0.000409766
0.000199412
9.24652e-05
9.69741e-05
0.00667317
0.00667465
0.00667808
0.00668096
0.00668473
0.00668839
0.00669246
0.00669669
0.00670115
0.0067059
0.00667059
0.00667162
0.00667106
0.00667651
0.00668121
0.00669902
0.00671196
0.00673455
0.00677384
0.00682263
0.00688789
0.00696778
0.00706589
0.00717496
0.00729278
0.00740671
0.00750356
0.00755607
0.00753011
0.00737591
0.00704416
0.00650012
0.00578112
0.00493449
0.00402897
0.00313456
0.00231543
0.00162612
0.00109429
0.000700608
0.00040769
0.000196336
9.20162e-05
9.75583e-05
0.00667055
0.00667321
0.00667473
0.00667821
0.00668105
0.00668485
0.00668847
0.00669255
0.00669673
0.0067012
0.0067059
0.0066716
0.00667096
0.0066765
0.00668119
0.00669895
0.00671201
0.00673484
0.00677467
0.00682457
0.00689181
0.00697525
0.00707997
0.00719963
0.00733463
0.00747298
0.00760835
0.00771986
0.00778379
0.00776241
0.0076319
0.00731306
0.00673875
0.00599631
0.00511973
0.00417809
0.00324545
0.0023908
0.00167128
0.00111603
0.000707651
0.00040639
0.000193812
9.1718e-05
9.81091e-05
0.00667159
0.00667054
0.0066733
0.00667482
0.00667833
0.00668115
0.00668496
0.00668855
0.00669263
0.00669678
0.00670124
0.00670591
0.00667088
0.00667653
0.00668112
0.00669889
0.00671206
0.00673511
0.0067754
0.00682628
0.00689518
0.00698169
0.0070918
0.0072198
0.00736924
0.00752743
0.00769061
0.00784318
0.00796946
0.00804094
0.00804929
0.00794606
0.00760939
0.00699767
0.00621799
0.00530914
0.00432984
0.00335822
0.00246732
0.00171698
0.00113792
0.000714784
0.000405561
0.000191509
9.1436e-05
9.86238e-05
0.0066708
0.00667158
0.00667055
0.0066734
0.00667492
0.00667845
0.00668126
0.00668507
0.00668864
0.00669272
0.00669684
0.00670129
0.00670592
0.00667658
0.006681
0.00669886
0.00671212
0.00673537
0.00677606
0.00682782
0.00689815
0.00698745
0.00710219
0.0072374
0.00739918
0.00757488
0.00776237
0.00794565
0.0081167
0.00825321
0.00836065
0.00840455
0.0082885
0.00792472
0.0072726
0.00644459
0.00549859
0.00448242
0.00347209
0.00254438
0.00176286
0.00116002
0.000721949
0.000405269
0.000189636
9.12703e-05
9.91102e-05
0.00667665
0.00667062
0.00667158
0.00667057
0.00667349
0.00667503
0.00667857
0.00668138
0.00668518
0.00668874
0.0066928
0.00669689
0.00670133
0.00670593
0.00668083
0.00669886
0.0067122
0.00673562
0.00677666
0.00682921
0.00690082
0.00699268
0.00711149
0.00725334
0.00742616
0.00761711
0.00782809
0.00803998
0.0082459
0.00842995
0.00860904
0.00876035
0.00879506
0.00865616
0.00825592
0.00755959
0.00668039
0.00568858
0.00463498
0.0035857
0.00262134
0.00180863
0.00118217
0.000729172
0.000405143
0.00018787
9.10949e-05
9.95626e-05
0.00668061
0.00667658
0.00667031
0.00667157
0.0066706
0.00667358
0.00667517
0.00667868
0.00668152
0.00668529
0.00668884
0.00669289
0.00669696
0.00670137
0.00670594
0.00669894
0.0067123
0.00673586
0.00677721
0.00683047
0.00690323
0.00699746
0.00711991
0.00726804
0.00745089
0.00765578
0.00788895
0.00813009
0.00837022
0.00859255
0.00882713
0.00905946
0.00920479
0.00921861
0.00904611
0.00860039
0.00785293
0.00692161
0.00587675
0.00478494
0.00369799
0.00269762
0.00185401
0.00120419
0.000736357
0.000405466
0.00018645
9.10094e-05
9.99911e-05
0.0066991
0.00667974
0.00667642
0.00667
0.00667156
0.00667066
0.00667366
0.00667531
0.00667879
0.00668166
0.0066854
0.00668895
0.00669297
0.00669702
0.00670141
0.00670595
0.00671241
0.00673609
0.00677769
0.00683161
0.00690543
0.00700183
0.00712758
0.00728167
0.00747365
0.00769183
0.00794639
0.00821524
0.0084923
0.00875565
0.00903881
0.00933768
0.0095676
0.00969381
0.009674
0.00945651
0.00895578
0.00815059
0.00716605
0.00606599
0.00493171
0.0038082
0.00277274
0.00189876
0.00122595
0.000743519
0.000405852
0.000185086
9.09055e-05
0.000100387
0.00671251
0.00669874
0.00667807
0.00667626
0.00666974
0.00667153
0.00667076
0.00667372
0.00667548
0.0066789
0.00668181
0.00668551
0.00668906
0.00669305
0.00669708
0.00670145
0.00670596
0.00673631
0.00677809
0.00683264
0.00690743
0.00700582
0.00713459
0.00729428
0.00749459
0.00772575
0.00800087
0.0082959
0.00861013
0.00892278
0.00926127
0.0096216
0.00992399
0.0101388
0.0102315
0.0101631
0.00988707
0.00932056
0.00845103
0.00740992
0.00625551
0.00507516
0.00391582
0.00284628
0.00194264
0.00124735
0.000750578
0.000406284
0.000184005
9.08698e-05
0.000100763
0.00673651
0.00671157
0.00669794
0.00667649
0.00667602
0.00666957
0.00667146
0.0066709
0.00667378
0.00667567
0.006679
0.00668198
0.00668562
0.00668918
0.00669313
0.00669714
0.00670148
0.00670597
0.00677842
0.00683356
0.00690926
0.00700946
0.00714101
0.00730592
0.00751388
0.00775771
0.00805221
0.00837249
0.00872515
0.00909069
0.00949512
0.00993042
0.0103083
0.0106068
0.0107906
0.0108288
0.0106908
0.0103389
0.00969395
0.00875294
0.00765161
0.00644358
0.00521505
0.00402048
0.00291794
0.00198548
0.00126827
0.000757564
0.000406838
0.000182951
9.08148e-05
0.000101109
0.0067787
0.00673488
0.00670945
0.00669699
0.00667536
0.00667565
0.00666951
0.00667135
0.00667108
0.00667382
0.00667587
0.00667911
0.00668214
0.00668573
0.00668929
0.00669321
0.0066972
0.00670152
0.00670598
0.0068344
0.00691093
0.00701277
0.00714689
0.00731663
0.00753166
0.00778772
0.00810024
0.00844554
0.00883832
0.00925785
0.00972856
0.0102665
0.0107585
0.0111575
0.0114312
0.0115504
0.0114992
0.0112623
0.0108132
0.0100754
0.0090553
0.00789032
0.00662889
0.00535095
0.00412174
0.00298737
0.00202712
0.00128866
0.00076443
0.000407419
0.000182109
9.08097e-05
0.000101438
0.0068352
0.00677585
0.00673126
0.00670724
0.00669545
0.00667465
0.0066751
0.00666956
0.0066712
0.00667129
0.00667387
0.00667608
0.00667922
0.0066823
0.00668583
0.00668939
0.00669328
0.00669726
0.00670155
0.00670599
0.00691247
0.00701579
0.00715227
0.00732645
0.00754804
0.00781576
0.00814497
0.00851549
0.00894898
0.00942119
0.00995889
0.0106294
0.0113066
0.0118682
0.012247
0.0124367
0.0124344
0.012248
0.0118787
0.0113094
0.0104641
0.00935718
0.00812536
0.00681055
0.00548298
0.00421891
0.00305434
0.00206742
0.00130844
0.000771149
0.000408028
0.000181307
9.07893e-05
0.000101702
0.00691391
0.00683159
0.00676961
0.00672767
0.0067051
0.00669354
0.00667436
0.00667438
0.00666973
0.00667102
0.00667153
0.00667391
0.00667629
0.00667934
0.00668246
0.00668594
0.00668949
0.00669336
0.00669731
0.00670158
0.006706
0.00701854
0.00715718
0.00733541
0.00756311
0.00784178
0.00818656
0.00858245
0.00905552
0.00957833
0.0101914
0.0110376
0.0119643
0.0127826
0.0133274
0.0135868
0.0136114
0.0134283
0.0130646
0.0125336
0.0118241
0.0108581
0.00965753
0.00835611
0.00698762
0.00561206
0.00431215
0.00311872
0.00210629
0.00132756
0.000777677
0.000408673
0.000180596
9.07976e-05
0.000101923
0.00702107
0.00690883
0.00682319
0.00676334
0.00672432
0.00670296
0.00669123
0.00667441
0.00667353
0.00666997
0.00667083
0.00667177
0.00667398
0.00667649
0.00667946
0.00668261
0.00668605
0.00668959
0.00669343
0.00669736
0.00670162
0.00670601
0.00716165
0.00734357
0.00757694
0.0078658
0.0082252
0.00864614
0.00915643
0.00972953
0.0104352
0.0115029
0.0127231
0.0138376
0.0146381
0.0150306
0.0150809
0.0148855
0.0144872
0.0139232
0.0132133
0.0123508
0.0112548
0.0099551
0.00858194
0.0071591
0.00573752
0.00440153
0.00318044
0.00214365
0.00134599
0.000784013
0.000409323
0.000180047
9.08012e-05
0.000102161
0.00716576
0.00701415
0.00689654
0.00681485
0.00675733
0.00672116
0.00670113
0.00668845
0.00667471
0.00667263
0.00667024
0.00667067
0.00667201
0.00667406
0.00667668
0.00667959
0.00668274
0.00668616
0.00668968
0.0066935
0.00669741
0.00670165
0.00670602
0.00735099
0.00758959
0.00788787
0.00826105
0.00870614
0.00925102
0.00987692
0.0106959
0.0120173
0.0135362
0.0149281
0.0159805
0.0166018
0.0167707
0.0165871
0.0161662
0.0155539
0.0147905
0.0139002
0.0128808
0.0116504
0.0102484
0.00880218
0.00732482
0.00585891
0.00448708
0.00323945
0.00217946
0.0013637
0.000790102
0.000409898
0.000179599
9.08146e-05
0.00010242
0.00735771
0.00715639
0.00699658
0.00688425
0.00680672
0.00675164
0.00671818
0.00669989
0.00668546
0.00667512
0.00667175
0.0066705
0.00667056
0.00667222
0.00667417
0.00667685
0.00667972
0.00668287
0.00668626
0.00668977
0.00669357
0.00669746
0.00670168
0.00670602
0.00760115
0.00790805
0.00829419
0.0087621
0.00933944
0.0100228
0.0109727
0.0125561
0.0143405
0.0159502
0.017195
0.0180217
0.0184159
0.0183741
0.0179884
0.0173751
0.0165771
0.0156348
0.0145763
0.0134051
0.0120412
0.0105359
0.00901619
0.00748459
0.0059759
0.00456884
0.00329577
0.00221371
0.00138066
0.000795218
0.000410385
0.000179133
9.0833e-05
0.000102701
0.0076116
0.0073455
0.00713155
0.00697896
0.00687224
0.00679882
0.00674619
0.00671534
0.00669889
0.00668247
0.00667549
0.00667099
0.00667069
0.00667052
0.00667239
0.0066743
0.006677
0.00667986
0.00668299
0.00668637
0.00668986
0.00669364
0.00669751
0.00670169
0.00670602
0.00792649
0.00832471
0.00881387
0.00942237
0.0101684
0.0112586
0.0130904
0.015084
0.016836
0.0181969
0.0191609
0.0197464
0.0199493
0.0197516
0.0192201
0.018464
0.0175215
0.0164318
0.0152261
0.013915
0.0124229
0.010816
0.00922339
0.00763827
0.00608828
0.00464685
0.0033494
0.00224637
0.00139474
0.000799599
0.000410973
0.00017864
9.08579e-05
0.000103007
0.00794302
0.00759563
0.00731108
0.00710666
0.0069617
0.00686054
0.00679108
0.00674092
0.00671269
0.00669796
0.0066797
0.00667569
0.00667043
0.00667078
0.00667055
0.00667252
0.00667445
0.00667713
0.00668
0.00668311
0.00668648
0.00668994
0.0066937
0.00669753
0.00670169
0.00670602
0.00835274
0.0088615
0.00950059
0.0103131
0.0115439
0.0135959
0.0157365
0.0175597
0.0189662
0.0199967
0.0207028
0.0211024
0.0211748
0.0208815
0.020261
0.0194122
0.0183683
0.0171659
0.0158385
0.0144036
0.0127922
0.0110872
0.00942322
0.00778572
0.00619593
0.00472116
0.00340039
0.00227336
0.00140678
0.000804469
0.000411595
0.000178137
9.08978e-05
0.000103338
0.00837784
0.0079229
0.0075483
0.00727654
0.00708227
0.00694486
0.00684912
0.00678342
0.00673597
0.00671014
0.00669702
0.00667739
0.00667558
0.0066701
0.00667078
0.00667065
0.00667262
0.00667461
0.00667726
0.00668014
0.00668321
0.00668658
0.00669002
0.00669374
0.00669753
0.00670169
0.00670602
0.00890527
0.0095747
0.0104553
0.0118192
0.0140574
0.0162877
0.0181255
0.0195224
0.0205603
0.0213198
0.021841
0.0221202
0.0221181
0.0217793
0.0211167
0.0202185
0.0191117
0.0178296
0.0164063
0.0148656
0.0131462
0.0113482
0.00961519
0.00792684
0.0062988
0.00479183
0.00344241
0.00229637
0.00142007
0.000809838
0.000412383
0.000177593
9.09352e-05
0.000103701
0.0089443
0.00835227
0.00785867
0.00750083
0.00724263
0.00705846
0.00692843
0.00683792
0.00677582
0.0067314
0.00670759
0.00669588
0.006676
0.00667514
0.00666999
0.00667071
0.0066708
0.00667271
0.00667478
0.00667738
0.00668029
0.00668332
0.00668669
0.00669005
0.00669374
0.00669753
0.00670169
0.00670602
0.00964509
0.0105929
0.0120771
0.014468
0.0167411
0.0185526
0.0199016
0.0209037
0.0216629
0.0222388
0.022645
0.0228573
0.022823
0.0224754
0.0218062
0.0208923
0.0197546
0.0184213
0.0169262
0.0152979
0.0134826
0.0115979
0.00979894
0.00806159
0.00639685
0.0048501
0.00347817
0.00232169
0.00143474
0.00081587
0.000413179
0.000177054
9.10062e-05
0.000104091
0.00970937
0.00891232
0.00826524
0.0077942
0.00745422
0.00720949
0.00703522
0.00691237
0.00682697
0.00676828
0.006727
0.00670497
0.0066938
0.00667536
0.00667446
0.00667003
0.00667059
0.00667097
0.00667278
0.00667495
0.00667749
0.00668043
0.00668342
0.00668674
0.00669005
0.00669374
0.00669753
0.00670169
0.00670602
0.0107242
0.0123182
0.0148272
0.0171069
0.0188655
0.0201423
0.0210798
0.0218001
0.0223785
0.0228444
0.0231885
0.023372
0.0233347
0.0230035
0.0223526
0.0214483
0.0203043
0.0189435
0.0173977
0.0156988
0.0138
0.0118356
0.00997422
0.00818993
0.00647783
0.00489969
0.00351742
0.00234957
0.001451
0.000822501
0.00041424
0.000176457
9.10606e-05
0.00010452
0.0108421
0.00966904
0.00879342
0.00817811
0.0077308
0.00740863
0.00717712
0.00701254
0.00689672
0.00681629
0.0067609
0.00672276
0.00670244
0.00669116
0.00667524
0.00667365
0.00667017
0.00667046
0.00667116
0.00667285
0.00667513
0.0066776
0.00668057
0.00668346
0.00668675
0.00669005
0.00669374
0.00669753
0.00670169
0.00670602
0.012542
0.015135
0.0173981
0.0190879
0.0202791
0.0211346
0.02179
0.0223332
0.0228069
0.0232156
0.0235338
0.023714
0.0236932
0.0233949
0.0227794
0.0219023
0.0207706
0.019401
0.0178223
0.0160681
0.0140977
0.0120608
0.0101408
0.0082958
0.0065468
0.00495416
0.0035606
0.00238033
0.001469
0.000830037
0.000415261
0.000175888
9.11778e-05
0.00010498
0.0107966
0.012739
0.00949411
0.0086765
0.00809226
0.00766875
0.00736405
0.00714552
0.00699043
0.0068815
0.00680601
0.0067536
0.00671892
0.00670029
0.00668811
0.00667541
0.00667282
0.00667034
0.00667034
0.00667134
0.00667292
0.0066753
0.0066777
0.00668064
0.00668346
0.00668675
0.00669005
0.00669374
0.00669753
0.00670168
0.00670601
0.0153948
0.0176278
0.0192408
0.0203401
0.0211045
0.0216792
0.0221611
0.0226043
0.0230261
0.0234132
0.0237293
0.0239232
0.0239314
0.0236769
0.0231078
0.0222701
0.0211639
0.0197998
0.0182025
0.0164064
0.0143755
0.0122733
0.0102779
0.00838592
0.00662264
0.00501408
0.003608
0.00241429
0.00148905
0.000838281
0.00041669
0.000175239
9.12577e-05
0.000105485
0.0105293
0.012691
0.0156093
0.00932654
0.00856212
0.00800804
0.00760805
0.00732048
0.00711471
0.00696894
0.00686679
0.00679631
0.00674674
0.00671546
0.00669893
0.00668505
0.00667566
0.00667207
0.0066705
0.00667025
0.00667152
0.006673
0.00667547
0.00667775
0.00668066
0.00668345
0.00668675
0.00669005
0.00669374
0.00669751
0.00670165
0.00670599
0.0178076
0.0193414
0.0203474
0.0210174
0.0215025
0.0219064
0.0222917
0.0226877
0.023093
0.0234818
0.0238115
0.0240302
0.0240761
0.0238722
0.0233563
0.0225658
0.0214943
0.0201461
0.0185419
0.016715
0.0146337
0.0124467
0.0103943
0.00848491
0.00670609
0.00508041
0.00366015
0.00245187
0.00151127
0.000847786
0.000418018
0.000174637
9.14415e-05
0.000106022
0.0102647
0.0123203
0.0155347
0.017944
0.00916798
0.00844973
0.00792556
0.0075487
0.00727798
0.00708474
0.00694812
0.00685266
0.00678707
0.00674045
0.00671237
0.00669783
0.00668224
0.00667585
0.00667143
0.00667064
0.00667019
0.00667169
0.00667308
0.00667556
0.00667773
0.00668067
0.00668346
0.00668675
0.00669006
0.0066937
0.00669746
0.00670162
0.00670598
0.0194029
0.0203178
0.0208936
0.0212855
0.0216013
0.0219102
0.0222515
0.0226358
0.023048
0.0234535
0.0238073
0.0240586
0.0241483
0.0239992
0.0235406
0.0228018
0.0217709
0.0204463
0.0188439
0.0169957
0.014841
0.0125931
0.0105218
0.00859373
0.00679789
0.00515391
0.00371765
0.00249346
0.00153619
0.000858111
0.000419951
0.000173911
9.1561e-05
0.000106613
0.0100165
0.011913
0.0151865
0.0178336
0.0194278
0.00901597
0.00833912
0.00784491
0.00749073
0.00723662
0.00705567
0.00692804
0.00683917
0.00677842
0.00673471
0.00670965
0.00669684
0.00667983
0.00667589
0.00667094
0.00667073
0.00667016
0.00667186
0.0066731
0.00667559
0.00667773
0.00668067
0.00668346
0.00668675
0.00669002
0.00669364
0.00669741
0.00670159
0.00670597
0.0202633
0.0207479
0.0210464
0.0212692
0.0214898
0.0217555
0.0220883
0.0224846
0.0229188
0.0233512
0.0237366
0.0240268
0.0241647
0.024073
0.0236734
0.0229887
0.0220019
0.0207061
0.0191123
0.0172165
0.0150145
0.0127524
0.0106615
0.00871342
0.00689903
0.00523545
0.00378117
0.00253964
0.00156383
0.000870219
0.00042169
0.000173267
9.18371e-05
0.000107234
0.00978517
0.0115072
0.0147458
0.0176004
0.0192647
0.0201839
0.00886838
0.00823045
0.00776621
0.00743426
0.00719648
0.00702758
0.00690883
0.00682661
0.00677041
0.0067296
0.00670716
0.00669585
0.006678
0.00667574
0.00667059
0.00667079
0.00667016
0.00667196
0.00667308
0.0066756
0.00667773
0.00668067
0.00668347
0.0066867
0.00668994
0.00669357
0.00669736
0.00670155
0.00670596
0.0205906
0.0207981
0.0209267
0.0210521
0.021228
0.021486
0.0218346
0.0222588
0.022725
0.0231914
0.0236145
0.0239487
0.0241383
0.0241055
0.0237654
0.0231354
0.0221945
0.0209307
0.0193185
0.0173989
0.0152011
0.0129256
0.0108145
0.00884516
0.00701057
0.00532601
0.00385153
0.00259093
0.00159506
0.000883277
0.000424332
0.000172469
9.20234e-05
0.000107918
0.00956799
0.0111189
0.0142517
0.0172885
0.0191068
0.0199685
0.0204172
0.00872423
0.00812403
0.00768961
0.00737942
0.00715768
0.0070007
0.00689098
0.0068151
0.00676299
0.00672517
0.00670479
0.00669455
0.00667687
0.00667541
0.00667036
0.00667083
0.00667015
0.00667199
0.00667307
0.00667561
0.00667775
0.00668066
0.00668343
0.00668659
0.00668986
0.0066935
0.00669731
0.00670152
0.00670595
0.0205494
0.0205855
0.0206127
0.0206899
0.0208562
0.0211315
0.0215127
0.021975
0.0224802
0.0229862
0.0234525
0.0238355
0.0240797
0.0241064
0.0238252
0.0232494
0.0223548
0.0210984
0.0194868
0.0175922
0.0154013
0.0131135
0.0109819
0.00899019
0.00713375
0.00542671
0.00392963
0.00264817
0.00162974
0.000898858
0.000426649
0.000171791
9.24247e-05
0.000108627
0.00936226
0.0107541
0.0137276
0.0169186
0.0188831
0.0198438
0.0201497
0.0202903
0.00858336
0.00802019
0.0076153
0.00732635
0.00712056
0.00697573
0.00687468
0.00680454
0.00675605
0.00672124
0.00670254
0.00669268
0.00667625
0.00667497
0.00667023
0.00667086
0.00667013
0.006672
0.00667309
0.0066756
0.00667777
0.00668059
0.00668333
0.00668649
0.00668978
0.00669343
0.00669725
0.00670149
0.00670593
0.0202531
0.0201826
0.0201566
0.0202197
0.0204019
0.0207126
0.0211375
0.0216448
0.0221938
0.0227446
0.0232597
0.023696
0.0239971
0.0240833
0.0238598
0.0233368
0.0224691
0.0212334
0.0196623
0.0177963
0.0156155
0.013317
0.011165
0.00914988
0.00726993
0.00553881
0.00401658
0.00271195
0.00166929
0.000915585
0.000430265
0.000170942
9.27285e-05
0.000109542
0.00916602
0.0104151
0.0131852
0.0165009
0.0186186
0.0196666
0.0200297
0.0199707
0.019914
0.00844599
0.00791928
0.00754347
0.00727556
0.00708609
0.00695298
0.00685981
0.00679488
0.00674961
0.00671774
0.00670054
0.00669036
0.00667596
0.00667451
0.00667022
0.00667085
0.00667014
0.00667201
0.00667311
0.00667559
0.00667773
0.00668046
0.00668323
0.00668639
0.00668969
0.00669336
0.0066972
0.00670146
0.00670592
0.0197689
0.019639
0.0195923
0.0196673
0.0198851
0.0202428
0.0207188
0.0212756
0.0218726
0.0224739
0.0230435
0.0235374
0.0238971
0.0240422
0.0238747
0.0233921
0.0225593
0.0213714
0.0198444
0.0180108
0.0158439
0.013537
0.011365
0.00932566
0.00742058
0.00566372
0.00411357
0.0027836
0.00171325
0.000935837
0.000433489
0.00017025
9.34099e-05
0.00011061
0.00897793
0.0101028
0.0126322
0.0160368
0.0183246
0.0194636
0.0198657
0.0198378
0.0195422
0.0193598
0.00831234
0.00782172
0.00747479
0.00722841
0.00705473
0.00693225
0.00684625
0.00678613
0.00674362
0.00671473
0.00669919
0.00668799
0.00667584
0.00667416
0.00667029
0.00667085
0.00667015
0.006672
0.00667315
0.0066755
0.00667763
0.00668032
0.00668312
0.00668628
0.0066896
0.00669328
0.00669714
0.00670143
0.0067059
0.0191443
0.0189858
0.0189443
0.0190527
0.0193179
0.0197311
0.0202631
0.0208721
0.0215218
0.02218
0.0228104
0.0233655
0.0237851
0.0239881
0.0238722
0.0234339
0.0226486
0.0215113
0.020032
0.0182352
0.0160865
0.013774
0.0115831
0.00951898
0.00758734
0.00580304
0.00422209
0.00286377
0.00176388
0.000957651
0.000438384
0.000169261
9.4086e-05
0.000111662
0.00879826