/*--------------------------------*- C++ -*----------------------------------*\
  =========                 |
  \\      /  F ield         | OpenFOAM: The Open Source CFD Toolbox
   \\    /   O peration     | Website:  https://openfoam.org
    \\  /    A nd           | Version:  8
     \\/     M anipulation  |
\*---------------------------------------------------------------------------*/
FoamFile
{
    version     2.0;
    format      ascii;
    class       volScalarField;
    location    "0.48";
    object      p;
}
// * * * * * * * * * * * * * * * * * * * * * * * * * * * * * * * * * * * * * //

dimensions      [0 2 -2 0 0 0 0];

internalField   nonuniform List<scalar> 
15677
(
78.4193
78.0627
77.6513
78.1272
77.6395
77.6598
78.1023
77.6668
77.6692
77.561
78.0769
77.6681
77.6695
77.5701
77.4805
78.0551
77.6704
77.6693
77.5693
77.4881
77.3983
78.0316
77.6727
77.669
77.5704
77.488
77.405
77.3008
78.0064
77.6753
77.6681
77.5708
77.489
77.405
77.3067
77.1845
77.9802
77.6783
77.6666
77.5709
77.4895
77.406
77.3068
77.1896
77.0425
77.9529
77.6802
77.6647
77.5706
77.49
77.4065
77.3077
77.1898
77.0469
76.8675
77.9242
77.6811
77.6621
77.57
77.4903
77.4071
77.3084
77.1909
77.0472
76.8712
76.6523
77.8946
77.6821
77.6585
77.5695
77.4907
77.4077
77.3092
77.1917
77.0484
76.8717
76.6553
76.3892
77.8647
77.6824
77.6548
77.5694
77.4912
77.4085
77.3102
77.1928
77.0494
76.8731
76.656
76.3914
76.0701
77.8343
77.6813
77.6508
77.5695
77.4919
77.4095
77.3114
77.1941
77.0508
76.8744
76.6575
76.3923
76.0716
75.6875
77.8062
77.679
77.6465
77.5699
77.4931
77.4112
77.3133
77.196
77.0527
76.8763
76.6593
76.3941
76.0726
75.688
75.2337
77.7818
77.6765
77.642
77.5705
77.4951
77.4137
77.316
77.1988
77.0554
76.8788
76.6617
76.3963
76.0748
75.6893
75.2333
74.7019
77.7601
77.6739
77.638
77.5715
77.498
77.4174
77.3202
77.203
77.0594
76.8826
76.6652
76.3995
76.0776
75.6918
75.2347
74.7004
74.086
77.7408
77.6713
77.6345
77.5728
77.5021
77.4228
77.3262
77.2091
77.0653
76.8881
76.6702
76.404
76.0817
75.6953
75.2376
74.7021
74.0833
73.3813
77.7237
77.6688
77.6315
77.5743
77.5071
77.4301
77.3347
77.2179
77.074
76.8962
76.6776
76.4106
76.0875
75.7004
75.2419
74.7054
74.0853
73.3772
72.584
77.7092
77.6661
77.6289
77.5762
77.5126
77.4391
77.3464
77.2303
77.0864
76.908
76.6885
76.4203
76.096
75.7078
75.2483
74.7106
74.089
73.3794
72.5785
71.6923
77.6967
77.663
77.6267
77.5783
77.5187
77.4489
77.3605
77.2473
77.1038
76.925
76.7043
76.4346
76.1085
75.7186
75.2575
74.7183
74.0952
73.3837
72.581
71.6852
70.7059
77.6863
77.6596
77.6249
77.5807
77.5252
77.4596
77.3758
77.268
77.1277
76.9488
76.7269
76.4553
76.1269
75.7344
75.2708
74.7295
74.1044
73.3909
72.5857
71.6879
70.697
69.6262
77.6781
77.6562
77.6235
77.5833
77.5321
77.4711
77.3926
77.2904
77.1567
76.9813
76.7586
76.4849
76.1534
75.7575
75.2903
74.7457
74.1177
73.4016
72.5939
71.693
70.7
69.6156
68.4574
77.6716
77.6531
77.6223
77.5861
77.5394
77.4832
77.4105
77.3149
77.1882
77.0209
76.802
76.5263
76.1913
75.7909
75.3189
74.7694
74.1371
73.4172
72.6062
71.7022
70.7054
69.6188
68.4448
67.2047
77.6662
77.6504
77.6215
77.5891
77.5468
77.4959
77.4294
77.3411
77.2226
77.064
76.8548
76.5829
76.2443
75.8386
75.3602
74.8041
74.1653
73.4398
72.624
71.716
70.7155
69.6244
68.4481
67.19
65.8808
77.6618
77.648
77.6209
77.5918
77.554
77.509
77.4492
77.3688
77.2595
77.1111
76.9124
76.652
76.317
75.9053
75.4192
74.8543
74.2067
73.4729
72.65
71.7361
70.7307
69.6353
68.4537
67.1932
65.8636
64.5163
77.6581
77.6459
77.6204
77.594
77.5607
77.5217
77.4695
77.3978
77.2986
77.1617
76.9754
76.7273
76.4056
75.9968
75.5017
74.9259
74.2666
73.5213
72.688
71.7652
70.7528
69.6515
68.465
67.1984
65.8641
64.463
63.0523
77.6551
77.644
77.62
77.5961
77.5668
77.5333
77.4893
77.4276
77.3394
77.2153
77.0432
76.81
76.5025
76.1086
75.615
75.0262
74.3521
73.5916
72.7437
71.808
70.7848
69.6752
68.4819
67.2095
65.8677
64.4651
62.987
61.4741
77.6525
77.6424
77.6197
77.598
77.5722
77.5437
77.5074
77.4566
77.3815
77.2713
77.1151
76.8991
76.609
76.2311
75.7537
75.1643
74.4722
73.692
72.8246
71.8709
70.8321
69.7097
68.5066
67.2264
65.8771
64.4648
62.9893
61.4454
59.8541
77.6502
77.641
77.6194
77.5997
77.577
77.553
77.5236
77.4832
77.4226
77.3292
77.1903
76.9936
76.7239
76.3659
75.906
75.3337
74.6377
73.8333
72.9407
71.9627
70.9019
69.7609
68.5428
67.2512
65.8921
64.471
62.9823
61.4373
59.8443
58.1995
77.6483
77.6398
77.6192
77.6012
77.5811
77.5612
77.5381
77.5071
77.4602
77.3858
77.2681
77.0927
76.846
76.5116
76.074
75.5201
74.8413
74.0287
73.1046
72.0948
71.0042
69.8369
68.5968
67.2879
65.9153
64.483
62.9877
61.4267
59.8272
58.1954
56.3431
77.6467
77.6387
77.619
77.6025
77.5848
77.5685
77.5509
77.5284
77.494
77.4376
77.3443
77.1953
76.9742
76.6667
76.2558
75.726
75.0658
74.2697
73.3317
72.2817
71.152
69.9488
68.6778
67.3435
65.9507
64.5031
62.9978
61.4332
59.8174
58.1762
56.3421
54.2674
77.6452
77.6377
77.6189
77.6037
77.5879
77.5749
77.5623
77.5473
77.5243
77.4842
77.4142
77.2959
77.1072
76.8299
76.4498
75.9494
75.3145
74.5363
73.6128
72.5417
71.3618
70.1114
68.798
67.4279
66.006
64.5358
63.0157
61.4425
59.8241
58.1684
56.3239
54.2683
52.1878
77.644
77.6368
77.6187
77.6048
77.5907
77.5805
77.5723
77.5641
77.5512
77.526
77.4771
77.3883
77.2378
76.9995
76.6543
76.1885
75.5852
74.8324
73.9246
72.8646
71.655
70.3434
68.9738
67.5545
66.0917
64.589
63.0459
61.4596
59.833
58.1733
56.3164
54.2515
52.1901
50.1381
77.6429
77.6361
77.6186
77.6057
77.5932
77.5855
77.5812
77.5789
77.575
77.5632
77.5336
77.4718
77.358
77.1665
76.8673
76.4409
75.8754
75.1554
74.272
73.2242
72.0207
70.6692
69.2265
67.7416
66.2226
64.6742
63.097
61.4883
59.8496
58.1819
56.3181
54.2437
52.1748
50.1404
48.1353
77.6354
77.6416
77.6185
77.6065
77.5953
77.5899
77.589
77.592
77.5961
77.5962
77.5839
77.5466
77.4666
77.3203
77.0775
76.7047
76.1828
75.5029
74.6523
73.6261
72.4295
71.0775
69.5832
68.0124
66.4182
64.8071
63.1809
61.5374
59.8766
58.1972
56.3252
54.2421
52.1667
50.1261
48.1373
46.1895
77.6183
77.6346
77.64
77.6072
77.5972
77.5937
77.5959
77.6035
77.6148
77.6255
77.6286
77.6134
77.5643
77.4596
77.2715
76.9655
76.5048
75.872
75.0626
74.0677
72.8883
71.5359
70.0327
68.3974
66.7042
65.0086
63.3141
61.6194
59.9232
58.2215
56.3375
54.2465
52.1621
50.117
48.1237
46.191
44.3101
77.6078
77.6183
77.6337
77.6385
77.5988
77.5971
77.6019
77.6137
77.6313
77.6514
77.6683
77.6729
77.6515
77.585
77.4475
77.2068
76.8241
76.2599
75.5
74.546
73.3942
72.0525
70.5397
68.8855
67.1138
65.3063
63.519
61.7515
60.002
58.2643
56.3575
54.254
52.1629
50.109
48.1132
46.1778
44.3108
42.5048
77.6002
77.6086
77.6182
77.6327
77.637
77.6001
77.6073
77.6227
77.6458
77.6743
77.7035
77.7257
77.7293
77.6972
77.6062
77.4263
77.1204
76.6458
75.9612
75.0576
73.9443
72.6246
71.1138
69.4388
67.6366
65.7361
63.8247
61.9571
60.1309
58.3381
56.3942
54.2673
52.1646
50.1052
48.1016
46.1657
44.2979
42.5047
40.779
77.6026
77.6022
77.6096
77.6181
77.6317
77.6355
77.612
77.6307
77.6587
77.6945
77.7346
77.7726
77.7984
77.7973
77.7486
77.6246
77.3905
77.005
76.4218
75.5992
74.5352
73.2493
71.7524
70.0685
68.2327
66.2887
64.2698
62.2668
60.334
58.4612
56.4601
54.2948
52.1699
50.1
48.0925
46.1502
44.2838
42.4918
40.778
39.1361
77.6159
77.606
77.6042
77.6105
77.618
77.6307
77.6339
77.6377
77.6701
77.7124
77.7621
77.814
77.8598
77.8865
77.8758
77.8027
77.6351
77.3334
76.8519
76.1422
75.1634
73.9233
72.453
70.7723
68.9145
66.9225
64.8463
62.7217
60.6432
58.6582
56.5737
54.3488
52.186
50.0957
48.0794
46.1354
44.2645
42.4757
40.7652
39.1342
37.5778
77.6436
77.6212
77.6093
77.6062
77.6113
77.6179
77.6297
77.6325
77.6801
77.7283
77.7864
77.8507
77.9141
77.9657
77.9891
77.9621
77.8553
77.6314
77.2464
76.6512
75.796
74.6432
73.2123
71.5481
69.6803
67.6512
65.5113
63.3151
61.1014
58.9619
56.7597
54.4475
52.225
50.0984
48.0642
46.1139
44.2437
42.4526
40.7469
39.1214
37.5751
36.1044
77.6885
77.6513
77.626
77.6126
77.6081
77.612
77.6177
77.6287
77.631
77.7423
77.808
77.8832
77.9623
78.0359
78.0899
78.1044
78.0527
77.9003
77.6055
77.1197
76.3915
75.3716
74.0275
72.3933
70.5288
68.4739
66.28
64.0036
61.7038
59.4166
57.0517
54.6155
52.3045
50.1197
48.052
46.087
44.2134
42.4256
40.72
39.1009
37.5621
36.101
34.7152
77.7539
77.6995
77.6581
77.631
77.6158
77.6099
77.6127
77.6175
77.6276
77.6295
77.8271
77.9121
78.005
78.0982
78.1794
78.2311
78.2291
78.142
77.9303
77.5474
76.9417
76.0604
74.8565
73.3055
71.4583
69.3906
67.1528
64.8039
62.407
60.0189
57.4947
54.887
52.449
50.1767
48.0535
46.0586
44.1741
42.3863
40.6868
39.0704
37.5395
36.0878
34.7112
33.4085
77.8429
77.7691
77.7087
77.6651
77.6358
77.6188
77.6115
77.6132
77.6172
77.6265
77.628
77.9377
78.043
78.1535
78.2589
78.3438
78.3866
78.3584
78.2228
77.9354
77.4456
76.6993
75.6443
74.2383
72.467
70.4005
68.1309
65.7181
63.2292
60.7268
58.0871
55.3057
52.6918
50.2929
48.0851
46.0389
44.1289
42.3345
40.6385
39.0311
37.5054
36.0631
34.6978
33.4039
32.182
77.9587
77.8635
77.7812
77.7182
77.6718
77.6403
77.6216
77.6131
77.6136
77.6169
77.6254
77.6266
78.0766
78.2027
78.3295
78.444
78.5268
78.5518
78.4853
78.2858
77.9043
77.2868
76.3783
75.1294
73.5048
71.503
69.215
66.7487
64.1743
61.56
58.7891
55.873
53.0745
50.4999
48.1692
46.043
44.0869
42.2719
40.574
38.9739
37.4602
36.0257
34.6711
33.3903
32.1769
31.0328
78.1042
77.9862
77.8793
77.7939
77.7273
77.6781
77.6445
77.6243
77.6145
77.6139
77.6166
77.6242
77.6251
78.2462
78.3924
78.533
78.6515
78.7243
78.7204
78.601
78.3196
77.8234
77.0561
75.9636
74.5016
72.6443
70.4058
67.8981
65.2464
62.5238
59.6217
56.5524
53.6016
50.8365
48.3343
46.0918
44.0623
42.2072
40.4942
38.8968
37.3943
35.9747
34.6305
33.3618
32.1631
31.0272
29.9576
78.2818
78.1404
78.0065
77.8959
77.806
77.7358
77.6839
77.6484
77.6266
77.6157
77.614
77.6163
77.6231
77.6238
78.448
78.6123
78.7625
78.8779
78.9304
78.8837
78.6942
78.3108
77.6773
76.7373
75.4395
73.7471
71.6468
69.1691
66.45
63.6244
60.5919
57.3658
54.2412
51.3103
48.6162
46.2102
44.0734
42.1532
40.4068
38.8
37.3051
35.9005
34.5741
33.3181
32.1327
31.0132
29.9516
28.953
78.4934
78.3289
78.1662
78.028
77.9118
77.8173
77.7437
77.6893
77.6519
77.6287
77.6169
77.6138
77.616
77.6219
77.6225
78.6826
78.8615
79.0148
79.1177
79.1368
79.0311
78.7515
78.2435
77.4493
76.3134
74.7904
72.8532
70.5027
67.7901
64.8684
61.7083
58.322
55.0147
51.8942
49.0251
46.4302
44.1415
42.125
40.323
38.6902
37.1917
35.7995
34.4919
33.2565
32.0863
30.9812
29.9374
28.9466
28.0152
78.7397
78.554
78.3616
78.1938
78.0486
77.9265
77.8277
77.751
77.6942
77.655
77.6306
77.6178
77.6136
77.6156
77.6208
77.6212
78.9492
79.1372
79.2848
79.363
79.3332
79.1489
78.7572
78.1005
77.1211
75.7672
74.0011
71.8078
69.2067
66.2638
62.9802
59.432
55.9326
52.6084
49.5391
46.7643
44.2941
42.1405
40.2549
38.5769
37.0602
35.6702
34.3796
33.1668
32.0198
30.9322
29.9038
28.9321
28.0085
27.1407
79.0202
78.817
78.595
78.3968
78.2201
78.0675
77.94
77.8372
77.7575
77.6986
77.6578
77.6321
77.6186
77.6132
77.6151
77.6197
77.62
79.2454
79.4345
79.5652
79.6037
79.5062
79.2216
78.6933
77.8628
76.6741
75.0816
73.0571
70.6026
67.75
64.4186
60.7086
57.0085
53.4648
50.1759
47.1956
44.5454
42.2218
40.2163
38.4688
36.918
35.5178
34.2352
33.0439
31.9231
30.8611
29.8525
28.8971
27.9938
27.1337
26.326
79.3327
79.1179
78.8682
78.6394
78.4301
78.2442
78.0847
77.9521
77.8456
77.7632
77.7023
77.6601
77.6334
77.619
77.6128
77.6144
77.6187
77.6189
79.5668
79.7465
79.8459
79.8267
79.6401
79.2307
78.5402
77.5103
76.0894
74.2394
71.9475
69.2251
65.9641
62.1668
58.2588
54.479
50.9482
47.7383
44.883
42.3841
40.2241
38.3758
36.7704
35.3475
34.0629
32.8852
31.7901
30.7577
29.7771
28.8436
27.9575
27.1188
26.3185
25.567
79.6729
79.4553
79.1817
78.9241
78.6815
78.4605
78.266
78.1001
77.9629
77.853
77.7681
77.7055
77.6619
77.6342
77.6191
77.6125
77.6137
77.6176
77.6179
79.9065
80.0635
80.1142
80.0163
79.7164
79.1563
78.2767
77.0225
75.3477
73.2273
70.6553
67.5116
63.7511
59.7019
55.6692
51.8715
48.404
45.3163
42.619
40.2928
38.3091
36.6236
35.1616
33.8656
32.6941
31.6181
30.6154
29.6676
28.7643
27.9021
27.0813
26.3034
25.5589
24.8634
80.0343
79.8257
79.5344
79.2517
78.9769
78.7197
78.4878
78.2853
78.1136
77.9721
77.8592
77.7721
77.7079
77.6632
77.6348
77.619
77.6121
77.613
77.6167
77.6168
80.2554
80.3732
80.3547
80.1541
79.7147
78.9762
77.8812
76.3784
74.433
72.0246
69.0247
65.354
61.2852
57.0542
52.9634
49.2063
45.8545
42.9299
40.4182
38.2816
36.4824
34.9621
33.6428
32.4711
31.4092
30.431
29.5166
28.6491
27.8191
27.0242
26.2648
25.5438
24.8515
24.2802
80.4076
80.2236
79.9238
79.6219
79.3176
79.0245
78.7538
78.512
78.3022
78.1251
77.9798
77.8642
77.7752
77.7096
77.664
77.635
77.6186
77.6116
77.6123
77.6157
77.6159
80.601
80.6601
80.5487
80.2191
79.6119
78.6675
77.3306
75.5593
73.3219
70.4842
66.9337
62.8986
58.5844
54.2412
50.1606
46.5075
43.3223
40.5966
38.293
36.3576
34.7475
33.3924
32.213
31.162
30.2055
29.3206
28.49
27.6987
26.9378
26.2062
25.5044
24.8368
24.2758
23.7903
80.7806
80.6407
80.3449
80.0327
79.704
79.377
79.0671
78.7839
78.5329
78.3163
78.1345
77.9858
77.8678
77.7772
77.7106
77.6644
77.635
77.6181
77.6111
77.6115
77.6148
77.6149
80.9282
80.9058
80.6751
80.1878
79.3844
78.2056
76.6042
74.5398
71.8748
68.4643
64.4947
60.1528
55.6645
51.2858
47.2906
43.8033
40.8296
38.332
36.2528
34.5261
33.1062
31.9138
30.8704
29.9355
29.0797
28.2834
27.5321
26.8126
26.1168
25.4445
24.7965
24.2651
23.7946
23.2805
81.1378
81.0662
80.7905
80.4802
80.1347
79.7779
79.4299
79.1043
78.8096
78.5502
78.3277
78.1416
77.9901
77.8701
77.7783
77.711
77.6643
77.6347
77.6175
77.6106
77.6107
77.6139
77.6141
81.2183
81.0889
80.71
80.0356
79.0059
77.5679
75.6746
73.1852
69.9258
66.0466
61.7177
57.1436
52.5606
48.2282
44.3897
41.1225
38.3971
36.1493
34.3052
32.7901
31.5585
30.5248
29.6124
28.7883
28.0282
27.3157
26.6392
25.9872
25.3523
24.7358
24.2247
23.785
23.2802
22.7306
81.4602
81.4858
81.2508
80.9583
80.6068
80.2264
79.8434
79.4759
79.1359
78.8307
78.5638
78.3361
78.1464
77.9925
77.871
77.7785
77.7108
77.6639
77.6342
77.6168
77.61
77.6099
77.6131
77.6131
81.4497
81.1853
80.6278
79.7348
78.452
76.7248
74.4085
71.3054
67.538
63.2617
58.652
53.922
49.3237
45.1135
41.4942
38.4918
36.0428
34.0593
32.4553
31.151
30.1034
29.2229
28.4357
27.7169
27.0472
26.4138
25.8075
25.2188
24.641
24.1637
23.7453
23.2672
22.7252
22.1305
81.7257
81.8823
81.7128
81.4583
81.115
80.7205
80.3077
79.9004
79.5149
79.1617
78.8471
78.5736
78.3414
78.1488
77.9931
77.8708
77.7779
77.71
77.6631
77.6334
77.616
77.6092
77.6091
77.6122
77.6121
81.5975
81.1686
80.4
79.2595
77.6908
75.5421
72.5971
68.9601
64.7744
60.1811
55.3581
50.5425
46.0021
41.9828
38.6361
35.934
33.7809
32.0697
30.706
29.6085
28.7389
28.005
27.3367
26.7174
26.1329
25.5738
25.0333
24.5039
24.0668
23.6837
23.2274
22.7093
22.1231
21.4794
81.9084
82.2352
82.1604
81.9688
81.652
81.2559
80.8213
80.3783
79.9484
79.5464
79.1814
78.8585
78.5794
78.3435
78.1489
77.9922
77.8696
77.7766
77.7088
77.6621
77.6325
77.6151
77.6084
77.6082
77.6111
77.6111
81.6347
81.0096
79.999
78.5749
76.5857
73.7997
70.3083
66.2465
61.7187
56.8615
51.8825
47.0483
42.6368
38.8719
35.8429
33.4678
31.6224
30.1853
29.0583
28.1613
27.4621
26.8676
26.3116
25.7861
25.2815
24.792
24.3131
23.9269
23.5852
23.1647
22.6684
22.1064
21.4713
20.7758
81.9797
82.5208
82.5744
82.4752
82.2077
81.8263
81.3808
80.9087
80.4376
79.987
79.5701
79.1948
78.8648
78.5811
78.3427
78.147
77.99
77.8675
77.7747
77.7073
77.6607
77.6314
77.6141
77.6076
77.6072
77.6101
77.6101
81.5308
80.6788
79.3874
77.5419
74.9131
71.5798
67.6678
63.2476
58.4137
53.3349
48.2575
43.4752
39.2642
35.8119
33.1376
31.1073
29.5746
28.4087
27.5116
26.807
26.2694
25.8067
25.3566
24.919
24.4892
24.0648
23.7317
23.4428
23.0643
22.6038
22.0644
21.4544
20.767
20.0155
81.9069
82.7126
82.9321
82.96
82.769
82.423
81.9812
81.4893
80.9822
80.4852
80.0159
79.5859
79.2016
78.8659
78.5791
78.3394
78.1434
77.9866
77.8645
77.7723
77.7053
77.6592
77.6301
77.6131
77.6066
77.6061
77.6091
77.6091
81.2536
80.1373
78.4235
75.9401
72.7714
69.0283
64.7486
59.9887
54.8756
49.6207
44.5107
39.857
35.9174
32.8297
30.5382
28.8629
27.6415
26.7403
26.0639
25.5421
25.1572
24.8185
24.4676
24.1122
23.7524
23.4779
23.2441
22.9192
22.5013
21.9977
21.4113
20.7498
20.0063
19.1942
81.6531
82.782
83.2078
83.4023
83.3202
83.0346
82.6148
82.1159
81.5806
81.0411
80.5207
80.0349
79.5935
79.2019
78.8624
78.574
78.3339
78.1383
77.9822
77.8609
77.7695
77.703
77.6574
77.629
77.6121
77.6055
77.6049
77.6081
77.6081
80.7617
79.239
76.8954
73.8822
70.3177
66.2032
61.5589
56.4724
51.1123
45.7378
40.6712
36.2269
32.6269
29.9477
28.0584
26.741
25.8251
25.1786
24.7121
24.363
24.1215
23.8987
23.6406
23.362
23.1578
22.9857
22.7168
22.3531
21.8928
21.3427
20.7055
19.9886
19.1849
18.3079
81.1716
82.6973
83.3725
83.7779
83.842
83.6467
83.2718
82.7821
82.2295
81.654
81.0851
80.5437
80.0435
79.5929
79.1964
78.8548
78.5661
78.3266
78.1319
77.977
77.8567
77.7661
77.7004
77.656
77.6279
77.6109
77.6043
77.6037
77.607
77.6073
79.9025
77.7867
74.9269
71.5299
67.5944
63.0987
58.0913
52.6971
47.1336
41.7089
36.7709
32.6184
29.4202
27.184
25.7078
24.7451
24.1247
23.7208
23.4526
23.2656
23.1579
23.0434
22.8718
22.7567
22.6591
22.4534
22.1467
21.7413
21.2353
20.6351
19.9432
19.1668
18.2984
17.3522
82.4198
80.3063
83.3928
84.0601
84.3122
84.2422
83.9395
83.4795
82.9238
82.3213
81.7089
81.1137
80.554
80.0419
79.585
79.1859
78.8438
78.5558
78.3176
78.1244
77.971
77.8519
77.7623
77.6986
77.655
77.6266
77.6095
77.603
77.6025
77.6062
77.6065
78.4971
75.9104
72.678
68.9111
64.5847
59.7006
54.3369
48.6639
42.9546
37.5623
32.8449
29.0645
26.3216
24.5525
23.4922
22.8757
22.5379
22.3633
22.281
22.2453
22.2623
22.2486
22.2516
22.2491
22.12
21.878
21.5306
21.0802
20.5251
19.871
19.1204
18.28
17.3427
16.3228
83.2335
81.8001
78.8814
84.2161
84.7059
84.8004
84.6025
84.197
83.6563
83.0389
82.3904
81.745
81.1265
80.5517
80.0315
79.571
79.1712
78.8299
78.5435
78.3072
78.116
77.964
77.8463
77.7599
77.6978
77.6536
77.625
77.6079
77.6016
77.6014
77.6053
77.6058
76.6827
73.7647
70.1662
66.001
61.2704
55.9945
50.2893
44.3797
38.5974
33.3321
28.9306
25.5964
23.3514
22.0632
21.4141
21.1313
21.0611
21.1017
21.1927
21.2977
21.4305
21.6077
21.7318
21.7004
21.5372
21.2561
20.8649
20.3662
19.7582
19.0462
18.2326
17.3239
16.3132
15.2153
84.2131
82.7671
80.7035
77.0627
84.9923
85.2986
85.2421
84.921
84.4174
83.8009
83.1265
82.4366
81.7617
81.1239
80.5385
80.0135
79.5518
79.1528
78.8135
78.5295
78.2957
78.1064
77.9563
77.8433
77.7593
77.6963
77.6518
77.6231
77.6062
77.6003
77.6002
77.6044
77.605
74.6084
71.3608
67.36
62.7793
57.634
51.9687
45.9471
39.858
34.0913
29.0573
25.0661
22.2428
20.526
19.7219
19.4733
19.5084
19.69
19.9311
20.1829
20.4184
20.7602
21.0706
21.1699
21.1074
20.9075
20.5843
20.1459
19.5952
18.9305
18.1566
17.2755
16.2941
15.2057
14.0252
85.1422
83.94
81.8322
79.2342
74.9967
85.7076
85.8374
85.6345
85.1953
84.5991
83.9123
83.1861
82.4591
81.7595
81.1078
80.5159
79.989
79.5281
79.1314
78.795
78.5141
78.2826
78.0957
77.9523
77.843
77.7577
77.6942
77.6496
77.621
77.6047
77.599
77.599
77.6035
77.6042
72.2808
68.6618
64.2389
59.227
53.6598
47.6144
41.314
35.1196
29.4729
24.7807
21.2887
19.0283
17.8569
17.5312
17.6675
18.0027
18.4191
18.8461
19.2469
19.7106
20.1988
20.4903
20.5629
20.4669
20.2273
19.8589
19.3698
18.7633
18.0378
17.1977
16.2448
15.1862
14.0157
12.7485
86.0023
85.0655
83.2404
80.5322
77.5071
72.6857
86.3613
86.3189
85.9749
85.4235
84.741
83.9898
83.217
82.4585
81.7408
81.0804
80.4854
79.959
79.5007
79.1075
78.7748
78.4968
78.2681
78.0904
77.9525
77.8414
77.7554
77.6916
77.647
77.6193
77.6033
77.5977
77.5978
77.6026
77.6035
69.6567
65.6477
60.7838
55.3268
49.334
42.9259
36.3997
30.1937
24.7854
20.5474
17.6331
15.973
15.3516
15.4907
15.9925
16.6085
17.2428
17.8417
18.4943
19.1183
19.5925
19.8635
19.9073
19.7751
19.4929
19.0759
18.5325
17.8663
17.0758
16.1651
15.1362
13.9958
12.7392
11.3816
86.7924
86.1157
84.6059
82.189
78.9807
75.5436
70.0789
86.9492
86.7396
86.2607
85.6039
84.842
84.0326
83.2198
82.4378
81.7082
81.0433
80.4483
79.9246
79.4702
79.0814
78.7522
78.4778
78.2609
78.0913
77.9508
77.8387
77.7523
77.6884
77.6452
77.6178
77.6018
77.5962
77.5964
77.6017
77.6027
66.7172
62.3011
56.9776
51.0618
44.6429
37.9004
31.2208
25.1177
20.0778
16.4021
14.1301
13.0916
13.0135
13.5976
14.4428
15.3197
16.1553
17.0352
17.865
18.4788
18.9381
19.187
19.1997
19.0285
18.7005
18.2313
17.6298
16.8998
16.04
15.0546
13.9451
12.7189
11.3728
9.91879
87.5069
87.0898
85.8896
83.8091
80.8893
77.2249
73.2947
67.1561
87.4665
87.0961
86.4899
85.7356
84.9013
84.0413
83.1982
82.4002
81.664
80.9981
80.4057
79.8865
79.4373
79.0525
78.7274
78.469
78.2638
78.0897
77.9478
77.8351
77.7483
77.6865
77.6438
77.6161
77.6
77.5946
77.595
77.6007
77.602
63.4467
58.6069
52.8027
46.4127
39.5724
32.5388
25.8022
19.9384
15.4032
12.3879
10.8045
10.3936
10.8426
11.847
13.0119
14.1299
15.2834
16.3618
17.1862
17.7892
18.2323
18.4572
18.4363
18.2232
17.8461
17.3211
16.6574
15.8594
14.9263
13.8618
12.6679
11.3526
9.91284
8.0863
88.1398
87.9807
87.093
85.3418
82.7643
79.4106
75.2176
70.7431
63.9023
87.9094
87.3859
86.6609
85.8171
84.9192
84.0202
83.1559
82.3483
81.6099
80.9463
80.3588
79.8453
79.4008
79.0208
78.7163
78.4719
78.2619
78.0863
77.9435
77.8301
77.7464
77.6855
77.6422
77.6141
77.5981
77.5929
77.5936
77.5998
77.6013
59.8328
54.5492
48.2372
41.3572
34.1072
26.8471
20.1801
14.7118
10.8164
8.54277
7.67547
7.88409
8.83542
10.2324
11.693
13.1775
14.5563
15.6359
16.4548
17.0461
17.4715
17.6704
17.6133
17.3552
16.9255
16.3409
15.6111
14.741
13.7303
12.5828
11.3011
9.89354
8.07724
5.92394
88.6859
88.7799
88.2092
86.7899
84.5466
81.5578
77.7115
72.937
67.8816
60.3058
88.2741
87.607
86.7721
85.8488
84.9012
83.9742
83.0964
82.2847
81.5479
80.8893
80.3082
79.7999
79.3609
79.0068
78.7207
78.4704
78.2581
78.0813
77.9374
77.8284
77.7461
77.6841
77.6402
77.6118
77.5959
77.591
77.592
77.5988
77.6006
55.8614
50.1066
43.2542
35.8655
28.2304
20.8411
14.4035
9.50105
6.371
4.89936
4.75591
5.56285
6.98638
8.74654
10.6389
12.3845
13.7735
14.8549
15.6679
16.2462
16.6522
16.8228
16.7268
16.4205
15.9346
15.2865
14.4866
13.5403
12.4482
11.2143
9.84224
8.05443
5.9126
3.74607
89.1412
89.4789
89.2283
88.1469
86.2397
83.6053
80.156
75.7669
70.3774
64.7075
56.3531
88.5582
87.7568
86.8234
85.8369
84.8527
83.9072
83.0226
82.2114
81.4796
80.828
80.2525
79.7503
79.3436
79.013
78.7195
78.4663
78.2521
78.0737
77.936
77.8293
77.7453
77.6822
77.6378
77.6093
77.5936
77.5889
77.5904
77.5977
77.6
51.5121
45.2518
37.8149
29.9008
21.9317
14.5512
8.53602
4.37443
2.11674
1.48291
2.05186
3.42632
5.2879
7.56137
9.76284
11.5318
12.9325
14.0158
14.822
15.3859
15.7707
15.9107
15.7728
15.415
14.8692
14.1539
13.2799
12.2537
11.0766
9.75402
8.00074
5.88834
3.73839
1.58725
89.5025
90.0708
90.1398
89.4016
87.8373
85.556
82.4939
78.5288
73.5731
67.5403
61.2198
52.0245
88.7581
87.835
86.822
85.7883
84.7791
83.8231
82.9372
82.1306
81.4061
80.7605
80.1917
79.7291
79.3519
79.0122
78.7149
78.4593
78.2428
78.073
77.9386
77.8294
77.7438
77.6798
77.635
77.6064
77.5909
77.5867
77.5887
77.5967
77.5994
46.7586
39.9453
31.8705
23.4292
15.2158
8.02814
2.65457
-0.598279
-1.903
-1.69003
-0.436027
1.46757
3.93638
6.57822
8.82243
10.6174
12.0306
13.1155
13.914
14.462
14.8235
14.9303
14.7476
14.3348
13.7255
12.939
11.9872
10.8775
9.61324
7.90891
5.83217
3.71747
1.58098
-0.547353
89.7652
90.55
90.9335
90.5427
89.3278
87.4029
84.7286
81.1759
76.6725
71.1351
64.4334
57.415
47.2937
88.8726
87.8498
86.7762
85.7092
84.6846
83.7249
82.8427
82.0437
81.3254
80.6869
80.1659
79.7402
79.3516
79.0071
78.7068
78.4481
78.243
78.0778
77.9401
77.8286
77.7417
77.6769
77.6317
77.6032
77.588
77.5843
77.5869
77.5956
77.5989
41.5629
34.1295
25.3574
16.4116
8.10068
1.34566
-3.15178
-5.3497
-5.65467
-4.61061
-2.71245
-0.0867904
2.81822
5.52491
7.81588
9.63873
11.0649
12.151
12.9406
13.471
13.8072
13.878
13.6473
13.176
12.4995
11.6383
10.6052
9.40972
7.76381
5.73668
3.66346
1.56082
-0.55285
-2.65508
89.9267
90.9103
91.5996
91.5584
90.7002
89.1341
86.8518
83.7126
79.6452
74.594
68.4662
61.0674
53.2862
42.1275
88.9106
87.811
86.6936
85.6049
84.5732
83.6157
82.741
81.9481
81.2372
80.6558
80.1802
79.7404
79.3461
78.9977
78.6931
78.4495
78.2508
78.0813
77.9404
77.827
77.7388
77.6734
77.628
77.5996
77.5849
77.5817
77.585
77.5946
77.5985
35.8621
27.7169
18.1875
8.80555
0.627555
-5.39906
-8.7875
-9.82079
-9.11464
-7.27819
-4.51324
-1.36888
1.62317
4.40033
6.74136
8.59348
10.033
11.1197
11.8992
12.4101
12.7184
12.7505
12.4685
11.9352
11.1879
10.2486
9.13184
7.55487
5.58673
3.56856
1.50809
-0.572809
-2.65981
-4.7292
89.9971
91.147
92.1256
92.4371
91.9417
90.7375
88.8501
86.1311
82.4969
77.9091
72.3095
65.5849
57.4523
48.8272
36.4714
88.8843
87.7277
86.5806
85.4801
84.4485
83.4979
82.6291
81.8436
81.2002
80.674
80.1812
79.7344
79.3352
78.9812
78.6963
78.4612
78.257
78.0833
77.9398
77.8245
77.7351
77.6692
77.6237
77.5955
77.5814
77.579
77.5831
77.5936
77.5981
29.5663
20.5944
10.2604
0.592173
-7.12486
-12.0888
-14.1587
-13.9632
-12.2709
-9.38082
-5.99301
-2.73522
0.351392
3.20364
5.59721
7.47974
8.93269
10.0194
10.7873
11.2765
11.5545
11.5447
11.208
10.6092
9.7878
8.76788
7.27063
5.37214
3.41738
1.41368
-0.624679
-2.67909
-4.7331
-6.76378
89.9902
91.2717
92.499
93.1622
93.0395
92.1999
90.7095
88.4181
85.2215
81.087
75.9848
69.8414
62.5114
53.5963
44.0206
30.2421
88.8043
87.6078
86.4429
85.3395
84.3135
83.3681
82.5065
81.7999
81.2229
80.6758
80.1746
79.7219
79.3155
78.9865
78.7129
78.4709
78.2613
78.0841
77.938
77.8209
77.7306
77.6642
77.6188
77.5911
77.5777
77.5761
77.5812
77.5926
77.5979
22.5555
12.615
1.47918
-8.21001
-15.0319
-18.591
-19.1786
-17.7425
-14.7486
-11.1007
-7.56442
-4.18345
-0.996282
1.93438
4.38254
6.29636
7.76271
8.84844
9.60309
10.0684
10.3131
10.2582
9.86332
9.19571
8.29761
6.89865
5.08183
3.20054
1.26197
-0.719117
-2.72944
-4.75148
-6.7669
-8.75441
89.9189
91.3016
92.7291
93.7128
93.9728
93.5087
92.4148
90.5594
87.8077
84.1249
79.4995
73.8975
67.2157
59.2659
49.5064
38.8336
23.3258
88.6801
87.4581
86.286
85.1864
84.1645
83.2258
82.4554
81.8278
81.2258
80.6687
80.1603
79.6984
79.3234
79.0092
78.727
78.4783
78.2641
78.0835
77.9349
77.8163
77.7251
77.6585
77.6133
77.5862
77.5737
77.5732
77.5793
77.5916
77.5978
14.6417
3.58892
-8.23994
-17.5284
-22.9234
-24.7663
-23.7712
-20.6965
-16.7632
-12.9187
-9.22152
-5.71
-2.41829
0.593309
3.09759
5.04319
6.52252
7.60604
8.3455
8.78425
8.99258
8.88909
8.43265
7.69359
6.41846
4.70295
2.90761
1.04444
-0.871367
-2.82328
-4.80011
-6.78423
-8.75675
-10.6976
89.7943
91.2523
92.8354
94.0931
94.7135
94.6413
93.9505
92.5384
90.2431
87.015
82.8556
77.7596
71.6763
64.4589
55.8701
45.188
33.2282
15.5419
88.52
87.2852
86.1141
85.0169
84.0006
83.1665
82.4894
81.8321
81.2181
80.6525
80.1324
79.7095
79.3534
79.0289
78.7383
78.4839
78.2652
78.0812
77.9304
77.8104
77.7186
77.6519
77.6071
77.5809
77.5696
77.5703
77.5774
77.5907
77.5977
5.53685
-6.72843
-18.9292
-27.2051
-30.6064
-30.4656
-27.344
-23.0798
-18.8796
-14.823
-10.9563
-7.31012
-3.91123
-0.817176
1.744
3.72129
5.2127
6.29238
7.01442
7.42373
7.59224
7.43654
6.91571
5.80246
4.21508
2.52596
0.751369
-1.08882
-2.9752
-4.89295
-6.83091
-8.77291
-10.6991
-12.5905
89.6266
91.1375
92.8375
94.3216
95.2618
95.5641
95.2903
94.3368
92.512
89.7484
86.05
81.4376
75.8972
69.352
61.5981
52.3502
40.6412
27.1585
6.60014
88.3318
87.0944
85.9231
84.8299
83.9325
83.2075
82.4951
81.8238
81.1997
80.6195
80.1474
79.7483
79.3797
79.0451
78.7474
78.4873
78.2643
78.0772
77.9243
77.8031
77.7109
77.6445
77.6005
77.5755
77.5655
77.5673
77.5756
77.5898
77.5977
-5.23646
-18.5471
-30.5381
-37.0653
-37.8103
-34.8941
-30.1961
-25.5609
-21.076
-16.7985
-12.7591
-8.97635
-5.46934
-2.29265
0.325095
2.33316
3.83516
4.90894
5.61089
5.98754
6.11246
5.90135
5.01022
3.59089
2.03601
0.370566
-1.38032
-3.19136
-5.04365
-6.92236
-8.81759
-10.714
-12.5914
-14.4307
89.4248
90.9693
92.7534
94.417
95.6366
96.2747
96.3934
95.922
94.5959
92.3123
89.0794
84.9341
79.9006
73.9441
66.9567
58.6627
48.7376
35.8615
20.574
-4.00013
88.122
86.881
85.7114
84.7521
83.9813
83.2148
82.4862
81.8029
81.1609
80.6389
80.1964
79.7826
79.4019
79.0586
78.7539
78.4883
78.2611
78.0711
77.9163
77.7943
77.702
77.6363
77.5935
77.5698
77.5612
77.5644
77.5738
77.5889
77.5977
-18.3844
-32.095
-43.2295
-46.5503
-43.4563
-38.3623
-33.1231
-28.1012
-23.3257
-18.8275
-14.6162
-10.698
-7.08404
-3.82639
-1.15383
0.883104
2.39348
3.45865
4.13738
4.47775
4.55551
3.97921
2.79027
1.41136
-0.116295
-1.75726
-3.4793
-5.25711
-7.07122
-8.9074
-10.7566
-12.605
-14.4308
-16.216
89.1968
90.759
92.5992
94.3981
95.8565
96.7928
97.2561
97.2413
96.4578
94.6906
91.9356
88.2531
83.6956
78.2766
71.9329
64.5234
55.6839
45.0662
30.8415
13.4514
-17.1424
87.8858
86.6436
85.6232
84.81
83.9906
83.2053
82.4626
81.7576
81.1855
80.6998
80.24
79.8119
79.4208
79.069
78.7575
78.4864
78.2553
78.0627
77.9064
77.7839
77.6921
77.6275
77.5862
77.5641
77.5569
77.5614
77.572
77.5881
77.5978
-35.5826
-47.5636
-55.6895
-54.1195
-47.8191
-41.8292
-36.0567
-30.6556
-25.5991
-20.8876
-16.51
-12.4605
-8.74374
-5.40909
-2.68515
-0.622477
0.89305
1.94619
2.59796
2.89853
2.61507
1.75173
0.612905
-0.734404
-2.23651
-3.84933
-5.53938
-7.28094
-9.05384
-10.8445
-12.6455
-14.4432
-16.2155
-17.9432
88.9382
90.5156
92.3894
94.2837
95.9401
97.1383
97.902
98.2838
98.033
96.8447
94.6072
91.3927
87.2953
82.3658
76.5981
69.8966
62.0851
52.6927
41.3817
25.5914
5.88603
-35.4081
87.6215
86.5444
85.6912
84.8213
83.9804
83.1788
82.4099
81.7881
81.26
80.7542
80.2777
79.8374
79.4361
79.0759
78.7575
78.4814
78.2467
78.0518
77.8944
77.7721
77.6814
77.6183
77.5787
77.5582
77.5525
77.5584
77.5703
77.5873
77.5979
-56.8165
-61.0625
-67.481
-59.6418
-51.9917
-45.193
-38.9263
-33.1772
-27.8617
-22.9512
-18.4179
-14.2459
-10.4335
-7.02847
-4.25865
-2.17493
-0.658619
0.378076
0.999084
0.942173
0.383174
-0.418835
-1.52134
-2.84182
-4.31665
-5.89948
-7.55582
-9.25882
-10.9881
-12.7313
-14.4817
-16.2266
-17.942
-19.6081
88.6477
90.2347
92.136
94.0922
95.9051
97.3305
98.3548
99.0728
99.3004
98.7001
97.0571
94.3482
90.7054
86.2361
80.9768
74.8975
67.8654
59.6731
49.7378
37.7422
20.214
-2.23192
-58.2769
87.5105
86.6237
85.705
84.8105
83.9508
83.1178
82.4471
81.8778
81.3266
80.8015
80.3109