/*--------------------------------*- C++ -*----------------------------------*\
  =========                 |
  \\      /  F ield         | OpenFOAM: The Open Source CFD Toolbox
   \\    /   O peration     | Website:  https://openfoam.org
    \\  /    A nd           | Version:  8
     \\/     M anipulation  |
\*---------------------------------------------------------------------------*/
FoamFile
{
    version     2.0;
    format      ascii;
    class       volScalarField;
    location    "0.34";
    object      k;
}
// * * * * * * * * * * * * * * * * * * * * * * * * * * * * * * * * * * * * * //

dimensions      [0 2 -2 0 0 0 0];

internalField   nonuniform List<scalar> 
15677
(
0.333988
0.364671
0.294333
0.368611
0.35701
0.280634
0.370639
0.359739
0.365643
0.28243
0.371856
0.361477
0.361175
0.383051
0.288686
0.372596
0.363661
0.357592
0.368124
0.401569
0.300211
0.373032
0.365618
0.357773
0.358029
0.379998
0.419357
0.311766
0.373261
0.367158
0.359421
0.354518
0.360954
0.393263
0.43479
0.322614
0.373348
0.368291
0.361333
0.354731
0.353014
0.366867
0.406174
0.447944
0.332115
0.37335
0.369074
0.363051
0.356314
0.351092
0.353469
0.373553
0.418321
0.458805
0.340512
0.373315
0.369564
0.364434
0.358203
0.351911
0.348769
0.354776
0.380721
0.42916
0.467968
0.347587
0.373275
0.369823
0.365459
0.35995
0.353704
0.34837
0.34714
0.357126
0.387696
0.43891
0.475472
0.353796
0.373248
0.369926
0.366147
0.36139
0.355656
0.349755
0.345349
0.346325
0.359727
0.394507
0.447329
0.48189
0.358976
0.373238
0.36994
0.366548
0.362474
0.35742
0.351714
0.3462
0.342922
0.345896
0.362644
0.40076
0.454808
0.487177
0.363603
0.373237
0.369922
0.366736
0.363207
0.358856
0.353675
0.348066
0.343085
0.34086
0.345914
0.365517
0.406643
0.46115
0.491737
0.36764
0.373237
0.369907
0.366794
0.363634
0.359915
0.355385
0.350151
0.344741
0.340284
0.339189
0.346053
0.368436
0.411836
0.466763
0.495516
0.371205
0.373238
0.3699
0.366794
0.363832
0.360607
0.356732
0.352082
0.346869
0.341687
0.337804
0.33774
0.34639
0.371133
0.416632
0.471431
0.498848
0.374474
0.373238
0.369897
0.366784
0.36389
0.360989
0.357687
0.353684
0.348966
0.343819
0.338902
0.335566
0.336519
0.346798
0.373773
0.420708
0.475537
0.501729
0.377251
0.373237
0.369896
0.366775
0.363899
0.361138
0.358274
0.354883
0.350784
0.346047
0.340993
0.336352
0.33356
0.335452
0.347317
0.376067
0.424392
0.478928
0.504264
0.380066
0.373237
0.369896
0.366769
0.363894
0.361181
0.358544
0.355675
0.352209
0.348055
0.343317
0.338387
0.334024
0.331749
0.334566
0.347772
0.378228
0.427403
0.481892
0.506624
0.382256
0.373237
0.369895
0.366765
0.363889
0.361185
0.358649
0.356075
0.353206
0.349686
0.345488
0.340792
0.335991
0.331905
0.33014
0.33378
0.348261
0.379989
0.43009
0.484344
0.508639
0.384868
0.373236
0.369895
0.366762
0.363884
0.361178
0.358683
0.356248
0.353752
0.350874
0.347307
0.343113
0.338463
0.333809
0.329995
0.328713
0.333116
0.348641
0.381611
0.432177
0.486475
0.510761
0.386606
0.373236
0.369894
0.366759
0.363881
0.361169
0.358688
0.356312
0.354015
0.351557
0.348682
0.34511
0.340919
0.33635
0.331845
0.328309
0.327462
0.332544
0.349014
0.382822
0.434051
0.488258
0.512448
0.389193
0.373236
0.369894
0.366757
0.363878
0.361161
0.358684
0.356325
0.354132
0.351903
0.349513
0.346661
0.343079
0.338943
0.334462
0.330124
0.326836
0.326409
0.332056
0.34928
0.383953
0.435391
0.489845
0.514583
0.390598
0.373236
0.369893
0.366756
0.363875
0.361154
0.358677
0.35632
0.354175
0.352063
0.349963
0.347626
0.344799
0.341276
0.337195
0.332825
0.328645
0.325623
0.325538
0.331708
0.349544
0.384691
0.436674
0.491144
0.516014
0.39319
0.373237
0.369893
0.366755
0.363873
0.36115
0.35867
0.356309
0.354184
0.352123
0.350194
0.34816
0.34591
0.343174
0.339686
0.335707
0.331471
0.327481
0.32467
0.324915
0.331405
0.349719
0.385435
0.437452
0.492523
0.518535
0.394542
0.373237
0.369892
0.366755
0.363871
0.361146
0.358664
0.356298
0.354179
0.352135
0.350299
0.348437
0.34656
0.344418
0.341741
0.338397
0.334551
0.330456
0.326594
0.323992
0.324474
0.331359
0.34998
0.38587
0.438397
0.493417
0.520176
0.504108
0.373237
0.369892
0.366755
0.363869
0.361143
0.358658
0.356288
0.354169
0.352126
0.350337
0.348561
0.346925
0.345147
0.343138
0.340676
0.337423
0.333687
0.329742
0.326125
0.323748
0.324487
0.33144
0.3502
0.386364
0.438842
0.495416
0.528867
0.709683
0.373237
0.369891
0.366754
0.363868
0.361141
0.358654
0.35628
0.354158
0.352111
0.350341
0.348602
0.347111
0.345551
0.344008
0.342221
0.339828
0.336815
0.333387
0.329703
0.326191
0.323876
0.32467
0.331662
0.350507
0.386715
0.439761
0.495996
0.545626
0.884118
0.373238
0.369891
0.366754
0.363867
0.36114
0.35865
0.356274
0.354148
0.352096
0.35033
0.348604
0.347191
0.34575
0.34453
0.343152
0.34155
0.339622
0.336881
0.333573
0.329974
0.326548
0.324289
0.325126
0.33212
0.350927
0.38714
0.440459
0.49571
0.558367
1.02483
0.373238
0.369891
0.366754
0.363865
0.361139
0.358647
0.35627
0.354139
0.352082
0.350313
0.348587
0.347212
0.345831
0.344818
0.343693
0.342702
0.341602
0.339857
0.337295
0.334168
0.330697
0.327361
0.325144
0.326005
0.332891
0.351492
0.387738
0.440209
0.494221
0.567755
1.14607
0.373238
0.36989
0.366755
0.363864
0.361138
0.358644
0.356266
0.354131
0.352071
0.350296
0.348566
0.347203
0.34585
0.344955
0.343983
0.343429
0.342847
0.341995
0.340552
0.338253
0.335401
0.332115
0.328843
0.326572
0.327286
0.333968
0.352299
0.388228
0.439297
0.491085
0.574123
1.24374
0.373238
0.36989
0.366755
0.363863
0.361138
0.358641
0.356263
0.354125
0.352062
0.350281
0.348546
0.34718
0.345839
0.345002
0.344118
0.343855
0.343638
0.343391
0.342935
0.341961
0.340069
0.337454
0.334263
0.330962
0.328522
0.329001
0.335393
0.353287
0.388536
0.437399
0.485674
0.578243
1.31516
0.373238
0.36989
0.366755
0.363863
0.361137
0.358639
0.356261
0.354119
0.352054
0.350268
0.348527
0.347155
0.345814
0.344997
0.344169
0.34408
0.34411
0.344293
0.344554
0.344744
0.344287
0.342739
0.340321
0.337177
0.333739
0.331057
0.331163
0.337162
0.354452
0.388469
0.434137
0.478926
0.580797
1.36901
0.373239
0.369889
0.366755
0.363862
0.361137
0.358636
0.356259
0.354114
0.352048
0.350256
0.348512
0.347131
0.345786
0.344969
0.344177
0.344177
0.34437
0.344851
0.345644
0.346664
0.347497
0.347572
0.346354
0.344094
0.340896
0.337246
0.334178
0.333797
0.339285
0.355713
0.388144
0.429831
0.472119
0.583003
1.41126
0.369889
0.373242
0.366755
0.363861
0.361137
0.358635
0.356258
0.354109
0.352043
0.350246
0.348498
0.34711
0.34576
0.344936
0.344158
0.344198
0.344496
0.345176
0.346349
0.347979
0.349761
0.351312
0.351932
0.35102
0.348828
0.345496
0.341487
0.337928
0.336875
0.341702
0.357209
0.387397
0.425311
0.465772
0.585234
1.44583
0.366755
0.369899
0.37325
0.36386
0.361137
0.358633
0.356257
0.354105
0.352039
0.350237
0.348487
0.347091
0.345737
0.344903
0.344129
0.344186
0.344542
0.345353
0.346789
0.348865
0.351366
0.354011
0.356326
0.357497
0.356813
0.35461
0.350992
0.346514
0.342261
0.340401
0.344776
0.359029
0.38643
0.420892
0.460004
0.587902
1.47527
0.36386
0.366772
0.36992
0.373258
0.361137
0.358631
0.356256
0.354101
0.352036
0.350229
0.348478
0.347075
0.345716
0.344874
0.344098
0.344161
0.344548
0.345443
0.347059
0.349458
0.352498
0.355991
0.359575
0.362693
0.364366
0.363835
0.361464
0.357441
0.352278
0.347194
0.344762
0.348478
0.361009
0.385432
0.416751
0.455008
0.59092
1.50112
0.361137
0.363881
0.366806
0.369941
0.373266
0.35863
0.356255
0.354098
0.352034
0.350221
0.34847
0.34706
0.345698
0.344848
0.34407
0.344134
0.344536
0.345483
0.347227
0.34986
0.353305
0.357453
0.36204
0.366629
0.370537
0.372661
0.372123
0.369457
0.364796
0.358796
0.353277
0.350206
0.352463
0.36309
0.384546
0.412979
0.450656
0.594405
1.52443
0.358629
0.361164
0.363926
0.366841
0.369963
0.373274
0.356255
0.354095
0.352032
0.350215
0.348464
0.347048
0.345683
0.344826
0.344044
0.344108
0.344519
0.3455
0.347333
0.350147
0.353902
0.35856
0.363941
0.369716
0.375326
0.380006
0.382434
0.381759
0.378546
0.37308
0.366805
0.360791
0.356167
0.356683
0.365342
0.383812
0.409581
0.447031
0.598175
1.54573
0.356255
0.35866
0.36122
0.363971
0.366876
0.369985
0.373282
0.354092
0.35203
0.350209
0.348459
0.347036
0.34567
0.344806
0.344021
0.344084
0.344502
0.345507
0.347403
0.350359
0.354374
0.359441
0.365464
0.3722
0.379203
0.385841
0.391172
0.393791
0.392703
0.388762
0.383236
0.376659
0.368973
0.362548
0.3611
0.367671
0.383291
0.406535
0.443925
0.602252
1.56551
0.35409
0.356291
0.358723
0.361277
0.364018
0.366913
0.370009
0.373291
0.352029
0.350204
0.348455
0.347026
0.345659
0.344789
0.344001
0.344064
0.344487
0.345511
0.347458
0.350525
0.354758
0.360189
0.366751
0.374292
0.382454
0.390718
0.39828
0.404172
0.406693
0.405
0.401279
0.395708
0.387355
0.377704
0.369254
0.365677
0.370188
0.383035
0.403911
0.441331
0.606458
1.5839
0.352028
0.354127
0.356364
0.358789
0.361336
0.364066
0.366951
0.370032
0.3733
0.350199
0.348452
0.347016
0.34565
0.344774
0.343984
0.344046
0.344473
0.345514
0.347503
0.350664
0.355081
0.36084
0.367907
0.376152
0.385314
0.394967
0.404413
0.412825
0.418985
0.421222
0.420069
0.416641
0.409229
0.398741
0.386862
0.376207
0.37035
0.37268
0.383077
0.401679
0.439135
0.610818
1.6012
0.350194
0.35207
0.354206
0.35644
0.358856
0.361396
0.364116
0.36699
0.370056
0.373309
0.348449
0.347008
0.345643
0.34476
0.343969
0.34403
0.344462
0.345518
0.347544
0.350788
0.355364
0.361409
0.368959
0.377896
0.387963
0.39885
0.40994
0.420522
0.429496
0.435748
0.439058
0.438586
0.433291
0.423605
0.410662
0.396335
0.383317
0.37513
0.375184
0.383237
0.399772
0.437335
0.615169
1.61735
0.348447
0.350235
0.352157
0.354287
0.356518
0.358925
0.361458
0.364167
0.367029
0.370081
0.373318
0.347
0.345637
0.344748
0.343956
0.344017
0.344453
0.345522
0.347582
0.350899
0.355619
0.361919
0.369906
0.379538
0.390538
0.402581
0.415168
0.42768
0.439101
0.448484
0.456452
0.461095
0.458703
0.450994
0.438634
0.422966
0.406008
0.390513
0.379956
0.377693
0.383565
0.39818
0.43583
0.619574
1.63261
0.346993
0.348492
0.350323
0.352247
0.35437
0.356598
0.358996
0.361522
0.364219
0.36707
0.370107
0.373328
0.345632
0.344736
0.343945
0.344006
0.344445
0.345526
0.347616
0.351001
0.35585
0.362385
0.370772
0.381049
0.393025
0.406317
0.42035
0.434669
0.448301
0.460435
0.472083
0.482239
0.485186
0.48015
0.46951
0.454126
0.435502
0.415771
0.397724
0.38478
0.380195
0.384048
0.396835
0.434617
0.623864
1.64684
0.345629
0.347031
0.348585
0.350413
0.35234
0.354456
0.356681
0.35907
0.361588
0.364273
0.367112
0.370134
0.373337
0.344725
0.343936
0.343996
0.344438
0.345531
0.347648
0.351094
0.356062
0.362812
0.37157
0.382449
0.395361
0.410016
0.425672
0.44179
0.457544
0.472214
0.487163
0.501752
0.510668
0.511073
0.502692
0.488626
0.469897
0.448129
0.425525
0.404885
0.389557
0.382687
0.384651
0.395755
0.433625
0.628151
1.6603
0.344716
0.345669
0.347116
0.348681
0.350506
0.352435
0.354544
0.356765
0.359145
0.361655
0.364328
0.367155
0.370161
0.373347
0.343927
0.343988
0.344432
0.345535
0.347677
0.351178
0.356255
0.363204
0.372306
0.383751
0.397555
0.413548
0.431046
0.449285
0.467209
0.484377
0.502462
0.521166
0.534811
0.541488
0.538472
0.52608
0.508119
0.485771
0.460716
0.435182
0.41194
0.394255
0.385148
0.385283
0.394883
0.432848
0.632246
1.6728
0.343922
0.344741
0.345752
0.347203
0.348781
0.350602
0.352533
0.354635
0.356853
0.359223
0.361724
0.364385
0.367199
0.370187
0.373356
0.34398
0.344427
0.345539
0.347703
0.351255
0.356432
0.363563
0.372985
0.384961
0.399616
0.416902
0.436252
0.457018
0.47761
0.497411
0.5187
0.541496
0.559564
0.571083
0.574446
0.567108
0.550066
0.527794
0.501595
0.473153
0.444666
0.418842
0.398844
0.38759
0.385941
0.394192
0.43223
0.636317
1.68466
0.343976
0.343937
0.344801
0.345839
0.347295
0.348884
0.350701
0.352634
0.354729
0.356942
0.359302
0.361795
0.364443
0.367242
0.370213
0.373365
0.344421
0.345542
0.347726
0.351325
0.356592
0.363891
0.373609
0.386083
0.401546
0.420078
0.441261
0.464648
0.488529
0.511742
0.536559
0.563764
0.586312
0.60235
0.610408
0.609298
0.596708
0.574402
0.54747
0.517235
0.485346
0.453916
0.425552
0.403301
0.389991
0.386621
0.393641
0.431764
0.640138
1.6956
0.344418
0.343965
0.343971
0.34486
0.345931
0.34739
0.348991
0.350804
0.352738
0.354826
0.357034
0.359384
0.361868
0.3645
0.367284
0.370239
0.373374
0.345543
0.347746
0.351389
0.356739
0.364191
0.374181
0.387119
0.403346
0.423074
0.446064
0.472088
0.499431
0.527113
0.556713
0.589019
0.616566
0.637277
0.649638
0.6527
0.645831
0.627024
0.598873
0.566985
0.53258
0.497219
0.46288
0.432038
0.40761
0.392336
0.387316
0.393216
0.431411
0.643936
1.70599
0.345549
0.34438
0.343936
0.344013
0.344924
0.346028
0.347489
0.349101
0.35091
0.352845
0.354925
0.357128
0.359468
0.361939
0.364556
0.367325
0.370263
0.373382
0.347763
0.351446
0.356872
0.364465
0.374705
0.388074
0.405018
0.425886
0.450641
0.479283
0.510174
0.542836
0.5789
0.618369
0.652059
0.678321
0.695221
0.701822
0.697995
0.683893
0.657851
0.623294
0.586205
0.547539
0.508712
0.471522
0.438277
0.411757
0.394613
0.388019
0.392884
0.431164
0.647445
1.71554
0.347787
0.345473
0.344293
0.343894
0.344068
0.344992
0.34613
0.347591
0.349215
0.35102
0.352955
0.355028
0.357224
0.359551
0.362009
0.364611
0.367365
0.370287
0.373391
0.351496
0.356992
0.364714
0.375184
0.388951
0.406565
0.428514
0.454978
0.486188
0.520709
0.558733
0.602027
0.651595
0.695034
0.728906
0.751579
0.761704
0.759594
0.746449
0.723391
0.689023
0.647517
0.60502
0.562044
0.519783
0.479813
0.444254
0.415733
0.396812
0.388724
0.392641
0.430995
0.650945
1.72462
0.351554
0.347646
0.345287
0.3442
0.343859
0.344134
0.345063
0.346237
0.347699
0.349333
0.351133
0.353068
0.355133
0.35732
0.359633
0.362077
0.364664
0.367403
0.370311
0.373399
0.357098
0.364938
0.375621
0.389756
0.407993
0.430961
0.459063
0.492774
0.530992
0.574653
0.625609
0.687398
0.746636
0.794325
0.825554
0.840116
0.838657
0.823725
0.798235
0.764251
0.720403
0.671421
0.623341
0.576044
0.530401
0.487736
0.449958
0.419531
0.398929
0.389426
0.39246
0.430897
0.654136
1.7319
0.35721
0.351333
0.347291
0.345094
0.344119
0.343831
0.344207
0.34514
0.346349
0.34781
0.349454
0.351251
0.353183
0.355237
0.357413
0.359712
0.362142
0.364715
0.367441
0.370333
0.373406
0.36514
0.376017
0.390492
0.409308
0.433232
0.462894
0.499026
0.540972
0.590394
0.649403
0.725908
0.806666
0.87879
0.927125
0.94848
0.947208
0.927476
0.89466
0.853384
0.806366
0.751866
0.694909
0.641106
0.589501
0.540547
0.495282
0.455385
0.423149
0.400957
0.390118
0.39234
0.430853
0.656899
1.738
0.365342
0.356884
0.350746
0.346922
0.344921
0.344048
0.343812
0.344286
0.345223
0.346464
0.347927
0.349578
0.351371
0.353297
0.35534
0.357503
0.359789
0.362206
0.364765
0.367477
0.370355
0.373414
0.376374
0.391161
0.410516
0.435334
0.466473
0.504936
0.550588
0.60578
0.673402
0.767718
0.875848
0.981369
1.06179
1.10033
1.10047
1.07365
1.02818
0.972182
0.911661
0.849545
0.783282
0.717901
0.658265
0.602392
0.550212
0.502448
0.460533
0.426585
0.402894
0.390798
0.392259
0.430857
0.659157
1.74458
0.37672
0.364882
0.355969
0.350138
0.346585
0.344762
0.343986
0.343803
0.34437
0.345313
0.346583
0.348049
0.349706
0.351492
0.353409
0.355439
0.35759
0.359863
0.362268
0.364814
0.367512
0.370377
0.373421
0.391772
0.411621
0.437275
0.469807
0.510501
0.559792
0.620713
0.697752
0.813047
0.953516
1.09913
1.22215
1.29764
1.31228
1.27901
1.21726
1.13921
1.05534
0.972535
0.893507
0.81451
0.740328
0.674786
0.614703
0.559392
0.509235
0.465405
0.429841
0.40474
0.39146
0.392227
0.430873
0.661693
1.75172
0.392346
0.376093
0.363509
0.355026
0.349573
0.346269
0.344614
0.343934
0.343804
0.344457
0.345411
0.346706
0.348176
0.349832
0.35161
0.353517
0.355536
0.357675
0.359936
0.362329
0.364861
0.367547
0.370397
0.373425
0.412635
0.439063
0.472905
0.515723
0.568554
0.635164
0.722562
0.861417
1.0373
1.22684
1.3987
1.52331
1.57814
1.55536
1.47812
1.37383
1.25795
1.14266
1.03524
0.93789
0.845397
0.762127
0.690647
0.62643
0.568093
0.515649
0.470007
0.432919
0.406494
0.392018
0.392207
0.430919
0.664396
1.75946
0.413566
0.391518
0.374083
0.362102
0.354142
0.349035
0.345972
0.344478
0.343892
0.343818
0.344546
0.345518
0.34683
0.348304
0.349955
0.351725
0.353622
0.35563
0.357758
0.360007
0.362387
0.364908
0.36758
0.370408
0.373425
0.440715
0.475776
0.520607
0.576861
0.649138
0.747803
0.911817
1.1242
1.35877
1.58232
1.76275
1.87233
1.8921
1.82041
1.69091
1.53858
1.38137
1.23239
1.09889
0.982287
0.87578
0.783242
0.705835
0.637575
0.576321
0.5217
0.474344
0.435825
0.407937
0.392499
0.392208
0.430986
0.667466
1.76789
0.442202
0.412493
0.38863
0.372039
0.360777
0.353295
0.348518
0.345696
0.344354
0.343859
0.34385
0.344635
0.345634
0.346955
0.348431
0.350074
0.351838
0.353724
0.355722
0.357839
0.360076
0.362444
0.364952
0.367597
0.370408
0.373425
0.478446
0.525167
0.584717
0.662649
0.773313
0.963068
1.21149
1.49028
1.76576
2.00505
2.17743
2.25719
2.22932
2.09912
1.91107
1.70707
1.50656
1.32284
1.1626
1.02628
0.905503
0.803627
0.720343
0.648144
0.58409
0.527397
0.478426
0.438202
0.409163
0.393037
0.392218
0.431131
0.670718
1.77703
0.480807
0.440832
0.408396
0.385715
0.370108
0.359502
0.352477
0.348019
0.345439
0.344239
0.343829
0.343907
0.344726
0.345753
0.347076
0.348554
0.350191
0.351947
0.353824
0.355812
0.357917
0.360143
0.3625
0.364974
0.367597
0.370408
0.373425
0.529435
0.592142
0.675707
0.798846
1.01409
1.29712
1.61817
1.94404
2.2424
2.48149
2.63125
2.66796
2.58135
2.3847
2.13347
1.87562
1.6311
1.41252
1.22553
1.06949
0.93442
0.823241
0.734168
0.658149
0.591413
0.532756
0.481757
0.440214
0.410508
0.393638
0.392249
0.431281
0.674441
1.78698
0.533167
0.479087
0.435065
0.404296
0.382956
0.368244
0.358267
0.351688
0.347542
0.345198
0.344135
0.343792
0.343982
0.344816
0.345874
0.347196
0.348676
0.350305
0.352054
0.353921
0.355898
0.357993
0.360208
0.362527
0.364974
0.367597
0.370408
0.373425
0.599178
0.688333
0.824152
1.06399
1.37967
1.74048
2.11415
2.46971
2.77596
3.00099
3.11484
3.09633
2.94123
2.67166
2.35406
2.04141
1.75307
1.50019
1.28699
1.11157
0.962401
0.842048
0.747315
0.667606
0.598306
0.537124
0.48457
0.44241
0.411983
0.394315
0.392298
0.431557
0.678376
1.79773
0.60532
0.531007
0.470988
0.429352
0.400408
0.380286
0.366433
0.357071
0.350928
0.347088
0.344975
0.344042
0.343761
0.344067
0.344907
0.345993
0.347313
0.348794
0.350416
0.352158
0.354015
0.355983
0.358067
0.36024
0.362527
0.364974
0.367597
0.370408
0.373425
0.700547
0.849021
1.11216
1.45828
1.85607
2.27441
2.68394
3.05513
3.35636
3.55455
3.61998
3.5351
3.30305
2.95564
2.5698
2.20234
1.87104
1.58496
1.34646
1.15225
0.989336
0.860026
0.759792
0.676529
0.603931
0.540813
0.487636
0.444808
0.413605
0.395071
0.392401
0.431828
0.682926
1.80945
0.711301
0.602632
0.519543
0.463057
0.423923
0.396638
0.377688
0.364675
0.355914
0.350199
0.346661
0.344772
0.34396
0.343742
0.344156
0.344999
0.34611
0.347429
0.34891
0.350525
0.35226
0.354107
0.356065
0.358103
0.36024
0.362527
0.364974
0.367597
0.370408
0.373421
0.873247
1.15817
1.53245
1.9644
2.42401
2.88353
3.31553
3.69035
3.97474
4.13396
4.1391
3.97773
3.6618
3.23315
2.77841
2.35694
1.98406
1.66617
1.40351
1.1913
1.01514
0.87716
0.771608
0.683827
0.608685
0.544831
0.490978
0.447429
0.415386
0.395928
0.392515
0.432296
0.687729
1.82206
0.708047
0.894571
0.585772
0.508533
0.455504
0.418651
0.392963
0.37516
0.362971
0.3548
0.349503
0.346262
0.344587
0.343893
0.343737
0.344245
0.345094
0.346226
0.347543
0.349023
0.350631
0.352358
0.354196
0.356106
0.358103
0.36024
0.362527
0.364974
0.367597
0.370397
0.373414
1.20172
1.60199
2.06526
2.56268
3.06785
3.55544
3.99861
4.36632
4.62271
4.73125
4.66493
4.41824
4.01317
3.50147
2.97827
2.50423
2.09149
1.74341
1.45788
1.22858
1.03976
0.89344
0.781301
0.690003
0.613868
0.549209
0.494622
0.450295
0.417348
0.396884
0.392718
0.432739
0.693337
1.83577
0.681596
0.891882
1.23923
0.570088
0.498051
0.448159
0.413507
0.389382
0.372705
0.361325
0.353731
0.348844
0.345894
0.344425
0.343843
0.343746
0.344333
0.345191
0.346338
0.347655
0.349133
0.350735
0.352454
0.354241
0.356106
0.358103
0.36024
0.362527
0.364974
0.36758
0.370376
0.373406
1.66679
2.15877
2.69056
3.2369
3.77435
4.27901
4.72352
5.0743
5.292
5.33855
5.19048
4.85123
4.35359
3.75852
3.16827
2.64363
2.193
1.81643
1.5094
1.26399
1.06316
0.906827
0.789522
0.696747
0.619521
0.553983
0.498597
0.453429
0.419508
0.397974
0.392927
0.433481
0.699261
1.85044
0.657453
0.849164
1.23742
1.72196
0.555356
0.487844
0.44099
0.40849
0.385902
0.370328
0.359739
0.352709
0.348225
0.345565
0.344288
0.343808
0.343768
0.344418
0.34529
0.346448
0.347766
0.34924
0.350836
0.352502
0.35424
0.356106
0.358103
0.36024
0.362527
0.364952
0.367546
0.370355
0.373398
2.24505
2.80806
3.39121
3.97265
4.5312
5.04361
5.48099
5.80582
5.97441
5.94803
5.70912
5.2719
4.68013
4.00282
3.34776
2.77486
2.28841
1.88513
1.55799
1.29747
1.08238
0.918199
0.79852
0.704117
0.62569
0.559188
0.502934
0.456859
0.421892
0.399188
0.393282
0.434171
0.706238
1.86636
0.635201
0.809166
1.17383
1.72201
2.31814
0.54112
0.477866
0.433999
0.403609
0.382527
0.368034
0.358217
0.351743
0.347661
0.345278
0.344171
0.343783
0.34381
0.3445
0.345391
0.346555
0.347874
0.349345
0.350886
0.352501
0.354241
0.356106
0.358104
0.36024
0.362499
0.364907
0.367511
0.370332
0.37339
2.91561
3.53164
4.15136
4.75605
5.32638
5.83911
6.26225
6.55257
6.66164
6.552
6.21469
5.67614
4.99056
4.2334
3.5164
2.89781
2.37775
1.94952
1.60363
1.32485
1.0987
0.930665
0.808377
0.712176
0.632427
0.564868
0.50767
0.460615
0.424518
0.400584
0.393632
0.435302
0.713625
1.8832
0.614165
0.77178
1.11156
1.63958
2.32117
3.006
0.527259
0.468129
0.427198
0.398873
0.379268
0.365829
0.356774
0.350857
0.347156
0.345034
0.344072
0.343755
0.343868
0.34458
0.345493
0.346659
0.347982
0.349396
0.350886
0.352501
0.354241
0.356106
0.358104
0.360208
0.362443
0.36486
0.367476
0.37031
0.373382
3.65898
4.31202
4.95539
5.57341
6.14855
6.65628
7.05916
7.30637
7.34541
7.14298
6.70161
6.06062
5.28333
4.44972
3.6741
3.01262
2.46114
2.00967
1.64074
1.34801
1.11657
0.944337
0.819181
0.720996
0.639788
0.571068
0.512841
0.464728
0.427424
0.402132
0.39421
0.436345
0.722393
1.90143
0.594093
0.736516
1.05076
1.55699
2.22184
3.0124
3.76461
0.513756
0.458656
0.420603
0.394296
0.376131
0.363734
0.355446
0.350061
0.346703
0.344822
0.343989
0.34373
0.343935
0.344658
0.345596
0.346764
0.348036
0.349394
0.350886
0.352501
0.354241
0.356106
0.358067
0.360142
0.362386
0.364812
0.367439
0.370286
0.373374
4.45597
5.1317
5.78765
6.41183
6.9877
7.48708
7.86405
8.059
8.01737
7.71392
7.16514
6.42288
5.55747
4.6516
3.82103
3.11949
2.53875
2.05833
1.67201
1.37328
1.13613
0.959339
0.831031
0.730652
0.647836
0.577839
0.51849
0.469236
0.430626
0.40393
0.394768
0.438026
0.731715
1.92041
0.574878
0.703279
0.991193
1.47424
2.1214
2.89749
3.77342
4.57293
0.500629
0.449474
0.414231
0.389891
0.373148
0.361802
0.35425
0.349347
0.346302
0.34464
0.34392
0.343713
0.344007
0.344737
0.345701
0.346813
0.348034
0.349394
0.350886
0.352502
0.354241
0.356065
0.357992
0.360074
0.362327
0.364763
0.367402
0.370262
0.373365
5.28717
5.97291
6.63335
7.26008
7.83568
8.32469
8.66954
8.80198
8.66921
8.25842
7.60152
6.76123
5.81253
4.83918
3.95749
3.21871
2.60134
2.09922
1.70598
1.40084
1.15756
0.975803
0.844035
0.741232
0.656638
0.585236
0.524662
0.474176
0.43418
0.405909
0.395672
0.439584
0.74285
1.94445
0.55646
0.672094
0.933067
1.39096
2.0197
2.78108
3.6432
4.58144
5.40948
0.487908
0.440615
0.408103
0.385701
0.370396
0.360058
0.353172
0.348706
0.34595
0.344484
0.343864
0.343706
0.344083
0.344822
0.345753
0.346808
0.348035
0.349395
0.350887
0.352502
0.354197
0.355982
0.357915
0.360005
0.362266
0.364713
0.367363
0.370238
0.373356
6.13252
6.81874
7.47968
8.10952
8.68646
9.16306
9.46799
9.52647
9.29295
8.77106
8.008
7.07477
6.04859
5.01284
4.08387
3.29854
2.6538
2.14348
1.74286
1.43087
1.18101
0.99387
0.85831
0.752829
0.66627
0.59332
0.531409
0.479593
0.438094
0.408234
0.396537
0.442029
0.756939
1.97228
0.538803
0.642986
0.876845
1.30715
1.91624
2.66272
3.51187
4.4349
5.41311
6.25302
0.475632
0.432109
0.402277
0.381836
0.367911
0.358485
0.352203
0.348135
0.345641
0.344351
0.34382
0.34371
0.344168
0.344856
0.34575
0.346807
0.348035
0.349395
0.350887
0.352454
0.354106
0.355897
0.357836
0.359934
0.362204
0.364661
0.367324
0.370213
0.373347
6.97291
7.6545
8.317
8.95459
9.53546
9.99632
10.2511
10.2234
9.88126
9.24755
8.3829
7.36336
6.26606
5.1731
4.18529
3.36535
2.71049
2.19138
1.78286
1.46357
1.20666
1.01369
0.87398
0.765546
0.676814
0.602158
0.538784
0.485531
0.442452
0.410776
0.397904
0.444725
0.775827
1.99903
0.521891
0.615922
0.823119
1.22313
1.81071
2.54191
3.37858
4.28865
5.24754
6.24579
7.08304
0.463843
0.42404
0.396907
0.378347
0.365667
0.357067
0.351331
0.347626
0.34537
0.344235
0.343789
0.343737
0.34421
0.344843
0.345752
0.346807
0.348035
0.349397
0.350837
0.352358
0.354014
0.355809
0.357756
0.359861
0.36214
0.364609
0.367283
0.370187
0.373337
7.79153
8.4691
9.13987
9.79179
10.3791
10.8179
11.0097
10.8836
10.4278
9.68493
8.72564
7.62744
6.46563
5.30118
4.26999
3.43739
2.77167
2.24313
1.82619
1.49912
1.23468
1.03543
0.891181
0.779491
0.688361
0.611824
0.54685
0.49205
0.447245
0.413791
0.399475
0.449217
0.796356
2.02427
0.505723
0.590801
0.772519
1.13947
1.70306
2.41804
3.24288
4.14128
5.08501
6.05605
7.05745
7.88051
0.452667
0.416623
0.392062
0.375198
0.363642
0.355789
0.35055
0.347172
0.345131
0.344139
0.343786
0.343738
0.344202
0.344841
0.345752
0.346808
0.348037
0.349345
0.350735
0.352258
0.353919
0.35572
0.357673
0.359786
0.362074
0.364554
0.367241
0.370161
0.373327
8.57541
9.2573
9.94335
10.6167
11.2134
11.6203
11.734
11.4983
10.9276
10.0818
9.03659
7.8679
6.62415
5.40782
4.3611
3.51496
2.83761
2.29899
1.87306
1.53771
1.26525
1.05923
0.910051
0.794784
0.701006
0.622397
0.555671
0.499193
0.452606
0.417683
0.402242
0.453575
0.819265
2.04763
0.490419
0.567468
0.725639
1.05695
1.59342
2.29068
3.10393
3.99252
4.92337
5.87417
6.83631
7.82655
8.63111
0.442407
0.409948
0.387694
0.372358
0.361816
0.354639
0.349849
0.346766
0.344926
0.344087
0.343773
0.343713
0.344206
0.344842
0.34575
0.346814
0.347983
0.349239
0.350631
0.352157
0.353822
0.355628
0.357588
0.359709
0.362007
0.364499
0.367198
0.370134
0.373318
9.31575
10.0058
10.7165
11.4206
12.0312
12.3949
12.4126
12.0598
11.3776
10.4381
9.31681
8.05724
6.7555
5.52208
4.45891
3.59837
2.90858
2.35917
1.92365
1.57952
1.29853
1.08526
0.930732
0.811544
0.714853
0.63396
0.565321
0.507049
0.459584
0.422969
0.404983
0.459472
0.844342
2.06881
0.476358
0.545913
0.682914
0.976572
1.48216
2.15962
2.96093
3.84134
4.76256
5.69669
6.63015
7.56573
8.53158
9.32804
0.4332
0.403942
0.383758
0.369798
0.360171
0.353605
0.349218
0.346408
0.34479
0.344044
0.343743
0.343714
0.344206
0.344844
0.345753
0.346765
0.347874
0.349132
0.350524
0.352053
0.353722
0.355534
0.3575
0.359631
0.361938
0.364442
0.367154
0.370107
0.373308
10.0101
10.7252
11.4769
12.2101
12.8247
13.1283
13.0344
12.5624
11.7769
10.755
9.53489
8.21305
6.89539
5.64419
4.56372
3.68786
2.98479
2.42387
1.97815
1.62469
1.33468
1.11366
0.953361
0.829897
0.730005
0.646614
0.575881
0.517248
0.468416
0.42855
0.408696
0.465741
0.871878
2.08756
0.463715
0.526448
0.644488
0.899567
1.36987
2.02476
2.81317
3.68657
4.60137
5.52375
6.43384
7.32888
8.22339
9.15344
9.95499
0.42495
0.398541
0.380214
0.367492
0.35869
0.352671
0.348657
0.346141
0.344699
0.344003
0.343746
0.343714
0.344202
0.344858
0.345701
0.346659
0.347765
0.349021
0.350416
0.351946
0.35362
0.355438
0.357411
0.35955
0.361867
0.364384
0.367111
0.370081
0.373299
10.651
11.4123
12.2266
12.9913
13.5897
13.807
13.5896
13.0026
12.1263
10.9978
9.71271
8.37765
7.04386
5.77431
4.67571
3.78366
3.06646
2.49326
2.03669
1.67337
1.37382
1.14457
0.978066
0.849957
0.746578
0.660437
0.589569
0.529867
0.47772
0.434889
0.412622
0.473593
0.902364
2.10339
0.452377
0.509054
0.611448
0.828108
1.2575
1.8862
2.66002
3.52704
4.43833
5.35389
6.24748
7.10946
7.94883
8.79061
9.68549
10.5027
0.417563
0.393686
0.377026
0.365415
0.357351
0.351837
0.348224
0.345974
0.344643
0.344009
0.343746
0.343713
0.34421
0.344823
0.345595
0.346554
0.347654
0.348909
0.350304
0.351837
0.353516
0.355339
0.357319
0.359468
0.361795
0.364326
0.367069
0.370056
0.37329
11.2382
12.0735
12.9683
13.7616
14.3153
14.4159
14.0707
13.3803
12.3885
11.1934
9.89845
8.55062
7.20076
5.91246
4.79501
3.88591
3.15373
2.56747
2.09938
1.72564
1.41604
1.17809
1.00495
0.871841
0.764653
0.678348
0.606374
0.543068
0.487703
0.441674
0.417454
0.482757
0.935367
2.1159
0.442236
0.493426
0.58353
0.76488
1.14723
1.74429
2.50096
3.3615
4.27182
5.18537
6.06922
6.90733
7.70126
8.47129
9.25357
10.1179
10.9695
0.410949
0.389324
0.374158
0.36354
0.356155
0.351181
0.347964
0.345893
0.344652
0.344009
0.343744
0.343739
0.344168
0.344737
0.345492
0.346446
0.347542
0.348793
0.350191
0.351725
0.353408
0.355238
0.357225
0.359384
0.361723
0.364271
0.367027
0.370032
0.373282
11.7767
12.7195
13.7074
14.5085
14.9836
14.9405
14.4741
13.6561
12.5962
11.3945
10.091
8.73129
7.36572
6.0585
4.92162
3.99468
3.24667
2.64656
2.16627
1.78154
1.46138
1.21426
1.0341
0.895604
0.788011
0.700217
0.623855
0.556937
0.498268
0.449227
0.422997
0.493374
0.972374
2.12499
0.433188
0.479357
0.559662
0.711247
1.04358
1.60066
2.33561
3.18871
4.10001
5.01616
5.897
6.71991
7.48028
8.19044
8.881
9.60068
10.4362
11.3528
0.405029
0.385406
0.371571
0.361861
0.355197
0.350795
0.347858
0.345905
0.344652
0.344004
0.343774
0.343737
0.344081
0.344658
0.34539
0.346336
0.347428
0.348675
0.350075
0.351611
0.353299
0.355135
0.357129
0.359301
0.361653
0.364217
0.366987
0.370008
0.373273
12.277
13.3654
14.4437
15.2143
15.5709
15.3715
14.758
13.8694
12.8053
11.5992
10.2889
8.91861
7.53809
6.21212
5.05539
4.10991
3.34527
2.73053
2.23734
1.84102
1.50982
1.25309
1.0655
0.926138
0.816295
0.722792
0.642011
0.571445
0.509561
0.457515
0.429243
0.506559
1.01169
2.13095
0.425129
0.466702
0.538984
0.666373
0.949823
1.4603
2.16509
3.00742
3.92087
4.8439
5.7284
6.54469
7.28216
7.94737
8.56179
9.16567
9.81948
10.6252
11.6512
0.399729
0.381879
0.369257
0.360504
0.354642
0.350656
0.347874
0.345905
0.344644
0.344044
0.343787
0.34371
0.344005
0.344579
0.345289
0.346224
0.347314
0.348555
0.349956
0.351495
0.353186
0.35503
0.357034
0.35922
0.361585
0.364164
0.366949
0.369986
0.373265
12.7573
14.0204
15.1706