/*--------------------------------*- C++ -*----------------------------------*\
  =========                 |
  \\      /  F ield         | OpenFOAM: The Open Source CFD Toolbox
   \\    /   O peration     | Website:  https://openfoam.org
    \\  /    A nd           | Version:  8
     \\/     M anipulation  |
\*---------------------------------------------------------------------------*/
FoamFile
{
    version     2.0;
    format      ascii;
    class       volScalarField;
    location    "0.28";
    object      nut;
}
// * * * * * * * * * * * * * * * * * * * * * * * * * * * * * * * * * * * * * //

dimensions      [0 2 -1 0 0 0 0];

internalField   nonuniform List<scalar> 
15677
(
0.000669798
0.00319677
0.00917492
0.015962
0.0229229
0.0298818
0.0367271
0.0433004
0.049506
0.0554003
0.061358
0.0670049
0.071906
0.0751686
0.0770168
0.0780577
0.0768297
0.073832
0.0697096
0.0648638
0.0594684
0.0539606
0.0488723
0.0443581
0.0404228
0.0370246
0.034093
0.0315411
0.0293283
0.0274276
0.0258136
0.0244581
0.023327
0.0223845
0.021599
0.00120168
0.0106205
0.0257736
0.0418794
0.0571354
0.0703714
0.0807301
0.0881618
0.0926304
0.0946849
0.0945351
0.092896
0.0927605
0.0973367
0.103527
0.109865
0.112129
0.109808
0.104709
0.0986134
0.0920641
0.0859269
0.0807677
0.0763216
0.0724773
0.0691889
0.0663851
0.0640176
0.062046
0.0604279
0.0591091
0.0580195
0.0570718
0.0562441
0.0555294
0.000958378
0.00791172
0.0178952
0.0281361
0.0380658
0.047111
0.0550122
0.0609114
0.0647629
0.0657076
0.0638647
0.0590931
0.0543006
0.0541122
0.0635681
0.0754166
0.0866515
0.0948031
0.0980795
0.0990837
0.100134
0.100698
0.100667
0.10028
0.0996632
0.0988789
0.0978162
0.096845
0.0957586
0.0946752
0.0936344
0.092665
0.0917834
0.0909775
0.090236
0.000495641
0.00252517
0.00547114
0.0085667
0.0119474
0.01572
0.0196623
0.0232063
0.0248958
0.0265375
0.0275081
0.030285
0.033212
0.0370364
0.0402208
0.0461688
0.0550145
0.0643264
0.0725187
0.0772047
0.0833388
0.090249
0.0960848
0.101709
0.105413
0.107554
0.109439
0.11092
0.112174
0.113043
0.113459
0.113525
0.113307
0.112875
0.112285
0.000602452
0.00488394
0.0115896
0.018459
0.0247749
0.0302841
0.0350612
0.0392747
0.0430501
0.0461478
0.0481323
0.0491611
0.0505674
0.0527202
0.0552624
0.0583508
0.0617501
0.0643752
0.0686149
0.0768746
0.0878272
0.0976194
0.10466
0.109558
0.113062
0.115462
0.116714
0.117066
0.116706
0.115871
0.114807
0.113666
0.11252
0.111417
0.110373
0.000538936
0.00426919
0.00990394
0.0153117
0.0197181
0.0226461
0.02444
0.0249936
0.0249989
0.0258127
0.0276355
0.0307562
0.0344302
0.0383765
0.041647
0.0438994
0.0456576
0.0480911
0.0535004
0.0618627
0.0723876
0.0823262
0.0896777
0.0946141
0.0977627
0.0997027
0.100926
0.101737
0.102262
0.102566
0.102692
0.102665
0.102511
0.102259
0.101942
0.000323496
0.00225048
0.00473033
0.00686976
0.00838182
0.00889861
0.009196
0.00912084
0.0106642
0.0152466
0.0217587
0.0283055
0.0336888
0.0387477
0.0440265
0.04974
0.0559933
0.0626631
0.0694836
0.0760669
0.0821469
0.0871342
0.0907956
0.093336
0.0950024
0.0960501
0.0966897
0.097068
0.0972789
0.0973789
0.0974035
0.0973758
0.0973119
0.0972235
0.0971198
0.000168175
0.000797078
0.00195665
0.00345418
0.00532726
0.00763995
0.0104554
0.0139005
0.0180704
0.0229213
0.0283102
0.0341605
0.0400459
0.0462909
0.0525473
0.0584991
0.0643205
0.0698237
0.0748082
0.0791532
0.0828239
0.0857269
0.0879224
0.0895721
0.0908059
0.0917189
0.0923846
0.0928635
0.0932029
0.0934387
0.093598
0.0937012
0.0937633
0.0937959
0.0938072
0.000254184
0.00212326
0.00552954
0.00963405
0.0141363
0.0188629
0.0237398
0.0286887
0.0336233
0.0385161
0.0433668
0.048185
0.0530826
0.0581875
0.0630531
0.0674785
0.0716558
0.0755733
0.0791566
0.0823427
0.0850865
0.0872802
0.0889142
0.0900945
0.0909214
0.0914793
0.0918537
0.0921053
0.0922742
0.0923866
0.0924595
0.0925046
0.0925302
0.0925419
0.0925436
0.000206821
0.00223419
0.00535491
0.00903325
0.0131858
0.0177792
0.0227756
0.0281194
0.033728
0.0394941
0.0453429
0.0511688
0.0568587
0.0623425
0.0671446
0.0711819
0.0747027
0.0777711
0.0804218
0.0827136
0.0846934
0.0863184
0.0875799
0.0885434
0.089268
0.0898035
0.0901919
0.0904687
0.0906624
0.0907954
0.0908846
0.0909424
0.0909782
0.0909987
0.0910087
0.000246495
0.00225864
0.00566198
0.00970539
0.0142124
0.0191264
0.0244039
0.0299852
0.0358004
0.0417432
0.0476803
0.0535958
0.0593115
0.0647078
0.0692799
0.073013
0.0761802
0.0788964
0.0812285
0.0832356
0.0849527
0.0863354
0.0873865
0.0881719
0.0887498
0.0891667
0.0894569
0.0896539
0.0897865
0.0898747
0.0899321
0.0899682
0.0899895
0.0900004
0.0900041
0.000209788
0.00235014
0.00567505
0.00958883
0.0139821
0.0188157
0.0240594
0.0296743
0.0355892
0.0416849
0.0478416
0.0539262
0.0597534
0.0652126
0.0697652
0.0734003
0.0764012
0.0788921
0.0809842
0.0827577
0.0842594
0.0854665
0.0863882
0.0870854
0.08761
0.0880014
0.0882903
0.0885005
0.0886509
0.0887564
0.088829
0.0888777
0.0889091
0.0889283
0.0889389
0.000221823
0.00219825
0.00539845
0.00919072
0.0134619
0.0181859
0.0233438
0.0289053
0.0348055
0.0409379
0.0471476
0.0533045
0.0592194
0.0647335
0.0692825
0.0728752
0.0758299
0.0782888
0.0803462
0.0820727
0.0835211
0.0846757
0.0855529
0.0862164
0.0867182
0.0870971
0.0873806
0.08759
0.0877419
0.0878503
0.0879276
0.0879828
0.088022
0.0880497
0.0880689
0.000199739
0.00227207
0.00548881
0.00929262
0.0135866
0.0183365
0.0235104
0.0290569
0.0348998
0.0409148
0.0469758
0.052973
0.0587391
0.0641454
0.068629
0.0721634
0.0750446
0.077421
0.0794015
0.0810633
0.0824612
0.0835833
0.0844443
0.0851031
0.0856089
0.0859978
0.0862966
0.086526
0.086702
0.0868368
0.0869398
0.0870185
0.0870786
0.0871246
0.0871598
0.000199963
0.00211354
0.00514878
0.00876111
0.012869
0.0174544
0.0224963
0.0279517
0.0337437
0.0397526
0.0458292
0.05185
0.0576318
0.0630354
0.0675061
0.0710397
0.0739333
0.0763224
0.0783104
0.0799748
0.0813728
0.082495
0.0833589
0.0840252
0.0845428
0.084947
0.0852639
0.0855132
0.0857096
0.0858647
0.085987
0.0860836
0.0861601
0.0862213
0.0862709
0.000188823
0.0021831
0.00528371
0.00896329
0.0131265
0.017734
0.0227465
0.0281099
0.0337512
0.0395604
0.0454362
0.0512595
0.0568745
0.0621497
0.0665296
0.0699967
0.0728417
0.0751972
0.0771632
0.0788148
0.0802081
0.0813324
0.082205
0.0828848
0.0834185
0.0838406
0.0841763
0.0844447
0.0846604
0.0848344
0.0849755
0.0850904
0.0851844
0.0852617
0.0853256
0.000183836
0.00206544
0.00501589
0.00853268
0.0125396
0.0170111
0.0219155
0.0272002
0.0327861
0.0385595
0.0444002
0.0501854
0.0557645
0.0610125
0.0653808
0.0688443
0.0716879
0.0740424
0.0760077
0.0776597
0.0790557
0.0801865
0.0810678
0.0817587
0.0823063
0.0827442
0.0830971
0.0833833
0.0836169
0.0838086
0.0839667
0.0840977
0.0842066
0.0842976
0.0843739
0.000179204
0.00208894
0.00508759
0.00865924
0.0127024
0.0171719
0.0220252
0.0272086
0.0326491
0.0382448
0.0439038
0.0495143
0.0549411
0.060067
0.0643537
0.0677675
0.0705801
0.0729153
0.074869
0.0765151
0.0779102
0.0790451
0.0799345
0.080636
0.0811961
0.0816476
0.0820148
0.0823155
0.0825635
0.0827692
0.0829409
0.083085
0.0832064
0.0833094
0.083397
0.00017021
0.00202067
0.00490308
0.00833677
0.012244
0.0165922
0.0213441
0.0264459
0.0318223
0.0373708
0.0429875
0.0485574
0.0539471
0.0590406
0.0633042
0.0667015
0.0695016
0.071827
0.0737731
0.0754139
0.0768065
0.0779425
0.0788364
0.0795452
0.0801147
0.0805772
0.0809563
0.0812695
0.0815302
0.0817485
0.0819324
0.0820882
0.0822208
0.0823341
0.0824314
0.000169307
0.00199542
0.00488079
0.00832353
0.012223
0.0165342
0.0212158
0.0262165
0.0314681
0.0368785
0.0423625
0.0478124
0.0531029
0.0581202
0.0623358
0.0657039
0.068485
0.0707972
0.0727338
0.0743678
0.0757564
0.0768917
0.077788
0.0785018
0.0790781
0.0795488
0.0799371
0.08026
0.0805305
0.0807587
0.0809523
0.0811174
0.081259
0.0813809
0.0814863
0.000161397
0.00196289
0.0047631
0.00809553
0.0118817
0.0160876
0.020677
0.0255992
0.0307848
0.036141
0.0415745
0.0469788
0.0522293
0.0572158
0.0614101
0.0647637
0.0675336
0.0698367
0.0717654
0.0733927
0.0747762
0.0759091
0.0768055
0.0775218
0.0781025
0.0785792
0.0789745
0.0793051
0.0795837
0.0798201
0.0800219
0.0801949
0.0803441
0.0804732
0.0805855
0.000161506
0.00190445
0.00466558
0.00796825
0.0117187
0.0158748
0.0203969
0.0252352
0.0303263
0.0355847
0.0409245
0.0462516
0.0514436
0.0563891
0.0605588
0.0638976
0.0666575
0.0689526
0.0708742
0.0724952
0.0738733
0.0750027
0.0758978
0.0766147
0.077198
0.0776786
0.0780788
0.0784151
0.0786998
0.0789425
0.0791506
0.0793299
0.0794851
0.0796201
0.0797379
0.000157112
0.00186389
0.00455321
0.00777149
0.0114367
0.0155121
0.0199598
0.02473
0.029759
0.0349632
0.0402528
0.0455381
0.0506974
0.0556194
0.0597747
0.0631049
0.0658585
0.068148
0.0700638
0.0716788
0.0730512
0.0741759
0.0750681
0.075784
0.0763679
0.0768504
0.0772535
0.0775936
0.0778825
0.0781298
0.0783426
0.0785266
0.0786865
0.078826
0.0789481
0.000156039
0.00182219
0.00447049
0.00764385
0.011254
0.0152634
0.0196376
0.0243323
0.0292891
0.0344283
0.0396594
0.0448988
0.0500238
0.0549227
0.0590652
0.0623882
0.0651369
0.0674217
0.0693323
0.0709412
0.0723071
0.0734258
0.0743133
0.0750259
0.0756079
0.0760898
0.0764935
0.0768348
0.0771258
0.0773753
0.0775907
0.0777775
0.0779402
0.0780824
0.0782073
0.0001533
0.00178647
0.00437946
0.00749038
0.0110359
0.0149812
0.0192931
0.0239283
0.0288298
0.0339204
0.0391077
0.0443122
0.0494113
0.0542928
0.0584257
0.0617435
0.0644882
0.0667687
0.0686738
0.0702757
0.0716334
0.0727436
0.0736234
0.0743296
0.0749063
0.0753842
0.0757848
0.0761241
0.0764136
0.0766624
0.0768775
0.0770642
0.0772271
0.0773698
0.0774951
0.000151994
0.00175341
0.00430681
0.0073734
0.0108694
0.0147606
0.0190155
0.0235933
0.0284394
0.03348
0.0386238
0.0437919
0.0488651
0.0537295
0.0578529
0.0611653
0.0639056
0.0661808
0.0680787
0.0696714
0.0710177
0.0721156
0.0729832
0.0736779
0.0742443
0.0747129
0.0751054
0.0754375
0.0757208
0.0759641
0.0761744
0.076357
0.0765162
0.0766557
0.0767781
0.000150206
0.00172434
0.00423763
0.00725973
0.0107087
0.0145514
0.0187573
0.0232867
0.0280863
0.0330849
0.0381924
0.0433276
0.0483776
0.0532259
0.0573396
0.0606455
0.0633796
0.0656472
0.0675351
0.0691147
0.0704448
0.0715242
0.072373
0.0730492
0.0735978
0.0740497
0.0744267
0.0747443
0.0750143
0.0752455
0.0754445
0.0756169
0.0757668
0.0758978
0.0760125
0.000149005
0.00169786
0.00417858
0.00716486
0.0105747
0.0143756
0.0185378
0.0230232
0.02778
0.0327395
0.0378127
0.0429167
0.0479437
0.0527753
0.0568776
0.0601748
0.0628998
0.0651562
0.0670295
0.0685904
0.0698973
0.0709501
0.0717709
0.072419
0.07294
0.0733651
0.0737163
0.0740097
0.0742568
0.0744665
0.0746456
0.0747994
0.0749322
0.0750473
0.0751475
0.000147776
0.00167436
0.00412479
0.00707813
0.010453
0.0142171
0.0183416
0.0227889
0.0275086
0.0324335
0.0374758
0.0425508
0.0475555
0.0523694
0.0564579
0.0597431
0.0624551
0.0646954
0.0665482
0.0680831
0.0693578
0.0703734
0.0711547
0.0717626
0.0722433
0.0726289
0.0729418
0.0731983
0.0734103
0.0735867
0.0737346
0.0738592
0.0739647
0.0740545
0.0741314
0.000146824
0.00165332
0.00407776
0.00700296
0.0103475
0.0140795
0.0181704
0.0225836
0.0272696
0.032163
0.0371763
0.0422234
0.0472055
0.0519999
0.0560716
0.0593409
0.0620348
0.064253
0.0660781
0.0675783
0.0688101
0.0697758
0.0705042
0.0710574
0.0714831
0.0718141
0.0720736
0.0722783
0.0724407
0.0725699
0.0726731
0.0727556
0.0728218
0.072875
0.0729179
0.0206689
0.0193969
0.0179308
0.0163306
0.0147815
0.0134595
0.0123074
0.0112732
0.0102978
0.0093022
0.00829995
0.00738056
0.00660832
0.00602785
0.00568836
0.00554121
0.0056906
0.00630584
0.00734056
0.00876639
0.010441
0.0122075
0.0545903
0.0534933
0.0524378
0.0513149
0.0499982
0.0483985
0.0464671
0.0442643
0.0418884
0.0394212
0.036956
0.0346416
0.0331331
0.0323391
0.0327128
0.0353159
0.0407685
0.0462579
0.0518669
0.0572138
0.0616486
0.0651251
0.0891721
0.0877245
0.0863768
0.0852294
0.0843814
0.0839263
0.0839275
0.0841935
0.0842581
0.0838341
0.0827807
0.0810301
0.078775
0.0763008
0.0738591
0.0716129
0.0694789
0.0682718
0.0678124
0.0679504
0.0689365
0.0703787
0.111271
0.109546
0.107408
0.104867
0.101938
0.0986594
0.0950893
0.0918822
0.0888704
0.0861448
0.0837535
0.0818211
0.0803852
0.079388
0.0787293
0.078532
0.078603
0.0785817
0.0785675
0.0786049
0.0785481
0.0788626
0.10914
0.107561
0.105875
0.104117
0.102336
0.100583
0.0989495
0.0968678
0.0947274
0.092644
0.0906721
0.0888791
0.0873463
0.0860946
0.0850875
0.0840941
0.0832093
0.0826209
0.0822572
0.0821238
0.082174
0.0824025
0.101519
0.100903
0.100164
0.0993184
0.0983941
0.0974133
0.0963898
0.0953158
0.0941958
0.0930515
0.091912
0.0908203
0.0898386
0.0890066
0.0883335
0.0878162
0.0874529
0.0872489
0.0871627
0.0871145
0.0871261
0.0871955
0.0970176
0.0968551
0.0966192
0.0963112
0.0959349
0.0954964
0.0950027
0.0944602
0.0938759
0.0932583
0.092619
0.0919775
0.0913691
0.0908219
0.0903472
0.0899525
0.0896418
0.0894163
0.0892735
0.0892083
0.0892174
0.0892977
0.093837
0.0938606
0.0938519
0.0938064
0.0937206
0.0935934
0.093425
0.0932168
0.0929718
0.092694
0.0923886
0.0920651
0.0917415
0.0914341
0.0911516
0.0909012
0.0906892
0.0905202
0.090397
0.0903207
0.090291
0.0903061
0.0925596
0.0925717
0.092566
0.0925419
0.0924981
0.092434
0.092349
0.0922428
0.0921158
0.0919693
0.0918053
0.0916287
0.0914494
0.0912775
0.0911183
0.0909766
0.0908561
0.0907596
0.0906893
0.0906462
0.0906308
0.0906428
0.0910418
0.0910854
0.0911177
0.0911377
0.0911445
0.0911376
0.0911165
0.0910811
0.0910313
0.0909677
0.090891
0.0908033
0.0907093
0.0906153
0.0905254
0.0904436
0.0903733
0.0903171
0.0902768
0.0902537
0.0902485
0.0902611
0.0900306
0.0900657
0.0900888
0.0901002
0.0901003
0.0900893
0.0900675
0.0900353
0.0899933
0.0899424
0.0898838
0.0898195
0.0897536
0.0896907
0.0896331
0.0895827
0.0895413
0.08951
0.08949
0.089482
0.0894864
0.0895034
0.0889767
0.0890279
0.0890673
0.0890946
0.0891099
0.0891135
0.0891058
0.0890873
0.0890588
0.089021
0.088975
0.0889219
0.0888656
0.0888108
0.0887599
0.0887147
0.0886767
0.0886467
0.0886255
0.0886137
0.0886115
0.088619
0.0881203
0.08819
0.0882458
0.0882877
0.0883158
0.0883304
0.0883321
0.0883217
0.0883001
0.0882685
0.0882284
0.0881819
0.0881325
0.0880845
0.0880399
0.0880005
0.087967
0.0879398
0.0879194
0.0879061
0.0879002
0.0879017
0.0872345
0.0873354
0.0874223
0.0874951
0.0875535
0.0875975
0.0876275
0.0876438
0.0876471
0.0876381
0.0876176
0.0875867
0.0875485
0.087508
0.0874681
0.08743
0.0873948
0.0873634
0.0873368
0.0873156
0.0873005
0.0872916
0.0863698
0.0865063
0.0866285
0.0867359
0.0868278
0.0869042
0.0869651
0.087011
0.0870426
0.0870609
0.0870672
0.0870618
0.0870458
0.0870225
0.0869947
0.0869646
0.0869342
0.0869052
0.0868789
0.0868561
0.0868378
0.0868245
0.085447
0.0856159
0.0857724
0.0859156
0.0860448
0.0861593
0.0862586
0.0863425
0.0864108
0.0864638
0.0865021
0.0865262
0.0865369
0.0865369
0.0865289
0.0865152
0.0864978
0.0864785
0.0864589
0.0864402
0.0864235
0.0864096
0.0845173
0.0847187
0.0849085
0.0850858
0.08525
0.0854002
0.085536
0.0856566
0.0857618
0.0858513
0.0859251
0.085983
0.0860247
0.0860523
0.0860687
0.0860762
0.0860771
0.0860731
0.0860659
0.0860571
0.0860477
0.0860389
0.0835597
0.0837909
0.0840122
0.0842225
0.0844209
0.0846065
0.0847784
0.084936
0.0850784
0.0852053
0.0853163
0.0854104
0.085486
0.0855444
0.0855885
0.0856207
0.0856432
0.0856581
0.0856671
0.0856718
0.0856735
0.0856734
0.0826108
0.0828674
0.0831157
0.0833547
0.0835834
0.0838007
0.0840057
0.0841974
0.0843749
0.0845374
0.0846843
0.0848141
0.0849237
0.0850137
0.0850868
0.0851453
0.0851916
0.0852277
0.0852554
0.0852763
0.085292
0.0853036
0.0816795
0.0819572
0.0822285
0.0824921
0.0827471
0.0829924
0.0832269
0.0834494
0.0836589
0.0838545
0.0840352
0.0841989
0.0843415
0.0844624
0.0845643
0.0846495
0.0847203
0.0847786
0.0848262
0.084865
0.0848963
0.0849216
0.0807894
0.0810833
0.0813724
0.0816557
0.0819321
0.0822005
0.0824597
0.0827086
0.0829459
0.0831706
0.0833815
0.0835761
0.083749
0.083899
0.0840284
0.0841394
0.0842341
0.0843146
0.0843826
0.0844398
0.0844877
0.0845278
0.07995
0.0802563
0.0805592
0.0808579
0.0811513
0.0814383
0.0817177
0.0819884
0.0822492
0.0824987
0.0827357
0.0829573
0.0831572
0.0833334
0.0834879
0.0836228
0.0837402
0.0838419
0.0839296
0.0840049
0.0840695
0.0841247
0.0791665
0.0794824
0.0797962
0.080107
0.0804139
0.0807158
0.0810116
0.0813001
0.0815801
0.0818502
0.0821092
0.0823538
0.082577
0.0827759
0.0829526
0.0831089
0.0832468
0.0833679
0.083474
0.0835666
0.0836471
0.0837171
0.078431
0.0787559
0.0790796
0.0794012
0.07972
0.0800348
0.0803447
0.0806483
0.0809446
0.0812321
0.0815097
0.0817738
0.0820167
0.0822352
0.0824311
0.0826061
0.0827619
0.0829004
0.083023
0.0831312
0.0832265
0.0833103
0.0777239
0.0780595
0.0783945
0.0787282
0.0790596
0.0793878
0.0797116
0.0800299
0.0803415
0.0806451
0.0809394
0.0812208
0.0814812
0.0817167
0.0819292
0.0821204
0.082292
0.0824456
0.0825828
0.0827049
0.0828134
0.0829097
0.0770123
0.077363
0.0777136
0.0780632
0.078411
0.0787557
0.0790964
0.0794318
0.0797606
0.0800815
0.0803931
0.080692
0.0809692
0.0812209
0.0814488
0.0816547
0.0818404
0.0820075
0.0821576
0.082292
0.0824123
0.0825196
0.0762524
0.0766247
0.0769975
0.0773698
0.0777404
0.0781082
0.0784719
0.07883
0.0791812
0.079524
0.079857
0.0801763
0.0804726
0.0807419
0.0809859
0.0812068
0.0814064
0.0815865
0.0817487
0.0818945
0.0820254
0.0821428
0.0753931
0.0757948
0.076198
0.0766016
0.0770041
0.0774042
0.0778001
0.0781901
0.0785726
0.0789456
0.0793076
0.0796542
0.0799754
0.0802667
0.0805304
0.0807688
0.0809841
0.0811783
0.0813532
0.0815106
0.0816522
0.0817793
0.0743814
0.0748201
0.0752624
0.0757068
0.0761516
0.0765949
0.0770347
0.0774687
0.0778945
0.0783098
0.0787123
0.0790971
0.0794529
0.0797745
0.0800647
0.0803263
0.0805618
0.0807735
0.0809639
0.0811349
0.0812884
0.0814262
0.0731693
0.073651
0.0741396
0.0746335
0.0751305
0.0756285
0.0761247
0.0766162
0.0770998
0.0775724
0.0780308
0.0784687
0.0788729
0.0792371
0.0795646
0.0798584
0.0801217
0.0803574
0.0805683
0.0807571
0.0809259
0.0810769
0.0141926
0.0165128
0.0188914
0.0215732
0.0243212
0.0266846
0.0683591
0.0710934
0.0729869
0.0741962
0.0746495
0.0744095
0.0724254
0.0750335
0.0778265
0.0808119
0.0835604
0.086014
0.079614
0.0808101
0.0822554
0.0836046
0.0850305
0.086527
0.0829073
0.0837386
0.0847748
0.0859655
0.0872652
0.0886152
0.0873941
0.0877394
0.0881882
0.0887544
0.0894391
0.0902401
0.0895099
0.0898524
0.0902492
0.0906855
0.0911584
0.0916732
0.0903978
0.0905698
0.0907941
0.0910668
0.0913834
0.0917391
0.0906945
0.0907832
0.0909114
0.091073
0.0912655
0.0914856
0.0902861
0.090319
0.0903778
0.090461
0.0905675
0.0906954
0.0895122
0.0895097
0.0895246
0.0895569
0.0896062
0.0896715
0.0886104
0.0885839
0.088571
0.0885718
0.0885866
0.088615
0.0878841
0.0878456
0.0878168
0.087798
0.0877894
0.0877911
0.0872644
0.0872179
0.0871796
0.0871496
0.0871283
0.0871156
0.0867926
0.0867417
0.0866975
0.0866601
0.0866299
0.086607
0.0863753
0.0863217
0.0862736
0.0862312
0.0861949
0.0861647
0.0860068
0.0859532
0.0859034
0.0858576
0.0858161
0.085779
0.0856461
0.0855939
0.0855439
0.0854962
0.0854513
0.0854091
0.0852836
0.0852348
0.0851863
0.0851387
0.085092
0.0850467
0.0849107
0.0848666
0.0848216
0.0847757
0.0847294
0.084683
0.0845273
0.0844894
0.0844492
0.0844069
0.0843627
0.0843172
0.0841354
0.0841046
0.0840704
0.0840329
0.0839924
0.0839492
0.0837391
0.083716
0.0836885
0.0836566
0.0836207
0.083581
0.0833432
0.0833281
0.0833075
0.0832816
0.0832508
0.0832153
0.0829529
0.0829454
0.0829316
0.0829118
0.0828863
0.082855
0.0825722
0.0825719
0.0825645
0.0825506
0.0825299
0.0825029
0.0822039
0.0822101
0.0822087
0.0821999
0.0821837
0.0821604
0.0818484
0.0818603
0.0818641
0.0818597
0.0818474
0.0818273
0.081503
0.0815199
0.081528
0.0815275
0.0815183
0.0815008
0.081162
0.081183
0.0811945
0.081197
0.0811903
0.0811748
0.0283472
0.0297237
0.0310927
0.032576
0.0342154
0.0359876
0.0378387
0.0397078
0.0415384
0.04328
0.0448882
0.046313
0.0475456
0.0484601
0.0491372
0.0496443
0.0500138
0.0502835
0.0504848
0.0506502
0.0508186
0.0509382
0.0738297
0.0731383
0.0725194
0.0721657
0.0719371
0.0720764
0.0727348
0.0738045
0.0751021
0.0764633
0.0777639
0.0789054
0.0798723
0.0804262
0.0806812
0.0808007
0.0807929
0.0807109
0.0805922
0.0804798
0.0803498
0.0802296
0.0881476
0.0900779
0.0920302
0.0940215
0.0960207
0.0979148
0.0995519
0.100833
0.101649
0.102006
0.101925
0.101534
0.101034
0.100565
0.100165
0.0997963
0.0994386
0.0990801
0.0987155
0.0983423
0.0979597
0.0975753
0.0879763
0.0893291
0.090649
0.0920163
0.0934447
0.0948708
0.0963386
0.0978522
0.0993923
0.100909
0.102325
0.103549
0.104566
0.105161
0.105366
0.105229
0.104931
0.10451
0.10399
0.10339
0.102723
0.101998
0.0898719
0.0910427
0.0922173
0.093394
0.0945755
0.0957187
0.0968142
0.0978634
0.0988541
0.0997691
0.100581
0.101289
0.101801
0.102294
0.102789
0.103296
0.103807
0.104313
0.104816
0.10529
0.105705
0.106004
0.0910868
0.0919109
0.0927565
0.0936027
0.0944211
0.0952363
0.0960335
0.0967984
0.0975189
0.0981859
0.0987923
0.0993397
0.0998324
0.100279
0.100692
0.101076
0.101427
0.101744
0.102007
0.102232
0.102431
0.102628
0.0922072
0.0927288
0.0932735
0.0938321
0.0943963
0.0949584
0.0955099
0.0960432
0.0965517
0.0970303
0.0974756
0.097884
0.0982475
0.0985657
0.0988449
0.0990901
0.0993053
0.0994933
0.0996565
0.0997975
0.0999174
0.100016
0.0920981
0.0924305
0.0927733
0.0931223
0.0934728
0.0938199
0.0941589
0.0944849
0.0947938
0.0950817
0.0953451
0.0955797
0.0957786
0.0959408
0.0960697
0.0961686
0.09624
0.0962865
0.0963098
0.0963115
0.0962922
0.0962525
0.0916993
0.0918819
0.0920696
0.0922599
0.0924507
0.0926402
0.0928266
0.0930075
0.0931806
0.0933434
0.0934937
0.093628
0.0937417
0.0938337
0.0939057
0.0939591
0.0939949
0.0940142
0.0940178
0.0940064
0.0939801
0.0939393
0.0908085
0.0908861
0.0909669
0.09105
0.0911345
0.0912192
0.0913028
0.0913837
0.0914605
0.0915313
0.0915941
0.0916461
0.0916842
0.0917072
0.0917155
0.0917094
0.0916899
0.0916592
0.0916185
0.0915688
0.0915107
0.0914445
0.0897146
0.0897218
0.0897317
0.0897456
0.0897635
0.0897853
0.0898106
0.0898389
0.0898694
0.0899005
0.0899305
0.0899571
0.0899777
0.0899918
0.0899992
0.0900006
0.0899964
0.0899865
0.0899705
0.0899477
0.0899173
0.0898788
0.0886233
0.0885988
0.0885791
0.0885645
0.088555
0.0885507
0.0885512
0.0885558
0.088563
0.0885709
0.0885779
0.0885829
0.0885847
0.0885828
0.0885766
0.0885658
0.0885505
0.08853
0.0885037
0.0884705
0.0884295
0.0883798
0.0877743
0.0877299
0.0876906
0.0876554
0.0876244
0.0875978
0.0875755
0.0875579
0.0875449
0.0875357
0.0875295
0.0875245
0.0875186
0.08751
0.0874966
0.087477
0.0874499
0.087414
0.0873687
0.0873133
0.0872474
0.0871713
0.0870879
0.0870379
0.0869922
0.0869498
0.0869107
0.0868752
0.0868432
0.086815
0.0867903
0.0867681
0.0867462
0.0867216
0.0866911
0.0866528
0.0866058
0.08655
0.0864855
0.0864124
0.0863309
0.086241
0.0861429
0.0860372
0.0865705
0.0865159
0.0864652
0.0864172
0.0863717
0.0863282
0.086286
0.0862441
0.0862006
0.0861536
0.0861003
0.0860384
0.0859675
0.0858889
0.0858039
0.0857137
0.0856178
0.0855154
0.0854064
0.0852906
0.085168
0.0850394
0.0861213
0.086061
0.0860026
0.0859448
0.0858869
0.0858283
0.0857678
0.0857041
0.0856358
0.0855612
0.0854786
0.0853873
0.0852887
0.0851849
0.0850759
0.0849614
0.0848413
0.0847157
0.0845846
0.0844484
0.0843073
0.0841618
0.0857269
0.0856577
0.0855883
0.0855175
0.0854447
0.085369
0.0852894
0.085205
0.0851146
0.085017
0.084911
0.0847961
0.0846745
0.0845484
0.0844177
0.0842823
0.0841421
0.0839974
0.0838482
0.0836946
0.0835368
0.0833751
0.085349
0.0852703
0.0851896
0.085106
0.085019
0.0849276
0.0848313
0.084729
0.0846198
0.0845028
0.0843768
0.0842414
0.0840994
0.0839535
0.0838038
0.0836502
0.0834929
0.0833319
0.0831673
0.0829995
0.0828284
0.0826544
0.0849796
0.0848919
0.084801
0.0847061
0.0846068
0.0845024
0.0843921
0.0842752
0.0841508
0.0840179
0.0838755
0.0837233
0.0835645
0.0834025
0.083237
0.0830682
0.0828961
0.0827207
0.0825421
0.0823602
0.082175
0.0819866
0.0846109
0.0845156
0.0844162
0.0843122
0.0842029
0.0840879
0.0839663
0.0838375
0.0837005
0.0835544
0.083398
0.0832313
0.0830577
0.0828809
0.0827006
0.082517
0.0823299
0.0821394
0.0819454
0.0817478
0.0815469
0.0813425
0.0842419
0.0841404
0.0840342
0.0839228
0.0838056
0.0836819
0.0835512
0.0834124
0.0832648
0.0831073
0.0829386
0.0827588
0.0825714
0.0823804
0.0821857
0.0819871
0.0817848
0.0815786
0.0813687
0.0811549
0.0809375
0.0807164
0.0838723
0.083766
0.0836545
0.0835373
0.0834136
0.0832829
0.0831443
0.082997
0.08284
0.0826721
0.0824919
0.0822994
0.0820984
0.0818931
0.0816835
0.0814695
0.0812512
0.0810285
0.0808015
0.0805705
0.0803355
0.0800968
0.0835037
0.0833938
0.0832781
0.0831561
0.0830271
0.0828904
0.082745
0.0825899
0.0824241
0.0822462
0.0820548
0.0818495
0.0816346
0.0814145
0.0811893
0.0809589
0.0807235
0.0804832
0.0802383
0.079989
0.0797355
0.0794783
0.0831384
0.0830257
0.0829067
0.0827808
0.0826472
0.082505
0.0823532
0.0821907
0.0820162
0.0818281
0.0816249
0.0814061
0.0811762
0.08094
0.0806977
0.0804493
0.0801951
0.0799355
0.0796707
0.0794013
0.0791277
0.0788503
0.0827791
0.0826642
0.0825423
0.0824129
0.0822749
0.0821273
0.081969
0.0817987
0.0816147
0.0814155
0.0811991
0.0809649
0.0807178
0.080463
0.0802007
0.0799314
0.0796554
0.0793733
0.0790857
0.0787932
0.0784964
0.0781961
0.082428
0.082311
0.0821864
0.0820533
0.0819105
0.0817569
0.0815911
0.0814114
0.0812162
0.0810034
0.0807707
0.0805176
0.0802492
0.0799713
0.0796845
0.0793893
0.0790866
0.078777
0.0784616
0.0781413
0.0778169
0.0774893
0.0820863
0.081967
0.0818389
0.0817011
0.0815522
0.0813908
0.081215
0.0810231
0.0808129
0.0805821
0.0803281
0.08005
0.0797536
0.0794457
0.0791271
0.0787988
0.0784619
0.0781178
0.0777678
0.0774131
0.077055
0.0766948
0.0817533
0.0816303
0.0814971
0.0813524
0.0811946
0.0810218
0.080832
0.0806228
0.0803916
0.0801358
0.0798523
0.0795402
0.0792062
0.0788583
0.0784978
0.0781265
0.0777461
0.0773584
0.0769654
0.0765686
0.0761699
0.0757708
0.0814254
0.0812962
0.0811547
0.0809993
0.0808279
0.0806382
0.0804277
0.0801935
0.0799325
0.0796415
0.0793171
0.0789585
0.0785739
0.0781731
0.0777583
0.0773321
0.076897
0.0764557
0.0760106
0.0755639
0.0751179
0.0746743
0.081096
0.0809564
0.0808016
0.0806295
0.0804376
0.0802228
0.0799822
0.0797121
0.079409
0.0790691
0.078689
0.0782681
0.0778172
0.0773483
0.0768651
0.0763711
0.0758701
0.0753653
0.0748599
0.0743569
0.0738585
0.0733668
0.0509999
0.0510295
0.0511071
0.0512356
0.0514243
0.0516847
0.0520338
0.052496
0.0531016
0.0538793
0.0548404
0.0559761
0.057259
0.058647
0.0600747
0.061325
0.0621919
0.0626095
0.0627046
0.0624921
0.0602081
0.0563387
0.050959
0.0451816
0.0387529
0.032436
0.0268692
0.0219414
0.0175362
0.0136431
0.0104098
0.00750288
0.00451126
0.00138025
0.000615444
0.0801126
0.0799745
0.0798518
0.0797601
0.0797168
0.0797391
0.0798444
0.0800513
0.0803785
0.080845
0.0814314
0.0820316
0.0825712
0.0827794
0.0823932
0.0813678
0.0800667
0.0788951
0.0785507
0.0798228
0.0824771
0.0864825
0.0894732
0.0913621
0.0906124
0.0909435
0.0912984
0.0890942
0.0832183
0.0717039
0.0562721
0.0393309
0.0227825
0.00873561
0.0010429
0.0972201
0.0968739
0.0964706
0.0959985
0.0954405
0.0947726
0.0939632
0.0929858
0.0918378
0.0904736
0.088741
0.086336
0.0829677
0.0788825
0.0746482
0.0704565
0.0661139
0.0634157
0.0645356
0.0690397
0.0762888
0.0840518
0.0919316
0.097852
0.0995802
0.0970032
0.0910884
0.0826915
0.0724844
0.0608176
0.0478835
0.0342023
0.0206257
0.00851254
0.000921816
0.1014
0.100889
0.10034
0.0997402
0.0991121
0.0984438
0.0977337
0.0966563
0.0949909
0.0924151
0.0887196
0.0835167
0.0769976
0.0715258
0.0645782
0.0600479
0.0573059
0.0574633
0.0607056
0.0654767
0.0692448
0.0714012
0.0730487
0.0737264
0.0728652
0.0707602
0.0669366
0.0607951
0.0530224
0.0440092
0.0343055
0.0243375
0.0145962
0.00585664
0.000811984
0.106167
0.106258
0.106282
0.106185
0.105894
0.105361
0.104424
0.1032
0.101664
0.0998535
0.0978186
0.0956137
0.0932808
0.0904014
0.0850754
0.0741211
0.0605662
0.0481202
0.0405203
0.0407404
0.0475043
0.0556205
0.0615255
0.0636517
0.063438
0.060704
0.0562289
0.0504271
0.0437603
0.0363654
0.0286819
0.0208615
0.0131452
0.00578749
0.00066218
0.102803
0.102972
0.103152
0.103334
0.103496
0.103608
0.103627
0.103482
0.103039
0.102143
0.100593
0.0981229
0.0943609
0.0887484
0.0795692
0.0681545
0.0561132
0.0445295
0.036032
0.029387
0.0270849
0.0276412
0.0288337
0.0297512
0.0295895
0.0290655
0.0269129
0.023871
0.020286
0.0166724
0.0130066
0.00940852
0.00588588
0.00255703
0.000433944
0.100112
0.100231
0.100351
0.100464
0.100546
0.100558
0.100428
0.100085
0.099478
0.0985847
0.0973811
0.0958597
0.0939665
0.0915535
0.0883699
0.0841243
0.0785658
0.0720863
0.0649985
0.0571106
0.0490568
0.0409795
0.0337163
0.0278408
0.0229507
0.0187334
0.0151785
0.0123333
0.0102181
0.00860367
0.00683657
0.00504878
0.00327036
0.0015644
0.000224259
0.0962339
0.0962534
0.0962623
0.0962549
0.096225
0.0961641
0.0960597
0.0958934
0.0956405
0.0952647
0.0947076
0.0938954
0.0927364
0.0911362
0.0890209
0.0864539
0.0835722
0.0802961
0.0764897
0.0720416
0.0668803
0.0605626
0.0535218
0.0465328
0.0395443
0.0327599
0.0263379
0.0203114
0.0151104
0.0108822
0.00763153
0.00508451
0.00297811
0.00120936
0.000184913
0.093928
0.0939586
0.0939854
0.0940039
0.0940064
0.0939801
0.093905
0.0937607
0.0935237
0.0931632
0.0926404
0.0919095
0.0909197
0.0896237
0.0879869
0.0860453
0.0838558
0.0813678
0.0784974
0.0751113
0.0710402
0.0658986
0.0598131
0.0534974
0.0471577
0.0409687
0.0350237
0.0293264
0.023899
0.0187577
0.0139364
0.00949528
0.00552124
0.00218132
0.00026084
0.0914117
0.0914222
0.0914278
0.0914249
0.0914085
0.0913715
0.0913048
0.0911962
0.09103
0.0907854
0.090435
0.0899448
0.089271
0.088354
0.0871184
0.0855401
0.0836604
0.0814726
0.0789478
0.0760096
0.0725182
0.0681429
0.0628327
0.0570639
0.0509249
0.044553
0.038133
0.0318248
0.0257698
0.0200867
0.0148506
0.0101117
0.00592351
0.00241113
0.000233033
0.0898683
0.0898949
0.0899199
0.0899399
0.0899494
0.0899398
0.0898994
0.0898168
0.0896771
0.0894606
0.0891418
0.0886878
0.0880568
0.0871949
0.086043
0.0846012
0.0829178
0.0809713
0.0787026
0.0760061
0.0727216
0.0685034
0.0632426
0.0574075
0.0511243
0.0445944
0.038041
0.0316471
0.0255609
0.0198829
0.0146703
0.00995989
0.00579303
0.00230882
0.000244508
0.0883565
0.0883714
0.0883821
0.0883856
0.0883775
0.0883522
0.088302
0.0882171
0.0880846
0.0878878
0.0876057
0.0872124
0.0866737
0.085939
0.0849469
0.0836819
0.0821695
0.0803741