/*--------------------------------*- C++ -*----------------------------------*\
  =========                 |
  \\      /  F ield         | OpenFOAM: The Open Source CFD Toolbox
   \\    /   O peration     | Website:  https://openfoam.org
    \\  /    A nd           | Version:  8
     \\/     M anipulation  |
\*---------------------------------------------------------------------------*/
FoamFile
{
    version     2.0;
    format      ascii;
    class       volScalarField;
    location    "0.28";
    object      p;
}
// * * * * * * * * * * * * * * * * * * * * * * * * * * * * * * * * * * * * * //

dimensions      [1 -1 -2 0 0 0 0];

internalField   nonuniform List<scalar> 
15677
(
114410
114409
114411
114412
114413
114414
114414
114412
114410
114401
114381
114349
114287
114191
114094
114015
113955
113907
113866
113839
113825
113823
113821
113817
113810
113802
113793
113784
113776
113768
113761
113755
113750
113744
113741
91509.7
91463.2
91389.9
91308.2
91235.1
91174.6
91127.8
91096.2
91086.8
91119
91223.9
91420.7
91712.1
92035.9
92206.6
92205.7
92077
91900.3
91731
91595.7
91492.1
91417.7
91344.9
91277.1
91216.1
91162
91114.9
91074
91038.2
91007
90979.8
90956.1
90935.2
90916.1
90897
106849
106870
106879
106859
106809
106742
106656
106544
106410
106296
106238
106239
106330
106485
106570
106544
106522
106559
106692
106861
107063
107267
107448
107603
107729
107832
107917
107990
108056
108114
108166
108210
108249
108283
108315
97956.4
97962.8
97958.8
97940.2
97902.5
97847.1
97775.3
97686.7
97581.2
97464.2
97356.3
97249.5
97149.6
97109
97158.1
97165
97117.4
97034.4
96945.8
96840.9
96719.7
96582
96443.2
96318.5
96225.8
96170.1
96138.4
96109.3
96083.3
96060.9
96041.6
96025.7
96012.8
96001.2
95993.3
103892
103880
103871
103863
103857
103853
103853
103856
103861
103870
103882
103900
103928
103994
104076
104167
104233
104265
104264
104275
104286
104305
104338
104382
104432
104480
104525
104580
104634
104681
104722
104759
104791
104820
104844
99153.7
99142.3
99130.1
99120.3
99113.9
99109.6
99115.9
99129.7
99148.4
99169.2
99186
99194
99190.4
99172.2
99142
99108
99072.8
99054.8
99061
99064.3
99064
99062.4
99057.2
99051.6
99045.3
99040.1
99038
99030.1
99021.2
99014.9
99011.4
99009.7
99008.6
99007.1
99007.9
102594
102596
102596
102594
102589
102585
102582
102582
102584
102588
102594
102603
102614
102632
102658
102691
102729
102775
102813
102844
102866
102878
102889
102899
102904
102906
102906
102908
102909
102911
102912
102913
102913
102914
102912
100385
100385
100383
100380
100377
100372
100364
100356
100348
100339
100330
100320
100309
100298
100287
100276
100265
100258
100256
100261
100268
100281
100292
100300
100307
100312
100316
100319
100321
100323
100325
100327
100329
100330
100333
101985
101983
101982
101981
101981
101981
101982
101985
101988
101993
101998
102005
102015
102027
102040
102053
102066
102078
102086
102085
102079
102071
102065
102061
102057
102054
102052
102051
102050
102049
102049
102048
102047
102047
102045
100877
100877
100877
100876
100875
100874
100873
100872
100871
100868
100866
100863
100860
100856
100852
100849
100846
100847
100854
100864
100876
100887
100896
100903
100908
100913
100917
100920
100922
100924
100926
100928
100929
100930
100932
101680
101679
101679
101678
101677
101677
101677
101676
101677
101677
101678
101679
101681
101684
101688
101694
101700
101701
101695
101690
101683
101677
101673
101670
101668
101667
101666
101665
101664
101664
101663
101663
101662
101662
101661
101157
101157
101156
101155
101154
101153
101152
101152
101152
101152
101151
101150
101149
101149
101148
101146
101147
101152
101160
101168
101176
101182
101188
101192
101194
101196
101197
101199
101200
101201
101202
101203
101204
101204
101205
101535
101534
101534
101534
101533
101533
101532
101531
101529
101528
101526
101525
101523
101523
101523
101526
101523
101518
101513
101509
101504
101501
101499
101498
101498
101498
101498
101499
101499
101499
101499
101499
101499
101499
101498
101292
101291
101290
101289
101289
101288
101287
101287
101287
101287
101288
101288
101288
101288
101288
101289
101294
101299
101304
101309
101313
101317
101319
101320
101321
101322
101323
101323
101323
101323
101324
101324
101325
101325
101326
101469
101469
101469
101469
101468
101468
101467
101466
101464
101462
101460
101458
101456
101454
101452
101448
101445
101441
101438
101436
101433
101432
101432
101432
101432
101432
101433
101434
101434
101435
101435
101436
101436
101436
101435
101354
101354
101353
101353
101352
101351
101351
101351
101351
101351
101351
101351
101352
101352
101356
101358
101361
101364
101367
101369
101371
101372
101373
101374
101374
101375
101375
101375
101375
101375
101375
101376
101376
101376
101377
101441
101441
101441
101440
101440
101439
101439
101437
101436
101434
101432
101431
101427
101424
101421
101418
101416
101414
101413
101411
101411
101410
101410
101411
101411
101411
101412
101412
101413
101413
101414
101414
101414
101414
101414
101384
101383
101383
101382
101382
101381
101381
101381
101381
101381
101382
101382
101383
101385
101387
101388
101390
101391
101392
101393
101394
101394
101395
101395
101395
101395
101396
101396
101396
101396
101396
101396
101396
101397
101397
101428
101428
101428
101428
101427
101427
101426
101425
101423
101421
101419
101417
101415
101413
101411
101409
101408
101407
101406
101406
101406
101406
101406
101406
101406
101407
101407
101407
101408
101408
101408
101409
101409
101409
101409
101399
101399
101398
101398
101398
101398
101397
101397
101397
101398
101398
101398
101398
101399
101400
101400
101401
101401
101402
101402
101402
101403
101403
101403
101403
101404
101404
101404
101404
101404
101404
101405
101405
101405
101405
101421
101421
101420
101420
101420
101419
101418
101417
101416
101415
101414
101412
101411
101409
101408
101407
101407
101406
101406
101406
101406
101406
101406
101407
101407
101407
101407
101408
101408
101408
101408
101409
101409
101409
101409
101408
101408
101407
101407
101407
101406
101406
101406
101405
101405
101405
101405
101405
101405
101405
101405
101406
101406
101406
101406
101406
101406
101406
101407
101407
101407
101407
101408
101408
101408
101408
101408
101408
101409
101409
101417
101417
101416
101416
101416
101415
101415
101414
101413
101412
101411
101410
101409
101409
101408
101408
101407
101407
101407
101407
101407
101407
101408
101408
101408
101408
101409
101409
101409
101409
101410
101410
101410
101410
101410
101412
101411
101411
101411
101411
101410
101410
101410
101409
101409
101409
101408
101408
101408
101408
101407
101407
101407
101407
101407
101408
101408
101408
101408
101409
101409
101409
101409
101410
101410
101410
101410
101410
101411
101411
101415
101415
101415
101414
101414
101413
101413
101412
101412
101411
101411
101410
101409
101409
101408
101408
101408
101408
101408
101408
101408
101408
101409
101409
101409
101409
101410
101410
101410
101411
101411
101411
101411
101411
101411
101413
101413
101413
101412
101412
101412
101411
101411
101411
101410
101410
101409
101409
101409
101408
101408
101408
101408
101408
101408
101408
101409
101409
101409
101410
101410
101410
101410
101411
101411
101411
101411
101412
101412
101412
101414
101414
101414
101413
101413
101413
101412
101412
101411
101411
101410
101410
101409
101409
101408
101408
101408
101408
101408
101408
101408
101409
101409
101409
101410
101410
101410
101411
101411
101411
101411
101412
101412
101412
101412
101413
101413
101413
101413
101412
101412
101411
101411
101411
101410
101410
101409
101409
101409
101408
101408
101408
101408
101408
101408
101408
101409
101409
101409
101410
101410
101411
101411
101411
101411
101412
101412
101412
101412
101412
101413
101413
101413
101413
101412
101412
101412
101411
101411
101410
101410
101409
101409
101408
101408
101408
101408
101408
101408
101408
101408
101409
101409
101409
101410
101410
101411
101411
101411
101412
101412
101412
101412
101413
101412
101413
101413
101412
101412
101412
101412
101411
101411
101410
101410
101409
101409
101409
101408
101408
101408
101408
101408
101408
101408
101408
101409
101409
101409
101410
101410
101411
101411
101411
101412
101412
101412
101412
101413
101412
113749
113789
113836
113882
113931
113982
114035
114091
114150
114212
114277
114344
114412
114480
114546
114612
114675
114738
114799
114861
114918
114985
90879.5
90830.3
90768.6
90704.5
90637.7
90568.7
90501.2
90439.5
90384.1
90335
90295
90266
90249.4
90242.9
90237.5
90224.6
90200.5
90169.1
90136.2
90073.6
90029.9
89991.5
108338
108368
108403
108440
108480
108524
108572
108620
108674
108737
108812
108896
108989
109085
109176
109257
109324
109372
109400
109413
109414
109390
96007.5
96013.8
96017.7
96022.4
96034.2
96047.2
96061.4
96078.9
96097.9
96121.3
96147.6
96172.6
96199.2
96231.9
96267.1
96299.8
96325.3
96342.2
96353.2
96358.9
96350.2
96356.4
104855
104859
104862
104859
104846
104820
104783
104740
104693
104646
104598
104551
104507
104465
104424
104386
104353
104323
104297
104273
104251
104231
99026.9
99052.8
99076.6
99100.6
99125.8
99152
99178.6
99205.2
99231.6
99258.3
99285.3
99311.8
99335.6
99357.3
99377.8
99397.8
99417.4
99435.1
99446.4
99456.3
99463.8
99473.3
102890
102870
102850
102830
102808
102785
102762
102737
102712
102687
102661
102637
102614
102594
102575
102558
102541
102525
102510
102496
102482
102467
100350
100371
100390
100410
100429
100448
100468
100488
100507
100527
100546
100564
100580
100594
100607
100618
100629
100639
100647
100655
100662
100670
102031
102016
102002
101987
101972
101956
101941
101925
101909
101893
101878
101863
101850
101838
101827
101817
101807
101798
101789
101781
101773
101763
100945
100958
100971
100983
100996
101008
101021
101033
101046
101058
101070
101080
101090
101098
101105
101111
101117
101122
101127
101131
101136
101141
101653
101644
101636
101627
101618
101609
101600
101591
101582
101574
101565
101558
101551
101544
101539
101533
101528
101524
101520
101515
101511
101507
101213
101221
101228
101235
101242
101249
101256
101262
101269
101275
101281
101286
101291
101294
101298
101300
101303
101305
101307
101309
101311
101314
101494
101490
101485
101481
101476
101472
101467
101463
101458
101454
101450
101447
101444
101441
101438
101436
101435
101433
101432
101431
101429
101428
101330
101334
101337
101341
101344
101348
101351
101354
101357
101360
101363
101365
101367
101368
101370
101372
101374
101375
101376
101377
101377
101379
101434
101432
101430
101428
101426
101424
101422
101420
101418
101417
101416
101415
101414
101413
101412
101412
101411
101411
101410
101410
101409
101409
101379
101380
101382
101383
101385
101386
101388
101389
101390
101392
101393
101394
101394
101395
101396
101396
101397
101397
101398
101398
101398
101399
101413
101413
101412
101411
101410
101409
101409
101408
101408
101407
101407
101407
101407
101406
101406
101406
101406
101406
101406
101406
101406
101406
101398
101398
101399
101400
101400
101401
101401
101402
101402
101403
101403
101403
101404
101404
101404
101404
101405
101405
101405
101405
101405
101406
101408
101408
101408
101408
101408
101407
101407
101407
101407
101407
101407
101407
101407
101407
101407
101407
101407
101407
101407
101408
101408
101408
101405
101406
101406
101406
101406
101407
101407
101407
101407
101407
101407
101407
101408
101408
101408
101408
101408
101408
101408
101408
101408
101409
101409
101409
101409
101409
101409
101409
101409
101409
101409
101409
101409
101409
101409
101409
101409
101409
101409
101409
101409
101410
101410
101410
101409
101409
101409
101409
101409
101409
101410
101410
101410
101410
101410
101410
101410
101410
101410
101410
101410
101410
101410
101410
101411
101411
101410
101410
101410
101410
101410
101411
101411
101411
101411
101411
101411
101411
101411
101411
101411
101411
101411
101411
101411
101411
101411
101411
101411
101411
101411
101411
101411
101411
101411
101411
101412
101412
101412
101412
101412
101412
101412
101412
101412
101412
101412
101412
101412
101412
101412
101412
101412
101412
101412
101412
101412
101412
101412
101412
101412
101412
101413
101413
101413
101413
101413
101413
101413
101413
101413
101413
101412
101412
101412
101412
101413
101413
101413
101413
101413
101413
101413
101413
101413
101413
101413
101413
101413
101413
101413
101413
101413
101413
101413
101413
101413
101413
101413
101413
101413
101413
101414
101414
101414
101414
101414
101414
101414
101414
101414
101414
101414
101414
101414
101414
101413
101413
101413
101413
101413
101414
101414
101414
101414
101414
101414
101414
101414
101414
101415
101415
101415
101415
101415
101415
101415
101414
101413
101413
101413
101414
101414
101414
101414
101414
101415
101415
101415
101415
101415
101415
101415
101415
101415
101415
101415
101415
101415
101415
101414
101413
101414
101414
101414
101414
101415
101415
101415
101415
101415
101415
101415
101416
101416
101416
101416
101416
101416
101416
101416
101415
115012
115003
115000
114994
114988
114983
89972.6
89962.2
89960.1
89961.7
89967.3
89984.9
109343
109285
109214
109135
109049
108955
96349
96304.2
96253.7
96202.5
96152.4
96105.6
104224
104239
104255
104273
104292
104311
99475.1
99460.4
99442.6
99424.3
99407.5
99391.7
102459
102463
102469
102474
102479
102485
100673
100668
100663
100658
100653
100648
101759
101760
101762
101764
101765
101767
101142
101140
101139
101138
101137
101137
101504
101505
101506
101506
101506
101507
101313
101313
101313
101313
101313
101314
101426
101427
101428
101428
101428
101429
101378
101379
101379
101379
101379
101380
101408
101409
101409
101410
101410
101411
101398
101399
101399
101400
101400
101401
101406
101407
101407
101407
101408
101408
101405
101406
101406
101407
101407
101408
101408
101408
101409
101409
101409
101410
101409
101409
101409
101410
101410
101410
101410
101410
101410
101411
101411
101411
101411
101411
101411
101412
101412
101412
101412
101412
101412
101412
101412
101413
101412
101413
101413
101413
101413
101413
101413
101413
101413
101414
101414
101414
101414
101414
101414
101414
101414
101414
101414
101414
101414
101415
101415
101415
101415
101415
101415
101415
101415
101415
101415
101415
101415
101416
101416
101415
101416
101416
101416
101416
101416
101416
114948
114882
114815
114750
114683
114616
114549
114480
114412
114343
114274
114206
114141
114079
114020
113963
113909
113857
113808
113760
113713
113678
90013.9
90057.9
90112.4
90169.7
90230.2
90298.5
90375.6
90457.5
90544.5
90637.6
90737.5
90843.8
90943.6
91036.6
91123.9
91204
91274.9
91337
91391.7
91439.9
91482.6
91508.9
108893
108822
108745
108670
108598
108527
108461
108401
108350
108306
108266
108235
108216
108201
108188
108179
108171
108163
108154
108145
108137
108136
96052.4
95999.4
95956.3
95917.7
95883.4
95852.6
95822.9
95793.7
95766.2
95744.6
95732
95722.5
95715
95709.3
95709.5
95716.5
95725.3
95732.2
95740.3
95750.1
95762
95770.1
104341
104381
104417
104451
104486
104522
104558
104595
104632
104668
104703
104733
104755
104767
104769
104765
104753
104735
104712
104686
104659
104632
99364.2
99332.9
99306.1
99281
99256.6
99232.8
99209.5
99187.1
99165.6
99144.9
99124.6
99104.6
99085.3
99067.8
99051.9
99037.4
99024.6
99014.3
99006.4
99000.8
98996.6
98989.9
102499
102522
102542
102563
102584
102605
102626
102647
102669
102690
102711
102733
102755
102776
102795
102813
102831
102846
102860
102871
102881
102890
100637
100621
100606
100592
100577
100562
100547
100531
100515
100498
100480
100462
100442
100423
100405
100387
100370
100354
100339
100326
100314
100301
101773
101785
101795
101806
101817
101828
101840
101853
101866
101880
101894
101910
101926
101943
101959
101975
101990
102005
102019
102033
102045
102058
101133
101127
101120
101113
101106
101099
101091
101083
101074
101065
101054
101043
101031
101018
101006
100993
100981
100970
100959
100948
100938
100928
101508
101514
101519
101525
101530
101536
101542
101549
101556
101564
101572
101581
101591
101601
101611
101621
101630
101640
101649
101658
101667
101675
101312
101311
101309
101307
101305
101303
101301
101298
101295
101292
101288
101283
101277
101272
101266
101259
101252
101245
101239
101232
101226
101219
101428
101431
101434
101436
101438
101440
101442
101445
101448
101452
101456
101460
101465
101470
101475
101479
101484
101489
101494
101499
101504
101508
101379
101379
101379
101378
101378
101377
101376
101375
101374
101373
101372
101370
101369
101367
101364
101362
101359
101356
101353
101351
101348
101344
101410
101412
101413
101414
101415
101416
101417
101419
101420
101421
101423
101424
101426
101428
101429
101432
101434
101436
101439
101441
101443
101445
101400
101401
101401
101402
101402
101402
101402
101402
101402
101402
101402
101402
101401
101401
101400
101399
101398
101397
101396
101395
101394
101392
101408
101409
101409
101410
101411
101411
101412
101412
101413
101414
101414
101415
101416
101417
101418
101419
101419
101420
101421
101422
101423
101424
101407
101408
101408
101409
101409
101409
101410
101410
101410
101411
101411
101411
101411
101411
101411
101411
101410
101410
101410
101409
101409
101408
101409
101410
101411
101411
101411
101412
101412
101413
101413
101413
101414
101414
101414
101415
101415
101415
101416
101416
101416
101417
101417
101417
101410
101411
101411
101412
101412
101412
101412
101413
101413
101413
101413
101414
101414
101414
101414
101414
101414
101414
101414
101414
101414
101413
101411
101412
101412
101412
101413
101413
101413
101414
101414
101414
101414
101414
101415
101415
101415
101415
101415
101415
101415
101415
101416
101416
101412
101413
101413
101413
101413
101414
101414
101414
101414
101414
101415
101415
101415
101415
101415
101415
101415
101415
101415
101415
101415
101415
101413
101413
101413
101414
101414
101414
101414
101415
101415
101415
101415
101415
101415
101415
101415
101415
101415
101415
101415
101415
101415
101415
101414
101414
101414
101414
101414
101415
101415
101415
101415
101415
101415
101415
101416
101416
101416
101416
101415
101415
101415
101415
101415
101415
101414
101414
101415
101415
101415
101415
101415
101415
101416
101416
101416
101416
101416
101416
101416
101416
101416
101416
101416
101415
101415
101415
101415
101415
101415
101415
101415
101416
101416
101416
101416
101416
101416
101416
101416
101416
101416
101416
101416
101416
101416
101416
101415
101416
101415
101415
101415
101416
101416
101416
101416
101416
101416
101416
101416
101416
101416
101416
101416
101416
101416
101416
101416
101416
101416
101416
101416
101416
101416
101416
101416
101416
101416
101416
101417
101417
101417
101417
101417
101416
101416
101416
101416
101416
101416
101416
101416
101416
101416
101416
101416
101416
101416
101417
101417
101417
101417
101417
101417
101417
101417
101417
101417
101416
101416
101416
101416
101416
101416
101416
101416
101416
101417
101417
101417
101417
101417
101417
101417
101417
101417
101417
101417
101417
101417
101417
101417
101416
101416
101416
101416
101416
113669
113667
113669
113670
113671
113672
113673
113675
113676
113677
113680
113686
113698
113718
113746
113783
113830
113884
113949
114021
114107
114188
114232
114262
114287
114302
114316
114326
114334
114339
114343
114346
114347
114348
114346
91508.5
91517
91526.6
91536.7
91547.8
91559.6
91572.2
91585.5
91599
91615.3
91638.6
91670.8
91713.3
91766.6
91831.3
91891.9
91930.9
91928.2
91879.1
91782.1
91617.3
91370.8
91118.7
90970.6
90908.3
90902.3
90922.2
90950.1
90992.3
91054.2
91133.7
91223.4
91314.9
91390.2
91433.2
108147
108143
108135
108126
108112
108092
108066
108034
107992
107935
107857
107757
107631
107480
107305
107122
106943
106775
106608
106445
106303
106196
106177
106232
106347
106522
106701
106864
107000
107102
107171
107216
107242
107254
107261
95759.2
95771.6
95785.1
95797.4
95810.3
95831.9
95866.5
95917.6
95987.4
96076.6
96184.6
96310.6
96449.3
96591.2
96727.5
96838.8
96919.8
96976.3
97009.9
97018.4
97010.7
96991.9
96969.5
96969.6
96998.1
97033.8
97067.1
97085.7
97090.6
97086.4
97079
97070.4
97060.4
97050.4
97042.9
104601
104568
104535
104501
104467
104425
104378
104328
104275
104218
104158
104090
104018
103943
103864
103792
103733
103679
103620
103562
103523
103513
103516
103498
103468
103443
103416
103386
103357
103333
103313
103295
103279
103266
103258
98986.8
98994.5
99003.5
99013.5
99025.3
99040.6
99058.2
99077.5
99098.1
99125.2
99164
99210.4
99266.5
99333
99400.9
99455
99502.2
99544.8
99578.3
99603.5
99625
99658.3
99696.8
99740.4
99810
99879.9
99932
99971.3
99999.9
100018
100028
100033
100034
100032
100030
102896
102890
102881
102872
102861
102848
102830
102811
102794
102776
102748
102723
102699
102679
102666
102663
102664
102663
102658
102649
102636
102621
102607
102595
102588
102585
102584
102583
102581
102578
102575
102572
102570
102568
102566
100289
100289
100291
100295
100299
100303
100309
100315
100321
100326
100335
100344
100356
100369
100387
100406
100422
100436
100449
100460
100467
100476
100484
100494
100505
100516
100525
100534
100541
100548
100552
100555
100556
100555
100554
102071
102072
102071
102070
102069
102067
102065
102062
102059
102056
102052
102048
102045
102042
102036
102030
102025
102021
102020
102023
102029
102037
102044
102049
102053
102054
102052
102049
102045
102041
102038
102036
102035
102034
102035
100920
100919
100920
100920
100920
100920
100921
100922
100923
100924
100925
100925
100925
100923
100921
100923
100926
100931
100938
100942
100945
100948
100946
100943
100941
100939
100938
100937
100937
100938
100938
100939
100940
100940
100940
101685
101686
101686
101686
101686
101686
101684
101683
101682
101681
101681
101681
101682
101684
101687
101691
101696
101697
101694
101694
101695
101698
101703
101709
101713
101717
101719
101720
101721
101722
101722
101721
101721
101721
101721
101215
101215
101214
101214
101214
101215
101215
101216
101216
101217
101217
101216
101215
101212
101209
101204
101200
101195
101194
101194
101196
101196
101195
101194
101192
101191
101190
101190
101190
101190
101191
101192
101193
101194
101195
101513
101513
101514
101514
101514
101514
101513
101513
101512
101512
101511
101511
101512
101514
101517
101521
101526
101530
101536
101540
101540
101542
101545
101548
101552
101555
101557
101559
101561
101562
101562
101563
101563
101563
101563
101342
101341
101341
101341
101341
101342
101342
101343
101343
101344
101344
101344
101343
101342
101340
101337
101333
101330
101326
101321
101319
101318
101318
101317
101317
101316
101315
101315
101315
101316
101316
101317
101318
101319
101319
101447
101447
101447
101448
101448
101448
101448
101447
101447
101446
101446
101446
101446
101447
101448
101450
101453
101456
101460
101464
101468
101472
101475
101477
101480
101482
101484
101486
101487
101488
101489
101489
101490
101490
101490
101391
101390
101390
101390
101391
101391
101391
101391
101392
101392
101392
101393
101392
101392
101391
101390
101388
101386
101384
101382
101379
101377
101374
101374
101373
101373
101373
101373
101373
101373
101374
101374
101375
101375
101376
101425
101425
101425
101425
101425
101425
101425
101425
101424
101424
101424
101424
101424
101424
101425
101425
101427
101428
101430
101432
101435
101438
101442
101445
101447
101450
101452
101453
101454
101455
101456
101456
101456
101457
101457
101408
101408
101408
101408
101408
101408
101408
101408
101408
101409
101409
101409
101409
101409
101409
101408
101408
101407
101406
101405
101404
101403
101402
101401
101400
101400
101399
101399
101399
101399
101399
101400
101400
101401
101401
101418
101418
101418
101418
101418
101418
101418
101418
101417
101417
101417
101417
101417
101417
101417
101418
101418
101419
101420
101421
101423
101425
101427
101429
101431
101433
101434
101436
101437
101438
101438
101439
101439
101439
101439
101413
101413
101413
101413
101413
101413
101413
101413
101413
101413
101413
101413
101414
101414
101414
101414
101413
101413
101413
101413
101413
101412
101412
101412
101412
101412
101412
101412
101412
101412
101412
101413
101413
101413
101413
101416
101416
101416
101416
101416
101416
101416
101415
101415
101415
101415
101415
101415
101415
101415
101416
101416
101416
101417
101417
101418
101419
101420
101422
101423
101424
101426
101426
101427
101428
101428
101429
101429
101429
101429
101415
101415
101415
101415
101415
101415
101414
101414
101414
101414
101414
101414
101414
101414
101414
101414
101415
101415
101415
101415
101415
101415
101416
101416
101416
101416
101416
101417
101417
101417
101418
101418
101418
101418
101419
101415
101415
101415
101415
101415
101415
101415
101415
101415
101415
101415
101415
101415
101414
101415
101415
101415
101415
101415
101416
101416
101417
101418
101419
101419
101420
101421
101422
101422
101423
101423
101424
101424
101424
101424
101415
101415
101415
101415
101415
101415
101415
101415
101414
101414
101414
101414
101414
101414
101414
101414
101414
101414
101415
101415
101415
101416
101416
101416
101417
101417
101418
101418
101418
101419
101419
101419
101420
101420
101420
101415
101415
101415
101415
101415
101415
101415
101415
101414
101414
101414
101414
101414
101414
101414
101414
101414
101414
101414
101415
101415
101416
101416
101417
101417
101418
101419
101419
101420
101420
101421
101421
101421
101421
101422
101415
101415
101415
101415
101415
101415
101415
101414
101414
101414
101414
101414
101414
101414
101414
101414
101414
101414
101414
101414
101415
101415
101415
101416
101416
101417
101417
101418
101418
101418
101419
101419
101419
101420
101420
101415
101415
101415
101415
101415
101415
101414
101414
101414
101414
101414
101414
101413
101413
101413
101413
101413
101413
101414
101414
101414
101415
101415
101416
101416
101417
101417
101418
101418
101419
101419
101419
101419
101420
101420
101415
101415
101415
101415
101415
101415
101414
101414
101414
101414
101414
101413
101413
101413
101413
101413
101413
101413
101413
101413
101414
101414
101414
101415
101415
101416
101416
101417
101417
101418
101418
101418
101419
101419
101419
101415
101415
101415
101415
101415
101414
101414
101414
101414
101414
101413
101413
101413
101413
101412
101412
101412
101412
101413
101413
101413
101413
101414
101414
101415
101415
101416
101416
101417
101417
101418
101418
101418
101418
101419
101415
101415
101415
101415
101415
101414
101414
101414
101414
101413
101413
101413
101412
101412
101412
101412
101412
101412
101412
101412
101413
101413
101413
101414
101414
101415
101415
101416
101416
101417
101417
101417
101418
101418
101418
101413
101412
101412
101412
101412
101411
101411
101410
101410
101410
101409
101409
101408
101408
101408
101407
101407
101407
101407
101408
101408
101408
101409
101409
101410
101410
101410
101411
101411
101412
101412
101412
101412
101413
101412
101412
101412
101412
101411
101411
101411
101410
101410
101410
101409
101409
101408
101408
101407
101407
101407
101407
101407
101407
101407
101408
101408
101408
101409
101409
101410
101410
101411
101411
101411
101412
101412
101412
101413
101412
101412
101412
101411
101411
101411
101410
101410
101410
101409
101409
101408
101408
101407
101407
101407
101406
101406
101406
101407
101407
101407
101407
101408
101408
101409
101409
101410
101410
101411
101411
101412
101412
101412
101413
101412
101411
101411
101411
101411
101410
101410
101409
101409
101409
101408
101408
101407
101407
101406
101406
101406
101406
101406
101406
101406
101406
101407
101407
101408
101408
101409
101409
101410
101410
101411
101411
101412
101412
101412
101412
101411
101411
101410
101410
101410
101409
101409
101409
101408
101408
101407
101407
101406
101406
101406
101405
101405
101405
101405
101406
101406
101406
101407
101407
101408
101408
101409
101409
101410
101410
101411
101411
101412
101412
101412
101410
101410
101410
101410
101409
101409
101408
101408
101408
101407
101407
101406
101406
101405
101405
101405
101405
101405
101405
101405
101405
101405
101406
101406
101407
101408
101408
101409
101409
101410
101410
101411
101411
101412
101411
101410
101410
101409
101409
101409
101408
101408
101407
101407
101407
101406
101406
101405
101405
101404
101404
101404
101404
101404
101404
101404
101405
101405
101406
101406
101407
101407
101408
101409
101409
101410
101410
101411
101411
101411
101409
101409
101409
101409
101408
101408
101407
101407
101407
101406
101406
101405
101405
101404
101404
101404
101404
101403
101403
101404
101404
101404
101404
101405
101405
101406
101407
101407
101408
101409
101409
101410
101410
101411
101411
101409
101409
101408
101408
101408
101407
101407
101407
101406
101406
101405
101405
101404
101404
101403
101403
101403
101403
101403
101403
101403
101403
101404
101404
101404
101405
101406
101406
101407
101408
101408
101409
101410
101410
101410
101408
101408
101408
101408
101407
101407
101406
101406
101406
101405
101405
101404
101404
101403
101403
101403
101402
101402
101402
101402
101402
101402
101403
101403
101403
101404
101405
101405
101406
101407
101407
101408
101409
101410
101409
101408
101408
101407
101407
101407
101406
101406
101406
101405
101405
101404
101404
101403
101403
101402
101402
101402
101402
101402
101401
101401
101402
101402
101402
101402
101403
101404
101404
101405
101406
101406
101407
101408
101409
101408
101407
101407
101407
101407
101406
101406
101406
101405
101405
101404
101404
101403
101403
101402
101402
101402
101401
101401
101401
101401
101401
101401
101401
101401
101401
101402
101402
101403
101404
101404
101405
101406
101407
101408
101408
101407
101407
101407
101406
101406
101406
101405
101405
101404
101404
101403
101403
101402
101402
101402
101401
101401
101401
101400
101400
101400
101400
101400
101400
101400
101401
101401
101402
101402
101403
101404
101405
101406
101407
101406
101407
101406
101406
101406
101406
101405
101405
101404
101404
101404
101403
101403
101402
101402
101401
101401
101400
101400
101400
101400
101399
101399
101399
101399
101399
101399
101400
101400
101401
101402
101402
101403
101404
101405
101405
101406
101406
101406
101406
101405
101405
101404
101404
101404
101403
101403
101402
101402
101401
101401
101400
101400
101400
101399
101399
101399
101398
101398
101398
101398
101398
101398
101399
101399
101400
101401
101402
101403
101404
101404
101406
101406
101405
101405
101405
101405
101404
101404
101403
101403
101402
101402
101401
101401
101400
101400
101400
101399
101399
101399
101398
101398