/*--------------------------------*- C++ -*----------------------------------*\
  =========                 |
  \\      /  F ield         | OpenFOAM: The Open Source CFD Toolbox
   \\    /   O peration     | Website:  https://openfoam.org
    \\  /    A nd           | Version:  8
     \\/     M anipulation  |
\*---------------------------------------------------------------------------*/
FoamFile
{
    version     2.0;
    format      ascii;
    class       volVectorField;
    location    "0.44";
    object      U;
}
// * * * * * * * * * * * * * * * * * * * * * * * * * * * * * * * * * * * * * //

dimensions      [0 1 -1 0 0 0 0];

internalField   nonuniform List<vector> 
15677
(
(-0.0399015 9.66595 0)
(0.0484951 9.92199 0)
(-0.00181358 9.37829 0)
(0.0206524 9.97702 0)
(0.0198921 9.78866 0)
(0.0073135 9.14125 0)
(0.0258391 9.99515 0)
(0.0165375 9.92467 0)
(0.0111793 9.65398 0)
(0.00649153 8.96067 0)
(0.0263309 10.0025 0)
(0.0205526 9.97871 0)
(0.0165511 9.85203 0)
(0.00912509 9.53081 0)
(0.00515982 8.81702 0)
(0.0255704 10.0057 0)
(0.0215846 10.003 0)
(0.0194064 9.94151 0)
(0.0153651 9.7795 0)
(0.00798063 9.41983 0)
(0.00424062 8.70237 0)
(0.0245089 10.0071 0)
(0.0218663 10.0147 0)
(0.0210026 9.98478 0)
(0.0182528 9.90243 0)
(0.013855 9.7081 0)
(0.00692538 9.32157 0)
(0.00354504 8.61018 0)
(0.0230971 10.0075 0)
(0.0217427 10.0205 0)
(0.0218699 10.0069 0)
(0.0201992 9.96497 0)
(0.0169621 9.86192 0)
(0.0124424 9.64083 0)
(0.00596887 9.23642 0)
(0.00295882 8.53615 0)
(0.0214092 10.0074 0)
(0.0211914 10.0233 0)
(0.0221532 10.0184 0)
(0.0212888 9.99809 0)
(0.019054 9.94371 0)
(0.0156086 9.82228 0)
(0.0110797 9.57965 0)
(0.00507733 9.16414 0)
(0.00241901 8.47761 0)
(0.019516 10.007 0)
(0.0203309 10.0235 0)
(0.0221107 10.0241 0)
(0.0217814 10.0162 0)
(0.0202175 9.98814 0)
(0.0177211 9.92274 0)
(0.0141438 9.78536 0)
(0.00968635 9.52574 0)
(0.00419917 9.10452 0)
(0.00188747 8.43308 0)
(0.0175007 10.0063 0)
(0.0192747 10.0223 0)
(0.0216674 10.0271 0)
(0.0218038 10.0261 0)
(0.0207485 10.0131 0)
(0.0188628 9.97854 0)
(0.0161755 9.90358 0)
(0.0125202 9.7524 0)
(0.00820445 9.48008 0)
(0.00328896 9.05738 0)
(0.00133515 8.40159 0)
(0.0153992 10.0056 0)
(0.0179656 10.0206 0)
(0.020935 10.0281 0)
(0.0214579 10.0315 0)
(0.0207819 10.0273 0)
(0.0193209 10.0103 0)
(0.0171895 9.97057 0)
(0.0143595 9.88719 0)
(0.0106823 9.72457 0)
(0.00658327 9.44346 0)
(0.00230512 9.02265 0)
(0.000739414 8.38284 0)
(0.0132621 10.0048 0)
(0.0164825 10.0185 0)
(0.0198606 10.0274 0)
(0.0207833 10.034 0)
(0.0204016 10.0354 0)
(0.0192429 10.0288 0)
(0.0174639 10.0092 0)
(0.0151344 9.96503 0)
(0.012201 9.87458 0)
(0.00856854 9.70295 0)
(0.00477164 9.41664 0)
(0.00121338 9.00039 0)
(5.68179e-05 8.37663 0)
(0.0111601 10.0041 0)
(0.0148861 10.0162 0)
(0.0185097 10.0258 0)
(0.019798 10.0345 0)
(0.0196675 10.0396 0)
(0.0187167 10.0396 0)
(0.0171516 10.0319 0)
(0.0151076 10.0103 0)
(0.0126103 9.96282 0)
(0.00962022 9.86675 0)
(0.00611451 9.68859 0)
(0.00272254 9.40025 0)
(-1.45235e-05 8.99076 0)
(-0.000613815 8.38293 0)
(0.0092705 10.0034 0)
(0.0131875 10.014 0)
(0.0169212 10.0235 0)
(0.0185031 10.0334 0)
(0.018595 10.0412 0)
(0.0177915 10.0456 0)
(0.016343 10.0453 0)
(0.0144295 10.0371 0)
(0.0121464 10.0145 0)
(0.00951653 9.96482 0)
(0.00653361 9.86471 0)
(0.00325984 9.68247 0)
(0.000398498 9.39495 0)
(-0.00137778 8.99408 0)
(-0.00140212 8.40187 0)
(0.00772514 10.0029 0)
(0.0116246 10.0119 0)
(0.0151347 10.0209 0)
(0.0169128 10.0313 0)
(0.0171848 10.0409 0)
(0.0164864 10.0483 0)
(0.015083 10.053 0)
(0.0131916 10.0531 0)
(0.0109524 10.0453 0)
(0.00845711 10.0227 0)
(0.0057461 9.97194 0)
(0.00285967 9.86944 0)
(-5.97275e-05 9.68555 0)
(-0.00225952 9.40137 0)
(-0.00294062 9.01052 0)
(-0.00229205 8.43372 0)
(0.00641362 10.0024 0)
(0.0102323 10.0102 0)
(0.0133961 10.0184 0)
(0.0150569 10.0286 0)
(0.015441 10.0392 0)
(0.014805 10.0488 0)
(0.0133898 10.0568 0)
(0.0114363 10.0624 0)
(0.00911771 10.0638 0)
(0.0065726 10.0573 0)
(0.00390763 10.0358 0)
(0.00119361 9.98511 0)
(-0.00147769 9.88194 0)
(-0.00388102 9.69867 0)
(-0.005266 9.42003 0)
(-0.00469554 9.04032 0)
(-0.00328 8.47855 0)
(0.00530927 10.002 0)
(0.0089761 10.0087 0)
(0.0118177 10.0162 0)
(0.01318 10.0257 0)
(0.0133805 10.0364 0)
(0.0127479 10.0475 0)
(0.0112665 10.058 0)
(0.00917792 10.0673 0)
(0.00668073 10.0746 0)
(0.00394672 10.0781 0)
(0.00113046 10.0739 0)
(-0.00163484 10.0544 0)
(-0.00424357 10.0052 0)
(-0.00655264 9.90311 0)
(-0.00826116 9.72264 0)
(-0.00864859 9.45137 0)
(-0.00664757 9.08357 0)
(-0.00436088 8.53642 0)
(0.00438538 10.0016 0)
(0.00784397 10.0074 0)
(0.0103601 10.0143 0)
(0.0114419 10.023 0)
(0.0112657 10.0333 0)
(0.0103248 10.0448 0)
(0.00871326 10.0571 0)
(0.00641693 10.0691 0)
(0.0036501 10.0805 0)
(0.000610526 10.0904 0)
(-0.00251203 10.0968 0)
(-0.00553673 10.0959 0)
(-0.00829895 10.0796 0)
(-0.0106579 10.0332 0)
(-0.0124223 9.93383 0)
(-0.0132299 9.75808 0)
(-0.0124242 9.49567 0)
(-0.00880181 9.14038 0)
(-0.00553317 8.60718 0)
(0.00361138 10.0013 0)
(0.00682432 10.0062 0)
(0.00901782 10.0126 0)
(0.00980991 10.0206 0)
(0.00929262 10.0303 0)
(0.00783336 10.0415 0)
(0.00573817 10.0545 0)
(0.00315306 10.0685 0)
(2.19996e-05 10.0828 0)
(-0.00343523 10.0971 0)
(-0.00699977 10.1104 0)
(-0.0104542 10.1208 0)
(-0.0135865 10.1242 0)
(-0.016202 10.1122 0)
(-0.0181246 10.0698 0)
(-0.0191246 9.97481 0)
(-0.0188005 9.80549 0)
(-0.0165918 9.5531 0)
(-0.0111465 9.21052 0)
(-0.00678403 8.69051 0)
(0.00297894 10.001 0)
(0.00591305 10.0052 0)
(0.00778651 10.011 0)
(0.00829128 10.0184 0)
(0.0074326 10.0274 0)
(0.00550707 10.0381 0)
(0.00269727 10.0508 0)
(-0.000603629 10.0658 0)
(-0.00420504 10.0823 0)
(-0.0082005 10.0997 0)
(-0.012343 10.1177 0)
(-0.0163828 10.1355 0)
(-0.02007 10.1508 0)
(-0.0231633 10.1595 0)
(-0.0254399 10.1529 0)
(-0.0266959 10.1158 0)
(-0.0266779 10.0267 0)
(-0.0249687 9.86515 0)
(-0.021138 9.62362 0)
(-0.0136735 9.29381 0)
(-0.00810659 8.78597 0)
(0.00247832 10.0008 0)
(0.00509027 10.0044 0)
(0.00666373 10.0096 0)
(0.00688972 10.0164 0)
(0.00570274 10.0247 0)
(0.00331733 10.0347 0)
(-0.000131754 10.047 0)
(-0.00441097 10.0618 0)
(-0.00901686 10.0794 0)
(-0.0136887 10.0992 0)
(-0.0185603 10.1206 0)
(-0.0233477 10.1433 0)
(-0.0277653 10.1664 0)
(-0.0315336 10.1876 0)
(-0.0343858 10.2026 0)
(-0.0360802 10.2024 0)
(-0.036396 10.1718 0)
(-0.0350763 10.0897 0)
(-0.0317122 9.93718 0)
(-0.026034 9.70701 0)
(-0.0163518 9.38962 0)
(-0.00947746 8.89273 0)
(0.00209379 10.0007 0)
(0.00438688 10.0037 0)
(0.00564223 10.0084 0)
(0.00560682 10.0145 0)
(0.00411266 10.0221 0)
(0.00129068 10.0314 0)
(-0.00278243 10.043 0)
(-0.00793274 10.0573 0)
(-0.0138532 10.0748 0)
(-0.0198805 10.0958 0)
(-0.0256582 10.1198 0)
(-0.0313791 10.1461 0)
(-0.0367178 10.1745 0)
(-0.041356 10.2039 0)
(-0.0449899 10.232 0)
(-0.0473394 10.2541 0)
(-0.0481553 10.2613 0)
(-0.0472178 10.2382 0)
(-0.0442873 10.1643 0)
(-0.0389867 10.0214 0)
(-0.0312362 9.80282 0)
(-0.0191611 9.49738 0)
(-0.0108778 9.0101 0)
(0.00179739 10.0006 0)
(0.00381614 10.0032 0)
(0.00476064 10.0074 0)
(0.00444282 10.0129 0)
(0.00266825 10.0198 0)
(-0.000556583 10.0283 0)
(-0.00521866 10.039 0)
(-0.0112131 10.0525 0)
(-0.0183005 10.0695 0)
(-0.0260602 10.0904 0)
(-0.0336111 10.1158 0)
(-0.0404888 10.1449 0)
(-0.0469732 10.1771 0)
(-0.0527014 10.2121 0)
(-0.0573298 10.2487 0)
(-0.0605456 10.2845 0)
(-0.0620678 10.3146 0)
(-0.061659 10.33 0)
(-0.0591183 10.3153 0)
(-0.0542496 10.2502 0)
(-0.0467268 10.1176 0)
(-0.0366913 9.91044 0)
(-0.0220361 9.61606 0)
(-0.0122426 9.13646 0)
(0.00156472 10.0005 0)
(0.00335145 10.0028 0)
(0.00403847 10.0065 0)
(0.00344331 10.0114 0)
(0.0013736 10.0175 0)
(-0.0022136 10.0253 0)
(-0.0074165 10.0351 0)
(-0.0142057 10.0477 0)
(-0.0224193 10.0638 0)
(-0.0317136 10.0841 0)
(-0.0415054 10.1093 0)
(-0.0506443 10.14 0)
(-0.0585512 10.1752 0)
(-0.0656362 10.2143 0)
(-0.0715086 10.2568 0)
(-0.0758181 10.3014 0)
(-0.0782576 10.3457 0)
(-0.0785666 10.3846 0)
(-0.0765397 10.4088 0)
(-0.0720201 10.403 0)
(-0.0648742 10.3473 0)
(-0.054848 10.2251 0)
(-0.0422829 10.029 0)
(-0.0248614 9.74438 0)
(-0.013274 9.26997 0)
(0.00137957 10.0005 0)
(0.00297056 10.0025 0)
(0.00344844 10.0059 0)
(0.00263158 10.0102 0)
(0.000280324 10.0156 0)
(-0.00367275 10.0224 0)
(-0.00935918 10.0313 0)
(-0.0168778 10.0428 0)
(-0.0261514 10.0578 0)
(-0.036924 10.0771 0)
(-0.0486989 10.1017 0)
(-0.0606854 10.1321 0)
(-0.0714127 10.169 0)
(-0.0801917 10.2115 0)
(-0.0876197 10.2584 0)
(-0.0933004 10.3092 0)
(-0.0968941 10.3627 0)
(-0.0981248 10.4161 0)
(-0.0967775 10.4643 0)
(-0.0927052 10.4977 0)
(-0.0858075 10.5012 0)
(-0.076043 10.4552 0)
(-0.0632036 10.3432 0)
(-0.0479635 10.1572 0)
(-0.0278268 9.88183 0)
(-0.0156027 9.41063 0)
(0.00123038 10.0004 0)
(0.00265601 10.0022 0)
(0.00296467 10.0053 0)
(0.00197742 10.0092 0)
(-0.000589214 10.0139 0)
(-0.00487515 10.0198 0)
(-0.0110347 10.0276 0)
(-0.0192053 10.038 0)
(-0.0294534 10.0517 0)
(-0.0416192 10.0697 0)
(-0.0553039 10.0931 0)
(-0.0698098 10.1228 0)
(-0.0840966 10.1595 0)
(-0.0963242 10.2037 0)
(-0.105711 10.2543 0)
(-0.113119 10.3099 0)
(-0.11817 10.37 0)
(-0.120566 10.433 0)
(-0.120088 10.496 0)
(-0.116593 10.5537 0)
(-0.110011 10.5966 0)
(-0.100328 10.6095 0)
(-0.0875714 10.5731 0)
(-0.0716506 10.4709 0)
(-0.0529735 10.2944 0)
(-0.0246777 10.022 0)
(-0.0115215 9.49612 0)
(0.00110873 10.0004 0)
(0.00239478 10.002 0)
(0.00256744 10.0049 0)
(0.00144891 10.0083 0)
(-0.00127262 10.0124 0)
(-0.00580211 10.0175 0)
(-0.0123752 10.0242 0)
(-0.0211706 10.0332 0)
(-0.0322925 10.0455 0)
(-0.045743 10.0621 0)
(-0.0612316 10.0839 0)
(-0.078167 10.1123 0)
(-0.0956035 10.1481 0)
(-0.11221 10.192 0)
(-0.125735 10.2446 0)
(-0.135347 10.3043 0)
(-0.14226 10.3696 0)
(-0.146141 10.4395 0)
(-0.146767 10.5124 0)
(-0.144015 10.5853 0)
(-0.137839 10.6528 0)
(-0.128272 10.7052 0)
(-0.115359 10.7274 0)
(-0.0992719 10.7001 0)
(-0.0796768 10.607 0)
(-0.0569732 10.4374 0)
(-0.0201756 10.1937 0)
(-0.002951 9.56193 0)
(0.00100839 10.0003 0)
(0.00217697 10.0018 0)
(0.00223543 10.0045 0)
(0.00102148 10.0076 0)
(-0.00180802 10.0112 0)
(-0.00650314 10.0156 0)
(-0.0133684 10.0212 0)
(-0.022694 10.0287 0)
(-0.0346438 10.0394 0)
(-0.0492513 10.0542 0)
(-0.06641 10.0743 0)
(-0.0856474 10.1009 0)
(-0.106129 10.1351 0)
(-0.126612 10.1781 0)
(-0.145445 10.2303 0)
(-0.159942 10.2924 0)
(-0.169263 10.3622 0)
(-0.175071 10.4378 0)
(-0.177136 10.518 0)
(-0.175348 10.6012 0)
(-0.169708 10.6842 0)
(-0.160293 10.7612 0)
(-0.147223 10.8229 0)
(-0.130657 10.854 0)
(-0.110604 10.8353 0)
(-0.0864694 10.7505 0)
(-0.0601819 10.5944 0)
(-0.0215897 10.367 0)
(0.00235446 9.61932 0)
(0.000924811 10.0003 0)
(0.00199477 10.0017 0)
(0.00195986 10.0041 0)
(0.000677985 10.007 0)
(-0.0022262 10.0102 0)
(-0.00702668 10.0139 0)
(-0.0140809 10.0186 0)
(-0.0237726 10.0248 0)
(-0.0364116 10.0336 0)
(-0.05211 10.0464 0)
(-0.070781 10.0644 0)
(-0.0921598 10.0888 0)
(-0.115538 10.121 0)
(-0.139782 10.1623 0)
(-0.16332 10.2135 0)
(-0.184159 10.2752 0)
(-0.199142 10.3477 0)
(-0.207501 10.4284 0)
(-0.211482 10.5148 0)
(-0.210997 10.6058 0)
(-0.206091 10.6993 0)
(-0.196915 10.7922 0)
(-0.183664 10.8786 0)
(-0.166581 10.949 0)
(-0.145729 10.9884 0)
(-0.120953 10.9781 0)
(-0.0920572 10.9023 0)
(-0.062238 10.7641 0)
(-0.0244113 10.5369 0)
(0.0032026 9.67626 0)
(0.000854616 10.0003 0)
(0.00184161 10.0016 0)
(0.00173122 10.0038 0)
(0.000397789 10.0064 0)
(-0.00255152 10.0093 0)
(-0.00741181 10.0125 0)
(-0.0145756 10.0163 0)
(-0.024496 10.0213 0)
(-0.0376052 10.0284 0)
(-0.0542021 10.0388 0)
(-0.0742985 10.0544 0)
(-0.0976286 10.0764 0)
(-0.123715 10.1061 0)
(-0.151555 10.145 0)
(-0.179676 10.1943 0)
(-0.206142 10.255 0)
(-0.228594 10.3271 0)
(-0.243419 10.411 0)
(-0.250009 10.5033 0)
(-0.251331 10.601 0)
(-0.247488 10.7028 0)
(-0.238711 10.8066 0)
(-0.225307 10.909 0)
(-0.207618 11.0043 0)
(-0.185881 11.0829 0)
(-0.160063 11.1302 0)
(-0.130687 11.128 0)
(-0.0974899 11.0622 0)
(-0.0640402 10.9412 0)
(-0.0270785 10.7024 0)
(0.00271807 9.74973 0)
(0.000795257 10.0003 0)
(0.00171212 10.0015 0)
(0.00154165 10.0036 0)
(0.000168204 10.006 0)
(-0.00280448 10.0085 0)
(-0.00768982 10.0112 0)
(-0.0149033 10.0143 0)
(-0.0249471 10.0182 0)
(-0.0383446 10.0238 0)
(-0.0555519 10.0321 0)
(-0.0768176 10.0447 0)
(-0.101992 10.0636 0)
(-0.130564 10.0905 0)
(-0.161787 10.1265 0)
(-0.194313 10.1733 0)
(-0.226288 10.2319 0)
(-0.255376 10.303 0)
(-0.278882 10.3867 0)
(-0.292739 10.4827 0)
(-0.296625 10.5871 0)
(-0.294359 10.6963 0)
(-0.286283 10.8089 0)
(-0.272837 10.9226 0)
(-0.254508 11.0341 0)
(-0.231709 11.1376 0)
(-0.204665 11.2239 0)
(-0.173839 11.279 0)
(-0.140436 11.2844 0)
(-0.103637 11.2293 0)
(-0.0667053 11.1204 0)
(-0.0299305 10.8825 0)
(0.00158511 9.83445 0)
(0.000744742 10.0002 0)
(0.00160204 10.0014 0)
(0.00138222 10.0034 0)
(-2.08096e-05 10.0056 0)
(-0.00300072 10.0078 0)
(-0.00788547 10.0101 0)
(-0.0151042 10.0125 0)
(-0.0251924 10.0155 0)
(-0.0387392 10.0197 0)
(-0.0563188 10.026 0)
(-0.0783799 10.0359 0)
(-0.105068 10.0513 0)
(-0.136002 10.0745 0)
(-0.170352 10.1072 0)
(-0.20705 10.1507 0)
(-0.244352 10.2065 0)
(-0.279978 10.2755 0)
(-0.311206 10.3583 0)
(-0.335025 10.4543 0)
(-0.346948 10.5631 0)
(-0.347066 10.6799 0)
(-0.340202 10.8006 0)
(-0.326973 10.9237 0)
(-0.308054 11.0469 0)
(-0.284074 11.1668 0)
(-0.255517 11.2779 0)
(-0.223011 11.3715 0)
(-0.187504 11.4335 0)
(-0.150367 11.446 0)
(-0.110511 11.4004 0)
(-0.0706021 11.3204 0)
(-0.0328736 11.0775 0)
(-0.000176434 9.92842 0)
(0.000701462 10.0002 0)
(0.00150799 10.0013 0)
(0.00124771 10.0032 0)
(-0.000175393 10.0052 0)
(-0.00315258 10.0072 0)
(-0.00801826 10.0091 0)
(-0.0152101 10.011 0)
(-0.0252846 10.0132 0)
(-0.0388764 10.0161 0)
(-0.056646 10.0207 0)
(-0.0791943 10.0281 0)
(-0.106919 10.04 0)
(-0.1398 10.0589 0)
(-0.177144 10.0872 0)
(-0.217729 10.127 0)
(-0.260112 10.1791 0)
(-0.302101 10.2452 0)
(-0.340986 10.3258 0)
(-0.373678 10.4212 0)
(-0.396884 10.5303 0)
(-0.405751 10.6523 0)
(-0.400939 10.7818 0)
(-0.388415 10.9138 0)
(-0.369102 11.0469 0)
(-0.343902 11.1788 0)
(-0.313595 11.3065 0)
(-0.279009 11.4247 0)
(-0.241228 11.5247 0)
(-0.20127 11.5927 0)
(-0.160416 11.6109 0)
(-0.118315 11.5941 0)
(-0.0753536 11.5396 0)
(-0.0360469 11.268 0)
(-0.00211473 10.0292 0)
(0.000664423 10.0002 0)
(0.00142708 10.0013 0)
(0.0011339 10.003 0)
(-0.000302517 10.0049 0)
(-0.00326954 10.0067 0)
(-0.00810342 10.0083 0)
(-0.0152458 10.0097 0)
(-0.025265 10.0111 0)
(-0.0388253 10.013 0)
(-0.0566482 10.016 0)
(-0.0794472 10.0211 0)
(-0.107813 10.03 0)
(-0.14204 10.0446 0)
(-0.18187 10.0677 0)
(-0.226211 10.1023 0)
(-0.273369 10.1503 0)
(-0.321473 10.2124 0)
(-0.367868 10.2899 0)
(-0.409416 10.3833 0)
(-0.442682 10.4921 0)
(-0.464168 10.615 0)
(-0.468732 10.7505 0)
(-0.457759 10.8924 0)
(-0.438491 11.0353 0)
(-0.412177 11.1778 0)
(-0.379955 11.3179 0)
(-0.342929 11.4526 0)
(-0.302329 11.5769 0)
(-0.259421 11.6824 0)
(-0.215114 11.7546 0)
(-0.171476 11.7974 0)
(-0.126729 11.8089 0)
(-0.0804984 11.7549 0)
(-0.0391426 11.4533 0)
(-0.0039681 10.1348 0)
(0.00135689 10.0012 0)
(0.000620501 10.0002 0)
(0.00103661 10.0029 0)
(-0.00040722 10.0046 0)
(-0.00335904 10.0062 0)
(-0.00815283 10.0075 0)
(-0.0152305 10.0085 0)
(-0.0251655 10.0093 0)
(-0.0386398 10.0102 0)
(-0.0564158 10.0118 0)
(-0.0792876 10.0149 0)
(-0.107992 10.021 0)
(-0.143065 10.0318 0)
(-0.184633 10.0498 0)
(-0.232124 10.0782 0)
(-0.283943 10.1202 0)
(-0.337847 10.1776 0)
(-0.391519 10.251 0)
(-0.441818 10.3413 0)
(-0.485199 10.4484 0)
(-0.517946 10.5715 0)
(-0.53645 10.7085 0)
(-0.535368 10.8576 0)
(-0.51697 11.0116 0)
(-0.489894 11.1648 0)
(-0.455733 11.3159 0)
(-0.415963 11.4633 0)
(-0.372071 11.6041 0)
(-0.325476 11.7335 0)
(-0.277473 11.8426 0)
(-0.23035 11.9372 0)
(-0.1833 12.0047 0)
(-0.13491 12.0214 0)
(-0.085619 11.9642 0)
(-0.0420353 11.6327 0)
(-0.00573734 10.2431 0)
(0.00095142 10.0028 0)
(0.00127646 10.0012 0)
(0.000568226 10.0002 0)
(-0.000494193 10.0044 0)
(-0.00342668 10.0058 0)
(-0.00817551 10.0069 0)
(-0.0151791 10.0075 0)
(-0.0250108 10.0077 0)
(-0.0383617 10.0077 0)
(-0.0560192 10.0081 0)
(-0.0788332 10.0095 0)
(-0.107646 10.013 0)
(-0.14318 10.0203 0)
(-0.185863 10.0337 0)
(-0.235585 10.0559 0)
(-0.29136 10.0906 0)
(-0.350992 10.1413 0)
(-0.41163 10.2096 0)
(-0.470482 10.2956 0)
(-0.523939 10.3998 0)
(-0.568097 10.5216 0)
(-0.599048 10.6595 0)
(-0.613182 10.8108 0)
(-0.605049 10.9733 0)
(-0.577972 11.1388 0)
(-0.542095 11.3016 0)
(-0.499409 11.4605 0)
(-0.451775 11.6141 0)
(-0.400913 11.7599 0)
(-0.348282 11.8927 0)
(-0.297163 12.0232 0)
(-0.24652 12.1399 0)
(-0.194623 12.2105 0)
(-0.142629 12.2292 0)
(-0.0904859 12.1666 0)
(-0.0446421 11.8059 0)
(-0.00735507 10.3522 0)
(-0.000571531 10.0042 0)
(0.000862733 10.0027 0)
(0.00117881 10.0011 0)
(0.000518504 10.0002 1.87648e-19)
(-0.00347771 10.0055 0)
(-0.00817796 10.0063 0)
(-0.0151029 10.0066 0)
(-0.0248201 10.0063 0)
(-0.0380227 10.0056 0)
(-0.0555126 10.0048 0)
(-0.0781753 10.0046 0)
(-0.106928 10.0059 0)
(-0.142631 10.0101 0)
(-0.185943 10.0192 0)
(-0.237127 10.0358 0)
(-0.295746 10.0632 0)
(-0.360304 10.1054 0)
(-0.427909 10.1662 0)
(-0.495032 10.2468 0)
(-0.558425 10.3467 0)
(-0.614044 10.4659 0)
(-0.657707 10.6032 0)
(-0.685424 10.7563 0)
(-0.693705 10.9218 0)
(-0.677107 11.0972 0)
(-0.640157 11.2736 0)
(-0.594625 11.445 0)
(-0.542918 11.6106 0)
(-0.487176 11.7694 0)
(-0.42923 11.9185 0)
(-0.373074 12.0723 0)
(-0.317976 12.2237 0)
(-0.26177 12.3411 0)
(-0.205229 12.4125 0)
(-0.149735 12.4307 0)
(-0.0949864 12.3612 0)
(-0.0469365 11.9724 0)
(-0.00879324 10.4607 0)
(-0.00352524 10.0052 0)
(-0.000634069 10.004 0)
(0.000763519 10.0025 8.3815e-19)
(0.00108533 10.001 -5.94587e-19)
(0.000471187 10.0002 -3.74249e-19)
(-0.00816597 10.0058 0)
(-0.0150093 10.0058 0)
(-0.0246072 10.005 0)
(-0.0376475 10.0037 0)
(-0.0549374 10.0019 0)
(-0.0773845 10.0003 0)
(-0.105956 9.99962 0)
(-0.14161 10.001 0)
(-0.185184 10.0063 0)
(-0.237226 10.0178 0)
(-0.29775 10.0385 0)
(-0.365906 10.0721 0)
(-0.439591 10.1231 0)
(-0.515099 10.1955 0)
(-0.588198 10.2899 0)
(-0.655225 10.405 0)
(-0.711767 10.5401 0)
(-0.753467 10.6934 0)
(-0.776384 10.8618 0)
(-0.777284 11.0413 0)
(-0.750842 11.2289 0)
(-0.702944 11.4152 0)
(-0.647059 11.5941 0)
(-0.585932 11.7653 0)
(-0.521873 11.9276 0)
(-0.459935 12.0975 0)
(-0.399263 12.2717 0)
(-0.337502 12.4226 0)
(-0.27591 12.5387 0)
(-0.21496 12.609 0)
(-0.156163 12.625 0)
(-0.0990603 12.5476 0)
(-0.0489276 12.1318 0)
(-0.0100464 10.5671 0)
(-0.00816 10.0054 0)
(-0.00352511 10.0048 -1.79116e-18)
(-0.00068467 10.0037 -8.8411e-19)
(0.000670071 10.0023 4.18156e-19)
(0.000995743 10.0009 -3.95199e-19)
(0.000426339 10.0001 0)
(-0.0149047 10.0051 0)
(-0.0243812 10.0039 0)
(-0.0372537 10.002 0)
(-0.0543253 9.99939 0)
(-0.0765142 9.99653 0)
(-0.10482 9.99405 0)
(-0.14027 9.99297 0)
(-0.183828 9.99478 0)
(-0.236269 10.0016 0)
(-0.297957 10.0161 0)
(-0.368576 10.0419 0)
(-0.446776 10.0831 0)
(-0.529719 10.1443 0)
(-0.612804 10.2298 0)
(-0.691091 10.3394 0)
(-0.760575 10.4708 0)
(-0.816572 10.6227 0)
(-0.854675 10.7923 0)
(-0.871137 10.9759 0)
(-0.863127 11.1688 0)
(-0.825546 11.3677 0)
(-0.765768 11.5628 0)
(-0.698958 11.748 0)
(-0.628089 11.9231 0)
(-0.55945 12.1064 0)
(-0.492339 12.2966 0)
(-0.423782 12.4697 0)
(-0.355559 12.6181 0)
(-0.28879 12.7312 0)
(-0.223746 12.7989 0)
(-0.161887 12.8114 0)
(-0.102682 12.7253 0)
(-0.0506363 12.2838 0)
(-0.0111213 10.6704 0)
(-0.0148201 10.0044 0)
(-0.00805722 10.0048 3.77746e-18)
(-0.00346532 10.0044 0)
(-0.000731031 10.0034 8.81841e-19)
(0.000583097 10.0021 1.37554e-22)
(0.000909968 10.0009 0)
(0.000383982 10.0001 0)
(-0.0241487 10.0029 0)
(-0.0368523 10.0005 0)
(-0.0536989 9.99714 0)
(-0.0756053 9.99318 0)
(-0.103589 9.98912 0)
(-0.138725 9.98581 0)
(-0.182069 9.98454 0)
(-0.23456 9.98715 0)
(-0.296841 9.9961 0)
(-0.369024 10.0146 0)
(-0.450384 10.0466 0)
(-0.53894 10.0967 0)
(-0.631029 10.1697 0)
(-0.721083 10.2698 0)
(-0.803479 10.396 0)
(-0.873983 10.5447 0)
(-0.927762 10.7138 0)
(-0.96051 10.8998 0)
(-0.968824 11.0982 0)
(-0.950415 11.3038 0)
(-0.900512 11.5129 0)
(-0.828068 11.7156 0)
(-0.749862 11.9054 0)
(-0.673746 12.1018 0)
(-0.599122 12.3055 0)
(-0.522641 12.4945 0)
(-0.446425 12.6645 0)
(-0.372 12.8085 0)
(-0.300366 12.9174 0)
(-0.231567 12.9814 0)
(-0.166914 12.9894 0)
(-0.105855 12.8942 0)
(-0.0520879 12.4282 0)
(-0.0120317 10.77 0)
(-0.0239557 10.0021 0)
(-0.0145676 10.0037 4.92748e-22)
(-0.00781635 10.0042 0)
(-0.00340512 10.0039 -9.29829e-19)
(-0.000767599 10.0031 8.50118e-23)
(0.000502472 10.002 0)
(0.000828133 10.0008 0)
(0.000344123 10.0001 0)
(-0.03645 9.99917 0)
(-0.0530716 9.99515 0)
(-0.0746869 9.99021 0)
(-0.102317 9.98475 0)
(-0.137065 9.97947 0)
(-0.180052 9.97545 0)
(-0.232339 9.9743 0)
(-0.29478 9.9782 0)
(-0.367826 9.99007 0)
(-0.451264 10.0136 0)
(-0.543837 10.0531 0)
(-0.64284 10.1135 0)
(-0.743692 10.1999 0)
(-0.839804 10.3161 0)
(-0.924939 10.4601 0)
(-0.994781 10.627 0)
(-1.0445 10.8137 0)
(-1.07006 11.016 0)
(-1.06854 11.2285 0)
(-1.03833 11.4457 0)
(-0.975049 11.6638 0)
(-0.889262 11.8722 0)
(-0.805035 12.0839 0)
(-0.721982 12.3012 0)
(-0.636228 12.5037 0)
(-0.550615 12.6893 0)
(-0.467051 12.8543 0)
(-0.386783 12.993 0)
(-0.310646 13.0967 0)
(-0.238446 13.156 0)
(-0.171274 13.1585 0)
(-0.108597 13.0541 0)
(-0.053308 12.5649 0)
(-0.0127942 10.8654 0)
(-0.036114 9.99801 0)
(-0.023495 10.0011 -2.09877e-18)
(-0.0140577 10.0029 0)
(-0.00758278 10.0036 0)
(-0.00333026 10.0035 2.78114e-18)
(-0.000794551 10.0028 0)
(0.00042824 10.0018 0)
(0.000750346 10.0007 7.81502e-19)
(0.00030679 10.0001 0)
(-0.0524503 9.99339 0)
(-0.0737753 9.98759 0)
(-0.101039 9.98089 0)
(-0.135356 9.97385 0)
(-0.17789 9.96739 0)
(-0.229792 9.96287 0)
(-0.292072 9.96224 0)
(-0.365446 9.9681 0)
(-0.450111 9.98381 0)
(-0.545413 10.0135 0)
(-0.649469 10.0619 0)
(-0.758752 10.1343 0)
(-0.867686 10.2357 0)
(-0.968634 10.3695 0)
(-1.05486 10.5324 0)
(-1.12214 10.718 0)
(-1.16584 10.9224 0)
(-1.18234 11.1404 0)
(-1.16936 11.3661 0)
(-1.12605 11.5937 0)
(-1.04847 11.8189 0)
(-0.955692 12.0503 0)
(-0.863387 12.2836 0)
(-0.767127 12.5001 0)
(-0.6705 12.6992 0)
(-0.576114 12.8795 0)
(-0.485614 13.0384 0)
(-0.39993 13.1707 0)
(-0.319672 13.2684 0)
(-0.24443 13.3222 0)
(-0.175013 13.3189 0)
(-0.110938 13.205 0)
(-0.0543231 12.6938 0)
(-0.0134274 10.9561 0)
(-0.0519311 9.99184 0)
(-0.035373 9.99672 0)
(-0.0226041 10 -2.18415e-18)
(-0.0135686 10.0021 -2.06682e-18)
(-0.0073278 10.003 -3.90911e-18)
(-0.00324066 10.0031 0)
(-0.000811892 10.0025 -1.7456e-18)
(0.000360552 10.0017 -1.64833e-18)
(0.000676625 10.0007 7.7779e-19)
(0.000271939 10.0001 0)
(-0.0728777 9.98527 0)
(-0.0997775 9.97747 0)
(-0.133646 9.96888 0)
(-0.175669 9.96024 0)
(-0.22706 9.95272 0)
(-0.288948 9.94803 0)
(-0.362248 9.94847 0)
(-0.447485 9.9571 0)
(-0.544493 9.97774 0)
(-0.652087 10.015 0)
(-0.767661 10.0739 0)
(-0.886773 10.1598 0)
(-1.00279 10.2778 0)
(-1.10704 10.4306 0)
(-1.19245 10.6132 0)
(-1.25512 10.8179 0)
(-1.29075 11.0397 0)
(-1.29633 11.2726 0)
(-1.27036 11.5105 0)
(-1.21278 11.7467 0)
(-1.12843 11.9962 0)
(-1.02611 12.2502 0)
(-0.918061 12.4833 0)
(-0.808854 12.6965 0)
(-0.701773 12.8903 0)
(-0.599091 13.0641 0)
(-0.502139 13.2159 0)
(-0.411499 13.341 0)
(-0.327518 13.432 0)
(-0.24958 13.4799 0)
(-0.178183 13.4703 0)
(-0.112916 13.3472 0)
(-0.0551587 12.8152 0)
(-0.013948 11.042 0)
(-0.0721292 9.98321 0)
(-0.0508217 9.99014 -2.33373e-18)
(-0.033959 9.9953 2.30061e-18)
(-0.0217561 9.99896 -1.17756e-21)
(-0.0130488 10.0013 2.05982e-18)
(-0.00705132 10.0025 1.94775e-18)
(-0.00313681 10.0027 3.68054e-18)
(-0.000819487 10.0023 2.60685e-18)
(0.000299353 10.0015 -8.20232e-19)
(0.000607011 10.0006 0)
(0.000239552 10.0001 0)
(-0.0985386 9.97444 0)
(-0.131961 9.96446 0)
(-0.17345 9.95389 0)
(-0.224252 9.94372 0)
(-0.285585 9.93539 0)
(-0.358519 9.93097 0)
(-0.44383 9.9332 0)
(-0.541748 9.94559 0)
(-0.651664 9.97242 0)
(-0.771765 10.0187 0)
(-0.898621 10.0897 0)
(-1.02679 10.1909 0)
(-1.14857 10.327 0)
(-1.25431 10.4999 0)
(-1.33678 10.7029 0)
(-1.39264 10.9267 0)
(-1.41813 11.1653 0)
(-1.411 11.4122 0)
(-1.37059 11.6606 0)
(-1.3076 11.9224 0)
(-1.2135 12.196 0)
(-1.0923 12.4508 0)
(-0.96869 12.681 0)
(-0.846962 12.8889 0)
(-0.729988 13.0759 0)
(-0.619581 13.2423 0)
(-0.516702 13.3862 0)
(-0.42158 13.5035 0)
(-0.334269 13.5875 0)
(-0.253969 13.629 0)
(-0.18084 13.613 0)
(-0.114566 13.4808 0)
(-0.0558385 12.9291 0)
(-0.0143726 11.1232 0)
(-0.0975097 9.97175 0)
(-0.0705451 9.98101 -3.46801e-21)
(-0.0487083 9.98832 0)
(-0.0326225 9.99392 -1.891e-21)
(-0.0208653 9.99794 0)
(-0.0124983 10.0005 -2.05244e-18)
(-0.00675418 10.0019 -3.87956e-18)
(-0.00301856 10.0023 8.95637e-23)
(-0.000817504 10.0021 1.72938e-18)
(0.000244443 10.0014 -8.15857e-19)
(0.000541486 10.0005 7.69362e-19)
(0.000209602 10.0001 0)
(-0.130308 9.96055 0)
(-0.171263 9.94827 0)
(-0.221443 9.93572 0)
(-0.282118 9.92416 0)
(-0.354477 9.91539 0)
(-0.439495 9.91186 0)
(-0.537715 9.91676 0)
(-0.648996 9.93407 0)
(-0.772193 9.96853 0)
(-0.904764 10.0254 0)
(-1.04236 10.1103 0)
(-1.17851 10.2285 0)
(-1.30441 10.384 0)
(-1.40956 10.578 0)
(-1.48678 10.8017 0)
(-1.53357 11.0442 0)
(-1.54689 11.2989 0)
(-1.52531 11.5583 0)
(-1.48064 11.8338 0)
(-1.40889 12.1216 0)
(-1.29375 12.3975 0)
(-1.15379 12.6501 0)
(-1.01506 12.8751 0)
(-0.881395 13.0762 0)
(-0.755177 13.2553 0)
(-0.637673 13.4133 0)
(-0.529416 13.5487 0)
(-0.430285 13.658 0)
(-0.340026 13.7346 0)
(-0.25767 13.7696 0)
(-0.183042 13.747 0)
(-0.115928 13.6061 0)
(-0.0563845 13.0359 0)
(-0.0147153 11.1995 0)
(-0.128943 9.95708 0)
(-0.0953235 9.96892 2.58823e-18)
(-0.0675152 9.97869 -2.55762e-18)
(-0.0467229 9.98656 2.41745e-18)
(-0.0312278 9.99261 0)
(-0.019931 9.99696 0)
(-0.0119185 9.99982 2.04403e-18)
(-0.00643688 10.0014 -1.93077e-18)
(-0.002886 10.002 1.19606e-22)
(-0.000805602 10.0018 8.60176e-19)
(0.000195793 10.0013 -8.1127e-19)
(0.000479969 10.0005 -7.63958e-19)
(0.000182216 10.0001 0)
(-0.169118 9.94328 0)
(-0.218673 9.92862 0)
(-0.278644 9.91418 0)
(-0.350291 9.90153 0)
(-0.434751 9.89283 0)
(-0.532814 9.89097 0)
(-0.64472 9.89962 0)
(-0.769877 9.92321 0)
(-0.906499 9.96686 0)
(-1.05121 10.0361 0)
(-1.1987 10.1366 0)
(-1.3414 10.2733 0)
(-1.46951 10.4495 0)
(-1.57175 10.6652 0)
(-1.6413 10.9097 0)
(-1.67675 11.1705 0)
(-1.67587 11.4398 0)
(-1.65144 11.7281 0)
(-1.59878 12.0315 0)
(-1.50486 12.3236 0)
(-1.36856 12.5986 0)
(-1.21027 12.8464 0)
(-1.05709 13.0645 0)
(-0.912211 13.2573 0)
(-0.77745 13.4277 0)
(-0.6535 13.5767 0)
(-0.540417 13.7034 0)
(-0.437734 13.8044 0)
(-0.344889 13.8735 0)
(-0.260761 13.9019 0)
(-0.184845 13.8728 0)
(-0.117036 13.7234 0)
(-0.0568172 13.1358 0)
(-0.0149892 11.2711 0)
(-0.167359 9.93885 0)
(-0.126006 9.95348 0)
(-0.0911135 9.96599 2.69015e-18)
(-0.0646838 9.97647 -5.10212e-18)
(-0.0446589 9.98489 4.82563e-18)
(-0.029773 9.99135 -4.56198e-18)
(-0.0189566 9.99603 0)
(-0.0113107 9.99913 2.03549e-18)
(-0.00609974 10.0009 -1.92113e-18)
(-0.00274049 10.0016 -1.81337e-18)
(-0.000783015 10.0016 0)
(0.000153197 10.0011 8.05548e-19)
(0.00042259 10.0004 0)
(0.000157898 10 0)
(-0.215955 9.92232 0)
(-0.275209 9.90532 0)
(-0.346084 9.8892 0)
(-0.429805 9.87588 0)
(-0.527376 9.86795 0)
(-0.639344 9.86874 0)
(-0.765569 9.8824 0)
(-0.904903 9.91378 0)
(-1.05482 9.96835 0)
(-1.21105 10.0518 0)
(-1.36724 10.1696 0)
(-1.51478 10.3262 0)
(-1.64291 10.5241 0)
(-1.73975 10.762 0)
(-1.79915 11.027 0)
(-1.82095 11.3048 0)
(-1.81897 11.6049 0)
(-1.78761 11.9234 0)
(-1.71132 12.2335 0)
(-1.59476 12.5264 0)
(-1.43753 12.7976 0)
(-1.26162 13.0385 0)
(-1.09481 13.2482 0)
(-0.939542 13.4317 0)
(-0.796965 13.5926 0)
(-0.667223 13.7323 0)
(-0.549854 13.85 0)
(-0.444052 13.9426 0)
(-0.34896 14.0043 0)
(-0.263316 14.0261 0)
(-0.186302 13.9906 0)
(-0.117926 13.8331 0)
(-0.0571544 13.2292 0)
(-0.0152043 11.3382 0)
(-0.213743 9.91673 0)
(-0.163499 9.9343 0)
(-0.120303 9.94981 0)
(-0.0872016 9.9632 5.3659e-18)
(-0.06175 9.97435 -5.07798e-18)
(-0.0425152 9.9833 4.80198e-18)
(-0.028265 9.99016 0)
(-0.0179438 9.99515 -2.14384e-18)
(-0.0106751 9.99849 0)
(-0.00574355 10.0005 1.91074e-18)
(-0.00258081 10.0013 0)
(-0.000751437 10.0014 0)
(0.000117835 10.001 0)
(0.000370622 10.0004 7.78763e-19)
(0.000136681 10 3.75113e-19)
(-0.271836 9.89744 0)
(-0.341908 9.87823 0)
(-0.424809 9.86078 0)
(-0.521657 9.8474 0)
(-0.633265 9.84112 0)
(-0.759871 9.84575 0)
(-0.900857 9.86586 0)
(-1.05442 9.90672 0)
(-1.21722 9.97401 0)
(-1.38401 10.0734 0)
(-1.5474 10.2102 0)
(-1.69778 10.388 0)
(-1.82352 10.6084 0)
(-1.91238 10.8685 0)
(-1.95907 11.1531 0)
(-1.98193 11.4637 0)
(-1.97444 11.7965 0)
(-1.91814 12.1245 0)
(-1.81737 12.4375 0)
(-1.6781 12.7281 0)
(-1.50047 12.9931 0)
(-1.30783 13.2254 0)
(-1.12836 13.4253 0)
(-0.963575 13.5988 0)
(-0.81393 13.7497 0)
(-0.679019 13.8799 0)
(-0.557881 13.9886 0)
(-0.449362 14.0729 0)
(-0.352334 14.1272 0)
(-0.265402 14.1425 0)
(-0.187462 14.1008 0)
(-0.118627 13.9355 0)
(-0.0574115 13.3163 0)
(-0.0153688 11.4009 0)
(-0.269116 9.89045 0)
(-0.208768 9.91104 0)
(-0.15594 9.92974 5.98461e-18)
(-0.115032 9.94633 5.66659e-18)
(-0.0831561 9.96056 5.36039e-18)
(-0.0587129 9.97236 -5.06755e-18)
(-0.0403022 9.9818 0)
(-0.0267058 9.98905 0)
(-0.0168938 9.99432 0)
(-0.0100134 9.99788 4.02855e-18)
(-0.00537039 10 1.89996e-18)
(-0.00240744 10.001 1.78986e-18)
(-0.000710858 10.0012 0)
(8.8947e-05 10.0009 -8.21084e-19)
(0.000323906 10.0004 -3.96201e-19)
(0.000118086 10 0)
(-0.337802 9.86848 0)
(-0.419829 9.84735 0)
(-0.515842 9.82909 0)
(-0.626797 9.81644 0)
(-0.75326 9.8129 0)
(-0.895068 9.82272 0)
(-1.05103 9.85092 0)
(-1.21861 9.90305 0)
(-1.39355 9.98493 0)
(-1.56963 10.1021 0)
(-1.73842 10.2593 0)
(-1.88938 10.4593 0)
(-2.01021 10.7027 0)
(-2.0884 10.9845 0)
(-2.1388 11.304 0)
(-2.15809 11.65 0)
(-2.12462 11.9957 0)
(-2.04204 12.3293 0)
(-1.91633 12.6419 0)
(-1.75461 12.9274 0)
(-1.55739 13.1839 0)
(-1.34905 13.406 0)
(-1.15794 13.5953 0)
(-0.984536 13.7582 0)
(-0.828567 13.8989 0)
(-0.689079 14.0194 0)
(-0.564651 14.1192 0)
(-0.453784 14.1954 0)
(-0.355099 14.2425 0)
(-0.267084 14.2514 0)
(-0.188369 14.2037 0)
(-0.119168 14.0311 0)
(-0.0575995 13.3975 0)
(-0.0154941 11.4594 0)
(-0.334528 9.85983 0)
(-0.262805 9.88337 0)
(-0.198929 9.90539 -1.25904e-17)
(-0.148983 9.92542 1.78235e-20)
(-0.109587 9.94305 -1.12849e-17)