/*--------------------------------*- C++ -*----------------------------------*\
  =========                 |
  \\      /  F ield         | OpenFOAM: The Open Source CFD Toolbox
   \\    /   O peration     | Website:  https://openfoam.org
    \\  /    A nd           | Version:  8
     \\/     M anipulation  |
\*---------------------------------------------------------------------------*/
FoamFile
{
    version     2.0;
    format      ascii;
    class       volScalarField;
    location    "0.17";
    object      epsilon;
}
// * * * * * * * * * * * * * * * * * * * * * * * * * * * * * * * * * * * * * //

dimensions      [0 2 -3 0 0 0 0];

internalField   nonuniform List<scalar> 
15677
(
59.7302
18.3646
52.6884
8.08377
26.0272
50.2357
4.62237
13.3248
31.6576
50.544
3.17414
7.74948
17.1289
37.3377
51.6383
2.487
5.0543
10.0487
20.8542
42.6858
53.6777
2.14424
3.62772
6.47298
12.184
24.5742
47.6812
55.7353
1.97932
2.82285
4.52982
7.73521
14.2948
28.2734
52.0324
57.6651
1.91149
2.35341
3.40398
5.31562
8.92634
16.4374
31.7679
55.7059
59.3619
1.88406
2.0803
2.72414
3.91179
6.02724
10.1139
18.5444
34.9593
58.7185
60.859
1.8705
1.93937
2.30739
3.05669
4.3607
6.71186
11.2792
20.5724
37.7736
61.1875
62.1238
1.86763
1.87828
2.0565
2.5216
3.34934
4.77889
7.36682
12.4208
22.4597
40.2294
63.1743
63.2346
1.86862
1.84884
1.91655
2.18626
2.71308
3.61653
5.16755
8.00326
13.506
24.1994
42.3182
64.7945
64.1594
1.86954
1.83871
1.85192
1.9827
2.3071
2.88708
3.85939
5.53747
8.60596
14.5344
25.7569
44.101
66.0925
64.993
1.86978
1.83699
1.82112
1.86776
2.05145
2.4185
3.0435
4.08568
5.88231
9.17969
15.4804
27.1506
45.5855
67.145
65.7179
1.86977
1.83726
1.81051
1.81335
1.89821
2.11766
2.51897
3.18708
4.29292
6.2075
9.70982
16.3523
28.3625
46.8344
68.0023
66.361
1.86972
1.83753
1.80821
1.78979
1.81542
1.93041
2.17885
2.61076
3.31677
4.48545
6.50544
10.2024
17.1295
29.418
47.8674
68.7006
66.9478
1.86969
1.83763
1.8079
1.78277
1.7757
1.82154
1.9624
2.23537
2.69317
3.43558
4.65965
6.78073
10.6444
17.825
30.3116
48.7126
69.2963
67.4498
1.86967
1.83765
1.80791
1.78106
1.76145
1.76617
1.83176
1.9932
2.28636
2.76797
3.54184
4.81884
7.02627
11.0443
18.4238
31.0645
49.406
69.7679
67.9562
1.86966
1.83765
1.80792
1.78073
1.75696
1.74395
1.76039
1.84319
2.02162
2.3326
2.83439
3.63783
4.95931
7.24755
11.3898
18.9414
31.6803
49.947
70.2107
68.3528
1.86966
1.83764
1.8079
1.7807
1.75568
1.73592
1.72951
1.75744
1.85454
2.04777
2.37364
2.89386
3.72175
5.08458
7.43761
11.6913
19.3656
32.1754
50.3926
70.5378
68.8242
1.86966
1.83763
1.80788
1.78068
1.75535
1.73321
1.71728
1.71804
1.75589
1.8657
2.07124
2.41027
2.94559
3.79578
5.19118
7.60277
11.9376
19.7161
32.5599
50.7107
70.9032
69.1401
1.86966
1.83763
1.80786
1.78067
1.75526
1.73238
1.71265
1.70135
1.70849
1.75582
1.87613
2.09231
2.44217
2.99092
3.85845
5.28291
7.73683
12.1424
19.9804
32.8456
50.9799
71.144
69.608
1.86966
1.83762
1.80785
1.78064
1.75522
1.73213
1.71101
1.69454
1.68725
1.70091
1.75615
1.88573
2.11087
2.47018
3.0294
3.91202
5.35696
7.84733
12.2941
20.1848
33.0472
51.1461
71.4868
69.8674
1.86966
1.83762
1.80784
1.78062
1.75518
1.73203
1.71045
1.69193
1.67799
1.67538
1.69466
1.75694
1.89461
2.12745
2.49425
3.06236
3.95548
5.4175
7.92913
12.4121
20.3135
33.1716
51.2893
71.6844
70.3356
1.86967
1.83761
1.80784
1.7806
1.75515
1.73197
1.71024
1.69097
1.67417
1.66377
1.66492
1.68965
1.75846
1.90291
2.1421
2.51532
3.08987
3.99152
5.463
7.99133
12.4815
20.3994
33.2412
51.3769
72.0684
70.5858
1.86967
1.83761
1.80783
1.78059
1.75512
1.73192
1.71014
1.69059
1.67265
1.65873
1.65076
1.65644
1.68606
1.76035
1.91088
2.15568
2.53384
3.11347
4.0196
5.49736
8.02878
12.5289
20.4231
33.2438
51.426
72.3605
430.269
1.86967
1.83761
1.80783
1.78057
1.7551
1.73188
1.71007
1.69041
1.67205
1.65661
1.64433
1.64022
1.64921
1.68342
1.76334
1.91917
2.16852
2.55076
3.1335
4.04253
5.52079
8.0534
12.534
20.4123
33.2267
51.5224
88.5997
722.502
1.86967
1.8376
1.80783
1.78056
1.75509
1.73185
1.71001
1.6903
1.67177
1.6557
1.64153
1.63257
1.63062
1.64428
1.68343
1.76764
1.92813
2.18166
2.56703
3.15205
4.06125
5.53743
8.05953
12.5249
20.3826
33.1885
52.4036
121.818
1010.38
1.86968
1.8376
1.80783
1.78055
1.75508
1.73182
1.70996
1.69021
1.67161
1.65527
1.64031
1.62906
1.62166
1.62428
1.64087
1.6848
1.77369
1.93877
2.19595
2.58407
3.16999
4.07788
5.54801
8.05694
12.5031
20.3264
33.1946
54.8881
157.564
1267.31
1.86968
1.83759
1.80783
1.78054
1.75507
1.73179
1.70993
1.69015
1.67149
1.65503
1.63973
1.62743
1.6175
1.61425
1.61863
1.64135
1.6885
1.7824
1.95183
2.21258
2.60274
3.189
4.09369
5.55539
8.05041
12.4657
20.2663
33.2646
59.3827
190.568
1507.23
1.86968
1.83759
1.80784
1.78053
1.75507
1.73177
1.7099
1.69009
1.6714
1.65487
1.63941
1.62664
1.61556
1.60934
1.60767
1.6183
1.64392
1.69577
1.7946
1.96849
2.2325
2.62468
3.21027
4.11107
5.56277
8.03897
12.4266
20.2038
33.4802
64.0473
222.029
1714.09
1.86968
1.83759
1.80784
1.78052
1.75506
1.73175
1.70988
1.69004
1.67133
1.65475
1.63919
1.6262
1.61459
1.60695
1.60235
1.60625
1.62024
1.64985
1.70749
1.81146
1.98975
2.25727
2.65096
3.23589
4.1314
5.57224
8.0298
12.3862
20.1343
33.9001
68.7869
249.949
1874.22
1.86969
1.83758
1.80784
1.78052
1.75506
1.73173
1.70986
1.69
1.67126
1.65465
1.63902
1.62592
1.61405
1.60574
1.59975
1.60021
1.60799
1.62565
1.66117
1.72469
1.83401
2.01711
2.28793
2.68339
3.26675
4.1572
5.58644
8.02254
12.3468
20.0731
34.4147
73.1009
271.789
2001.02
1.86969
1.83758
1.80784
1.78051
1.75506
1.73172
1.70984
1.68996
1.67121
1.65456
1.63889
1.62571
1.61369
1.60507
1.5984
1.59722
1.60185
1.61323
1.63647
1.67871
1.74844
1.86377
2.05163
2.32616
2.72286
3.30512
4.18937
5.60698
8.02284
12.3074
20.0184
34.9162
76.4294
289.186
2105.05
1.83758
1.86972
1.80784
1.7805
1.75506
1.7317
1.70983
1.68992
1.67117
1.65449
1.63877
1.62554
1.61342
1.60465
1.59763
1.59568
1.59882
1.60706
1.62391
1.65443
1.7035
1.78032
1.90186
2.09504
2.37294
2.77131
3.35146
4.23012
5.6348
8.02632
12.267
19.9617
35.283
78.9849
303.344
2193.59
1.80785
1.83767
1.8698
1.7805
1.75506
1.73169
1.70983
1.68989
1.67114
1.65442
1.63868
1.6254
1.61319
1.60434
1.59713
1.59485
1.59729
1.60408
1.61781
1.64237
1.68025
1.73715
1.82148
1.95002
2.14825
2.42995
2.82926
3.40795
4.2792
5.67059
8.03622
12.2265
19.8987
35.5384
80.9164
315.375
2271.7
1.78049
1.80801
1.83787
1.86987
1.75506
1.73167
1.70982
1.68986
1.67112
1.65436
1.6386
1.62528
1.61301
1.60409
1.59675
1.59433
1.59649
1.60265
1.615
1.63682
1.6692
1.71569
1.78106
1.87381
2.0093
2.21296
2.49802
2.89864
3.47403
4.33799
5.71933
8.0571
12.1949
19.8294
35.6755
82.4348
325.812
2342.38
1.75506
1.7807
1.80833
1.83807
1.86995
1.73166
1.70982
1.68984
1.6711
1.6543
1.63854
1.62517
1.61285
1.60389
1.59645
1.59396
1.596
1.60196
1.6138
1.63462
1.66469
1.70638
1.76231
1.8374
1.93867
2.08177
2.28989
2.57856
2.97902
3.55141
4.41371
5.78518
8.08941
12.1689
19.7525
35.7498
83.623
335.258
2407.88
1.73165
1.75532
1.78111
1.80866
1.83828
1.87003
1.70981
1.68981
1.67108
1.65425
1.63849
1.62508
1.61272
1.60372
1.59619
1.59367
1.59567
1.6016
1.61338
1.63408
1.66358
1.70375
1.75587
1.82271
1.90776
2.01855
2.16838
2.38101
2.67158
3.07212
3.649
4.51186
5.86377
8.13111
12.1527
19.6745
35.7464
84.6187
343.856
2469.11
1.70981
1.73194
1.75584
1.78154
1.809
1.8385
1.87011
1.68979
1.67107
1.6542
1.63845
1.62499
1.61261
1.60357
1.59598
1.59344
1.59542
1.60139
1.61329
1.63426
1.66403
1.70422
1.75552
1.81991
1.89863
1.99528
2.11482
2.27164
2.48685
2.77818
3.18861
3.77378
4.62367
5.95348
8.18263
12.1419
19.5958
35.7261
85.4432
351.941
2527.23
1.68977
1.71014
1.73253
1.75637
1.78198
1.80934
1.83872
1.87019
1.67106
1.65416
1.63842
1.6249
1.61252
1.60343
1.59579
1.59325
1.59523
1.60126
1.61333
1.63475
1.66525
1.70644
1.75858
1.82319
1.90043
1.99246
2.10079
2.23089
2.39235
2.60938
2.91258
3.33524
3.91264
4.74821
6.05312
8.24228
12.1424
19.5223
35.6822
86.1831
359.482
2582.19
1.67105
1.69012
1.71082
1.73314
1.75692
1.78244
1.8097
1.83894
1.87028
1.65412
1.63839
1.62482
1.61245
1.60331
1.59563
1.59309
1.59507
1.60117
1.61343
1.63531
1.66669
1.70942
1.76345
1.83014
1.90901
2.00121
2.10616
2.22699
2.36623
2.53356
2.76486
3.08387
3.49985
4.0657
4.88359
6.16149
8.30972
12.1471
19.4538
35.6242
86.8264
366.701
2634.84
1.65408
1.67144
1.69084
1.71152
1.73377
1.75749
1.78291
1.81007
1.83918
1.87036
1.63837
1.62475
1.6124
1.6032
1.5955
1.59295
1.59494
1.6011
1.61356
1.63589
1.66816
1.71251
1.76905
1.83911
1.92149
2.01725
2.12435
2.24404
2.37516
2.52347
2.71266
2.96502
3.27781
3.68254
4.23177
5.02849
6.27725
8.38365
12.1575
19.3934
35.5604
87.4359
373.493
2684.66
1.63835
1.65446
1.67224
1.69159
1.71224
1.73441
1.75807
1.78339
1.81044
1.83942
1.87045
1.62468
1.61236
1.60309
1.59539
1.59284
1.59483
1.60106
1.6137
1.63646
1.66958
1.7155
1.77463
1.84887
1.93629
2.0377
2.1505
2.27495
2.40732
2.54992
2.7233
2.94098
3.1934
3.49496
3.88177
4.40976
5.18161
6.39923
8.46269
12.1762
19.34
35.5015
87.986
380.042
2732.52
1.62462
1.63877
1.65527
1.67306
1.69236
1.71298
1.73508
1.75866
1.78388
1.81083
1.83966
1.87054
1.61232
1.60298
1.59531
1.59274
1.59474
1.60103
1.61384
1.63699
1.67094
1.71833
1.77999
1.85845
1.95201
2.06116
2.18196
2.31508
2.45481
2.60173
2.77441
2.98298
3.19998
3.44517
3.73389
4.09722
4.5987
5.3417
6.5259
8.54602
12.2003
19.2949
35.4463
88.5253
386.209
2777.62
1.6123
1.62498
1.63963
1.65609
1.67391
1.69315
1.71374
1.73576
1.75927
1.78439
1.81122
1.83992
1.87063
1.60288
1.59524
1.59265
1.59466
1.60101
1.61398
1.63749
1.67221
1.72096
1.78505
1.8676
1.96737
2.08594
2.21748
2.36209
2.51347
2.67139
2.85378
3.06936
3.28261
3.49152
3.71953
3.99004
4.32722
4.79672
5.50702
6.65604
8.63255
12.2292
19.2566
35.3992
89.0218
392.171
2820.97
1.60278
1.61269
1.62578
1.64051
1.65695
1.67478
1.69397
1.71452
1.73647
1.7599
1.78491
1.81163
1.84018
1.87073
1.5952
1.59256
1.59459
1.60099
1.61412
1.63795
1.67338
1.7234
1.7898
1.87622
1.98208
2.11032
2.25499
2.41508
2.58152
2.75554
2.95516
3.18949
3.41419
3.62372
3.81493
4.01633
4.25992
4.56898
5.00219
5.67671
6.78845
8.72135
12.262
19.2259
35.3596
89.516
397.765
2861.57
1.59519
1.60303
1.61351
1.62659
1.64143
1.65784
1.67567
1.69481
1.71532
1.73719
1.76054
1.78545
1.81204
1.84044
1.87081
1.59246
1.59451
1.60098
1.61424
1.63838
1.67447
1.72565
1.79423
1.88427
1.99606
2.13384
2.29205
2.47158
2.65862
2.85323
3.07648
3.33921
3.58817
3.8126
4.00727
4.16939
4.33454
4.54201
4.81957
5.21437
5.84935
6.92214
8.8115
12.2981
19.2011
35.3278
89.976
403.184
2900.63
1.59238
1.59546
1.60363
1.61435
1.62745
1.64237
1.65876
1.67659
1.69568
1.71614
1.73794
1.7612
1.786
1.81245
1.84069
1.8709
1.59443
1.60096
1.61435
1.63877
1.67546
1.72772
1.79832
1.89175
2.00926
2.15626
2.32802
2.52826
2.7417
2.96506
3.21838
3.51918
3.80404
4.05733
4.26832
4.43429
4.55395
4.67203
4.83471
5.07395
5.43054
6.02354
7.05597
8.90218
12.3365
19.1829
35.3035
90.436
408.234
2936.94
1.59439
1.59232
1.59603
1.60422
1.61523
1.62834
1.64335
1.65971
1.67753
1.69658
1.71698
1.7387
1.76188
1.78654
1.81285
1.84093
1.87098
1.60093
1.61445
1.63914
1.67637
1.72961
1.8021
1.89866
2.02165
2.17747
2.36268
2.58412
2.82578
3.08744
3.38361
3.73368
4.06766
4.36421
4.6065
4.78646
4.90622
4.96758
5.02663
5.13694
5.33094
5.64833
6.1976
7.18904
8.99265
12.377
19.1688
35.2852
90.8665
413.143
2971.92
1.60094
1.5942
1.59223
1.59661
1.60486
1.61615
1.62927
1.64435
1.66069
1.6785
1.6975
1.71785
1.73949
1.76254
1.78707
1.81323
1.84116
1.87106
1.61453
1.63946
1.6772
1.73134
1.80556
1.90504
2.03323
2.19738
2.39589
2.63855
2.90919
3.21388
3.56884
3.99032
4.39084
4.74972
5.04114
5.24981
5.37419
5.4251
5.40936
5.39636
5.4464
5.58921
5.8664
6.37095
7.32078
9.08234
12.4187
19.1606
35.2744
91.2955
417.676
3004.2
1.61468
1.6005
1.59377
1.5921
1.59725
1.60556
1.61709
1.63024
1.64537
1.66171
1.6795
1.69845
1.71873
1.74027
1.76319
1.78758
1.81361
1.84139
1.87114
1.63975
1.67794
1.73292
1.80874
1.91092
2.04398
2.21599
2.42756
2.69105
2.99124
3.34269
3.76498
4.28694
4.7925
5.24316
5.61076
5.86755
6.00669
6.04052
5.99344
5.87849
5.77931
5.76099
5.84727
6.08213
6.54298
7.45053
9.17071
12.4612
19.1548
35.2666
91.6981
422.11
3035.38
1.64009
1.61383
1.59942
1.59328
1.59204
1.59793
1.60632
1.61806
1.63127
1.64643
1.66277
1.68052
1.69943
1.71961
1.74103
1.76383
1.78809
1.81397
1.84162
1.87122
1.6786
1.73434
1.81163
1.91632
2.05394
2.23333
2.45758
2.74122
3.07156
3.47286
3.96813
4.61073
5.28019
5.89186
6.38032
6.71689
6.88468
6.89877
6.79448
6.61341
6.37397
6.1736
6.07881
6.10424
6.29326
6.71227
7.57762
9.25734
12.5041
19.1543
35.2667
92.0971
426.167
3060.43
1.67932
1.63863
1.61161
1.59822
1.59289
1.5921
1.59864
1.60716
1.61905
1.63234
1.64751
1.66386
1.68156
1.7004
1.72046
1.74176
1.76444
1.78857
1.81433
1.84184
1.87129
1.73563
1.81425
1.92127
2.06313
2.24945
2.4859
2.78888
3.1499
3.603
4.17547
4.95894
5.8452
6.72973
7.44718
7.91708
8.13982
8.13149
7.94405
7.64239
7.28571
6.8943
6.57727
6.39812
6.35923
6.49937
6.87777
7.7015
9.34184
12.547
19.1555
35.2686
92.4692
429.621
3081.61
1.73696
1.6771
1.63464
1.60925
1.59715
1.59259
1.59228
1.59934
1.60807
1.62007
1.63346
1.64862
1.66498
1.6826
1.70134
1.72129
1.74248
1.76504
1.78905
1.81467
1.84205
1.87137
1.81664
1.92578
2.07159
2.26442
2.5125
2.83397
3.22602
3.73154
4.3851
5.33279
6.49103
7.74915
8.87603
9.62744
9.95605
9.93413
9.63282
9.15132
8.58553
8.00871
7.43716
6.98825
6.71733
6.61091
6.7
7.03875
7.82169
9.42391
12.5895
19.1585
35.2731
92.7869
432.467
3104.52
1.819
1.73376
1.67069
1.63037
1.6071
1.59619
1.59235
1.59267
1.60003
1.60906
1.62112
1.63462
1.64976
1.6661
1.68361
1.70226
1.7221
1.74318
1.76562
1.78951
1.81501
1.84225
1.87144
1.92996
2.07934
2.27829
2.53741
2.87653
3.29965
3.85714
4.59657
5.73376
7.21933
8.94571
10.6369
11.9363
12.5613
12.5615
12.1251
11.394
10.5179
9.61921
8.77812
7.99934
7.40428
7.03488
6.85818
6.89476
7.19463
7.93784
9.5033
12.6313
19.164
35.2803
93.0499
435.579
3129.63
1.93394
1.81458
1.72389
1.66395
1.62639
1.60513
1.59531
1.59204
1.59324
1.60074
1.61012
1.6222
1.63582
1.6509
1.66718
1.6846
1.70316
1.72289
1.74386
1.76618
1.78995
1.81533
1.84245
1.87147
2.08656
2.29115
2.56065
2.91667
3.37048
3.97897
4.8104
6.16183
8.02477
10.3059
12.7016
14.7735
16.0714
16.3268
15.7582
14.71
13.4026
12.0309
10.7335
9.58729
8.57682
7.82294
7.34933
7.10013
7.08326
7.34502
8.04967
9.57983
12.6723
19.1701
35.287
93.3478
438.938
3156.96
2.09323
1.92797
1.7998
1.71363
1.65763
1.62268
1.60328
1.59452
1.59174
1.59392
1.60148
1.61123
1.62332
1.63701
1.65202
1.66824
1.68556
1.70402
1.72365
1.74451
1.76673
1.79039
1.81565
1.84255
1.87147
2.30322
2.58234
2.95447
3.43826
4.09666
5.02744
6.61485
8.89687
11.8067
15.0348
18.084
20.3721
21.3942
20.9616
19.5404
17.6657
15.6337
13.6702
11.9147
10.4279
9.16498
8.24173
7.65931
7.33595
7.26519
7.48963
8.157
9.65332
12.7069
19.176
35.2968
93.6671
442.655
3187.1
2.31415
2.08543
1.90616
1.78462
1.704
1.65167
1.61918
1.60158
1.59379
1.5915
1.59469
1.60227
1.61239
1.62446
1.63818
1.65311
1.66926
1.6865
1.70487
1.7244
1.74516
1.76727
1.79081
1.81581
1.84255
1.87147
2.60278
2.99011
3.50287
4.21031
5.24833
7.08885
9.82252
13.4212
17.5917
21.8069
25.3791
27.6043
27.9775
26.4703
23.8795
20.9553
18.0544
15.4118
13.1471
11.2907
9.75895
8.6582
7.96354
7.56495
7.44033
7.62835
8.25975
9.71449
12.7369
19.1837
35.3081
94.0347
446.669
3219.93
2.62086
2.30385
2.05357
1.88405
1.77035
1.69487
1.64599
1.61588
1.6
1.59315
1.59137
1.59551
1.60314
1.61354
1.62559
1.63931
1.65418
1.67026
1.68742
1.70569
1.72513
1.74578
1.76778
1.79102
1.81581
1.84255
1.87147
3.02397
3.56441
4.32046
5.47327
7.57856
10.7877
15.1219
20.3246
25.8684
30.9972
34.8361
36.5975
35.8519
32.8267
28.7289
24.5329
20.6286
17.2304
14.4148
12.1664
10.3539
9.06995
8.26084
7.78662
7.60852
7.76088
8.34526
9.76688
12.7703
19.1932
35.3247
94.4291
451.125
3256.25
3.05354
2.60758
2.25742
2.02172
1.86329
1.75678
1.68611
1.64055
1.61277
1.59854
1.59261
1.59134
1.59637
1.60406
1.61465
1.62671
1.64041
1.65523
1.67123
1.68831
1.70649
1.72583
1.74638
1.76804
1.79102
1.81581
1.84255
1.87147
3.62333
4.42787
5.70198
8.07796
11.7786
16.882
23.1861
30.1894
37.1071
42.9422
46.6509
47.4232
45.0033
39.9765
34.0279
28.3477
23.3192
19.1011
15.7022
13.0461
10.9452
9.47473
8.5502
8.00052
7.76969
7.8701
8.41845
9.8248
12.8078
19.2053
35.3443
94.887
455.946
3295.78
3.6744
3.03601
2.53981
2.21173
1.99185
1.8435
1.74372
1.67768
1.63537
1.60986
1.5972
1.59218
1.59144
1.59722
1.60503
1.61573
1.62781
1.64148
1.65626
1.67218
1.68918
1.70726
1.72652
1.74668
1.76804
1.79102
1.81581
1.84255
1.87147
4.53318
5.93181
8.58094
12.7816
18.6758
26.1304
34.6908
43.5796
51.7333
57.9144
60.9483
60.0894
55.3715
47.8392
39.7055
32.3468
26.0901
21.0008
16.9954
13.9217
11.5287
9.8706
8.83076
8.20629
7.90365
7.96304
8.49927
9.88896
12.8498
19.2202
35.3721
95.3781
461.334
3339.62
4.6257
3.65177
2.93549
2.47424
2.16895
1.96334
1.82441
1.7311
1.66959
1.63043
1.60715
1.59601
1.59188
1.59171
1.59802
1.60603
1.61679
1.62891
1.64252
1.65726
1.6731
1.69003
1.70802
1.72686
1.74668
1.76804
1.79102
1.81581
1.84255
1.87143
6.16009
9.08328
13.7848
20.4793
29.1143
39.2972
50.2857
61.0021
70.0945
76.0986
77.7687
74.5355
66.8522
56.3141
45.6842
36.4771
28.9074
22.9089
18.2819
14.7861
12.1007
10.2559
9.10178
8.37772
8.01824
8.06516
8.5886
9.96017
12.8971
19.2391
35.4045
95.9363
467.18
3387.24
4.59565
6.36171
3.4976
2.84058
2.41295
2.12808
1.9358
1.80594
1.71894
1.66183
1.62573
1.60468
1.59495
1.59166
1.59222
1.59878
1.60705
1.61781
1.62998
1.64353
1.65824
1.67399
1.69085
1.70839
1.72686
1.74668
1.76804
1.79102
1.81581
1.84245
1.87136
9.58015
14.7774
22.2715
32.0979
43.9385
57.105
70.5448
82.869
92.4345
97.5763
97.0608
90.6339
79.3042
65.2856
51.8838
40.6879
31.7407
24.807
19.5511
15.6336
12.6583
10.6291
9.32832
8.52459
8.14479
8.17754
8.68747
10.0393
12.9506
19.2621
35.4491
96.521
473.758
3440.2
4.34158
6.333
10.0188
3.35711
2.75218
2.35441
2.08861
1.90915
1.78812
1.70725
1.65441
1.62127
1.60245
1.59403
1.59135
1.59287
1.59952
1.60807
1.61882
1.63104
1.64452
1.65919
1.67487
1.69126
1.70839
1.72686
1.74668
1.76804
1.79102
1.81565
1.84225
1.87129
15.7487
24.0339
35.0473
48.5531
63.9301
80.1762
95.9253
109.471
118.877
122.316
118.68
108.197
92.5573
74.6299
58.2255
44.9323
34.5626
26.6797
20.7944
16.4591
13.199
10.9418
9.52282
8.68707
8.28475
8.30143
8.79701
10.1275
13.011
19.2912
35.5002
97.1959
480.905
3497.48
4.11828
5.88465
10.0096
16.6077
3.22776
2.66779
2.2979
2.05042
1.88341
1.77095
1.69604
1.64734
1.61709
1.60048
1.59327
1.59112
1.59359
1.60027
1.60908
1.61981
1.63207
1.64549
1.66012
1.6753
1.69126
1.70838
1.72686
1.74668
1.76804
1.7908
1.81533
1.84204
1.87122
25.7486
37.9338
53.09
70.6703
89.7389
108.989
126.745
140.968
149.419
150.168
142.395
126.988
106.422
84.2213
64.6348
49.1677
37.3495
28.5142
22.0048
17.259
13.652
11.2105
9.73843
8.86712
8.4398
8.43826
8.91855
10.226
13.0798
19.3264
35.5688
97.9046
489.016
3561.4
3.91696
5.4929
9.19333
16.6628
27.2742
3.10496
2.58646
2.2433
2.01355
1.85861
1.75447
1.68534
1.64069
1.61333
1.59881
1.59263
1.59099
1.59433
1.60103
1.61008
1.62079
1.63307
1.64645
1.66059
1.67529
1.69126
1.70839
1.72686
1.74668
1.76778
1.79038
1.815
1.84183
1.87114
40.7305
57.5085
77.2554
99.1072
121.837
143.858
163.178
177.385
183.924
180.871
167.897
146.732
120.702
93.9394
71.0431
53.3569
40.082
30.3003
23.1766
17.9286
14.0414
11.5088
9.97781
9.06698
8.61183
8.58966
9.0536
10.3361
13.158
19.3707
35.6471
98.738
497.827
3630.05
3.72924
5.14086
8.46359
15.2958
27.493
43.2271
2.98712
2.50804
2.19066
1.97806
1.83481
1.73872
1.67523
1.63464
1.61006
1.59737
1.59213
1.59097
1.59508
1.60181
1.61106
1.62176
1.63407
1.64691
1.66058
1.67528
1.69126
1.70839
1.72686
1.74638
1.76726
1.78994
1.81466
1.84161
1.87106
61.7706
83.6325
108.191
134.304
160.505
184.945
205.267
218.611
222.125
214.06
194.818
167.137
135.204
103.671
77.3893
57.4687
42.7443
32.0298
24.1571
18.5039
14.4734
11.8402
10.244
9.28918
8.80303
8.75755
9.20388
10.4594
13.2475
19.4241
35.7504
99.6176
507.938
3706.97
3.55211
4.81495
7.80017
14.0283
25.3988
43.7522
65.5782
2.87391
2.43262
2.14007
1.94401
1.81205
1.72382
1.66599
1.62927
1.60719
1.59614
1.59176
1.59105
1.59581
1.60261
1.61202
1.62274
1.63456
1.64689
1.66058
1.67528
1.69126
1.70839
1.72651
1.74577
1.76672
1.78949
1.81432
1.84139
1.87098
89.7522
116.928
146.283
176.476
205.855
232.283
252.931
264.405
263.629
249.275
222.749
187.908
149.745
113.316
83.6223
61.4774
45.3234
33.4768
24.999
19.1416
14.9533
12.209
10.5405
9.53666
9.0159
8.9441
9.37142
10.598
13.3498
19.4911
35.869
100.672
518.871
3788.67
3.38469
4.51053
7.18205
12.84
23.4228
40.7535
66.5861
95.2089
2.76536
2.36034
2.09163
1.91149
1.79052
1.71017
1.65772
1.62449
1.60469
1.5951
1.59151
1.59125
1.59651
1.60344
1.61301
1.6232
1.63454
1.64689
1.66058
1.67529
1.69126
1.70801
1.72582
1.74514
1.76616
1.78903
1.81396
1.84116
1.8709
125.26
157.71
191.653
225.647
257.875
285.808
305.98
314.397
307.925
285.993
251.268
208.761
164.158
122.788
89.6994
65.362
47.482
34.7194
25.9321
19.8495
15.487
12.6198
10.8711
9.81272
9.25331
9.15184
9.55847
10.7538
13.4678
19.5718
36.0234
101.795
531.621
3896.47
3.22664
4.22681
6.60197
11.7112
21.5326
37.8967
62.5165
96.8854
132.655
2.66157
2.29136
2.04542
1.88077
1.77077
1.69791
1.65032
1.62024
1.60251
1.59423
1.59133
1.59159
1.59722
1.60435
1.61347
1.62316
1.63454
1.64689
1.66058
1.6753
1.69085
1.70725
1.72511
1.74449
1.7656
1.78855
1.8136
1.84092
1.87081
168.526
205.987
244.207
281.721
316.484
345.382
364.117
368.087
354.398
323.648
279.958
229.436
178.303
132.016
95.5861
68.6132
49.3359
36.0966
26.9673
20.6359
16.081
13.078
11.2403
10.1212
9.51853
9.38368
9.76787
10.9299
13.6031
19.6726
36.2027
103.158
547.678
4027.95
3.07756
3.96397
6.05981
10.635
19.6998
35.1266
58.6336
91.5881
135.16
178.047
2.5627
2.2258
2.00186
1.85262
1.75304
1.6869
1.64369
1.61646
1.60066
1.59348
1.59112
1.59209
1.59802
1.60477
1.61341
1.62315
1.63454
1.64689
1.66059
1.67486
1.69001
1.70647
1.72438
1.74383
1.76501
1.78807
1.81322
1.84068
1.87072
219.429
261.521
303.723
344.555
381.58
410.827
426.943
424.848
402.362
361.663
308.425
249.707
192.062
140.943
100.509
71.4051
51.3906
37.6243
28.1168
21.5103
16.7428
13.5894
11.6531
10.4662
9.8153
9.64297
10.0023
11.1282
13.7604
19.794
36.4334
104.921
568.904
4162.27
2.9367
3.7226
5.55736
9.6144
17.9132
32.4022
54.8409
86.5668
128.472
181.468
231.114
2.46905
2.16422
1.96203
1.82735
1.7371
1.67703
1.63776
1.61307
1.59906
1.59285
1.59099
1.5928
1.59834
1.60468
1.6134
1.62315
1.63454
1.64691
1.66012
1.67398
1.68916
1.70566
1.72363
1.74315
1.76442
1.78757
1.81284
1.84043
1.87063
277.57
323.937
369.953
414.042
453.11
481.936
493.952
483.948
451.079
399.48
336.332
269.392
205.343
148.395
104.733
74.4983
53.6699
39.3207
29.3944
22.4834
17.4806
14.1608
12.1149
10.8528
10.1478
9.93357
10.2664
11.3546
13.9424
19.9458
36.7566
107.301
592.157
4298.01
2.80354
3.50503
5.09558
8.6586
16.1734
29.7032
51.0775
81.6573
122.226
173.191
235.426
291.273
2.38148
2.10809
1.92636
1.80468
1.7228
1.66817
1.63245
1.61005
1.59768
1.5924
1.59119
1.59311
1.59816
1.60469
1.6134
1.62316
1.63456
1.64644
1.65917
1.67307
1.68828
1.70484
1.72286
1.74246
1.76381
1.78706
1.81244
1.84018
1.87054
342.406
392.855
442.765
490.287
531.179
558.507
564.526
544.547
499.802
436.602
363.394
288.341
216.399
154.779
109.409
77.9278
56.2004
41.2058
30.8154
23.5669
18.3035
14.7994
12.632
11.2861
10.5209
10.2596
10.5612
11.6127
14.1561
20.1629
37.2366
110.052
617.653
4433.88
2.67902
3.30714
4.67407
7.77043
14.488
27.0265
47.3077
76.7709
116.156
165.639
225.287
296.302
357.775
2.30211
2.05796
1.89442
1.78433
1.70995
1.66022
1.62768
1.60738
1.59659
1.59236
1.59115
1.59294
1.59814
1.60469
1.61341
1.62321
1.63407
1.64548
1.65821
1.67215
1.68739
1.70399
1.72207
1.74174
1.76318
1.78653
1.81204
1.83992
1.87045
413.405
468.062
522.331
573.71
616.085
640.316
637.907
605.741
547.834
472.603
389.384
304.063
225.849
161.832
114.585
81.7321
59.0113
43.3019
32.3967
24.7739
19.2215
15.5132
13.2111
11.772
10.9396
10.6269
10.891
11.9075
14.4508
20.4824
37.8234
113.252
645.418
4568.73
2.56615
3.1271
4.29444
6.95146
12.8741
24.3805
43.5162
71.8476
110.135
158.397
216.319
283.903
363.174
429.895
2.23166
2.0132
1.86581
1.76607
1.69842
1.65306
1.62339
1.60518
1.59611
1.59217
1.59077
1.59296
1.59814
1.60468
1.61348
1.62273
1.63306
1.6445
1.65723
1.6712
1.68647
1.70312
1.72127
1.74101
1.76253
1.78599
1.81162
1.83966
1.87036
490.227
549.702
609.256
665.085
708.244
726.996
713.164
666.619
594.56
507.144
410.881
317.468
236.26
169.621
120.317
85.9531
62.1348
45.6337
34.1571
26.1186
20.2455
16.3108
13.8594
12.3169
11.4097
11.0409
11.2616
12.3052
14.8513
20.8691
38.5568
116.919
675.887
4701.21
2.46607
2.96661
3.95833
6.20752
11.3501
21.7827
39.7035
66.8505
104.071
151.294
207.898
273.346
347.935
435.166
507.149
2.16911
1.97323
1.8402
1.74968
1.68802
1.6466
1.61976
1.60389
1.59564
1.59171
1.59075
1.59296
1.59816
1.60478
1.613
1.62174
1.63204
1.6435
1.65622
1.67023
1.68553
1.70223
1.72044
1.74026
1.76187
1.78544
1.81121
1.83941
1.87027
572.97
638.537
704.85
765.709
808.096
817.931
789.258
726.327
639.471
535.657
429.163
332.186
247.719
178.22
126.662
90.6362
65.6062
48.2278
36.1169
27.6165
21.3873
17.2016
14.5846
12.9274
11.9375
11.5067
11.7557
12.8229
15.3089
21.3439
39.4404
121.209
709.117
4829.91
2.37759
2.82468
3.67133
5.5475
9.93482
19.2563
35.8816
61.7605
97.8956
144.196
199.801
263.707
335.514
416.236
511.699
589.583
2.11353
1.93754
1.81726
1.73493
1.67863
1.64105
1.61738
1.60292
1.59501
1.5917
1.59075
1.59294
1.59835
1.60435
1.612
1.62077
1.631
1.64248
1.6552
1.66923
1.68457
1.70132
1.71959
1.73948
1.7612
1.7849
1.81082
1.83917
1.87019
662.51
736.333
811.515
877.465
916.005
912.294
865.139
784.12
676.571
559.862
449.172
348.323
260.316
187.703
133.681
95.8301
69.4632
51.1134
38.2982
29.2843
22.6594
18.1952
15.3946
13.6105
12.5287
12.1275
12.3874
13.3921
15.833
21.91
40.5472
126.131
745.64
4953.36
2.29949
2.69822
3.43488
4.98485
8.65924
16.8282
32.0726
56.5717
91.5574
136.995
191.845
254.703
324.557
401.555
487.84
592.777
678.194
2.0641
1.90568
1.79665
1.72161
1.67051
1.63721
1.61577
1.60203
1.59501
1.5917
1.59077
1.59312
1.59802
1.60343
1.61103
1.61978
1.62995
1.64144
1.65415
1.66821
1.68359
1.70038
1.71873
1.7387
1.76053
1.78437
1.81043
1.83894
1.87011
760.94
846.553
933.104
1002.77
1032.2
1009.26
939.799
832.142
708.067
586.294
471.025
365.978
274.14
198.147
141.437
101.586
73.7458
54.3213
40.7245
31.1397
24.0749
19.3015
16.2976
14.3722
13.3128
12.9137
13.0699
14.0157
16.4247
22.6007
41.8799
131.931
785.604
5069.94
2.23059
2.58559
3.23609
4.51659
7.55397
14.5423
28.3089
51.2905
85.0159
129.597
183.876
246.094
314.699
389.09
470.382
562.235
679.576
775.666
2.02012
1.87716
1.77807
1.71006
1.66467
1.63473
1.61459
1.60204
1.59501
1.59171
1.59115
1.59281
1.59721
1.60259
1.61005
1.61879
1.62887
1.64037
1.65308
1.66716
1.68259
1.69942
1.71784
1.73792
1.75988
1.78386
1.81005
1.83871
1.87002
872.645
975.268
1075.48
1144.53
1157.58
1107.72
1002.75
873.057
742.461
615.082
494.826
385.242
289.271
209.624
149.993
107.954
78.4954
57.8836
43.42
33.2007
25.6469
20.5305
17.3004
15.3777
14.2966
13.7521
13.802
14.6913
17.0967
23.418
43.5503
138.613
829.64
5178.44
2.16976
2.48567
3.06558
4.13009
6.6239
12.4909
24.6579
45.9391
78.242
121.912
175.752
237.677
305.627
378.367
456.123
541.405
639.766
775.455
887.639
1.98089
1.85154
1.7619
1.70156
1.661
1.63319
1.61462
1.60204
1.59501
1.59218
1.5912
1.59209
1.5965
1.60179
1.60905
1.61778
1.62778
1.63927
1.65199
1.66608
1.68156
1.69845
1.71697
1.73717
1.75925
1.78337
1.80969
1.83849
1.86995
1005.64
1133.17
1246.86
1310.03
1291.99
1192.91
1056.89
917.912
779.922
646.341
520.659
406.191
305.783
222.203
159.41
114.988
83.7536
61.8329
46.4097
35.4858
27.3888
21.8908
18.6184
16.6288
15.3348
14.6366
14.5791
15.4221
17.8487
24.4076
45.5574
146.573
877.987
5277.26
2.11588
2.39743
2.91674
3.8122
5.85123
10.7178
21.2629
40.5949
71.2228
113.853
167.324
229.26
297.093
368.979
444.454
524.982
614.968
722.415
887.579
1026.26
1.94579
1.82926
1.74975
1.69634
1.65898
1.63324
1.61461
1.60203
1.59565
1.59238
1.591
1.59159
1.59579
1.60101
1.60803
1.61675
1.62667
1.63815
1.65088
1.66498
1.68051
1.69749
1.71612
1.73644
1.75864
1.78289
1.80933
1.83828
1.86987
1175.99
1338.12
1471.98
1503.84
1412.35
1267.21
1116.88
967.039
820.63
680.171
548.591
428.88
323.73
235.939
169.74
122.733
89.5601
66.201
49.7177
38.0129
29.312
23.6724
20.2473
17.9378
16.4178
15.5596
15.3976
16.2016
18.6965
25.5659
48.0606
155.803
931.402
5366.1
2.06796
2.31967
2.78502
3.55339
5.2159
9.21394
18.216
35.4593
64.0176
105.344
158.432
220.635
288.853
360.619
434.827
512.213
595.954
693.012
815.724
1032.97
1215.88
1.91525
1.81227
1.74239
1.69375
1.65906
1.63324
1.61459
1.60293
1.59613
1.59242
1.59113
1.59125
1.59506
1.60025
1.60701
1.6157
1.62556
1.63699
1.64976
1.66386
1.67948
1.69655
1.71529
1.73574
1.75805
1.78242
1.80898
1.83807
1.86979
1418.91
1651.21
1766.31
1682
1518.82
1350.84
1183.6
1020.96
864.829
716.683
578.672
453.34
343.147
250.873
181.028
131.232
95.9507
71.0167
53.3664
40.7971
31.8244
25.8638
21.9415
19.2926
17.5352
16.5133
16.2516
17.0341
19.6353
26.9529
51.0417
166.93
990.077
5443.36
2.02638
2.25116
2.66766
3.34065
4.69622
7.9573
15.5234
30.6891
56.8678
96.3859
148.913
211.57
280.652
352.999
426.867
502.352
581.858
670.966
780.623
932.657
1257.38
1523.04
1.8916
1.80218
1.73907
1.69388
1.65905
1.63319
1.61579
1.60393
1.59662
1.59288
1.59135
1.59106
1.59431
1.5995
1.606
1.61463
1.62444
1.63581
1.64862
1.66275
1.67848
1.69565
1.71449
1.73505
1.75747
1.78197
1.80865
1.83787
1.86972
1850.74
2091.63
2031.8
1840.43
1641.7
1446.34
1258.88
1080.58
912.939
756.033
610.946
479.579
364.039
267.023
193.301
140.514
102.954
76.3046
57.3736
44.4251
34.9027
28.1331
23.685
20.6797
18.6764
17.4895
17.1377
17.9169
20.6881
28.5589
54.7132
179.901
1055.06
5510.72
1.99381
2.19222
2.56316
3.16127
4.27396
6.91696
13.1869
26.3274
49.9926
87.2132
138.666
201.8
272.196
345.828
420.233
494.924
571.698
655.222
755.152
889.949
1105.45
1704.37
2174.23
1.87766
1.79803
1.73926
1.69388
1.65897
1.63475
1.61744
1.60524
1.59773
1.59352
1.59153
1.59098
1.59357
1.59876
1.60501
1.61352
1.62332
1.63462
1.64749
1.66169
1.6775
1.69478
1.71371
1.73439
1.75691
1.78153
1.80832
1.83767
1.86969
2526.12
2518.99
2290.44
2040.96