/*--------------------------------*- C++ -*----------------------------------*\
  =========                 |
  \\      /  F ield         | OpenFOAM: The Open Source CFD Toolbox
   \\    /   O peration     | Website:  https://openfoam.org
    \\  /    A nd           | Version:  8
     \\/     M anipulation  |
\*---------------------------------------------------------------------------*/
FoamFile
{
    version     2.0;
    format      ascii;
    class       volScalarField;
    location    "0.17";
    object      nut;
}
// * * * * * * * * * * * * * * * * * * * * * * * * * * * * * * * * * * * * * //

dimensions      [0 2 -1 0 0 0 0];

internalField   nonuniform List<scalar> 
15677
(
0.000168252
0.000653022
0.000148416
0.00151374
0.00044245
0.000141508
0.00267552
0.000875782
0.000381134
0.000142376
0.00392132
0.00151886
0.000686589
0.000354236
0.000145458
0.00502432
0.00235603
0.00114628
0.00058559
0.000340245
0.000151203
0.00584083
0.00331723
0.00178057
0.000947649
0.000529261
0.000332006
0.000156999
0.00633514
0.00429851
0.00256735
0.00146309
0.000820808
0.000492467
0.000326993
0.000162435
0.00656291
0.00518758
0.00345257
0.00213125
0.00125698
0.000737178
0.000467457
0.000324115
0.000167215
0.00665848
0.00589341
0.00435505
0.00292168
0.00184115
0.00111214
0.000677357
0.000450455
0.00032256
0.000171432
0.00670551
0.0063383
0.00518065
0.00377848
0.00255647
0.00163147
0.0010045
0.000634108
0.000438739
0.000321993
0.000174995
0.00671439
0.00655352
0.00584522
0.00462482
0.0033622
0.00228601
0.00147245
0.000924183
0.000602246
0.000430801
0.000321952
0.000178124
0.00670992
0.00666157
0.00629559
0.00537677
0.00419643
0.00304468
0.00207746
0.00134892
0.000862284
0.000578642
0.000425373
0.000322423
0.000180729
0.00670629
0.00669878
0.00652954
0.00596425
0.00498378
0.00385668
0.00279529
0.00191151
0.00125125
0.000814202
0.000560967
0.000421881
0.000323072
0.000183077
0.00670543
0.00670439
0.00664678
0.00635685
0.00564979
0.00465529
0.00358286
0.00259323
0.00177777
0.00117311
0.000776529
0.000547799
0.000419575
0.000323976
0.000185119
0.0067055
0.00670285
0.00668787
0.00656291
0.0061419
0.00536804
0.00438086
0.00335656
0.0024278
0.00166818
0.00110988
0.000746794
0.000537791
0.000418334
0.000324822
0.00018693
0.00670568
0.00670159
0.00669641
0.00665655
0.00644667
0.0059334
0.00512068
0.00414826
0.00316834
0.00228998
0.00157813
0.00105827
0.000723255
0.000530527
0.00041747
0.000325871
0.000188583
0.00670579
0.00670108
0.00669719
0.00668487
0.00660482
0.00632167
0.00573726
0.00490362
0.00395083
0.00300938
0.00217517
0.00150318
0.00101657
0.000704816
0.000524888
0.000417345
0.000326801
0.000189998
0.00670585
0.00670092
0.00669684
0.00669157
0.00666374
0.00654123
0.00618815
0.00555683
0.00471434
0.00378153
0.00287526
0.00207848
0.00144133
0.00098262
0.000690133
0.000521025
0.00041729
0.00032789
0.000191424
0.00670587
0.00670088
0.0066966
0.00669257
0.00668238
0.00663453
0.00646776
0.006058
0.00539377
0.0045488
0.0036367
0.00276119
0.00199763
0.00139004
0.000955117
0.00067881
0.000518007
0.000417826
0.000328859
0.000192541
0.00670588
0.00670087
0.00669652
0.00669244
0.00668745
0.00666905
0.00659803
0.00638957
0.00593492
0.00524731
0.00440475
0.00351231
0.00266478
0.00192992
0.00134799
0.000932995
0.000669938
0.000516291
0.000418241
0.000329945
0.000193869
0.00670589
0.00670085
0.0066965
0.00669225
0.00668846
0.00668063
0.00665151
0.00655628
0.006311
0.00582025
0.005117
0.00427948
0.00340611
0.0025835
0.0018739
0.00131364
0.000915532
0.000663392
0.000514946
0.000419197
0.000330973
0.000194759
0.00670589
0.00670084
0.0066965
0.00669213
0.00668852
0.00668392
0.00667192
0.0066304
0.00651131
0.00623364
0.00571518
0.0050018
0.00417144
0.00331612
0.00251573
0.00182795
0.00128625
0.000901878
0.00065857
0.000514709
0.000419912
0.000332022
0.000196077
0.00670589
0.00670083
0.0066965
0.00669207
0.00668845
0.00668461
0.00667889
0.00666128
0.00660621
0.00646564
0.00616054
0.0056205
0.00490131
0.00407925
0.00324048
0.00246007
0.00179112
0.0012648
0.000891963
0.000655451
0.00051447
0.000421162
0.000333185
0.000196807
0.00670588
0.00670083
0.0066965
0.00669203
0.00668839
0.00668463
0.00668096
0.00667296
0.00664877
0.00658103
0.00641951
0.00609349
0.00553656
0.00481445
0.0040012
0.00317863
0.00241557
0.00176275
0.00124896
0.000884631
0.000653578
0.000515373
0.000422089
0.000334102
0.000198126
0.00670588
0.00670083
0.00669649
0.00669201
0.00668836
0.00668453
0.00668144
0.00667689
0.00666635
0.00663548
0.00655421
0.00637738
0.00603168
0.00546267
0.00474112
0.0039381
0.00312916
0.00238123
0.00174134
0.00123762
0.000880676
0.000653087
0.000515857
0.000423603
0.000335594
0.000198831
0.00670587
0.00670084
0.00669648
0.00669199
0.00668833
0.00668444
0.00668148
0.006678
0.00667298
0.00665925
0.00662103
0.00652977
0.00633592
0.00597757
0.00540165
0.0046816
0.00388626
0.00309066
0.00235602
0.00172817
0.00123206
0.000878618
0.000653595
0.000517824
0.000424634
0.000336376
5.33933e-05
0.00670587
0.00670084
0.00669647
0.00669199
0.00668832
0.00668437
0.00668144
0.00667818
0.00667521
0.00666881
0.00665187
0.00660788
0.00650469
0.00630307
0.00593263
0.00534888
0.00463214
0.00384968
0.00306676
0.00234282
0.00172188
0.00122943
0.000879493
0.00065543
0.000518986
0.000427074
0.000283997
6.34628e-05
0.00670586
0.00670085
0.00669646
0.00669198
0.0066883
0.00668433
0.00668138
0.00667811
0.00667583
0.00667227
0.00666507
0.00664527
0.00659447
0.00648625
0.00626953
0.00589241
0.00531285
0.00460418
0.00382781
0.00305233
0.00233561
0.00172025
0.0012311
0.000882022
0.000657477
0.000521513
0.000420819
0.000219932
7.09688e-05
0.00670585
0.00670086
0.00669645
0.00669199
0.00668828
0.0066843
0.00668134
0.006678
0.00667592
0.00667332
0.00667028
0.00666194
0.00663912
0.00658554
0.00646675
0.00624848
0.00587337
0.00528972
0.00458298
0.00381351
0.00304593
0.00233525
0.00172439
0.0012366
0.000886184
0.000660675
0.000522808
0.000401321
0.000178268
7.65363e-05
0.00670584
0.00670087
0.00669643
0.00669199
0.00668825
0.00668428
0.0066813
0.00667791
0.00667588
0.00667348
0.00667212
0.0066688
0.0066599
0.00663615
0.00657671
0.00645805
0.00624071
0.00585762
0.00527406
0.00457163
0.00381017
0.00304998
0.00234402
0.00173491
0.00124528
0.000892475
0.000664757
0.00052111
0.000368752
0.00015264
8.10897e-05
0.00670584
0.00670088
0.00669642
0.006692
0.00668823
0.00668427
0.00668126
0.00667784
0.00667581
0.00667339
0.00667261
0.00667129
0.00666892
0.00666033
0.00663439
0.00657779
0.00645735
0.00623526
0.00585004
0.00527051
0.00457594
0.00382158
0.0030656
0.00236108
0.0017504
0.00125774
0.000900466
0.00066862
0.000515673
0.000337637
0.000134172
8.46416e-05
0.00670583
0.00670089
0.00669641
0.00669201
0.00668821
0.00668428
0.00668121
0.0066778
0.00667573
0.00667326
0.00667267
0.00667195
0.00667253
0.00667112
0.00666285
0.00664198
0.00658192
0.00646189
0.0062377
0.00585804
0.0052844
0.00459527
0.00384529
0.00309123
0.00238556
0.00177114
0.00127312
0.000909925
0.000672507
0.000505059
0.000307573
0.000121084
8.71993e-05
0.00670583
0.00670089
0.0066964
0.00669202
0.00668818
0.00668428
0.00668117
0.00667777
0.00667566
0.00667313
0.00667261
0.00667198
0.00667372
0.00667547
0.00667607
0.00667449
0.00664968
0.00659274
0.00647409
0.00625655
0.00588206
0.00531296
0.00462866
0.00388123
0.00312675
0.00241741
0.00179641
0.00129187
0.000920715
0.000675054
0.000490469
0.000281554
0.000112481
8.91231e-05
0.00670582
0.0067009
0.00669639
0.00669204
0.00668816
0.00668429
0.00668113
0.00667775
0.00667559
0.00667303
0.00667251
0.00667183
0.00667401
0.00667688
0.00668183
0.00668999
0.00668447
0.0066649
0.00661412
0.00650128
0.00628996
0.00592119
0.00535721
0.00467628
0.00392943
0.003172
0.0024563
0.00182647
0.00131301
0.00093263
0.00067657
0.000474362
0.000261855
0.000106624
9.06415e-05
0.00670091
0.00670582
0.00669638
0.00669204
0.00668814
0.0066843
0.00668108
0.00667775
0.00667551
0.00667296
0.0066724
0.00667165
0.006674
0.00667716
0.00668399
0.00669695
0.00670138
0.00670261
0.00669282
0.0066479
0.00654284
0.00633874
0.00597709
0.00541729
0.00473839
0.00398992
0.0032269
0.00250217
0.00186071
0.00133729
0.000947254
0.000677477
0.000460302
0.000246748
0.000102487
9.18948e-05
0.00669637
0.00670093
0.00670582
0.00669205
0.00668812
0.00668431
0.00668105
0.00667776
0.00667544
0.00667292
0.00667229
0.00667148
0.0066739
0.00667706
0.00668468
0.00669965
0.00670917
0.0067214
0.006735
0.00673141
0.00669599
0.00660022
0.00640552
0.00605038
0.00549437
0.00481546
0.00406263
0.00329121
0.00255469
0.0018993
0.00136665
0.000964767
0.000678371
0.000448329
0.00023509
9.95298e-05
9.29729e-05
0.00669206
0.00669639
0.00670097
0.00670583
0.00668811
0.00668433
0.00668101
0.00667777
0.00667536
0.0066729
0.00667218
0.00667134
0.00667378
0.00667684
0.00668482
0.00670056
0.00671239
0.00673038
0.00675678
0.00677716
0.00678468
0.00676014
0.00667611
0.0064911
0.00614287
0.00558902
0.00490717
0.00414749
0.0033648
0.00261368
0.00194701
0.00140205
0.000983784
0.000679615
0.000438612
0.000225878
9.73359e-05
9.39273e-05
0.00668809
0.0066921
0.00669643
0.00670101
0.00670583
0.00668434
0.00668098
0.00667778
0.00667529
0.00667289
0.00667206
0.00667124
0.00667364
0.0066766
0.00668478
0.00670078
0.00671362
0.00673437
0.00676776
0.00680151
0.00683447
0.00685429
0.00684334
0.00677116
0.00659744
0.00625465
0.00570189
0.00501459
0.00424434
0.00344716
0.00268617
0.00200608
0.00144
0.00100373
0.000682456
0.00043071
0.000218581
9.57295e-05
9.47948e-05
0.00668435
0.00668812
0.00669218
0.00669647
0.00670105
0.00670584
0.00668095
0.00667779
0.00667522
0.0066729
0.00667193
0.00667118
0.00667351
0.00667638
0.00668469
0.00670075
0.00671406
0.00673612
0.00677305
0.00681436
0.00686191
0.00690798
0.00694276
0.00694579
0.00688786
0.00672405
0.00638666
0.0058331
0.00513697
0.00435276
0.0035485
0.00277534
0.00207023
0.00148058
0.00102555
0.000686194
0.000424554
0.000212612
9.44861e-05
9.55916e-05
0.00668092
0.00668441
0.00668818
0.00669226
0.00669651
0.00670109
0.00670584
0.0066778
0.00667516
0.00667291
0.00667181
0.00667115
0.00667335
0.00667619
0.00668459
0.00670064
0.00671419
0.00673695
0.00677573
0.00682126
0.00687785
0.00694
0.00700337
0.00705312
0.00707083
0.00702465
0.00687195
0.00653827
0.00598108
0.00527545
0.00448639
0.00367249
0.00287251
0.00213927
0.00152304
0.00104782
0.000691169
0.000419765
0.000207668
9.35645e-05
9.63358e-05
0.00667782
0.00668094
0.00668452
0.00668825
0.00669234
0.00669655
0.00670113
0.00670585
0.00667511
0.00667293
0.00667169
0.00667116
0.00667319
0.00667605
0.00668449
0.00670049
0.00671421
0.0067374
0.00677729
0.00682518
0.0068872
0.00695946
0.00704081
0.00712137
0.00718983
0.00722168
0.00718622
0.0070389
0.0067079
0.00614596
0.00544401
0.00465185
0.00380883
0.00297673
0.00221244
0.00156806
0.00107013
0.000697502
0.000416195
0.000203537
9.28231e-05
9.70291e-05
0.00667506
0.00667789
0.00668101
0.00668463
0.00668832
0.00669242
0.0066966
0.00670117
0.00670586
0.00667295
0.00667158
0.00667118
0.006673
0.00667596
0.0066844
0.00670035
0.00671419
0.00673768
0.00677832
0.00682781
0.00689324
0.00697195
0.00706551
0.00716564
0.00726728
0.00735268
0.00740082
0.00737489
0.00722919
0.0068943
0.00634459
0.00564887
0.00483113
0.00395492
0.00308726
0.00228921
0.00161502
0.00109331
0.000704725
0.000413716
0.000200049
9.2275e-05
9.76841e-05
0.00667297
0.00667505
0.00667802
0.00668109
0.00668474
0.00668839
0.0066925
0.00669665
0.0067012
0.00670587
0.00667147
0.00667122
0.00667281
0.00667594
0.0066843
0.00670021
0.00671415
0.00673789
0.00677908
0.00682982
0.00689769
0.00698079
0.00708305
0.00719706
0.00732089
0.00744167
0.00754638
0.00760747
0.00759061
0.00744533
0.00712139
0.0065829
0.00586766
0.00502041
0.00410878
0.00320298
0.00236902
0.00166352
0.00111714
0.000712692
0.00041217
0.000197102
9.18174e-05
9.8296e-05
0.00667138
0.00667304
0.00667509
0.00667815
0.00668117
0.00668485
0.00668847
0.00669258
0.0066967
0.00670124
0.00670588
0.00667126
0.00667261
0.00667598
0.00668418
0.00670009
0.00671411
0.00673806
0.00677971
0.00683151
0.00690128
0.00698783
0.00709661
0.00722108
0.00736203
0.0075072
0.00765049
0.00777074
0.00784424
0.00783274
0.00771291
0.00740466
0.0068357
0.0060953
0.00521744
0.00426823
0.00332263
0.00245109
0.00171325
0.00114122
0.000720819
0.000411367
0.00019458
9.14862e-05
9.88766e-05
0.00667131
0.0066713
0.00667317
0.00667514
0.00667829
0.00668126
0.00668497
0.00668855
0.00669266
0.00669676
0.00670128
0.00670589
0.00667242
0.00667607
0.00668401
0.00669997
0.00671408
0.00673821
0.00678025
0.00683299
0.00690435
0.00699389
0.00710797
0.00724067
0.00739599
0.00756095
0.00773209
0.00789351
0.00802965
0.00811159
0.00813195
0.00804177
0.00771625
0.0071103
0.00632934
0.0054182
0.00443085
0.00344483
0.00253482
0.00176375
0.0011659
0.000729086
0.000411084
0.000192425
9.11983e-05
9.94176e-05
0.00667223
0.00667136
0.00667121
0.0066733
0.0066752
0.00667842
0.00668136
0.00668508
0.00668865
0.00669274
0.00669682
0.00670132
0.0067059
0.0066762
0.00668378
0.00669989
0.00671406
0.00673837
0.00678075
0.00683433
0.00690705
0.0069993
0.00711793
0.00725773
0.00742535
0.00760771
0.0078032
0.00799542
0.00817654
0.00832389
0.00844415
0.00850276
0.00840071
0.0080483
0.00740278
0.00657278
0.00562062
0.00459514
0.00356857
0.00261944
0.00181472
0.00119091
0.000737507
0.000411269
0.000190557
9.09988e-05
9.99322e-05
0.00667635
0.00667192
0.00667143
0.00667114
0.00667343
0.00667528
0.00667856
0.00668146
0.00668519
0.00668874
0.00669282
0.00669688
0.00670135
0.00670591
0.0066835
0.00669985
0.00671408
0.00673853
0.00678122
0.00683554
0.00690947
0.00700423
0.00712683
0.00727319
0.00745179
0.00764929
0.00786831
0.0080892
0.00830535
0.00850052
0.008693
0.00886013
0.00891079
0.00878669
0.00839795
0.00770732
0.00682614
0.00582405
0.00475938
0.00369228
0.00270431
0.00186581
0.00121609
0.000745986
0.000411828
0.000188951
9.08177e-05
0.000100409
0.00668316
0.00667638
0.00667143
0.0066715
0.00667108
0.00667356
0.00667537
0.00667868
0.00668159
0.0066853
0.00668885
0.0066929
0.00669695
0.00670139
0.00670593
0.00669987
0.00671412
0.0067387
0.00678166
0.00683665
0.00691166
0.00700873
0.00713489
0.00728744
0.007476
0.00768735
0.00792861
0.00817873
0.00842921
0.00866295
0.00891142
0.00916037
0.00932302
0.00935393
0.00919685
0.00876247
0.00801962
0.00708602
0.00602799
0.0049213
0.00381497
0.00278873
0.00191671
0.00124123
0.000754542
0.000412481
0.000187554
9.07019e-05
0.000100864
0.0067
0.00668208
0.00667633
0.00667095
0.00667157
0.00667106
0.00667367
0.00667548
0.0066788
0.00668172
0.00668541
0.00668896
0.00669298
0.00669701
0.00670142
0.00670594
0.0067142
0.00673888
0.00678206
0.00683766
0.00691366
0.00701284
0.00714221
0.00730066
0.00749827
0.00772284
0.00798553
0.00826325
0.00855082
0.00882592
0.00912342
0.00943958
0.00968789
0.00983295
0.00983126
0.00962952
0.00913957
0.00833763
0.00734932
0.00623492
0.0050808
0.00393585
0.00287222
0.00196712
0.0012662
0.000763048
0.0004133
0.000186368
9.05907e-05
0.000101283
0.00671428
0.00669962
0.00668011
0.00667633
0.0066705
0.00667162
0.00667107
0.00667377
0.00667561
0.00667892
0.00668186
0.00668552
0.00668907
0.00669306
0.00669708
0.00670146
0.00670595
0.00673905
0.00678241
0.00683856
0.00691548
0.00701659
0.0071489
0.00731289
0.00751875
0.00775621
0.00803948
0.00834326
0.00866827
0.00899303
0.00934614
0.00972441
0.0100464
0.0102817
0.0103948
0.0103452
0.0100847
0.00952785
0.00865974
0.00761243
0.00644249
0.00523772
0.00405452
0.0029543
0.0020168
0.00129086
0.000771598
0.00041423
0.000185315
9.05295e-05
0.000101684
0.00673923
0.00671329
0.00669881
0.00667813
0.00667627
0.00667015
0.00667162
0.00667113
0.00667385
0.00667577
0.00667903
0.00668201
0.00668562
0.00668918
0.00669313
0.00669714
0.00670149
0.00670596
0.0067827
0.00683937
0.00691714
0.00702001
0.00715503
0.00732417
0.0075376
0.00778766
0.00809029
0.00841921
0.00878304
0.00916084
0.00957997
0.0100343
0.0104336
0.0107548
0.0109612
0.0110207
0.0109013
0.0105639
0.00992664
0.00898458
0.0078743
0.00664891
0.0053912
0.00417007
0.00303447
0.0020655
0.0013151
0.000780035
0.000415196
0.000184421
9.04648e-05
0.000102051
0.00678295
0.00673752
0.00671112
0.00669799
0.0066765
0.00667606
0.00666992
0.00667157
0.00667124
0.00667392
0.00667594
0.00667914
0.00668217
0.00668573
0.00668929
0.00669321
0.0066972
0.00670152
0.00670597
0.0068401
0.00691866
0.00702312
0.00716063
0.00733455
0.00755495
0.00781719
0.00813779
0.00849167
0.00889599
0.00932762
0.00981322
0.0103723
0.0108887
0.0113131
0.0116118
0.0117545
0.0117243
0.0115049
0.0110683
0.0103354
0.00931108
0.00813401
0.00685302
0.00554188
0.00428183
0.00311239
0.00211302
0.00133882
0.000788422
0.000416236
0.000183639
9.04398e-05
0.000102402
0.00684078
0.00677998
0.00673374
0.00670888
0.00669675
0.00667539
0.00667565
0.00666983
0.00667146
0.0066714
0.00667397
0.00667613
0.00667926
0.00668232
0.00668584
0.0066894
0.00669328
0.00669726
0.00670155
0.00670599
0.00692003
0.00702594
0.00716575
0.00734405
0.00757092
0.00784476
0.00818201
0.00856107
0.00900636
0.00949032
0.0100439
0.010739
0.0114444
0.0120342
0.0124401
0.0126552
0.0126761
0.0125097
0.0121562
0.0115969
0.010753
0.00963818
0.00839077
0.0070533
0.00569034
0.00438987
0.00318784
0.00215921
0.00136194
0.000796571
0.000417267
0.000182912
9.04059e-05
0.000102683
0.00692133
0.00683688
0.00677355
0.00672996
0.00670664
0.00669499
0.00667477
0.00667503
0.00666988
0.0066713
0.0066716
0.00667402
0.00667633
0.00667937
0.00668247
0.00668595
0.0066895
0.00669336
0.00669731
0.00670159
0.006706
0.0070285
0.00717042
0.00735272
0.00758561
0.00787035
0.0082231
0.00862749
0.00911252
0.00964679
0.0102779
0.0111527
0.0121103
0.012958
0.0135305
0.0138167
0.0138672
0.0137076
0.0133637
0.0128472
0.0121453
0.0111772
0.00996463
0.00864377
0.0072486
0.00583565
0.00449417
0.00326066
0.00220392
0.00138439
0.000804571
0.000418335
0.000182301
9.04019e-05
0.00010292
0.00703086
0.0069159
0.00682801
0.00676699
0.00672636
0.00670441
0.00669285
0.00667459
0.00667423
0.00667005
0.00667111
0.00667182
0.00667408
0.00667652
0.00667949
0.00668262
0.00668605
0.00668959
0.00669343
0.00669736
0.00670162
0.00670601
0.00717467
0.00736061
0.00759908
0.00789397
0.00826125
0.00869066
0.009213
0.00979751
0.0105243
0.0116236
0.012874
0.0140152
0.0148414
0.0152611
0.0153398
0.0151726
0.0148003
0.0142577
0.0135625
0.0127061
0.0116047
0.0102889
0.00889218
0.00743858
0.00597715
0.00459469
0.00333076
0.00224707
0.00140611
0.000812378
0.000419418
0.000181818
9.03934e-05
0.000103174
0.00717857
0.00702351
0.00690305
0.00681926
0.00676062
0.00672299
0.00670223
0.00669015
0.00667475
0.00667332
0.00667028
0.00667093
0.00667205
0.00667415
0.0066767
0.00667961
0.00668275
0.00668616
0.00668968
0.0066935
0.00669742
0.00670165
0.00670602
0.00736778
0.00761139
0.00791567
0.00829661
0.00875017
0.00930715
0.00994473
0.0107882
0.0121417
0.0136869
0.0150998
0.0161728
0.0168181
0.0170162
0.0168647
0.0164766
0.0158947
0.0151564
0.0142829
0.0132694
0.0120313
0.0106091
0.00913514
0.0076229
0.00611435
0.00469137
0.00339806
0.00228859
0.00142707
0.000819916
0.000420339
0.000181436
9.03976e-05
0.000103451
0.00737427
0.00716864
0.00700524
0.00689023
0.00681077
0.00675459
0.00671983
0.00670071
0.00668711
0.0066751
0.00667238
0.00667053
0.00667078
0.00667225
0.00667425
0.00667686
0.00667974
0.00668287
0.00668627
0.00668977
0.00669357
0.00669746
0.00670168
0.00670602
0.00762264
0.0079355
0.00832929
0.00880566
0.00939516
0.0100907
0.0110682
0.0126819
0.0144866
0.0161107
0.0173702
0.0182157
0.0186351
0.0186256
0.0182768
0.0177015
0.0169396
0.0160275
0.0149893
0.0138254
0.0124524
0.0109234
0.00937184
0.00780126
0.00624692
0.00478416
0.00346253
0.00232843
0.00144724
0.000826229
0.000421155
0.000181029
9.03976e-05
0.000103752
0.0076328
0.00736137
0.00714291
0.00698693
0.00687773
0.00680253
0.00674887
0.00671679
0.00669957
0.00668398
0.00667549
0.00667152
0.00667074
0.0066707
0.00667242
0.00667436
0.00667701
0.00667988
0.00668299
0.00668637
0.00668985
0.00669364
0.00669751
0.00670169
0.00670602
0.00795361
0.00835936
0.00885699
0.0094777
0.0102366
0.011357
0.0132152
0.0152228
0.0169834
0.0183543
0.0193323
0.0199374
0.020167
0.0200045
0.0195141
0.0188011
0.0179005
0.0168467
0.0156661
0.0143648
0.0128634
0.0112299
0.00960148
0.00797337
0.00637457
0.00487305
0.00352418
0.00236657
0.00146403
0.000831668
0.000422068
0.000180623
9.04153e-05
0.000104081
0.00796983
0.00761601
0.00732579
0.00711713
0.00696902
0.00686558
0.0067945
0.0067433
0.00671395
0.00669857
0.00668099
0.00667576
0.00667084
0.00667086
0.00667069
0.00667256
0.0066745
0.00667715
0.00668002
0.0066831
0.00668648
0.00668994
0.0066937
0.00669753
0.00670169
0.00670602
0.00838696
0.00890423
0.00955557
0.0103817
0.0116446
0.0137181
0.0158669
0.0176948
0.019108
0.0201488
0.0208697
0.0212895
0.0213898
0.0211338
0.0205577
0.0197566
0.0187598
0.0175991
0.0163019
0.0148803
0.0132606
0.0115267
0.00982334
0.00813896
0.00649715
0.00495803
0.00358297
0.00239818
0.00147843
0.000837707
0.000423124
0.000180189
9.04266e-05
0.000104437
0.00841167
0.0079487
0.00756718
0.0072901
0.00709189
0.00695157
0.00685373
0.00678658
0.00673802
0.00671128
0.00669758
0.00667838
0.00667576
0.00667039
0.00667088
0.00667075
0.00667267
0.00667465
0.00667727
0.00668015
0.00668321
0.00668658
0.00669001
0.00669374
0.00669753
0.00670169
0.00670602
0.00894764
0.00962935
0.0105245
0.0119217
0.0141759
0.0164099
0.0182498
0.0196517
0.0206975
0.0214681
0.0220041
0.0223037
0.0223301
0.0220301
0.0214147
0.0205678
0.019513
0.0182778
0.0168901
0.0153667
0.0136407
0.0118124
0.0100368
0.00829784
0.00661457
0.0050392
0.00363144
0.00242519
0.00149435
0.000844441
0.000424307
0.00017976
9.04612e-05
0.000104828
0.00898634
0.0083848
0.0078826
0.00751824
0.0072551
0.00706727
0.00693456
0.00684215
0.00677875
0.00673316
0.00670864
0.00669648
0.0066766
0.00667542
0.00667017
0.00667083
0.00667086
0.00667275
0.00667481
0.00667739
0.00668029
0.00668331
0.00668668
0.00669005
0.00669374
0.00669753
0.00670169
0.00670602
0.00969946
0.0106629
0.012181
0.0145822
0.0168558
0.0186681
0.0200212
0.0210297
0.0217973
0.0223839
0.0228044
0.023037
0.0230316
0.0227241
0.0221044
0.0212451
0.0201633
0.018882
0.0174276
0.015821
0.0140015
0.0120856
0.0102413
0.00844987
0.00672668
0.00510672
0.00367269
0.00245495
0.00151201
0.000851949
0.000425683
0.000179301
9.0488e-05
0.000105251
0.00976352
0.00895281
0.00829537
0.00781627
0.0074702
0.00722091
0.00704326
0.00691796
0.00683081
0.00677094
0.00672856
0.00670595
0.00669463
0.00667566
0.0066748
0.00667014
0.00667072
0.00667101
0.00667283
0.00667497
0.00667749
0.00668043
0.00668341
0.00668674
0.00669005
0.00669374
0.00669753
0.00670169
0.00670602
0.0107949
0.0124222
0.0149368
0.017215
0.0189739
0.0202545
0.0211975
0.0219241
0.02251
0.0229855
0.0233431
0.0235468
0.0235392
0.0232495
0.0226503
0.0218035
0.0207191
0.0194146
0.0179144
0.0162416
0.0143414
0.0123457
0.0104365
0.00859494
0.00681927
0.00516451
0.00371804
0.00248782
0.00153162
0.000860361
0.000427227
0.000178858
9.0547e-05
0.000105715
0.0109137
0.00972116
0.00883081
0.00820589
0.00775106
0.00742325
0.00718753
0.00701984
0.00690177
0.00681975
0.00676328
0.00672413
0.00670329
0.00669217
0.00667537
0.00667401
0.00667022
0.00667058
0.00667118
0.00667289
0.00667514
0.0066776
0.00668056
0.00668346
0.00668674
0.00669005
0.00669374
0.00669753
0.00670169
0.00670602
0.0126454
0.0152405
0.0175007
0.0191908
0.0203856
0.0212458
0.0219061
0.022454
0.0229334
0.0233504
0.0236817
0.0238825
0.0238924
0.0236375
0.023076
0.0222591
0.0211903
0.019881
0.0183523
0.0166285
0.0146599
0.012592
0.0106222
0.00871479
0.00689817
0.00522834
0.00376798
0.00252416
0.00155345
0.000869778
0.000429033
0.00017837
9.05968e-05
0.000106215
0.0108662
0.0128413
0.00954172
0.0087109
0.00811777
0.00768728
0.00737738
0.00715496
0.00699702
0.00688603
0.00680906
0.00675576
0.00672005
0.00670085
0.00668911
0.00667544
0.00667316
0.00667037
0.00667045
0.00667136
0.00667295
0.0066753
0.0066777
0.00668064
0.00668345
0.00668674
0.00669005
0.00669374
0.00669753
0.00670168
0.00670601
0.0154967
0.0177256
0.0193392
0.0204422
0.0212107
0.0217887
0.0222731
0.0227189
0.0231446
0.0235391
0.0238682
0.0240835
0.0241242
0.0239153
0.0234027
0.0226279
0.0215877
0.0202874
0.0187443
0.0169826
0.0149568
0.0128243
0.010775
0.00881692
0.00698495
0.00529893
0.00382309
0.00256442
0.00157779
0.000880388
0.000431068
0.000177901
9.06903e-05
0.000106766
0.0105933
0.0127896
0.0157082
0.0093698
0.00859369
0.00803136
0.00762492
0.00733257
0.00712322
0.00697485
0.00687081
0.00679892
0.00674859
0.00671643
0.00669936
0.00668596
0.00667566
0.00667236
0.00667052
0.00667034
0.00667153
0.00667302
0.00667546
0.00667774
0.00668065
0.00668344
0.00668674
0.00669005
0.00669374
0.00669751
0.00670165
0.006706
0.0179014
0.0194361
0.020446
0.0211193
0.0216064
0.0220108
0.0223961
0.0227925
0.0232004
0.023596
0.0239392
0.0241807
0.0242613
0.0241055
0.023649
0.022924
0.0219214
0.0206404
0.019094
0.0173055
0.0152325
0.0130136
0.0109049
0.00892919
0.00708053
0.00537712
0.00388402
0.0026091
0.00160501
0.000892325
0.000433466
0.000177384
9.07737e-05
0.000107355
0.0103225
0.0124137
0.0156307
0.0180361
0.00920723
0.00847861
0.00794678
0.00756398
0.00728888
0.00709237
0.00695337
0.00685617
0.00678936
0.00674207
0.00671318
0.00669821
0.00668301
0.00667586
0.00667167
0.00667065
0.00667026
0.0066717
0.00667309
0.00667556
0.00667772
0.00668065
0.00668344
0.00668674
0.00669005
0.0066937
0.00669746
0.00670162
0.00670599
0.0194946
0.0204134
0.0209917
0.0213843
0.0216989
0.0220055
0.0223443
0.0227273
0.0231411
0.0235535
0.0239218
0.024198
0.0243249
0.0242269
0.0238305
0.02316
0.0222008
0.0209464
0.0194052
0.0175991
0.0154538
0.0131736
0.0110471
0.0090527
0.00718593
0.00546383
0.00395153
0.00265881
0.00163549
0.000905858
0.000436185
0.000176903
9.09166e-05
0.000108005
0.0100681
0.0120001
0.015281
0.017923
0.0195184
0.00905158
0.00836543
0.00786412
0.0075045
0.00724637
0.00706246
0.00693265
0.00684224
0.00678045
0.0067361
0.00671034
0.00669717
0.00668043
0.00667594
0.00667112
0.00667075
0.00667021
0.00667186
0.00667311
0.00667558
0.00667771
0.00668065
0.00668345
0.00668674
0.00669001
0.00669364
0.00669741
0.00670158
0.00670597
0.0203564
0.0208427
0.0211406
0.0213606
0.0215768
0.0218376
0.0221659
0.0225597
0.0229952
0.023435
0.0238365
0.0241537
0.0243317
0.0242943
0.0239601
0.0233465
0.0224342
0.0212114
0.019682
0.0178299
0.0156389
0.0133475
0.0112029
0.00918867
0.00730233
0.00556014
0.00402652
0.00271423
0.00166978
0.000921174
0.00043941
0.000176376
9.10509e-05
0.000108695
0.00983109
0.0115865
0.0148407
0.0176837
0.019353
0.0202748
0.00890065
0.00825429
0.0077835
0.00744659
0.00720516
0.00703356
0.00691287
0.0068293
0.0067722
0.00673077
0.00670777
0.00669616
0.0066784
0.00667582
0.00667071
0.00667081
0.00667019
0.00667195
0.00667308
0.00667559
0.00667771
0.00668065
0.00668346
0.00668668
0.00668993
0.00669357
0.00669736
0.00670155
0.00670596
0.0206823
0.0208881
0.0210123
0.0211316
0.0213006
0.0215516
0.0218942
0.0223151
0.0227827
0.0232576
0.0236987
0.0240625
0.0242952
0.0243201
0.0240486
0.0234926
0.0226288
0.0214407
0.0198947
0.0180206
0.0158378
0.0135364
0.0113735
0.00933844
0.00743103
0.00566727
0.00411002
0.00277619
0.00170838
0.000938664
0.000443101
0.000175911
9.12665e-05
0.000109457
0.0096087
0.0111901
0.0143442
0.0173666
0.019189
0.0200566
0.020506
0.00875341
0.00814551
0.00770507
0.00739038
0.00716533
0.00700594
0.00689451
0.00681746
0.00676456
0.00672613
0.00670535
0.00669496
0.00667712
0.00667552
0.00667044
0.00667086
0.00667016
0.00667198
0.00667306
0.00667559
0.00667772
0.00668064
0.00668341
0.00668658
0.00668985
0.0066935
0.00669731
0.00670152
0.00670595
0.0206354
0.0206657
0.0206853
0.0207539
0.0209112
0.021178
0.0215523
0.022011
0.022518
0.0230339
0.0235203
0.0239356
0.0242261
0.0243138
0.0241046
0.0236057
0.0227908
0.021612
0.0200683
0.0182227
0.0160511
0.0137413
0.0115602
0.00950345
0.00757351
0.0057866
0.00420322
0.00284563
0.00175208
0.000958604
0.00044751
0.000175407
9.14799e-05
0.000110256
0.00939828
0.0108169
0.013816
0.0169938
0.01896
0.0199267
0.0202357
0.0203727
0.00860965
0.0080394
0.00762903
0.00733602
0.00712726
0.0069803
0.00687777
0.0068066
0.00675746
0.00672205
0.00670303
0.00669311
0.00667638
0.00667509
0.00667027
0.00667088
0.00667013
0.00667199
0.00667306
0.00667558
0.00667774
0.00668056
0.00668331
0.00668648
0.00668977
0.00669342
0.00669725
0.00670149
0.00670594
0.0203283
0.0202489
0.0202129
0.0202655
0.0204373
0.0207383
0.0211556
0.0216594
0.0222111
0.0227734
0.0233108
0.0237821
0.0241328
0.0242834
0.0241352
0.0236921
0.0229063
0.02175
0.0202494
0.0184359
0.0162791
0.0139631
0.0117644
0.00968527
0.00773138
0.00591972
0.00430754
0.00292376
0.00180159
0.000981565
0.000452617
0.000175007
9.18039e-05
0.000111292
0.00919786
0.0104696
0.0132687
0.0165739
0.0186907
0.0197446
0.0201112
0.0200502
0.0199853
0.00846955
0.00793634
0.00755557
0.00728403
0.00709194
0.00695696
0.0068625
0.00679668
0.00675085
0.00671841
0.00670096
0.00669081
0.00667601
0.00667463
0.00667023
0.00667085
0.00667011
0.00667199
0.00667308
0.00667556
0.0066777
0.00668043
0.00668321
0.00668637
0.00668968
0.00669335
0.0066972
0.00670146
0.00670593
0.0198293
0.0196885
0.0196302
0.0196933
0.0198995
0.0202468
0.0207149
0.0212686
0.0218695
0.0224839
0.0230781
0.0236097
0.0240221
0.024235
0.024146
0.0237464
0.0229975
0.0218909
0.0204371
0.01866
0.0165222
0.0142026
0.0119873
0.0098855
0.00790643
0.0060684
0.00442455
0.00301182
0.00185807
0.00100798
0.000458767
0.000174592
9.22117e-05
0.00011253
0.00900612
0.0101494
0.0127101
0.0161081
0.0183924
0.0195368
0.0199431
0.0199137
0.019611
0.0194161
0.00833331
0.00783675
0.00748538
0.0072358
0.00705982
0.00693572
0.00684858
0.00678767
0.0067447
0.00671528
0.00669946
0.00668843
0.00667583
0.00667427
0.00667027
0.00667084
0.00667011
0.00667198
0.00667311
0.00667546
0.0066776
0.00668029
0.0066831
0.00668626
0.00668959
0.00669328
0.00669714
0.00670142
0.00670591
0.0191876
0.0190167
0.0189626
0.0190582
0.0193108
0.0197129
0.0202371
0.0208438
0.0214985
0.0221716
0.0228287
0.0234241
0.0238994
0.0241736
0.02414
0.0237871
0.0230874
0.0220338
0.0206307
0.0188944
0.0167802
0.0144605
0.0122302
0.0101058
0.00810058
0.00623463
0.00455631
0.0031117
0.00192257
0.00103871
0.000466
0.000174328
9.28381e-05
0.000113767