/*--------------------------------*- C++ -*----------------------------------*\
  =========                 |
  \\      /  F ield         | OpenFOAM: The Open Source CFD Toolbox
   \\    /   O peration     | Website:  https://openfoam.org
    \\  /    A nd           | Version:  8
     \\/     M anipulation  |
\*---------------------------------------------------------------------------*/
FoamFile
{
    version     2.0;
    format      ascii;
    class       surfaceScalarField;
    location    "1000";
    object      phi;
}
// * * * * * * * * * * * * * * * * * * * * * * * * * * * * * * * * * * * * * //

dimensions      [0 3 -1 0 0 0 0];

internalField   nonuniform List<scalar> 
31053
(
1.74483e-06
1.16352e-05
1.36364e-06
1.57612e-05
9.63066e-07
1.06721e-05
1.26625e-06
1.77374e-05
1.52655e-06
1.51977e-05
5.92631e-07
1.00795e-05
1.20179e-06
2.03045e-05
1.50978e-06
1.77542e-05
1.20907e-06
1.45813e-05
4.30959e-07
9.64852e-06
1.13109e-06
2.33107e-05
1.4515e-06
2.03627e-05
1.33687e-06
1.76264e-05
9.70162e-07
1.40421e-05
3.06261e-07
9.34226e-06
1.05756e-06
2.67335e-05
1.39817e-06
2.3364e-05
1.3265e-06
2.03731e-05
1.18642e-06
1.74101e-05
7.4612e-07
1.36022e-05
2.13236e-07
9.12903e-06
9.8067e-07
3.06969e-05
1.34211e-06
2.67896e-05
1.29557e-06
2.3395e-05
1.22235e-06
2.03372e-05
1.00066e-06
1.71556e-05
5.6609e-07
1.32494e-05
1.51673e-07
8.97736e-06
9.00161e-07
3.52205e-05
1.28092e-06
3.07581e-05
1.25872e-06
2.68264e-05
1.20868e-06
2.34086e-05
1.07265e-06
2.02652e-05
8.25668e-07
1.6896e-05
4.29118e-07
1.29719e-05
1.09143e-07
8.86822e-06
8.16421e-07
4.04037e-05
1.21417e-06
3.52873e-05
1.21751e-06
3.07993e-05
1.18051e-06
2.68546e-05
1.07621e-06
2.34051e-05
9.1972e-07
2.01711e-05
6.74082e-07
1.6651e-05
3.22334e-07
1.27587e-05
7.78483e-08
8.79038e-06
7.30252e-07
4.63662e-05
1.14161e-06
4.04763e-05
1.1714e-06
3.53334e-05
1.14555e-06
3.08342e-05
1.05653e-06
2.68743e-05
9.35736e-07
2.33891e-05
7.80205e-07
2.0065e-05
5.42341e-07
1.6431e-05
2.38455e-07
1.25981e-05
5.23908e-08
8.738e-06
6.42922e-07
5.32273e-05
1.06323e-06
4.64446e-05
1.1194e-06
4.05283e-05
1.10513e-06
3.53738e-05
1.02614e-06
3.08646e-05
9.21735e-07
2.68883e-05
8.03946e-07
2.33653e-05
6.52124e-07
1.99552e-05
4.2552e-07
1.6244e-05
1.70021e-07
1.24805e-05
2.81992e-08
8.70981e-06
5.56222e-07
6.10667e-05
9.79324e-07
5.33112e-05
1.06057e-06
4.65034e-05
1.05895e-06
4.05745e-05
9.88547e-07
3.54114e-05
8.93323e-07
3.08931e-05
7.92425e-07
2.68998e-05
6.78528e-07
2.33389e-05
5.31678e-07
1.98491e-05
3.20037e-07
1.6094e-05
1.09978e-07
1.23987e-05
7.20356e-09
8.7026e-06
4.72079e-07
7.00661e-05
8.90648e-07
6.11554e-05
9.94205e-07
5.33776e-05
1.00623e-06
4.65561e-05
9.44557e-07
4.06185e-05
8.55698e-07
3.5449e-05
7.63109e-07
3.09224e-05
6.66026e-07
2.69123e-05
5.56353e-07
2.33142e-05
4.1592e-07
1.97532e-05
2.2349e-07
1.59804e-05
5.62606e-08
1.23497e-05
-1.0352e-08
8.71296e-06
3.92534e-07
8.04115e-05
7.98229e-07
7.01586e-05
9.20108e-07
6.12295e-05
9.45991e-07
5.34378e-05
8.93913e-07
4.66068e-05
8.10514e-07
4.06637e-05
7.22322e-07
3.54898e-05
6.32884e-07
3.09555e-05
5.39462e-07
2.69292e-05
4.34878e-07
2.32953e-05
3.0319e-07
1.96735e-05
1.3407e-07
1.59026e-05
7.4856e-09
1.23318e-05
-2.72727e-08
8.74022e-06
3.31152e-07
7.62514e-05
7.03153e-07
8.05066e-05
8.38734e-07
7.02399e-05
8.77424e-07
6.1298e-05
8.35896e-07
5.34959e-05
7.57964e-07
4.66593e-05
6.72354e-07
4.07136e-05
5.86003e-07
3.55367e-05
4.99526e-07
3.09954e-05
4.10299e-07
2.69538e-05
3.12469e-07
2.3286e-05
1.92493e-07
1.96151e-05
5.02859e-08
1.58598e-05
-3.86667e-08
1.23432e-05
-4.4959e-08
8.78519e-06
2.8056e-07
7.62406e-05
6.22271e-07
7.63323e-05
7.51132e-07
8.05942e-05
8.00088e-07
7.03173e-05
7.69696e-07
6.13642e-05
6.97587e-07
5.35562e-05
6.13783e-07
4.67179e-05
5.28038e-07
4.07716e-05
4.43638e-07
3.55926e-05
3.60578e-07
3.10452e-05
2.76996e-07
2.69893e-05
1.88317e-07
2.32902e-05
8.3412e-08
1.9582e-05
-3.00216e-08
1.58512e-05
-8.36071e-08
1.23819e-05
-6.31427e-08
8.84833e-06
2.38564e-07
7.6232e-05
5.49761e-07
7.63131e-05
6.73815e-07
7.64096e-05
7.14376e-07
8.06799e-05
6.94607e-07
7.03924e-05
6.28711e-07
6.14331e-05
5.46398e-07
5.36236e-05
4.59832e-07
4.67861e-05
3.7459e-07
4.08406e-05
2.92747e-07
3.56604e-05
2.14449e-07
3.11077e-05
1.38885e-07
2.70387e-05
6.20941e-08
2.33115e-05
-2.50447e-08
1.9577e-05
-1.07948e-07
1.58755e-05
-1.27826e-07
1.24466e-05
-8.14163e-08
8.92975e-06
2.03477e-07
7.62271e-05
4.84826e-07
7.62969e-05
6.02197e-07
7.63847e-05
6.3738e-07
7.64866e-05
6.10465e-07
8.07641e-05
5.50663e-07
7.04704e-05
4.69708e-07
6.15098e-05
3.81361e-07
5.37021e-05
2.93319e-07
4.68674e-05
2.09517e-07
4.09239e-05
1.31628e-07
3.57432e-05
6.04851e-08
3.11861e-05
-4.32467e-09
2.71051e-05
-6.68241e-08
2.33533e-05
-1.33077e-07
1.96021e-05
-1.83998e-07
1.59317e-05
-1.7124e-07
1.25364e-05
-9.93999e-08
9.02914e-06
1.73982e-07
7.62195e-05
4.26693e-07
7.62852e-05
5.36136e-07
7.6363e-05
5.65052e-07
7.6457e-05
5.33797e-07
7.65632e-05
4.6319e-07
8.08516e-05
3.83171e-07
7.05569e-05
2.92315e-07
6.15989e-05
1.999e-07
5.37955e-05
1.11773e-07
4.69651e-05
3.09939e-08
4.10245e-05
-4.04648e-08
3.58442e-05
-1.01571e-07
3.12834e-05
-1.53047e-07
2.71913e-05
-1.98241e-07
2.34185e-05
-2.40434e-07
1.96586e-05
-2.58166e-07
1.60186e-05
-2.13385e-07
1.26504e-05
-1.16869e-07
9.14602e-06
1.49045e-07
7.62149e-05
3.74669e-07
7.62715e-05
4.75401e-07
7.6346e-05
4.97616e-07
7.64304e-05
4.61039e-07
7.65298e-05
3.83364e-07
7.66431e-05
2.8664e-07
8.09481e-05
1.92338e-07
7.06569e-05
9.41539e-08
6.17046e-05
-4.21584e-10
5.39077e-05
-8.67529e-08
4.70829e-05
-1.61834e-07
4.11459e-05
-2.23759e-07
3.59664e-05
-2.71876e-07
3.14022e-05
-3.06881e-07
2.73e-05
-3.31399e-07
2.35094e-05
-3.46361e-07
1.97468e-05
-3.3001e-07
1.61353e-05
-2.54094e-07
1.27876e-05
-1.3361e-07
9.27963e-06
1.27855e-07
7.62112e-05
3.28128e-07
7.62615e-05
4.1975e-07
7.63272e-05
4.35126e-07
7.64084e-05
3.92763e-07
7.64987e-05
3.0755e-07
7.66056e-05
1.98955e-07
7.67308e-05
8.15105e-08
8.10589e-05
-2.40874e-08
7.07752e-05
-1.27172e-07
6.18314e-05
-2.21656e-07
5.40426e-05
-3.03215e-07
4.72242e-05
-3.69197e-07
4.12913e-05
-4.18161e-07
3.61127e-05
-4.49778e-07
3.15451e-05
-4.64636e-07
2.74332e-05
-4.64894e-07
2.36279e-05
-4.49987e-07
1.98667e-05
-3.99143e-07
1.62803e-05
-2.9298e-07
1.2947e-05
-1.49313e-07
9.42894e-06
1.11211e-07
6.95986e-05
2.86527e-07
7.62528e-05
3.68945e-07
7.63123e-05
3.77549e-07
7.63847e-05
3.29312e-07
7.64719e-05
2.36503e-07
7.65698e-05
1.16054e-07
7.66885e-05
-1.8539e-08
7.68308e-05
-1.54436e-07
8.11893e-05
-2.68473e-07
7.09165e-05
-3.73816e-07
6.19835e-05
-4.64861e-07
5.42043e-05
-5.37865e-07
4.73929e-05
-5.9076e-07
4.14639e-05
-6.22778e-07
3.62857e-05
-6.3374e-07
3.17142e-05
-6.24427e-07
2.75928e-05
-5.97219e-07
2.37752e-05
-5.50196e-07
2.00178e-05
-4.65012e-07
1.64523e-05
-3.29567e-07
1.31272e-05
-1.63816e-07
9.59276e-06
9.81018e-08
6.25571e-05
2.52512e-07
6.96327e-05
3.22737e-07
7.6299e-05
3.24803e-07
7.6365e-05
2.70883e-07
7.64432e-05
1.7076e-07
7.65376e-05
3.88301e-08
7.6647e-05
-1.12538e-07
7.67825e-05
-2.71398e-07
7.69478e-05
-4.23602e-07
8.13444e-05
-5.431e-07
7.10858e-05
-6.46934e-07
6.21656e-05
-7.3031e-07
5.43967e-05
-7.90127e-07
4.75923e-05
-8.25398e-07
4.16665e-05
-8.35723e-07
3.64876e-05
-8.21431e-07
3.19112e-05
-7.84259e-07
2.77798e-05
-7.26546e-07
2.39515e-05
-6.45974e-07
2.01988e-05
-5.26788e-07
1.66496e-05
-3.63334e-07
1.33268e-05
-1.76872e-07
9.76963e-06
8.76042e-08
5.62285e-05
2.24925e-07
6.25847e-05
2.84262e-07
6.96711e-05
2.76781e-07
7.6347e-05
2.17575e-07
7.64183e-05
1.10687e-07
7.65033e-05
-3.20186e-08
7.66085e-05
-1.99451e-07
7.67339e-05
-3.80605e-07
7.68917e-05
-5.62135e-07
7.70863e-05
-7.28428e-07
8.15297e-05
-8.49212e-07
7.1288e-05
-9.46828e-07
6.23821e-05
-1.01719e-06
5.46238e-05
-1.05865e-06
4.78255e-05
-1.07087e-06
4.19017e-05
-1.05423e-06
3.67204e-05
-1.01038e-06
3.21373e-05
-9.41748e-07
2.7995e-05
-8.51181e-07
2.41567e-05
-7.36026e-07
2.0408e-05
-5.8379e-07
1.687e-05
-3.93792e-07
1.35437e-05
-1.88364e-07
9.95799e-06
7.90792e-08
5.05405e-05
2.02356e-07
5.62511e-05
2.52556e-07
6.26164e-05
2.36942e-07
6.9711e-05
1.69428e-07
7.63952e-05
5.6519e-08
7.64725e-05
-9.59731e-08
7.65672e-05
-2.78414e-07
7.66875e-05
-4.80855e-07
7.68341e-05
-6.90821e-07
7.70204e-05
-8.93371e-07
7.72513e-05
-1.07026e-06
8.17508e-05
-1.18716e-06
7.15284e-05
-1.27247e-06
6.26374e-05
-1.32393e-06
5.4889e-05
-1.34082e-06
4.80955e-05
-1.32393e-06
4.21714e-05
-1.27532e-06
3.69854e-05
-1.19767e-06
3.23932e-05
-1.09461e-06
2.82384e-05
-9.69242e-07
2.439e-05
-8.19308e-07
2.06435e-05
-6.35428e-07
1.71117e-05
-4.20709e-07
1.3776e-05
-1.98174e-07
1.01562e-05
7.20728e-08
4.5427e-05
1.83741e-07
5.05591e-05
2.26282e-07
5.62773e-05
2.04313e-07
6.2649e-05
1.29965e-07
6.97504e-05
8.40205e-09
7.64433e-05
-1.52673e-07
7.65292e-05
-3.48747e-07
7.66375e-05
-5.71102e-07
7.67777e-05
-8.0825e-07
7.69516e-05
-1.04602e-06
7.71731e-05
-1.26657e-06
7.74476e-05
-1.44955e-06
8.20132e-05
-1.55572e-06
7.18116e-05
-1.62203e-06
6.29355e-05
-1.64752e-06
5.51957e-05
-1.6329e-06
4.84044e-05
-1.58109e-06
4.24771e-05
-1.49551e-06
3.72832e-05
-1.38043e-06
3.26791e-05
-1.24033e-06
2.85095e-05
-1.07916e-06
2.46498e-05
-8.94871e-07
2.0903e-05
-6.81143e-07
1.73721e-05
-4.43821e-07
1.40217e-05
-2.06227e-07
1.03624e-05
6.62548e-08
4.08318e-05
1.68272e-07
4.54425e-05
2.04388e-07
5.0581e-05
1.77482e-07
5.63042e-05
9.81362e-08
6.26809e-05
-3.01975e-08
6.9789e-05
-2.01876e-07
7.64925e-05
-4.09953e-07
7.65904e-05
-6.50485e-07
7.67169e-05
-9.13158e-07
7.68826e-05
-1.18471e-06
7.70903e-05
-1.44782e-06
7.73543e-05
-1.6823e-06
7.76803e-05
-1.86487e-06
8.23223e-05
-1.95284e-06
7.21424e-05
-1.99215e-06
6.32801e-05
-1.9837e-06
5.55465e-05
-1.93085e-06
4.87542e-05
-1.83827e-06
4.28199e-05
-1.71134e-06
3.76141e-05
-1.55554e-06
3.29943e-05
-1.3768e-06
2.88072e-05
-1.17936e-06
2.49343e-05
-9.61955e-07
2.11838e-05
-7.20487e-07
1.76488e-05
-4.62955e-07
1.42784e-05
-2.12502e-07
1.05749e-05
6.13802e-08
3.67009e-05
1.55325e-07
4.08448e-05
1.86046e-07
4.54608e-05
1.55328e-07
5.06032e-05
7.24276e-08
5.63299e-05
-6.05294e-08
6.27112e-05
-2.40137e-07
6.98273e-05
-4.61679e-07
7.65442e-05
-7.18346e-07
7.66583e-05
-1.00447e-06
7.68082e-05
-1.3079e-06
7.70058e-05
-1.61201e-06
7.72545e-05
-1.89694e-06
7.7569e-05
-2.13907e-06
7.79545e-05
-2.31405e-06
8.26835e-05
-2.3748e-06
7.25251e-05
-2.378e-06
6.36744e-05
-2.32785e-06
5.59435e-05
-2.2299e-06
4.91458e-05
-2.09128e-06
4.31999e-05
-1.91898e-06
3.79776e-05
-1.72033e-06
3.33378e-05
-1.50196e-06
2.91298e-05
-1.26874e-06
2.52411e-05
-1.01994e-06
2.14832e-05
-7.53238e-07
1.7939e-05
-4.78059e-07
1.4544e-05
-2.16993e-07
1.07919e-05
5.72635e-08
3.29901e-05
1.44417e-07
3.67118e-05
1.70598e-07
4.08602e-05
1.36957e-07
4.54792e-05
5.16218e-08
5.0624e-05
-8.42837e-08
5.63536e-05
-2.69049e-07
6.27401e-05
-5.00442e-07
6.98661e-05
-7.74208e-07
7.66001e-05
-1.08135e-06
7.67352e-05
-1.41429e-06
7.69146e-05
-1.75732e-06
7.71511e-05
-2.09109e-06
7.74486e-05
-2.39186e-06
7.78217e-05
-2.63463e-06
7.82751e-05
-2.79304e-06
8.31018e-05
-2.81619e-06
7.29633e-05
-2.77431e-06
6.41209e-05
-2.67441e-06
5.6388e-05
-2.52509e-06
4.95796e-05
-2.33562e-06
4.36165e-05
-2.11522e-06
3.83724e-05
-1.87222e-06
3.37081e-05
-1.61422e-06
2.94752e-05
-1.34646e-06
2.55676e-05
-1.06847e-06
2.17985e-05
-7.79317e-07
1.82403e-05
-4.89153e-07
1.48161e-05
-2.19857e-07
1.10118e-05
5.37633e-08
2.96515e-05
1.35171e-07
3.29994e-05
1.57521e-07
3.67249e-05
1.21656e-07
4.08755e-05
3.47445e-08
4.54961e-05
-1.02827e-07
5.06425e-05
-2.90611e-07
5.63752e-05
-5.28303e-07
6.2768e-05
-8.14465e-07
6.99063e-05
-1.14316e-06
7.66619e-05
-1.50279e-06
7.68237e-05
-1.88212e-06
7.70394e-05
-2.26257e-06
7.73226e-05
-2.62048e-06
7.76772e-05
-2.93042e-06
7.81175e-05
-3.16471e-06
7.86468e-05
-3.29577e-06
8.35814e-05
-3.27101e-06
7.346e-05
-3.17467e-06
6.46211e-05
-3.01765e-06
5.68806e-05
-2.81121e-06
5.00552e-05
-2.56744e-06
4.40687e-05
-2.29687e-06
3.87971e-05
-2.00912e-06
3.4103e-05
-1.71236e-06
2.98411e-05
-1.41191e-06
2.5911e-05
-1.1074e-06
2.21265e-05
-7.98791e-07
1.85499e-05
-4.96454e-07
1.50927e-05
-2.20822e-07
1.12326e-05
5.07688e-08
2.6651e-05
1.2729e-07
2.96594e-05
1.46398e-07
3.30105e-05
1.08856e-07
3.67377e-05
2.1016e-08
4.08892e-05
-1.17254e-07
4.55105e-05
-3.06437e-07
5.06584e-05
-5.47691e-07
5.63946e-05
-8.41767e-07
6.27953e-05
-1.18606e-06
6.99492e-05
-1.57258e-06
7.67317e-05
-1.98507e-06
7.69266e-05
-2.40939e-06
7.71863e-05
-2.82231e-06
7.75244e-05
-3.19813e-06
7.79449e-05
-3.50812e-06
7.84609e-05
-3.7227e-06
7.90737e-05
-3.81563e-06
8.4126e-05
-3.73209e-06
7.40174e-05
-3.57262e-06
6.51761e-05
-3.35153e-06
5.74209e-05
-3.08368e-06
5.05715e-05
-2.78289e-06
4.45547e-05
-2.46132e-06
3.92493e-05
-2.12941e-06
3.452e-05
-1.79551e-06
3.02247e-05
-1.46481e-06
2.62684e-05
-1.13684e-06
2.24646e-05
-8.11919e-07
1.88654e-05
-4.99744e-07
1.53716e-05
-2.72533e-07
1.15051e-05
4.81931e-08
2.39566e-05
1.20538e-07
2.66577e-05
1.36894e-07
2.96689e-05
9.81007e-08
3.30212e-05
9.81605e-09
3.67489e-05
-1.2844e-07
4.09004e-05
-3.17819e-07
4.55219e-05
-5.60567e-07
5.06712e-05
-8.59098e-07
5.64119e-05
-1.21341e-06
6.28226e-05
-1.61946e-06
6.99961e-05
-2.06512e-06
7.68117e-05
-2.52992e-06
7.70471e-05
-2.99498e-06
7.73589e-05
-3.4347e-06
7.7761e-05
-3.8195e-06
7.82563e-05
-4.11806e-06
7.88563e-05
-4.30164e-06
7.95597e-05
-4.34469e-06
8.47386e-05
-4.19213e-06
7.46369e-05
-3.96113e-06
6.57857e-05
-3.67065e-06
5.80079e-05
-3.33785e-06
5.11264e-05
-2.97871e-06
4.50721e-05
-2.60648e-06
3.97264e-05
-2.23188e-06
3.49564e-05
-1.8632e-06
3.06231e-05
-1.50526e-06
2.66369e-05
-1.15709e-06
2.28098e-05
-8.18668e-07
1.91843e-05
-6.17828e-07
1.57169e-05
-2.68801e-07
1.17739e-05
4.5967e-08
2.15342e-05
1.14724e-07
2.39624e-05
1.28739e-07
2.66659e-05
8.90243e-08
2.9678e-05
6.49012e-10
3.30304e-05
-1.37079e-07
3.67575e-05
-3.25781e-07
4.09084e-05
-5.68494e-07
4.55298e-05
-8.68863e-07
5.0681e-05
-1.22888e-06
5.64274e-05
-1.64762e-06
6.28508e-05
-2.11753e-06
7.00485e-05
-2.62278e-06
7.69046e-05
-3.13645e-06
7.71886e-05
-3.63728e-06
7.75615e-05
-4.09524e-06
7.80367e-05
-4.4775e-06
7.86158e-05
-4.75296e-06
7.93076e-05
-4.89294e-06
8.0108e-05
-4.87471e-06
8.54211e-05
-4.64298e-06
7.53188e-05
-4.33386e-06
6.64489e-05
-3.96948e-06
5.86395e-05
-3.56979e-06
5.17175e-05
-3.15233e-06
4.5618e-05
-2.73076e-06
4.02252e-05
-2.31585e-06
3.5409e-05
-1.91547e-06
3.10333e-05
-1.53359e-06
2.70134e-05
-1.16835e-06
2.31594e-05
-1.01359e-06
1.95801e-05
-6.10012e-07
1.60581e-05
-2.62481e-07
1.20364e-05
4.40356e-08
1.93539e-05
1.09698e-07
2.15393e-05
1.21713e-07
2.39694e-05
8.13325e-08
2.66736e-05
-6.8775e-09
2.96855e-05
-1.4372e-07
3.30371e-05
-3.31132e-07
3.67629e-05
-5.72705e-07
4.09126e-05
-8.72976e-07
4.55339e-05
-1.23543e-06
5.06876e-05
-1.66155e-06
5.64413e-05
-2.14744e-06
6.28807e-05
-2.68254e-06
7.01083e-05
-3.24501e-06
7.70132e-05
-3.80338e-06
7.73547e-05
-4.33196e-06
7.77982e-05
-4.79681e-06
7.8356e-05
-5.16468e-06
7.90275e-05
-5.40376e-06
7.98185e-05
-5.48756e-06
8.07208e-05
-5.39639e-06
8.61746e-05
-5.07732e-06
7.60622e-05
-4.68431e-06
6.71637e-05
-4.24329e-06
5.9313e-05
-3.77634e-06
5.23415e-05
-3.3017e-06
4.61889e-05
-2.83322e-06
4.07426e-05
-2.38124e-06
3.58748e-05
-1.9526e-06
3.14524e-05
-1.55012e-06
2.73951e-05
-1.44843e-06
2.35943e-05
-1.00194e-06
1.9972e-05
-5.96683e-07
1.63923e-05
-2.54273e-07
1.22907e-05
1.73977e-05
4.23545e-08
1.05337e-07
1.93583e-05
1.15638e-07
2.15453e-05
7.47872e-08
2.3976e-05
-1.3078e-08
2.66798e-05
-1.48796e-07
2.96906e-05
-3.34504e-07
3.30404e-05
-5.74166e-07
3.67643e-05
-8.72939e-07
4.09126e-05
-1.2354e-06
4.55339e-05
-1.66486e-06
5.06909e-05
-2.16029e-06
5.64542e-05
-2.71538e-06
6.29135e-05
-3.31424e-06
7.01775e-05
-3.93088e-06
7.71407e-05
-4.52665e-06
7.75494e-05
-5.07203e-06
7.80734e-05
-5.53194e-06
7.87233e-05
-5.87159e-06
7.94953e-05
-6.06074e-06
8.03916e-05
-6.07528e-06
8.13997e-05
-5.90136e-06
8.69986e-05
-5.48757e-06
7.68655e-05
-5.00688e-06
6.79273e-05
-4.48826e-06
6.00249e-05
-3.95493e-06
5.29948e-05
-3.42556e-06
4.67812e-05
-2.91363e-06
4.1275e-05
-2.42826e-06
3.63505e-05
-1.975e-06
3.18772e-05
-1.92368e-06
2.78704e-05
-1.43342e-06
2.40258e-05
-9.81463e-07
2.03568e-05
-5.79079e-07
1.67172e-05
-2.44667e-07
1.25353e-05
1.74015e-05
1.01535e-07
2.78129e-05
3.9497e-08
1.1037e-07
1.93636e-05
6.91962e-08
2.15509e-05
-1.82032e-08
2.39811e-05
-1.52649e-07
2.66836e-05
-3.36392e-07
2.96925e-05
-5.73627e-07
3.30399e-05
-8.69924e-07
3.67613e-05
-1.23064e-06
4.09078e-05
-1.66042e-06
4.55294e-05
-2.16045e-06
5.0691e-05
-2.7278e-06
5.64666e-05
-3.35146e-06
6.29508e-05
-4.01209e-06
7.02587e-05
-4.67669e-06
7.72907e-05
-5.29953e-06
7.77769e-05
-5.85013e-06
7.83916e-05
-6.29096e-06
7.91427e-05
-6.58807e-06
8.00226e-05
-6.71288e-06
8.10292e-05
-6.64681e-06
8.21452e-05
-6.38084e-06
8.78919e-05
-5.86712e-06
7.77257e-05
-5.29696e-06
6.8736e-05
-4.70121e-06
6.07712e-05
-4.10391e-06
5.36731e-05
-3.5235e-06
4.73911e-05
-2.97207e-06
4.18188e-05
-2.45737e-06
3.68328e-05
-2.45287e-06
3.24064e-05
-1.90568e-06
2.83426e-05
-1.40579e-06
2.44501e-05
-9.53928e-07
2.07316e-05
-5.58222e-07
1.70307e-05
-2.34015e-07
1.27694e-05
1.74061e-05
1.05788e-07
2.78193e-05
9.50883e-08
2.85528e-05
3.67339e-08
6.44042e-08
1.93684e-05
-2.24534e-08
2.15552e-05
-1.55547e-07
2.3984e-05
-3.37177e-07
2.66844e-05
-5.71667e-07
2.96905e-05
-8.64836e-07
3.30348e-05
-1.22256e-06
3.67532e-05
-1.65048e-06
4.08979e-05
-2.15142e-06
4.55204e-05
-2.72509e-06
5.06883e-05
-3.36441e-06
5.64795e-05
-4.05555e-06
6.29942e-05
-4.77281e-06
7.03549e-05
-5.47611e-06
7.74673e-05
-6.11493e-06
7.80417e-05
-6.65651e-06
7.87572e-05
-7.0634e-06
7.9618e-05
-7.30244e-06
8.06122e-05
-7.35011e-06
8.17325e-05
-7.19232e-06
8.29566e-05
-6.82712e-06
8.88519e-05
-6.21043e-06
7.86392e-05
-5.55062e-06
6.95854e-05
-4.88002e-06
6.15473e-05
-4.22263e-06
5.43722e-05
-3.59546e-06
4.80145e-05
-3.00908e-06
4.23705e-05
-3.05388e-06
3.74338e-05
-2.43207e-06
3.29328e-05
-1.87088e-06
2.88077e-05
-1.36797e-06
2.48641e-05
-9.20928e-07
2.10944e-05
-5.34915e-07
1.73316e-05
-2.22636e-07
1.2992e-05
1.74102e-05
6.02816e-08
2.78265e-05
9.86222e-08
2.8559e-05
8.88116e-08
2.93127e-05
3.40685e-08
-2.59883e-08
1.93719e-05
-1.57701e-07
2.15573e-05
-3.37157e-07
2.3984e-05
-5.6873e-07
2.66815e-05
-8.58366e-07
2.9684e-05
-1.21228e-06
3.30245e-05
-1.63678e-06
3.67395e-05
-2.13593e-06
4.08824e-05
-2.71144e-06
4.55068e-05
-3.35933e-06
5.06832e-05
-4.07029e-06
5.64943e-05
-4.82475e-06
6.30462e-05
-5.5905e-06
7.04692e-05
-6.32245e-06
7.76748e-05
-6.96322e-06
7.83484e-05
-7.48062e-06
7.91744e-05
-7.8371e-06
8.01527e-05
-8.00394e-06
8.1266e-05
-7.96162e-06
8.25018e-05
-7.70307e-06
8.38326e-05
-7.23358e-06
8.9875e-05
-6.51275e-06
7.96013e-05
-5.7652e-06
7.04706e-05
-5.02372e-06
6.23484e-05
-4.31086e-06
5.50876e-05
-3.64199e-06
4.86474e-05
-3.74169e-06
4.30584e-05
-3.03031e-06
3.80321e-05
-2.38994e-06
3.34519e-05
-1.82245e-06
2.92622e-05
-1.32215e-06
2.52653e-05
-8.83786e-07
2.14432e-05
-5.09912e-07
1.76189e-05
-2.10836e-07
1.32028e-05
1.74131e-05
-2.89379e-08
2.78319e-05
5.4901e-08
2.8566e-05
9.16981e-08
2.93188e-05
8.27136e-08
3.00906e-05
3.15016e-08
-1.59277e-07
1.93735e-05
-3.3656e-07
2.15567e-05
-5.65152e-07
2.39804e-05
-8.51039e-07
2.66742e-05
-1.20062e-06
2.96724e-05
-1.62066e-06
3.30084e-05
-2.11609e-06
3.67197e-05
-2.69014e-06
4.08611e-05
-3.34124e-06
4.54887e-05
-4.06367e-06
5.06766e-05
-4.84297e-06
5.65125e-05
-5.65364e-06
6.31093e-05
-6.45896e-06
7.06057e-05
-7.20638e-06
7.7918e-05
-7.83389e-06
7.87017e-05
-8.31e-06
7.96473e-05
-8.6008e-06
8.07495e-05
-8.68092e-06
8.19853e-05
-8.53766e-06
8.33364e-05
-8.1714e-06
8.47704e-05
-7.59445e-06
9.09567e-05
-6.77067e-06
8.06068e-05
-5.93931e-06
7.13862e-05
-5.13185e-06
6.31694e-05
-4.36911e-06
5.58147e-05
-4.53144e-06
4.94371e-05
-3.71549e-06
4.37435e-05
-2.98038e-06
3.86225e-05
-2.33036e-06
3.39598e-05
-1.7632e-06
2.97033e-05
-1.27022e-06
2.56518e-05
-8.43722e-07
2.1777e-05
-4.83884e-07
1.78919e-05
-1.98872e-07
1.34017e-05
1.74143e-05
-1.60405e-07
2.78336e-05
-3.06806e-08
2.85711e-05
4.97981e-08
2.93255e-05
8.50095e-08
3.00965e-05
7.6794e-08
3.08905e-05
2.90346e-08
-3.3556e-07
1.93725e-05
-5.61187e-07
2.15528e-05
-8.43245e-07
2.39726e-05
-1.18821e-06
2.66618e-05
-1.60313e-06
2.96548e-05
-2.09353e-06
3.29858e-05
-2.66375e-06
3.66933e-05
-3.31406e-06
4.08339e-05
-4.04159e-06
4.54666e-05
-4.83601e-06
5.06697e-05
-5.67749e-06
5.65363e-05
-6.53656e-06
6.31869e-05
-7.36929e-06
7.07686e-05
-8.11766e-06
7.82017e-05
-8.71444e-06
7.91061e-05
-9.13304e-06
8.01795e-05
-9.34209e-06
8.14107e-05
-9.3227e-06
8.27704e-05
-9.06961e-06
8.42346e-05
-8.59052e-06
8.57665e-05
-7.90538e-06
9.20914e-05
-6.98229e-06
8.16498e-05
-6.07219e-06
7.23266e-05
-5.20485e-06
6.40052e-05
-5.43992e-06
5.67232e-05
-4.50305e-06
5.02247e-05
-3.65722e-06
4.44204e-05
-2.90865e-06
3.92008e-05
-2.25676e-06
3.44534e-05
-1.69562e-06
3.01287e-05
-1.21393e-06
2.6022e-05
-8.01836e-07
2.2095e-05
-4.57385e-07
1.81504e-05
-1.86947e-07
1.35886e-05
1.7413e-05
-3.3429e-07
2.78299e-05
-1.56701e-07
2.85724e-05
-3.20473e-08
2.93303e-05
4.49924e-08
3.01029e-05
7.85711e-08
3.08962e-05
7.10624e-08
3.17104e-05
2.66644e-08
-5.57024e-07
1.93683e-05
-8.35276e-07
2.15448e-05
-1.17552e-06
2.39599e-05
-1.58494e-06
2.66436e-05
-2.06947e-06
2.96308e-05
-2.63422e-06
3.29563e-05
-3.28085e-06
3.66601e-05
-4.00871e-06
4.0801e-05
-4.81076e-06
4.54413e-05
-5.67185e-06
5.0664e-05
-6.56871e-06
5.65685e-05
-7.46509e-06
6.32827e-05
-8.31165e-06
7.09626e-05
-9.04391e-06
7.85312e-05
-9.59308e-06
7.95662e-05
-9.93678e-06
8.07742e-05
-1.00496e-05
8.21376e-05
-9.91975e-06
8.36205e-05
-9.54965e-06
8.51938e-05
-8.95521e-06
8.68163e-05
-8.16377e-06
9.32729e-05
-7.14635e-06
8.27239e-05
-6.1641e-06
7.32858e-05
-6.48597e-06
6.50512e-05
-5.41033e-06
5.76305e-05
-4.43603e-06
5.10035e-05
-3.57217e-06
4.50839e-05
-2.81927e-06
3.97633e-05
-2.17233e-06
3.49301e-05
-1.62204e-06
3.05368e-05
-1.15486e-06
2.6375e-05
-7.59033e-07
2.23966e-05
-4.30869e-07
1.83944e-05
-1.75236e-07
1.37639e-05
1.74088e-05
-5.52803e-07
2.78189e-05
-3.23299e-07
2.85682e-05
-1.52502e-07
2.93313e-05
-3.30396e-08
3.01074e-05
4.0483e-08
3.09024e-05
7.23825e-08
3.17159e-05
6.55238e-08
3.25543e-05
2.43968e-08
-8.27343e-07
1.93604e-05
-1.16289e-06
2.15322e-05
-1.56666e-06
2.39416e-05
-2.04481e-06
2.66189e-05
-2.60303e-06
2.95996e-05
-3.24395e-06
3.29194e-05
-3.96864e-06
3.662e-05
-4.77266e-06
4.07629e-05
-5.64466e-06
4.54142e-05
-6.56657e-06
5.06619e-05
-7.50878e-06
5.66122e-05
-8.42991e-06
6.3401e-05
-9.27399e-06
7.11927e-05
-9.97341e-06
7.89115e-05
-1.04565e-05
8.00859e-05
-1.07092e-05
8.14338e-05
-1.07128e-05
8.29306e-05
-1.04633e-05
8.45342e-05
-9.97172e-06
8.62103e-05
-9.26216e-06
8.79147e-05
-8.36779e-06
9.44943e-05
-7.2628e-06
8.38226e-05
-7.68928e-06
7.44891e-05
-6.45693e-06
6.60978e-05
-5.33444e-06
5.85289e-05
-4.33645e-06
5.17678e-05
-3.46527e-06
4.57299e-05
-2.71618e-06
4.03072e-05
-2.08e-06
3.5388e-05
-1.54456e-06
3.09265e-05
-1.09432e-06
2.67103e-05
-7.16067e-07
2.26818e-05
-4.04727e-07
1.86239e-05
-1.63845e-07
1.39277e-05
1.7401e-05
-8.19595e-07
2.77986e-05
-5.32523e-07
2.85566e-05
-3.11628e-07
2.93265e-05
-1.47766e-07
3.0108e-05
-3.36392e-08
3.09066e-05
3.62726e-08
3.17218e-05
6.64467e-08
3.25596e-05
6.01712e-08
3.34202e-05
2.22256e-08
-1.15055e-06
1.9348e-05
-1.54867e-06
2.15142e-05
-2.02024e-06
2.3917e-05
-2.57127e-06
2.65872e-05
-3.20514e-06
2.95608e-05
-3.92417e-06
3.28749e-05
-4.72597e-06
3.65733e-05
-5.60223e-06
4.07205e-05
-6.53916e-06
4.53868e-05
-7.51285e-06
5.0666e-05
-8.48891e-06
5.66712e-05
-9.41939e-06
6.35464e-05
-1.02448e-05
7.14641e-05
-1.08927e-05
7.93477e-05
-1.12921e-05
8.06689e-05
-1.1439e-05
8.216e-05
-1.13221e-05
8.37894e-05
-1.09463e-05
8.55088e-05
-1.03317e-05
8.72798e-05
-9.50898e-06
8.90559e-05
-8.51699e-06
9.57485e-05
-9.07179e-06
8.52051e-05
-7.66373e-06
7.56959e-05
-6.37254e-06
6.71359e-05
-5.21921e-06
5.94117e-05
-4.21011e-06
5.25126e-05
-3.34128e-06
4.6355e-05
-2.60297e-06
4.08301e-05
-1.98244e-06
3.58259e-05
-1.46491e-06
3.12971e-05
-1.03339e-06
2.70276e-05
-6.73589e-07
2.29507e-05
-3.79207e-07
1.88392e-05
-1.52878e-07
1.40806e-05
1.73891e-05
-1.13867e-06
2.77667e-05
-7.8769e-07
2.85354e-05
-5.11391e-07
2.93142e-05
-2.99312e-07
3.01028e-05
-1.42556e-07
3.09068e-05
-3.38628e-08
3.17258e-05
3.23613e-08
3.25653e-05
6.07637e-08
3.34253e-05
5.50142e-08
3.43061e-05
2.01507e-08
-1.53126e-06
1.93306e-05
-1.99622e-06
2.14901e-05
-2.53975e-06
2.38855e-05
-3.16574e-06
2.65478e-05
-3.87742e-06
2.9514e-05
-4.67398e-06
3.28229e-05
-5.54953e-06
3.65206e-05
-6.49375e-06
4.06751e-05
-7.4875e-06
4.53614e-05
-8.50248e-06
5.06795e-05
-9.49798e-06
5.67498e-05
-1.04224e-05
6.3724e-05
-1.12107e-05
7.17822e-05
-1.17888e-05
7.98444e-05
-1.20882e-05
8.1318e-05
-1.21157e-05
8.29537e-05
-1.18694e-05
8.47125e-05
-1.13638e-05
8.65409e-05
-1.06264e-05
8.83972e-05
-9.69465e-06
9.02335e-05
-1.06572e-05
9.73339e-05
-9.05504e-06
8.65964e-05
-7.57229e-06
7.68957e-05
-6.2408e-06
6.81575e-05
-5.07139e-06
6.0273e-05
-4.06271e-06
5.32341e-05
-3.20459e-06
4.69566e-05
-2.48295e-06
4.13306e-05
-1.88186e-06
3.62429e-05
-1.38456e-06
3.16482e-05
-9.73013e-07
2.7327e-05
-6.32015e-07
2.32035e-05
-3.54551e-07
1.90409e-05
-1.42401e-07
1.4223e-05
1.73725e-05
-1.51462e-06
2.77208e-05
-1.09275e-06
2.85025e-05
-7.54719e-07
2.92922e-05
-4.89354e-07
3.00898e-05
-2.86308e-07
3.09011e-05
-1.36838e-07
3.17256e-05
-3.37048e-08
3.25689e-05
2.87535e-08
3.34308e-05
5.53379e-08
3.4311e-05
5.00493e-08
3.522e-05
1.8172e-08
-1.97308e-06
1.93075e-05
-2.50903e-06
2.14594e-05
-3.12669e-06
2.38465e-05
-3.82996e-06
2.65003e-05
-4.61919e-06
2.94592e-05
-5.49039e-06
3.27638e-05
-6.43604e-06
3.64629e-05
-7.44095e-06
4.06285e-05
-8.482e-06
4.53409e-05
-9.5249e-06
5.07064e-05
-1.05254e-05
5.68527e-05
-1.14258e-05
6.39391e-05
-1.21587e-05
7.2152e-05
-1.26496e-05
8.04059e-05
-1.28332e-05
8.20356e-05
-1.27304e-05
8.38146e-05
-1.23489e-05
8.56976e-05
-1.17117e-05
8.76263e-05
-1.08541e-05
8.95567e-05
-1.21536e-05
9.173e-05
-1.06582e-05
9.89371e-05
-8.96027e-06
8.79844e-05
-7.42425e-06
7.80791e-05
-6.06965e-06
6.91558e-05
-4.89776e-06
6.1108e-05
-3.89946e-06
5.39289e-05
-3.05917e-06
4.75328e-05
-2.35887e-06
4.18077e-05
-1.78013e-06
3.66384e-05
-1.30477e-06
3.198e-05
-9.13799e-07
2.76088e-05
-5.91749e-07
2.34407e-05
-3.30917e-07
1.92294e-05
-1.32445e-07
1.43555e-05
1.73505e-05
-1.95105e-06
2.76579e-05
-1.45169e-06
2.84552e-05
-1.04552e-06
2.92582e-05
-7.20724e-07
3.0067e-05
-4.66483e-07
3.08875e-05
-2.72677e-07
3.17194e-05
-1.30645e-07
3.25684e-05
-3.31808e-08
3.34341e-05
2.54357e-08
3.43162e-05
5.0164e-08
3.52248e-05
4.52714e-08
3.61559e-05
1.6286e-08
-2.47952e-06
1.9278e-05
-3.0887e-06
2.14214e-05
-3.78294e-06
2.37995e-05
-4.56346e-06
2.64446e-05
-5.42774e-06
2.93966e-05
-6.37049e-06
3.26983e-05
-7.37974e-06
3.64017e-05
-8.43671e-06
4.05832e-05
-9.5127e-06
4.53287e-05
-1.057e-05
5.07511e-05
-1.15582e-05
5.69851e-05
-1.24167e-05
6.4197e-05
-1.30763e-05
7.25787e-05
-1.3463e-05
8.10357e-05
-1.35176e-05
8.28228e-05
-1.32762e-05
8.47419e-05
-1.27557e-05
8.67415e-05
-1.19878e-05
8.87599e-05
-1.36361e-05
9.10392e-05
-1.21803e-05
9.32521e-05
-1.05667e-05
0.000100544
-8.79786e-06
8.9358e-05
-7.22882e-06
7.92383e-05
-5.8671e-06
7.01251e-05
-4.70458e-06
6.19131e-05
-3.7252e-06
5.4595e-05
-2.90841e-06
4.80824e-05
-2.23308e-06
4.22606e-05
-1.67891e-06
3.70126e-05
-1.22638e-06
3.22926e-05
-8.56339e-07
2.78734e-05
-5.53062e-07
2.36628e-05
-3.08384e-07
1.94053e-05
-1.23034e-07
1.44785e-05
1.73224e-05
-2.45147e-06
2.75747e-05
-1.86794e-06
2.83905e-05
-1.38701e-06
2.92094e-05
-9.96726e-07
3.00318e-05
-6.8554e-07
3.08638e-05
-4.42778e-07
3.17052e-05
-2.58451e-07
3.25617e-05
-1.2399e-07
3.34332e-05
-3.22987e-08
3.43192e-05
2.24101e-08
3.52297e-05
4.52391e-08
3.61605e-05
4.06805e-08
3.65898e-05
1.45138e-08
-3.05223e-06
1.92415e-05
-3.73717e-06
2.13757e-05
-4.50817e-06
2.37442e-05
-5.3638e-06
2.63806e-05
-6.30052e-06
2.93266e-05
-7.30897e-06
3.26275e-05
-8.37401e-06
3.6339e-05
-9.47165e-06
4.05422e-05
-1.057e-05
4.53287e-05
-1.16253e-05
5.08182e-05
-1.25838e-05
5.71523e-05
-1.33824e-05
6.45031e-05
-1.3951e-05
7.30667e-05
-1.42186e-05
8.17366e-05
-1.41335e-05
8.36802e-05
-1.37473e-05
8.57335e-05
-1.30865e-05
8.78403e-05
-1.50962e-05
9.022e-05
-1.36983e-05
9.25573e-05
-1.21007e-05
9.4786e-05
-1.03945e-05
0.00010214
-8.5782e-06
9.07074e-05
-6.9952e-06
8.03664e-05
-5.64063e-06
7.10612e-05
-4.49764e-06
6.26856e-05
-3.54403e-06
5.52306e-05
-2.75522e-06
4.86045e-05
-2.10764e-06
4.26893e-05
-1.57927e-06
3.73655e-05
-1.15018e-06
3.25864e-05
-8.01045e-07
2.81214e-05
-5.16096e-07
2.38706e-05
-2.87022e-07
1.95693e-05
-1.14186e-07
1.45927e-05
1.72878e-05
-3.01759e-06
2.74681e-05
-2.34478e-06
2.83057e-05
-1.7831e-06
2.91432e-05
-1.3208e-06
2.99818e-05
-9.46716e-07
3.08277e-05
-6.49439e-07
3.16807e-05
-4.18296e-07
3.25469e-05
-2.43613e-07
3.34261e-05
-1.16893e-07
3.4318e-05
-3.10749e-08
3.52324e-05
1.96626e-08
3.61652e-05
4.05556e-08
3.65941e-05
3.63314e-08
3.55536e-05
1.29099e-08
-3.69324e-06
1.91976e-05
-4.45429e-06
2.13218e-05
-5.30018e-06
2.36805e-05
-6.22871e-06
2.63088e-05
-7.23261e-06
2.92503e-05
-8.29971e-06
3.25532e-05
-9.41002e-06
3.62774e-05
-1.05367e-05
4.05089e-05
-1.1642e-05
4.53454e-05
-1.26786e-05
5.0913e-05
-1.35897e-05
5.73596e-05
-1.43104e-05
6.48625e-05
-1.47718e-05
7.36199e-05
-1.49077e-05
8.25108e-05
-1.46744e-05
8.46072e-05
-1.41398e-05
8.67868e-05
-1.65237e-05
8.92678e-05
-1.52055e-05
9.17271e-05
-1.36408e-05
9.40974e-05
-1.19275e-05
9.6319e-05
-1.01532e-05
0.000103715
-8.31201e-06
9.20242e-05
-6.73206e-06
8.14578e-05
-5.39704e-06
7.19606e-05
-4.28191e-06
6.34235e-05
-3.35953e-06
5.58349e-05
-2.60215e-06
4.9099e-05
-1.98392e-06
4.3094e-05
-1.48225e-06
3.76975e-05
-1.07674e-06
3.28621e-05
-7.48126e-07
2.83534e-05
-4.80971e-07
2.40645e-05
-2.66875e-07
1.9722e-05
-1.05899e-07
1.46986e-05
1.72461e-05
-3.65151e-06
2.7335e-05
-2.88452e-06
2.81971e-05
-2.23618e-06
2.90561e-05
-1.69609e-06
2.9914e-05
-1.25302e-06
3.07764e-05
-8.95441e-07
3.16436e-05
-6.12359e-07
3.25218e-05
-3.93151e-07
3.34108e-05
-2.28277e-07
3.43105e-05
-1.09399e-07
3.52309e-05
-2.95312e-08
3.61676e-05
1.71834e-08
3.65985e-05
3.61672e-08
3.55576e-05
3.23763e-08
3.45455e-05
1.14516e-08
-4.40252e-06
1.91458e-05
-5.23806e-06
2.12597e-05
-6.15699e-06
2.36088e-05
-7.15368e-06