/*--------------------------------*- C++ -*----------------------------------*\
  =========                 |
  \\      /  F ield         | OpenFOAM: The Open Source CFD Toolbox
   \\    /   O peration     | Website:  https://openfoam.org
    \\  /    A nd           | Version:  8
     \\/     M anipulation  |
\*---------------------------------------------------------------------------*/
FoamFile
{
    version     2.0;
    format      ascii;
    class       volScalarField;
    location    "0.47";
    object      nut;
}
// * * * * * * * * * * * * * * * * * * * * * * * * * * * * * * * * * * * * * //

dimensions      [0 2 -1 0 0 0 0];

internalField   nonuniform List<scalar> 
15677
(
0.000550858
0.00115534
0.00414845
0.00742554
0.0106311
0.0138923
0.0173048
0.0209536
0.0249632
0.0295434
0.0345873
0.0402793
0.0452808
0.0465841
0.0463456
0.0448144
0.0413955
0.0371173
0.0322433
0.0271217
0.0208478
0.0133699
0.00849766
0.00554703
0.00390568
0.00303236
0.00255333
0.00226405
0.00206899
0.00192158
0.00179804
0.00168874
0.00159109
0.00150984
0.00142395
0.00106301
0.00947565
0.023953
0.0401131
0.0555782
0.0683716
0.0774199
0.0827272
0.0847023
0.0852686
0.083598
0.0809216
0.0796886
0.0813899
0.0830205
0.0816508
0.0784437
0.073477
0.0670757
0.0599467
0.0530753
0.0471517
0.0414429
0.0362768
0.0310326
0.0261441
0.0223619
0.0194412
0.0171752
0.0154038
0.0140071
0.0128922
0.0119903
0.0112571
0.01067
0.000941879
0.00878862
0.0202012
0.0319193
0.042889
0.0526334
0.0608202
0.0673109
0.0716881
0.0731961
0.0719754
0.0685707
0.0657737
0.0658375
0.0683133
0.0710583
0.0704783
0.0676053
0.064954
0.0623365
0.0602601
0.0584252
0.0567764
0.0552369
0.0537831
0.0521782
0.0503997
0.0486934
0.0471101
0.045684
0.0444147
0.0432914
0.0423383
0.0415533
0.040917
0.000753162
0.00538452
0.0124594
0.0195709
0.0262604
0.0322292
0.0372201
0.0409356
0.0432222
0.0450904
0.0455925
0.0458093
0.0461154
0.0472676
0.0499737
0.0534865
0.0564453
0.0581294
0.0584846
0.0576019
0.0557777
0.0537515
0.0521018
0.0510428
0.05055
0.0504023
0.0504451
0.0505793
0.050688
0.0508058
0.0508915
0.0509553
0.0510117
0.0510715
0.051147
0.000400667
0.0028441
0.00594408
0.00902407
0.0121286
0.015198
0.0182167
0.0211325
0.0237685
0.0257994
0.0275511
0.0291407
0.0304941
0.0320587
0.0346749
0.0376317
0.040311
0.0426304
0.0440079
0.0441751
0.0436131
0.0426948
0.0417352
0.041492
0.0421953
0.043268
0.0447662
0.0460899
0.0473276
0.0484864
0.0496242
0.0507396
0.0518118
0.052819
0.0537454
0.000193651
0.000663331
0.00152187
0.00233792
0.00316757
0.00399303
0.00482516
0.00566638
0.00654377
0.00762975
0.00879834
0.0100858
0.0124312
0.0140089
0.0151447
0.017425
0.0208936
0.0238812
0.0264483
0.0285134
0.0297537
0.0309291
0.0331879
0.0359752
0.0385552
0.0409336
0.0432352
0.0445351
0.0455991
0.0465899
0.0475633
0.0485308
0.0494776
0.0503829
0.0512284
0.000327296
0.00231776
0.00549163
0.00828155
0.0101424
0.0112409
0.0121522
0.0135583
0.0153946
0.017323
0.0198226
0.0217715
0.0232613
0.024648
0.0257972
0.0267968
0.0280679
0.0295676
0.0313695
0.033397
0.0359016
0.039389
0.0431237
0.0455341
0.0462629
0.046057
0.0457772
0.0458492
0.0463004
0.0469673
0.047713
0.0484485
0.0491297
0.0497429
0.0502895
0.000350903
0.00265564
0.00584893
0.00843288
0.010079
0.0108186
0.0108865
0.0107085
0.0112203
0.0136388
0.0181514
0.0236533
0.0289547
0.0339068
0.037729
0.0403456
0.0423863
0.0443561
0.0468181
0.0494539
0.0519021
0.0537721
0.054671
0.0545509
0.0535685
0.0520132
0.0502219
0.0485216
0.0471249
0.046105
0.0454194
0.045009
0.0448028
0.0447364
0.0447613
0.000198074
0.00111644
0.00231929
0.00329509
0.00392221
0.00477413
0.00598127
0.00784717
0.0103599
0.0139833
0.0188689
0.0247405
0.0311797
0.0376496
0.0433273
0.0480969
0.0522846
0.0558475
0.0587716
0.0611189
0.0629056
0.0639728
0.0642807
0.0639076
0.0629968
0.0616798
0.0601361
0.0585957
0.0571819
0.0559187
0.0547877
0.0537702
0.0528742
0.0520969
0.0514302
0.000135316
0.000805058
0.00215582
0.00386619
0.00596554
0.0085593
0.0117833
0.0157105
0.0202263
0.0251294
0.0302656
0.0355002
0.0409136
0.0462899
0.0510933
0.0551454
0.0586668
0.0617139
0.064325
0.0664568
0.0680212
0.0688364
0.0688908
0.0684787
0.0677503
0.0668698
0.0659231
0.0648165
0.0635279
0.0621276
0.0607337
0.0594261
0.0582236
0.057137
0.0561686
0.000201051
0.00139576
0.00357089
0.00620181
0.00919465
0.0125148
0.0161512
0.0200968
0.0243516
0.0289116
0.0337564
0.0388883
0.0441613
0.049481
0.0542015
0.0581283
0.0614456
0.0642144
0.0665155
0.0683965
0.0698779
0.0708982
0.0714337
0.0715152
0.0712847
0.0708164
0.0701764
0.0694077
0.0685485
0.0676361
0.066721
0.0658479
0.0650328
0.0642811
0.063594
0.000198367
0.00174924
0.00426262
0.00726165
0.0106463
0.0143814
0.0184434
0.0228062
0.0274351
0.0322834
0.0372964
0.0424152
0.0475248
0.0525384
0.0568778
0.0604035
0.0633166
0.0656983
0.0676175
0.0691231
0.0702398
0.0709262
0.071236
0.0712691
0.0711002
0.070795
0.0704003
0.0699554
0.0694951
0.0690507
0.0686035
0.0681306
0.0676371
0.0671348
0.0666336
0.000217328
0.0016777
0.00426931
0.00741908
0.0109912
0.0149432
0.0192496
0.0238819
0.0287993
0.0339428
0.0392365
0.0445714
0.0497886
0.0547677
0.0589215
0.0621618
0.0647233
0.0667163
0.0682368
0.0693649
0.0701626
0.0706449
0.0708548
0.0708516
0.0706963
0.0704365
0.0701074
0.0697359
0.0693418
0.0689387
0.0685335
0.0681326
0.067742
0.0673675
0.0670164
0.000219331
0.0018775
0.00467142
0.00804061
0.011846
0.016031
0.0205545
0.0253742
0.0304408
0.0356919
0.0410465
0.046408
0.0516141
0.0565156
0.0605199
0.0635583
0.0658664
0.0675589
0.0687361
0.069484
0.0698739
0.0699564
0.0698282
0.06957
0.0692321
0.0688469
0.0684364
0.0680168
0.0676011
0.0671978
0.0668152
0.0664559
0.066121
0.0658097
0.0655205
0.000228545
0.0018686
0.00473067
0.00820127
0.0121279
0.0164521
0.0211302
0.0261137
0.0313443
0.0367516
0.0422419
0.0477065
0.0529735
0.0578759
0.061807
0.0647128
0.066835
0.0682954
0.0692016
0.0696479
0.069717
0.0694912
0.0690964
0.0686225
0.068115
0.0676005
0.0670944
0.0666011
0.0661171
0.0656452
0.0651916
0.0647637
0.0643641
0.0639947
0.0636568
0.000231537
0.00197768
0.00494035
0.00852457
0.0125741
0.0170252
0.0218315
0.0269425
0.0322956
0.0378106
0.043386
0.0488996
0.054187
0.0590659
0.0629258
0.065724
0.0677043
0.0689915
0.0696956
0.0699121
0.0697238
0.0692239
0.0685568
0.0678195
0.067069
0.0663387
0.0656491
0.0650074
0.064421
0.0638879
0.0633975
0.0629408
0.0625173
0.0621263
0.061767
0.00023708
0.00201083
0.00505519
0.00873101
0.0128747
0.0174203
0.0223203
0.0275243
0.0329696
0.0385746
0.0442346
0.0498168
0.0551534
0.0600454
0.0638716
0.0665985
0.0684753
0.069633
0.0701868
0.0702362
0.0698664
0.0691798
0.0683331
0.0674206
0.0664979
0.0655996
0.0647415
0.0639369
0.0631943
0.0625184
0.0619107
0.0613717
0.0608945
0.0604729
0.0601005
0.000240168
0.00208433
0.00520187
0.00896313
0.0132013
0.0178461
0.0228448
0.0281417
0.0336688
0.0393394
0.0450507
0.0506671
0.056019
0.060902
0.0646914
0.0673594
0.0691571
0.0702198
0.0706667
0.0706004
0.0701076
0.0692953
0.0683267
0.0672932
0.0662571
0.065257
0.0643083
0.063422
0.0626051
0.061856
0.0611733
0.0605541
0.0599939
0.0594876
0.0590305
0.000243929
0.00213045
0.00532708
0.00916756
0.0134825
0.0182015
0.0232719
0.0286371
0.0342274
0.0399523
0.0457072
0.0513567
0.056726
0.0616061
0.065369
0.0679918
0.0697281
0.0707179
0.0710852
0.0709366
0.0703612
0.0694699
0.0684299
0.0673278
0.0662229
0.0651624
0.0641563
0.0632158
0.0623495
0.0615523
0.0608234
0.0601599
0.0595573
0.0590109
0.0585158
0.000247041
0.00219144
0.00545256
0.00936883
0.0137647
0.0185639
0.0237085
0.0291377
0.0347794
0.0405387
0.0463102
0.0519657
0.0573272
0.0621862
0.0659158
0.0684961
0.0701806
0.0711123
0.0714199
0.0712134
0.0705844
0.0696466
0.068568
0.0674341
0.0662903
0.0652001
0.0641651
0.0631963
0.062304
0.0614816
0.0607276
0.0600398
0.059414
0.0588453
0.0583288
0.000249969
0.00224457
0.00557789
0.00956809
0.0140354
0.0189014
0.0241059
0.0295858
0.0352665
0.0410504
0.0468255
0.0524737
0.0578138
0.0626395
0.066329
0.0688657
0.0705025
0.071384
0.0716391
0.0713859
0.0707218
0.0697596
0.0686652
0.0675275
0.0663731
0.0652748
0.0642342
0.0632595
0.0623609
0.0615342
0.0607732
0.0600783
0.0594452
0.0588689
0.0583447
0.000252599
0.0023034
0.00570835
0.00977118
0.0143095
0.0192416
0.0245038
0.0300289
0.0357388
0.0415343
0.0472946
0.0529141
0.0582109
0.0629834
0.0666185
0.0691046
0.0706891
0.0715187
0.0717315
0.0714443
0.0707537
0.0697782
0.0686824
0.0675522
0.0664118
0.0653177
0.0642899
0.0633269
0.0624371
0.0616223
0.0608692
0.0601813
0.0595542
0.058983
0.0584629
0.000255107
0.00235868
0.00583302
0.00996674
0.0145738
0.0195691
0.0248848
0.0304499
0.0361822
0.0419815
0.0477211
0.0532918
0.0585285
0.0632302
0.0667965
0.0692193
0.0707515
0.071534
0.0717022
0.071378
0.0706639
0.0696794
0.0685877
0.0674717
0.0663583
0.0652785
0.064276
0.0633382
0.0624696
0.0616777
0.0609458
0.0602769
0.0596669
0.0591113
0.0586054
0.000257413
0.00241588
0.0059601
0.0101645
0.0148398
0.0198971
0.0252643
0.0308656
0.0366143
0.0424091
0.0481193
0.0536241
0.0587837
0.0633964
0.0668807
0.069237
0.0707076
0.0714357
0.0715563
0.0711936
0.0704534
0.0694606
0.068377
0.0672805
0.0662012
0.0651448
0.0641722
0.0632633
0.0624213
0.061656
0.0609553
0.0603137
0.0597296
0.0591981
0.0587143
0.000259565
0.00247128
0.0060838
0.0103577
0.0151003
0.0202184
0.0256356
0.031271
0.037033
0.0428169
0.0484924
0.0539214
0.0589889
0.0634954
0.0668813
0.0691573
0.0705612
0.0712318
0.0713031
0.0709003
0.070132
0.0691247
0.0680401
0.066954
0.0659022
0.0648815
0.0639371
0.0630667
0.0622637
0.0615305
0.0608644
0.0602522
0.0596965
0.0591926
0.0587359
0.000261549
0.00252651
0.00620665
0.0105494
0.0153582
0.0205362
0.0260019
0.0316693
0.0374414
0.0432094
0.0488455
0.054197
0.0591554
0.0635414
0.066815
0.069
0.0703296
0.070939
0.0709589
0.0705144
0.0697168
0.0686973
0.0676166
0.0665467
0.0655199
0.0645358
0.0636137
0.062779
0.062014
0.0613164
0.0606887
0.0601175
0.0595986
0.0591291
0.0587039
0.000263368
0.00258009
0.00632629
0.0107364
0.0156103
0.0208468
0.0263598
0.0320577
0.037838
0.0435866
0.0491783
0.0544575
0.0592915
0.0635468
0.066696
0.0687809
0.0700295
0.0705744
0.0705416
0.0700545
0.0692257
0.0681912
0.0671117
0.0660562
0.0650543
0.0641126
0.0632253
0.0624303
0.0617053
0.0610473
0.0604536
0.059923
0.0594408
0.0590072
0.0586115
0.000265014
0.00263235
0.00644287
0.0109186
0.0158559
0.0211493
0.026708
0.032435
0.0382223
0.0439507
0.0494914
0.054698
0.0594079
0.0635211
0.0665356
0.0685109
0.069675
0.0701539
0.0700687
0.0695397
0.0686799
0.0676295
0.0665497
0.0655075
0.064529
0.0636246
0.0627809
0.0620218
0.06134
0.0607254
0.0601729
0.0596783
0.0592381
0.0588408
0.0584826
0.000266478
0.0026827
0.0065552
0.0110942
0.0160925
0.0214409
0.0270435
0.0327982
0.0385914
0.0442983
0.049785
0.0549128
0.0595173
0.0634694
0.0663448
0.0682042
0.0692799
0.069691
0.0695548
0.0689868
0.0680989
0.0670343
0.0659549
0.0649263
0.0639724
0.0631017
0.0623067
0.0615858
0.0609501
0.060382
0.0598756
0.059425
0.0590239
0.0586681
0.0583531
0.000267718
0.00273028
0.00666165
0.0112611
0.0163182
0.0217194
0.0273641
0.0331449
0.0389431
0.0446283
0.0500622
0.0551034
0.0596063
0.063402
0.0661304
0.0678705
0.0688533
0.0691953
0.0690106
0.0684084
0.0674974
0.066423
0.0653472
0.0643345
0.0634071
0.0625708
0.0618232
0.0611528
0.060561
0.0600429
0.0595862
0.0591842
0.0588301
0.0585178
0.0582518
0.00133083
0.00126458
0.00120316
0.00114646
0.0011169
0.0011178
0.00114155
0.00116518
0.00120484
0.00148146
0.00216573
0.00336468
0.00472808
0.00614547
0.00756861
0.00896726
0.0103081
0.0115326
0.0125851
0.0134382
0.0140865
0.0145313
0.00996701
0.00917033
0.00852272
0.00805336
0.00776713
0.00769535
0.00781167
0.00831351
0.00935133
0.011217
0.0139246
0.0172523
0.0210013
0.0249924
0.029132
0.0332911
0.0372635
0.040869
0.0439215
0.0463734
0.048227
0.0495363
0.040102
0.0391499
0.0383409
0.0377073
0.0372768
0.0370839
0.037177
0.0376995
0.0386265
0.0401782
0.0428175
0.0464478
0.0502552
0.0537563
0.0570255
0.0597937
0.0619509
0.0634914
0.0644935
0.0650871
0.0654904
0.0659927
0.0512195
0.0512751
0.0513358
0.0514061
0.0514903
0.0515908
0.0517101
0.0518504
0.0519875
0.0521016
0.0521957
0.0525225
0.0532228
0.0542999
0.0562512
0.0589148
0.061437
0.0635644
0.065146
0.0663689
0.0673527
0.0683892
0.0549012
0.0563112
0.0577269
0.0591189
0.0604487
0.0616809
0.0627828
0.0637176
0.0644417
0.0648838
0.0650402
0.0649257
0.0645821
0.0641398
0.0637477
0.0634514
0.0632011
0.0630087
0.062943
0.0630862
0.0635493
0.0639428
0.0523284
0.0537196
0.0551329
0.0565254
0.0578447
0.0590368
0.0600527
0.0608514
0.0614083
0.0617184
0.0617903
0.0616305
0.0612723
0.0607341
0.0601424
0.0596044
0.0591353
0.0587526
0.0583655
0.0577725
0.0570858
0.0566268
0.0510317
0.0520017
0.0529657
0.053914
0.0548494
0.055759
0.0566218
0.057399
0.0580459
0.0585497
0.0588431
0.0588717
0.0586066
0.0580725
0.0573205
0.0563848
0.0552856
0.0540653
0.0528681
0.0518734
0.051049
0.0502622
0.0449071
0.0452453
0.0457895
0.0465014
0.0473238
0.0482062
0.049101
0.0499608
0.0507373
0.0513364
0.0517434
0.0519333
0.0518913
0.0516006
0.0511309
0.050564
0.0498669
0.0491149
0.0482764
0.0474261
0.0466024
0.0458256
0.0505474
0.0494714
0.0485795
0.0479092
0.0474828
0.0473055
0.0473645
0.0476283
0.0480499
0.0485608
0.0490829
0.049533
0.0498265
0.0499281
0.0498282
0.049525
0.049094
0.0485109
0.047822
0.0470676
0.0462882
0.0455251
0.0548354
0.0530831
0.0514242
0.049898
0.0485319
0.0473617
0.0464221
0.0457415
0.0453286
0.0451693
0.0452242
0.0454374
0.0457328
0.0460338
0.0462852
0.0464498
0.0465099
0.046458
0.0462974
0.0460406
0.0457062
0.0453162
0.0625782
0.0610658
0.0593998
0.0576072
0.0557255
0.0538006
0.0518884
0.0500525
0.0483611
0.0468819
0.0456659
0.0447464
0.0441316
0.0437771
0.043611
0.0435702
0.0436013
0.043661
0.043723
0.0437629
0.0437649
0.0437245
0.0659056
0.0648213
0.0635901
0.0622014
0.0606518
0.058947
0.0571037
0.0551515
0.053134
0.0511074
0.0491369
0.0473036
0.045708
0.0444015
0.0433725
0.042595
0.0420332
0.0416479
0.041401
0.0412579
0.0411877
0.0411646
0.0665934
0.0660093
0.0653174
0.0644899
0.0635034
0.0623432
0.0609982
0.0594633
0.0577429
0.055854
0.053829
0.0517308
0.0496778
0.0477733
0.0460582
0.044557
0.0432777
0.0422156
0.0413564
0.0406796
0.0401612
0.0397782
0.0652197
0.064842
0.0643884
0.0638561
0.0632336
0.0624994
0.0616315
0.0606087
0.0594123
0.0580284
0.0564514
0.0546995
0.052848
0.0509841
0.0491567
0.0474103
0.0457814
0.0442967
0.042973
0.0418176
0.0408294
0.0400011
0.0633254
0.0629781
0.0626097
0.0622065
0.061756
0.0612443
0.0606538
0.0599647
0.0591531
0.0581991
0.0570811
0.0557905
0.0543608
0.0528432
0.0512675
0.0496675
0.0480779
0.046532
0.0450592
0.0436837
0.0424238
0.0412905
0.0614071
0.061009
0.0605869
0.0601582
0.059722
0.0592708
0.058792
0.0582658
0.0576723
0.0569888
0.0561944
0.0552724
0.0542334
0.0531009
0.0518814
0.0505958
0.0492631
0.0479058
0.0465485
0.0452156
0.0439294
0.0427089
0.0597264
0.0593435
0.0589547
0.0585271
0.0580537
0.0575398
0.0569979
0.0564492
0.0558873
0.0552966
0.0546491
0.0539312
0.0531419
0.0522861
0.0513633
0.050376
0.049331
0.0482391
0.0471097
0.045965
0.0448197
0.04369
0.0585162
0.0579459
0.0574045
0.0569053
0.0564375
0.0559754
0.055483
0.054933
0.0543319
0.0536933
0.0530405
0.0523702
0.0516839
0.0509735
0.0502329
0.0494518
0.0486301
0.0477694
0.0468743
0.0459522
0.0450116
0.0440626
0.0579262
0.0572262
0.056531
0.0558471
0.055188
0.0545676
0.0540003
0.0534731
0.0529491
0.0523874
0.0517556
0.0510679
0.0503567
0.0496613
0.0489743
0.048289
0.0475956
0.0468856
0.0461589
0.0454168
0.0446628
0.0439019
0.0576941
0.0569156
0.0561313
0.0553466
0.054568
0.0538022
0.053056
0.0523444
0.0516828
0.0510774
0.0505073
0.0499288
0.0493215
0.0486759
0.0480078
0.0473275
0.0466546
0.0459968
0.0453489
0.0447085
0.044075
0.0434475
0.0576882
0.056865
0.0560271
0.0551797
0.0543288
0.0534803
0.0526404
0.0518154
0.0510111
0.0502365
0.0495066
0.0488392
0.0482388
0.0476888
0.0471529
0.0466051
0.0460288
0.045441
0.0448493
0.0442591
0.0436764
0.0431107
0.0578055
0.0569686
0.0561089
0.0552315
0.0543422
0.0534472
0.0525529
0.0516657
0.0507919
0.049937
0.0491062
0.0483079
0.0475729
0.0469146
0.0463264
0.045794
0.0453005
0.0448188
0.0443503
0.0438845
0.0434141
0.0429489
0.0579657
0.0571431
0.0562907
0.0554133
0.054516
0.0536052
0.0526875
0.05177
0.05086
0.0499645
0.0490901
0.0482481
0.0474639
0.046749
0.0460948
0.0455004
0.0449608
0.0444628
0.0440062
0.0435888
0.0432016
0.0428398
0.0581069
0.0573227
0.0565032
0.0556524
0.0547748
0.0538762
0.0529634
0.0520436
0.0511249
0.0502154
0.0493234
0.0484627
0.0476613
0.0469336
0.0462747
0.0456795
0.0451433
0.0446541
0.0442191
0.0438315
0.0434862
0.0431716
0.0581726
0.0574475
0.0566874
0.0558903
0.0550579
0.0541967
0.0533139
0.0524171
0.0515147
0.0506155
0.049729
0.0488707
0.0480709
0.0473459
0.0466931
0.0461086
0.0455874
0.0451167
0.0447127
0.0443619
0.0440588
0.0437874
0.058186
0.0575151
0.0568069
0.0560678
0.0553038
0.0545101
0.0536833
0.0528323
0.0519683
0.0511009
0.0502406
0.049404
0.0486224
0.0479142
0.0472786
0.0467134
0.0462115
0.0457686
0.0453969
0.0450861
0.0448169
0.0445896
0.0581492
0.0575528
0.056912
0.0562307
0.0555117
0.0547694
0.0540146
0.0532382
0.0524356
0.051619
0.0508025
0.0500038
0.0492545
0.0485744
0.0479647
0.0474247
0.0469457
0.0465344
0.0461962
0.0459192
0.0456825
0.0454947
0.0580784
0.0575464
0.0569817
0.0563728
0.0557277
0.0550463
0.0543321
0.0536065
0.0528749
0.052131
0.051374
0.0506263
0.0499205
0.0492773
0.0486996
0.0481888
0.0477352
0.0473554
0.0470493
0.0467975
0.0465926
0.0464381
0.0580062
0.057526
0.0570204
0.0564913
0.0559167
0.0553083
0.0546685
0.0539971
0.0533101
0.0526178
0.051928
0.0512414
0.0505866
0.0499864
0.0494454
0.0489655
0.0485389
0.0481884
0.0479103
0.0476795
0.0475006
0.0473729
0.0579475
0.0575234
0.0570766
0.0566004
0.0561032
0.0555658
0.0549941
0.0543924
0.0537643
0.0531226
0.052476
0.0518419
0.051239
0.050683
0.0501799
0.0497305
0.0493319
0.0490075
0.048752
0.0485389
0.0483796
0.0482716
0.0147475
0.0147123
0.0144726
0.0137842
0.0127638
0.0114692
0.05051
0.0509481
0.0512949
0.0516308
0.0514411
0.0500805
0.0671057
0.0691509
0.0722233
0.0760532
0.0799522
0.0830222
0.0696285
0.070848
0.0717986
0.0724362
0.0723916
0.0716583
0.0642926
0.0644305
0.0643759
0.0638334
0.0630222
0.0619579
0.0560309
0.0552292
0.0543226
0.0532359
0.0520296
0.0507275
0.0492981
0.0481887
0.0471228
0.0460993
0.0451309
0.0442393
0.0449611
0.044066
0.0432878
0.042643
0.0421455
0.0418083
0.0447143
0.0439297
0.0432757
0.0427732
0.042436
0.0422726
0.0448195
0.0442742
0.0437854
0.0433805
0.0430766
0.0428923
0.0435632
0.0433066
0.0430387
0.0427893
0.0425789
0.0424255
0.0410867
0.0409271
0.0407774
0.0406591
0.0405452
0.0404673
0.0394531
0.0391205
0.0388438
0.03862
0.0384448
0.0383168
0.039277
0.0386236
0.0380599
0.0375826
0.037189
0.0368762
0.0402346
0.0392814
0.0384243
0.0376642
0.0370006
0.0364304
0.0415287
0.0403978
0.039342
0.0383797
0.0375148
0.0367472
0.042539
0.0413887
0.0402889
0.0392651
0.0383261
0.0374959
0.043037
0.0419649
0.040943
0.0399899
0.0391191
0.0383617
0.0430336
0.0421004
0.0412207
0.0404069
0.0396837
0.0390678
0.0427184
0.0419344
0.0412117
0.0405658
0.0400025
0.0395272
0.0424776
0.0418187
0.04122
0.0406858
0.0402441
0.0399149
0.042416
0.0418843
0.041438
0.041103
0.0408977
0.0408468
0.0424595
0.042154
0.0419565
0.0418779
0.0419211
0.0420845
0.0429087
0.0427855
0.0427732
0.042879
0.0431081
0.043464
0.0436218
0.0436498
0.0437914
0.0440502
0.0444286
0.0449261
0.0445055
0.0446555
0.0449174
0.0452917
0.0457775
0.0463717
0.0454773
0.0457204
0.0460698
0.0465236
0.0470784
0.0477293
0.0464725
0.0467818
0.04719
0.0476935
0.0482873
0.0489603
0.0474452
0.0477976
0.0482403
0.0487681
0.0493623
0.0500181
0.0483702
0.0487481
0.0492007
0.0497152
0.0503059
0.0509852
0.0101912
0.00891926
0.00754734
0.00613489
0.00473827
0.0033923
0.00208911
0.00106427
0.00082425
0.000954145
0.00135849
0.0014325
0.00156375
0.00214486
0.0034526
0.00507376
0.00695255
0.0089866
0.0110908
0.0131831
0.0151415
0.0167276
0.0477595
0.0450848
0.0418311
0.0379617
0.0334944
0.0284707
0.0230025
0.0174543
0.0127932
0.0107242
0.0106662
0.011535
0.0132768
0.0152526
0.0176294
0.0200334
0.0221308
0.0236973
0.0244865
0.0247134
0.0266316
0.0295396
0.0843834
0.0843482
0.0828589
0.0798958
0.0755621
0.0700694
0.0637457
0.0572532
0.0512699
0.0461084
0.0422129
0.0402403
0.0409864
0.0434506
0.0463265
0.0486576
0.0498166
0.0494357
0.047456
0.0441559
0.0403122
0.0368527
0.0706929
0.0695107
0.0681381
0.0665245
0.0645798
0.0622169
0.0594285
0.0562153
0.0525973
0.04891
0.0453548
0.04194
0.0395761
0.037707
0.0361415
0.0343151
0.0326608
0.0316729
0.0320206
0.0344021
0.0387429
0.0439253
0.060674
0.0592694
0.0577525
0.0561394
0.0544347
0.0526356
0.050732
0.0487312
0.0464043
0.0438638
0.0414853
0.0394708
0.0376318
0.0365585
0.0365228
0.0376095
0.039841
0.0430601
0.0468533
0.0506616
0.0541374
0.0572874
0.0493638
0.0479893
0.0466295
0.0453148
0.0440674
0.0429022
0.0418281
0.0408517
0.0399953
0.0393308
0.0390064
0.0392138
0.0400259
0.0413593
0.0430547
0.0449377
0.0468573
0.0486763
0.0502759
0.0515746
0.0524881
0.0523207
0.0434478
0.0427879
0.0422779
0.0419459
0.0418144
0.0418999
0.0422144
0.0427682
0.0435745
0.044645
0.045967
0.0474759
0.0490245
0.0504784
0.05177
0.0528636
0.0537446
0.0544128
0.0548788
0.0551607
0.0552814
0.0553128
0.0416391
0.0416379
0.0417981
0.0421248
0.0426161
0.0432643
0.0440569
0.0449771
0.0460011
0.0470952
0.048213
0.0492895
0.0502413
0.051024
0.0516331
0.0520878
0.0524199
0.0526533
0.0528065
0.0528942
0.0529318
0.0528885
0.0423019
0.0424883
0.0428104
0.0432633
0.0438358
0.0445114
0.0452678
0.0460783
0.0469119
0.0477344
0.0485103
0.0491999
0.0497576
0.0502114
0.0505764
0.0508457
0.0510332
0.0511498
0.0512045
0.0512057
0.0511607
0.0510781
0.0428475
0.0428981
0.0430335
0.0432496
0.0435382
0.0438876
0.0442831
0.0447076
0.0451426
0.0455706
0.0459771
0.0463521
0.0466925
0.0469593
0.047154
0.0472993
0.0473856
0.0474206
0.0474142
0.0473782
0.0473245
0.04727
0.0423077
0.0422081
0.0421612
0.0421682
0.0422276
0.0423361
0.0424879
0.0426751
0.0428881
0.0431167
0.0433527
0.0435931
0.0438253
0.0440362
0.0442289
0.044408
0.044573
0.0447233
0.0448713
0.0450307
0.045217
0.045445
0.0403595
0.040211
0.0400961
0.0400183
0.0399799
0.0399814
0.0400207
0.0400934
0.0401927
0.0403097
0.0404354
0.0405527
0.0406515
0.0407398
0.0408345
0.0409563
0.0411268
0.0413711
0.0417037
0.0421369
0.0426799
0.0433351
0.0381798
0.0379822
0.0378208
0.0376912
0.0375967
0.0375403
0.0375242
0.037551
0.0376225
0.0377412
0.0379114
0.0381337
0.0384099
0.0387485
0.0391641
0.0396718
0.0402712
0.0409917
0.0418309
0.0427701
0.0437931
0.0448696
0.0366445
0.0363666
0.0361518
0.0359722
0.0358328
0.0357396
0.0356999
0.035722
0.0358164
0.0359986
0.0362818
0.036683
0.0372548
0.0379785
0.0388597
0.0398808
0.0410302
0.0422945
0.0436223
0.044978
0.0463408
0.0477327
0.0360688
0.0357229
0.0354251
0.0351767
0.0349883
0.0348726
0.0348461
0.0349217
0.03513
0.0355258
0.0361178
0.0369433
0.0379921
0.0392191
0.040584
0.0420228
0.0434949
0.0449681
0.0465042
0.0481421
0.0498766
0.0516731
0.0362491
0.0358532
0.0355093
0.0352454
0.0350796
0.0350222
0.0351271
0.0354264
0.0359396
0.0366921
0.0376976
0.03893
0.0403024
0.041737
0.0432128
0.0447961
0.0465165
0.0483894
0.050332
0.0522752
0.054189
0.0560454
0.0369288
0.0365445
0.0362484
0.0360641
0.0360416
0.036197
0.0365518
0.0371219
0.0378928
0.0388367
0.0399267
0.041186
0.0426625
0.0443598
0.0462905
0.0483538
0.0504735
0.0525827
0.0546516
0.0566564
0.0585816
0.0604178
0.0378307
0.0375354
0.0373656
0.0373428
0.037485
0.0377844
0.0382282
0.0388009
0.0395582
0.0405933
0.0419828
0.0437773
0.0458399
0.0480271
0.050241
0.0524468
0.0546146
0.0567166
0.058738
0.0606618
0.0625067
0.0642809
0.0386645
0.0384725
0.0383941
0.0384273
0.0385729
0.0388977
0.0394781
0.0403941
0.0417019
0.0433519
0.0452904
0.0474278
0.0496615
0.0518882
0.0540899
0.0562456
0.0583285
0.0603206
0.0622375
0.0640905
0.0658138
0.0673606
0.0392114
0.0390686
0.0390784
0.0393082
0.0398204
0.0406488
0.0417862
0.0431972
0.0448269
0.0466782
0.0487393
0.0509167
0.0530999
0.05527
0.0573991
0.0594544
0.0614361
0.0633375
0.0650694
0.06656
0.0678403
0.0689293
0.0398054
0.0399853
0.0404138
0.0410936
0.0420065
0.0431377
0.0444885
0.0460639
0.0478407
0.0497819
0.0518004
0.0538762
0.0560118
0.0581148
0.0601506
0.0621008
0.0638562
0.0653378
0.0666046
0.0676858
0.0686078
0.0693821
0.0410491
0.0415541
0.04225
0.0431444
0.0442588
0.0455798
0.0470922
0.0487714
0.0505701
0.0524044
0.0543291
0.0563849
0.058464
0.0604735
0.0622912
0.0638116
0.065098
0.0662029
0.067138
0.0679163
0.0685512
0.069055
0.0424993
0.0432172
0.044122
0.0452126
0.0464815
0.0479107
0.0494734
0.0511094
0.0527845
0.0545818
0.0565181
0.0585308
0.0604382
0.0620503
0.063391
0.0645477
0.0655228
0.0663316
0.0669862
0.0675
0.0678868
0.0681595
0.0440644
0.0449546
0.0460062
0.0472092
0.0485451
0.0499831
0.05146
0.0530045
0.0546826
0.0564874
0.0583523
0.0600762
0.0615267
0.0627543
0.0637993
0.0646676
0.0653701
0.0659206
0.0663332
0.0666224
0.0668026
0.0668872
0.0456553
0.0466535
0.0477802
0.0490173
0.0503252
0.0516722
0.0531206
0.0546883
0.0563688
0.0580373
0.0595353
0.0608392
0.0619812
0.0629384
0.0637191
0.0643353
0.0648012
0.065132
0.065343
0.0654495
0.0654665
0.0654072
0.0471787
0.0482248
0.0493615
0.0505433
0.0517857
0.0531425
0.0545968
0.0561421
0.0576053
0.0589165
0.0600835
0.061137
0.0620268
0.0627397
0.0632888
0.0636894
0.0639572
0.0641087
0.0641598
0.0641263
0.0640229
0.0638627
0.0485708
0.0496085
0.0506859
0.0518484
0.053113
0.0544571
0.0558489
0.0571289
0.0582894
0.0593341
0.0602865
0.0611106
0.061775
0.0622762
0.0626301
0.0628533
0.0629629
0.0629758
0.0629082
0.0627754
0.062592
0.0623698
0.0497801
0.0507737
0.051863
0.0530301
0.0542638
0.0555018
0.0566351
0.0576773
0.0586211
0.0594823
0.0602343
0.0608569
0.0613293
0.061655
0.0618513
0.061936
0.0619264
0.0618396
0.0616913
0.0614961
0.0612674
0.0610157
0.0508357
0.0518477
0.0529141
0.0540389
0.0551388
0.0561554
0.0571009
0.0579608
0.0587472
0.0594367
0.0600151
0.0604685
0.0607844
0.0609712
0.0610471
0.0610299
0.0609371
0.0607848
0.0605878
0.0603596
0.0601118
0.0598534
0.0518116
0.0527815
0.0538024
0.0547875
0.0557103
0.0565748
0.057365
0.0580912
0.0587323
0.0592755
0.059711
0.0600292
0.0602236
0.0603062
0.060295
0.0602076
0.0600604
0.0598684
0.0596451
0.0594022
0.0591498
0.058895
0.0177085
0.0183797
0.0190228
0.0196693
0.0203285
0.0210015
0.021688
0.0223888
0.0231074
0.0238567
0.024676
0.0256934
0.0269941
0.0285761
0.0303758
0.032242
0.0340452
0.0357063
0.0370597
0.0373411
0.0367882
0.0344783
0.0307954
0.0271204
0.0230179
0.0191051
0.015872
0.0131803
0.0108899
0.00883941
0.0069145
0.00497004
0.00278412
0.000712014
0.000534184
0.0321415
0.0343473
0.0365403
0.0385936
0.0404361
0.0418763
0.0430797
0.0439418
0.0444904
0.0448858
0.0452779
0.0457655
0.0464309
0.0473825
0.0486976
0.0498138
0.0513639
0.0533833
0.0556767
0.057735
0.0593823
0.0602462
0.0619606
0.0640551
0.0651396
0.063676
0.061754
0.0598707
0.0569672
0.0518728
0.0436266
0.0319023
0.0188018
0.00713586
0.000885455
0.0347567
0.033809
0.0336611
0.0345487
0.0364693
0.0389179
0.0413055
0.0432403
0.0443847
0.0446642
0.0438706
0.0427901
0.0420983
0.0414854
0.0402705
0.0389763
0.0379972
0.0381925
0.0394777
0.0424109
0.0481722
0.0556246
0.0644914
0.072802
0.0779468
0.0789222
0.0761902
0.0707113
0.0631635
0.0539571
0.0433758
0.0318624
0.0198129
0.0083386
0.000864846
0.047427
0.0497741
0.0517712
0.0532283
0.0540082
0.0541279
0.0534933
0.0519263
0.0489862
0.0446174
0.0377056
0.0320878
0.0282215
0.0261386
0.02749
0.0298476
0.0325064
0.0357339
0.0392387
0.0427609
0.046325
0.0497356
0.0525353
0.0542816
0.0550958
0.0541975
0.0527499
0.0490537
0.0437602
0.0371487
0.0297235
0.0217229
0.0134309
0.00556662
0.000772882
0.0593574
0.0608017
0.0620404
0.0628319
0.0627649
0.0614851
0.0589548
0.0555897
0.0520212
0.0486198
0.0450412
0.0404413
0.0344282
0.0294248
0.025253
0.021937
0.0206143
0.0209227
0.0228944
0.0263367
0.0304748
0.0351573
0.0395728
0.0421572
0.0427418
0.0421032
0.0398085
0.0361412
0.0315794
0.0264259
0.0209364
0.0152652
0.00971211
0.00441024
0.000549627
0.0520232
0.0517671
0.0514723
0.0511538
0.0508491
0.0505483
0.050044
0.049123
0.0477192
0.0457345
0.0431432
0.0400379
0.0363092
0.0322233
0.0283975
0.0257762
0.0234637
0.0211961
0.0186489
0.0163083
0.0141418
0.0129681
0.0124838
0.0123119
0.012279
0.0118804
0.0113733
0.0105494
0.00914996
0.00757204
0.00592908
0.00427349
0.00266743
0.00115093
0.000269503
0.0553525
0.055391
0.0554308
0.0554614
0.0554578
0.055317
0.0548858
0.054089
0.0529527
0.0516256
0.0503785
0.0494977
0.0491986
0.0494223
0.0498953
0.0500583
0.0493125
0.0471033
0.0436484
0.0393603
0.0349403
0.0304689
0.0262737
0.0225157
0.0191222
0.0161108
0.0135032
0.0112183
0.00919089
0.00737525
0.00569414
0.00406648
0.00245982
0.000981634
0.000194462
0.0527586
0.0526504
0.0525188
0.052358
0.0521658
0.0519476
0.05172
0.0515
0.0513135
0.0511976
0.0512066
0.0513802
0.0518108
0.0525001
0.0532584
0.0539951
0.0544767
0.054606
0.0542323
0.0531951
0.0513057
0.0482276
0.0439599
0.03929
0.0344698
0.0296749
0.0250942
0.0207375
0.0166564
0.0128788
0.00944071
0.00637924
0.00371963
0.00151553
0.000176428
0.0510356
0.0510475
0.0510574
0.0510671
0.05108
0.0511031
0.0511473
0.0512205
0.0513264
0.051456
0.0516311
0.0518929
0.0523274
0.053091
0.0542626
0.0555964
0.0567189
0.0573767
0.0574408
0.056771
0.0552317
0.0526248
0.0488709
0.0445347
0.0398405
0.0349487
0.0300172
0.0251692
0.0204684
0.0159838
0.011782
0.00792612
0.00449974
0.00170977
0.000232231
0.0472843
0.0473599
0.0474582
0.0475876
0.047759
0.0479855
0.0482815
0.0486812
0.0492244
0.0499696
0.0509963
0.0523922
0.054201
0.056394
0.0587137
0.0607235
0.0621338
0.0628772
0.0628373
0.0619565
0.0601374
0.0571558
0.0530661
0.0484316
0.0434395
0.0382388
0.0329453
0.0276874
0.0225633
0.01767
0.0130951
0.00891829
0.00521501
0.00212895
0.000206865
0.0457105
0.0459802
0.0462935
0.0466622
0.0471019
0.0476329
0.0482813
0.04908
0.0500565
0.0512399
0.0526751
0.0544175
0.0564932
0.0587781
0.0611347
0.0631826
0.0647052
0.0655628
0.0656028
0.0647327
0.0628598
0.0597929
0.0555275
0.0506573
0.0453994
0.0399256
0.0343542
0.0288231
0.023444
0.0183092
0.0134998
0.00909388
0.0051935
0.00200959
0.00023288
0.0439571
0.0444995
0.0451435