/*--------------------------------*- C++ -*----------------------------------*\
  =========                 |
  \\      /  F ield         | OpenFOAM: The Open Source CFD Toolbox
   \\    /   O peration     | Website:  https://openfoam.org
    \\  /    A nd           | Version:  8
     \\/     M anipulation  |
\*---------------------------------------------------------------------------*/
FoamFile
{
    version     2.0;
    format      ascii;
    class       volScalarField;
    location    "0.47";
    object      T;
}
// * * * * * * * * * * * * * * * * * * * * * * * * * * * * * * * * * * * * * //

dimensions      [0 0 0 1 0 0 0];

internalField   nonuniform List<scalar> 
15677
(
297.902
298.016
298.119
298.205
298.292
298.382
298.477
298.575
298.675
298.775
298.87
298.955
299.025
299.059
299.047
298.987
298.933
298.896
298.864
298.81
298.731
298.63
298.526
298.439
298.392
298.379
298.38
298.392
298.42
298.435
298.446
298.452
298.452
298.449
298.438
298.048
298.093
298.097
298.106
298.126
298.164
298.224
298.313
298.442
298.633
298.914
299.277
299.595
299.749
299.729
299.595
299.381
299.13
298.901
298.731
298.617
298.533
298.472
298.425
298.394
298.376
298.371
298.373
298.384
298.395
298.404
298.412
298.419
298.425
298.432
300.171
300.075
300.019
299.972
299.922
299.86
299.778
299.672
299.539
299.396
299.278
299.174
299.057
298.886
298.708
298.601
298.557
298.57
298.676
298.857
299.073
299.265
299.417
299.536
299.63
299.703
299.759
299.802
299.834
299.857
299.874
299.886
299.894
299.899
299.903
299.847
299.766
299.721
299.683
299.647
299.61
299.572
299.534
299.499
299.466
299.418
299.378
299.343
299.339
299.368
299.424
299.487
299.542
299.602
299.673
299.76
299.841
299.899
299.934
299.949
299.953
299.95
299.942
299.929
299.914
299.897
299.879
299.861
299.842
299.822
300.638
300.598
300.55
300.495
300.432
300.36
300.28
300.191
300.098
300.004
299.909
299.82
299.745
299.702
299.687
299.689
299.674
299.637
299.597
299.592
299.601
299.62
299.638
299.65
299.655
299.655
299.651
299.646
299.641
299.637
299.633
299.629
299.626
299.624
299.623
300.361
300.352
300.341
300.325
300.304
300.279
300.251
300.219
300.183
300.141
300.091
300.025
299.921
299.813
299.769
299.781
299.8
299.813
299.835
299.87
299.914
299.954
299.98
299.99
299.988
299.976
299.956
299.93
299.902
299.875
299.849
299.828
299.811
299.797
299.787
299.962
299.964
299.97
299.979
299.99
300.003
300.018
300.025
300.028
300.027
300.026
300.025
300.028
300.037
300.062
300.074
300.073
300.066
300.058
300.057
300.061
300.07
300.077
300.079
300.077
300.073
300.065
300.055
300.045
300.036
300.027
300.02
300.014
300.009
300.005
300.027
300.044
300.059
300.076
300.097
300.125
300.16
300.196
300.221
300.232
300.232
300.227
300.218
300.206
300.192
300.178
300.162
300.145
300.13
300.114
300.098
300.085
300.076
300.069
300.063
300.056
300.048
300.037
300.026
300.015
300.005
299.994
299.985
299.976
299.968
300.367
300.342
300.302
300.257
300.207
300.163
300.13
300.111
300.105
300.107
300.114
300.124
300.134
300.143
300.15
300.155
300.158
300.159
300.159
300.159
300.157
300.155
300.152
300.148
300.144
300.141
300.137
300.134
300.131
300.127
300.123
300.119
300.115
300.111
300.107
300.286
300.285
300.283
300.279
300.275
300.27
300.263
300.256
300.249
300.241
300.233
300.225
300.217
300.208
300.2
300.191
300.182
300.173
300.164
300.154
300.145
300.137
300.13
300.124
300.118
300.111
300.105
300.099
300.093
300.087
300.082
300.077
300.072
300.067
300.063
300.176
300.176
300.177
300.179
300.18
300.181
300.182
300.183
300.183
300.183
300.183
300.183
300.181
300.18
300.178
300.175
300.172
300.168
300.164
300.16
300.155
300.15
300.144
300.139
300.134
300.129
300.125
300.121
300.117
300.113
300.109
300.106
300.103
300.1
300.097
300.252
300.249
300.247
300.243
300.24
300.237
300.233
300.229
300.224
300.22
300.215
300.209
300.203
300.196
300.189
300.182
300.174
300.167
300.158
300.15
300.141
300.133
300.126
300.12
300.114
300.108
300.102
300.097
300.093
300.089
300.085
300.082
300.079
300.076
300.074
300.188
300.189
300.189
300.19
300.19
300.191
300.191
300.191
300.191
300.19
300.188
300.186
300.184
300.18
300.175
300.169
300.163
300.157
300.15
300.143
300.135
300.128
300.12
300.113
300.107
300.102
300.097
300.092
300.088
300.084
300.081
300.078
300.075
300.073
300.071
300.221
300.219
300.217
300.215
300.213
300.211
300.209
300.207
300.204
300.201
300.197
300.193
300.189
300.183
300.176
300.169
300.161
300.153
300.144
300.135
300.126
300.117
300.109
300.101
300.094
300.088
300.082
300.077
300.072
300.068
300.065
300.061
300.059
300.056
300.054
300.194
300.193
300.193
300.193
300.193
300.192
300.192
300.191
300.19
300.189
300.187
300.185
300.181
300.176
300.17
300.163
300.156
300.148
300.139
300.13
300.12
300.111
300.102
300.094
300.087
300.08
300.075
300.069
300.065
300.061
300.057
300.054
300.051
300.049
300.047
300.207
300.205
300.204
300.203
300.201
300.2
300.199
300.197
300.195
300.193
300.19
300.187
300.183
300.177
300.17
300.163
300.155
300.146
300.137
300.127
300.117
300.107
300.097
300.089
300.081
300.075
300.069
300.063
300.058
300.054
300.05
300.047
300.044
300.042
300.04
300.198
300.197
300.196
300.196
300.195
300.195
300.194
300.193
300.192
300.191
300.189
300.186
300.182
300.177
300.17
300.163
300.155
300.146
300.137
300.126
300.116
300.106
300.096
300.088
300.08
300.073
300.067
300.062
300.058
300.053
300.05
300.047
300.044
300.041
300.039
300.204
300.203
300.203
300.202
300.201
300.201
300.2
300.199
300.198
300.196
300.194
300.191
300.186
300.181
300.174
300.166
300.158
300.149
300.139
300.129
300.118
300.107
300.098
300.089
300.082
300.075
300.069
300.064
300.059
300.055
300.052
300.049
300.046
300.044
300.042
300.204
300.203
300.203
300.202
300.202
300.202
300.201
300.201
300.2
300.199
300.197
300.194
300.191
300.185
300.179
300.171
300.163
300.153
300.143
300.133
300.122
300.112
300.102
300.094
300.086
300.08
300.074
300.07
300.065
300.062
300.058
300.056
300.053
300.051
300.049
300.21
300.209
300.208
300.208
300.207
300.207
300.206
300.206
300.205
300.204
300.202
300.2
300.196
300.191
300.185
300.177
300.169
300.16
300.15
300.139
300.128
300.118
300.109
300.101
300.094
300.088
300.083
300.078
300.075
300.071
300.069
300.066
300.064
300.063
300.061
300.214
300.214
300.213
300.213
300.213
300.212
300.212
300.212
300.211
300.21
300.209
300.206
300.203
300.198
300.192
300.185
300.177
300.167
300.157
300.147
300.136
300.126
300.117
300.109
300.103
300.097
300.092
300.089
300.085
300.083
300.081
300.079
300.077
300.076
300.075
300.22
300.219
300.219
300.219
300.218
300.218
300.218
300.218
300.217
300.217
300.216
300.214
300.211
300.206
300.2
300.193
300.185
300.176
300.166
300.156
300.145
300.135
300.126
300.119
300.112
300.107
300.103
300.1
300.097
300.095
300.093
300.092
300.09
300.09
300.089
300.227
300.226
300.225
300.225
300.225
300.225
300.225
300.225
300.225
300.224
300.223
300.222
300.219
300.215
300.209
300.203
300.195
300.185
300.176
300.165
300.155
300.144
300.136
300.129
300.123
300.118
300.114
300.111
300.109
300.107
300.106
300.104
300.104
300.103
300.103
300.232
300.232
300.232
300.232
300.232
300.232
300.232
300.232
300.232
300.232
300.231
300.23
300.227
300.224
300.219
300.212
300.204
300.195
300.185
300.175
300.165
300.155
300.146
300.139
300.133
300.129
300.125
300.122
300.12
300.119
300.118
300.117
300.117
300.116
300.116
300.24
300.239
300.239
300.239
300.239
300.239
300.239
300.239
300.239
300.239
300.239
300.238
300.236
300.233
300.228
300.222
300.214
300.205
300.196
300.185
300.175
300.165
300.156
300.149
300.144
300.139
300.136
300.134
300.132
300.13
300.13
300.129
300.129
300.129
300.129
300.246
300.246
300.246
300.246
300.246
300.246
300.246
300.247
300.247
300.247
300.247
300.246
300.245
300.242
300.237
300.231
300.224
300.216
300.206
300.196
300.185
300.175
300.167
300.16
300.154
300.15
300.147
300.144
300.143
300.142
300.141
300.141
300.141
300.141
300.141
300.253
300.252
300.252
300.253
300.253
300.253
300.253
300.254
300.254
300.254
300.254
300.254
300.253
300.25
300.246
300.241
300.234
300.226
300.216
300.206
300.195
300.185
300.177
300.17
300.164
300.16
300.157
300.155
300.153
300.152
300.152
300.151
300.151
300.152
300.152
300.259
300.259
300.259
300.259
300.26
300.26
300.26
300.261
300.261
300.262
300.262
300.262
300.261
300.259
300.255
300.25
300.244
300.236
300.226
300.216
300.205
300.195
300.187
300.18
300.174
300.17
300.167
300.164
300.163
300.162
300.162
300.161
300.162
300.162
300.162
300.266
300.266
300.266
300.266
300.266
300.267
300.267
300.268
300.268
300.269
300.269
300.269
300.269
300.267
300.264
300.259
300.253
300.245
300.236
300.226
300.215
300.205
300.196
300.189
300.184
300.179
300.176
300.174
300.172
300.171
300.171
300.171
300.171
300.171
300.172
300.272
300.272
300.272
300.272
300.273
300.273
300.274
300.274
300.275
300.276
300.276
300.277
300.277
300.275
300.272
300.268
300.262
300.254
300.245
300.235
300.225
300.214
300.206
300.198
300.193
300.188
300.185
300.183
300.181
300.18
300.18
300.18
300.18
300.18
300.181
298.419
298.397
298.392
298.394
298.401
298.411
298.432
298.466
298.507
298.555
298.601
298.641
298.673
298.7
298.723
298.74
298.751
298.756
298.757
298.757
298.756
298.755
298.43
298.418
298.401
298.391
298.392
298.403
298.424
298.448
298.474
298.504
298.54
298.585
298.64
298.704
298.777
298.86
298.946
299.027
299.101
299.162
299.208
299.235
299.903
299.897
299.888
299.876
299.859
299.836
299.805
299.763
299.706
299.631
299.531
299.405
299.259
299.104
298.957
298.837
298.756
298.722
298.732
298.78
298.866
298.978
299.797
299.761
299.721
299.676
299.625
299.569
299.51
299.449
299.391
299.336
299.289
299.25
299.219
299.189
299.161
299.139
299.136
299.148
299.18
299.226
299.284
299.349
299.623
299.624
299.628
299.633
299.642
299.654
299.672
299.697
299.73
299.772
299.821
299.873
299.924
299.969
300.005
300.026
300.033
300.033
300.035
300.042
300.052
300.064
299.774
299.762
299.755
299.752
299.755
299.76
299.768
299.775
299.781
299.785
299.788
299.788
299.783
299.775
299.763
299.748
299.731
299.713
299.697
299.684
299.674
299.667
299.999
299.992
299.987
299.984
299.984
299.986
299.991
300
300.011
300.023
300.036
300.049
300.061
300.071
300.077
300.081
300.081
300.079
300.075
300.07
300.066
300.062
299.957
299.943
299.929
299.917
299.906
299.898
299.893
299.89
299.89
299.892
299.897
299.904
299.912
299.919
299.926
299.931
299.934
299.936
299.937
299.936
299.935
299.934
300.101
300.092
300.083
300.072
300.062
300.052
300.042
300.034
300.027
300.023
300.022
300.023
300.026
300.031
300.037
300.043
300.048
300.053
300.056
300.059
300.062
300.063
300.058
300.05
300.041
300.031
300.021
300.01
299.998
299.987
299.978
299.97
299.964
299.961
299.96
299.962
299.966
299.972
299.979
299.986
299.993
300.001
300.008
300.014
300.094
300.089
300.083
300.077
300.07
300.062
300.053
300.044
300.035
300.025
300.016
300.008
300.002
299.998
299.996
299.996
299.998
300.001
300.005
300.01
300.016
300.022
300.071
300.068
300.064
300.06
300.056
300.05
300.045
300.039
300.032
300.025
300.017
300.01
300.003
299.998
299.994
299.992
299.99
299.99
299.992
299.994
299.998
300.002
300.069
300.066
300.063
300.061
300.058
300.055
300.051
300.047
300.043
300.038
300.033
300.028
300.022
300.016
300.011
300.006
300.003
300.001
300
300
300.001
300.004
300.053
300.051
300.049
300.048
300.046
300.045
300.043
300.041
300.038
300.035
300.032
300.028
300.024
300.02
300.016
300.013
300.01
300.007
300.005
300.003
300.003
300.004
300.045
300.043
300.041
300.039
300.037
300.036
300.034
300.032
300.031
300.029
300.027
300.025
300.023
300.02
300.018
300.015
300.013
300.011
300.009
300.008
300.007
300.007
300.037
300.035
300.033
300.031
300.029
300.028
300.026
300.025
300.023
300.022
300.021
300.02
300.019
300.018
300.017
300.015
300.014
300.013
300.012
300.011
300.01
300.01
300.037
300.034
300.031
300.029
300.027
300.025
300.023
300.022
300.02
300.019
300.018
300.017
300.016
300.016
300.015
300.014
300.014
300.013
300.013
300.012
300.012
300.012
300.039
300.036
300.033
300.031
300.028
300.026
300.024
300.022
300.021
300.019
300.018
300.017
300.016
300.016
300.015
300.015
300.014
300.014
300.014
300.014
300.014
300.015
300.047
300.043
300.04
300.037
300.034
300.031
300.028
300.026
300.024
300.022
300.021
300.02
300.019
300.018
300.017
300.017
300.017
300.017
300.017
300.017
300.017
300.018
300.059
300.055
300.052
300.048
300.045
300.041
300.038
300.035
300.032
300.03
300.027
300.025
300.023
300.022
300.021
300.021
300.02
300.02
300.02
300.021
300.021
300.022
300.073
300.069
300.066
300.062
300.059
300.056
300.052
300.049
300.046
300.042
300.039
300.036
300.034
300.032
300.03
300.028
300.027
300.026
300.026
300.025
300.025
300.026
300.087
300.084
300.081
300.077
300.074
300.071
300.068
300.064
300.061
300.057
300.054
300.051
300.048
300.045
300.042
300.04
300.038
300.037
300.036
300.035
300.034
300.034
300.101
300.098
300.096
300.093
300.09
300.086
300.083
300.08
300.077
300.073
300.07
300.066
300.063
300.06
300.057
300.054
300.052
300.05
300.048
300.046
300.045
300.045
300.115
300.112
300.11
300.107
300.104
300.102
300.099
300.096
300.093
300.089
300.086
300.082
300.079
300.075
300.072
300.069
300.066
300.064
300.061
300.06
300.058
300.057
300.128
300.126
300.123
300.121
300.118
300.116
300.113
300.111
300.108
300.104
300.101
300.098
300.094
300.091
300.087
300.084
300.081
300.078
300.075
300.073
300.071
300.069
300.14
300.138
300.136
300.134
300.132
300.129
300.127
300.124
300.122
300.119
300.116
300.112
300.109
300.105
300.102
300.098
300.095
300.092
300.089
300.086
300.084
300.081
300.151
300.149
300.148
300.146
300.144
300.142
300.14
300.137
300.135
300.132
300.129
300.126
300.123
300.119
300.116
300.112
300.109
300.105
300.102
300.099
300.096
300.093
300.162
300.16
300.158
300.157
300.155
300.153
300.151
300.149
300.147
300.145
300.142
300.139
300.136
300.132
300.129
300.125
300.122
300.118
300.115
300.111
300.108
300.105
300.171
300.17
300.168
300.167
300.165
300.164
300.162
300.16
300.159
300.156
300.154
300.151
300.148
300.145
300.141
300.137
300.134
300.13
300.126
300.123
300.119
300.116
300.18
300.179
300.177
300.176
300.175
300.174
300.172
300.171
300.169
300.167
300.165
300.162
300.159
300.156
300.153
300.149
300.145
300.141
300.137
300.134
300.13
300.126
298.753
298.752
298.749
298.732
298.693
298.628
299.234
299.188
299.066
298.902
298.732
298.602
299.122
299.294
299.45
299.578
299.677
299.751
299.425
299.5
299.542
299.546
299.53
299.514
300.079
300.094
300.111
300.137
300.164
300.182
299.664
299.667
299.678
299.695
299.716
299.739
300.061
300.063
300.066
300.07
300.074
300.079
299.934
299.935
299.938
299.943
299.949
299.956
300.066
300.069
300.071
300.073
300.075
300.075
300.021
300.026
300.032
300.038
300.043
300.048
300.029
300.036
300.043
300.049
300.056
300.063
300.007
300.012
300.018
300.024
300.031
300.037
300.007
300.012
300.018
300.024
300.031
300.038
300.005
300.009
300.013
300.018
300.024
300.031
300.007
300.009
300.012
300.017
300.022
300.028
300.011
300.012
300.014
300.018
300.022
300.028
300.013
300.015
300.017
300.02
300.024
300.029
300.016
300.018
300.02
300.024
300.028
300.032
300.019
300.022
300.025
300.028
300.032
300.037
300.023
300.026
300.029
300.033
300.037
300.042
300.027
300.03
300.033
300.037
300.041
300.046
300.035
300.038
300.041
300.045
300.049
300.053
300.046
300.048
300.051
300.054
300.058
300.061
300.057
300.059
300.062
300.064
300.067
300.07
300.069
300.071
300.073
300.075
300.076
300.078
300.081
300.082
300.084
300.085
300.087
300.088
300.092
300.094
300.095
300.095
300.096
300.096
300.104
300.104
300.104
300.105
300.104
300.104
300.114
300.114
300.114
300.113
300.113
300.112
300.124
300.124
300.123
300.122
300.121
300.12
298.544
298.446
298.321
298.162
297.966
297.745
297.522
297.413
297.415
297.596
297.81
297.924
298.009
298.093
298.183
298.268
298.344
298.405
298.449
298.482
298.507
298.526
298.52
298.469
298.427
298.381
298.317
298.219
298.085
297.939
297.847
297.852
297.941
298.061
298.114
298.129
298.13
298.128
298.137
298.17
298.238
298.338
298.432
298.505
299.813
299.872
299.933
299.995
300.051
300.103
300.138
300.146
300.126
300.099
300.098
300.102
300.08
300.012
299.898
299.745
299.575
299.407
299.254
299.121
299.003
298.893
299.503
299.495
299.49
299.49
299.49
299.489
299.483
299.469
299.448
299.427
299.408
299.389
299.368
299.345
299.32
299.295
299.267
299.253
299.25
299.249
299.237
299.21
300.197
300.212
300.228
300.245
300.26
300.271
300.272
300.263
300.243
300.213
300.177
300.142
300.112
300.09
300.076
300.071
300.07
300.072
300.069
300.057
300.036
300.015
299.761
299.781
299.799
299.817
299.831
299.841
299.848
299.851
299.852
299.853
299.855
299.858
299.864
299.871
299.878
299.886
299.892
299.897
299.901
299.903
299.903
299.904
300.084
300.09
300.094
300.096
300.096
300.093
300.087
300.08
300.071
300.064
300.058
300.054
300.053
300.052
300.053
300.053
300.052
300.051
300.05
300.048
300.046
300.045
299.963
299.969
299.973
299.976
299.977
299.978
299.978
299.977
299.977
299.978
299.98
299.983
299.986
299.989
299.991
299.993
299.994
299.995
299.995
299.995
299.994
299.994
300.076
300.078
300.079
300.08
300.08
300.079
300.079
300.078
300.078
300.078
300.078
300.078
300.078
300.078
300.077
300.076
300.074
300.072
300.069
300.067
300.065
300.062
300.052
300.055
300.058
300.06
300.061
300.063
300.064
300.065
300.066
300.067
300.068
300.068
300.068
300.068
300.067
300.066
300.065
300.064
300.063
300.062
300.061
300.06
300.068
300.072
300.077
300.081
300.085
300.09
300.094
300.097
300.101
300.105
300.108
300.11
300.112
300.114
300.115
300.116
300.116
300.116
300.115
300.113
300.112
300.109
300.043
300.048
300.053
300.058
300.064
300.069
300.074
300.079
300.084
300.088
300.093
300.097
300.1
300.103
300.105
300.107
300.107
300.107
300.107
300.105
300.104
300.101
300.044
300.05
300.057
300.063
300.07
300.077
300.084
300.09
300.097
300.103
300.109
300.115
300.12
300.124
300.127
300.128
300.129
300.129
300.128
300.126
300.123
300.12
300.038
300.044
300.051
300.058
300.065
300.072
300.079
300.086
300.093
300.1
300.107
300.112
300.117
300.12
300.122
300.123
300.123
300.122
300.119
300.117
300.113
300.109
300.034
300.04
300.047
300.054
300.062
300.07
300.079
300.087
300.096
300.103
300.11
300.116
300.12
300.123
300.124
300.124
300.123
300.121
300.118
300.115
300.111
300.108
300.033
300.039
300.046
300.053
300.06
300.068
300.077
300.085
300.094
300.101
300.108
300.113
300.117
300.118
300.118
300.117
300.114
300.111
300.108
300.105
300.101
300.098
300.035
300.04
300.047
300.053
300.061
300.069
300.076
300.084
300.092
300.098
300.103
300.107
300.11
300.11
300.11
300.108
300.106
300.103
300.101
300.098
300.096
300.094
300.038
300.043
300.049
300.056
300.063
300.07
300.077
300.083
300.089
300.094
300.098
300.101
300.102
300.101
300.1
300.099
300.097
300.095
300.094
300.092
300.091
300.09
300.042
300.047
300.053
300.059
300.065
300.071
300.077
300.083
300.087
300.091
300.093
300.094
300.095
300.094
300.093
300.092
300.091
300.09
300.089
300.089
300.089
300.089
300.047
300.052
300.057
300.062
300.068
300.073
300.078
300.082
300.085
300.088
300.089
300.09
300.09
300.09
300.089
300.088
300.088
300.088
300.088
300.088
300.089
300.09
300.051
300.056
300.061
300.066
300.071
300.075
300.079
300.082
300.085
300.087
300.088
300.088
300.088
300.088
300.088
300.088
300.088
300.088
300.089
300.09
300.092
300.093
300.057
300.062
300.066
300.071
300.075
300.079
300.082
300.084
300.086
300.087
300.088
300.088
300.088
300.088
300.088
300.089
300.09
300.091
300.092
300.094
300.097
300.099
300.065
300.069
300.073
300.077
300.08
300.083
300.085
300.086
300.088
300.088
300.089
300.089
300.09
300.09
300.091
300.092
300.094
300.096
300.098
300.101
300.104
300.107
300.073
300.076
300.08
300.083
300.085
300.087
300.089
300.09
300.091
300.091
300.092
300.093
300.094
300.095
300.096
300.098
300.101
300.103
300.106
300.109
300.113
300.117
300.081
300.084
300.087
300.089
300.091
300.092
300.094
300.094
300.095
300.096
300.097
300.098
300.1
300.102
300.104
300.106
300.109
300.112
300.116
300.119
300.123
300.127
300.089
300.092
300.094
300.095
300.097
300.098
300.099
300.1
300.101
300.102
300.104
300.105
300.107
300.11
300.113
300.116
300.119
300.122
300.126
300.13
300.134
300.139
300.097
300.099
300.101
300.102
300.103
300.105
300.106
300.107
300.108
300.11
300.112
300.114
300.117
300.119
300.123
300.126
300.13
300.134
300.138
300.142
300.147
300.151
300.105
300.106
300.108
300.109
300.111
300.112
300.114
300.115
300.117
300.119
300.121
300.124
300.127
300.13
300.134
300.137
300.142
300.146
300.15
300.155
300.159
300.164
300.112
300.114
300.116
300.117
300.119
300.12
300.122
300.124
300.126
300.128
300.131
300.134
300.138
300.141
300.145
300.15
300.154
300.158
300.163
300.167
300.172
300.177
300.12
300.122
300.124
300.126
300.127
300.129
300.131
300.134
300.136
300.139
300.142
300.146
300.15
300.154
300.158
300.162
300.166
300.171
300.176
300.18
300.185
300.189
298.538
298.546
298.549
298.548
298.541
298.53
298.515
298.497
298.478
298.459
298.438
298.413
298.38
298.364
298.359
298.373
298.409
298.468
298.553
298.658
298.749
298.785
298.755
298.689
298.609
298.525
298.437
298.35
298.266
298.189
298.12
298.06
298.006
297.966
298.009
298.532
298.547
298.559
298.565
298.566
298.563
298.554
298.542
298.53
298.519
298.512
298.508
298.519
298.548
298.61
298.717
298.869
299.053
299.251
299.432
299.535
299.506
299.258
298.875
298.573
298.371
298.239
298.139
298.061
298
297.957
297.932
297.93
297.947
297.954
298.809
298.745
298.685
298.631
298.588
298.553
298.528
298.516
298.524
298.547
298.571
298.589
298.596
298.587
298.568
298.541
298.514
298.503
298.517
298.581
298.739
298.995
299.204
299.342
299.467
299.595
299.696
299.766
299.811
299.84
299.86
299.877
299.889
299.906
299.942
299.183
299.161
299.146
299.144
299.162
299.206
299.281
299.382
299.493
299.604
299.701
299.773
299.809
299.817
299.798
299.75
299.682
299.6
299.52
299.451
299.395
299.341
299.319
299.327
299.355
299.366
299.376
299.386
299.394
299.401
299.407
299.412
299.418
299.427
299.471
299.994
299.974
299.949
299.922
299.89
299.855
299.815
299.768
299.713
299.649
299.587
299.54
299.512
299.498
299.484
299.47
299.464
299.47
299.489
299.521
299.56
299.615
299.698
299.796
299.902
300.007
300.108
300.197
300.274
300.34
300.396
300.445
300.487
300.521
300.552
299.903
299.901
299.898
299.894
299.888
299.88
299.87
299.86
299.857
299.864
299.883
299.909
299.935
299.95
299.961
299.97
299.977
299.982
299.988
299.993
300.002
300.011
300.039
300.068
300.102
300.14
300.184
300.225
300.265
300.301
300.331
300.359
300.383
300.405
300.424
300.042
300.04
300.038
300.034
300.031
300.026
300.021
300.016
300.01
300.001
299.99
299.977
299.964
299.953
299.947
299.946
299.947
299.951
299.956
299.962
299.971
299.983
299.997
300.011
300.024
300.036
300.047
300.056
300.062
300.067
300.07
300.071
300.072
300.072
300.075
299.994
299.994
299.994
299.994
299.994
299.994
299.994
299.994
299.993
299.992
299.989
299.987
299.989
299.998
300.012
300.029
300.046
300.063
300.08
300.097
300.113
300.129
300.145
300.159
300.171
300.182
300.191
300.199
300.206
300.213
300.219
300.224
300.229
300.233
300.234
300.06
300.058
300.056
300.053
300.05
300.045
300.041
300.035
300.029
300.022
300.015
300.011
300.009
300.011
300.016
300.025
300.035
300.046
300.058
300.069
300.079
300.088
300.095
300.099
300.101
300.101
300.101
300.099
300.096
300.093
300.089
300.085
300.081
300.076
300.073
300.059
300.058
300.056
300.055
300.053
300.052
300.049
300.047
300.045
300.044
300.044
300.045
300.047
300.051
300.057
300.066
300.076
300.088
300.1
300.112
300.124
300.137
300.149
300.159
300.168
300.176
300.183
300.19
300.196
300.202
300.208
300.213
300.218
300.223
300.229
300.107
300.105
300.102
300.099
300.096
300.092
300.088
300.084
300.079
300.074
300.07
300.066
300.064
300.064
300.067
300.073
300.081
300.09
300.099
300.108
300.117
300.126
300.134
300.139
300.143
300.145
300.147
300.147
300.147
300.146
300.144
300.143
300.141
300.139
300.137
300.098
300.096
300.094
300.091
300.088
300.085
300.082
300.08
300.077
300.075
300.073
300.073
300.074
300.078
300.084
300.092
300.101
300.111
300.121
300.131
300.141
300.151
300.161
300.169
300.175
300.181
300.187
300.191
300.196
300.2
300.204
300.207
300.211
300.215
300.219
300.117
300.115
300.112
300.109
300.105
300.102
300.099
300.095
300.092
300.09
300.089
300.089
300.09
300.093
300.098
300.105
300.113
300.122
300.131
300.14
300.148
300.156
300.163
300.169
300.173
300.176
300.179
300.18
300.181
300.182
300.182
300.182
300.182
300.182
300.182
300.106
300.103
300.101
300.098
300.095
300.093
300.091
300.089
300.088
300.088
300.089
300.091
300.094
300.1
300.107
300.116
300.125
300.134
300.144
300.153
300.162
300.171
300.179
300.185
300.191
300.195
300.199
300.202
300.205
300.207
300.21
300.212
300.214
300.217
300.22
300.105
300.103
300.101
300.099
300.097
300.095
300.094
300.093
300.093
300.094
300.096
300.099
300.104
300.11
300.118
300.126
300.135
300.145
300.154
300.163
300.171
300.179
300.185
300.19
300.194
300.197
300.199
300.201
300.202
300.204
300.204
300.205
300.205
300.206
300.207
300.096
300.095
300.093
300.092
300.091
300.091
300.091
300.092
300.093
300.095
300.099
300.103
300.109
300.116
300.125
300.134
300.144
300.153
300.163
300.171
300.18
300.188
300.194
300.2
300.204
300.207
300.21
300.212
300.214
300.215
300.217
300.218
300.22
300.221
300.223
300.093
300.093
300.092
300.092
300.092
300.092
300.093
300.094
300.097
300.1
300.104
300.109
300.116
300.123
300.132
300.142
300.152
300.161
300.17
300.179
300.186
300.194
300.2
300.204
300.207
300.21
300.212
300.213
300.215
300.215
300.216
300.217
300.218
300.218
300.219
300.09
300.09
300.09
300.091
300.091
300.093
300.094
300.097
300.1
300.104
300.108
300.114
300.121
300.13
300.139
300.149
300.159
300.168
300.177
300.185
300.193
300.2
300.205
300.21
300.213
300.215
300.218
300.219
300.22
300.222
300.223
300.223
300.224
300.225
300.226
300.089
300.09
300.09
300.091
300.093
300.095
300.097
300.1
300.104
300.108
300.114
300.12
300.127
300.136
300.145
300.155
300.165
300.174
300.183
300.191
300.198
300.204
300.209
300.213
300.216
300.218
300.22
300.221
300.222
300.223
300.223
300.224
300.224
300.225
300.226
300.091
300.092
300.093
300.094
300.096
300.098
300.101
300.105
300.109
300.114
300.119
300.126
300.133
300.142
300.152
300.162
300.171
300.18
300.188
300.196
300.203
300.208
300.213
300.217
300.219
300.221
300.223
300.224
300.225
300.226
300.227
300.228
300.229
300.229
300.23
300.095
300.096
300.097
300.099
300.101
300.104
300.107
300.111
300.115
300.12
300.126
300.133
300.14
300.149
300.158
300.168
300.177
300.186
300.194
300.201
300.207
300.213
300.217
300.22
300.223
300.224
300.226
300.227
300.227
300.228
300.229
300.229
300.23
300.23
300.231
300.101
300.103
300.104
300.106
300.108
300.111
300.114
300.118
300.122
300.127
300.133
300.14
300.147
300.156
300.165
300.175
300.183
300.192
300.199
300.206
300.212
300.217
300.221
300.224
300.226
300.227
300.228
300.229
300.23
300.23
300.231
300.231
300.232
300.232
300.233
300.109
300.111
300.113
300.115
300.117
300.12
300.123
300.127
300.131
300.136
300.141
300.148
300.155
300.164
300.172
300.181
300.19
300.198
300.205
300.211
300.216
300.221
300.224
300.227
300.229
300.23
300.231
300.232
300.233
300.233
300.234
300.234
300.234
300.235
300.235
300.119
300.121
300.122
300.124
300.127
300.129
300.132
300.136
300.14
300.145
300.15
300.157
300.164
300.172
300.18
300.188
300.196
300.204
300.21
300.216
300.221
300.225
300.228
300.231
300.233
300.234
300.235
300.235
300.236
300.236
300.236
300.237
300.237
300.237
300.238
300.13
300.131
300.133
300.135
300.137
300.14
300.143
300.146
300.15
300.155
300.16
300.166
300.173
300.18
300.188
300.196
300.203
300.21
300.216
300.221
300.226
300.23
300.233
300.235
300.236
300.237
300.238
300.239
300.239
300.239
300.239
300.24
300.24
300.24
300.241
300.142
300.143
300.145
300.146
300.149
300.151
300.154
300.157
300.161
300.165
300.17
300.175
300.182
300.188
300.196
300.203
300.21
300.216
300.221
300.226
300.231
300.234
300.237
300.239
300.24
300.241
300.242
300.242
300.242
300.242
300.243
300.243
300.243
300.243
300.243
300.154
300.155
300.157
300.158
300.16
300.163
300.165
300.168
300.172
300.176
300.18
300.185
300.191
300.197
300.204
300.211
300.217
300.222
300.227
300.232
300.236
300.239
300.241
300.243
300.244
300.245
300.245
300.246
300.246
300.246
300.246
300.246
300.246
300.246
300.247
300.167
300.168
300.169
300.171
300.173
300.175
300.177
300.18
300.183
300.186
300.19
300.195
300.2
300.206
300.212
300.218
300.224
300.229
300.233
300.237
300.241
300.244
300.246
300.247
300.248
300.249
300.249
300.25
300.25
300.25
300.25
300.25
300.25
300.25
300.25
300.18
300.181
300.182
300.183
300.185
300.186
300.188
300.191
300.194
300.197
300.201
300.205
300.209
300.215
300.22
300.226
300.231
300.235
300.239
300.243
300.246
300.249
300.251
300.252
300.253
300.253
300.253
300.254
300.254
300.254
300.253
300.253
300.253
300.253
300.254
300.192
300.193
300.194
300.195
300.196
300.198
300.2
300.202
300.204
300.207
300.21
300.214
300.218
300.223
300.228
300.233
300.237
300.241
300.245
300.248
300.251
300.253
300.255
300.256
300.257
300.257
300.257
300.257
300.257
300.257
300.257
300.257
300.257
300.257
300.257
300.279
300.279
300.279
300.279
300.28
300.28
300.281
300.282
300.282
300.283
300.284
300.284
300.285
300.284
300.281
300.277
300.272
300.264
300.255
300.245
300.235
300.224
300.216
300.208
300.202
300.198
300.194
300.192
300.19
300.189
300.189
300.189
300.189
300.189
300.19
300.286
300.286
300.286
300.287
300.287
300.288
300.288
300.289
300.29
300.291
300.292
300.292
300.293
300.292
300.29
300.287
300.282
300.275
300.266
300.256
300.245
300.235
300.226
300.218
300.212
300.208
300.204
300.201
300.2
300.199
300.198
300.198
300.198
300.198
300.198
300.293
300.293
300.293
300.293
300.294
300.294
300.295
300.296
300.297
300.298
300.299
300.3
300.301
300.3
300.299
300.296
300.291
300.284
300.276
300.266
300.255
300.245
300.236
300.228
300.221
300.216
300.213
300.21
300.208
300.207
300.206
300.205
300.205
300.205
300.206
300.299
300.299
300.299
300.3
300.3
300.301
300.302
300.302
300.303
300.304