/*--------------------------------*- C++ -*----------------------------------*\
  =========                 |
  \\      /  F ield         | OpenFOAM: The Open Source CFD Toolbox
   \\    /   O peration     | Website:  https://openfoam.org
    \\  /    A nd           | Version:  8
     \\/     M anipulation  |
\*---------------------------------------------------------------------------*/
FoamFile
{
    version     2.0;
    format      ascii;
    class       volScalarField;
    location    "0.09";
    object      nut;
}
// * * * * * * * * * * * * * * * * * * * * * * * * * * * * * * * * * * * * * //

dimensions      [0 2 -1 0 0 0 0];

internalField   nonuniform List<scalar> 
15677
(
0.000168252
0.000653023
0.000148417
0.00151375
0.000442447
0.000141508
0.00267553
0.00087577
0.000381134
0.000142377
0.00392135
0.00151884
0.000686588
0.00035423
0.000145459
0.00502435
0.00235599
0.00114628
0.000585572
0.00034024
0.00015121
0.00584086
0.00331719
0.00178057
0.000947611
0.00052925
0.000332004
0.000157002
0.00633517
0.00429848
0.00256734
0.00146303
0.000820788
0.000492449
0.000326981
0.000162448
0.00656294
0.00518755
0.00345254
0.00213118
0.00125694
0.000737127
0.000467423
0.000324113
0.000167223
0.00665852
0.00589339
0.004355
0.00292162
0.00184108
0.00111205
0.000677287
0.000450427
0.000322544
0.000171451
0.00670554
0.00633825
0.0051806
0.00377844
0.00255636
0.00163134
0.00100439
0.000634034
0.000438683
0.00032199
0.000175013
0.00671442
0.00655346
0.00584518
0.0046248
0.00336205
0.00228587
0.00147226
0.000924036
0.000602126
0.000430758
0.000321933
0.00017815
0.00670993
0.00666152
0.00629559
0.00537676
0.00419626
0.00304453
0.00207719
0.00134868
0.000862063
0.000578529
0.000425292
0.000322416
0.000180761
0.00670629
0.00669875
0.00652957
0.00596422
0.0049836
0.00385653
0.00279495
0.0019112
0.0012509
0.000813962
0.000560785
0.000421816
0.000323048
0.000183105
0.00670539
0.00670439
0.00664681
0.00635675
0.00564966
0.00465515
0.00358248
0.00259285
0.00177727
0.0011727
0.000776165
0.000547627
0.000419461
0.000323966
0.000185145
0.00670542
0.00670289
0.00668788
0.00656283
0.00614185
0.00536791
0.00438048
0.00335614
0.00242715
0.00166758
0.00110926
0.000746412
0.000537535
0.000418244
0.000324809
0.000186955
0.00670556
0.00670168
0.00669638
0.00665652
0.0064467
0.00593328
0.00512034
0.00414781
0.00316758
0.00228921
0.00157723
0.00105759
0.000722719
0.000530276
0.000417361
0.000325861
0.000188608
0.00670562
0.00670122
0.00669711
0.0066849
0.00660482
0.00632153
0.00573701
0.00490316
0.00395004
0.00300844
0.002174
0.00150213
0.00101562
0.00070425
0.000524553
0.000417242
0.000326791
0.000190021
0.00670563
0.00670114
0.0066967
0.00669166
0.0066637
0.00654114
0.00618801
0.00555639
0.0047136
0.0037805
0.00287387
0.00207705
0.00143987
0.000981559
0.000689364
0.000520693
0.000417165
0.000327873
0.000191445
0.00670562
0.00670116
0.0066964
0.00669274
0.00668228
0.00663449
0.00646771
0.0060576
0.00539316
0.00454773
0.00363519
0.00275942
0.00199567
0.00138834
0.000953687
0.000678011
0.000517571
0.000417686
0.000328845
0.00019256
0.0067056
0.00670119
0.00669625
0.0066927
0.00668726
0.0066691
0.006598
0.00638924
0.0059345
0.00524627
0.00440325
0.00351028
0.00266241
0.00192751
0.00134573
0.000931412
0.000668856
0.000515838
0.000418085
0.000329915
0.000193881
0.00670558
0.00670122
0.00669618
0.00669259
0.00668818
0.0066808
0.00665141
0.00655606
0.00631078
0.00581931
0.00511564
0.00427735
0.00340346
0.00258042
0.00187076
0.00131099
0.000913445
0.000662285
0.000514372
0.000418994
0.000330939
0.000194769
0.00670558
0.00670124
0.00669613
0.00669256
0.00668814
0.00668422
0.00667169
0.00663033
0.00651122
0.00623283
0.00571412
0.00499972
0.00416867
0.0033125
0.00251184
0.0018241
0.00128288
0.000899596
0.00065705
0.000514064
0.000419699
0.000331972
0.000196076
0.00670558
0.00670124
0.0066961
0.00669255
0.00668798
0.00668505
0.0066785
0.00666143
0.00660607
0.00646496
0.00615988
0.00561858
0.0048986
0.00407534
0.00323609
0.00245511
0.00178629
0.00126079
0.000888934
0.000653922
0.000513718
0.000420868
0.00033311
0.000196798
0.00670558
0.00670124
0.00669609
0.00669255
0.00668786
0.00668517
0.00668042
0.00667334
0.00664844
0.00658061
0.00641922
0.00609171
0.00553418
0.00481067
0.00399651
0.00317259
0.00240936
0.00175677
0.00124406
0.000881449
0.000651465
0.000514427
0.00042177
0.000334017
0.000198105
0.00670558
0.00670123
0.00669608
0.00669254
0.00668779
0.00668515
0.00668078
0.00667749
0.00666576
0.00663546
0.00655393
0.00637564
0.00603006
0.00545923
0.00473617
0.0039312
0.00312195
0.00237363
0.00173432
0.00123178
0.000876293
0.000650957
0.000514877
0.000423194
0.000335463
0.000198795
0.00670559
0.00670123
0.00669608
0.00669253
0.00668775
0.0066851
0.00668074
0.00667875
0.00667216
0.00665966
0.00662042
0.00652843
0.00633521
0.0059741
0.00539663
0.00467484
0.00387898
0.00308158
0.00234653
0.00171883
0.00122459
0.000874085
0.000650623
0.000516397
0.000424117
0.000336213
5.33553e-05
0.00670559
0.00670122
0.00669608
0.00669251
0.00668773
0.00668506
0.00668065
0.00667903
0.00667423
0.00666956
0.00665081
0.00660733
0.00650417
0.00629915
0.00592881
0.0053434
0.00462427
0.0038377
0.00305393
0.00233031
0.00171089
0.00122128
0.000873422
0.000652223
0.000517516
0.000426504
0.000283607
6.33117e-05
0.0067056
0.00670121
0.00669609
0.00669249
0.00668773
0.00668501
0.00668058
0.00667902
0.00667475
0.00667326
0.00666364
0.00664554
0.00659325
0.00648274
0.00626814
0.00588678
0.00530255
0.00459095
0.00381437
0.00303804
0.00232141
0.00170763
0.00122074
0.000875239
0.000653871
0.000519604
0.000420073
0.000219476
7.06809e-05
0.00670561
0.0067012
0.00669609
0.00669247
0.00668772
0.00668497
0.00668054
0.00667893
0.00667479
0.00667443
0.00666863
0.0066628
0.006637
0.00658371
0.00646616
0.00624154
0.00586384
0.00527848
0.00456878
0.00379758
0.00302891
0.00231855
0.00170899
0.00122447
0.000878339
0.000656227
0.00052083
0.000400194
0.000178026
7.61125e-05
0.00670561
0.00670119
0.0066961
0.00669246
0.00668773
0.00668493
0.00668051
0.00667884
0.00667474
0.00667465
0.00667035
0.00666999
0.00665716
0.00663602
0.00657431
0.00645126
0.00623303
0.00584725
0.00526046
0.00455469
0.00379022
0.00302849
0.00232321
0.00171647
0.00123104
0.000883043
0.000659572
0.00051873
0.000367424
0.000152555
8.05115e-05
0.00670562
0.00670118
0.00669611
0.00669244
0.00668773
0.0066849
0.00668049
0.00667876
0.00667467
0.00667459
0.00667081
0.00667263
0.00666591
0.00666125
0.00662995
0.00657302
0.00645032
0.00622612
0.00583723
0.00525211
0.00455356
0.00379608
0.00303932
0.00233597
0.00172862
0.00124061
0.000889409
0.000662657
0.000512756
0.000336254
0.000134219
8.38991e-05
0.00670562
0.00670117
0.00669611
0.00669242
0.00668774
0.00668487
0.00668048
0.00667869
0.00667462
0.00667445
0.00667087
0.00667334
0.00666943
0.00667243
0.0066573
0.00663908
0.00657608
0.00645326
0.00622501
0.00583975
0.00526083
0.00456708
0.00381401
0.00305931
0.00235543
0.00174527
0.00125303
0.000896931
0.000665481
0.000501442
0.000306159
0.000121258
8.63021e-05
0.00670563
0.00670116
0.00669612
0.00669241
0.00668774
0.00668484
0.00668048
0.00667863
0.00667457
0.00667432
0.00667082
0.0066734
0.00667061
0.00667691
0.00667038
0.00667258
0.00664486
0.00658487
0.00646223
0.00623903
0.00585828
0.00528299
0.00459354
0.00384292
0.00308813
0.00238145
0.00176596
0.00126805
0.000905589
0.0006668
0.00048619
0.000280105
0.000112764
8.80798e-05
0.00670563
0.00670115
0.00669613
0.00669239
0.00668775
0.00668481
0.00668047
0.00667857
0.00667453
0.00667419
0.00667074
0.00667325
0.00667092
0.00667836
0.00667617
0.00668818
0.00668022
0.00665764
0.00660266
0.00648491
0.00626675
0.00589052
0.00531937
0.00463272
0.00388282
0.00312559
0.00241348
0.00179061
0.00128538
0.000915004
0.000667037
0.000469386
0.000260338
0.000106995
8.94583e-05
0.00670114
0.00670565
0.00669614
0.00669238
0.00668776
0.00668479
0.00668047
0.00667852
0.0066745
0.00667409
0.00667065
0.00667306
0.00667093
0.00667865
0.00667836
0.00669519
0.00669734
0.00669575
0.00668168
0.00663207
0.00652053
0.00630844
0.00593793
0.00536995
0.00468493
0.00393336
0.00317123
0.00245152
0.00181881
0.00130485
0.000926107
0.00066614
0.000454505
0.000245145
0.000102947
9.05777e-05
0.00669614
0.00670115
0.00670566
0.00669237
0.00668776
0.00668477
0.00668047
0.00667848
0.00667448
0.006674
0.00667058
0.00667288
0.00667085
0.00667856
0.00667908
0.00669794
0.0067052
0.0067148
0.00672408
0.00671593
0.00667429
0.00657059
0.00636601
0.00600054
0.00543533
0.0047498
0.00399447
0.00322501
0.0024949
0.00185046
0.00132901
0.000939548
0.000664798
0.000441707
0.000233365
0.000100067
9.15258e-05
0.00669236
0.00669617
0.00670117
0.00670568
0.00668777
0.00668475
0.00668048
0.00667844
0.00667446
0.00667392
0.00667051
0.00667271
0.00667074
0.00667834
0.00667926
0.00669888
0.00670848
0.00672387
0.00674597
0.00676193
0.00676337
0.00673107
0.00663698
0.00644047
0.00608017
0.00551593
0.00482775
0.00406576
0.00328612
0.00254365
0.00188905
0.00135784
0.00095369
0.000663874
0.000431237
0.000224046
9.79623e-05
9.23551e-05
0.00668778
0.00669238
0.00669623
0.00670119
0.0067057
0.00668473
0.00668048
0.0066784
0.00667445
0.00667385
0.00667046
0.00667257
0.00667064
0.00667811
0.00667925
0.00669912
0.00670974
0.00672791
0.00675688
0.00678657
0.00681345
0.00682555
0.00680461
0.00672057
0.00653298
0.00617651
0.00561204
0.00491787
0.00414672
0.00335464
0.00260298
0.00193662
0.00138818
0.000968673
0.000663683
0.000422464
0.000216585
9.64302e-05
9.31005e-05
0.00668471
0.00668783
0.00669243
0.0066963
0.00670121
0.00670572
0.00668049
0.00667836
0.00667444
0.00667379
0.00667041
0.00667246
0.00667054
0.00667788
0.00667917
0.00669911
0.0067102
0.00672969
0.00676212
0.00679957
0.00684103
0.00687944
0.00690454
0.00689565
0.00682305
0.00664332
0.00629006
0.00572364
0.00502105
0.0042372
0.00343783
0.00267552
0.001988
0.00141999
0.000984282
0.000664334
0.000415337
0.000210503
9.52808e-05
9.378e-05
0.00668049
0.00668474
0.00668792
0.00669248
0.00669636
0.00670122
0.00670574
0.00667833
0.00667444
0.00667373
0.00667037
0.00667236
0.00667044
0.00667768
0.00667908
0.006699
0.00671035
0.00673054
0.00676476
0.00680653
0.00685709
0.00691159
0.00696491
0.00700259
0.00700558
0.00694334
0.00677172
0.00642027
0.00584959
0.00513611
0.00434725
0.00353951
0.00275358
0.00204241
0.00145302
0.00100077
0.000666104
0.000409494
0.000205476
9.44392e-05
9.44096e-05
0.0066783
0.00668056
0.00668481
0.00668802
0.00669253
0.00669643
0.00670124
0.00670576
0.00667443
0.00667367
0.00667034
0.00667227
0.00667035
0.00667752
0.006679
0.00669886
0.00671038
0.006731
0.00676628
0.00681048
0.00686646
0.00693113
0.0070024
0.00707066
0.007124
0.00713795
0.00708319
0.00691681
0.00656565
0.00598851
0.00527723
0.00448231
0.00364864
0.0028363
0.00209939
0.00148699
0.00101758
0.000669018
0.000404742
0.000201201
9.37931e-05
9.49936e-05
0.00667444
0.00667832
0.00668067
0.00668488
0.00668813
0.00669258
0.00669649
0.00670126
0.00670579
0.00667362
0.00667031
0.0066722
0.00667026
0.00667739
0.00667892
0.00669873
0.00671037
0.0067313
0.00676729
0.00681311
0.0068725
0.00694362
0.00702703
0.0071148
0.00720092
0.00726821
0.00729503
0.00724586
0.00707824
0.00672508
0.00615675
0.00544698
0.00462798
0.00376498
0.00292275
0.00215833
0.00152178
0.00103442
0.000672359
0.000400956
0.000197606
9.33276e-05
9.55419e-05
0.00667357
0.0066745
0.00667839
0.0066808
0.00668495
0.00668823
0.00669263
0.00669656
0.00670128
0.00670581
0.0066703
0.00667212
0.00667019
0.0066773
0.00667884
0.0066986
0.00671034
0.00673151
0.00676805
0.00681512
0.00687694
0.00695242
0.00704443
0.00714603
0.00725405
0.00735625
0.00743886
0.00747532
0.00743192
0.00726063
0.00691417
0.00635566
0.00562696
0.00478122
0.00388662
0.00301208
0.00221866
0.00155737
0.00105115
0.000676391
0.000398004
0.00019448
9.29632e-05
9.60527e-05
0.0066703
0.00667357
0.00667462
0.00667846
0.00668093
0.00668503
0.00668834
0.00669269
0.00669663
0.0067013
0.00670583
0.00667206
0.00667013
0.00667723
0.00667874
0.00669849
0.00671031
0.00673169
0.00676868
0.00681679
0.00688052
0.0069594
0.00705784
0.00716982
0.00729466
0.00742088
0.00754128
0.00763579
0.00768051
0.0076392
0.00748628
0.00714721
0.00656471
0.0058139
0.00493884
0.00401118
0.0031034
0.00227986
0.00159333
0.00106793
0.000680907
0.000395613
0.000191813
9.27129e-05
9.6535e-05
0.00667199
0.00667032
0.0066736
0.00667474
0.00667854
0.00668106
0.0066851
0.00668846
0.00669275
0.00669671
0.00670132
0.00670585
0.00667008
0.00667718
0.00667863
0.0066984
0.0067103
0.00673186
0.00676923
0.00681825
0.00688357
0.00696538
0.00706907
0.00718919
0.00732805
0.00747372
0.00762129
0.0077559
0.00786149
0.00791076
0.00789321
0.00776137
0.00740101
0.00678231
0.00600309
0.00509873
0.00413766
0.00319566
0.00234142
0.00162939
0.00108451
0.00068586
0.000393839
0.000189457
9.2513e-05
9.69836e-05
0.00667005
0.00667191
0.00667038
0.00667364
0.00667488
0.00667861
0.00668121
0.00668518
0.00668857
0.0066928
0.00669678
0.00670135
0.00670588
0.00667714
0.00667849
0.00669835
0.0067103
0.00673201
0.00676972
0.00681955
0.00688624
0.00697071
0.00707891
0.00720602
0.00735686
0.00751968
0.00769085
0.00785524
0.00800417
0.00811654
0.00819485
0.00820489
0.00805786
0.00767128
0.0070122
0.00619444
0.00525924
0.00426404
0.00328798
0.00240283
0.00166525
0.00110104
0.00069079
0.000392494
0.000187435
9.23907e-05
9.74082e-05
0.00667711
0.00666994
0.00667182
0.00667044
0.00667367
0.00667503
0.00667869
0.00668136
0.00668526
0.00668869
0.00669286
0.00669686
0.00670137
0.0067059
0.00667834
0.00669834
0.00671032
0.00673216
0.00677016
0.00682073
0.00688863
0.00697554
0.00708771
0.00722124
0.00738283
0.00756061
0.00775444
0.00794645
0.00812893
0.00828696
0.0084339
0.00854661
0.00854385
0.00837276
0.00795182
0.00725026
0.00638562
0.0054171
0.00438902
0.00337942
0.00246365
0.00170069
0.00111755
0.000695678
0.000391524
0.000185618
9.22901e-05
9.78016e-05
0.00667818
0.0066769
0.00666973
0.00667173
0.00667053
0.0066737
0.00667519
0.00667876
0.00668151
0.00668534
0.00668882
0.00669293
0.00669693
0.0067014
0.00670592
0.0066984
0.00671036
0.0067323
0.00677055
0.0068218
0.00689078
0.00697996
0.00709567
0.00723524
0.00740666
0.00759808
0.00781324
0.00803362
0.00824898
0.00844332
0.0086426
0.00883165
0.0089334
0.00890715
0.00870275
0.00823991
0.00749354
0.00658045
0.00557205
0.00451161
0.00346942
0.00252349
0.00173553
0.0011338
0.000700524
0.000390805
0.000184053
9.22456e-05
9.81748e-05
0.00669852
0.00667748
0.00667655
0.00666954
0.00667162
0.00667064
0.00667373
0.00667537
0.00667884
0.00668168
0.00668543
0.00668894
0.00669299
0.00669701
0.00670143
0.00670594
0.00671038
0.00673242
0.00677088
0.00682275
0.00689274
0.00698399
0.0071029
0.00724822
0.00742862
0.00763296
0.00786878
0.00811632
0.00836717
0.00860001
0.00884447
0.00909526
0.00927524
0.00935342
0.00929227
0.00904516
0.00853324
0.0077372
0.00677617
0.00572404
0.00463142
0.00355731
0.00258199
0.00176959
0.00114976
0.0007053
0.000390323
0.000182625
9.22059e-05
9.85187e-05
0.00671038
0.00669805
0.00667619
0.00667617
0.00666941
0.0066715
0.00667079
0.00667375
0.00667555
0.00667892
0.00668184
0.00668552
0.00668907
0.00669306
0.00669708
0.00670145
0.00670595
0.00673252
0.00677117
0.00682362
0.00689452
0.00698767
0.0071095
0.00726025
0.00744884
0.00766574
0.00792159
0.00819499
0.0084813
0.00876042
0.00905674
0.00936399
0.00960885
0.00976601
0.00980699
0.00969843
0.00939831
0.00882981
0.00797973
0.00697059
0.00587169
0.00474705
0.00364251
0.00263887
0.00180275
0.00116534
0.000709992
0.000389986
0.000181393
9.22091e-05
9.88457e-05
0.00673261
0.00670934
0.00669694
0.00667519
0.00667569
0.00666937
0.00667134
0.00667097
0.00667377
0.00667575
0.00667901
0.00668201
0.00668561
0.00668919
0.00669313
0.00669715
0.00670148
0.00670597
0.0067714
0.0068244
0.00689616
0.00699104
0.00711555
0.00727135
0.00746744
0.00769661
0.00797153
0.00826978
0.00859241
0.00892182
0.00928154
0.00965729
0.0099668
0.0101941
0.0103128
0.010299
0.010127
0.00976159
0.00912824
0.00821993
0.00716245
0.00601658
0.00485813
0.00372466
0.00269391
0.00183488
0.00118049
0.000714579
0.000389803
0.000180251
9.22069e-05
9.91454e-05
0.00677161
0.00673097
0.00670716
0.00669533
0.00667453
0.00667507
0.00666943
0.00667116
0.00667117
0.00667379
0.00667595
0.0066791
0.00668218
0.00668571
0.0066893
0.0066932
0.00669721
0.00670151
0.00670598
0.00682512
0.00689766
0.00699411
0.00712108
0.00728156
0.00748458
0.00772563
0.00801835
0.00834096
0.00870161
0.00908376
0.00950832
0.00997628
0.0103819
0.0106903
0.0108806
0.0109331
0.0108376
0.0105805
0.010135
0.00942764
0.0084569
0.00734976
0.00615859
0.00496476
0.00380357
0.00274692
0.00186589
0.00119515
0.000719043
0.000389701
0.000179267
9.22388e-05
9.94314e-05
0.00682583
0.00676885
0.00672751
0.00670499
0.0066934
0.00667422
0.00667433
0.00666958
0.00667096
0.00667139
0.00667381
0.00667616
0.0066792
0.00668234
0.00668582
0.00668941
0.00669327
0.00669727
0.00670154
0.006706
0.00689904
0.0069969
0.00712614
0.00729093
0.00750035
0.00775275
0.00806198
0.00840896
0.00880871
0.00924358
0.00973218
0.0103157
0.0108801
0.011325
0.0115985
0.0117028
0.0116424
0.0114282
0.0110604
0.0105182
0.00972725
0.00868991
0.00753162
0.00629681
0.00506696
0.00387911
0.0027978
0.00189571
0.00120929
0.000723373
0.000389709
0.000178344
9.22598e-05
9.96598e-05
0.00690034
0.00682237
0.00676291
0.00672416
0.00670284
0.00669107
0.00667424
0.00667346
0.00666979
0.00667075
0.00667162
0.00667386
0.00667636
0.00667932
0.00668249
0.00668592
0.00668951
0.00669334
0.00669733
0.00670157
0.00670601
0.00699944
0.00713076
0.00729948
0.00751486
0.00777795
0.00810252
0.00847399
0.00891243
0.00939817
0.0099548
0.0106908
0.0114781
0.0121537
0.0125693
0.0127215
0.0126666
0.0124391
0.0120683
0.0115643
0.0109098
0.0100262
0.00891832
0.00770773
0.00643058
0.00516473
0.00395123
0.00284647
0.00192431
0.00122287
0.000727551
0.000389737
0.000177562
9.23001e-05
9.98515e-05
0.00700178
0.00689545
0.00681439
0.00675702
0.00672101
0.00670104
0.00668829
0.0066745
0.00667255
0.00667004
0.00667057
0.00667185
0.00667392
0.00667654
0.00667944
0.00668264
0.00668603
0.00668961
0.00669341
0.00669738
0.0067016
0.00670602
0.00713498
0.00730726
0.00752817
0.00780123
0.00814015
0.00853591
0.00901121
0.00954647
0.0101834
0.0111181
0.0121842
0.0131486
0.0138065
0.0140667
0.0140065
0.0137329
0.0132988
0.0127446
0.0120861
0.011307
0.0103232
0.00914154
0.00787786
0.00655951
0.00525807
0.00401991
0.00289291
0.00195165
0.00123588
0.000731588
0.000389795
0.00017692
9.23285e-05
0.000100058
0.00713883
0.00699514
0.00688372
0.00680644
0.00675138
0.00671803
0.00669979
0.00668531
0.00667487
0.00667166
0.00667028
0.00667043
0.00667205
0.00667402
0.00667672
0.00667957
0.00668277
0.00668613
0.00668971
0.00669348
0.00669743
0.00670163
0.00670603
0.00731434
0.00754035
0.00782261
0.00817504
0.00859437
0.00910405
0.00968968
0.010425
0.0115983
0.0129678
0.0142264
0.0151478
0.0156282
0.0156519
0.0153423
0.0148327
0.0141822
0.0134367
0.0126159
0.0117054
0.0106167
0.00935899
0.00804183
0.00668332
0.00534705
0.00408522
0.00293709
0.00197772
0.00124832
0.000735484
0.000389864
0.000176407
9.2374e-05
0.000100283
0.00732074
0.00712987
0.00697839
0.00687198
0.00679865
0.00674596
0.00671519
0.00669878
0.00668232
0.00667523
0.00667087
0.00667046
0.00667036
0.00667222
0.00667413
0.00667687
0.0066797
0.00668289
0.00668624
0.00668979
0.00669354
0.00669748
0.00670166
0.00670604
0.00755148
0.00784217
0.00820731
0.00864901
0.00919077
0.00982989
0.0106815
0.0121132
0.01377
0.0152794
0.0164229
0.0171253
0.0173664
0.0171555
0.0166188
0.0158967
0.0150482
0.0141218
0.0131425
0.0121003
0.0109049
0.00957007
0.00819949
0.00680188
0.00543163
0.00414709
0.00297903
0.00200252
0.00126017
0.000738722
0.000389941
0.000175858
9.24177e-05
0.000100526
0.00756152
0.00730914
0.00710624
0.00696158
0.00686049
0.006791
0.00674075
0.00671255
0.00669783
0.00667954
0.00667542
0.00667026
0.00667056
0.00667037
0.00667235
0.00667427
0.00667701
0.00667984
0.00668301
0.00668634
0.00668988
0.00669361
0.00669753
0.00670167
0.00670604
0.00786004
0.00823704
0.00869961
0.00927183
0.00996855
0.0109487
0.0126358
0.0145336
0.0162235
0.0175187
0.0183877
0.0188379
0.0188665
0.0184728
0.0177632
0.0168747
0.0158636
0.0147801
0.0136553
0.0124867
0.0111859
0.00977418
0.00835072
0.00691513
0.00551214
0.00420547
0.00301873
0.00202606
0.00126996
0.000741506
0.000390034
0.000175287
9.24847e-05
0.000100791
0.00787603
0.00754646
0.00727646
0.00708255
0.00694509
0.00684925
0.00678342
0.00673587
0.00671001
0.00669687
0.0066772
0.00667532
0.00666987
0.00667056
0.00667044
0.00667246
0.00667442
0.00667714
0.00667997
0.00668313
0.00668645
0.00668996
0.00669368
0.00669756
0.00670167
0.00670604
0.00826437
0.00874621
0.00934794
0.0101058
0.0112185
0.0131407
0.0152196
0.0170167
0.0183907
0.0193577
0.019957
0.0202026
0.020079
0.0195658
0.0187431
0.0177396
0.0166074
0.0153969
0.0141453
0.0128599
0.011458
0.0099708
0.00849545
0.00702294
0.00558902
0.00426055
0.00305626
0.00204542
0.0012783
0.000744573
0.000390162
0.000174687
9.25486e-05
0.000101078
0.00828881
0.00785719
0.00750161
0.00724364
0.00705929
0.00692898
0.00683823
0.00677588
0.00673134
0.00670746
0.00669571
0.00667574
0.00667488
0.00666972
0.00667048
0.00667057
0.00667255
0.00667458
0.00667727
0.00668011
0.00668324
0.00668655
0.00669004
0.00669371
0.00669756
0.00670167
0.00670604
0.008789
0.00941973
0.0102404
0.0114819
0.0136093
0.0158105
0.0176519
0.0190441
0.020047
0.0207301
0.021127
0.021233
0.0210158
0.0204383
0.0195547
0.0184831
0.0172695
0.015963
0.0146061
0.0132164
0.0117195
0.0101594
0.0086336
0.00712522
0.0056622
0.00431247
0.00308701
0.00206188
0.00128747
0.000747988
0.000390316
0.000174056
9.26429e-05
0.000101391
0.00882702
0.00826511
0.00779646
0.0074566
0.00721139
0.00703657
0.00691324
0.00682743
0.00676841
0.00672697
0.00670485
0.00669362
0.00667501
0.00667417
0.00666973
0.00667036
0.00667072
0.00667263
0.00667474
0.00667739
0.00668024
0.00668334
0.00668665
0.00669008
0.00669371
0.00669756
0.00670167
0.00670604
0.00948762
0.0103707
0.0117315
0.0140319
0.0163043
0.0181427
0.0195085
0.0204995
0.0212105
0.0216936
0.0219577
0.0219795
0.0217145
0.0211143
0.0202105
0.0191089
0.0178482
0.0164745
0.0150338
0.0135535
0.0119693
0.0103397
0.00876517
0.00722214
0.00573168
0.00435495
0.00311307
0.00207991
0.00129757
0.000751753
0.000390515
0.000173397
9.27336e-05
0.00010173
0.00954934
0.00879777
0.00818299
0.00773545
0.00741233
0.00717983
0.00701437
0.00689785
0.00681689
0.00676109
0.00672276
0.00670229
0.00669092
0.00667486
0.00667332
0.00666984
0.00667023
0.00667088
0.00667272
0.00667489
0.00667751
0.00668037
0.00668345
0.0066867
0.00669008
0.00669371
0.00669756
0.00670167
0.00670604
0.010495
0.0119656
0.0144056
0.0167084
0.0185112
0.0198209
0.0207666
0.0214631
0.0219788
0.0223358
0.022521
0.0224985
0.0222179
0.0216243
0.0207298
0.0196274
0.0183473
0.0169312
0.0154267
0.0138697
0.0122064
0.0105114
0.00889019
0.00731386
0.00578883
0.00439091
0.00314155
0.0020997
0.00130869
0.000755966
0.000390753
0.000172704
9.2865e-05
0.0001021
0.0106067
0.00951274
0.00868625
0.00810063
0.00767535
0.00736896
0.00714896
0.0069927
0.00688287
0.00680673
0.00675383
0.00671889
0.00670004
0.00668771
0.00667501
0.00667245
0.00666999
0.00667012
0.00667104
0.0066728
0.00667505
0.00667762
0.0066805
0.0066835
0.0066867
0.00669008
0.00669371
0.00669756
0.00670167
0.00670603
0.0121853
0.0147298
0.0170346
0.0187807
0.0200165
0.0208952
0.0215476
0.0220551
0.0224523
0.0227367
0.0228801
0.0228404
0.0225659
0.0219985
0.0211337
0.0200515
0.0187735
0.0173353
0.0157845
0.014164
0.0124303
0.0106742
0.0090087
0.00738909
0.00583737
0.00443021
0.00317272
0.00212144
0.00132097
0.00076061
0.00039105
0.000171984
9.29936e-05
0.000102498
0.0105653
0.0123805
0.00935053
0.00857606
0.00801934
0.00761643
0.00732651
0.00711881
0.00697157
0.00686835
0.00679713
0.00674695
0.00671532
0.0066986
0.00668449
0.00667524
0.00667167
0.00667012
0.00667004
0.00667119
0.0066729
0.00667519
0.00667774
0.00668057
0.00668349
0.0066867
0.00669008
0.00669371
0.00669756
0.00670166
0.00670602
0.0150058
0.0172954
0.0189728
0.0201252
0.0209244
0.0215128
0.0219825
0.0223797
0.0227121
0.0229595
0.0230854
0.0230463
0.0227921
0.0222637
0.0214421
0.0203949
0.0191348
0.0176906
0.0161084
0.0144364
0.0126408
0.0108283
0.00910601
0.00745292
0.00589058
0.00447318
0.00320684
0.00214534
0.00133453
0.000765795
0.000391407
0.000171227
9.31763e-05
0.000102934
0.0103171
0.0123412
0.0152306
0.00919474
0.00846775
0.00793945
0.00755868
0.00728498
0.00708939
0.00695106
0.00685437
0.00678788
0.00674048
0.00671206
0.00669744
0.00668155
0.0066754
0.00667103
0.0066702
0.00667001
0.00667132
0.006673
0.00667533
0.00667779
0.00668057
0.00668349
0.0066867
0.00669008
0.00669371
0.00669753
0.00670163
0.00670601
0.0175025
0.0191058
0.0201709
0.0208842
0.0213964
0.021808
0.0221745
0.0225149
0.0228175
0.0230508
0.0231749
0.0231483
0.0229243
0.022443
0.0216731
0.0206705
0.0194393
0.0180015
0.0164003
0.0146875
0.0128379
0.0109544
0.00918861
0.00752276
0.00594894
0.00452024
0.00324425
0.00217163
0.00134954
0.000771617
0.000391841
0.000170448
9.33589e-05
0.000103399
0.0100731
0.0119874
0.0151648
0.0176564
0.00904629
0.00836099
0.00786108
0.00750212
0.00724443
0.00706078
0.0069312
0.0068409
0.00677899
0.00673446
0.0067092
0.00669638
0.00667908
0.00667537
0.00667057
0.00667023
0.00667002
0.00667144
0.00667311
0.00667541
0.00667779
0.00668057
0.00668349
0.0066867
0.00669008
0.00669368
0.00669748
0.0067016
0.00670599
0.0191938
0.0201721
0.0207976
0.0212269
0.0215664
0.02188
0.0221966
0.0225152
0.0228104
0.0230441
0.023177
0.0231714
0.0229842
0.0225551
0.0218418
0.0208898
0.019695
0.0182727
0.0166624
0.014918
0.0129974
0.0110611
0.00927901
0.00759928
0.00601301
0.00457181
0.00328529
0.0022006
0.00136616
0.000778096
0.000392363
0.000169629
9.3614e-05
0.000103908
0.00984437
0.0116041
0.014811
0.0175577
0.0192393
0.0089029
0.00825572
0.00778434
0.00744682
0.00720494
0.00703303
0.00691203
0.00682798
0.00677057
0.00672913
0.00670658
0.00669529
0.00667732
0.00667511
0.00667028
0.00667021
0.00667007
0.00667155
0.00667317
0.00667541
0.00667778
0.00668057
0.00668349
0.0066867
0.00669004
0.00669361
0.00669743
0.00670157
0.00670598
0.0201424
0.0206813
0.0210249
0.021284
0.0215285
0.0217967
0.0220988
0.0224181
0.0227198
0.0229632
0.0231125
0.0231347
0.0229893
0.0226153
0.0219609
0.0210626
0.019909
0.0185088
0.0168973
0.015101
0.0131316
0.0111776
0.00937802
0.00768316
0.00608342
0.0046284
0.00333037
0.00223256
0.00138461
0.000785332
0.000392984
0.000168795
9.38749e-05
0.000104447
0.00963025
0.0112262
0.0143698
0.0173278
0.0190879
0.0200817
0.00876283
0.00815217
0.00770933
0.00739291
0.00716662
0.0070062
0.00689367
0.0068159
0.00676278
0.00672455
0.00670408
0.00669373
0.0066763
0.00667464
0.00667014
0.00667016
0.00667015
0.00667159
0.00667316
0.00667541
0.00667778
0.00668057
0.0066835
0.00668665
0.00668996
0.00669354
0.00669738
0.00670154
0.00670597
0.0205472
0.0208056
0.0209799
0.0211444
0.0213453
0.0216037
0.0219144
0.0222486
0.0225653
0.0228251
0.0229972
0.023053
0.0229532
0.0226358
0.022041
0.0211975
0.0200878
0.0187141
0.0170793
0.015253
0.0132766
0.0113046
0.00948648
0.00777521
0.00616085
0.00469058
0.00337994
0.00226784
0.0014051
0.00079345
0.000393737
0.000167916
9.42335e-05
0.000105037
0.0094278
0.0108672
0.0138816
0.0170113
0.0189314
0.0198757
0.0203907
0.00862547
0.00805066
0.00763624
0.00734051
0.00712955
0.00698051
0.00687658
0.00680484
0.00675547
0.00672045
0.00670173
0.00669159
0.00667582
0.00667403
0.00667011
0.00667009
0.00667022
0.00667157
0.00667316
0.00667541
0.00667779
0.00668057
0.00668345
0.00668655
0.00668988
0.00669347
0.00669732
0.00670151
0.00670595
0.0205792
0.0206679
0.020746
0.0208656
0.0210585
0.0213316
0.021666
0.0220233
0.0223604
0.0226422
0.0228433
0.0229378
0.0228868
0.0226265
0.0220906
0.0213015
0.0202368
0.0188684
0.0172282
0.015415
0.0134333
0.0114431
0.00960533
0.00787629
0.0062461
0.00475899
0.00343452
0.00230685
0.00142791
0.000802552
0.000394616
0.000167021
9.46088e-05
0.000105653
0.0092345
0.0105311
0.0133681
0.016633
0.0187046
0.0197525
0.0201299
0.0203357
0.0084909
0.0079515
0.00756525
0.00728977
0.00709407
0.00695663
0.00686098
0.00679473
0.00674871
0.00671686
0.00669972
0.006689
0.00667568
0.00667336
0.00667016
0.00666999
0.00667024
0.00667156
0.00667316
0.00667541
0.00667779
0.0066805
0.00668334
0.00668644
0.00668979
0.00669341
0.00669727
0.00670148
0.00670594
0.0203575
0.0203467
0.0203758
0.0204859
0.0206964
0.021001
0.0213679
0.0217528
0.0221144
0.0224238
0.0226602
0.0227985
0.0227984
0.0225949
0.0221164
0.0213807
0.0203434
0.0189926
0.0173843
0.0155872
0.013602
0.0115939
0.00973555
0.00798738
0.00634003
0.00483436
0.00349471
0.00235004
0.00145332
0.000812785
0.000395692
0.000166046
9.5112e-05
0.000106445
0.00904871
0.0102193
0.0128402
0.016205
0.0184338
0.0195721
0.0200096
0.0200196
0.0200325
0.00835944
0.00785508
0.00749657
0.00724121
0.00706112
0.00693488
0.00684678
0.00678563
0.0067425
0.00671374
0.00669838
0.00668635
0.00667571
0.00667271
0.0066703
0.00666988
0.00667026
0.00667156
0.00667316
0.00667541
0.00667774
0.00668037
0.00668323
0.00668634
0.0066897
0.00669334
0.00669721
0.00670145
0.00670592
0.0199555
0.0198896
0.0199047
0.020032
0.0202793
0.0206251
0.0210287
0.0214438
0.0218341
0.0221774
0.0224556
0.0226421
0.0226947
0.0225471
0.0221241
0.0214305
0.0204273
0.0191199
0.017547
0.0157695
0.0137835
0.0117579
0.00987819
0.00810952
0.00644361
0.00491751
0.00356115
0.00239793
0.00148169
0.000824311
0.000396932
0.000165075
9.57593e-05
0.000107378
0.00886967
0.00993163
0.0123061
0.0157284
0.0181316
0.0193632
0.0198404
0.0198827
0.0196601
0.0195561
0.00823136
0.00776181
0.00743086
0.00719612
0.00703114
0.0069151
0.0068339
0.00677749
0.0067369
0.00671092
0.00669728
0.00668389
0.00667583
0.00667217
0.00667044
0.00666982
0.00667026
0.00667157
0.00667317
0.00667533
0.00667762
0.00668024
0.00668312
0.00668623
0.00668961
0.00669327
0.00669714
0.00670143
0.0067059
0.0194163
0.0193298
0.0193579
0.0195242
0.0198192
0.0202112
0.0206532
0.0211004
0.0215247
0.0219093
0.0222359
0.0224747
0.0225809
0.0224879
0.0221168
0.0214673
0.0205102
0.0192492
0.0177157
0.0159616
0.0139778
0.0119359
0.0100343
0.00824386
0.00655793
0.00500941
0.00363469
0.00245112