/*--------------------------------*- C++ -*----------------------------------*\
  =========                 |
  \\      /  F ield         | OpenFOAM: The Open Source CFD Toolbox
   \\    /   O peration     | Website:  https://openfoam.org
    \\  /    A nd           | Version:  8
     \\/     M anipulation  |
\*---------------------------------------------------------------------------*/
FoamFile
{
    version     2.0;
    format      ascii;
    class       volScalarField;
    location    "0.1";
    object      k;
}
// * * * * * * * * * * * * * * * * * * * * * * * * * * * * * * * * * * * * * //

dimensions      [0 2 -2 0 0 0 0];

internalField   nonuniform List<scalar> 
15677
(
0.334161
0.365034
0.294765
0.368733
0.357704
0.281044
0.370694
0.360086
0.366147
0.282769
0.371885
0.361638
0.361486
0.383352
0.288891
0.372611
0.363747
0.357749
0.368359
0.401713
0.300301
0.373038
0.365665
0.357857
0.358176
0.380148
0.419398
0.311813
0.373262
0.367182
0.359469
0.354609
0.361067
0.393329
0.434797
0.322611
0.373347
0.368307
0.361363
0.354791
0.353085
0.366928
0.406204
0.447901
0.332104
0.373348
0.369084
0.363069
0.356355
0.351142
0.353523
0.373589
0.418299
0.45875
0.34048
0.373313
0.369569
0.364444
0.358231
0.351947
0.34881
0.354808
0.380718
0.42912
0.467885
0.347557
0.373274
0.369826
0.365464
0.359969
0.353729
0.348403
0.347168
0.357135
0.387676
0.438825
0.475391
0.353772
0.373249
0.369927
0.366149
0.361402
0.355672
0.349781
0.345372
0.346342
0.359722
0.394445
0.447231
0.481802
0.358947
0.373239
0.369941
0.366548
0.362481
0.35743
0.351735
0.34622
0.342944
0.3459
0.362612
0.400678
0.454676
0.487094
0.36361
0.373239
0.369924
0.366737
0.363212
0.358861
0.353692
0.348082
0.343109
0.340872
0.345909
0.365468
0.40652
0.461001
0.491644
0.367665
0.37324
0.369908
0.366795
0.363637
0.359917
0.355398
0.350164
0.344765
0.3403
0.339202
0.346037
0.368357
0.411681
0.466582
0.495419
0.371263
0.37324
0.3699
0.366795
0.363835
0.360608
0.356744
0.352093
0.346893
0.341706
0.33783
0.337744
0.346359
0.371021
0.41643
0.471213
0.498759
0.374546
0.37324
0.369897
0.366786
0.363893
0.360989
0.357696
0.353692
0.348989
0.343839
0.338936
0.335584
0.336529
0.346744
0.373622
0.420455
0.475284
0.501632
0.377354
0.37324
0.369894
0.366777
0.3639
0.361138
0.358282
0.35489
0.350807
0.346068
0.341031
0.336381
0.333597
0.335446
0.347248
0.37587
0.424076
0.478623
0.504173
0.380187
0.37324
0.369893
0.366771
0.363894
0.361182
0.358551
0.355682
0.352232
0.348077
0.343358
0.338425
0.334079
0.331777
0.334571
0.347669
0.377973
0.427018
0.481545
0.506519
0.382405
0.37324
0.369892
0.366767
0.363886
0.361187
0.358655
0.356081
0.353229
0.349708
0.345532
0.340838
0.336058
0.331958
0.330199
0.333764
0.348137
0.379677
0.429627
0.483929
0.508535
0.385042
0.37324
0.36989
0.366765
0.36388
0.36118
0.358686
0.356254
0.353773
0.350895
0.347353
0.343165
0.338538
0.333883
0.330091
0.328765
0.333122
0.348478
0.38122
0.431624
0.486009
0.510644
0.38681
0.37324
0.36989
0.366763
0.363875
0.361173
0.358688
0.356319
0.354035
0.351576
0.348731
0.345164
0.341001
0.336442
0.331968
0.32841
0.327565
0.332524
0.348823
0.38237
0.433413
0.487712
0.512321
0.389427
0.37324
0.369889
0.366762
0.363871
0.361166
0.35868
0.356334
0.354147
0.351922
0.349564
0.346713
0.343168
0.339052
0.334606
0.330264
0.327004
0.326512
0.332086
0.349062
0.38341
0.434641
0.489234
0.514453
0.390878
0.37324
0.369888
0.366761
0.363868
0.361161
0.358671
0.356331
0.354185
0.352083
0.350012
0.347673
0.344898
0.341397
0.337351
0.333
0.328872
0.325827
0.325741
0.331716
0.349288
0.384081
0.43584
0.490457
0.515872
0.393497
0.37324
0.369888
0.36676
0.363865
0.361156
0.358662
0.356322
0.354188
0.352146
0.350237
0.348206
0.346019
0.343293
0.339853
0.335924
0.331756
0.327765
0.324974
0.325114
0.331498
0.349479
0.384748
0.436503
0.491756
0.518407
0.394897
0.37324
0.369888
0.36676
0.363863
0.361153
0.358654
0.356312
0.354178
0.352161
0.350332
0.348485
0.34667
0.344526
0.341933
0.338656
0.334865
0.330777
0.326984
0.324384
0.324899
0.331528
0.349732
0.385122
0.437351
0.49259
0.520062
0.505248
0.373241
0.369888
0.366759
0.363862
0.361151
0.358648
0.356304
0.354164
0.352156
0.350359
0.348615
0.347026
0.345249
0.343362
0.340936
0.337729
0.334082
0.330314
0.326763
0.324395
0.324997
0.33168
0.349979
0.385559
0.43773
0.494466
0.528768
0.713826
0.373241
0.369887
0.366759
0.36386
0.361149
0.358643
0.356296
0.35415
0.352143
0.350355
0.348663
0.347194
0.345658
0.344242
0.342448
0.340192
0.337374
0.33408
0.330423
0.326957
0.324645
0.325333
0.332033
0.350353
0.385881
0.438542
0.495012
0.545622
0.892698
0.373241
0.369887
0.366758
0.363859
0.361147
0.35864
0.35629
0.354139
0.352129
0.350336
0.348669
0.347255
0.345872
0.344751
0.343369
0.342013
0.340223
0.337567
0.334399
0.330898
0.327543
0.325284
0.326035
0.332719
0.350874
0.386284
0.439128
0.494736
0.558682
1.03828
0.373241
0.369887
0.366758
0.363859
0.361146
0.358637
0.356285
0.354129
0.352116
0.350315
0.348656
0.34726
0.345967
0.345003
0.343921
0.343189
0.342175
0.3406
0.338201
0.335248
0.331946
0.328742
0.326525
0.327245
0.33375
0.35159
0.386903
0.438876
0.493272
0.568535
1.16552
0.373241
0.369887
0.366758
0.363858
0.361145
0.358634
0.356281
0.354121
0.352104
0.350296
0.348634
0.34724
0.345994
0.345106
0.344254
0.343915
0.343438
0.342762
0.341543
0.339528
0.336912
0.333841
0.330679
0.328405
0.328921
0.335175
0.352606
0.387426
0.437994
0.490188
0.57536
1.26988
0.373241
0.369887
0.366758
0.363857
0.361144
0.358632
0.356278
0.354115
0.352094
0.350279
0.348613
0.347211
0.345984
0.345129
0.344421
0.344299
0.344229
0.344178
0.344013
0.343379
0.341806
0.339491
0.336547
0.333381
0.330918
0.331144
0.337026
0.353875
0.387883
0.436171
0.484868
0.579924
1.34779
0.373241
0.369887
0.366758
0.363857
0.361143
0.35863
0.356275
0.35411
0.352086
0.350265
0.348593
0.347181
0.345956
0.345111
0.344482
0.344492
0.344686
0.345087
0.345684
0.346264
0.346218
0.345077
0.343028
0.340177
0.336885
0.334157
0.333921
0.339343
0.355401
0.388025
0.433081
0.478222
0.582854
1.40793
0.373241
0.369887
0.366758
0.363856
0.361142
0.358629
0.356272
0.354105
0.352078
0.350254
0.348576
0.347155
0.345925
0.345075
0.344486
0.344569
0.344926
0.345642
0.346796
0.348235
0.349569
0.350174
0.349464
0.347657
0.344791
0.341299
0.338133
0.33732
0.342113
0.35712
0.38793
0.428996
0.471582
0.585357
1.45631
0.369887
0.373245
0.366758
0.363856
0.361142
0.358627
0.35627
0.354102
0.352072
0.350244
0.348561
0.347133
0.345896
0.345037
0.344458
0.344582
0.345036
0.345956
0.347512
0.349584
0.351916
0.354108
0.355401
0.355115
0.353458
0.35051
0.346643
0.342929
0.341308
0.345335
0.359315
0.387638
0.42481
0.465357
0.587767
1.49687
0.366758
0.369897
0.373252
0.363856
0.361141
0.358626
0.356268
0.354098
0.352067
0.350235
0.348548
0.347113
0.34587
0.345001
0.344422
0.344561
0.345071
0.346119
0.34795
0.350488
0.353574
0.35693
0.36006
0.362072
0.362144
0.360575
0.357366
0.353015
0.348511
0.34592
0.349317
0.362019
0.387282
0.420757
0.45976
0.590603
1.53218
0.363856
0.366774
0.369918
0.37326
0.361141
0.358625
0.356267
0.354095
0.352062
0.350228
0.348537
0.347097
0.345846
0.344969
0.344385
0.344529
0.345067
0.346196
0.348209
0.351083
0.354736
0.358991
0.363485
0.367627
0.370331
0.37071
0.369053
0.365476
0.360381
0.354921
0.351735
0.354268
0.365094
0.386956
0.416979
0.454861
0.59364
1.5638
0.36114
0.363877
0.366808
0.369939
0.373267
0.358624
0.356265
0.354093
0.352058
0.350222
0.348527
0.347083
0.345826
0.344941
0.344351
0.344495
0.345046
0.346224
0.348363
0.351477
0.355554
0.360501
0.366068
0.371808
0.376985
0.380363
0.380884
0.379033
0.374806
0.368799
0.36293
0.359074
0.359744
0.368378
0.387009
0.413629
0.450674
0.5972
1.59281
0.358624
0.361167
0.363922
0.366843
0.369961
0.373275
0.356264
0.354091
0.352055
0.350217
0.348519
0.34707
0.345808
0.344917
0.344321
0.344463
0.345022
0.346231
0.348454
0.351751
0.356149
0.361631
0.368045
0.375065
0.38211
0.388345
0.392268
0.392828
0.390483
0.385443
0.379281
0.372977
0.367232
0.36571
0.372106
0.387297
0.410646
0.447108
0.600863
1.6197
0.356263
0.358655
0.361223
0.363968
0.366878
0.369984
0.373284
0.354089
0.352052
0.350212
0.348511
0.34706
0.345793
0.344896
0.344295
0.344435
0.344998
0.346229
0.348513
0.351949
0.356611
0.362519
0.369611
0.377662
0.386226
0.394637
0.401843
0.406232
0.406519
0.403524
0.398657
0.392383
0.384112
0.37614
0.372081
0.37595
0.387914
0.408199
0.444033
0.604922
1.645
0.354087
0.356298
0.358719
0.36128
0.364015
0.366915
0.370007
0.373292
0.352049
0.350208
0.348505
0.347051
0.345779
0.344878
0.344273
0.344411
0.344978
0.346226
0.348557
0.352102
0.356984
0.363264
0.370921
0.379828
0.389648
0.399852
0.409565
0.417702
0.422254
0.422107
0.419709
0.41516
0.406874
0.396238
0.385695
0.378904
0.379935
0.388948
0.406211
0.441486
0.608935
1.66876
0.352047
0.354125
0.356371
0.358785
0.361338
0.364064
0.366952
0.370031
0.373301
0.350204
0.348499
0.347043
0.345767
0.344862
0.344253
0.34439
0.34496
0.346223
0.348595
0.352231
0.357295
0.363907
0.372086
0.381733
0.392625
0.404348
0.416168
0.427183
0.435956
0.440526
0.441457
0.439913
0.433385
0.422621
0.409226
0.395813
0.386095
0.384092
0.390264
0.40466
0.439322
0.613209
1.69135
0.350201
0.352088
0.354205
0.356446
0.358853
0.361398
0.364114
0.36699
0.370056
0.37331
0.348494
0.347037
0.345756
0.344849
0.344236
0.344371
0.344945
0.346222
0.348628
0.352345
0.357568
0.364466
0.373139
0.383506
0.395357
0.408415
0.422053
0.435526
0.447565
0.456882
0.463267
0.465651
0.462219
0.453161
0.439455
0.422947
0.406404
0.393575
0.388412
0.391847
0.403542
0.437596
0.61732
1.7126
0.34849
0.350243
0.352173
0.354286
0.356523
0.358923
0.36146
0.364165
0.36703
0.370081
0.373319
0.347031
0.345746
0.344839
0.344221
0.344356
0.344932
0.346222
0.34866
0.352449
0.357814
0.364969
0.374085
0.385163
0.397992
0.412286
0.427563
0.443198
0.458053
0.47107
0.48307
0.491856
0.492426
0.486435
0.47428
0.457204
0.437265
0.417364
0.401279
0.392867
0.393526
0.402804
0.436156
0.621594
1.73287
0.347025
0.348532
0.350331
0.352261
0.35437
0.356602
0.358995
0.361523
0.364218
0.36707
0.370107
0.373328
0.345738
0.344829
0.344208
0.344342
0.344921
0.346222
0.348689
0.352545
0.358038
0.365428
0.374949
0.386684
0.400526
0.416134
0.432971
0.45061
0.467986
0.48423
0.500655
0.516228
0.523721
0.521621
0.512327
0.496528
0.475686
0.452038
0.428594
0.409135
0.397473
0.395305
0.402352
0.435055
0.625624
1.75188
0.345731
0.347065
0.348621
0.350422
0.352352
0.354457
0.356684
0.359068
0.361588
0.364272
0.367112
0.370133
0.373338
0.344822
0.344196
0.34433
0.344912
0.346224
0.348717
0.352633
0.358244
0.36585
0.375745
0.388092
0.402897
0.419922
0.438485
0.458093
0.477859
0.497052
0.517425
0.538453
0.55347
0.558683
0.553003
0.539672
0.519692
0.494719
0.467127
0.439993
0.417083
0.402177
0.39718
0.402164
0.434152
0.629754
1.77005
0.344816
0.345764
0.347152
0.348714
0.350517
0.352445
0.354546
0.356768
0.359144
0.361656
0.364327
0.367155
0.37016
0.373347
0.344183
0.344319
0.344904
0.346226
0.348743
0.352714
0.358433
0.366238
0.37648
0.389401
0.40512
0.423523
0.444021
0.465913
0.488088
0.510151
0.534241
0.560311
0.581343
0.594703
0.59651
0.586315
0.568241
0.543562
0.514126
0.482396
0.451466
0.425065
0.406936
0.399128
0.402208
0.433512
0.633592
1.78698
0.344173
0.344843
0.34584
0.347241
0.348809
0.350614
0.352542
0.354637
0.356854
0.359222
0.361724
0.364384
0.367199
0.370187
0.373356
0.344309
0.344898
0.346229
0.348768
0.352789
0.358606
0.366594
0.377158
0.390618
0.407206
0.426935
0.449368
0.473935
0.499005
0.524056
0.551908
0.582949
0.609606
0.629393
0.639787
0.636966
0.621285
0.597786
0.567928
0.533742
0.497719
0.462929
0.433026
0.41171
0.401142
0.402341
0.433015
0.637497
1.80319
0.344303
0.344175
0.344905
0.345917
0.347333
0.348909
0.350714
0.352641
0.354732
0.356943
0.359302
0.361795
0.364442
0.367242
0.370213
0.373365
0.344891
0.346231
0.34879
0.352857
0.358764
0.366921
0.377782
0.391746
0.409159
0.430163
0.454504
0.481811
0.510387
0.539233
0.571173
0.60751
0.639849
0.665706
0.6827
0.68863
0.679832
0.657647
0.628065
0.592606
0.553417
0.512987
0.474303
0.440916
0.416467
0.403195
0.402597
0.432741
0.641077
1.8182
0.344888
0.344287
0.344185
0.344969
0.346
0.347429
0.349013
0.350817
0.352744
0.354829
0.357035
0.359384
0.361867
0.3645
0.367284
0.370239
0.373374
0.346232
0.34881
0.35292
0.358909
0.36722
0.378355
0.39279
0.410979
0.433206
0.45942
0.489458
0.521702
0.555436
0.592762
0.635129
0.67379
0.706013
0.729285
0.741575
0.741236
0.724921
0.69516
0.658846
0.617419
0.573022
0.528103
0.485522
0.448692
0.421175
0.405289
0.402937
0.432543
0.644712
1.83259
0.346239
0.344842
0.344257
0.344196
0.345036
0.346089
0.347529
0.34912
0.350923
0.35285
0.354928
0.357129
0.359468
0.361939
0.364556
0.367325
0.370263
0.373382
0.348826
0.352975
0.35904
0.367493
0.378881
0.393753
0.41267
0.436064
0.464098
0.496833
0.532841
0.571962
0.616344
0.666981
0.713417
0.753301
0.783441
0.801609
0.806593
0.797709
0.772096
0.733613
0.689928
0.642208
0.592438
0.542983
0.496529
0.456314
0.425811
0.407401
0.403341
0.43251
0.648002
1.84583
0.348848
0.346147
0.34474
0.344221
0.344223
0.345106
0.346184
0.347632
0.349232
0.351033
0.352959
0.355031
0.357225
0.359552
0.362009
0.364611
0.367364
0.370287
0.37339
0.353024
0.359158
0.367742
0.379362
0.394639
0.414236
0.438736
0.468524
0.503906
0.543767
0.588599
0.640719
0.70288
0.761422
0.811759
0.85071
0.87524
0.884361
0.878449
0.85819
0.821236
0.772822
0.721137
0.666831
0.611568
0.557559
0.507273
0.463753
0.430353
0.409513
0.403795
0.432542
0.651351
1.85856
0.353079
0.34868
0.345932
0.344629
0.344183
0.344269
0.345177
0.346285
0.347738
0.349348
0.351145
0.353072
0.355136
0.35732
0.359633
0.362076
0.364664
0.367403
0.370311
0.373398
0.359265
0.367966
0.3798
0.395452
0.415682
0.441224
0.472691
0.510657
0.554428
0.605162
0.665468
0.74172
0.819376
0.887528
0.938992
0.971686
0.984503
0.978952
0.957622
0.922709
0.872199
0.812609
0.752315
0.691167
0.630331
0.571774
0.517718
0.470981
0.434783
0.411607
0.404291
0.432621
0.654346
1.86877
0.359375
0.352821
0.348275
0.345705
0.344529
0.344144
0.344328
0.345251
0.346393
0.347848
0.349468
0.351262
0.353187
0.35524
0.357413
0.359712
0.362142
0.364715
0.36744
0.370333
0.373406
0.36817
0.380198
0.396195
0.417015
0.443535
0.476599
0.517071
0.564753
0.621458
0.690541
0.783895
0.886832
0.984285
1.05802
1.10232
1.1197
1.1126
1.08573
1.04404
0.99106
0.924769
0.852789
0.783322
0.715111
0.648658
0.585583
0.527834
0.477978
0.439087
0.413671
0.404812
0.432771
0.656985
1.87737
0.368372
0.358996
0.352162
0.347851
0.345497
0.344439
0.344109
0.344399
0.345329
0.346506
0.347962
0.349592
0.351382
0.353301
0.355342
0.357503
0.359789
0.362206
0.364766
0.367477
0.370355
0.373414
0.380562
0.396873
0.418238
0.445675
0.480252
0.523138
0.574678
0.637368
0.716093
0.829889
0.963562
1.09847
1.20977
1.2776
1.30251
1.29389
1.25829
1.20363
1.13694
1.06274
0.978629
0.893161
0.814024
0.738572
0.666492
0.598951
0.537597
0.484728
0.443252
0.415695
0.405357
0.43293
0.659123
1.88666
0.380911
0.36784
0.357976
0.351476
0.347454
0.345307
0.344358
0.344081
0.344478
0.345411
0.346624
0.348081
0.349719
0.351501
0.353412
0.355441
0.35759
0.359864
0.362268
0.364814
0.367512
0.370377
0.373421
0.397496
0.41936
0.447652
0.483657
0.528852
0.58416
0.652856
0.74229
0.879492
1.04778
1.22507
1.38251
1.49345
1.541
1.53408
1.48964
1.41818
1.33041
1.23495
1.13697
1.03337
0.933506
0.844296
0.761475
0.683785
0.611851
0.546991
0.49122
0.447269
0.417668
0.405837
0.433092
0.661513
1.8968
0.398081
0.380185
0.366313
0.356921
0.350828
0.347085
0.345131
0.344285
0.344064
0.344563
0.3455
0.346746
0.348205
0.349845
0.351618
0.35352
0.355538
0.357675
0.359937
0.362328
0.364862
0.367546
0.370398
0.373424
0.420397
0.449475
0.486822
0.534213
0.59318
0.667933
0.769146
0.931788
1.1365
1.35823
1.56571
1.72921
1.82421
1.83813
1.78876
1.7007
1.58789
1.46319
1.33636
1.21281
1.08853
0.97359
0.874015
0.783756
0.700502
0.624264
0.556005
0.497448
0.451132
0.419331
0.406267
0.433289
0.664053
1.90782
0.421348
0.397117
0.377953
0.364744
0.355918
0.350215
0.346738
0.344966
0.344222
0.344057
0.344652
0.345598
0.346871
0.34833
0.349968
0.351733
0.353625
0.355632
0.357758
0.360007
0.362387
0.364908
0.36758
0.370408
0.373424
0.451171
0.48976
0.539228
0.60174
0.682616
0.796492
0.98552
1.22669
1.49264
1.75107
1.97098
2.12447
2.18961
2.15856
2.05828
1.92082
1.76296
1.59906
1.43938
1.28926
1.14361
1.01318
0.90307
0.805359
0.716614
0.636176
0.564633
0.503405
0.454348
0.420766
0.406756
0.433549
0.666935
1.91993
0.4527
0.420098
0.393908
0.375675
0.36325
0.354964
0.34963
0.346411
0.344815
0.344171
0.344063
0.344745
0.345704
0.346996
0.348453
0.350087
0.351844
0.353727
0.355724
0.357838
0.360076
0.362444
0.364953
0.367596
0.370408
0.373424
0.492505
0.543914
0.609855
0.696907
0.824038
1.03945
1.31591
1.62441
1.93263
2.20964
2.42607
2.55556
2.57882
2.49328
2.33549
2.14459
1.93952
1.73538
1.54236
1.36536
1.19811
1.05204
0.931357
0.826236
0.7321
0.647581
0.572872
0.508341
0.457103
0.422367
0.407328
0.433863
0.669986
1.93308
0.49494
0.451092
0.415538
0.390661
0.373506
0.361822
0.354046
0.34907
0.346104
0.344676
0.344131
0.344085
0.344838
0.345815
0.347117
0.348575
0.350204
0.351954
0.353826
0.355813
0.357917
0.360143
0.362499
0.364975
0.367596
0.370408
0.373424
0.548316
0.617558
0.710799
0.851457
1.09253
1.40245
1.7511
2.10668
2.43918
2.71938
2.9187
3.01192
2.98285
2.83492
2.61462
2.36767
2.11443
1.86998
1.64388
1.44026
1.25161
1.08997
0.958781
0.84635
0.746949
0.658475
0.579689
0.512557
0.460149
0.424156
0.407983
0.434265
0.673463
1.94757
0.55218
0.492895
0.444662
0.410967
0.387569
0.371425
0.360443
0.353162
0.348533
0.345821
0.34455
0.3441
0.344131
0.344928
0.345929
0.347235
0.348695
0.350317
0.35206
0.353923
0.3559
0.357993
0.360208
0.362526
0.364975
0.367596
0.370408
0.373424
0.624902
0.724292
0.878461
1.144
1.48521
1.87128
2.27115
2.65609
2.99808
3.2684
3.43856
3.4846
3.39415
3.17746
2.89111
2.58675
2.28531
2.00118
1.7428
1.51328
1.30372
1.12679
0.985267
0.865675
0.761151
0.667493
0.585504
0.517202
0.463523
0.426159
0.408755
0.434742
0.677142
1.96329
0.631363
0.549563
0.483845
0.438282
0.406614
0.384596
0.369411
0.35911
0.352311
0.348017
0.345559
0.344434
0.344063
0.344199
0.345016
0.346044
0.34735
0.348812
0.350427
0.352164
0.354017
0.355984
0.358066
0.360241
0.362526
0.364975
0.367596
0.370408
0.373424
0.737374
0.904815
1.19332
1.56355
1.98423
2.42504
2.85855
3.25846
3.59747
3.84643
3.9766
3.96575
3.80627
3.51599
3.16143
2.79934
2.45041
2.12775
1.83829
1.58386
1.35412
1.16235
1.01075
0.884187
0.772917
0.675187
0.591907
0.522331
0.467267
0.428412
0.409643
0.43534
0.681373
1.98063
0.748945
0.628049
0.536694
0.474975
0.432208
0.402422
0.381713
0.367459
0.357823
0.351494
0.347527
0.345315
0.344333
0.344029
0.344277
0.345103
0.346159
0.347463
0.348927
0.350535
0.352265
0.354108
0.356067
0.358103
0.360241
0.362526
0.364975
0.367596
0.370408
0.373421
0.930302
1.24017
1.63716
2.08966
2.56801
3.04587
3.49873
3.90158
4.22681
4.44414
4.52454
4.44832
4.2137
3.84656
3.42293
3.00368
2.60854
2.24887
1.92977
1.6516
1.40259
1.19653
1.03519
0.899545
0.782963
0.683662
0.598968
0.528001
0.471431
0.430946
0.410694
0.435993
0.685851
1.99939
0.744881
0.952695
0.608949
0.52435
0.46653
0.426351
0.398353
0.378914
0.36557
0.356583
0.350712
0.347066
0.345096
0.344246
0.344005
0.34436
0.34519
0.346273
0.347575
0.34904
0.35064
0.352364
0.354197
0.356107
0.358103
0.360241
0.362526
0.364975
0.367596
0.370398
0.373413
1.28429
1.70593
2.18758
2.7001
3.21803
3.71839
4.17868
4.57427
4.87631
5.0528
5.07472
4.92601
4.61175
4.16605
3.67364
3.19856
2.75895
2.364
2.01683
1.71624
1.44896
1.22925
1.05546
0.912665
0.794034
0.693011
0.606768
0.534281
0.476072
0.43381
0.411906
0.436765
0.691045
2.02014
0.714848
0.948625
1.3223
0.591196
0.512642
0.458376
0.420662
0.394397
0.376202
0.363746
0.355392
0.349968
0.34664
0.344904
0.344175
0.343994
0.344446
0.345279
0.346384
0.347684
0.34915
0.350742
0.35246
0.354241
0.356107
0.358103
0.360241
0.362526
0.364975
0.36758
0.370377
0.373406
1.76981
2.27816
2.82167
3.37546
3.91779
4.42845
4.88629
5.26611
5.53681
5.66421
5.62003
5.39321
4.99652
4.47204
3.91221
3.38325
2.9012
2.47287
2.09929
1.77762
1.49312
1.25634
1.07278
0.927134
0.806252
0.70334
0.615396
0.541249
0.481255
0.437049
0.413346
0.43762
0.696539
2.04248
0.68727
0.900892
1.31842
1.82425
0.574644
0.50133
0.450451
0.415128
0.39056
0.373579
0.361991
0.354253
0.34927
0.346259
0.344738
0.34412
0.343996
0.344532
0.34537
0.346494
0.347791
0.349257
0.350843
0.352507
0.354241
0.356107
0.358103
0.360241
0.362526
0.364952
0.367546
0.370355
0.373398
2.36156
2.93321
3.51894
4.09788
4.65174
5.16271
5.6103
5.96748
6.1997
6.2706
6.15395
5.84507
5.36489
4.76282
4.13781
3.55737
3.03511
2.57539
2.17706
1.83566
1.52949
1.27943
1.09187
0.943109
0.819757
0.714769
0.624959
0.548997
0.487058
0.440732
0.415012
0.438645
0.702979
2.06723
0.661953
0.855768
1.24929
1.82153
2.43198
0.558823
0.490323
0.442746
0.409758
0.386847
0.371051
0.360309
0.353178
0.348635
0.345925
0.344596
0.344079
0.34401
0.344616
0.345463
0.346601
0.347898
0.349362
0.350892
0.352507
0.354241
0.356107
0.358103
0.360241
0.362499
0.364907
0.367511
0.370333
0.37339
3.03515
3.6494
4.26003
4.85021
5.40503
5.90883
6.3405
6.6695
6.85687
6.86476
6.67063
6.27752
5.71448
5.03724
4.34998
3.72079
3.16071
2.67159
2.25015
1.88315
1.56039
1.30483
1.11294
0.960769
0.834705
0.727438
0.635579
0.55763
0.493572
0.444921
0.417002
0.439806
0.709781
2.09368
0.63825
0.813506
1.18129
1.73351
2.43134
3.12049
0.543526
0.479613
0.435271
0.404559
0.383266
0.368624
0.358714
0.352192
0.348069
0.345633
0.344475
0.344051
0.344038
0.344696
0.345557
0.346706
0.348004
0.349414
0.350891
0.352507
0.354241
0.356107
0.358103
0.360208
0.362443
0.36486
0.367476
0.37031
0.373382
3.76761
4.40577
5.02607
5.61591
6.16404
6.65585
7.06783
7.36404
7.50073
7.43998
7.16496
6.68734
6.04367
5.29469
4.5486
3.87363
3.27816
2.76161
2.30964
1.92332
1.59423
1.33278
1.1362
0.980315
0.851274
0.741505
0.647396
0.567271
0.500901
0.449717
0.419314
0.441216
0.717855
2.12308
0.615823
0.773714
1.11492
1.64517
2.32696
3.12243
3.86538
0.528699
0.469223
0.428042
0.399546
0.379826
0.36632
0.357247
0.351307
0.347563
0.34538
0.344373
0.344029
0.344084
0.344774
0.345654
0.346812
0.348055
0.349413
0.350891
0.352507
0.354241
0.356107
0.358066
0.360142
0.362385
0.364813
0.367439
0.370287
0.373374
4.5364
5.18175
5.79872
6.37988
6.91681
7.39443
7.78433
8.04357
8.12414
7.99022
7.63274
7.07221
6.35148
5.53493
4.73383
4.01616
3.38772
2.83457
2.35978
1.96711
1.63129
1.36354
1.16189
1.00197
0.869668
0.757153
0.660572
0.578063
0.509176
0.455207
0.422094
0.442846
0.726348
2.15411
0.594517
0.736268
1.04995
1.55695
2.22121
3.00371
3.86918
4.64238
0.514341
0.459179
0.421075
0.394728
0.376558
0.364197
0.355925
0.350512
0.347109
0.345163
0.344286
0.344002
0.344141
0.344853
0.345755
0.346862
0.348052
0.349412
0.350891
0.352507
0.354241
0.356066
0.357991
0.360074
0.362326
0.364764
0.367402
0.370263
0.373365
5.3192
5.95705
6.56125
7.12891
7.65354
8.11686
8.4829
8.701
8.72039
8.51022
8.07072
7.43059
6.63748
5.75814
4.90604
4.14874
3.47627
2.89592
2.41423
2.01482
1.67187
1.39739
1.19029
1.02598
0.890115
0.77459
0.675298
0.590179
0.518542
0.461542
0.425348
0.444853
0.736601
2.19465
0.574247
0.701205
0.986519
1.46845
2.11451
2.88323
3.73747
4.64582
5.42754
0.500473
0.449509
0.414388
0.390153
0.373546
0.362282
0.354735
0.349798
0.346704
0.344975
0.344213
0.343981
0.344207
0.344939
0.345804
0.346856
0.348052
0.349412
0.350891
0.352507
0.354197
0.355983
0.357914
0.360005
0.362266
0.364713
0.367363
0.370238
0.373356
6.09374
6.7133
7.29902
7.85251
8.36669
8.81665
9.15711
9.32961
9.28338
8.99567
8.47662
7.76174
6.90183
5.96478
5.06569
4.25559
3.55056
2.96236
2.47334
2.06679
1.71628
1.43464
1.22169
1.05263
0.912871
0.794055
0.691792
0.603814
0.529186
0.46885
0.429292
0.4472
0.749231
2.24364
0.554947
0.668589
0.925037
1.37955
2.0063
2.76118
3.60434
4.50155
5.42694
6.19787
0.487123
0.440243
0.408042
0.385937
0.370827
0.360554
0.353663
0.349157
0.346346
0.344814
0.344151
0.343973
0.344288
0.344975
0.345798
0.346856
0.348052
0.349413
0.350892
0.352459
0.354107
0.355898
0.357836
0.359934
0.362203
0.364662
0.367324
0.370213
0.373347
6.8401
7.43428
8.00058
8.54317
9.05022
9.48836
9.80093
9.92284
9.80767
9.4433
8.84919
8.06571
7.14504
6.15545
5.19393
4.34507
3.63086
3.03428
2.53745
2.12332
1.76483
1.47559
1.25639
1.08221
0.938223
0.815816
0.710306
0.619207
0.541316
0.477356
0.43395
0.450751
0.766377
2.29302
0.536567
0.638426
0.866093
1.29047
1.89619
2.63692
3.46972
4.35711
5.26923
6.18864
6.93187
0.474327
0.43147
0.402201
0.382134
0.368374
0.358995
0.352698
0.348584
0.346029
0.344673
0.344107
0.343994
0.344327
0.344959
0.345798
0.346856
0.348052
0.349414
0.350842
0.352362
0.354014
0.35581
0.357755
0.359861
0.36214
0.364609
0.367283
0.370187
0.373338
7.54033
8.10738
8.65844
9.19492
9.69969
10.1276
10.4082
10.4743
10.2887
9.85105
9.18821
8.34308
7.36792
6.30783
5.30104
4.44157
3.71756
3.11204
2.6069
2.18477
1.81785
1.52057
1.29472
1.11505
0.966482
0.840175
0.731131
0.636627
0.555199
0.487259
0.440728
0.455338
0.785001
2.34246
0.519072
0.610636
0.810364
1.20171
1.78403
2.50973
3.33287
4.21204
5.11375
6.01482
6.90802
7.61028
0.462213
0.423417
0.396937
0.378704
0.36616
0.35759
0.35183
0.348069
0.345749
0.344559
0.3441
0.343993
0.344315
0.344956
0.345798
0.346856
0.348055
0.349362
0.350741
0.352262
0.35392
0.35572
0.357672
0.359786
0.362074
0.364555
0.367241
0.37016
0.373328
8.18059
8.72471
9.26124
9.79466
10.3013
10.7247
10.9723
10.9781
10.7233
10.2182
9.49429
8.5949
7.54471
6.43462
5.41621
4.5455
3.81106
3.19601
2.68205
2.25145
1.87567
1.56992
1.33702
1.15147
0.997986
0.867468
0.754591
0.656409
0.571147
0.501061
0.450084
0.461607
0.806217
2.39126
0.502558
0.585062
0.758518
1.114
1.66992
2.37908
3.19282
4.06563
4.95955
5.84726
6.71439
7.56421
8.21874
0.451105
0.416179
0.392194
0.375611
0.364164
0.356324
0.351047
0.347607
0.345513
0.3445
0.344083
0.34396
0.344316
0.344956
0.345798
0.346862
0.348003
0.349255
0.350637
0.35216
0.353823
0.355629
0.357587
0.359709
0.362007
0.364499
0.367198
0.370133
0.373319
8.7506
9.27522
9.81026
10.3513
10.8577
11.2713
11.4852
11.4293
11.1099
10.5452
9.7687
8.79257
7.69099
6.57033
5.53981
4.65725
3.91175
3.28655
2.76322
2.32368
1.93859
1.62395
1.38362
1.19183
1.03309
0.898044
0.781069
0.678915
0.592939
0.519721
0.461614
0.468662
0.829321
2.43927
0.487413
0.561638
0.711116
1.0283
1.55415
2.24467
3.04865
3.91666
4.80589
5.68413
6.5325
7.34661
8.13721
8.74904
0.441144
0.409675
0.387923
0.372823
0.362364
0.35518
0.350339
0.347211
0.345361
0.344452
0.344043
0.343958
0.344316
0.344959
0.345804
0.346811
0.347896
0.349147
0.350531
0.352056
0.353723
0.355534
0.3575
0.359631
0.361938
0.364442
0.367155
0.370106
0.373309
9.24705
9.75942
10.3039
10.8653
11.375
11.7659
11.9408
11.825
11.4483
10.8335
9.98104
8.95483
7.84651
6.71521
5.67216
4.77717
4.01996
3.384
2.85074
2.40177
2.00692
1.68296
1.43483
1.23647
1.07213
0.932289
0.810927
0.709336
0.621759
0.541418
0.475271
0.477735
0.855782
2.48577
0.473806
0.540626
0.668768
0.94582
1.43724
2.10632
2.89954
3.76387
4.65143
5.52462
6.35953
7.14721
7.89271
8.61022
9.18393
0.432225
0.40383
0.384079
0.370311
0.360736
0.354143
0.349725
0.346931
0.345256
0.344398
0.344041
0.343958
0.344314
0.344975
0.345755
0.346704
0.347788
0.349036
0.350423
0.35195
0.353621
0.355438
0.35741
0.35955
0.361867
0.364384
0.367111
0.37008
0.3733
9.65708
10.1711
10.74
11.331
11.8465
12.2023
12.3333
12.1647
11.74
11.0522
10.1534
9.12572
8.01123
6.86939
5.8135
4.90555
4.136
3.48865
2.94486
2.48595
2.08089
1.74722
1.49093
1.28567
1.11548
0.970528
0.850881
0.748796
0.654169
0.566334
0.492161
0.488263
0.884585
2.5306
0.461605
0.521966
0.632325
0.868585
1.32005
1.96409
2.7448
3.60596
4.49456
5.3672
6.19451
6.96257
7.67253
8.33695
8.97776
9.51562
0.424245
0.398579
0.380619
0.368042
0.359261
0.353238
0.349272
0.346755
0.345177
0.344396
0.344041
0.34396
0.344327
0.344938
0.345652
0.346598
0.34768
0.348923
0.350313
0.35184
0.353516
0.355339
0.357318
0.359468
0.361795
0.364326
0.367069
0.370055
0.373292
9.97694
10.5093
11.1198
11.7471
12.2627
12.5721
12.6573
12.4484
11.9549
11.2269
10.3326
9.30466
8.18485
7.03281
5.96395
5.04258
4.26011
3.60071
3.04581
2.57644
2.16069
1.81691
1.55215
1.33972
1.16336
1.02111
0.901686
0.792034
0.69027
0.595107
0.512159
0.501719
0.917753
2.57293
0.450688
0.505259
0.601694
0.799876
1.20468
1.81826
2.5838
3.44161
4.33358
5.21005
6.03566
6.79145
7.47393
8.09311
8.66871
9.2307
9.73879
0.417106
0.393862
0.377498
0.365987
0.357967
0.352551
0.348999
0.346651
0.345176
0.344396
0.344043
0.343993
0.344288
0.344851
0.345555
0.34649
0.34757
0.348808
0.350199
0.351729
0.353409
0.355238
0.357224
0.359384
0.361723
0.36427
0.367029
0.37003
0.373283
10.2024
10.7752
11.4454
12.1086
12.6114
12.8667
12.9094
12.648
12.1225
11.4049
10.5171
9.49071
8.36683
7.20522
6.12344
5.18834
4.39239
3.72034
3.15372
2.67333
2.24644
1.89216
1.61862
1.39872
1.22592
1.08413
0.956018
0.838836
0.730167
0.627753
0.536522
0.517639
0.953927
2.61267
0.440945
0.490238
0.575732
0.741129
1.09581
1.67049
2.41613
3.26948
4.16659
5.05111
5.88095
6.63168
7.29546
7.87835
8.39749
8.88002
9.35829
9.84384
0.410718
0.389617
0.374676
0.364179
0.356967
0.352146
0.348859
0.34665
0.345175
0.344398
0.344083
0.343995
0.344206
0.344772
0.34546
0.34638
0.347459
0.34869
0.350083
0.351615
0.353299
0.355135
0.357128
0.359301
0.361654
0.364216
0.366989
0.370006
0.373275
10.3308
10.972
11.7163
12.4015
12.8786
13.0834
13.0671
12.7968
12.288
11.5838
10.7051
9.68251
8.55623
7.38609
6.29172
5.34271
4.53284
3.84756
3.2686
2.77665
2.33813
1.97298
1.69034
1.4748
1.30231
1.15001
1.01329
0.888822
0.773593
0.66464
0.564958
0.537736
0.99579
2.64895
0.432263
0.476726
0.553425
0.691838
0.996826
1.52584
2.24284
3.08826
3.99152
4.88804
5.72808
6.48096
7.13444
7.6911
8.16461
8.57745
8.9637
9.34857
9.82176
0.40499
0.385787
0.372192
0.362763
0.356385
0.351963
0.34886
0.34665
0.345177
0.344452
0.344101
0.343973
0.344139
0.344694
0.345367
0.346268
0.347346
0.348571
0.349965
0.351499
0.353186
0.35503
0.357033
0.35922
0.361586
0.364163
0.366951
0.369983
0.373267
10.3593
11.105
11.9149
12.6066
13.0454
13.2022
13.1708
12.9336
12.4482
11.7604
10.8941
9.87818