/*--------------------------------*- C++ -*----------------------------------*\
  =========                 |
  \\      /  F ield         | OpenFOAM: The Open Source CFD Toolbox
   \\    /   O peration     | Website:  https://openfoam.org
    \\  /    A nd           | Version:  8
     \\/     M anipulation  |
\*---------------------------------------------------------------------------*/
FoamFile
{
    version     2.0;
    format      ascii;
    class       volScalarField;
    location    "0.04";
    object      nut;
}
// * * * * * * * * * * * * * * * * * * * * * * * * * * * * * * * * * * * * * //

dimensions      [0 2 -1 0 0 0 0];

internalField   nonuniform List<scalar> 
15677
(
0.000168167
0.000652149
0.000148204
0.001512
0.000443132
0.000141301
0.00267184
0.000878309
0.000381081
0.000142203
0.00391599
0.00152293
0.000687378
0.000354378
0.000145353
0.00501866
0.00236073
0.00114803
0.000586195
0.000340349
0.000151128
0.00583644
0.00332157
0.00178294
0.000948942
0.000529624
0.000332069
0.000156967
0.00633329
0.00430154
0.00256984
0.00146503
0.000821586
0.000492712
0.000327049
0.000162389
0.00656227
0.00518848
0.00345461
0.00213359
0.00125827
0.000737766
0.000467624
0.000324112
0.000167201
0.00665823
0.00589338
0.00435624
0.00292408
0.00184283
0.00111316
0.000677709
0.000450511
0.000322581
0.000171406
0.00670545
0.00633803
0.00518103
0.00378056
0.00255831
0.00163292
0.00100509
0.000634298
0.000438795
0.000321968
0.000175004
0.0067144
0.00655324
0.00584515
0.00462635
0.00336394
0.00228776
0.00147331
0.000924587
0.000602368
0.000430773
0.000321982
0.000178129
0.00670994
0.00666137
0.00629536
0.00537769
0.00419784
0.0030465
0.00207851
0.00134959
0.000862495
0.000578654
0.000425414
0.000322404
0.000180743
0.0067063
0.00669866
0.00652937
0.00596465
0.00498475
0.0038583
0.0027964
0.00191242
0.00125157
0.000814304
0.000561019
0.000421828
0.000323089
0.000183087
0.00670542
0.00670432
0.00664661
0.00635686
0.00565037
0.00465653
0.00358387
0.00259427
0.0017782
0.00117335
0.000776536
0.000547711
0.000419573
0.000323922
0.000185148
0.00670548
0.00670282
0.0066877
0.0065629
0.00614224
0.00536881
0.00438164
0.00335758
0.00242827
0.00166847
0.00110976
0.000746645
0.000537757
0.000418182
0.000324892
0.000186943
0.00670565
0.00670159
0.00669621
0.00665656
0.00644693
0.00593376
0.00512116
0.00414907
0.00316876
0.00229028
0.00157803
0.00105807
0.000723092
0.000530233
0.000417535
0.000325817
0.000188538
0.00670576
0.00670111
0.00669694
0.00668491
0.00660504
0.00632173
0.00573748
0.00490409
0.0039511
0.0030096
0.00217505
0.00150287
0.00101618
0.000704299
0.000524848
0.000417178
0.000326762
0.000190004
0.00670581
0.006701
0.00669656
0.00669165
0.00666393
0.00654121
0.00618823
0.00555695
0.00471436
0.00378158
0.00287508
0.00207805
0.00144061
0.000981778
0.000689806
0.000520649
0.00041717
0.00032781
0.000191401
0.00670583
0.00670098
0.00669628
0.00669269
0.00668252
0.00663455
0.00646784
0.00605784
0.00539349
0.00454857
0.00363642
0.00276062
0.0019966
0.00138877
0.000954289
0.00067805
0.000517627
0.000417592
0.000328808
0.000192542
0.00670583
0.00670099
0.00669616
0.0066926
0.00668749
0.00666918
0.00659818
0.00638929
0.00593434
0.00524675
0.00440434
0.00351156
0.0026635
0.00192817
0.00134651
0.000931603
0.000668978
0.000515753
0.000418042
0.000329906
0.000193855
0.00670584
0.00670099
0.00669612
0.00669246
0.0066884
0.00668091
0.00665168
0.00655605
0.00631017
0.00581938
0.00511645
0.00427856
0.00340464
0.0025813
0.00187172
0.00131138
0.000913649
0.00066227
0.000514327
0.000419004
0.000330894
0.000194721
0.00670584
0.00670099
0.00669609
0.0066924
0.00668834
0.00668439
0.00667205
0.00663034
0.00651024
0.00623257
0.00571458
0.00500076
0.00416987
0.00331358
0.00251296
0.00182468
0.00128318
0.000899713
0.000657038
0.000514116
0.000419637
0.000331932
0.000196028
0.00670584
0.00670099
0.00669607
0.00669238
0.00668816
0.00668526
0.00667895
0.00666149
0.00660481
0.00646455
0.00615999
0.00561938
0.00489976
0.00407656
0.0032373
0.00245588
0.00178672
0.00126109
0.000889021
0.000654036
0.000513646
0.000420837
0.000333064
0.000196746
0.00670584
0.00670098
0.00669606
0.00669237
0.00668801
0.00668543
0.00668092
0.00667347
0.00664697
0.00658011
0.006419
0.00609229
0.00553524
0.00481191
0.00399776
0.00317353
0.00240995
0.00175724
0.00124429
0.000881621
0.000651407
0.000514433
0.000421734
0.000333977
0.000198072
0.00670584
0.00670098
0.00669606
0.00669235
0.00668792
0.00668546
0.00668132
0.00667768
0.00666414
0.00663487
0.00655356
0.00637605
0.00603095
0.00546042
0.00473744
0.00393231
0.00312272
0.00237422
0.00173466
0.00123201
0.000876317
0.000651041
0.000514862
0.000423166
0.000335428
0.000198763
0.00670584
0.00670098
0.00669606
0.00669234
0.00668787
0.00668545
0.0066813
0.00667899
0.00667044
0.00665898
0.00662005
0.00652862
0.00633594
0.00597523
0.00539797
0.0046761
0.00387985
0.00308219
0.00234697
0.00171918
0.00122478
0.000874257
0.000650639
0.00051643
0.00042411
0.000336194
5.33355e-05
0.00670584
0.00670097
0.00669606
0.00669232
0.00668784
0.00668544
0.00668122
0.00667932
0.00667245
0.00666879
0.00665051
0.00660726
0.00650482
0.00630031
0.00593035
0.00534479
0.00462514
0.00383821
0.00305443
0.00233075
0.00171121
0.00122151
0.000873538
0.000652403
0.00051756
0.000426561
0.000283629
6.33207e-05
0.00670584
0.00670097
0.00669606
0.0066923
0.00668783
0.00668541
0.00668115
0.00667932
0.00667293
0.00667242
0.00666342
0.00664525
0.00659395
0.00648392
0.00627009
0.00588821
0.00530322
0.00459139
0.00381489
0.00303851
0.00232182
0.00170796
0.00122103
0.000875545
0.000653954
0.000519683
0.000420129
0.000219486
7.07103e-05
0.00670584
0.00670097
0.00669606
0.00669228
0.00668783
0.00668538
0.00668111
0.00667924
0.00667295
0.00667356
0.00666845
0.00666237
0.00663772
0.00658482
0.00646841
0.00624275
0.00586451
0.00527902
0.00456916
0.00379797
0.0030293
0.00231893
0.00170939
0.00122488
0.00087857
0.000656429
0.000521017
0.000400271
0.00017782
7.6114e-05
0.00670584
0.00670097
0.00669607
0.00669226
0.00668783
0.00668535
0.00668108
0.00667915
0.00667288
0.00667376
0.0066702
0.00666947
0.00665784
0.00663713
0.00657694
0.00645267
0.00623401
0.00584771
0.00526065
0.00455483
0.00379043
0.00302879
0.00232363
0.00171698
0.00123147
0.000883414
0.000659842
0.000518924
0.000367225
0.000152469
8.04932e-05
0.00670584
0.00670097
0.00669607
0.00669224
0.00668784
0.00668531
0.00668106
0.00667906
0.00667281
0.0066737
0.00667067
0.00667206
0.00666654
0.00666247
0.00663281
0.0065747
0.00645148
0.00622669
0.00583718
0.00525171
0.00455333
0.00379611
0.00303966
0.00233653
0.00172922
0.00124119
0.000889882
0.00066308
0.000512848
0.000336251
0.000134329
8.3899e-05
0.00670584
0.00670096
0.00669608
0.00669222
0.00668785
0.00668528
0.00668105
0.00667898
0.00667276
0.00667358
0.00667071
0.00667274
0.00667003
0.00667375
0.00666018
0.006641
0.0065774
0.00645385
0.00622477
0.00583887
0.00526004
0.00456669
0.00381407
0.00305978
0.00235612
0.00174601
0.00125375
0.000897561
0.000665888
0.000501625
0.000306429
0.000121417
8.63288e-05
0.00670584
0.00670096
0.00669609
0.00669221
0.00668786
0.00668525
0.00668104
0.0066789
0.00667273
0.00667345
0.00667063
0.00667276
0.00667122
0.00667829
0.00667327
0.00667481
0.00664638
0.00658553
0.00646177
0.00623766
0.0058568
0.00528192
0.0045931
0.0038431
0.00308876
0.00238231
0.00176689
0.00126893
0.00090629
0.000667227
0.000486618
0.000280417
0.000112817
8.81197e-05
0.00670584
0.00670096
0.00669609
0.00669219
0.00668788
0.00668521
0.00668104
0.00667882
0.00667271
0.00667334
0.00667051
0.0066726
0.00667155
0.00667977
0.00667914
0.00669062
0.00668198
0.00665843
0.00660211
0.00648331
0.0062646
0.0058886
0.00531817
0.00463236
0.00388318
0.00312643
0.00241456
0.00179171
0.00128637
0.000915809
0.000667712
0.00046993
0.000260449
0.000106883
8.94966e-05
0.00670096
0.00670584
0.0066961
0.00669217
0.00668789
0.00668518
0.00668104
0.00667876
0.00667272
0.00667324
0.0066704
0.00667241
0.00667158
0.00668008
0.00668143
0.0066977
0.00669928
0.0066967
0.00668111
0.00663025
0.00651792
0.00630568
0.00593574
0.00536878
0.00468477
0.00393398
0.00317233
0.00245282
0.00182011
0.00130609
0.000927103
0.000666909
0.000454902
0.000245014
0.000102669
9.06074e-05
0.00669611
0.00670098
0.00670585
0.00669216
0.0066879
0.00668515
0.00668104
0.00667869
0.00667274
0.00667315
0.00667029
0.00667223
0.00667153
0.00668001
0.00668221
0.00670049
0.00670723
0.00671589
0.00672359
0.00671397
0.00667131
0.00656723
0.00636291
0.00599836
0.00543437
0.00474994
0.00399541
0.0032264
0.00249645
0.001852
0.00133043
0.000940766
0.000665602
0.000441807
0.000233042
9.96536e-05
9.15496e-05
0.00669215
0.00669614
0.00670101
0.00670585
0.0066879
0.00668513
0.00668105
0.00667863
0.00667277
0.00667307
0.00667018
0.00667207
0.00667146
0.00667981
0.00668242
0.00670144
0.00671054
0.00672505
0.00674565
0.00675992
0.00676013
0.00672718
0.00663312
0.00643728
0.00607818
0.00551535
0.0048283
0.00406709
0.00328784
0.00254551
0.00189089
0.00135954
0.000955103
0.000664465
0.000431094
0.000223699
9.74472e-05
9.23799e-05
0.00668791
0.00669216
0.0066962
0.00670105
0.00670586
0.0066851
0.00668105
0.00667858
0.00667281
0.00667299
0.00667009
0.00667195
0.00667138
0.00667958
0.00668243
0.00670169
0.00671181
0.00672911
0.00675667
0.00678449
0.00681
0.00682127
0.00680013
0.00671652
0.00652994
0.00617492
0.00561198
0.00491894
0.00414851
0.00335676
0.00260519
0.00193883
0.00139021
0.000970138
0.000664334
0.000422731
0.000216274
9.58529e-05
9.31355e-05
0.00668507
0.00668795
0.00669221
0.00669626
0.00670108
0.00670587
0.00668105
0.00667853
0.00667286
0.00667292
0.00667001
0.00667184
0.0066713
0.00667937
0.00668237
0.00670166
0.00671226
0.00673088
0.00676193
0.00679753
0.00683749
0.00687492
0.00689955
0.00689086
0.00681909
0.00664069
0.00628907
0.0057242
0.00502273
0.00423949
0.00344039
0.00267821
0.00199066
0.00142226
0.000985966
0.000665176
0.000415521
0.000210317
9.46641e-05
9.38328e-05
0.00668106
0.00668509
0.00668803
0.00669226
0.00669633
0.00670112
0.00670588
0.00667849
0.00667292
0.00667285
0.00666994
0.00667176
0.00667122
0.00667917
0.00668228
0.00670153
0.00671239
0.00673171
0.00676456
0.00680448
0.00685346
0.0069069
0.00695968
0.00699736
0.00700093
0.00693977
0.00676973
0.00642005
0.00585094
0.00513844
0.00435011
0.00354266
0.00275679
0.00204548
0.00145566
0.00100274
0.000667037
0.000409829
0.000205466
9.38053e-05
9.44859e-05
0.00667846
0.00668112
0.00668513
0.00668812
0.00669231
0.0066964
0.00670115
0.00670589
0.00667298
0.00667278
0.00666988
0.00667169
0.00667114
0.00667901
0.0066822
0.00670136
0.00671239
0.00673213
0.00676604
0.0068084
0.00686278
0.00692631
0.00699694
0.00706511
0.00711885
0.00713381
0.00708042
0.0069157
0.00656639
0.0059907
0.00528031
0.0044859
0.00365242
0.00284003
0.00210293
0.00148997
0.00101993
0.000670672
0.000405667
0.000201424
9.31443e-05
9.50963e-05
0.00667304
0.0066785
0.00668123
0.00668519
0.0066882
0.00669236
0.00669647
0.00670119
0.00670589
0.00667271
0.00666983
0.00667163
0.00667106
0.00667888
0.0066821
0.0067012
0.00671234
0.00673239
0.00676701
0.00681097
0.00686877
0.00693872
0.00702141
0.00710899
0.00719543
0.00726355
0.00729168
0.00724416
0.00707836
0.00672688
0.0061599
0.00545103
0.00463236
0.00376933
0.002927
0.00216236
0.00152532
0.00103725
0.000674665
0.000402412
0.000198041
9.26698e-05
9.56721e-05
0.00667265
0.0066732
0.0066786
0.00668135
0.00668524
0.00668829
0.00669241
0.00669654
0.00670122
0.0067059
0.00666979
0.00667158
0.00667098
0.00667878
0.006682
0.00670105
0.00671228
0.00673257
0.00676772
0.00681291
0.00687315
0.00694747
0.00703871
0.00714006
0.00724833
0.00735127
0.00743505
0.0074731
0.00743159
0.00726211
0.00691723
0.0063601
0.00563206
0.00478634
0.00389155
0.00301689
0.00222327
0.00156151
0.00105461
0.000679175
0.000399963
0.000195142
9.22891e-05
9.62097e-05
0.00666976
0.00667261
0.00667345
0.00667871
0.00668147
0.00668529
0.00668838
0.00669247
0.00669662
0.00670126
0.00670591
0.00667152
0.00667091
0.0066787
0.00668188
0.00670091
0.00671223
0.00673271
0.00676831
0.00681452
0.00687668
0.00695439
0.00705205
0.00716377
0.0072888
0.00741569
0.00753721
0.00763323
0.00767983
0.00764041
0.00748932
0.00715199
0.00657054
0.00581996
0.00494465
0.00401672
0.00310879
0.0022851
0.00159813
0.00107209
0.000684385
0.000398077
0.000192657
9.20215e-05
9.67171e-05
0.00667146
0.00666976
0.00667261
0.00667371
0.00667882
0.0066816
0.00668534
0.00668847
0.00669253
0.00669669
0.0067013
0.00670592
0.00667084
0.00667864
0.00668174
0.0067008
0.00671218
0.00673284
0.00676882
0.00681593
0.00687968
0.0069603
0.00706323
0.00718309
0.00732214
0.00746844
0.0076171
0.0077532
0.00786066
0.00791186
0.0078963
0.0077666
0.00740762
0.0067894
0.00601005
0.00510522
0.0041438
0.00320166
0.00234731
0.00163491
0.00108941
0.000689892
0.000396737
0.000190489
9.17969e-05
9.71886e-05
0.00667078
0.00667138
0.00666976
0.00667262
0.00667399
0.00667892
0.00668172
0.00668539
0.00668856
0.0066926
0.00669677
0.00670134
0.00670593
0.00667858
0.00668157
0.00670073
0.00671216
0.00673297
0.00676928
0.00681719
0.00688231
0.00696558
0.00707304
0.0071999
0.00735095
0.00751441
0.0076867
0.00785257
0.00800338
0.00811772
0.00819816
0.00821067
0.0080655
0.00767969
0.00702052
0.00620226
0.0052664
0.00427078
0.00329461
0.0024094
0.00167147
0.00110638
0.000695341
0.000395813
0.0001886
9.16473e-05
9.76336e-05
0.00667852
0.0066706
0.00667126
0.00666978
0.00667265
0.00667429
0.00667902
0.00668186
0.00668545
0.00668866
0.00669267
0.00669685
0.00670137
0.00670594
0.00668137
0.0067007
0.00671216
0.0067331
0.00676969
0.00681834
0.00688467
0.00697037
0.00708182
0.00721509
0.00737694
0.00755541
0.00775046
0.00794398
0.0081284
0.00828847
0.00843766
0.00855313
0.00855264
0.00838282
0.00796203
0.00725981
0.00639426
0.00542489
0.00439635
0.00338666
0.00247087
0.00170752
0.00112349
0.000700728
0.000395144
0.000186927
9.15149e-05
9.80448e-05
0.00668117
0.00667825
0.00667026
0.00667113
0.00666982
0.00667268
0.00667459
0.00667911
0.006682
0.00668551
0.00668876
0.00669274
0.00669693
0.00670141
0.00670595
0.00670074
0.00671218
0.00673323
0.00677006
0.00681939
0.00688681
0.00697475
0.00708977
0.00722907
0.00740083
0.00759298
0.00780951
0.00803149
0.00824895
0.00844545
0.00864709
0.0088392
0.00894359
0.00891906
0.0087153
0.00825193
0.00750429
0.00658988
0.00558045
0.00451951
0.00347726
0.0025313
0.00174292
0.0011404
0.000706004
0.000394793
0.000185452
9.14368e-05
9.84335e-05
0.00670086
0.00668038
0.00667776
0.00666994
0.006671
0.00666989
0.00667274
0.00667491
0.00667921
0.00668214
0.00668557
0.00668886
0.00669282
0.00669701
0.00670145
0.00670596
0.0067122
0.00673334
0.0067704
0.00682034
0.00688875
0.00697876
0.00709699
0.00724204
0.00742286
0.00762798
0.00786534
0.00811462
0.00836786
0.00860307
0.00885003
0.00910421
0.00928724
0.00936753
0.00930744
0.00906022
0.008547
0.00774907
0.00678635
0.005733
0.00463986
0.00356569
0.00259035
0.00177751
0.00115682
0.000711179
0.00039448
0.000184126
9.13616e-05
9.87906e-05
0.0067122
0.0067004
0.00667897
0.00667724
0.00666968
0.00667085
0.00666999
0.0066728
0.00667523
0.0066793
0.00668228
0.00668563
0.00668897
0.0066929
0.00669709
0.00670148
0.00670597
0.00673344
0.00677069
0.00682121
0.00689053
0.00698243
0.00710358
0.00725405
0.00744315
0.00766085
0.00791846
0.00819375
0.00848284
0.00876464
0.00906373
0.00937484
0.00962323
0.00978291
0.00982526
0.00971688
0.00941577
0.00884516
0.00799261
0.00698145
0.00588116
0.00475597
0.00365137
0.00264771
0.00181113
0.0011728
0.0007162
0.000394432
0.000182953
9.13284e-05
9.9129e-05
0.00673354
0.00671121
0.00669926
0.00667779
0.00667665
0.0066695
0.00667067
0.00667012
0.00667289
0.00667554
0.00667939
0.00668242
0.0066857
0.00668907
0.00669299
0.00669716
0.00670151
0.00670598
0.00677093
0.00682201
0.00689217
0.00698579
0.00710962
0.00726515
0.00746181
0.00769181
0.00796871
0.00826899
0.00859488
0.00892728
0.00929034
0.00967078
0.00998439
0.0102145
0.0103348
0.0103213
0.0101484
0.00978112
0.00914494
0.00823365
0.0071739
0.00602654
0.00486747
0.00373395
0.00270316
0.00184364
0.00118829
0.00072108
0.000394442
0.000181887
9.12901e-05
9.94382e-05
0.00677117
0.006732
0.00670911
0.00669767
0.00667691
0.00667594
0.00666941
0.00667046
0.00667029
0.00667299
0.00667586
0.0066795
0.00668256
0.00668578
0.00668917
0.00669307
0.00669723
0.00670155
0.00670599
0.00682275
0.00689369
0.00698887
0.00711514
0.00727536
0.00747898
0.0077209
0.00801585
0.00834059
0.00870499
0.00909047
0.0095193
0.00999327
0.0104037
0.0107148
0.0109066
0.0109594
0.010863
0.0106042
0.010156
0.00944531
0.00847124
0.00736163
0.00616893
0.00497445
0.00381322
0.00275652
0.00187498
0.00120324
0.000725797
0.000394483
0.000180931
9.12855e-05
9.97321e-05
0.0068235
0.00676856
0.00672869
0.006707
0.0066958
0.00667633
0.0066751
0.00666942
0.00667023
0.0066705
0.00667311
0.00667616
0.00667961
0.00668269
0.00668586
0.00668927
0.00669315
0.00669729
0.00670158
0.006706
0.00689509
0.00699168
0.0071202
0.00728473
0.00749478
0.00774809
0.00805975
0.00840893
0.00881301
0.00925154
0.00974569
0.0103366
0.0109063
0.0113536
0.0116279
0.0117321
0.011671
0.0114552
0.0110851
0.01054
0.00974541
0.00870458
0.00754373
0.00630741
0.00507693
0.00388904
0.00280769
0.00190508
0.00121761
0.000730346
0.000394623
0.000180074
9.12724e-05
9.99667e-05
0.00689643
0.00682024
0.00676285
0.00672548
0.0067049
0.00669357
0.00667607
0.00667415
0.0066695
0.00667
0.00667072
0.00667326
0.00667644
0.00667972
0.00668282
0.00668594
0.00668937
0.00669322
0.00669735
0.00670161
0.00670601
0.00699424
0.00712482
0.00729329
0.00750929
0.00777337
0.0081005
0.00847424
0.00891762
0.00940735
0.00997102
0.0107153
0.0115075
0.0121846
0.0126002
0.0127518
0.0126962
0.0124674
0.012095
0.0115888
0.0109314
0.0100442
0.00893299
0.0077199
0.00644131
0.0051749
0.00396138
0.00285659
0.0019339
0.0012314
0.000734712
0.000394772
0.000179306
9.12822e-05
0.000100163
0.00699661
0.00689174
0.00681257
0.00675718
0.00672245
0.00670306
0.00669082
0.00667605
0.00667313
0.00666963
0.00666979
0.00667096
0.00667343
0.00667669
0.00667985
0.00668293
0.00668602
0.00668946
0.0066933
0.00669741
0.00670164
0.00670602
0.00712903
0.00730108
0.0075226
0.00779671
0.00813828
0.00853641
0.00901726
0.00955677
0.0102023
0.0111456
0.0122153
0.0131798
0.0138368
0.014096
0.0140348
0.0137601
0.0133248
0.0127692
0.0121088
0.0113273
0.0103405
0.00915583
0.00788986
0.00657023
0.00526836
0.00403022
0.0029032
0.00196141
0.00124458
0.000738913
0.000394948
0.000178683
9.12856e-05
0.000100374
0.0071329
0.00699015
0.00688031
0.00680495
0.00675179
0.00671958
0.00670185
0.00668779
0.00667618
0.00667213
0.00666976
0.00666962
0.0066712
0.00667363
0.00667691
0.00667997
0.00668304
0.00668611
0.00668955
0.00669338
0.00669747
0.00670167
0.00670603
0.00730815
0.00753477
0.00781815
0.00817325
0.00859512
0.00911089
0.00970098
0.0104464
0.0116279
0.0129996
0.0142574
0.0151775
0.0156569
0.0156791
0.0153679
0.0148566
0.0142047
0.0134579
0.0126358
0.0117236
0.0106327
0.00937252
0.00805344
0.00669388
0.00535735
0.00409562
0.00294752
0.00198762
0.00125716
0.000742947
0.000395096
0.000178189
9.13021e-05
0.000100604
0.00731456
0.00712407
0.00697364
0.00686891
0.00679753
0.00674662
0.00671685
0.00670089
0.00668469
0.00667632
0.0066712
0.00666986
0.00666952
0.00667142
0.00667384
0.00667711
0.0066801
0.00668314
0.00668619
0.00668964
0.00669345
0.00669753
0.00670169
0.00670603
0.00754585
0.00783774
0.00820555
0.00865001
0.0091983
0.00984205
0.0107054
0.0121445
0.0138024
0.0153111
0.0164541
0.0171561
0.0173959
0.0171825
0.0166428
0.0159176
0.0150668
0.0141389
0.0131587
0.0121156
0.0109189
0.00958246
0.00821047
0.00681214
0.00544188
0.00415754
0.00298954
0.00201254
0.00126914
0.000746292
0.000395243
0.000177658
9.13156e-05
0.000100851
0.00755587
0.00730304
0.00710058
0.00695712
0.0068578
0.00679024
0.00674162
0.00671431
0.0067
0.00668174
0.00667633
0.00667044
0.00666988
0.0066695
0.00667162
0.00667406
0.00667729
0.00668023
0.00668324
0.00668628
0.00668973
0.00669352
0.00669758
0.00670171
0.00670603
0.0078556
0.00823527
0.00870087
0.0092799
0.00998149
0.010975
0.0126686
0.014567
0.016257
0.0175534
0.0184237
0.0188738
0.0189001
0.018502
0.0177871
0.0168935
0.0158786
0.0147928
0.0136671
0.0124983
0.0111975
0.00978507
0.00836085
0.00692495
0.00552224
0.00421591
0.0030293
0.00203617
0.00127901
0.000749159
0.000395404
0.00017711
9.13469e-05
0.000101121
0.00787158
0.00754076
0.00727036
0.00707707
0.006941
0.00684696
0.006783
0.00673697
0.00671187
0.00669906
0.00667922
0.00667608
0.00666989
0.00666983
0.00666956
0.00667179
0.00667427
0.00667746
0.00668035
0.00668334
0.00668637
0.00668981
0.00669359
0.0066976
0.00670171
0.00670603
0.00826252
0.00874768
0.00935639
0.0101195
0.0112471
0.0131747
0.0152545
0.0170531
0.0184303
0.0194005
0.0200016
0.0202464
0.0201189
0.0195989
0.0187682
0.0177573
0.0166193
0.0154052
0.0141525
0.0128675
0.0114666
0.00997987
0.00850452
0.0070322
0.00559888
0.00427094
0.00306686
0.00205559
0.00128742
0.000752314
0.000395613
0.000176516
9.13733e-05
0.000101411
0.0082869
0.00785261
0.00749572
0.0072376
0.00705412
0.00692528
0.00683634
0.00677578
0.00673262
0.00670941
0.00669786
0.00667753
0.00667552
0.00666957
0.00666971
0.00666969
0.00667196
0.00667449
0.00667761
0.00668048
0.00668343
0.00668646
0.00668989
0.00669363
0.00669761
0.00670171
0.00670603
0.00879061
0.0094284
0.010255
0.0115128
0.0136447
0.0158472
0.0176919
0.0190891
0.0200972
0.0207839
0.0211819
0.0212858
0.0210628
0.0204761
0.0195819
0.0185004
0.0172788
0.0159673
0.0146087
0.0132197
0.0117249
0.0101664
0.00864142
0.0071338
0.00567174
0.00432277
0.0030976
0.00207208
0.00129665
0.000755814
0.000395839
0.000175905
9.14235e-05
0.000101729
0.00882876
0.0082629
0.00779148
0.00745059
0.00720553
0.00703172
0.00690993
0.00682593
0.00676863
0.00672843
0.00670685
0.00669575
0.00667654
0.0066747
0.00666944
0.00666956
0.00666985
0.00667212
0.00667469
0.00667776
0.0066806
0.00668352
0.00668654
0.00668993
0.00669363
0.00669761
0.00670171
0.00670603
0.00949638
0.0103862
0.0117645
0.0140684
0.016343
0.0181862
0.0195587
0.0205565
0.0212727
0.0217587
0.0220227
0.0220409
0.0217683
0.0211568
0.0202401
0.0191262
0.0178554
0.0164751
0.0150317
0.0135523
0.0119711
0.0103443
0.00877156
0.00722994
0.00574084
0.00436513
0.00312364
0.00209015
0.00130682
0.000759687
0.000396129
0.000175242
9.14685e-05
0.00010207
0.00955817
0.00879917
0.00817998
0.00773014
0.00740636
0.00717419
0.00700986
0.00689495
0.00681579
0.00676163
0.00672437
0.00670432
0.00669304
0.00667614
0.00667374
0.00666942
0.0066694
0.00667003
0.00667227
0.00667489
0.00667791
0.00668071
0.00668361
0.00668658
0.00668993
0.00669363
0.00669761
0.00670171
0.00670603
0.0105114
0.012
0.014443
0.016749
0.018558
0.0198758
0.0208293
0.0215322
0.022052
0.0224107
0.0225947
0.0225674
0.0222777
0.0216711
0.0207616
0.0196448
0.0183527
0.0169282
0.01542
0.0138638
0.0122044
0.0105133
0.00889498
0.00732076
0.00579759
0.00440098
0.0031521
0.00210996
0.00131801
0.00076399
0.000396441
0.000174565
9.15461e-05
0.000102443
0.0106241
0.00952086
0.00868643
0.00809698
0.00766989
0.00736307
0.00714358
0.00698855
0.00688037
0.00680602
0.00675468
0.00672062
0.00670206
0.00668975
0.00667607
0.00667277
0.00666946
0.00666927
0.00667022
0.00667243
0.00667507
0.00667805
0.00668082
0.00668365
0.00668658
0.00668993
0.00669363
0.00669761
0.00670171
0.00670603
0.0122205
0.0147682
0.0170769
0.0188305
0.0200753
0.0209625
0.0216217
0.0221342
0.0225344
0.0228194
0.0229607
0.0229152
0.0226305
0.0220487
0.0211674
0.020069
0.0187771
0.0173289
0.0157734
0.0141533
0.0124243
0.0106734
0.00901172
0.00739512
0.00584575
0.00444012
0.00318321
0.00213172
0.00133036
0.000768757
0.000396841
0.000173829
9.16185e-05
0.000102843
0.0105825
0.0124162
0.00935658
0.00857522
0.00801525
0.00761085
0.00732072
0.00711369
0.00696781
0.00686628
0.0067968
0.00674804
0.00671711
0.00670062
0.00668642
0.00667613
0.00667187
0.0066695
0.00666917
0.0066704
0.00667258
0.00667524
0.00667818
0.00668087
0.00668364
0.00668658
0.00668993
0.00669363
0.0066976
0.00670169
0.00670602
0.0150451
0.0173391
0.0190251
0.0201872
0.0209951
0.0215905
0.0220654
0.0224661
0.0228004
0.0230477
0.0231709
0.0231254
0.0228604
0.0223167
0.0214772
0.0204124
0.0191366
0.0176808
0.0160928
0.0144209
0.0126305
0.0108244
0.00910736
0.00745813
0.00589849
0.00448289
0.00321726
0.00215562
0.00134399
0.000774077
0.000397271
0.000173082
9.17364e-05
0.00010328
0.0103317
0.0123761
0.0152708
0.00919901
0.00846612
0.00793498
0.00755302
0.00727933
0.00708459
0.00694769
0.00685273
0.00678794
0.00674176
0.00671392
0.00669947
0.00668332
0.00667615
0.00667112
0.00666952
0.00666912
0.00667057
0.00667274
0.0066754
0.00667825
0.00668087
0.00668364
0.00668658
0.00668993
0.00669363
0.00669758
0.00670166
0.00670601
0.0175474
0.01916
0.0202353
0.0209575
0.0214765
0.0218929
0.022263
0.0226057
0.0229095
0.0231424
0.0232635
0.0232302
0.022995
0.0224977
0.021709
0.0206874
0.0194391
0.0179883
0.0163801
0.014667
0.0128231
0.0109476
0.00918843
0.00752701
0.00595628
0.00452967
0.00325455
0.00218191
0.00135908
0.000779983
0.00039782
0.000172269
9.18506e-05
0.000103746
0.0100852
0.0120197
0.0152053
0.0177022
0.0090491
0.00835864
0.00785628
0.00749644
0.00723897
0.00705631
0.00692826
0.00683969
0.00677939
0.0067359
0.00671111
0.0066984
0.00668069
0.00667601
0.00667053
0.00666951
0.00666912
0.00667073
0.0066729
0.00667548
0.00667826
0.00668087
0.00668364
0.00668658
0.00668993
0.00669359
0.00669752
0.00670164
0.006706
0.0192497
0.0202383
0.0208725
0.0213082
0.0216521
0.0219687
0.0222876
0.022608
0.0229042
0.0231374
0.0232671
0.0232548
0.0230561
0.0226107
0.0218778
0.0209057
0.0196926
0.0182559
0.0166375
0.0148924
0.0129787
0.0110519
0.00927705
0.00760235
0.00601964
0.0045809
0.00329543
0.00221085
0.00137577
0.000786599
0.000398414
0.000171451
9.20284e-05
0.000104256
0.00985408
0.0116335
0.0148517
0.0176031
0.0192965
0.00890438
0.0082527
0.00777926
0.00744117
0.00719971
0.00702894
0.00690953
0.00682721
0.00677128
0.00673071
0.00670853
0.00669728
0.00667877
0.00667566
0.00667011
0.00666946
0.00666916
0.00667089
0.00667298
0.00667548
0.00667826
0.00668087
0.00668364
0.00668658
0.00668989
0.00669352
0.00669747
0.00670161
0.00670599
0.0202101
0.0207573
0.0211067
0.0213695
0.0216162
0.0218861
0.0221898
0.0225108
0.0228136
0.0230566
0.0232028
0.0232183
0.0230615
0.022671
0.0219965
0.0210771
0.0199041
0.0184882
0.0168675
0.0150709
0.0131094
0.0111655
0.00937398
0.00768485
0.00608917
0.00463704
0.00334028
0.00224274
0.00139429
0.000793963
0.000399168
0.000170563
9.22065e-05
0.000104794
0.00963764
0.0112525
0.0144099
0.0173707
0.0191451
0.0201505
0.00876311
0.00814856
0.00770406
0.00738733
0.00716166
0.00700251
0.00689163
0.00681552
0.00676373
0.00672625
0.00670604
0.00669567
0.00667758
0.00667512
0.00666985
0.00666938
0.00666923
0.00667096
0.00667299
0.00667548
0.00667826
0.00668087
0.00668365
0.00668654
0.00668981
0.00669345
0.00669741
0.00670158
0.00670598
0.0206239
0.0208872
0.0210644
0.0212303
0.021432
0.0216915
0.0220037
0.0223399
0.0226579
0.0229176
0.0230868
0.0231359
0.0230248
0.0226908
0.0220755
0.0212102
0.0200799
0.0186896
0.0170454
0.0152192
0.0132507
0.0112894
0.00948004
0.00777524
0.00616553
0.00469864
0.00338955
0.00227793
0.00141483
0.000802243
0.000399988
0.000169674
9.24746e-05
0.000105383
0.00943298
0.0108897
0.0139207
0.0170531
0.0189859
0.0199445
0.0204679
0.00862469
0.00804653
0.00763082
0.00733506
0.0071249
0.00697726
0.00687498
0.00680481
0.00675664
0.00672224
0.00670369
0.00669347
0.00667694
0.00667444
0.0066697
0.00666929
0.00666928
0.00667096
0.006673
0.00667548
0.00667826
0.00668087
0.00668361
0.00668645
0.00668972
0.00669338
0.00669735
0.00670154
0.00670597
0.0206605
0.020751
0.0208295
0.020949
0.021142
0.021416
0.0217525
0.0221122
0.0224511
0.0227329
0.0229312
0.0230192
0.022957
0.02268
0.0221233
0.0213119
0.0202259
0.0188405
0.0171911
0.0153773
0.0134032
0.0114243
0.00959608
0.00787433
0.00624944
0.0047663
0.00344373
0.0023168
0.0014377
0.000811483
0.000401023
0.000168688
9.27494e-05
0.000105998
0.00923774
0.0105496
0.0134054
0.0166742
0.018757
0.019819
0.0202068
0.0204167
0.00848917
0.00794695
0.00755977
0.00728451
0.00708978
0.00695381
0.00685979
0.00679502
0.00675006
0.0067187
0.00670168
0.00669082
0.00667665
0.00667369
0.00666965
0.00666919
0.00666931
0.00667096
0.006673
0.00667548
0.00667825
0.00668082
0.00668352
0.00668637
0.00668964
0.0066933
0.00669729
0.00670151
0.00670596
0.0204391
0.0204274
0.0204554
0.0205648
0.0207753
0.0210813
0.0214509
0.0218389
0.0222026
0.0225121
0.0227457
0.0228776
0.0228665
0.0226464
0.022147
0.0213885
0.0203299
0.0189621
0.0173438
0.0155453
0.0135675
0.011571
0.00972305
0.00798302
0.00634173
0.00484071
0.00350337
0.00235978
0.00146314
0.000821914
0.000402159
0.000167685
9.31489e-05
0.000106785
0.00905031
0.0102336
0.012875
0.0162456
0.0184846
0.0196367
0.0200847
0.0201
0.0201129
0.00835687
0.00785019
0.0074911
0.00723619
0.00705721
0.00693248
0.00684597
0.0067862
0.00674399
0.00671561
0.00670033
0.00668807
0.00667656
0.00667296
0.00666971
0.00666909
0.00666932
0.00667096
0.00667299
0.00667548
0.00667818
0.00668071
0.00668343
0.00668628
0.00668955
0.00669322
0.00669722
0.00670148
0.00670595
0.0200337
0.0199653
0.0199786
0.020105
0.0203528
0.0207009
0.0211082
0.0215267
0.0219192
0.0222627
0.0225382
0.0227185
0.0227602
0.0225962
0.0221521
0.021436
0.0204117
0.0190868
0.017503
0.0157232
0.013744
0.0117304
0.0098619
0.00810229
0.00644327
0.00492264
0.00356912
0.00240736
0.00149153
0.000833581
0.000403585
0.000166585
9.36522e-05
0.000107714
0.00886995
0.00994182
0.0123375
0.0157685
0.0181806
0.0194261
0.0199143
0.019962
0.0197395
0.0196322
0.00822802
0.00775668
0.00742546
0.00719139
0.00702763
0.0069131
0.00683343
0.00677831
0.0067385
0.00671282
0.00669921
0.00668549
0.00667655
0.00667239
0.00666982
0.00666904
0.00666932
0.00667096
0.00667298
0.0066754
0.00667804
0.00668059
0.00668333
0.00668619
0.00668946
0.00669314
0.00669716
0.00670145
0.00670594
0.0194886
0.0193988
0.019425
0.0195908
0.0198873
0.0202829
0.0207289
0.0211798
0.0216063
0.021991
0.0223151
0.0225478
0.0226433
0.0225341
0.0221426
0.0214711
0.0204925
0.0192135
0.0176681
0.0159108
0.0139332
0.0119033
0.0100136
0.00823318
0.00655508
0.00501295
0.00364167
0.00246012
0.00152319
0.000846802
0.000405173