/*--------------------------------*- C++ -*----------------------------------*\
  =========                 |
  \\      /  F ield         | OpenFOAM: The Open Source CFD Toolbox
   \\    /   O peration     | Website:  https://openfoam.org
    \\  /    A nd           | Version:  8
     \\/     M anipulation  |
\*---------------------------------------------------------------------------*/
FoamFile
{
    version     2.0;
    format      ascii;
    class       surfaceScalarField;
    location    "0.44";
    object      phi;
}
// * * * * * * * * * * * * * * * * * * * * * * * * * * * * * * * * * * * * * //

dimensions      [0 3 -1 0 0 0 0];

internalField   nonuniform List<scalar> 
31053
(
6.3988e-07
1.27401e-05
8.62628e-07
1.51573e-05
3.56923e-07
1.23832e-05
9.47981e-07
1.75546e-05
5.66569e-07
1.49476e-05
2.74751e-07
1.21084e-05
9.72329e-07
2.02157e-05
6.8073e-07
1.74405e-05
4.70015e-07
1.47523e-05
2.16234e-07
1.18922e-05
9.63337e-07
2.3249e-05
7.38801e-07
2.01576e-05
5.95253e-07
1.73152e-05
3.95962e-07
1.45726e-05
1.71958e-07
1.17203e-05
9.32995e-07
2.66903e-05
7.63118e-07
2.32247e-05
6.69601e-07
2.00832e-05
5.22638e-07
1.71886e-05
3.32184e-07
1.44124e-05
1.37894e-07
1.15824e-05
8.87111e-07
3.06659e-05
7.65453e-07
2.6688e-05
7.10754e-07
2.31835e-05
6.02861e-07
2.0003e-05
4.53861e-07
1.70669e-05
2.78532e-07
1.42717e-05
1.1115e-07
1.14712e-05
8.289e-07
3.51982e-05
7.52242e-07
3.06791e-05
7.29578e-07
2.66692e-05
6.50155e-07
2.31362e-05
5.34296e-07
1.99226e-05
3.91458e-07
1.6954e-05
2.32229e-07
1.41507e-05
8.90235e-08
1.13822e-05
7.62036e-07
4.03869e-05
7.27506e-07
3.52229e-05
7.32471e-07
3.06762e-05
6.74568e-07
2.66448e-05
5.82571e-07
2.3088e-05
4.68544e-07
1.98455e-05
3.3382e-07
1.68524e-05
1.90876e-07
1.40488e-05
6.96902e-08
1.13125e-05
6.88922e-07
4.63531e-05
6.92481e-07
4.04219e-05
7.23136e-07
3.52323e-05
6.82075e-07
3.06687e-05
6.07702e-07
2.66196e-05
5.14692e-07
2.30418e-05
4.04634e-07
1.97747e-05
2.79228e-07
1.6764e-05
1.52663e-07
1.39658e-05
5.20025e-08
1.12605e-05
6.11484e-07
5.32174e-05
6.48808e-07
4.63968e-05
7.0202e-07
4.0443e-05
6.75707e-07
3.52386e-05
6.15604e-07
3.06608e-05
5.37545e-07
2.65968e-05
4.46012e-07
2.30004e-05
3.4133e-07
1.97126e-05
2.26254e-07
1.66904e-05
1.16298e-07
1.39015e-05
3.51909e-08
1.12253e-05
5.31762e-07
6.10597e-05
5.98151e-07
5.32681e-05
6.69768e-07
4.6429e-05
6.58223e-07
4.04605e-05
6.09668e-07
3.52446e-05
5.42866e-07
3.06555e-05
4.64046e-07
2.65788e-05
3.75627e-07
2.29661e-05
2.77437e-07
1.96614e-05
1.73797e-07
1.66329e-05
8.08503e-08
1.38559e-05
1.8748e-08
1.12066e-05
4.51704e-07
7.00621e-05
5.41997e-07
6.11159e-05
6.27365e-07
5.33105e-05
6.30426e-07
4.64568e-05
5.92084e-07
4.04781e-05
5.34111e-07
3.52533e-05
4.64113e-07
3.06554e-05
3.86561e-07
2.65678e-05
3.02392e-07
2.29412e-05
2.11938e-07
1.96232e-05
1.21075e-07
1.65927e-05
4.56491e-08
1.3829e-05
2.49683e-09
1.12041e-05
3.73212e-07
8.04105e-05
4.81683e-07
7.01224e-05
5.75932e-07
6.11673e-05
5.92425e-07
5.33485e-05
5.63869e-07
4.64851e-05
5.13226e-07
4.0499e-05
4.4959e-07
3.52679e-05
3.78942e-07
3.0663e-05
3.03946e-07
2.65663e-05
2.25281e-07
2.29278e-05
1.44171e-07
1.96002e-05
6.75025e-08
1.65709e-05
1.03379e-08
1.38211e-05
-1.37504e-08
1.12178e-05
3.10012e-07
7.62532e-05
4.18333e-07
8.04738e-05
5.16802e-07
7.01815e-05
5.44516e-07
6.12152e-05
5.25273e-07
5.33871e-05
4.8117e-07
4.65171e-05
4.22327e-07
4.05262e-05
3.55978e-07
3.52908e-05
2.86216e-07
3.06808e-05
2.15124e-07
2.65764e-05
1.43642e-07
2.29284e-05
7.36524e-08
1.9594e-05
1.27763e-08
1.65684e-05
-2.52606e-08
1.38327e-05
-3.01543e-08
1.1248e-05
2.56152e-07
7.62439e-05
3.63786e-07
7.63077e-05
4.51517e-07
8.05391e-05
4.87361e-07
7.02387e-05
4.76374e-07
6.12641e-05
4.38255e-07
5.343e-05
3.83188e-07
4.65562e-05
3.19417e-07
4.05628e-05
2.52151e-07
3.53249e-05
1.84801e-07
3.07111e-05
1.19399e-07
2.66007e-05
5.70106e-08
2.2945e-05
2.27585e-10
1.96065e-05
-4.31712e-08
1.65863e-05
-6.12539e-08
1.38638e-05
-4.67053e-08
1.12947e-05
2.10485e-07
7.62357e-05
3.14406e-07
7.62932e-05
3.93537e-07
7.63657e-05
4.22114e-07
8.06044e-05
4.17448e-07
7.02976e-05
3.84535e-07
6.13178e-05
3.32447e-07
5.34808e-05
2.70011e-07
4.66057e-05
2.03346e-07
4.06116e-05
1.36918e-07
3.53728e-05
7.39403e-08
3.07565e-05
1.63139e-08
2.66414e-05
-3.46555e-08
2.29799e-05
-7.59853e-08
1.96394e-05
-1.00258e-07
1.66253e-05
-9.75365e-08
1.39146e-05
-6.32303e-08
1.13579e-05
1.71911e-07
7.62306e-05
2.69736e-07
7.62803e-05
3.39674e-07
7.63471e-05
3.62548e-07
7.64253e-05
3.49316e-07
8.06725e-05
3.20124e-07
7.0362e-05
2.70151e-07
6.13801e-05
2.07946e-07
5.35428e-05
1.4041e-07
4.66686e-05
7.28512e-08
4.06757e-05
9.44974e-09
3.54373e-05
-4.68255e-08
3.08197e-05
-9.41153e-08
2.67008e-05
-1.31067e-07
2.3035e-05
-1.54659e-07
1.96938e-05
-1.58149e-07
1.66859e-05
-1.33814e-07
1.39852e-05
-7.95941e-08
1.14375e-05
1.39452e-07
7.62225e-05
2.29411e-07
7.62709e-05
2.89878e-07
7.63301e-05
3.0613e-07
7.64035e-05
2.86457e-07
7.64882e-05
2.45632e-07
8.0747e-05
1.9638e-07
7.04358e-05
1.33236e-07
6.14548e-05
6.3407e-08
5.36198e-05
-6.98003e-09
4.67484e-05
-7.29872e-08
4.07581e-05
-1.3072e-07
3.55212e-05
-1.77432e-07
3.0903e-05
-2.11447e-07
2.67812e-05
-2.31643e-07
2.3112e-05
-2.35142e-07
1.97708e-05
-2.16301e-07
1.67684e-05
-1.69721e-07
1.40753e-05
-9.55352e-08
1.1533e-05
1.12234e-07
7.62172e-05
1.93082e-07
7.62588e-05
2.4404e-07
7.63167e-05
2.53263e-07
7.6383e-05
2.26527e-07
7.64635e-05
1.76788e-07
7.6557e-05
1.11696e-07
8.08317e-05
4.59695e-08
7.0523e-05
-2.77063e-08
6.1546e-05
-1.02673e-07
5.37155e-05
-1.73194e-07
4.68486e-05
-2.3464e-07
4.0862e-05
-2.83476e-07
3.56272e-05
-3.17266e-07
3.10088e-05
-3.34856e-07
2.68844e-05
-3.35409e-07
2.32122e-05
-3.16524e-07
1.9871e-05
-2.74044e-07
1.68728e-05
-2.0477e-07
1.41845e-05
-1.10869e-07
1.16439e-05
8.94748e-08
7.62128e-05
1.60413e-07
7.62499e-05
2.02015e-07
7.63008e-05
2.04115e-07
7.63659e-05
1.70214e-07
7.64393e-05
1.11135e-07
7.65291e-05
3.3758e-08
7.66349e-05
-5.32201e-08
8.09309e-05
-1.32823e-07
7.06281e-05
-2.1435e-07
6.16576e-05
-2.91474e-07
5.38338e-05
-3.5871e-07
4.69727e-05
-4.11936e-07
4.09905e-05
-4.48011e-07
3.57579e-05
-4.65273e-07
3.11392e-05
-4.63048e-07
2.70121e-05
-4.41037e-07
2.33367e-05
-3.97748e-07
1.99947e-05
-3.30573e-07
1.69986e-05
-2.38464e-07
1.43121e-05
-1.25268e-07
1.17692e-05
7.19763e-08
6.95995e-05
1.31076e-07
7.62421e-05
1.63638e-07
7.62883e-05
1.58754e-07
7.63462e-05
1.17898e-07
7.64182e-05
4.9594e-08
7.65009e-05
-4.0281e-08
7.66031e-05
-1.43882e-07
7.67256e-05
-2.51165e-07
8.10492e-05
-3.41889e-07
7.07557e-05
-4.28058e-07
6.17942e-05
-5.03488e-07
5.39786e-05
-5.63305e-07
4.71241e-05
-6.0386e-07
4.11463e-05
-6.23035e-07
3.59157e-05
-6.19819e-07
3.1296e-05
-5.94259e-07
2.71653e-05
-5.47034e-07
2.3486e-05
-4.77591e-07
2.01417e-05
-3.85029e-07
1.71451e-05
-2.70194e-07
1.44571e-05
-1.38552e-07
1.19077e-05
5.8509e-08
6.25575e-05
1.06918e-07
6.96237e-05
1.28742e-07
7.6277e-05
1.17185e-07
7.63298e-05
6.9804e-08
7.63943e-05
-7.25235e-09
7.6475e-05
-1.09301e-07
7.65699e-05
-2.29507e-07
7.66888e-05
-3.58564e-07
7.6833e-05
-4.84323e-07
8.11916e-05
-5.82822e-07
7.09105e-05
-6.69356e-07
6.19601e-05
-7.38455e-07
5.41537e-05
-7.85744e-07
4.73059e-05
-8.08876e-07
4.13322e-05
-8.06554e-07
3.61024e-05
-7.78692e-07
3.14804e-05
-7.26547e-07
2.73448e-05
-6.51686e-07
2.36601e-05
-5.54754e-07
2.03114e-05
-4.36437e-07
1.73114e-05
-2.99478e-07
1.4618e-05
-1.50269e-07
1.2058e-05
4.79639e-08
5.62285e-05
8.71833e-08
6.25772e-05
9.97743e-08
6.96526e-05
7.93963e-08
7.63148e-05
2.60697e-08
7.63736e-05
-5.90209e-08
7.6446e-05
-1.72527e-07
7.65383e-05
-3.08791e-07
7.66492e-05
-4.59386e-07
7.67896e-05
-6.12788e-07
7.69615e-05
-7.54582e-07
8.13634e-05
-8.56209e-07
7.10973e-05
-9.37963e-07
6.21596e-05
-9.94908e-07
5.43629e-05
-1.02423e-06
4.75213e-05
-1.0246e-06
4.15502e-05
-9.95873e-07
3.63196e-05
-9.39467e-07
3.16934e-05
-8.57657e-07
2.75508e-05
-7.53194e-07
2.38586e-05
-6.27814e-07
2.05028e-05
-4.83964e-07
1.74959e-05
-3.25392e-07
1.47931e-05
-1.59663e-07
1.22176e-05
3.95793e-08
5.05404e-05
7.09396e-08
5.62448e-05
7.6008e-08
6.2601e-05
4.81724e-08
6.96838e-05
-1.32081e-08
7.63541e-05
-1.05451e-07
7.642e-05
-2.29411e-07
7.65029e-05
-3.80764e-07
7.66102e-05
-5.52133e-07
7.67419e-05
-7.32751e-07
7.69096e-05
-9.08752e-07
7.71156e-05
-1.06264e-06
8.15698e-05
-1.16178e-06
7.13211e-05
-1.23219e-06
6.23969e-05
-1.27079e-06
5.46094e-05
-1.27596e-06
4.77727e-05
-1.24781e-06
4.18022e-05
-1.18805e-06
3.65682e-05
-1.09932e-06
3.1935e-05
-9.85262e-07
2.77828e-05
-8.49621e-07
2.40804e-05
-6.95526e-07
2.07144e-05
-5.26238e-07
1.76967e-05
-3.47292e-07
1.49807e-05
-1.66756e-07
1.23844e-05
3.28201e-08
4.54268e-05
5.74782e-08
5.05538e-05
5.64133e-08
5.62644e-05
2.27652e-08
6.26264e-05
-4.51338e-08
6.97158e-05
-1.46357e-07
7.6395e-05
-2.79568e-07
7.64702e-05
-4.44709e-07
7.65669e-05
-6.35634e-07
7.66937e-05
-8.42505e-07
7.68517e-05
-1.05214e-06
7.70529e-05
-1.2473e-06
7.73003e-05
-1.40829e-06
8.18163e-05
-1.49763e-06
7.15866e-05
-1.5497e-06
6.26758e-05
-1.56284e-06
5.48963e-05
-1.53714e-06
4.8062e-05
-1.47502e-06
4.20891e-05
-1.37967e-06
3.68486e-05
-1.25537e-06
3.22051e-05
-1.10686e-06
2.80401e-05
-9.39234e-07
2.43241e-05
-7.5607e-07
2.09442e-05
-5.62496e-07
1.79119e-05
-3.6178e-07
1.51758e-05
-1.32937e-07
1.25173e-05
2.72988e-08
4.08315e-05
4.62743e-08
4.5438e-05
4.01753e-08
5.05701e-05
2.05216e-09
5.62851e-05
-7.06013e-08
6.26518e-05
-1.78782e-07
6.97482e-05
-3.22723e-07
7.64381e-05
-5.00102e-07
7.65255e-05
-7.08981e-07
7.66402e-05
-9.40651e-07
7.67919e-05
-1.18279e-06
7.69823e-05
-1.41858e-06
7.72242e-05
-1.62833e-06
7.75203e-05
-1.78945e-06
8.21082e-05
-1.86119e-06
7.18981e-05
-1.88678e-06
6.29997e-05
-1.86668e-06
5.52259e-05
-1.80371e-06
4.83907e-05
-1.70216e-06
4.24116e-05
-1.56721e-06
3.71604e-05
-1.40447e-06
3.25027e-05
-1.22015e-06
2.8321e-05
-1.01976e-06
2.45878e-05
-8.0827e-07
2.119e-05
-5.87844e-07
1.8138e-05
-3.5333e-07
1.53961e-05
-8.25489e-08
1.25999e-05
2.27362e-08
3.67006e-05
3.69102e-08
4.08409e-05
2.66662e-08
4.54515e-05
-1.48686e-08
5.0587e-05
-9.08914e-08
5.63054e-05
-2.03867e-07
6.26769e-05
-3.55856e-07
6.97813e-05
-5.46566e-07
7.64846e-05
-7.71495e-07
7.65881e-05
-1.02607e-06
7.67256e-05
-1.29904e-06
7.69081e-05
-1.57423e-06
7.7138e-05
-1.83213e-06
7.7428e-05
-2.04969e-06
7.77806e-05
-2.20335e-06
8.24503e-05
-2.2483e-06
7.22596e-05
-2.23845e-06
6.33715e-05
-2.1776e-06
5.55997e-05
-2.07086e-06
4.87594e-05
-1.925e-06
4.27694e-05
-1.74683e-06
3.75028e-05
-1.54375e-06
3.28263e-05
-1.32244e-06
2.86237e-05
-1.08953e-06
2.4869e-05
-8.47395e-07
2.14495e-05
-5.95402e-07
1.838e-05
-3.25946e-07
1.56395e-05
-6.11456e-08
1.2661e-05
1.89254e-08
3.29898e-05
2.90372e-08
3.67084e-05
1.53941e-08
4.08522e-05
-2.87545e-08
4.54654e-05
-1.07044e-07
5.06032e-05
-2.23129e-07
5.63246e-05
-3.80454e-07
6.27015e-05
-5.80975e-07
6.98157e-05
-8.22673e-07
7.65358e-05
-1.09789e-06
7.66599e-05
-1.39954e-06
7.68261e-05
-1.7123e-06
7.70462e-05
-2.0171e-06
7.73229e-05
-2.29063e-06
7.7669e-05
-2.50851e-06
7.80857e-05
-2.64547e-06
8.28475e-05
-2.65334e-06
7.26745e-05
-2.59929e-06
6.37932e-05
-2.48997e-06
5.60189e-05
-2.33359e-06
4.9168e-05
-2.13897e-06
4.31615e-05
-1.91511e-06
3.78741e-05
-1.67006e-06
3.3174e-05
-1.41154e-06
2.89457e-05
-1.14434e-06
2.5166e-05
-8.6882e-07
2.17229e-05
-5.89909e-07
1.8644e-05
-3.01188e-07
1.58796e-05
-5.48404e-08
1.27159e-05
1.57093e-08
2.96512e-05
2.23839e-08
3.29965e-05
5.94695e-09
3.67179e-05
-4.01977e-08
4.08636e-05
-1.19902e-07
4.54782e-05
-2.37798e-07
5.06178e-05
-3.9836e-07
5.63426e-05
-6.05266e-07
6.27258e-05
-8.59204e-07
6.98523e-05
-1.15547e-06
7.65933e-05
-1.48319e-06
7.67435e-05
-1.83114e-06
7.6945e-05
-2.18095e-06
7.72101e-05
-2.50929e-06
7.75416e-05
-2.79119e-06
7.79516e-05
-3.00002e-06
7.84403e-05
-3.10947e-06
8.33036e-05
-3.07011e-06
7.31453e-05
-2.96279e-06
6.4266e-05
-2.79802e-06
5.64833e-05
-2.58657e-06
4.96156e-05
-2.34003e-06
4.35865e-05
-2.06837e-06
3.82724e-05
-1.78075e-06
3.35432e-05
-1.48379e-06
2.92851e-05
-1.1806e-06
2.54777e-05
-8.77815e-07
2.20108e-05
-5.80629e-07
1.89234e-05
-2.87181e-07
1.61119e-05
-5.83565e-08
1.27742e-05
1.29754e-08
2.66507e-05
1.67373e-08
2.96569e-05
-2.00695e-09
3.30044e-05
-4.96434e-08
3.67273e-05
-1.3015e-07
4.08738e-05
-2.48866e-07
4.54893e-05
-4.11062e-07
5.06305e-05
-6.21706e-07
5.6359e-05
-8.83583e-07
6.27502e-05
-1.1952e-06
6.9892e-05
-1.54916e-06
7.66593e-05
-1.92941e-06
7.68418e-05
-2.32169e-06
7.70857e-05
-2.703e-06
7.74038e-05
-3.04803e-06
7.77984e-05
-3.32895e-06
7.82806e-05
-3.51731e-06
7.88481e-05
-3.58851e-06
8.3822e-05
-3.49132e-06
7.36738e-05
-3.32239e-06
6.47904e-05
-3.09559e-06
5.69923e-05
-2.8251e-06
5.01007e-05
-2.52397e-06
4.4042e-05
-2.20352e-06
3.86952e-05
-1.87252e-06
3.39319e-05
-1.53635e-06
2.96409e-05
-1.2029e-06
2.58028e-05
-8.81622e-07
2.23118e-05
-5.73155e-07
1.92094e-05
-2.82447e-07
1.6336e-05
-8.02214e-08
1.28545e-05
1.0642e-08
2.39563e-05
1.19225e-08
2.66555e-05
-8.72945e-09
2.96636e-05
-5.74599e-08
3.30122e-05
-1.38321e-07
3.67355e-05
-2.57126e-07
4.08821e-05
-4.19758e-07
4.5498e-05
-6.32128e-07
5.0641e-05
-8.98616e-07
5.6374e-05
-1.22025e-06
6.27752e-05
-1.59343e-06
6.99363e-05
-2.00603e-06
7.67359e-05
-2.43766e-06
7.69578e-05
-2.86938e-06
7.72521e-05
-3.27589e-06
7.76316e-05
-3.62837e-06
7.80978e-05
-3.89654e-06
7.86598e-05
-4.0531e-06
7.93127e-05
-4.07447e-06
8.44052e-05
-3.90953e-06
7.4261e-05
-3.67101e-06
6.53658e-05
-3.37718e-06
5.75444e-05
-3.04428e-06
5.0621e-05
-2.68719e-06
4.45257e-05
-2.31745e-06
3.91401e-05
-1.94306e-06
3.43386e-05
-1.57279e-06
3.00107e-05
-1.21755e-06
2.61388e-05
-8.83626e-07
2.26223e-05
-5.6867e-07
1.94956e-05
-3.48084e-07
1.66039e-05
-8.83253e-08
1.29428e-05
8.64563e-09
2.1534e-05
7.79761e-09
2.39605e-05
-1.44356e-08
2.66613e-05
-6.39481e-08
2.96701e-05
-1.44839e-07
3.30188e-05
-2.63208e-07
3.67416e-05
-4.25396e-07
4.08877e-05
-6.37997e-07
4.55038e-05
-9.06566e-07
5.06489e-05
-1.23407e-06
5.63878e-05
-1.61992e-06
6.28017e-05
-2.05639e-06
6.99866e-05
-2.52751e-06
7.68258e-05
-3.0064e-06
7.70948e-05
-3.47194e-06
7.74481e-05
-3.8947e-06
7.7898e-05
-4.24278e-06
7.84441e-05
-4.48639e-06
7.90931e-05
-4.59864e-06
7.98369e-05
-4.559e-06
8.50546e-05
-4.31658e-06
7.49065e-05
-4.00223e-06
6.59908e-05
-3.63714e-06
5.81372e-05
-3.24001e-06
5.11738e-05
-2.82659e-06
4.50349e-05
-2.40815e-06
3.96052e-05
-1.99498e-06
3.47608e-05
-1.59833e-06
3.03915e-05
-1.22733e-06
2.64825e-05
-8.84163e-07
2.29378e-05
-6.98128e-07
1.98457e-05
-3.46627e-07
1.68622e-05
-9.70473e-08
1.30398e-05
6.93326e-09
1.93537e-05
4.25013e-09
2.15375e-05
-1.93045e-08
2.39653e-05
-6.93519e-08
2.66667e-05
-1.50038e-07
2.96753e-05
-2.67608e-07
3.30232e-05
-4.28726e-07
3.67449e-05
-6.40469e-07
4.08902e-05
-9.09237e-07
4.55065e-05
-1.23945e-06
5.06543e-05
-1.63287e-06
5.64008e-05
-2.0853e-06
6.28306e-05
-2.58584e-06
7.00449e-05
-3.11236e-06
7.69317e-05
-3.63372e-06
7.72566e-05
-4.1246e-06
7.7678e-05
-4.55188e-06
7.82071e-05
-4.88348e-06
7.88412e-05
-5.08924e-06
7.95837e-05
-5.14479e-06
8.04227e-05
-5.03281e-06
8.57709e-05
-4.70512e-06
7.56094e-05
-4.30956e-06
6.66633e-05
-3.87075e-06
5.8768e-05
-3.40898e-06
5.17562e-05
-2.94021e-06
4.55669e-05
-2.47729e-06
4.00875e-05
-2.03236e-06
3.51948e-05
-1.61536e-06
3.07795e-05
-1.23241e-06
2.68307e-05
-1.08953e-06
2.33292e-05
-6.88037e-07
2.01871e-05
-3.45497e-07
1.71106e-05
-1.03701e-07
1.31435e-05
1.73975e-05
5.45942e-09
1.18815e-09
1.93568e-05
-2.34805e-08
2.15417e-05
-7.38701e-08
2.39698e-05
-1.54185e-07
2.66708e-05
-2.70713e-07
2.96784e-05
-4.30336e-07
3.30248e-05
-6.4045e-07
3.67449e-05
-9.08051e-07
4.0889e-05
-1.23863e-06
4.55057e-05
-1.63572e-06
5.06571e-05
-2.09792e-06
5.64134e-05
-2.61842e-06
6.28632e-05
-3.18082e-06
7.01134e-05
-3.7591e-06
7.70571e-05
-4.31508e-06
7.74471e-05
-4.81992e-06
7.79461e-05
-5.23962e-06
7.85632e-05
-5.54084e-06
7.92928e-05
-5.69532e-06
8.01342e-05
-5.68132e-06
8.10712e-05
-5.48754e-06
8.65533e-05
-5.06768e-06
7.63675e-05
-4.58757e-06
6.73801e-05
-4.07433e-06
5.94333e-05
-3.54904e-06
5.2365e-05
-3.02887e-06
4.61185e-05
-2.52794e-06
4.05831e-05
-2.05722e-06
3.56367e-05
-1.62421e-06
3.11714e-05
-1.52194e-06
2.72631e-05
-1.07396e-06
2.37151e-05
-6.75656e-07
2.05173e-05
-3.42283e-07
1.73492e-05
-1.07926e-07
1.32515e-05
1.74001e-05
-1.4669e-09
2.78122e-05
3.23699e-09
-2.70784e-08
1.93604e-05
-7.76629e-08
2.15455e-05
-1.57495e-07
2.39732e-05
-2.72829e-07
2.66729e-05
-4.30682e-07
2.96787e-05
-6.38647e-07
3.3023e-05
-9.04116e-07
3.6741e-05
-1.23334e-06
4.08837e-05
-1.63118e-06
4.55012e-05
-2.09839e-06
5.06576e-05
-2.63143e-06
5.64264e-05
-3.21861e-06
6.2901e-05
-3.84028e-06
7.01946e-05
-4.46354e-06
7.72056e-05
-5.04334e-06
7.76705e-05
-5.55025e-06
7.82567e-05
-5.94807e-06
7.89704e-05
-6.20462e-06
7.98021e-05
-6.29361e-06
8.07465e-05
-6.19902e-06
8.17826e-05
-5.91461e-06
8.74002e-05
-5.39793e-06
7.71779e-05
-4.83194e-06
6.81377e-05
-4.2453e-06
6.01296e-05
-3.66021e-06
5.29963e-05
-3.09471e-06
4.66853e-05
-2.56172e-06
4.10876e-05
-2.07006e-06
3.60825e-05
-2.00728e-06
3.16567e-05
-1.50169e-06
2.76909e-05
-1.05181e-06
2.40913e-05
-6.59605e-07
2.08346e-05
-3.36292e-07
1.75776e-05
-1.09777e-07
1.33612e-05
1.74032e-05
-3.01874e-08
2.78161e-05
-5.36926e-09
2.85521e-05
1.12809e-09
-8.08599e-08
1.93636e-05
-1.60136e-07
2.15482e-05
-2.74192e-07
2.39745e-05
-4.30117e-07
2.66724e-05
-6.35602e-07
2.96757e-05
-8.98288e-07
3.30171e-05
-1.22495e-06
3.67326e-05
-1.6214e-06
4.0874e-05
-2.09004e-06
4.54928e-05
-2.62988e-06
5.06561e-05
-3.23305e-06
5.64409e-05
-3.88522e-06
6.2946e-05
-4.56047e-06
7.02915e-05
-5.21894e-06
7.73812e-05
-5.81114e-06
7.79314e-05
-6.30569e-06
7.86143e-05
-6.66671e-06
7.94325e-05
-6.86317e-06
8.03717e-05
-6.87409e-06
8.14216e-05
-6.68826e-06
8.25563e-05
-6.30663e-06
8.83089e-05
-5.69076e-06
7.80367e-05
-5.03947e-06
6.89318e-05
-4.3829e-06
6.08523e-05
-3.74379e-06
5.36454e-05
-3.13895e-06
4.72625e-05
-2.57926e-06
4.15968e-05
-2.55912e-06
3.66344e-05
-1.98129e-06
3.21363e-05
-1.47034e-06
2.81094e-05
-1.02308e-06
2.44547e-05
-6.39604e-07
2.11379e-05
-3.27537e-07
1.77953e-05
-1.09567e-07
1.34708e-05
1.74059e-05
-8.3567e-08
2.78202e-05
-3.42363e-08
2.85558e-05
-9.10464e-09
2.9312e-05
-8.71767e-10
-1.62243e-07
1.93657e-05
-2.74989e-07
2.15489e-05
-4.28911e-07
2.39733e-05
-6.31731e-07
2.66685e-05
-8.91221e-07
2.96686e-05
-1.21449e-06
3.30067e-05
-1.60804e-06
3.67192e-05
-2.07546e-06
4.08594e-05
-2.61777e-06
4.54807e-05
-3.23008e-06
5.06531e-05
-3.90246e-06
5.64581e-05
-4.61492e-06
6.30004e-05
-5.3351e-06
7.04077e-05
-6.01839e-06
7.75884e-05
-6.60872e-06
7.82344e-05
-7.07561e-06
7.90232e-05
-7.38341e-06
7.99528e-05
-7.50581e-06
8.10034e-05
-7.4262e-06
8.21595e-05
-7.14064e-06
8.33903e-05
-6.65746e-06
8.92756e-05
-5.94211e-06
7.89394e-05
-5.20859e-06
6.97575e-05
-4.48763e-06
6.15961e-05
-3.80062e-06
5.43071e-05
-3.16234e-06
4.78456e-05
-3.18965e-06
4.22274e-05
-2.52629e-06
3.71794e-05
-1.93968e-06
3.26056e-05
-1.42895e-06
2.85153e-05
-9.88332e-07
2.48035e-05
-6.16049e-07
2.14264e-05
-3.16369e-07
1.80021e-05
-1.07699e-07
1.35785e-05
1.74076e-05
-1.63924e-07
2.78227e-05
-8.60518e-08
2.85597e-05
-3.80568e-08
2.93156e-05
-1.26662e-08
3.00899e-05
-2.75705e-09
-2.75362e-07
1.9366e-05
-4.27272e-07
2.15473e-05
-6.27348e-07
2.39689e-05
-8.83412e-07
2.66607e-05
-1.20277e-06
2.96569e-05
-1.59237e-06
3.2991e-05
-2.0567e-06
3.67004e-05
-2.59823e-06
4.08399e-05
-3.21448e-06
4.54651e-05
-3.89901e-06
5.06496e-05
-4.63678e-06
5.648e-05
-5.40193e-06
6.30672e-05
-6.15778e-06
7.0547e-05
-6.85249e-06
7.78322e-05
-7.42555e-06
7.85844e-05
-7.84762e-06
7.94874e-05
-8.08698e-06
8.05339e-05
-8.1211e-06
8.16983e-05
-7.94053e-06
8.29594e-05
-7.54899e-06
8.42818e-05
-6.96198e-06
9.02955e-05
-6.14951e-06
7.98803e-05
-5.33908e-06
7.0609e-05
-4.55998e-06
6.23555e-05
-3.83152e-06
5.49763e-05
-3.91242e-06
4.85683e-05
-3.14934e-06
4.28504e-05
-2.47297e-06
3.77127e-05
-1.88446e-06
3.30611e-05
-1.37897e-06
2.89059e-05
-9.48649e-07
2.51361e-05
-5.89607e-07
2.16996e-05
-3.03299e-07
1.81977e-05
-1.04562e-07
1.36831e-05
1.74077e-05
-2.75426e-07
2.7822e-05
-1.63287e-07
2.85619e-05
-8.82411e-08
2.93191e-05
-4.1631e-08
3.00933e-05
-1.60547e-08
3.08898e-05
-4.52149e-09
-4.25356e-07
1.93641e-05
-6.22688e-07
2.15427e-05
-8.75231e-07
2.39607e-05
-1.19038e-06
2.66483e-05
-1.57537e-06
2.96399e-05
-2.03528e-06
3.29696e-05
-2.57371e-06
3.66759e-05
-3.19e-06
4.08154e-05
-3.88048e-06
4.54466e-05
-4.63418e-06
5.0647e-05
-5.43072e-06
5.65088e-05
-6.24043e-06
6.31499e-05
-7.01959e-06
7.07141e-05
-7.71098e-06
7.81176e-05
-8.24918e-06
7.89859e-05
-8.61018e-06
8.00106e-05
-8.76525e-06
8.11781e-05
-8.69871e-06
8.24565e-05
-8.40889e-06
8.38193e-05
-7.90715e-06
8.5227e-05
-7.21669e-06
9.13627e-05
-6.31199e-06
8.08532e-05
-5.43098e-06
7.148e-05
-4.60074e-06
6.31247e-05
-4.7431e-06
5.5807e-05
-3.86432e-06
4.92833e-05
-3.08303e-06
4.34605e-05
-2.40212e-06
3.82303e-05
-1.81784e-06
3.35e-05
-1.32221e-06
2.92795e-05
-9.05237e-07
2.54517e-05
-5.61069e-07
2.19574e-05
-2.88854e-07
1.8382e-05
-1.00499e-07
1.37836e-05
1.74056e-05
-4.23281e-07
2.78166e-05
-2.7004e-07
2.85608e-05
-1.62238e-07
2.9321e-05
-9.0123e-08
3.00966e-05
-4.49561e-08
3.0893e-05
-1.92735e-08
3.17096e-05
-6.16456e-09
-6.17926e-07
1.93594e-05
-8.66949e-07
2.15344e-05
-1.17776e-06
2.39481e-05
-1.55775e-06
2.66307e-05
-2.0124e-06
2.9617e-05
-2.5461e-06
3.2942e-05
-3.15958e-06
3.66455e-05
-3.85134e-06
4.07862e-05
-4.61368e-06
4.54261e-05
-5.4308e-06
5.06471e-05
-6.27903e-06
5.65474e-05
-7.12203e-06
6.32523e-05
-7.91072e-06
7.09139e-05
-8.58156e-06
7.845e-05
-9.06791e-06
7.94437e-05
-9.35055e-06
8.05959e-05
-9.40709e-06
8.18865e-05
-9.22951e-06
8.32771e-05
-8.82408e-06
8.47362e-05
-8.21064e-06
8.6221e-05
-7.41976e-06
9.24705e-05
-6.42907e-06
8.18513e-05
-5.48501e-06
7.23643e-05
-5.69984e-06
6.40815e-05
-4.68737e-06
5.663e-05
-3.78391e-06
4.99842e-05
-2.99471e-06
4.40531e-05
-2.31683e-06
3.87293e-05
-1.74241e-06
3.39202e-05
-1.26051e-06
2.96347e-05
-8.59313e-07
2.575e-05
-5.312e-07
2.21998e-05
-2.73527e-07
1.85551e-05
-9.58091e-08
1.38794e-05
1.74009e-05
-6.13188e-07
2.78048e-05
-4.11399e-07
2.85549e-05
-2.64147e-07
2.93196e-05
-1.60804e-07
3.00982e-05
-9.16872e-08
3.08961e-05
-4.80284e-08
3.17127e-05
-2.23193e-08
3.25535e-05
-7.69049e-09
-8.58768e-07
1.93512e-05
-1.16524e-06
2.15218e-05
-1.54005e-06
2.39304e-05
-1.98893e-06
2.66072e-05
-2.51682e-06
2.95877e-05
-3.12547e-06
3.29079e-05
-3.81506e-06
3.66092e-05
-4.58049e-06
4.0753e-05
-5.40971e-06
4.5405e-05
-6.28413e-06
5.06522e-05
-7.1739e-06
5.65992e-05
-8.03747e-06
6.33791e-05
-8.81922e-06
7.11515e-05
-9.45263e-06
7.88347e-05
-9.86864e-06
7.99617e-05
-1.00569e-05
8.12458e-05
-1.00024e-05
8.26594e-05
-9.70523e-06
8.41582e-05
-9.18066e-06
8.57063e-05
-8.45683e-06
8.7258e-05
-7.5701e-06
9.36115e-05
-6.50125e-06
8.28675e-05
-6.80236e-06
7.34668e-05
-5.63728e-06
6.50314e-05
-4.59201e-06
5.74381e-05
-3.6763e-06
5.06658e-05
-2.88845e-06
4.46247e-05
-2.22044e-06
3.92074e-05
-1.66063e-06
3.43203e-05
-1.19562e-06
2.99711e-05
-8.11971e-07
2.60307e-05
-5.00692e-07
2.24269e-05
-2.57763e-07
1.8717e-05
-9.07234e-08
1.39701e-05
1.73929e-05
-8.50823e-07
2.77844e-05
-5.92848e-07
2.85423e-05
-3.98828e-07
2.93131e-05
-2.57681e-07
3.00963e-05
-1.58941e-07
3.08973e-05
-9.29306e-08
3.17155e-05
-5.08448e-08
3.25564e-05
-2.51851e-08
3.34194e-05
-9.10005e-09
-1.15304e-06
1.9339e-05
-1.52265e-06
2.15044e-05
-1.96552e-06
2.3907e-05
-2.48693e-06
2.65773e-05
-3.08938e-06
2.95516e-05
-3.77434e-06
3.28671e-05
-4.53873e-06
3.65675e-05
-5.37352e-06
4.07169e-05
-6.26438e-06
4.53852e-05
-7.187e-06
5.06653e-05
-8.10664e-06
5.66684e-05
-8.97525e-06
6.35351e-05
-9.73372e-06
7.14326e-05
-1.03109e-05
7.9277e-05
-1.0639e-05
8.05439e-05
-1.07184e-05
8.19618e-05
-1.0542e-05
8.34962e-05
-1.01194e-05
8.50969e-05
-9.4751e-06
8.67245e-05
-8.64401e-06
8.83319e-05
-7.66786e-06
9.47781e-05
-8.07364e-06
8.41388e-05
-6.73483e-06
7.45643e-05
-5.52649e-06
6.59658e-05
-4.46332e-06
5.82251e-05
-3.54661e-06
5.13239e-05
-2.76845e-06
4.51727e-05
-2.11614e-06
3.96629e-05
-1.57482e-06
3.46995e-05
-1.12904e-06
3.02881e-05
-7.64169e-07
2.62942e-05
-4.70155e-07
2.26393e-05
-2.41894e-07
1.88682e-05
-8.54421e-08
1.40555e-05
1.73812e-05
-1.14133e-06
2.77533e-05
-8.19725e-07
2.85212e-05
-5.71664e-07
2.92999e-05
-3.85618e-07
3.00894e-05
-2.50742e-07
3.0895e-05
-1.56678e-07
3.17164e-05
-9.38427e-08
3.25589e-05
-5.33965e-08
3.34221e-05
-2.7872e-08
3.43053e-05
-1.03961e-08
-1.50582e-06
1.93222e-05
-1.94261e-06
2.14815e-05
-2.4572e-06
2.38773e-05
-3.0526e-06
2.65405e-05
-3.73121e-06
2.95085e-05
-4.49155e-06
3.282e-05
-5.32701e-06
3.65209e-05
-6.2267e-06
4.06792e-05
-7.17106e-06
4.53693e-05
-8.13129e-06
5.069e-05
-9.06633e-06
5.67595e-05
-9.92443e-06
6.37258e-05
-1.0641e-05
7.17628e-05
-1.11437e-05
7.97817e-05
-1.13675e-05
8.11929e-05
-1.13248e-05
8.27445e-05
-1.10183e-05
8.4395e-05
-1.04675e-05
8.60894e-05
-9.70485e-06
8.77854e-05
-8.77179e-06
8.94359e-05
-9.54012e-06
9.62446e-05
-8.00504e-06
8.5409e-05
-6.60895e-06
7.56468e-05
-5.37505e-06
6.68776e-05
-4.30757e-06
5.89861e-05
-3.40003e-06
5.19555e-05
-2.63868e-06
4.56952e-05
-2.00684e-06
4.00949e-05
-1.48696e-06
3.50574e-05
-1.06209e-06
3.0586e-05
-7.16742e-07
2.65408e-05
-4.40024e-07
2.28374e-05
-2.26221e-07
1.9009e-05
-8.01134e-08
1.41356e-05
1.73651e-05
-1.48975e-06
2.77091e-05
-1.09714e-06
2.8489e-05
-7.87578e-07
2.92778e-05
-5.49579e-07
3.00754e-05
-3.71702e-07
3.08876e-05
-2.43263e-07
3.17137e-05
-1.53998e-07
3.25595e-05
-9.44426e-08
3.34244e-05
-5.56942e-08
3.43078e-05
-3.03764e-08
3.52192e-05
-1.15825e-08
-1.92054e-06
1.93001e-05
-2.42819e-06
2.14525e-05
-3.01606e-06
2.38407e-05
-3.68722e-06
2.64965e-05
-4.44138e-06
2.94583e-05
-5.27387e-06
3.27668e-05
-6.17662e-06
3.64709e-05
-7.13395e-06
4.06421e-05
-8.12224e-06
4.53602e-05
-9.10667e-06
5.07303e-05
-1.00425e-05
5.68776e-05
-1.0872e-05
6.39568e-05
-1.15284e-05
7.21474e-05
-1.1939e-05
8.03532e-05
-1.2043e-05
8.19112e-05
-1.18675e-05
8.35938e-05
-1.14258e-05
8.53533e-05
-1.07462e-05
8.71307e-05
-9.86892e-06
8.88825e-05
-1.0936e-05
9.08318e-05
-9.47809e-06
9.77176e-05
-7.86626e-06
8.66663e-05
-6.43372e-06
7.67055e-05
-5.19057e-06
6.77606e-05
-4.13112e-06
5.97172e-05
-3.24142e-06
5.25583e-05
-2.50276e-06
4.61911e-05
-1.89503e-06
4.0503e-05
-1.39873e-06
3.53941e-05
-9.95868e-07
3.08652e-05
-6.70261e-07
2.6771e-05
-4.10699e-07
2.30219e-05
-2.10962e-07
1.91398e-05
-7.4843e-08
1.42105e-05
1.73441e-05
-1.89952e-06
2.76489e-05
-1.42953e-06
2.84435e-05
-1.05166e-06
2.92447e-05
-7.54432e-07
3.00525e-05
-5.26668e-07
3.0873e-05
-3.57155e-07
3.17058e-05
-2.3529e-07
3.25565e-05
-1.50908e-07
3.34247e-05
-9.47079e-08
3.43098e-05
-5.77272e-08
3.52215e-05
-3.26976e-08
3.61551e-05
-1.26607e-08
-2.40028e-06
1.92722e-05
-2.98042e-06
2.14169e-05
-3.64347e-06
2.3797e-05
-4.39006e-06
2.64452e-05
-5.21698e-06
2.94015e-05
-6.11843e-06
3.27087e-05
-7.08199e-06
3.64189e-05
-8.08835e-06
4.06082e-05
-9.10821e-06
4.53618e-05
-1.01032e-05
5.07911e-05
-1.10226e-05
5.70281e-05
-1.18055e-05
6.42339e-05
-1.23835e-05
7.25919e-05
-1.2685e-05
8.09952e-05
-1.2656e-05
8.26997e-05
-1.23401e-05
8.45081e-05
-1.17602e-05
8.63673e-05
-1.09536e-05
8.82154e-05
-1.23328e-05
9.02793e-05
-1.08892e-05
9.22429e-05
-9.33172e-06
9.91831e-05
-7.66786e-06
8.79005e-05
-6.2183e-06
7.77332e-05
-4.98074e-06
6.86102e-05
-3.93984e-06
6.04156e-05
-3.0752e-06
5.31307e-05
-2.36373e-06
4.66599e-05
-1.78283e-06
4.08871e-05
-1.31158e-06
3.57098e-05
-9.31129e-07
3.1126e-05
-6.25256e-07
2.69856e-05
-3.82464e-07
2.31934e-05
-1.96257e-07
1.92612e-05
-6.97134e-08
1.42802e-05
1.73176e-05
-2.37374e-06
2.75696e-05
-1.82023e-06
2.83816e-05
-1.36761e-06
2.91977e-05
-1.00465e-06
3.00182e-05
-7.20109e-07
3.08493e-05
-5.02921e-07
3.16906e-05
-3.42004e-07
3.2548e-05
-2.26827e-07
3.34212e-05
-1.47426e-07
3.43098e-05
-9.46577e-08
3.52233e-05
-5.95043e-08
3.61572e-05
-3.48387e-08
3.6589e-05
-1.36206e-08
-2.94616e-06
1.92379e-05
-3.60078e-06
2.13742e-05
-4.33891e-06
2.37458e-05
-5.15849e-06
2.63867e-05
-6.05548e-06
2.93385e-05
-7.02012e-06
3.26468e-05
-8.03674e-06
3.63673e-05
-9.08077e-06
4.05807e-05
-1.01196e-05
4.53782e-05
-1.11089e-05
5.08774e-05
-1.19942e-05
5.72168e-05
-1.27122e-05
6.45626e-05
-1.3194e-05
7.31008e-05
-1.33714e-05
8.17106e-05
-1.31992e-05
8.35587e-05
-1.27372e-05
8.54852e-05
-1.20187e-05
8.74324e-05
-1.37249e-05
8.96074e-05
-1.23117e-05
9.17018e-05
-1.07443e-05
9.36555e-05
-9.11304e-06
0.000100628
-7.42041e-06
8.91026e-05
-5.97181e-06
7.87243e-05
-4.75261e-06
6.9423e-05
-3.7391e-06
6.10795e-05
-2.90511e-06
5.36721e-05
-2.22422e-06
4.71012e-05
-1.67203e-06
4.12475e-05
-1.22646e-06
3.60051e-05
-8.68563e-07
3.13693e-05
-5.82088e-07
2.71852e-05
-3.55481e-07
2.33527e-05
-1.82219e-07
1.93737e-05
-6.47856e-08
1.4345e-05
1.7285e-05
-2.91358e-06
2.7468e-05
-2.27211e-06
2.83006e-05
-1.73925e-06
2.91343e-05
-1.3042e-06
2.997e-05
-9.56462e-07
3.0814e-05
-6.84885e-07
3.16661e-05
-4.7839e-07
3.25322e-05
-3.26224e-07
3.34122e-05
-2.17882e-07
3.43059e-05
-1.43561e-07
3.52229e-05
-9.42927e-08
3.61587e-05
-6.10271e-08
3.65909e-05
-3.67734e-08
3.55528e-05
-1.44385e-08
-3.55972e-06
1.91969e-05
-4.28891e-06
2.13242e-05
-5.09999e-06
2.36873e-05
-5.9903e-06
2.63215e-05
-6.9522e-06
2.92706e-05
-7.97305e-06
3.25831e-05
-9.03232e-06
3.63188e-05
-1.01025e-05
4.05636e-05
-1.11449e-05
4.54142e-05
-1.21116e-05
5.09948e-05
-1.29449e-05
5.74495e-05
-1.35798e-05
6.49485e-05
-1.3949e-05
7.36785e-05
-1.39898e-05
8.25013e-05
-1.36659e-05
8.44875e-05
-1.30552e-05
8.65216e-05
-1.51047e-05
8.88122e-05
-1.37419e-05
9.10377e-05
-1.21787e-05
9.31361e-05
-1.05145e-05
9.50569e-05
-8.83427e-06
0.000102042
-7.13461e-06
9.02654e-05
-5.70273e-06
7.96744e-05
-4.51269e-06
7.01966e-05
-3.53345e-06
6.17078e-05
-2.73433e-06
5.41822e-05
-2.08644e-06
4.75157e-05
-1.56382e-06
4.15849e-05
-1.14423e-06
3.62808e-05
-8.08637e-07
3.15959e-05
-5.40955e-07
2.73707e-05
-3.29881e-07
2.35003e-05
-1.68926e-07
1.94779e-05
-6.00966e-08
1.44051e-05
1.72459e-05
-3.52065e-06
2.73413e-05
-2.78694e-06
2.81971e-05
-2.16859e-06
2.90512e-05
-1.65614e-06
2.99051e-05
-1.23926e-06
3.07646e-05
-9.07026e-07
3.16299e-05
-6.48687e-07
3.2507e-05
-4.53192e-07
3.33959e-05
-3.09925e-07
3.42965e-05
-2.08507e-07
3.52187e-05
-1.39328e-07
3.61581e-05
-9.36156e-08
3.65922e-05
-6.23017e-08
3.55545e-05
-3.84526e-08
3.45447e-05
-1.5134e-08