/*--------------------------------*- C++ -*----------------------------------*\
  =========                 |
  \\      /  F ield         | OpenFOAM: The Open Source CFD Toolbox
   \\    /   O peration     | Website:  https://openfoam.org
    \\  /    A nd           | Version:  8
     \\/     M anipulation  |
\*---------------------------------------------------------------------------*/
FoamFile
{
    version     2.0;
    format      ascii;
    class       volScalarField;
    location    "500";
    object      p;
}
// * * * * * * * * * * * * * * * * * * * * * * * * * * * * * * * * * * * * * //

dimensions      [0 2 -2 0 0 0 0];

internalField   nonuniform List<scalar> 
15677
(
87.0599
84.0452
84.0232
84.2489
84.2126
84.1508
84.1098
84.0716
84.0312
83.9892
83.9463
83.9026
83.8588
83.8156
83.7775
83.7459
83.7187
83.6953
83.6751
83.6577
83.6427
83.6302
83.6204
83.6125
83.6062
83.6011
83.5968
83.5933
83.5904
83.5879
83.5859
83.5841
83.5826
83.5813
83.5802
84.1353
83.1769
83.6952
83.7487
83.6917
83.6907
83.6975
83.6985
83.6977
83.6964
83.694
83.6898
83.6833
83.6741
83.6635
83.6529
83.6423
83.6321
83.6225
83.6136
83.6055
83.5985
83.5929
83.5883
83.5845
83.5814
83.5788
83.5767
83.5749
83.5734
83.5721
83.571
83.5701
83.5692
83.5685
83.5985
83.4119
83.6136
83.5412
83.5275
83.5396
83.5421
83.542
83.5424
83.5429
83.5433
83.5435
83.5435
83.5431
83.5423
83.5413
83.5402
83.539
83.538
83.537
83.5363
83.5357
83.5354
83.5353
83.5353
83.5353
83.5355
83.5357
83.5359
83.5361
83.5363
83.5365
83.5367
83.5368
83.537
83.45
83.432
83.4731
83.4334
83.4458
83.4496
83.4476
83.4468
83.4466
83.4463
83.4464
83.4469
83.4481
83.4499
83.4523
83.455
83.4581
83.4616
83.4654
83.4696
83.474
83.4785
83.4827
83.4866
83.4901
83.4933
83.4962
83.4987
83.501
83.503
83.5048
83.5064
83.5078
83.509
83.51
83.3092
83.3159
83.3189
83.311
83.3217
83.322
83.3229
83.3248
83.3268
83.3293
83.3325
83.3369
83.3425
83.3496
83.3576
83.3659
83.3746
83.3837
83.3932
83.4031
83.4132
83.423
83.4321
83.4402
83.4474
83.4539
83.4597
83.4648
83.4693
83.4733
83.4769
83.48
83.4828
83.4852
83.4872
83.1905
83.1967
83.1961
83.1979
83.2029
83.2036
83.2059
83.2084
83.2112
83.2149
83.2197
83.2262
83.2348
83.246
83.259
83.2726
83.2871
83.3024
83.3182
83.3346
83.3514
83.3677
83.3825
83.3959
83.4078
83.4184
83.4279
83.4362
83.4436
83.4501
83.4559
83.461
83.4655
83.4694
83.4728
83.0697
83.0736
83.0747
83.0777
83.0802
83.0821
83.0847
83.0875
83.0909
83.0954
83.1016
83.1101
83.1217
83.1371
83.1552
83.1746
83.1955
83.2177
83.2409
83.2651
83.2898
83.314
83.336
83.3558
83.3735
83.3893
83.4033
83.4157
83.4267
83.4364
83.445
83.4526
83.4593
83.4652
83.4702
82.9279
82.9305
82.9328
82.9355
82.9377
82.9404
82.9433
82.9467
82.9511
82.957
82.9653
82.9766
82.9922
83.0131
83.038
83.0649
83.0939
83.1249
83.1575
83.1914
83.2264
83.2604
83.2916
83.3196
83.3447
83.3671
83.387
83.4047
83.4203
83.4341
83.4463
83.4572
83.4667
83.4752
83.4822
82.7585
82.7604
82.7631
82.7657
82.7682
82.7715
82.775
82.7793
82.785
82.7929
82.8037
82.8188
82.8396
82.8676
82.9012
82.9376
82.9771
83.0194
83.064
83.1105
83.1585
83.2054
83.2483
83.2869
83.3216
83.3525
83.38
83.4044
83.426
83.4451
83.4621
83.4771
83.4904
83.5021
83.5118
82.5546
82.5561
82.5589
82.5618
82.5648
82.5686
82.5729
82.5784
82.5858
82.5961
82.6104
82.6302
82.6576
82.6946
82.7392
82.7876
82.8405
82.8971
82.9569
83.0194
83.084
83.1471
83.205
83.2572
83.3041
83.3459
83.3831
83.4162
83.4455
83.4714
83.4944
83.5148
83.5329
83.5488
83.562
82.3085
82.3098
82.3126
82.316
82.3195
82.3239
82.3293
82.3363
82.3458
82.3591
82.3777
82.4035
82.4391
82.4874
82.5457
82.6092
82.6786
82.7532
82.8321
82.9146
83.0001
83.0837
83.1605
83.2299
83.2921
83.3477
83.3973
83.4413
83.4804
83.515
83.5457
83.5729
83.597
83.6184
83.6359
82.0127
82.0138
82.0164
82.0203
82.0245
82.0297
82.0364
82.0451
82.0573
82.0743
82.098
82.1312
82.1768
82.2389
82.3141
82.3961
82.4859
82.5825
82.685
82.7923
82.9036
83.0127
83.113
83.2037
83.2852
83.358
83.423
83.4808
83.5321
83.5776
83.6179
83.6537
83.6855
83.7136
83.7366
81.6589
81.6597
81.6623
81.6666
81.6716
81.6779
81.686
81.6968
81.7121
81.7335
81.7635
81.8054
81.8632
81.9419
82.0373
82.1416
82.2561
82.3795
82.5105
82.6481
82.7909
82.9311
83.0603
83.1771
83.2823
83.3764
83.4604
83.5351
83.6016
83.6606
83.7129
83.7593
83.8006
83.8372
83.8669
81.2387
81.2391
81.2417
81.2466
81.2525
81.2601
81.2699
81.2833
81.3021
81.3287
81.3661
81.4184
81.4904
81.5887
81.7081
81.8389
81.9827
82.1379
82.3032
82.4769
82.6575
82.8353
82.9993
83.1479
83.2818
83.4018
83.509
83.6045
83.6894
83.7649
83.8319
83.8914
83.9443
83.9913
84.0293
80.7445
80.7447
80.7474
80.7528
80.7599
80.7689
80.7807
80.7969
80.8199
80.8525
80.8984
80.9625
81.0511
81.172
81.3192
81.4808
81.6587
81.8513
82.0567
82.2731
82.4985
82.7209
82.9264
83.1129
83.2812
83.4323
83.5674
83.6879
83.7952
83.8907
83.9754
84.0507
84.1179
84.1774
84.2254
80.1699
80.17
80.1726
80.1786
80.1869
80.1976
80.2116
80.231
80.2585
80.2977
80.3531
80.4305
80.5377
80.6843
80.8632
81.0599
81.2771
81.5126
81.7644
82.0303
82.3079
82.5825
82.8367
83.068
83.277
83.4649
83.6332
83.7836
83.9176
84.0369
84.1429
84.2373
84.3214
84.3961
84.4559
79.509
79.5088
79.5115
79.5181
79.5277
79.5401
79.5565
79.5792
79.6116
79.658
79.7238
79.8159
79.9437
80.1187
80.3329
80.569
80.8302
81.1144
81.4189
81.7413
82.0789
82.4136
82.7243
83.0076
83.2642
83.4953
83.7027
83.8881
84.0537
84.2012
84.3326
84.4495
84.5539
84.6466
84.7204
78.7568
78.7563
78.7589
78.7662
78.777
78.7913
78.8101
78.8363
78.8739
78.9279
79.0047
79.1126
79.2626
79.4686
79.7213
80.0008
80.3109
80.649
81.0124
81.3983
81.8036
82.2067
82.5819
82.925
83.2364
83.5175
83.7702
83.9966
84.1991
84.3797
84.5407
84.6842
84.8125
84.9264
85.0165
77.9094
77.9086
77.9113
77.9191
77.9313
77.9474
77.9687
77.9983
78.0411
78.103
78.1912
78.3156
78.4891
78.7281
79.0223
79.3484
79.7115
80.1085
80.5367
80.9927
81.4734
81.9531
82.401
82.8118
83.1857
83.524
83.8287
84.1023
84.3473
84.5663
84.7618
84.9362
85.0924
85.2311
85.3399
76.9647
76.9635
76.9662
76.9746
76.9881
77.006
77.0296
77.0626
77.1106
77.1801
77.28
77.4214
77.6191
77.8924
78.23
78.6055
79.0248
79.4851
79.9831
80.5154
81.0786
81.6428
82.1715
82.658
83.1021
83.5049
83.8688
84.1961
84.4898
84.7528
84.9879
85.198
85.3866
85.5538
85.6841
75.922
75.9205
75.9232
75.9321
75.9467
75.9662
75.992
76.0281
76.0809
76.158
76.2693
76.4275
76.6496
76.9576
77.3397
77.7662
78.2443
78.771
79.343
79.9569
80.609
81.265
81.8822
82.4521
82.974
83.449
83.8791
84.267
84.6158
84.9288
85.209
85.4598
85.6854
85.8853
86.0396
74.7825
74.7806
74.7832
74.7925
74.8081
74.8291
74.8567
74.8955
74.9525
75.0366
75.1587
75.3331
75.5789
75.9213
76.348
76.8261
77.3641
77.9592
78.6082
79.3076
80.0538
80.808
81.5206
82.1811
82.7883
83.3427
83.8461
84.3014
84.7118
85.0808
85.4119
85.7088
85.9764
86.2133
86.3942
73.5487
73.5464
73.5489
73.5585
73.5749
73.597
73.626
73.6669
73.7276
73.8178
73.9495
74.1389
74.4072
74.7826
75.2526
75.7816
76.3793
77.0433
77.7707
78.5581
79.4022
80.2594
81.0733
81.8309
82.5301
83.1707
83.7543
84.2836
84.7621
85.1933
85.581
85.9294
86.2442
86.5224
86.7322
72.225
72.2223
72.2246
72.2344
72.2515
72.2742
72.3041
72.3465
72.4098
72.5048
72.6449
72.8475
73.1361
73.5421
74.053
74.6307
75.2864
76.0182
76.8235
77.6995
78.6433
79.607
80.5265
81.3864
82.1833
82.9161
83.5862
84.1958
84.7484
85.2478
85.6977
86.103
86.4703
86.7941
87.0346
70.8173
70.8143
70.8163
70.8262
70.8435
70.8665
70.8966
70.9396
71.0044
71.1029
71.2494
71.463
71.7691
72.2022
72.7503
73.373
74.0834
74.8799
75.7607
76.7238
77.7673
78.8386
79.8662
80.832
81.731
82.5612
83.323
84.0185
84.6509
85.2238
85.7413
86.2086
86.6335
87.007
87.2792
69.3329
69.3294
69.3312
69.3409
69.3582
69.3811
69.4107
69.4532
69.5183
69.6186
69.7694
69.9911
70.3112
70.7669
71.347
72.0098
72.7698
73.6261
74.578
75.6245
76.7649
77.9427
79.0789
80.1522
81.1561
82.0871
82.9448
83.7306
84.4473
85.0986
85.6883
86.2222
86.7094
87.1363
87.44
67.7802
67.7765
67.7778
67.7872
67.8042
67.8263
67.8547
67.8958
67.9597
68.0599
68.2125
68.4391
68.769
69.2418
69.8479
70.5444
71.347
72.2562
73.2727
74.3966
75.6286
76.9092
78.1518
79.3321
80.4415
81.4751
82.4312
83.3104
84.115
84.8484
85.514
86.1183
86.672
87.1549
87.4881
66.1686
66.1645
66.1654
66.1743
66.1906
66.2114
66.2378
66.2763
66.3375
66.4355
66.5873
66.8153
67.1502
67.634
68.2589
68.9812
69.8182
70.7717
71.8439
73.0366
74.3523
75.7289
77.073
78.3571
79.5704
80.7063
81.7614
82.7353
83.6296
84.4471
85.1912
85.8688
86.4923
87.033
87.3907
64.5087
64.5042
64.5047
64.5129
64.5281
64.547
64.5706
64.6053
64.6624
64.7562
64.9042
65.1298
65.4645
65.9527
66.5882
67.3274
68.189
69.1765
70.2938
71.5443
72.9329
74.396
75.8341
77.2164
78.5294
79.7645
80.9166
81.9843
82.9683
83.8706
84.6939
85.4456
86.1407
86.7385
87.1104
62.8097
62.8049
62.8047
62.8119
62.8256
62.8421
62.862
62.8919
62.9431
63.0305
63.172
63.391
63.7204
64.2059
64.8431
65.5893
66.4645
67.4741
68.6235
69.9186
71.3666
72.9032
74.4237
75.8941
77.2988
78.6272
79.8724
81.0311
82.1025
83.0875
83.9879
84.8124
85.5791
86.2313
86.6001
83.5789
83.5773
83.5759
83.5745
83.5731
83.5718
83.5706
83.5694
83.5683
83.5673
83.5663
83.5655
83.5647
83.564
83.5634
83.5629
83.5624
83.5621
83.5618
83.5615
83.5613
83.5611
83.5677
83.5669
83.5661
83.5653
83.5646
83.5639
83.5632
83.5625
83.5619
83.5614
83.5608
83.5603
83.5599
83.5595
83.5592
83.5589
83.5587
83.5585
83.5584
83.5583
83.5582
83.5581
83.5374
83.538
83.5386
83.5392
83.5398
83.5404
83.541
83.5415
83.5421
83.5427
83.5432
83.5437
83.5442
83.5446
83.545
83.5453
83.5456
83.5459
83.5461
83.5463
83.5465
83.5467
83.5116
83.5136
83.5156
83.5175
83.5194
83.5213
83.5231
83.5249
83.5266
83.5282
83.5298
83.5312
83.5325
83.5337
83.5348
83.5357
83.5364
83.5371
83.5377
83.5382
83.5386
83.5389
83.4902
83.4937
83.4972
83.5006
83.504
83.5073
83.5104
83.5135
83.5164
83.5192
83.5219
83.5243
83.5266
83.5285
83.5302
83.5316
83.5328
83.5338
83.5347
83.5354
83.5359
83.5363
83.4775
83.4827
83.4879
83.4931
83.4981
83.5029
83.5076
83.512
83.5163
83.5203
83.5241
83.5276
83.5307
83.5334
83.5356
83.5375
83.5391
83.5404
83.5414
83.5421
83.5427
83.543
83.4771
83.4842
83.4915
83.4986
83.5055
83.5121
83.5184
83.5245
83.5302
83.5356
83.5406
83.5451
83.549
83.5523
83.5551
83.5573
83.5591
83.5605
83.5615
83.5622
83.5625
83.5626
83.492
83.5014
83.5111
83.5205
83.5296
83.5384
83.5467
83.5545
83.5619
83.5687
83.5749
83.5805
83.5852
83.5891
83.5923
83.5947
83.5966
83.5978
83.5986
83.5989
83.5988
83.5983
83.5252
83.5374
83.5501
83.5624
83.5742
83.5854
83.596
83.6059
83.6151
83.6235
83.6311
83.6377
83.6433
83.6477
83.651
83.6535
83.6551
83.656
83.6563
83.656
83.655
83.6536
83.5801
83.5956
83.6119
83.6278
83.6428
83.657
83.6703
83.6827
83.694
83.7042
83.7132
83.7209
83.7272
83.7319
83.7353
83.7376
83.7387
83.7389
83.7383
83.737
83.7349
83.732
83.6599
83.6796
83.7004
83.7205
83.7395
83.7573
83.7738
83.789
83.8027
83.8149
83.8255
83.8344
83.8413
83.8462
83.8494
83.851
83.8513
83.8505
83.8486
83.8457
83.8419
83.8371
83.7681
83.7928
83.8191
83.8444
83.8682
83.8903
83.9106
83.9292
83.9457
83.9602
83.9725
83.9825
83.9898
83.9947
83.9974
83.9981
83.9971
83.9947
83.9909
83.9861
83.9798
83.9725
83.9078
83.9385
83.9715
84.0033
84.0328
84.0601
84.085
84.1075
84.1274
84.1444
84.1586
84.1697
84.1774
84.182
84.1837
84.1831
84.1803
84.1756
84.1694
84.1618
84.1525
84.1418
84.0819
84.1199
84.1611
84.2006
84.2371
84.2707
84.3011
84.3283
84.352
84.372
84.3882
84.4004
84.4083
84.4123
84.4127
84.4101
84.4049
84.3974
84.3879
84.3769
84.3637
84.3487
84.2924
84.3393
84.3906
84.4395
84.4845
84.5256
84.5626
84.5954
84.6236
84.6471
84.6656
84.679
84.687
84.6899
84.6885
84.6834
84.675
84.6639
84.6504
84.6349
84.6168
84.5965
84.5408
84.5983
84.6619
84.7223
84.7776
84.8279
84.8729
84.9123
84.9459
84.9734
84.9947
85.0093
85.0172
85.0189
85.0152
85.0069
84.9945
84.9789
84.9604
84.9395
84.9155
84.8887
84.8269
84.8974
84.9761
85.0505
85.1184
85.1798
85.2344
85.282
85.3221
85.3545
85.379
85.3951
85.4028
85.4028
85.3962
85.384
85.3669
85.3457
85.3212
85.2939
85.2627
85.2281
85.1493
85.2356
85.3327
85.4242
85.5075
85.5824
85.6489
85.7064
85.7545
85.7929
85.8213
85.8393
85.8469
85.845
85.835
85.8181
85.7954
85.7677
85.736
85.7009
85.6614
85.6175
85.5046
85.6102
85.7298
85.8422
85.9442
86.0359
86.1168
86.1865
86.2445
86.2904
86.3238
86.3443
86.3519
86.3479
86.3341
86.3119
86.2826
86.2473
86.2073
86.1633
86.1139
86.0593
85.8871
86.0162
86.1634
86.3014
86.4263
86.5384
86.6372
86.7221
86.7924
86.8476
86.8875
86.9114
86.9196
86.9136
86.8956
86.8674
86.8307
86.7868
86.7372
86.683
86.6223
86.5553
86.2887
86.4463
86.6273
86.7965
86.9496
87.0869
87.2077
87.3114
87.3971
87.4643
87.5126
87.5414
87.5508
87.543
87.5207
87.486
87.4411
87.3875
87.3272
87.2614
87.188
87.1069
86.6983
86.8906
87.1128
87.32
87.5076
87.6759
87.824
87.9511
88.0562
88.1387
88.198
88.2335
88.2455
88.2365
88.2099
88.1685
88.1146
88.0505
87.9782
87.8994
87.8118
87.7148
87.1019
87.336
87.6083
87.8618
88.0916
88.2979
88.4797
88.6359
88.7654
88.8674
88.9413
88.9862
89.0025
88.9935
88.9631
88.9147
88.8514
88.7758
88.6905
88.5975
88.4941
88.3795
87.4821
87.7665
88.0994
88.4088
88.6899
88.9428
89.1662
89.3585
89.5187
89.6456
89.7384
89.7963
89.8195
89.8121
89.7788
89.7238
89.6508
89.5631
89.4638
89.3553
89.2347
89.1008
87.8187
88.1626
88.5683
88.9451
89.2883
89.5979
89.8722
90.1093
90.3078
90.4663
90.5838
90.6593
90.6929
90.6894
90.6546
90.5938
90.5113
90.4111
90.2969
90.1718
90.0327
89.8777
88.0879
88.5016
88.9941
89.4515
89.8694
90.2477
90.5841
90.8764
91.1224
91.3207
91.4701
91.569
91.6175
91.6212
91.5872
91.5218
91.4303
91.3176
91.1881
91.0457
90.8868
90.7091
88.2637
88.7577
89.3527
89.9055
90.4125
90.8733
91.2849
91.6444
91.9493
92.1975
92.3875
92.5173
92.5865
92.6019
92.5718
92.5039
92.4046
92.2798
92.1347
91.9742
91.7947
91.5928
88.3179
88.9018
89.6176
90.2826
90.8951
91.4541
91.9559
92.3968
92.7737
93.0837
93.3249
93.4947
93.5921
93.6248
93.6028
93.5352
93.43
93.2941
93.1339
92.9552
92.7542
92.5271
88.2192
88.9
89.7554
90.5514
91.2874
91.9623
92.5715
93.1103
93.5747
93.961
94.2666
94.4878
94.6228
94.68
94.6717
94.6085
94.5001
94.3547
94.1801
93.9832
93.7605
93.507
87.9306
88.7183
89.7346
90.684
91.5654
92.3777
93.1144
93.7697
94.3384
94.8164
95.2003
95.4856
95.669
95.7599
95.7723
95.719
95.6114
95.4594
95.2722
95.058
94.8139
94.5349
83.561
83.5609
83.5609
83.5609
83.5609
83.5611
83.558
83.558
83.5579
83.5579
83.558
83.5581
83.5468
83.5468
83.5469
83.5469
83.5469
83.5469
83.5391
83.5393
83.5394
83.5394
83.5394
83.5392
83.5367
83.537
83.5372
83.5372
83.5371
83.5368
83.5434
83.544
83.5443
83.5443
83.5441
83.5436
83.5629
83.5638
83.5642
83.5643
83.5639
83.5631
83.5985
83.5998
83.6004
83.6004
83.5999
83.5988
83.6536
83.6553
83.6561
83.6562
83.6555
83.6539
83.7315
83.7339
83.735
83.7351
83.7341
83.7319
83.8359
83.8392
83.8406
83.8407
83.8394
83.8364
83.9704
83.9747
83.9766
83.9767
83.975
83.9709
84.1384
84.144
84.1464
84.1466
84.1444
84.139
84.3437
84.3508
84.3539
84.354
84.3512
84.3443
84.5895
84.5986
84.6024
84.6025
84.599
84.5902
84.8791
84.8905
84.8952
84.8953
84.891
84.8799
85.2155
85.2297
85.2354
85.2356
85.2303
85.2164
85.6012
85.6188
85.6256
85.6258
85.6194
85.6022
86.0387
86.0602
86.0683
86.0686
86.0609
86.0398
86.5298
86.5558
86.5654
86.5657
86.5565
86.531
87.0757
87.107
87.1183
87.1185
87.1078
87.077
87.6773
87.7146
87.7277
87.728
87.7155
87.6786
88.3348
88.3791
88.3943
88.3946
88.38
88.3362
89.0482
89.1004
89.1178
89.1181
89.1014
89.0497
89.8164
89.8777
89.8975
89.8978
89.8787
89.818
90.6384
90.7098
90.7323
90.7327
90.7109
90.64
91.5117
91.5947
91.62
91.6204
91.5958
91.5135
92.4351
92.5308
92.5592
92.5597
92.532
92.4369
93.4031
93.513
93.5446
93.5451
93.5143
93.4049
94.4193
94.5431
94.5785
94.579
94.5444
94.4212
83.5612
83.5614
83.5616
83.5619
83.5622
83.5626
83.5631
83.5636
83.5642
83.5649
83.5657
83.5667
83.5677
83.5687
83.5699
83.5711
83.5723
83.5736
83.575
83.5764
83.5779
83.5794
83.5582
83.5583
83.5584
83.5585
83.5587
83.5589
83.5591
83.5594
83.5598
83.5602
83.5606
83.5612
83.5617
83.5624
83.563
83.5637
83.5644
83.5651
83.5659
83.5667
83.5675
83.5683
83.5468
83.5466
83.5464
83.5462
83.546
83.5458
83.5455
83.5452
83.5448
83.5445
83.5441
83.5436
83.5431
83.5426
83.542
83.5415
83.5409
83.5404
83.5398
83.5392
83.5386
83.538
83.539
83.5387
83.5383
83.5378
83.5373
83.5366
83.5359
83.535
83.534
83.5329
83.5316
83.5302
83.5287
83.5271
83.5254
83.5237
83.5219
83.5201
83.5182
83.5163
83.5143
83.5124
83.5365
83.5361
83.5355
83.5349
83.534
83.533
83.5318
83.5305
83.5288
83.527
83.5249
83.5225
83.5199
83.5171
83.5142
83.5112
83.5081
83.5048
83.5015
83.4981
83.4947
83.4912
83.5432
83.5429
83.5424
83.5416
83.5406
83.5394
83.5378
83.536
83.5338
83.5313
83.5283
83.5249
83.5212
83.5172
83.5129
83.5085
83.5039
83.4991
83.4942
83.4891
83.4839
83.4789
83.5628
83.5628
83.5625
83.5618
83.5608
83.5595
83.5578
83.5556
83.5529
83.5497
83.546
83.5416
83.5366
83.5313
83.5257
83.5197
83.5134
83.5068
83.5
83.493
83.4858
83.4789
83.5986
83.5991
83.5993
83.599
83.5983
83.5971
83.5953
83.593
83.5899
83.5862
83.5816
83.5762
83.57
83.5633
83.556
83.5482
83.54
83.5313
83.5223
83.513
83.5034
83.4942
83.654
83.6555
83.6565
83.6568
83.6566
83.6558
83.6543
83.6519
83.6487
83.6445
83.6391
83.6327
83.6252
83.6168
83.6077
83.5979
83.5874
83.5763
83.5646
83.5524
83.54
83.528
83.7325
83.7354
83.7376
83.7391
83.7397
83.7396
83.7386
83.7365
83.7332
83.7287
83.7227
83.7152
83.7062
83.6961
83.6849
83.6726
83.6594
83.6454
83.6305
83.6149
83.5989
83.5836
83.8377
83.8426
83.8466
83.8495
83.8515
83.8525
83.8523
83.8508
83.8478
83.8431
83.8365
83.8279
83.8174
83.8053
83.7917
83.7766
83.7602
83.7426
83.7238
83.704
83.6835
83.6642
83.9732
83.9807
83.9871
83.9921
83.996
83.9986
83.9997
83.9992
83.9967
83.9921
83.985
83.9754
83.9632
83.9488
83.9324
83.914
83.8937
83.8718
83.8484
83.8233
83.7975
83.7733
84.1426
84.1536
84.1631
84.1709
84.1773
84.1821
84.185
84.1859
84.1843
84.18
84.1727
84.162
84.1479
84.131
84.1113
84.0889
84.0641
84.0371
84.0079
83.9765
83.944
83.9139
84.3496
84.3649
84.3784
84.3897
84.3994
84.4071
84.4125
84.4153
84.4151
84.4114
84.4039
84.3921
84.3761
84.3562
84.3326
84.3056
84.2754
84.2421
84.2059
84.1669
84.1263
84.089
84.5976
84.6183
84.6368
84.6525
84.6663
84.6776
84.6862
84.6916
84.6932
84.6906
84.6831
84.6701
84.6518
84.6284
84.6003
84.5677
84.5309
84.4901
84.4455
84.3971
84.3466
84.3007
84.8899
84.9173
84.9417
84.9629
84.9817
84.9977
85.0102
85.0187
85.0227
85.0213
85.014
84.9998
84.9788
84.9514
84.9179
84.8786
84.8338
84.7838
84.729
84.6693
84.6066
84.5501
85.2295
85.2648
85.2965
85.3243
85.3491
85.3705
85.3879
85.4003
85.4072
85.4075
85.4004
85.3848
85.3606
85.3282
85.2882
85.2407
85.1863
85.1252
85.0579
84.9843
84.9067
84.8375
85.6191
85.6638
85.704
85.7396
85.7716
85.7996
85.8226
85.8397
85.8499
85.8521
85.8452
85.8278
85.7996
85.7613
85.7132
85.6558
85.5895
85.5149
85.4323
85.3417
85.2459
85.1612
86.0611
86.1167
86.1668
86.2114
86.2519
86.2875
86.317
86.3394
86.3535
86.3578
86.3508
86.331
86.2978
86.2519
86.1939
86.1242
86.0434
85.9521
85.8508
85.7395
85.6214
85.5177
86.5573
86.6255
86.687
86.742
86.792
86.8362
86.8732
86.9015
86.9197
86.9261
86.9186
86.8954
86.8557
86.8004
86.73
86.6451
86.5464
86.4346
86.3104
86.1737
86.0283
85.9015
87.1091
87.1916
87.266
87.3326
87.3935
87.4473
87.4925
87.5273
87.5498
87.5579
87.5492
87.5212
87.4731
87.4057
87.3197
87.2159
87.0951
86.9582
86.8059
86.6381
86.4593
86.3044
87.7172
87.8158
87.9046
87.9843
88.0572
88.1216
88.1757
88.2173
88.244
88.2532
88.242
88.2074
88.148
88.0653
87.9597
87.8324
87.6842
87.5162
87.3295
87.124
86.9044
86.7153
88.3822
88.4986
88.6034
88.6974
88.7833
88.8593
88.9227
88.9711
89.0016
89.0109
88.9954
88.9514
88.8774
88.7749
88.6447
88.488
88.306
88.1
87.8712
87.6197
87.3505
87.1201
89.1037
89.2398
89.3619
89.4714
89.5715
89.6595
89.7326
89.7875
89.8208
89.8285
89.8062
89.7493
89.6561
89.5284
89.3674
89.1742
88.9505
88.6978
88.4179
88.1107
87.7815
87.5015
89.8809
90.0384
90.1792
90.3054
90.4203
90.5208
90.6033
90.664
90.6986
90.7023
90.6697
90.5953
90.4772
90.3176
90.1179
89.8797
89.6048
89.2954
88.9534
88.5792
88.1779
87.8393
90.7126
90.8931
91.0538
91.1975
91.3277
91.4407
91.5321
91.5972
91.6309
91.6274
91.5801
91.4823
91.332
91.1322
90.8844
90.5907
90.2534
89.8752
89.4587
89.0043
88.517
88.1095
91.5965
91.8015
91.9831
92.145
92.2908
92.4158
92.5148
92.5823
92.6121
92.5969
92.529
92.4004
92.209
91.9586
91.6515
91.29
90.8772
90.4165
89.9111
89.3619
88.7729
88.2863
92.5311
92.7617
92.9649
93.1451
93.306
93.442
93.5468
93.6137
93.6352
93.6028
93.5069
93.3384
93.0952
92.7823
92.4025
91.9591
91.4557
90.8967
90.286
89.6251
88.9166
88.3413
93.5112
93.7686
93.9937
94.1921
94.3674
94.5127
94.6206
94.6829
94.6907
94.6336
94.5005
94.2807
93.9723
93.5822
93.1141
92.5721
91.9609
91.2858
90.5519
89.7608
88.9139
88.2432
94.5394
94.8227
95.0693
95.2851
95.4729
95.6246
95.7314
95.7836
95.7705
95.6799
95.4987
95.2149
94.8272
94.3445
93.771
93.1117
92.3724
91.5598
90.6808
89.7371
88.7307
87.955
83.5807
83.5818
83.5831
83.5846
83.5864
83.5884
83.5909
83.5939
83.5974
83.6016
83.6068
83.6132
83.6211
83.631
83.6435
83.6586
83.6761
83.6963
83.7198
83.747
83.7788
83.8169
83.8601
83.9039
83.9477
83.9907
84.0326
84.0731
84.1113
84.1523
84.2141
84.2504
84.0247
84.0467
87.0615
83.569
83.5697
83.5705
83.5714
83.5725
83.5738
83.5753
83.5772
83.5793
83.5819
83.5851
83.5889
83.5936
83.5993
83.6064
83.6146
83.6235
83.6332
83.6435
83.6541
83.6649
83.6755
83.6847
83.6912
83.6954
83.6978
83.6992
83.7
83.6989
83.6921
83.6931
83.7502
83.6967
83.1784
84.1367
83.5376
83.5374
83.5372
83.5369
83.5367
83.5365
83.5363
83.5361
83.536
83.5359
83.5359
83.536
83.5362
83.5366
83.5373
83.5382
83.5392
83.5404
83.5416
83.5428
83.5439
83.5448
83.5452
83.5452
83.545
83.5447
83.5442
83.5438
83.5439
83.5414
83.5293
83.543
83.6154
83.4138
83.6003
83.5107
83.5096
83.5084
83.5069
83.5053
83.5035
83.5015
83.4993
83.4968
83.494
83.4909
83.4875
83.4837
83.4796
83.4753
83.471
83.467
83.4633
83.4599
83.4569
83.4542
83.4519
83.4502
83.4491
83.4486
83.4485
83.4488
83.4491
83.4499
83.4518
83.4481
83.4356
83.4753
83.4343
83.4522
83.4882
83.486
83.4836
83.4807
83.4776
83.474
83.47
83.4656
83.4605
83.4548
83.4484
83.4413
83.4333
83.4245
83.4148
83.4049
83.3952
83.3859
83.3769
83.3683
83.3601
83.3522
83.3452
83.3396
83.3353
83.3321
83.3296
83.3276
83.3257
83.3249
83.3246
83.3138
83.3218
83.3188
83.3121
83.4741
83.4706
83.4666
83.462
83.4569
83.4511
83.4446
83.4373
83.429
83.4197
83.4092
83.3974
83.3843
83.3696
83.3536
83.337
83.3208
83.3051
83.2901
83.2757
83.2622
83.2494
83.2383
83.2298
83.2233
83.2185
83.2149
83.2121
83.2096
83.2073
83.2065
83.2016
83.1997
83.2004
83.1942
83.4719
83.4668
83.4608
83.4541
83.4464
83.4379
83.4282
83.4173
83.4049
83.3911
83.3754
83.3579
83.3383
83.3166
83.2927
83.2682
83.2443
83.2213
83.1993
83.1786
83.1594
83.1414
83.1261
83.1147
83.1062
83.1
83.0955
83.0921
83.0894
83.0868
83.0849
83.0823
83.0793
83.0783
83.0744
83.4845
83.4773
83.4688
83.4591
83.4483
83.4361
83.4223
83.4068
83.3893
83.3696
83.3474
83.3225
83.2947
83.2639
83.2301
83.1955
83.1619
83.1295
83.0988
83.0699
83.0433
83.0185
82.9978
82.9823
82.971
82.9628
82.9569
82.9525
82.9492
82.9462
82.9435
82.9413
82.9387
82.9363
82.9338
83.5147
83.5048
83.493
83.4797
83.4647
83.4478
83.4287
83.4072
83.383
83.3557
83.3251
83.2907
83.2523
83.2098
83.1633
83.1157
83.0695
83.0252
82.9832
82.9439
82.9078
82.8744
82.8465
82.8259
82.8109
82.8
82.7922
82.7865
82.7822
82.7787
82.7755
82.773
82.7703
82.7676
82.7658
83.5656
83.5524
83.5363
83.5182
83.4979
83.475
83.4491
83.4199
83.3871
83.3501
83.3086
83.262
83.2102
83.1527
83.09
83.0258
82.9637
82.9042
82.848
82.7954
82.7473
82.7029
82.666
82.6388
82.6191
82.6048
82.5946
82.5872
82.5817
82.5774
82.5736
82.5706
82.5677
82.5649
82.5634
83.6404
83.6228
83.6014
83.5772
83.5501
83.5195
83.485
83.4461
83.4023
83.353
83.2978
83.2359
83.1669
83.0906
83.0074
82.9225
82.8404
82.7619
82.6878
82.6187
82.5555
82.4974
82.4493
82.4139
82.3882
82.3697
82.3564
82.3469
82.3399
82.3345
82.3301
82.3266
82.3232
82.3204
82.3191
83.7421
83.719
83.6908
83.659
83.6234
83.5831
83.5378
83.4867
83.4292
83.3646
83.2921
83.2111
83.1209
83.0211
82.9125
82.8018
82.695
82.593
82.4968
82.4074
82.3257
82.2509
82.189
82.1435
82.1105
82.0868
82.0699
82.0577
82.049
82.0424
82.0371
82.033
82.0291
82.0264
82.0254
83.8734
83.8436
83.807
83.7658
83.7195
83.6674
83.6086
83.5424
83.468
83.3844
83.2907
83.186
83.0697
82.9412
82.8015
82.6594
82.5224
82.3919
82.269
82.155
82.051
81.956
81.8775
81.8199
81.7782
81.7482
81.7269
81.7117
81.7008
81.6928
81.6865
81.6815
81.6772
81.6746
81.6738
84.0369
83.9989
83.952
83.8991
83.8398
83.773
83.6978
83.6132
83.5181
83.4113
83.2918
83.1585
83.0105
82.8472
82.6701
82.4902
82.3171
82.1525
81.9978
81.8545
81.7242
81.6051
81.5072
81.4353
81.3832
81.3459
81.3193
81.3006
81.2872
81.2774
81.2698
81.2639
81.259
81.2565
81.256
84.2343
84.1863
84.1269
84.0599
83.9848
83.9003
83.8051
83.6982
83.5781
83.4435
83.293
83.1253
82.9395
82.7348
82.5132
82.2885
82.0729
81.8682
81.6762
81.4988
81.3377
81.1909
81.0704
80.982
80.9181
80.8723
80.8398
80.8168
80.8006
80.7888
80.7798
80.7728
80.7673
80.7647
80.7645
84.4661
84.4064
84.3318
84.2479
84.1538
84.048
83.9291
83.7955
83.6457
83.4779
83.2906
83.0823
82.8518
82.5984
82.3248
82.048
81.783
81.5319
81.2971
81.0806
80.8844
80.706
80.5598
80.4529
80.3756
80.3203
80.2812
80.2537
80.2344
80.2204
80.2097
80.2015
80.1954
80.1928
80.1928
84.732
84.6584
84.5658
84.4616
84.345
84.2141
84.0669
83.9019
83.7169
83.5102
83.2798
83.024
82.7416
82.4318
82.0981
81.7615
81.44
81.1363
80.853
80.5924
80.357
80.1434
79.9688
79.8413
79.7493
79.6837
79.6374
79.605
79.5823
79.566
79.5535
79.544
79.5374
79.5347
79.5349
85.0296
84.9397
84.826
84.698
84.5549
84.3943
84.2141
84.0123
83.7865
83.5345
83.2542
82.9436
82.6015
82.2273
81.8254
81.4211
81.0363
80.6738
80.3366
80.0273
79.7485
79.4964
79.2908
79.1412
79.0335
78.9568
78.9029
78.8654
78.8393
78.8205
78.8062
78.7953
78.7881
78.7854
78.786
85.3546
85.246
85.1076
84.9517
84.7777
84.5828
84.3643
84.1199
83.847
83.5431
83.2057
82.8328
82.423
81.9763
81.4978
81.0184
80.5634
80.1364
79.7403
79.3781
79.0528
78.7592
78.5208
78.3477
78.2235
78.1354
78.0737
78.0309
78.0013
77.9801
77.9639
77.9518
77.944
77.9413
77.9421
85.7004
85.5704
85.4036
85.2154
85.0058
84.7712
84.5089
84.2158
83.8893
83.5263
83.1244
82.6814
82.1961
81.6687
81.1058
80.544
80.0129
79.516
79.0569
78.6385
78.2639
77.9271
77.6544
77.4571
77.316
77.2163
77.1468
77.099
77.066
77.0424
77.0245
77.011
77.0026
77
77.0011
86.0576
85.9037
85.7042
85.4791
85.2288
84.9492
84.6369
84.2889
83.9018
83.4727
82.9988
82.4781
81.9094
81.2936
80.6391
79.9885
79.376
78.8053
78.2798
77.8029
77.3773
76.9961
76.6887
76.4671
76.3092
76.1981
76.1211
76.0685
76.0324
76.0066
75.9871
75.9725
75.9636
75.961
75.9625
86.4139
86.2334
85.9971
85.73
85.4337
85.1034
84.7351
84.3256
83.8712
83.3688
82.8157
82.2098
81.5506
80.8395
80.087
79.3424
78.6445
77.997
77.4033
76.8665
76.3895
75.9638
75.6221
75.3768
75.2027
75.0809
74.997
74.94
74.9012
74.8737
74.8527
74.8371
74.8279
74.8253
74.8272
86.7537
86.5445
86.2669
85.9527
85.605
85.2181
84.7877
84.3102
83.7819
83.1994
82.5601
81.8623
81.1062
80.294
79.4385
78.5962
77.8105
77.0848
76.4223
75.8259
75.2982
74.8293
74.4547
74.187
73.998
73.8665
73.7765
73.716
73.6751
73.6461
73.6241
73.6077
73.598
73.5956
73.5978
87.058
86.8181
86.495
86.1284
85.7239
85.2748
84.7764
84.2249
83.6163
82.9475
82.216
81.4207
80.5624
79.6447
78.683
77.7411
76.867
76.0635
75.3334
74.6792
74.1029
73.5932
73.1882
72.9002
72.698
72.5583
72.4635
72.4002
72.3579
72.3281
72.3053
72.2883
72.2785
72.2762
72.2789
87.3046
87.033
86.6603
86.2362
85.7698
85.2533
84.6813
84.0501
83.3558
82.5953
81.7665
80.8692
79.9052
78.8795
77.8103
76.769
75.808
74.9291
74.1345
73.4258
72.8046
72.258
71.8259
71.5206
71.3075
71.1614
71.0631
70.9983
70.9555
70.9254
70.9024
70.8851
70.8752
70.8732
70.8762
87.4672
87.1643
86.7383
86.2521
85.7192
85.1305
84.4803
83.7648
82.9803
82.124
81.1945
80.1924
79.121
77.9869
76.8113
75.6734
74.6291
73.6794
72.8251
72.0671
71.4061
70.8275
70.373
70.0538
69.8327
69.6823
69.5823
69.5173
69.4749
69.4453
69.4224
69.4051
69.3955
69.3937
69.3971
87.5173
87.185
86.7032
86.1506
85.5474
84.8828
84.1507
83.3473
82.4695
81.5149
80.4829
79.3754
78.1971
76.9567
75.6786
74.4492
73.3277
72.3137
71.4068
70.6063
69.9118
69.3074
68.836
68.5072
68.2812
68.129
68.0292
67.9654
67.9245
67.8961
67.874
67.8571
67.8477
67.8463
67.8501
87.4219
87.0652
86.5257
85.9034
85.227
84.4842
83.6679
82.775
81.8025
80.749
79.6149
78.4035
77.1215
75.7798
74.4059
73.093
71.903
70.8335
69.8826
69.048
68.3279
67.705
67.2227
66.889
66.6618
66.5105
66.4128
66.3517
66.3134
66.287
66.2663
66.25
66.2412
66.2403
66.2444
87.1435
86.7728
86.1764
85.4826
84.7322
83.9103
83.0093
82.0268
80.9607
79.8101
78.577
77.266
75.8859
74.4504
72.9901
71.6046
70.357
69.2428
68.2581
67.3992
66.6625
66.0292
65.5427
65.2093
64.9847
64.8372
64.7438
64.6869
64.6523
64.6288
64.6099
64.5947
64.5866
64.5862
64.5906
86.6348
86.2675
85.6169
84.8518
84.0287
83.1297
82.1462
81.0764
79.9193
78.6757
77.3493
75.9467
74.4787
72.961
71.4274
69.9827
68.6909
67.5448
66.5384
65.6662
64.9228
64.2881
63.8046
63.4767
63.2586
63.1178
63.0308
62.9799
62.9501
62.9303
62.9138
62.9002
62.893
62.8933
62.8981
60.8932
60.8884
60.8876
60.8937
60.9056
60.919
60.9343
60.9579
61.0012
61.0793
61.2103
61.4178
61.7354
62.2098
62.8389
63.5815
64.4593
65.4792
66.6486
67.9761
69.472
71.0728
72.67
74.227
75.725
77.1492
78.4888
79.7376
80.8935
81.9569
82.9298
83.8227
84.6572
85.3545
85.6991
58.751
58.7457
58.7442
58.749
58.7584
58.7675
58.7764
58.7911
58.8234
58.8883
59.0036
59.1929
59.49
59.9413
60.5475
61.2707
62.1333
63.1437
64.3122
65.6502
67.1721
68.8172
70.4747
72.1022
73.6742
75.1714
76.5819
77.9003
79.1259
80.26
81.3038
82.2694
83.1827
83.9363
84.233
56.6018
56.5961
56.5935
56.5965
56.6028
56.6067
56.6079
56.6124
56.6314
56.68
56.7753
56.9407
57.2093
57.6259
58.1941
58.8805
59.7071
60.6843
61.8244
63.1424
64.6556
66.3059
67.9791
69.6269
71.2235
72.7531
74.208
75.5845
76.8806
78.0943
79.223
80.2774
81.2862
82.1118
82.3752
54.4721
54.4661
54.4625
54.4635
54.4665
54.4648
54.4579
54.451
54.4554
54.4854
54.5575
54.6943