/*--------------------------------*- C++ -*----------------------------------*\
  =========                 |
  \\      /  F ield         | OpenFOAM: The Open Source CFD Toolbox
   \\    /   O peration     | Website:  https://openfoam.org
    \\  /    A nd           | Version:  8
     \\/     M anipulation  |
\*---------------------------------------------------------------------------*/
FoamFile
{
    version     2.0;
    format      ascii;
    class       surfaceScalarField;
    location    "500";
    object      phi;
}
// * * * * * * * * * * * * * * * * * * * * * * * * * * * * * * * * * * * * * //

dimensions      [0 3 -1 0 0 0 0];

internalField   nonuniform List<scalar> 
31053
(
1.74431e-06
1.16444e-05
1.36365e-06
1.57479e-05
1.26617e-06
1.77357e-05
1.20168e-06
2.03092e-05
1.13101e-06
2.33071e-05
1.0575e-06
2.67438e-05
9.80679e-07
3.06883e-05
9.00242e-07
3.52157e-05
8.16555e-07
4.04111e-05
7.30451e-07
4.6373e-05
6.43231e-07
5.32143e-05
5.56626e-07
6.10647e-05
4.72569e-07
7.00734e-05
3.9312e-07
8.04116e-05
3.31817e-07
7.62518e-05
2.81289e-07
7.6241e-05
2.39344e-07
7.62324e-05
2.04294e-07
7.62255e-05
1.74821e-07
7.62199e-05
1.49891e-07
7.62154e-05
1.28694e-07
7.62117e-05
1.12029e-07
6.95988e-05
9.88913e-08
6.25571e-05
8.83591e-08
5.62282e-05
7.97957e-08
5.05399e-05
7.27492e-08
4.54272e-05
6.68906e-08
4.08318e-05
6.19761e-08
3.67014e-05
5.78212e-08
3.29888e-05
5.42845e-08
2.96518e-05
5.12558e-08
2.66524e-05
4.86486e-08
2.39564e-05
4.63936e-08
2.15332e-05
4.44356e-08
1.9355e-05
1.73972e-05
4.27304e-08
9.63511e-07
1.06809e-05
1.52637e-06
1.5185e-05
1.50979e-06
1.77523e-05
1.45159e-06
2.03674e-05
1.39836e-06
2.33603e-05
1.34238e-06
2.67998e-05
1.28134e-06
3.07494e-05
1.21473e-06
3.52823e-05
1.14233e-06
4.04835e-05
1.06412e-06
4.64512e-05
9.80442e-07
5.3298e-05
8.91999e-07
6.11532e-05
7.9982e-07
7.01655e-05
7.05003e-07
8.05064e-05
6.24334e-07
7.63324e-05
5.52004e-07
7.63133e-05
4.87212e-07
7.62972e-05
4.29187e-07
7.62836e-05
3.77228e-07
7.62719e-05
3.3071e-07
7.62619e-05
2.89089e-07
7.62533e-05
2.55019e-07
6.96329e-05
2.27351e-07
6.25848e-05
2.04686e-07
5.62509e-05
1.85965e-07
5.05586e-05
1.70386e-07
4.54428e-05
1.57328e-07
4.08449e-05
1.46314e-07
3.67124e-05
1.36965e-07
3.29981e-05
1.28987e-07
2.96598e-05
1.22144e-07
2.66592e-05
1.16247e-07
2.39623e-05
1.11144e-07
2.15383e-05
1.06712e-07
1.93595e-05
1.74011e-05
1.02846e-07
5.93353e-07
1.00875e-05
1.20929e-06
1.45691e-05
1.33728e-06
1.76243e-05
1.32706e-06
2.03776e-05
1.2963e-06
2.33911e-05
1.25962e-06
2.68364e-05
1.21863e-06
3.07904e-05
1.17277e-06
3.53281e-05
1.12103e-06
4.05353e-05
1.06251e-06
4.65098e-05
9.96506e-07
5.3364e-05
9.22797e-07
6.12269e-05
8.41835e-07
7.02465e-05
7.54674e-07
8.05936e-05
6.77729e-07
7.64094e-05
6.06429e-07
7.63846e-05
5.40628e-07
7.6363e-05
4.8009e-07
7.63441e-05
4.24569e-07
7.63274e-05
3.73822e-07
7.63127e-05
3.27602e-07
7.62995e-05
2.89053e-07
6.96714e-05
2.57228e-07
6.26166e-05
2.30805e-07
5.62773e-05
2.08745e-07
5.05807e-05
1.90228e-07
4.54613e-05
1.74604e-07
4.08605e-05
1.61354e-07
3.67256e-05
1.50065e-07
3.30094e-05
1.40403e-07
2.96694e-05
1.32101e-07
2.66675e-05
1.24939e-07
2.39695e-05
1.18739e-07
2.15445e-05
1.13354e-07
1.93649e-05
1.74058e-05
1.08665e-07
4.3169e-07
9.65583e-06
9.70622e-07
1.40302e-05
1.18713e-06
1.74078e-05
1.22332e-06
2.03414e-05
1.20992e-06
2.34045e-05
1.18204e-06
2.68643e-05
1.14744e-06
3.0825e-05
1.10742e-06
3.53682e-05
1.06168e-06
4.0581e-05
1.00944e-06
4.6562e-05
9.49782e-07
5.34237e-05
8.81837e-07
6.12948e-05
8.05167e-07
7.03232e-05
7.20166e-07
8.06786e-05
6.43774e-07
7.64858e-05
5.71969e-07
7.64564e-05
5.04966e-07
7.643e-05
4.42814e-07
7.64062e-05
3.8547e-07
7.63848e-05
3.32851e-07
7.63653e-05
2.84846e-07
7.63475e-05
2.44926e-07
6.97113e-05
2.12145e-07
6.26494e-05
1.85116e-07
5.63044e-05
1.62734e-07
5.06031e-05
1.44122e-07
4.54799e-05
1.28575e-07
4.0876e-05
1.15534e-07
3.67387e-05
1.04547e-07
3.30204e-05
9.52508e-08
2.96787e-05
8.73531e-08
2.66754e-05
8.06169e-08
2.39762e-05
7.48494e-08
2.15502e-05
6.98936e-08
1.93698e-05
1.74101e-05
6.562e-08
3.06898e-07
9.34893e-06
7.46796e-07
1.35903e-05
1.00177e-06
1.71528e-05
1.07415e-06
2.0269e-05
1.07812e-06
2.34005e-05
1.05891e-06
2.68835e-05
1.02904e-06
3.08548e-05
9.92047e-07
3.54051e-05
9.4872e-07
4.06243e-05
8.98824e-07
4.66119e-05
8.41666e-07
5.34808e-05
7.76403e-07
6.13601e-05
7.02324e-07
7.03973e-05
6.19263e-07
8.07617e-05
5.43517e-07
7.65615e-05
4.71566e-07
7.65284e-05
4.0397e-07
7.64976e-05
3.4106e-07
7.64692e-05
2.83023e-07
7.64428e-05
2.29952e-07
7.64184e-05
1.81885e-07
7.63956e-05
1.42357e-07
6.97509e-05
1.10356e-07
6.26814e-05
8.44047e-08
5.63303e-05
6.33117e-08
5.06242e-05
4.61233e-08
4.54971e-05
3.20759e-08
4.08901e-05
2.05599e-08
3.67502e-05
1.10883e-08
3.30299e-05
3.27187e-09
2.96866e-05
-3.20106e-09
2.66819e-05
-8.58005e-09
2.39816e-05
-1.30659e-08
2.15547e-05
-1.68201e-08
1.93736e-05
1.74132e-05
-1.99733e-08
2.14164e-07
9.13477e-06
5.67286e-07
1.32372e-05
8.27344e-07
1.68927e-05
9.21942e-07
2.01745e-05
9.38549e-07
2.33839e-05
9.25209e-07
2.68969e-05
8.97565e-07
3.08825e-05
8.60808e-07
3.54419e-05
8.16591e-07
4.06685e-05
7.65129e-07
4.66634e-05
7.05992e-07
5.354e-05
6.38472e-07
6.14276e-05
5.61893e-07
7.04738e-05
4.75993e-07
8.08476e-05
3.97515e-07
7.664e-05
3.22889e-07
7.6603e-05
2.52854e-07
7.65676e-05
1.87931e-07
7.65341e-05
1.28471e-07
7.65023e-05
7.47015e-08
7.64721e-05
2.67638e-08
7.64435e-05
-1.18648e-08
6.97895e-05
-4.23784e-08
6.27119e-05
-6.64183e-08
5.63544e-05
-8.53126e-08
5.06431e-05
-1.00128e-07
4.55119e-05
-1.11716e-07
4.09017e-05
-1.20757e-07
3.67592e-05
-1.27788e-07
3.30369e-05
-1.33237e-07
2.9692e-05
-1.37441e-07
2.66861e-05
-1.40669e-07
2.39848e-05
-1.4313e-07
2.15572e-05
-1.44992e-07
1.93754e-05
1.74146e-05
-1.46387e-07
1.5246e-07
8.98231e-06
4.30386e-07
1.29592e-05
6.76275e-07
1.66468e-05
7.83275e-07
2.00674e-05
8.0787e-07
2.33593e-05
7.97289e-07
2.69075e-05
7.69055e-07
3.09107e-05
7.29491e-07
3.54815e-05
6.80888e-07
4.07171e-05
6.23854e-07
4.67204e-05
5.5821e-07
5.36056e-05
4.83428e-07
6.15024e-05
3.98959e-07
7.05583e-05
3.04641e-07
8.09419e-05
2.1886e-07
7.67258e-05
1.37647e-07
7.66842e-05
6.18687e-08
7.66434e-05
-7.79416e-09
7.66037e-05
-7.08433e-08
7.65653e-05
-1.26928e-07
7.65282e-05
-1.75813e-07
7.64924e-05
-2.14045e-07
6.98277e-05
-2.4314e-07
6.2741e-05
-2.65031e-07
5.63762e-05
-2.8128e-07
5.06593e-05
-2.93139e-07
4.55238e-05
-3.01603e-07
4.09101e-05
-3.07458e-07
3.67651e-05
-3.11323e-07
3.30408e-05
-3.13684e-07
2.96944e-05
-3.14919e-07
2.66874e-05
-3.15322e-07
2.39852e-05
-3.1512e-07
2.1557e-05
-3.1449e-07
1.93748e-05
1.74137e-05
-3.13567e-07
1.10183e-07
8.87213e-06
3.24134e-07
1.27453e-05
5.45347e-07
1.64256e-05
6.56347e-07
1.99564e-05
6.83944e-07
2.33317e-05
6.72734e-07
2.69187e-05
6.41064e-07
3.09424e-05
5.95844e-07
3.55267e-05
5.39739e-07
4.07733e-05
4.73624e-07
4.67865e-05
3.9752e-07
5.36817e-05
3.11074e-07
6.15888e-05
2.13919e-07
7.06555e-05
1.06116e-07
8.10497e-05
8.67562e-09
7.68232e-05
-8.30017e-08
7.67759e-05
-1.67914e-07
7.67283e-05
-2.45222e-07
7.6681e-05
-3.14271e-07
7.66344e-05
-3.74579e-07
7.65885e-05
-4.25801e-07
7.65436e-05
-4.6445e-07
6.98664e-05
-4.92485e-07
6.2769e-05
-5.12248e-07
5.6396e-05
-5.25629e-07
5.06727e-05
-5.34138e-07
4.55323e-05
-5.38969e-07
4.0915e-05
-5.41059e-07
3.67672e-05
-5.4114e-07
3.30409e-05
-5.39779e-07
2.9693e-05
-5.37412e-07
2.6685e-05
-5.34373e-07
2.39822e-05
-5.30915e-07
2.15535e-05
-5.27227e-07
1.93711e-05
1.74099e-05
-5.23452e-07
7.93552e-08
8.79277e-06
2.41095e-07
1.25835e-05
4.29555e-07
1.62372e-05
5.37338e-07
1.98487e-05
5.63631e-07
2.33054e-05
5.48467e-07
2.69338e-05
5.10491e-07
3.09804e-05
4.56816e-07
3.55804e-05
3.90245e-07
4.08398e-05
3.11761e-07
4.6865e-05
2.21492e-07
5.3772e-05
1.19209e-07
6.16911e-05
4.72958e-09
7.07699e-05
-1.21586e-07
8.1176e-05
-2.35064e-07
7.69367e-05
-3.41163e-07
7.6882e-05
-4.38724e-07
7.68259e-05
-5.26732e-07
7.67691e-05
-6.04362e-07
7.6712e-05
-6.70974e-07
7.66551e-05
-7.261e-07
7.65988e-05
-7.66135e-07
6.99064e-05
-7.93597e-07
6.27965e-05
-8.11356e-07
5.64138e-05
-8.21725e-07
5.06831e-05
-8.26547e-07
4.55371e-05
-8.27275e-07
4.09157e-05
-8.25043e-07
3.67649e-05
-8.20731e-07
3.30365e-05
-8.15015e-07
2.96873e-05
-8.08409e-07
2.66784e-05
-8.013e-07
2.39751e-05
-7.93977e-07
2.15462e-05
-7.8665e-07
1.93638e-05
1.74027e-05
-7.79472e-07
5.39427e-08
8.73882e-06
1.73228e-07
1.24642e-05
3.25301e-07
1.60851e-05
4.23344e-07
1.97506e-05
4.44442e-07
2.32843e-05
4.22135e-07
2.69561e-05
3.74975e-07
3.10275e-05
3.10025e-07
3.56453e-05
2.30017e-07
4.09198e-05
1.35898e-07
4.69591e-05
2.77937e-08
5.38801e-05
-9.4459e-08
6.18134e-05
-2.30874e-07
7.09064e-05
-3.80765e-07
8.13259e-05
-5.14771e-07
7.70707e-05
-6.39415e-07
7.70066e-05
-7.53339e-07
7.69398e-05
-8.5532e-07
7.6871e-05
-9.4433e-07
7.6801e-05
-1.01955e-06
7.67303e-05
-1.08035e-06
7.66596e-05
-1.1229e-06
6.9949e-05
-1.15041e-06
6.2824e-05
-1.16638e-06
5.64297e-05
-1.17365e-06
5.06903e-05
-1.17449e-06
4.55379e-05
-1.17067e-06
4.09119e-05
-1.16356e-06
3.67578e-05
-1.15425e-06
3.30272e-05
-1.14353e-06
2.96766e-05
-1.13204e-06
2.66669e-05
-1.12021e-06
2.39633e-05
-1.10839e-06
2.15344e-05
-1.09682e-06
1.93522e-05
1.73916e-05
-1.08566e-06
3.01956e-08
8.70863e-06
1.1406e-07
1.23804e-05
2.30148e-07
1.5969e-05
3.12632e-07
1.96681e-05
3.24709e-07
2.32722e-05
2.92173e-07
2.69887e-05
2.32913e-07
3.10868e-05
1.53782e-07
3.57244e-05
5.72776e-08
4.10163e-05
-5.58286e-08
4.70722e-05
-1.85499e-07
5.40097e-05
-3.31904e-07
6.19598e-05
-4.94934e-07
7.10694e-05
-6.73559e-07
8.15045e-05
-8.3271e-07
7.72299e-05
-9.80185e-07
7.71541e-05
-1.11438e-06
7.7074e-05
-1.23381e-06
7.69905e-05
-1.33723e-06
7.69044e-05
-1.42357e-06
7.68167e-05
-1.49204e-06
7.6728e-05
-1.53844e-06
6.99954e-05
-1.56674e-06
6.28523e-05
-1.58125e-06
5.64442e-05
-1.58544e-06
5.06945e-05
-1.58206e-06
4.55346e-05
-1.57328e-06
4.09031e-05
-1.56079e-06
3.67453e-05
-1.54587e-06
3.30123e-05
-1.52952e-06
2.96602e-05
-1.51247e-06
2.66498e-05
-1.49526e-06
2.3946e-05
-1.4783e-06
2.15174e-05
-1.46186e-06
1.93358e-05
1.73759e-05
-1.44613e-06
9.37992e-09
8.69924e-06
6.13282e-08
1.23284e-05
1.42418e-07
1.58879e-05
2.04387e-07
1.96062e-05
2.03762e-07
2.32729e-05
1.58031e-07
2.70344e-05
8.37719e-08
3.1161e-05
-1.25347e-08
3.58208e-05
-1.28715e-07
4.11325e-05
-2.64265e-07
4.72078e-05
-4.19339e-07
5.41648e-05
-5.94188e-07
6.21346e-05
-7.88617e-07
7.12638e-05
-1.00126e-06
8.17172e-05
-1.19031e-06
7.74189e-05
-1.36507e-06
7.73289e-05
-1.52363e-06
7.72326e-05
-1.66423e-06
7.71311e-05
-1.7853e-06
7.70255e-05
-1.88554e-06
7.69169e-05
-1.96391e-06
7.68064e-05
-2.01569e-06
7.00472e-05
-2.04576e-06
6.28824e-05
-2.05931e-06
5.64578e-05
-2.06054e-06
5.06958e-05
-2.05282e-06
4.55268e-05
-2.03876e-06
4.0889e-05
-2.02041e-06
3.6727e-05
-1.99934e-06
3.29912e-05
-1.97674e-06
2.96376e-05
-1.95349e-06
2.66266e-05
-1.93027e-06
2.39228e-05
-1.90752e-06
2.14947e-05
-1.88559e-06
1.93138e-05
1.73549e-05
-1.86468e-06
-7.93102e-09
8.70717e-06
1.36404e-08
1.23069e-05
6.05437e-08
1.5841e-05
9.80581e-08
1.95687e-05
8.11974e-08
2.32897e-05
1.94164e-08
2.70962e-05
-7.26741e-08
3.12531e-05
-1.89096e-07
3.59372e-05
-3.28096e-07
4.12715e-05
-4.89536e-07
4.73692e-05
-6.73842e-07
5.43491e-05
-8.81414e-07
6.23422e-05
-1.11203e-06
7.14944e-05
-1.36402e-06
8.19691e-05
-1.5878e-06
7.76427e-05
-1.79443e-06
7.75355e-05
-1.98163e-06
7.74198e-05
-2.1473e-06
7.72967e-05
-2.28955e-06
7.71677e-05
-2.40674e-06
7.70341e-05
-2.49755e-06
7.68972e-05
-2.55654e-06
7.01061e-05
-2.58957e-06
6.29154e-05
-2.60287e-06
5.64711e-05
-2.60148e-06
5.06944e-05
-2.58943e-06
4.55148e-05
-2.56989e-06
4.08695e-05
-2.54533e-06
3.67024e-05
-2.51764e-06
3.29636e-05
-2.48825e-06
2.96082e-05
-2.45823e-06
2.65966e-05
-2.42838e-06
2.3893e-05
-2.39924e-06
2.14655e-05
-2.37121e-06
1.92858e-05
1.73283e-05
-2.34456e-06
-2.41366e-08
8.73131e-06
-3.11108e-08
1.23138e-05
-1.74533e-08
1.58273e-05
-7.13211e-09
1.95583e-05
-4.34551e-08
2.3326e-05
-1.23997e-07
2.71767e-05
-2.36527e-07
3.13657e-05
-3.75791e-07
3.60764e-05
-5.40557e-07
4.14363e-05
-7.31132e-07
4.75598e-05
-9.48304e-07
5.45663e-05
-1.1927e-06
6.25866e-05
-1.46415e-06
7.17659e-05
-1.76068e-06
8.22657e-05
-2.024e-06
7.7906e-05
-2.26711e-06
7.77786e-05
-2.48734e-06
7.764e-05
-2.68218e-06
7.74916e-05
-2.84934e-06
7.73349e-05
-2.98682e-06
7.71716e-05
-3.09294e-06
7.70033e-05
-3.1613e-06
7.01745e-05
-3.19881e-06
6.29529e-05
-3.21285e-06
5.64851e-05
-3.20941e-06
5.06909e-05
-3.19329e-06
4.54987e-05
-3.16828e-06
4.08445e-05
-3.13731e-06
3.66715e-05
-3.10268e-06
3.29289e-05
-3.06608e-06
2.95716e-05
-3.0288e-06
2.65593e-05
-2.9918e-06
2.3856e-05
-2.95573e-06
2.14295e-05
-2.92108e-06
1.92512e-05
1.72954e-05
-2.88814e-06
-4.10139e-08
8.77232e-06
-7.44486e-08
1.23473e-05
-9.2841e-08
1.58457e-05
-1.11553e-07
1.9577e-05
-1.701e-07
2.33846e-05
-2.71862e-07
2.72785e-05
-4.07154e-07
3.1501e-05
-5.71688e-07
3.6241e-05
-7.64869e-07
4.16295e-05
-9.87532e-07
4.77824e-05
-1.2409e-06
5.48197e-05
-1.52592e-06
6.28716e-05
-1.84254e-06
7.20825e-05
-2.1886e-06
8.26117e-05
-2.49612e-06
7.82135e-05
-2.78028e-06
7.80628e-05
-3.03798e-06
7.78977e-05
-3.26624e-06
7.77198e-05
-3.46231e-06
7.7531e-05
-3.62375e-06
7.7333e-05
-3.74845e-06
7.7128e-05
-3.82873e-06
7.02548e-05
-3.87263e-06
6.29968e-05
-3.88877e-06
5.65013e-05
-3.88419e-06
5.06864e-05
-3.86455e-06
4.5479e-05
-3.83432e-06
4.08142e-05
-3.797e-06
3.66341e-05
-3.75529e-06
3.28872e-05
-3.71123e-06
2.95276e-05
-3.66636e-06
2.65144e-05
-3.62181e-06
2.38114e-05
-3.57839e-06
2.1386e-05
-3.53665e-06
1.92094e-05
1.72557e-05
-3.49697e-06
-5.83505e-08
8.83067e-06
-1.16889e-07
1.24058e-05
-1.66055e-07
1.58949e-05
-2.14877e-07
1.96259e-05
-2.97935e-07
2.34677e-05
-4.22962e-07
2.74035e-05
-5.82992e-07
3.1661e-05
-7.74879e-07
3.64329e-05
-9.98767e-07
4.18533e-05
-1.2561e-06
4.80398e-05
-1.54861e-06
5.51122e-05
-1.87765e-06
6.32006e-05
-2.24339e-06
7.24482e-05
-2.6436e-06
8.30119e-05
-2.99979e-06
7.85697e-05
-3.32949e-06
7.83925e-05
-3.62906e-06
7.81973e-05
-3.89504e-06
7.79858e-05
-4.12418e-06
7.77601e-05
-4.31351e-06
7.75224e-05
-4.46042e-06
7.72749e-05
-4.55561e-06
7.035e-05
-4.60824e-06
6.30494e-05
-4.62828e-06
5.65213e-05
-4.62387e-06
5.06819e-05
-4.60163e-06
4.54568e-05
-4.56678e-06
4.07794e-05
-4.52345e-06
3.65908e-05
-4.4748e-06
3.28386e-05
-4.42327e-06
2.9476e-05
-4.37068e-06
2.64618e-05
-4.31838e-06
2.37591e-05
-4.26733e-06
2.1335e-05
-4.21821e-06
1.91603e-05
1.72089e-05
-4.17147e-06
-7.57727e-08
8.90644e-06
-1.58385e-07
1.24884e-05
-2.37148e-07
1.59737e-05
-3.16461e-07
1.97052e-05
-4.25683e-07
2.35769e-05
-5.75534e-07
2.75534e-05
-7.61842e-07
3.18473e-05
-9.82747e-07
3.66538e-05
-1.23919e-06
4.21098e-05
-1.5333e-06
4.83339e-05
-1.8674e-06
5.54463e-05
-2.24337e-06
6.35766e-05
-2.66169e-06
7.28666e-05
-3.12014e-06
8.34704e-05
-3.52897e-06
7.89786e-05
-3.90834e-06
7.87718e-05
-4.25406e-06
7.8543e-05
-4.56211e-06
7.82939e-05
-4.82864e-06
7.80266e-05
-5.0501e-06
7.77438e-05
-5.2233e-06
7.74481e-05
-5.33687e-06
7.04635e-05
-5.40108e-06
6.31137e-05
-5.42729e-06
5.65475e-05
-5.42486e-06
5.06795e-05
-5.40138e-06
4.54333e-05
-5.36293e-06
4.07409e-05
-5.31429e-06
3.65422e-05
-5.25919e-06
3.27835e-05
-5.20048e-06
2.94173e-05
-5.14031e-06
2.64017e-05
-5.08028e-06
2.36991e-05
-5.02154e-06
2.12763e-05
-4.96491e-06
1.91037e-05
1.7155e-05
-4.91094e-06
-9.28507e-08
8.99929e-06
-1.98511e-07
1.25941e-05
-3.05685e-07
1.60808e-05
-4.15371e-07
1.98149e-05
-5.51776e-07
2.37133e-05
-7.27522e-07
2.77291e-05
-9.41176e-07
3.20609e-05
-1.19225e-06
3.69048e-05
-1.48257e-06
4.24001e-05
-1.81498e-06
4.86663e-05
-2.19252e-06
5.58238e-05
-2.61762e-06
6.40017e-05
-3.09122e-06
7.33402e-05
-3.61128e-06
8.39905e-05
-4.07629e-06
7.94436e-05
-4.50912e-06
7.92047e-05
-4.90507e-06
7.8939e-05
-5.25949e-06
7.86483e-05
-5.56787e-06
7.8335e-05
-5.82599e-06
7.8002e-05
-6.02996e-06
7.76521e-05
-6.1659e-06
7.05995e-05
-6.2451e-06
6.31929e-05
-6.28033e-06
5.65827e-05
-6.2822e-06
5.06814e-05
-6.25937e-06
4.54105e-05
-6.2188e-06
4.07004e-05
-6.16602e-06
3.64894e-05
-6.10534e-06
3.27228e-05
-6.04009e-06
2.93521e-05
-5.9728e-06
2.63344e-05
-5.90535e-06
2.36316e-05
-5.83912e-06
2.121e-05
-5.77507e-06
1.90396e-05
1.70938e-05
-5.7139e-06
-1.09337e-07
9.10863e-06
-2.37027e-07
1.27218e-05
-3.71268e-07
1.62151e-05
-5.10567e-07
1.99542e-05
-6.74481e-07
2.38772e-05
-8.7666e-07
2.79313e-05
-1.11818e-06
3.23025e-05
-1.4e-06
3.71867e-05
-1.72489e-06
4.2725e-05
-2.09649e-06
4.90379e-05
-2.51854e-06
5.62459e-05
-2.99416e-06
6.44773e-05
-3.52492e-06
7.38709e-05
-4.10923e-06
8.45748e-05
-4.63336e-06
7.99677e-05
-5.12301e-06
7.96943e-05
-5.57291e-06
7.93889e-05
-5.97778e-06
7.90531e-05
-6.33243e-06
7.86897e-05
-6.63189e-06
7.83014e-05
-6.87148e-06
7.78917e-05
-7.03424e-06
7.07622e-05
-7.13237e-06
6.3291e-05
-7.18005e-06
5.66304e-05
-7.18914e-06
5.06905e-05
-7.1694e-06
4.53907e-05
-7.12875e-06
4.06597e-05
-7.07349e-06
3.64341e-05
-7.00857e-06
3.26579e-05
-6.93786e-06
2.92814e-05
-6.86429e-06
2.62608e-05
-6.79008e-06
2.35574e-05
-6.71685e-06
2.11368e-05
-6.64578e-06
1.89685e-05
1.70257e-05
-6.57768e-06
-1.25042e-07
9.23367e-06
-2.73571e-07
1.28703e-05
-4.33384e-07
1.63749e-05
-6.01012e-07
2.01218e-05
-7.92043e-07
2.40682e-05
-1.02058e-06
2.81598e-05
-1.28992e-06
3.25718e-05
-1.60248e-06
3.74992e-05
-1.96198e-06
4.30845e-05
-2.37286e-06
4.94488e-05
-2.83969e-06
5.67127e-05
-3.36641e-06
6.5004e-05
-3.95539e-06
7.44599e-05
-4.60564e-06
8.5225e-05
-5.19101e-06
8.05531e-05
-5.74015e-06
8.02435e-05
-6.24723e-06
7.98959e-05
-6.70634e-06
7.95122e-05
-7.11155e-06
7.90949e-05
-7.45711e-06
7.8647e-05
-7.73743e-06
7.8172e-05
-7.9319e-06
7.09567e-05
-8.05344e-06
6.34125e-05
-8.11757e-06
5.66945e-05
-8.1374e-06
5.07103e-05
-8.12381e-06
4.53771e-05
-8.08568e-06
4.06216e-05
-8.03013e-06
3.63786e-05
-7.96283e-06
3.25906e-05
-7.88819e-06
2.92067e-05
-7.80961e-06
2.61822e-05
-7.72968e-06
2.34775e-05
-7.65031e-06
2.10574e-05
-7.5729e-06
1.88911e-05
1.69512e-05
-7.49843e-06
-1.39683e-07
9.37335e-06
-3.07732e-07
1.30383e-05
-4.91231e-07
1.65584e-05
-6.85505e-07
2.03161e-05
-9.02757e-07
2.42855e-05
-1.157e-06
2.84141e-05
-1.45354e-06
3.28683e-05
-1.79618e-06
3.78418e-05
-2.18959e-06
4.34779e-05
-2.63913e-06
4.98983e-05
-3.15024e-06
5.72238e-05
-3.72778e-06
6.55816e-05
-4.375e-06
7.51071e-05
-5.09178e-06
8.59418e-05
-5.73961e-06
8.12009e-05
-6.35016e-06
8.0854e-05
-6.91706e-06
8.04628e-05
-7.43375e-06
8.00289e-05
-7.89359e-06
7.95547e-05
-8.28995e-06
7.90433e-05
-8.6163e-06
7.84984e-05
-8.84773e-06
7.11882e-05
-8.99763e-06
6.35624e-05
-9.08276e-06
5.67797e-05
-9.11745e-06
5.0745e-05
-9.11366e-06
4.53734e-05
-9.08125e-06
4.05892e-05
-9.02821e-06
3.63255e-05
-8.96091e-06
3.25233e-05
-8.88439e-06
2.91302e-05
-8.80255e-06
2.61004e-05
-8.71837e-06
2.33933e-05
-8.6341e-06
2.09732e-05
-8.55139e-06
1.88084e-05
1.68713e-05
-8.47145e-06
-1.53041e-07
9.52639e-06
-3.38951e-07
1.32242e-05
-5.44121e-07
1.67636e-05
-7.63003e-07
2.05349e-05
-1.00501e-06
2.45275e-05
-1.28375e-06
2.86928e-05
-1.60629e-06
3.31909e-05
-1.97774e-06
3.82133e-05
-2.40379e-06
4.3904e-05
-2.89066e-06
5.03852e-05
-3.44469e-06
5.77778e-05
-4.07176e-06
6.62086e-05
-4.7762e-06
7.58116e-05
-5.559e-06
8.67246e-05
-6.26955e-06
8.19114e-05
-6.94257e-06
8.1527e-05
-7.57119e-06
8.10915e-05
-8.14826e-06
8.0606e-05
-8.66638e-06
8.00728e-05
-9.11807e-06
7.9495e-05
-9.49579e-06
7.88761e-05
-9.76968e-06
7.1462e-05
-9.95327e-06
6.3746e-05
-1.00645e-05
5.68909e-05
-1.01187e-05
5.07992e-05
-1.01289e-05
4.53836e-05
-1.0106e-05
4.05663e-05
-1.00588e-05
3.62783e-05
-9.9945e-06
3.24589e-05
-9.91867e-06
2.90544e-05
-9.8358e-06
2.60175e-05
-9.74931e-06
2.33068e-05
-9.66182e-06
2.08857e-05
-9.57526e-06
1.87219e-05
1.67871e-05
-9.49108e-06
-1.64943e-07
9.69133e-06
-3.66822e-07
1.34261e-05
-5.91547e-07
1.69883e-05
-8.32624e-07
2.0776e-05
-1.09738e-06
2.47922e-05
-1.39895e-06
2.89944e-05
-1.74578e-06
3.35377e-05
-2.14427e-06
3.86118e-05
-2.60102e-06
4.43607e-05
-3.12314e-06
5.09073e-05
-3.71793e-06
5.83726e-05
-4.39232e-06
6.6883e-05
-5.15191e-06
7.65711e-05
-5.99908e-06
8.75718e-05
-6.7716e-06
8.2684e-05
-7.5072e-06
8.22626e-05
-8.19861e-06
8.17829e-05
-8.83811e-06
8.12455e-05
-9.41765e-06
8.06524e-05
-9.92887e-06
8.00062e-05
-1.03631e-05
7.93104e-05
-1.0685e-05
7.17839e-05
-1.09079e-05
6.39689e-05
-1.10506e-05
5.70335e-05
-1.11295e-05
5.0878e-05
-1.11585e-05
4.54126e-05
-1.11495e-05
4.05573e-05
-1.11121e-05
3.62409e-05
-1.10542e-05
3.2401e-05
-1.09822e-05
2.89824e-05
-1.0901e-05
2.59364e-05
-1.08146e-05
2.32204e-05
-1.0726e-05
2.0797e-05
-1.06374e-05
1.86333e-05
1.67003e-05
-1.05506e-05
-1.75248e-07
9.86658e-06
-3.91084e-07
1.3642e-05
-6.32986e-07
1.72302e-05
-8.93671e-07
2.10367e-05
-1.17879e-06
2.50774e-05
-1.50106e-06
2.93166e-05
-1.87005e-06
3.39067e-05
-2.29326e-06
3.9035e-05
-2.7782e-06
4.48456e-05
-3.33283e-06
5.1462e-05
-3.96543e-06
5.90052e-05
-4.6841e-06
6.76017e-05
-5.49579e-06
7.73828e-05
-6.40456e-06
8.84805e-05
-7.23726e-06
8.35167e-05
-8.03456e-06
8.30599e-05
-8.78888e-06
8.25372e-05
-9.49209e-06
8.19487e-05
-1.01355e-05
8.12958e-05
-1.07099e-05
8.05806e-05
-1.12056e-05
7.98061e-05
-1.1581e-05
7.21593e-05
-1.18489e-05
6.42368e-05
-1.20288e-05
5.72134e-05
-1.21378e-05
5.09871e-05
-1.21908e-05
4.54657e-05
-1.22005e-05
4.05669e-05
-1.21772e-05
3.62177e-05
-1.21298e-05
3.23536e-05
-1.20652e-05
2.89177e-05
-1.1989e-05
2.58601e-05
-1.19056e-05
2.3137e-05
-1.18184e-05
2.07099e-05
-1.17301e-05
1.8545e-05
1.66128e-05
-1.16426e-05
-1.83865e-07
1.00504e-05
-4.11529e-07
1.38696e-05
-6.68045e-07
1.74867e-05
-9.45601e-07
2.13143e-05
-1.24849e-06
2.53802e-05
-1.58899e-06
2.96571e-05
-1.97759e-06
3.42953e-05
-2.42278e-06
3.94802e-05
-2.9329e-06
4.53558e-05
-3.51674e-06
5.20458e-05
-4.18356e-06
5.9672e-05
-4.94265e-06
6.83608e-05
-5.8025e-06
7.82427e-05
-6.76902e-06
8.94471e-05
-7.65908e-06
8.44067e-05
-8.51616e-06
8.3917e-05
-9.33256e-06
8.33536e-05
-1.00998e-05
8.2716e-05
-1.08088e-05
8.20047e-05
-1.14493e-05
8.12212e-05
-1.20109e-05
8.03676e-05
-1.2445e-05
7.25934e-05
-1.27635e-05
6.45553e-05
-1.29863e-05
5.74362e-05
-1.31311e-05
5.11319e-05
-1.32136e-05
4.55481e-05
-1.32471e-05
4.06004e-05
-1.32429e-05
3.62135e-05
-1.32104e-05
3.23211e-05
-1.31572e-05
2.88646e-05
-1.30896e-05
2.57925e-05
-1.30125e-05
2.30599e-05
-1.29297e-05
2.06271e-05
-1.28443e-05
1.84596e-05
1.65271e-05
-1.27585e-05
-1.90731e-07
1.02412e-05
-4.28019e-07
1.41069e-05
-6.96546e-07
1.77552e-05
-9.88139e-07
2.16058e-05
-1.30601e-06
2.56981e-05
-1.662e-06
3.00131e-05
-2.06739e-06
3.47007e-05
-2.53148e-06
3.99443e-05
-3.06337e-06
4.58877e-05
-3.67265e-06
5.26551e-05
-4.36955e-06
6.03689e-05
-5.16457e-06
6.91558e-05
-6.0678e-06
7.91459e-05
-7.08727e-06
9.04665e-05
-8.03085e-06
8.53503e-05
-8.94481e-06
8.4831e-05
-9.82149e-06
8.42303e-05
-1.06522e-05
8.35467e-05
-1.14274e-05
8.27798e-05
-1.21363e-05
8.19301e-05
-1.27673e-05
8.09987e-05
-1.32649e-05
7.3091e-05
-1.36394e-05
6.49299e-05
-1.39108e-05
5.77076e-05
-1.40973e-05
5.13184e-05
-1.42149e-05
4.56658e-05
-1.42778e-05
4.06632e-05
-1.42977e-05
3.62335e-05
-1.42849e-05
3.23083e-05
-1.42476e-05
2.88273e-05
-1.41926e-05
2.57376e-05
-1.41255e-05
2.29927e-05
-1.40504e-05
2.0552e-05
-1.39709e-05
1.83801e-05
1.64458e-05
-1.38896e-05
-1.95848e-07
1.0437e-05
-4.40547e-07
1.43516e-05
-7.18486e-07
1.80332e-05
-1.02123e-06
2.19086e-05
-1.35118e-06
2.60281e-05
-1.71979e-06
3.03817e-05
-2.13894e-06
3.51198e-05
-2.61862e-06
4.0424e-05
-3.16859e-06
4.64376e-05
-3.79921e-06
5.32857e-05
-4.5216e-06
6.10913e-05
-5.34753e-06
6.99818e-05
-6.28874e-06
8.00871e-05
-7.35546e-06
9.15333e-05
-8.34784e-06
8.63427e-05
-9.31487e-06
8.5798e-05
-1.0249e-05
8.51644e-05
-1.11416e-05
8.44393e-05
-1.19827e-05
8.36209e-05
-1.27612e-05
8.27086e-05
-1.34646e-05
8.17021e-05
-1.40298e-05
7.36562e-05
-1.44652e-05
6.53653e-05
-1.47907e-05
5.80331e-05
-1.50245e-05
5.15521e-05
-1.51829e-05
4.58242e-05
-1.52806e-05
4.07609e-05
-1.533e-05
3.6283e-05
-1.53419e-05
3.23202e-05
-1.53252e-05
2.88106e-05
-1.52873e-05
2.56996e-05
-1.52341e-05
2.29395e-05
-1.51705e-05
2.04884e-05
-1.51003e-05
1.83099e-05
1.63719e-05
-1.50265e-05
-1.99217e-07
1.06362e-05
-4.49144e-07
1.46015e-05
-7.33948e-07
1.8318e-05
-1.04502e-06
2.22197e-05
-1.38414e-06
2.63672e-05
-1.76244e-06
3.076e-05
-2.19222e-06
3.55496e-05
-2.68407e-06
4.09158e-05
-3.24827e-06
4.70018e-05
-3.89588e-06
5.39333e-05
-4.63891e-06
6.18344e-05
-5.49033e-06
7.08332e-05
-6.46356e-06
8.10603e-05
-7.5711e-06
9.26408e-05
-8.60683e-06
8.73784e-05
-9.62229e-06
8.68135e-05
-1.06102e-05
8.61523e-05
-1.1562e-05
8.53911e-05
-1.24677e-05
8.45267e-05
-1.3316e-05
8.35569e-05
-1.40937e-05
8.24799e-05
-1.47298e-05
7.42922e-05
-1.52307e-05
6.58662e-05
-1.56153e-05
5.84178e-05
-1.59019e-05
5.18387e-05
-1.61069e-05
4.60292e-05
-1.62451e-05
4.08991e-05
-1.63296e-05
3.63675e-05
-1.63716e-05
3.23622e-05
-1.63806e-05
2.88195e-05
-1.63645e-05
2.56835e-05
-1.63297e-05
2.29048e-05
-1.62817e-05
2.04404e-05
-1.62246e-05
1.82528e-05
1.6309e-05
-1.61617e-05
-2.00998e-07
1.08372e-05
-4.54065e-07
1.48546e-05
-7.43271e-07
1.86072e-05
-1.05991e-06
2.25363e-05
-1.40536e-06
2.67126e-05
-1.79042e-06
3.11451e-05
-2.2277e-06
3.59869e-05
-2.7282e-06
4.14163e-05
-3.30272e-06
4.75763e-05
-3.96288e-06
5.45935e-05
-4.72154e-06
6.2593e-05
-5.59281e-06
7.17044e-05
-6.59173e-06
8.20593e-05
-7.73315e-06
9.37822e-05
-8.80626e-06
8.84515e-05
-9.86473e-06
8.78719e-05
-1.09018e-05
8.71893e-05
-1.19092e-05
8.63985e-05
-1.28773e-05
8.54948e-05
-1.37947e-05
8.44742e-05
-1.46478e-05
8.3333e-05
-1.53575e-05
7.5002e-05
-1.59278e-05
6.64364e-05
-1.63765e-05
5.88665e-05
-1.67212e-05
5.21834e-05
-1.69783e-05
4.62863e-05
-1.71629e-05
4.10837e-05
-1.72884e-05
3.6493e-05
-1.73665e-05
3.24402e-05
-1.7407e-05
2.88601e-05
-1.74184e-05
2.56949e-05
-1.74076e-05
2.2894e-05
-1.73804e-05
2.04131e-05
-1.73413e-05
1.82137e-05
1.62617e-05
-1.7294e-05
-2.0097e-07
1.10382e-05
-4.55166e-07
1.51088e-05
-7.4652e-07
1.88985e-05
-1.06623e-06
2.2856e-05
-1.41532e-06
2.70617e-05
-1.80435e-06
3.15341e-05
-2.24608e-06
3.64286e-05
-2.75184e-06
4.19221e-05
-3.3328e-06
4.81573e-05
-4.00111e-06
5.52618e-05
-4.77035e-06
6.33623e-05
-5.65574e-06
7.25898e-05
-6.67377e-06
8.30773e-05
-7.84177e-06
9.49502e-05
-8.94576e-06
8.95555e-05
-1.00412e-05
8.89674e-05
-1.1122e-05
8.82702e-05
-1.21807e-05
8.74572e-05
-1.3208e-05
8.65222e-05
-1.41927e-05
8.54589e-05
-1.51212e-05
8.42615e-05
-1.59065e-05
7.57873e-05
-1.65493e-05
6.70792e-05
-1.70666e-05
5.93838e-05
-1.74752e-05
5.2592e-05
-1.77915e-05
4.66027e-05
-1.80306e-05
4.13227e-05
-1.82056e-05
3.6668e-05
-1.83282e-05
3.25629e-05
-1.84086e-05
2.89404e-05
-1.84552e-05
2.57415e-05
-1.84753e-05
2.29141e-05
-1.84749e-05
2.04127e-05
-1.8459e-05
1.81979e-05
-1.84315e-05
1.62342e-05
3.98278e-08
2.78135e-05
3.70222e-08
2.85527e-05
3.43125e-08
2.93116e-05
3.16993e-08
3.00906e-05
2.91837e-08
3.08903e-05
2.67655e-08
3.17114e-05
2.44448e-08
3.25542e-05
2.22207e-08
3.34194e-05
2.00924e-08
3.43077e-05
1.80579e-08
3.52196e-05
1.61154e-08
3.61557e-05
1.42858e-08
3.65907e-05
1.26259e-08
3.55529e-05
1.11138e-08
3.45446e-05
9.73108e-09
3.35649e-05
8.46152e-09
3.2613e-05
7.29139e-09
3.16881e-05
6.20838e-09
3.07894e-05
5.20218e-09
2.99162e-05
4.26346e-09
2.90678e-05
3.3845e-09
2.82435e-05
2.74425e-05
2.55905e-09
9.628e-08
2.782e-05
8.9876e-08
2.85591e-05
8.36462e-08
2.93178e-05
7.75944e-08
3.00966e-05
7.17244e-08
3.08962e-05
6.60389e-08
3.1717e-05
6.05397e-08
3.25597e-05
5.52273e-08
3.34248e-05
5.01015e-08
3.43128e-05
4.51601e-08
3.52245e-05
4.04001e-08
3.61605e-05
3.58824e-08
3.65952e-05
3.17635e-08
3.55571e-05
2.79951e-08
3.45484e-05
2.45345e-08
3.35684e-05
2.13437e-08
3.26162e-05
1.83902e-08
3.1691e-05
1.5645e-08
3.07921e-05
1.30834e-08
2.99188e-05
1.06834e-08
2.90702e-05
8.42634e-09
2.82457e-05
2.74446e-05
6.29271e-09
1.01289e-07
2.78274e-05
9.41424e-08
2.85662e-05
8.7227e-08
2.93247e-05
8.05483e-08
3.01033e-05
7.41109e-08
3.09026e-05
6.79181e-08
3.17232e-05
6.19717e-08
3.25656e-05
5.62719e-08
3.34305e-05
5.08172e-08
3.43183e-05
4.56037e-08
3.52297e-05
4.06253e-08
3.61654e-05
3.5936e-08
3.65999e-05
3.16801e-08
3.55613e-05
2.77995e-08
3.45523e-05
2.42444e-08
3.35719e-05
2.09711e-08
3.26194e-05
1.79417e-08
3.16941e-05
1.51229e-08
3.0795e-05
1.24864e-08
2.99214e-05
1.00073e-08
2.90727e-05
7.66422e-09
2.82481e-05
2.74468e-05
5.43978e-09
5.99124e-08
2.78331e-05
5.44717e-08
2.85717e-05
4.93093e-08
2.93299e-05
4.44297e-08
3.01082e-05
3.98359e-08
3.09072e-05
3.55289e-08
3.17275e-05
3.15079e-08
3.25697e-05
2.77695e-08
3.34342e-05
2.4308e-08
3.43217e-05
2.11142e-08
3.52329e-05
1.81767e-08
3.61684e-05
1.55162e-08
3.66026e-05
1.31961e-08
3.55636e-05
1.11581e-08
3.45543e-05
9.35254e-09
3.35737e-05
7.73655e-09
3.26211e-05
6.27381e-09
3.16955e-05
4.93311e-09
3.07963e-05
3.68836e-09
2.99227e-05
2.51731e-09
2.90738e-05
1.40172e-09
2.82492e-05
2.74479e-05
3.25489e-10
-2.21923e-08
2.78353e-05
-2.40617e-08
2.85735e-05
-2.55687e-08
2.93314e-05
-2.67128e-08
3.01093e-05
-2.74955e-08
3.0908e-05
-2.79211e-08
3.1728e-05
-2.79969e-08
3.25697e-05
-2.77338e-08
3.34339e-05
-2.71458e-08
3.43212e-05
-2.62513e-08
3.5232e-05
-2.50726e-08
3.61672e-05
-2.36586e-08
3.66012e-05
-2.21162e-08
3.55621e-05
-2.04981e-08
3.45527e-05
-1.88478e-08
3.35721e-05
-1.72014e-08
3.26194e-05
-1.55882e-08
3.16939e-05
-1.40318e-08
3.07947e-05
-1.25507e-08
2.99212e-05
-1.11597e-08
2.90725e-05
-9.86909e-09
2.82479e-05
2.74467e-05
-8.68586e-09
-1.43358e-07
2.78323e-05
-1.39864e-07
2.85701e-05
-1.35887e-07
2.93274e-05
-1.31435e-07
3.01049e-05
-1.26516e-07
3.09031e-05
-1.21144e-07
3.17226e-05
-1.15336e-07
3.25639e-05
-1.09114e-07
3.34277e-05
-1.02506e-07
3.43145e-05
-9.5543e-08
3.52251e-05
-8.82636e-08
3.61599e-05
-8.08193e-08
3.65937e-05
-7.35653e-08
3.55548e-05
-6.65453e-08
3.45457e-05
-5.97925e-08
3.35653e-05
-5.33319e-08
3.2613e-05
-4.7181e-08
3.16878e-05
-4.1352e-08
3.07889e-05
-3.58512e-08
2.99157e-05
-3.06815e-08
2.90673e-05
-2.5841e-08
2.8243e-05
2.74422e-05
-2.13225e-08
-3.03518e-07
2.78223e-05
-2.92851e-07
2.85594e-05
-2.81543e-07
2.93161e-05
-2.69612e-07
3.0093e-05
-2.57078e-07
3.08906e-05
-2.43968e-07
3.17095e-05
-2.30313e-07
3.25503e-05
-2.16151e-07
3.34135e-05
-2.01528e-07
3.42999e-05
-1.86494e-07
3.521e-05
-1.7111e-07
3.61445e-05
-1.55664e-07
3.65783e-05
-1.4084e-07
3.554e-05
-1.26669e-07
3.45315e-05
-1.13168e-07
3.35518e-05