/*--------------------------------*- C++ -*----------------------------------*\
  =========                 |
  \\      /  F ield         | OpenFOAM: The Open Source CFD Toolbox
   \\    /   O peration     | Website:  https://openfoam.org
    \\  /    A nd           | Version:  8
     \\/     M anipulation  |
\*---------------------------------------------------------------------------*/
FoamFile
{
    version     2.0;
    format      ascii;
    class       volScalarField;
    location    "0.26";
    object      nut;
}
// * * * * * * * * * * * * * * * * * * * * * * * * * * * * * * * * * * * * * //

dimensions      [0 2 -1 0 0 0 0];

internalField   nonuniform List<scalar> 
15677
(
0.000168252
0.000653023
0.000148417
0.00151375
0.00044245
0.000141509
0.00267554
0.000875778
0.00038113
0.000142378
0.00392135
0.00151885
0.000686575
0.00035423
0.000145461
0.00502434
0.00235602
0.00114626
0.000585571
0.000340238
0.000151205
0.00584085
0.00331723
0.00178053
0.000947608
0.000529238
0.000331997
0.000157
0.00633514
0.00429852
0.0025673
0.00146302
0.000820758
0.000492441
0.000326982
0.000162435
0.00656291
0.00518758
0.00345251
0.00213116
0.00125689
0.000737121
0.00046743
0.000324103
0.000167212
0.00665848
0.00589342
0.00435499
0.00292157
0.00184103
0.00111204
0.000677298
0.000450427
0.000322547
0.000171428
0.00670551
0.0063383
0.00518061
0.00377837
0.00255631
0.00163131
0.00100439
0.000634046
0.000438711
0.000321979
0.000174987
0.00671439
0.00655352
0.00584519
0.00462471
0.00336202
0.0022858
0.00147228
0.000924063
0.000602187
0.000430773
0.000321935
0.000178114
0.00670992
0.00666157
0.00629557
0.00537668
0.00419624
0.00304443
0.00207722
0.00134872
0.000862167
0.000578585
0.000425344
0.000322404
0.000180715
0.0067063
0.00669878
0.00652952
0.00596418
0.0049836
0.0038564
0.002795
0.00191123
0.00125105
0.000814083
0.000560912
0.000421854
0.000323052
0.00018306
0.00670543
0.00670439
0.00664677
0.0063568
0.00564965
0.00465502
0.00358253
0.00259287
0.00177749
0.0011729
0.000776415
0.000547748
0.000419544
0.000323956
0.000185098
0.0067055
0.00670285
0.00668787
0.00656288
0.00614179
0.0053678
0.00438052
0.00335615
0.00242742
0.00166786
0.00110968
0.000746684
0.000537739
0.000418308
0.000324799
0.000186907
0.00670568
0.00670158
0.00669641
0.00665653
0.00644661
0.00593321
0.00512036
0.00414782
0.00316789
0.00228956
0.00157781
0.00105807
0.000723148
0.00053048
0.000417444
0.000325847
0.000188557
0.0067058
0.00670107
0.00669719
0.00668486
0.00660478
0.00632154
0.00573699
0.0049032
0.00395034
0.00300887
0.00217474
0.00150285
0.00101637
0.000704713
0.000524841
0.000417319
0.000326774
0.000189969
0.00670585
0.00670091
0.00669685
0.00669156
0.00666372
0.00654115
0.00618795
0.00555647
0.00471385
0.00378097
0.00287473
0.00207802
0.001441
0.000982419
0.000690032
0.00052098
0.000417263
0.000327861
0.000191393
0.00670587
0.00670087
0.00669662
0.00669255
0.00668238
0.00663448
0.00646763
0.00605772
0.00539333
0.00454822
0.0036361
0.00276062
0.00199716
0.00138971
0.000954917
0.00067871
0.000517962
0.000417798
0.000328828
0.000192507
0.00670589
0.00670085
0.00669654
0.00669241
0.00668745
0.00666901
0.00659796
0.00638938
0.00593456
0.00524678
0.00440413
0.00351165
0.00266419
0.00192944
0.00134765
0.00093279
0.000669838
0.000516245
0.000418211
0.000329911
0.000193833
0.00670589
0.00670083
0.00669652
0.00669221
0.00668848
0.00668058
0.00665147
0.00655616
0.00631074
0.00581981
0.00511641
0.00427879
0.00340542
0.00258287
0.0018734
0.00131329
0.000915327
0.000663288
0.000514898
0.000419164
0.000330936
0.00019472
0.00670589
0.00670082
0.00669652
0.0066921
0.00668854
0.00668387
0.0066719
0.00663031
0.00651114
0.00623332
0.00571467
0.00500113
0.0041707
0.00331539
0.00251508
0.00182743
0.00128589
0.000901659
0.000658464
0.000514658
0.000419877
0.000331982
0.000196036
0.00670589
0.00670081
0.00669652
0.00669204
0.00668847
0.00668456
0.00667889
0.00666121
0.0066061
0.00646542
0.00616015
0.0056199
0.00490059
0.00407844
0.00323971
0.00245939
0.00179057
0.00126441
0.000891743
0.000655338
0.000514416
0.000421123
0.000333143
0.000196764
0.00670589
0.00670081
0.00669652
0.006692
0.00668842
0.00668458
0.00668097
0.0066729
0.00664869
0.00658087
0.00641923
0.006093
0.00553591
0.00481364
0.00400035
0.00317779
0.00241483
0.00176217
0.00124857
0.000884391
0.000653457
0.000515313
0.000422048
0.000334056
0.00019808
0.00670588
0.00670081
0.00669651
0.00669197
0.00668839
0.00668448
0.00668146
0.00667683
0.00666629
0.00663537
0.006554
0.00637701
0.00603117
0.00546191
0.00474025
0.00393715
0.00312828
0.00238048
0.00174072
0.00123717
0.000880421
0.000652957
0.000515794
0.000423557
0.000335546
0.000198783
0.00670588
0.00670082
0.0066965
0.00669196
0.00668836
0.00668439
0.0066815
0.00667794
0.00667293
0.00665917
0.00662087
0.00652949
0.00633554
0.00597687
0.00540083
0.00468063
0.00388531
0.00308972
0.00235513
0.00172747
0.0012316
0.000878344
0.000653456
0.000517752
0.000424586
0.000336326
5.33846e-05
0.00670587
0.00670082
0.00669649
0.00669195
0.00668835
0.00668432
0.00668145
0.00667812
0.00667517
0.00666875
0.00665172
0.00660769
0.0065044
0.00630244
0.005932
0.00534796
0.00463111
0.00384848
0.00306564
0.00234192
0.00172116
0.00122893
0.000879202
0.000655278
0.000518911
0.000427024
0.000283934
6.34452e-05
0.00670586
0.00670083
0.00669648
0.00669195
0.00668833
0.00668428
0.0066814
0.00667806
0.0066758
0.00667222
0.00666494
0.00664515
0.00659419
0.00648573
0.00626912
0.00589143
0.00531167
0.00460286
0.00382661
0.0030512
0.00233465
0.00171949
0.00123058
0.000881701
0.000657315
0.000521433
0.00042075
0.000219869
7.09414e-05
0.00670586
0.00670084
0.00669647
0.00669196
0.0066883
0.00668425
0.00668136
0.00667796
0.00667589
0.00667327
0.00667016
0.00666187
0.00663883
0.00658522
0.00646644
0.00624755
0.00587238
0.00528855
0.00458169
0.00381223
0.00304473
0.00233421
0.00172354
0.001236
0.000885831
0.000660493
0.000522711
0.000401238
0.000178225
7.64996e-05
0.00670585
0.00670085
0.00669645
0.00669197
0.00668828
0.00668424
0.00668131
0.00667787
0.00667585
0.00667344
0.006672
0.00666876
0.0066596
0.006636
0.00657627
0.00645722
0.00623978
0.00585655
0.00527279
0.00457024
0.0038087
0.00304861
0.00234282
0.00173398
0.00124462
0.000892091
0.000664564
0.000521003
0.000368664
0.000152616
8.10438e-05
0.00670584
0.00670086
0.00669644
0.00669198
0.00668825
0.00668424
0.00668127
0.0066778
0.00667578
0.00667336
0.0066725
0.00667126
0.00666863
0.00666027
0.00663378
0.0065772
0.00645652
0.00623429
0.00584882
0.00526898
0.00457429
0.00381993
0.00306407
0.00235977
0.00174937
0.00125702
0.000900039
0.000668396
0.000515552
0.000337553
0.000134158
8.45868e-05
0.00670584
0.00670087
0.00669643
0.00669199
0.00668823
0.00668424
0.00668123
0.00667776
0.00667571
0.00667323
0.00667257
0.00667193
0.00667225
0.00667108
0.00666225
0.00664164
0.00658125
0.00646097
0.00623648
0.00585647
0.00528264
0.00459339
0.00384344
0.00308953
0.00238411
0.00177002
0.0012723
0.000909454
0.000672275
0.000504916
0.000307489
0.000121082
8.71374e-05
0.00670583
0.00670088
0.00669641
0.006692
0.0066882
0.00668425
0.00668118
0.00667773
0.00667564
0.00667311
0.00667251
0.00667197
0.00667345
0.00667546
0.00667549
0.00667419
0.00664914
0.00659192
0.00647298
0.00625508
0.00588024
0.00531093
0.00462653
0.00387915
0.00312486
0.00241581
0.00179516
0.001291
0.000920201
0.000674774
0.000490303
0.000281488
0.000112485
8.9055e-05
0.00670583
0.00670089
0.0066964
0.00669201
0.00668818
0.00668426
0.00668114
0.00667772
0.00667557
0.00667301
0.00667241
0.00667182
0.00667376
0.00667687
0.00668128
0.00668973
0.00668398
0.00666415
0.00661305
0.0064999
0.0062882
0.00591908
0.00535488
0.00467387
0.0039271
0.00316989
0.00245452
0.0018251
0.00131201
0.000932048
0.000676264
0.000474183
0.000261789
0.000106632
9.05682e-05
0.0067009
0.00670582
0.00669639
0.00669202
0.00668816
0.00668427
0.0066811
0.00667772
0.00667549
0.00667294
0.00667231
0.00667164
0.00667376
0.00667717
0.00668346
0.0066967
0.00670093
0.00670193
0.00669179
0.00664657
0.00654115
0.00633665
0.00597463
0.00541461
0.00473565
0.00398729
0.00322454
0.00250018
0.00185921
0.00133621
0.000946588
0.000677125
0.000460106
0.000246694
0.0001025
9.18169e-05
0.00669639
0.00670092
0.00670583
0.00669203
0.00668814
0.00668429
0.00668105
0.00667773
0.00667542
0.0066729
0.0066722
0.00667147
0.00667367
0.00667707
0.00668417
0.00669942
0.00670874
0.00672076
0.00673403
0.00673012
0.00669435
0.00659817
0.00640304
0.00604751
0.00549129
0.00481235
0.00405967
0.00328857
0.00255249
0.00189763
0.00136545
0.000964022
0.000677999
0.000448124
0.000235037
9.95442e-05
9.28909e-05
0.00669204
0.0066964
0.00670096
0.00670583
0.00668812
0.0066843
0.00668102
0.00667774
0.00667534
0.00667288
0.00667209
0.00667134
0.00667355
0.00667686
0.00668433
0.00670034
0.00671199
0.00672977
0.00675586
0.00677592
0.00678308
0.00675813
0.00667364
0.00648817
0.00613955
0.00558549
0.00490365
0.00414416
0.00336184
0.00261123
0.00194513
0.00140075
0.000982927
0.000679151
0.000438392
0.000225828
9.73542e-05
9.38415e-05
0.00668811
0.00669209
0.00669644
0.006701
0.00670583
0.00668431
0.00668098
0.00667775
0.00667527
0.00667287
0.00667197
0.00667124
0.00667343
0.00667662
0.00668431
0.00670058
0.00671323
0.00673379
0.00676687
0.00680033
0.00683291
0.00685232
0.0068409
0.00676822
0.006594
0.00625081
0.00569784
0.00501058
0.0042406
0.00344386
0.00268343
0.00200396
0.00143853
0.00100279
0.000681959
0.000430484
0.000218534
9.57488e-05
9.47055e-05
0.00668432
0.00668813
0.00669217
0.00669648
0.00670104
0.00670584
0.00668095
0.00667777
0.00667521
0.00667288
0.00667185
0.00667118
0.0066733
0.0066764
0.00668423
0.00670056
0.00671369
0.00673556
0.00677219
0.00681322
0.00686041
0.00690605
0.00694036
0.00694287
0.00688438
0.00672005
0.00638224
0.00582849
0.00513244
0.00434857
0.00354479
0.00277222
0.00206784
0.00147894
0.00102444
0.000685651
0.000424314
0.000212566
9.45085e-05
9.54991e-05
0.00668093
0.00668438
0.00668819
0.00669225
0.00669652
0.00670108
0.00670584
0.00667778
0.00667515
0.00667289
0.00667174
0.00667115
0.00667315
0.00667621
0.00668415
0.00670045
0.00671384
0.00673641
0.00677491
0.00682016
0.00687639
0.00693812
0.007001
0.00705021
0.00706733
0.0070206
0.00686732
0.00653323
0.00597586
0.00527032
0.00448162
0.00366825
0.00286898
0.00213658
0.0015212
0.00104667
0.000690537
0.000419494
0.000207624
9.35882e-05
9.62402e-05
0.00667779
0.00668095
0.0066845
0.00668826
0.00669233
0.00669656
0.00670112
0.00670585
0.00667509
0.00667291
0.00667162
0.00667115
0.00667299
0.00667607
0.00668407
0.00670032
0.00671387
0.00673688
0.0067765
0.00682411
0.00688578
0.00695763
0.00703848
0.00711849
0.00718634
0.00721753
0.00718146
0.00703362
0.00670218
0.00614008
0.00543822
0.00464638
0.00380397
0.00297274
0.00220942
0.00156601
0.00106885
0.000696805
0.000415917
0.000203491
9.2849e-05
9.69307e-05
0.00667504
0.00667787
0.00668101
0.00668461
0.00668832
0.00669241
0.00669661
0.00670116
0.00670586
0.00667293
0.00667151
0.00667118
0.00667282
0.00667598
0.00668399
0.00670018
0.00671386
0.00673718
0.00677755
0.00682677
0.00689186
0.00697016
0.00706322
0.00716279
0.0072638
0.00734852
0.00739595
0.00736933
0.00722309
0.00688789
0.00633795
0.00564225
0.00482494
0.00394947
0.00308279
0.00228584
0.00161273
0.0010919
0.000703949
0.000413402
0.000200005
9.23027e-05
9.75829e-05
0.00667295
0.00667504
0.006678
0.00668109
0.00668473
0.0066884
0.00669249
0.00669666
0.0067012
0.00670587
0.00667141
0.00667121
0.00667263
0.00667596
0.0066839
0.00670005
0.00671383
0.0067374
0.00677833
0.00682881
0.00689634
0.00697904
0.00708081
0.00719425
0.00731743
0.00743751
0.00754147
0.00760179
0.0075842
0.0074383
0.00711397
0.00657542
0.00586027
0.00501347
0.00410264
0.00319797
0.00236527
0.00166098
0.00111561
0.000711862
0.000411841
0.000197053
9.18463e-05
9.81922e-05
0.00667132
0.00667302
0.00667508
0.00667814
0.00668117
0.00668484
0.00668847
0.00669257
0.00669671
0.00670124
0.00670588
0.00667125
0.00667244
0.006676
0.00668378
0.00669993
0.0067138
0.00673759
0.00677898
0.00683052
0.00689997
0.00698612
0.0070944
0.00721831
0.0073586
0.00750305
0.00764555
0.00776498
0.00783766
0.0078254
0.00770483
0.00739601
0.00682705
0.006087
0.00520967
0.00426143
0.00331708
0.00244694
0.00171045
0.00113956
0.000719936
0.000410998
0.000194534
9.15174e-05
9.87704e-05
0.0066713
0.00667124
0.00667316
0.00667513
0.00667827
0.00668126
0.00668496
0.00668856
0.00669266
0.00669676
0.00670128
0.00670589
0.00667226
0.00667608
0.00668362
0.00669982
0.00671378
0.00673775
0.00677954
0.00683203
0.00690306
0.00699221
0.00710581
0.00723794
0.00739259
0.00755681
0.00772714
0.0078877
0.00802295
0.00810402
0.00812346
0.00803241
0.00770636
0.00710043
0.00632018
0.00540971
0.00442336
0.00343869
0.00253023
0.00176068
0.00116409
0.000728141
0.000410708
0.000192371
9.12301e-05
9.93091e-05
0.00667208
0.00667135
0.00667116
0.00667329
0.00667519
0.00667841
0.00668135
0.00668507
0.00668865
0.00669274
0.00669682
0.00670131
0.0067059
0.0066762
0.00668341
0.00669974
0.00671378
0.00673792
0.00678006
0.00683339
0.00690579
0.00699766
0.0071158
0.00725505
0.00742199
0.00760361
0.00779825
0.00798958
0.00816975
0.00831615
0.00843537
0.00849288
0.00838995
0.00803708
0.00739158
0.00656239
0.00561126
0.00458691
0.00356185
0.00261443
0.00181137
0.00118895
0.000736501
0.000410847
0.000190506
9.10332e-05
9.98213e-05
0.00667635
0.00667178
0.00667142
0.00667109
0.00667342
0.00667526
0.00667854
0.00668146
0.00668518
0.00668874
0.00669282
0.00669689
0.00670135
0.00670591
0.00668313
0.0066997
0.0067138
0.00673809
0.00678054
0.00683462
0.00690824
0.00700262
0.00712475
0.00727055
0.00744847
0.00764523
0.00786338
0.00808334
0.00829849
0.00849264
0.00868397
0.00884985
0.00889938
0.00877442
0.0083853
0.00769485
0.00681452
0.0058139
0.00475051
0.00368499
0.00269885
0.00186217
0.00121396
0.000744916
0.000411393
0.000188892
9.08519e-05
0.000100296
0.00668281
0.00667637
0.0066713
0.00667149
0.00667104
0.00667355
0.00667535
0.00667867
0.00668158
0.00668529
0.00668885
0.0066929
0.00669695
0.00670139
0.00670593
0.00669973
0.00671385
0.00673827
0.00678099
0.00683575
0.00691046
0.00700715
0.00713284
0.00728485
0.00747273
0.00768333
0.0079237
0.00817286
0.0084223
0.00865496
0.00890219
0.00914974
0.00931107
0.00934085
0.00918295
0.0087483
0.00800581
0.00707312
0.00601672
0.00491172
0.00380709
0.00278284
0.00191278
0.00123894
0.000753405
0.00041203
0.000187496
9.07391e-05
0.000100749
0.00669986
0.00668176
0.00667632
0.00667083
0.00667155
0.00667102
0.00667366
0.00667547
0.0066788
0.00668171
0.0066854
0.00668896
0.00669298
0.00669701
0.00670142
0.00670594
0.00671393
0.00673845
0.0067814
0.00683677
0.00691248
0.00701129
0.0071402
0.0072981
0.00749504
0.00771886
0.00798065
0.0082574
0.00854388
0.00881783
0.009114
0.00942864
0.00967547
0.00981916
0.00981635
0.00961387
0.00912379
0.00832242
0.00733523
0.00622253
0.00507049
0.00392739
0.00286587
0.0019629
0.00126376
0.000761849
0.000412825
0.000186301
9.06271e-05
0.000101166
0.00671401
0.00669949
0.00667982
0.0066763
0.00667041
0.0066716
0.00667104
0.00667376
0.0066756
0.00667891
0.00668186
0.00668551
0.00668907
0.00669306
0.00669708
0.00670146
0.00670595
0.00673863
0.00678176
0.00683769
0.00691432
0.00701507
0.00714693
0.00731037
0.00751557
0.00775229
0.00803463
0.00833744
0.00866131
0.00898485
0.00933655
0.00971318
0.0100335
0.0102672
0.0103789
0.0103282
0.0100672
0.00951036
0.00864305
0.0075971
0.00642899
0.00522662
0.00404544
0.0029475
0.00201228
0.00128825
0.000770322
0.000413738
0.000185251
9.05691e-05
0.000101565
0.00673882
0.00671303
0.00669868
0.00667788
0.00667623
0.00667007
0.0066716
0.0066711
0.00667384
0.00667576
0.00667903
0.00668201
0.00668562
0.00668918
0.00669313
0.00669714
0.00670149
0.00670596
0.00678206
0.00683851
0.006916
0.00701851
0.00715309
0.0073217
0.00753447
0.00778378
0.00808548
0.00841344
0.00877608
0.00915261
0.00957025
0.0100227
0.0104202
0.0107395
0.0109443
0.0110024
0.0108821
0.0105443
0.00990734
0.00896635
0.00785769
0.00663431
0.00537939
0.00416047
0.00302724
0.00206069
0.00131233
0.000778699
0.000414684
0.000184348
9.05031e-05
0.00010193
0.00678231
0.00673712
0.00671087
0.00669785
0.00667631
0.00667601
0.00666985
0.00667154
0.00667122
0.00667391
0.00667593
0.00667914
0.00668216
0.00668573
0.00668929
0.00669321
0.0066972
0.00670152
0.00670598
0.00683925
0.00691754
0.00702165
0.00715872
0.00733211
0.00755186
0.00781336
0.00813304
0.00848594
0.00888903
0.00931937
0.0098034
0.0103604
0.0108746
0.0112968
0.0115936
0.0117346
0.0117032
0.0114831
0.0110464
0.0103142
0.00929126
0.00811609
0.00683728
0.00552911
0.00427168
0.00310473
0.00210792
0.00133589
0.000787006
0.000415709
0.000183569
9.04815e-05
0.00010228
0.00683995
0.00677936
0.00673336
0.00670863
0.00669657
0.00667526
0.00667559
0.00666978
0.00667143
0.00667138
0.00667396
0.00667612
0.00667925
0.00668232
0.00668584
0.00668939
0.00669328
0.00669726
0.00670155
0.00670599
0.00691893
0.00702449
0.00716387
0.00734165
0.00756788
0.00784098
0.0081773
0.0085554
0.00899942
0.00948208
0.010034
0.0107267
0.0114295
0.0120168
0.0124203
0.0126334
0.0126529
0.0124855
0.0121316
0.0115725
0.0107297
0.00961671
0.00837151
0.00703654
0.00567665
0.00437916
0.00317976
0.00215381
0.00135885
0.000795103
0.000416719
0.000182836
9.0446e-05
0.00010256
0.00692024
0.00683609
0.00677296
0.00672961
0.00670641
0.00669479
0.00667468
0.00667496
0.00666984
0.00667127
0.00667159
0.00667401
0.00667632
0.00667937
0.00668247
0.00668594
0.0066895
0.00669335
0.00669731
0.00670159
0.006706
0.00702708
0.00716857
0.00735036
0.00758261
0.00786662
0.00821845
0.00862187
0.0091056
0.00963859
0.0102679
0.0111399
0.0120946
0.0129394
0.0135094
0.0137933
0.0138418
0.0136809
0.0133363
0.0128196
0.0121184
0.0111518
0.00994147
0.00862316
0.0072308
0.00582106
0.0044829
0.00325217
0.00219825
0.00138115
0.000803029
0.000417773
0.000182223
9.0445e-05
0.000102795
0.00702946
0.00691486
0.00682728
0.00676643
0.00672604
0.00670418
0.00669264
0.00667453
0.00667415
0.00667002
0.00667109
0.00667181
0.00667407
0.00667651
0.00667949
0.00668261
0.00668605
0.00668959
0.00669343
0.00669736
0.00670162
0.00670601
0.00717285
0.00735828
0.00759612
0.00789029
0.00825665
0.0086851
0.00920611
0.00978935
0.010514
0.0116103
0.0128579
0.0139962
0.0148197
0.0152367
0.015313
0.0151439
0.0147703
0.014227
0.013532
0.0126766
0.0115772
0.010264
0.00887021
0.00741974
0.00596169
0.00458285
0.00332186
0.00224112
0.00140272
0.00081077
0.000418835
0.000181738
9.0435e-05
0.000103049
0.00717678
0.00702216
0.00690209
0.00681859
0.00676011
0.0067227
0.00670203
0.00668992
0.00667471
0.00667324
0.00667026
0.0066709
0.00667204
0.00667415
0.00667669
0.00667961
0.00668275
0.00668616
0.00668968
0.0066935
0.00669742
0.00670165
0.00670602
0.00736548
0.00760848
0.00791203
0.00829207
0.00874466
0.0093003
0.0099366
0.0107777
0.0121283
0.0136708
0.0150811
0.0161514
0.016794
0.0169892
0.0168352
0.016445
0.0158618
0.0151228
0.0142496
0.0132374
0.0120017
0.0105825
0.00911183
0.00760302
0.00609805
0.00467898
0.00338876
0.00228237
0.00142353
0.000818248
0.000419743
0.000181354
9.04423e-05
0.000103325
0.007372
0.00716692
0.00700398
0.00688934
0.00681015
0.00675413
0.00671957
0.00670057
0.00668688
0.00667507
0.00667231
0.00667051
0.00667076
0.00667224
0.00667424
0.00667686
0.00667974
0.00668287
0.00668627
0.00668977
0.00669357
0.00669746
0.00670168
0.00670602
0.00761976
0.0079319
0.0083248
0.0088002
0.00938835
0.0100826
0.0110575
0.0126684
0.0144709
0.0160927
0.0173498
0.0181926
0.0186091
0.0185966
0.0182451
0.0176676
0.0169041
0.0159913
0.0149534
0.013791
0.0124206
0.0108951
0.00934718
0.00778035
0.00622979
0.00477122
0.00345286
0.00232195
0.00144355
0.000824508
0.000420549
0.000180945
9.04402e-05
0.000103623
0.00762996
0.00735918
0.0071413
0.00698577
0.00687691
0.00680197
0.00674845
0.00671655
0.00669946
0.00668377
0.00667547
0.00667146
0.00667072
0.00667068
0.00667241
0.00667435
0.00667701
0.00667987
0.00668299
0.00668637
0.00668985
0.00669364
0.00669751
0.00670169
0.00670602
0.00795005
0.00835492
0.00885158
0.00947095
0.0102285
0.0113461
0.0132019
0.0152077
0.0169664
0.018335
0.0193105
0.0199128
0.0201394
0.0199738
0.0194805
0.0187652
0.0178628
0.0168082
0.0156278
0.0143281
0.0128296
0.0111999
0.00957551
0.00795145
0.00635664
0.00485958
0.00351411
0.00235984
0.00146022
0.000829902
0.000421447
0.000180536
9.04621e-05
0.000103951
0.00796631
0.00761326
0.00732375
0.00711564
0.00696795
0.00686483
0.00679398
0.00674292
0.00671375
0.00669847
0.0066808
0.00667574
0.00667078
0.00667084
0.00667067
0.00667255
0.00667449
0.00667714
0.00668001
0.0066831
0.00668648
0.00668993
0.0066937
0.00669753
0.00670169
0.00670602
0.00838258
0.00889887
0.00954886
0.0103737
0.0116336
0.0137052
0.0158525
0.0176787
0.0190898
0.0201283
0.0208466
0.0212637
0.0213609
0.0211017
0.0205227
0.019719
0.0187203
0.0175585
0.0162615
0.0148415
0.0132248
0.0114951
0.00979608
0.00811605
0.00647845
0.00494406
0.00357259
0.00239125
0.00147451
0.000835889
0.000422489
0.000180101
9.04704e-05
0.000104305
0.00840734
0.0079453
0.00756462
0.00728822
0.00709051
0.00695059
0.00685304
0.0067861
0.00673768
0.00671109
0.00669749
0.00667823
0.00667573
0.00667034
0.00667086
0.00667074
0.00667266
0.00667464
0.00667727
0.00668015
0.00668321
0.00668658
0.00669001
0.00669374
0.00669753
0.00670169
0.00670602
0.00894233
0.00962271
0.0105165
0.0119105
0.0141634
0.0163963
0.0182346
0.0196345
0.0206782
0.0214464
0.0219799
0.0222768
0.0223002
0.0219969
0.0213784
0.0205288
0.0194718
0.0182355
0.0168478
0.015326
0.0136031
0.0117792
0.0100083
0.00827397
0.00659512
0.00502462
0.00362077
0.00241808
0.00149032
0.000842569
0.000423653
0.000179667
9.05105e-05
0.000104695
0.00898108
0.00838062
0.00787943
0.00751587
0.00725335
0.007066
0.00693366
0.00684151
0.0067783
0.00673287
0.00670847
0.00669639
0.0066765
0.00667538
0.00667014
0.00667081
0.00667085
0.00667275
0.0066748
0.00667738
0.00668029
0.00668331
0.00668668
0.00669005
0.00669374
0.00669753
0.00670169
0.00670602
0.00969286
0.0106549
0.0121697
0.0145702
0.0168428
0.0186537
0.0200049
0.0210114
0.0217769
0.0223613
0.0227794
0.0230093
0.0230008
0.02269
0.022067
0.0212049
0.0201209
0.0188382
0.0173836
0.0157785
0.0139622
0.012051
0.0102116
0.00842508
0.00670657
0.00509165
0.00366179
0.00244765
0.00150785
0.00085001
0.000425011
0.000179208
9.05333e-05
0.000105115
0.00975698
0.00894772
0.00829148
0.00781333
0.00746801
0.0072193
0.0070421
0.00691713
0.00683023
0.00677052
0.00672831
0.0067058
0.00669451
0.0066756
0.00667475
0.00667011
0.0066707
0.006671
0.00667282
0.00667497
0.00667749
0.00668043
0.00668341
0.00668674
0.00669005
0.00669374
0.00669753
0.00670169
0.00670602
0.0107869
0.0124109
0.0149253
0.0172027
0.0189602
0.0202389
0.0211801
0.0219049
0.0224889
0.0229623
0.0233177
0.0235186
0.0235078
0.0232147
0.0226121
0.0217622
0.0206754
0.0193695
0.017869
0.0161975
0.0143006
0.0123097
0.0104057
0.00856927
0.0067986
0.00514902
0.00370687
0.0024803
0.00152732
0.000858354
0.000426533
0.000178757
9.05994e-05
0.000105577
0.0109056
0.00971484
0.00882608
0.00820228
0.00774835
0.00742124
0.00718606
0.00701878
0.00690103
0.00681923
0.00676291
0.00672391
0.00670316
0.00669202
0.00667533
0.00667396
0.00667021
0.00667057
0.00667117
0.00667288
0.00667513
0.0066776
0.00668056
0.00668346
0.00668674
0.00669005
0.00669374
0.00669753
0.00670169
0.00670602
0.0126342
0.0152294
0.0174889
0.0191775
0.0203707
0.0212293
0.021888
0.0224345
0.0229122
0.0233273
0.0236562
0.0238542
0.0238607
0.0236022
0.0230371
0.0222171
0.0211457
0.0198347
0.0183056
0.016583
0.0146177
0.0125547
0.0105903
0.0086884
0.00687703
0.00521238
0.0037565
0.0025164
0.00154898
0.000867688
0.000428315
0.000178275
9.06442e-05
0.000106075
0.0108583
0.0128304
0.00953589
0.00870653
0.00811444
0.00768479
0.00737554
0.00715363
0.00699607
0.00688536
0.0068086
0.00675542
0.00671987
0.00670076
0.00668896
0.00667542
0.00667312
0.00667035
0.00667044
0.00667135
0.00667295
0.0066753
0.0066777
0.00668064
0.00668345
0.00668674
0.00669005
0.00669374
0.00669754
0.00670168
0.00670601
0.015486
0.0177142
0.0193265
0.0204278
0.021195
0.0217717
0.022255
0.0226995
0.0231238
0.0235163
0.0238431
0.0240553
0.0240925
0.0238797
0.0233633
0.0225851
0.0215422
0.0202402
0.0186964
0.0169359
0.0149133
0.0127858
0.0107423
0.00878991
0.00696328
0.00528247
0.00381126
0.00255639
0.00157314
0.00087821
0.000430324
0.000177794
9.07466e-05
0.000106622
0.0105859
0.012779
0.0156978
0.00936444
0.00858966
0.0080283
0.00762264
0.0073309
0.00712202
0.00697399
0.00687021
0.00679852
0.0067483
0.00671627
0.00669929
0.00668583
0.00667564
0.00667232
0.00667051
0.00667033
0.00667152
0.00667302
0.00667546
0.00667774
0.00668065
0.00668344
0.00668674
0.00669005
0.00669374
0.00669751
0.00670165
0.006706
0.0178904
0.0194238
0.0204321
0.0211043
0.0215905
0.0219941
0.0223785
0.0227739
0.0231804
0.023574
0.0239147
0.024153
0.0242298
0.0240698
0.0236092
0.0228807
0.0218752
0.0205923
0.0190452
0.0172577
0.0151879
0.0129742
0.0108714
0.00890149
0.00705826
0.00536011
0.0038718
0.00260077
0.00160015
0.00089004
0.000432686
0.000177286
9.08239e-05
0.000107209
0.0103158
0.0124037
0.0156207
0.0180253
0.00920232
0.00847491
0.00794398
0.00756191
0.00728736
0.00709128
0.00695261
0.00685565
0.00678901
0.00674182
0.00671305
0.00669815
0.0066829
0.00667585
0.00667164
0.00667064
0.00667025
0.00667169
0.00667309
0.00667556
0.00667772
0.00668065
0.00668344
0.00668674
0.00669005
0.0066937
0.00669746
0.00670162
0.00670599
0.0194827
0.0204
0.0209774
0.0213694
0.0216835
0.0219897
0.0223278
0.0227098
0.0231222
0.0235326
0.0238983
0.0241709
0.0242937
0.0241912
0.0237904
0.0231162
0.022154
0.0208975
0.0193556
0.0175503
0.0154082
0.0131334
0.0110128
0.00902425
0.007163
0.0054462
0.00393888
0.00265013
0.00163041
0.000903458
0.000435376
0.000176787
9.09778e-05
0.000107855
0.010062
0.0119906
0.0152713
0.0179126
0.0195065
0.0090471
0.00836205
0.00786157
0.00750263
0.00724502
0.00706149
0.00693198
0.00684179
0.00678014
0.00673588
0.00671023
0.00669712
0.00668035
0.00667592
0.00667109
0.00667074
0.0066702
0.00667185
0.00667311
0.00667558
0.00667771
0.00668065
0.00668345
0.00668674
0.00669001
0.00669364
0.00669741
0.00670158
0.00670597
0.0203435
0.020829
0.0211266
0.0213465
0.0215626
0.0218232
0.022151
0.0225438
0.0229778
0.0234155
0.023814
0.0241275
0.024301
0.0242588
0.0239199
0.0233024
0.0223869
0.0211619
0.0196316
0.0177804
0.0155926
0.0133065
0.0111678
0.0091594
0.00727867
0.00554183
0.00401337
0.00270516
0.00166442
0.000918637
0.000438549
0.000176275
9.11051e-05
0.000108541
0.00982557
0.0115778
0.0148311
0.0176744
0.0193416
0.0202623
0.00889657
0.00825122
0.0077812
0.00744492
0.00720395
0.00703271
0.00691229
0.00682891
0.00677193
0.00673059
0.00670767
0.00669611
0.00667834
0.0066758
0.00667069
0.0066708
0.00667019
0.00667195
0.00667307
0.00667559
0.00667771
0.00668065
0.00668346
0.00668668
0.00668993
0.00669357
0.00669736
0.00670155
0.00670596
0.0206693
0.0208749
0.0209994
0.0211189
0.021288
0.0215389
0.0218811
0.0223009
0.022767
0.0232395
0.0236774
0.0240371
0.0242651
0.0242848
0.0240084
0.0234482
0.0225811
0.0213907
0.0198437
0.0179705
0.0157907
0.0134944
0.0113374
0.00930825
0.00740655
0.0056482
0.0040963
0.00276669
0.00170273
0.000935971
0.000442208
0.000175781
9.13337e-05
0.000109298
0.00960374
0.0111821
0.0143349
0.0173583
0.0191786
0.0200447
0.0204936
0.00874972
0.00814273
0.00770302
0.00738889
0.00716427
0.0070052
0.006894
0.00681711
0.00676433
0.00672598
0.00670526
0.0066949
0.00667708
0.0066755
0.00667042
0.00667085
0.00667016
0.00667198
0.00667306
0.00667559
0.00667772
0.00668064
0.00668341
0.00668658
0.00668985
0.0066935
0.00669731
0.00670152
0.00670595
0.020623
0.0206539
0.0206739
0.020743
0.0209005
0.0211672
0.0215411
0.0219988
0.0225041
0.0230174
0.0235003
0.0239112
0.0241966
0.0242789
0.0240644
0.0235611
0.0227427
0.0215616
0.0200169
0.0181719
0.0160031
0.0136983
0.0115231
0.00947226
0.0075481
0.0057667
0.00418886
0.00283563
0.00174608
0.000955737
0.00044654
0.000175301
9.15393e-05
0.000110092
0.00939385
0.0108097
0.0138072
0.0169862
0.0189506
0.0199156
0.020224
0.0203611
0.00860632
0.00803691
0.0076272
0.00733471
0.00712633
0.00697965
0.00687733
0.0068063
0.00675725
0.00672193
0.00670296
0.00669305
0.00667636
0.00667508
0.00667026
0.00667087
0.00667012
0.00667199
0.00667306
0.00667558
0.00667774
0.00668057
0.00668331
0.00668648
0.00668977
0.00669343
0.00669725
0.00670149
0.00670594
0.0203175
0.0202388
0.0202035
0.0202567
0.0204287
0.0207297
0.0211465
0.0216492
0.022199
0.0227586
0.0232922
0.0237589
0.024104
0.0242488
0.0240951
0.0236473
0.022858
0.0216992
0.0201975
0.0183845
0.0162303
0.013919
0.0117261
0.00965296
0.00770495
0.00589888
0.00429245
0.00291319
0.0017952
0.000978479
0.000451616
0.00017486
9.18782e-05
0.000111121
0.00919393
0.0104632
0.0132604
0.0165668
0.0186823
0.0197344
0.0201002
0.0200394
0.0199752
0.00846657
0.00793413
0.00755397
0.00728288
0.00709113
0.00695641
0.00686212
0.00679642
0.00675067
0.00671831
0.0067009
0.00669075
0.00667599
0.00667462
0.00667022
0.00667085
0.00667011
0.00667199
0.00667308
0.00667556
0.0066777
0.00668043
0.00668321
0.00668637
0.00668968
0.00669335
0.0066972
0.00670146
0.00670593
0.0198204
0.0196805
0.0196229
0.0196866
0.0198931
0.0202403
0.0207079
0.0212604
0.0218592
0.0224706
0.0230608
0.0235874
0.0239941
0.0242008
0.024106
0.0237016
0.022949
0.0218398
0.0203847
0.0186079
0.0164723
0.0141574
0.0119478
0.00985198
0.00787887
0.00604651
0.00440864
0.00300061
0.00185121
0.00100468
0.000457648
0.000174479
9.22766e-05
0.000112351
0.00900264
0.0101437
0.0127021
0.0161015
0.0183849
0.0195275
0.0199328
0.0199035
0.0196015
0.0194079
0.00833065
0.0078348
0.00748398
0.00723481
0.00705913
0.00693524
0.00684826
0.00678745
0.00674455
0.0067152
0.00669942
0.00668837
0.00667582
0.00667425
0.00667026
0.00667084
0.00667011
0.00667198
0.00667311
0.00667547
0.0066776
0.00668029
0.0066831
0.00668626
0.00668959
0.00669328
0.00669714
0.00670142
0.00670591
0.0191808
0.0190108
0.0189575
0.0190537
0.0193066
0.0197087
0.0202322
0.0208375
0.02149
0.0221599
0.0228128
0.023403
0.0238721
0.0241398
0.0241001
0.0237422
0.0230387
0.0219823
0.0205778
0.0188415
0.0167293
0.0144141
0.0121894
0.010071
0.00807176
0.00621158
0.00453943
0.00309971
0.0019152
0.00103508
0.000464855
0.000174148
9.29238e-05
0.00011358
0.00882018