/*--------------------------------*- C++ -*----------------------------------*\
  =========                 |
  \\      /  F ield         | OpenFOAM: The Open Source CFD Toolbox
   \\    /   O peration     | Website:  https://openfoam.org
    \\  /    A nd           | Version:  8
     \\/     M anipulation  |
\*---------------------------------------------------------------------------*/
FoamFile
{
    version     2.0;
    format      ascii;
    class       surfaceScalarField;
    location    "0.12";
    object      phi;
}
// * * * * * * * * * * * * * * * * * * * * * * * * * * * * * * * * * * * * * //

dimensions      [0 3 -1 0 0 0 0];

internalField   nonuniform List<scalar> 
31053
(
6.27749e-07
1.27523e-05
8.4967e-07
1.51581e-05
3.76385e-07
1.23759e-05
9.32403e-07
1.75573e-05
5.89024e-07
1.49454e-05
2.69734e-07
1.21061e-05
9.56091e-07
2.02163e-05
7.07306e-07
1.7439e-05
4.65059e-07
1.47501e-05
2.16322e-07
1.18898e-05
9.4714e-07
2.3249e-05
7.66944e-07
2.01567e-05
5.90705e-07
1.73133e-05
3.96842e-07
1.45696e-05
1.73033e-07
1.17168e-05
9.17242e-07
2.66899e-05
7.92144e-07
2.32238e-05
6.66012e-07
2.00814e-05
5.24776e-07
1.71854e-05
3.34415e-07
1.44082e-05
1.38612e-07
1.15782e-05
8.71893e-07
3.06653e-05
7.95103e-07
2.66869e-05
7.0832e-07
2.31814e-05
6.06506e-07
1.99996e-05
4.57478e-07
1.70623e-05
2.80004e-07
1.42668e-05
1.11636e-07
1.14665e-05
8.14454e-07
3.51974e-05
7.82728e-07
3.06777e-05
7.28502e-07
2.66668e-05
6.55476e-07
2.31325e-05
5.39483e-07
1.99176e-05
3.93896e-07
1.69484e-05
2.33308e-07
1.41451e-05
8.93909e-08
1.13771e-05
7.47818e-07
4.03866e-05
7.58873e-07
3.52213e-05
7.32885e-07
3.06733e-05
6.81725e-07
2.66405e-05
5.89462e-07
2.30825e-05
4.72163e-07
1.98394e-05
3.35667e-07
1.68461e-05
1.91688e-07
1.40429e-05
6.99556e-08
1.13072e-05
6.73682e-07
4.63541e-05
7.25429e-07
4.04201e-05
7.24766e-07
3.52294e-05
6.91236e-07
3.06638e-05
6.16448e-07
2.66135e-05
5.1968e-07
2.3035e-05
4.07448e-07
1.97676e-05
2.80623e-07
1.67572e-05
1.5323e-07
1.39596e-05
5.21833e-08
1.1255e-05
5.93701e-07
5.322e-05
6.84478e-07
4.63951e-05
7.05307e-07
4.04395e-05
6.87504e-07
3.52331e-05
6.26429e-07
3.06539e-05
5.44096e-07
2.65891e-05
4.49992e-07
2.29924e-05
3.43482e-07
1.97047e-05
2.27223e-07
1.66832e-05
1.16675e-07
1.38951e-05
3.53146e-08
1.12197e-05
5.09828e-07
6.10639e-05
6.37714e-07
5.32667e-05
6.75806e-07
4.64246e-05
6.72944e-07
4.04541e-05
6.22916e-07
3.52367e-05
5.51215e-07
3.06467e-05
4.69393e-07
2.65697e-05
3.78718e-07
2.29572e-05
2.7895e-07
1.9653e-05
1.74437e-07
1.66254e-05
8.11063e-08
1.38493e-05
1.8839e-08
1.12008e-05
4.24647e-07
7.00672e-05
5.86653e-07
6.11149e-05
6.37372e-07
5.33052e-05
6.48209e-07
4.64493e-05
6.08071e-07
4.04689e-05
5.44544e-07
3.52433e-05
4.71047e-07
3.06451e-05
3.90779e-07
2.65576e-05
3.04613e-07
2.29315e-05
2.12951e-07
1.96145e-05
1.21503e-07
1.6585e-05
4.58377e-08
1.38223e-05
2.57171e-09
1.11983e-05
3.41906e-07
8.04147e-05
5.32303e-07
7.01215e-05
5.91222e-07
6.11611e-05
6.13662e-07
5.33397e-05
5.82939e-07
4.64745e-05
5.26057e-07
4.04874e-05
4.5835e-07
3.5256e-05
3.8448e-07
3.06514e-05
3.07043e-07
2.65552e-05
2.26808e-07
2.29177e-05
1.44852e-07
1.95911e-05
6.78036e-08
1.6563e-05
1.04808e-08
1.38144e-05
-1.36937e-08
1.1212e-05
2.78652e-07
7.62533e-05
4.74708e-07
8.04723e-05
5.3871e-07
7.0174e-05
5.69696e-07
6.12051e-05
5.47898e-07
5.33748e-05
4.96742e-07
4.65038e-05
4.33173e-07
4.05126e-05
3.63046e-07
3.52775e-05
2.90363e-07
3.06681e-05
2.17316e-07
2.65647e-05
1.44691e-07
2.29178e-05
7.41343e-08
1.95848e-05
1.30166e-08
1.65605e-05
-2.51318e-08
1.38258e-05
-3.012e-08
1.12421e-05
2.28101e-07
7.62406e-05
4.22917e-07
7.6305e-05
4.81222e-07
8.05298e-05
5.16928e-07
7.02268e-05
5.03133e-07
6.12498e-05
4.56978e-07
5.34145e-05
3.96408e-07
4.65405e-05
3.28243e-07
4.05474e-05
2.57531e-07
3.53103e-05
1.87813e-07
3.06976e-05
1.20952e-07
2.65884e-05
5.77583e-08
2.29342e-05
5.79872e-10
1.95972e-05
-4.29853e-08
1.65784e-05
-6.11853e-08
1.38569e-05
-4.67149e-08
1.12888e-05
1.87845e-07
7.62303e-05
3.74353e-07
7.62891e-05
4.29966e-07
7.63563e-05
4.56452e-07
8.05903e-05
4.48916e-07
7.0281e-05
4.06912e-07
6.12999e-05
3.4836e-07
5.34626e-05
2.80844e-07
4.65879e-05
2.10155e-07
4.05948e-05
1.40912e-07
3.53572e-05
7.61367e-08
3.07424e-05
1.74483e-08
2.66288e-05
-3.40988e-08
2.29689e-05
-7.57059e-08
1.963e-05
-1.00156e-07
1.66173e-05
-9.75478e-08
1.39077e-05
-6.33049e-08
1.13521e-05
1.55461e-07
7.62244e-05
3.29344e-07
7.62753e-05
3.82e-07
7.63371e-05
4.01387e-07
7.64114e-05
3.85899e-07
8.06533e-05
3.46739e-07
7.03412e-05
2.89123e-07
6.13591e-05
2.21058e-07
5.35224e-05
1.48865e-07
4.66492e-05
7.79973e-08
4.06577e-05
1.24357e-08
3.54209e-05
-4.51696e-08
3.0805e-05
-9.3246e-08
2.66879e-05
-1.30638e-07
2.30238e-05
-1.54508e-07
1.96843e-05
-1.58173e-07
1.6678e-05
-1.33959e-07
1.39784e-05
-7.97608e-08
1.14319e-05
1.29146e-07
7.62163e-05
2.88213e-07
7.62655e-05
3.37384e-07
7.63199e-05
3.4928e-07
7.63892e-05
3.27485e-07
7.64698e-05
2.77055e-07
8.0723e-05
2.18839e-07
7.04115e-05
1.48929e-07
6.14312e-05
7.37469e-08
5.35975e-05
-4.9371e-10
4.67277e-05
-6.90511e-08
4.07392e-05
-1.28405e-07
3.55041e-05
-1.76131e-07
3.08879e-05
-2.10772e-07
2.6768e-05
-2.31391e-07
2.31007e-05
-2.35173e-07
1.97613e-05
-2.16533e-07
1.67605e-05
-1.70058e-07
1.40687e-05
-9.58255e-08
1.15277e-05
1.07577e-07
7.62116e-05
2.5097e-07
7.62536e-05
2.96139e-07
7.63068e-05
3.00562e-07
7.63686e-05
2.71637e-07
7.6445e-05
2.12531e-07
7.65343e-05
1.38113e-07
8.08037e-05
6.45921e-08
7.04958e-05
-1.52141e-08
6.15202e-05
-9.46359e-08
5.36916e-05
-1.68138e-07
4.68268e-05
-2.31523e-07
4.08423e-05
-2.81615e-07
3.56096e-05
-3.1623e-07
3.09933e-05
-3.34415e-07
2.68711e-05
-3.35406e-07
2.32009e-05
-3.16846e-07
1.98616e-05
-2.74578e-07
1.6865e-05
-2.05365e-07
1.41782e-05
-1.11313e-07
1.1639e-05
8.97799e-08
7.62078e-05
2.17464e-07
7.62451e-05
2.58197e-07
7.62915e-05
2.55496e-07
7.63518e-05
2.19133e-07
7.64211e-05
1.50965e-07
7.65066e-05
6.38534e-08
7.66086e-05
-3.12869e-08
8.08996e-05
-1.17888e-07
7.05985e-05
-2.04529e-07
6.16301e-05
-2.85107e-07
5.38086e-05
-3.54631e-07
4.69499e-05
-4.09374e-07
4.09701e-05
-4.46488e-07
3.57399e-05
-4.64533e-07
3.11235e-05
-4.62931e-07
2.69986e-05
-4.41418e-07
2.33255e-05
-3.98491e-07
1.99855e-05
-3.31515e-07
1.69912e-05
-2.39388e-07
1.43063e-05
-1.25905e-07
1.17649e-05
7.61826e-08
6.95956e-05
1.87498e-07
7.62378e-05
2.23465e-07
7.62798e-05
2.14192e-07
7.63328e-05
1.70467e-07
7.64005e-05
9.33233e-08
7.64787e-05
-6.60081e-09
7.65771e-05
-1.18876e-07
7.66962e-05
-2.33442e-07
8.10152e-05
-3.30004e-07
7.0724e-05
-4.20163e-07
6.17652e-05
-4.98264e-07
5.39522e-05
-5.59885e-07
4.71004e-05
-6.01712e-07
4.11253e-05
-6.21876e-07
3.58972e-05
-6.19486e-07
3.128e-05
-5.94631e-07
2.71518e-05
-5.47969e-07
2.3475e-05
-4.78904e-07
2.01329e-05
-3.8649e-07
1.71383e-05
-2.71521e-07
1.44519e-05
-1.39402e-07
1.19043e-05
6.5734e-08
6.25544e-05
1.63132e-07
6.962e-05
1.91824e-07
7.62694e-05
1.76655e-07
7.63173e-05
1.25947e-07
7.63773e-05
4.02342e-08
7.64536e-05
-7.21299e-08
7.65443e-05
-2.01469e-07
7.66597e-05
-3.38211e-07
7.68009e-05
-4.7005e-07
8.11552e-05
-5.7314e-07
7.08769e-05
-6.62773e-07
6.19297e-05
-7.33994e-07
5.41263e-05
-7.82813e-07
4.72815e-05
-8.07163e-07
4.13106e-05
-8.05889e-07
3.60836e-05
-7.78962e-07
3.14643e-05
-7.27617e-07
2.73314e-05
-6.53369e-07
2.36495e-05
-5.56794e-07
2.03032e-05
-4.38537e-07
1.73053e-05
-3.0127e-07
1.46138e-05
-1.51422e-07
1.20557e-05
5.75439e-08
5.62262e-05
1.43522e-07
6.25741e-05
1.6542e-07
6.96464e-05
1.4283e-07
7.63032e-05
8.57471e-08
7.63575e-05
-7.87405e-09
7.64254e-05
-1.31918e-07
7.65134e-05
-2.77739e-07
7.66205e-05
-4.3641e-07
7.67579e-05
-5.96239e-07
7.69271e-05
-7.42799e-07
8.13249e-05
-8.48006e-07
7.10622e-05
-9.32242e-07
6.21279e-05
-9.9101e-07
5.43345e-05
-1.02181e-06
4.74962e-05
-1.02347e-06
4.15282e-05
-9.95933e-07
3.63006e-05
-9.40591e-07
3.16773e-05
-8.59667e-07
2.75377e-05
-7.5583e-07
2.38485e-05
-6.30752e-07
2.04954e-05
-4.86804e-07
1.74908e-05
-3.27774e-07
1.47901e-05
-1.61364e-07
1.22171e-05
5.10202e-08
5.05385e-05
1.27602e-07
5.62421e-05
1.43668e-07
6.25958e-05
1.15093e-07
6.96741e-05
4.99466e-08
7.6339e-05
-5.07316e-08
7.64004e-05
-1.85402e-07
7.64789e-05
-3.46711e-07
7.65823e-05
-5.26531e-07
7.67107e-05
-7.13897e-07
7.68755e-05
-8.94927e-07
7.70792e-05
-1.05249e-06
8.15294e-05
-1.15453e-06
7.12845e-05
-1.22709e-06
6.2364e-05
-1.26746e-06
5.45802e-05
-1.27422e-06
4.77469e-05
-1.24754e-06
4.17798e-05
-1.18913e-06
3.65491e-05
-1.1016e-06
3.19192e-05
-9.88474e-07
2.77704e-05
-8.53434e-07
2.40712e-05
-6.99501e-07
2.07081e-05
-5.29971e-07
1.7693e-05
-3.50308e-07
1.49791e-05
-1.67038e-07
1.23841e-05
4.57526e-08
4.54253e-05
1.14574e-07
5.05516e-05
1.25706e-07
5.62601e-05
9.26681e-08
6.26182e-05
2.11397e-08
6.97029e-05
-8.81562e-08
7.63765e-05
-2.32198e-07
7.64472e-05
-4.0766e-07
7.65399e-05
-6.0739e-07
7.66632e-05
-8.21302e-07
7.68181e-05
-1.03621e-06
7.70168e-05
-1.23523e-06
7.7262e-05
-1.39915e-06
8.1774e-05
-1.49105e-06
7.15484e-05
-1.54523e-06
6.26418e-05
-1.56028e-06
5.48663e-05
-1.53639e-06
4.80358e-05
-1.47596e-06
4.20666e-05
-1.38214e-06
3.68297e-05
-1.25912e-06
3.21899e-05
-1.11155e-06
2.80285e-05
-9.44408e-07
2.43161e-05
-7.61279e-07
2.09395e-05
-5.67157e-07
1.79099e-05
-3.64719e-07
1.51767e-05
-1.35475e-07
1.25196e-05
4.14496e-08
4.08303e-05
1.0383e-07
4.5436e-05
1.10815e-07
5.05664e-05
7.44961e-08
5.62782e-05
-1.58868e-09
6.2641e-05
-1.17503e-07
6.97323e-05
-2.72056e-07
7.64163e-05
-4.60072e-07
7.64996e-05
-6.78073e-07
7.66105e-05
-9.17047e-07
7.67589e-05
-1.16467e-06
7.69465e-05
-1.40448e-06
7.7186e-05
-1.6173e-06
7.74801e-05
-1.781e-06
8.20639e-05
-1.85528e-06
7.18585e-05
-1.88317e-06
6.29647e-05
-1.86525e-06
5.51951e-05
-1.80437e-06
4.83642e-05
-1.70474e-06
4.23892e-05
-1.57145e-06
3.7142e-05
-1.41003e-06
3.24884e-05
-1.22656e-06
2.83107e-05
-1.02654e-06
2.45813e-05
-8.14727e-07
2.1187e-05
-5.92987e-07
1.81382e-05
-3.57687e-07
1.5399e-05
-8.63547e-08
1.2606e-05
3.7897e-08
3.66996e-05
9.49079e-08
4.08392e-05
9.84135e-08
4.54484e-05
5.97397e-08
5.05812e-05
-1.94825e-08
5.62961e-05
-1.39913e-07
6.26634e-05
-3.02267e-07
6.97625e-05
-5.03585e-07
7.64598e-05
-7.37908e-07
7.65594e-05
-1.00001e-06
7.66935e-05
-1.27865e-06
7.68729e-05
-1.55798e-06
7.71e-05
-1.81905e-06
7.73878e-05
-2.03931e-06
7.77384e-05
-2.19557e-06
8.24042e-05
-2.2433e-06
7.22186e-05
-2.23611e-06
6.33355e-05
-2.17781e-06
5.55686e-05
-2.07343e-06
4.87329e-05
-1.92967e-06
4.27474e-05
-1.75325e-06
3.74852e-05
-1.55142e-06
3.28132e-05
-1.33085e-06
2.8615e-05
-1.09791e-06
2.48645e-05
-8.54795e-07
2.14488e-05
-6.01998e-07
1.83825e-05
-3.31422e-07
1.5644e-05
-6.27962e-08
1.26688e-05
3.49344e-08
3.2989e-05
8.74582e-08
3.6707e-05
8.80433e-08
4.08496e-05
4.77369e-08
4.54604e-05
-3.35364e-08
5.05953e-05
-1.56847e-07
5.63131e-05
-3.24327e-07
6.26854e-05
-5.35349e-07
6.97942e-05
-7.86408e-07
7.65083e-05
-1.06934e-06
7.66288e-05
-1.37678e-06
7.67916e-05
-1.69379e-06
7.70087e-05
-2.00182e-06
7.72828e-05
-2.27812e-06
7.76266e-05
-2.49872e-06
7.80416e-05
-2.63861e-06
8.27995e-05
-2.64972e-06
7.26322e-05
-2.59877e-06
6.37565e-05
-2.49237e-06
5.59875e-05
-2.3386e-06
4.91418e-05
-2.14621e-06
4.31404e-05
-1.92406e-06
3.78579e-05
-1.68017e-06
3.31626e-05
-1.42201e-06
2.89391e-05
-1.15427e-06
2.5164e-05
-8.78184e-07
2.1725e-05
-5.98406e-07
1.86495e-05
-3.06767e-07
1.5888e-05
-5.75497e-08
1.27263e-05
3.24415e-08
2.96505e-05
8.12074e-08
3.29952e-05
7.93483e-08
3.67157e-05
3.79498e-08
4.08594e-05
-4.4548e-08
4.54714e-05
-1.69489e-07
5.06079e-05
-3.40026e-07
5.63288e-05
-5.57315e-07
6.27074e-05
-8.20513e-07
6.98283e-05
-1.12438e-06
7.65634e-05
-1.45799e-06
7.671e-05
-1.81023e-06
7.69081e-05
-2.1633e-06
7.71702e-05
-2.49445e-06
7.74991e-05
-2.77916e-06
7.7907e-05
-2.99111e-06
7.83941e-05
-3.10405e-06
8.32539e-05
-3.0685e-06
7.31019e-05
-2.96476e-06
6.42289e-05
-2.80323e-06
5.64521e-05
-2.5946e-06
4.95902e-05
-2.35031e-06
4.35666e-05
-2.08028e-06
3.8258e-05
-1.79346e-06
3.3534e-05
-1.49645e-06
2.92812e-05
-1.19309e-06
2.54789e-05
-8.89595e-07
2.20162e-05
-5.89698e-07
1.89324e-05
-2.93256e-07
1.61237e-05
-6.20141e-08
1.27883e-05
3.03268e-08
2.66501e-05
7.59391e-08
2.96558e-05
7.20426e-08
3.30025e-05
2.99361e-08
3.67237e-05
-5.31562e-08
4.0868e-05
-1.78788e-07
4.54807e-05
-3.50811e-07
5.06187e-05
-5.71717e-07
5.63432e-05
-8.42737e-07
6.27296e-05
-1.16179e-06
6.98657e-05
-1.52144e-06
7.66268e-05
-1.90597e-06
7.68057e-05
-2.30149e-06
7.70463e-05
-2.68561e-06
7.73614e-05
-3.0335e-06
7.77535e-05
-3.31768e-06
7.82336e-05
-3.50982e-06
7.87998e-05
-3.58523e-06
8.37706e-05
-3.49247e-06
7.36296e-05
-3.32757e-06
6.47532e-05
-3.1043e-06
5.69618e-05
-2.83671e-06
5.00766e-05
-2.53776e-06
4.40241e-05
-2.21864e-06
3.86832e-05
-1.88809e-06
3.39256e-05
-1.55209e-06
2.96403e-05
-1.21817e-06
2.58075e-05
-8.94559e-07
2.23211e-05
-5.83116e-07
1.92222e-05
-2.90015e-07
1.63517e-05
-8.49708e-08
1.28733e-05
2.85203e-08
2.39558e-05
7.14779e-08
2.66546e-05
6.58895e-08
2.96619e-05
2.33433e-08
3.30091e-05
-5.98731e-08
3.67304e-05
-1.855e-07
4.08747e-05
-3.57838e-07
4.54878e-05
-5.80352e-07
5.06273e-05
-8.5586e-07
5.63563e-05
-1.18475e-06
6.27526e-05
-1.56336e-06
6.99077e-05
-1.97995e-06
7.67008e-05
-2.41475e-06
7.6919e-05
-2.84921e-06
7.72099e-05
-3.25859e-06
7.75865e-05
-3.61442e-06
7.80502e-05
-3.88661e-06
7.86104e-05
-4.04779e-06
7.92624e-05
-4.07419e-06
8.43523e-05
-3.91428e-06
7.42164e-05
-3.68019e-06
6.53291e-05
-3.39006e-06
5.75152e-05
-3.06003e-06
5.05989e-05
-2.70488e-06
4.45103e-05
-2.33616e-06
3.91312e-05
-1.9623e-06
3.43359e-05
-1.59177e-06
3.00139e-05
-1.23464e-06
2.61476e-05
-8.97994e-07
2.26359e-05
-5.80431e-07
1.95127e-05
-3.58353e-07
1.66251e-05
-9.3684e-08
1.2967e-05
2.6968e-08
2.15336e-05
6.76795e-08
2.39596e-05
6.06903e-08
2.66598e-05
1.78968e-08
2.96674e-05
-6.51069e-08
3.30143e-05
-1.90225e-07
3.67352e-05
-3.62022e-07
4.08789e-05
-5.84654e-07
4.54921e-05
-8.62121e-07
5.06336e-05
-1.19671e-06
5.63683e-05
-1.58772e-06
6.27769e-05
-2.02782e-06
6.99555e-05
-2.50173e-06
7.67878e-05
-2.98324e-06
7.7053e-05
-3.45159e-06
7.74029e-05
-3.87772e-06
7.78498e-05
-4.22999e-06
7.83936e-05
-4.47859e-06
7.90412e-05
-4.59645e-06
7.97847e-05
-4.56267e-06
8.50007e-05
-4.32583e-06
7.4862e-05
-4.01619e-06
6.59552e-05
-3.65485e-06
5.811e-05
-3.26042e-06
5.11544e-05
-2.84866e-06
4.50228e-05
-2.43117e-06
3.96001e-05
-2.01805e-06
3.47621e-05
-1.61992e-06
3.03991e-05
-1.24643e-06
2.6496e-05
-9.00597e-07
2.29561e-05
-7.14477e-07
1.98688e-05
-3.58233e-07
1.68896e-05
-1.02854e-07
1.30698e-05
2.56277e-08
1.93533e-05
6.4428e-08
2.15368e-05
5.62788e-08
2.3964e-05
1.33814e-08
2.66643e-05
-6.91781e-08
2.96714e-05
-1.93433e-07
3.30176e-05
-3.64082e-07
3.67372e-05
-5.85752e-07
4.088e-05
-8.633e-07
4.54932e-05
-1.20043e-06
5.06373e-05
-1.59875e-06
5.63793e-05
-2.05445e-06
6.28036e-05
-2.55731e-06
7.00111e-05
-3.086e-06
7.68905e-05
-3.61003e-06
7.72114e-05
-4.10425e-06
7.76294e-05
-4.5358e-06
7.81556e-05
-4.87268e-06
7.87877e-05
-5.08457e-06
7.95293e-05
-5.14676e-06
8.03688e-05
-5.04144e-06
8.57163e-05
-4.71978e-06
7.55656e-05
-4.3291e-06
6.66295e-05
-3.89395e-06
5.87435e-05
-3.43461e-06
5.17403e-05
-2.96732e-06
4.5559e-05
-2.50483e-06
4.00869e-05
-2.05887e-06
3.52011e-05
-1.63968e-06
3.07924e-05
-1.25404e-06
2.68494e-05
-1.11254e-06
2.33542e-05
-7.06395e-07
2.02169e-05
-3.58121e-07
1.71449e-05
-1.10011e-07
1.31798e-05
1.73972e-05
2.44671e-08
6.16319e-08
1.93561e-05
5.25193e-08
2.15406e-05
9.62868e-09
2.39678e-05
-7.23382e-08
2.66675e-05
-1.95492e-07
2.96735e-05
-3.64578e-07
3.3018e-05
-5.84528e-07
3.6736e-05
-8.60794e-07
4.08775e-05
-1.19812e-06
4.54909e-05
-1.59987e-06
5.06384e-05
-2.06498e-06
5.63898e-05
-2.58735e-06
6.28336e-05
-3.15138e-06
7.00765e-05
-3.7318e-06
7.70123e-05
-4.29101e-06
7.73982e-05
-4.80013e-06
7.78937e-05
-5.22529e-06
7.85082e-05
-5.53307e-06
7.92362e-05
-5.69488e-06
8.00774e-05
-5.68855e-06
8.10159e-05
-5.50217e-06
8.64987e-05
-5.08867e-06
7.63252e-05
-4.61345e-06
6.7349e-05
-4.10366e-06
5.94126e-05
-3.58053e-06
5.23536e-05
-3.0613e-06
4.61155e-05
-2.55981e-06
4.05878e-05
-2.08725e-06
3.56486e-05
-1.65166e-06
3.119e-05
-1.55228e-06
2.72892e-05
-1.09969e-06
2.37475e-05
-6.9568e-07
2.05545e-05
-3.55975e-07
1.73909e-05
-1.14674e-07
1.32945e-05
1.73996e-05
5.92102e-08
2.78119e-05
2.25534e-08
4.93023e-08
1.93594e-05
6.50322e-09
2.15437e-05
-7.47835e-08
2.39702e-05
-1.96688e-07
2.66686e-05
-3.63944e-07
2.96729e-05
-5.81664e-07
3.30152e-05
-8.55693e-07
3.67309e-05
-1.19151e-06
4.08709e-05
-1.59377e-06
4.54848e-05
-2.06357e-06
5.0637e-05
-2.59803e-06
5.64005e-05
-3.1863e-06
6.28685e-05
-3.8095e-06
7.01542e-05
-4.43541e-06
7.71567e-05
-5.01941e-06
7.76175e-05
-5.53187e-06
7.82003e-05
-5.93655e-06
7.89117e-05
-6.20103e-06
7.97423e-05
-6.29859e-06
8.06875e-05
-6.21264e-06
8.17263e-05
-5.93627e-06
8.73463e-05
-5.42613e-06
7.71378e-05
-4.86491e-06
6.81102e-05
-4.28141e-06
6.01135e-05
-3.69794e-06
5.29902e-05
-3.13242e-06
4.66881e-05
-2.59799e-06
4.10986e-05
-2.10391e-06
3.61009e-05
-2.0457e-06
3.16834e-05
-1.53563e-06
2.77251e-05
-1.07994e-06
2.41317e-05
-6.8129e-07
2.08798e-05
-3.50967e-07
1.76272e-05
-1.16915e-07
1.34114e-05
1.74023e-05
4.65429e-08
2.78159e-05
5.51834e-08
2.85518e-05
2.07272e-08
3.89328e-09
1.9362e-05
-7.66673e-08
2.15456e-05
-1.97242e-07
2.39708e-05
-3.62517e-07
2.66672e-05
-5.77685e-07
2.96689e-05
-8.48833e-07
3.30083e-05
-1.18194e-06
3.67213e-05
-1.5826e-06
4.08597e-05
-2.05351e-06
4.54748e-05
-2.59435e-06
5.06333e-05
-3.19808e-06
5.64123e-05
-3.85115e-06
6.29102e-05
-4.52838e-06
7.02472e-05
-5.19046e-06
7.73278e-05
-5.78818e-06
7.78738e-05
-6.28978e-06
7.85535e-05
-6.65918e-06
7.93698e-05
-6.865e-06
8.03087e-05
-6.8857e-06
8.13605e-05
-6.70942e-06
8.24995e-05
-6.33633e-06
8.82565e-05
-5.72702e-06
7.8e-05
-5.08023e-06
6.8909e-05
-4.42624e-06
6.08418e-05
-3.78786e-06
5.36456e-05
-3.18207e-06
4.72722e-05
-2.62019e-06
4.16148e-05
-2.60646e-06
3.66616e-05
-2.02431e-06
3.21721e-05
-1.50751e-06
2.81527e-05
-1.05352e-06
2.4504e-05
-6.62837e-07
2.11917e-05
-3.43081e-07
1.78533e-05
-1.17055e-07
1.35285e-05
1.74045e-05
1.70513e-09
2.78199e-05
4.2602e-08
2.85557e-05
5.12826e-08
2.93117e-05
1.89899e-08
-7.811e-08
1.93634e-05
-1.97325e-07
2.15457e-05
-3.6055e-07
2.39688e-05
-5.7299e-07
2.66625e-05
-8.40853e-07
2.96609e-05
-1.17044e-06
3.29968e-05
-1.56799e-06
3.67067e-05
-2.0374e-06
4.08436e-05
-2.58031e-06
4.54607e-05
-3.19268e-06
5.06279e-05
-3.86535e-06
5.64265e-05
-4.57909e-06
6.29609e-05
-5.30214e-06
7.03588e-05
-5.99036e-06
7.75299e-05
-6.58778e-06
7.81718e-05
-7.06336e-06
7.89577e-05
-7.38114e-06
7.9886e-05
-7.51432e-06
8.09374e-05
-7.44565e-06
8.20968e-05
-7.17043e-06
8.33336e-05
-6.69616e-06
8.92256e-05
-5.98721e-06
7.89069e-05
-5.25768e-06
6.97405e-05
-4.53847e-06
6.15924e-05
-3.8512e-06
5.43148e-05
-3.2111e-06
4.78631e-05
-3.24693e-06
4.22553e-05
-2.57938e-06
3.72167e-05
-1.98686e-06
3.26515e-05
-1.46917e-06
2.85683e-05
-1.02093e-06
2.48621e-05
-6.40649e-07
2.14893e-05
-3.32664e-07
1.80689e-05
-1.15467e-07
1.3644e-05
1.74056e-05
-7.92071e-08
2.7822e-05
-4.51452e-10
2.85594e-05
3.8897e-08
2.93155e-05
4.75255e-08
3.00896e-05
1.73425e-08
-1.97069e-07
1.93632e-05
-3.58239e-07
2.15433e-05
-5.67878e-07
2.39637e-05
-8.32235e-07
2.66539e-05
-1.15778e-06
2.96482e-05
-1.5512e-06
3.298e-05
-2.01725e-06
3.66866e-05
-2.55902e-06
4.08223e-05
-3.17486e-06
4.54429e-05
-3.85911e-06
5.06217e-05
-4.59747e-06
5.64449e-05
-5.36472e-06
6.30235e-05
-6.1247e-06
7.04932e-05
-6.8259e-06
7.77681e-05
-7.40781e-06
7.85163e-05
-7.84031e-06
7.94169e-05
-8.09127e-06
8.04629e-05
-8.13756e-06
8.16293e-05
-7.969e-06
8.28953e-05
-7.58846e-06
8.42259e-05
-7.01054e-06
9.0249e-05
-6.2041e-06
7.98534e-05
-5.39689e-06
7.05989e-05
-4.61854e-06
6.23597e-05
-3.88884e-06
5.49925e-05
-3.9807e-06
4.85968e-05
-3.21362e-06
4.28895e-05
-2.53129e-06
3.77611e-05
-1.93553e-06
3.31178e-05
-1.42202e-06
2.89694e-05
-9.83159e-07
2.52046e-05
-6.15374e-07
2.1772e-05
-3.20206e-07
1.82737e-05
-1.12537e-07
1.37565e-05
1.74051e-05
-1.96576e-07
2.78209e-05
-7.80423e-08
2.85613e-05
-2.33991e-09
2.9319e-05
3.54155e-08
3.00933e-05
4.39148e-08
3.08896e-05
1.57851e-08
-3.55729e-07
1.93606e-05
-5.62574e-07
2.1538e-05
-8.23337e-07
2.39548e-05
-1.14457e-06
2.66407e-05
-1.5332e-06
2.96302e-05
-1.99459e-06
3.29574e-05
-2.53294e-06
3.66605e-05
-3.14837e-06
4.07958e-05
-3.83803e-06
4.54218e-05
-4.59165e-06
5.06159e-05
-5.38954e-06
5.64697e-05
-6.20254e-06
6.31013e-05
-6.98736e-06
7.06546e-05
-7.68699e-06
7.80473e-05
-8.2359e-06
7.89118e-05
-8.60912e-06
7.99347e-05
-8.7774e-06
8.11028e-05
-8.72436e-06
8.23846e-05
-8.44749e-06
8.37544e-05
-7.95724e-06
8.51726e-05
-7.27587e-06
9.13207e-05
-6.37657e-06
8.0833e-05
-5.49783e-06
7.14782e-05
-4.66728e-06
6.31382e-05
-4.8235e-06
5.58353e-05
-3.94103e-06
4.93242e-05
-3.15379e-06
4.3512e-05
-2.46534e-06
3.8291e-05
-1.87254e-06
3.35683e-05
-1.36777e-06
2.9354e-05
-9.41368e-07
2.55306e-05
-5.8779e-07
2.20396e-05
-3.06227e-07
1.84674e-05
-1.08617e-07
1.38651e-05
1.74025e-05
-3.53129e-07
2.78149e-05
-1.90566e-07
2.85598e-05
-7.65023e-08
2.93206e-05
-3.94787e-09
3.00965e-05
3.21626e-08
3.0893e-05
4.04576e-08
3.17095e-05
1.43164e-08
-5.57241e-07
1.93553e-05
-8.1442e-07
2.15291e-05
-1.13121e-06
2.39414e-05
-1.51469e-06
2.66222e-05
-1.9706e-06
2.96062e-05
-2.50391e-06
3.29284e-05
-3.11614e-06
3.66282e-05
-3.80657e-06
4.07644e-05
-4.56821e-06
4.53984e-05
-5.38592e-06
5.06122e-05
-6.23661e-06
5.65037e-05
-7.08438e-06
6.31983e-05
-7.88045e-06
7.08481e-05
-8.56142e-06
7.83728e-05
-9.0604e-06
7.93631e-05
-9.35706e-06
8.05144e-05
-9.42835e-06
8.18067e-05
-9.2655e-06
8.32026e-05
-8.87383e-06
8.46709e-05
-8.2722e-06
8.61689e-05
-7.49018e-06
9.24344e-05
-6.50403e-06
8.18392e-05
-5.56116e-06
7.23721e-05
-5.79335e-06
6.4108e-05
-4.7778e-06
5.66721e-05
-3.86853e-06
5.0039e-05
-3.07154e-06
4.41182e-05
-2.38458e-06
3.8803e-05
-1.8003e-06
3.40009e-05
-1.3082e-06
2.97209e-05
-8.96767e-07
2.58395e-05
-5.58653e-07
2.2292e-05
-2.91229e-07
1.865e-05
-1.04011e-07
1.39691e-05
1.73973e-05
-5.51997e-07
2.78023e-05
-3.40557e-07
2.85533e-05
-1.84062e-07
2.93187e-05
-7.46003e-08
3.00978e-05
-5.27513e-09
3.0896e-05
2.91356e-08
3.17128e-05
3.71594e-08
3.25534e-05
1.29387e-08
-8.05674e-07
1.93466e-05
-1.11803e-06
2.15159e-05
-1.49619e-06
2.39229e-05
-1.94613e-06
2.65977e-05
-2.47336e-06
2.95757e-05
-3.08039e-06
3.28926e-05
-3.76819e-06
3.65899e-05
-4.53234e-06
4.07285e-05
-5.36146e-06
4.53739e-05
-6.23752e-06
5.06132e-05
-7.13112e-06
5.65505e-05
-8.00111e-06
6.3319e-05
-8.79209e-06
7.10788e-05
-9.4376e-06
7.875e-05
-9.86819e-06
7.98743e-05
-1.00723e-05
8.11583e-05
-1.0034e-05
8.25753e-05
-9.75262e-06
8.40814e-05
-9.24246e-06
8.56412e-05
-8.53057e-06
8.72093e-05
-7.65224e-06
9.35826e-05
-6.58693e-06
8.2865e-05
-6.90963e-06
7.34884e-05
-5.74261e-06
6.50728e-05
-4.69194e-06
5.74955e-05
-3.76831e-06
5.07358e-05
-2.97085e-06
4.47045e-05
-2.2922e-06
3.92949e-05
-1.72123e-06
3.44139e-05
-1.24503e-06
3.00691e-05
-8.50438e-07
2.61313e-05
-5.28659e-07
2.25294e-05
-2.75663e-07
1.88216e-05
-9.89515e-08
1.40681e-05
1.73888e-05
-7.97228e-07
2.77812e-05
-5.30937e-07
2.854e-05
-3.27306e-07
2.93116e-05
-1.77025e-07
3.00955e-05
-7.23078e-08
3.08971e-05
-6.3224e-09
3.17156e-05
2.63328e-08
3.25565e-05
3.40183e-08
3.34193e-05
1.16487e-08
-1.10525e-06
1.93338e-05
-1.47808e-06
2.14978e-05
-1.92182e-06
2.38986e-05
-2.44232e-06
2.65667e-05
-3.04284e-06
2.95381e-05
-3.72557e-06
3.285e-05
-4.48815e-06
3.65457e-05
-5.32219e-06
4.06892e-05
-6.2139e-06
4.53503e-05
-7.13945e-06
5.06215e-05
-8.06451e-06
5.66139e-05
-8.94133e-06
6.34682e-05
-9.71098e-06
7.13521e-05
-1.03022e-05
7.9184e-05
-1.06469e-05
8.04489e-05
-1.07438e-05
8.1868e-05
-1.0585e-05
8.34076e-05
-1.01791e-05
8.50181e-05
-9.54973e-06
8.66604e-05
-8.73047e-06
8.82875e-05
-7.76211e-06
9.47577e-05
-8.19469e-06
8.41501e-05
-6.85591e-06
7.46016e-05
-5.64311e-06
6.6024e-05
-4.57216e-06
5.82993e-05
-3.64541e-06
5.14103e-05
-2.8558e-06
4.52681e-05
-2.19131e-06
3.9765e-05
-1.63764e-06
3.48065e-05
-1.17979e-06
3.03985e-05
-8.03351e-07
2.6406e-05
-4.98433e-07
2.27522e-05
-2.59868e-07
1.89825e-05
-9.36435e-08
1.41617e-05
1.73766e-05
-1.09302e-06
2.77494e-05
-7.65426e-07
2.85181e-05
-5.09032e-07
2.92978e-05
-3.13429e-07
3.0088e-05
-1.69526e-07
3.08944e-05
-6.9644e-08
3.17163e-05
-7.08693e-09
3.25591e-05
2.3756e-08
3.34223e-05
3.10408e-08
3.43052e-05
1.04452e-08
-1.46062e-06
1.93163e-05
-1.89812e-06
2.14741e-05
-2.41157e-06
2.38679e-05
-3.00473e-06
2.65286e-05
-3.68074e-06
2.94933e-05
-4.43877e-06
3.28006e-05
-5.27287e-06
3.64963e-05
-6.17269e-06
4.0648e-05
-7.1191e-06
4.533e-05
-8.08376e-06
5.06407e-05
-9.02594e-06
5.66985e-05
-9.89414e-06
6.36514e-05
-1.06239e-05
7.16738e-05
-1.11426e-05
7.96798e-05
-1.13848e-05
8.109e-05
-1.13612e-05
8.26443e-05
-1.10736e-05
8.43021e-05
-1.05405e-05
8.60089e-05
-9.79294e-06
8.77228e-05
-8.87144e-06
8.93969e-05
-9.67375e-06
9.62368e-05
-8.14201e-06
8.54362e-05
-6.74328e-06
7.57018e-05
-5.50229e-06
6.69541e-05
-4.42459e-06
5.90785e-05
-3.50486e-06
5.20594e-05
-2.73026e-06
4.58071e-05
-2.08481e-06
4.02121e-05
-1.5515e-06
3.51782e-05
-1.11378e-06
3.07089e-05
-7.56353e-07
2.66639e-05
-4.68417e-07
2.29607e-05
-2.44154e-07
1.91331e-05
-8.82408e-08
1.425e-05
1.736e-05
-1.44398e-06
2.77046e-05
-1.04816e-06
2.84853e-05
-7.32565e-07
2.9275e-05
-4.86247e-07
3.00735e-05
-2.98874e-07
3.08864e-05
-1.61524e-07
3.17133e-05
-6.6609e-08
3.25596e-05
-7.5773e-09
3.34246e-05
2.14007e-08
3.4308e-05
2.8225e-08
3.52191e-05
9.32733e-09
-1.87533e-06
1.92935e-05
-2.38164e-06
2.14442e-05
-2.967e-06
2.38301e-05
-3.63521e-06
2.6483e-05
-4.38663e-06
2.94412e-05
-5.21721e-06
3.2745e-05
-6.11939e-06
3.64431e-05
-7.07797e-06
4.06069e-05
-8.06973e-06
4.53159e-05
-9.06021e-06
5.0675e-05
-1.0005e-05
5.68093e-05
-1.08465e-05
6.3874e-05
-1.1518e-05
7.20491e-05
-1.19467e-05
8.02416e-05
-1.20709e-05
8.17996e-05
-1.1916e-05
8.34867e-05
-1.14944e-05
8.5256e-05
-1.0833e-05
8.70489e-05
-9.97099e-06
8.88224e-05
-1.10779e-05
9.0801e-05
-9.62984e-06
9.77246e-05
-8.01862e-06
8.67115e-05
-6.58057e-06
7.67801e-05
-5.32757e-06
6.78571e-05
-4.25541e-06
5.98291e-05
-3.35143e-06
5.26806e-05
-2.59781e-06
4.63201e-05
-1.97517e-06
4.06358e-05
-1.4645e-06
3.55289e-05
-1.04813e-06
3.10007e-05
-7.10029e-07
2.69056e-05
-4.39028e-07
2.31556e-05
-2.2875e-07
1.92736e-05
-8.28538e-08
1.43328e-05
1.73383e-05
-1.85367e-06
2.76437e-05
-1.38315e-06
2.84391e-05
-1.00199e-06
2.92411e-05
-6.98719e-07
3.00499e-05
-4.62647e-07
3.08713e-05
-2.83707e-07
3.17048e-05
-1.53052e-07
3.25562e-05
-6.32218e-08
3.34248e-05
-7.79565e-09
3.43102e-05
1.92614e-08
3.52218e-05
2.55678e-08
3.6155e-05
8.29168e-09
-2.35291e-06
1.92648e-05
-2.9303e-06
2.14075e-05
-3.59008e-06
2.3785e-05
-4.33353e-06
2.64299e-05
-5.15804e-06
2.9382e-05
-6.0583e-06
3.26839e-05
-7.02234e-06
3.63874e-05
-8.03126e-06
4.05684e-05
-9.05613e-06
4.53118e-05
-1.00589e-05
5.0729e-05
-1.0989e-05
5.69518e-05
-1.17858e-05
6.41419e-05
-1.23809e-05
7.24833e-05
-1.27024e-05
8.08731e-05
-1.26954e-05
8.2579e-05
-1.24016e-05
8.4394e-05
-1.18427e-05
8.62657e-05
-1.10549e-05
8.81328e-05
-1.24788e-05
9.02233e-05
-1.10509e-05
9.2222e-05
-9.50103e-06
9.9207e-05
-7.8348e-06
8.79657e-05
-6.37668e-06
7.78292e-05
-5.12644e-06
6.87281e-05
-4.0704e-06
6.0548e-05
-3.18948e-06
5.32722e-05
-2.4615e-06
4.68064e-05
-1.86452e-06
4.10358e-05
-1.37809e-06
3.58589e-05
-9.83595e-07
3.12742e-05
-6.64927e-07
2.71315e-05
-4.10566e-07
2.33374e-05
-2.13807e-07
1.94045e-05
-7.75711e-08
1.44104e-05
1.7311e-05
-2.32564e-06
2.75639e-05
-1.77383e-06
2.83765e-05
-1.3206e-06
2.91935e-05
-9.54334e-07
3.00149e-05
-6.63717e-07
3.08468e-05
-4.38226e-07
3.16891e-05
-2.67951e-07
3.25473e-05
-1.44123e-07
3.34211e-05
-5.94894e-08
3.43101e-05
-7.74519e-09
3.52237e-05
1.73309e-08
3.61575e-05
2.30674e-08
3.65889e-05
7.34739e-09
-2.89508e-06
1.92296e-05
-3.54616e-06
2.13636e-05
-4.28078e-06
2.37323e-05
-5.09748e-06
2.63694e-05
-5.99272e-06
2.93164e-05
-6.95714e-06
3.26187e-05
-7.97548e-06
3.63316e-05
-9.02352e-06
4.05358e-05
-1.0069e-05
4.53219e-05
-1.10678e-05
5.08077e-05
-1.19656e-05
5.71316e-05
-1.26995e-05
6.44604e-05
-1.32002e-05
7.29811e-05
-1.33994e-05
8.15771e-05
-1.32509e-05
8.34283e-05
-1.28124e-05
8.53637e-05
-1.21158e-05
8.73266e-05
-1.38705e-05
8.95246e-05
-1.24788e-05
9.16512e-05
-1.09253e-05
9.36463e-05
-9.29908e-06
0.000100671
-7.60084e-06
8.91899e-05
-6.14054e-06
7.88433e-05
-4.90584e-06
6.95635e-05
-3.87486e-06
6.12334e-05
-3.02273e-06
5.38335e-05
-2.32394e-06
4.72658e-05
-1.75468e-06
4.14124e-05
-1.29324e-06
3.61685e-05
-9.20905e-07
3.15302e-05
-6.21435e-07
2.73423e-05
-3.83208e-07
2.35068e-05
-1.99449e-07
1.95264e-05
-7.24596e-08
1.44828e-05
1.72776e-05
-2.86165e-06
2.74618e-05
-2.22349e-06
2.8295e-05
-1.69226e-06
2.91295e-05
-1.25659e-06
2.99661e-05
-9.05497e-07
3.08109e-05
-6.27816e-07
3.16639e-05
-4.13045e-07
3.25309e-05
-2.51587e-07
3.34117e-05
-1.34761e-07
3.4306e-05
-5.54283e-08
3.52234e-05
-7.42941e-09
3.61593e-05
1.55993e-08
3.65913e-05
2.07529e-08
3.55528e-05
6.51695e-09
-3.50398e-06
1.91874e-05
-4.22934e-06
2.13121e-05
-5.03713e-06
2.36719e-05
-5.92516e-06
2.63018e-05
-6.88621e-06
2.92455e-05
-7.908e-06
3.25512e-05
-8.97035e-06
3.62785e-05
-1.0046e-05
4.05128e-05
-1.10968e-05
4.53509e-05
-1.20746e-05
5.09167e-05
-1.29223e-05
5.73545e-05
-1.35749e-05
6.48351e-05
-1.39649e-05
7.35466e-05
-1.40293e-05
8.23555e-05
-1.37308e-05
8.43467e-05
-1.31447e-05
8.63925e-05
-1.52454e-05
8.87015e-05
-1.39096e-05
9.09553e-05
-1.23665e-05
9.30924e-05
-1.0714e-05
9.50612e-05
-9.03588e-06
0.000102106
-7.32719e-06
9.03765e-05
-5.88048e-06
7.9818e-05
-4.67222e-06
7.03609e-05
-3.67333e-06
6.1884e-05
-2.85439e-06
5.43639e-05
-2.18738e-06
4.76985e-05
-1.64686e-06
4.1766e-05
-1.21088e-06
3.64585e-05
-8.60556e-07
3.17693e-05
-5.79774e-07
2.75389e-05
-3.57104e-07
2.36645e-05
-1.85768e-07
1.96397e-05
-6.75618e-08
1.45504e-05
1.72375e-05
-3.46392e-06
2.73346e-05
-2.73449e-06
2.81909e-05
-2.11942e-06
2.90458e-05
-1.60863e-06
2.99005e-05
-1.19107e-06
3.07609e-05
-8.5543e-07
3.1627e-05
-5.90961e-07
3.25051e-05
-3.87213e-07
3.33949e-05
-2.34731e-07
3.42963e-05
-1.25017e-07
3.5219e-05
-5.10606e-08
3.61587e-05
-6.8516e-09
3.65928e-05
1.40763e-08
3.55549e-05
1.87002e-08
3.45447e-05
5.78432e-09
-4.17989e-06
1.9138e-05
-4.97812e-06
2.12531e-05
-5.8575e-06
2.36042e-05
-6.81249e-06
2.62281e-05