/*--------------------------------*- C++ -*----------------------------------*\
  =========                 |
  \\      /  F ield         | OpenFOAM: The Open Source CFD Toolbox
   \\    /   O peration     | Website:  https://openfoam.org
    \\  /    A nd           | Version:  8
     \\/     M anipulation  |
\*---------------------------------------------------------------------------*/
FoamFile
{
    version     2.0;
    format      ascii;
    class       volVectorField;
    location    "0.12";
    object      U;
}
// * * * * * * * * * * * * * * * * * * * * * * * * * * * * * * * * * * * * * //

dimensions      [0 1 -1 0 0 0 0];

internalField   nonuniform List<vector> 
15677
(
(-0.0199316 9.66506 0)
(0.0435766 9.92084 0)
(0.00238397 9.37796 0)
(0.0147408 9.97646 0)
(0.0186182 9.78771 0)
(0.00702354 9.14216 0)
(0.0279664 9.99433 0)
(0.0171176 9.92476 0)
(0.010742 9.6548 0)
(0.00608978 8.95968 0)
(0.0261151 10.0015 0)
(0.0215175 9.9785 0)
(0.0164108 9.85325 0)
(0.00903311 9.52996 0)
(0.00491848 8.81612 0)
(0.0249628 10.0047 0)
(0.0223954 10.0026 0)
(0.0192067 9.94275 0)
(0.015397 9.77894 0)
(0.0079038 9.41883 0)
(0.00405223 8.70123 0)
(0.0239878 10.0062 0)
(0.0225764 10.0142 0)
(0.0208269 9.98595 0)
(0.0183202 9.90204 0)
(0.0139377 9.70729 0)
(0.00683932 9.32039 0)
(0.00338912 8.60845 0)
(0.0226481 10.0067 0)
(0.0224215 10.0199 0)
(0.0216641 10.008 0)
(0.0202343 9.96464 0)
(0.0171042 9.86128 0)
(0.0125217 9.63981 0)
(0.00590113 9.2347 0)
(0.00283624 8.53379 0)
(0.0209648 10.0066 0)
(0.0218879 10.0223 0)
(0.0220009 10.0194 0)
(0.0213414 9.99779 0)
(0.0191654 9.94316 0)
(0.0157398 9.82142 0)
(0.0111771 9.57809 0)
(0.00503772 9.16178 0)
(0.00232985 8.47445 0)
(0.01905 10.0063 0)
(0.0210572 10.0226 0)
(0.0219101 10.0253 0)
(0.0218597 10.0159 0)
(0.0203625 9.98765 0)
(0.0178317 9.922 0)
(0.0142986 9.78397 0)
(0.00981278 9.52352 0)
(0.00419245 9.10137 0)
(0.00183232 8.42893 0)
(0.0169802 10.0057 0)
(0.0200079 10.0217 0)
(0.0214732 10.0283 0)
(0.0219107 10.026 0)
(0.0209389 10.0126 0)
(0.0190158 9.97786 0)
(0.0163259 9.90232 0)
(0.0127152 9.75036 0)
(0.00836723 9.47707 0)
(0.00332122 9.05322 0)
(0.00131558 8.39617 0)
(0.0147688 10.0051 0)
(0.0187207 10.0202 0)
(0.0207337 10.029 0)
(0.0216159 10.0314 0)
(0.0210207 10.0269 0)
(0.0195181 10.0097 0)
(0.0173997 9.96938 0)
(0.0145685 9.8853 0)
(0.0109279 9.72176 0)
(0.00679363 9.43945 0)
(0.00238475 9.01722 0)
(0.000757413 8.37587 0)
(0.0124582 10.0044 0)
(0.0173088 10.0183 0)
(0.0196971 10.0284 0)
(0.0209792 10.0338 0)
(0.020667 10.0349 0)
(0.0194899 10.0282 0)
(0.0177328 10.008 0)
(0.0154231 9.96323 0)
(0.012483 9.87194 0)
(0.00888046 9.69915 0)
(0.00504396 9.41137 0)
(0.00135095 8.99339 0)
(0.000129583 8.36774 0)
(0.0101843 10.0036 0)
(0.0158255 10.016 0)
(0.0184113 10.0267 0)
(0.0200257 10.0342 0)
(0.0199914 10.0391 0)
(0.0190155 10.0389 0)
(0.0174858 10.0307 0)
(0.015474 10.0085 0)
(0.0129955 9.96029 0)
(0.00999757 9.86315 0)
(0.00651239 9.68356 0)
(0.00307365 9.39343 0)
(0.000204924 8.98183 0)
(-0.000490123 8.37175 0)
(0.00823202 10.0029 0)
(0.0142357 10.0136 0)
(0.0169228 10.0243 0)
(0.018768 10.0332 0)
(0.0189768 10.0406 0)
(0.018156 10.0449 0)
(0.0167513 10.0441 0)
(0.0148826 10.0354 0)
(0.0126329 10.0121 0)
(0.0100257 9.96136 0)
(0.00703463 9.85992 0)
(0.00376462 9.67591 0)
(0.000835982 9.38622 0)
(-0.00109634 8.9828 0)
(-0.00123525 8.38792 0)
(0.00669623 10.0022 0)
(0.0127026 10.0113 0)
(0.0152638 10.0215 0)
(0.0172186 10.0311 0)
(0.0176311 10.0403 0)
(0.0169231 10.0476 0)
(0.0155758 10.0518 0)
(0.0137432 10.0514 0)
(0.0115528 10.0429 0)
(0.00909842 10.0194 0)
(0.00641432 9.96733 0)
(0.00351698 9.86317 0)
(0.000578099 9.67712 0)
(-0.00170701 9.3903 0)
(-0.00256857 8.99641 0)
(-0.00207074 8.41648 0)
(0.00554095 10.0017 0)
(0.0113023 10.0093 0)
(0.0136367 10.0187 0)
(0.0154047 10.0283 0)
(0.0159595 10.0386 0)
(0.0153233 10.048 0)
(0.013977 10.0557 0)
(0.0120995 10.0607 0)
(0.00984732 10.0614 0)
(0.00736303 10.054 0)
(0.00474783 10.0313 0)
(0.00206485 9.97907 0)
(-0.000609922 9.87386 0)
(-0.00306898 9.68798 0)
(-0.00455238 9.40617 0)
(-0.00421113 9.02287 0)
(-0.00299415 8.45743 0)
(0.00457762 10.0014 0)
(0.0099359 10.0076 0)
(0.0121543 10.0163 0)
(0.0135664 10.0254 0)
(0.0139756 10.0358 0)
(0.0133596 10.0467 0)
(0.0119591 10.0568 0)
(0.00996681 10.0656 0)
(0.00755656 10.0723 0)
(0.0049059 10.0748 0)
(0.00216671 10.0695 0)
(-0.000542382 10.0486 0)
(-0.00312432 9.99744 0)
(-0.00545423 9.89284 0)
(-0.00723542 9.70922 0)
(-0.00775102 9.43419 0)
(-0.00603202 9.06218 0)
(-0.00400306 8.51077 0)
(0.00379533 10.0011 0)
(0.00871053 10.0063 0)
(0.0107523 10.0142 0)
(0.0118657 10.0227 0)
(0.0119279 10.0326 0)
(0.0110416 10.044 0)
(0.00952252 10.0559 0)
(0.00734626 10.0674 0)
(0.0046906 10.0781 0)
(0.00176083 10.0872 0)
(-0.00125674 10.0925 0)
(-0.00419494 10.0902 0)
(-0.00689914 10.0721 0)
(-0.00923562 10.0233 0)
(-0.0110372 9.92093 0)
(-0.0119544 9.74142 0)
(-0.0113137 9.47458 0)
(-0.00803555 9.1144 0)
(-0.0050949 8.5763 0)
(0.0031579 10.0009 0)
(0.00760585 10.0053 0)
(0.00946622 10.0123 0)
(0.0102656 10.0202 0)
(0.0100068 10.0295 0)
(0.00864947 10.0406 0)
(0.00667564 10.0533 0)
(0.00423629 10.0668 0)
(0.00124537 10.0804 0)
(-0.00207023 10.0939 0)
(-0.00549877 10.1061 0)
(-0.00883047 10.1152 0)
(-0.0118658 10.1168 0)
(-0.0144208 10.1026 0)
(-0.0163318 10.0574 0)
(-0.0173924 9.95877 0)
(-0.0172313 9.78501 0)
(-0.0152334 9.52747 0)
(-0.0102075 9.17925 0)
(-0.00625827 8.65365 0)
(0.0026336 10.0008 0)
(0.00660842 10.0045 0)
(0.00828167 10.0107 0)
(0.00878037 10.018 0)
(0.00818827 10.0266 0)
(0.00640682 10.0372 0)
(0.00375702 10.0497 0)
(0.000645366 10.0641 0)
(-0.00277848 10.08 0)
(-0.0065959 10.0966 0)
(-0.0105636 10.1135 0)
(-0.0144403 10.1299 0)
(-0.017987 10.1436 0)
(-0.0209743 10.1501 0)
(-0.0231952 10.1408 0)
(-0.0244574 10.1004 0)
(-0.0245333 10.0069 0)
(-0.0230555 9.84023 0)
(-0.0194924 9.59274 0)
(-0.012539 9.25649 0)
(-0.0074848 8.74233 0)
(0.00221687 10.0006 0)
(0.00571151 10.0038 0)
(0.00719366 10.0094 0)
(0.00741257 10.016 0)
(0.0064917 10.024 0)
(0.00429019 10.0338 0)
(0.00103405 10.0458 0)
(-0.00300231 10.0601 0)
(-0.0073682 10.0771 0)
(-0.0118183 10.0961 0)
(-0.0164691 10.1164 0)
(-0.0210462 10.1378 0)
(-0.0252741 10.1592 0)
(-0.0288851 10.1784 0)
(-0.0316289 10.1907 0)
(-0.0332787 10.1874 0)
(-0.0336288 10.1528 0)
(-0.0324468 10.0657 0)
(-0.0293995 9.90713 0)
(-0.0240594 9.67015 0)
(-0.0149973 9.34543 0)
(-0.00875254 8.84148 0)
(0.00189689 10.0005 0)
(0.00494591 10.0032 0)
(0.00620034 10.0082 0)
(0.00616404 10.0142 0)
(0.00493 10.0215 0)
(0.00232561 10.0306 0)
(-0.00151874 10.0419 0)
(-0.00638226 10.0557 0)
(-0.0119941 10.0726 0)
(-0.0177212 10.0928 0)
(-0.0232224 10.1158 0)
(-0.0286766 10.1408 0)
(-0.0337683 10.1675 0)
(-0.0381904 10.1948 0)
(-0.0416559 10.2204 0)
(-0.0439005 10.2394 0)
(-0.0446928 10.2428 0)
(-0.0438287 10.215 0)
(-0.0410948 10.1353 0)
(-0.0362151 9.98554 0)
(-0.0288876 9.75917 0)
(-0.0175612 9.44549 0)
(-0.0100436 8.95035 0)
(0.00164866 10.0005 0)
(0.00433356 10.0028 0)
(0.00533778 10.0072 0)
(0.00503447 10.0126 0)
(0.00351089 10.0192 0)
(0.000530705 10.0275 0)
(-0.00386708 10.038 0)
(-0.00953482 10.0511 0)
(-0.0162553 10.0674 0)
(-0.023627 10.0876 0)
(-0.0308022 10.1119 0)
(-0.0373434 10.1397 0)
(-0.0435124 10.1703 0)
(-0.0489561 10.2032 0)
(-0.0533465 10.2373 0)
(-0.0563878 10.2701 0)
(-0.0578185 10.2966 0)
(-0.0574187 10.3075 0)
(-0.0550075 10.2873 0)
(-0.0504096 10.2155 0)
(-0.0434314 10.0751 0)
(-0.0339213 9.85916 0)
(-0.0201719 9.55558 0)
(-0.0113178 9.0673 0)
(0.00145248 10.0004 0)
(0.00383283 10.0025 0)
(0.00461638 10.0064 0)
(0.00406517 10.0112 0)
(0.00223818 10.0171 0)
(-0.00108078 10.0246 0)
(-0.00599008 10.0342 0)
(-0.0124146 10.0463 0)
(-0.0202061 10.0619 0)
(-0.0290382 10.0815 0)
(-0.0383424 10.1057 0)
(-0.0470199 10.135 0)
(-0.054526 10.1686 0)
(-0.0612446 10.2057 0)
(-0.066798 10.2457 0)
(-0.0708524 10.2874 0)
(-0.073121 10.3281 0)
(-0.0733637 10.3627 0)
(-0.0713952 10.3817 0)
(-0.0670764 10.3695 0)
(-0.0602953 10.3062 0)
(-0.050961 10.1751 0)
(-0.039048 9.96919 0)
(-0.0227174 9.67439 0)
(-0.0121416 9.19061 0)
(0.00129517 10.0004 0)
(0.00342517 10.0022 0)
(0.00402432 10.0058 0)
(0.00327373 10.0101 0)
(0.00116196 10.0152 0)
(-0.00250154 10.0219 0)
(-0.00786863 10.0305 0)
(-0.0149895 10.0416 0)
(-0.0237907 10.056 0)
(-0.0340294 10.0747 0)
(-0.0452228 10.0983 0)
(-0.0566067 10.1275 0)
(-0.0667775 10.1628 0)
(-0.0750874 10.2032 0)
(-0.0820996 10.2476 0)
(-0.0874308 10.2955 0)
(-0.0907612 10.3455 0)
(-0.0918357 10.3947 0)
(-0.0904636 10.4378 0)
(-0.0865153 10.4653 0)
(-0.0799146 10.4615 0)
(-0.0706298 10.4068 0)
(-0.0586571 10.2849 0)
(-0.0442122 10.088 0)
(-0.0252155 9.80163 0)
(-0.0129938 9.32028 0)
(0.00116743 10.0003 0)
(0.00308995 10.002 0)
(0.00353425 10.0052 0)
(0.00263423 10.0091 0)
(0.000303784 10.0136 0)
(-0.00367656 10.0194 0)
(-0.00949128 10.0269 0)
(-0.017235 10.0369 0)
(-0.026966 10.0501 0)
(-0.0385323 10.0675 0)
(-0.0515451 10.09 0)
(-0.0653298 10.1185 0)
(-0.0788833 10.1536 0)
(-0.0904506 10.1958 0)
(-0.0992992 10.2439 0)
(-0.106244 10.2966 0)
(-0.110922 10.3532 0)
(-0.113055 10.412 0)
(-0.112454 10.4702 0)
(-0.108996 10.5221 0)
(-0.10263 10.5582 0)
(-0.0933606 10.5629 0)
(-0.0812271 10.5167 0)
(-0.0663672 10.4034 0)
(-0.0485268 10.215 0)
(-0.0212518 9.93075 0)
(-0.00777528 9.39342 0)
(0.00106255 10.0003 0)
(0.00281251 10.0018 0)
(0.00312925 10.0048 0)
(0.0021149 10.0083 0)
(-0.000371738 10.0123 0)
(-0.00458599 10.0172 0)
(-0.0107939 10.0237 0)
(-0.0191345 10.0324 0)
(-0.0296994 10.0442 0)
(-0.0424917 10.0601 0)
(-0.0572255 10.0812 0)
(-0.0733258 10.1084 0)
(-0.0898804 10.1427 0)
(-0.105608 10.1847 0)
(-0.118362 10.2348 0)
(-0.127365 10.2916 0)
(-0.133771 10.3533 0)
(-0.137268 10.4191 0)
(-0.137655 10.4872 0)
(-0.134832 10.5545 0)
(-0.128778 10.6153 0)
(-0.119539 10.6599 0)
(-0.10719 10.6729 0)
(-0.0918784 10.6348 0)
(-0.0735126 10.5295 0)
(-0.0526821 10.3469 0)
(-0.0165475 10.09 0)
(-0.000256783 9.44612 0)
(0.000975534 10.0003 0)
(0.00258143 10.0017 0)
(0.00279011 10.0045 0)
(0.00169181 10.0076 0)
(-0.000902529 10.0111 0)
(-0.00527669 10.0154 0)
(-0.0117632 10.0208 0)
(-0.0206121 10.0281 0)
(-0.0319679 10.0384 0)
(-0.0458642 10.0526 0)
(-0.0621934 10.0719 0)
(-0.0804911 10.0974 0)
(-0.0999485 10.1303 0)
(-0.119369 10.1714 0)
(-0.137161 10.2213 0)
(-0.150767 10.2804 0)
(-0.159414 10.3467 0)
(-0.164688 10.4181 0)
(-0.166372 10.4935 0)
(-0.164386 10.5711 0)
(-0.158752 10.6476 0)
(-0.14957 10.7172 0)
(-0.136978 10.7701 0)
(-0.12114 10.7909 0)
(-0.102047 10.7603 0)
(-0.0796034 10.6621 0)
(-0.0558242 10.4917 0)
(-0.0179244 10.25 0)
(0.00418584 9.48967 0)
(0.000902649 10.0002 0)
(0.00238799 10.0015 0)
(0.00250421 10.0041 0)
(0.00134892 10.007 0)
(-0.00131942 10.0101 0)
(-0.00579541 10.0138 0)
(-0.0124622 10.0183 0)
(-0.0216631 10.0243 0)
(-0.0336799 10.0328 0)
(-0.0486181 10.0451 0)
(-0.0663922 10.0624 0)
(-0.0867367 10.0859 0)
(-0.108961 10.1168 0)
(-0.131967 10.1563 0)
(-0.154236 10.2053 0)
(-0.173859 10.2641 0)
(-0.187831 10.3331 0)
(-0.195458 10.4096 0)
(-0.198885 10.4912 0)
(-0.198045 10.5765 0)
(-0.193007 10.6636 0)
(-0.183942 10.7491 0)
(-0.171074 10.8272 0)
(-0.154637 10.8878 0)
(-0.134711 10.9159 0)
(-0.111193 10.8925 0)
(-0.0841964 10.802 0)
(-0.0565433 10.6486 0)
(-0.0209711 10.406 0)
(0.00521402 9.53221 0)
(0.000841068 10.0002 0)
(0.0022253 10.0014 0)
(0.0022648 10.0039 0)
(0.00106965 10.0065 0)
(-0.00164547 10.0093 0)
(-0.00617988 10.0124 0)
(-0.0129515 10.0162 0)
(-0.0223724 10.021 0)
(-0.0348419 10.0278 0)
(-0.0506419 10.0379 0)
(-0.0697786 10.0528 0)
(-0.091989 10.0739 0)
(-0.116804 10.1024 0)
(-0.143244 10.1397 0)
(-0.169881 10.187 0)
(-0.194856 10.2449 0)
(-0.215902 10.3137 0)
(-0.229592 10.3933 0)
(-0.235403 10.4807 0)
(-0.236173 10.5728 0)
(-0.232026 10.6681 0)
(-0.223215 10.7646 0)
(-0.210069 10.8588 0)
(-0.19294 10.9447 0)
(-0.17206 11.0125 0)
(-0.147476 11.0475 0)
(-0.119527 11.0309 0)
(-0.0883798 10.9492 0)
(-0.0575104 10.8121 0)
(-0.0232672 10.5567 0)
(0.00484011 9.58786 0)
(0.000788632 10.0002 0)
(0.00208788 10.0014 0)
(0.00206329 10.0036 0)
(0.000839764 10.0061 0)
(-0.00189999 10.0085 0)
(-0.0064601 10.0112 0)
(-0.0132796 10.0143 0)
(-0.0228196 10.0181 0)
(-0.0355674 10.0235 0)
(-0.0519554 10.0314 0)
(-0.0722146 10.0436 0)
(-0.0961898 10.0618 0)
(-0.123384 10.0875 0)
(-0.153061 10.1221 0)
(-0.183906 10.1669 0)
(-0.214129 10.2229 0)
(-0.241479 10.2909 0)
(-0.263374 10.3705 0)
(-0.275975 10.4615 0)
(-0.279051 10.5602 0)
(-0.276263 10.6629 0)
(-0.267969 10.7681 0)
(-0.25463 10.8736 0)
(-0.23674 10.9758 0)
(-0.214729 11.069 0)
(-0.188868 11.1435 0)
(-0.159605 11.1849 0)
(-0.127735 11.1749 0)
(-0.0932746 11.1029 0)
(-0.059223 10.977 0)
(-0.0256046 10.7194 0)
(0.00379285 9.65311 0)
(0.000743661 10.0002 0)
(0.00197123 10.0013 0)
(0.0018935 10.0034 0)
(0.000650381 10.0057 0)
(-0.00209854 10.0079 0)
(-0.00665994 10.0102 0)
(-0.0134851 10.0126 0)
(-0.0230685 10.0155 0)
(-0.0359613 10.0196 0)
(-0.0527092 10.0257 0)
(-0.0737356 10.0352 0)
(-0.0991662 10.05 0)
(-0.128624 10.0722 0)
(-0.161296 10.1036 0)
(-0.196137 10.1454 0)
(-0.231446 10.1987 0)
(-0.265017 10.2648 0)
(-0.294235 10.3437 0)
(-0.316232 10.4349 0)
(-0.326786 10.538 0)
(-0.326088 10.6481 0)
(-0.318766 10.7614 0)
(-0.305449 10.8761 0)
(-0.286821 10.9901 0)
(-0.263518 11.0998 0)
(-0.236077 11.1995 0)
(-0.205093 11.2802 0)
(-0.171452 11.3274 0)
(-0.136135 11.3233 0)
(-0.0988682 11.2601 0)
(-0.0621142 11.1603 0)
(-0.0281111 10.8939 0)
(0.0022292 9.72661 0)
(0.000704883 10.0002 0)
(0.00187165 10.0012 0)
(0.0017507 10.0033 0)
(0.000493219 10.0053 0)
(-0.00225309 10.0073 0)
(-0.00679826 10.0092 0)
(-0.0135985 10.0111 0)
(-0.0231695 10.0133 0)
(-0.0361073 10.0162 0)
(-0.0530405 10.0206 0)
(-0.0745389 10.0277 0)
(-0.100971 10.0392 0)
(-0.132304 10.0573 0)
(-0.167848 10.0846 0)
(-0.206416 10.1227 0)
(-0.246592 10.1727 0)
(-0.286237 10.2359 0)
(-0.322734 10.313 0)
(-0.353125 10.4038 0)
(-0.37429 10.5074 0)
(-0.381688 10.6227 0)
(-0.376087 10.7445 0)
(-0.363213 10.868 0)
(-0.343991 10.9917 0)
(-0.31933 11.1135 0)
(-0.290029 11.2299 0)
(-0.25691 11.3356 0)
(-0.220949 11.4216 0)
(-0.183256 11.4737 0)
(-0.144667 11.4744 0)
(-0.105307 11.4374 0)
(-0.0658894 11.3599 0)
(-0.0307116 11.0629 0)
(0.000515441 9.80662 0)
(0.000671635 10.0002 0)
(0.001786 10.0012 0)
(0.00162892 10.0031 0)
(0.000362421 10.0051 0)
(-0.00237317 10.0068 0)
(-0.00688986 10.0084 0)
(-0.0136435 10.0099 0)
(-0.0231623 10.0113 0)
(-0.0360718 10.0131 0)
(-0.0530591 10.0161 0)
(-0.0748027 10.0211 0)
(-0.101858 10.0296 0)
(-0.134494 10.0437 0)
(-0.172436 10.0659 0)
(-0.214613 10.0992 0)
(-0.259372 10.1452 0)
(-0.304874 10.2047 0)
(-0.348535 10.2789 0)
(-0.387329 10.3681 0)
(-0.417985 10.4716 0)
(-0.437209 10.588 0)
(-0.440226 10.7159 0)
(-0.428535 10.849 0)
(-0.409081 10.9823 0)
(-0.383104 11.1143 0)
(-0.351753 11.2431 0)
(-0.316104 11.3655 0)
(-0.27732 11.4763 0)
(-0.236607 11.5667 0)
(-0.195009 11.6221 0)
(-0.153946 11.6448 0)
(-0.112296 11.6331 0)
(-0.0699559 11.5545 0)
(-0.0331983 11.226 0)
(-0.00115849 9.89103 0)
(0.00171154 10.0012 0)
(0.000631788 10.0002 0)
(0.00152365 10.003 0)
(0.000254016 10.0048 0)
(-0.00246604 10.0064 0)
(-0.00694612 10.0077 0)
(-0.0136387 10.0087 0)
(-0.0230776 10.0096 0)
(-0.0359064 10.0105 0)
(-0.0528516 10.0121 0)
(-0.0746698 10.0152 0)
(-0.102057 10.021 0)
(-0.135517 10.0315 0)
(-0.175147 10.0489 0)
(-0.220368 10.0761 0)
(-0.269612 10.1165 0)
(-0.320684 10.1717 0)
(-0.371314 10.242 0)
(-0.418447 10.3283 0)
(-0.458679 10.4305 0)
(-0.488491 10.5474 0)
(-0.504518 10.677 0)
(-0.501843 10.8173 0)
(-0.482852 10.9613 0)
(-0.455824 11.1037 0)
(-0.422331 11.2433 0)
(-0.383824 11.3782 0)
(-0.341705 11.5056 0)
(-0.297364 11.6205 0)
(-0.252021 11.7137 0)
(-0.20779 11.789 0)
(-0.163768 11.8334 0)
(-0.118959 11.8256 0)
(-0.0739845 11.7428 0)
(-0.0354682 11.3831 0)
(-0.00267655 9.97796 0)
(0.00143205 10.0029 0)
(0.00162524 10.0011 0)
(0.000583836 10.0001 0)
(0.000162727 10.0046 0)
(-0.0025376 10.006 0)
(-0.00697568 10.0071 0)
(-0.0135984 10.0078 0)
(-0.0229393 10.008 0)
(-0.0356512 10.0081 0)
(-0.0524855 10.0085 0)
(-0.0742526 10.0099 0)
(-0.101752 10.0134 0)
(-0.135667 10.0205 0)
(-0.176386 10.0335 0)
(-0.223779 10.0549 0)
(-0.276855 10.0883 0)
(-0.333445 10.1371 0)
(-0.390769 10.2027 0)
(-0.44609 10.2851 0)
(-0.495908 10.3847 0)
(-0.536492 10.5007 0)
(-0.564171 10.6315 0)
(-0.575625 10.7743 0)
(-0.5659 10.9266 0)
(-0.538427 11.081 0)
(-0.502915 11.2317 0)
(-0.461304 11.3779 0)
(-0.415374 11.518 0)
(-0.366769 11.6493 0)
(-0.316932 11.7667 0)
(-0.26868 11.8788 0)
(-0.221198 11.9733 0)
(-0.172974 12.0195 0)
(-0.125134 12.013 0)
(-0.0777716 11.9238 0)
(-0.0374931 11.5336 0)
(-0.00406213 10.0657 0)
(8.23543e-05 10.0044 0)
(0.00133615 10.0027 0)
(0.00151849 10.001 0)
(0.000538057 10.0001 4.53188e-20)
(-0.00259339 10.0057 0)
(-0.00698541 10.0066 0)
(-0.0135331 10.0069 0)
(-0.0227654 10.0067 0)
(-0.0353369 10.0061 0)
(-0.0520128 10.0054 0)
(-0.0736389 10.0053 0)
(-0.101088 10.0066 0)
(-0.135176 10.0108 0)
(-0.17652 10.0196 0)
(-0.225347 10.0357 0)
(-0.2812 10.0622 0)
(-0.342571 10.1028 0)
(-0.406615 10.1614 0)
(-0.469886 10.2389 0)
(-0.529208 10.3346 0)
(-0.580672 10.4484 0)
(-0.620308 10.579 0)
(-0.644412 10.7239 0)
(-0.649837 10.8797 0)
(-0.631705 11.0436 0)
(-0.594644 11.2074 0)
(-0.549881 11.3655 0)
(-0.499726 11.5172 0)
(-0.446223 11.6613 0)
(-0.391121 11.7951 0)
(-0.337959 11.931 0)
(-0.286053 12.0611 0)
(-0.233612 12.1551 0)
(-0.181429 12.2014 0)
(-0.130706 12.1938 0)
(-0.0812028 12.0967 0)
(-0.0392391 11.6774 0)
(-0.00531373 10.1529 0)
(-0.00264356 10.0054 0)
(1.4451e-05 10.0041 0)
(0.00122664 10.0026 2.06243e-19)
(0.00141556 10.001 -1.43681e-19)
(0.000494376 10.0001 -8.8951e-20)
(-0.00698204 10.0061 0)
(-0.0134507 10.0061 0)
(-0.022569 10.0055 0)
(-0.0349869 10.0043 0)
(-0.0514736 10.0027 0)
(-0.0728963 10.0012 0)
(-0.100177 10.0006 0)
(-0.134231 10.0021 0)
(-0.175844 10.0073 0)
(-0.225526 10.0184 0)
(-0.283254 10.0385 0)
(-0.348149 10.0711 0)
(-0.418107 10.1204 0)
(-0.489476 10.1901 0)
(-0.558126 10.2808 0)
(-0.620485 10.3911 0)
(-0.672313 10.52 0)
(-0.709512 10.6655 0)
(-0.728479 10.8245 0)
(-0.726387 10.993 0)
(-0.698544 11.1677 0)
(-0.650914 11.3399 0)
(-0.596297 11.5042 0)
(-0.537303 11.6602 0)
(-0.476129 11.8068 0)
(-0.4172 11.959 0)
(-0.35983 12.1125 0)
(-0.302033 12.241 0)
(-0.244899 12.3329 0)
(-0.189022 12.3775 0)
(-0.135622 12.3671 0)
(-0.0842247 12.2614 0)
(-0.0407011 11.8142 0)
(-0.00642015 10.2384 0)
(-0.00698044 10.0057 0)
(-0.00265087 10.005 -4.65929e-19)
(-4.63918e-05 10.0038 -2.17943e-19)
(0.00112255 10.0024 1.01219e-19)
(0.00131565 10.0009 -9.39871e-20)
(0.000452814 10.0001 0)
(-0.0133588 10.0055 0)
(-0.0223595 10.0044 0)
(-0.0346176 10.0027 0)
(-0.0508978 10.0003 0)
(-0.0720765 9.99759 0)
(-0.0991083 9.9953 0)
(-0.132975 9.99437 0)
(-0.174592 9.99626 0)
(-0.224685 10.003 0)
(-0.283577 10.0172 0)
(-0.350906 10.0423 0)
(-0.425296 10.0822 0)
(-0.503913 10.1414 0)
(-0.582216 10.2238 0)
(-0.655391 10.3292 0)
(-0.719553 10.455 0)
(-0.770235 10.5996 0)
(-0.803347 10.7604 0)
(-0.815543 10.9332 0)
(-0.804459 11.1137 0)
(-0.765703 11.2981 0)
(-0.70668 11.4777 0)
(-0.64175 11.6469 0)
(-0.573714 11.8057 0)
(-0.508095 11.9708 0)
(-0.444295 12.1403 0)
(-0.379905 12.2916 0)
(-0.316499 12.4168 0)
(-0.254966 12.5053 0)
(-0.195705 12.5469 0)
(-0.139874 12.5325 0)
(-0.0868266 12.4176 0)
(-0.0419003 11.9439 0)
(-0.00738232 10.3212 0)
(-0.01328 10.0049 0)
(-0.00688989 10.0051 9.84639e-19)
(-0.00260707 10.0046 0)
(-0.000103312 10.0036 2.13853e-19)
(0.00102504 10.0022 3.49746e-23)
(0.00121951 10.0008 0)
(0.00041338 10.0001 0)
(-0.0221453 10.0035 0)
(-0.03424 10.0012 0)
(-0.0503064 9.99811 0)
(-0.0712183 9.99439 0)
(-0.097947 9.99059 0)
(-0.131521 9.98753 0)
(-0.172947 9.98646 0)
(-0.223116 9.98916 0)
(-0.28262 9.99803 0)
(-0.351519 10.0162 0)
(-0.429044 10.0474 0)
(-0.513187 10.096 0)
(-0.600284 10.1667 0)
(-0.684841 10.2633 0)
(-0.761391 10.3845 0)
(-0.82586 10.5268 0)
(-0.873684 10.6877 0)
(-0.900946 10.8635 0)
(-0.904711 11.0497 0)
(-0.88322 11.2412 0)
(-0.832479 11.4343 0)
(-0.761401 11.6198 0)
(-0.685827 11.7923 0)
(-0.612625 11.9698 0)
(-0.541301 12.1523 0)
(-0.469143 12.3195 0)
(-0.398053 12.4668 0)
(-0.329373 12.5873 0)
(-0.263785 12.6712 0)
(-0.201479 12.7088 0)
(-0.143488 12.6895 0)
(-0.0890248 12.5651 0)
(-0.0428659 12.0663 0)
(-0.00820761 10.4009 0)
(-0.0219599 10.0027 0)
(-0.0130473 10.0042 1.07378e-22)
(-0.00667643 10.0046 0)
(-0.00255984 10.0042 -2.25966e-19)
(-0.000151308 10.0033 2.14704e-23)
(0.000933779 10.0021 0)
(0.00112713 10.0008 0)
(0.000376085 10.0001 0)
(-0.0338637 9.99998 0)
(-0.0497128 9.99621 0)
(-0.0703486 9.99156 0)
(-0.0967436 9.98642 0)
(-0.129954 9.98147 0)
(-0.171051 9.97776 0)
(-0.221048 9.97686 0)
(-0.280746 9.9809 0)
(-0.350537 9.9927 0)
(-0.430156 10.0158 0)
(-0.518296 10.0544 0)
(-0.612218 10.1132 0)
(-0.707338 10.197 0)
(-0.797158 10.3092 0)
(-0.875638 10.4475 0)
(-0.938672 10.6069 0)
(-0.98177 10.7842 0)
(-1.00135 10.9748 0)
(-0.995055 11.1736 0)
(-0.961843 11.375 0)
(-0.898194 11.5752 0)
(-0.814554 11.7649 0)
(-0.732957 11.9567 0)
(-0.653065 12.1519 0)
(-0.571765 12.332 0)
(-0.491594 12.4949 0)
(-0.414204 12.6369 0)
(-0.340643 12.7515 0)
(-0.271384 12.83 0)
(-0.206385 12.8628 0)
(-0.146502 12.8381 0)
(-0.0908468 12.7041 0)
(-0.0436275 12.1816 0)
(-0.00890672 10.4769 0)
(-0.0335376 9.99887 0)
(-0.0215298 10.0018 -5.49694e-19)
(-0.0125804 10.0034 0)
(-0.00646152 10.004 0)
(-0.00250045 10.0038 6.65282e-19)
(-0.00019021 10.003 0)
(0.000848818 10.0019 0)
(0.00103862 10.0007 1.77688e-19)
(0.00034096 10.0001 0)
(-0.0491273 9.99453 0)
(-0.0694832 9.98905 0)
(-0.0955324 9.98272 0)
(-0.128338 9.97609 0)
(-0.169013 9.97005 0)
(-0.218661 9.96592 0)
(-0.27824 9.96561 0)
(-0.348404 9.97165 0)
(-0.429293 9.98731 0)
(-0.520191 10.0166 0)
(-0.619159 10.064 0)
(-0.722621 10.1346 0)
(-0.825001 10.2329 0)
(-0.918774 10.3622 0)
(-0.997453 10.5185 0)
(-1.0571 10.6956 0)
(-1.09349 10.8891 0)
(-1.10355 11.094 0)
(-1.08564 11.3042 0)
(-1.03953 11.5141 0)
(-0.962203 11.7198 0)
(-0.871467 11.9295 0)
(-0.781991 12.1396 0)
(-0.690195 12.3325 0)
(-0.599303 12.5082 0)
(-0.51158 12.6653 0)
(-0.428357 12.8008 0)
(-0.350358 12.9088 0)
(-0.277829 12.9813 0)
(-0.210482 13.0088 0)
(-0.148968 12.9782 0)
(-0.0923272 12.8346 0)
(-0.0442135 12.2898 0)
(-0.0094924 10.5489 0)
(-0.0486207 9.99304 0)
(-0.0328422 9.99764 0)
(-0.0207044 10.0007 -5.43508e-19)
(-0.0121175 10.0026 -5.04692e-19)
(-0.00623054 10.0034 -9.37321e-19)
(-0.00242718 10.0034 0)
(-0.000220613 10.0027 -4.04271e-19)
(0.000769968 10.0018 -3.75498e-19)
(0.000954145 10.0006 1.74384e-19)
(0.00030796 10.0001 0)
(-0.0686344 9.98683 0)
(-0.0943328 9.97945 0)
(-0.126716 9.97133 0)
(-0.166915 9.9632 0)
(-0.216091 9.9562 0)
(-0.275324 9.952 0)
(-0.345471 9.95284 0)
(-0.426992 9.96172 0)
(-0.519659 9.98234 0)
(-0.622213 10.0191 0)
(-0.731973 10.077 0)
(-0.844445 10.1609 0)
(-0.952992 10.2754 0)
(-1.04909 10.4229 0)
(-1.12598 10.5981 0)
(-1.18013 10.793 0)
(-1.20776 11.0024 0)
(-1.20649 11.2204 0)
(-1.17553 11.4409 0)
(-1.1155 11.6576 0)
(-1.03098 11.8844 0)
(-0.930811 12.1133 0)
(-0.827065 12.3214 0)
(-0.723785 12.51 0)
(-0.623836 12.6796 0)
(-0.529112 12.8298 0)
(-0.440578 12.9579 0)
(-0.358611 13.0588 0)
(-0.28321 13.1248 0)
(-0.213842 13.1466 0)
(-0.150945 13.1098 0)
(-0.0935022 12.957 0)
(-0.0446502 12.3911 0)
(-0.0099774 10.617 0)
(-0.0679016 9.98487 0)
(-0.0475771 9.99142 -6.14712e-19)
(-0.0315251 9.99627 5.74229e-19)
(-0.0198928 9.9997 -2.51094e-22)
(-0.0116324 10.0018 4.95188e-19)
(-0.00597935 10.0029 4.5996e-19)
(-0.00234133 10.003 8.54336e-19)
(-0.000242243 10.0025 5.95113e-19)
(0.000697448 10.0016 -1.84266e-19)
(0.000873785 10.0006 0)
(0.000277065 10.0001 0)
(-0.0931591 9.97655 0)
(-0.125114 9.96711 0)
(-0.164811 9.95713 0)
(-0.213441 9.94757 0)
(-0.27217 9.93988 0)
(-0.342011 9.93606 0)
(-0.42368 9.9388 0)
(-0.51734 9.95152 0)
(-0.622303 9.97839 0)
(-0.736665 10.0242 0)
(-0.85691 10.0941 0)
(-0.977534 10.193 0)
(-1.09083 10.3252 0)
(-1.18733 10.4921 0)
(-1.26022 10.6865 0)
(-1.30664 10.8991 0)
(-1.32344 11.1237 0)
(-1.30912 11.3538 0)
(-1.26381 11.5827 0)
(-1.19748 11.8219 0)
(-1.10297 12.0691 0)
(-0.98552 12.2966 0)
(-0.867896 12.5004 0)
(-0.753732 12.6828 0)
(-0.645383 12.8452 0)
(-0.544275 12.9875 0)
(-0.450981 13.1078 0)
(-0.365519 13.2012 0)
(-0.287629 13.2604 0)
(-0.216543 13.2762 0)
(-0.15249 13.2333 0)
(-0.0944114 13.0714 0)
(-0.0449614 12.4858 0)
(-0.0103744 10.681 0)
(-0.0921492 9.97399 0)
(-0.0664096 9.98276 -8.09723e-22)
(-0.0456032 9.98967 0)
(-0.0302388 9.99496 -4.08663e-22)
(-0.0190521 9.99872 0)
(-0.0111202 10.0011 -4.85981e-19)
(-0.00570859 10.0023 -9.02777e-19)
(-0.00224177 10.0026 1.32553e-23)
(-0.00025491 10.0023 3.89353e-19)
(0.000631041 10.0015 -1.80836e-19)
(0.000797294 10.0005 1.67976e-19)
(0.000248224 10.0001 0)
(-0.123547 9.96336 0)
(-0.162732 9.95174 0)
(-0.210782 9.93991 0)
(-0.268908 9.92911 0)
(-0.338239 9.92112 0)
(-0.419693 9.91832 0)
(-0.513749 9.92386 0)
(-0.620188 9.94162 0)
(-0.737767 9.97618 0)
(-0.863835 10.0327 0)
(-0.99394 10.1163 0)
(-1.12153 10.232 0)
(-1.23781 10.3831 0)
(-1.33252 10.5702 0)
(-1.39904 10.7841 0)
(-1.43544 11.0138 0)
(-1.43941 11.2526 0)
(-1.41042 11.493 0)
(-1.35951 11.746 0)
(-1.28368 12.0073 0)
(-1.1696 12.2543 0)
(-1.03524 12.4778 0)
(-0.90438 12.6752 0)
(-0.780065 12.85 0)
(-0.664045 13.0042 0)
(-0.557207 13.1381 0)
(-0.459709 13.2501 0)
(-0.371209 13.3358 0)
(-0.291189 13.3882 0)
(-0.218667 13.398 0)
(-0.15366 13.3489 0)
(-0.0950918 13.1782 0)
(-0.0451683 12.5741 0)
(-0.0106953 10.741 0)
(-0.122205 9.96005 0)
(-0.090089 9.97128 6.86675e-19)
(-0.0635755 9.98054 -6.42661e-19)
(-0.0436858 9.988 5.95748e-19)
(-0.0289155 9.9937 0)
(-0.0181725 9.99779 0)
(-0.0105793 10.0004 4.76943e-19)
(-0.00541969 10.0018 -4.42939e-19)
(-0.00212949 10.0023 1.90617e-23)
(-0.000259141 10.002 1.91091e-19)
(0.000570728 10.0014 -1.775e-19)
(0.000724822 10.0005 -1.64854e-19)
(0.000221564 10.0001 0)
(-0.160701 9.94696 0)
(-0.208152 9.93311 0)
(-0.265626 9.91954 0)
(-0.334316 9.90781 0)
(-0.415292 9.90005 0)
(-0.509292 9.8991 0)
(-0.61648 9.90854 0)
(-0.736164 9.93272 0)
(-0.866446 9.97659 0)
(-1.00382 10.0455 0)
(-1.14283 10.1447 0)
(-1.27584 10.2785 0)
(-1.39307 10.4498 0)
(-1.48357 10.6576 0)
(-1.54121 10.8908 0)
(-1.5653 11.137 0)
(-1.55451 11.3882 0)
(-1.52086 11.6546 0)
(-1.46067 11.9316 0)
(-1.36383 12.1943 0)
(-1.23039 12.4382 0)
(-1.07982 12.6552 0)
(-0.93655 12.8447 0)
(-0.802903 13.0108 0)
(-0.679987 13.1561 0)
(-0.568082 13.2813 0)
(-0.466919 13.3848 0)
(-0.375816 13.4628 0)
(-0.293996 13.5082 0)
(-0.22029 13.512 0)
(-0.154507 13.4568 0)
(-0.0955783 13.2778 0)
(-0.0452895 12.6563 0)
(-0.0109513 10.7971 0)
(-0.158969 9.94272 0)
(-0.119436 9.9566 0)
(-0.0861475 9.96847 6.78764e-19)
(-0.0608349 9.97841 -1.26169e-18)
(-0.0417217 9.98639 1.17078e-18)
(-0.0275388 9.9925 -1.08661e-18)
(-0.0172541 9.99689 0)
(-0.0100122 9.99977 4.68229e-19)
(-0.00511176 10.0014 -4.34705e-19)
(-0.00200481 10.002 -4.03828e-19)
(-0.00025438 10.0018 0)
(0.000516314 10.0012 1.74206e-19)
(0.000656802 10.0004 0)
(0.000197588 10 0)
(-0.205581 9.92707 0)
(-0.262371 9.91104 0)
(-0.330351 9.89597 0)
(-0.41068 9.88376 0)
(-0.504292 9.87696 0)
(-0.611669 9.87886 0)
(-0.73258 9.89351 0)
(-0.865766 9.92566 0)
(-1.00856 9.9806 0)
(-1.15652 10.0638 0)
(-1.30313 10.1801 0)
(-1.43972 10.3336 0)
(-1.55556 10.526 0)
(-1.63924 10.7547 0)
(-1.68545 11.0067 0)
(-1.69497 11.2679 0)
(-1.68077 11.5471 0)
(-1.63831 11.8398 0)
(-1.55528 12.1202 0)
(-1.43731 12.3811 0)
(-1.28509 12.619 0)
(-1.11925 12.8278 0)
(-0.964546 13.008 0)
(-0.822456 13.1647 0)
(-0.693414 13.3007 0)
(-0.577091 13.4168 0)
(-0.472775 13.5119 0)
(-0.379469 13.5821 0)
(-0.29615 13.6208 0)
(-0.221484 13.6185 0)
(-0.155082 13.5575 0)
(-0.0959015 13.3705 0)
(-0.0453412 12.7328 0)
(-0.0111516 10.8495 0)
(-0.203401 9.92171 0)
(-0.15533 9.93836 0)
(-0.114094 9.95307 0)
(-0.0823545 9.96579 1.33251e-18)
(-0.0580379 9.97638 -1.2367e-18)
(-0.0396871 9.98487 1.14786e-18)
(-0.0261099 9.99136 0)
(-0.0162992 9.99605 -4.94673e-19)
(-0.0094191 9.99915 0)
(-0.00478608 10.0009 4.26664e-19)
(-0.00186897 10.0016 0)
(-0.000240282 10.0016 0)
(0.000467765 10.0011 0)
(0.000594743 10.0004 1.69347e-19)
(0.000176293 10 8.27087e-20)
(-0.259187 9.90348 0)
(-0.326405 9.88544 0)
(-0.405991 9.86925 0)
(-0.498993 9.8572 0)
(-0.606142 9.85228 0)
(-0.727598 9.85825 0)
(-0.862639 9.8796 0)
(-1.00932 9.92146 0)
(-1.16413 9.9893 0)
(-1.32161 10.0885 0)
(-1.47421 10.2238 0)
(-1.61221 10.3981 0)
(-1.72411 10.6121 0)
(-1.79827 10.8616 0)
(-1.83046 11.1314 0)
(-1.83821 11.4227 0)
(-1.816 11.7308 0)
(-1.74892 12.0294 0)
(-1.64256 12.3098 0)
(-1.50378 12.5659 0)
(-1.33365 12.7956 0)
(-1.15366 12.9945 0)
(-0.988595 13.1646 0)
(-0.838978 13.3112 0)
(-0.70456 13.4376 0)
(-0.584432 13.5447 0)
(-0.477441 13.6314 0)
(-0.382294 13.694 0)
(-0.297745 13.7261 0)
(-0.222315 13.718 0)
(-0.155428 13.6513 0)
(-0.0960891 13.4568 0)
(-0.0453364 12.8039 0)
(-0.0113046 10.8982 0)
(-0.256507 9.89677 0)
(-0.198711 9.91624 0)
(-0.148246 9.93396 1.52354e-18)
(-0.108977 9.94973 1.41294e-18)
(-0.0784933 9.96326 1.31052e-18)
(-0.05515 9.97447 -1.21562e-18)
(-0.0375839 9.98344 0)
(-0.024632 9.99029 0)
(-0.0153094 9.99525 0)
(-0.00880155 9.99857 9.02109e-19)
(-0.00444429 10.0005 4.18838e-19)
(-0.00172 10.0013 3.88979e-19)
(-0.000218898 10.0014 0)
(0.000425581 10.001 -1.78939e-19)
(0.000539107 10.0004 -8.74204e-20)
(0.000157351 10 0)
(-0.322542 9.87607 0)
(-0.4013 9.85633 0)
(-0.493561 9.83958 0)
(-0.6002 9.82852 0)
(-0.721682 9.82661 0)
(-0.857751 9.83807 0)
(-1.00709 9.8678 0)
(-1.16699 9.92121 0)
(-1.33298 10.0039 0)
(-1.4986 10.121 0)
(-1.65521 10.2765 0)
(-1.79221 10.4727 0)
(-1.89748 10.7086 0)
(-1.9593 10.9782 0)
(-1.99188 11.2806 0)
(-1.99287 11.6038 0)
(-1.94438 11.921 0)
(-1.85172 12.2218 0)
(-1.72204 12.4986 0)
(-1.56313 12.7472 0)
(-1.37619 12.9669 0)
(-1.18331 13.1548 0)
(-1.00898 13.3139 0)
(-0.852745 13.4502 0)
(-0.713666 13.5668 0)
(-0.590303 13.665 0)
(-0.48107 13.7435 0)
(-0.384408 13.7988 0)
(-0.298867 13.8244 0)
(-0.222843 13.8107 0)
(-0.155587 13.7386 0)
(-0.0961647 13.537 0)
(-0.0452856 12.8699 0)
(-0.0114187 10.9436 0)
(-0.319316 9.86775 0)
(-0.250556 9.88996 0)
(-0.189488 9.91079 -3.22271e-18)