/*--------------------------------*- C++ -*----------------------------------*\
  =========                 |
  \\      /  F ield         | OpenFOAM: The Open Source CFD Toolbox
   \\    /   O peration     | Website:  https://openfoam.org
    \\  /    A nd           | Version:  8
     \\/     M anipulation  |
\*---------------------------------------------------------------------------*/
FoamFile
{
    version     2.0;
    format      ascii;
    class       volScalarField;
    location    "0.01";
    object      epsilon;
}
// * * * * * * * * * * * * * * * * * * * * * * * * * * * * * * * * * * * * * //

dimensions      [0 2 -3 0 0 0 0];

internalField   nonuniform List<scalar> 
15677
(
59.8014
18.4116
52.7651
8.11033
26.0897
50.0058
4.63772
13.3535
31.6523
50.0534
3.18331
7.76399
17.1664
37.0018
50.6099
2.49248
5.06221
10.0885
20.7121
41.3443
51.7461
2.1473
3.63183
6.50645
12.1392
23.7461
44.5198
52.7792
1.98053
2.82472
4.55593
7.73267
13.8751
26.0167
46.5832
53.5412
1.91193
2.35433
3.42338
5.33021
8.72628
15.168
27.5238
47.8049
54.0358
1.88419
2.08051
2.73774
3.9315
5.9355
9.44557
16.0319
28.4277
48.45
54.3148
1.87042
1.93963
2.31591
3.07601
4.32306
6.36
9.91683
16.5579
28.9046
48.7306
54.4472
1.86763
1.87808
2.06049
2.5381
3.33901
4.59233
6.63032
10.2026
16.8391
29.1003
48.8145
54.5121
1.86918
1.84757
1.91779
2.19902
2.71648
3.51984
4.76041
6.79073
10.3553
16.9501
29.1357
48.8216
54.5547
1.87075
1.83565
1.8517
1.99184
2.31711
2.84181
3.63199
4.85732
6.87387
10.412
16.9634
29.1207
48.8037
54.5968
1.87143
1.83305
1.81841
1.87373
2.06424
2.40427
2.92038
3.69517
4.90503
6.90203
10.4162
16.9488
29.0651
48.7634
54.6335
1.87165
1.83307
1.80453
1.81932
1.91171
2.12319
2.46079
2.96426
3.72479
4.91929
6.90269
10.4055
16.8994
28.9806
48.7178
54.6969
1.87171
1.83331
1.80041
1.79324
1.82867
1.94901
2.16422
2.49277
2.98428
3.73265
4.91896
6.89497
10.3702
16.8276
28.8938
48.6895
54.7504
1.87173
1.83343
1.79929
1.78373
1.79342
1.84876
1.97885
2.18843
2.50746
2.9894
3.73216
4.91333
6.87081
10.3212
16.7561
28.8157
48.6427
54.847
1.87173
1.83347
1.79898
1.78062
1.78023
1.79899
1.8708
1.99795
2.20007
2.5116
2.98908
3.72824
4.89704
6.83925
10.2736
16.6901
28.7224
48.6159
54.9288
1.87173
1.83347
1.79888
1.77963
1.77563
1.78204
1.81416
1.88681
2.00785
2.20402
2.51159
2.98658
3.71749
4.87704
6.80912
10.2294
16.6153
28.6347
48.5772
55.0694
1.87173
1.83346
1.79884
1.77932
1.77412
1.77649
1.79145
1.82921
1.8959
2.01192
2.20453
2.51027
2.97982
3.705
4.85834
6.78132
10.1807
16.5421
28.5344
48.5574
55.1732
1.87173
1.83345
1.79882
1.77923
1.77367
1.77473
1.78366
1.80626
1.83818
1.90026
2.01317
2.20407
2.50644
2.97231
3.69374
4.84141
6.75171
10.1336
16.4621
28.4399
48.5335
55.3835
1.87172
1.83345
1.79881
1.7792
1.77354
1.77421
1.7812
1.79815
1.81542
1.84287
1.90216
2.01335
2.20242
2.50237
2.966
3.68401
4.82439
6.72384
10.084
16.3847
28.3315
48.5417
55.5174
1.87172
1.83344
1.7988
1.7792
1.77351
1.77407
1.7805
1.79548
1.80742
1.82036
1.84527
1.90308
2.01326
2.2008
2.49947
2.96124
3.67515
4.80913
6.69606
10.0362
16.2982
28.2498
48.5502
55.773
1.87172
1.83343
1.7988
1.7792
1.77351
1.77404
1.78035
1.79473
1.80483
1.81247
1.82302
1.84678
1.90392
2.01348
2.2006
2.49829
2.95774
3.66837
4.79524
6.67017
9.98532
16.229
28.1489
48.5832
55.934
1.87172
1.83342
1.7988
1.77922
1.77352
1.77405
1.78034
1.79459
1.80412
1.80992
1.81524
1.82482
1.84826
1.90528
2.01458
2.20144
2.4987
2.95696
3.66335
4.78409
6.64477
9.94528
16.1481
28.077
48.6176
56.2598
1.87172
1.83341
1.7988
1.77926
1.77356
1.77407
1.78036
1.7946
1.80398
1.8092
1.8127
1.81715
1.8266
1.85035
1.90773
2.01719
2.20412
2.50103
2.95812
3.66236
4.77494
6.6272
9.90164
16.0852
27.9879
48.7043
56.4713
1.87172
1.83339
1.79881
1.7793
1.77362
1.77411
1.7804
1.79464
1.80399
1.80903
1.81195
1.81462
1.81905
1.82906
1.85369
1.91196
2.02232
2.20978
2.50652
2.9624
3.66408
4.77263
6.61082
9.86928
16.0169
27.9469
48.7746
56.8607
1.87172
1.83338
1.79881
1.77935
1.7737
1.77418
1.78047
1.79466
1.80398
1.80898
1.81172
1.81382
1.81654
1.82165
1.83284
1.85897
1.91871
2.03047
2.21904
2.51638
2.97157
3.67027
4.77435
6.6023
9.84056
15.9739
27.8922
48.9203
57.0951
1.87172
1.83337
1.79881
1.7794
1.77379
1.77428
1.78059
1.79469
1.80394
1.80892
1.81161
1.81354
1.81572
1.81919
1.82563
1.83865
1.86688
1.92868
2.04233
2.23256
2.53101
2.98645
3.68345
4.78118
6.60237
9.82325
15.9337
27.8765
49.0185
57.4958
1.87173
1.83337
1.79881
1.77944
1.77389
1.77439
1.78074
1.79476
1.8039
1.8088
1.81147
1.81336
1.81539
1.81838
1.82327
1.83171
1.84717
1.87816
1.94262
2.05879
2.25122
2.55152
3.00768
3.70357
4.79651
6.608
9.8176
15.9102
27.8632
49.2502
57.9046
1.87173
1.83338
1.79882
1.77948
1.77397
1.77451
1.78092
1.79489
1.80389
1.80869
1.8113
1.81316
1.81517
1.81805
1.82251
1.82949
1.84057
1.85921
1.89363
1.96145
2.08075
2.27609
2.57872
3.03619
3.73129
4.82139
6.62301
9.82083
15.8969
27.8765
49.2843
58.3473
1.87173
1.83339
1.79882
1.77951
1.77405
1.77461
1.7811
1.79504
1.80394
1.80862
1.81114
1.81295
1.81496
1.81784
1.82223
1.82885
1.83858
1.85305
1.87558
1.91424
1.9861
2.10927
2.30799
2.6136
3.07265
3.76786
4.85458
6.65071
9.83128
15.8986
27.8845
49.3979
58.7936
1.87173
1.8334
1.79883
1.77953
1.7741
1.7747
1.78126
1.79521
1.80403
1.80862
1.81104
1.81277
1.81475
1.81766
1.82208
1.82869
1.83812
1.85139
1.87001
1.89734
1.94096
2.01766
2.14521
2.34795
2.65677
3.11804
3.81314
4.89747
6.68571
9.854
15.91
27.9077
49.6145
59.2758
1.87173
1.83342
1.79884
1.77954
1.77414
1.77477
1.78141
1.79538
1.80416
1.80868
1.81101
1.81266
1.81461
1.81752
1.822
1.82867
1.83813
1.8512
1.8688
1.89259
1.92549
1.97498
2.05702
2.18963
2.39655
2.70913
3.17233
3.86774
4.94871
6.73056
9.89326
15.9414
27.9565
49.8952
59.7792
1.83345
1.87177
1.79885
1.77955
1.77417
1.77482
1.78152
1.79552
1.80429
1.80878
1.81106
1.81265
1.81456
1.81746
1.82199
1.82874
1.83831
1.85149
1.86901
1.89198
1.92181
1.96133
2.01725
2.10534
2.24318
2.45465
2.77065
3.23606
3.93095
5.00917
6.79134
9.95344
15.9935
28.037
50.206
60.3162
1.79886
1.8336
1.87184
1.77954
1.77418
1.77485
1.7816
1.79564
1.80442
1.8089
1.81116
1.81271
1.81459
1.8175
1.82206
1.82888
1.83858
1.85197
1.86974
1.89283
1.92207
1.95898
2.00598
2.06906
2.16334
2.3067
2.52242
2.84188
3.30866
4.0032
5.08626
6.87292
10.0272
16.061
28.1393
50.5565
60.8524
1.77953
1.79903
1.8339
1.87191
1.77418
1.77487
1.78165
1.79572
1.80452
1.80902
1.81128
1.81283
1.81471
1.81762
1.82221
1.82911
1.83894
1.85256
1.87066
1.89422
1.92387
1.96059
2.00527
2.06055
2.13121
2.23197
2.38053
2.60056
2.92232
3.39043
4.09306
5.18419
6.96626
10.1128
16.1414
28.2727
50.9108
61.4065
1.77416
1.77961
1.79936
1.83422
1.87199
1.77487
1.78167
1.79578
1.8046
1.80912
1.81141
1.81297
1.81487
1.81781
1.82244
1.82941
1.83936
1.85322
1.87171
1.89585
1.92625
1.96379
2.00879
2.06227
2.12597
2.20501
2.31177
2.46539
2.68854
3.01228
3.49088
4.20447
5.29277
7.06925
10.2079
16.2381
28.421
51.2881
61.9443
1.77487
1.77415
1.77977
1.7997
1.83455
1.87207
1.78166
1.7958
1.80464
1.80919
1.81151
1.81311
1.81506
1.81804
1.82273
1.82977
1.83984
1.85393
1.87284
1.89765
1.92894
1.96769
2.01401
2.06846
2.13104
2.20357
2.29038
2.40355
2.56086
2.7866
3.12202
3.61399
4.32594
5.40977
7.17975
10.3123
16.3452
28.5906
51.6533
62.4933
1.78163
1.7748
1.77412
1.77994
1.80007
1.8349
1.87214
1.7958
1.80466
1.80924
1.8116
1.81325
1.81525
1.81828
1.82304
1.83017
1.84037
1.85468
1.87399
1.89954
1.93188
1.97202
2.02009
2.07657
2.14083
2.21322
2.29407
2.38832
2.50685
2.66728
2.90626
3.25605
3.74693
4.45524
5.53318
7.29639
10.4231
16.4639
28.7645
52.0334
63.0184
1.79578
1.7814
1.77466
1.77409
1.78011
1.80045
1.83526
1.87222
1.80466
1.80926
1.81166
1.81336
1.81541
1.81852
1.82335
1.83058
1.84093
1.85547
1.87517
1.90142
1.93492
1.97674
2.02683
2.08586
2.15293
2.22793
2.30955
2.39887
2.49862
2.62254
2.79757
3.05233
3.40074
3.88766
4.59039
5.66126
7.4171
10.5394
16.5875
28.9519
52.3924
63.5498
1.80463
1.7955
1.78095
1.77453
1.77405
1.78028
1.80084
1.83564
1.8723
1.80926
1.8117
1.81345
1.81556
1.81873
1.82364
1.83098
1.84149
1.85626
1.87637
1.90328
1.93793
1.98164
2.03417
2.09616
2.16668
2.24556
2.33073
2.42184
2.51779
2.62216
2.76302
2.95677
3.20993
3.5539
4.03393
4.72908
5.79205
7.54035
10.6583
16.7176
29.1369
52.7622
64.0534
1.80925
1.80443
1.79494
1.78048
1.77438
1.77401
1.78047
1.80126
1.83602
1.87238
1.81172
1.81351
1.81568
1.81891
1.8239
1.83134
1.84201
1.85704
1.87755
1.90512
1.94087
1.98643
2.0418
2.10744
2.18199
2.26561
2.35574
2.45159
2.55017
2.65218
2.77394
2.93448
3.12901
3.37705
3.7133
4.18396
4.86958
5.9238
7.66416
10.779
16.8486
29.3303
53.1053
64.5576
1.81173
1.80912
1.80402
1.79433
1.78
1.77424
1.77398
1.78068
1.80169
1.83641
1.87246
1.81356
1.81577
1.81906
1.82412
1.83166
1.84249
1.85776
1.87868
1.9069
1.94373
1.99109
2.04927
2.11921
2.19885
2.28807
2.38428
2.48656
2.59085
2.69649
2.81826
2.9613
3.11996
3.31154
3.55148
3.87673
4.33582
5.0101
6.05467
7.78722
10.8992
16.9823
29.5173
53.4575
65.0342
1.81358
1.81165
1.80885
1.80357
1.79369
1.77952
1.77411
1.77395
1.7809
1.80213
1.83681
1.87254
1.81583
1.81917
1.8243
1.83193
1.84291
1.85842
1.87973
1.90859
1.94647
1.99556
2.0565
2.13078
2.21653
2.31301
2.41648
2.52675
2.63871
2.75131
2.87889
3.0252
3.16609
3.31754
3.5009
3.73054
4.04201
4.48738
5.14922
6.18338
7.9082
11.0185
17.1143
29.7091
53.7795
65.501
1.81587
1.81353
1.81147
1.80855
1.80309
1.79302
1.77905
1.77398
1.77394
1.78114
1.80259
1.83721
1.87262
1.81925
1.82443
1.83215
1.84327
1.85899
1.88068
1.91014
1.94905
1.9998
2.06343
2.14197
2.23399
2.33938
2.45253
2.57252
2.69415
2.81616
2.95336
3.10889
3.25387
3.38628
3.52502
3.69502
3.91167
4.20694
4.63712
5.28555
6.30887
8.02628
11.1354
17.2463
29.8923
54.1082
65.9443
1.81931
1.81581
1.81338
1.81126
1.80821
1.8026
1.79233
1.7786
1.77387
1.77394
1.7814
1.80307
1.83761
1.8727
1.82453
1.83232
1.84356
1.85948
1.88151
1.91154
1.95142
2.00376
2.06998
2.15267
2.25092
2.36559
2.49098
2.62429
2.75791
2.89207
3.04217
3.21176
3.36638
3.50266
3.6194
3.73974
3.89171
4.09301
4.37017
4.78368
5.41797
6.43029
8.14065
11.2497
17.375
30.0768
54.4034
66.3828
1.82461
1.81921
1.81562
1.81319
1.81102
1.80787
1.8021
1.79164
1.77818
1.77378
1.77396
1.78169
1.80357
1.838
1.87277
1.83244
1.84379
1.85989
1.88224
1.91278
1.95357
2.00739
2.0761
2.16277
2.26714
2.39116
2.52953
2.68016
2.83084
2.98046
3.14738
3.33597
3.5056
3.6505
3.76938
3.86291
3.95909
4.08868
4.27158
4.53005
4.92584
5.5456
6.547
8.25085
11.3604
17.5016
30.2514
54.7145
66.7659
1.83254
1.82442
1.8189
1.81539
1.81299
1.81078
1.80752
1.80161
1.79096
1.77778
1.7737
1.77401
1.78201
1.80406
1.83837
1.87285
1.84396
1.86023
1.88285
1.91386
1.95549
2.01069
2.08174
2.17219
2.28252
2.41581
2.56739
2.73675
2.91047
3.08298
3.27163
3.48548
3.67616
3.83538
3.95976
4.05169
4.11417
4.18053
4.28422
4.4457
4.68509
5.06267
5.6678
6.65856
8.35644
11.4672
17.6239
30.4275
54.9699
67.183
1.84412
1.83223
1.82391
1.81854
1.81514
1.81278
1.81054
1.8072
1.80115
1.7903
1.77742
1.77363
1.77408
1.78234
1.80454
1.83873
1.87291
1.86049
1.88336
1.9148
1.95719
2.01364
2.08689
2.18088
2.29694
2.43928
2.60407
2.79288
2.99214
3.19666
3.41795
3.66533
3.88526
4.06577
4.20109
4.2925
4.34709
4.37051
4.40175
4.47653
4.61429
4.83423
5.19345
5.78414
6.76467
8.4572
11.5699
17.7431
30.588
55.2624
67.5351
1.86072
1.84362
1.83138
1.82332
1.81817
1.81489
1.81258
1.81032
1.80691
1.80073
1.78965
1.77709
1.77359
1.77419
1.78269
1.80501
1.83907
1.87298
1.88377
1.9156
1.95868
2.01628
2.09155
2.18882
2.31035
2.46137
2.6392
2.84786
3.07405
3.3149
3.58288
3.88173
4.14236
4.35431
4.50784
4.60279
4.6469
4.65298
4.6294
4.62069
4.664
4.77644
4.97672
5.31773
5.89435
6.86519
8.55298
11.6682
17.8567
30.7525
55.4958
67.8758
1.88416
1.85997
1.84228
1.83043
1.82273
1.81781
1.81465
1.8124
1.81015
1.80668
1.80035
1.78901
1.77678
1.77356
1.77431
1.78304
1.80547
1.8394
1.87304
1.91626
1.95996
2.01861
2.09573
2.19603
2.32272
2.48196
2.67254
2.90111
3.15499
3.43495
3.75749
4.13204
4.46011
4.71878
4.90218
5.00672
5.04094
5.02124
4.96695
4.88859
4.83561
4.84537
4.93146
5.11207
5.43524
5.99832
6.96006
8.64373
11.7618
17.967
30.9029
55.7485
68.2349
1.9169
1.88306
1.8579
1.84079
1.82949
1.82214
1.81745
1.81443
1.81227
1.81005
1.80653
1.80002
1.78838
1.77651
1.77355
1.77445
1.7834
1.80592
1.83971
1.87311
1.96107
2.02066
2.09948
2.20257
2.33407
2.50102
2.70396
2.95213
3.23389
3.55525
3.93852
4.40446
4.83933
5.18497
5.41825
5.54375
5.56932
5.51697
5.41421
5.28686
5.14611
5.0451
5.0197
5.07888
5.24002
5.54589
6.09603
7.04933
8.72946
11.851
18.0717
31.0485
55.9727
68.4668
1.96213
1.91533
1.87993
1.85563
1.83933
1.82857
1.82157
1.81712
1.81427
1.81221
1.81003
1.80645
1.79973
1.78775
1.77627
1.77356
1.77461
1.78376
1.80636
1.84002
1.87317
2.02247
2.10281
2.20846
2.34445
2.51859
2.73341
3.00055
3.31001
3.6747
4.12391
4.69389
5.26571
5.76612
6.11075
6.28017
6.30192
6.20571
6.03339
5.82495
5.61094
5.40038
5.24804
5.18635
5.21843
5.36045
5.64964
6.18763
7.13311
8.81026
11.9355
18.1715
31.1911
56.1581
68.7307
2.02419
1.95995
1.91067
1.87653
1.85341
1.83791
1.82766
1.82103
1.81683
1.81417
1.81224
1.81011
1.80646
1.79947
1.78712
1.77606
1.77359
1.77478
1.78411
1.80678
1.8403
1.87322
2.1058
2.21377
2.35391
2.53474
2.76092
3.04615
3.38299
3.79246
4.31108
4.99603
5.73511
6.45491
7.02765
7.32761
7.36133
7.20617
6.92796
6.59328
6.25289
5.9377
5.6501
5.44362
5.34489
5.35001
5.47347
5.74689
6.2733
7.21157
8.88623
12.0154
18.2672
31.3006
56.3285
68.9472
2.10859
2.02122
1.95308
1.90564
1.87323
1.85126
1.83652
1.8268
1.82053
1.81661
1.81416
1.81238
1.8103
1.80653
1.79922
1.78649
1.77587
1.77362
1.77496
1.78447
1.80719
1.84058
1.87328
2.21861
2.36252
2.54957
2.78653
3.08887
3.45277
3.90768
4.4972
5.30725
6.2481
7.26013
8.18267
8.79663
8.94922
8.72452
8.28592
7.74703
7.19905
6.69733
6.26584
5.89426
5.6313
5.49514
5.47365
5.57887
5.83773
6.35324
7.28492
8.95754
12.0908
18.3448
31.4026
56.4808
69.2505
2.22307
2.10467
2.0112
1.94576
1.9008
1.87004
1.84915
1.83516
1.82598
1.8201
1.81648
1.81426
1.81264
1.81058
1.80665
1.79896
1.78585
1.7757
1.77366
1.77513
1.78481
1.80758
1.84084
1.87331
2.37046
2.5632
2.81031
3.12876
3.51937
4.01949
4.68
5.62618
6.8073
8.19151
9.59515
10.7164
11.2543
11.0793
10.4206
9.56225
8.66951
7.85133
7.15713
6.59415
6.1321
5.81073
5.63703
5.58962
5.67699
5.92235
6.42771
7.35336
9.02435
12.1525
18.4119
31.5023
56.6703
69.5536
2.37762
2.21794
2.0902
2.00064
1.93874
1.89612
1.86691
1.8471
1.83387
1.82523
1.81976
1.81645
1.81448
1.81301
1.81094
1.80677
1.79866
1.78519
1.77555
1.7737
1.77531
1.78514
1.80796
1.84097
1.8733
2.57589
2.83242
3.16601
3.58283
4.12702
4.85833
5.95338
7.41443
9.24939
11.2665
13.0958
14.3007
14.5443
13.7878
12.4773
11.043
9.69562
8.54828
7.63047
6.92141
6.363
5.98174
5.77069
5.69811
5.76821
6.00104
6.49697
7.41715
9.07864
12.2048
18.4835
31.6246
56.8721
69.838
2.58715
2.37108
2.19717
2.07515
1.99057
1.93197
1.89154
1.86386
1.84512
1.83265
1.82456
1.81952
1.81654
1.81482
1.81345
1.81133
1.80688
1.79832
1.78453
1.77541
1.77374
1.77548
1.78546
1.80816
1.84099
1.8733
2.85314
3.20087
3.64322
4.22962
5.03212
6.28991
8.06783
10.4234
13.1754
15.9117
18.0762
19.1304
18.7635
17.1083
14.8981
12.7224
10.8192
9.28561
8.11485
7.24633
6.58647
6.1443
5.8963
5.79937
5.8529
6.0741
6.56132
7.46872
9.12433
12.2616
18.5636
31.7519
57.0549
70.2863
2.87115
2.57882
2.34149
2.17586
2.06083
1.98085
1.92535
1.88707
1.86089
1.84322
1.83152
1.824
1.8194
1.81676
1.81525
1.81396
1.81172
1.80695
1.79792
1.78388
1.77528
1.77378
1.77565
1.78564
1.80818
1.84099
1.8733
3.23376
3.70067
4.3271
5.20204
6.63611
8.76204
11.6954
15.2861
19.1109
22.5292
24.8103
25.3578
23.97
21.0446
17.6676
14.5842
12.029
10.057
8.60717
7.56763
6.80218
6.29847
6.0141
5.89374
5.93146
6.14184
6.61316
7.51197
9.17391
12.3237
18.651
31.8853
57.3296
70.5818
3.26194
2.861
2.53662
2.31156
2.15566
2.04703
1.97138
1.91888
1.88272
1.85803
1.84143
1.83051
1.82356
1.8194
1.81707
1.81574
1.81449
1.8121
1.80697
1.79748
1.78324
1.77515
1.77382
1.77575
1.78567
1.80819
1.84099
1.8733
3.75541
4.4197
5.36932
6.99128
9.48883
13.0439
17.5562
22.6242
27.5663
31.5004
33.5383
33.0953
30.1867
25.5765
20.7565
16.605
13.3105
10.8549
9.10399
7.88401
7.00982
6.44439
6.12441
5.98155
6.00426
6.19631
6.65653
7.55875
9.22773
12.3915
18.7457
32.0715
57.567
342.897
3.80173
3.24931
2.80095
2.49465
2.28323
2.13619
2.03358
1.96212
1.91258
1.8785
1.85531
1.83977
1.82962
1.82326
1.8195
1.81746
1.81628
1.81503
1.81244
1.80692
1.797
1.78263
1.77504
1.77385
1.77578
1.78568
1.80819
1.84099
1.87331
4.50779
5.5353
7.35402
10.2386
14.4462
19.9427
26.3762
33.0689
39.0484
43.1792
44.4552
42.4078
37.4006
30.6632
24.1263
18.7577
14.6477
11.6712
9.60181
8.19421
7.20918
6.58227
6.22758
6.06317
6.06275
6.24182
6.70334
7.60934
9.28618
12.4653
18.8564
32.1911
61.4972
427.631
4.58154
3.78748
3.16285
2.74217
2.45498
2.25591
2.11721
2.02043
1.95309
1.90647
1.87445
1.85273
1.83825
1.82888
1.82307
1.8197
1.8179
1.81684
1.81553
1.81271
1.80681
1.79649
1.78206
1.77499
1.77388
1.77579
1.78568
1.80818
1.84097
1.87328
5.70035
7.72214
11.002
15.8803
22.4038
30.2919
38.9095
47.2588
54.0396
57.866
57.6906
53.3025
45.5609
36.2465
27.7319
21.0132
16.0243
12.4977
10.0972
8.49706
7.40014
6.71234
6.32393
6.12893
6.11162
6.29088
6.75383
7.66401
9.34961
12.547
18.9688
32.4471
69.4074
476.055
4.56269
5.84397
3.66185
3.07995
2.68666
2.41672
2.22927
2.09867
2.00761
1.94432
1.90057
1.87059
1.85032
1.83692
1.8283
1.82299
1.81996
1.81837
1.81738
1.81599
1.81291
1.80662
1.79595
1.78173
1.775
1.77389
1.77579
1.78567
1.80816
1.84083
1.87322
8.0914
11.7696
17.3268
24.9008
34.3006
44.9624
55.9198
65.8048
72.9596
75.778
73.2902
65.7228
54.5818
42.2538
31.5246
23.3427
17.4247
13.3269
10.5868
8.79152
7.58262
6.83486
6.40193
6.18396
6.16431
6.34373
6.80824
7.72306
9.41863
12.6354
19.0957
33.0142
74.0918
570.684
4.37159
5.83125
8.4183
3.54399
3.00183
2.63306
2.37942
2.20326
2.0806
1.99516
1.93585
1.89491
1.86695
1.84816
1.83578
1.82784
1.82299
1.82026
1.81885
1.81788
1.81638
1.81303
1.80636
1.79567
1.78166
1.77501
1.77389
1.77578
1.78564
1.80796
1.84057
1.87316
12.5303
18.7681
27.4004
38.3382
51.1112
64.8258
78.1338
89.2471
96.1308
97.0222
91.2026
79.5488
64.3462
48.602
35.4548
25.7188
18.8344
14.1518
11.0678
9.07673
7.75658
6.93486
6.46744
6.24344
6.22106
6.40058
6.8668
7.78683
9.49347
12.7318
19.2656
33.4574
81.697
717.775
4.19896
5.51474
8.44177
13.208
3.4331
2.92641
2.58081
2.34301
2.17791
2.06305
1.98312
1.9277
1.88955
1.86363
1.84626
1.83481
1.82748
1.82304
1.82058
1.8193
1.81833
1.81669
1.81306
1.80631
1.79568
1.78163
1.775
1.77387
1.77575
1.78546
1.80758
1.84029
1.8731
20.1848
29.8734
42.3512
57.2544
73.7924
90.7004
106.197
118.019
123.747
121.576
111.277
94.6025
74.7132
55.203
39.4738
28.1157
20.2404
14.9663
11.5378
9.3519
7.90017
7.01933
6.53851
6.30765
6.28212
6.46168
6.92978
7.85559
9.57463
12.8421
19.4206
34.154
94.6376
868.128
4.03804
5.24001
7.87134
13.3079
21.455
3.32612
2.85294
2.52984
2.30756
2.15331
2.04607
1.97151
1.91994
1.88462
1.86067
1.84458
1.83398
1.8272
1.82313
1.8209
1.81972
1.81872
1.81692
1.81321
1.80643
1.79568
1.78162
1.775
1.77384
1.77565
1.78514
1.80718
1.84
1.87304
32.2891
46.2952
63.3113
82.6656
103.222
123.307
140.644
152.421
155.847
149.278
133.267
110.659
85.5283
61.9687
43.5353
30.5102
21.6317
15.7653
11.9946
9.58151
8.02242
7.11154
6.61557
6.37693
6.34774
6.52723
6.99739
7.92968
9.66346
12.9576
19.613
35.6347
108.027
1032.28
3.88351
4.98895
7.37255
12.2993
21.7232
34.4604
3.22209
2.78137
2.48028
2.27317
2.1295
2.0297
1.96046
1.91279
1.88018
1.85802
1.8431
1.83326
1.82698
1.82324
1.8212
1.82009
1.81905
1.8172
1.81342
1.80649
1.79567
1.78165
1.77498
1.77381
1.77548
1.7848
1.80677
1.8397
1.87298
50.1237
69.2192
91.3314
115.474
140.157
163.257
181.887
192.594
192.303
179.826
156.845
127.465
96.6331
68.8137
47.5969
32.8823
22.9989
16.5446
12.3782
9.77838
8.15695
7.21223
6.69913
6.4516
6.41818
6.59746
7.06987
8.00952
9.75909
13.0854
19.9177
37.3
122.597
1237.62
3.73394
4.75138
6.91504
11.3962
20.099
35.0312
53.5605
3.12099
2.71186
2.43225
2.23992
2.10657
2.0141
1.95023
1.90632
1.87618
1.85564
1.84178
1.83263
1.8268
1.82334
1.82147
1.82043
1.81937
1.81746
1.81354
1.80649
1.79566
1.78171
1.77503
1.77377
1.7753
1.78446
1.80634
1.83939
1.87291
74.9133
99.7083
127.304
156.43
185.239
211.053
230.199
238.503
232.804
212.791
181.623
144.752
107.873
75.6593
51.6219
35.215
24.3339
17.2008
12.7085
9.99662
8.30515
7.32224
6.78969
6.53202
6.49366
6.67253
7.14741
8.09521
9.86254
13.2365
20.2703
39.1763
140.395
1476.5
3.58926
4.52451
6.48273
10.5572
18.608
32.5912
54.6033
79.9991
3.02304
2.64461
2.38589
2.20792
2.08472
1.99966
1.94097
1.90046
1.87257
1.8535
1.8406
1.83206
1.82663
1.82344
1.82175
1.82074
1.81963
1.8176
1.81353
1.80642
1.79565
1.78204
1.77515
1.77374
1.77513
1.7841
1.80591
1.83906
1.87284
107.713
138.619
171.933
206.152
239.026
267.11
285.706
289.912
276.859
247.639
207.186
162.256
119.104
82.4371
55.5788
37.4938
25.4596
17.7669
13.0761
10.2389
8.4686
7.44249
6.88782
6.61851
6.57438
6.75259
7.23014
8.18699
9.97566
13.4048
20.6765
41.6283
160.831
1798.39
3.44972
4.30806
6.07147
9.75988
17.1923
30.3222
51.1282
81.6909
114.798
2.92852
2.57983
2.34134
2.17747
2.06451
1.98658
1.93257
1.89516
1.86931
1.85156
1.83952
1.83154
1.8265
1.82361
1.82202
1.82097
1.81977
1.8176
1.81341
1.80629
1.79593
1.78262
1.77527
1.7737
1.77495
1.78375
1.80546
1.83872
1.87277
149.319
186.567
225.758
265.192
302.042
331.757
348.354
346.37
323.817
283.77
233.111
179.731
130.202
89.0889
59.4412
39.4156
26.4313
18.3978
13.4857
10.5082
8.64908
7.57401
6.99411
6.71141
6.66052
6.83773
7.31811
8.28518
10.0983
13.5916
21.2156
44.5574
188.53
2198.96
3.31557
4.10212
5.68143
9.00007
15.82
28.1366
47.8884
76.9296
117.281
158.657
2.83772
2.51772
2.29901
2.14935
2.0462
1.97471
1.92496
1.89035
1.86634
1.84979
1.83852
1.83108
1.82648
1.82378
1.8222
1.82111
1.81977
1.81745
1.81319
1.80635
1.79647
1.78323
1.7754
1.77366
1.77478
1.78339
1.805
1.83836
1.8727
200.233
243.973
289.257
334.123
374.823
405.228
417.887
407.206
372.897
320.553
258.994
196.962
141.062
95.5665
62.6947
41.0744
27.5145
19.1019
13.9429
10.808
8.84862
7.71793
7.10918
6.81102
6.7522
6.92795
7.41132
8.38995
10.2309
13.8132
21.8772
48.6481
222.903
2602.3
3.18713
3.90651
5.31426
8.27744
14.4801
25.9906
44.7452
72.5216
110.926
161.983
211.913
2.75092
2.45887
2.26001
2.12391
2.02962
1.96395
1.91804
1.88597
1.86362
1.84815
1.83765
1.83083
1.82653
1.82389
1.82232
1.8211
1.81962
1.81719
1.81304
1.8066
1.79699
1.78387
1.77554
1.77362
1.77461
1.78303
1.80453
1.83799
1.87262
260.712
311.177
362.971
413.635
457.945
487.652
493.822
471.547
423.232
357.367
284.484
213.768
151.6
101.007
65.4996
42.9222
28.7237
19.8888
14.4539
11.1422
9.06951
7.8755
7.23368
6.91762
6.84946
7.02314
7.50971
8.50122
10.3761
14.0705
22.839
53.8435
260.086
2994.5
3.06482
3.72062
4.97221
7.59401
13.1777
23.8657
41.6362
68.245
105.135
153.63
215.982
274.589
2.66895
2.4048
2.22481
2.1009
2.01459
1.95418
1.91175
1.88196
1.8611
1.84671
1.83708
1.83072
1.82656
1.824
1.82232
1.82096
1.81936
1.81691
1.81301
1.80679
1.79747
1.78453
1.7757
1.77359
1.77445
1.78268
1.80405
1.83761
1.87254
330.903
388.607
447.661
504.618
552.097
579.045
575.422
538.335
473.922
393.653
309.283
230.007
160.412
105.687
68.6186
44.983
30.075
20.7696
15.0258
11.5155
9.31431
8.04811
7.36828
7.03145
6.95225
7.12312
7.61293
8.61907
10.5347
14.4317
24.1175
59.4709
298.931
3360.95
2.9498
3.54413
4.65888
6.95407
11.9239
21.762
38.5288
64.0122
99.5576
146.195
205.074
279.081
346.542
2.59389
2.35615
2.19304
2.08008
2.00096
1.9453
1.90599
1.87826
1.85889
1.84572
1.83677
1.83066
1.82665
1.82399
1.82219
1.82073
1.81903
1.81667
1.81289
1.80691
1.79791
1.78519
1.77587
1.77356
1.77431
1.78234
1.80357
1.8372
1.87246
411.065
477.036
544.478
608.45
658.166
679.227
661.648
606.382
524.118
428.933
333.157
243.524
167.968
110.875
72.0892
47.2833
31.5871
21.7565
15.6668
11.9327
9.58594
8.23726
7.51366
7.15265
7.0604
7.22743
7.72056
8.74327
10.7422
14.9063
25.5579
65.3934
337.916
3685.89
2.845
3.37836
4.37138
6.36034
10.7306
19.6896
35.4123
59.7676
94.0744
139.141
195.648
264.833
350.848
427.706
2.52661
2.3124
2.16438
2.06125
1.98859
1.93719
1.90069
1.875
1.85734
1.84515
1.83659
1.83074
1.82664
1.82387
1.82201
1.82041
1.8187
1.81635
1.81269
1.80695
1.7983
1.78585
1.77606
1.77355
1.77418
1.78201
1.80307
1.8368
1.87238
501.857
577.621
655.417
727.225
777.151
787.676
751.171
674.48
573.066
462.827
352.937
255.068
176.309
116.626
75.9527
49.8529
33.2807
22.8637
16.386
12.3997
9.88764
8.44461
7.6705
7.28131
7.17353
7.33556
7.83184
8.89824
10.9975
15.4425
27.1152
71.4722
375.419
3963.4
2.75154
3.2273
4.10947
5.81659
9.61209
17.6631
32.2903
55.4811
88.5974
132.308
186.9
252.935
332.138
430.893
518.443
2.46634
2.27306
2.13851
2.0442
1.97732
1.92973
1.89602
1.87269
1.85641
1.84482
1.83667
1.83073
1.82654
1.82376
1.82174
1.82006
1.81831
1.81596
1.81241
1.80693
1.79865
1.78649
1.77627
1.77356
1.77408
1.78169
1.80259
1.8364
1.8723
604.124
692.71
783.864
863.753
909.912
903.417
842.485
741.479
620.141
490.815
369.769
267.755
185.511
123
80.2536
52.7246
35.1791
24.1071
17.194
12.9231
10.2231
8.67195
7.83948
7.41733
7.29122
7.44651
7.96715
9.07718
11.2705
16.0273
28.7418
77.6265
410.577
4188.5
2.66826
3.09263
3.87679
5.32773
8.5791
15.6994
29.1748
51.1392
83.0661
125.565
178.62
242.196
317.101
406.061
519.263
619.953
2.41236
2.23767
2.11516
2.0287
1.96699
1.92318
1.89265
1.87128
1.85588
1.8449
1.83666
1.83064
1.8265
1.82358
1.82145
1.81969
1.81785
1.8155
1.81207
1.80686
1.79895
1.78712
1.77651
1.77359
1.77401
1.7814
1.80212
1.83601
1.87222
720.389
827.05
934.922
1021.33
1056.87
1025.12
934.017
806.357
658.988
514.564
388.188
281.677
195.651
130.059
85.04
55.9346
37.3081
25.5044
18.1024
13.51
10.5963
8.92121
8.0212
7.56062
7.41251
7.58013
8.11715
9.25519
11.5568
16.639
30.4471
83.5205
442.587
4360.1
2.59404
2.97291
3.67231
4.90514
7.64281
13.8233
26.0844
46.7389
77.4374
118.81
170.623
232.345
303.958
386.983
485.745
617.081
734.571
2.36402
2.20585
2.09401
2.01455
1.95791
1.9184
1.8906
1.87051
1.85597
1.8449
1.83657
1.8307
1.82645
1.82341
1.82117
1.81927
1.81734
1.81499
1.81169
1.80675
1.79921
1.78774
1.77678
1.77363
1.77396
1.78113
1.80167
1.83562
1.87214
855.975
988.283
1115.53
1203.54
1218.31
1151.31
1024.16
860.11
691.907
540.454
408.289
296.919
206.803
137.865
90.3631
59.5217
39.6963
27.0757
19.1244
14.1688
11.0117
9.19444
8.21634
7.71056
7.55946
7.72591
8.25819
9.42946
11.8473
17.29
32.1492
89.2849
470.787
4488.71
2.52789
2.86676
3.49108
4.55191
6.82964
12.0773
23.0471
42.2864
71.6771
111.958
162.753
223.119
292.347
370.871
461.446
570.771
726.174
868.077
2.32075
2.17713
2.07477
2.00212
1.95122
1.91549
1.8895
1.87061
1.85596
1.8448
1.83675
1.8308
1.82646
1.82331
1.82087
1.81881
1.8168
1.81446
1.8113
1.80663
1.79946
1.78837
1.77708
1.77369
1.77394
1.78089
1.80124
1.83525
1.87206
1019.52
1187.81
1334.99
1415.76
1395.35
1280.03
1099.7
905.713
727.711
568.574
430.152
313.554
219.037
146.481
96.275
63.5274
42.3747
28.8427
20.2745
14.9085
11.4743
9.49393
8.42513
7.89562
7.72135
7.85898
8.38777
9.59593
12.1507
17.9568
33.8384
94.6945
496.105
4558.67
2.46892
2.77278
3.32995
4.25522
6.14345
10.5278
20.1208
37.8013
65.7598
104.926
154.871
214.299
281.898
357.225
441.634
539.72
661.426
850.07
1029.69
2.2819
2.15112
2.05788
1.99289
1.94713
1.91398
1.88961
1.8706
1.85587
1.84513
1.83706
1.83105
1.8266
1.8232
1.82055
1.81834
1.81625
1.81393
1.81091
1.80652
1.79972
1.789
1.77742
1.77378
1.77393
1.78067
1.80083
1.83489
1.87199
1226.25
1443.41
1610.91
1669.1
1589
1390.15
1164.06
955.294
766.457
598.973
453.828
331.64
232.415
155.967
102.828
67.9948
45.3763
30.8292
21.5689
15.739
11.9895
9.82166
8.6895
8.10583
7.8709
7.97709
8.50346
9.76033
12.4601
18.6187
35.4721
99.764
517.359
4604.11
2.41623
2.68957
3.18677
4.0026
5.56882
9.20475
17.4178
33.3495
59.6735
97.6361
146.833
205.681
272.31
345.507
425.586
515.294
621.845
759.313
998.521
1235.27
2.24689
2.12834
2.04519
1.98728
1.9451
1.91413
1.88961
1.8705
1.85639
1.84571
1.83763
1.83151
1.82677
1.82309
1.82023
1.81787
1.81572
1.81343
1.81057
1.80645
1.80002
1.78965
1.77778
1.77387
1.77395
1.78047
1.80043
1.83454
1.87191
1505.78
1800.3
1981.61
1984.72
1758.86
1484.36
1234.04
1008.8
808.117
631.643
479.332
351.211
246.982
166.375
110.073
72.9672
48.7355
33.0606
23.0247
16.6714
12.5628
10.2469
9.00187
8.307
8.00634
8.07871
8.60885
9.92047
12.7599
19.2643
37.0628
104.386
537.366
4598.46
2.369
2.61569
3.05985
3.78463
5.09156
8.08433
15.0078
29.0976
53.4688
90.0157
138.488
197.052
263.3
335.31
412.486
496.399
591.709
709.33
869.756
1193.53
1522.05
2.21627
2.11106
2.03749
1.98464
1.94529
1.91413
1.88949
1.87127
1.85734
1.8467
1.83851
1.83204
1.82695
1.823
1.81993
1.81743
1.81523
1.81299
1.81029
1.80644
1.80035
1.79031
1.77818
1.77399
1.77398
1.78028
1.80006
1.83421
1.87184
1968.47
2359.23
2552.79
2263.74
1903.24
1586.24
1309.21
1066
852.559
666.51
506.629
372.265
262.763
177.744
118.054
78.4863
52.4874
35.5637
24.6609
17.7168
13.3192
10.767
9.31421
8.49779
8.12628
8.16606
8.70354
10.0665
13.0466
19.8901
38.5683
108.74
554.217
4574.74
2.32784
2.54984
2.9475
3.59393
4.69894
7.14793
12.9038
25.173
47.351
82.0633
129.679
188.179
254.586
326.253
401.788
481.741
569.467
672.274
806.679
1005.65
1485.38
2044.02
2.19278
2.10072
2.03406
1.98489
1.94529
1.91398
1.89059
1.8727
1.8589
1.84816
1.83952
1.83261
1.82717
1.82295
1.81967
1.81705
1.81481
1.81263
1.8101
1.80652
1.80073
1.79098
1.77861
1.77411
1.77401
1.7801
1.7997
1.8339
1.87177
2786.29
3476.29
3019.86
2490.98
2055.15
1693.92
1388.71
1126.47
899.529
703.415
535.625
394.76
279.754
190.098
126.806
84.5896
56.6655
38.3655
26.496
19.1065
14.2653
11.3059
9.6254
8.67714
8.23166
8.23956
8.78114
10.1971
13.3199
20.49
40.0035
112.733
569.648
4523.92
2.29601
2.49269
2.84813
3.42532
4.37762
6.37405
11.1026
21.612
41.5037
73.9824
120.31
178.806
245.858
317.981
392.984
470.58
553.024
646.127
761.457
925.148
1197.89
2037.73
3161.56
2.17875
2.09637
2.03439
1.98489
1.9451
1.91549
1.89269
1.87505
1.86114
1.84982
1.84061
1.83324
1.82745
1.82296
1.81948
1.81674
1.81448
1.81237
1.81002
1.80668
1.80116
1.79166
1.77906
1.77424
1.77405
1.77993
1.79935
1.8336
1.87173
4824.6
4176.62
3347.91
2711.23
2209.46
1805.23
1471.45
1189.61
948.65