/*--------------------------------*- C++ -*----------------------------------*\
  =========                 |
  \\      /  F ield         | OpenFOAM: The Open Source CFD Toolbox
   \\    /   O peration     | Website:  https://openfoam.org
    \\  /    A nd           | Version:  8
     \\/     M anipulation  |
\*---------------------------------------------------------------------------*/
FoamFile
{
    version     2.0;
    format      ascii;
    class       volScalarField;
    location    "0.01";
    object      k;
}
// * * * * * * * * * * * * * * * * * * * * * * * * * * * * * * * * * * * * * //

dimensions      [0 2 -2 0 0 0 0];

internalField   nonuniform List<scalar> 
15677
(
0.334556
0.365406
0.295197
0.369054
0.357897
0.279767
0.370953
0.360336
0.365526
0.280041
0.372094
0.362059
0.361018
0.380372
0.28316
0.372779
0.364237
0.357371
0.365556
0.394385
0.289525
0.373175
0.366163
0.35758
0.355471
0.373823
0.405817
0.295314
0.373375
0.367652
0.359242
0.352335
0.356469
0.381635
0.413977
0.299587
0.373443
0.368731
0.361155
0.352864
0.349414
0.359084
0.387782
0.419396
0.302363
0.373432
0.369453
0.362863
0.354707
0.348285
0.348764
0.361997
0.392154
0.422678
0.303931
0.37339
0.369881
0.36423
0.356802
0.349673
0.345907
0.349093
0.364447
0.394966
0.424373
0.304677
0.373346
0.370085
0.365238
0.358717
0.351885
0.346627
0.344989
0.349956
0.366285
0.396494
0.425077
0.305042
0.373314
0.370144
0.365917
0.360299
0.354156
0.348716
0.345146
0.344983
0.350928
0.367399
0.397093
0.425319
0.305282
0.373298
0.370128
0.366318
0.361504
0.356168
0.35112
0.347044
0.344668
0.345267
0.351639
0.367855
0.397182
0.425432
0.305518
0.373294
0.370089
0.366519
0.362343
0.357796
0.353366
0.349448
0.346355
0.344663
0.345682
0.351966
0.367912
0.397151
0.42551
0.305724
0.373294
0.370061
0.366596
0.362858
0.359003
0.355247
0.351778
0.348682
0.346164
0.344802
0.345907
0.352048
0.36788
0.397035
0.425579
0.306078
0.373294
0.370045
0.366609
0.36313
0.359805
0.356686
0.353773
0.351004
0.348385
0.34618
0.344948
0.346001
0.352059
0.367767
0.396879
0.425712
0.306378
0.373295
0.370036
0.366605
0.363236
0.360263
0.357675
0.355324
0.353024
0.350656
0.348333
0.346247
0.345039
0.346062
0.352036
0.367629
0.396776
0.425861
0.306918
0.373295
0.370031
0.366597
0.36327
0.360459
0.358264
0.356408
0.354613
0.352658
0.350563
0.348359
0.346329
0.34513
0.346121
0.352027
0.367547
0.396729
0.426145
0.307374
0.373295
0.370028
0.36659
0.363278
0.360533
0.358527
0.357068
0.355735
0.354249
0.352548
0.350577
0.348427
0.34644
0.345249
0.346216
0.352065
0.367544
0.39674
0.426421
0.308161
0.373295
0.370026
0.366584
0.363278
0.360557
0.358629
0.357371
0.356426
0.355383
0.354137
0.352559
0.350638
0.348555
0.346607
0.345425
0.346399
0.352192
0.367605
0.396805
0.426978
0.308741
0.373295
0.370025
0.366581
0.363276
0.360563
0.358666
0.357494
0.356751
0.356088
0.355277
0.354148
0.352621
0.350774
0.348763
0.34686
0.345733
0.346698
0.352477
0.367779
0.397045
0.427445
0.309916
0.373294
0.370025
0.36658
0.363275
0.360563
0.358677
0.357541
0.356888
0.356424
0.35599
0.355291
0.354216
0.352767
0.351021
0.349089
0.347278
0.346185
0.34721
0.35292
0.368178
0.39732
0.428413
0.310666
0.373294
0.370025
0.366581
0.363275
0.360562
0.358679
0.357558
0.356947
0.35657
0.356331
0.356006
0.355363
0.354372
0.353045
0.351413
0.349605
0.347877
0.346879
0.347911
0.353605
0.368603
0.397947
0.429122
0.312096
0.373294
0.370025
0.366581
0.363276
0.360561
0.358678
0.357564
0.356973
0.356634
0.356478
0.356348
0.356082
0.355528
0.354672
0.353492
0.352018
0.350343
0.348746
0.347815
0.348881
0.354394
0.369448
0.398466
0.430503
0.312996
0.373295
0.370024
0.366582
0.363276
0.360561
0.358677
0.357567
0.356986
0.356664
0.356538
0.356494
0.356425
0.356252
0.355845
0.355163
0.354175
0.352882
0.351383
0.349914
0.349064
0.350064
0.355631
0.370257
0.399497
0.431454
0.314816
0.373295
0.370024
0.366581
0.363276
0.360564
0.358679
0.357568
0.356993
0.356681
0.356563
0.356553
0.35657
0.356597
0.356578
0.356365
0.355908
0.355151
0.354085
0.352777
0.351451
0.350635
0.351696
0.356984
0.371536
0.400289
0.433361
0.315998
0.373295
0.370024
0.366579
0.363276
0.360568
0.358686
0.357572
0.356996
0.356689
0.356571
0.356575
0.356626
0.35674
0.356925
0.357114
0.357155
0.356975
0.356502
0.355697
0.354604
0.353405
0.352685
0.3536
0.358779
0.372796
0.401869
0.434703
0.318178
0.373295
0.370023
0.366577
0.363275
0.360575
0.358697
0.35758
0.356996
0.356689
0.356569
0.35658
0.356643
0.356792
0.357066
0.35747
0.357933
0.358291
0.358451
0.35831
0.357803
0.356934
0.355896
0.355151
0.355968
0.360803
0.374735
0.403193
0.437192
0.31949
0.373295
0.370022
0.366575
0.363275
0.360583
0.358713
0.357593
0.356999
0.356685
0.35656
0.356574
0.356642
0.356805
0.357113
0.357615
0.358306
0.359117
0.359864
0.360429
0.360675
0.360494
0.359872
0.358927
0.358154
0.358732
0.36341
0.376717
0.405309
0.438728
0.321728
0.373295
0.370022
0.366573
0.363275
0.360591
0.358729
0.357609
0.357005
0.356681
0.356548
0.356562
0.356632
0.356799
0.35712
0.357667
0.358465
0.35952
0.36076
0.361976
0.363016
0.363696
0.363871
0.363466
0.362591
0.361697
0.362071
0.366316
0.379224
0.406998
0.441775
0.324013
0.373295
0.370021
0.366571
0.363275
0.360599
0.358746
0.357628
0.357015
0.35668
0.356537
0.356547
0.356614
0.356783
0.357107
0.357677
0.358528
0.359701
0.36121
0.362972
0.364741
0.366323
0.367481
0.368008
0.367797
0.366919
0.365874
0.36586
0.369641
0.381807
0.40949
0.443411
0.32649
0.373295
0.370021
0.36657
0.363276
0.360607
0.358761
0.357645
0.357026
0.356684
0.356533
0.356534
0.356596
0.356763
0.357087
0.35767
0.358551
0.359785
0.361427
0.363492
0.365875
0.368279
0.370464
0.37212
0.372989
0.372913
0.371979
0.370638
0.370156
0.373262
0.384861
0.412209
0.446307
0.328986
0.373295
0.37002
0.36657
0.363277
0.360614
0.358775
0.357661
0.357038
0.35669
0.356534
0.356528
0.356582
0.356743
0.357067
0.357659
0.35856
0.359831
0.361546
0.363764
0.366494
0.369596
0.372714
0.375541
0.377703
0.378868
0.378871
0.377752
0.376017
0.374913
0.377308
0.388625
0.415524
0.449657
0.331682
0.373294
0.37002
0.36657
0.363279
0.360621
0.358786
0.357673
0.357048
0.356698
0.35654
0.356528
0.356575
0.35673
0.357052
0.357651
0.358567
0.359864
0.361626
0.363934
0.366847
0.370354
0.374269
0.378157
0.381655
0.384293
0.385704
0.385663
0.38426
0.381972
0.380166
0.382246
0.393209
0.419104
0.45338
0.334496
0.370019
0.373297
0.366571
0.363281
0.360627
0.358795
0.357683
0.357056
0.356706
0.356549
0.356534
0.356577
0.356727
0.357047
0.357652
0.358581
0.359899
0.361698
0.364068
0.367096
0.370824
0.375215
0.380017
0.38472
0.388874
0.391951
0.393495
0.393314
0.391455
0.388514
0.386514
0.388243
0.398099
0.422969
0.457373
0.337499
0.366572
0.37003
0.373302
0.363284
0.360633
0.358802
0.357689
0.357062
0.356712
0.356559
0.356544
0.356584
0.356731
0.357052
0.357665
0.358606
0.359943
0.361773
0.364198
0.367313
0.37119
0.375852
0.381215
0.386964
0.392481
0.397268
0.40068
0.402266
0.401765
0.399338
0.396381
0.394183
0.394644
0.403285
0.427093
0.461564
0.340497
0.363287
0.366592
0.370051
0.373308
0.360638
0.358808
0.357693
0.357064
0.356716
0.356567
0.356554
0.356594
0.356742
0.357066
0.357689
0.358641
0.359997
0.361859
0.364334
0.36753
0.37153
0.376389
0.382086
0.388495
0.395202
0.401518
0.406843
0.410506
0.411949
0.411011
0.408794
0.405836
0.402352
0.401371
0.408727
0.431488
0.465803
0.343596
0.360643
0.363315
0.366633
0.370073
0.373314
0.358812
0.357695
0.357065
0.356718
0.356573
0.356563
0.356606
0.356756
0.357086
0.35772
0.358685
0.36006
0.361956
0.364485
0.367761
0.371882
0.376913
0.382865
0.389684
0.397164
0.404824
0.411847
0.417631
0.421356
0.422537
0.422085
0.420118
0.415878
0.410901
0.408345
0.414301
0.436051
0.470103
0.346604
0.358815
0.360672
0.363369
0.366675
0.370095
0.373319
0.357695
0.357063
0.356718
0.356577
0.35657
0.356617
0.356772
0.357108
0.357755
0.358733
0.360129
0.362058
0.364647
0.368013
0.372258
0.377464
0.383653
0.3908
0.398776
0.40734
0.415862
0.42351
0.429556
0.433224
0.43521
0.435316
0.43211
0.426351
0.419713
0.415504
0.419965
0.440717
0.474347
0.349675
0.357694
0.358838
0.360728
0.363426
0.36672
0.370117
0.373324
0.357059
0.356715
0.356579
0.356575
0.356626
0.356787
0.357132
0.35779
0.358783
0.360201
0.362164
0.364811
0.368277
0.372666
0.378058
0.384495
0.391961
0.400352
0.409507
0.419071
0.42838
0.436437
0.442621
0.44743
0.450335
0.449299
0.444583
0.4371
0.428683
0.422753
0.425679
0.445396
0.47859
0.352612
0.357055
0.357705
0.358881
0.360786
0.363487
0.366767
0.37014
0.37333
0.356711
0.356579
0.356578
0.356633
0.3568
0.357154
0.357825
0.358832
0.360272
0.36227
0.364975
0.368538
0.373089
0.378702
0.38541
0.393218
0.402025
0.411698
0.421952
0.432451
0.442316
0.450639
0.458279
0.464389
0.4663
0.463812
0.457345
0.447987
0.437704
0.43001
0.431377
0.450075
0.482707
0.355583
0.356705
0.357056
0.357728
0.358925
0.360847
0.36355
0.366815
0.370164
0.373335
0.356577
0.35658
0.356639
0.356811
0.357175
0.357857
0.358878
0.360339
0.362373
0.365136
0.368794
0.373505
0.37937
0.386405
0.394595
0.40386
0.414067
0.424945
0.436242
0.44743
0.45771
0.467719
0.47701
0.482295
0.482855
0.478631
0.470225
0.45888
0.446673
0.437198
0.437024
0.454676
0.486786
0.3584
0.356574
0.356701
0.357062
0.357751
0.358972
0.360911
0.363616
0.366865
0.370187
0.373341
0.356579
0.356642
0.356821
0.357194
0.357885
0.358919
0.360402
0.36247
0.365289
0.369041
0.373907
0.380022
0.387438
0.396099
0.405885
0.416694
0.428234
0.440274
0.45235
0.46409
0.476315
0.488243
0.496831
0.500872
0.499742
0.493553
0.483066
0.469659
0.455503
0.44426
0.442564
0.459213
0.490688
0.361219
0.356577
0.356569
0.356698
0.357068
0.357777
0.359022
0.360978
0.363685
0.366916
0.37021
0.373347
0.356644
0.356828
0.35721
0.357909
0.358956
0.360458
0.362559
0.365433
0.369276
0.374292
0.380649
0.388447
0.397665
0.40811
0.419614
0.431917
0.44477
0.457689
0.470408
0.48436
0.498819
0.510067
0.517448
0.519838
0.516731
0.508393
0.495726
0.480217
0.46412
0.451141
0.447975
0.463613
0.494532
0.363885
0.356645
0.356572
0.356562
0.356694
0.357075
0.357804
0.359074
0.361049
0.363757
0.366969
0.370234
0.373353
0.356833
0.357223
0.35793
0.358987
0.360507
0.362639
0.365565
0.369494
0.374653
0.381245
0.389416
0.399199
0.410441
0.422846
0.436048
0.449857
0.463721
0.477396
0.492554
0.509104
0.522917
0.532882
0.538564
0.538938
0.533617
0.522991
0.508082
0.49047
0.472464
0.457804
0.453215
0.467905
0.498163
0.366495
0.356836
0.356639
0.356564
0.356553
0.35669
0.357083
0.357835
0.359131
0.361123
0.363832
0.367023
0.370257
0.373359
0.357234
0.357947
0.359013
0.36055
0.362709
0.365683
0.369693
0.374989
0.381805
0.390335
0.400672
0.412732
0.426255
0.440657
0.455614
0.470617
0.485395
0.501784
0.51988
0.535863
0.5483
0.556362
0.559897
0.557942
0.550214
0.537207
0.520036
0.500348
0.48049
0.464214
0.458275
0.47202
0.50172
0.368972
0.357242
0.356829
0.356627
0.356553
0.356543
0.356687
0.357095
0.35787
0.359192
0.361202
0.363911
0.367078
0.370279
0.373366
0.357961
0.359035
0.360585
0.36277
0.365787
0.369873
0.375296
0.382323
0.391197
0.402071
0.414942
0.429628
0.445557
0.462095
0.478495
0.494642
0.512495
0.532256
0.549776
0.564347
0.574636
0.580206
0.581192
0.576642
0.566367
0.55093
0.531513
0.509803
0.488163
0.470351
0.463126
0.475997
0.505037
0.37143
0.357972
0.35723
0.356809
0.356613
0.356542
0.356535
0.356687
0.357111
0.357909
0.359257
0.361284
0.363993
0.367134
0.370301
0.373373
0.359052
0.360615
0.362822
0.365879
0.370034
0.375574
0.382798
0.391996
0.403385
0.417048
0.432898
0.450442
0.469049
0.487455
0.505325
0.525028
0.546847
0.566057
0.582
0.594232
0.601609
0.604134
0.602216
0.594867
0.581952
0.564077
0.542458
0.518797
0.495462
0.476197
0.467765
0.479778
0.50832
0.373568
0.359066
0.357947
0.357194
0.356787
0.356599
0.356532
0.356529
0.356692
0.357132
0.357954
0.359327
0.361371
0.364078
0.367188
0.370321
0.373379
0.360638
0.362865
0.365958
0.370175
0.375823
0.38323
0.392731
0.404607
0.419034
0.43603
0.455209
0.476048
0.497177
0.517616
0.539685
0.564177
0.585564
0.60304
0.616267
0.625203
0.628919
0.627891
0.622772
0.612479
0.596879
0.57659
0.552835
0.527312
0.502374
0.481744
0.472178
0.483412
0.511252
0.375897
0.360659
0.359023
0.357879
0.357154
0.356765
0.356586
0.356525
0.356527
0.356703
0.35716
0.358003
0.359402
0.361463
0.364164
0.367239
0.37034
0.373386
0.362901
0.366026
0.3703
0.376046
0.38362
0.393401
0.405735
0.42089
0.438998
0.459804
0.482943
0.507064
0.531113
0.556774
0.584783
0.609127
0.628687
0.643019
0.652298
0.656957
0.656288
0.651255
0.6427
0.629372
0.611081
0.588432
0.562626
0.535338
0.508893
0.486989
0.476368
0.486824
0.514277
0.37788
0.362934
0.360589
0.358909
0.357806
0.357115
0.356744
0.356575
0.356521
0.356532
0.356721
0.357194
0.358058
0.359481
0.361557
0.364248
0.367288
0.370358
0.373393
0.366082
0.370407
0.376242
0.383969
0.394008
0.406768
0.422611
0.441784
0.46419
0.489653
0.516886
0.544998
0.57584
0.609284
0.637689
0.66027
0.676268
0.685851
0.689843
0.689215
0.683472
0.674046
0.661876
0.645469
0.624518
0.599585
0.571824
0.542874
0.515021
0.491933
0.480327
0.490107
0.516886
0.37977
0.366136
0.362827
0.360407
0.358786
0.357734
0.357077
0.356726
0.356569
0.356524
0.356545
0.356749
0.357235
0.358116
0.359561
0.361652
0.364331
0.367335
0.370375
0.3734
0.3705
0.376415
0.384281
0.394557
0.407711
0.424197
0.444382
0.468342
0.496106
0.526507
0.558977
0.595825
0.63723
0.672423
0.699484
0.718231
0.728556
0.731493
0.728701
0.721743
0.710272
0.696122
0.680215
0.660723
0.637171
0.610044
0.580435
0.549928
0.520766
0.49658
0.484068
0.493168
0.51956
0.381789
0.370587
0.365979
0.362546
0.360212
0.358666
0.357665
0.357042
0.356712
0.35657
0.356536
0.356569
0.356785
0.357281
0.358176
0.359642
0.361746
0.364411
0.367379
0.370391
0.373407
0.376566
0.384558
0.395051
0.408569
0.425652
0.446791
0.472244
0.502252
0.535836
0.572909
0.61631
0.667088
0.71309
0.748768
0.772212
0.784311
0.786136
0.780051
0.768749
0.754359
0.736532
0.717382
0.697658
0.675111
0.649037
0.61982
0.588471
0.556513
0.52614
0.500939
0.487585
0.49608
0.521963
0.383085
0.376709
0.370363
0.365554
0.362245
0.360021
0.358549
0.357599
0.357012
0.356705
0.356579
0.356558
0.356604
0.35683
0.357328
0.358236
0.359722
0.36184
0.364489
0.367421
0.370408
0.373414
0.384805
0.395493
0.409345
0.426984
0.449016
0.475891
0.508062
0.544821
0.586671
0.636956
0.698177
0.758055
0.809379
0.843666
0.859587
0.860567
0.849882
0.831738
0.809922
0.786931
0.762139
0.737755
0.714178
0.688629
0.660128
0.628931
0.595953
0.562648
0.531154
0.50502
0.490891
0.498824
0.523929
0.384557
0.385036
0.376397
0.369733
0.365102
0.361952
0.359835
0.358436
0.357537
0.356987
0.356706
0.356599
0.356592
0.35665
0.356879
0.357375
0.358294
0.359802
0.361933
0.364564
0.367462
0.370424
0.373421
0.395891
0.410047
0.428199
0.451066
0.479284
0.513526
0.553431
0.600124
0.657419
0.730221
0.807386
0.880941
0.937346
0.964956
0.966093
0.949166
0.92063
0.886752
0.85217
0.819354
0.787012
0.757203
0.729765
0.701288
0.670465
0.637401
0.602904
0.568351
0.535826
0.508833
0.493995
0.501029
0.525721
0.38578
0.396262
0.384613
0.375475
0.369066
0.364663
0.361668
0.359655
0.358328
0.357481
0.356971
0.356718
0.356631
0.356639
0.356705
0.35693
0.35742
0.358351
0.359881
0.362023
0.364635
0.3675
0.37044
0.373427
0.410687
0.429305
0.452948
0.482431
0.518645
0.561643
0.613132
0.677483
0.763306
0.861776
0.964418
1.0532
1.1084
1.11886
1.09468
1.05131
0.998748
0.945108
0.895402
0.851535
0.811095
0.775707
0.744428
0.71311
0.680079
0.64526
0.60935
0.573646
0.540172
0.512391
0.496512
0.502926
0.527349
0.387453
0.411273
0.3957
0.383281
0.374506
0.368421
0.364237
0.36139
0.35948
0.358226
0.357432
0.356965
0.356743
0.356676
0.356697
0.356766
0.356979
0.357461
0.358406
0.359959
0.362109
0.364702
0.367537
0.370456
0.373431
0.430322
0.454676
0.485342
0.523428
0.569436
0.625592
0.697112
0.797685
0.92144
1.05924
1.18897
1.28485
1.32615
1.30607
1.24505
1.16652
1.08385
1.00654
0.939447
0.88338
0.83435
0.793265
0.758187
0.724128
0.689003
0.652541
0.615321
0.578556
0.544211
0.515269
0.498633
0.504935
0.529499
0.38918
0.431238
0.410544
0.393801
0.381895
0.373571
0.367795
0.363821
0.361119
0.359312
0.358132
0.357394
0.356972
0.356781
0.356733
0.356761
0.356828
0.357025
0.357499
0.358458
0.360035
0.362192
0.364766
0.367572
0.370463
0.37343
0.456276
0.488034
0.527888
0.576793
0.637451
0.716382
0.833452
0.985594
1.16251
1.33882
1.48461
1.57288
1.58553
1.52196
1.41385
1.29273
1.17479
1.07049
0.984048
0.914782
0.856748
0.80989
0.771073
0.734377
0.697274
0.659278
0.620845
0.583104
0.547465
0.517685
0.500927
0.507214
0.531472
0.390742
0.457697
0.430308
0.407866
0.391841
0.380559
0.372665
0.367183
0.363414
0.360857
0.359152
0.358048
0.357367
0.356992
0.356832
0.356798
0.356828
0.356891
0.357067
0.357534
0.35851
0.360108
0.36227
0.364825
0.367589
0.37046
0.37343
0.49054
0.532046
0.583716
0.648698
0.735383
0.870382
1.05267
1.27028
1.49555
1.69641
1.84205
1.90709
1.87738
1.75935
1.59614
1.4269
1.26996
1.13617
1.02888
0.945623
0.87827
0.825603
0.783122
0.743899
0.704931
0.665506
0.625951
0.586758
0.55019
0.520299
0.503431
0.509611
0.533717
0.393255
0.492733
0.456533
0.426566
0.405128
0.389957
0.379265
0.371779
0.366584
0.363018
0.360605
0.359004
0.357975
0.357354
0.357027
0.356894
0.356868
0.356896
0.356949
0.357104
0.357566
0.358559
0.360179
0.362343
0.364859
0.36759
0.370458
0.37343
0.535938
0.590222
0.659364
0.754165
0.907991
1.12088
1.37884
1.65287
1.91041
2.11913
2.24889
2.27644
2.19236
2.01094
1.78677
1.56579
1.36753
1.20272
1.07357
0.975782
0.898901
0.840428
0.794373
0.752734
0.712014
0.671259
0.630046
0.589812
0.553131
0.523129
0.506143
0.512317
0.536676
0.394918
0.539303
0.49131
0.451339
0.422778
0.402499
0.388131
0.378001
0.370913
0.366001
0.362636
0.360366
0.358868
0.357916
0.357356
0.357072
0.356963
0.356941
0.35696
0.357003
0.357136
0.357596
0.358607
0.360246
0.362387
0.364867
0.36759
0.370458
0.37343
0.596344
0.669507
0.772738
0.945698
1.1886
1.48536
1.8063
2.11952
2.39295
2.59439
2.69406
2.67122
2.52229
2.27032
1.98115
1.70639
1.46578
1.26926
1.11775
1.00514
0.91863
0.854395
0.804867
0.760926
0.71856
0.675868
0.633465
0.593102
0.556303
0.526191
0.509112
0.515232
0.538565
0.433621
0.601589
0.537591
0.484129
0.446137
0.419143
0.399949
0.386346
0.376763
0.370067
0.365434
0.362269
0.360141
0.358747
0.357873
0.357369
0.357125
0.357036
0.357013
0.35702
0.357049
0.357165
0.357624
0.358654
0.360285
0.3624
0.364872
0.36759
0.370459
0.373431
0.67917
0.791081
0.982972
1.2546
1.58791
1.95302
2.3192
2.65588
2.93109
3.1117
3.16814
3.08314
2.86031
2.53223
2.17551
1.84622
1.56317
1.33498
1.16108
1.03358
0.937451
0.867537
0.814647
0.768515
0.723807
0.679714
0.637142
0.596642
0.559723
0.529505
0.512329
0.518314
0.543508
0.505265
0.687477
0.599575
0.527649
0.477017
0.441147
0.415614
0.397456
0.384599
0.375554
0.369245
0.364888
0.361919
0.359933
0.358643
0.357843
0.357393
0.357184
0.357109
0.357083
0.357072
0.357089
0.357189
0.357652
0.358677
0.360294
0.362407
0.364872
0.36759
0.370462
0.373427
0.809092
1.01938
1.31806
1.68533
2.09141
2.50689
2.90323
3.25035
3.51484
3.66195
3.66275
3.50489
3.20061
2.79242
2.36693
1.9833
1.65851
1.39924
1.20326
1.06101
0.955365
0.879886
0.823752
0.774612
0.728186
0.683849
0.641093
0.600448
0.563407
0.533088
0.515816
0.521866
0.548583
0.543623
0.685068
0.824895
0.585638
0.517941
0.470193
0.436295
0.41216
0.395014
0.382892
0.374378
0.368449
0.364364
0.36159
0.359748
0.358558
0.357826
0.357424
0.357245
0.357179
0.357148
0.357117
0.35712
0.357211
0.357664
0.358676
0.360299
0.362407
0.364868
0.36759
0.370456
0.37342
1.05448
1.37846
1.77704
2.22071
2.68134
3.1325
3.54682
3.89306
4.13521
4.23661
4.17004
3.92988
3.53824
3.04753
2.55318
2.1162
1.75088
1.46149
1.24403
1.08735
0.972375
0.891474
0.831101
0.779708
0.732899
0.688291
0.645334
0.604535
0.567374
0.536954
0.51963
0.525369
0.554138
0.61082
0.664591
0.823238
1.08481
0.572321
0.508621
0.463549
0.431541
0.408776
0.392628
0.38123
0.373238
0.367682
0.363867
0.361292
0.359586
0.358487
0.357819
0.35746
0.357305
0.357245
0.357205
0.357154
0.357145
0.357225
0.357662
0.358676
0.360299
0.362401
0.36486
0.367572
0.370439
0.373413
1.43533
1.86281
2.34074
2.8422
3.34268
3.81775
4.23974
4.57484
4.78348
4.82728
4.68244
4.35208
3.86902
3.29491
2.73266
2.2439
1.83961
1.52135
1.2832
1.11254
0.988486
0.900897
0.837264
0.785204
0.737965
0.693056
0.649881
0.60892
0.571637
0.541131
0.523698
0.529573
0.560822
0.711151
0.645611
0.791107
1.08536
1.48402
0.559581
0.499531
0.457036
0.426883
0.405468
0.390304
0.379617
0.372136
0.366952
0.363411
0.361026
0.359446
0.35843
0.357819
0.357499
0.357362
0.357303
0.357253
0.357184
0.357166
0.357231
0.35766
0.358676
0.360294
0.362387
0.364825
0.367536
0.370423
0.373406
1.9424
2.45165
2.98973
3.53383
4.06233
4.55161
4.97236
5.2868
5.45091
5.42557
5.19272
4.76611
4.18947
3.53257
2.90425
2.36573
1.92427
1.57854
1.32065
1.13653
1.0017
0.908839
0.843939
0.791127
0.743405
0.698162
0.654747
0.613615
0.576213
0.545632
0.528221
0.533874
0.569505
0.808254
0.627733
0.761511
1.0351
1.48731
2.01005
0.547154
0.490615
0.45065
0.422327
0.402245
0.388047
0.378058
0.371085
0.366278
0.363
0.360789
0.359322
0.358383
0.357823
0.357537
0.357413
0.357353
0.357294
0.35721
0.357179
0.357233
0.35766
0.358676
0.360285
0.362343
0.364766
0.367499
0.370406
0.3734
2.55349
3.12455
3.70679
4.28113
4.82801
5.3236
5.73549
6.02009
6.12861
6.02311
5.69403
5.16724
4.49683
3.7591
3.06723
2.48128
2.00462
1.63291
1.35628
1.15629
1.0129
0.91749
0.851164
0.797506
0.749241
0.703624
0.659947
0.618634
0.58112
0.550497
0.532997
0.538272
0.578244
0.90713
0.610475
0.733898
0.987004
1.41758
2.01666
2.63932
0.534957
0.481872
0.444405
0.417887
0.399115
0.385864
0.376567
0.370111
0.365668
0.36263
0.360577
0.359214
0.358343
0.35783
0.357573
0.357459
0.357397
0.357331
0.357229
0.357186
0.357233
0.35766
0.358676
0.360246
0.362269
0.364702
0.367461
0.37039
0.373393
3.24704
3.86279
4.4758
5.07021
5.62797
6.124
6.52036
6.76584
6.80754
6.61167
6.18013
5.55155
4.78905
3.97354
3.22118
2.59038
2.08054
1.68436
1.38558
1.17309
1.02517
0.926915
0.858985
0.80437
0.755493
0.709457
0.665492
0.623989
0.586368
0.555688
0.538001
0.542798
0.58886
1.0233
0.593658
0.707645
0.940783
1.34882
1.92915
2.64941
3.34888
0.522995
0.473324
0.438319
0.413576
0.396087
0.383776
0.375184
0.369228
0.365116
0.362297
0.360387
0.359118
0.358309
0.357837
0.357605
0.3575
0.357438
0.357358
0.357239
0.357186
0.35723
0.357662
0.358652
0.360177
0.362191
0.364634
0.36742
0.370373
0.373386
4.00274
4.64848
5.28099
5.88768
6.4517
6.94417
7.3186
7.515
7.47851
7.18344
6.6456
5.916
5.06469
4.17534
3.36597
2.69299
2.152
1.72648
1.41045
1.19154
1.03861
0.937183
0.867446
0.811748
0.762178
0.715673
0.67139
0.629684
0.591949
0.561212
0.543324
0.547847
0.598942
1.15092
0.577252
0.682505
0.896011
1.28073
1.84161
2.54554
3.36142
4.11665
0.511298
0.464998
0.432411
0.409406
0.393191
0.381839
0.373928
0.368425
0.364615
0.361995
0.360215
0.35903
0.358277
0.357845
0.357639
0.357538
0.357466
0.357373
0.357238
0.357178
0.357223
0.35765
0.358604
0.360106
0.362107
0.364563
0.367378
0.370356
0.373379
4.8008
5.46381
6.107
6.72182
7.2904
7.77651
8.12194
8.25821
8.13239
7.73131
7.08607
6.25841
5.32291
4.36435
3.50165
2.78921
2.21023
1.76211
1.43771
1.2118
1.05335
0.948373
0.876597
0.819671
0.769315
0.72228
0.677643
0.635716
0.597867
0.5671
0.549024
0.55289
0.608569
1.31251
0.561274
0.658416
0.852675
1.21286
1.75361
2.44117
3.24145
4.12889
4.9208
0.499907
0.456922
0.4267
0.40542
0.390504
0.380077
0.372785
0.367696
0.36416
0.361721
0.360058
0.35895
0.358251
0.35786
0.35767
0.357563
0.357482
0.357373
0.357228
0.357164
0.357209
0.357621
0.358556
0.360032
0.36202
0.364488
0.367334
0.370339
0.373372
5.62133
6.29116
6.94053
7.56329
8.13729
8.6141
8.92181
8.98572
8.76041
8.24918
7.49825
6.57742
5.56343
4.54066
3.62839
2.86733
2.25936
1.80102
1.46757
1.23406
1.06952
0.960569
0.88649
0.828167
0.776916
0.729282
0.684248
0.642079
0.60413
0.57334
0.554937
0.557639
0.619683
1.50063
0.545753
0.635367
0.810992
1.14519
1.66453
2.33567
3.12135
3.9917
4.92809
5.7399
0.488865
0.449125
0.421244
0.401724
0.388061
0.378475
0.371746
0.367033
0.363746
0.361469
0.359912
0.358878
0.358238
0.357878
0.357691
0.357579
0.357481
0.357357
0.357208
0.357143
0.357187
0.357592
0.358506
0.359956
0.36193
0.36441
0.367287
0.37032
0.373366
6.44422
7.11539
7.77123
8.40587
8.98693
9.45008
9.70896
9.68761
9.35459
8.73223
7.87999
6.87256
5.78639
4.70457
3.73095
2.93309
2.31281
1.84347
1.50028
1.25849
1.08725
0.973863
0.897178
0.837264
0.784991
0.736675
0.691193
0.648766
0.610715
0.579859
0.560856
0.5634
0.630595
1.67874
0.530725
0.613341
0.771259
1.07805
1.57407
2.22833
3.00014
3.85575
4.77082
5.73601
6.55328
0.478215
0.441687
0.416191
0.398367
0.385842
0.377019
0.370801
0.366429
0.363366
0.361237
0.359783
0.35883
0.358238
0.357891
0.357706
0.357578
0.357465
0.357329
0.357182
0.357117
0.357161
0.357562
0.358454
0.359878
0.361838
0.36433
0.367239
0.3703
0.373359
7.25236
7.92468
8.5931
9.2452
9.83467
10.277
10.4733
10.3541
9.90802
9.17704
8.23037
7.14396
5.99225
4.83652
3.81702
3.0044
2.37092
1.88977
1.53607
1.28531
1.10669
0.988351
0.908717
0.846988
0.793545
0.744448
0.698461
0.655745
0.617574
0.58655
0.568156
0.568472
0.641158
1.84319
0.516234
0.592311
0.733756
1.01197
1.48223
2.11854
2.87711
3.71963
4.61753
5.55352
6.53097
7.34123
0.468074
0.434807
0.411608
0.395321
0.383825
0.375693
0.36994
0.365875
0.363015
0.36103
0.359689
0.358809
0.358241
0.357904
0.357706
0.357562
0.357436
0.357291
0.357152
0.357085
0.357133
0.35753
0.358401
0.359799
0.361745
0.364248
0.367188
0.370279
0.373353
8.03194
8.71331
9.40103
10.0771
10.6764
11.086
11.2044
10.976
10.4154
9.58188
8.54947
7.39228
6.15676
4.94684
3.91005
3.08167
2.43403
1.94021
1.57522
1.31474
1.12801
1.00414
0.921164
0.85736
0.802573
0.752582
0.706015
0.66297
0.624634
0.594767
0.575547
0.573215
0.650715
1.99043
0.502432
0.572238
0.698703
0.947665
1.38925
2.00593
2.75137
3.5827
4.46614
5.37971
6.3156
7.29067
8.0884
0.458717
0.42858
0.407455
0.392556
0.381993
0.374487
0.369151
0.365364
0.362704
0.360876
0.35964
0.358801
0.358251
0.357903
0.35769
0.357536
0.357395
0.357251
0.357114
0.357046
0.3571
0.357495
0.358347
0.359719
0.361651
0.364164
0.367134
0.370256
0.373346
8.77385
9.46777
10.1829
10.8907
11.5038
11.8687
11.8904
11.5449
10.8733
9.94646
8.83817
7.58879
6.29354
5.06548
4.01043
3.16529
2.50252
1.99511
1.61799
1.34699
1.15137
1.02133
0.934574
0.868395
0.812063
0.761038
0.713807
0.670369
0.633215
0.603538
0.582456
0.576632
0.658901
2.11655
0.489702
0.553218
0.666229
0.885939
1.29562
1.89037
2.62217
3.44387
4.31616
5.2114
6.1162
7.03404
7.99295
8.78784
0.450272
0.422948
0.403692
0.390047
0.380326
0.373384
0.368425
0.36491
0.362468
0.360791
0.35962
0.35881
0.358251
0.35789
0.357669
0.357498
0.35735
0.357201
0.357068
0.356999
0.357063
0.357457
0.35829
0.359639
0.361557
0.364079
0.367079
0.370233
0.373341
9.47487
10.197
10.9537
11.6915
12.3078
12.6103
12.5197
12.0551
11.2807
10.2718
9.06378
7.75099
6.43964
5.19281
4.1186
3.25567
2.57674
2.05479
1.66465
1.38229
1.17695
1.04003
0.949
0.880103
0.821987
0.769774
0.721757
0.679269
0.642501
0.611722
0.588248
0.578765
0.666073
2.2213
0.478229
0.535677
0.636521
0.827692
1.20205
1.77184
2.48889
3.30199
4.16632
5.04814
5.92786
6.80256
7.68732
8.61747
9.42288
0.442658
0.417857
0.400285
0.38777
0.378806
0.372372
0.367781
0.364565
0.362335
0.360755
0.359628
0.358809
0.35824
0.357876
0.357636
0.357456
0.357299
0.357144
0.357015
0.356945
0.357021
0.357415
0.358232
0.359559
0.361463
0.363994
0.367023
0.370209
0.373335
10.1275
10.8986
11.7169
12.4825
13.0826
13.2968
13.0824
12.5032
11.6381
10.522
9.24822
7.92269
6.5952
5.3291
4.23489
3.35318
2.65705
2.11955
1.71547
1.42086
1.2049
1.06034
0.964487
0.89248
0.832312
0.778703
0.731271
0.688883
0.651081
0.618789
0.592332
0.580142
0.672259
2.30446
0.467914
0.519817
0.610056
0.774174
1.10962
1.65053
2.35096
3.15597
4.01516
4.88848
5.74996
6.58993
7.41672
8.25592
9.15715
9.98333
0.435796
0.413258
0.3972
0.385697
0.377414
0.371474
0.367286
0.364367
0.362278
0.360763
0.359628
0.3588
0.358236
0.357857
0.357602
0.357409
0.35724
0.357079
0.356955
0.356886
0.356975
0.357371
0.358173
0.35948
0.361371
0.363911
0.366969
0.370185
0.373329
10.7307
11.5772
12.4744
13.2637
13.8173
13.9132
13.5709
12.8886
11.9075
10.724
9.44126
8.10363
6.7602
5.47454
4.3596
3.45816
2.74379
2.1897
1.77069
1.46292
1.2354
1.08237
0.981071
0.905515
0.84296
0.789422
0.741526
0.697633
0.658491
0.624209
0.596091
0.579673
0.677928
2.36679
0.458655
0.505497
0.586771
0.727181
1.02037
1.52689
2.20794
3.00465
3.86111
4.73066
5.58068
6.39502
7.17484
7.93927
8.72528
9.60234
10.4673
0.429616
0.409104
0.394399
0.383805
0.376179
0.370779
0.367001
0.364283
0.362286
0.360762
0.359618
0.358806
0.358235
0.357842
0.357569
0.357357
0.357174
0.357008
0.356891
0.356825
0.356926
0.357325
0.358114
0.359401
0.361283
0.363832
0.366916
0.370162
0.373324
11.2887
12.2436
13.2295
14.021
14.4938
14.4452
13.982
13.1713
12.1213
10.9323
9.6419
8.29322
6.93439
5.62917
4.49296
3.57089
2.83724
2.2655
1.83056
1.50864
1.26857
1.1062
0.998779
0.919152
0.855889
0.801052
0.750767
0.705149
0.664376
0.629093
0.598326
0.578149
0.682908
2.41297
0.450352
0.492605
0.566098
0.687154
0.938156
1.40262
2.05955
2.84682
3.70242
4.5727
5.41788
6.21535
6.95991
7.66317
8.35415
9.08345
9.93845
10.8712
0.424051
0.405345
0.391848
0.382127
0.375216
0.370379
0.366884
0.364292
0.362286
0.360753
0.359638
0.358828
0.358247
0.357834
0.357533
0.3573
0.357104
0.356936
0.356824
0.356762
0.356876
0.357278
0.358056
0.359326
0.3612
0.363756
0.366864
0.370139
0.373318
11.8112
12.912
13.9818
14.7366
15.0849
14.8834
14.2726
13.3906
12.3372
11.1447
9.84871
8.49051
7.11729
5.79283
4.63502
3.69158
2.93766
2.3472
1.89527
1.55819
1.30455
1.13189
1.01758
0.935991
0.870178
0.811587
0.758722
0.711214
0.669558
0.632696
0.598302
0.574954
0.687589
2.43786
0.442909
0.481038
0.5476
0.653193
0.865456
1.28244
1.9069
2.68134
3.53715
4.41231
5.25919
6.04827
6.76842
7.42512
8.03909
8.64832
9.31805
10.1496
11.1923
0.419031
0.401933
0.389589
0.380811
0.374663
0.370219
0.366894
0.364292
0.362277
0.360789
0.359687
0.358876
0.358274
0.357826
0.357495
0.35724
0.357031
0.356864
0.356758
0.356703
0.356828
0.357233
0.358001
0.359255
0.361122