/*--------------------------------*- C++ -*----------------------------------*\
  =========                 |
  \\      /  F ield         | OpenFOAM: The Open Source CFD Toolbox
   \\    /   O peration     | Website:  https://openfoam.org
    \\  /    A nd           | Version:  8
     \\/     M anipulation  |
\*---------------------------------------------------------------------------*/
FoamFile
{
    version     2.0;
    format      ascii;
    class       volScalarField;
    location    "0.07";
    object      alphat;
}
// * * * * * * * * * * * * * * * * * * * * * * * * * * * * * * * * * * * * * //

dimensions      [1 -1 -1 0 0 0 0];

internalField   nonuniform List<scalar> 
15677
(
0.000119007
0.000603757
0.000100315
0.00155914
0.00043918
0.000102317
0.00292359
0.000918305
0.000359781
0.000112983
0.00443827
0.00164523
0.000628527
0.000352712
0.000128623
0.00580001
0.0026102
0.00111351
0.000519446
0.000346977
0.000140848
0.00680895
0.00374455
0.0018381
0.000841654
0.000471632
0.000342378
0.000150392
0.00740941
0.00492432
0.00276544
0.00139392
0.000706291
0.000443581
0.00034073
0.000158232
0.00768822
0.00601326
0.00383417
0.00217603
0.00113659
0.000620931
0.000428386
0.000342426
0.000164223
0.00780827
0.0068802
0.00494123
0.00313881
0.00179756
0.000964359
0.000566973
0.00042287
0.000345689
0.000169159
0.00786858
0.00742495
0.0059652
0.004203
0.00266373
0.00152608
0.000844896
0.000534779
0.000422916
0.000349994
0.000172712
0.00788474
0.00769283
0.00679887
0.00526296
0.00367033
0.00230285
0.00132679
0.000761144
0.000517465
0.000426359
0.000353847
0.000175824
0.00788131
0.007823
0.0073664
0.00620697
0.0047247
0.00324622
0.00202497
0.00117446
0.000705987
0.000509512
0.0004304
0.000357866
0.000178121
0.0078773
0.00787203
0.00766744
0.00694376
0.00572041
0.00427636
0.00290591
0.00180313
0.00106481
0.00066949
0.00050609
0.000435253
0.000361313
0.000180393
0.00787602
0.00788019
0.0078122
0.00743529
0.00655776
0.00529483
0.00390186
0.00262551
0.00163416
0.000983881
0.000645144
0.000505784
0.000439755
0.00036501
0.000182104
0.00787578
0.00787866
0.00786307
0.00769571
0.00717068
0.00620093
0.00492326
0.00358416
0.00240329
0.0015018
0.000924688
0.000628496
0.000506759
0.000444903
0.000367925
0.000184054
0.00787575
0.00787717
0.00787349
0.00781481
0.00754815
0.00691403
0.00587235
0.00459787
0.00332406
0.00222342
0.00140047
0.000879163
0.000617113
0.000509512
0.00044922
0.000371416
0.000185359
0.00787572
0.00787645
0.0078743
0.00785164
0.00774617
0.00739881
0.00666093
0.00557287
0.00432289
0.00310865
0.00208116
0.00131917
0.000844952
0.00061
0.000512429
0.000454267
0.000373734
0.000187004
0.00787568
0.00787608
0.00787385
0.00786102
0.00782132
0.00767348
0.00723527
0.00641711
0.00531055
0.00409023
0.00293375
0.00196506
0.0012559
0.000818566
0.000605447
0.000516709
0.000458016
0.000376938
0.000188073
0.00787563
0.00787582
0.00787362
0.00786292
0.00784566
0.00778895
0.00758405
0.00706353
0.00619394
0.0050829
0.00389667
0.00278926
0.00187181
0.00120383
0.000798352
0.00060383
0.000520256
0.000462642
0.000378799
0.00018951
0.00787558
0.00787561
0.00787363
0.00786317
0.00785252
0.00783148
0.0077486
0.00748863
0.00689771
0.00599384
0.00488862
0.00373447
0.00267079
0.00179427
0.00116248
0.000783416
0.00060307
0.000524903
0.000465739
0.000381568
0.00019046
0.00787554
0.00787544
0.00787374
0.00786318
0.00785402
0.0078456
0.00781575
0.00770035
0.00738584
0.00674241
0.00581799
0.00472294
0.0035992
0.00257148
0.00173101
0.00112903
0.000772107
0.000604588
0.000528495
0.000469794
0.00038321
0.000191751
0.00787549
0.00787532
0.00787384
0.0078632
0.00785417
0.00784943
0.00784123
0.00779419
0.00764386
0.00728203
0.00660089
0.00566491
0.00458253
0.00348477
0.00248943
0.00167866
0.00110272
0.000765166
0.000605904
0.000532705
0.000472461
0.00038542
0.000192663
0.00787544
0.00787524
0.00787393
0.00786323
0.00785409
0.00785001
0.00784986
0.00783308
0.00776602
0.0075827
0.00718283
0.00647495
0.00553317
0.00446259
0.00338915
0.00242112
0.00163669
0.00108323
0.000759869
0.000608849
0.000536312
0.000475496
0.000386967
0.000193945
0.00787539
0.00787519
0.007874
0.00786326
0.007854
0.00784977
0.00785232
0.00784755
0.0078208
0.00773212
0.00751988
0.00709291
0.00636514
0.00541917
0.00436111
0.00330935
0.0023659
0.00160405
0.00106833
0.000757946
0.000611305
0.000540026
0.000477917
0.000388897
0.000194827
0.00787534
0.00787516
0.00787405
0.00786329
0.00785392
0.00784942
0.00785279
0.00785216
0.00784354
0.00780266
0.00769465
0.00746267
0.00701373
0.00626812
0.00532163
0.00427646
0.00324469
0.0023227
0.00157952
0.00105899
0.000757066
0.000614932
0.000542922
0.000480384
0.000390347
0.000196135
0.00787528
0.00787514
0.00787409
0.00786334
0.00785386
0.00784913
0.00785269
0.00785317
0.00785223
0.00783348
0.00778104
0.00766059
0.00741101
0.00694146
0.00618537
0.00524076
0.00420802
0.00319419
0.00229037
0.0015628
0.0010533
0.000758074
0.000618444
0.000546009
0.000482545
0.000392099
0.000196969
0.00787523
0.00787514
0.00787412
0.00786339
0.0078538
0.00784891
0.00785248
0.00785307
0.00785523
0.00784588
0.00782068
0.00776217
0.00762907
0.00736262
0.00688178
0.00611595
0.00517446
0.00415409
0.00315694
0.0022692
0.0015535
0.00105128
0.000761133
0.000621542
0.000548746
0.000484553
0.000393373
0.000198306
0.00787518
0.00787513
0.00787415
0.00786345
0.00785374
0.00784874
0.00785227
0.00785272
0.00785607
0.00785037
0.00783749
0.00781108
0.00774401
0.00760388
0.00732484
0.00683163
0.00606341
0.00512799
0.00412003
0.00313558
0.00225833
0.00154958
0.00105371
0.000764214
0.000624857
0.000551382
0.00048648
0.000395128
0.000199137
0.00787513
0.00787513
0.00787417
0.00786352
0.00785368
0.0078486
0.00785207
0.0078524
0.00785613
0.00785172
0.00784395
0.0078331
0.00780046
0.00773221
0.0075776
0.00730107
0.00679931
0.00602542
0.00509451
0.00409635
0.00312353
0.00225459
0.00155297
0.00105781
0.000768126
0.000628695
0.000554203
0.000488241
0.000396147
0.00020043
0.00787508
0.00787512
0.00787419
0.00786359
0.00785363
0.00784848
0.00785188
0.00785216
0.00785596
0.00785195
0.00784605
0.00784223
0.00782625
0.0077968
0.00772296
0.00757267
0.00728225
0.00677277
0.00599845
0.00507389
0.00408578
0.00312187
0.00225982
0.00156067
0.00106437
0.000773645
0.000632701
0.000556633
0.000489958
0.000398009
0.000201591
0.00787504
0.00787512
0.00787421
0.00786367
0.00785358
0.00784838
0.00785169
0.00785198
0.00785573
0.00785185
0.00784644
0.00784551
0.00783718
0.00782751
0.00779956
0.00772423
0.00756882
0.0072695
0.00675762
0.00598721
0.00507109
0.00409134
0.00313362
0.00227385
0.00157317
0.00107407
0.000780002
0.0006366
0.000559029
0.000491507
0.000398823
0.000202702
0.00787501
0.00787511
0.00787423
0.00786375
0.00785353
0.00784829
0.00785149
0.00785184
0.0078555
0.00785171
0.0078463
0.00784629
0.00784129
0.00784101
0.00783648
0.00780464
0.00772977
0.0075685
0.0072699
0.00676143
0.0059954
0.00508527
0.00411129
0.00315639
0.00229496
0.00159124
0.00108608
0.000787055
0.000640679
0.000561273
0.000493099
0.000400358
0.000203806
0.00787499
0.0078751
0.00787424
0.00786383
0.0078535
0.00784822
0.0078513
0.00785174
0.00785526
0.00785157
0.00784604
0.00784621
0.00784244
0.00784613
0.00785292
0.00784532
0.00781626
0.00774215
0.00758225
0.00728712
0.00678199
0.00602022
0.00511545
0.00414467
0.00318932
0.00232331
0.00161366
0.00110032
0.000794892
0.000644729
0.000563784
0.000494685
0.000401854
0.000204939
0.00787497
0.00787508
0.00787425
0.00786392
0.00785348
0.00784816
0.00785111
0.00785167
0.00785504
0.00785146
0.00784577
0.00784588
0.00784251
0.00784746
0.00785959
0.0078649
0.00786066
0.00783701
0.00776701
0.00761074
0.00732018
0.0068196
0.00606265
0.00516114
0.00419097
0.00323205
0.00235786
0.00164036
0.00111655
0.000803412
0.000649465
0.000566322
0.000496189
0.000403317
0.000206075
0.00787505
0.00787497
0.00787426
0.007864
0.00785347
0.00784811
0.00785093
0.00785161
0.00785482
0.00785138
0.00784554
0.0078455
0.00784226
0.00784738
0.00786163
0.0078734
0.00788192
0.0078859
0.00787048
0.00780446
0.00765445
0.00737021
0.00687568
0.00612201
0.00522226
0.00424978
0.00328361
0.00239876
0.00167081
0.00113503
0.000813921
0.000654726
0.000568853
0.00049762
0.000404797
0.000207237
0.00787426
0.00787502
0.00787497
0.00786408
0.00785347
0.00784807
0.00785076
0.00785157
0.00785461
0.00785131
0.00784534
0.00784514
0.00784193
0.00784686
0.00786184
0.00787636
0.0078914
0.00790959
0.00792522
0.00791455
0.0078569
0.00771539
0.00743915
0.00695008
0.00619947
0.00529848
0.00432039
0.00334399
0.00244498
0.00170435
0.00115769
0.000826252
0.000660077
0.000571125
0.000498894
0.000406168
0.000208359
0.00786416
0.0078743
0.00787497
0.00787498
0.00785348
0.00784804
0.0078506
0.00785154
0.0078544
0.00785127
0.00784518
0.00784481
0.00784161
0.00784622
0.00786143
0.00787706
0.00789487
0.00792045
0.00795268
0.00797418
0.00797377
0.00792642
0.00779566
0.00752841
0.0070446
0.00629451
0.00538928
0.00440242
0.00341214
0.00249714
0.00174439
0.00118543
0.000839253
0.000665369
0.000573471
0.000500136
0.000407548
0.000209496
0.0078535
0.00786434
0.00787437
0.00787491
0.007875
0.00784802
0.00785045
0.00785152
0.00785422
0.00785124
0.00784505
0.00784452
0.00784131
0.00784558
0.00786085
0.00787691
0.0078958
0.00792466
0.00796594
0.00800537
0.00803879
0.00805013
0.00801588
0.00789665
0.00763903
0.00715853
0.00640787
0.00549467
0.00449523
0.00348817
0.00256035
0.00179262
0.00121502
0.000853166
0.000670813
0.000575544
0.000501409
0.000408807
0.00021056
0.007848
0.00785362
0.00786463
0.00787444
0.00787484
0.00787501
0.00785031
0.0078515
0.00785404
0.00785121
0.00784495
0.00784428
0.00784106
0.007845
0.00786025
0.00787647
0.00789576
0.00792593
0.00797179
0.00802102
0.00807366
0.00812013
0.00814683
0.00812639
0.00801984
0.00777078
0.00729309
0.00653832
0.0056141
0.00459812
0.00357996
0.00263748
0.00184333
0.00124629
0.000867583
0.000676138
0.00057773
0.000502487
0.000410066
0.000211638
0.00785019
0.00784801
0.00785385
0.00786493
0.00787451
0.00787477
0.00787503
0.00785148
0.00785388
0.0078512
0.00784487
0.00784408
0.00784082
0.00784448
0.0078597
0.00787595
0.00789537
0.00792605
0.00797427
0.00802862
0.00809291
0.00816034
0.00822394
0.00826506
0.00825894
0.00816475
0.00792403
0.00744662
0.00668546
0.00574765
0.00472362
0.00369203
0.00271995
0.00189748
0.00127899
0.000882484
0.00068162
0.000579663
0.000503572
0.000411204
0.00021262
0.00785146
0.00785001
0.00784804
0.00785411
0.00786525
0.00787457
0.00787468
0.00787506
0.00785373
0.00785118
0.00784481
0.00784391
0.00784061
0.00784405
0.00785921
0.00787543
0.00789488
0.00792575
0.00797532
0.0080325
0.00810351
0.00818411
0.00827119
0.0083523
0.00841148
0.00841716
0.00833061
0.00809659
0.00761835
0.00684749
0.00590927
0.00487649
0.00381229
0.00280712
0.00195348
0.00131255
0.000897525
0.000686826
0.000581708
0.000504506
0.000412341
0.000213621
0.00785359
0.00785141
0.00784977
0.00784808
0.0078544
0.00786557
0.00787463
0.00787459
0.00787509
0.00785117
0.00784477
0.00784377
0.00784041
0.00784372
0.00785876
0.00787494
0.00789438
0.00792529
0.00797577
0.00803475
0.0081098
0.00819847
0.00830122
0.00840773
0.00850988
0.00858524
0.00860543
0.00852348
0.00828627
0.00780516
0.007043
0.00610423
0.00503963
0.00393939
0.00289789
0.00201072
0.00134691
0.000913114
0.000692269
0.000583579
0.000505459
0.00041336
0.000214513
0.00785115
0.00785341
0.0078513
0.00784952
0.00784814
0.00785471
0.00786589
0.00787469
0.00787448
0.00787513
0.00784474
0.00784365
0.00784022
0.00784347
0.00785835
0.00787449
0.00789389
0.00792481
0.00797596
0.00803626
0.00811408
0.00820807
0.00832155
0.00844582
0.00857642
0.00869737
0.00879035
0.00882093
0.00874434
0.00850018
0.00802679
0.0072741
0.00631035
0.00521155
0.00407158
0.00299138
0.00206866
0.00138096
0.000928867
0.000697467
0.000585533
0.00050629
0.00041438
0.000215428
0.00784473
0.00785124
0.00785319
0.00785119
0.00784928
0.00784821
0.00785504
0.00786622
0.00787474
0.00787438
0.00787517
0.00784355
0.00784005
0.00784333
0.00785794
0.00787408
0.00789345
0.00792435
0.00797604
0.00803743
0.00811736
0.00821537
0.00833667
0.00847389
0.008626
0.00877806
0.00892024
0.00902653
0.0090656
0.00899004
0.00876406
0.00829594
0.00751678
0.00652504
0.00538853
0.00420726
0.00308646
0.00212772
0.0014141
0.000944687
0.000702479
0.000587302
0.00050713
0.00041529
0.000216229
0.00784346
0.00784484
0.00785143
0.00785296
0.00785106
0.00784904
0.00784829
0.00785539
0.00786655
0.00787479
0.00787426
0.00787522
0.00783989
0.00784326
0.00785752
0.00787371
0.00789305
0.00792394
0.00797609
0.00803841
0.00812007
0.00822149
0.00834904
0.00849618
0.00866579
0.00884262
0.00901984
0.00917825
0.00929665
0.00933955
0.00929008
0.00908686
0.00858867
0.00776449
0.00674131
0.00556777
0.00434464
0.00318237
0.00218708
0.0014471
0.000960314
0.00070744
0.000588996
0.000507857
0.000416196
0.000217058
0.00783975
0.00784343
0.00784507
0.0078516
0.00785273
0.00785091
0.0078488
0.00784839
0.00785577
0.00786687
0.00787484
0.00787414
0.00787527
0.00784328
0.00785707
0.00787339
0.00789271
0.0079236
0.00797614
0.00803927
0.0081224
0.00822688
0.00835973
0.00851526
0.00869961
0.00889771
0.00910483
0.00930159
0.00947618
0.00960124
0.0096767
0.00965748
0.00943367
0.00890162
0.00802559
0.00695837
0.00574746
0.00448237
0.00327824
0.0022464
0.00147884
0.000975663
0.000712381
0.000590553
0.000508589
0.000417006
0.000217771
0.00784335
0.00783959
0.00784349
0.00784534
0.00785175
0.00785249
0.00785073
0.00784858
0.00784851
0.00785616
0.00786718
0.00787487
0.00787402
0.00787533
0.00785655
0.00787312
0.00789242
0.00792334
0.0079762
0.00804004
0.00812447
0.00823175
0.00836922
0.00853239
0.00872984
0.00894613
0.00918138
0.00941309
0.00963077
0.0098149
0.00997934
0.0100932
0.010056
0.00980085
0.00922581
0.00829604
0.00717479
0.00592514
0.00461865
0.00337325
0.00230508
0.00151024
0.000990695
0.00071725
0.000592027
0.000509222
0.000417805
0.000218516
0.00785596
0.00784319
0.00783939
0.00784358
0.00784565
0.00785186
0.00785226
0.00785054
0.00784836
0.00784864
0.00785658
0.00786749
0.00787491
0.00787391
0.00787539
0.00787294
0.00789221
0.00792317
0.00797627
0.00804074
0.00812633
0.00823616
0.00837775
0.00854812
0.00875745
0.00899011
0.0092516
0.00951849
0.00977763
0.0100082
0.0102399
0.0104522
0.0105502
0.0104819
0.0101845
0.00955782
0.00857209
0.00739061
0.00609834
0.00475227
0.00346676
0.00236279
0.00154096
0.00100532
0.000722026
0.000593386
0.000509858
0.000418526
0.000219149
0.00787287
0.00785441
0.00784294
0.0078392
0.00784368
0.00784598
0.00785192
0.00785204
0.00785032
0.00784817
0.0078488
0.00785701
0.00786779
0.00787493
0.0078738
0.00787545
0.00789205
0.00792307
0.00797634
0.00804136
0.00812802
0.00824019
0.00838548
0.00856268
0.0087828
0.00903089
0.00931773
0.0096179
0.00992085
0.0101996
0.0104886
0.0107798
0.0109783
0.0110447
0.0109318
0.0105813
0.00989469
0.00884975
0.00760776
0.00626703
0.00488246
0.00355803
0.00241924
0.00157057
0.00101949
0.000726668
0.000594682
0.000510408
0.000419222
0.000219812
0.00789195
0.00787212
0.00785168
0.00784282
0.00783906
0.00784379
0.00784636
0.00785195
0.00785183
0.00785008
0.00784799
0.00784898
0.00785745
0.00786807
0.00787495
0.0078737
0.00787551
0.00792301
0.0079764
0.00804192
0.00812955
0.00824385
0.00839252
0.00857614
0.00880607
0.00906911
0.00938057
0.00971206
0.0100582
0.0103937
0.0107477
0.0111102
0.0113909
0.011558
0.0115764
0.0114043
0.0109889
0.0102341
0.00912505
0.00782365
0.00643068
0.00500845
0.0036468
0.00247416
0.00159923
0.00103318
0.000731168
0.000595885
0.000510962
0.000419868
0.000220371
0.00792302
0.00789045
0.0078708
0.00784882
0.00784278
0.00783901
0.00784388
0.00784677
0.00785193
0.00785162
0.00784982
0.00784784
0.00784918
0.00785789
0.00786832
0.00787496
0.00787361
0.00787557
0.00797642
0.00804239
0.00813094
0.00824719
0.00839896
0.00858856
0.0088274
0.00910509
0.00943996
0.00980115
0.0101913
0.0105883
0.0110209
0.0114681
0.0118284
0.0120826
0.0121994
0.0121495
0.0119
0.011406
0.0105742
0.00939661
0.0080364
0.00658941
0.00513028
0.00373252
0.00252731
0.00162688
0.00104635
0.000735503
0.000597033
0.00051144
0.000420467
0.000220958
0.00797642
0.00792063
0.00788754
0.00786957
0.00784608
0.0078427
0.00783907
0.00784396
0.0078472
0.00785187
0.00785142
0.00784955
0.00784772
0.0078494
0.00785831
0.00786855
0.00787497
0.00787352
0.00787563
0.00804279
0.0081322
0.00825022
0.00840484
0.00859997
0.00884698
0.0091389
0.00949554
0.00988553
0.0103219
0.0107833
0.0112962
0.0118543
0.0123289
0.0126803
0.0128855
0.0129207
0.0127721
0.0124212
0.0118325
0.0109138
0.00966341
0.0082445
0.00674176
0.0052464
0.00381489
0.00257855
0.00165347
0.00105899
0.000739672
0.000598102
0.000511926
0.000421055
0.000221451
0.00804317
0.00797253
0.00791574
0.00788462
0.00786834
0.00784367
0.00784249
0.00783928
0.00784403
0.00784764
0.00785178
0.00785123
0.00784927
0.00784762
0.00784963
0.00785871
0.00786875
0.00787498
0.00787345
0.00787569
0.00813333
0.00825297
0.00841023
0.00861043
0.00886497
0.00917052
0.00954715
0.00996581
0.0104502
0.0109759
0.0115668
0.0122594
0.0129187
0.013431
0.0137371
0.0138385
0.0137394
0.0134505
0.0129693
0.0122677
0.0112521
0.00992466
0.00844731
0.00689042
0.0053571
0.00389371
0.00262775
0.00167898
0.00107108
0.00074366
0.000599122
0.000512339
0.000421572
0.000221886
0.0081344
0.00803814
0.00796453
0.00791085
0.00788173
0.00786693
0.00784195
0.00784209
0.00783961
0.0078441
0.00784809
0.00785167
0.00785102
0.00784899
0.00784756
0.00784987
0.0078591
0.00786894
0.00787498
0.00787338
0.00787575
0.00825545
0.00841514
0.00861998
0.0088815
0.00919991
0.00959491
0.0100425
0.0105746
0.0111617
0.0118328
0.0126992
0.0136159
0.0144003
0.0148782
0.0150414
0.0149543
0.0146569
0.0141832
0.0135425
0.0127104
0.0115881
0.0101798
0.00864293
0.00703454
0.00546255
0.00396891
0.00267485
0.00170339
0.00108264
0.000747473
0.000600073
0.00051277
0.000422019
0.000222234
0.00825775
0.00812773
0.00802729
0.00795643
0.00790608
0.00787879
0.00786479
0.00784093
0.00784153
0.00784005
0.0078442
0.0078485
0.00785155
0.00785082
0.00784875
0.00784752
0.00785011
0.00785945
0.00786911
0.00787498
0.00787333
0.0078758
0.00841959
0.00862866
0.00889666
0.00922708
0.00963909
0.0101155
0.0106933
0.0113386
0.0121016
0.0131944
0.0144371
0.0155677
0.0163403
0.0166374
0.0165467
0.0161959
0.01565
0.0149574
0.0141347
0.0131577
0.0119205
0.0104282
0.0088312
0.00717353
0.00556289
0.00404047
0.0027198
0.0017267
0.00109364
0.000751102
0.000600981
0.000513071
0.0004224
0.000222658
0.00842368
0.00824898
0.00811257
0.00801641
0.0079484
0.00790147
0.0078759
0.00786207
0.00784051
0.00784085
0.00784054
0.00784435
0.00784887
0.00785144
0.00785061
0.00784853
0.0078475
0.00785036
0.00785979
0.00786927
0.00787499
0.00787328
0.00787584
0.0086365
0.00891052
0.00925204
0.00967994
0.0101847
0.0108048
0.0115075
0.0123825
0.0137501
0.0153558
0.0168494
0.0179517
0.0185223
0.0185329
0.0181337
0.0174898
0.0166771
0.0157521
0.0147359
0.0136056
0.0122479
0.0106693
0.00901204
0.00730704
0.00565826
0.00410843
0.00276258
0.0017489
0.0011041
0.000754558
0.000601712
0.000513368
0.000422767
0.000223073
0.00864361
0.00841212
0.00822782
0.00809735
0.00800594
0.0079406
0.00789714
0.00787309
0.00785864
0.00784053
0.00784017
0.00784104
0.00784458
0.00784917
0.00785135
0.0078504
0.00784833
0.00784749
0.00785061
0.00786011
0.00786941
0.00787499
0.00787325
0.00787588
0.00892314
0.00927486
0.00971768
0.0102496
0.0109084
0.0116711
0.0126797
0.0143504
0.0163088
0.018123
0.019514
0.0203695
0.0206506
0.0203646
0.0196735
0.0187565
0.0176923
0.0165426
0.0153345
0.0140489
0.0125686
0.0109027
0.00918537
0.00743487
0.00574878
0.00417283
0.00280322
0.00177001
0.00111403
0.000757398
0.000602342
0.000513643
0.00042322
0.000223581
0.00893454
0.00862883
0.00838267
0.00820655
0.00808255
0.00799584
0.00793317
0.00789311
0.00787102
0.00785489
0.00784079
0.00783957
0.00784151
0.00784487
0.0078494
0.00785127
0.00785018
0.00784817
0.0078475
0.00785086
0.00786041
0.00786955
0.007875
0.00787322
0.0078759
0.00929563
0.00975241
0.0103098
0.0110047
0.0118316
0.0129905
0.014966
0.017229
0.0192845
0.0208826
0.0219605
0.0225113
0.0225235
0.0219964
0.0210732
0.0199339
0.0186564
0.0173062
0.0159188
0.0144827
0.0128807
0.0111279
0.0093512
0.00755692
0.00583459
0.00423379
0.00284175
0.00179005
0.0011222
0.000759821
0.000603013
0.000514017
0.000423633
0.000224062
0.00931419
0.00891564
0.00858838
0.00835307
0.00818578
0.00806817
0.00798603
0.00792609
0.00788922
0.0078693
0.00785113
0.00784111
0.00783914
0.00784189
0.00784521
0.00784957
0.0078512
0.00784997
0.00784804
0.00784752
0.00785111
0.00786068
0.00786968
0.00787499
0.00787319
0.00787591
0.00978428
0.0103653
0.0110944
0.0119902
0.0133069
0.0155672
0.0180673
0.0202763
0.0219917
0.0232073
0.0239566
0.0242489
0.0240607
0.0233685
0.0222856
0.0209853
0.0195424
0.0180255
0.0164788
0.014902
0.0131824
0.0113442
0.00950951
0.00767318
0.00591583
0.00429139
0.00287821
0.00180653
0.00112914
0.000762473
0.000603776
0.000514339
0.000424141
0.000224668
0.00981276
0.00929065
0.00886039
0.0085477
0.00832416
0.00816554
0.00805416
0.00797646
0.00791919
0.00788556
0.00786771
0.00784758
0.00784139
0.00783892
0.0078422
0.00784557
0.0078497
0.00785115
0.00784977
0.00784793
0.00784755
0.00785136
0.00786094
0.00786974
0.00787498
0.00787318
0.00787591
0.0104161
0.0111783
0.0121461
0.013619
0.0161309
0.0187988
0.021083
0.0228376
0.0241106
0.0249751
0.0254672
0.0255771
0.0252612
0.0244742
0.0232985
0.0218959
0.0203362
0.018689
0.017007
0.0153029
0.0134722
0.0115515
0.00966034
0.00778369
0.00599268
0.00434578
0.00290812
0.00182054
0.00113676
0.000765434
0.000604583
0.000514794
0.000424584
0.000225217
0.0104611
0.00978319
0.00921624
0.00880486
0.00850788
0.00829593
0.00814578
0.00804048
0.00796703
0.0079126
0.00788208
0.00786621
0.00784444
0.00784148
0.00783891
0.00784245
0.00784594
0.00784981
0.00785109
0.00784958
0.00784785
0.0078476
0.00785159
0.00786109
0.00786974
0.00787497
0.00787318
0.0078759
0.0112571
0.0122978
0.0139175
0.0166437
0.0194175
0.0217158
0.0234501
0.0247163
0.0256221
0.0262298
0.0265486
0.0265459
0.0261618
0.0253357
0.0241211
0.0226661
0.0210331
0.0192907
0.0174986
0.0156824
0.0137489
0.0117493
0.00980375
0.00788856
0.00606527
0.00439028
0.00293349
0.00183591
0.00114504
0.000768693
0.000605505
0.000515157
0.000425154
0.000225932
0.0113285
0.0104252
0.00968276
0.00914136
0.00875043
0.00846895
0.00826835
0.00812649
0.0080271
0.00795771
0.00790648
0.0078787
0.00786465
0.00784221
0.00784133
0.00783906
0.00784267
0.00784629
0.0078499
0.00785104
0.0078494
0.00784778
0.00784765
0.00785173
0.00786112
0.00786975
0.00787497
0.00787319
0.00787588
0.0124433
0.0141963
0.0171001
0.0199295
0.0221983
0.0238712
0.0250843
0.0259741
0.026626
0.0270684
0.0272832
0.0272205
0.0268117
0.0259865
0.0247735
0.0233055
0.0216357
0.0198292
0.0179509
0.0160386
0.0140115
0.0119374
0.00993986
0.00798786
0.00612472
0.00442796
0.00296126
0.00185282
0.00115412
0.000772348
0.000606494
0.000515707
0.000425638
0.00022655
0.0125744
0.0112831
0.01029
0.00958191
0.00906778
0.00869717
0.00843088
0.00824143
0.00810767
0.00801401
0.00794845
0.0079008
0.00787539
0.00786245
0.00784097
0.00784098
0.00783933
0.00784289
0.00784661
0.00784999
0.00785099
0.00784923
0.00784774
0.00784767
0.00785175
0.00786113
0.00786975
0.00787498
0.00787322
0.00787584
0.0144584
0.0175009
0.0203474
0.0225576
0.0241432
0.0252725
0.0261052
0.0267462
0.0272422
0.0275897
0.0277499
0.0276635
0.0272593
0.0264623
0.0252797
0.023828
0.0221502
0.0203061
0.0183632
0.0163703
0.0142594
0.0121157
0.0100687
0.00806931
0.0061751
0.00446914
0.00299166
0.00187144
0.00116399
0.000776349
0.000607662
0.000516116
0.000426286
0.000227392
0.0125249
0.0146915
0.0110884
0.0101558
0.00948259
0.00899567
0.00864503
0.00839369
0.00821518
0.00808935
0.00800124
0.00793927
0.00789545
0.0078723
0.00785957
0.00784048
0.00784051
0.00783966
0.00784313
0.00784689
0.00785008
0.00785093
0.00784908
0.00784771
0.00784767
0.00785177
0.00786113
0.00786974
0.00787499
0.00787325
0.0078758
0.017845
0.0206854
0.0228194
0.024303
0.0253303
0.0260785
0.0266687
0.0271637
0.0275754
0.0278762
0.0280144
0.0279279
0.0275473
0.0267963
0.0256633
0.0242489
0.0225851
0.0207248
0.0187363
0.0166773
0.0144922
0.0122841
0.0101743
0.00813844
0.0062302
0.00451418
0.00302499
0.00189198
0.0011748
0.000780873
0.000608828
0.000516777
0.000426837
0.000228082
0.0122291
0.0146448
0.0181269
0.010901
0.0100237
0.00938509
0.00892501
0.00859404
0.00835741
0.00818964
0.00807155
0.00798887
0.00793028
0.0078907
0.00786967
0.00785616
0.00784045
0.00784001
0.00784001
0.00784339
0.00784714
0.00785018
0.00785088
0.00784898
0.00784771
0.00784767
0.00785177
0.00786112
0.00786974
0.007875
0.00787328
0.00787575
0.0209572
0.0230061
0.0243811
0.025297
0.025944
0.0264556
0.0269087
0.0273306
0.0277063
0.0279913
0.0281279
0.0280561
0.0277114
0.0270172
0.025946
0.0245832
0.0229494
0.0210898
0.0190718
0.0169598
0.0147097
0.0124217
0.0102639
0.00821416
0.00629056
0.00456335
0.00306156
0.00191464
0.00118672
0.000785792
0.000610322
0.000517242
0.00042759
0.00022907
0.0119397
0.0142173
0.0180554
0.0211616
0.010722
0.00989354
0.00928949
0.0088558
0.00854427
0.0083221
0.00816486
0.00805434
0.00797721
0.00792202
0.00788658
0.00786787
0.0078527
0.00784065
0.00783956
0.00784034
0.00784367
0.00784735
0.00785027
0.00785084
0.00784894
0.00784771
0.00784767
0.00785175
0.00786109
0.00786968
0.00787499
0.00787333
0.00787569
0.0231358
0.0244013
0.0252025
0.0257393
0.0261544
0.0265359
0.0269258
0.0273234
0.0276934
0.0279812
0.0281287
0.0280813
0.0277801
0.027149
0.0261468
0.0248444
0.0232518
0.021406
0.0193717
0.0172184
0.0148857
0.0125383
0.0103621
0.00829713
0.006357
0.00461711
0.0031017
0.00193969
0.00119977
0.000791402
0.000611734
0.000518053
0.00042825
0.000229841
0.0116686
0.0137579
0.0176224
0.0210492
0.0232105
0.0105484
0.00976516
0.00919588
0.00878815
0.00849581
0.00828785
0.00814091
0.00803793
0.00796644
0.00791466
0.00788289
0.00786637
0.00784947
0.00784092
0.00783918
0.00784066
0.00784396
0.00784754
0.00785032
0.00785082
0.00784892
0.00784771
0.00784767
0.00785173
0.00786094
0.00786955
0.00787499
0.00787339
0.00787563
0.0243817
0.0250694
0.0254925
0.0258006
0.0260898
0.0264151
0.0267911
0.0271952
0.0275775
0.0278789
0.0280452
0.028029
0.0277763
0.0272115
0.0262814
0.0250445
0.0235006
0.0216784
0.0196388
0.0174234
0.0150339
0.0126656
0.0104696
0.00838804
0.00643022
0.00467597
0.00314583
0.0019674
0.00121416
0.000797458
0.000613605
0.000518601
0.000429139
0.000231001
0.0114141
0.0133082
0.017082
0.0207516
0.0230367
0.0243224
0.0103783
0.00963893
0.00910441
0.0087222
0.00844879
0.00825472
0.00811801
0.00802271
0.0079566
0.00790798
0.00787963
0.00786504
0.00784659
0.00784116
0.00783891
0.00784095
0.00784427
0.00784761
0.00785032
0.00785082
0.00784892
0.00784771
0.00784767
0.00785159
0.00786068
0.00786941
0.00787498
0.00787345
0.00787557
0.0249138
0.0252241
0.0254199
0.0256033
0.0258398
0.0261588
0.0265529
0.0269817
0.0273861
0.0277074
0.0278985
0.0279187
0.0277178
0.0272201
0.0263629
0.0251939
0.0237035
0.0219122
0.019845
0.017594
0.0151945
0.0128048
0.0105875
0.00848774
0.00651097
0.00474053
0.00319439
0.0019981
0.00123
0.000804445
0.000615344
0.000519613
0.000429982
0.00023188
0.0111721
0.0128823
0.0164869
0.0203513
0.0228362
0.0240826
0.0247311
0.0102114
0.00951523
0.00901529
0.00865813
0.00840334
0.00822304
0.00809676
0.00800884
0.00794753
0.00790203
0.00787669
0.00786379
0.00784418
0.00784132
0.00783874
0.00784123
0.00784446
0.00784757
0.00785032
0.00785082
0.00784894
0.00784771
0.00784765
0.00785135
0.0078604
0.00786926
0.00787498
0.00787353
0.00787551
0.0249482
0.0250314
0.025101
0.0252316
0.0254653
0.0258113
0.0262431
0.0267062
0.0271374
0.0274829
0.027704
0.0277652
0.0276183
0.0271875
0.0264022
0.0253014
0.0238675
0.0220862
0.0200142
0.0177764
0.0153683
0.0129566
0.0107169
0.00859716
0.00660012
0.00481147
0.0032479
0.00203216
0.00124757
0.000811914
0.000617711
0.000520277
0.000431033
0.000233241
0.0109401
0.0124837
0.0158638
0.0198774
0.0225476
0.0239353
0.0244235
0.0246538
0.0100477
0.00939446
0.00892878
0.00859615
0.00835988
0.00819364
0.00807741
0.00799614
0.00793916
0.00789682
0.00787396
0.00786242
0.00784244
0.00784138
0.00783868
0.00784137
0.00784451
0.00784755
0.00785032
0.00785082
0.00784898
0.00784774
0.0078476
0.00785111
0.0078601
0.00786911
0.00787498
0.00787361
0.00787545
0.0246476
0.0246007
0.0246141
0.0247413
0.025007
0.0254017
0.0258817
0.0263827
0.0268429
0.027217
0.0274736
0.0275801
0.0274886
0.0271234
0.0264083
0.0253752
0.0239818
0.0222264
0.020192
0.0179708
0.015556
0.0131222
0.0108587
0.00871739
0.00669865
0.00488956
0.00330695
0.00207
0.00126701
0.000820539
0.000619888
0.000521571
0.000432163
0.000234545
0.0107164
0.0121133
0.0152256
0.0193443
0.022204
0.0237147
0.0242908
0.0242773
0.0242503
0.0098876
0.00927715
0.00884511
0.00853688
0.00831956
0.00816689
0.00805978
0.00798451
0.00793135
0.00789227
0.00787142
0.00786049
0.00784127
0.00784141
0.00783863
0.00784134
0.00784455
0.00784755
0.00785032
0.00785084
0.00784909
0.00784779
0.00784755
0.00785086
0.00785978
0.00786893
0.00787497
0.0078737
0.00787539
0.0241143
0.0240055
0.024011
0.0241707
0.0244926
0.0249484
0.0254799
0.0260188
0.0265102
0.0269182
0.0272164
0.0273723
0.0273371
0.0270359
0.0263889
0.0254156
0.0240714
0.0223706
0.0203779
0.0181771
0.0157582
0.0133026
0.0110142
0.00884961
0.00680765
0.00497571
0.00337225
0.00211213
0.00128871
0.000830047
0.000622947
0.000522392
0.000433642
0.000236606
0.0105011
0.0117697
0.0145816
0.0187542
0.0218199
0.023457
0.0240953
0.0241317
0.0238037
0.0236273
0.00973143
0.00916383
0.00876509
0.00848192
0.00828292
0.00814255
0.00804369
0.00797384
0.00792404
0.00788824
0.00786919
0.00785818
0.00784052
0.00784143
0.00783861
0.00784133
0.00784455
0.00784757
0.00785032
0.00785088
0.00784923
0.00784785
0.00784752
0.0078506
0.00785944
0.00786875
0.00787496
0.0078738
0.00787533
0.0234177
0.0232934
0.0233277
0.0235466
0.0239393
0.0244609
0.0250416
0.0256181
0.0261444
0.0265935
0.02694
0.0271488
0.0271704
0.0269318
0.0263548
0.0254442
0.0241601
0.0225177
0.0205712
0.0183952
0.0159753
0.0134988
0.0111847
0.00899512
0.00692835
0.00507095
0.0034446
0.00215911
0.0013129
0.000840916
0.00062573
0.000524466
0.000435192
0.000238052
0.0102947
0.0114453
0.0139444