/*--------------------------------*- C++ -*----------------------------------*\
  =========                 |
  \\      /  F ield         | OpenFOAM: The Open Source CFD Toolbox
   \\    /   O peration     | Website:  https://openfoam.org
    \\  /    A nd           | Version:  8
     \\/     M anipulation  |
\*---------------------------------------------------------------------------*/
FoamFile
{
    version     2.0;
    format      ascii;
    class       volScalarField;
    location    "0.07";
    object      epsilon;
}
// * * * * * * * * * * * * * * * * * * * * * * * * * * * * * * * * * * * * * //

dimensions      [0 2 -3 0 0 0 0];

internalField   nonuniform List<scalar> 
15677
(
84.2281
22.5555
71.0132
9.07282
34.1343
72.5808
4.90916
15.859
57.9672
80.2171
3.26473
8.64918
26.1685
82.8365
91.3012
2.51381
5.41752
13.1612
39.555
104.402
99.8855
2.14979
3.78794
7.67235
18.9504
53.029
121.101
106.618
1.98021
2.89543
5.0438
10.2827
25.2878
65.3772
133.138
112.185
1.91068
2.38299
3.64078
6.3568
13.1149
31.7175
75.9628
141.459
116.483
1.88211
2.09111
2.83777
4.36818
7.71027
16.0709
37.9042
84.7325
146.87
120.025
1.86769
1.94321
2.36263
3.26618
5.07813
9.11162
19.0385
43.7682
91.5721
150.482
122.554
1.86355
1.87879
2.08214
2.62016
3.66796
5.80111
10.5181
22.0483
48.9846
96.9459
152.685
124.755
1.86405
1.8491
1.92814
2.23298
2.85724
4.07184
6.51908
11.9607
24.9218
53.6257
100.888
154.228
126.353
1.8648
1.83808
1.8564
2.00496
2.37218
3.09464
4.47026
7.2472
13.3613
27.6885
57.4492
103.983
155.091
127.941
1.86502
1.83615
1.82405
1.87868
2.08042
2.51307
3.32951
4.86909
7.94735
14.7463
30.1339
60.7322
106.21
155.75
129.151
1.86503
1.83637
1.81301
1.81892
1.9112
2.15971
2.65486
3.56257
5.24672
8.63301
15.9988
32.368
63.3711
107.981
156.013
130.538
1.86499
1.8366
1.81072
1.79307
1.82147
1.94832
2.24303
2.79545
3.78058
5.60786
9.24906
17.1659
34.287
65.621
109.199
156.301
131.477
1.86495
1.83669
1.81049
1.78523
1.77827
1.8289
1.99194
2.32689
2.92618
3.98399
5.92752
9.81392
18.1958
36.0127
67.3726
110.196
156.359
132.668
1.86491
1.83671
1.81055
1.78316
1.76252
1.76865
1.84463
2.03819
2.40505
3.04574
4.16165
6.21276
10.3107
19.1441
37.458
68.8492
110.763
156.503
133.447
1.86488
1.83672
1.81058
1.78265
1.75741
1.74488
1.76702
1.86495
2.082
2.47562
3.14922
4.31687
6.45991
10.766
19.971
38.7313
69.8954
111.217
156.553
134.48
1.86484
1.83672
1.81056
1.7825
1.75587
1.73631
1.73323
1.76826
1.88501
2.12141
2.53644
3.23865
4.44957
6.68267
11.1659
20.7204
39.7335
70.7224
111.407
156.684
135.163
1.86482
1.83671
1.81054
1.78241
1.7554
1.73339
1.71997
1.72465
1.77135
1.90326
2.15541
2.58891
3.31482
4.56752
6.87681
11.5285
21.3437
40.5472
71.2392
111.487
156.786
136.084
1.8648
1.83671
1.81051
1.78234
1.75522
1.73247
1.71498
1.70627
1.71778
1.77482
1.91908
2.18492
2.63396
3.38231
4.66989
7.05006
11.8377
21.859
41.1494
71.5733
111.444
157.008
136.735
1.86479
1.8367
1.81049
1.78228
1.7551
1.73216
1.7132
1.69878
1.69391
1.71192
1.77781
1.93305
2.2108
2.67433
3.44137
4.76012
7.19854
12.0935
22.2661
41.5506
71.6742
111.346
157.196
137.641
1.86477
1.83669
1.81048
1.78223
1.755
1.73201
1.71256
1.69589
1.68349
1.68282
1.70671
1.78073
1.94595
2.23477
2.71054
3.4936
4.83754
7.31998
12.3002
22.5464
41.8087
71.6322
111.14
157.57
138.261
1.86476
1.83668
1.81047
1.78219
1.75492
1.7319
1.71229
1.69482
1.67913
1.66955
1.6726
1.70258
1.78428
1.95889
2.25722
2.7433
3.53882
4.9008
7.41808
12.4448
22.7389
41.8614
71.4935
110.977
157.856
139.184
1.86475
1.83668
1.81046
1.78216
1.75485
1.73181
1.71212
1.69439
1.67733
1.66375
1.65636
1.66437
1.70012
1.78931
1.97204
2.2785
2.77257
3.57682
4.95204
7.4875
12.5438
22.8165
41.816
71.2541
110.687
158.407
139.773
1.86474
1.83667
1.81046
1.78214
1.7548
1.73172
1.71199
1.69417
1.67653
1.66125
1.64892
1.64571
1.65807
1.70028
1.79567
1.98562
2.29858
2.79849
3.60825
4.98982
7.53386
12.5911
22.8005
41.6964
70.8962
110.511
158.791
140.721
1.86473
1.83665
1.81046
1.78212
1.75476
1.73165
1.71189
1.69403
1.67611
1.66012
1.64558
1.63683
1.637
1.65431
1.70182
1.80351
1.9996
2.31777
2.82147
3.63382
5.01652
7.56012
12.585
22.7438
41.4629
70.5224
110.205
159.525
141.312
1.86472
1.83664
1.81046
1.7821
1.75472
1.73159
1.7118
1.69391
1.67584
1.65952
1.64403
1.63263
1.6268
1.63129
1.65391
1.70555
1.81307
2.01443
2.3365
2.84257
3.65454
5.03475
7.55969
12.5601
22.6253
41.1646
70.0726
110.058
159.993
142.232
1.86471
1.83663
1.81046
1.78208
1.75469
1.73154
1.71173
1.69381
1.67564
1.65914
1.64323
1.63057
1.62198
1.61987
1.6283
1.65542
1.71225
1.82474
2.03052
2.35571
2.86248
3.67233
5.04423
7.55275
12.5075
22.4534
40.8121
69.6338
109.78
160.995
143.061
1.8647
1.83661
1.81046
1.78206
1.75466
1.73149
1.71167
1.69373
1.67549
1.65887
1.64273
1.62946
1.61962
1.61418
1.61531
1.62911
1.65952
1.72181
1.83897
2.0488
2.37618
2.88288
3.6883
5.04986
7.53634
12.4285
22.249
40.4297
69.1571
109.667
161.289
143.857
1.86469
1.8366
1.81046
1.78205
1.75464
1.73145
1.71162
1.69366
1.67537
1.65865
1.64237
1.62876
1.61833
1.61129
1.60898
1.61566
1.6322
1.66755
1.73487
1.85674
2.07013
2.39946
2.90492
3.70494
5.05381
7.51015
12.3356
22.0227
40.0237
68.6888
109.443
161.954
144.65
1.86468
1.83659
1.81047
1.78204
1.75461
1.7314
1.71157
1.69359
1.67528
1.65846
1.64208
1.62827
1.61752
1.6097
1.60583
1.60877
1.61813
1.63884
1.67992
1.75246
1.87897
2.09596
2.42655
2.9305
3.72358
5.05796
7.48138
12.234
21.7845
39.6046
68.17
109.22
162.896
145.464
1.86467
1.83658
1.81047
1.78204
1.75459
1.73136
1.71153
1.69354
1.67521
1.65831
1.64185
1.62789
1.61693
1.60871
1.60408
1.60511
1.61089
1.62409
1.65073
1.69752
1.77556
1.90703
2.12722
2.45913
2.96058
3.7464
5.06442
7.45219
12.13
21.5393
39.1356
67.6207
109.056
163.996
146.282
1.83657
1.8647
1.81049
1.78204
1.75457
1.73131
1.7115
1.69349
1.67515
1.65818
1.64165
1.62758
1.61645
1.60802
1.60297
1.60306
1.60714
1.61664
1.63558
1.66846
1.72145
1.80555
1.94193
2.16556
2.49803
2.99689
3.77428
5.07476
7.42595
12.0256
21.2681
38.6282
67.1029
108.944
165.181
147.118
1.81051
1.83664
1.86477
1.78205
1.75456
1.73127
1.71146
1.69344
1.67511
1.65806
1.64148
1.62731
1.61605
1.60747
1.60216
1.60179
1.60505
1.61286
1.62801
1.65369
1.69321
1.75308
1.84356
1.98525
2.21159
2.54473
3.03992
3.80871
5.09038
7.4033
11.9152
20.9771
38.1485
66.6139
108.933
166.433
147.926
1.78206
1.81069
1.83679
1.86484
1.75455
1.73123
1.71143
1.69339
1.67508
1.65796
1.64135
1.62708
1.6157
1.60702
1.60152
1.60089
1.60378
1.61081
1.62426
1.64658
1.67935
1.72651
1.79374
1.891
2.03772
2.26685
2.59967
3.0911
3.84993
5.11189
7.38492
11.8017
20.7067
37.6885
66.1695
108.962
167.678
148.744
1.75455
1.78231
1.81104
1.83693
1.86491
1.7312
1.7114
1.69335
1.67506
1.65788
1.64123
1.62688
1.6154
1.60663
1.60097
1.60019
1.60289
1.60959
1.62232
1.64331
1.67316
1.71433
1.76981
1.84513
1.94909
2.10104
2.3315
2.66399
3.15013
3.89872
5.14361
7.37425
11.7048
20.4542
37.2647
65.7701
109.033
168.959
149.511
1.73116
1.75481
1.78281
1.8114
1.83708
1.86498
1.71137
1.69331
1.67505
1.6578
1.64113
1.6267
1.61514
1.6063
1.6005
1.59961
1.60219
1.60877
1.62127
1.64195
1.67096
1.70995
1.76031
1.82512
1.90864
2.01966
2.17556
2.40717
2.7373
3.21818
3.96175
5.18876
7.37713
11.6208
20.227
36.8693
65.4118
109.167
170.19
150.287
1.71134
1.7314
1.75536
1.78332
1.81177
1.83722
1.86505
1.69328
1.67505
1.65774
1.64106
1.62655
1.61491
1.60601
1.60009
1.59911
1.60162
1.60815
1.62063
1.64145
1.67055
1.70933
1.75843
1.81963
1.89433
1.98652
2.10359
2.26317
2.49357
2.82036
3.30273
4.04226
5.24483
7.38715
11.5524
20.0203
36.511
65.0987
109.323
171.447
150.994
1.69325
1.7116
1.73192
1.75593
1.78385
1.81214
1.83737
1.86513
1.67505
1.65769
1.64099
1.62641
1.61471
1.60575
1.59973
1.59869
1.60114
1.60764
1.62018
1.64131
1.67099
1.71059
1.76025
1.82117
1.89341
1.97919
2.08031
2.20326
2.36382
2.59223
2.92357
3.40859
4.13338
5.31004
7.40758
11.4967
19.8382
36.1842
64.8185
109.526
172.623
151.714
1.67506
1.69355
1.71217
1.73245
1.75651
1.7844
1.81253
1.83751
1.8652
1.65766
1.64095
1.6263
1.61454
1.60552
1.59942
1.59832
1.60073
1.60723
1.61984
1.64132
1.67173
1.71271
1.76411
1.82687
1.9002
1.9849
2.08057
2.19091
2.31931
2.47981
2.71492
3.05283
3.52657
4.23357
5.38315
7.43821
11.4562
19.6758
35.8934
64.5758
109.729
173.824
152.357
1.65763
1.67545
1.69421
1.71274
1.733
1.75711
1.78496
1.81292
1.83765
1.86528
1.64092
1.6262
1.6144
1.60531
1.59914
1.598
1.60038
1.60688
1.61958
1.64139
1.67257
1.71503
1.76881
1.8348
1.91143
1.99911
2.09566
2.20209
2.31856
2.45184
2.62575
2.87031
3.19681
3.65458
4.34144
5.4629
7.4769
11.4255
19.5356
35.6355
64.362
109.971
174.922
153.016
1.64089
1.65803
1.67628
1.69487
1.71332
1.73356
1.75773
1.78555
1.81331
1.8378
1.86536
1.62612
1.61427
1.60512
1.59891
1.59771
1.60006
1.60658
1.61938
1.64151
1.67343
1.71733
1.77357
1.84363
1.92521
2.01831
2.1199
2.22961
2.34433
2.46677
2.61708
2.80923
3.04409
3.35361
3.79188
4.45561
5.54812
7.52157
11.4078
19.4132
35.4066
64.1815
110.201
176.049
153.593
1.62606
1.64132
1.6589
1.67712
1.69555
1.71392
1.73413
1.75838
1.78615
1.81372
1.83794
1.86544
1.61417
1.60495
1.59871
1.59746
1.59979
1.60632
1.61921
1.64165
1.67427
1.71953
1.77818
1.85238
1.93999
2.04074
2.15005
2.26759
2.38787
2.51112
2.65437
2.82685
3.01262
3.23581
3.52348
3.93719
4.57482
5.63731
7.5716
11.3955
19.3085
35.2049
64.0239
110.463
177.053
154.189
1.61409
1.6264
1.64224
1.6598
1.67798
1.69624
1.71453
1.73473
1.75905
1.78678
1.81413
1.83809
1.86553
1.6048
1.59854
1.59724
1.59955
1.60609
1.61908
1.6418
1.67509
1.7216
1.78256
1.86076
1.95451
2.0646
2.18452
2.31309
2.44386
2.57569
2.72424
2.89592
3.06392
3.23436
3.4392
3.70376
4.08864
4.69746
5.7292
7.62513
11.3954
19.2192
35.0271
63.8931
110.706
178.099
154.703
1.60466
1.61435
1.62722
1.6432
1.66073
1.67886
1.69694
1.71515
1.73535
1.75975
1.78742
1.81455
1.83824
1.86562
1.59841
1.59704
1.59934
1.60589
1.61897
1.64195
1.67586
1.72354
1.78671
1.8687
1.96844
2.08817
2.22113
2.36483
2.5099
2.65602
2.81844
3.0026
3.17225
3.3273
3.47444
3.65272
3.8921
4.24489
4.8226
5.82275
7.68156
11.3984
19.1428
34.8709
63.7803
110.974
179.003
155.238
1.59831
1.60479
1.61504
1.62808
1.64419
1.6617
1.67976
1.69766
1.71579
1.736
1.76047
1.78809
1.81496
1.83838
1.86571
1.59684
1.59914
1.60572
1.61888
1.6421
1.67658
1.72533
1.79059
1.87613
1.98171
2.11097
2.2574
2.42025
2.58531
2.75058
2.93376
3.14078
3.32607
3.48366
3.61584
3.73098
3.8746
4.08541
4.40494
4.94901
5.91683
7.73977
11.4056
19.0783
34.7338
63.6883
111.218
179.965
155.694
1.59667
1.59835
1.60523
1.61577
1.62899
1.64522
1.6627
1.68067
1.69839
1.71644
1.73667
1.76122
1.78877
1.81537
1.83852
1.86579
1.59896
1.60556
1.6188
1.64225
1.67725
1.72699
1.7942
1.88305
1.99429
2.13279
2.29265
2.476
2.66702
2.85964
3.0702
3.3098
3.52254
3.69713
3.83029
3.92825
4.00176
4.10318
4.27984
4.56643
5.0754
6.01074
7.79878
11.4185
19.0242
34.6138
63.6101
111.482
180.768
156.171
1.59882
1.59639
1.59863
1.60571
1.61654
1.62995
1.64628
1.66374
1.6816
1.69914
1.71711
1.73737
1.762
1.78944
1.81576
1.83865
1.86588
1.60541
1.61874
1.6424
1.67786
1.72851
1.79753
1.88946
2.00612
2.15346
2.32665
2.53112
2.75009
2.97952
3.22998
3.5131
3.76564
3.97044
4.11881
4.21245
4.26303
4.28451
4.3371
4.47417
4.72765
5.20079
6.10341
7.858
11.4346
18.9789
34.5087
63.5472
111.72
181.649
156.573
1.60534
1.5984
1.59603
1.59894
1.60624
1.61736
1.63097
1.64738
1.66482
1.68254
1.6999
1.71779
1.7381
1.76277
1.79009
1.81613
1.83878
1.86596
1.61869
1.64254
1.67843
1.72991
1.80058
1.89537
2.01719
2.1729
2.35928
2.58506
2.83275
3.10356
3.40975
3.75762
4.06542
4.3162
4.49405
4.59578
4.63092
4.61881
4.57711
4.57423
4.66716
4.88686
5.32375
6.19446
7.91685
11.4533
18.9414
34.4168
63.4953
111.972
182.353
156.995
1.61873
1.60466
1.59773
1.59566
1.59932
1.60683
1.61822
1.63205
1.64852
1.66593
1.6835
1.70068
1.7185
1.73884
1.76353
1.79072
1.81648
1.83891
1.86605
1.64266
1.67895
1.73119
1.80337
1.90079
2.02747
2.19104
2.39042
2.63724
2.91407
3.22998
3.60098
4.04163
4.43876
4.7587
4.98565
5.10846
5.13491
5.08718
4.99447
4.87765
4.81273
4.85774
5.04367
5.44477
6.28343
7.97486
11.4738
18.9104
34.3364
63.4544
112.2
183.158
157.349
1.64289
1.61763
1.60336
1.59703
1.59538
1.59975
1.60748
1.61913
1.63319
1.6497
1.66707
1.68447
1.70147
1.7192
1.73957
1.76428
1.79132
1.81681
1.83903
1.86613
1.67941
1.73234
1.80592
1.90577
2.03696
2.2079
2.41995
2.68716
2.99357
3.35805
3.80037
4.35268
4.8916
5.33889
5.64795
5.81154
5.83418
5.74473
5.58317
5.38907
5.18441
5.051
5.04474
5.19508
5.56277
6.36991
8.03167
11.4956
18.8852
34.2661
63.422
112.436
183.778
157.663
1.67997
1.64119
1.61521
1.60199
1.59644
1.59518
1.6002
1.60821
1.62008
1.63438
1.65091
1.66824
1.68544
1.70226
1.71989
1.74029
1.76501
1.79191
1.81713
1.83916
1.86621
1.73339
1.80823
1.91033
2.0457
2.22351
2.44778
2.73451
3.07097
3.48662
4.00482
4.68648
5.4146
6.08891
6.57059
6.81128
6.8389
6.69274
6.43317
6.12023
5.80148
5.49575
5.28766
5.22803
5.34091
5.67702
6.45354
8.08696
11.5184
18.8646
34.2047
63.3971
112.65
184.394
157.913
1.73453
1.67753
1.63712
1.6127
1.60079
1.59594
1.59507
1.60068
1.60903
1.62109
1.63564
1.65217
1.66943
1.68639
1.70301
1.72056
1.741
1.76573
1.79247
1.81744
1.83928
1.8663
1.81033
1.91449
2.05373
2.23796
2.47387
2.77914
3.14605
3.61408
4.21129
5.04244
6.01186
7.01025
7.82888
8.26843
8.32626
8.10596
7.6996
7.20446
6.69805
6.23008
5.81009
5.52155
5.40674
5.48101
5.78704
6.53406
8.14051
11.5416
18.8481
34.1509
63.3786
112.835
184.845
158.217
1.81245
1.73111
1.67113
1.63288
1.61048
1.59968
1.59551
1.59508
1.60118
1.60991
1.62217
1.63694
1.65346
1.6706
1.6873
1.70375
1.72123
1.7417
1.76642
1.79301
1.81773
1.83941
1.86638
1.91831
2.06109
2.25133
2.49824
2.82108
3.21857
3.73876
4.418
5.4215
6.68809
8.10857
9.41967
10.3019
10.5402
10.2439
9.63182
8.85888
8.05718
7.31396
6.67251
6.12579
5.75166
5.58021
5.61524
5.89251
6.61126
8.19214
11.565
18.835
34.1038
63.3666
112.981
185.36
158.515
1.92201
1.80782
1.72137
1.66451
1.62898
1.6084
1.59865
1.59512
1.59529
1.6017
1.61087
1.62332
1.63829
1.65476
1.67172
1.68819
1.70447
1.72189
1.74239
1.7671
1.79352
1.81802
1.83954
1.86642
2.0679
2.2637
2.52095
2.86046
3.28829
3.85937
4.62462
5.82436
7.4413
9.37713
11.3296
12.8817
13.6437
13.4462
12.5808
11.4137
10.1626
8.98407
7.96291
7.1257
6.44115
5.97709
5.74796
5.74356
5.99325
6.68501
8.24172
11.5883
18.8248
34.0679
63.3573
113.153
185.881
158.881
2.07422
1.91588
1.79337
1.71139
1.65841
1.62527
1.60644
1.59767
1.59465
1.59564
1.60228
1.6119
1.62454
1.63963
1.65602
1.6728
1.68903
1.70516
1.72254
1.74307
1.76775
1.79402
1.81829
1.8396
1.86642
2.27526
2.54211
2.89746
3.355
3.97522
4.83179
6.24998
8.26281
10.7951
13.5284
15.9699
17.5771
17.94
17.007
15.3255
13.4316
11.5932
9.97328
8.63801
7.58602
6.75442
6.19705
5.90962
5.86595
6.08918
6.75529
8.28919
11.6112
18.8178
34.039
63.3486
113.33
186.488
159.226
2.28572
2.06637
1.89466
1.77866
1.70217
1.6526
1.62173
1.60457
1.59677
1.5942
1.5961
1.60294
1.61299
1.62579
1.64095
1.65725
1.67384
1.68986
1.70584
1.72318
1.74374
1.76839
1.79449
1.81843
1.83957
1.86642
2.56197
2.9323
3.41856
4.08621
5.04054
6.69561
9.14006
12.3349
15.9712
19.5125
22.2853
23.6507
23.2429
21.2164
18.449
15.655
13.1278
11.0103
9.33128
8.0495
7.06386
6.41087
6.06494
5.98242
6.18032
6.82206
8.33447
11.6308
18.813
34.0091
63.3414
113.548
187.067
159.661
2.5795
2.27563
2.03554
1.87334
1.76504
1.69335
1.64702
1.61837
1.60285
1.59594
1.59382
1.59663
1.60368
1.61409
1.62704
1.64223
1.65845
1.67483
1.69065
1.70651
1.72381
1.7444
1.769
1.79475
1.81844
1.83957
1.86642
2.96535
3.47905
4.19277
5.25174
7.15713
10.0592
13.9675
18.6077
23.4362
27.6888
30.513
31.2193
29.5764
26.0476
21.9103
18.0479
14.741
12.0799
10.0344
8.51216
7.36784
6.61794
6.21374
6.09308
6.2667
6.88536
8.3719
11.6478
18.8085
33.9784
63.3381
113.765
187.76
160.056
2.99409
2.5668
2.23091
2.00494
1.85355
1.75198
1.68485
1.64168
1.6152
1.60125
1.59519
1.59354
1.59723
1.60449
1.6152
1.62828
1.64349
1.65961
1.67578
1.69142
1.70716
1.72444
1.74505
1.76933
1.79477
1.81844
1.83957
1.86642
3.53683
4.29586
5.466
7.62949
11.0066
15.665
21.3876
27.6586
33.6727
38.4135
40.8658
40.365
36.9341
31.4558
25.6612
20.5728
16.4077
13.1671
10.7395
8.97025
7.66485
6.81776
6.35596
6.19804
6.34844
6.93737
8.40377
11.6668
18.805
33.9477
63.3395
114.038
188.395
160.569
3.58645
2.97775
2.50191
2.18716
1.97648
1.83453
1.73936
1.67667
1.63657
1.61222
1.59977
1.59455
1.59337
1.59786
1.60537
1.6163
1.62952
1.64471
1.66073
1.6767
1.69217
1.7078
1.72506
1.74538
1.76935
1.79479
1.81844
1.83957
1.86642
4.39654
5.68354
8.10746
11.9693
17.4021
24.2638
32.0958
40.1022
47.1722
52.0209
53.5134
51.1244
45.2764
37.3795
29.6485
23.1922
18.1045
14.2582
11.4394
9.42036
7.95355
7.00997
6.49157
6.29744
6.41542
6.98149
8.43881
11.6883
18.8021
33.9167
63.3449
114.301
189.197
161.014
4.48406
3.56627
2.88217
2.4394
2.14644
1.9491
1.81611
1.72717
1.66882
1.63172
1.60943
1.59841
1.59402
1.59333
1.59849
1.60629
1.61741
1.63075
1.6459
1.66182
1.67758
1.69289
1.70843
1.72536
1.74538
1.76936
1.79479
1.81844
1.8396
1.86638
5.90078
8.58619
12.9357
19.1553
27.1925
36.668
46.8376
56.5702
64.4069
68.7955
68.5627
63.4791
54.5296
43.7436
33.8164
25.8701
19.81
15.3415
12.1278
9.85951
8.23281
7.19425
6.62057
6.37893
6.47217
7.02979
8.47738
11.7123
18.8014
33.8873
63.3559
114.642
189.894
161.618
4.45777
6.09136
3.42164
2.79213
2.38114
2.10722
1.92255
1.79828
1.71542
1.66129
1.6271
1.60685
1.5972
1.59362
1.59346
1.59913
1.60724
1.61851
1.63196
1.64706
1.66286
1.67844
1.6936
1.70873
1.72533
1.74538
1.76936
1.79477
1.81843
1.83954
1.86629
9.06259
13.8963
20.9042
30.1339
41.3018
53.7454
66.3772
77.6747
85.7943
88.9446
86.0417
77.3508
64.5882
50.4618
38.1083
28.5734
21.5057
16.4068
12.7995
10.2853
8.5017
7.37032
6.72668
6.44801
6.53424
7.08272
8.5199
11.7395
18.8023
33.8579
63.3808
114.96
190.839
162.115
4.22301
6.07107
9.48341
3.28973
2.7082
2.32502
2.06918
1.89682
1.78107
1.70413
1.65411
1.62273
1.60452
1.59615
1.59327
1.5938
1.59977
1.60822
1.61962
1.63314
1.6482
1.66387
1.67926
1.69394
1.7087
1.72532
1.74538
1.76935
1.79475
1.81829
1.83941
1.86621
14.8411
22.6322
33.0542
45.9319
60.7056
76.3756
91.4548
103.971
111.666
112.574
105.887
92.6027
75.3201
57.4413
42.4693
31.272
23.1757
17.4457
13.4501
10.6956
8.75934
7.51562
6.81688
6.52365
6.60213
7.14096
8.56684
11.7702
18.8049
33.8326
63.4062
115.383
191.613
162.823
4.01699
5.6604
9.49243
15.68
3.1675
2.62737
2.27061
2.03232
1.87197
1.76451
1.69333
1.64728
1.61861
1.60247
1.59525
1.5929
1.59427
1.60044
1.60922
1.62073
1.6343
1.64929
1.66483
1.67966
1.69393
1.70869
1.72532
1.74538
1.76933
1.79449
1.81801
1.83928
1.86613
24.3224
35.9262
50.5046
67.6155
86.3755
105.402
122.749
135.925
142.24
139.669
127.942
109.045
86.5734
64.5872
46.8477
33.9391
24.8062
18.4513
14.0763
11.0886
8.97231
7.63947
6.91595
6.60659
6.67621
7.20507
8.61876
11.8049
18.8107
33.808
63.4577
115.766
192.761
163.378
3.82965
5.30334
8.74471
15.7668
25.8338
3.05015
2.54913
2.21794
1.9967
1.84803
1.74863
1.68303
1.64085
1.61488
1.60069
1.5945
1.59261
1.59481
1.60114
1.61022
1.62184
1.63543
1.65036
1.66532
1.67966
1.69393
1.70869
1.72533
1.74538
1.769
1.79401
1.81773
1.83915
1.86604
38.7233
54.9789
74.3944
96.2215
119.225
141.596
160.852
173.89
177.591
170.081
151.957
126.442
98.1856
71.8072
51.1958
36.5511
26.3859
19.4181
14.6748
11.4131
9.15413
7.77593
7.02493
6.69771
6.75713
7.27568
8.67629
11.8443
18.8204
33.7917
63.5106
116.29
193.63
164.21
3.65268
4.9799
8.0821
14.4986
26.1047
41.2327
2.93686
2.4735
2.16708
1.9624
1.82506
1.73347
1.67333
1.63499
1.6116
1.59918
1.59387
1.59242
1.5954
1.60187
1.61121
1.62292
1.63652
1.6509
1.66535
1.67966
1.69393
1.7087
1.72536
1.74505
1.76838
1.79351
1.81743
1.83903
1.86596
59.3154
80.9853
105.799
132.695
160.074
185.644
206.255
218.075
217.635
203.527
177.602
144.534
109.993
79.0134
55.4704
39.088
27.9055
20.3409
15.1679
11.6902
9.35488
7.9265
7.14495
6.79794
6.84563
7.3535
8.74011
11.8891
18.8347
33.7764
63.5993
116.755
195.07
164.843
3.48429
4.67714
7.47474
13.3303
24.1482
41.836
63.203
2.82764
2.40064
2.11815
1.92951
1.80312
1.71917
1.66446
1.62978
1.60874
1.59788
1.59337
1.59234
1.59601
1.60262
1.61219
1.62399
1.63708
1.65093
1.66535
1.67966
1.69393
1.70873
1.72505
1.74439
1.76774
1.79299
1.81712
1.8389
1.86587
87.3343
115.036
145.66
177.857
209.651
238.15
259.33
268.526
262.105
239.586
204.485
163.045
121.835
86.1251
59.6343
41.5324
29.3561
21.1001
15.5889
11.9963
9.57677
8.09285
7.27729
6.9083
6.94254
7.4393
8.81103
11.9402
18.8546
33.7764
63.6934
117.406
196.058
165.819
3.32413
4.39233
6.90333
12.2323
22.3123
38.9955
64.3194
92.9989
2.72262
2.33073
2.07129
1.89811
1.78242
1.70608
1.65654
1.62516
1.60624
1.59677
1.59299
1.59235
1.59664
1.6034
1.61316
1.62454
1.6371
1.65095
1.66535
1.67966
1.69394
1.70843
1.72442
1.74373
1.76708
1.79245
1.8168
1.83878
1.86579
123.865
158.036
194.749
232.418
268.624
299.647
320.315
325.084
310.544
277.726
232.176
181.7
133.564
93.0715
63.6545
43.8685
30.5497
21.7485
16.0539
12.3348
9.82226
8.27678
7.42339
7.02995
7.04882
7.53395
8.88997
11.9984
18.8814
33.7823
63.8347
117.985
197.904
166.755
3.17205
4.12562
6.36373
11.183
20.5496
36.3074
60.3722
94.8131
131.67
2.62204
2.26395
2.0266
1.86849
1.76347
1.69437
1.64947
1.62106
1.60406
1.59583
1.59272
1.59245
1.59726
1.6042
1.61364
1.62456
1.63711
1.65095
1.66535
1.67966
1.6936
1.70779
1.72379
1.74305
1.7664
1.79188
1.81646
1.83865
1.8657
169.75
210.669
253.696
297.033
337.643
370.6
389.271
387.364
362.313
317.33
260.233
200.238
145.047
99.79
67.5015
45.7921
31.57
22.4655
16.5682
12.7092
10.094
8.48034
7.58482
7.16415
7.16552
7.63847
8.97797
12.0651
18.9168
33.7988
63.9862
118.793
199.274
168.232
3.02762
3.8778
5.85744
10.1776
18.8315
33.6933
56.6403
89.4927
134.326
179.957
2.52621
2.20047
1.98452
1.8414
1.74648
1.68388
1.64315
1.61742
1.60217
1.59504
1.59251
1.59267
1.5979
1.60459
1.61362
1.62457
1.63711
1.65093
1.66533
1.67925
1.69288
1.70714
1.72315
1.74237
1.7657
1.7913
1.81611
1.83852
1.86562
225.552
273.428
323.066
372.391
417.38
451.382
466.047
454.734
416.614
357.729
288.222
218.425
156.167
106.224
70.6715
47.4385
32.7002
23.2592
17.1372
13.1237
10.395
8.70577
7.76336
7.31236
7.29386
7.75399
9.0762
12.1415
18.9622
33.8333
64.2006
119.676
201.781
169.271
2.89048
3.65082
5.38644
9.22217
17.1477
31.1136
52.9907
84.5114
127.294
183.5
238.241
2.43545
2.14084
1.94609
1.81713
1.73127
1.67449
1.63751
1.61418
1.60056
1.59435
1.59228
1.59305
1.59819
1.60457
1.61362
1.62457
1.6371
1.6509
1.66483
1.67842
1.69215
1.70649
1.72251
1.74167
1.76499
1.7907
1.81575
1.83838
1.86553
291.583
346.72
403.487
459.297
508.553
542.265
550.24
526.313
472.524
398.247
315.749
236.055
166.82
111.528
73.386
49.2642
33.9529
24.1382
17.767
13.5825
10.7285
8.95553
7.96099
7.47621
7.43523
7.88179
9.18607
12.2293
19.0204
33.8893
64.4746
121.048
204.159
171.045
2.76063
3.44369
4.95124
8.32545
15.5
28.5492
49.3678
79.6458
120.828
174.299
242.548
306.576
2.35059
2.08654
1.91173
1.79541
1.71764
1.66609
1.63247
1.61126
1.59915
1.59377
1.59218
1.59322
1.59814
1.60459
1.61363
1.62456
1.63708
1.65035
1.66385
1.67756
1.69139
1.70582
1.72186
1.74097
1.76426
1.79007
1.81536
1.83824
1.86544
368.032
431.023
495.809
558.776
612.025
643.399
641.135
600.977
529.053
438.247
342.464
252.946
175.597
116.067
76.3971
51.2899
35.342
25.1118
18.4641
14.0903
11.0978
9.23232
8.17988
7.65749
7.59122
8.02336
9.30915
12.3305
19.0933
33.9819
64.9311
122.319
207.551
172.249
2.63925
3.25316
4.55335
7.48745
13.8985
25.9979
45.7368
74.8196
114.564
166.052
230.543
311.28
384.827
2.27373
2.03811
1.88101
1.77595
1.70543
1.65856
1.62794
1.60865
1.59793
1.59343
1.59205
1.59316
1.59814
1.60459
1.61362
1.62454
1.63652
1.64928
1.66284
1.67667
1.69062
1.70514
1.72121
1.74026
1.76352
1.78943
1.81496
1.83809
1.86536
455.173
527.159
601.265
672.397
728.893
754.7
737.65
677.412
585.225
477.159
368.066
266.851
183.1
121.097
79.7379
53.5378
36.8821
26.19
19.2354
14.6523
11.5069
9.5391
8.42246
7.85825
7.76365
8.18044
9.44735
12.4472
19.2023
34.1437
65.4258
124.031
210.592
174.508
2.52936
3.07843
4.19388
6.7133
12.3632
23.4693
42.0834
69.9734
108.399
158.184
220.117
295.585
389.248
472.903
2.20555
1.99492
1.85356
1.75853
1.69449
1.6518
1.62385
1.60633
1.59712
1.59316
1.59189
1.5932
1.59814
1.60457
1.61364
1.62398
1.63541
1.64817
1.66178
1.67575
1.68983
1.70444
1.72054
1.73955
1.76276
1.78876
1.81454
1.83794
1.86528
553.66
636.232
721.977
802.515
860.352
875.661
838.301
754.219
640.134
514.49
389.126
278.713
191.396
126.67
83.4433
56.0311
38.5892
27.3838
20.0887
15.2739
11.9598
9.87905
8.69135
8.08076
7.95457
8.35499
9.60298
12.6078
19.3616
34.3601
66.0583
125.637
214.9
175.961
2.43212
2.9216
3.87472
6.0096
10.912
20.9815
38.4087
65.0718
102.241
150.562
210.384
282.431
368.608
476.007
571.109
2.14505
1.95642
1.82903
1.74293
1.68467
1.64568
1.62018
1.60468
1.59658
1.59294
1.59193
1.5932
1.59814
1.60459
1.61315
1.6229
1.63427
1.64703
1.66069
1.67479
1.689
1.70373
1.71987
1.73883
1.76199
1.78808
1.81412
1.83779
1.8652
664.137
760.664
861.588
952.166
1007.34
1005.15
941.33
830.029
692.99
545.2
407.049
291.787
200.56
132.839
87.5492
58.7944
40.48
28.7048
21.032
15.961
12.4609
10.2556
8.98943
8.32749
8.16644
8.54968
9.81116
12.8216
19.5603
34.6272
66.7464
127.84
218.472
178.848
2.34633
2.7823
3.60277
5.38454
9.56617
18.5568
34.7237
60.0962
96.0221
143.046
201.178
270.48
351.977
448.597
571.531
680.57
2.09134
1.92209
1.80709
1.72894
1.67578
1.64019
1.61745
1.60364
1.59626
1.593
1.59193
1.59316
1.59819
1.60419
1.61217
1.62181
1.6331
1.64586
1.65956
1.6738
1.68816
1.703
1.71919
1.7381
1.76122
1.78741
1.81371
1.83765
1.86512
789.228
905.515
1025.41
1124.85
1170.2
1141.54
1044.89
903.587
736.554
571.283
426.732
306.172
210.667
139.656
92.0924
61.8534
42.5724
30.1653
22.0741
16.7199
13.0146
10.6723
9.31973
8.60135
8.40196
8.80665
10.0789
13.0659
19.7946
34.9642
67.5965
129.9
223.714
180.631
2.27073
2.6582
3.37703
4.85048
8.35203
16.2203
31.0484
55.0386
89.6919
135.529
192.294
259.524
337.326
427.503
534.58
676.92
803.517
2.04362
1.89149
1.78745
1.71631
1.66781
1.63603
1.61577
1.60315
1.59636
1.593
1.59189
1.59322
1.5979
1.60338
1.61118
1.6207
1.63191
1.64466
1.6584
1.67277
1.68728
1.70224
1.71849
1.73737
1.76046
1.78676
1.8133
1.8375
1.86505
934.456
1078.42
1220.75
1324.25
1348.91
1283.16
1147.11
964.567
773.522
599.822
448.287
321.958
221.785
147.171
97.1098
65.2342
44.8847
31.7781
23.2239
17.5569
13.6258
11.1329
9.68569
8.90519
8.71276
9.13329
10.3745
13.3426
20.08
35.3605
68.5511
132.693
227.691
184.312
2.20411
2.54795
3.18513
4.40587
7.29756
14.0186
27.4119
49.9017
83.2079
127.915
183.575
249.267
324.384
409.512
507.775
626.025
793.753
946.227
2.00121
1.86419
1.76976
1.705
1.66168
1.63351
1.61508
1.60331
1.59636
1.59294
1.59205
1.59305
1.59724
1.6026
1.61018
1.61958
1.6307
1.64344
1.65721
1.6717
1.68637
1.70147
1.71779
1.73666
1.75973
1.78614
1.8129
1.83736
1.86498
1108.41
1291.14
1457.06
1555.22
1544.98
1428.06
1232.94
1016.38
813.858
630.924
471.804
339.219
233.974
155.433
102.636
68.9623
47.4352
33.5564
24.4908
18.4788
14.2994
11.6416
10.0905
9.3051
9.10436
9.4841
10.7009
13.6596
20.4126
35.8531
69.6824
135.328
233.995
186.539
2.14534
2.45048
3.01914
4.03836
6.41087
12.0429
23.879
44.7018
76.5354
120.112
174.87
239.49
312.723
394.263
485.632
591.95
723.116
925.392
1117.53
1.96349
1.8397
1.75396
1.69624
1.658
1.63254
1.6153
1.60331
1.59625
1.59316
1.59218
1.59267
1.59662
1.60184
1.60918
1.61847
1.62947
1.64219
1.65599
1.67058
1.68543
1.70068
1.71709
1.73598
1.75903
1.78553
1.81251
1.83722
1.86491
1326.59
1561.37
1751.05
1831.77
1760.79
1552.41
1306.18
1072.85
857.634
664.651
497.333
358.001
247.279
164.48
108.704
73.0617
50.2417
35.5129
25.884
19.4924
15.0406
12.2021
10.6213
9.80528
9.52464
9.86082
11.0618
14.0193
20.8142
36.4133
70.9995
138.788
238.248
191.242
2.09339
2.36476
2.87312
3.73563
5.67543
10.3369
20.5887
39.5087
69.6531
112.027
166.025
229.979
302.048
381.111
467.671
564.656
680.076
827.457
1082.63
1333.69
1.92979
1.8179
1.74158
1.69104
1.65666
1.63285
1.6153
1.60315
1.59657
1.59343
1.59228
1.59245
1.59599
1.60111
1.60819
1.61737
1.62824
1.64091
1.65473
1.66943
1.68446
1.69989
1.71642
1.73533
1.75836
1.78494
1.81213
1.83707
1.86484
1619.55
1933.31
2151.25
2181.83
1950.88
1659.03
1386.01
1133.94
904.82
700.983
524.875
378.322
261.723
174.338
115.336
77.5528
53.32
37.6598
27.4127
20.6047
15.8542
12.934
11.2805
10.3362
9.97593
10.2683
11.4605
14.4323
21.2776
37.1122
72.4792
142.176
245.906
194.05
2.04723
2.28961
2.7434
3.49012
5.07091
8.89632
17.6306
34.5134
62.608
103.571
156.871
220.511
292.063
369.675
452.881
543.524
646.456
773.845
944.996
1289.06
1634.49
1.89989
1.80072
1.73425
1.68925
1.65706
1.63285
1.61508
1.60363
1.59713
1.59377
1.59251
1.59235
1.59538
1.60041
1.60721
1.61627
1.62701
1.63961
1.65346
1.66824
1.68348
1.69912
1.71576
1.73471
1.75771
1.78438
1.81176
1.83693
1.86477
2097.17
2535.21
2782.57
2491.61
2112.91
1774.65
1471.89
1199.35
955.245
739.811
554.365
400.149
277.302
185.017
122.548
82.45
56.683
40.0078
29.0857
21.822
16.9125
13.8365
11.9747
10.8997
10.4604
10.711
11.9031
14.9013
21.8345
37.8981
74.2788
146.376
250.68
1107.85
2.00645
2.22354
2.6281
3.28611
4.57615
7.69074
15.0114
29.866
55.624
94.7301
147.231
210.838
282.478
359.546
440.772
526.889
621.67
732.62
878.349
1089.89
1600.72
2190.34
1.87611
1.79067
1.73186
1.68979
1.65706
1.63254
1.61577
1.60469
1.59795
1.59437
1.59273
1.59234
1.59479
1.59975
1.60626
1.61517
1.62577
1.63828
1.65216
1.66705
1.68252
1.69836
1.71513
1.73411
1.75709
1.78383
1.81139
1.83678
1.8647
2980.85
3758.42
3294.45
2743.01
2284.24
1897.2
1562.85
1268.58
1008.57
780.91
585.652
423.39
293.967
196.499
130.338
87.7592
60.3389
42.5656
30.9101
23.4003
18.2098
14.7807
12.7056
11.4985
10.9812
11.1941
12.3943
15.4397
22.4764
38.8825
76.2185
150.828
292.466
2091.89
1.97384
2.16585
2.5258
3.11244
4.17482
6.69353
12.7429
25.6088
48.9052
85.715
136.986
200.678
272.97
350.37
430.791
514.134
602.943
703.672
828.237
1006.34
1298.37
2215.76
3415.41
1.86224
1.78759
1.73256
1.68979
1.65665
1.63351
1.61747
1.60637
1.59919
1.59506
1.593
1.59243
1.59425
1.59911
1.60534
1.61407
1.62453
1.63693
1.65089
1.6659
1.68157
1.69763
1.7145
1.73354
1.75649
1.78331
1.81104
1.83664
1.86467
5208.85
4504.53
3646.51
2988.75
2459.21
2024.11
1657.59
1340.83
1064.3
823.918
618.484