/*--------------------------------*- C++ -*----------------------------------*\
  =========                 |
  \\      /  F ield         | OpenFOAM: The Open Source CFD Toolbox
   \\    /   O peration     | Website:  https://openfoam.org
    \\  /    A nd           | Version:  8
     \\/     M anipulation  |
\*---------------------------------------------------------------------------*/
FoamFile
{
    version     2.0;
    format      ascii;
    class       volScalarField;
    location    "0.07";
    object      k;
}
// * * * * * * * * * * * * * * * * * * * * * * * * * * * * * * * * * * * * * //

dimensions      [0 2 -2 0 0 0 0];

internalField   nonuniform List<scalar> 
15677
(
0.307783
0.358746
0.259476
0.36563
0.376405
0.265021
0.368291
0.370994
0.444112
0.292818
0.370049
0.36672
0.394391
0.525748
0.333304
0.371202
0.365571
0.372275
0.440886
0.585399
0.364754
0.371935
0.36613
0.365188
0.388446
0.486416
0.626198
0.389383
0.372372
0.367083
0.363185
0.368235
0.411054
0.523711
0.654947
0.409704
0.372595
0.368002
0.363327
0.361747
0.375523
0.431588
0.554713
0.676787
0.425339
0.372675
0.368743
0.364142
0.360151
0.362101
0.382861
0.45079
0.582073
0.692927
0.438223
0.372676
0.369268
0.365068
0.360372
0.357725
0.362653
0.390003
0.470449
0.60517
0.705798
0.447446
0.372645
0.369587
0.365879
0.361185
0.356876
0.355463
0.363261
0.398349
0.489587
0.625252
0.714861
0.455491
0.372614
0.369745
0.366488
0.362103
0.357365
0.353583
0.353307
0.36445
0.407889
0.508346
0.640871
0.722529
0.461365
0.372594
0.369795
0.36688
0.36291
0.358293
0.353793
0.350476
0.351511
0.366784
0.418707
0.524409
0.654288
0.728008
0.467192
0.372586
0.369792
0.367087
0.363516
0.359256
0.354761
0.350491
0.347672
0.350435
0.370421
0.428813
0.539025
0.664652
0.733246
0.471614
0.372582
0.369778
0.367163
0.363898
0.360067
0.355905
0.351559
0.347468
0.345298
0.350161
0.374068
0.438658
0.551136
0.674056
0.736781
0.476674
0.372578
0.369767
0.367175
0.364088
0.360646
0.356947
0.352919
0.348614
0.344715
0.343389
0.350021
0.37782
0.447365
0.562334
0.68111
0.740953
0.480087
0.372573
0.369759
0.367171
0.364145
0.360987
0.357754
0.354207
0.350161
0.345848
0.342233
0.341582
0.349936
0.381345
0.455822
0.571399
0.688044
0.743408
0.484407
0.372568
0.369753
0.367166
0.364152
0.361124
0.358283
0.355251
0.351668
0.347519
0.343238
0.33982
0.339818
0.349976
0.384991
0.46312
0.580028
0.692658
0.746952
0.487225
0.372563
0.369747
0.367163
0.364144
0.361161
0.358533
0.355979
0.352927
0.349198
0.344963
0.340685
0.337477
0.33819
0.350121
0.388314
0.470288
0.586423
0.697586
0.748934
0.490981
0.372559
0.369742
0.367162
0.364134
0.36116
0.358627
0.356363
0.353847
0.350636
0.346768
0.342459
0.338229
0.335271
0.336766
0.35037
0.391804
0.476034
0.592517
0.700533
0.751996
0.493465
0.372555
0.369738
0.367162
0.364126
0.361146
0.358649
0.356533
0.354362
0.351721
0.348361
0.344392
0.340078
0.33593
0.333305
0.335532
0.350845
0.394772
0.481491
0.596723
0.703847
0.753869
0.496821
0.372553
0.369734
0.367162
0.364119
0.361131
0.35864
0.356595
0.35461
0.35236
0.349604
0.346138
0.342158
0.337887
0.33389
0.331585
0.334544
0.351348
0.39771
0.485588
0.600516
0.705717
0.756579
0.499192
0.37255
0.369732
0.367162
0.364113
0.361117
0.358621
0.356605
0.354712
0.352689
0.35037
0.347529
0.344075
0.340154
0.335978
0.332126
0.330136
0.333791
0.351972
0.400009
0.489148
0.602984
0.707679
0.758556
0.502506
0.372547
0.36973
0.367162
0.364109
0.361105
0.358601
0.356595
0.354738
0.352841
0.350785
0.348406
0.345639
0.342282
0.338448
0.334363
0.330662
0.328988
0.333223
0.35252
0.402019
0.491668
0.604902
0.708827
0.76135
0.504775
0.372545
0.369729
0.367163
0.364106
0.361094
0.358582
0.356577
0.35473
0.352895
0.35099
0.348892
0.346667
0.344048
0.340787
0.337056
0.333085
0.329522
0.328095
0.332876
0.35304
0.40351
0.493446
0.605942
0.710139
0.763457
0.508153
0.372543
0.369727
0.367163
0.364104
0.361086
0.358565
0.356558
0.354708
0.352901
0.351071
0.349138
0.34727
0.345216
0.342749
0.339651
0.336046
0.332162
0.328699
0.327505
0.332659
0.353498
0.404478
0.494594
0.606648
0.710804
0.766497
0.510305
0.37254
0.369726
0.367163
0.364103
0.361079
0.358551
0.356539
0.354683
0.352884
0.351084
0.349238
0.347599
0.345899
0.344099
0.341866
0.338888
0.335376
0.331566
0.328211
0.327233
0.332704
0.353836
0.40516
0.495127
0.606642
0.711712
0.768669
0.513768
0.372538
0.369725
0.367164
0.364102
0.361073
0.35854
0.356524
0.35466
0.352859
0.351065
0.349259
0.34775
0.346273
0.344931
0.343359
0.341349
0.33861
0.335257
0.331558
0.32826
0.32733
0.332873
0.354167
0.40548
0.495058
0.606493
0.712134
0.772159
0.515924
0.372536
0.369723
0.367165
0.364101
0.361068
0.35853
0.35651
0.35464
0.352832
0.351033
0.349239
0.347793
0.346449
0.345401
0.344281
0.343165
0.341437
0.338797
0.335511
0.331842
0.328571
0.327663
0.333236
0.354511
0.405461
0.49479
0.606099
0.712944
0.774286
0.51928
0.372534
0.369722
0.367165
0.364101
0.361064
0.358522
0.356498
0.354624
0.352807
0.350998
0.3492
0.347776
0.346505
0.345624
0.344866
0.344314
0.343389
0.341864
0.339387
0.336209
0.332581
0.329292
0.32836
0.333914
0.354867
0.40537
0.494236
0.60552
0.713292
0.778531
0.522299
0.372531
0.369721
0.367166
0.364101
0.36106
0.358515
0.356487
0.354612
0.352786
0.350966
0.349156
0.34773
0.346495
0.345696
0.345186
0.344968
0.344648
0.344044
0.342812
0.340596
0.337581
0.334001
0.330637
0.329568
0.334889
0.355356
0.405178
0.493428
0.604739
0.714053
0.780042
0.525197
0.37253
0.369719
0.367166
0.364102
0.361057
0.358508
0.356478
0.354601
0.352769
0.35094
0.349114
0.347673
0.346448
0.345683
0.345323
0.345325
0.345414
0.345472
0.345358
0.344566
0.342606
0.339715
0.336101
0.33259
0.331229
0.336225
0.356005
0.404932
0.492513
0.603896
0.714478
0.783157
0.52808
0.372528
0.369718
0.367167
0.364103
0.361053
0.358501
0.356468
0.354592
0.352754
0.350917
0.349078
0.347619
0.346386
0.345624
0.345346
0.345484
0.34584
0.346392
0.347069
0.347519
0.347157
0.34546
0.342649
0.338952
0.335166
0.333409
0.33794
0.356854
0.404736
0.491472
0.602955
0.714898
0.786904
0.531042
0.372527
0.369716
0.367168
0.364105
0.361051
0.358496
0.35646
0.354584
0.352741
0.350899
0.349047
0.34757
0.346324
0.345548
0.345303
0.345521
0.346043
0.346936
0.348206
0.34954
0.350603
0.350718
0.349259
0.346485
0.34259
0.33844
0.336098
0.340062
0.357945
0.404602
0.490343
0.601871
0.715451
0.790998
0.534012
0.369714
0.37253
0.36717
0.364107
0.361049
0.35849
0.356452
0.354577
0.35273
0.350883
0.349021
0.347528
0.346267
0.345471
0.345228
0.345486
0.346107
0.347217
0.348905
0.350917
0.353012
0.354767
0.355373
0.354121
0.351282
0.347099
0.342399
0.339349
0.3426
0.359337
0.404665
0.489122
0.600903
0.71612
0.795317
0.537051
0.367172
0.36972
0.372537
0.36411
0.361048
0.358485
0.356444
0.354571
0.352721
0.350869
0.348999
0.347491
0.346216
0.3454
0.345145
0.345413
0.34609
0.34733
0.349304
0.351816
0.354704
0.357665
0.360163
0.361261
0.360127
0.357133
0.352478
0.347108
0.343131
0.345493
0.361236
0.404919
0.488059
0.599906
0.717006
0.799685
0.539985
0.364114
0.367191
0.369733
0.372545
0.361047
0.35848
0.356437
0.354566
0.352713
0.350858
0.34898
0.34746
0.346172
0.345337
0.345067
0.345331
0.346028
0.347346
0.349505
0.352378
0.355866
0.359766
0.363675
0.366957
0.368489
0.367387
0.364051
0.358794
0.352523
0.347503
0.349093
0.363791
0.405453
0.487049
0.599132
0.718001
0.804042
0.542961
0.361047
0.364144
0.367227
0.369746
0.372552
0.358476
0.35643
0.354561
0.352707
0.350848
0.348965
0.347432
0.346133
0.345282
0.344995
0.345251
0.345951
0.347307
0.349587
0.352715
0.356655
0.361281
0.366307
0.371236
0.375283
0.377189
0.375933
0.372116
0.366004
0.35868
0.352964
0.353628
0.366788
0.4063
0.486282
0.598404
0.719154
0.808361
0.545744
0.358472
0.361078
0.364201
0.367263
0.369758
0.372559
0.356424
0.354557
0.352702
0.350839
0.348953
0.347408
0.346099
0.345233
0.344931
0.345178
0.345875
0.347245
0.349602
0.352913
0.357192
0.362384
0.368294
0.374549
0.38051
0.385301
0.387414
0.385858
0.381281
0.374146
0.366293
0.359808
0.358664
0.370141
0.407437
0.485613
0.597909
0.720379
0.81256
0.548564
0.356418
0.358497
0.36114
0.36426
0.3673
0.36977
0.372567
0.354553
0.352697
0.350833
0.348943
0.347387
0.346069
0.34519
0.344874
0.345113
0.345805
0.34718
0.349586
0.353026
0.357573
0.363213
0.369834
0.377162
0.384689
0.391692
0.397087
0.399279
0.397117
0.3916
0.384167
0.375741
0.367358
0.364141
0.373862
0.408817
0.485206
0.597478
0.721676
0.816693
0.551135
0.354549
0.356441
0.358553
0.361205
0.364322
0.367338
0.369782
0.372575
0.352694
0.350827
0.348935
0.347369
0.346043
0.345152
0.344824
0.345055
0.345742
0.347119
0.349559
0.353095
0.357853
0.363875
0.371086
0.379306
0.38813
0.396964
0.404887
0.41079
0.412742
0.409776
0.404267
0.396538
0.386091
0.375511
0.369985
0.377821
0.410409
0.484873
0.597247
0.723024
0.820632
0.553751
0.352691
0.354579
0.356495
0.358611
0.361272
0.364385
0.367377
0.369793
0.372583
0.350823
0.34893
0.347354
0.346021
0.34512
0.34478
0.345004
0.345686
0.347064
0.349532
0.353144
0.358071
0.364418
0.372165
0.381156
0.391091
0.401484
0.411534
0.420295
0.426381
0.427899
0.425305
0.419866
0.410033
0.397202
0.38415
0.376142
0.382061
0.412262
0.484834
0.597091
0.724384
0.824507
0.556086
0.35082
0.352729
0.354645
0.35655
0.35867
0.361341
0.36445
0.367416
0.369804
0.372592
0.348926
0.347341
0.346001
0.345092
0.344741
0.344959
0.345636
0.347015
0.349508
0.353186
0.358255
0.364877
0.373115
0.382846
0.393774
0.40554
0.417436
0.428654
0.437934
0.444017
0.446518
0.444423
0.436846
0.424468
0.408923
0.393179
0.382515
0.386342
0.414321
0.484903
0.597104
0.725784
0.828134
0.55848
0.348923
0.350863
0.35281
0.354711
0.356606
0.358732
0.361414
0.364517
0.367456
0.369815
0.372601
0.34733
0.345984
0.345069
0.344706
0.344919
0.345593
0.346972
0.349487
0.353223
0.358418
0.365284
0.373955
0.384401
0.39633
0.409367
0.422932
0.43632
0.448375
0.458017
0.465801
0.469534
0.46525
0.454978
0.439648
0.421111
0.402483
0.389095
0.390649
0.416525
0.48508
0.597171
0.727152
0.831717
0.560575
0.347321
0.34897
0.350958
0.352893
0.354779
0.356663
0.358795
0.361489
0.364587
0.367496
0.369827
0.372611
0.34597
0.345049
0.344675
0.344884
0.345554
0.346934
0.34947
0.353259
0.358568
0.365653
0.374717
0.385817
0.398763
0.413143
0.428298
0.4437
0.458247
0.47101
0.482977
0.492943
0.494738
0.487517
0.474025
0.455384
0.433619
0.411961
0.395797
0.39497
0.418825
0.485405
0.597302
0.728544
0.835003
0.562742
0.345958
0.347357
0.349073
0.351056
0.352977
0.354847
0.356721
0.358861
0.361567
0.364658
0.367537
0.369838
0.372621
0.345033
0.344647
0.344853
0.34552
0.346902
0.349456
0.353294
0.358707
0.365993
0.375419
0.387122
0.401031
0.416841
0.433744
0.451127
0.46804
0.483661
0.499367
0.514353
0.522899
0.521878
0.510986
0.493763
0.47149
0.446304
0.421516
0.402546
0.399278
0.421183
0.485868
0.597484
0.729875
0.838286
0.564609
0.34502
0.345983
0.347446
0.34918
0.351156
0.353064
0.354916
0.356782
0.35893
0.361649
0.364731
0.367578
0.369849
0.372631
0.344621
0.344825
0.34549
0.346874
0.349445
0.353326
0.358835
0.366306
0.376067
0.388335
0.403155
0.420351
0.439195
0.458867
0.478171
0.496576
0.515805
0.535423
0.54933
0.555413
0.550663
0.535411
0.513974
0.487786
0.459035
0.431059
0.409278
0.40355
0.423574
0.486442
0.597706
0.731218
0.841223
0.566555
0.344598
0.34503
0.346053
0.34754
0.349291
0.351259
0.353152
0.354986
0.356844
0.359002
0.361734
0.364806
0.367619
0.36986
0.372641
0.344799
0.345464
0.346852
0.349436
0.353357
0.358952
0.366595
0.376667
0.389465
0.405149
0.423675
0.444453
0.466801
0.488983
0.510286
0.533072
0.557253
0.57614
0.587725
0.59022
0.580809
0.560533
0.534447
0.504108
0.471693
0.440511
0.415938
0.407765
0.425973
0.487101
0.597964
0.732485
0.844213
0.568211
0.344779
0.344569
0.345073
0.346127
0.347639
0.349407
0.351365
0.353242
0.355057
0.356908
0.359077
0.361822
0.364882
0.367658
0.36987
0.372652
0.345441
0.346832
0.349429
0.353387
0.359061
0.36686
0.377219
0.390513
0.407019
0.426822
0.449505
0.474602
0.50027
0.525251
0.551906
0.580942
0.60482
0.621502
0.629361
0.627061
0.612027
0.586101
0.554997
0.520318
0.484179
0.449802
0.422482
0.411899
0.428359
0.487823
0.598253
0.733754
0.846804
0.569945
0.345423
0.344732
0.34454
0.345122
0.346207
0.347744
0.349528
0.351474
0.353334
0.35513
0.356975
0.359156
0.361913
0.364957
0.367696
0.36988
0.372662
0.346815
0.349424
0.353415
0.35916
0.367103
0.377727
0.391484
0.408764
0.42979
0.454348
0.482196
0.511502
0.54122
0.573029
0.607614
0.636977
0.658857
0.671595
0.674126
0.6657
0.644052
0.611879
0.575454
0.536295
0.496409
0.458878
0.428871
0.415936
0.430713
0.488591
0.598565
0.734941
0.849523
0.571407
0.346806
0.345345
0.344666
0.344512
0.345179
0.346293
0.347855
0.349653
0.351585
0.353428
0.355203
0.357044
0.359238
0.362003
0.365028
0.367731
0.36989
0.372672
0.349418
0.35344
0.359252
0.367325
0.378192
0.392379
0.410385
0.432579
0.458967
0.489533
0.522551
0.557512
0.596188
0.638438
0.67443
0.702357
0.720146
0.726768
0.722019
0.705955
0.676655
0.637669
0.595675
0.55194
0.508317
0.467692
0.435076
0.41986
0.433024
0.489387
0.5989
0.736119
0.851778
0.57294
0.349422
0.346681
0.345209
0.344599
0.344494
0.345242
0.346387
0.347972
0.349782
0.351699
0.353523
0.355278
0.357116
0.359321
0.362092
0.365098
0.367765
0.3699
0.372682
0.353462
0.359334
0.367528
0.378617
0.3932
0.411884
0.435186
0.463342
0.496569
0.53338
0.573962
0.620276
0.673175
0.719465
0.755494
0.779542
0.790172
0.787655
0.773151
0.747704
0.709651
0.663306
0.615537
0.567174
0.51985
0.476211
0.441074
0.423659
0.435278
0.490201
0.599247
0.737221
0.854257
0.574229
0.353494
0.349218
0.346432
0.345069
0.344543
0.344489
0.345308
0.346489
0.348094
0.349915
0.351816
0.353619
0.355354
0.357188
0.359403
0.362179
0.365164
0.367797
0.36991
0.372692
0.359408
0.367712
0.379006
0.393953
0.413266
0.43761
0.467458
0.503276
0.54395
0.590428
0.644798
0.710429
0.77312
0.823566
0.856677
0.872211
0.870785
0.854961
0.827647
0.79084
0.742882
0.688656
0.634945
0.58194
0.530971
0.484407
0.446847
0.427323
0.437466
0.491021
0.599608
0.738298
0.856232
0.575367
0.359493
0.353201
0.348781
0.346177
0.344943
0.344491
0.344501
0.345379
0.3466
0.348223
0.350053
0.351935
0.353715
0.35543
0.35726
0.359485
0.362264
0.365227
0.367828
0.369921
0.372701
0.367878
0.379358
0.394643
0.414537
0.439857
0.471311
0.509637
0.554205
0.60669
0.669476
0.750264
0.835053
0.910686
0.961608
0.984431
0.983581
0.963303
0.929061
0.885489
0.835222
0.776202
0.713607
0.653821
0.596193
0.541652
0.492265
0.452386
0.430846
0.439581
0.491839
0.599968
0.739314
0.858123
0.576278
0.36805
0.359082
0.352523
0.348332
0.345943
0.344824
0.344434
0.344532
0.345454
0.346718
0.348359
0.350194
0.352056
0.35381
0.355503
0.357331
0.359566
0.362346
0.365288
0.367857
0.369931
0.372711
0.379679
0.39527
0.415704
0.441934
0.474904
0.515642
0.564074
0.62255
0.694265
0.793254
0.90604
1.01599
1.10001
1.14072
1.14159
1.1144
1.06766
1.00967
0.94639
0.88063
0.809463
0.738066
0.672109
0.609902
0.551878
0.499774
0.457681
0.434222
0.441619
0.492646
0.600338
0.740142
0.859563
0.577383
0.379993
0.36749
0.358061
0.351826
0.347915
0.345722
0.344714
0.344376
0.344578
0.345536
0.346845
0.348501
0.350337
0.352175
0.3539
0.355575
0.357401
0.359645
0.362426
0.365346
0.367885
0.369942
0.372721
0.395845
0.416771
0.443851
0.478246
0.521289
0.5735
0.637893
0.719298
0.839667
0.985564
1.13676
1.26468
1.34346
1.35933
1.3256
1.26237
1.18222
1.09575
1.00977
0.926749
0.842507
0.761954
0.689765
0.623047
0.561641
0.506931
0.462729
0.437449
0.443574
0.49344
0.600649
0.740837
0.861137
0.578467
0.396388
0.379247
0.365984
0.357014
0.351174
0.34752
0.345515
0.344612
0.344324
0.344637
0.345625
0.346979
0.348649
0.350479
0.352289
0.353987
0.355645
0.357471
0.359724
0.362503
0.365402
0.367912
0.369954
0.372726
0.417754
0.445616
0.48135
0.526582
0.58245
0.652686
0.744699
0.889089
1.07134
1.2678
1.44606
1.57541
1.63251
1.60942
1.53015
1.4231
1.30421
1.18575
1.07481
0.973191
0.875163
0.785197
0.70676
0.635617
0.570937
0.513733
0.467531
0.440527
0.445445
0.494109
0.600921
0.741602
0.862812
0.579795
0.418659
0.395416
0.377064
0.364448
0.356032
0.350552
0.347144
0.345321
0.344516
0.344282
0.344707
0.345723
0.34712
0.348798
0.350615
0.352399
0.35407
0.355714
0.357541
0.359802
0.362577
0.365455
0.367938
0.369959
0.372726
0.447251
0.484227
0.53153
0.590916
0.666946
0.770464
0.940543
1.16034
1.40318
1.63463
1.82131
1.93462
1.95506
1.88117
1.74791
1.59152
1.43045
1.27785
1.14058
1.01952
0.907256
0.807731
0.723074
0.647607
0.57977
0.520186
0.472088
0.443454
0.446995
0.49469
0.601216
0.742455
0.864644
0.581052
0.448725
0.417423
0.392297
0.374851
0.363003
0.355089
0.349954
0.346787
0.345138
0.34443
0.34425
0.344786
0.34583
0.347262
0.348944
0.350747
0.352505
0.354151
0.355782
0.357609
0.359878
0.362649
0.365505
0.367951
0.369956
0.372726
0.486907
0.536151
0.59891
0.680703
0.796453
0.992849
1.24971
1.53799
1.82263
2.06956
2.24719
2.32914
2.30005
2.16568
1.97219
1.76295
1.55792
1.37027
1.20615
1.06531
0.938615
0.829501
0.738693
0.65902
0.588148
0.526298
0.476406
0.445868
0.448319
0.495337
0.601564
0.743403
0.866508
0.582633
0.48928
0.447166
0.413011
0.389158
0.372764
0.361612
0.35418
0.349381
0.34645
0.344968
0.344355
0.344232
0.344873
0.345945
0.347403
0.349088
0.350875
0.352607
0.354229
0.35585
0.357678
0.359953
0.362719
0.365532
0.367951
0.369955
0.372726
0.540482
0.606463
0.693988
0.82244
1.04491
1.33731
1.66884
2.00478
2.31182
2.55753
2.71118
2.74835
2.65854
2.45578
2.19758
1.93355
1.68408
1.46148
1.27066
1.11014
0.969086
0.850459
0.753609
0.669862
0.596081
0.532076
0.47995
0.447921
0.449776
0.496076
0.601953
0.744445
0.86857
0.584068
0.544267
0.487336
0.440973
0.408607
0.386193
0.370751
0.360265
0.353302
0.348831
0.346132
0.344811
0.344293
0.344229
0.344965
0.346064
0.347542
0.349229
0.350998
0.352705
0.354305
0.355916
0.357746
0.360026
0.362756
0.365535
0.367951
0.369955
0.372726
0.613629
0.706838
0.848193
1.09585
1.42169
1.79366
2.17795
2.54279
2.85667
3.08719
3.20357
3.18379
3.02342
2.74583
2.41991
2.10039
1.80694
1.55021
1.33342
1.15367
0.99853
0.870566
0.767825
0.680146
0.603581
0.536811
0.482957
0.450178
0.451372
0.496908
0.602421
0.745603
0.870624
0.585936
0.619874
0.541846
0.478661
0.43485
0.404441
0.383325
0.368797
0.358962
0.352457
0.348304
0.345837
0.344667
0.344241
0.34425
0.345057
0.346186
0.347679
0.349365
0.351117
0.352799
0.354379
0.355982
0.357813
0.360064
0.362759
0.365537
0.367951
0.369956
0.372726
0.719287
0.873521
1.14503
1.50197
1.91137
2.3405
2.75947
3.13881
3.44681
3.64966
3.71639
3.62839
3.38888
3.03148
2.6361
2.26136
1.92509
1.63553
1.39386
1.19562
1.02683
0.889795
0.781344
0.689882
0.609725
0.540823
0.486249
0.452663
0.453124
0.497863
0.602942
0.746866
0.872976
0.587552
0.730227
0.616883
0.529609
0.470175
0.429045
0.400404
0.380537
0.366902
0.357703
0.351645
0.3478
0.345566
0.344538
0.34419
0.344294
0.345149
0.346311
0.347814
0.349498
0.351231
0.35289
0.35445
0.356047
0.357846
0.360064
0.362761
0.365537
0.367951
0.369959
0.372721
0.898235
1.19208
1.5777
2.02149
2.49178
2.9605
3.4007
3.78306
4.07396
4.23735
4.24254
4.07594
3.75007
3.30934
2.84395
2.41501
2.03755
1.71682
1.45159
1.23576
1.05391
0.908127
0.794169
0.697865
0.614931
0.54521
0.489857
0.455402
0.455051
0.498937
0.603578
0.74828
0.875254
0.589749
0.726645
0.919949
0.599009
0.51786
0.462113
0.423414
0.396473
0.377827
0.365067
0.35649
0.350866
0.347319
0.345318
0.344427
0.344143
0.344354
0.345243
0.346437
0.347949
0.349627
0.351342
0.352977
0.354521
0.356078
0.357843
0.360065
0.362761
0.365535
0.367952
0.369954
0.372711
1.23668
1.64875
2.12397
2.63174
3.14557
3.64097
4.09191
4.46747
4.73074
4.84314
4.77535
4.52083
4.10288
3.5768
3.0419
2.5604
2.14372
1.79365
1.50633
1.27395
1.0797
0.92554
0.804698
0.704635
0.620625
0.550011
0.493814
0.458427
0.457173
0.500174
0.604279
0.749802
0.878002
0.591554
0.698851
0.916948
1.27501
0.582366
0.506692
0.45428
0.417923
0.392648
0.3752
0.363297
0.355325
0.350122
0.34687
0.3451
0.344333
0.344106
0.344425
0.345338
0.346564
0.348081
0.349751
0.351448
0.353061
0.354554
0.356075
0.357842
0.360065
0.362759
0.365532
0.367938
0.369942
0.372701
1.71503
2.21902
2.76073
3.315
3.85953
4.37169
4.82475
5.18463
5.41003
5.45997
5.30834
4.95794
4.4439
3.8319
3.22891
2.697
2.24329
1.8658
1.55791
1.31007
1.10413
0.939843
0.813638
0.712048
0.626858
0.555269
0.498158
0.461769
0.45952
0.501562
0.605145
0.751524
0.880561
0.594131
0.673478
0.872373
1.27309
1.77141
0.566733
0.495821
0.446641
0.412575
0.388935
0.37266
0.361593
0.35421
0.34942
0.346467
0.344913
0.344255
0.344083
0.344503
0.345436
0.346691
0.34821
0.349871
0.35155
0.353103
0.354552
0.356073
0.357842
0.360064
0.362756
0.365505
0.367911
0.369931
0.372691
2.30685
2.87935
3.46958
4.05715
4.62252
5.14357
5.59151
5.92741
6.10462
6.08068
5.83524
5.38263
4.7703
4.07323
3.40441
2.82457
2.33612
1.93316
1.60626
1.34407
1.12415
0.951995
0.823442
0.720172
0.633688
0.561035
0.502933
0.465467
0.462114
0.50317
0.606094
0.753365
0.883883
0.596148
0.650077
0.830653
1.20718
1.77156
2.38129
0.551615
0.485203
0.4392
0.407378
0.385342
0.370214
0.359961
0.353156
0.348781
0.346114
0.344751
0.344191
0.344072
0.344586
0.345536
0.346816
0.348337
0.349986
0.351602
0.353102
0.35455
0.356073
0.357843
0.360064
0.362719
0.365454
0.367884
0.36992
0.372681
2.98812
3.61042
4.2352
4.84572
5.42423
5.94819
6.38491
6.68869
6.80704
6.69801
6.35003
5.79084
5.07989
4.29985
3.56807
2.94306
2.42224
1.99575
1.65133
1.37169
1.14112
0.96533
0.834204
0.729087
0.64118
0.567362
0.508188
0.469564
0.464999
0.504972
0.607278
0.755473
0.8868
0.599175
0.627915
0.791659
1.1426
1.68676
2.38472
3.07967
0.536894
0.474852
0.43197
0.402345
0.381877
0.367867
0.358414
0.352189
0.34821
0.345803
0.344611
0.344143
0.344075
0.344672
0.345637
0.346939
0.348459
0.350045
0.351604
0.353102
0.35455
0.356074
0.357846
0.360026
0.362648
0.3654
0.367856
0.36991
0.372671
3.73843
4.39547
5.04352
5.66882
6.25511
6.77786
7.19805
7.46118
7.50948
7.30463
6.84714
6.17918
5.37107
4.51122
3.71984
3.05257
2.50176
2.05363
1.68765
1.39503
1.15972
0.979974
0.846028
0.738877
0.649408
0.574315
0.513978
0.474111
0.468203
0.507069
0.608568
0.757725
0.890972
0.601474
0.606737
0.754838
1.07952
1.60168
2.2836
3.08673
3.84482
0.522561
0.464794
0.424971
0.39749
0.378552
0.36564
0.356993
0.351321
0.347702
0.345532
0.344493
0.344108
0.34409
0.344759
0.345739
0.347059
0.348522
0.350047
0.351605
0.353102
0.354552
0.356078
0.357813
0.359952
0.362576
0.365344
0.367826
0.3699
0.372661
4.53947
5.21869
5.88071
6.51531
7.10662
7.62578
8.02421
8.23721
8.20375
7.89335
7.32158
6.54499
5.64274
4.7071
3.85985
3.1533
2.57485
2.0999
1.71819
1.42049
1.18009
0.996062
0.85903
0.74964
0.658454
0.581965
0.520366
0.479163
0.471788
0.509422
0.610193
0.760328
0.894324
0.605025
0.586443
0.72009
1.01764
1.51633
2.18114
2.97095
3.85436
4.65665
0.508639
0.455061
0.418222
0.392828
0.375396
0.363593
0.355714
0.350542
0.347248
0.345298
0.344393
0.34408
0.344121
0.344845
0.345842
0.347121
0.348526
0.350049
0.351605
0.353102
0.354554
0.356047
0.357744
0.359876
0.3625
0.365286
0.367796
0.36989
0.372651
5.37356
6.06405
6.73371
7.37536
7.97178
8.486
8.85656
9.00846
8.88133
8.4574
7.76923
6.88632
5.89429
4.88753
3.98833
3.24553
2.63297
2.13869
1.75136
1.44825
1.2024
1.01374
0.873335
0.761485
0.668412
0.590393
0.527427
0.484786
0.475792
0.51217
0.61195
0.763155
0.899709
0.60843
0.566985
0.687454
0.9572
1.43025
2.07719
2.85346
3.72403
4.66571
5.49544
0.495164
0.445686
0.411743
0.388404
0.372492
0.361748
0.354564
0.349843
0.346841
0.345097
0.344308
0.34405
0.344164
0.344934
0.345893
0.347123
0.348527
0.350049
0.351604
0.353103
0.35452
0.355981
0.357676
0.359799
0.362423
0.365225
0.367764
0.36988
0.372641
6.22231
6.91634
7.59094
8.24131
8.84525
9.35304
9.68764
9.76579
9.53368
8.99075
8.18683
7.2019
6.12557
5.05274
4.10561
3.31858
2.68159
2.18071
1.78738
1.47849
1.22682
1.03316
0.889084
0.774531
0.679388
0.599692
0.535242
0.491056
0.480303
0.515259
0.614192
0.766373
0.904371
0.613804
0.548335
0.656967
0.8987
1.34347
1.97117
2.73381
3.59251
4.51925
5.49912
6.34162
0.482178
0.436701
0.405598
0.384334
0.369876
0.360087
0.353529
0.349216
0.346476
0.344923
0.344238
0.344025
0.344219
0.344977
0.345891
0.347124
0.348527
0.350047
0.351602
0.353061
0.354449
0.355914
0.357607
0.359721
0.362343
0.365162
0.36773
0.36987
0.372631
7.06829
7.76191
8.44358
9.10803
9.72294
10.2212
10.5088
10.4995
10.1526
9.48835
8.57212
7.49121
6.33671
5.20311
4.19823
3.37964
2.7342
2.22619
1.82643
1.5114
1.25353
1.0545
0.906427
0.788913
0.6915
0.60997
0.543909
0.498063
0.485375
0.518892
0.616599
0.77075
0.911678
0.617583
0.530481
0.628605
0.842771
1.25633
1.86274
2.61141
3.45897
4.37325
5.33308
6.33366
7.17639
0.469728
0.428198
0.399947
0.380668
0.367518
0.358591
0.352598
0.348651
0.346153
0.344773
0.344177
0.344017
0.344246
0.344973
0.345891
0.347124
0.348526
0.350045
0.35155
0.352976
0.354377
0.355847
0.357538
0.359642
0.362261
0.365095
0.367695
0.369859
0.372621
7.89546
8.59035
9.28623
9.97234
10.6015
11.083
11.3103
11.1993
10.7308
9.94638
8.92392
7.75422
6.52813
5.32142
4.27552
3.44565
2.79106
2.27535
1.86869
1.54715
1.28271
1.07793
0.925526
0.80478
0.704883
0.621348
0.553542
0.505913
0.491135
0.522984
0.620279
0.776229
0.919705
0.62404
0.513422
0.602279
0.790096
1.16945
1.75184
2.48559
3.3229
4.22631
5.17056
6.14208
7.14885
7.98117
0.457948
0.420397
0.39486
0.377368
0.365395
0.357243
0.351759
0.348144
0.345865
0.344643
0.344139
0.344005
0.344242
0.344974
0.345892
0.347123
0.348522
0.349986
0.351446
0.352887
0.354302
0.35578
0.357469
0.359563
0.362176
0.365027
0.367657
0.369849
0.372611
8.69154
9.39624
10.1125
10.8268
11.4745
11.9319
12.0806
11.8551
11.262
10.3625
9.24188
7.99135
6.678
5.41992
4.35899
3.51693
2.85241
2.32838
1.91435
1.58591
1.31452
1.10361
0.946556
0.822295
0.719691
0.633971
0.564273
0.514727
0.497665
0.528743
0.624959
0.782561
0.929637
0.628423
0.497286
0.577818
0.741308
1.08368
1.63864
2.35585
3.18336
4.07814
5.00939
5.95923
6.92348
7.92339
8.74265
0.447158
0.41339
0.390284
0.374397
0.363482
0.356029
0.351002
0.347686
0.345611
0.34455
0.344112
0.343989
0.344244
0.344974
0.345891
0.347121
0.348458
0.349869
0.351339
0.352796
0.354226
0.355712
0.357399
0.359482
0.36209
0.364955
0.367618
0.369838
0.372601
9.44619
10.1645
10.9126
11.6647
12.3332
12.755
12.807
12.4577
11.742
10.7358
9.52642
8.17577
6.80225
5.52598
4.44895
3.59372
2.91846
2.38545
1.96357
1.62784
1.34915
1.13174
0.969699
0.841636
0.736095
0.648
0.57626
0.524668
0.50655
0.536236
0.63082
0.789418
0.939857
0.636652
0.48248
0.555205
0.696877
1.0001
1.52349
2.2219
3.03944
3.92761
4.84955
5.78154
6.71457
7.65523
8.63489
9.45206
0.437494
0.407099
0.386169
0.371722
0.361758
0.354933
0.350316
0.347275
0.345419
0.344492
0.344091
0.343991
0.344244
0.344973
0.345893
0.347058
0.348334
0.349748
0.351228
0.352701
0.354148
0.355643
0.357329
0.359401
0.362002
0.364881
0.367578
0.369826
0.372592
10.1584
10.908
11.7058
12.4926
13.1711
13.5389
13.4768
12.9995
12.1685
11.0664
9.74565
8.32768
6.93532
5.63986
4.54564
3.67623
2.98936
2.44671
2.01646
1.67307
1.38673
1.16249
0.99514
0.862994
0.754284
0.663633
0.5897
0.53799
0.518157
0.545025
0.637144
0.797482
0.952466
0.641945
0.469192
0.534755
0.656979
0.920069
1.40704
2.08361
2.89032
3.77346
4.68977
5.60926
6.51666
7.41319
8.31611
9.26431
10.0913
0.428852
0.401451
0.38247
0.369314
0.360204
0.353939
0.349697
0.346955
0.345306
0.344462
0.344094
0.343991
0.344242
0.344977
0.345841
0.346937
0.348207
0.349623
0.351112
0.352603
0.354067
0.355573
0.357258
0.359319
0.361912
0.364806
0.367536
0.369815
0.372583
10.8168
11.6188
12.4885
13.3187
13.983
14.2681
14.0778
13.4758
12.5412
11.3179
9.92465
8.48909
7.0773
5.76171
4.6492
3.76457
3.06523
2.51225
2.07314
1.72171
1.42741
1.19602
1.02306
0.886567
0.774478
0.681082
0.607596
0.5552
0.531281
0.554677
0.645069
0.806421
0.964515
0.652469
0.4573
0.516466
0.622738
0.845861
1.2903
1.94104
2.73526
3.61437
4.5285
5.44091
6.32998
7.19018
8.03348
8.88676
9.80372
10.6503
0.421127
0.396381
0.379144
0.367144
0.358794
0.353042
0.349207
0.34677
0.345261
0.344469
0.344094
0.343989
0.344246
0.344933
0.345737
0.346812
0.348076
0.349493
0.350993
0.352502
0.353984
0.355501
0.357187
0.359237
0.361821
0.36473
0.367495
0.369804
0.372575
11.4199
12.3028
13.2619
14.1322
14.7541
14.9251
14.6004
13.8847
12.8197
11.5208
10.1127
8.65967
7.22806
5.89149
4.75965
3.85882
3.14613
2.58215
2.13366
1.77383
1.47128
1.23246
1.05365
0.912571
0.796889
0.704219
0.630503
0.574222
0.545979
0.566174
0.653671
0.817009
0.980033
0.658965
0.446685
0.500036
0.593752
0.780306
1.17561
1.7945
2.57358
3.44893
4.364
5.27469
6.15267
6.9862
7.77995
8.55616
9.35238
10.2407
11.1252
0.414221
0.391831
0.376153
0.36518
0.357524
0.352325
0.348926
0.346707
0.345272
0.344469
0.344091
0.344005
0.344219
0.344844
0.345634
0.346686
0.347944
0.34936
0.35087
0.352396
0.353898
0.355428
0.357115
0.359155
0.361732
0.364656
0.367455
0.369793
0.372567
11.9707
12.9683
14.0308
14.9185
15.4631
15.4921
15.0393
14.1828
13.0407
11.7307
10.3088
8.83873
7.38715
6.02897
4.87689
3.95891
3.23205
2.65639
2.19803
1.82945
1.5184
1.27192
1.08705
0.941184
0.826405
0.733537
0.655496
0.595255
0.562737
0.578935
0.66471
0.828754
0.993711
0.672389
0.437231
0.485259
0.568911
0.724875
1.06778
1.64573
2.40476
3.27569
4.19425
5.1085
5.98262
6.79861
7.55522
8.26678
8.96505
9.69987
10.5592
11.5102
0.408045
0.387746
0.373451
0.363413
0.356502
0.351917
0.348837
0.346723
0.345272
0.344462
0.344111
0.344017
0.344163
0.344756
0.345533
0.346559
0.347809
0.349224
0.350743
0.352286
0.353808
0.355354
0.357044
0.359076
0.361647
0.364585
0.367415
0.369781
0.372559
12.4764
13.628
14.7902
15.6553
16.0865
15.9566
15.348
14.4137
13.2643
11.9453
10.5113
9.02514
7.55382
6.17366
5.00062
4.06466
3.32286
2.73488
2.26618
1.88853
1.56878
1.31449
1.12338
0.978492
0.863284
0.765086
0.682761
0.61863
0.581699
0.593968
0.676686
0.842877
1.01301
0.680507
0.428822
0.471988
0.547331
0.678529
0.970316
1.49995
2.22982
3.09314
4.01702
4.93984
5.81741
6.62489
7.35544
8.0179
8.63477
9.24672
9.91551
10.7413
11.8004
0.402518
0.384067
0.371026
0.361984
0.355922
0.351794
0.34886
0.346723
0.345261
0.344492
0.34414
0.344026
0.34412
0.344669
0.345432
0.346432
0.347674
0.349084
0.350612
0.352173
0.353715
0.355278
0.356973
0.359
0.361565
0.364515
0.367375
0.36977