/*--------------------------------*- C++ -*----------------------------------*\
  =========                 |
  \\      /  F ield         | OpenFOAM: The Open Source CFD Toolbox
   \\    /   O peration     | Website:  https://openfoam.org
    \\  /    A nd           | Version:  8
     \\/     M anipulation  |
\*---------------------------------------------------------------------------*/
FoamFile
{
    version     2.0;
    format      ascii;
    class       volScalarField;
    location    "600";
    object      epsilon;
}
// * * * * * * * * * * * * * * * * * * * * * * * * * * * * * * * * * * * * * //

dimensions      [0 2 -3 0 0 0 0];

internalField   nonuniform List<scalar> 
15677
(
1182.95
450.74
1558.79
85.8082
451.645
1455.67
19.8101
116.596
388.104
1275.63
7.2126
35.9263
104.771
360.5
1158.67
3.82901
14.3044
37.2926
92.6148
360.989
1085.66
2.64035
7.18075
17.1134
35.2352
94.1164
365.857
1041.76
2.1617
4.33782
9.17347
17.2858
33.6962
99.4641
372.505
1011.1
1.97289
3.0344
5.58347
9.92099
17.0561
33.9532
109.102
372.972
991.266
1.90448
2.3828
3.79247
6.2745
10.1567
16.6779
35.4106
119.125
372.082
975.264
1.87844
2.06059
2.83782
4.30794
6.63524
10.1322
16.7241
38.3597
129.2
368.2
964.335
1.86721
1.92147
2.31396
3.19102
4.63764
6.78533
10.0793
17.0217
42.2892
137.09
363.496
957.877
1.86735
1.86801
2.02991
2.53928
3.44678
4.83101
6.83234
10.0836
17.6997
46.446
143.403
358.907
955.707
1.86899
1.84318
1.89333
2.15981
2.7193
3.62216
4.93475
6.84624
10.1407
18.7145
50.718
147.993
354.953
956.729
1.86962
1.83738
1.83764
1.94879
2.27422
2.85587
3.73591
4.98882
6.85105
10.2836
19.9441
54.5725
151.449
351.803
960.357
1.86972
1.83717
1.81463
1.84527
2.00979
2.36878
2.95477
3.80782
5.0143
6.86431
10.5463
21.1958
58.1731
153.539
349.446
967.854
1.8697
1.83753
1.8089
1.80067
1.86356
2.06598
2.44305
3.0246
3.85114
5.025
6.89847
10.8369
22.537
61.112
154.917
347.78
979.348
1.86967
1.83769
1.80791
1.78609
1.79397
1.88812
2.11366
2.49973
3.07225
3.87542
5.03126
6.9511
11.1805
23.7613
63.6301
155.421
346.782
994.375
1.86965
1.83771
1.80788
1.782
1.76782
1.79444
1.9111
2.15258
2.54163
3.10357
3.88768
5.03652
7.02201
11.5139
24.9556
65.4446
155.417
346.384
1013.04
1.86965
1.8377
1.80793
1.78102
1.75908
1.75496
1.79654
1.93161
2.18321
2.57181
3.1227
3.89249
5.04428
7.09492
11.8618
25.97
66.802
155.145
346.504
1035.38
1.86965
1.83768
1.80793
1.78084
1.75639
1.74003
1.74514
1.80067
1.94887
2.20672
2.59247
3.13343
3.89204
5.05164
7.17463
12.1776
26.8437
67.6049
154.549
346.995
1061.42
1.86964
1.83767
1.80791
1.7808
1.75564
1.73473
1.72375
1.73809
1.80497
1.96289
2.22403
2.60606
3.13752
3.88961
5.06014
7.24858
12.4669
27.4994
68.0438
153.557
348.019
1091.15
1.86964
1.83766
1.80788
1.78078
1.75542
1.73301
1.71523
1.71031
1.73263
1.80888
1.97378
2.23645
2.61386
3.13694
3.88476
5.06659
7.31672
12.7011
27.9821
67.9899
152.432
349.538
1124.48
1.86965
1.83766
1.80786
1.78075
1.75534
1.73248
1.71207
1.69841
1.69872
1.72847
1.81209
1.98204
2.24477
2.6177
3.13441
3.87764
5.07193
7.3722
12.8898
28.2668
67.7524
151.256
351.462
1161.33
1.86965
1.83765
1.80785
1.78071
1.75528
1.73229
1.71096
1.69365
1.68324
1.68921
1.72497
1.81463
1.98811
2.25023
2.61814
3.12918
3.86976
5.07269
7.41389
13.0108
28.365
67.2309
149.945
353.79
1201.58
1.86965
1.83764
1.80784
1.78069
1.75523
1.73219
1.71055
1.69183
1.67656
1.67046
1.68084
1.72223
1.8167
1.99264
2.25346
2.61747
3.123
3.86015
5.07111
7.44094
13.0905
28.3161
66.4583
148.559
356.5
1245.03
1.86965
1.83764
1.80784
1.78066
1.75519
1.73212
1.71036
1.69113
1.67381
1.66197
1.65882
1.67419
1.7201
1.81853
1.99622
2.25564
2.61605
3.11589
3.85092
5.06679
7.45086
13.0893
28.1753
65.5451
147.14
359.571
1291.56
1.86966
1.83763
1.80783
1.78064
1.75516
1.73206
1.71025
1.69082
1.6727
1.6583
1.64835
1.64958
1.6686
1.71887
1.82076
1.99973
2.25786
2.61427
3.11039
3.84086
5.05905
7.44575
13.0653
27.9042
64.5103
145.702
362.975
1340.83
1.86966
1.83763
1.80783
1.78063
1.75514
1.73201
1.71017
1.69064
1.67221
1.65671
1.64359
1.63751
1.64124
1.66476
1.71922
1.82388
2.00387
2.26071
2.61467
3.10517
3.83344
5.04869
7.43204
13.0081
27.5422
63.387
144.276
366.684
1392.76
1.86966
1.83762
1.80783
1.78061
1.75512
1.73196
1.71011
1.69052
1.67195
1.65599
1.64147
1.63179
1.62734
1.63584
1.66284
1.7209
1.82847
2.00971
2.26571
2.61683
3.10502
3.82714
5.03796
7.40705
12.9065
27.1198
62.2109
142.864
370.67
1446.55
1.86967
1.83762
1.80783
1.7806
1.75511
1.73193
1.71005
1.69042
1.67179
1.6556
1.64049
1.6291
1.62059
1.62087
1.63147
1.66372
1.72473
1.83563
2.01822
2.27391
2.62222
3.1072
3.82517
5.02843
7.37461
12.7822
26.6549
61.0065
141.498
374.909
1508.48
1.86967
1.83761
1.80784
1.78059
1.7551
1.73189
1.71001
1.69034
1.67166
1.65536
1.63999
1.62779
1.61738
1.61326
1.61482
1.63182
1.66679
1.73204
1.84621
2.03063
2.28615
2.6328
3.11354
3.82714
5.02028
7.33826
12.6422
26.1647
59.7981
140.17
379.888
1579.39
1.86967
1.83761
1.80784
1.78058
1.7551
1.73187
1.70998
1.69027
1.67156
1.65519
1.63968
1.6271
1.6158
1.60945
1.60649
1.61459
1.63432
1.67335
1.74354
1.86146
2.04794
2.30404
2.64938
3.12643
3.83344
5.01612
7.30087
12.494
25.6625
58.6019
138.78
385.799
1651.66
1.86967
1.8376
1.80784
1.78057
1.75509
1.73184
1.70995
1.69021
1.67147
1.65504
1.63945
1.62669
1.61497
1.6075
1.60234
1.60543
1.61668
1.64035
1.68518
1.76045
1.88246
2.07171
2.3286
2.67319
3.14706
3.84649
5.01767
7.26553
12.3424
25.1611
57.3055
137.319
391.888
1724.94
1.86968
1.8376
1.80784
1.78056
1.75509
1.73182
1.70993
1.69015
1.6714
1.65492
1.63927
1.62639
1.61446
1.60645
1.6002
1.6007
1.60737
1.62244
1.65205
1.70306
1.78389
1.91077
2.10296
2.36144
2.70515
3.17596
3.86839
5.02372
7.23249
12.1934
24.6159
55.9221
135.981
398.225
1798.49
1.8376
1.86971
1.80784
1.78055
1.75509
1.7318
1.70991
1.6901
1.67134
1.65482
1.63911
1.62615
1.61409
1.60581
1.59903
1.59822
1.60256
1.61305
1.63396
1.6706
1.72815
1.81547
1.94751
2.14342
2.40329
2.74667
3.21378
3.89921
5.03651
7.20644
12.034
24.0374
54.6276
134.745
404.622
1871.83
1.80785
1.83769
1.86979
1.78054
1.75509
1.73178
1.7099
1.69006
1.6713
1.65473
1.63899
1.62596
1.61379
1.60536
1.5983
1.59688
1.60006
1.60824
1.62455
1.65308
1.69698
1.76215
1.85643
1.9945
2.19391
2.45585
2.79825
3.26184
3.93874
5.05906
7.18424
11.8693
23.4995
53.4226
133.634
411.15
1944.43
1.78053
1.80801
1.83789
1.86986
1.75509
1.73176
1.70989
1.69002
1.67126
1.65464
1.63888
1.62579
1.61355
1.60502
1.59778
1.59607
1.59872
1.60579
1.61985
1.64423
1.68056
1.73294
1.80642
1.90872
2.05277
2.25641
2.51956
2.86116
3.32008
3.98841
5.09359
7.17324
11.7248
23.0055
52.3142
132.63
417.687
2015.88
1.75509
1.78074
1.80833
1.83809
1.86994
1.73175
1.70989
1.68999
1.67123
1.65457
1.6388
1.62565
1.61334
1.60473
1.59737
1.59551
1.59793
1.60454
1.61757
1.64009
1.67277
1.71843
1.78008
1.86286
1.97331
2.12428
2.33118
2.59602
2.93563
3.38952
4.05467
5.14479
7.17706
11.5986
22.5581
51.2987
131.737
424.178
2085.73
1.73173
1.75534
1.78115
1.80866
1.83829
1.87002
1.70988
1.68996
1.67121
1.6545
1.63873
1.62552
1.61317
1.6045
1.59703
1.59508
1.59739
1.60385
1.61653
1.63843
1.66973
1.7125
1.7684
1.8408
1.93337
2.05269
2.2094
2.42012
2.68519
3.02237
3.47893
4.14299
5.21015
7.19003
11.4926
22.1562
50.3751
130.958
430.559
2153.75
1.70987
1.73201
1.75586
1.78158
1.809
1.83851
1.8701
1.68993
1.67119
1.65444
1.63867
1.6254
1.61303
1.60429
1.59674
1.59473
1.59699
1.60341
1.61606
1.638
1.66911
1.71124
1.76532
1.83357
1.91737
2.02068
2.14822
2.31116
2.52263
2.78827
3.13299
3.5947
4.24614
5.28811
7.21647
11.4056
21.7989
49.5394
130.277
436.834
2219.59
1.6899
1.7102
1.7326
1.7564
1.78201
1.80934
1.83873
1.87019
1.67118
1.65438
1.63863
1.62529
1.61291
1.60412
1.5965
1.59445
1.59667
1.6031
1.61584
1.63807
1.66965
1.71232
1.7665
1.83392
1.91513
2.01238
2.12706
2.26347
2.43001
2.64213
2.91703
3.27258
3.72589
4.36224
5.37703
7.2567
11.339
21.4826
48.7863
129.697
442.937
2283.17
1.67117
1.69024
1.71088
1.7332
1.75694
1.78247
1.8097
1.83895
1.87027
1.65433
1.6386
1.6252
1.61282
1.60396
1.5963
1.59421
1.59642
1.60288
1.61575
1.63836
1.67066
1.71461
1.77024
1.83909
1.92082
2.01692
2.12691
2.25407
2.39904
2.56952
2.79359
3.0823
3.43031
3.87164
4.48942
5.47617
7.30795
11.2881
21.2053
48.1107
129.197
448.906
2344.21
1.65429
1.67155
1.69095
1.71158
1.73383
1.75751
1.78293
1.81007
1.83918
1.87036
1.63857
1.62511
1.61275
1.60381
1.59612
1.59402
1.59621
1.60271
1.61573
1.63872
1.67183
1.71726
1.77517
1.84698
1.93162
2.03029
2.14123
2.26573
2.40271
2.55642
2.74712
2.9903
3.27123
3.60628
4.03073
4.62723
5.58401
7.36817
11.2552
20.9625
47.5043
128.782
454.66
2402.75
1.63855
1.65465
1.67234
1.69169
1.71229
1.73447
1.75809
1.78341
1.81044
1.83942
1.87045
1.62502
1.61269
1.60368
1.59599
1.59386
1.59604
1.60258
1.61575
1.63912
1.67303
1.71994
1.78031
1.85609
1.94543
2.04923
2.16499
2.29315
2.43015
2.57817
2.75597
2.97352
3.21451
3.48411
3.80039
4.20294
4.77362
5.69903
7.43653
11.2332
20.7515
46.9643
128.429
460.259
2458.6
1.62495
1.63895
1.65544
1.67315
1.69245
1.71303
1.73512
1.75868
1.7839
1.81083
1.83967
1.87054
1.61265
1.60355
1.59588
1.59372
1.5959
1.60248
1.6158
1.63952
1.67421
1.72253
1.78535
1.86525
1.96054
2.07179
2.19513
2.33124
2.47462
2.62598
2.80337
3.01556
3.23156
3.46252
3.71797
4.01143
4.3863
4.92804
5.81993
7.51119
11.227
20.569
46.4836
128.144
465.623
2511.86
1.61262
1.62529
1.6398
1.65625
1.67399
1.69323
1.71378
1.7358
1.75929
1.7844
1.81122
1.83992
1.87063
1.60343
1.5958
1.5936
1.59578
1.60241
1.61586
1.63992
1.67534
1.72498
1.79017
1.87409
1.97551
2.09607
2.22993
2.3772
2.53167
2.69322
2.87961
3.09957
3.3159
3.52254
3.73423
3.96818
4.23844
4.58117
5.08935
5.94559
7.5911
11.23
20.4108
46.0569
127.91
470.814
2562.42
1.60331
1.61299
1.62606
1.64067
1.65709
1.67486
1.69404
1.71456
1.7365
1.75992
1.78492
1.81163
1.84018
1.87072
1.59574
1.59349
1.59567
1.60235
1.61594
1.64031
1.67642
1.72728
1.79475
1.88248
1.98995
2.12013
2.26706
2.42969
2.59904
2.77627
2.97933
3.21775
3.44665
3.65842
3.84606
4.02993
4.23325
4.4747
4.78491
5.25592
6.07447
7.67517
11.2388
20.2739
45.6785
127.727
475.762
2610.42
1.59571
1.60353
1.61379
1.62684
1.64157
1.65796
1.67574
1.69488
1.71536
1.73722
1.76056
1.78546
1.81204
1.84044
1.87081
1.59337
1.59557
1.60231
1.61602
1.64068
1.67743
1.72943
1.79904
1.89036
2.00373
2.14343
2.30391
2.48602
2.67597
2.87375
3.10025
3.36687
3.62009
3.84824
4.04435
4.20173
4.34787
4.51299
4.71834
4.99501
5.42626
6.20592
7.76199
11.256
20.1565
45.3434
127.587
480.526
2655.81
1.59326
1.59596
1.60408
1.6146
1.62767
1.6425
1.65887
1.67666
1.69574
1.71618
1.73797
1.76122
1.78601
1.81245
1.84069
1.8709
1.59547
1.60226
1.61609
1.64103
1.67837
1.73143
1.80305
1.89773
2.0168
2.16572
2.33976
2.5427
2.75918
2.98583
3.24256
3.54744
3.83676
4.09418
4.30846
4.47519
4.58883
4.68619
4.80541
4.96793
5.20924
5.60009
6.3389
7.85079
11.2799
20.0556
45.0458
127.479
485.054
2698.74
1.5954
1.59316
1.59648
1.60462
1.61546
1.62853
1.64346
1.6598
1.67759
1.69663
1.71702
1.73873
1.76189
1.78655
1.81285
1.84093
1.87098
1.6022
1.61616
1.64136
1.67923
1.73327
1.80677
1.90457
2.02912
2.18685
2.37439
2.59863
2.8435
3.1087
3.40866
3.76338
4.1024
4.40364
4.65004
4.83299
4.9527
5.00657
5.04305
5.10829
5.22198
5.42336
5.77525
6.47237
7.94065
11.3085
19.9695
44.7821
127.411
489.387
2739.2
1.60219
1.59517
1.59299
1.59701
1.60522
1.61635
1.62944
1.64445
1.66078
1.67856
1.69755
1.71788
1.73951
1.76256
1.78708
1.81324
1.84117
1.87106
1.6162
1.64165
1.68003
1.73496
1.81019
1.91091
2.04066
2.20675
2.40764
2.65322
2.92722
3.2358
3.59519
4.02212
4.42858
4.79313
5.08965
5.30257
5.42951
5.4793
5.45431
5.41659
5.41952
5.47972
5.63662
5.95009
6.60525
8.03092
11.341
19.896
44.5484
127.357
493.498
2777.37
1.61632
1.60171
1.59465
1.59277
1.59762
1.60588
1.61727
1.63039
1.64546
1.66178
1.67955
1.69849
1.71876
1.74029
1.76321
1.78759
1.81361
1.8414
1.87114
1.64188
1.68073
1.73651
1.81333
1.91675
2.0514
2.22536
2.43938
2.70591
3.00963
3.36539
3.79293
4.32145
4.83414
5.2918
5.66596
5.92848
6.07189
6.10757
6.05795
5.9315
5.80506
5.73722
5.73931
5.84816
6.12342
6.73682
8.12073
11.3762
19.8339
44.341
127.341
497.41
2813.26
1.64221
1.61542
1.6005
1.59406
1.59266
1.59827
1.6066
1.61822
1.63139
1.6465
1.66283
1.68056
1.69946
1.71963
1.74105
1.76384
1.78809
1.81398
1.84162
1.87122
1.68133
1.73789
1.81619
1.92212
2.06135
2.24272
2.4695
2.75629
3.09038
3.4965
3.99784
4.64818
5.32644
5.94696
6.44379
6.78809
6.96219
6.98034
6.87681
6.69122
6.43742
6.20668
6.05958
5.99917
6.05714
6.294
6.86597
8.20962
11.4136
19.7811
44.157
127.342
501.12
2842.67
1.68202
1.64068
1.61302
1.59918
1.5936
1.59265
1.59894
1.60739
1.6192
1.63244
1.64758
1.66391
1.6816
1.70043
1.72049
1.74178
1.76445
1.78858
1.81433
1.84184
1.87129
1.7391
1.81876
1.92704
2.07051
2.25884
2.49789
2.80413
3.16917
3.62764
4.20691
4.99928
5.89625
6.79216
7.52035
8.00016
8.23173
8.23022
8.04645
7.74402
7.38018
6.97076
6.61961
6.38495
6.25791
6.26279
6.46157
6.9932
8.2973
11.4525
19.737
43.9935
127.348
504.168
2867.54
1.74038
1.67972
1.63647
1.61048
1.59804
1.59324
1.59275
1.59962
1.60826
1.62019
1.63354
1.64868
1.66502
1.68263
1.70137
1.72132
1.7425
1.76505
1.78905
1.81468
1.84205
1.87137
1.82103
1.9315
2.07893
2.27378
2.52452
2.84935
3.24569
3.75712
4.41811
5.37591
6.54698
7.81923
8.95968
9.72331
10.0631
10.0513
9.75754
9.27925
8.71075
8.12344
7.52939
7.04184
6.71171
6.5143
6.46427
6.62366
7.11771
8.38317
11.4923
19.6998
43.8482
127.362
506.767
2894.58
1.82333
1.73709
1.67303
1.63201
1.60824
1.59701
1.59294
1.59305
1.60029
1.60921
1.62122
1.63468
1.64981
1.66613
1.68364
1.70229
1.72212
1.7432
1.76563
1.78951
1.81501
1.84225
1.87144
1.93551
2.0866
2.28761
2.5494
2.89198
3.31962
3.8835
4.63091
5.77961
7.28038
9.02366
10.7309
12.0448
12.6827
12.6958
12.2714
11.5492
10.676
9.77239
8.91681
8.11017
7.47116
7.03829
6.76727
6.66158
6.78027
7.23872
8.46713
11.5325
19.6691
43.7346
127.381
509.596
2924.01
1.93941
1.81878
1.72686
1.66603
1.62794
1.60617
1.59605
1.5926
1.59354
1.60096
1.61024
1.62229
1.63587
1.65094
1.66721
1.68463
1.70318
1.72291
1.74387
1.76619
1.78996
1.81534
1.84245
1.87147
2.09358
2.30034
2.57256
2.93209
3.39063
4.00586
4.84578
6.21026
8.09086
10.3915
12.8054
14.8928
16.2045
16.4739
15.921
14.8881
13.592
12.2234
10.9188
9.7536
8.70909
7.90514
7.36323
7.01593
6.85403
6.93127
7.35603
8.54854
11.5729
19.6464
43.6423
127.409
512.721
2956.01
2.10013
1.93326
1.80355
1.71627
1.6596
1.62409
1.60422
1.59517
1.59223
1.59417
1.60167
1.61133
1.62339
1.63705
1.65205
1.66826
1.68559
1.70404
1.72367
1.74453
1.76674
1.79039
1.81565
1.84255
1.87147
2.31207
2.59404
2.96979
3.45847
4.12389
5.06358
6.66555
8.96748
11.8991
15.1466
18.2112
20.5116
21.5466
21.131
19.7309
17.8772
15.8603
13.9011
12.1361
10.6253
9.32147
8.34126
7.68511
7.25947
7.04104
7.07672
7.46899
8.62757
11.6078
19.6294
43.5461
127.454
516.118
2990.92
2.3228
2.09209
1.91087
1.78795
1.70651
1.65348
1.62045
1.6024
1.59437
1.59193
1.59489
1.60243
1.61246
1.62451
1.6382
1.65314
1.66928
1.68652
1.70489
1.72442
1.74517
1.76728
1.79081
1.81581
1.84255
1.87147
2.61401
3.00513
3.52299
4.2377
5.28496
7.14138
9.89672
13.5187
17.7092
21.9383
25.5189
27.7515
28.138
26.6546
24.0947
21.2006
18.321
15.6848
13.4087
11.523
9.94248
8.77701
8.00261
7.49719
7.22225
7.21634
7.57797
8.69391
11.6384
19.6124
43.447
127.509
519.891
3028.91
2.63183
2.31232
2.05949
1.88826
1.77354
1.69719
1.64762
1.617
1.60073
1.59365
1.59173
1.59567
1.60326
1.61359
1.62562
1.63932
1.6542
1.67028
1.68744
1.70571
1.72514
1.74579
1.7678
1.79102
1.81581
1.84255
1.87147
3.03838
3.58416
4.3477
5.51008
7.63243
10.8645
15.2227
20.445
25.9999
31.1307
34.9668
36.7303
36.0024
33.0143
28.9635
24.8113
20.9372
17.5489
14.7203
12.4371
10.5675
9.21014
8.3145
7.72853
7.39727
7.35062
7.66869
8.751
11.673
19.5973
43.3449
127.589
523.989
3070.4
3.06765
2.6183
2.26491
2.02703
1.86734
1.75973
1.68821
1.64202
1.61377
1.59918
1.59304
1.59164
1.5965
1.60415
1.61469
1.62673
1.64042
1.65524
1.67125
1.68833
1.7065
1.72585
1.7464
1.76805
1.79102
1.81581
1.84255
1.87147
3.64232
4.45453
5.73852
8.13265
11.8568
16.9843
23.3068
30.3174
37.2288
43.0467
46.7379
47.509
45.1184
40.1516
34.2744
28.6574
23.6712
19.4679
16.0551
13.3586
11.1918
9.63858
8.61992
7.953
7.56613
7.4621
7.74658
8.81432
11.7123
19.5826
43.2408
127.683
528.564
3115.63
3.69306
3.0498
2.54928
2.21848
1.99697
1.84725
1.74639
1.67957
1.63667
1.61073
1.59776
1.59254
1.59168
1.59733
1.60509
1.61576
1.62783
1.64148
1.65627
1.67219
1.6892
1.70728
1.72653
1.7467
1.76805
1.79102
1.81581
1.84255
1.87147
4.55887
5.96764
8.63576
12.8605
18.7784
26.2492
34.8121
43.6851
51.8047
57.9422
60.9425
60.0848
55.4191
47.9826
39.9549
32.6851
26.4863
21.4187
17.399
14.2794
11.8112
10.0604
8.91822
8.17043
7.70756
7.55788
7.83266
8.8847
11.7569
19.5717
43.1358
127.817
533.539
3165.06
4.65099
3.66998
2.9477
2.48283
2.17547
1.96808
1.82782
1.73352
1.67128
1.63158
1.6079
1.59648
1.59218
1.59189
1.59811
1.60606
1.6168
1.62891
1.64252
1.65727
1.67311
1.69004
1.70803
1.72688
1.7467
1.76805
1.79102
1.81581
1.84255
1.87143
6.19503
9.13742
13.8633
20.5811
29.2298
39.4095
50.3721
61.0367
70.0559
75.9839
77.6061
74.3871
66.7947
56.404
45.9264
36.8409
29.3486
23.3803
18.7394
15.1923
12.4222
10.474
9.20917
8.35452
7.82925
7.66372
7.92796
8.96304
11.8078
19.5616
43.0301
127.972
539.115
3219.01
4.62023
6.39647
3.5137
2.85177
2.42123
2.13412
1.94012
1.80904
1.72111
1.66333
1.62674
1.60531
1.59535
1.59192
1.59234
1.59885
1.60706
1.61782
1.62998
1.64353
1.65824
1.674
1.69087
1.7084
1.72688
1.74669
1.76805
1.79102
1.81581
1.84245
1.87136
9.63358
14.8547
22.3712
32.2091
44.0409
57.1709
70.5414
82.763
92.2049
97.234
96.6632
90.2796
79.0998
65.2987
52.1081
41.0738
32.2274
25.3345
20.0658
16.0915
13.0218
10.8788
9.45636
8.51315
7.96388
7.78088
8.03362
9.05042
11.8659
19.5586
42.9276
128.184
545.2
3278.03
4.36333
6.36695
10.0723
3.372
2.76294
2.36205
2.09413
1.91308
1.79091
1.70919
1.65574
1.62215
1.60298
1.59437
1.59158
1.59295
1.59957
1.60807
1.61882
1.63103
1.64452
1.65919
1.67487
1.69127
1.7084
1.72688
1.74669
1.76805
1.79102
1.81565
1.84225
1.87129
15.8251
24.1306
35.153
48.645
63.9759
80.1362
95.7557
109.132
118.354
121.642
117.957
107.569
92.162
74.5422
58.4211
45.3372
35.0956
27.2658
21.3696
16.9726
13.6087
11.223
9.66959
8.68893
8.11334
7.91081
8.15099
9.14804
11.9324
19.5602
42.8264
128.429
552.038
3342.48
4.13843
5.91495
10.0619
16.684
3.24208
2.67769
2.30488
2.05544
1.88696
1.77345
1.69776
1.6485
1.61784
1.60093
1.59355
1.5913
1.59364
1.6003
1.60908
1.61981
1.63205
1.64548
1.66012
1.6753
1.69127
1.7084
1.72688
1.74669
1.76805
1.79081
1.81533
1.84204
1.87122
25.8436
38.0332
53.1705
70.6975
89.6663
108.763
126.31
140.28
148.475
149.043
141.245
126.013
105.792
84.0097
64.7916
49.5888
37.9297
29.1618
22.6444
17.8328
14.1066
11.5199
9.9062
8.88422
8.27959
8.0552
8.28164
9.25746
12.0087
19.5665
42.7348
128.756
559.545
3413
3.93622
5.52115
9.24073
16.7383
27.3691
3.1181
2.59546
2.24965
2.01809
1.8618
1.7567
1.68685
1.6417
1.61398
1.59919
1.59287
1.59114
1.59436
1.60105
1.61007
1.62078
1.63306
1.64643
1.66058
1.67529
1.69127
1.7084
1.72688
1.7467
1.76779
1.79039
1.815
1.84183
1.87114
40.8264
57.5777
77.264
99.0069
121.565
143.345
162.354
176.204
182.412
179.16
166.215
145.339
119.794
93.5822
71.1519
53.7918
40.711
31.0129
23.8857
18.5599
14.5354
11.8493
10.1694
9.10159
8.46486
8.216
8.42733
9.38013
12.0966
19.5812
42.6474
129.147
567.997
3490.05
3.74683
5.16771
8.50796
15.3673
27.5889
43.3231
2.99906
2.5162
2.19642
1.98214
1.83765
1.74068
1.67656
1.63551
1.61061
1.59769
1.59232
1.59108
1.59509
1.60182
1.61104
1.62174
1.63405
1.64689
1.66058
1.67529
1.69127
1.7084
1.72687
1.74639
1.76727
1.78995
1.81467
1.84161
1.87106
61.8343
83.6239
108.065
133.998
159.936
184.021
203.904
216.77
219.877
211.616
192.496
165.256
133.979
103.149
77.4421
57.9159
43.4241
32.812
24.9315
19.1849
15.0107
12.2157
10.4626
9.34406
8.67173
8.39552
8.5904
9.51907
12.198
19.6079
42.5804
129.647
577.353
3574.28
3.56803
4.83937
7.84213
14.098
25.4944
43.8531
65.6431
2.88473
2.43997
2.14526
1.94766
1.81457
1.72555
1.66715
1.63002
1.60766
1.59641
1.59191
1.59114
1.59582
1.60261
1.612
1.6227
1.63454
1.64687
1.66058
1.67529
1.69127
1.7084
1.72653
1.74578
1.76673
1.7895
1.81432
1.84139
1.87098
89.7374
116.78
145.947
175.87
204.87
230.801
250.851
261.71
260.46
245.951
219.684
185.476
148.167
112.611
83.6124
61.9363
46.0574
34.3241
25.8291
19.8764
15.5383
12.6236
10.7898
9.61509
8.90323
8.59638
8.77185
9.67651
12.3158
19.6487
42.5205
130.257
587.897
3666.22
3.39907
4.5325
7.2203
12.9071
23.5204
40.8628
66.6632
95.1996
2.77511
2.36693
2.09627
1.91473
1.79275
1.71169
1.65873
1.62514
1.60509
1.59533
1.59163
1.59131
1.59652
1.60342
1.61297
1.62316
1.63452
1.64687
1.66058
1.67529
1.69127
1.70803
1.72584
1.74515
1.76618
1.78904
1.81396
1.84116
1.8709
125.109
157.352
191.022
224.638
256.339
283.593
302.975
310.628
303.638
281.64
247.364
205.723
162.198
121.886
89.6218
65.8336
48.2667
35.6212
26.8216
20.6427
16.1247
13.0784
11.1556
9.91894
9.16284
8.82219
8.97456
9.85525
12.4527
19.7067
42.4984
131.02
599.69
3785.06
3.23956
4.24653
6.6363
11.7735
21.6302
38.0164
62.6174
96.9008
132.52
2.67029
2.29723
2.04956
1.88364
1.77275
1.69925
1.65121
1.62081
1.60285
1.59442
1.59144
1.59164
1.59721
1.6043
1.61342
1.62312
1.63452
1.64687
1.66058
1.6753
1.69086
1.70726
1.72512
1.74451
1.76561
1.78856
1.8136
1.84092
1.87081
168.175
205.343
243.19
280.19
314.239
342.229
359.946
363.001
348.796
318.13
275.132
225.744
175.936
130.905
95.4375
69.0974
50.1616
37.0552
27.9204
21.4929
16.7772
13.5861
11.5653
10.2601
9.45463
9.07659
9.20199
10.0584
12.6126
19.7871
42.5074
131.977
615.469
3929.68
3.08911
3.9816
6.09041
10.6916
19.7941
35.2527
58.7595
91.6508
135.068
177.731
2.57046
2.23102
2.00554
1.85517
1.75479
1.68809
1.64447
1.61695
1.60095
1.59366
1.59124
1.5921
1.59797
1.6047
1.61336
1.62312
1.63452
1.64687
1.66058
1.67486
1.69003
1.70648
1.72439
1.74385
1.76503
1.78808
1.81323
1.84068
1.87072
218.813
260.512
302.224
342.372
378.441
406.489
421.323
418.188
395.253
354.862
302.614
245.327
189.269
139.614
100.297
71.8963
52.257
38.6425
29.1381
22.4368
17.5037
14.1536
12.0245
10.6438
9.78326
9.36382
9.45808
10.29
12.8
19.8949
42.5449
133.355
635.706
4078.95
2.94695
3.73829
5.58441
9.66496
18.002
32.5297
54.9836
86.6768
128.461
181.225
230.568
2.47591
2.16885
1.96531
1.82963
1.73867
1.67808
1.63845
1.61351
1.59933
1.59302
1.59107
1.59275
1.59827
1.60462
1.61336
1.62312
1.63452
1.64689
1.66011
1.67398
1.68917
1.70568
1.72365
1.74317
1.76443
1.78758
1.81284
1.84043
1.87063
276.632
322.491
367.874
411.057
448.846
476.11
486.566
475.453
442.294
391.305
329.486
264.296
202.107
146.871
104.462
74.9913
54.5764
40.4013
30.4889
23.4857
18.3133
14.7881
12.5399
11.0759
10.1541
9.68872
9.74777
10.5546
13.0198
20.0391
42.6508
135.412
657.712
4232.15
2.81258
3.519
5.11935
8.70304
16.2555
29.8286
51.2306
81.7996
122.294
173.072
234.995
290.458
2.38753
2.11223
1.92929
1.80671
1.72419
1.66911
1.63307
1.61047
1.59794
1.59252
1.59117
1.59302
1.59811
1.60463
1.61336
1.62312
1.63453
1.64643
1.65917
1.67308
1.6883
1.70485
1.72288
1.74247
1.76382
1.78707
1.81245
1.84018
1.87054
341.097
390.903
439.995
486.304
525.486
550.818
555.025
533.975
489.213
426.993
355.483
282.509
212.768
153.082
109.065
78.4165
57.1463
42.3517
31.9885
24.6521
19.2159
15.4981
13.1189
11.5628
10.5732
10.0571
10.0763
10.858
13.2798
20.2588
42.9104
137.817
681.913
4388.25
2.68698
3.31948
4.69478
7.80916
14.5625
27.1472
47.4654
76.937
116.277
165.639
225.033
295.66
356.67
2.30747
2.06168
1.89705
1.78615
1.7112
1.66107
1.62827
1.60779
1.59678
1.59236
1.59107
1.59287
1.5981
1.60463
1.61336
1.62316
1.63404
1.64546
1.65821
1.67216
1.6874
1.70401
1.72209
1.74176
1.76319
1.78654
1.81204
1.83992
1.87045
411.694
465.54
518.738
568.468
608.555
630.309
625.934
592.898
535.367
461.536
380.393
297.581
221.875
159.937
114.155
82.2097
59.9954
44.516
33.6542
25.9495
20.2224
16.2924
13.7696
12.1119
11.0473
10.475
10.4509
11.207
13.6422
20.6014
43.2915
140.851
708.211
4546.34
2.57317
3.13795
4.31243
6.98482
12.9403
24.4942
43.6742
72.0288
110.299
158.476
216.234
283.501
362.318
428.503
2.23645
2.01655
1.86818
1.76771
1.69955
1.65387
1.62398
1.60549
1.59613
1.59209
1.59074
1.59291
1.5981
1.60462
1.61342
1.62269
1.63303
1.64449
1.65723
1.67121
1.68649
1.70314
1.72129
1.74103
1.76255
1.786
1.81163
1.83966
1.87036
488.106
546.55
604.659
658.212
698.347
714.168
698.422
651.406
580.21
494.624
400.949
310.429
231.905
167.503
119.784
86.4119
63.1557
46.919
35.505
27.3928
21.3446
17.181
14.5007
12.7309
11.5837
10.9504
10.8781
11.6824
14.1398
21.034
43.8725
144.322
737.232
4705
2.47229
2.97618
3.97396
6.23597
11.4077
21.8876
39.8579
67.0401
104.265
151.44
207.922
273.171
347.389
434.118
505.505
2.17341
1.97626
1.84234
1.75118
1.68912
1.64741
1.62022
1.60397
1.59556
1.59169
1.59075
1.59291
1.5981
1.60469
1.61295
1.62171
1.63202
1.64349
1.65622
1.67024
1.68555
1.70226
1.72046
1.74028
1.76189
1.78546
1.81122
1.83942
1.87027
570.456
634.669
698.951
756.645
795.158
801.813
771.591
708.788
623.305
521.905
418.438
324.543
242.945
175.85
126.008
91.0674
66.6618
49.5874
37.5619
28.9984
22.5951
18.1743
15.3211
13.4282
12.191
11.4896
11.4563
12.3104
14.7172
21.5898
44.6277
148.674
768.795
4863.14
2.38312
2.83313
3.68504
5.57163
9.98397
19.3511
36.0293
61.9526
98.1089
144.39
199.919
263.673
335.261
415.571
510.519
587.769
2.11742
1.94029
1.81921
1.73638
1.67973
1.64169
1.61752
1.60285
1.59502
1.59172
1.59075
1.59287
1.59826
1.60428
1.61197
1.62074
1.63098
1.64248
1.6552
1.66924
1.68459
1.70135
1.71962
1.73951
1.76122
1.78491
1.81082
1.83918
1.87018
659.647
731.609
803.773
865.337
899.319
892.584
844.686
764.469
658.944
545.103
437.611
340.03
255.084
185.053
132.888
96.2242
70.5512
52.5501
39.8471
30.7835
23.9875
19.2835
16.2404
14.2128
12.8756
12.2148
12.2091
13.0135
15.3921
22.2756
45.6912
153.641
803.761
5019.06
2.30444
2.70569
3.44716
5.00542
8.70045
16.912
32.2111
56.7614
91.7818
137.223
192.031
254.794
324.476
401.256
487.106
591.582
676.353
2.06764
1.9082
1.79853
1.72307
1.67138
1.63743
1.61572
1.60209
1.59509
1.59172
1.59073
1.59301
1.59796
1.60339
1.611
1.61976
1.62993
1.64143
1.65416
1.66822
1.68361
1.70041
1.71875
1.73873
1.76055
1.78439
1.81043
1.83894
1.8701
757.837
840.607
922.479
986.592
1011.07
986.29
917.116
810.986
689.316
570.521
458.598
356.997
268.412
195.187
140.486
101.932
74.8633
55.8382
42.3845
32.7664
25.5356
20.5203
17.2685
15.0917
13.79
13.1448
13.0369
13.7905
16.1675
23.1378
47.0394
159.842
841.861
5171.66
2.23505
2.59222
3.24708
4.53426
7.58836
14.6149
28.4361
51.4737
85.2442
129.847
184.112
246.274
314.774
388.992
470.09
561.516
678.557
774.02
2.02337
1.87957
1.77996
1.71122
1.665
1.6347
1.61472
1.60219
1.59508
1.59167
1.59105
1.59273
1.59718
1.60257
1.61002
1.61877
1.62886
1.64037
1.65309
1.66718
1.68261
1.69946
1.71787
1.73795
1.7599
1.78388
1.81006
1.83872
1.87002
869.292
967.244
1060.72
1122.54
1132.87
1082.94
978.967
850.922
722.694
598.332
481.527
375.548
283.017
206.327
148.864
108.243
79.6393
59.4838
45.1989
34.966
27.254
21.896
18.4131
16.257
14.9475
14.1494
13.9408
14.6462
17.0582
24.1801
48.8658
167.043
884.585
5319.4
2.17384
2.49156
3.07543
4.14547
6.65254
12.5524
24.7724
46.1125
78.4683
122.174
176.022
237.923
305.813
378.454
456.054
541.194
639.192
774.907
886.542
1.98401
1.85395
1.76342
1.70201
1.661
1.6334
1.61487
1.60219
1.59501
1.59207
1.59115
1.59207
1.59648
1.60177
1.60902
1.61777
1.62777
1.63928
1.65201
1.66611
1.68159
1.69848
1.717
1.7372
1.75927
1.78339
1.80969
1.8385
1.86994
1001.99
1121.87
1224
1284.58
1267.45
1168.55
1032.88
895.209
759.367
628.721
506.525
395.779
298.982
218.544
158.085
115.207
84.9209
63.5196
48.3156
37.4016
29.1574
23.42
19.9209
17.7149
16.1803
15.2231
14.9153
15.5857
18.0648
25.4624
51.1637
175.971
931.647
5461.4
2.11979
2.40273
2.92557
3.82579
5.87519
10.7691
21.3641
40.7561
71.4422
114.119
167.614
229.552
297.361
369.195
444.591
525.012
614.935
722.199
888.045
1026.31
1.94891
1.8312
1.75036
1.69637
1.6593
1.63362
1.61486
1.60207
1.59554
1.59233
1.59104
1.5916
1.59577
1.60099
1.60801
1.61675
1.62668
1.63816
1.65091
1.66501
1.68055
1.69753
1.71615
1.73648
1.75866
1.78291
1.80933
1.83829
1.86986
1171.6
1317.77
1448.35
1484.16
1392.36
1244.84
1093.73
944.442
799.685
661.892
533.717
417.781
316.378
231.904
168.205
122.875
90.7486
67.978
51.7594
40.0918
31.2589
25.4175
21.7895
19.25
17.4783
16.3577
15.9551
16.6067
19.2058
26.9851
54.1725
186.569
984.567
5596.64
2.07188
2.32468
2.79298
3.56561
5.23616
9.25625
18.3039
35.6067
64.2265
105.607
158.732
220.956
289.178
360.933
435.109
512.453
596.184
693.281
816.238
1035.5
1217.16
1.91777
1.81304
1.74246
1.69421
1.6596
1.63361
1.61469
1.60282
1.59611
1.59248
1.5912
1.59127
1.59504
1.60024
1.607
1.61571
1.62558
1.63702
1.64979
1.6639
1.67952
1.6966
1.71533
1.73578
1.75807
1.78245
1.80899
1.83808
1.86979
1413.43
1642.39
1762.39
1676.08
1506.07
1333.04
1162.96
999.497
844.12
698.099
563.239
441.631
335.266
246.46
179.274
131.29
97.1596
72.8891
55.5539
43.0535
34.0038
27.8762
23.7403
20.849
18.8301
17.5441
17.0534
17.713
20.4799
28.8236
57.8875
199.773
1043.35
5724.91
2.02956
2.2561
2.67508
3.35178
4.71355
7.99209
15.5984
30.8218
57.0636
96.6402
149.213
211.904
281.014
353.381
427.259
502.747
582.271
671.546
781.349
934.437
1264.47
1531.11
1.89263
1.80228
1.73972
1.69464
1.65959
1.63337
1.61568
1.60394
1.59675
1.59299
1.5914
1.59109
1.5943
1.59951
1.606
1.61464
1.62447
1.63585
1.64866
1.6628
1.67853
1.6957
1.71453
1.7351
1.75749
1.782
1.80865
1.83788
1.86972
1879.37
2124.37
2061.12
1852.08
1641.31
1436.64
1243.12
1061.74
893.388
737.688
595.251
467.406
355.689
262.249
191.329
140.488
104.186
78.2792
59.7181
46.9114
37.3658
30.4278
25.7569
22.4975
20.2237
18.7729
18.206
18.901
21.9131
30.9796
62.5593
215.75
1109.42
5846.21
1.99518
2.19618
2.57025
3.17174
4.28907
6.94555
13.2498
26.4452
50.1739
87.4559
138.959
202.135
272.574
346.254
420.705
495.436
572.27
655.902
756.304
891.352
1110.46
1724.01
2211.16
1.87784
1.79888
1.74028
1.69462
1.65926
1.63465
1.61749
1.60546
1.59791
1.59362
1.59158
1.59103
1.59357
1.59878
1.60503
1.61355
1.62336
1.63466
1.64754
1.66175
1.67756
1.69484
1.71376
1.73444
1.75693
1.78156
1.80832
1.83769
1.86968
2581.75
2617.14
2354.66
2079.63
1809.34
1565.33
1338.18