/*--------------------------------*- C++ -*----------------------------------*\
  =========                 |
  \\      /  F ield         | OpenFOAM: The Open Source CFD Toolbox
   \\    /   O peration     | Website:  https://openfoam.org
    \\  /    A nd           | Version:  8
     \\/     M anipulation  |
\*---------------------------------------------------------------------------*/
FoamFile
{
    version     2.0;
    format      ascii;
    class       volScalarField;
    location    "600";
    object      p;
}
// * * * * * * * * * * * * * * * * * * * * * * * * * * * * * * * * * * * * * //

dimensions      [0 2 -2 0 0 0 0];

internalField   nonuniform List<scalar> 
15677
(
52.0117
48.9944
49.0838
48.9731
48.1254
48.5469
49.1989
48.645
48.3606
48.398
49.1626
48.6984
48.5628
48.3801
48.2559
49.1008
48.6413
48.4902
48.4213
48.2626
48.1351
49.0597
48.6403
48.4765
48.3815
48.2657
48.1414
48.0114
49.0216
48.6471
48.4887
48.394
48.2577
48.1407
48.0153
47.8653
48.9811
48.6482
48.4912
48.3978
48.2685
48.1425
48.0163
47.8679
47.6902
48.9392
48.6474
48.4911
48.3958
48.2688
48.1475
48.0193
47.8702
47.6921
47.4788
48.8962
48.6461
48.4915
48.3951
48.2697
48.1483
48.0219
47.8729
47.6948
47.4803
47.2228
48.8526
48.6437
48.492
48.3948
48.2716
48.1506
48.0239
47.8751
47.6975
47.483
47.2241
46.9146
48.8088
48.6396
48.4925
48.3946
48.2737
48.1532
48.0265
47.8779
47.7
47.4861
47.2269
46.9156
46.5449
48.7657
48.6331
48.4928
48.3947
48.2762
48.1561
48.0293
47.8809
47.7034
47.4891
47.2304
46.9183
46.5456
46.105
48.7277
48.6241
48.4929
48.3954
48.2796
48.1598
48.0328
47.8844
47.707
47.493
47.234
46.9223
46.5483
46.1054
45.5868
48.6961
48.6136
48.4926
48.3967
48.2841
48.1648
48.0375
47.889
47.7115
47.4975
47.2386
46.9266
46.5527
46.108
45.587
44.9831
48.669
48.603
48.4919
48.3987
48.2899
48.1716
48.044
47.8952
47.7174
47.5032
47.2442
46.932
46.5579
46.1131
45.5897
44.9831
44.2872
48.6457
48.5925
48.4911
48.4013
48.2973
48.1805
48.0528
47.9037
47.7256
47.511
47.2515
46.9389
46.5645
46.1193
45.5953
44.9858
44.287
43.4935
48.6257
48.5824
48.4902
48.4043
48.3056
48.1921
48.0648
47.9156
47.7369
47.5217
47.2615
46.9481
46.5729
46.1272
45.6027
44.9921
44.2897
43.4929
42.5971
48.6084
48.573
48.4892
48.4077
48.3143
48.2056
48.0808
47.9318
47.7527
47.5366
47.2754
46.9608
46.5843
46.1375
45.6122
45.0008
44.2967
43.4957
42.5962
41.5952
48.5934
48.5642
48.4883
48.4115
48.3234
48.2198
48.0997
47.9536
47.7743
47.5574
47.2948
46.9786
46.6003
46.1516
45.6246
45.012
44.3068
43.5033
42.5991
41.594
40.4862
48.5811
48.5563
48.4876
48.4156
48.333
48.2349
48.12
47.9796
47.8036
47.586
47.3219
47.0036
46.6228
46.1714
45.6417
45.0268
44.3199
43.5148
42.6073
41.5968
40.4845
39.2702
48.5713
48.5494
48.4871
48.42
48.343
48.2508
48.1418
48.0076
47.8387
47.6247
47.3592
47.0384
46.6544
46.1994
45.666
45.0473
44.3372
43.5299
42.6203
41.6057
40.4874
39.2682
37.949
48.5636
48.5439
48.4867
48.4248
48.3533
48.2674
48.1649
48.038
47.8768
47.6714
47.4098
47.0863
46.6985
46.2389
45.7004
45.0764
44.3613
43.5499
42.6374
41.6201
40.4969
39.271
37.9466
36.5262
48.5573
48.5394
48.4866
48.4296
48.3639
48.2845
48.1891
48.0703
47.9181
47.7221
47.4709
47.1515
46.7592
46.2939
45.7488
45.1179
44.3957
43.5778
42.6601
41.6392
40.5126
39.2811
37.9494
36.5234
35.007
48.5522
48.5357
48.4866
48.4341
48.3742
48.302
48.2143
48.1043
47.9623
47.7774
47.5375
47.2303
46.842
46.3699
45.8165
45.1766
44.445
43.6178
42.6918
41.6645
40.5336
39.2979
37.9599
36.5261
35.0038
33.3979
48.548
48.5327
48.4867
48.4382
48.3837
48.319
48.2401
48.1398
48.0089
47.8366
47.6102
47.3164
46.9423
46.4734
45.9101
45.2586
44.5148
43.6754
42.7376
41.7
40.5614
39.3205
37.9777
36.5369
35.0063
33.3944
31.7071
48.5446
48.5302
48.4869
48.4419
48.3922
48.3345
48.2653
48.1762
48.0575
47.8992
47.6883
47.4106
47.0519
46.5991
46.0377
45.3721
44.6127
43.7572
42.8038
41.7516
40.6004
39.3505
38.0017
36.5555
35.0172
33.3966
31.7032
29.9434
48.5417
48.5281
48.4871
48.4453
48.3998
48.3484
48.2883
48.2118
48.1076
47.9645
47.7709
47.5119
47.1721
46.7367
46.193
45.5271
44.7483
43.8722
42.8982
41.8264
40.6574
39.3927
38.0334
36.5805
35.0364
33.4075
31.7051
29.9391
28.1174
48.5393
48.5263
48.4874
48.4483
48.4065
48.3608
48.3089
48.2443
48.1566
48.032
47.8573
47.6193
47.3016
46.8879
46.3633
45.7162
44.9339
44.0319
43.0313
41.9337
40.7409
39.4549
38.0783
36.6135
35.0619
33.4269
31.7159
29.9407
28.1128
26.2382
48.5372
48.5249
48.4877
48.451
48.4126
48.3719
48.3274
48.2735
48.2013
48.098
47.9467
47.7318
47.4391
47.0511
46.5508
45.9239
45.1609
44.251
43.2167
42.0857
40.8612
39.5464
38.145
36.6604
35.0955
33.4525
31.7351
29.9511
28.1139
26.2332
24.1065
48.5355
48.5236
48.488
48.4534
48.4179
48.3817
48.3438
48.2997
48.2417
48.1585
48.0342
47.8482
47.5834
47.2246
46.7535
46.1531
45.4108
44.5197
43.472
42.298
41.0321
39.6792
38.2438
36.7306
35.1436
33.4861
31.7602
29.9698
28.1237
26.2337
24.1017
21.7077
48.534
48.5225
48.4883
48.4556
48.4226
48.3904
48.3584
48.323
48.2778
48.2131
48.1144
47.9624
47.733
47.407
46.9695
46.4014
45.6871
44.8163
43.7857
42.591
41.2717
39.8687
38.3882
36.8358
35.2163
33.5344
31.7929
29.9939
28.1415
26.2427
24.1016
21.7023
19.2824
48.5327
48.5216
48.4885
48.4574
48.4268
48.3981
48.3713
48.3437
48.3101
48.262
48.1869
48.0674
47.8799
47.5964
47.1968
46.6665
45.9872
45.145
44.1329
42.9524
41.6036
40.1355
38.5955
36.9905
35.3265
33.6083
31.8404
30.0249
28.164
26.2592
24.1097
21.7016
19.2766
16.8608
48.5316
48.5208
48.4888
48.4591
48.4305
48.4049
48.3828
48.3621
48.3387
48.3056
48.2519
48.1622
48.015
47.7827
47.4335
46.9462
46.3084
45.5029
44.5188
43.3536
42.0145
40.5066
38.8887
37.2141
35.49
33.7218
31.9141
30.0703
28.1925
26.2793
24.1245
21.7085
19.2748
16.8547
14.4687
48.5201
48.5303
48.489
48.4606
48.4338
48.4109
48.3929
48.3784
48.3641
48.3444
48.31
48.2473
48.1372
47.9544
47.6666
47.238
46.648
45.887
44.9402
43.8008
42.4722
40.9677
39.2981
37.532
35.7279
33.892
32.0291
30.1423
28.2347
26.3044
24.1417
21.721
19.2799
16.8521
14.4625
12.1207
48.4891
48.5194
48.5288
48.4618
48.4367
48.4162
48.4018
48.3928
48.3867
48.3789
48.3617
48.3234
48.2471
48.1099
47.8818
47.5261
47.0031
46.2941
45.3936
44.2907
42.984
41.4833
39.8092
37.978
36.0679
34.1416
32.2038
30.2569
28.3034
26.3422
24.1623
21.7338
19.2892
16.8552
14.4588
12.1142
9.82875
48.4629
48.4896
48.5186
48.5274
48.4392
48.4209
48.4097
48.4055
48.4066
48.4094
48.4076
48.3912
48.3454
48.2499
48.0771
47.7925
47.3546
46.721
45.8757
44.8195
43.5465
42.0618
40.3827
38.5374
36.5477
34.5008
32.4621
30.4332
28.4153
26.4059
24.1942
21.7479
19.2967
16.8611
14.4598
12.1095
9.82209
7.60445
48.4413
48.4646
48.4902
48.5178
48.526
48.425
48.4167
48.4167
48.4242
48.4364
48.4483
48.4514
48.4331
48.3752
48.2531
48.0346
47.6804
47.1447
46.3827
45.3835
44.1557
42.6999
41.0288
39.1677
37.1525
35.0104
32.8365
30.6968
28.5905
26.5129
24.2507
21.771
19.303
16.8628
14.462
12.1083
9.81633
7.59763
5.45707
48.4284
48.4444
48.4666
48.4909
48.5171
48.5247
48.4228
48.4267
48.4398
48.4604
48.4844
48.5049
48.5111
48.4871
48.4109
48.2532
47.9771
47.5384
46.8875
45.9786
44.8077
43.3936
41.7441
39.8808
37.8371
35.6565
33.371
31.082
28.8555
26.6839
24.3499
21.8171
19.3155
16.8604
14.4574
12.1064
9.81277
7.5908
5.45013
3.39338
48.4279
48.4333
48.448
48.4687
48.4915
48.5163
48.5234
48.4354
48.4536
48.4815
48.5163
48.5523
48.5804
48.5867
48.5519
48.4495
48.2455
47.8979
47.3579
46.5731
45.4983
44.1387
42.5248
40.6733
38.6148
36.3913
34.0531
31.6359
29.2465
26.9464
24.513
21.9043
19.3485
16.8611
14.4454
12.0949
9.80662
7.58487
5.44222
3.38634
1.41802
48.4427
48.4351
48.4386
48.4516
48.4707
48.4921
48.5156
48.5222
48.4657
48.5003
48.5446
48.5943
48.6418
48.6753
48.6776
48.6252
48.487
48.2236
47.7885
47.129
46.1907
44.9309
43.3665
41.5417
39.4828
37.2298
34.8327
32.3475
29.8137
27.3382
24.7681
22.0541
19.4202
16.8791
14.4331
12.0727
9.78796
7.5743
5.4339
3.37736
1.41092
-0.465959
48.4758
48.4528
48.4424
48.444
48.4551
48.4727
48.4928
48.515
48.521
48.5168
48.5697
48.6315
48.6963
48.7539
48.7895
48.782
48.7033
48.5173
48.1797
47.6392
46.8403
45.7285
44.2653
42.4821
40.438
38.1696
35.7262
33.1649
30.5471
27.9116
25.1548
22.2953
19.5519
16.9325
14.4345
12.0462
9.75486
7.54828
5.41882
3.36666
1.40088
-0.473111
-2.25702
48.5305
48.4897
48.4624
48.4498
48.4492
48.4585
48.4746
48.4934
48.5143
48.5199
48.5918
48.6645
48.7445
48.8236
48.8888
48.9216
48.8967
48.781
48.5331
48.104
47.4385
46.4796
45.1741
43.4906
41.477
39.2086
36.7324
34.1063
31.3942
28.6583
25.7271
22.6686
19.7732
17.0425
14.4672
12.0294
9.71345
7.50402
5.38535
3.34704
1.38786
-0.484192
-2.2642
-3.95499
48.61
48.5492
48.5022
48.4724
48.4571
48.4544
48.4619
48.4764
48.494
48.5137
48.5189
48.6937
48.7874
48.8854
48.977
49.0458
49.0691
49.0169
48.851
48.5249
47.9851
47.1737
46.0335
44.5152
42.5965
40.3441
37.8502
35.1716
32.3747
29.5259
26.4788
23.2285
20.1244
17.2384
14.5523
12.0396
9.67751
7.4472
5.32972
3.30608
1.36373
-0.49946
-2.2763
-3.96217
-5.56069
48.7175
48.6348
48.5652
48.5152
48.4821
48.4642
48.4593
48.4651
48.4782
48.4946
48.5132
48.518
48.8254
48.9404
49.0553
49.1561
49.2226
49.2276
49.136
48.9043
48.4813
47.8098
46.8306
45.4882
43.7395
41.5736
39.0778
36.361
33.4903
30.5358
27.3584
23.972
20.6596
17.5593
14.718
12.0972
9.66382
7.39148
5.25721
3.23901
1.31532
-0.528033
-2.29372
-3.97527
-5.56786
-7.07579
48.8562
48.7501
48.6551
48.582
48.5279
48.4915
48.471
48.4641
48.4682
48.48
48.4951
48.5126
48.5171
48.9891
49.125
49.2541
49.3592
49.4155
49.3909
49.2452
48.9298
48.3891
47.5637
46.3943
44.8298
42.8353
40.4138
37.6739
34.7422
31.6909
28.389
24.8498
21.3794
18.0587
15.0017
12.2283
9.69156
7.35303
5.18144
3.15074
1.23688
-0.583783
-2.32662
-3.99472
-5.58192
-7.08292
-8.50265
49.0285
48.8985
48.7756
48.6765
48.5983
48.54
48.5004
48.4775
48.4687
48.4712
48.4816
48.4957
48.5121
48.5163
49.1868
49.3414
49.4805
49.5827
49.6185
49.5505
49.3335
48.914
48.2333
47.2307
45.8495
44.0447
41.7921
39.1104
36.1313
32.994
29.5749
25.8859
22.2381
18.7411
15.4554
12.4687
9.78465
7.34913
5.11763
3.05494
1.133
-0.673406
-2.38955
-4.03181
-5.60331
-7.0979
-8.50974
-9.84422
49.2363
49.083
48.9301
48.8027
48.6973
48.6138
48.5516
48.5089
48.4836
48.473
48.4741
48.4832
48.4962
48.5117
48.5156
49.4188
49.5888
49.7315
49.8213
49.8236
49.6959
49.3877
48.8418
47.9973
46.7944
45.1807
43.1199
40.6006
37.6596
34.448
30.9207
27.0864
23.2596
19.5643
16.0875
12.8681
9.97674
7.40157
5.08088
2.96544
1.0174
-0.792556
-2.4901
-4.10171
-5.64442
-7.12111
-8.52559
-9.85125
-11.1037
49.4807
49.3058
49.1221
48.9642
48.8288
48.7168
48.6284
48.5624
48.517
48.4895
48.4771
48.4767
48.4847
48.4967
48.5113
48.515
49.6848
49.8645
50.002
50.0674
50.0206
49.8138
49.3924
48.696
47.6635
46.2377
44.373
42.0437
39.2543
36.0568
32.4315
28.4582
24.4518
20.5515
16.8593
13.4378
10.3145
7.54149
5.09079
2.89522
0.902173
-0.927567
-2.62403
-4.21285
-5.72102
-7.16607
-8.5505
-9.86793
-11.1107
-12.2845
49.761
49.5684
49.354
49.1646
48.9969
48.8533
48.7351
48.642
48.5726
48.5245
48.4949
48.4809
48.4792
48.486
48.4971
48.511
48.5144
49.9823
50.1638
50.2849
50.3108
50.1963
49.8889
49.33
48.4582
47.2136
45.5438
43.4122
40.8071
37.7452
34.114
30.0093
25.8241
21.7125
17.7931
14.1434
10.811
7.81149
5.17576
2.86146
0.79833
-1.06827
-2.77793
-4.36099
-5.84236
-7.24908
-8.59911
-9.89441
-11.1281
-12.2914
-13.3903
50.0753
49.8711
49.6275
49.4068
49.2053
49.0273
48.876
48.7521
48.6547
48.582
48.5314
48.5
48.4845
48.4815
48.4872
48.4974
48.5107
48.514
50.3071
50.4799
50.5703
50.5389
50.3354
49.9031
49.1814
48.1088
46.6289
44.6964
42.2868
39.398
35.8919
31.7497
27.3872
23.0581
18.8988
15.0043
11.4364
8.2253
5.37294
2.88955
0.720433
-1.20552
-2.9436
-4.53315
-6.00406
-7.38018
-8.68821
-9.94646
-11.156
-12.3095
-13.3971
-14.4248
50.4194
50.2124
49.9434
49.693
49.4572
49.2429
49.0554
48.897
48.7677
48.6663
48.5906
48.5377
48.5046
48.4876
48.4834
48.4882
48.4978
48.5105
48.5136
50.6525
50.8033
50.8456
50.7361
50.4198
49.837
48.926
47.6279
45.8913
43.6814
40.981
37.6444
33.6036
29.1532
24.5997
20.1868
16.0294
12.2056
8.75788
5.69622
3.01005
0.690482
-1.32741
-3.11374
-4.72311
-6.19378
-7.55476
-8.8286
-10.0413
-11.2113
-12.3388
-13.416
-14.4315
-15.3921
50.7867
50.5891
50.3007
50.0242
49.7551
49.5035
49.2774
49.0811
48.916
48.7818
48.6767
48.5983
48.5434
48.5085
48.4902
48.485
48.4891
48.498
48.5102
48.5133
51.0094
51.1217
51.0956
50.8844
50.4295
49.6689
48.5427
46.9953
44.984
42.48
39.3335
35.4436
31.045
26.3485
21.6674
17.2271
13.1254
9.4183
6.1252
3.23667
0.731653
-1.4159
-3.27902
-4.92528
-6.40717
-7.76125
-9.01533
-10.1905
-11.3116
-12.3971
-13.4464
-14.4511
-15.3988
-16.1749
51.168
50.9956
50.6968
50.4002
50.1006
49.8119
49.5457
49.3087
49.1041
48.933
48.7942
48.6859
48.605
48.5482
48.5118
48.4925
48.4865
48.4898
48.4983
48.5101
48.513
51.3656
51.42
51.302
50.9633
50.342
49.3767
48.0093
46.1918
43.8864
40.9412
37.224
32.928
28.228
23.3513
18.6075
14.2028
10.2113
6.66271
3.55372
0.857409
-1.45551
-3.42591
-5.13301
-6.64031
-7.9971
-9.23781
-10.3887
-11.4691
-12.5025
-13.5075
-14.4825
-15.419
-16.1814
-16.8326
51.5512
51.4239
51.1268
50.8191
50.494
50.1703
49.8635
49.5837
49.3366
49.1245
48.9478
48.805
48.6937
48.6106
48.5521
48.5146
48.4943
48.4876
48.4905
48.4985
48.5099
48.5128
51.706
51.6799
51.4442
50.9497
50.1343
48.9365
47.305
45.1954
42.4545
38.921
34.7527
30.1066
25.1737
20.1873
15.4516
11.1448
7.31272
3.95819
1.05703
-1.43281
-3.54659
-5.33757
-6.88927
-8.25997
-9.49501
-10.6263
-11.6779
-12.6676
-13.6176
-14.5463
-15.4512
-16.2023
-16.8389
-17.5472
51.9209
51.863
51.5835
51.277
50.934
50.5792
50.2331
49.9096
49.6173
49.3608
49.1419
48.9603
48.814
48.7
48.615
48.5552
48.5168
48.4959
48.4886
48.491
48.4987
48.5098
48.5126
52.0123
51.8807
51.4986
50.8198
49.7809
48.3259
46.4055
43.8652
40.5191
36.4975
31.9427
27.019
21.9237
16.9001
12.2393
8.08537
4.45416
1.32228
-1.35336
-3.6272
-5.53847
-7.15022
-8.5487
-9.78628
-10.9037
-11.9298
-12.8865
-13.79
-14.6607
-15.5174
-16.2349
-16.8598
-17.5533
-18.3243
52.2582
52.2992
52.0571
51.7677
51.4176
51.0382
50.6558
50.289
49.95
49.6461
49.3812
49.1563
48.9704
48.8209
48.7047
48.6183
48.5576
48.5185
48.4971
48.4894
48.4915
48.4988
48.5097
48.5124
52.2635
51.9984
51.4403
50.5467
49.258
47.5178
45.1699
42.0106
38.1516
33.7234
28.8582
23.722
18.5304
13.5358
9.00866
5.05428
1.65754
-1.2301
-3.66822
-5.72101
-7.42951
-8.86428
-10.1131
-11.2219
-12.2263
-13.1517
-14.0181
-14.8397
-15.6359
-16.303
-16.8932
-17.5742
-18.3303
-19.169
52.5412
52.7153
52.5346
52.2825
51.9396
51.5448
51.1316
50.7236
50.3376
49.9843
49.67
49.3977
49.1675
48.9777
48.8257
48.7081
48.6206
48.5593
48.5198
48.498
48.4901
48.4918
48.499
48.5096
48.5123
52.4352
52.0076
51.2418
50.105
48.535
46.3696
43.3942
39.7108
35.4403
30.6806
25.56
20.267
15.0392
10.1344
5.79308
2.07751
-1.05866
-3.68702
-5.88092
-7.7113
-9.2193
-10.4811
-11.5852
-12.57
-13.4661
-14.2957
-15.0764
-15.8211
-16.4244
-16.9628
-17.6085
-18.3513
-19.1751
-20.0873
52.7442
53.0913
53.0001
52.81
52.4924
52.095
51.6588
51.2139
50.7822
50.3784
50.0122
49.6888
49.41
49.1752
48.9825
48.8288
48.7101
48.6222
48.5605
48.5207
48.4987
48.4905
48.4921
48.499
48.5095
48.5122
52.501
51.8799
50.8757
49.4604
47.4672
44.6724
41.1738
37.0855
32.4716
27.4216
22.0887
16.6913
11.4869
6.73014
2.62143
-0.823123
-3.67962
-6.03969
-7.98708
-9.59681
-10.9087
-12.0031
-12.9676
-13.8337
-14.6269
-15.3657
-16.0657
-16.6143
-17.0865
-17.6795
-18.3865
-19.1963
-20.0933
-21.0856
52.8388
53.4038
53.4343
53.3355
53.0659
52.6822
52.2341
51.759
51.2847
50.831
50.4113
50.0337
49.7023
49.4178
49.1796
48.985
48.8303
48.7111
48.6229
48.5611
48.5213
48.4992
48.4909
48.4923
48.499
48.5094
48.5121
52.4314
51.5862
50.3041
48.4663
45.8486
42.5406
38.6508
34.2136
29.2828
23.9728
18.4705
13.0246
7.90539
3.35297
-0.481894
-3.62996
-6.1942
-8.28201
-9.98428
-11.3777
-12.4996
-13.4328
-14.2637
-15.0168
-15.7125
-16.3657
-16.8646
-17.2795
-17.8059
-18.4592
-19.2324
-20.1149
-21.0916
-22.171
52.7928
53.6275
53.8146
53.8418
53.647
53.2976
52.8521
52.3563
51.8448
51.3434
50.8698
50.4359
50.0483
49.71
49.4215
49.1811
48.9855
48.8304
48.7111
48.623
48.5613
48.5215
48.4995
48.4912
48.4924
48.499
48.5094
48.5122
52.1948
51.0861
49.3796
46.9258
43.811
40.1292
35.8896
31.1166
25.8873
20.3494
14.7267
9.29424
4.32381
0.0289991
-3.49669
-6.32945
-8.59444
-10.4103
-11.8719
-13.0554
-13.9944
-14.7733
-15.4771
-16.1232
-16.7269
-17.1725
-17.5341
-18.0025
-18.5887
-19.3071
-20.1521
-21.1136
-22.1771
-23.3511
52.5683
53.7347
54.1157
54.3078
54.2199
53.9295
53.5052
53.0014
52.4608
51.9157
51.3895
50.8983
50.4519
50.0559
49.7127
49.4216
49.1801
48.9842
48.8292
48.7103
48.6225
48.561
48.5214
48.4998
48.4915
48.4925
48.499
48.5094
48.5122
51.7482
50.2304
47.9177
44.9841
41.5143
37.4853
32.898
27.7978
22.2913
16.5651
10.8795
5.52758
0.769602
-3.21899
-6.4069
-8.91166
-10.8753
-12.423
-13.6508
-14.632
-15.396
-16.0283
-16.6118
-17.1568
-17.5445
-17.8481
-18.262
-18.7897
-19.4401
-20.229
-21.152
-22.1996
-23.3572
-24.634
52.1148
53.6945
54.3088
54.7099
54.7653
54.5636
54.1831
53.6878
53.129
52.5469
51.9711
51.4229
50.916
50.4592
50.0571
49.7108
49.4185
49.1768
48.9813
48.827
48.7087
48.6213
48.5603
48.5217
48.5003
48.4916
48.4924
48.4989
48.5094
48.5123
50.9384
48.852
46.0728
42.8002
38.9892
34.6066
29.6726
24.2567
18.5017
12.6362
6.9533
1.75263
-2.73151
-6.37168
-9.20006
-11.3699
-13.0342
-14.3206
-15.3228
-16.1105
-16.7081
-17.2017
-17.6716
-17.9889
-18.2282
-18.5829
-19.055
-19.6462
-20.3661
-21.2314
-22.2393
-23.3802
-24.6401
-26.0283
53.4659
51.2782
54.3603
55.0215
55.2611
55.1825
54.8731
54.4066
53.8442
53.2342
52.614
52.0107
51.4429
50.9229
50.4585
50.0527
49.705
49.4127
49.1717
48.9771
48.8238
48.7062
48.6197
48.5604
48.5225
48.5005
48.4916
48.4923
48.4988
48.5095
48.5125
49.6201
47.1078
43.9988
40.3913
36.2262
31.4856
26.208
20.4941
14.5286
8.58305
2.97554
-2.00217
-6.15596
-9.41298
-11.867
-13.7002
-15.0709
-16.1045
-16.8908
-17.4943
-17.9346
-18.2973
-18.5239
-18.6842
-18.9722
-19.3838
-19.9181
-20.5779
-21.3731
-22.3215
-23.4215
-24.6637
-26.0345
-27.5433
54.2325
52.9027
49.9149
55.2098
55.6827
55.7656
55.5595
55.1466
54.5986
53.9733
53.3163
52.6617
52.0339
51.4496
50.9201
50.451
50.0435
49.6958
49.4045
49.1649
48.9718
48.8195
48.7031
48.6195
48.5616
48.5229
48.5005
48.4914
48.4921
48.4987
48.5095
48.5126
47.9515
45.1446
41.7029
37.7423
33.2153
28.1136
22.5007
16.5148
10.3871
4.43028
-1.02399
-5.70891
-9.48264
-12.33
-14.4019
-15.9015
-16.9867
-17.7776
-18.3583
-18.7877
-19.0794
-19.1777
-19.2353
-19.4409
-19.7837
-20.256
-20.8572
-21.5912
-22.4682
-23.5068
-24.7066
-26.0587
-27.5495
-29.1885
55.2394
53.802
51.9028
48.2182
55.9991
56.2903
56.2233
55.8939
55.3825
54.7578
54.0745
53.3747
52.6895
52.0409
51.4445
50.909
50.4376
50.0302
49.6838
49.3943
49.1566
48.965
48.8143
48.7024
48.6212
48.5622
48.5228
48.5002
48.491
48.4918
48.4985
48.5096
48.5129
46.0723
42.9636
39.1658
34.8425
29.9466
24.4846
18.5507
12.3274
6.09679
0.206781
-5.01403
-9.34087
-12.6933
-15.1134
-16.8014
-17.9741
-18.784
-19.3434
-19.7297
-19.9947
-19.9986
-19.9118
-20.0099
-20.2668
-20.6678
-21.2051
-21.8789
-22.6934
-23.6591
-24.7954
-26.1034
-27.5744
-29.1948
-30.9743
56.1789
55.0015
52.9267
50.5826
46.3265
56.7274
56.844
56.6313
56.1837
55.5792
54.8832
54.1469
53.4088
52.6974
52.0334
51.4292
50.8907
50.4193
50.0134
49.6693
49.3824
49.1467
48.9571
48.8129
48.7048
48.622
48.5621
48.5224
48.4996
48.4906
48.4915
48.4983
48.5096
48.5131
43.9799
40.5414
36.3767
31.6817
26.413
20.5952
14.3607
7.94506
1.68267
-4.05526
-8.96284
-12.8735
-15.7733
-17.7567
-19.0646
-19.92
-20.4665
-20.8066
-21.0092
-20.9638
-20.7646
-20.7112
-20.8556
-21.1669
-21.6303
-22.2381
-22.9905
-23.8922
-24.9539
-26.196
-27.6211
-29.2204
-30.9805
-32.9108
57.0497
56.1332
54.3615
51.7328
49.0517
44.2324
57.3942
57.34
56.9868
56.4269
55.7353
54.974
54.1899
53.4188
52.6877
52.0136
51.4053
50.8664
50.3967
49.9937
49.6528
49.3683
49.1352
48.9547
48.8161
48.7058
48.6219
48.5615
48.5215
48.4991
48.4902
48.491
48.498
48.5098
48.5135
41.6459
37.8683
33.3263
28.2531
22.6092
16.443
9.93622
3.38566
-2.82567
-8.321
-12.8393
-16.2853
-18.7114
-20.2565
-21.1925
-21.7428
-22.039
-22.1717
-22.0371
-21.7714
-21.5988
-21.5842
-21.7776
-22.1472
-22.6781
-23.3622
-24.1996
-25.1956
-26.3613
-27.7179
-29.2692
-31.007
-32.917
-35.009
57.851
57.1894
55.7251
53.41
50.336
47.3178
41.9
57.9948
57.7749
57.2873
56.6218
55.8501
55.0294
54.2038
53.4076
52.6632
51.9833
51.3741
50.837
50.3707
49.9715
49.6336
49.3523
49.1314
48.959
48.8175
48.7058
48.621
48.5602
48.5211
48.4988
48.4896
48.4905
48.4977
48.5099
48.5139
39.0622
34.9367
30.0091
24.5513
18.5296
12.0267
5.28604
-1.3278
-7.39375
-12.5541
-16.6146
-19.5588
-21.4998
-22.6115
-23.1877
-23.447
-23.506
-23.2697
-22.8943
-22.6507
-22.5098
-22.536
-22.7818
-23.2144
-23.8184
-24.585
-25.5144
-26.6125
-27.8906
-29.3707
-31.0581
-32.9443
-35.0152
-37.2777
58.5767
58.1709
57.006
55.013
52.2553
48.7686
45.3444
39.3204
58.5248
58.1454
57.5307
56.7673
55.9222
55.0495
54.1919
53.3783
52.626
51.9443
51.3368
50.8035
50.3417
49.9461
49.612
49.3468
49.1371
48.9608
48.8175
48.7046
48.6192
48.56
48.521
48.4982
48.4888
48.4898
48.4974
48.5101
48.5143
36.2234
31.7436
26.4207
20.5693
14.168
7.34528
0.422676
-6.16607
-11.9829
-16.7183
-20.2631
-22.6801
-24.1338
-24.823
-25.0544
-25.0375
-24.6882
-24.1865
-23.827
-23.6101
-23.5025
-23.5726
-23.8752
-24.376
-25.059
-25.9147
-26.9437
-28.1521
-29.5515
-31.1646
-32.9978
-35.0433
-37.284
-40.1899
59.2208
59.0701
58.2085
56.5284
54.0936
50.9524
46.9909
43.126
36.4884
58.9803
58.449
57.7157
56.862
55.9521
55.0387
54.1584
53.3339
52.5783
51.898
51.2945
50.7665
50.3089
49.9177
49.6044
49.3542
49.1395
48.9608
48.816
48.7022
48.6193
48.5605
48.5207
48.4974
48.4879
48.4891
48.497
48.5103
48.5149
33.1291
28.287
22.5547
16.2985
9.51486
2.39822
-4.63545
-11.0933
-16.5515
-20.7793
-23.763
-25.6392
-26.6122
-26.8941
-26.7972
-26.3219
-25.677
-25.1828
-24.8432
-24.6549
-24.5833
-24.7011
-25.0651
-25.6397
-26.408
-27.3604
-28.4969
-29.8242
-31.3541
-33.1098
-35.0994
-37.313
-40.1964
-43.6923
59.7782
59.8784
59.3249
57.9625
55.8405
53.0412
49.4621
44.9924
40.6637
33.4042
59.3579
58.6836
57.8401
56.9059
55.9445
55.0017
54.1066
53.2768
52.5219
51.8458
51.2482
50.7248
50.2724
49.9074
49.6137
49.3572
49.1394
48.9588
48.8126
48.7027
48.6208
48.5607
48.52
48.4963
48.4868
48.4883
48.4967
48.5106
48.5155
29.7797
24.5627
18.4023
11.7233
4.55693
-2.81122
-9.86219
-16.0671
-21.0569
-24.7054
-27.0968
-28.4306
-28.9359
-28.829
-28.2079
-27.3981
-26.7501
-26.2666
-25.9485
-25.7913
-25.7591
-25.9287
-26.3593
-27.0137
-27.8744
-28.9311
-30.1836
-31.639
-33.3089
-35.2174
-37.3719
-40.226
-43.6986
-47.2488
60.2449
60.5878
60.3456
59.3078
57.5022
55.0336
51.8184
47.7704
42.7735
37.9647
30.0693
59.6549
58.8466
57.9038
56.9049
55.9055
54.9428
54.0396
53.2093
52.4585
51.7888
51.1963
50.6787
50.2589
49.9192
49.6175
49.3571
49.1369
48.9544
48.8139
48.7057
48.6218
48.5603
48.5189
48.495
48.4856
48.4873
48.4962
48.5109
48.5162
26.1741
20.5642
13.9466
6.82388
-0.713696
-8.26756
-15.22
-21.0396
-25.4568
-28.4691
-30.2525
-31.0518
-31.108
-30.3981
-29.3919
-28.5643
-27.9152
-27.4438
-27.1493
-27.0265
-27.0374
-27.2633
-27.7659
-28.5069
-29.4674
-30.6367
-32.0142
-33.6069
-35.4268
-37.4966
-40.2889
-43.7291
-47.2548
-50.8482
60.6179
61.1911
61.2611
60.5533
59.0714
56.9348
54.0756
50.4062
45.8785
40.343
35.0397
26.4838
59.8677
58.9374
57.9136
56.866
55.8401
54.8656
53.9602
53.1335
52.3895
51.7252
51.139
50.6614
50.2735
49.9238
49.6174
49.354
49.1312
48.9567
48.819
48.708
48.6222
48.5595
48.5175
48.4933
48.4841
48.4862
48.4957
48.5113
48.517
22.3084
16.2794
9.16435
1.57704
-6.30395
-13.9462
-20.6592
-25.9584
-29.7111
-32.0488
-33.2224
-33.5039
-32.8721
-31.717
-30.673
-29.8281
-29.1785
-28.7209
-28.4528
-28.3678
-28.4258
-28.7129
-29.2937
-30.1282
-31.1965
-32.4872
-33.999
-35.7388
-37.7171
-40.4218
-43.7954
-47.2864
-50.854
-54.4794
60.8926
61.6826
62.0613
61.6883
60.5372
58.7361
56.2369
52.9399
48.8049
43.7962
37.7163
31.8992
22.6451
59.9947
58.9635
57.8779
56.7955
55.7529
54.7736
53.8708
53.0511
52.3127
51.6551
51.1172
50.6794
50.2792
49.9237
49.6136
49.3466
49.1348
48.9645
48.8231
48.7095
48.6219
48.5582
48.5157
48.4914
48.4823
48.485
48.4952
48.5117
48.5179
18.1741
11.6805
4.01448
-4.05504
-12.2231
-19.8157
-26.1214
-30.7689
-33.7848
-35.4282
-36.0031
-35.4971
-34.3558
-33.1421
-32.0585
-31.1961
-30.5469
-30.105
-29.8664
-29.8229
-29.9323
-30.286
-30.9515
-31.8871
-33.0716
-34.4927
-36.1485
-38.0438
-40.6561
-43.9384
-47.3564
-50.8865
-54.485
-58.1254
61.0661
62.0556
62.7366
62.7016
61.889
60.426
58.2931
55.3727
51.6247
47.0243
41.5419
34.9118
28.5528
18.5503
60.0444
58.9352
57.8042
56.6988
55.6479
54.6697
53.7737
52.9596
52.228
51.6281
51.1392
50.6862
50.2791
49.919
49.6042
49.352
49.1462
48.9711
48.8261
48.7101
48.621
48.5564
48.5134
48.4891
48.4803
48.4836
48.4946
48.5122
48.5189
13.7485
6.72398
-1.5598
-10.1124
-18.469
-25.8285
-31.5424
-35.4189
-37.6493
-38.5973
-38.2646
-37.1734
-35.9566
-34.6804
-33.5557
-32.6753
-32.0276
-31.6036
-31.3974
-31.3995
-31.5652
-31.9912
-32.7484
-33.793
-35.1025
-36.6637
-38.472
-41.0014
-44.1904
-47.5099
-50.9601
-54.518
-58.1306
-61.7676
61.148
62.3049
63.2746
63.5817
63.1148
61.9933
60.2312
57.6964
54.3359
50.1388
45.0835
39.138
31.9485
25.0137
14.1882
60.0288
58.8613
57.6992
56.5808
55.5288
54.5567
53.6659
52.8585
52.1952
51.6548
51.1474
50.6862
50.2734
49.9072
49.6117
49.3679
49.1561
48.9763
48.8282
48.71
48.6194
48.5539
48.5106
48.4863
48.4781
48.4821
48.494
48.5127
48.5199
8.99858
1.35582
-7.61848
-16.6289
-25.0141
-31.9189
-36.8522
-39.86
-41.2822
-41.1753
-40.1652
-38.9798
-37.6812
-36.3393
-35.1714
-34.2728
-33.6277
-33.224
-33.0535
-33.1054
-33.3326
-33.8371
-34.6934
-35.8555
-37.2992
-39.0087
-41.4525
-44.5578
-47.7787
-51.124
-54.595
-58.164
-61.7724
-65.3881
61.1522
62.4415
63.6619
64.3122
64.2025
63.4254
62.0383
59.8982
56.9325
53.1325
48.5011
43.0069
36.6087
28.8449
21.2888
9.53367
59.9587
58.7498
57.5686
56.4458
55.3987
54.4312
53.5467
52.819
52.2272
51.6644
51.1473
50.6793
50.2587
49.9174
49.6333
49.3819
49.1641
48.9803
48.8292
48.7088
48.6169
48.5507
48.5072
48.4832
48.4755
48.4804
48.4934
48.5132
48.521
3.87485
-4.5023
-14.2391
-23.6157
-31.8123
-37.9996
-41.9825
-44.0495
-44.2392
-43.3393
-42.2105
-40.9222
-39.5371
-38.1258
-36.9126
-35.9957
-35.3544
-34.9733
-34.8422
-34.9486
-35.2427
-35.8324
-36.7955
-38.0838
-39.6696
-42.0153
-45.0337
-48.1655
-51.409
-54.7693
-58.2442
-61.8059
-65.3925
-68.9691
61.0912
62.4827
63.9063
64.8721
65.1313
64.7102
63.699
61.965
59.4038
56.0039
51.7799
46.7367
40.8215
33.9778
25.6208
17.3759
4.54971
59.8435
58.6076
57.4177
56.2979
55.2542
54.2921
53.4998
52.8573
52.2386
51.6644
51.1391
50.6612
50.2722
49.9459
49.6524
49.3936
49.1707
48.983
48.8289
48.7066
48.6135
48.5467
48.5032
48.4796
48.4727
48.4787
48.4927
48.5138
48.5222
-1.7002
-10.9711
-21.4913
-31.087
-38.7676
-43.9833
-46.8593
-47.4605
-46.7169
-45.6649
-44.4056
-43.0076
-41.5305
-40.0461
-38.7859
-37.8506
-37.2145
-36.8587
-36.7706
-36.9364
-37.3034
-37.9851
-39.0631
-40.485
-42.7063
-45.6233
-48.6616
-51.8127
-55.0692
-58.4284
-61.889
-65.4259
-68.973
-72.4921
60.9763
62.444
64.0267
65.2648
65.8733
65.8255
65.1985
63.8805
61.7382
58.745
54.9248
50.3026
44.8739
38.555
31.2692
22.2993
13.2734
-0.814331
59.6915
58.4412
57.2513
56.1333
55.0936
54.2371
53.5452
52.8705
52.2385
51.6547
51.117
50.6785
50.3088
49.9713
49.6688
49.4036
49.1757
48.9841
48.8273
48.7031
48.609
48.5419
48.4985
48.4756
48.4698
48.4769
48.4921
48.5144
48.5234
-7.84989
-18.199
-29.5039
-38.954
-45.8104
-49.7292
-50.8454
-50.3112
-49.3739
-48.1553
-46.7558
-45.2407
-43.6665
-42.1059
-40.797
-39.8435
-39.2142
-38.8867
-38.8455
-39.0757
-39.5217
-40.3027
-41.5023
-43.5577
-46.3441
-49.2712
-52.3243
-55.4865
-58.741
-62.0823
-65.5114
-69.0061
-72.4954
-75.9394
60.8174
62.3393
64.0423
65.508
66.4277
66.7383
66.5103
65.6266
63.9198
61.3471
57.9313
53.7182
48.7289
42.9419
36.2353
28.5092
18.9041
8.97303
-6.63556
59.5104
58.2563
57.0656
55.9495
55.0296
54.2905
53.5604
52.8705
52.2272
51.628
51.1389
50.7249
50.3417
49.9933
49.683
49.4116
49.1787
48.9834
48.8241
48.6984
48.6034
48.5362
48.4933
48.4714
48.4667
48.475
48.4914
48.515
48.5247
-14.7596
-26.5186
-38.1636
-47.2955
-52.6498
-54.4527
-54.1728
-53.3592
-52.2086
-50.8125
-49.2632
-47.6243
-45.9487
-44.3093
-42.9508
-41.9796
-41.3591
-41.0628
-41.0729
-41.3728
-41.9041
-42.7905
-44.6189
-47.2305
-50.013
-52.9475
-56.0081
-59.1676
-62.4049
-65.7127
-69.0935
-72.5279
-75.9421
-79.2936
60.6234
62.1807
63.9706
65.6195
66.8126
67.4457
67.5941
67.1712
65.9307
63.7971
60.7957
56.9833
52.4118
47.0883
40.9698
33.8918
25.7235
15.4576
4.4667
-12.9954
59.307
58.0489
56.8573
55.8758
55.0921
54.308
53.5604
52.8573
52.1951
51.6551
51.1967
50.7667
50.3706
50.0128
49.6948
49.4172
49.1795
48.9808
48.8192
48.6921
48.5966
48.5297
48.4878
48.467
48.4635
48.473
48.4907
48.5157
48.526
-22.855
-35.906
-47.9811
-55.4342
-58.3625
-58.3831
-57.7172
-56.6007
-55.2163
-53.6336
-51.9267
-50.1587
-48.3786
-46.6588
-45.2505
-44.2628
-43.6534
-43.3917
-43.4574
-43.8323
-44.4546
-45.9623
-48.3341
-50.9237
-53.7026
-56.6384
-59.6933
-62.8359
-66.0417
-69.3007
-72.6166
-75.9733
-79.2958
-82.5384
60.4027
61.9791
63.8277
65.6171
67.0458
67.9666
68.4452
68.4621
67.7343
66.0787
63.5086
60.1001
55.9273
51.035
45.4104
38.987
31.5514
22.9392
11.9966
-0.211476
-20.024
59.0776
57.815
56.7731
55.9486
55.112
54.308
53.5452
52.819
52.2281
51.7258
51.2487
50.8036
50.3964
50.0294
49.7038
49.42
49.1779
48.976
48.8122
48.6842
48.5887
48.5226
48.4818
48.4623
48.4601
48.471
48.49
48.5164
48.5274
-32.3939
-48.1737
-57.2838
-62.593
-63.0872
-62.5288
-61.4611
-60.025
-58.3869
-56.6101
-54.7416
-52.8411
-50.9551
-49.155
-47.6976
-46.6953
-46.0997
-45.8764
-46.0022
-46.4568
-47.6971
-49.7301
-52.0567
-54.6281
-57.3991
-60.3239
-63.36
-66.4722
-69.6321
-72.8272
-76.0626
-79.3252
-82.5401
-85.6582
60.1518
61.7439
63.6282
65.5183
67.1451
68.3195
69.0861
69.4868
69.267
68.1539
66.0577
63.0645
59.2845
54.7921
49.6168
43.7244
37.0188
29.2428
20.1993
8.57013
-5.00051
-27.829
58.8171
57.7196
56.8574
55.9712
55.1121
54.2905
53.4998
52.8587
52.3136
51.7896
51.295
50.837
50.4187
50.0424