/*--------------------------------*- C++ -*----------------------------------*\
  =========                 |
  \\      /  F ield         | OpenFOAM: The Open Source CFD Toolbox
   \\    /   O peration     | Website:  https://openfoam.org
    \\  /    A nd           | Version:  8
     \\/     M anipulation  |
\*---------------------------------------------------------------------------*/
FoamFile
{
    version     2.0;
    format      ascii;
    class       volVectorField;
    location    "600";
    object      U;
}
// * * * * * * * * * * * * * * * * * * * * * * * * * * * * * * * * * * * * * //

dimensions      [0 1 -1 0 0 0 0];

internalField   nonuniform List<vector> 
15677
(
(-2.53854 9.06393 0)
(0.792669 10.3668 0)
(-1.33223 8.26481 0)
(0.12882 10.0152 0)
(0.667037 10.1117 0)
(-0.415142 7.73396 0)
(0.00637951 10.0051 0)
(-0.0361337 10.0874 0)
(0.294849 9.68004 0)
(-0.08474 7.35025 0)
(0.0282767 10.0104 0)
(0.0130656 10.0516 0)
(-0.0470593 10.0468 0)
(0.0986643 9.2914 0)
(-0.0029417 7.07927 0)
(0.0300748 10.0104 0)
(0.0455304 10.0449 0)
(0.0452258 10.0707 0)
(-0.00452413 9.9402 0)
(0.0303617 8.97559 0)
(0.00795271 6.89107 0)
(0.0275125 10.0096 0)
(0.0398339 10.0408 0)
(0.0439806 10.063 0)
(0.050829 10.0624 0)
(0.0199824 9.80232 0)
(0.0125955 8.71977 0)
(0.00556746 6.75897 0)
(0.0251551 10.0086 0)
(0.0369574 10.0374 0)
(0.0376662 10.0572 0)
(0.0383913 10.0713 0)
(0.0421281 10.0341 0)
(0.0253056 9.65306 0)
(0.00873385 8.51563 0)
(0.00296136 6.66315 0)
(0.0229535 10.0075 0)
(0.0352628 10.0344 0)
(0.0368643 10.0531 0)
(0.0371741 10.0681 0)
(0.0346535 10.0733 0)
(0.0338995 9.9922 0)
(0.0228913 9.50789 0)
(0.00728362 8.35761 0)
(0.00157322 6.59516 0)
(0.0206736 10.0065 0)
(0.0333668 10.0314 0)
(0.0358025 10.0496 0)
(0.0368864 10.0643 0)
(0.0357096 10.0772 0)
(0.0322918 10.069 0)
(0.0285512 9.9415 0)
(0.0188168 9.37481 0)
(0.00589939 8.23743 0)
(0.000837431 6.54638 0)
(0.0183298 10.0054 0)
(0.0312249 10.0282 0)
(0.0343269 10.0462 0)
(0.0356782 10.0607 0)
(0.0349794 10.0751 0)
(0.0331502 10.0835 0)
(0.0298585 10.0598 0)
(0.0246283 9.88734 0)
(0.0149199 9.25805 0)
(0.00440234 8.14802 0)
(0.000244973 6.51646 0)
(0.015983 10.0044 0)
(0.0289109 10.025 0)
(0.032652 10.0428 0)
(0.0342664 10.0573 0)
(0.0337312 10.0718 0)
(0.032183 10.0846 0)
(0.0301306 10.0879 0)
(0.0268938 10.0486 0)
(0.0210308 9.8331 0)
(0.0114203 9.16225 0)
(0.00280087 8.08386 0)
(-0.000284329 6.50397 0)
(0.0136865 10.0036 0)
(0.0264458 10.0217 0)
(0.0307739 10.0393 0)
(0.0327006 10.0539 0)
(0.0323538 10.0685 0)
(0.0309546 10.0824 0)
(0.029149 10.0937 0)
(0.0268123 10.0921 0)
(0.0234268 10.0372 0)
(0.0172794 9.78245 0)
(0.00809835 9.08748 0)
(0.00116973 8.04124 0)
(-0.000742797 6.50548 0)
(0.0115028 10.0028 0)
(0.0238585 10.0185 0)
(0.0286626 10.0355 0)
(0.0309146 10.0503 0)
(0.0307735 10.065 0)
(0.0294863 10.0794 0)
(0.0278096 10.0933 0)
(0.0257568 10.1037 0)
(0.0231258 10.0973 0)
(0.0194952 10.0274 0)
(0.0132286 9.73827 0)
(0.00483877 9.03314 0)
(-0.000446612 8.01968 0)
(-0.00122215 6.51928 0)
(0.00964654 10.0022 0)
(0.0211856 10.0154 0)
(0.0263171 10.0315 0)
(0.0288719 10.0465 0)
(0.0289542 10.0614 0)
(0.0277519 10.076 0)
(0.0260958 10.0909 0)
(0.0241387 10.1056 0)
(0.0218122 10.1154 0)
(0.01892 10.1048 0)
(0.0150691 10.0209 0)
(0.00886383 9.70357 0)
(0.0015236 8.99887 0)
(-0.00214958 8.01773 0)
(-0.00179133 6.54613 0)
(0.00815362 10.0017 0)
(0.01871 10.0128 0)
(0.023766 10.0275 0)
(0.0265503 10.0424 0)
(0.0268727 10.0574 0)
(0.0257491 10.0724 0)
(0.0240524 10.0878 0)
(0.0220362 10.1041 0)
(0.0197558 10.12 0)
(0.0171439 10.1298 0)
(0.0140329 10.1157 0)
(0.0100814 10.0194 0)
(0.00414433 9.68038 0)
(-0.00197305 8.98428 0)
(-0.00403992 8.03426 0)
(-0.00244881 6.58643 0)
(0.0069209 10.0014 0)
(0.0165441 10.0107 0)
(0.0212999 10.0239 0)
(0.0239495 10.038 0)
(0.0245012 10.0531 0)
(0.0234584 10.0684 0)
(0.0216884 10.0841 0)
(0.0195228 10.1012 0)
(0.0171074 10.1197 0)
(0.014479 10.1374 0)
(0.0115894 10.1478 0)
(0.0083529 10.1314 0)
(0.00444418 10.0244 0)
(-0.00100752 9.67065 0)
(-0.00573804 8.9888 0)
(-0.00615056 8.06786 0)
(-0.00318742 6.6405 0)
(0.00589467 10.0011 0)
(0.0146037 10.0091 0)
(0.0190683 10.0209 0)
(0.0213686 10.0338 0)
(0.0218208 10.0484 0)
(0.0208527 10.0639 0)
(0.0189869 10.0801 0)
(0.0166101 10.0977 0)
(0.0139418 10.1172 0)
(0.0110989 10.1383 0)
(0.00812009 10.1586 0)
(0.00502879 10.1706 0)
(0.00177394 10.1528 0)
(-0.00193723 10.0376 0)
(-0.00665704 9.6753 0)
(-0.0098091 9.0117 0)
(-0.00848111 8.11831 0)
(-0.00399574 6.7082 0)
(0.0050342 10.0009 0)
(0.012866 10.0077 0)
(0.0170066 10.0183 0)
(0.0189994 10.0302 0)
(0.0191205 10.0438 0)
(0.0179114 10.059 0)
(0.0159251 10.0755 0)
(0.0132866 10.0935 0)
(0.0102725 10.1136 0)
(0.00707012 10.1363 0)
(0.0037883 10.1609 0)
(0.000522275 10.1845 0)
(-0.00267289 10.199 0)
(-0.00581935 10.1811 0)
(-0.0091354 10.0603 0)
(-0.0128414 9.69536 0)
(-0.0142206 9.05239 0)
(-0.0110066 8.18471 0)
(-0.00486479 6.78923 0)
(0.00430887 10.0007 0)
(0.0113101 10.0066 0)
(0.0151085 10.0161 0)
(0.0167843 10.0271 0)
(0.0166115 10.0396 0)
(0.0149424 10.054 0)
(0.0124877 10.0702 0)
(0.00953605 10.0886 0)
(0.00609261 10.1093 0)
(0.00240638 10.1328 0)
(-0.00134861 10.1594 0)
(-0.00501952 10.1882 0)
(-0.00848172 10.216 0)
(-0.0116563 10.2341 0)
(-0.0145213 10.2175 0)
(-0.0171859 10.0937 0)
(-0.0195769 9.731 0)
(-0.0189733 9.11026 0)
(-0.0137254 8.26668 0)
(-0.00578261 6.88317 0)
(0.00369586 10.0006 0)
(0.00991747 10.0057 0)
(0.0133665 10.0142 0)
(0.0147262 10.0242 0)
(0.0142461 10.0359 0)
(0.012178 10.0493 0)
(0.0090334 10.0648 0)
(0.00535165 10.083 0)
(0.00139177 10.104 0)
(-0.00289792 10.1281 0)
(-0.00728181 10.1558 0)
(-0.0115508 10.1872 0)
(-0.0155245 10.2211 0)
(-0.0190565 10.254 0)
(-0.0220368 10.2766 0)
(-0.0243797 10.2627 0)
(-0.0260958 10.1386 0)
(-0.0268549 9.78252 0)
(-0.0240659 9.18472 0)
(-0.0166202 8.36343 0)
(-0.00673268 6.98934 0)
(0.0031946 10.0005 0)
(0.00867307 10.0049 0)
(0.0117731 10.0126 0)
(0.0128248 10.0217 0)
(0.0120385 10.0324 0)
(0.00957246 10.045 0)
(0.00582959 10.0596 0)
(0.00117355 10.077 0)
(-0.00382561 10.0978 0)
(-0.00884871 10.1224 0)
(-0.0140198 10.1508 0)
(-0.0190736 10.1835 0)
(-0.0237734 10.2205 0)
(-0.0279192 10.2603 0)
(-0.0313379 10.2992 0)
(-0.0338774 10.3274 0)
(-0.0354037 10.3174 0)
(-0.0358467 10.1958 0)
(-0.034661 9.84965 0)
(-0.0294785 9.27496 0)
(-0.0196751 8.47432 0)
(-0.007701 7.10691 0)
(0.00279804 10.0004 0)
(0.00760998 10.0042 0)
(0.0103219 10.0111 0)
(0.011078 10.0194 0)
(0.00999683 10.0293 0)
(0.00714758 10.0408 0)
(0.0028254 10.0546 0)
(-0.00267921 10.0711 0)
(-0.00900372 10.091 0)
(-0.0154288 10.1154 0)
(-0.0215659 10.1444 0)
(-0.0276041 10.178 0)
(-0.0332486 10.2166 0)
(-0.0382418 10.26 0)
(-0.0423624 10.3067 0)
(-0.0454059 10.3525 0)
(-0.0471965 10.3871 0)
(-0.047575 10.3824 0)
(-0.0463914 10.2654 0)
(-0.0429547 9.93199 0)
(-0.0351711 9.38014 0)
(-0.0228527 8.5984 0)
(-0.00867713 7.23489 0)
(0.00248264 10.0003 0)
(0.00674278 10.0038 0)
(0.00906045 10.0099 0)
(0.00948333 10.0174 0)
(0.00812577 10.0264 0)
(0.00491858 10.037 0)
(4.94956e-05 10.0497 0)
(-0.0062678 10.0652 0)
(-0.0137507 10.0842 0)
(-0.0219286 10.1076 0)
(-0.0298895 10.1364 0)
(-0.0371456 10.1707 0)
(-0.043978 10.2105 0)
(-0.0500693 10.2559 0)
(-0.0551442 10.3066 0)
(-0.0589566 10.3608 0)
(-0.061292 10.4142 0)
(-0.061975 10.4562 0)
(-0.0608322 10.4579 0)
(-0.0576593 10.3477 0)
(-0.0516827 10.0288 0)
(-0.0410922 9.49909 0)
(-0.0261139 8.7345 0)
(-0.00965051 7.37216 0)
(0.00222834 10.0003 0)
(0.00603599 10.0034 0)
(0.0080149 10.0089 0)
(0.00809886 10.0156 0)
(0.00642774 10.0237 0)
(0.00289574 10.0334 0)
(-0.00247599 10.0451 0)
(-0.00955588 10.0594 0)
(-0.0181432 10.0773 0)
(-0.0278584 10.0997 0)
(-0.0380845 10.1274 0)
(-0.0476532 10.1615 0)
(-0.0559687 10.2021 0)
(-0.0634485 10.2489 0)
(-0.0697583 10.3021 0)
(-0.0746079 10.3608 0)
(-0.0777495 10.4233 0)
(-0.0789813 10.485 0)
(-0.0781481 10.5349 0)
(-0.0750891 10.5441 0)
(-0.0695522 10.4424 0)
(-0.060748 10.1392 0)
(-0.0471973 9.63077 0)
(-0.0294252 8.8814 0)
(-0.0106104 7.51751 0)
(0.00202061 10.0003 0)
(0.00545525 10.0031 0)
(0.00715064 10.0081 0)
(0.00695731 10.0141 0)
(0.00496859 10.0213 0)
(0.00108586 10.03 0)
(-0.00473491 10.0406 0)
(-0.0125134 10.0538 0)
(-0.0221357 10.0704 0)
(-0.0333157 10.0915 0)
(-0.0455346 10.118 0)
(-0.0579765 10.1509 0)
(-0.0691619 10.1914 0)
(-0.0783933 10.2393 0)
(-0.0862769 10.2942 0)
(-0.0924747 10.3557 0)
(-0.0967003 10.4233 0)
(-0.0987302 10.4947 0)
(-0.0984045 10.5652 0)
(-0.0956099 10.6235 0)
(-0.0902227 10.6408 0)
(-0.0819681 10.5489 0)
(-0.0700686 10.2622 0)
(-0.0534119 9.77393 0)
(-0.0327542 9.03775 0)
(-0.0115438 7.66963 0)
(0.00184902 10.0002 0)
(0.00497434 10.0028 0)
(0.00643241 10.0074 0)
(0.00602062 10.0129 0)
(0.00378251 10.0193 0)
(-0.00043957 10.0269 0)
(-0.00671583 10.0363 0)
(-0.0151172 10.0483 0)
(-0.0256886 10.0635 0)
(-0.0382431 10.0831 0)
(-0.0523638 10.1081 0)
(-0.0673399 10.1397 0)
(-0.0821088 10.1788 0)
(-0.0948334 10.2267 0)
(-0.104729 10.283 0)
(-0.11266 10.3467 0)
(-0.118307 10.4175 0)
(-0.121417 10.4944 0)
(-0.121828 10.5752 0)
(-0.119446 10.6548 0)
(-0.114222 10.7219 0)
(-0.106083 10.7479 0)
(-0.0947755 10.6666 0)
(-0.0795628 10.3964 0)
(-0.0596656 9.92712 0)
(-0.0360638 9.20215 0)
(-0.0124418 7.82723 0)
(0.00170592 10.0002 0)
(0.00457322 10.0026 0)
(0.00583231 10.0069 0)
(0.00524899 10.0119 0)
(0.00282568 10.0176 0)
(-0.00165001 10.0243 0)
(-0.00834004 10.0324 0)
(-0.0173501 10.0429 0)
(-0.0287703 10.0566 0)
(-0.0425893 10.0746 0)
(-0.0584998 10.0979 0)
(-0.0759007 10.1278 0)
(-0.0938378 10.1655 0)
(-0.110962 10.2119 0)
(-0.125032 10.2683 0)
(-0.135215 10.3339 0)
(-0.142717 10.4072 0)
(-0.147269 10.4878 0)
(-0.148694 10.5746 0)
(-0.146917 10.6649 0)
(-0.141937 10.7538 0)
(-0.133799 10.8299 0)
(-0.122507 10.8647 0)
(-0.107833 10.7945 0)
(-0.0891231 10.5406 0)
(-0.0658924 10.0889 0)
(-0.0393198 9.37314 0)
(-0.0132907 7.98893 0)
(0.00158556 10.0002 0)
(0.00423639 10.0024 0)
(0.00532826 10.0064 0)
(0.00461071 10.011 0)
(0.00205256 10.0162 0)
(-0.00259873 10.022 0)
(-0.00958416 10.029 0)
(-0.0191234 10.0379 0)
(-0.0313563 10.0499 0)
(-0.0463118 10.066 0)
(-0.063876 10.0874 0)
(-0.083568 10.1154 0)
(-0.104548 10.1512 0)
(-0.125568 10.196 0)
(-0.14496 10.2508 0)
(-0.160056 10.3166 0)
(-0.170013 10.3924 0)
(-0.176481 10.4761 0)
(-0.179291 10.567 0)
(-0.178379 10.6639 0)
(-0.173798 10.7639 0)
(-0.16567 10.862 0)
(-0.154139 10.9469 0)
(-0.139315 10.9906 0)
(-0.121007 10.9315 0)
(-0.0986474 10.6935 0)
(-0.0720307 10.2577 0)
(-0.042485 9.54922 0)
(-0.0140994 8.15353 0)
(0.00148359 10.0002 0)
(0.00395175 10.0023 0)
(0.00490271 10.006 0)
(0.00408047 10.0103 0)
(0.00142658 10.0149 0)
(-0.00333973 10.0201 0)
(-0.010517 10.0261 0)
(-0.020424 10.0335 0)
(-0.033344 10.0435 0)
(-0.0493769 10.0575 0)
(-0.0684364 10.0768 0)
(-0.0902562 10.1025 0)
(-0.114123 10.136 0)
(-0.138902 10.1787 0)
(-0.16302 10.2318 0)
(-0.184466 10.296 0)
(-0.200108 10.3724 0)
(-0.209168 10.4591 0)
(-0.213876 10.5537 0)
(-0.214209 10.6553 0)
(-0.210261 10.7623 0)
(-0.202234 10.872 0)
(-0.190404 10.9791 0)
(-0.175028 11.0724 0)
(-0.156324 11.1247 0)
(-0.134157 11.0766 0)
(-0.10804 10.8535 0)
(-0.078015 10.4321 0)
(-0.0455441 9.72909 0)
(-0.0148217 8.31956 0)
(0.00139665 10.0002 0)
(0.00370982 10.0022 0)
(0.00454168 10.0057 0)
(0.00363807 10.0096 0)
(0.000918513 10.0139 0)
(-0.00391647 10.0184 0)
(-0.0112061 10.0235 0)
(-0.0213428 10.0297 0)
(-0.0347335 10.0379 0)
(-0.0516625 10.0495 0)
(-0.072135 10.0661 0)
(-0.0958918 10.0892 0)
(-0.122456 10.1201 0)
(-0.150823 10.1603 0)
(-0.179522 10.2111 0)
(-0.206613 10.2736 0)
(-0.229723 10.3483 0)
(-0.245264 10.4361 0)
(-0.252625 10.5344 0)
(-0.254742 10.6403 0)
(-0.251798 10.7527 0)
(-0.244073 10.8698 0)
(-0.231957 10.9887 0)
(-0.215878 11.1044 0)
(-0.196235 11.2056 0)
(-0.173352 11.2661 0)
(-0.147152 11.2284 0)
(-0.117207 11.0193 0)
(-0.0838056 10.6108 0)
(-0.0484159 9.91103 0)
(-0.0156795 8.50505 0)
(0.0013221 10.0002 0)
(0.0035031 10.002 0)
(0.00423394 10.0054 0)
(0.00326734 10.0091 0)
(0.000505006 10.013 0)
(-0.00436372 10.017 0)
(-0.0117059 10.0213 0)
(-0.0219667 10.0263 0)
(-0.0356456 10.0329 0)
(-0.0531849 10.0422 0)
(-0.0748237 10.0558 0)
(-0.100413 10.0758 0)
(-0.129451 10.1038 0)
(-0.16119 10.1409 0)
(-0.194285 10.1889 0)
(-0.226882 10.2489 0)
(-0.256647 10.3219 0)
(-0.280864 10.4081 0)
(-0.2955 10.508 0)
(-0.300227 10.6186 0)
(-0.298835 10.736 0)
(-0.291757 10.859 0)
(-0.279497 10.9859 0)
(-0.26265 11.1137 0)
(-0.241817 11.2373 0)
(-0.217529 11.3458 0)
(-0.190219 11.4137 0)
(-0.15986 11.3856 0)
(-0.126079 11.1894 0)
(-0.0893065 10.7919 0)
(-0.0515347 10.1151 0)
(-0.0165234 8.70879 0)
(0.00125784 10.0001 0)
(0.0033256 10.002 0)
(0.00397051 10.0051 0)
(0.00295531 10.0086 0)
(0.000167458 10.0122 0)
(-0.00470914 10.0157 0)
(-0.0120594 10.0193 0)
(-0.0223654 10.0234 0)
(-0.036193 10.0286 0)
(-0.0541036 10.0358 0)
(-0.0765374 10.0466 0)
(-0.103637 10.0629 0)
(-0.135024 10.087 0)
(-0.16988 10.1208 0)
(-0.207137 10.1654 0)
(-0.245052 10.2223 0)
(-0.281349 10.2928 0)
(-0.313308 10.3773 0)
(-0.337896 10.4759 0)
(-0.350665 10.5887 0)
(-0.351706 10.7117 0)
(-0.345811 10.8406 0)
(-0.333711 10.974 0)
(-0.316164 11.1102 0)
(-0.293982 11.2462 0)
(-0.267941 11.3769 0)
(-0.238686 11.4918 0)
(-0.206758 11.5664 0)
(-0.17218 11.5471 0)
(-0.134547 11.3623 0)
(-0.0951262 10.9955 0)
(-0.0547253 10.3399 0)
(-0.0172157 8.90941 0)
(0.00120204 10.0001 0)
(0.00317251 10.0019 0)
(0.00374412 10.0049 0)
(0.00269156 10.0082 0)
(-0.000108956 10.0115 0)
(-0.00497468 10.0146 0)
(-0.0123009 10.0177 0)
(-0.022594 10.0209 0)
(-0.036466 10.0247 0)
(-0.0545651 10.0302 0)
(-0.0774845 10.0384 0)
(-0.105619 10.0512 0)
(-0.138949 10.0708 0)
(-0.176786 10.1001 0)
(-0.217921 10.1408 0)
(-0.260907 10.194 0)
(-0.303557 10.2612 0)
(-0.343165 10.3432 0)
(-0.376646 10.4404 0)
(-0.400683 10.5521 0)
(-0.410474 10.6781 0)
(-0.406682 10.8137 0)
(-0.395252 10.9539 0)
(-0.377242 11.0973 0)
(-0.353687 11.2421 0)
(-0.325618 11.3854 0)
(-0.293973 11.5223 0)
(-0.259499 11.6428 0)
(-0.222828 11.7231 0)
(-0.18398 11.7114 0)
(-0.143506 11.557 0)
(-0.101173 11.2203 0)
(-0.0575544 10.5617 0)
(-0.0177875 9.10494 0)
(0.00115377 10.0001 0)
(0.00303955 10.0018 0)
(0.0035489 10.0047 0)
(0.00246778 10.0078 0)
(-0.000336056 10.0109 0)
(-0.00517766 10.0137 0)
(-0.0124573 10.0162 0)
(-0.0226958 10.0186 0)
(-0.0365357 10.0214 0)
(-0.0546864 10.0252 0)
(-0.0778543 10.0311 0)
(-0.106628 10.0407 0)
(-0.141302 10.0561 0)
(-0.181619 10.08 0)
(-0.226495 10.1154 0)
(-0.274248 10.1643 0)
(-0.323003 10.2274 0)
(-0.37011 10.3061 0)
(-0.412438 10.4008 0)
(-0.446555 10.5114 0)
(-0.468945 10.6368 0)
(-0.474525 10.7764 0)
(-0.464691 10.9245 0)
(-0.446678 11.0755 0)
(-0.421901 11.2282 0)
(-0.391669 11.3808 0)
(-0.357228 11.5305 0)
(-0.319654 11.6727 0)
(-0.279783 11.7977 0)
(-0.238273 11.8824 0)
(-0.196504 11.8966 0)
(-0.152813 11.7725 0)
(-0.106638 11.4427 0)
(-0.0600564 10.7785 0)
(-0.0182603 9.29372 0)
(0.00292369 10.0018 0)
(0.0010953 10.0001 0)
(0.00337928 10.0046 0)
(0.00227735 10.0075 0)
(-0.000523147 10.0104 0)
(-0.0053318 10.0128 0)
(-0.0125495 10.0149 0)
(-0.0227048 10.0166 0)
(-0.0364581 10.0184 0)
(-0.0545601 10.0208 0)
(-0.0777983 10.0247 0)
(-0.106907 10.0314 0)
(-0.142424 10.0429 0)
(-0.184477 10.0616 0)
(-0.232494 10.0906 0)
(-0.284892 10.1335 0)
(-0.33944 10.1918 0)
(-0.393813 10.2662 0)
(-0.44488 10.3575 0)
(-0.489102 10.466 0)
(-0.522771 10.5909 0)
(-0.542263 10.7304 0)
(-0.542305 10.8836 0)
(-0.52519 11.0437 0)
(-0.499568 11.205 0)
(-0.467218 11.3661 0)
(-0.429714 11.5255 0)
(-0.388494 11.6805 0)
(-0.34475 11.8269 0)
(-0.299345 11.9551 0)
(-0.254725 12.0621 0)
(-0.209478 12.1019 0)
(-0.161271 11.986 0)
(-0.111526 11.6605 0)
(-0.0622541 10.9884 0)
(-0.0186442 9.47489 0)
(0.00322923 10.0044 0)
(0.00278688 10.0017 0)
(0.00102362 10.0001 0)
(0.00211398 10.0073 0)
(-0.000677392 10.0099 0)
(-0.0054477 10.0121 0)
(-0.0125942 10.0138 0)
(-0.0226471 10.0149 0)
(-0.0362764 10.0158 0)
(-0.0542582 10.0169 0)
(-0.0774359 10.019 0)
(-0.10665 10.0232 0)
(-0.142624 10.0311 0)
(-0.185787 10.045 0)
(-0.236031 10.0679 0)
(-0.292374 10.1032 0)
(-0.352632 10.1547 0)
(-0.413965 10.2239 0)
(-0.473573 10.3108 0)
(-0.527858 10.4161 0)
(-0.572925 10.5392 0)
(-0.604877 10.6789 0)
(-0.620094 10.8327 0)
(-0.61321 10.9992 0)
(-0.587583 11.1709 0)
(-0.553375 11.3415 0)
(-0.512724 11.5101 0)
(-0.467444 11.6752 0)
(-0.419126 11.8345 0)
(-0.369033 11.9838 0)
(-0.320234 12.1327 0)
(-0.271773 12.2614 0)
(-0.221305 12.3055 0)
(-0.168878 12.1955 0)
(-0.115856 11.8719 0)
(-0.0641549 11.1906 0)
(-0.0189417 9.64785 0)
(0.00196737 10.007 0)
(0.00306367 10.0043 0)
(0.00261503 10.0016 0)
(0.000954639 10.0001 2.16767e-19)
(-0.000805502 10.0095 0)
(-0.0055332 10.0115 0)
(-0.0126036 10.0128 0)
(-0.022543 10.0134 0)
(-0.0360237 10.0135 0)
(-0.0538362 10.0135 0)
(-0.0768601 10.014 0)
(-0.106011 10.0158 0)
(-0.142149 10.0206 0)
(-0.185937 10.0302 0)
(-0.237637 10.0474 0)
(-0.296818 10.0753 0)
(-0.361988 10.1181 0)
(-0.430268 10.1797 0)
(-0.49814 10.2611 0)
(-0.562348 10.362 0)
(-0.618862 10.4822 0)
(-0.663508 10.6208 0)
(-0.692315 10.7756 0)
(-0.701785 10.9437 0)
(-0.686569 11.123 0)
(-0.651239 11.3055 0)
(-0.607549 11.4845 0)
(-0.557965 11.6594 0)
(-0.504502 11.829 0)
(-0.44885 11.9913 0)
(-0.395011 12.1608 0)
(-0.341947 12.3299 0)
(-0.287376 12.4594 0)
(-0.231979 12.5056 0)
(-0.175657 12.3991 0)
(-0.119639 12.076 0)
(-0.065776 11.3843 0)
(-0.0191611 9.81217 0)
(-0.00092384 10.0092 0)
(0.00182517 10.0067 0)
(0.0028623 10.004 9.37626e-19)
(0.00244916 10.0015 -6.86169e-19)
(0.000887777 10.0001 -4.44725e-19)
(-0.00559516 10.0109 0)
(-0.0125866 10.0119 0)
(-0.0224076 10.0121 0)
(-0.0357257 10.0115 0)
(-0.0533369 10.0105 0)
(-0.0761426 10.0095 0)
(-0.105108 10.0094 0)
(-0.141194 10.0113 0)
(-0.185237 10.017 0)
(-0.23779 10.029 0)
(-0.298869 10.0501 0)
(-0.367628 10.0843 0)
(-0.44197 10.1359 0)
(-0.518206 10.209 0)
(-0.592114 10.3042 0)
(-0.660019 10.4202 0)
(-0.717528 10.5563 0)
(-0.760295 10.7108 0)
(-0.784395 10.8809 0)
(-0.786594 11.063 0)
(-0.761662 11.2545 0)
(-0.715518 11.4467 0)
(-0.661553 11.6329 0)
(-0.602513 11.813 0)
(-0.540559 11.9858 0)
(-0.480715 12.1683 0)
(-0.422101 12.3575 0)
(-0.361913 12.5259 0)
(-0.301524 12.6542 0)
(-0.241521 12.7004 0)
(-0.181628 12.596 0)
(-0.122899 12.2718 0)
(-0.0671384 11.5689 0)
(-0.0193126 9.96759 0)
(-0.00565851 10.0104 0)
(-0.0010023 10.0087 -1.83968e-18)
(0.00166808 10.0064 -9.86251e-19)
(0.00266881 10.0038 4.81074e-19)
(0.00228756 10.0014 -4.68986e-19)
(0.000823116 10.0001 0)
(-0.01255 10.0111 0)
(-0.0222511 10.0109 0)
(-0.0354011 10.0097 0)
(-0.0527925 10.0078 0)
(-0.0753379 10.0056 0)
(-0.104035 10.0036 0)
(-0.139911 10.003 0)
(-0.183934 10.0053 0)
(-0.236878 10.0125 0)
(-0.299113 10.0275 0)
(-0.370327 10.0537 0)
(-0.449173 10.0953 0)
(-0.532821 10.1571 0)
(-0.616689 10.2433 0)
(-0.695848 10.3537 0)
(-0.766279 10.4859 0)
(-0.82332 10.6388 0)
(-0.862577 10.8096 0)
(-0.880322 10.9949 0)
(-0.873715 11.1903 0)
(-0.837745 11.393 0)
(-0.779787 11.5938 0)
(-0.71488 11.7861 0)
(-0.645969 11.9698 0)
(-0.579298 12.1631 0)
(-0.514051 12.3652 0)
(-0.447111 12.5532 0)
(-0.380091 12.7188 0)
(-0.314226 12.8441 0)
(-0.249952 12.889 0)
(-0.186825 12.7851 0)
(-0.125678 12.459 0)
(-0.0682647 11.7442 0)
(-0.0194067 10.1141 0)
(-0.0125308 10.0104 0)
(-0.00562898 10.0098 3.86807e-18)
(-0.00104789 10.0082 0)
(0.00151685 10.006 1.0108e-18)
(0.00248176 10.0036 4.69468e-22)
(0.00213002 10.0013 0)
(0.00076067 10.0001 0)
(-0.0220799 10.0098 0)
(-0.0350618 10.0082 0)
(-0.052227 10.0055 0)
(-0.0744875 10.0021 0)
(-0.10286 9.99858 0)
(-0.138417 9.99573 0)
(-0.18222 9.99487 0)
(-0.235208 9.99784 0)
(-0.298028 10.0071 0)
(-0.370796 10.026 0)
(-0.452791 10.0584 0)
(-0.542037 10.1089 0)
(-0.634882 10.1825 0)
(-0.725778 10.2832 0)
(-0.809114 10.4101 0)
(-0.880638 10.5597 0)
(-0.93554 10.7298 0)
(-0.96953 10.917 0)
(-0.979216 11.117 0)
(-0.962295 11.325 0)
(-0.914066 11.5378 0)
(-0.843437 11.7459 0)
(-0.767048 11.9427 0)
(-0.69279 12.1474 0)
(-0.619953 12.3605 0)
(-0.544946 12.5613 0)
(-0.46996 12.7459 0)
(-0.396475 12.9072 0)
(-0.325501 13.0281 0)
(-0.257323 13.0705 0)
(-0.191306 12.9661 0)
(-0.128016 12.637 0)
(-0.0691791 11.9099 0)
(-0.0194524 10.2517 0)
(-0.0219479 10.0089 0)
(-0.0123436 10.0096 4.17204e-22)
(-0.00548564 10.0091 0)
(-0.00109237 10.0077 -1.06227e-18)
(0.00137473 10.0056 3.87156e-22)
(0.00230075 10.0034 0)
(0.00197671 10.0012 0)
(0.000700452 10.0001 0)
(-0.0347138 10.0068 0)
(-0.0516546 10.0034 0)
(-0.0736217 9.99907 0)
(-0.101636 9.99411 0)
(-0.136803 9.98926 0)
(-0.180243 9.98562 0)
(-0.233021 9.9848 0)
(-0.295993 9.98901 0)
(-0.369613 10.0012 0)
(-0.453674 10.025 0)
(-0.546924 10.0649 0)
(-0.646663 10.1257 0)
(-0.748323 10.2126 0)
(-0.845342 10.3294 0)
(-0.931488 10.4741 0)
(-1.00243 10.6418 0)
(-1.05335 10.8295 0)
(-1.08023 11.0329 0)
(-1.08016 11.247 0)
(-1.05148 11.4665 0)
(-0.989894 11.6881 0)
(-0.905876 11.902 0)
(-0.823409 12.1204 0)
(-0.742071 12.3455 0)
(-0.657766 12.5574 0)
(-0.573274 12.7547 0)
(-0.490624 12.9343 0)
(-0.411085 13.0899 0)
(-0.335411 13.2056 0)
(-0.263704 13.2443 0)
(-0.195125 13.1384 0)
(-0.129958 12.8057 0)
(-0.0699051 12.0663 0)
(-0.0194584 10.3806 0)
(-0.0344344 10.0055 0)
(-0.0215442 10.0078 -2.13404e-18)
(-0.0119193 10.0087 0)
(-0.00535002 10.0084 0)
(-0.0011231 10.0071 3.26528e-18)
(0.00124114 10.0053 0)
(0.002126 10.0032 0)
(0.00182777 10.0012 1.01164e-18)
(0.000642509 10.0001 0)
(-0.0510803 10.0016 0)
(-0.0727578 9.99636 0)
(-0.100404 9.99014 0)
(-0.135134 9.98352 0)
(-0.178117 9.97742 0)
(-0.230503 9.97321 0)
(-0.293306 9.97285 0)
(-0.367244 9.97897 0)
(-0.452521 9.99494 0)
(-0.548484 10.0249 0)
(-0.653258 10.0736 0)
(-0.763327 10.1464 0)
(-0.873124 10.2482 0)
(-0.975046 10.3827 0)
(-1.06236 10.5462 0)
(-1.13082 10.7326 0)
(-1.1758 10.9379 0)
(-1.19369 11.157 0)
(-1.18221 11.3842 0)
(-1.14046 11.6141 0)
(-1.06453 11.8429 0)
(-0.973518 12.0795 0)
(-0.882882 12.3191 0)
(-0.788044 12.5434 0)
(-0.692546 12.7519 0)
(-0.598982 12.9439 0)
(-0.509124 13.1173 0)
(-0.42399 13.2662 0)
(-0.344042 13.3757 0)
(-0.269174 13.41 0)
(-0.198346 13.3018 0)
(-0.131546 12.9651 0)
(-0.0704658 12.2132 0)
(-0.0194324 10.5012 0)
(-0.0506135 9.99996 0)
(-0.0337418 10.0041 0)
(-0.0207251 10.0066 -2.39823e-18)
(-0.0115178 10.0077 -2.34082e-18)
(-0.00519389 10.0077 -4.56964e-18)
(-0.00114084 10.0066 0)
(0.00111617 10.005 -2.17666e-18)
(0.0019578 10.003 -2.12484e-18)
(0.00168321 10.0011 1.03698e-18)
(0.000586751 10.0001 0)
(-0.0718997 9.99395 0)
(-0.0991825 9.98663 0)
(-0.133461 9.97844 0)
(-0.175927 9.97015 0)
(-0.227797 9.96292 0)
(-0.290199 9.95848 0)
(-0.364055 9.95914 0)
(-0.449891 9.96798 0)
(-0.547546 9.98883 0)
(-0.65584 10.0263 0)
(-0.772176 10.0855 0)
(-0.892123 10.1718 0)
(-1.00906 10.2901 0)
(-1.11436 10.4435 0)
(-1.20093 10.6268 0)
(-1.26485 10.8322 0)
(-1.30184 11.0548 0)
(-1.30888 11.2889 0)
(-1.28444 11.5282 0)
(-1.22841 11.7668 0)
(-1.14574 12.0197 0)
(-1.04515 12.2787 0)
(-0.938519 12.5182 0)
(-0.830434 12.7392 0)
(-0.724197 12.9423 0)
(-0.622081 13.1278 0)
(-0.525535 13.2939 0)
(-0.43529 13.4355 0)
(-0.351494 13.5382 0)
(-0.273818 13.5675 0)
(-0.201029 13.4564 0)
(-0.132825 13.1153 0)
(-0.0708831 12.3512 0)
(-0.019381 10.6137 0)
(-0.0712 9.99182 0)
(-0.0495441 9.99815 -2.35505e-18)
(-0.0323845 10.0026 2.51374e-18)
(-0.0199534 10.0054 -1.66877e-21)
(-0.0110865 10.0068 2.39655e-18)
(-0.00501824 10.007 2.34021e-18)
(-0.00114586 10.0062 4.56958e-18)
(0.000999975 10.0046 3.3454e-18)
(0.00179596 10.0028 -1.08882e-18)
(0.00154304 10.001 0)
(0.000533183 10.0001 0)
(-0.0979752 9.98351 0)
(-0.131809 9.97394 0)
(-0.173736 9.9637 0)
(-0.22501 9.95379 0)
(-0.286851 9.9457 0)
(-0.360331 9.94147 0)
(-0.44623 9.94387 0)
(-0.544782 9.95643 0)
(-0.65538 9.98343 0)
(-0.77622 10.0299 0)
(-0.903884 10.1011 0)
(-1.03294 10.2027 0)
(-1.15571 10.3391 0)
(-1.26256 10.5125 0)
(-1.34627 10.7162 0)
(-1.40346 10.9407 0)
(-1.43038 11.1801 0)
(-1.42476 11.4282 0)
(-1.3859 11.6781 0)
(-1.32452 11.9421 0)
(-1.23213 12.219 0)
(-1.11245 12.4789 0)
(-0.989999 12.7155 0)
(-0.869109 12.9312 0)
(-0.752714 13.1277 0)
(-0.642645 13.3055 0)
(-0.539967 13.4636 0)
(-0.4451 13.5972 0)
(-0.357867 13.6927 0)
(-0.277719 13.7165 0)
(-0.203235 13.6022 0)
(-0.133834 13.2564 0)
(-0.0711775 12.4803 0)
(-0.0193102 10.7185 0)
(-0.0969921 9.98075 0)
(-0.0696476 9.9895 -5.11603e-21)
(-0.0474709 9.99618 0)
(-0.0311125 10.0011 -2.92191e-21)
(-0.0191392 10.0043 0)
(-0.0106262 10.006 -2.4538e-18)
(-0.00482379 10.0064 -4.79265e-18)
(-0.00113826 10.0057 -2.90416e-22)
(0.000892379 10.0043 2.28421e-18)
(0.00164072 10.0026 -1.11501e-18)
(0.00140723 10.001 1.0888e-18)
(0.000481807 10 0)
(-0.13018 9.96994 0)
(-0.171576 9.95797 0)
(-0.222222 9.94569 0)
(-0.283396 9.93434 0)
(-0.356293 9.92574 0)
(-0.441889 9.92236 0)
(-0.540728 9.92738 0)
(-0.652675 9.94482 0)
(-0.776591 9.97939 0)
(-0.909941 10.0364 0)
(-1.04839 10.1215 0)
(-1.18548 10.2399 0)
(-1.31244 10.3958 0)
(-1.41877 10.5903 0)
(-1.49732 10.8147 0)
(-1.54552 11.0579 0)
(-1.56032 11.3134 0)
(-1.54029 11.574 0)
(-1.49728 11.851 0)
(-1.42723 12.1408 0)
(-1.31365 12.4202 0)
(-1.17498 12.678 0)
(-1.03716 12.9095 0)
(-0.904068 13.1184 0)
(-0.778163 13.307 0)
(-0.660791 13.4764 0)
(-0.552554 13.626 0)
(-0.453545 13.7512 0)
(-0.363272 13.8392 0)
(-0.280963 13.8573 0)
(-0.205024 13.7393 0)
(-0.134611 13.3888 0)
(-0.0713678 12.601 0)
(-0.0192251 10.816 0)
(-0.128859 9.96638 0)
(-0.0948296 9.9778 2.58709e-18)
(-0.0666399 9.98703 -2.76748e-18)
(-0.045538 9.99429 2.69678e-18)
(-0.0297816 9.99962 0)
(-0.0182833 10.0032 0)
(-0.010139 10.0051 2.51168e-18)
(-0.00461101 10.0057 -2.45306e-18)
(-0.00111823 10.0053 -2.28904e-22)
(0.000793498 10.004 1.16987e-18)
(0.00149191 10.0025 -1.14237e-18)
(0.00127574 10.0009 -1.11189e-18)
(0.000432888 10 0)
(-0.169446 9.95289 0)
(-0.219471 9.93849 0)
(-0.279934 9.92425 0)
(-0.352109 9.91175 0)
(-0.437136 9.90317 0)
(-0.535807 9.90141 0)
(-0.648363 9.91014 0)
(-0.774218 9.93381 0)
(-0.911594 9.97754 0)
(-1.05713 10.0469 0)
(-1.20552 10.1476 0)
(-1.34922 10.2844 0)
(-1.47845 10.461 0)
(-1.58196 10.6772 0)
(-1.65292 10.9223 0)
(-1.68984 11.1838 0)
(-1.69052 11.4541 0)
(-1.66779 11.7435 0)
(-1.61691 12.0483 0)
(-1.52462 12.3427 0)
(-1.3897 12.6213 0)
(-1.23247 12.8744 0)
(-1.07995 13.099 0)
(-0.935397 13.2997 0)
(-0.800692 13.4795 0)
(-0.676673 13.64 0)
(-0.563446 13.7806 0)
(-0.460759 13.8973 0)
(-0.367813 13.9776 0)
(-0.28363 13.9898 0)
(-0.20645 13.868 0)
(-0.13519 13.5128 0)
(-0.0714717 12.7137 0)
(-0.0191295 10.9066 0)
(-0.167729 9.94838 0)
(-0.125937 9.96266 0)
(-0.0906219 9.97472 2.89227e-18)
(-0.0638492 9.98466 -5.66351e-18)
(-0.0435247 9.99247 5.52784e-18)
(-0.0283924 9.99823 -5.39611e-18)
(-0.0173894 10.0021 0)
(-0.00962551 10.0043 2.57152e-18)
(-0.00438029 10.0051 -2.51061e-18)
(-0.00108593 10.0048 -2.45232e-18)
(0.000703049 10.0038 0)
(0.00134947 10.0023 1.16618e-18)
(0.00114943 10.0008 0)
(0.00038742 10 0)
(-0.216758 9.93209 0)
(-0.276512 9.91528 0)
(-0.347905 9.8993 0)
(-0.432182 9.88609 0)
(-0.530348 9.87823 0)
(-0.642952 9.87907 0)
(-0.769856 9.89277 0)
(-0.909921 9.92418 0)
(-1.06063 9.97879 0)
(-1.21772 10.0623 0)
(-1.37486 10.1802 0)
(-1.52346 10.337 0)
(-1.65278 10.5352 0)
(-1.75098 10.7735 0)
(-1.81188 11.0392 0)
(-1.83525 11.3178 0)
(-1.83499 11.6188 0)
(-1.8055 11.9383 0)
(-1.73099 12.25 0)
(-1.61597 12.5454 0)
(-1.45994 12.8204 0)
(-1.28483 13.0667 0)
(-1.11844 13.283 0)
(-0.963247 13.4745 0)
(-0.82049 13.6448 0)
(-0.690466 13.7959 0)
(-0.572798 13.9274 0)
(-0.46687 14.0355 0)
(-0.371595 14.1082 0)
(-0.285795 14.1144 0)
(-0.207567 13.9886 0)
(-0.135603 13.6288 0)
(-0.0715043 12.8188 0)
(-0.0190271 10.9908 0)
(-0.214588 9.92641 0)
(-0.163877 9.9437 0)
(-0.120214 9.95884 0)
(-0.0867389 9.97178 5.91599e-18)
(-0.0609524 9.9824 -5.77909e-18)
(-0.0414332 9.99074 5.64382e-18)
(-0.0269521 9.99691 0)
(-0.0164593 10.0011 -2.69188e-18)
(-0.00908654 10.0036 0)
(-0.00413222 10.0046 2.56873e-18)
(-0.00104188 10.0044 0)
(0.000620861 10.0035 0)
(0.0012141 10.0022 0)
(0.00103127 10.0008 1.1126e-18)
(0.000345815 10 5.18871e-19)
(-0.273132 9.90731 0)
(-0.343736 9.88823 0)
(-0.42718 9.87087 0)
(-0.524609 9.85754 0)
(-0.636839 9.85129 0)
(-0.764107 9.85592 0)
(-0.9058 9.87602 0)
(-1.06013 9.91687 0)
(-1.22375 9.98415 0)
(-1.39144 10.0836 0)
(-1.55584 10.2204 0)
(-1.70734 10.3984 0)
(-1.83435 10.619 0)
(-1.92467 10.8796 0)
(-1.97296 11.165 0)
(-1.99758 11.4763 0)
(-1.99205 11.8098 0)
(-1.93766 12.1391 0)
(-1.83864 12.454 0)
(-1.70081 12.7473 0)
(-1.52418 13.0162 0)
(-1.33207 13.254 0)
(-1.15276 13.4607 0)
(-0.987815 13.6422 0)
(-0.837768 13.8026 0)
(-0.702357 13.944 0)
(-0.580767 14.0663 0)
(-0.472004 14.1659 0)
(-0.374715 14.231 0)
(-0.287527 14.2313 0)
(-0.208422 14.1015 0)
(-0.135875 13.7371 0)
(-0.0714791 12.9167 0)
(-0.0189207 11.0689 0)
(-0.270456 9.90022 0)
(-0.209614 9.92059 0)
(-0.156273 9.93898 6.36212e-18)
(-0.114961 9.9552 6.21532e-18)
(-0.0827165 9.96899 6.06755e-18)
(-0.0579536 9.98027 -5.92313e-18)
(-0.0392743 9.98911 0)
(-0.0254626 9.99567 0)
(-0.0154942 10.0002 0)
(-0.00852357 10.0029 5.38147e-18)
(-0.00386772 10.004 2.628e-18)
(-0.000986647 10.0041 2.55967e-18)
(0.000546939 10.0033 0)
(0.00108866 10.002 -1.16697e-18)
(0.00092275 10.0007 -5.47296e-19)
(0.000307617 10 0)
(-0.339609 9.87838 0)
(-0.422199 9.85732 0)
(-0.518778 9.8391 0)
(-0.630337 9.82646 0)
(-0.757446 9.82289 0)
(-0.899942 9.83267 0)
(-1.05664 9.86082 0)
(-1.22501 9.9129 0)
(-1.40081 9.99473 0)
(-1.57785 10.1119 0)
(-1.7477 10.2691 0)
(-1.89986 10.4693 0)
(-2.02205 10.7129 0)
(-2.10179 10.9953 0)
(-2.154 11.3153 0)
(-2.17532 11.662 0)
(-2.14389 12.0087 0)
(-2.06328 12.3439 0)
(-1.93929 12.6585 0)
(-1.7789 12.9469 0)
(-1.58246 13.2076 0)
(-1.37436 13.4354 0)
(-1.18314 13.6315 0)
(-1.00934 13.8025 0)
(-0.852746 13.9526 0)
(-0.712547 14.0843 0)
(-0.587507 14.1975 0)
(-0.476282 14.2886 0)
(-0.37726 14.3463 0)
(-0.288891 14.3407 0)
(-0.209055 14.207 0)
(-0.136033 13.8382 0)
(-0.0714078 13.0078 0)
(-0.0188128 11.1414 0)
(-0.336382 9.86962 0)
(-0.264138 9.89301 0)
(-0.199702 9.91479 -1.32826e-17)
(-0.149323 9.93451 2.92427e-20)
(-0.109525 9.95177 -1.26838e-17)
(-0.078562 9.96636 1.23848e-17)
(-0.0548664 9.97826 -6.05466e-18)
(-0.0370507 9.98758 0)
(-0.0239265 9.9945 0)