/*--------------------------------*- C++ -*----------------------------------*\
  =========                 |
  \\      /  F ield         | OpenFOAM: The Open Source CFD Toolbox
   \\    /   O peration     | Website:  https://openfoam.org
    \\  /    A nd           | Version:  8
     \\/     M anipulation  |
\*---------------------------------------------------------------------------*/
FoamFile
{
    version     2.0;
    format      ascii;
    class       volScalarField;
    location    "0.45";
    object      nut;
}
// * * * * * * * * * * * * * * * * * * * * * * * * * * * * * * * * * * * * * //

dimensions      [0 2 -1 0 0 0 0];

internalField   nonuniform List<scalar> 
15677
(
0.000168253
0.000653021
0.00014841
0.00151372
0.000442461
0.000141501
0.00267545
0.000875838
0.000381169
0.00014237
0.00392122
0.00151896
0.0006867
0.000354268
0.000145453
0.00502422
0.00235614
0.00114649
0.000585693
0.000340289
0.000151216
0.00584076
0.00331735
0.00178087
0.000947872
0.000529374
0.000332058
0.00015702
0.00633514
0.00429861
0.00256773
0.00146345
0.000821062
0.000492564
0.000327036
0.00016248
0.00656294
0.00518763
0.00345298
0.00213176
0.00125742
0.000737375
0.00046752
0.000324171
0.000167271
0.00665851
0.00589345
0.00435544
0.00292234
0.00184178
0.00111251
0.000677487
0.000450509
0.000322606
0.000171507
0.00670553
0.00633831
0.00518097
0.00377924
0.00255727
0.00163207
0.00100477
0.000634187
0.000438748
0.000322052
0.000175082
0.0067144
0.00655352
0.00584545
0.00462559
0.00336312
0.00228686
0.0014729
0.000924343
0.000602222
0.000430808
0.000322003
0.000178221
0.00670992
0.00666155
0.00629576
0.00537746
0.00419739
0.00304575
0.0020781
0.00134922
0.000862258
0.000578579
0.000425341
0.000322482
0.000180837
0.00670628
0.00669877
0.00652969
0.00596475
0.00498468
0.00385789
0.00279612
0.00191201
0.00125126
0.000814073
0.000560808
0.000421849
0.000323126
0.000183184
0.00670538
0.00670439
0.00664685
0.00635709
0.00565056
0.00465651
0.00358383
0.00259393
0.00177785
0.00117294
0.000776198
0.000547611
0.000419505
0.000324037
0.000185228
0.00670542
0.00670289
0.0066879
0.00656305
0.00614251
0.00536913
0.0043819
0.00335744
0.00242796
0.001668
0.00110935
0.00074637
0.000537517
0.00041827
0.000324885
0.000187036
0.00670557
0.00670167
0.00669638
0.00665664
0.00644712
0.00593424
0.0051217
0.00414922
0.00316859
0.00228982
0.00157742
0.00105756
0.000722644
0.000530233
0.000417392
0.000325933
0.000188688
0.00670565
0.00670121
0.00669711
0.00668497
0.00660507
0.00632217
0.00573816
0.00490454
0.00395118
0.00300925
0.00217432
0.00150215
0.0010155
0.000704123
0.000524514
0.000417264
0.00032687
0.000190098
0.00670567
0.00670111
0.0066967
0.00669172
0.00666384
0.00654152
0.00618888
0.00555759
0.00471477
0.00378144
0.00287431
0.00207714
0.00143973
0.000981343
0.000689228
0.000520638
0.0004172
0.00032795
0.000191519
0.00670566
0.00670113
0.00669639
0.0066928
0.00668236
0.00663472
0.00646829
0.00605851
0.00539425
0.00454872
0.00363572
0.00275961
0.00199553
0.00138805
0.000953431
0.000677841
0.000517531
0.000417715
0.000328928
0.000192633
0.00670565
0.00670116
0.00669623
0.00669277
0.00668729
0.00666927
0.00659835
0.00638983
0.00593543
0.00524721
0.00440383
0.00351055
0.00266227
0.00192717
0.00134535
0.000931087
0.000668687
0.000515784
0.000418127
0.000329998
0.000193951
0.00670564
0.00670118
0.00669614
0.00669268
0.00668816
0.00668096
0.00665161
0.00655642
0.0063115
0.00582008
0.00511623
0.00427769
0.00340333
0.00258004
0.00187026
0.00131049
0.00091309
0.000662096
0.000514339
0.00041903
0.000331024
0.000194838
0.00670563
0.00670119
0.00669609
0.00669265
0.00668808
0.00668442
0.00667177
0.00663058
0.00651172
0.00623333
0.00571468
0.00500011
0.00416857
0.00331211
0.00251122
0.00182342
0.00128231
0.000899205
0.000656864
0.00051401
0.000419744
0.000332062
0.000196143
0.00670563
0.0067012
0.00669605
0.00669266
0.00668788
0.00668528
0.00667849
0.00666165
0.00660639
0.00646529
0.0061604
0.00561896
0.00489854
0.00407499
0.00323539
0.00245427
0.0017855
0.00126013
0.000888491
0.000653708
0.000513688
0.000420911
0.000333198
0.000196865
0.00670563
0.0067012
0.00669603
0.00669267
0.00668773
0.00668545
0.00668033
0.00667359
0.00664859
0.00658084
0.00641969
0.00609202
0.0055342
0.00481043
0.00399583
0.00317163
0.00240833
0.00175579
0.00124331
0.000880991
0.000651259
0.000514363
0.00042181
0.000334113
0.000198172
0.00670563
0.0067012
0.00669602
0.00669266
0.00668764
0.00668546
0.00668061
0.00667779
0.00666576
0.00663568
0.0065543
0.00637581
0.00603023
0.00545916
0.00473555
0.0039302
0.00312076
0.00237238
0.00173325
0.00123097
0.000875745
0.000650691
0.000514838
0.000423241
0.000335556
0.000198862
0.00670563
0.00670119
0.00669602
0.00669265
0.00668759
0.00668543
0.00668051
0.00667912
0.00667203
0.00665993
0.00662064
0.00652856
0.00633554
0.00597413
0.00539611
0.00467397
0.00387782
0.00308018
0.00234513
0.00171756
0.00122359
0.000873508
0.00065037
0.000516303
0.000424141
0.000336305
5.33708e-05
0.00670564
0.00670118
0.00669602
0.00669263
0.00668756
0.0066854
0.00668038
0.00667946
0.00667399
0.00666991
0.00665087
0.00660751
0.00650455
0.00629919
0.00592853
0.00534285
0.00462325
0.00383616
0.00305219
0.0023286
0.00170942
0.00122019
0.000872682
0.000651849
0.000517392
0.000426519
0.000283773
6.33506e-05
0.00670564
0.00670118
0.00669603
0.00669261
0.00668755
0.00668535
0.00668029
0.00667948
0.00667442
0.00667369
0.00666355
0.00664582
0.00659356
0.0064828
0.00626811
0.00588656
0.0053017
0.00458951
0.00381255
0.00303605
0.00231946
0.00170596
0.00121943
0.000874428
0.000653474
0.000519468
0.00042014
0.000219665
7.07406e-05
0.00670565
0.00670117
0.00669604
0.00669258
0.00668756
0.00668531
0.00668023
0.00667941
0.00667442
0.00667493
0.00666841
0.0066632
0.0066372
0.00658387
0.00646634
0.0062416
0.00586337
0.00527735
0.00456705
0.00379549
0.00302663
0.00231633
0.00170706
0.00122294
0.000877417
0.00065576
0.000520721
0.000400283
0.000178143
7.61886e-05
0.00670565
0.00670116
0.00669605
0.00669256
0.00668756
0.00668526
0.00668021
0.00667932
0.00667433
0.00667519
0.00667004
0.00667048
0.00665722
0.0066363
0.00657465
0.00645153
0.00623293
0.00584652
0.00525908
0.00455271
0.00378782
0.00302585
0.00232061
0.00171417
0.00122932
0.000881905
0.000658996
0.000518576
0.000367532
0.000152635
8.05997e-05
0.00670565
0.00670115
0.00669606
0.00669254
0.00668758
0.00668521
0.00668019
0.00667923
0.00667425
0.00667514
0.00667045
0.00667318
0.00666588
0.00666163
0.00663034
0.00657333
0.00645047
0.0062258
0.00583633
0.00525055
0.00455132
0.00379328
0.00303621
0.0023329
0.00172592
0.00123851
0.000888044
0.000661993
0.000512547
0.000336367
0.000134259
8.39931e-05
0.00670566
0.00670114
0.00669607
0.00669252
0.00668759
0.00668516
0.0066802
0.00667914
0.0066742
0.006675
0.00667049
0.00667391
0.00666935
0.00667286
0.00665777
0.00663947
0.00657641
0.00645334
0.00622461
0.0058388
0.00525899
0.00456442
0.00381067
0.00305563
0.00235177
0.00174206
0.00125051
0.000895304
0.000664658
0.000501241
0.000306197
0.000121284
8.63956e-05
0.00670566
0.00670114
0.00669608
0.0066925
0.00668761
0.00668511
0.0066802
0.00667905
0.00667416
0.00667485
0.00667044
0.00667395
0.00667052
0.00667736
0.00667089
0.00667289
0.0066453
0.00658524
0.00646227
0.00623868
0.00585711
0.00528078
0.00459034
0.00383892
0.00308371
0.00237709
0.00176212
0.00126503
0.000903634
0.000665833
0.000485871
0.000280116
0.000112777
8.81687e-05
0.00670567
0.00670113
0.00669609
0.00669248
0.00668762
0.00668507
0.00668022
0.00667897
0.00667414
0.0066747
0.00667036
0.00667379
0.00667084
0.00667879
0.00667671
0.00668849
0.00668075
0.00665818
0.00660307
0.00648499
0.00626623
0.00588903
0.00531665
0.00462882
0.00387798
0.00312027
0.00240822
0.00178602
0.00128173
0.000912668
0.000665868
0.000469051
0.000260272
0.000107009
8.95384e-05
0.00670113
0.00670567
0.0066961
0.00669246
0.00668764
0.00668503
0.00668024
0.0066789
0.00667413
0.00667457
0.00667029
0.00667358
0.00667086
0.00667907
0.00667893
0.00669551
0.00669789
0.00669645
0.00668234
0.00663254
0.00652054
0.00630768
0.00593597
0.00536655
0.00468013
0.00392747
0.00316478
0.0024452
0.00181329
0.00130047
0.000923258
0.000664733
0.000453949
0.000245036
0.000102958
9.06472e-05
0.0066961
0.00670113
0.00670569
0.00669244
0.00668766
0.00668499
0.00668026
0.00667883
0.00667413
0.00667445
0.00667023
0.00667337
0.00667078
0.00667895
0.00667966
0.00669826
0.00670576
0.00671556
0.00672497
0.00671667
0.00667474
0.00657047
0.00636486
0.00599794
0.00543099
0.00474381
0.00398724
0.0032172
0.00248728
0.00184388
0.00132383
0.000935987
0.00066301
0.000441103
0.00023319
0.000100089
9.15818e-05
0.00669243
0.00669614
0.00670115
0.00670571
0.00668767
0.00668496
0.00668028
0.00667876
0.00667414
0.00667434
0.00667019
0.00667319
0.00667068
0.00667872
0.00667984
0.0066992
0.00670904
0.00672466
0.00674708
0.00676288
0.00676413
0.00673141
0.00663652
0.00643875
0.00607666
0.00551036
0.00482029
0.00405689
0.00327663
0.0025345
0.00188103
0.00135145
0.00094936
0.000661756
0.000430322
0.000223819
9.79861e-05
9.23968e-05
0.00668769
0.00669244
0.0066962
0.00670118
0.00670572
0.00668492
0.0066803
0.00667869
0.00667415
0.00667424
0.00667015
0.00667302
0.00667057
0.00667847
0.00667982
0.00669944
0.0067103
0.00672871
0.00675807
0.00678761
0.00681441
0.00682622
0.00680468
0.0067196
0.00653039
0.00617179
0.00560489
0.00490852
0.00413583
0.00334315
0.0025918
0.0019267
0.00138043
0.000963348
0.000661008
0.000421493
0.000216295
9.64699e-05
9.3126e-05
0.00668489
0.00668774
0.00669249
0.00669626
0.0067012
0.00670574
0.00668032
0.00667864
0.00667417
0.00667414
0.00667012
0.00667288
0.00667048
0.00667823
0.00667973
0.00669942
0.00671076
0.00673049
0.00676335
0.00680071
0.00684215
0.00688037
0.00690496
0.00689522
0.00682125
0.00663956
0.00628372
0.00571445
0.00500939
0.00422388
0.0034237
0.00266166
0.00197582
0.00141065
0.000977986
0.000661274
0.000414047
0.000210163
9.53283e-05
9.37889e-05
0.00668034
0.0066849
0.00668785
0.00669253
0.00669633
0.00670122
0.00670576
0.00667858
0.00667419
0.00667405
0.00667011
0.00667275
0.00667038
0.00667802
0.00667964
0.0066993
0.0067109
0.00673134
0.006766
0.00680771
0.00685832
0.00691272
0.00696567
0.00700263
0.00700441
0.00694039
0.00676632
0.00641183
0.00583793
0.0051216
0.00433068
0.00352186
0.00273651
0.00202765
0.00144185
0.0009931
0.000662144
0.000408011
0.000205076
9.45044e-05
9.44007e-05
0.00667853
0.00668042
0.00668495
0.00668796
0.00669257
0.0066964
0.00670124
0.00670578
0.00667422
0.00667396
0.0066701
0.00667264
0.0066703
0.00667784
0.00667954
0.00669915
0.00671092
0.0067318
0.00676752
0.00681169
0.00686776
0.00693241
0.0070034
0.00707109
0.00712337
0.00713574
0.00707867
0.00690936
0.00655465
0.00597376
0.00525901
0.00446136
0.00362679
0.00281553
0.00208164
0.00147379
0.00100881
0.000664332
0.000403007
0.000200765
9.38741e-05
9.49666e-05
0.00667424
0.00667853
0.00668056
0.00668501
0.00668807
0.00669262
0.00669647
0.00670126
0.0067058
0.00667388
0.00667011
0.00667253
0.00667023
0.0066777
0.00667944
0.00669901
0.0067109
0.00673207
0.00676852
0.00681433
0.00687384
0.00694499
0.00702822
0.00711552
0.00720074
0.00726661
0.00729132
0.00723931
0.0070681
0.00671083
0.006138
0.0054238
0.00460184
0.00373809
0.00289769
0.00213723
0.00150621
0.00102424
0.000667089
0.000398921
0.000197088
9.34239e-05
9.54965e-05
0.00667381
0.00667433
0.00667857
0.00668071
0.00668506
0.00668819
0.00669267
0.00669654
0.00670128
0.00670582
0.00667012
0.00667243
0.00667016
0.00667759
0.00667934
0.00669887
0.00671085
0.00673227
0.00676926
0.00681632
0.00687829
0.00695385
0.00704575
0.00714699
0.00725425
0.00735519
0.00743586
0.00746967
0.00742274
0.0072472
0.00689575
0.00633145
0.00559785
0.00474917
0.00385421
0.00298222
0.00219382
0.00153914
0.00103961
0.000670179
0.000395636
0.000193941
9.30839e-05
9.59885e-05
0.00667014
0.00667377
0.00667448
0.00667861
0.00668086
0.00668512
0.00668831
0.00669272
0.00669662
0.0067013
0.00670584
0.00667233
0.00667011
0.00667751
0.00667923
0.00669875
0.00671081
0.00673244
0.00676987
0.00681797
0.00688186
0.00696085
0.00705923
0.00717097
0.00729516
0.00742027
0.00753892
0.00763096
0.00767232
0.00762677
0.00746831
0.00712282
0.00653437
0.00577834
0.00490017
0.0039725
0.00306818
0.0022509
0.0015723
0.00105473
0.000673839
0.000392956
0.000191177
9.28452e-05
9.64522e-05
0.00667223
0.00667019
0.00667376
0.00667464
0.00667866
0.00668101
0.00668518
0.00668843
0.00669277
0.0066967
0.00670132
0.00670586
0.00667008
0.00667745
0.0066791
0.00669866
0.00671079
0.00673258
0.00677039
0.00681941
0.00688488
0.00696683
0.0070705
0.00719046
0.00732878
0.0074735
0.00761949
0.00775183
0.00785425
0.00789942
0.00787637
0.00773737
0.00736933
0.00674409
0.00595991
0.00505257
0.00409219
0.00315465
0.00230799
0.00160531
0.00106974
0.000677828
0.000390774
0.000188806
9.26765e-05
9.6882e-05
0.00667007
0.00667212
0.00667028
0.00667376
0.0066748
0.0066787
0.00668117
0.00668524
0.00668855
0.00669282
0.00669677
0.00670135
0.00670588
0.00667739
0.00667895
0.0066986
0.00671078
0.00673272
0.00677085
0.00682069
0.00688753
0.00697214
0.00708035
0.00720735
0.00735774
0.00751978
0.00768956
0.00785186
0.00799782
0.00810629
0.00817922
0.00818201
0.00802661
0.0076314
0.00696509
0.00614319
0.00520536
0.00421127
0.00324069
0.00236463
0.00163797
0.00108439
0.000681932
0.000389069
0.000186672
9.25626e-05
9.72883e-05
0.00667734
0.00666998
0.00667198
0.00667038
0.00667376
0.00667498
0.00667876
0.00668134
0.00668531
0.00668868
0.00669288
0.00669685
0.00670137
0.0067059
0.00667878
0.00669859
0.00671079
0.00673285
0.00677126
0.00682183
0.00688988
0.00697694
0.00708913
0.00722259
0.0073838
0.00756094
0.00775355
0.00794369
0.00812343
0.00827779
0.00841955
0.00852509
0.00851374
0.00833305
0.0079026
0.00719305
0.00632438
0.00535467
0.00432845
0.00332557
0.0024204
0.00167003
0.0010989
0.000685974
0.000387694
0.000184846
9.24972e-05
9.76633e-05
0.00667861
0.00667711
0.00666979
0.00667184
0.0066705
0.00667376
0.00667517
0.00667881
0.00668151
0.00668538
0.00668881
0.00669294
0.00669693
0.0067014
0.00670592
0.00669864
0.00671081
0.00673298
0.00677162
0.00682286
0.00689199
0.00698131
0.00709705
0.00723659
0.00740768
0.00759857
0.00781264
0.00803138
0.0082443
0.00843522
0.00862954
0.00881163
0.00890481
0.00886858
0.00865339
0.00818021
0.00742567
0.00650848
0.00550054
0.00444288
0.00340857
0.00247495
0.00170134
0.00111316
0.000689924
0.000386614
0.000183164
9.24591e-05
9.80187e-05
0.00669877
0.00667788
0.00667672
0.00666962
0.0066717
0.00667064
0.00667375
0.00667536
0.00667887
0.00668168
0.00668545
0.00668894
0.006693
0.00669701
0.00670143
0.00670594
0.00671084
0.00673308
0.00677193
0.00682378
0.0068939
0.00698529
0.00710424
0.00724953
0.00742965
0.00763354
0.00786835
0.00811452
0.00836323
0.00859291
0.00883269
0.00907685
0.00924844
0.00931654
0.009244
0.00898495
0.00846199
0.00765775
0.00669275
0.00564259
0.00455395
0.0034893
0.00252799
0.00173178
0.00112704
0.000693798
0.000385735
0.000181731
9.24564e-05
9.8345e-05
0.00671083
0.00669831
0.00667653
0.0066763
0.00666952
0.00667153
0.00667081
0.00667375
0.00667556
0.00667894
0.00668186
0.00668553
0.00668907
0.00669307
0.00669708
0.00670145
0.00670596
0.00673316
0.00677218
0.0068246
0.00689564
0.00698893
0.00711079
0.00726151
0.00744984
0.00766634
0.00792127
0.00819354
0.00847791
0.00875413
0.00904622
0.00934729
0.00958404
0.00973116
0.00976046
0.00963911
0.00932604
0.00874598
0.00788784
0.00687516
0.00578045
0.00466116
0.00356719
0.00257928
0.00176121
0.00114052
0.000697557
0.000385038
0.000180381
9.24645e-05
9.86551e-05
0.00673323
0.00670978
0.00669725
0.00667549
0.00667578
0.00666949
0.00667135
0.006671
0.00667375
0.00667577
0.00667901
0.00668203
0.00668563
0.00668919
0.00669313
0.00669715
0.00670148
0.00670597
0.00677238
0.00682535
0.00689723
0.00699223
0.00711677
0.00727255
0.0074684
0.00769719
0.00797127
0.00826857
0.00858934
0.00891613
0.00927228
0.0096424
0.00994404
0.0101614
0.0102683
0.0102413
0.0100552
0.00967603
0.00903086
0.00811486
0.00705427
0.00591371
0.00476343
0.00364193
0.00262864
0.00178956
0.00115354
0.000701216
0.000384462
0.000179238
9.24994e-05
9.89383e-05
0.00677255
0.00673156
0.00670755
0.00669565
0.0066748
0.00667514
0.00666956
0.00667114
0.00667122
0.00667376
0.00667598
0.0066791
0.0066822
0.00668572
0.00668931
0.0066932
0.00669721
0.00670151
0.00670598
0.00682603
0.00689869
0.00699525
0.00712224
0.00728269
0.00748546
0.00772616
0.00801811
0.00833988
0.00869867
0.00907861
0.00950033
0.00996301
0.0103609
0.0106594
0.010838
0.0108772
0.010767
0.0104949
0.010035
0.0093158
0.00833796
0.00722899
0.0060439
0.00486098
0.00371334
0.00267592
0.00181676
0.00116606
0.000704738
0.000384007
0.00017814
9.25353e-05
9.92083e-05
0.0068267
0.00676974
0.00672803
0.00670535
0.00669371
0.00667447
0.00667436
0.0066697
0.00667092
0.00667144
0.00667379
0.00667618
0.0066792
0.00668236
0.00668582
0.00668942
0.00669327
0.00669727
0.00670154
0.006706
0.00690003
0.00699799
0.00712724
0.00729198
0.00750116
0.00775322
0.0080617
0.00840789
0.00880581
0.00923898
0.00972519
0.0103031
0.0108598
0.0112954
0.011558
0.0116493
0.011574
0.0113438
0.0109597
0.0104027
0.00960015
0.00855656
0.00739785
0.00617016
0.00495393
0.00378134
0.00272106
0.00184277
0.00117806
0.000708141
0.000383641
0.000177215
9.25924e-05
9.94232e-05
0.0069013
0.0068232
0.00676371
0.00672463
0.00670316
0.00669138
0.00667447
0.00667348
0.00666991
0.00667071
0.00667167
0.00667383
0.00667638
0.00667932
0.00668251
0.00668592
0.00668952
0.00669334
0.00669733
0.00670157
0.00670601
0.00700048
0.0071318
0.00730046
0.00751559
0.00777833
0.00810218
0.00847286
0.00890954
0.00939405
0.00994812
0.0106776
0.0114575
0.0121259
0.012533
0.0126735
0.0126038
0.0123589
0.0119699
0.0114482
0.0107782
0.00988321
0.00877014
0.00756065
0.0062919
0.00504235
0.00384591
0.00276403
0.00186757
0.00118953
0.000711391
0.00038336
0.000176312
9.26355e-05
9.96037e-05
0.00700278
0.00689636
0.00681515
0.00675773
0.00672143
0.00670128
0.00668858
0.0066747
0.00667256
0.00667014
0.00667053
0.00667188
0.0066739
0.00667657
0.00667944
0.00668265
0.00668603
0.00668962
0.00669341
0.00669738
0.0067016
0.00670602
0.00713596
0.00730816
0.00752881
0.00780151
0.00813971
0.00853468
0.00900832
0.00954263
0.0101761
0.0111035
0.0121636
0.0131247
0.0137788
0.0140307
0.0139567
0.0136646
0.0132093
0.0126333
0.0119547
0.011159
0.0101639
0.00897823
0.00771729
0.00640878
0.00512634
0.00390711
0.0028048
0.00189115
0.00120044
0.000714517
0.000383099
0.000175658
9.26904e-05
9.97976e-05
0.00713976
0.00699608
0.00688455
0.00680713
0.00675202
0.00671841
0.0067
0.00668556
0.00667504
0.00667167
0.00667036
0.0066704
0.00667207
0.006674
0.00667673
0.00667957
0.00668278
0.00668613
0.00668971
0.00669348
0.00669744
0.00670163
0.00670603
0.00731517
0.00754091
0.00782279
0.00817449
0.00859301
0.00910111
0.00968583
0.0104165
0.0115819
0.0129483
0.014209
0.015133
0.0156115
0.015625
0.0152973
0.0147638
0.0140867
0.0133145
0.0124701
0.0115412
0.010441
0.0091804
0.00786768
0.00652061
0.00520598
0.00396498
0.0028434
0.00191351
0.00121082
0.000717479
0.000382949
0.000175071
9.27377e-05
0.000100008
0.00732149
0.00713074
0.00697923
0.00687274
0.00679929
0.00674654
0.00671553
0.00669895
0.00668255
0.00667536
0.00667089
0.00667051
0.00667035
0.00667223
0.00667413
0.00667688
0.0066797
0.00668291
0.00668624
0.0066898
0.00669354
0.00669749
0.00670166
0.00670604
0.00755195
0.00784224
0.00820663
0.0086475
0.00918775
0.00982572
0.0106714
0.0120956
0.0137531
0.0152702
0.0164227
0.0171302
0.0173683
0.0171437
0.0165835
0.0158314
0.0149498
0.013991
0.0129835
0.0119204
0.010713
0.00937619
0.00801176
0.00662729
0.00528137
0.0040196
0.00287989
0.00193469
0.00122066
0.000719942
0.00038279
0.000174498
9.28151e-05
0.000100236
0.0075619
0.00730983
0.00710701
0.00696234
0.00686117
0.00679158
0.00674125
0.00671284
0.00669799
0.00667973
0.00667551
0.00667029
0.00667057
0.00667037
0.00667235
0.00667427
0.00667702
0.00667984
0.00668302
0.00668634
0.00668989
0.00669361
0.00669754
0.00670167
0.00670604
0.00786
0.00823624
0.00869795
0.00926865
0.00996381
0.0109368
0.0126176
0.01452
0.0162226
0.0175322
0.0184124
0.0188671
0.0188905
0.018479
0.0177405
0.0168158
0.0157651
0.0146428
0.0134847
0.0122918
0.010978
0.00956516
0.00814953
0.00672882
0.00535267
0.00407114
0.0029143
0.00195469
0.00122874
0.000722038
0.000382678
0.000173852
9.28845e-05
0.000100484
0.00787586
0.00754678
0.00727706
0.00708323
0.00694577
0.00684985
0.00678395
0.00673628
0.00671026
0.00669701
0.00667736
0.00667537
0.00666992
0.00667054
0.00667045
0.00667245
0.00667442
0.00667715
0.00667998
0.00668314
0.00668645
0.00668997
0.00669368
0.00669756
0.00670167
0.00670604
0.00826345
0.00874439
0.00934455
0.0101002
0.0112049
0.0131224
0.0152097
0.0170234
0.0184156
0.0193984
0.0200083
0.0202568
0.0201253
0.0195906
0.018734
0.0176887
0.0165105
0.0152549
0.0139646
0.0126512
0.0112346
0.0097469
0.00828099
0.00682523
0.00541991
0.00411953
0.00294669
0.00197107
0.0012356
0.000724357
0.000382498
0.0001732
9.29901e-05
0.000100751
0.00828775
0.00785697
0.00750186
0.00724415
0.00705989
0.00692957
0.00683876
0.00677636
0.00673167
0.00670767
0.00669584
0.00667588
0.00667488
0.00666977
0.00667045
0.00667058
0.00667254
0.00667458
0.00667727
0.00668011
0.00668325
0.00668655
0.00669005
0.00669371
0.00669756
0.00670167
0.00670604
0.00878701
0.00941608
0.010234
0.0114668
0.0135913
0.0158041
0.0176649
0.0190777
0.0200994
0.0207975
0.0212036
0.0213108
0.0210833
0.020481
0.0195592
0.0184407
0.0171754
0.0158179
0.0144167
0.0129948
0.0114813
0.00992102
0.00840614
0.00691662
0.00548363
0.0041649
0.00297312
0.00198494
0.00124312
0.000726904
0.000382375
0.000172498
9.30898e-05
0.000101042
0.00882484
0.00826401
0.00779619
0.00745677
0.0072118
0.00703707
0.00691373
0.00682788
0.00676881
0.00672723
0.006705
0.00669372
0.00667515
0.00667413
0.00666978
0.00667032
0.00667073
0.00667262
0.00667474
0.00667739
0.00668024
0.00668335
0.00668664
0.00669009
0.00669371
0.00669756
0.00670167
0.00670604
0.00948367
0.0103634
0.0117153
0.0140145
0.016301
0.0181607
0.0195485
0.0205598
0.0212884
0.0217852
0.0220574
0.0220789
0.0218015
0.0211738
0.0202279
0.0190749
0.0177575
0.0163273
0.0148369
0.0133202
0.011717
0.0100872
0.00852505
0.00700297
0.00554397
0.00420183
0.00299545
0.00200009
0.00125135
0.000729723
0.000382205
0.000171757
9.32308e-05
0.000101356
0.009545
0.00879558
0.00818188
0.00773512
0.00741242
0.00718014
0.00701477
0.00689825
0.00681726
0.0067614
0.00672295
0.00670241
0.00669097
0.00667498
0.00667326
0.00666989
0.00667019
0.00667089
0.0066727
0.0066749
0.00667751
0.00668037
0.00668346
0.00668669
0.00669009
0.00669371
0.00669756
0.00670167
0.00670604
0.0104867
0.0119485
0.0143889
0.0167079
0.0185329
0.0198651
0.0208316
0.021547
0.022079
0.0224489
0.0226414
0.0226174
0.0223228
0.0216991
0.0207593
0.0196014
0.0182602
0.0167826
0.0152233
0.0136256
0.0119407
0.0102453
0.0086378
0.00708439
0.00559346
0.00423297
0.00301978
0.00201666
0.00126038
0.00073283
0.000382081
0.000170983
9.33745e-05
0.000101697
0.0105974
0.00950842
0.00868412
0.0080995
0.00767496
0.00736896
0.00714917
0.00699299
0.00688317
0.00680701
0.00675408
0.00671903
0.00670012
0.0066877
0.00667511
0.00667239
0.00667001
0.00667008
0.00667104
0.0066728
0.00667504
0.00667763
0.0066805
0.00668351
0.00668669
0.00669008
0.00669371
0.00669756
0.00670167
0.00670603
0.0121674
0.0147139
0.0170363
0.0188052
0.0200633
0.0209626
0.0216339
0.0221591
0.0225721
0.022869
0.0230192
0.0229771
0.022687
0.0220874
0.0211743
0.0200332
0.0186899
0.0171858
0.0155756
0.0139101
0.012152
0.0103952
0.00874445
0.00715094
0.00563541
0.00426688
0.00304631
0.00203477
0.00127028
0.000736267
0.000381909
0.000170163
9.35626e-05
0.000102063
0.0105559
0.012362
0.00934665
0.00857394
0.00801818
0.00761595
0.0073264
0.0071189
0.00697175
0.00686855
0.0067973
0.00674713
0.00671541
0.00669865
0.00668445
0.00667531
0.00667161
0.00667012
0.00667002
0.00667118
0.0066729
0.00667519
0.00667775
0.00668056
0.0066835
0.00668669
0.00669008
0.00669371
0.00669756
0.00670165
0.00670602
0.0149907
0.017299
0.0189994
0.0201734
0.0209923
0.0215991
0.0220868
0.0225011
0.0228493
0.0231092
0.0232415
0.0231992
0.0229281
0.0223655
0.021493
0.0203837
0.0190546
0.0175404
0.0158946
0.0141736
0.0123507
0.0105368
0.00883182
0.00720725
0.0056813
0.00430382
0.00307524
0.00205459
0.00128117
0.000740044
0.000381785
0.000169307
9.37705e-05
0.000102461
0.0103084
0.0123228
0.0152162
0.00919121
0.00846561
0.00793825
0.0075581
0.00728475
0.00708936
0.00695112
0.00685447
0.00678797
0.00674057
0.00671211
0.00669747
0.00668148
0.00667543
0.00667099
0.00667019
0.00666999
0.0066713
0.00667301
0.00667532
0.00667781
0.00668056
0.0066835
0.00668669
0.00669008
0.00669371
0.00669754
0.00670163
0.00670601
0.0175075
0.0191336
0.0202195
0.0209515
0.0214812
0.02191
0.022294
0.0226517
0.0229706
0.0232166
0.0233468
0.0233161
0.0230739
0.0225566
0.0217334
0.0206658
0.0193622
0.0178507
0.016182
0.0144164
0.0125366
0.0106525
0.00890585
0.00726876
0.00573153
0.0043441
0.00310681
0.00207628
0.00129311
0.000744245
0.000381623
0.000168402
9.40218e-05
0.000102884
0.0100655
0.0119691
0.0151497
0.017663
0.00904296
0.0083588
0.00785982
0.00750143
0.00724407
0.00706063
0.00693115
0.00684089
0.00677899
0.00673448
0.0067092
0.00669638
0.00667901
0.00667535
0.00667055
0.00667019
0.00667002
0.00667141
0.00667312
0.00667539
0.0066778
0.00668056
0.0066835
0.00668669
0.00669009
0.00669367
0.00669749
0.0067016
0.006706
0.0192225
0.0202206
0.0208634
0.021309
0.0216648
0.0219951
0.0223296
0.0226663
0.0229783
0.0232248
0.0233634
0.023353
0.0231465
0.0226797
0.0219107
0.0208909
0.0196208
0.0181214
0.01644
0.0146393
0.012687
0.0107504
0.00898683
0.00733601
0.00578656
0.00438805
0.00314127
0.00210003
0.00130626
0.000748892
0.000381492
0.000167453
9.43247e-05
0.000103343
0.00983778
0.0115869
0.0147919
0.0175629
0.0192681
0.00889963
0.00825347
0.00778299
0.00744601
0.00720446
0.00703275
0.00691186
0.00682787
0.0067705
0.00672909
0.00670654
0.00669525
0.00667729
0.00667504
0.00667028
0.00667015
0.00667008
0.00667151
0.00667318
0.00667539
0.0066778
0.00668056
0.0066835
0.00668669
0.00669005
0.00669361
0.00669744
0.00670157
0.00670598
0.0201902
0.0207452
0.0211037
0.0213778
0.0216379
0.0219235
0.0222443
0.0225826
0.0229016
0.0231579
0.0233125
0.0233291
0.0231633
0.02275
0.0220379
0.0210692
0.0198374
0.0183569
0.0166709
0.014816
0.0128134
0.0108573
0.00907544
0.00740957
0.00584686
0.00443604
0.0031789
0.00212606
0.00132072
0.000754018
0.000381353
0.000166465
9.46637e-05
0.000103826
0.00962447
0.0112109
0.0143475
0.0173276
0.0191141
0.0201282
0.00875953
0.00814986
0.00770789
0.00739196
0.007166
0.00700579
0.00689339
0.0068157
0.00676263
0.00672444
0.00670398
0.0066936
0.0066763
0.00667453
0.00667015
0.00667008
0.00667017
0.00667154
0.00667318
0.00667538
0.0066778
0.00668056
0.0066835
0.00668664
0.00668996
0.00669354
0.00669738
0.00670154
0.00670597
0.0206088
0.0208808
0.0210687
0.0212473
0.0214644
0.0217413
0.0220719
0.022426
0.0227603
0.0230329
0.0232098
0.0232593
0.023138
0.0227799
0.0221253
0.021209
0.0200184
0.0185616
0.0168497
0.0149628
0.0129502
0.0109739
0.00917242
0.00749009
0.00591298
0.00448849
0.00322003
0.00215459
0.00133661
0.000759727
0.000381199
0.000165413
9.51064e-05
0.000104349
0.00942252
0.0108541
0.0138576
0.0170052
0.0189522
0.0199183
0.0204497
0.0086221
0.00804827
0.00763468
0.00733942
0.0071288
0.00697997
0.00687619
0.00680455
0.00675525
0.0067203
0.00670161
0.00669136
0.00667585
0.00667388
0.00667013
0.00666999
0.00667025
0.00667151
0.00667318
0.00667538
0.0066778
0.00668055
0.00668345
0.00668654
0.00668988
0.00669347
0.00669733
0.00670151
0.00670595
0.0206508
0.0207518
0.020842
0.0209764
0.0211867
0.0214796
0.0218351
0.022213
0.0225679
0.0228622
0.0230676
0.0231552
0.0230817
0.0227793
0.0221817
0.0213176
0.0201693
0.0187152
0.016996
0.0151194
0.013098
0.0111009
0.00927858
0.00757829
0.00598553
0.00454587
0.00326499
0.00218585
0.00135416
0.000765918
0.00038109
0.00016435
9.55725e-05
0.000104889
0.00922947
0.0105201
0.0133434
0.0166213
0.0187193
0.0197897
0.0201836
0.0204032
0.00848744
0.00794903
0.00756356
0.00728855
0.00709318
0.00695597
0.0068605
0.00679438
0.00674843
0.00671668
0.00669962
0.00668871
0.00667572
0.00667318
0.0066702
0.00666987
0.00667028
0.0066715
0.00667318
0.00667538
0.00667781
0.00668049
0.00668335
0.00668644
0.00668979
0.0066934
0.00669727
0.00670148
0.00670593
0.0204364
0.0204358
0.0204781
0.0206042
0.0208337
0.0211594
0.0215484
0.0219543
0.0223336
0.0226551
0.0228954
0.0230261
0.0230026
0.0227558
0.0222138
0.0214008
0.0202774
0.0188389
0.0171493
0.0152858
0.0132574
0.0112393
0.00939477
0.00767496
0.00606518
0.0046087
0.00331418
0.00222017
0.00137336
0.000772952
0.000380896
0.000163177
9.62163e-05
0.000105574
0.00904376
0.0102102
0.0128158
0.0161881
0.0184423
0.0196032
0.0200575
0.0200806
0.0201064
0.00835588
0.00785251
0.00749474
0.00723984
0.0070601
0.00693412
0.00684622
0.00678521
0.00674217
0.00671353
0.00669828
0.00668602
0.00667576
0.0066725
0.00667035
0.00666975
0.0066703
0.0066715
0.00667318
0.00667538
0.00667775
0.00668036
0.00668324
0.00668633
0.0066897
0.00669333
0.00669721
0.00670145
0.00670591
0.0200379
0.0199837
0.0200131
0.0201579
0.0204256
0.0207939
0.0212203
0.0216563
0.0220639
0.022419
0.0227007
0.0228792
0.0229077
0.0227155
0.0222272
0.0214538
0.0203625
0.0189657
0.0173092
0.015462
0.0134287
0.0113897
0.00952191
0.00778096
0.00615267
0.00467756
0.00336804
0.00225774
0.0013947
0.000780408
0.000380816
0.000162044
9.70049e-05
0.00010636
0.00886478
0.00992367
0.0122829
0.0157071
0.0181339
0.0193881
0.019882
0.0199371
0.0197264
0.019635
0.00822768
0.00775914
0.00742888
0.00719463
0.00703001
0.00691425
0.00683326
0.00677701
0.00673651
0.00671069
0.00669715
0.00668352
0.00667588
0.00667193
0.00667049
0.00666969
0.00667029
0.00667151
0.00667318
0.00667531
0.00667763
0.00668023
0.00668313
0.00668623
0.00668961
0.00669326
0.00669715
0.00670143
0.00670589
0.0195026
0.0194286
0.0194727
0.0196579
0.0199749
0.0203904
0.0208548
0.0213227
0.0217641
0.0221602
0.0224902
0.0227206
0.022802
0.0226633
0.0222245
0.0214934
0.0204468
0.0190947
0.017475
0.0156477
0.0136123
0.011553
0.00966092
0.00789719
0.00624881
0.00475311
0.00342701
0.0022991
0.00141786
0.000789063
0.000380552