/*--------------------------------*- C++ -*----------------------------------*\
  =========                 |
  \\      /  F ield         | OpenFOAM: The Open Source CFD Toolbox
   \\    /   O peration     | Website:  https://openfoam.org
    \\  /    A nd           | Version:  8
     \\/     M anipulation  |
\*---------------------------------------------------------------------------*/
FoamFile
{
    version     2.0;
    format      ascii;
    class       volScalarField;
    location    "0.01";
    object      p;
}
// * * * * * * * * * * * * * * * * * * * * * * * * * * * * * * * * * * * * * //

dimensions      [0 2 -2 0 0 0 0];

internalField   nonuniform List<scalar> 
15677
(
70.3569
70.0004
69.5865
70.0649
69.5746
69.5897
70.0398
69.6019
69.5988
69.4821
70.0145
69.6033
69.5989
69.4901
69.3938
69.9926
69.6055
69.5986
69.4893
69.3996
69.3014
69.9691
69.6079
69.5982
69.4904
69.3995
69.3054
69.1943
69.944
69.6105
69.5974
69.4907
69.4005
69.3056
69.1967
69.0677
69.9178
69.6134
69.5958
69.4909
69.4012
69.3064
69.197
69.0689
68.9138
69.8903
69.6155
69.5936
69.4911
69.4018
69.3072
69.1977
69.0691
68.9141
68.7255
69.8616
69.6172
69.5908
69.4914
69.4026
69.3081
69.1986
69.0698
68.9144
68.7251
68.495
69.8319
69.619
69.5877
69.4917
69.4034
69.3092
69.1997
69.0707
68.915
68.7253
68.494
68.2146
69.8017
69.6203
69.5846
69.492
69.4046
69.3106
69.2011
69.0719
68.9158
68.7258
68.4942
68.213
67.8762
69.7716
69.6206
69.5813
69.4927
69.4062
69.3125
69.203
69.0736
68.9172
68.7267
68.4947
68.2132
67.874
67.4719
69.745
69.6197
69.5779
69.4937
69.4085
69.3152
69.2058
69.0761
68.9191
68.7281
68.4956
68.2136
67.8741
67.469
66.994
69.7225
69.6176
69.5746
69.4951
69.4117
69.3189
69.2096
69.0796
68.9221
68.7303
68.4971
68.2146
67.8746
67.4692
66.9904
66.4356
69.7027
69.6151
69.5719
69.4971
69.4161
69.3239
69.215
69.0847
68.9266
68.7339
68.4997
68.2163
67.8757
67.4697
66.9906
66.4311
65.7902
69.6854
69.6128
69.5697
69.4996
69.4218
69.3307
69.2224
69.092
68.9332
68.7395
68.5041
68.2195
67.8777
67.4709
66.9912
66.4313
65.7848
65.0528
69.6704
69.6105
69.5682
69.5024
69.4288
69.3398
69.2325
69.1022
68.9428
68.7481
68.5112
68.2249
67.8815
67.4732
66.9925
66.4319
65.785
65.0463
64.2196
69.6574
69.6085
69.5672
69.5056
69.4363
69.3505
69.2459
69.1162
68.9565
68.7607
68.5222
68.2337
67.8881
67.4777
66.9952
66.4334
65.7855
65.0465
64.212
63.2884
69.6462
69.6066
69.5666
69.5091
69.4445
69.362
69.2619
69.1351
68.9755
68.7788
68.5385
68.2477
67.8992
67.4859
67.0006
66.4365
65.7872
65.0471
64.2121
63.2794
62.2584
69.6371
69.605
69.5665
69.5131
69.4533
69.3746
69.2792
69.1577
69.0012
68.8041
68.5623
68.2687
67.9168
67.4996
67.0104
66.4428
65.7907
65.0488
64.2125
63.2794
62.248
61.131
69.6302
69.6035
69.5667
69.5173
69.4624
69.3881
69.298
69.1823
69.0323
68.8387
68.5955
68.2994
67.9435
67.5214
67.0271
66.4545
65.798
65.0527
64.2143
63.2797
62.2479
61.1189
59.9088
69.6248
69.6021
69.5673
69.5223
69.4714
69.4028
69.3181
69.209
69.0661
68.8805
68.6411
68.3425
67.9824
67.5548
67.0539
66.4745
65.8117
65.0609
64.2184
63.2813
62.2478
61.1187
59.8951
58.5968
69.6206
69.6009
69.5681
69.528
69.4799
69.4187
69.3393
69.2378
69.103
68.926
68.6963
68.4015
68.0374
67.6036
67.095
66.507
65.8354
65.0767
64.2275
63.2855
62.2492
61.1182
59.8947
58.5812
57.201
69.6173
69.5999
69.569
69.5333
69.4879
69.4357
69.3615
69.2682
69.1427
68.9758
68.7565
68.4733
68.1128
67.6726
67.1552
66.5567
65.874
65.1043
64.2453
63.2954
62.2533
61.119
59.8935
58.5805
57.1836
55.7291
69.6146
69.5991
69.5699
69.5378
69.4957
69.452
69.3843
69.3
69.1847
69.0294
68.8225
68.5516
68.2045
67.7673
67.2404
66.6299
65.9333
65.1494
64.2769
63.315
62.2636
61.1228
59.8937
58.5786
57.1825
55.7099
54.1903
69.6124
69.5985
69.5709
69.5417
69.5033
69.4664
69.4065
69.3329
69.2288
69.0863
68.8936
68.6375
68.3046
67.8826
67.3576
66.7335
66.0208
65.2191
64.3288
63.3504
62.2849
61.1331
59.8967
58.5778
57.1796
55.7083
54.1691
52.5935
69.6106
69.5979
69.5719
69.5451
69.5104
69.4791
69.427
69.365
69.2744
69.146
68.9691
68.7302
68.4147
68.0088
67.5005
66.8763
66.145
65.3222
64.4095
63.4093
62.3239
61.1556
59.9066
58.5795
57.1775
55.7042
54.167
52.5703
50.9502
69.6092
69.5975
69.5728
69.5481
69.5168
69.4904
69.4455
69.3946
69.3191
69.2078
69.0484
68.8287
68.5336
68.1476
67.657
67.0507
66.3164
65.4688
64.5291
63.5012
62.3894
61.1978
59.9298
58.5886
57.1777
55.7004
54.1615
52.5676
50.9254
49.2645
69.6079
69.5971
69.5736
69.5509
69.5224
69.5005
69.4621
69.4213
69.3601
69.2684
69.1306
68.9323
68.6602
68.2978
67.8295
67.242
66.526
65.6714
64.6996
63.6379
62.4925
61.2697
59.9746
58.6118
57.1852
55.6985
54.1557
52.5606
50.9224
49.2391
47.3925
69.6069
69.5968
69.5744
69.5534
69.5273
69.5095
69.4769
69.4452
69.3971
69.3241
69.2114
69.0399
68.7934
68.4579
68.0163
67.4531
66.7564
65.9198
64.9357
63.8334
62.6465
61.3835
60.052
58.6583
57.2076
55.7039
54.1512
52.5526
50.9137
49.2365
47.3622
45.2944
69.6061
69.5965
69.5751
69.5557
69.5317
69.5175
69.4901
69.4666
69.4303
69.3745
69.2857
69.1457
68.932
68.6267
68.2159
67.6822
67.0111
66.1933
65.2258
64.1046
62.8674
61.5545
60.1758
58.7403
57.2549
55.7245
54.1537
52.5449
50.9032
49.2271
47.3556
45.2601
43.1702
69.6053
69.5963
69.5758
69.5577
69.5356
69.5246
69.5018
69.4856
69.46
69.4197
69.3529
69.2431
69.0684
68.8026
68.4267
67.9275
67.2882
66.4964
65.546
64.4387
63.1746
61.8004
60.3628
58.8729
57.3402
55.7714
54.1717
52.5439
50.892
49.2145
47.3417
45.2512
43.1364
41.0822
69.6047
69.5962
69.5763
69.5594
69.539
69.5308
69.5122
69.5025
69.4864
69.4601
69.4133
69.3314
69.1943
68.9761
68.6468
68.1871
67.5855
66.8268
65.9016
64.8082
63.5539
62.1435
60.6329
59.0744
57.4799
55.8586
54.2169
52.5583
50.8866
49.1998
47.3236
45.2327
43.1285
41.0465
39.0433
69.596
69.604
69.5769
69.561
69.542
69.5364
69.5213
69.5176
69.5099
69.4962
69.4674
69.4107
69.3084
69.1363
68.8642
68.4587
67.9008
67.1823
66.2903
65.2198
63.9747
62.5684
61.0108
59.3669
57.694
56.0036
54.3042
52.6005
50.8963
49.1896
47.3022
45.2084
43.1084
41.0371
39.0056
37.0611
69.5774
69.5958
69.6031
69.5623
69.5447
69.5414
69.5294
69.5309
69.5308
69.5283
69.5156
69.4818
69.4111
69.2817
69.0654
68.7277
68.2316
67.5603
66.7097
65.6711
64.4448
63.0411
61.4803
59.7775
58.0063
56.2277
54.4521
52.6861
50.934
49.1938
47.2844
45.179
43.0807
41.0137
38.9946
37.0215
35.1464
69.5636
69.578
69.5958
69.6024
69.547
69.5458
69.5366
69.5427
69.5493
69.5568
69.5585
69.5453
69.5032
69.4129
69.2484
68.9771
68.5601
67.9579
67.157
66.1595
64.9618
63.5709
62.0043
60.2893
58.4463
56.5565
54.6833
52.8346
51.0159
49.2257
47.2803
45.1516
43.0454
40.9812
38.9676
37.0092
35.1049
33.3079
69.5491
69.565
69.579
69.5957
69.6016
69.5496
69.543
69.5532
69.5656
69.5821
69.5967
69.6018
69.5855
69.5306
69.4136
69.2043
68.8653
68.354
67.6291
66.6822
65.5234
64.1556
62.5935
60.8624
58.9968
57.0217
55.0247
53.0696
51.1622
49.3019
47.3033
45.1366
43.0098
40.9388
38.9296
36.9787
35.0914
33.2647
31.5514
69.553
69.5517
69.5671
69.58
69.5956
69.601
69.5485
69.5625
69.5802
69.6045
69.6305
69.652
69.6588
69.6358
69.5621
69.4098
69.1441
68.7232
68.101
67.2358
66.1265
64.7932
63.2464
61.5094
59.6155
57.6059
55.5098
53.419
51.3972
49.4432
47.3707
45.1477
42.9843
40.8938
38.8794
36.9353
35.0573
33.25
31.5066
29.8806
69.5529
69.5577
69.5548
69.5691
69.5809
69.5955
69.6003
69.5706
69.5931
69.6244
69.6605
69.6966
69.724
69.7296
69.6949
69.5948
69.3967
69.0611
68.5421
67.7912
66.7679
65.4806
63.9612
62.2292
60.3168
58.2652
56.1215
53.9178
51.7497
49.6746
47.5033
45.2023
42.983
40.8568
38.8243
36.8772
35.0086
33.2124
31.4909
29.8344
28.2975
69.5771
69.5602
69.5624
69.5577
69.5711
69.5819
69.5954
69.5998
69.6045
69.6421
69.6872
69.7361
69.7819
69.8131
69.8136
69.7606
69.6245
69.3681
68.9471
68.3123
67.4141
66.2149
64.7354
63.0207
61.1004
59.0155
56.8148
54.5497
52.2554
50.0247
47.7262
45.3212
43.0229
40.8416
38.7747
36.8118
34.9428
33.1585
31.4498
29.8176
28.2499
26.8025
69.6136
69.5875
69.5662
69.5671
69.5606
69.573
69.5827
69.5953
69.5993
69.6577
69.7109
69.7713
69.8333
69.8874
69.9192
69.9088
69.829
69.6454
69.316
68.7923
68.0227
66.9581
65.5661
63.8821
61.9661
59.8579
57.6074
55.2691
52.8993
50.5301
48.0678
45.5291
43.1249
40.8649
38.7442
36.7493
34.8671
33.085
31.3909
29.7733
28.2323
26.7537
25.395
69.6704
69.6275
69.5956
69.5728
69.5717
69.5635
69.575
69.5836
69.5953
69.5988
69.7318
69.8025
69.879
69.9533
70.0133
70.0409
70.012
69.8949
69.65
69.2308
68.5853
67.6611
66.4111
64.8111
62.913
60.7932
58.5015
56.0955
53.636
51.1769
48.5647
45.8532
43.3123
40.9467
38.7489
36.7028
34.7915
32.9991
31.3099
29.7095
28.1847
26.7353
25.3451
24.0731
69.7492
69.6885
69.6384
69.6045
69.5794
69.5758
69.5665
69.5769
69.5844
69.5953
69.5984
69.8302
69.9196
70.0119
70.0969
70.1586
70.1755
70.1186
69.9512
69.6289
69.101
68.3134
67.2142
65.761
63.9398
61.8218
59.4996
57.0326
54.4863
51.9208
49.2048
46.3295
43.6109
41.1086
38.8078
36.6878
34.7287
32.9106
31.2142
29.6213
28.1164
26.6847
25.3259
24.0222
22.8344
69.8533
69.7725
69.7031
69.6502
69.6132
69.5858
69.5796
69.5697
69.5786
69.5852
69.5953
69.598
69.9557
70.0641
70.1712
70.2634
70.3213
70.3186
70.2216
69.9886
69.5706
68.9136
67.9626
66.6684
64.9958
62.9435
60.6035
58.0845
55.4557
52.7837
49.9455
46.9482
44.055
41.3745
38.9401
36.7217
34.6933
32.8314
31.1129
29.5162
28.0214
26.6121
25.2724
24.0024
22.7826
21.6759
69.9857
69.8834
69.7916
69.7187
69.6618
69.6216
69.5921
69.5829
69.5731
69.5803
69.586
69.5953
69.5976
70.1104
70.2374
70.3565
70.4511
70.4972
70.464
70.3125
69.9961
69.462
68.6539
67.518
66.0099
64.1042
61.8148
59.255
56.5504
53.7733
50.8097
47.6691
44.6372
41.7763
39.1672
36.821
34.7006
32.7751
31.0175
29.4026
27.9073
26.5107
25.196
23.9462
22.7623
21.6232
20.594
70.1489
70.0245
69.9078
69.8117
69.7338
69.6728
69.6295
69.5981
69.5857
69.5765
69.5819
69.5867
69.5953
69.5973
70.2962
70.4397
70.5667
70.6565
70.6807
70.6032
70.3801
69.9603
69.2878
68.3061
66.9642
65.2253
63.0762
60.5476
57.7763
54.8977
51.8073
48.5161
45.3205
42.3084
39.5179
37.0044
34.7643
32.7547
30.9401
29.2913
27.7819
26.3881
25.0886
23.8662
22.7035
21.6026
20.5406
19.5852
70.3447
70.1989
70.0553
69.9334
69.8311
69.7481
69.6832
69.6371
69.604
69.5881
69.5798
69.5834
69.5874
69.5953
69.5971
70.5134
70.6699
70.7985
70.8742
70.8636
70.7256
70.4112
69.8657
69.0315
67.8535
66.2859
64.3021
61.9029
59.1393
56.1653
52.949
49.5013
46.1295
42.9383
39.9881
37.2966
34.9003
32.7813
30.8917
29.1932
27.6553
26.2515
24.958
23.7532
22.6202
21.5413
20.5197
19.5311
18.6456
70.574
70.4087
70.2372
70.0876
69.958
69.8494
69.7616
69.693
69.6442
69.6096
69.5902
69.5829
69.5849
69.5881
69.5953
69.5969
70.7615
70.9255
71.0469
71.0965
71.0356
70.8178
70.3902
69.6953
68.6754
67.279
65.4684
63.2287
60.5788
57.585
54.2461
50.6384
47.0782
43.6898
40.55
37.6946
35.1281
32.867
30.8802
29.1167
27.5369
26.1103
24.8109
23.6152
22.502
21.4551
20.4561
19.51
18.5908
17.7714
70.8363
70.6552
70.4561
70.2777
70.1185
69.981
69.8666
69.7742
69.7021
69.6508
69.615
69.5919
69.5858
69.5861
69.5887
69.5953
69.5967
71.038
71.2017
71.3048
71.3134
71.1836
70.8645
70.2995
69.4303
68.201
66.5661
64.4975
61.9967
59.0959
55.7109
51.9423
48.1832
44.5789
41.2261
38.1757
35.4454
33.0263
30.9141
29.0668
27.4327
25.9722
24.6557
23.4582
22.3572
21.3321
20.3673
19.4442
18.5695
17.7159
16.9589
71.1294
70.9384
70.7135
70.5065
70.3163
70.1473
70.0025
69.8824
69.7858
69.7105
69.6569
69.6202
69.5932
69.5883
69.5873
69.5893
69.5954
69.5966
71.3386
71.4916
71.5622
71.5119
71.2921
70.8476
70.1199
69.0512
67.5899
65.6981
63.3623
60.595
57.2837
53.4292
49.463
45.6246
42.0337
38.76
35.8349
33.2563
31.0019
29.0483
27.3447
25.841
24.4988
23.2899
22.191
21.1809
20.2398
19.353
18.5016
17.6945
16.9025
16.2044
71.4494
71.257
71.0101
70.7762
70.5546
70.3521
70.174
70.0222
69.897
69.7964
69.7181
69.6624
69.6251
69.5943
69.5904
69.5882
69.5897
69.5954
69.5964
71.6567
71.7858
71.8066
71.6767
71.343
70.7473
69.8306
68.5378
66.8234
64.6619
62.0484
58.8574
55.0427
50.9382
46.8489
42.9932
39.4651
36.3131
33.5456
31.1403
29.0631
27.2739
25.7158
24.3415
23.115
22.0103
21.0061
20.0829
19.2214
18.4083
17.6246
16.8809
16.1458
15.5091
71.7896
71.6075
71.345
71.0878
70.8358
70.5989
70.385
70.1983
70.0402
69.9102
69.8059
69.7248
69.6673
69.6292
69.5953
69.5921
69.5891
69.5901
69.5954
69.5963
71.9831
72.0719
72.0227
71.7895
71.3159
70.542
69.4103
67.87
65.8862
63.4395
60.3948
56.6743
52.5577
48.2758
44.1288
40.3116
36.8966
33.9057
31.3229
29.1071
27.2155
25.5936
24.1803
22.9327
21.8185
20.814
19.9002
19.0593
18.273
17.5295
16.809
16.1245
15.4423
14.9181
72.1411
71.9846
71.7155
71.441
71.1614
70.8904
70.6393
70.4148
70.2202
70.0562
69.9218
69.8142
69.7306
69.6714
69.6324
69.5965
69.5935
69.5898
69.5905
69.5954
69.5963
72.3058
72.335
72.1922
71.8298
71.1886
70.2092
68.837
67.0298
64.757
61.877
58.2842
54.2139
49.86
45.4654
41.3233
37.6039
34.3506
31.5552
29.1787
27.1641
25.4627
24.0079
22.7369
21.6124
20.6061
19.6973
18.8691
18.106
17.3906
16.7125
16.051
15.4226
14.8661
14.4225
72.4916
72.3801
72.1169
71.8339
71.5317
71.2286
70.94
70.6757
70.4414
70.2395
70.0701
69.9319
69.8212
69.7352
69.6748
69.6346
69.5977
69.5944
69.5904
69.5908
69.5955
69.5962
72.6095
72.5566
72.2943
71.7745
70.9377
69.7256
68.0906
65.9935
63.2901
59.8496
55.8622
51.4949
46.9628
42.5232
38.4563
34.8947
31.8471
29.2761
27.1223
25.3161
23.8062
22.5162
21.3836
20.3776
19.4744
18.6562
17.9091
17.2194
16.5704
15.9535
15.3468
14.8563
14.39
13.9294
72.8261
72.7831
72.5421
72.2628
71.9454
71.6142
71.2893
70.9843
70.7079
70.4645
70.256
70.0819
69.9402
69.8267
69.7388
69.6774
69.636
69.599
69.5951
69.5909
69.591
69.5955
69.5961
72.876
72.7159
72.3057
71.5994
70.5383
69.0688
67.1456
64.6239
61.3509
57.4732
53.1312
48.5205
43.8803
39.4755
35.5567
32.2084
29.4043
27.0803
25.1604
23.566
22.2459
21.1167
20.1176
19.2248
18.4193
17.687
17.0162
16.3952
15.8083
15.2488
14.7786
14.3796
13.8875
13.399
73.1258
73.1798
72.9812
72.7214
72.3997
72.0467
71.6885
71.3433
71.0232
70.7355
70.484
70.2697
70.0914
69.9466
69.8307
69.7414
69.6794
69.6368
69.6004
69.5956
69.5914
69.5912
69.5955
69.5961
73.0841
72.7891
72.2013
71.2786
69.9663
68.2125
65.8721
62.773
59.0226
54.7387
50.0943
45.3116
40.6472
36.3594
32.6557
29.5687
27.0384
24.9773
23.2975
21.9147
20.7805
19.8066
18.9352
18.15
17.4369
16.7854
16.1861
15.6296
15.1007
14.6816
14.3038
13.868
13.3465
12.8173
73.3691
73.553
73.4217
73.2014
72.8895
72.5239
72.1376
71.7543
71.3903
71.0563
70.7585
70.4998
70.2804
70.0983
69.951
69.8334
69.7431
69.6809
69.6373
69.6016
69.5961
69.5917
69.5913
69.5955
69.5961
73.2094
72.7508
71.954
70.7861
69.1946
67.0311
64.1062
60.4945
56.2975
51.6646
46.7898
41.9165
37.3106
33.215
29.7847
26.9975
24.7627
22.9742
21.5359
20.3616
19.4078
18.5828
17.8328
17.1491
16.5231
15.9475
15.4151
14.9189
14.5308
14.2063
13.7927
13.3198
12.7597
12.1891
73.5307
73.8827
73.8477
73.6914
73.4074
73.0419
72.6354
72.218
71.8113
71.4299
71.0833
70.7766
70.5116
70.2877
70.1027
69.9538
69.8349
69.744
69.6818
69.6374
69.6024
69.5964
69.5919
69.5915
69.5955
69.596
73.2258
72.5728
71.5367
70.0942
68.0997
65.3461
61.8811
57.7969
53.2196
48.3077
43.2755
38.3878
33.9164
30.0801
26.9713
24.5132
22.588
21.0756
19.8764
18.9051
18.1245
17.4412
16.8061
16.2182
15.6738
15.1691
14.6993
14.3466
14.0539
13.693
13.2428
12.7293
12.1257
11.5187
73.583
74.1453
74.2402
74.1772
73.9436
73.5942
73.1784
72.7335
72.2872
71.8589
71.4619
71.1042
70.7896
70.5191
70.2919
70.105
69.9551
69.8353
69.7441
69.6823
69.6373
69.603
69.5965
69.5922
69.5916
69.5955
69.596
73.1039
72.2268
70.9208
69.0794
66.4914
63.1798
59.2305
54.7494
49.8556
44.7242
39.5998
34.7703
30.5054
26.9875
24.239
22.1304
20.5215
19.2838
18.3181
17.5423
16.9269
16.3779
15.851
15.3529
14.8849
14.4465
14.1229
13.8674
13.5388
13.1395
12.65
12.0919
11.4426
10.832
73.4952
74.3151
74.577
74.6415
74.4852
74.1725
73.7618
73.2987
72.8179
72.3447
71.8969
71.486
71.1185
70.7972
70.5228
70.2934
70.1054
69.9551
69.8348
69.7436
69.6824
69.637
69.6033
69.5968
69.5924
69.5916
69.5955
69.5961
72.8137
71.6833
69.9817
67.5444
64.3894
60.5935
56.242
51.4166
46.2494
40.9497
35.7988
31.1024
27.1134
23.9657
21.6066
19.8593
18.5676
17.5992
16.8589
16.2699
15.811
15.3886
14.9633
14.5492
14.1525
13.8646
13.6402
13.3496
12.9831
12.5429
12.0103
11.4036
10.6831
10.0633
73.2343
74.3639
74.8333
75.0638
75.0167
74.7653
74.378
73.9093
73.4018
72.8878
72.3903
71.925
71.5018
71.126
70.7999
70.523
70.2924
70.1042
69.954
69.8334
69.7425
69.682
69.6364
69.6038
69.597
69.5925
69.5916
69.5955
69.5961
72.3236
70.8153
68.5201
65.5117
61.8799
57.6843
52.9694
47.8262
42.421
37.0083
31.9047
27.4197
23.7727
21.0384
19.0887
17.7071
16.7281
16.0207
15.4958
15.0838
14.7726
14.4691
14.1388
13.8031
13.5627
13.3773
13.1188
12.7906
12.3837
11.8995
11.3202
10.6576
9.87417
9.18095
72.7646
74.2625
74.981
75.4208
75.5193
75.3587
75.0172
74.5591
74.0358
73.4872
72.9428
72.4234
71.9428
71.5092
71.1274
70.7983
70.5202
70.2894
70.1014
69.9518
69.8313
69.7408
69.6814
69.6362
69.6044
69.5971
69.5925
69.5916
69.5955
69.5961
71.5014
69.4274
66.5627
63.0865
59.0624
54.4917
49.4248
43.9841
38.3829
32.924
27.95
23.7564
20.512
18.2247
16.6956
15.6777
15.0029
14.5454
14.2249
13.9801
13.8073
13.6149
13.3734
13.2022
13.0689
12.8508
12.5559
12.1877
11.7376
11.2059
10.5753
9.86175
9.03345
8.24485
73.9798
71.9503
74.9902
75.6864
75.9714
75.9357
75.6672
75.2398
74.7147
74.1405
73.5541
72.9824
72.4437
71.9501
71.5091
71.1235
70.793
70.5148
70.2846
70.0974
69.9488
69.8285
69.739
69.6812
69.637
69.6048
69.5971
69.5924
69.5915
69.5955
69.5962
70.159
67.5499
64.2279
60.3664
55.9616
51.0153
45.6034
39.8923
34.1499
28.7245
23.9695
20.1456
17.356
15.5396
14.4342
13.7723
13.3897
13.1698
13.0421
12.954
12.9105
12.822
12.757
12.6991
12.5353
12.2824
11.9486
11.5375
11.0411
10.4584
9.77375
9.01577
8.12485
7.24028
74.8317
73.3891
70.5948
75.8313
76.3486
76.4766
76.3126
75.9405
75.4316
74.8439
74.2228
73.6023
73.0062
72.4512
71.9481
71.5024
71.1151
70.7845
70.5071
70.2781
70.0923
69.9446
69.8251
69.7382
69.6828
69.6372
69.6048
69.597
69.5922
69.5913
69.5955
69.5963
68.3316
65.3082
61.6096
57.3634
52.5684
47.2426
41.4983
35.5563
29.7428
24.4427
19.9997
16.6183
14.3255
12.9936
12.3078
11.9898
11.8855
11.8898
11.9428
12.0009
12.0781
12.1835
12.2409
12.1556
11.9593
11.6693
11.2939
10.8369
10.2907
9.65381
8.9131
8.09664
7.14373
6.16138
75.8277
74.3999
72.3341
68.7519
76.6232
76.9586
76.9355
76.6478
76.1769
75.5913
74.9456
74.282
73.631
73.0143
72.4472
71.9381
71.49
71.1027
70.7732
70.4975
70.2703
70.0858
69.9396
69.8238
69.7402
69.6837
69.6372
69.6044
69.5968
69.5919
69.5912
69.5955
69.5963
66.1515
62.7939
58.7095
54.0625
48.8659
43.1607
37.1066
30.988
25.1894
20.1166
16.0782
13.2028
11.437
10.5934
10.3168
10.3275
10.4861
10.7004
10.922
11.1165
11.4078
11.6489
11.6835
11.569
11.338
11.0082
10.5883
10.0822
9.48312
8.78938
7.98502
7.10107
6.08569
5.00793
76.7697
75.5878
73.5165
70.842
66.5674
77.3555
77.5153
77.3456
76.9391
76.3748
75.7179
75.0194
74.3176
73.6404
73.0083
72.4334
71.9212
71.4729
71.0869
70.7596
70.4863
70.2609
70.0782
69.9381
69.8263
69.7411
69.6837
69.637
69.6038
69.5965
69.5917
69.591
69.5954
69.5964
63.7086
60.0002
55.5092
50.4447
44.8368
38.7587
32.43
26.2068
20.5251
15.788
12.2417
9.92407
8.70276
8.34216
8.45953
8.78163
9.18644
9.59664
9.97508
10.4045
10.8467
11.0716
11.0819
10.9363
10.6682
10.2959
9.8285
9.27011
8.61478
7.86025
6.98653
6.03029
4.94858
3.78086
77.6443
76.7229
74.9413
72.2082
69.0075
64.1328
78.027
78.0151
77.7038
77.1845
76.5329
75.8106
75.0644
74.3296
73.6328
72.9904
72.4113
71.8985
71.4518
71.0684
70.7441
70.473
70.2498
70.0759
69.9415
69.8273
69.7411
69.6828
69.6362
69.6033
69.5964
69.5913
69.5908
69.5954
69.5966
60.9885
56.907
51.9892
46.4905
40.4649
34.0294
27.4771
21.2407
15.7919
11.5009
8.52448
6.80203
6.1305
6.24
6.73256
7.3469
7.98113
8.57334
9.21318
9.80874
10.2409
10.4487
10.4331
10.2543
9.94656
9.52887
9.01097
8.39702
7.68162
6.8616
5.91651
4.88391
3.72896
2.47576
78.45
77.7843
76.3155
73.8933
70.5564
66.925
61.4255
78.6332
78.4543
78.0077
77.3823
76.6503
75.8686
75.0808
74.3209
73.6106
72.9624
72.3821
71.8709
71.4273
71.0475
70.726
70.4577
70.2466
70.0802
69.9429
69.8273
69.7402
69.6812
69.6365
69.603
69.5961
69.5909
69.5905
69.5954
69.5967
57.9692
53.4962
48.13
42.1807
35.7351
28.9688
22.2634
16.126
11.038
7.29978
4.95716
3.85167
3.72413
4.28479
5.13079
6.01763
6.8647
7.75062
8.57593
9.16576
9.58733
9.77705
9.73382
9.51958
9.1697
8.70382
8.13226
7.4593
6.67953
5.78998
4.77229
3.65974
2.43202
1.09421
79.1812
78.7695
77.611
75.5307
72.5047
68.6729
64.5814
58.4196
79.1695
78.8297
78.255
77.5313
76.7258
75.892
75.0721
74.2946
73.5762
72.9259
72.347
71.8393
71.3999
71.0235
70.7053
70.453
70.2521
70.082
69.9429
69.8263
69.7382
69.6814
69.637
69.6024
69.5956
69.5904
69.5901
69.5954
69.5969
54.6342
49.7501
43.9115
37.4947
30.6325
23.5771
16.813
10.9087
6.31561
3.22708
1.56475
1.08308
1.48419
2.47201
3.64821
4.78772
5.96799
7.06298
7.8884
8.47252
8.88291
9.05336
8.9808
8.72888
8.33425
7.81731
7.1889
6.45336
5.60531
4.64293
3.55104
2.36003
1.05862
-0.635708
79.8321
79.6711
78.8271
77.0833
74.409
70.8956
66.5604
61.9538
55.0983
79.6315
79.1386
78.4444
77.6301
76.7595
75.8848
75.042
74.2535
73.5316
72.8823
72.3072
71.8044
71.3688
70.9964
70.6987
70.46
70.2543
70.082
69.9415
69.8238
69.739
69.682
69.6373
69.6015
69.5951
69.5898
69.5897
69.5953
69.5971
50.9686
45.6502
39.3108
32.4094
25.141
17.8598
11.1611
5.64376
1.679
-0.679119
-1.63336
-1.49841
-0.592234
0.795754
2.27817
3.80102
5.21913
6.32146
7.14757
7.72571
8.12423
8.27427
8.1706
7.87882
7.43687
6.86598
6.17756
5.37607
4.45671
3.41894
2.25292
0.986273
-0.661902
-2.64478
80.3976
80.4812
79.9551
78.5522
76.2237
73.0723
69.085
64.1952
59.0319
51.4472
80.0159
79.3789
78.5739
77.6786
76.7563
75.8519
74.9941
74.2
73.4784
72.833
72.2634
71.7649
71.334
70.9873
70.7076
70.4628
70.2543
70.0802
69.938
69.8251
69.7409
69.6824
69.6374
69.6003
69.5944
69.5891
69.5892
69.5953
69.5973
46.9553
41.1739
34.3
26.8945
19.2436
11.8317
5.35614
0.393743
-2.81875
-4.38628
-4.6239
-3.89234
-2.5103
-0.751086
1.18054
2.97797
4.41219
5.52309
6.35012
6.92197
7.30791
7.43637
7.29991
6.96609
6.47429
5.84668
5.09526
4.22495
3.23222
2.118
0.880269
-0.733925
-2.66022
-4.60251
80.8731
81.1924
80.9846
79.9291
77.9512
75.1532
71.5545
67.0508
61.5675
55.8104
47.45
80.3199
79.548
78.6429
77.6826
76.722
75.7974
74.9313
74.1363
73.4185
72.7791
72.2142
71.7209
71.322
70.9985
70.7111
70.4628
70.2521
70.0759
69.9397
69.8285
69.7425
69.6823
69.6373
69.5989
69.5934
69.5882
69.5887
69.5953
69.5976
42.5726
36.2929
28.8399
20.9138
12.9307
5.52306
-0.539397
-4.77392
-7.12797
-7.86891
-7.40034
-6.10184
-4.27722
-1.98827
0.266307
2.092
3.54427
4.66455
5.49262
6.05787
6.43055
6.53636
6.36546
5.98754
5.44352
4.75664
3.93963
2.99847
1.93121
0.742772
-0.838976
-2.73114
-4.61136
-6.48981
81.2551
81.7985
81.9047
81.2026
79.5841
77.1415
73.921
69.8342
64.7845
58.6762
52.2852
43.0856
80.5397
79.6449
78.6584
77.649
76.6616
75.725
74.8562
74.0645
73.353
72.7187
72.1595
71.7053
71.3359
71.0028
70.7111
70.46
70.2465
70.0782
69.9447
69.8314
69.7436
69.6818
69.6368
69.5976
69.5921
69.5872
69.5881
69.5953
69.598
37.7935
30.9679
22.8835
14.4351
6.20621
-1.01575
-6.44904
-9.78977
-11.2053
-11.1101
-9.96155
-8.13339
-5.68731
-3.01694
-0.716566
1.14028
2.61215
3.74246
4.5717
5.13009
5.48891
5.57106
5.3642
4.94027
4.34194
3.59363
2.70923
1.69591
0.55603
-0.97913
-2.83259
-4.67702
-6.49145
-8.2881
81.5386
82.2947
82.7058
82.3604
81.1103
79.0298
76.1878
72.5061
67.9024
62.2886
55.5264
48.4511
38.3277
80.6735
79.6773
78.6285
77.5841
76.5797
75.6379
74.7715
73.9862
73.2799
72.6517
72.1397
71.7225
71.3411
71.0028
70.7076
70.4529
70.2499
70.0859
69.9489
69.8335
69.7441
69.6808
69.636
69.5964
69.5903
69.5861
69.5874
69.5953
69.5984
32.5799
25.1415
16.3667
7.41565
-0.912983
-7.71147
-12.2843
-14.5868
-15.0172
-14.1006
-12.3117
-9.75037
-6.85691
-4.12118
-1.77078
0.11974
1.61251
2.75351
3.58412
4.13548
4.47995
4.53754
4.29339
3.82187
3.16752
2.35633
1.40348
0.319622
-1.16574
-2.97274
-4.77097
-6.5529
-8.28649
-9.98202
81.7203
82.6741
83.3789
83.3903
82.5171
80.8061
78.3467
75.0704
70.8967
65.7634
59.5738
52.1269
44.3008
33.1431
80.73
79.6553
78.5609
77.4932
76.4802
75.5392
74.6791
73.8989
73.1989
72.6271
72.1608
71.7288
71.3411
70.9985
70.6987
70.4577
70.261
70.0924
69.9519
69.8348
69.744
69.6794
69.6345
69.5953
69.5882
69.5849
69.5867
69.5953
69.5988
26.8678
18.7256
9.19851
-0.18719
-8.38632
-14.4685
-17.9504
-19.106
-18.5396
-16.8392
-14.1764
-11.0877
-8.10996
-5.30327
-2.89905
-0.972678
0.542318
1.69471
2.52697
3.07125
3.40097
3.43327
3.15082
2.63054
1.91915
1.04435
0.0246532
-1.40293
-3.15793
-4.90726
-6.63942
-8.34451
-9.97709
-11.5539
81.8098
82.931
83.9127
84.2803
83.7905
82.4579
80.385
77.5192
73.7725
69.0973
63.4308
56.6564
48.4866
39.8278
27.4759
80.7212
79.5878
78.4622
77.3811
76.3667
75.4314
74.576
73.8022
73.1688
72.6526
72.1683
71.7288
71.3359
70.9873
70.7054
70.4732
70.2706
70.0975
69.954
69.8353
69.743
69.6774
69.6323
69.5943
69.5857
69.5834
69.5859
69.5953
69.5993
20.5704
11.6082
1.28059
-8.39047
-16.1358
-21.1707
-23.3541
-23.2992
-21.7601
-19.0039
-15.713
-12.517
-9.44777
-6.5652
-4.10396
-2.13963
-0.601089
0.563493
1.39776
1.935
2.24977
2.25635
1.93498
1.36542
0.596696
-0.339993
-1.69994
-3.39402
-5.08779
-6.77067
-8.42309
-10.0342
-11.5473
-12.9795
81.8212
83.0758
84.2955
85.0137
84.9165
83.9711
82.2897
79.8401
76.5236
72.2963
67.1227
60.9248
53.5551
44.6129
35.0138
21.2477
80.6577
79.483
78.338
77.2524
76.2424
75.3112
74.4618
73.7659
73.1995
72.6616
72.1683
71.7225
71.3219
70.9965
70.7263
70.4866
70.2784
70.1015
69.9552
69.8348
69.7413
69.6747
69.6292
69.5932
69.5829
69.5819
69.5852
69.5953
69.5998
13.5693
3.64339
-7.48141
-17.1744
-24.0373
-27.6867
-28.4088
-27.1318
-24.2946
-20.7795
-17.3498
-14.0375
-10.8709
-7.90864
-5.38744
-3.38316
-1.81971
-0.642115
0.194606
0.725038
1.02494
1.0057
0.645414
0.0267663
-0.797339
-2.06994
-3.69112
-5.31955
-6.94517
-8.54788
-10.1033
-11.5957
-12.9718
-14.2487
81.767
83.1251
84.5372
85.5694
85.8734
85.3314
84.0459
82.0194
79.1393
75.3573
70.6558
64.9953
58.2695
50.2889
40.5122
29.8269
14.3452
80.5492
79.3475
78.1937
77.1107
76.1036
75.1778
74.4186
73.8025
73.2101
72.6616
72.1607
71.7052
71.3342
71.0239
70.7445
70.4979
70.2848
70.1042
69.9551
69.8333
69.7387
69.6714
69.625
69.5919
69.5797
69.5803
69.5844
69.5953
69.6004
5.67399
-5.35724
-17.1684
-26.4679
-31.9217
-33.8779
-33.0385
-30.1335
-26.3609
-22.6623
-19.0826
-15.6473
-12.3794
-9.33424
-6.75053
-4.7044
-3.11475
-1.92331
-1.08353
-0.559431
-0.273993
-0.318612
-0.717145
-1.38262
-2.53736
-4.06439
-5.61353
-7.17081
-8.71495
-10.2202
-11.6584
-13.0166
-14.24
-15.3468
81.6587
83.0942
84.6576
85.9524
86.632
86.514
85.6386
84.0416
81.6077
78.2731
74.0322
68.8737
62.7425
55.4902
46.8787
36.1888
24.2286
6.5827
80.404
79.188
78.0339
76.9521
75.9492
75.1269
74.462
73.8149
73.2101
72.6526
72.1396
71.7211
71.3694
71.0481
70.7601
70.5074
70.2896
70.1054
69.9538
69.8306
69.7351
69.6673
69.6201
69.5902
69.5764
69.5786
69.5835
69.5954
69.601
-3.40257
-15.6336
-27.8153
-36.1164
-39.5957
-39.5943
-36.6452
-32.5609
-28.5381
-24.6425
-20.9054
-17.3436
-13.9716
-10.8413
-8.19298
-6.10341
-4.48639
-3.28019
-2.43657
-1.91803
-1.64615
-1.71511
-2.14936
-3.13919
-4.53984
-5.98638
-7.45926
-8.93288
-10.3781
-11.7674
-13.0732
-14.2815
-15.3372
-16.2619
81.5063
82.9968
84.6756
86.1829
87.1921
87.4816
87.0407
85.8892
83.9137
81.0352
77.2491
72.5695
66.9777
60.3937
52.6128
43.3496
31.6425
18.1699
-2.32882
80.2299
79.0099
77.8544
76.7751
75.89
75.178
74.4764
73.8149
73.1995
72.6269
72.1598
71.7656
71.4007
71.069
70.7737
70.515
70.2925
70.105
69.9509
69.8266
69.7305
69.6624
69.6149
69.5881
69.573
69.5768
69.5827
69.5955
69.6017
-14.1292
-27.3989
-39.3741
-45.9442
-46.7893
-44.0386
-39.5295
-35.0948
-30.8063
-26.7069
-22.8107
-19.1212
-15.644
-12.4273
-9.71309
-7.57892
-5.93345
-4.71148
-3.86301
-3.34881
-3.08907
-3.17963
-3.93099
-5.15615
-6.4653
-7.82839
-9.21375
-10.5863
-11.9151
-13.1732
-14.3323
-15.3766
-16.2508
-16.9861
81.319
82.845
84.6081
86.2816
87.5732
88.2289
88.2083
87.5301
86.0399
83.6315
80.3034
76.0857
70.9967
64.998
57.9793
49.6659
39.7318
26.8705
11.6015
-12.8804
80.0335
78.8087
77.6534
76.7069
75.9498
75.1946
74.4764
73.8025
73.1687
72.652
72.2151
71.8054
71.4281
71.0875
70.7849
70.5203
70.2933
70.1026
69.9464
69.8211
69.7247
69.6568
69.6095
69.5856
69.5696
69.5749
69.5818
69.5956
69.6024
-27.212
-40.8807
-52.0001
-55.3847
-52.4268
-47.5232
-42.4959
-37.6983
-33.1413
-28.8404
-24.7875
-20.9719
-17.3905
-14.0879
-11.3074
-9.12791
-7.45306
-6.21426
-5.35956
-4.84802
-4.59741
-4.99682
-5.97057
-7.09002
-8.30626
-9.57625
-10.8574
-12.1124
-13.3097
-14.4225
-15.4208
-16.2893
-16.9736
-17.5159
81.1049
82.6501
84.4705
86.2685
87.7949
88.7751
89.134
88.9108
87.9496
86.0466
83.1876
79.4264
74.809
69.3441
62.9658
55.5316
46.6797
36.06
21.8653
4.50339
-25.9438
79.8102
78.5825
77.5753
76.7764
75.9689
75.1946
74.462
73.7657
73.1994
72.7198
72.2647
71.8404
71.4526
71.1032
70.7932
70.523
70.2918
70.0982
69.9401
69.8142
69.7179
69.6506
69.6038
69.5828
69.5664
69.573
69.5809
69.5957
69.6032
-44.3332
-56.2513
-64.3651
-62.907
-56.7833
-51.0128
-45.4783
-40.3288
-35.5161
-31.0237
-26.8211
-22.8846
-19.2025
-15.8162
-12.9703
-10.7453
-9.04039
-7.78351
-6.92084
-6.40871
-6.46266
-7.06859
-7.91861
-8.9333
-10.049
-11.2103
-12.3717
-13.4947
-14.5471
-15.5012
-16.3272
-17.0119
-17.5009
-17.8475
80.8596
82.4212
84.277
86.1627
87.8766
89.1401
89.8386
90.0188
89.5779
88.2426
85.8911
82.5902
78.4276
73.4484
67.6425
60.9127
53.0827
43.6848
32.3786
16.634
-3.02277
-44.1126
79.5576
78.494
77.6558
76.7982
75.9689
75.178
74.4184
73.8027
73.2813
72.7806
72.3086
71.872
71.4736
71.1154
70.7984
70.5227
70.2876
70.0913
69.9318
69.8057
69.7103
69.644
69.5979
69.5795
69.5633
69.571
69.58
69.5958
69.604
-65.4447
-69.5857
-76.074
-68.3882
-60.9527
-54.4078
-48.4084
-42.9423
-37.8994
-33.2326
-28.8931
-24.8449
-21.0687
-17.6029
-14.6937
-12.4239
-10.6882
-9.41189
-8.538
-8.33052
-8.57707
-9.03687
-9.76776
-10.6726
-11.6739
-12.7125
-13.7406
-14.7187
-15.6139
-16.3989
-17.0438
-17.5391
-17.8296
-17.9806
80.5811
82.154
84.0393
85.9824
87.8378
89.3433
90.3425
90.8764