/*--------------------------------*- C++ -*----------------------------------*\
  =========                 |
  \\      /  F ield         | OpenFOAM: The Open Source CFD Toolbox
   \\    /   O peration     | Website:  https://openfoam.org
    \\  /    A nd           | Version:  8
     \\/     M anipulation  |
\*---------------------------------------------------------------------------*/
FoamFile
{
    version     2.0;
    format      ascii;
    class       volVectorField;
    location    "0.01";
    object      U;
}
// * * * * * * * * * * * * * * * * * * * * * * * * * * * * * * * * * * * * * //

dimensions      [0 1 -1 0 0 0 0];

internalField   nonuniform List<vector> 
15677
(
(-0.0399202 9.6659 0)
(0.0485245 9.92197 0)
(-0.00184574 9.3779 0)
(0.0206509 9.97704 0)
(0.0198712 9.78855 0)
(0.00710161 9.14212 0)
(0.0258455 9.99519 0)
(0.0165036 9.92477 0)
(0.0109177 9.6548 0)
(0.00588556 8.97025 0)
(0.0263275 10.0025 0)
(0.02048 9.97889 0)
(0.0160603 9.85277 0)
(0.00821576 9.53822 0)
(0.00400019 8.84858 0)
(0.025555 10.0058 0)
(0.0214952 10.0032 0)
(0.0188377 9.94229 0)
(0.0137854 9.78457 0)
(0.00610388 9.44567 0)
(0.00252471 8.77047 0)
(0.0244769 10.0071 0)
(0.0217663 10.015 0)
(0.0203321 9.98562 0)
(0.0162984 9.90598 0)
(0.010519 9.72572 0)
(0.00404682 9.38048 0)
(0.00140942 8.72599 0)
(0.0230508 10.0076 0)
(0.0215771 10.0209 0)
(0.0211151 10.0078 0)
(0.0179786 9.96756 0)
(0.0127623 9.87294 0)
(0.00717402 9.68183 0)
(0.0022969 9.34072 0)
(0.000594447 8.70526 0)
(0.021339 10.0074 0)
(0.0209967 10.0236 0)
(0.02136 10.0194 0)
(0.0189005 10 0)
(0.0142828 9.95035 0)
(0.0088863 9.84742 0)
(0.00418385 9.6541 0)
(0.000923323 9.32139 0)
(4.4299e-06 8.70083 0)
(0.0194207 10.007 0)
(0.0200931 10.0238 0)
(0.0212403 10.0251 0)
(0.0193285 10.0176 0)
(0.015125 9.99197 0)
(0.0100302 9.93685 0)
(0.00521705 9.83111 0)
(0.00171949 9.64076 0)
(-0.000154929 9.31735 0)
(-0.000471728 8.70795 0)
(0.0173746 10.0063 0)
(0.0189807 10.0227 0)
(0.0208063 10.028 0)
(0.0193523 10.0272 0)
(0.0155282 10.015 0)
(0.0106473 9.98559 0)
(0.00586029 9.92856 0)
(0.00204271 9.824 0)
(-0.000281465 9.63929 0)
(-0.00106752 9.32479 0)
(-0.000903313 8.72423 0)
(0.0152447 10.0056 0)
(0.017615 10.021 0)
(0.0200532 10.0289 0)
(0.0190476 10.0322 0)
(0.0155959 10.0278 0)
(0.0109101 10.0128 0)
(0.00612095 9.98224 0)
(0.0021069 9.92613 0)
(-0.00065858 9.82544 0)
(-0.00199657 9.64757 0)
(-0.00192348 9.34137 0)
(-0.00133611 8.74854 0)
(0.0130869 10.0048 0)
(0.0160781 10.0188 0)
(0.018998 10.0282 0)
(0.0185305 10.0344 0)
(0.0154019 10.0347 0)
(0.0109039 10.0281 0)
(0.0061014 10.0124 0)
(0.00188873 9.98287 0)
(-0.00123571 9.92993 0)
(-0.00307627 9.83472 0)
(-0.00361205 9.66419 0)
(-0.00280508 9.36597 0)
(-0.00179928 8.78051 0)
(0.0109511 10.004 0)
(0.0144292 10.0165 0)
(0.0176913 10.0264 0)
(0.0177773 10.0345 0)
(0.0150126 10.0379 0)
(0.0106885 10.0364 0)
(0.00585414 10.0294 0)
(0.00142995 10.0149 0)
(-0.0020514 9.98836 0)
(-0.00435882 9.94015 0)
(-0.00542357 9.8514 0)
(-0.00527552 9.68849 0)
(-0.00376553 9.39828 0)
(-0.00231236 8.82015 0)
(0.00909127 10.0034 0)
(0.0127072 10.0141 0)
(0.0161783 10.0239 0)
(0.0168026 10.0331 0)
(0.0144488 10.0387 0)
(0.0103058 10.0405 0)
(0.00541385 10.0388 0)
(0.000744219 10.0332 0)
(-0.00311174 10.0216 0)
(-0.00589114 9.99939 0)
(-0.00748973 9.95699 0)
(-0.00788123 9.87531 0)
(-0.00708596 9.72032 0)
(-0.0048386 9.43828 0)
(-0.00288736 8.86764 0)
(0.00752218 10.0029 0)
(0.0110935 10.012 0)
(0.0145219 10.0211 0)
(0.0156524 10.0306 0)
(0.0137391 10.0377 0)
(0.00978611 10.0416 0)
(0.00480235 10.0434 0)
(-0.000163752 10.0433 0)
(-0.00443736 10.0407 0)
(-0.00771236 10.0333 0)
(-0.00986136 10.0165 0)
(-0.010827 9.98065 0)
(-0.0105764 9.90649 0)
(-0.00911019 9.75975 0)
(-0.00605337 9.48621 0)
(-0.00353643 8.9233 0)
(0.00622307 10.0024 0)
(0.00972532 10.0102 0)
(0.0129513 10.0184 0)
(0.014365 10.0274 0)
(0.012892 10.0352 0)
(0.00915515 10.0407 0)
(0.00403725 10.0448 0)
(-0.00129752 10.0483 0)
(-0.00605364 10.0514 0)
(-0.00986989 10.0529 0)
(-0.0126001 10.0507 0)
(-0.0141681 10.04 0)
(-0.014519 10.0113 0)
(-0.013601 9.94516 0)
(-0.0114013 9.80706 0)
(-0.00742994 9.54239 0)
(-0.00426434 8.98743 0)
(0.00513265 10.0019 0)
(0.00849639 10.0086 0)
(0.0115901 10.016 0)
(0.0131481 10.0241 0)
(0.0119622 10.0317 0)
(0.00843669 10.0382 0)
(0.00313451 10.0439 0)
(-0.00266364 10.0499 0)
(-0.00799223 10.0569 0)
(-0.0124149 10.0641 0)
(-0.0157741 10.0706 0)
(-0.0179852 10.0743 0)
(-0.0189765 10.0704 0)
(-0.0186815 10.0494 0)
(-0.0170302 9.99163 0)
(-0.014 9.86259 0)
(-0.00898183 9.60718 0)
(-0.00507101 9.0603 0)
(0.00423029 10.0016 0)
(0.00741307 10.0072 0)
(0.0103785 10.0139 0)
(0.0121066 10.021 0)
(0.0110948 10.0279 0)
(0.00766674 10.0344 0)
(0.002113 10.0412 0)
(-0.00426769 10.0491 0)
(-0.0102882 10.0588 0)
(-0.0154048 10.07 0)
(-0.019455 10.0822 0)
(-0.0223641 10.0943 0)
(-0.0240487 10.1045 0)
(-0.0244234 10.108 0)
(-0.0234093 10.0951 0)
(-0.0209195 10.0462 0)
(-0.0169287 9.92665 0)
(-0.0107092 9.68077 0)
(-0.00595436 9.14195 0)
(0.00348272 10.0013 0)
(0.00645265 10.006 0)
(0.00930844 10.0121 0)
(0.0112153 10.0183 0)
(0.0103712 10.0243 0)
(0.00696632 10.0302 0)
(0.000997485 10.0371 0)
(-0.00611091 10.0463 0)
(-0.012975 10.058 0)
(-0.0189016 10.0722 0)
(-0.0237216 10.0883 0)
(-0.0273942 10.106 0)
(-0.0298395 10.1245 0)
(-0.0309485 10.1418 0)
(-0.0306218 10.1532 0)
(-0.0287726 10.1489 0)
(-0.0253003 10.1093 0)
(-0.0201921 9.99948 0)
(-0.0126113 9.76334 0)
(-0.00690679 9.23243 0)
(0.00287175 10.001 0)
(0.00560266 10.005 0)
(0.00836924 10.0104 0)
(0.0104775 10.0158 0)
(0.00978761 10.0209 0)
(0.00639948 10.0262 0)
(-6.66199e-05 10.0325 0)
(-0.00818605 10.042 0)
(-0.0160791 10.0552 0)
(-0.0229645 10.0716 0)
(-0.0286575 10.0907 0)
(-0.0331721 10.1122 0)
(-0.0364556 10.136 0)
(-0.0383816 10.1615 0)
(-0.0388164 10.1866 0)
(-0.0376566 10.2064 0)
(-0.034813 10.2111 0)
(-0.030182 10.181 0)
(-0.0237856 10.0812 0)
(-0.0146724 9.85481 0)
(-0.00792007 9.33136 0)
(0.0023884 10.0008 0)
(0.00484371 10.0042 0)
(0.00755539 10.009 0)
(0.00989398 10.0135 0)
(0.00935084 10.0177 0)
(0.00596044 10.0222 0)
(-0.000990315 10.028 0)
(-0.0102564 10.037 0)
(-0.0196125 10.0507 0)
(-0.0276417 10.0688 0)
(-0.0343411 10.0902 0)
(-0.039798 10.1146 0)
(-0.0440109 10.1422 0)
(-0.0468498 10.1728 0)
(-0.0481438 10.2059 0)
(-0.047753 10.2393 0)
(-0.0455799 10.2679 0)
(-0.0415449 10.2819 0)
(-0.0355553 10.2616 0)
(-0.0276856 10.1718 0)
(-0.0168809 9.95503 0)
(-0.00898332 9.43857 0)
(0.0020171 10.0007 0)
(0.0042021 10.0036 0)
(0.00686287 10.0078 0)
(0.00946115 10.0115 0)
(0.00907295 10.0148 0)
(0.00567761 10.0185 0)
(-0.00178517 10.0236 0)
(-0.0121515 10.0321 0)
(-0.0231876 10.0454 0)
(-0.0329571 10.0641 0)
(-0.0408334 10.0873 0)
(-0.0473628 10.114 0)
(-0.0526215 10.1444 0)
(-0.0564876 10.1787 0)
(-0.058757 10.2169 0)
(-0.0592447 10.2582 0)
(-0.057822 10.3002 0)
(-0.0544115 10.338 0)
(-0.0489567 10.3614 0)
(-0.0413905 10.3509 0)
(-0.0318628 10.2711 0)
(-0.0192068 10.0635 0)
(-0.0100811 9.5532 0)
(0.00173159 10.0006 0)
(0.00369242 10.0031 0)
(0.00631877 10.0067 0)
(0.00921731 10.0097 0)
(0.00898437 10.0121 0)
(0.00557093 10.0149 0)
(-0.00242531 10.0193 0)
(-0.0138993 10.0272 0)
(-0.0265079 10.04 0)
(-0.0383293 10.0583 0)
(-0.0481594 10.0821 0)
(-0.0559318 10.1107 0)
(-0.0623876 10.1434 0)
(-0.0674297 10.1804 0)
(-0.0708167 10.2222 0)
(-0.072317 10.2686 0)
(-0.0717611 10.3186 0)
(-0.0690494 10.3697 0)
(-0.0641381 10.4167 0)
(-0.0570102 10.4497 0)
(-0.04764 10.4489 0)
(-0.0362704 10.3787 0)
(-0.0216291 10.1798 0)
(-0.0112036 9.67487 0)
(0.00150884 10.0005 0)
(0.00329017 10.0027 0)
(0.00592558 10.0058 0)
(0.00912707 10.0081 0)
(0.00905517 10.0094 0)
(0.00564614 10.0115 0)
(-0.00288652 10.015 0)
(-0.0154711 10.0223 0)
(-0.0296238 10.0345 0)
(-0.0433139 10.0522 0)
(-0.0555118 10.0756 0)
(-0.0655204 10.1049 0)
(-0.0733744 10.1395 0)
(-0.079788 10.1788 0)
(-0.0844829 10.2234 0)
(-0.0871649 10.2734 0)
(-0.0876214 10.3285 0)
(-0.0857246 10.3875 0)
(-0.0814199 10.4478 0)
(-0.0747123 10.5042 0)
(-0.0656417 10.5465 0)
(-0.0542401 10.5551 0)
(-0.0408625 10.494 0)
(-0.0241131 10.3031 0)
(-0.0123292 9.8024 0)
(0.00133302 10.0004 0)
(0.00297436 10.0024 0)
(0.0056566 10.0051 0)
(0.00916052 10.0066 0)
(0.00935534 10.007 0)
(0.00590874 10.0081 0)
(-0.00315462 10.0109 0)
(-0.0168407 10.0174 0)
(-0.0324953 10.0289 0)
(-0.0479875 10.0459 0)
(-0.0622912 10.0686 0)
(-0.0750638 10.0973 0)
(-0.0855804 10.1326 0)
(-0.0936274 10.1739 0)
(-0.0998845 10.2208 0)
(-0.103981 10.2737 0)
(-0.105641 10.3326 0)
(-0.104709 10.3968 0)
(-0.101118 10.4651 0)
(-0.0948744 10.5346 0)
(-0.0860518 10.6001 0)
(-0.0747642 10.6515 0)
(-0.0611148 10.669 0)
(-0.0455779 10.6164 0)
(-0.0266319 10.4327 0)
(-0.01345 9.93522 0)
(0.00119275 10.0004 0)
(0.00272753 10.0021 0)
(0.00548469 10.0044 0)
(0.0093019 10.0054 0)
(0.00978891 10.0049 0)
(0.00630279 10.005 0)
(-0.00321917 10.0069 0)
(-0.0179871 10.0126 0)
(-0.0350895 10.0233 0)
(-0.0522929 10.0394 0)
(-0.0686056 10.0611 0)
(-0.0837998 10.0889 0)
(-0.0976421 10.1234 0)
(-0.108928 10.1655 0)
(-0.117091 10.2145 0)
(-0.12292 10.27 0)
(-0.126054 10.3319 0)
(-0.126291 10.4001 0)
(-0.12356 10.4737 0)
(-0.117872 10.5513 0)
(-0.109312 10.6299 0)
(-0.0980435 10.7043 0)
(-0.084274 10.7643 0)
(-0.0681787 10.79 0)
(-0.0503591 10.7451 0)
(-0.0291487 10.5675 0)
(-0.0145454 10.072 0)
(0.00107968 10.0003 0)
(0.00253528 10.0019 0)
(0.00538635 10.0038 0)
(0.0095101 10.0042 0)
(0.0102921 10.0031 0)
(0.00680291 10.0023 0)
(-0.00309601 10.0032 0)
(-0.0188986 10.0079 0)
(-0.0373795 10.0176 0)
(-0.0561856 10.0327 0)
(-0.0743783 10.0532 0)
(-0.0918752 10.0798 0)
(-0.108616 10.1132 0)
(-0.123974 10.1543 0)
(-0.136067 10.2042 0)
(-0.144064 10.262 0)
(-0.149049 10.3268 0)
(-0.150754 10.3984 0)
(-0.149089 10.4761 0)
(-0.144089 10.5593 0)
(-0.135861 10.646 0)
(-0.124593 10.7335 0)
(-0.110553 10.8162 0)
(-0.0940525 10.884 0)
(-0.0753407 10.9172 0)
(-0.0551416 10.879 0)
(-0.0316357 10.7065 0)
(-0.0156196 10.2119 0)
(0.000987628 10.0003 0)
(0.00238578 10.0017 0)
(0.0053421 10.0033 0)
(0.00976205 10.0032 0)
(0.0108328 10.0015 0)
(0.00735243 9.99993 0)
(-0.00284251 10 0)
(-0.0195498 10.0036 0)
(-0.0393469 10.0121 0)
(-0.05963 10.0259 0)
(-0.0795495 10.045 0)
(-0.0991934 10.07 0)
(-0.118697 10.1019 0)
(-0.137609 10.1418 0)
(-0.154683 10.1905 0)
(-0.167369 10.2494 0)
(-0.174736 10.317 0)
(-0.178337 10.3918 0)
(-0.178054 10.4733 0)
(-0.173936 10.5608 0)
(-0.166146 10.6533 0)
(-0.154912 10.749 0)
(-0.140544 10.8447 0)
(-0.123428 10.9352 0)
(-0.103974 11.0101 0)
(-0.0825091 11.0497 0)
(-0.059871 11.0173 0)
(-0.0340777 10.8487 0)
(-0.0165833 10.3541 0)
(0.000911972 10.0003 0)
(0.00226937 10.0016 0)
(0.00533271 10.0028 0)
(0.0100379 10.0024 0)
(0.0113831 10.0001 0)
(0.00792117 9.9979 0)
(-0.00252203 9.99731 0)
(-0.0199685 9.99987 0)
(-0.0409145 10.007 0)
(-0.0625967 10.0191 0)
(-0.0840698 10.0366 0)
(-0.105676 10.0598 0)
(-0.127768 10.0898 0)
(-0.150086 10.1278 0)
(-0.171524 10.1752 0)
(-0.190225 10.2328 0)
(-0.203066 10.3017 0)
(-0.209183 10.3799 0)
(-0.210752 10.4652 0)
(-0.207838 10.5569 0)
(-0.200657 10.6541 0)
(-0.189523 10.7557 0)
(-0.174814 10.8597 0)
(-0.156971 10.9631 0)
(-0.1365 11.0604 0)
(-0.113915 11.1415 0)
(-0.0895934 11.1867 0)
(-0.0645155 11.1588 0)
(-0.0364051 10.9934 0)
(-0.0181989 10.4964 0)
(0.000849222 10.0002 0)
(0.00217834 10.0014 0)
(0.00534625 10.0025 0)
(0.0103187 10.0018 0)
(0.0119237 9.999 0)
(0.00848149 9.99619 0)
(-0.00217232 9.99502 0)
(-0.0202215 9.99678 0)
(-0.0420766 10.0026 0)
(-0.0649598 10.0129 0)
(-0.0878954 10.0282 0)
(-0.111256 10.0493 0)
(-0.135729 10.077 0)
(-0.161264 10.1128 0)
(-0.186912 10.1581 0)
(-0.210906 10.2141 0)
(-0.230884 10.2817 0)
(-0.243256 10.3616 0)
(-0.247373 10.451 0)
(-0.24616 10.5471 0)
(-0.239899 10.649 0)
(-0.229003 10.7556 0)
(-0.213966 10.8658 0)
(-0.195325 10.9776 0)
(-0.173665 11.0878 0)
(-0.149604 11.1911 0)
(-0.123748 11.2773 0)
(-0.096545 11.3268 0)
(-0.0689796 11.3027 0)
(-0.0394221 11.1383 0)
(-0.0194739 10.6664 0)
(0.000796733 10.0002 0)
(0.00210665 10.0013 0)
(0.00537271 10.0022 0)
(0.0105914 10.0013 0)
(0.0124442 9.99809 0)
(0.00901886 9.99479 0)
(-0.00181968 9.99314 0)
(-0.0203608 9.99423 0)
(-0.0429177 9.99893 0)
(-0.0666953 10.0074 0)
(-0.0908571 10.0202 0)
(-0.115872 10.0385 0)
(-0.142492 10.0637 0)
(-0.171018 10.0968 0)
(-0.200678 10.1395 0)
(-0.229815 10.1933 0)
(-0.256099 10.2593 0)
(-0.276791 10.3379 0)
(-0.287913 10.4295 0)
(-0.289157 10.5305 0)
(-0.284322 10.6375 0)
(-0.273946 10.7494 0)
(-0.258668 10.865 0)
(-0.239182 10.9832 0)
(-0.216188 11.1019 0)
(-0.190414 11.218 0)
(-0.162579 11.3262 0)
(-0.133392 11.4165 0)
(-0.103243 11.4695 0)
(-0.0738152 11.4473 0)
(-0.04173 11.3006 0)
(-0.0197285 10.8387 0)
(0.000752483 10.0002 0)
(0.00204968 10.0013 0)
(0.00540525 10.0019 0)
(0.01085 10.0009 0)
(0.0129327 9.9974 0)
(0.00952442 9.99369 0)
(-0.00147999 9.99163 0)
(-0.0204231 9.99216 0)
(-0.0435136 9.9959 0)
(-0.0679213 10.0028 0)
(-0.0929347 10.0132 0)
(-0.119315 10.0283 0)
(-0.147974 10.05 0)
(-0.179235 10.08 0)
(-0.212665 10.1197 0)
(-0.246745 10.1706 0)
(-0.279204 10.2342 0)
(-0.307271 10.3113 0)
(-0.327929 10.4018 0)
(-0.336872 10.5056 0)
(-0.334264 10.6185 0)
(-0.324902 10.7363 0)
(-0.309619 10.8577 0)
(-0.289302 10.9817 0)
(-0.264853 11.107 0)
(-0.23714 11.2317 0)
(-0.20701 11.3527 0)
(-0.175299 11.4647 0)
(-0.1427 11.5581 0)
(-0.110046 11.613 0)
(-0.0782567 11.6082 0)
(-0.0430388 11.479 0)
(-0.0203512 11.0084 0)
(0.000714885 10.0002 0)
(0.00200367 10.0012 0)
(0.00543949 10.0017 0)
(0.0110885 10.0006 0)
(0.0133844 9.99691 0)
(0.00999278 9.99287 0)
(-0.0011624 9.99046 0)
(-0.0204325 9.99053 0)
(-0.0439213 9.99342 0)
(-0.0687491 9.9989 0)
(-0.0942953 10.0071 0)
(-0.121586 10.019 0)
(-0.151925 10.0367 0)
(-0.185808 10.0627 0)
(-0.222734 10.0988 0)
(-0.261507 10.1463 0)
(-0.29995 10.2069 0)
(-0.335295 10.2815 0)
(-0.364428 10.3706 0)
(-0.384135 10.4737 0)
(-0.389838 10.5902 0)
(-0.38231 10.7149 0)
(-0.367479 10.843 0)
(-0.3465 10.9734 0)
(-0.320523 11.105 0)
(-0.290657 11.2366 0)
(-0.257918 11.3662 0)
(-0.223281 11.491 0)
(-0.187589 11.6058 0)
(-0.151861 11.7007 0)
(-0.11677 11.7727 0)
(-0.0820005 11.7854 0)
(-0.0449639 11.654 0)
(-0.0210539 11.1729 0)
(0.000683026 10.0002 0)
(0.00196578 10.0011 0)
(0.00547268 10.0016 0)
(0.0113045 10.0004 0)
(0.0137959 9.99658 0)
(0.0104217 9.9923 0)
(-0.000869166 9.98959 0)
(-0.020406 9.98928 0)
(-0.0441832 9.99141 0)
(-0.0692669 9.99562 0)
(-0.0950971 10.0018 0)
(-0.122916 10.0109 0)
(-0.154379 10.0247 0)
(-0.190438 10.0457 0)
(-0.230747 10.0771 0)
(-0.273923 10.1207 0)
(-0.318103 10.1774 0)
(-0.360564 10.2488 0)
(-0.398132 10.3356 0)
(-0.427422 10.4376 0)
(-0.445096 10.5538 0)
(-0.44638 10.683 0)
(-0.432814 10.8193 0)
(-0.411566 10.9573 0)
(-0.384137 11.0959 0)
(-0.35194 11.2341 0)
(-0.316271 11.3708 0)
(-0.278294 11.5043 0)
(-0.239015 11.6318 0)
(-0.199497 11.748 0)
(-0.16117 11.8597 0)
(-0.122907 11.9486 0)
(-0.0858164 11.9599 0)
(-0.0468266 11.8235 0)
(-0.0216885 11.3314 0)
(0.00193542 10.0011 0)
(0.000644847 10.0002 0)
(0.00550289 10.0014 0)
(0.0114971 10.0003 0)
(0.0141664 9.99638 0)
(0.0108104 9.99194 0)
(-0.000601022 9.98899 0)
(-0.0203544 9.98836 0)
(-0.0443313 9.98982 0)
(-0.0695449 9.99288 0)
(-0.0954693 9.99733 0)
(-0.123519 10.0038 0)
(-0.155639 10.0139 0)
(-0.19319 10.0302 0)
(-0.23634 10.0558 0)
(-0.283822 10.0938 0)
(-0.333444 10.1462 0)
(-0.382793 10.2137 0)
(-0.428681 10.2972 0)
(-0.46759 10.3971 0)
(-0.495937 10.5127 0)
(-0.510351 10.6422 0)
(-0.505956 10.7841 0)
(-0.48521 10.9314 0)
(-0.456629 11.0785 0)
(-0.422062 11.2243 0)
(-0.383161 11.3681 0)
(-0.341403 11.5088 0)
(-0.298011 11.6451 0)
(-0.254151 11.7738 0)
(-0.211797 11.9067 0)
(-0.170096 12.0348 0)
(-0.128697 12.1218 0)
(-0.0892749 12.1293 0)
(-0.0484245 11.9865 0)
(-0.0222167 11.4834 0)
(0.0055352 10.0014 0)
(0.00189258 10.001 0)
(0.000598897 10.0002 0)
(0.0116669 10.0002 0)
(0.0144966 9.99629 0)
(0.0111599 9.99176 0)
(-0.000356181 9.98864 0)
(-0.0202852 9.98771 0)
(-0.0443902 9.98857 0)
(-0.0696387 9.9906 0)
(-0.0955164 9.99344 0)
(-0.123574 9.99755 0)
(-0.15599 10.0044 0)
(-0.194458 10.0163 0)
(-0.239605 10.0361 0)
(-0.29075 10.0673 0)
(-0.345756 10.1135 0)
(-0.401709 10.1763 0)
(-0.45573 10.2557 0)
(-0.504217 10.3525 0)
(-0.543372 10.4663 0)
(-0.5695 10.5959 0)
(-0.57931 10.7388 0)
(-0.567924 10.8929 0)
(-0.538876 11.0506 0)
(-0.502111 11.2058 0)
(-0.4598 11.3578 0)
(-0.41382 11.5059 0)
(-0.365747 11.6496 0)
(-0.316923 11.7872 0)
(-0.269914 11.9326 0)
(-0.223908 12.0816 0)
(-0.17829 12.2073 0)
(-0.133908 12.2903 0)
(-0.0922507 12.2924 0)
(-0.0497632 12.1424 0)
(-0.0226312 11.6282 0)
(0.0118231 10.0001 0)
(0.00554594 10.0013 0)
(0.00182666 10.0009 0)
(0.000555451 10.0001 1.76898e-19)
(0.0147886 9.99628 0)
(0.0114722 9.99173 0)
(-0.000133101 9.98849 0)
(-0.0202012 9.98728 0)
(-0.0443802 9.9876 0)
(-0.0695926 9.9887 0)
(-0.0953224 9.99009 0)
(-0.123223 9.99209 0)
(-0.155663 9.99596 0)
(-0.1946 10.0038 0)
(-0.241034 10.0183 0)
(-0.294814 10.0428 0)
(-0.354467 10.0811 0)
(-0.41704 10.1369 0)
(-0.478944 10.2114 0)
(-0.53689 10.3041 0)
(-0.586911 10.4152 0)
(-0.625009 10.5436 0)
(-0.647489 10.6874 0)
(-0.651264 10.8434 0)
(-0.631569 11.0091 0)
(-0.593156 11.1762 0)
(-0.547448 11.3385 0)
(-0.496903 11.4953 0)
(-0.443551 11.6467 0)
(-0.389078 11.7919 0)
(-0.336714 11.9462 0)
(-0.285678 12.1076 0)
(-0.23488 12.2539 0)
(-0.185617 12.3752 0)
(-0.138399 12.4527 0)
(-0.0947717 12.4486 0)
(-0.0508646 12.2908 0)
(-0.0229419 11.7655 0)
(0.0150452 9.99633 0)
(0.0119726 10.0001 0)
(0.00551074 10.0012 7.88904e-19)
(0.0017642 10.0008 -5.59832e-19)
(0.000514196 10.0001 -3.52809e-19)
(0.0117483 9.99181 0)
(7.29187e-05 9.98849 0)
(-0.0201057 9.98703 0)
(-0.0443191 9.98687 0)
(-0.0694427 9.98712 0)
(-0.0949538 9.98722 0)
(-0.122582 9.98732 0)
(-0.154845 9.9885 0)
(-0.19391 9.99265 0)
(-0.241075 10.0023 0)
(-0.296617 10.0205 0)
(-0.359681 10.051 0)
(-0.428059 10.0977 0)
(-0.497982 10.1646 0)
(-0.5652 10.2523 0)
(-0.626066 10.3595 0)
(-0.67632 10.4857 0)
(-0.711869 10.6291 0)
(-0.729149 10.787 0)
(-0.725416 10.9556 0)
(-0.696133 11.1321 0)
(-0.647387 11.3075 0)
(-0.592098 11.4754 0)
(-0.532937 11.6361 0)
(-0.472057 11.7892 0)
(-0.413569 11.9513 0)
(-0.356698 12.1216 0)
(-0.299884 12.2801 0)
(-0.244639 12.4217 0)
(-0.191937 12.5372 0)
(-0.142189 12.6084 0)
(-0.0968639 12.5974 0)
(-0.0517509 12.4314 0)
(-0.0231594 11.8951 0)
(0.0119748 9.99197 0)
(0.0153569 9.99651 -1.69715e-18)
(0.0120852 10.0002 -8.33969e-19)
(0.00547773 10.0011 3.93596e-19)
(0.00170038 10.0008 -3.72118e-19)
(0.000475116 10.0001 0)
(0.000261861 9.98861 0)
(-0.0199986 9.98693 0)
(-0.0442187 9.98633 0)
(-0.0692186 9.98583 0)
(-0.0944633 9.98476 0)
(-0.12174 9.98315 0)
(-0.153683 9.98192 0)
(-0.192623 9.98277 0)
(-0.240091 9.98798 0)
(-0.296708 10.0004 0)
(-0.362122 10.0235 0)
(-0.434841 10.0612 0)
(-0.51192 10.1178 0)
(-0.588722 10.1974 0)
(-0.660343 10.2996 0)
(-0.722863 10.4224 0)
(-0.771824 10.5643 0)
(-0.803169 10.7229 0)
(-0.813617 10.8946 0)
(-0.80091 11.0751 0)
(-0.760839 11.2611 0)
(-0.70092 11.4434 0)
(-0.635542 11.6159 0)
(-0.567525 11.7787 0)
(-0.50205 11.949 0)
(-0.43845 12.1272 0)
(-0.374676 12.2945 0)
(-0.312482 12.4482 0)
(-0.253074 12.5838 0)
(-0.197281 12.6926 0)
(-0.14532 12.7568 0)
(-0.0985556 12.7384 0)
(-0.0524456 12.5639 0)
(-0.0232957 12.0169 0)
(0.000376557 9.98883 0)
(0.0123557 9.99232 3.59446e-18)
(0.0157234 9.99691 0)
(0.0121879 10.0004 8.31683e-19)
(0.00543177 10.0011 1.37259e-22)
(0.00163401 10.0007 0)
(0.000438108 10.0001 0)
(-0.0198822 9.98695 0)
(-0.0440861 9.98595 0)
(-0.0689429 9.98477 0)
(-0.0938924 9.98265 0)
(-0.120768 9.9795 0)
(-0.152292 9.97612 0)
(-0.190926 9.974 0)
(-0.238376 9.97521 0)
(-0.295532 9.98235 0)
(-0.362453 9.9986 0)
(-0.438244 10.0277 0)
(-0.520773 10.0741 0)
(-0.606286 10.1422 0)
(-0.689219 10.2359 0)
(-0.764048 10.354 0)
(-0.826695 10.4932 0)
(-0.872634 10.6512 0)
(-0.898001 10.8248 0)
(-0.899954 11.0097 0)
(-0.876858 11.2011 0)
(-0.824919 11.3954 0)
(-0.753143 11.5833 0)
(-0.677313 11.7586 0)
(-0.603992 11.939 0)
(-0.532645 12.1257 0)
(-0.460836 12.3008 0)
(-0.390596 12.4632 0)
(-0.323389 12.6106 0)
(-0.260219 12.7393 0)
(-0.20171 12.8409 0)
(-0.147836 12.8976 0)
(-0.0998814 12.8715 0)
(-0.052969 12.6885 0)
(-0.0233604 12.1312 0)
(-0.0198517 9.98706 0)
(0.000812147 9.98924 4.162e-22)
(0.0129423 9.993 0)
(0.0160613 9.99746 -8.8016e-19)
(0.012258 10.0006 1.21561e-22)
(0.00536867 10.0011 0)
(0.00156448 10.0007 0)
(0.000403039 10.0001 0)
(-0.0439286 9.9857 0)
(-0.0686285 9.98391 0)
(-0.0932723 9.98084 0)
(-0.119718 9.97632 0)
(-0.150763 9.971 0)
(-0.188963 9.96622 0)
(-0.23616 9.96383 0)
(-0.293449 9.96618 0)
(-0.361217 9.97619 0)
(-0.439058 9.99739 0)
(-0.525536 10.034 0)
(-0.617807 10.0905 0)
(-0.711223 10.1717 0)
(-0.799242 10.2809 0)
(-0.875794 10.416 0)
(-0.936797 10.5722 0)
(-0.97782 10.7465 0)
(-0.995363 10.9347 0)
(-0.987178 11.132 0)
(-0.952371 11.333 0)
(-0.887644 11.5342 0)
(-0.803487 11.7258 0)
(-0.721462 11.9193 0)
(-0.641309 12.1164 0)
(-0.560202 12.3001 0)
(-0.480649 12.4703 0)
(-0.404396 12.6263 0)
(-0.332645 12.7666 0)
(-0.266149 12.8878 0)
(-0.205288 12.9816 0)
(-0.149795 13.0305 0)
(-0.100879 12.9966 0)
(-0.0533429 12.8052 0)
(-0.0233639 12.238 0)
(-0.0438667 9.98557 0)
(-0.0193429 9.98734 -2.01443e-18)
(0.00170452 9.99003 0)
(0.0134818 9.9939 0)
(0.0163631 9.99815 2.63182e-18)
(0.0122908 10.0008 0)
(0.00528486 10.0011 0)
(0.00149225 10.0006 7.35978e-19)
(0.000369784 10.0001 0)
(-0.0682849 9.98322 0)
(-0.0926214 9.97929 0)
(-0.118632 9.97353 0)
(-0.149162 9.96649 0)
(-0.186844 9.95933 0)
(-0.233621 9.95372 0)
(-0.290744 9.95175 0)
(-0.358851 9.95608 0)
(-0.437936 9.96998 0)
(-0.527141 9.99739 0)
(-0.62442 10.0428 0)
(-0.726118 10.1111 0)
(-0.826612 10.2069 0)
(-0.91836 10.3331 0)
(-0.994866 10.4861 0)
(-1.05224 10.6598 0)
(-1.08634 10.8502 0)
(-1.09419 11.0523 0)
(-1.07429 11.2607 0)
(-1.0266 11.47 0)
(-0.948324 11.6762 0)
(-0.856867 11.8869 0)
(-0.766788 12.0976 0)
(-0.674978 12.292 0)
(-0.5846 12.4706 0)
(-0.497843 12.6343 0)
(-0.416126 12.783 0)
(-0.34034 12.9156 0)
(-0.270948 13.0288 0)
(-0.20809 13.1146 0)
(-0.151257 13.1556 0)
(-0.101589 13.1138 0)
(-0.0535868 12.9142 0)
(-0.0233154 12.3376 0)
(-0.0680458 9.98266 0)
(-0.0432011 9.98555 0)
(-0.0181153 9.98798 -2.0928e-18)
(0.00250872 9.99109 -1.97199e-18)
(0.0139979 9.99503 -3.71279e-18)
(0.0166192 9.99898 0)
(0.0122747 10.0012 -1.64571e-18)
(0.00517563 10.0011 -1.5516e-18)
(0.00141734 10.0006 7.32519e-19)
(0.000338119 10.0001 0)
(-0.0919502 9.97796 0)
(-0.117533 9.97109 0)
(-0.147541 9.9625 0)
(-0.184656 9.95323 0)
(-0.230899 9.94473 0)
(-0.287638 9.93889 0)
(-0.355703 9.9381 0)
(-0.435404 9.94532 0)
(-0.526364 9.96426 0)
(-0.62721 9.99926 0)
(-0.735177 10.0551 0)
(-0.845706 10.1368 0)
(-0.952135 10.2487 0)
(-1.04594 10.3931 0)
(-1.12037 10.5648 0)
(-1.17197 10.7561 0)
(-1.19705 10.9621 0)
(-1.19338 11.1771 0)
(-1.16033 11.3954 0)
(-1.09871 11.611 0)
(-1.01292 11.8374 0)
(-0.91186 12.0663 0)
(-0.807793 12.2745 0)
(-0.704826 12.4638 0)
(-0.605799 12.6358 0)
(-0.512478 12.792 0)
(-0.425892 12.9327 0)
(-0.346584 13.0571 0)
(-0.274717 13.162 0)
(-0.210199 13.2398 0)
(-0.152279 13.2729 0)
(-0.102047 13.2233 0)
(-0.0537209 13.0157 0)
(-0.0232235 12.4303 0)
(-0.0914046 9.97681 0)
(-0.0671038 9.98217 -2.24672e-18)
(-0.0415881 9.98583 2.20851e-18)
(-0.0170039 9.98891 -1.16536e-21)
(0.00332832 9.99246 1.96419e-18)
(0.0144815 9.9964 1.84916e-18)
(0.0168123 9.99994 3.48093e-18)
(0.0121984 10.0016 2.45744e-18)
(0.00504028 10.0011 -7.72112e-19)
(0.00133964 10.0005 0)
(0.000307897 10.0001 0)
(-0.116431 9.96895 0)
(-0.145928 9.95898 0)
(-0.182461 9.94781 0)
(-0.2281 9.93675 0)
(-0.2843 9.92744 0)
(-0.352044 9.92203 0)
(-0.431886 9.92322 0)
(-0.523835 9.9344 0)
(-0.627087 9.95968 0)
(-0.739647 10.0038 0)
(-0.857926 10.0718 0)
(-0.976376 10.1685 0)
(-1.08727 10.298 0)
(-1.18115 10.4617 0)
(-1.25125 10.6524 0)
(-1.2948 10.8611 0)
(-1.30878 11.0819 0)
(-1.29185 11.3086 0)
(-1.24433 11.5349 0)
(-1.17588 11.772 0)
(-1.07977 12.0179 0)
(-0.961779 12.2448 0)
(-0.844237 12.4481 0)
(-0.730815 12.6305 0)
(-0.62387 12.7948 0)
(-0.524679 12.9427 0)
(-0.433829 13.075 0)
(-0.351502 13.1909 0)
(-0.277562 13.2875 0)
(-0.211697 13.3572 0)
(-0.152922 13.3825 0)
(-0.102291 13.3255 0)
(-0.0537618 13.1102 0)
(-0.0230949 12.5165 0)
(-0.115498 9.96707 0)
(-0.090028 9.9757 -3.31762e-21)
(-0.0649986 9.9819 0)
(-0.0401096 9.98639 -1.81482e-21)
(-0.0158375 9.99019 0)
(0.00415372 9.99414 -1.95599e-18)
(0.0149177 9.99801 -3.68172e-18)
(0.0169333 10.0011 8.21454e-23)
(0.0120561 10.002 1.63007e-18)
(0.00487397 10.0011 -7.68005e-19)
(0.0012589 10.0005 7.24653e-19)
(0.000278955 10.0001 0)
(-0.144332 9.95587 0)
(-0.180292 9.94301 0)
(-0.225299 9.92965 0)
(-0.280864 9.91725 0)
(-0.348085 9.9077 0)
(-0.427712 9.90344 0)
(-0.520062 9.90756 0)
(-0.624797 9.9239 0)
(-0.74058 9.95699 0)
(-0.864685 10.0119 0)
(-0.992599 10.0936 0)
(-1.11772 10.2071 0)
(-1.23127 10.3555 0)
(-1.32299 10.5391 0)
(-1.38633 10.7492 0)
(-1.4195 10.9747 0)
(-1.42036 11.2092 0)
(-1.38854 11.4458 0)
(-1.33472 11.6952 0)
(-1.25619 11.9534 0)
(-1.14073 12.1985 0)
(-1.0063 12.4206 0)
(-0.876052 12.6169 0)
(-0.75302 12.7912 0)
(-0.638961 12.9469 0)
(-0.534613 13.0861 0)
(-0.440096 13.2096 0)
(-0.355231 13.317 0)
(-0.279593 13.4053 0)
(-0.212663 13.467 0)
(-0.153238 13.4848 0)
(-0.102353 13.4205 0)
(-0.0537256 13.198 0)
(-0.0229374 12.5965 0)
(-0.142975 9.95311 0)
(-0.113518 9.96521 2.4932e-18)
(-0.0872081 9.97475 -2.45794e-18)
(-0.0630412 9.98188 2.32103e-18)
(-0.0385377 9.98728 0)
(-0.0146165 9.99183 0)
(0.00497086 9.99616 1.94685e-18)
(0.0152898 9.99987 -1.8316e-18)
(0.0169627 10.0023 9.41949e-23)
(0.0118341 10.0025 8.1074e-19)
(0.00467578 10.0012 -7.6371e-19)
(0.00117476 10.0004 -7.19597e-19)
(0.000251297 10.0001 0)
(-0.178159 9.93875 0)
(-0.222536 9.92335 0)
(-0.277423 9.90819 0)
(-0.343989 9.89494 0)
(-0.423141 9.88577 0)
(-0.515446 9.8835 0)
(-0.620944 9.89167 0)
(-0.73885 9.91456 0)
(-0.867185 9.95708 0)
(-1.00238 10.0244 0)
(-1.13892 10.1218 0)
(-1.26914 10.2534 0)
(-1.38323 10.4219 0)
(-1.47031 10.6261 0)
(-1.52434 10.8551 0)
(-1.54481 11.0967 0)
(-1.53057 11.3433 0)
(-1.49323 11.6048 0)
(-1.42938 11.8772 0)
(-1.32988 12.1362 0)
(-1.19536 12.3771 0)
(-1.04529 12.5922 0)
(-0.903306 12.78 0)
(-0.771608 12.9452 0)
(-0.651268 13.0917 0)
(-0.542472 13.2217 0)
(-0.444863 13.3364 0)
(-0.357911 13.4353 0)
(-0.280916 13.5155 0)
(-0.213174 13.5695 0)
(-0.15328 13.5801 0)
(-0.102263 13.5088 0)
(-0.0536262 13.2793 0)
(-0.022756 12.6707 0)
(-0.17636 9.93498 0)
(-0.140226 9.95038 0)
(-0.109661 9.96348 2.58609e-18)
(-0.0845648 9.97403 -4.89992e-18)
(-0.0609602 9.98215 4.63009e-18)
(-0.0368652 9.98852 -4.37046e-18)
(-0.0133493 9.99386 0)
(0.00576582 9.99852 1.93759e-18)
(0.0155831 10.002 -1.82175e-18)
(0.0168787 10.0037 -1.71368e-18)
(0.0115239 10.0029 0)
(0.00444482 10.0012 7.58344e-19)
(0.00108716 10.0004 0)
(0.000225419 10 0)
(-0.219825 9.91775 0)
(-0.274024 9.90012 0)
(-0.339873 9.88357 0)
(-0.418373 9.87 0)
(-0.510301 9.86197 0)
(-0.616011 9.86272 0)
(-0.73517 9.87625 0)
(-0.866438 9.90726 0)
(-1.00708 9.96094 0)
(-1.1526 10.0426 0)
(-1.29641 10.1573 0)
(-1.4298 10.3085 0)
(-1.54206 10.4978 0)
(-1.62183 10.7227 0)
(-1.66396 10.9702 0)
(-1.66942 11.2263 0)
(-1.65076 11.4999 0)
(-1.60365 11.7868 0)
(-1.51684 12.0619 0)
(-1.39635 12.3181 0)
(-1.24348 12.5523 0)
(-1.07883 12.7584 0)
(-0.926185 12.9365 0)
(-0.78681 13.0919 0)
(-0.661028 13.2287 0)
(-0.548466 13.3495 0)
(-0.448304 13.4554 0)
(-0.359676 13.546 0)
(-0.281631 13.6183 0)
(-0.213301 13.665 0)
(-0.153092 13.6686 0)
(-0.102049 13.5907 0)
(-0.0534766 13.3547 0)
(-0.022556 12.7394 0)
(-0.217567 9.91278 0)
(-0.172683 9.93122 0)
(-0.134959 9.94778 0)
(-0.106049 9.96198 5.15487e-18)
(-0.0817784 9.97356 -4.87348e-18)
(-0.0587457 9.98274 4.6043e-18)
(-0.035095 9.99015 0)
(-0.0120414 9.9963 -2.04759e-18)
(0.006523 10.0012 0)
(0.0157803 10.0043 1.81124e-18)
(0.0166667 10.0051 0)
(0.011118 10.0034 0)
(0.00418182 10.0012 0)
(0.000998212 10.0004 7.33571e-19)
(0.000201496 10 3.53633e-19)
(-0.270687 9.89295 0)
(-0.335792 9.87344 0)
(-0.413554 9.85594 0)
(-0.504876 9.84273 0)
(-0.610377 9.83677 0)
(-0.730112 9.84175 0)
(-0.863273 9.86214 0)
(-1.00785 9.90299 0)
(-1.16026 9.96969 0)
(-1.31498 10.0675 0)
(-1.46438 10.201 0)
(-1.59872 10.373 0)
(-1.70652 10.5839 0)
(-1.77621 10.8293 0)
(-1.80379 11.0941 0)
(-1.80635 11.3795 0)
(-1.77853 11.6811 0)
(-1.70649 11.9732 0)
(-1.59633 12.2472 0)
(-1.45529 12.4976 0)
(-1.28508 12.7228 0)
(-1.10709 12.9184 0)
(-0.944959 13.0859 0)
(-0.798906 13.231 0)
(-0.668501 13.358 0)
(-0.552812 13.4696 0)
(-0.450591 13.5669 0)
(-0.360656 13.6493 0)
(-0.281831 13.7141 0)
(-0.213106 13.7537 0)
(-0.152715 13.7508 0)
(-0.101734 13.6666 0)
(-0.0532854 13.4245 0)
(-0.0223387 12.803 0)
(-0.267949 9.88658 0)
(-0.212794 9.90782 0)
(-0.165607 9.92763 5.75657e-18)
(-0.130052 9.94541 5.44495e-18)
(-0.102274 9.96071 5.14617e-18)
(-0.078838 9.97338 -4.86028e-18)
(-0.0563979 9.98369 0)
(-0.0332228 9.9922 0)
(-0.0107 9.99917 0)
(0.00722322 10.0042 3.83071e-18)
(0.0158578 10.0068 1.80035e-18)
(0.0163098 10.0066 1.69068e-18)
(0.0106143 10.0038 0)
(0.00389516 10.0013 -7.72943e-19)
(0.000910125 10.0004 -3.73211e-19)
(0.000179202 10 0)
(-0.331776 9.86443 0)
(-0.408749 9.84341 0)
(-0.499346 9.82555 0)
(-0.604345 9.81353 0)
(-0.724132 9.81076 0)
(-0.858366 9.82141 0)
(-1.00565 9.85034 0)
(-1.16321 9.90288 0)
(-1.32649 9.98452 0)
(-1.48897 10.1003 0)
(-1.64193 10.2541 0)
(-1.77474 10.4478 0)
(-1.8753 10.6805 0)
(-1.93203 10.9456 0)
(-1.95874 11.2422 0)
(-1.9532 11.5587 0)
(-1.89861 11.8687 0)
(-1.80076 12.1618 0)
(-1.66737 12.4312 0)
(-1.50664 12.6732 0)
(-1.32037 12.8875 0)
(-1.13039 13.0715 0)
(-0.959956 13.2278 0)
(-0.808203 13.3623 0)
(-0.673948 13.4795 0)
(-0.555721 13.582 0)
(-0.451886 13.6709 0)
(-0.360973 13.7456 0)
(-0.281602 13.8032 0)
(-0.212647 13.8361 0)
(-0.152187 13.8269 0)
(-0.101338 13.7369 0)
(-0.0530601 13.4891 0)
(-0.0221106 12.8619 0)
(-0.328535 9.85642 0)
(-0.261891 9.88023 0)
(-0.203492 9.90309 -1.21104e-17)
(-0.159054 9.92431 1.71228e-20)
(-0.124952 9.9433 -1.08361e-17)
(-0.0983281 9.95971 1.02379e-17)
(-0.0757431 9.97351 -4.83735e-18)
(-0.0539056 9.98503 0)
(-0.0312446 9.9947 0)