/*--------------------------------*- C++ -*----------------------------------*\
  =========                 |
  \\      /  F ield         | OpenFOAM: The Open Source CFD Toolbox
   \\    /   O peration     | Website:  https://openfoam.org
    \\  /    A nd           | Version:  8
     \\/     M anipulation  |
\*---------------------------------------------------------------------------*/
FoamFile
{
    version     2.0;
    format      ascii;
    class       volScalarField;
    location    "0.43";
    object      k;
}
// * * * * * * * * * * * * * * * * * * * * * * * * * * * * * * * * * * * * * //

dimensions      [0 2 -2 0 0 0 0];

internalField   nonuniform List<scalar> 
15677
(
0.333993
0.364682
0.294354
0.368608
0.357049
0.280647
0.370637
0.359759
0.365675
0.282433
0.371855
0.361489
0.361196
0.383063
0.288667
0.372595
0.363669
0.357602
0.368137
0.401543
0.300152
0.373031
0.365624
0.357778
0.358035
0.37999
0.419276
0.31168
0.373261
0.367162
0.359423
0.354518
0.360949
0.39322
0.434663
0.322493
0.373349
0.368293
0.361333
0.354728
0.353003
0.366842
0.406101
0.447769
0.331982
0.373351
0.369074
0.36305
0.356309
0.351082
0.353452
0.373515
0.418209
0.458603
0.340371
0.373316
0.369563
0.364432
0.358197
0.351901
0.348754
0.354753
0.38066
0.429025
0.467746
0.347451
0.373276
0.369821
0.365455
0.359944
0.353694
0.348356
0.347124
0.357094
0.387622
0.438752
0.475246
0.353679
0.373249
0.369924
0.366143
0.361383
0.355647
0.349742
0.345336
0.346306
0.359692
0.394417
0.447161
0.481673
0.35888
0.373239
0.369938
0.366543
0.362467
0.357411
0.351702
0.346188
0.34291
0.345881
0.362604
0.40066
0.454642
0.486971
0.36353
0.373238
0.36992
0.366732
0.3632
0.358847
0.353664
0.348055
0.343075
0.340852
0.3459
0.365471
0.40654
0.460989
0.49156
0.367593
0.373239
0.369906
0.366789
0.363626
0.359906
0.355374
0.35014
0.344732
0.340279
0.339188
0.346041
0.368391
0.41173
0.466622
0.495362
0.371193
0.373239
0.369899
0.36679
0.363825
0.360598
0.356722
0.352072
0.346862
0.341684
0.337809
0.337744
0.346384
0.371083
0.416535
0.471309
0.498723
0.374493
0.373239
0.369897
0.36678
0.363883
0.36098
0.357677
0.353674
0.348959
0.343816
0.338908
0.335577
0.336535
0.346791
0.373729
0.42062
0.475443
0.501628
0.377301
0.373238
0.369896
0.366772
0.363892
0.361129
0.358264
0.354874
0.350779
0.346045
0.340999
0.336366
0.333585
0.335471
0.347319
0.376024
0.424319
0.478857
0.504188
0.380147
0.373237
0.369896
0.366766
0.363888
0.361172
0.358535
0.355666
0.352205
0.348053
0.343323
0.338402
0.334051
0.33178
0.334597
0.347773
0.37819
0.427344
0.481847
0.506568
0.38236
0.373236
0.369896
0.366762
0.363883
0.361177
0.35864
0.356066
0.353203
0.349684
0.345495
0.340808
0.336017
0.331941
0.330184
0.333812
0.348268
0.379958
0.430046
0.484321
0.508599
0.385
0.373235
0.369896
0.366759
0.36388
0.361171
0.358674
0.356239
0.353749
0.350872
0.347315
0.343129
0.338488
0.333848
0.330045
0.328762
0.333158
0.348651
0.381582
0.432148
0.486471
0.510734
0.386754
0.373235
0.369896
0.366757
0.363877
0.361163
0.358679
0.356303
0.354013
0.351554
0.348691
0.345125
0.340943
0.336388
0.331895
0.328366
0.327523
0.332586
0.349024
0.382803
0.434033
0.48827
0.512426
0.389366
0.373235
0.369896
0.366755
0.363875
0.361156
0.358675
0.356319
0.354129
0.351899
0.349524
0.346673
0.343103
0.338982
0.334509
0.330184
0.326903
0.326471
0.332107
0.349298
0.383933
0.435384
0.489867
0.514568
0.390782
0.373235
0.369896
0.366754
0.363872
0.36115
0.358669
0.356315
0.354171
0.352059
0.349975
0.347634
0.344824
0.341313
0.337238
0.332884
0.328712
0.325698
0.325615
0.33176
0.349556
0.384677
0.436671
0.491175
0.515997
0.393394
0.373235
0.369895
0.366753
0.36387
0.361146
0.358662
0.356306
0.354179
0.352121
0.350205
0.348166
0.345938
0.343206
0.339724
0.335764
0.331536
0.327562
0.324753
0.324985
0.331457
0.349739
0.385419
0.437456
0.492557
0.518518
0.394755
0.373235
0.369895
0.366753
0.363869
0.361143
0.358656
0.356297
0.354173
0.352136
0.350307
0.348441
0.346589
0.344441
0.341779
0.338454
0.334612
0.330532
0.326671
0.324075
0.324562
0.331424
0.349999
0.385859
0.438399
0.493451
0.520154
0.50414
0.373236
0.369894
0.366753
0.363867
0.361141
0.358651
0.356289
0.354162
0.35213
0.35034
0.348566
0.346952
0.345162
0.34318
0.340726
0.337472
0.333754
0.329818
0.326223
0.323852
0.32458
0.331508
0.350225
0.386346
0.438843
0.495453
0.528835
0.708924
0.373236
0.369894
0.366753
0.363866
0.361139
0.358647
0.356282
0.35415
0.352118
0.350341
0.348611
0.347133
0.345562
0.34405
0.342257
0.339872
0.336882
0.333467
0.3298
0.326294
0.323985
0.324769
0.331736
0.350532
0.386703
0.439762
0.496012
0.545539
0.882475
0.373236
0.369893
0.366753
0.363865
0.361138
0.358644
0.356276
0.35414
0.352104
0.350327
0.348615
0.347206
0.345761
0.344569
0.343177
0.341598
0.339684
0.336951
0.333657
0.330074
0.326659
0.324407
0.325236
0.332205
0.350962
0.387119
0.440445
0.495713
0.558212
1.02236
0.373237
0.369893
0.366753
0.363864
0.361137
0.358641
0.356272
0.354131
0.352092
0.350309
0.348602
0.34722
0.345844
0.34485
0.343713
0.342744
0.341651
0.339919
0.337367
0.334257
0.330803
0.327485
0.325277
0.326133
0.332993
0.351535
0.387726
0.440187
0.494202
0.567513
1.14286
0.373237
0.369892
0.366753
0.363863
0.361136
0.358638
0.356269
0.354124
0.352081
0.350291
0.348582
0.347205
0.345866
0.344977
0.343997
0.343463
0.342889
0.342044
0.340613
0.338328
0.335497
0.332233
0.328985
0.326729
0.327438
0.334095
0.352359
0.388207
0.43926
0.491021
0.573842
1.23995
0.373237
0.369892
0.366753
0.363862
0.361136
0.358636
0.356266
0.354118
0.352072
0.350276
0.348561
0.347179
0.345855
0.345013
0.34413
0.34388
0.34367
0.34343
0.342982
0.342022
0.340151
0.337564
0.334403
0.331132
0.328713
0.329189
0.335552
0.353371
0.388525
0.437334
0.485604
0.577905
1.31104
0.373237
0.369891
0.366754
0.363861
0.361136
0.358634
0.356263
0.354113
0.352064
0.350263
0.348543
0.347152
0.34583
0.345001
0.344179
0.344097
0.344134
0.344322
0.344589
0.344791
0.344353
0.342836
0.340453
0.337349
0.33395
0.331295
0.331397
0.337369
0.354562
0.38846
0.434065
0.478819
0.58046
1.36473
0.373238
0.369891
0.366754
0.36386
0.361135
0.358632
0.356262
0.354108
0.352058
0.350252
0.348527
0.347128
0.3458
0.344969
0.344183
0.344184
0.344383
0.344868
0.345667
0.346696
0.347548
0.34765
0.346472
0.34426
0.341114
0.337514
0.334478
0.334095
0.339544
0.355869
0.388145
0.429743
0.472024
0.582637
1.40696
0.369891
0.373241
0.366754
0.36386
0.361135
0.35863
0.35626
0.354104
0.352053
0.350242
0.348513
0.347106
0.345772
0.344933
0.344158
0.344199
0.344497
0.34518
0.346357
0.347997
0.349795
0.351372
0.352033
0.351174
0.349045
0.34578
0.341831
0.338311
0.337254
0.342045
0.357416
0.387431
0.425232
0.465656
0.584872
1.44161
0.366754
0.369901
0.373249
0.363859
0.361135
0.358629
0.356259
0.354101
0.352048
0.350233
0.348501
0.347087
0.345747
0.344899
0.344124
0.344181
0.344534
0.345344
0.34678
0.348866
0.351382
0.354052
0.356407
0.357634
0.357021
0.3549
0.351364
0.346959
0.342751
0.340882
0.345207
0.359343
0.38648
0.420824
0.459918
0.587523
1.47122
0.363859
0.366771
0.369921
0.373257
0.361135
0.358628
0.356258
0.354097
0.352045
0.350226
0.348491
0.347071
0.345725
0.344869
0.344089
0.34415
0.344532
0.345421
0.347034
0.349439
0.352494
0.356011
0.359633
0.362808
0.364558
0.364122
0.361854
0.357932
0.352854
0.347818
0.345386
0.349048
0.361411
0.385579
0.416722
0.454906
0.590525
1.49731
0.361135
0.36388
0.366805
0.369942
0.373265
0.358626
0.356257
0.354095
0.352042
0.350219
0.348483
0.347057
0.345706
0.344842
0.344057
0.344118
0.344513
0.345451
0.347186
0.349822
0.353279
0.357449
0.362073
0.366719
0.370707
0.372935
0.372518
0.369981
0.365441
0.359538
0.354086
0.351033
0.353197
0.363659
0.384733
0.412983
0.450598
0.593996
1.5209
0.358625
0.361163
0.363925
0.36684
0.369964
0.373273
0.356257
0.354092
0.352039
0.350213
0.348476
0.347045
0.34569
0.344818
0.344028
0.344088
0.344491
0.345459
0.347277
0.35009
0.353854
0.358531
0.363948
0.369778
0.375468
0.380257
0.382821
0.382301
0.379243
0.37392
0.367775
0.36186
0.357241
0.357625
0.366044
0.38415
0.409622
0.446952
0.597725
1.54254
0.356256
0.358656
0.361218
0.36397
0.366876
0.369986
0.373282
0.35409
0.352037
0.350208
0.34847
0.347034
0.345675
0.344798
0.344003
0.344061
0.344469
0.345459
0.347336
0.350285
0.354303
0.359386
0.365441
0.37223
0.379313
0.386063
0.391538
0.394333
0.393435
0.389682
0.384345
0.377949
0.370363
0.363918
0.362287
0.368609
0.383718
0.406633
0.443888
0.601777
1.56271
0.354088
0.356292
0.35872
0.361276
0.364017
0.366913
0.370009
0.373291
0.352035
0.350203
0.348465
0.347024
0.345664
0.34478
0.343982
0.344038
0.34445
0.345457
0.347381
0.350436
0.354667
0.360107
0.366697
0.374288
0.382527
0.390902
0.398614
0.404695
0.407436
0.405978
0.402505
0.397196
0.38904
0.379479
0.370974
0.367143
0.371305
0.383734
0.404114
0.441265
0.605919
1.58151
0.352034
0.354126
0.356365
0.358786
0.361335
0.364065
0.36695
0.370033
0.373299
0.350199
0.348461
0.347015
0.345654
0.344765
0.343963
0.344018
0.344433
0.345456
0.347419
0.350564
0.354972
0.360733
0.367821
0.37611
0.385345
0.395108
0.404704
0.413314
0.419714
0.422226
0.421383
0.418301
0.411187
0.400902
0.389092
0.378328
0.372152
0.374031
0.383882
0.401939
0.439109
0.610239
1.59925
0.350195
0.352076
0.354204
0.356441
0.358854
0.361395
0.364115
0.366989
0.370057
0.373309
0.348457
0.347007
0.345645
0.344751
0.343947
0.344001
0.344419
0.345456
0.347454
0.350678
0.35524
0.36128
0.368842
0.377816
0.38795
0.398941
0.410179
0.420961
0.430187
0.436744
0.440421
0.440378
0.435486
0.426127
0.413384
0.399087
0.385894
0.377304
0.376797
0.38422
0.400161
0.437282
0.614513
1.61586
0.348455
0.350236
0.352162
0.354286
0.356519
0.358923
0.361457
0.364166
0.367029
0.370082
0.373318
0.346999
0.345639
0.344739
0.343934
0.343987
0.344408
0.345457
0.347487
0.350782
0.355483
0.361773
0.369764
0.379421
0.390478
0.402617
0.415347
0.428056
0.439734
0.449439
0.457815
0.462968
0.461087
0.453834
0.441818
0.426331
0.409351
0.393599
0.382541
0.37958
0.384773
0.398641
0.435812
0.618859
1.63161
0.346992
0.348499
0.350324
0.352252
0.354369
0.356599
0.358994
0.361521
0.364218
0.36707
0.370108
0.373328
0.345633
0.344727
0.343922
0.343975
0.344399
0.345459
0.347517
0.350877
0.355705
0.362224
0.370608
0.3809
0.392921
0.406296
0.420462
0.434971
0.448859
0.461321
0.4734
0.484125
0.487694
0.483249
0.473109
0.458074
0.439597
0.419772
0.401368
0.387805
0.382397
0.385506
0.397453
0.434579
0.623063
1.64632
0.345629
0.347031
0.348591
0.350415
0.352343
0.354455
0.356681
0.359068
0.361587
0.364272
0.367112
0.370134
0.373337
0.344716
0.343912
0.343964
0.344391
0.345462
0.347546
0.350966
0.35591
0.362639
0.371388
0.382273
0.395217
0.409941
0.425714
0.44201
0.458011
0.473008
0.488398
0.503587
0.513201
0.514346
0.506635
0.493101
0.474707
0.453032
0.430246
0.409133
0.393056
0.385208
0.386309
0.396496
0.433624
0.627274
1.6603
0.344707
0.345668
0.347117
0.348686
0.350508
0.352438
0.354544
0.356765
0.359143
0.361654
0.364327
0.367155
0.370161
0.373347
0.343903
0.343955
0.344384
0.345465
0.347573
0.351047
0.356097
0.363022
0.37211
0.383552
0.397378
0.413423
0.431019
0.449418
0.467574
0.485058
0.503581
0.522897
0.537286
0.544804
0.542646
0.530996
0.513583
0.491539
0.466503
0.440679
0.416833
0.398252
0.388033
0.387146
0.395784
0.432832
0.63128
1.67329
0.343897
0.344732
0.345751
0.347205
0.348785
0.350605
0.352536
0.354635
0.356852
0.359221
0.361723
0.364384
0.367198
0.370188
0.373356
0.343947
0.344378
0.345467
0.347597
0.351121
0.356269
0.363374
0.372776
0.384744
0.399411
0.416734
0.436165
0.457066
0.477866
0.497965
0.519677
0.543078
0.561907
0.574329
0.578683
0.572322
0.556084
0.53436
0.50841
0.479892
0.45099
0.424415
0.403362
0.390849
0.388027
0.395217
0.432248
0.635261
1.68567
0.343942
0.343913
0.344793
0.345837
0.347297
0.348888
0.350705
0.352636
0.354729
0.356942
0.359301
0.361794
0.364442
0.367242
0.370213
0.373365
0.344371
0.34547
0.347619
0.35119
0.356427
0.363697
0.373391
0.38585
0.401317
0.419874
0.441122
0.464619
0.488676
0.512159
0.537374
0.56516
0.588463
0.60543
0.614564
0.6146
0.6031
0.581647
0.555243
0.52518
0.493098
0.461109
0.431833
0.408361
0.393636
0.388931
0.394829
0.431771
0.638995
1.6971
0.344368
0.343931
0.34395
0.344853
0.345928
0.347393
0.348994
0.350807
0.35274
0.354826
0.357033
0.359383
0.361867
0.3645
0.367284
0.370239
0.373374
0.34547
0.347639
0.351252
0.35657
0.363992
0.373956
0.386875
0.403098
0.42284
0.44588
0.471991
0.49948
0.527396
0.557353
0.590199
0.618472
0.640112
0.653592
0.657912
0.652345
0.634731
0.607459
0.576062
0.541729
0.506037
0.470978
0.439051
0.413227
0.396372
0.389861
0.394528
0.43145
0.642695
1.70801
0.345475
0.34433
0.3439
0.343993
0.344918
0.346025
0.347492
0.349104
0.350914
0.352847
0.354926
0.357128
0.359467
0.361939
0.364556
0.367325
0.370263
0.373382
0.347655
0.351308
0.356702
0.364263
0.374475
0.38782
0.404755
0.425627
0.45042
0.479127
0.51014
0.543001
0.579364
0.61931
0.653681
0.680847
0.698874
0.706796
0.704414
0.691765
0.667003
0.633332
0.596672
0.557956
0.51864
0.480553
0.44604
0.41794
0.399045
0.390798
0.394358
0.431194
0.646119
1.71804
0.347678
0.3454
0.344246
0.343859
0.34405
0.344986
0.346128
0.347595
0.349218
0.351023
0.352956
0.355028
0.357224
0.359551
0.362008
0.36461
0.367365
0.370287
0.373391
0.351358
0.35682
0.364509
0.374949
0.38869
0.40629
0.428236
0.454726
0.485982
0.520607
0.558795
0.602325
0.652298
0.696354
0.731078
0.754847
0.76631
0.765735
0.754226
0.732763
0.699744
0.659105
0.61695
0.573783
0.530856
0.489798
0.452778
0.422489
0.401643
0.391742
0.394238
0.431055
0.649517
1.72762
0.351414
0.34754
0.345219
0.344154
0.343824
0.344117
0.345058
0.346235
0.347702
0.349335
0.351136
0.353069
0.355133
0.357319
0.359632
0.362076
0.364663
0.367403
0.370311
0.373399
0.356925
0.364732
0.375383
0.389489
0.407708
0.430666
0.458785
0.492528
0.530835
0.574622
0.625758
0.687899
0.747676
0.796109
0.828338
0.844192
0.844306
0.831151
0.807504
0.775256
0.732808
0.684648
0.636798
0.589147
0.542644
0.498689
0.459249
0.426862
0.404157
0.39268
0.394213
0.430947
0.652627
1.7353
0.357036
0.351195
0.347191
0.345029
0.344075
0.343798
0.344192
0.345135
0.346347
0.347814
0.349456
0.351254
0.353184
0.355238
0.357412
0.359711
0.362142
0.364715
0.367441
0.370333
0.373406
0.364932
0.375775
0.39022
0.409014
0.432924
0.462594
0.498748
0.540768
0.590281
0.649432
0.726267
0.807472
0.880135
0.929233
0.95172
0.951988
0.934147
0.903424
0.864243
0.819113
0.766053
0.70985
0.656139
0.604002
0.553977
0.507209
0.465443
0.431052
0.40658
0.393609
0.394228
0.430938
0.655301
1.74176
0.365132
0.356712
0.350615
0.346827
0.344859
0.344006
0.343781
0.344272
0.345218
0.346463
0.34793
0.349581
0.351374
0.353298
0.35534
0.357502
0.359788
0.362206
0.364765
0.367477
0.370355
0.373414
0.37613
0.390885
0.410215
0.435015
0.466155
0.504632
0.550345
0.605597
0.673351
0.767991
0.876444
0.982196
1.06293
1.1022
1.10369
1.07882
1.03571
0.98225
0.924159
0.864118
0.799332
0.734617
0.674914
0.61831
0.564837
0.515349
0.471355
0.435055
0.408908
0.394521
0.394269
0.43095
0.657503
1.74873
0.376474
0.364674
0.355805
0.350013
0.346495
0.344703
0.343946
0.343773
0.344357
0.345308
0.346582
0.348052
0.349708
0.351494
0.353409
0.355439
0.35759
0.359863
0.362268
0.364814
0.367513
0.370377
0.373421
0.391492
0.411314
0.436947
0.469475
0.510176
0.559515
0.620475
0.697658
0.813274
0.953904
1.09938
1.22213
1.29763
1.31305
1.28152
1.22231
1.14731
1.0666
0.986666
0.909952
0.832483
0.758864
0.693078
0.63205
0.575214
0.523104
0.476982
0.438871
0.411137
0.395417
0.394324
0.430982
0.659944
1.75632
0.392063
0.375849
0.363311
0.354868
0.349453
0.346184
0.344559
0.343897
0.343777
0.344446
0.345407
0.346705
0.348178
0.349834
0.351612
0.353517
0.355536
0.357675
0.359936
0.362328
0.364861
0.367547
0.370398
0.373425
0.412322
0.438727
0.472561
0.51538
0.568249
0.634887
0.722457
0.861622
1.0375
1.22653
1.39755
1.52132
1.5759
1.55408
1.47916
1.37822
1.26627
1.15492
1.05095
0.956223
0.865329
0.782512
0.710595
0.645207
0.585104
0.530475
0.482326
0.442499
0.413267
0.396174
0.394396
0.431035
0.662574
1.76456
0.413251
0.391237
0.37385
0.36191
0.353991
0.348921
0.345893
0.344427
0.343857
0.343793
0.344536
0.345514
0.346831
0.348306
0.349957
0.351727
0.353623
0.35563
0.357758
0.360007
0.362387
0.364907
0.36758
0.370408
0.373425
0.440371
0.475421
0.520251
0.576533
0.648839
0.74771
0.912017
1.12425
1.35803
1.58026
1.75907
1.86727
1.88659
1.81615
1.68972
1.54175
1.38953
1.24545
1.11609
1.00249
0.897688
0.805493
0.727444
0.657776
0.59451
0.537468
0.487392
0.445941
0.415028
0.396831
0.394471
0.431155
0.66552
1.77356
0.441857
0.412177
0.388361
0.371811
0.360592
0.353151
0.34841
0.345623
0.344306
0.343827
0.34383
0.344627
0.34563
0.346955
0.348432
0.350076
0.351839
0.353725
0.355722
0.357838
0.360076
0.362444
0.364952
0.367597
0.370408
0.373425
0.47808
0.524798
0.58437
0.66234
0.773247
0.963283
1.21145
1.48927
1.76309
2.00017
2.17015
2.24798
2.21955
2.09105
1.907
1.70852
1.51423
1.33648
1.18117
1.04832
0.929382
0.827743
0.743605
0.669754
0.603437
0.544088
0.492184
0.448771
0.41653
0.397563
0.394599
0.431268
0.668675
1.78333
0.480441
0.440484
0.408093
0.385451
0.369888
0.359326
0.352341
0.347917
0.345372
0.344195
0.343796
0.34389
0.344718
0.34575
0.347077
0.348556
0.350193
0.351948
0.353824
0.355812
0.357917
0.360143
0.3625
0.364974
0.367597
0.370408
0.373425
0.529053
0.591778
0.675399
0.798816
1.01434
1.29705
1.61706
1.94109
2.23684
2.47276
2.61926
2.6535
2.56634
2.37203
2.12591
1.87493
1.63797
1.42653
1.24536
1.09331
0.96025
0.84921
0.759068
0.681148
0.611896
0.550346
0.496114
0.451174
0.418183
0.398387
0.394729
0.431509
0.672233
1.79403
0.532788
0.478715
0.434731
0.403997
0.3827
0.368033
0.3581
0.35156
0.347447
0.345137
0.344094
0.343761
0.343967
0.34481
0.34587
0.347197
0.348677
0.350307
0.352055
0.353921
0.355898
0.357993
0.360208
0.362527
0.364974
0.367597
0.370408
0.373425
0.598801
0.688033
0.824163
1.0643
1.37966
1.73941
2.1112
2.46395
2.7665
2.98725
3.09695
3.07553
2.92004
2.65367
2.34251
2.03821
1.75888
1.51441
1.30798
1.1371
0.990149
0.869848
0.773829
0.691967
0.6199
0.555475
0.499446
0.453808
0.420005
0.399306
0.394942
0.431725
0.676032
1.80562
0.604954
0.530618
0.47063
0.429018
0.400116
0.38004
0.366233
0.356913
0.350808
0.347001
0.34492
0.344005
0.343733
0.344054
0.344901
0.34599
0.347314
0.348795
0.350418
0.352159
0.354015
0.355983
0.358067
0.36024
0.362527
0.364974
0.367597
0.370408
0.373425
0.700258
0.849074
1.11253
1.45837
1.85517
2.27168
2.67836
3.04557
3.34184
3.53457
3.59496
3.50683
3.27479
2.93169
2.55383
2.19636
1.87561
1.59924
1.36848
1.17942
1.01896
0.889627
0.787891
0.702222
0.626467
0.559823
0.50309
0.456697
0.422014
0.400349
0.395152
0.432129
0.680368
1.81833
0.711055
0.602249
0.519165
0.462694
0.423595
0.396355
0.377452
0.364486
0.355767
0.350089
0.346582
0.344722
0.343927
0.343718
0.344144
0.344994
0.346108
0.347429
0.348911
0.350526
0.35226
0.354107
0.356065
0.358103
0.36024
0.362527
0.364975
0.367597
0.370408
0.373421
0.873341
1.15861
1.53268
1.96375
2.42166
2.8784
3.30635
3.67584
3.95386
4.10637
4.10566
3.9409
3.62565
3.20269
2.75768
2.34796
1.98724
1.68041
1.4265
1.22006
1.04661
0.90853
0.801264
0.710654
0.632037
0.564577
0.50708
0.459869
0.424237
0.401511
0.395494
0.432494
0.684974
1.83205
0.707783
0.894752
0.585389
0.508145
0.455144
0.418332
0.392692
0.374937
0.362794
0.354664
0.349403
0.346192
0.344542
0.343864
0.343716
0.344235
0.345089
0.346224
0.347543
0.349024
0.350632
0.352359
0.354197
0.356106
0.358103
0.36024
0.362527
0.364975
0.367597
0.370397
0.373414
1.20225
1.60239
2.06493
2.56082
3.06336
3.54698
3.98469
4.34554
4.59406
4.69468
4.62184
4.37187
3.96843
3.46405
2.95252
2.49212
2.0932
1.75754
1.48178
1.25888
1.07303
0.92655
0.81229
0.717816
0.638133
0.569781
0.511452
0.463356
0.426695
0.402842
0.395821
0.43313
0.690305
1.84709
0.681304
0.892038
1.23991
0.569679
0.497664
0.447806
0.413199
0.389125
0.372496
0.36116
0.353606
0.348753
0.345831
0.344386
0.343817
0.343727
0.344325
0.345187
0.346337
0.347655
0.349133
0.350736
0.352454
0.354241
0.356106
0.358103
0.36024
0.362527
0.364975
0.36758
0.370376
0.373406
1.66736
2.15878
2.68924
3.23318
3.76684
4.26611
4.70358
5.04585
5.25417
5.29166
5.13661
4.79445
4.29966
3.7138
3.13734
2.62832
2.1932
1.83043
1.53417
1.29579
1.09819
0.941435
0.821669
0.725662
0.644808
0.57548
0.516246
0.467191
0.429423
0.404321
0.39635
0.433709
0.69593
1.86327
0.657095
0.849276
1.23813
1.72281
0.55494
0.487461
0.440647
0.408197
0.385658
0.370133
0.359587
0.352595
0.348143
0.34551
0.344253
0.343785
0.343753
0.344411
0.345287
0.346447
0.347766
0.34924
0.350837
0.352502
0.354241
0.356106
0.358103
0.36024
0.362527
0.364952
0.367546
0.370355
0.373398
2.2454
2.80731
3.3883
3.9662
4.51956
5.02503
5.45366
5.76829
5.92603
5.88962
5.64351
5.20403
4.6166
3.95058
3.31156
2.75633
2.28714
1.89901
1.58364
1.33077
1.11895
0.954106
0.83196
0.734264
0.652125
0.581728
0.521509
0.471416
0.432445
0.406035
0.396848
0.43467
0.702552
1.881
0.634798
0.809157
1.1746
1.72305
2.31896
0.540707
0.477493
0.433669
0.403331
0.3823
0.367854
0.358079
0.351641
0.347588
0.345231
0.344141
0.343762
0.343798
0.344494
0.345389
0.346554
0.347875
0.349345
0.350887
0.352501
0.354241
0.356106
0.358104
0.36024
0.362499
0.364907
0.367512
0.370333
0.37339
2.91542
3.52955
4.14601
4.74581
5.30945
5.81355
6.22621
6.50465
6.60152
6.48108
6.13659
5.59669
4.91715
4.17355
3.47493
2.87612
2.37506
1.96334
1.63019
1.35947
1.13659
0.968011
0.843256
0.743704
0.660153
0.588584
0.527291
0.476074
0.435815
0.407931
0.397652
0.435556
0.709475
1.89993
0.61374
0.771655
1.11227
1.64088
2.32239
3.0065
0.526856
0.467768
0.426884
0.398613
0.379057
0.365665
0.35665
0.350766
0.347091
0.344993
0.344045
0.343736
0.343858
0.344575
0.345491
0.346659
0.347982
0.349396
0.350886
0.352501
0.354241
0.356106
0.358104
0.360208
0.362443
0.36486
0.367476
0.37031
0.373382
3.6577
4.30777
4.94658
5.55829
6.12513
6.62251
7.01319
7.24696
7.27261
7.05883
6.61052
5.96931
5.19993
4.38225
3.62745
2.98788
2.45714
2.02352
1.66814
1.38375
1.15591
0.983276
0.855667
0.754071
0.668967
0.596114
0.53365
0.481218
0.439555
0.410158
0.398398
0.436972
0.717795
1.92069
0.593661
0.736291
1.05137
1.55839
2.2236
3.0136
3.76429
0.513368
0.45831
0.420307
0.394054
0.375939
0.363586
0.355336
0.349981
0.346647
0.344786
0.343966
0.343714
0.343927
0.344654
0.345593
0.346764
0.348036
0.349395
0.350886
0.352501
0.354241
0.356106
0.358067
0.360142
0.362386
0.364813
0.367439
0.370286
0.373374
4.45279
5.12429
5.77437
6.39072
6.95668
7.44406
7.8072
7.98727
7.93126
7.6161
7.06083
6.3196
5.46409
4.57661
3.76933
3.09186
2.5336
2.0723
1.70012
1.41023
1.17706
1.00004
0.869312
0.765468
0.678657
0.604394
0.540652
0.486903
0.443745
0.41261
0.399601
0.438302
0.726385
1.9426
0.574452
0.702978
0.991677
1.47568
2.1235
2.89963
3.77415
4.57099
0.500257
0.449146
0.413956
0.389669
0.372974
0.36167
0.354152
0.349276
0.346254
0.34461
0.3439
0.3437
0.344
0.344734
0.345699
0.346813
0.348034
0.349394
0.350886
0.352501
0.354241
0.356065
0.357992
0.360074
0.362327
0.364764
0.367402
0.370263
0.373365
5.28109
5.96143
6.61457
7.23201
7.79618
8.27164
8.60117
8.71749
8.56952
8.14682
7.48399
6.64607
5.70932
4.75686
3.90096
3.18841
2.59534
2.11327
1.73482
1.43908
1.20022
1.01846
0.884324
0.77801
0.68932
0.613508
0.548372
0.493199
0.448404
0.415527
0.400713
0.440236
0.736955
1.97077
0.556052
0.67172
0.933399
1.39237
2.02203
2.7839
3.64542
4.58099
5.40494
0.487554
0.440307
0.40785
0.385499
0.370241
0.359941
0.353086
0.348645
0.345908
0.344459
0.343847
0.343695
0.344077
0.344819
0.345752
0.346808
0.348035
0.349394
0.350886
0.352502
0.354196
0.355982
0.357915
0.360005
0.362266
0.364713
0.367363
0.370238
0.373356
6.12277
6.80222
7.45456
8.07375
8.63791
9.09957
9.38789
9.4292
9.17979
8.64587
7.87745
6.94795
5.93579
4.92344
4.02279
3.26612
2.64705
2.15757
1.77245
1.4705
1.22556
1.0387
0.900851
0.791824
0.701066
0.623554
0.556894
0.500175
0.453654
0.418725
0.402494
0.44195
0.749604
2.00463
0.538418
0.642571
0.87703
1.30846
1.9187
2.66606
3.51524
4.43662
5.41051
6.24487
0.475298
0.431824
0.402046
0.381655
0.367772
0.358382
0.352128
0.348082
0.345606
0.344329
0.343806
0.343701
0.344164
0.344855
0.345749
0.346807
0.348035
0.349395
0.350887
0.352454
0.354106
0.355897
0.357836
0.359934
0.362204
0.364662
0.367324
0.370213
0.373347
6.95851
7.63222
8.28493
8.9108
9.47767
9.92244
10.1596
10.1137
9.75508
9.10918
8.2397
7.22522
6.144
5.07696
4.1205
3.33108
2.70282
2.20541
1.8132
1.50467
1.25328
1.06093
0.919054
0.807051
0.714021
0.63464
0.566313
0.507927
0.459501
0.422582
0.404132
0.444993
0.767332
2.03813
0.521531
0.615495
0.823153
1.2243
1.8132
2.54562
3.38288
4.29212
5.24795
6.23988
7.07053
0.463532
0.42378
0.396699
0.378185
0.365545
0.356976
0.351267
0.347581
0.34534
0.344217
0.343777
0.34373
0.344207
0.344842
0.345752
0.346807
0.348035
0.349397
0.350837
0.352357
0.354013
0.355809
0.357756
0.359861
0.36214
0.364609
0.367283
0.370187
0.373337
7.7719
8.4405
9.10076
9.73995
10.3123
10.7344
10.9075
10.7624
10.2893
9.53398
8.57029
7.47841
6.33471
5.19951
4.202
3.40099
2.76289
2.25703
1.8573
1.54181
1.28358
1.08535
0.939106
0.823849
0.728322
0.646889
0.576742
0.516539
0.466133
0.426797
0.407209
0.448203
0.785293
2.07157
0.505389
0.590381
0.772419
1.14045
1.70549
2.42197
3.24791
4.14622
5.0879
6.05421
7.0476
7.86316
0.452379
0.416387
0.391876
0.375055
0.363535
0.355711
0.350495
0.347135
0.345106
0.344124
0.343778
0.343734
0.3442
0.344841
0.345752
0.346808
0.348036
0.349345
0.350734
0.352258
0.353918
0.35572
0.357673
0.359786
0.362075
0.364555
0.367241
0.37016
0.373328
8.55
9.22246
9.89805
10.5586
11.1393
11.5279
11.6224
11.3667
10.7777
9.91897
8.86965
7.70847
6.48593
5.3014
4.28948
3.47611
2.82752
2.31265
1.90495
1.58211
1.31665
1.11215
0.961194
0.842389
0.744124
0.660441
0.5883
0.526149
0.473534
0.432902
0.410564
0.452895
0.806838
2.104
0.490112
0.567068
0.725448
1.0577
1.5957
2.29469
3.10948
3.99867
4.92836
5.87563
6.83144
7.81242
8.60823
0.442144
0.409736
0.387529
0.372233
0.361724
0.354572
0.349802
0.346735
0.344906
0.344075
0.343768
0.343711
0.344205
0.344842
0.34575
0.346814
0.347983
0.349239
0.35063
0.352156
0.353821
0.355628
0.357588
0.35971
0.362008
0.364499
0.367198
0.370134
0.373318
9.2851
9.96603
10.666
11.3573
11.9521
12.2962
12.2933
11.9192
11.2175
10.2642
9.13889
7.88926
6.61105
5.41036
4.38321
3.5567
2.89693
2.37248
1.95634
1.62577
1.35269
1.14153
0.985513
0.862853
0.761598
0.675449
0.601141
0.536862
0.483562
0.440546
0.415597
0.457453
0.828054
2.13606
0.476078
0.545544
0.682649
0.977056
1.48421
2.16357
2.9668
3.84843
4.76933
5.70097
6.62938
7.55731
8.51348
9.30031
0.432962
0.403754
0.383613
0.369689
0.360092
0.353548
0.349179
0.346382
0.344775
0.344037
0.343741
0.343713
0.344206
0.344844
0.345754
0.346765
0.347874
0.349131
0.350523
0.352052
0.353722
0.355534
0.357501
0.359631
0.361939
0.364443
0.367155
0.370107
0.373309
9.97438
10.6802
11.421
12.1432
12.7429
13.0252
12.9093
12.4141
11.6074
10.5707
9.348
8.03784
6.7441
5.52657
4.48341
3.64298
2.97133
2.43672
2.01166
1.67296
1.3919
1.17369
1.01226
0.885435
0.780925
0.692096
0.61542
0.5511
0.496309
0.449653
0.420415
0.463681
0.854113
2.16662
0.46346
0.526117
0.64417
0.899806
1.37163
2.02852
2.81915
3.69435
4.60961
5.53044
6.43659
7.32528
8.21135
9.13127
9.92355
0.424736
0.398375
0.380088
0.367398
0.358622
0.352623
0.348624
0.346121
0.344691
0.344
0.343745
0.343714
0.344203
0.344859
0.345702
0.346659
0.347764
0.349021
0.350414
0.351945
0.35362
0.355437
0.357411
0.359551
0.361868
0.364385
0.367111
0.370081
0.3733
10.6118
11.3644
12.1682
12.9213
13.5072
13.7019
13.4606
12.848
11.9483
10.8052
9.51833
8.1946
6.88505
5.65014
4.59023
3.73514
3.05091
2.50554
2.07108
1.72385
1.43443
1.20882
1.04163
0.910333
0.802308
0.710562
0.63429
0.569127
0.510456
0.459377
0.427227
0.470311
0.879177
2.19658
0.452147
0.508765
0.611089
0.828137
1.25891
1.88966
2.66593
3.53523
4.44774
5.36264
6.25328
7.11
7.94208
8.77503
9.65976
10.4685
0.417373
0.393541
0.376917
0.365335
0.357294
0.351797
0.3482
0.345962
0.344639
0.344007
0.343747
0.343716
0.344212
0.344825
0.345596
0.346554
0.347654
0.348908
0.350303
0.351836
0.353515
0.355339
0.357319
0.359468
0.361795
0.364327
0.367069
0.370056
0.373291
11.1972
12.0249
12.911
13.6928
14.2354
14.3113
13.9396
13.2205
12.204
10.9939
9.69612
8.35911
7.03373
5.78104
4.70376
3.83329
3.1358
2.57907
2.13471
1.77856
1.48044
1.24707
1.07382
0.937751
0.825929
0.734879
0.658048
0.588648
0.525776
0.470866
0.434095
0.478645
0.910509
2.22462
0.442029
0.493173
0.583174
0.764763
1.14827
1.74734
2.5066
3.36985
4.28209
5.19584
6.07767
6.91149
7.69914
8.46137
9.23485
10.0898
10.9343
0.410783
0.389198
0.374064
0.363471
0.356105
0.351151
0.34795
0.345888
0.34465
0.34401
0.343747
0.343743
0.344171
0.34474
0.345494
0.346447
0.347541
0.348792
0.350189
0.351724
0.353408
0.355237
0.357225
0.359385
0.361724
0.364272
0.367028
0.370031
0.373282
11.7362
12.6735
13.6548
14.4453
14.9097
14.8391
14.3423
13.4926
12.4065
11.188
9.88026
8.53067
7.18971
5.9191
4.82396
3.93748
3.22607
2.65739
2.20264
1.83718
1.53002
1.28859
1.10897
0.967851
0.856878
0.765264
0.683468
0.609669
0.542763
0.483265
0.443215
0.488238
0.94057
2.25184
0.433003
0.479134
0.559333
0.711042
1.04426
1.60323
2.34081
3.19694
4.1108
5.02802
5.90774
6.72725
7.4822
8.18545
8.86817
9.57957
10.4072
11.3188
0.404884
0.385298
0.371491
0.361802
0.35516
0.350778
0.347851
0.345903
0.344654
0.344007
0.343779
0.343744
0.344086
0.344661
0.345392
0.346337
0.347428
0.348674
0.350073
0.351609
0.353298
0.355134
0.357129
0.359302
0.361654
0.364218
0.366988
0.370008
0.373274
12.24
13.3261
14.4006
15.1616
15.5031
15.2747
14.6262
13.7032
12.6105
11.3854
10.0693
8.70823
7.35235
6.06395
4.95066
4.04764
3.32172
2.74051
2.27489
1.89974
1.58323
1.33347
1.14721
1.00699
0.895132
0.797408
0.710558
0.632364
0.56119
0.497718
0.452941
0.499503
0.977753
2.2769
0.424966
0.466504
0.538696
0.666102
0.950173
1.46235
2.1697
3.01527
3.93186
4.85679
5.74109
6.55484
7.28768
7.94672
8.55402
9.15045
9.797
10.597
11.6209
0.399603
0.381786
0.369187
0.36046
0.354623
0.350647
0.347872
0.345908
0.344649
0.344051
0.343795
0.343719
0.344011
0.344583
0.345292
0.346225
0.347313
0.348554
0.349954
0.351493
0.353185
0.355029
0.357034
0.359222
0.361586
0.364165
0.366949
0.369985
0.373265
12.7279
13.9934
15.142
15.8352
15.9849