/*--------------------------------*- C++ -*----------------------------------*\
  =========                 |
  \\      /  F ield         | OpenFOAM: The Open Source CFD Toolbox
   \\    /   O peration     | Website:  https://openfoam.org
    \\  /    A nd           | Version:  8
     \\/     M anipulation  |
\*---------------------------------------------------------------------------*/
FoamFile
{
    version     2.0;
    format      ascii;
    class       volVectorField;
    location    "0.44";
    object      U;
}
// * * * * * * * * * * * * * * * * * * * * * * * * * * * * * * * * * * * * * //

dimensions      [0 1 -1 0 0 0 0];

internalField   nonuniform List<vector> 
15677
(
(-0.0398956 9.66601 0)
(0.0484811 9.92202 0)
(-0.00182007 9.37863 0)
(0.0206318 9.97705 0)
(0.0198719 9.78897 0)
(0.00730411 9.14197 0)
(0.0258137 9.99519 0)
(0.0164993 9.92496 0)
(0.0111563 9.65469 0)
(0.00648176 8.96176 0)
(0.0262952 10.0025 0)
(0.0204978 9.979 0)
(0.0165076 9.85273 0)
(0.0091027 9.53193 0)
(0.00515411 8.81842 0)
(0.0255239 10.0058 0)
(0.021508 10.0033 0)
(0.0193384 9.94221 0)
(0.0153209 9.78063 0)
(0.00796476 9.42131 0)
(0.00424154 8.70391 0)
(0.0244489 10.0071 0)
(0.0217691 10.0149 0)
(0.0209079 9.98547 0)
(0.0181835 9.90356 0)
(0.0138234 9.70961 0)
(0.00692213 9.32322 0)
(0.00355459 8.61164 0)
(0.0230298 10.0076 0)
(0.0216164 10.0207 0)
(0.0217458 10.0076 0)
(0.0201004 9.9661 0)
(0.0169106 9.86345 0)
(0.012435 9.64255 0)
(0.00598252 9.23802 0)
(0.00297886 8.5373 0)
(0.0213296 10.0075 0)
(0.0210284 10.0234 0)
(0.0219918 10.0191 0)
(0.0211567 9.99922 0)
(0.0189784 9.94524 0)
(0.0155924 9.82406 0)
(0.0111054 9.58138 0)
(0.00511215 9.16545 0)
(0.00245155 8.47816 0)
(0.0194254 10.007 0)
(0.0201364 10.0236 0)
(0.0218946 10.0249 0)
(0.0216076 10.0173 0)
(0.0201138 9.98969 0)
(0.0176929 9.92455 0)
(0.014177 9.78717 0)
(0.00975312 9.5272 0)
(0.00425895 9.10525 0)
(0.00193493 8.43277 0)
(0.0173911 10.0064 0)
(0.0190341 10.0225 0)
(0.021405 10.0279 0)
(0.0215902 10.0273 0)
(0.020612 10.0146 0)
(0.0188191 9.98036 0)
(0.0162142 9.90546 0)
(0.0126151 9.754 0)
(0.0083195 9.48099 0)
(0.00337796 9.05723 0)
(0.0014005 8.40009 0)
(0.0152692 10.0056 0)
(0.0176732 10.0208 0)
(0.0206028 10.0288 0)
(0.0211921 10.0327 0)
(0.0206093 10.0289 0)
(0.0192589 10.0122 0)
(0.0172316 9.97247 0)
(0.0144825 9.88889 0)
(0.0108501 9.72569 0)
(0.00675491 9.44354 0)
(0.0024288 9.02131 0)
(0.000825832 8.37984 0)
(0.0131152 10.0048 0)
(0.0161374 10.0187 0)
(0.0194634 10.0281 0)
(0.0204613 10.0352 0)
(0.0201884 10.0369 0)
(0.0191596 10.0307 0)
(0.0175081 10.0111 0)
(0.015285 9.9668 0)
(0.0124243 9.87586 0)
(0.00882154 9.70328 0)
(0.00500999 9.41555 0)
(0.00137888 8.99753 0)
(0.000184614 8.37175 0)
(0.0109739 10.0041 0)
(0.0144726 10.0165 0)
(0.0180392 10.0265 0)
(0.0194071 10.0356 0)
(0.0194068 10.0411 0)
(0.0186089 10.0414 0)
(0.0171967 10.0338 0)
(0.0152866 10.0121 0)
(0.0128911 9.9642 0)
(0.00996133 9.86731 0)
(0.00646784 9.68782 0)
(0.00304056 9.39767 0)
(0.000201601 8.98601 0)
(-0.000467275 8.37579 0)
(0.00911341 10.0034 0)
(0.0127154 10.0141 0)
(0.0163629 10.0242 0)
(0.0180329 10.0346 0)
(0.0182772 10.0427 0)
(0.0176547 10.0474 0)
(0.0163879 10.0472 0)
(0.0146384 10.0389 0)
(0.012488 10.016 0)
(0.0099507 9.96554 0)
(0.00701341 9.86424 0)
(0.00373229 9.68025 0)
(0.000809214 9.3905 0)
(-0.00110492 8.987 0)
(-0.00122272 8.39198 0)
(0.00753132 10.0029 0)
(0.011034 10.0121 0)
(0.0144822 10.0216 0)
(0.0163512 10.0325 0)
(0.0168004 10.0424 0)
(0.016315 10.0502 0)
(0.0151267 10.0549 0)
(0.0134326 10.0549 0)
(0.0113597 10.0468 0)
(0.0089911 10.0236 0)
(0.00636119 9.9717 0)
(0.00350422 9.8676 0)
(0.000561555 9.68151 0)
(-0.00172997 9.39461 0)
(-0.00259217 9.00064 0)
(-0.00206772 8.42054 0)
(0.00621069 10.0024 0)
(0.00958092 10.0104 0)
(0.0126289 10.0191 0)
(0.0143911 10.0297 0)
(0.0149797 10.0407 0)
(0.0145926 10.0506 0)
(0.0134307 10.0588 0)
(0.0117122 10.0643 0)
(0.00959696 10.0653 0)
(0.00721532 10.0582 0)
(0.00466885 10.0357 0)
(0.00202337 9.98358 0)
(-0.000634943 9.87837 0)
(-0.00308883 9.6924 0)
(-0.00459227 9.41049 0)
(-0.00425551 9.0271 0)
(-0.0030003 8.46146 0)
(0.00508613 10.002 0)
(0.00824701 10.0089 0)
(0.010957 10.0169 0)
(0.012405 10.0268 0)
(0.0128308 10.0379 0)
(0.0124872 10.0493 0)
(0.0113025 10.06 0)
(0.00949173 10.0692 0)
(0.00723933 10.0762 0)
(0.0047092 10.0791 0)
(0.00205168 10.0739 0)
(-0.000603447 10.0531 0)
(-0.00315569 10.0021 0)
(-0.00546979 9.89741 0)
(-0.00725697 9.71367 0)
(-0.00780087 9.43851 0)
(-0.00609736 9.06639 0)
(-0.00401533 8.51472 0)
(0.00413984 10.0016 0)
(0.00704542 10.0076 0)
(0.00940247 10.0149 0)
(0.0105641 10.0241 0)
(0.0106243 10.0348 0)
(0.0100069 10.0467 0)
(0.00874122 10.059 0)
(0.00677152 10.071 0)
(0.00429628 10.0821 0)
(0.00150565 10.0914 0)
(-0.00141404 10.097 0)
(-0.00428385 10.0948 0)
(-0.00694261 10.0768 0)
(-0.00925585 10.028 0)
(-0.0110459 9.92554 0)
(-0.0119668 9.74587 0)
(-0.0113659 9.47888 0)
(-0.00811989 9.11854 0)
(-0.00510997 8.5801 0)
(0.0033448 10.0013 0)
(0.00596136 10.0064 0)
(0.0079713 10.0131 0)
(0.00883107 10.0217 0)
(0.0085612 10.0317 0)
(0.00745375 10.0433 0)
(0.00575308 10.0564 0)
(0.0035503 10.0704 0)
(0.0007642 10.0844 0)
(-0.00239324 10.0981 0)
(-0.00570575 10.1106 0)
(-0.00895648 10.1198 0)
(-0.0119351 10.1215 0)
(-0.0144515 10.1074 0)
(-0.0163412 10.0622 0)
(-0.0173922 9.9634 0)
(-0.0172248 9.78944 0)
(-0.0152815 9.53169 0)
(-0.0103085 9.18325 0)
(-0.00627051 8.65719 0)
(0.00267968 10.0011 0)
(0.00498575 10.0055 0)
(0.00665589 10.0116 0)
(0.0072148 10.0194 0)
(0.00661088 10.0288 0)
(0.00506375 10.0399 0)
(0.00269266 10.0528 0)
(-0.00016407 10.0677 0)
(-0.00335929 10.0839 0)
(-0.00699688 10.1008 0)
(-0.0108318 10.118 0)
(-0.0146133 10.1346 0)
(-0.0180918 10.1484 0)
(-0.0210288 10.155 0)
(-0.0232108 10.1457 0)
(-0.0244503 10.1052 0)
(-0.0245166 10.0115 0)
(-0.0230189 9.84459 0)
(-0.0195288 9.59681 0)
(-0.0126524 9.26024 0)
(-0.00748895 8.7455 0)
(0.00214755 10.0009 0)
(0.0041094 10.0046 0)
(0.00545253 10.0102 0)
(0.00571773 10.0173 0)
(0.00478991 10.0261 0)
(0.00280628 10.0365 0)
(-0.000162576 10.0489 0)
(-0.00393754 10.0637 0)
(-0.00806263 10.0811 0)
(-0.0123096 10.1004 0)
(-0.0168097 10.121 0)
(-0.0212771 10.1425 0)
(-0.0254245 10.1641 0)
(-0.0289735 10.1834 0)
(-0.0316649 10.1958 0)
(-0.033271 10.1923 0)
(-0.0335935 10.1576 0)
(-0.0324019 10.0703 0)
(-0.0293193 9.91136 0)
(-0.024075 9.67399 0)
(-0.0151183 9.34884 0)
(-0.00874119 8.84413 0)
(0.00173794 10.0008 0)
(0.00335663 10.0039 0)
(0.00435606 10.0089 0)
(0.00434101 10.0155 0)
(0.00310746 10.0235 0)
(0.000707099 10.0332 0)
(-0.00284778 10.0449 0)
(-0.00743806 10.0593 0)
(-0.0128014 10.0766 0)
(-0.0183152 10.0971 0)
(-0.0236474 10.1203 0)
(-0.0289768 10.1455 0)
(-0.033975 10.1724 0)
(-0.0383233 10.1998 0)
(-0.0417239 10.2255 0)
(-0.0439082 10.2446 0)
(-0.0446473 10.2478 0)
(-0.0437489 10.2199 0)
(-0.0410057 10.1397 0)
(-0.0360751 9.98954 0)
(-0.0288711 9.76266 0)
(-0.0176835 9.44838 0)
(-0.010008 8.95233 0)
(0.0014196 10.0006 0)
(0.00273865 10.0034 0)
(0.00340422 10.0079 0)
(0.00308437 10.0138 0)
(0.00156913 10.0211 0)
(-0.00121778 10.03 0)
(-0.00532776 10.041 0)
(-0.0107105 10.0546 0)
(-0.017171 10.0714 0)
(-0.024323 10.0919 0)
(-0.0313232 10.1165 0)
(-0.0377256 10.1445 0)
(-0.0437877 10.1752 0)
(-0.0491448 10.2083 0)
(-0.0534579 10.2425 0)
(-0.0564241 10.2754 0)
(-0.0577806 10.3018 0)
(-0.0573152 10.3126 0)
(-0.0548616 10.292 0)
(-0.0502571 10.2198 0)
(-0.043213 10.0788 0)
(-0.0338605 9.86216 0)
(-0.0202819 9.55782 0)
(-0.0112231 9.06843 0)
(0.00116819 10.0006 0)
(0.00223178 10.003 0)
(0.00261852 10.0071 0)
(0.00199631 10.0123 0)
(0.000178767 10.0188 0)
(-0.00295753 10.027 0)
(-0.00757894 10.0371 0)
(-0.0137097 10.0497 0)
(-0.0212313 10.0657 0)
(-0.0298332 10.0857 0)
(-0.038959 10.1102 0)
(-0.0474963 10.1398 0)
(-0.0548842 10.1736 0)
(-0.0615029 10.2108 0)
(-0.0669651 10.2509 0)
(-0.0709293 10.2927 0)
(-0.0731051 10.3334 0)
(-0.0732558 10.3679 0)
(-0.0712075 10.3867 0)
(-0.0668394 10.3741 0)
(-0.0600556 10.3102 0)
(-0.0506445 10.1783 0)
(-0.0389243 9.97154 0)
(-0.0227956 9.67579 0)
(-0.0120969 9.19056 0)
(0.000966805 10.0005 0)
(0.00181284 10.0027 0)
(0.00197121 10.0064 0)
(0.00110429 10.0111 0)
(-0.0010076 10.0169 0)
(-0.00450437 10.0241 0)
(-0.00958448 10.0333 0)
(-0.0164034 10.0449 0)
(-0.024926 10.0598 0)
(-0.0349271 10.0789 0)
(-0.0459336 10.1028 0)
(-0.0571773 10.1323 0)
(-0.0672325 10.1677 0)
(-0.0754315 10.2083 0)
(-0.082337 10.2529 0)
(-0.087561 10.3009 0)
(-0.0907799 10.3509 0)
(-0.0917397 10.4001 0)
(-0.0902546 10.4431 0)
(-0.0862121 10.4701 0)
(-0.079555 10.4659 0)
(-0.0702794 10.4104 0)
(-0.0582164 10.2875 0)
(-0.0440083 10.0896 0)
(-0.0254161 9.80175 0)
(-0.0141806 9.31873 0)
(0.000803286 10.0004 0)
(0.00146486 10.0024 0)
(0.00144099 10.0058 0)
(0.000377679 10.01 0)
(-0.00196263 10.0152 0)
(-0.00579491 10.0215 0)
(-0.011332 10.0296 0)
(-0.0187677 10.0401 0)
(-0.0282127 10.0538 0)
(-0.039535 10.0716 0)
(-0.0523561 10.0945 0)
(-0.0659951 10.1233 0)
(-0.0794359 10.1586 0)
(-0.0908961 10.201 0)
(-0.0996253 10.2493 0)
(-0.106444 10.3021 0)
(-0.110989 10.3587 0)
(-0.112983 10.4175 0)
(-0.112239 10.4755 0)
(-0.108647 10.5272 0)
(-0.102173 10.5628 0)
(-0.0928469 10.5668 0)
(-0.0807311 10.5197 0)
(-0.0657825 10.4052 0)
(-0.0483569 10.2154 0)
(-0.0218479 9.92935 0)
(-0.00987833 9.3904 0)
(0.000668837 10.0004 0)
(0.00117458 10.0022 0)
(0.000991736 10.0054 0)
(-0.000217341 10.0092 0)
(-0.00272371 10.0137 0)
(-0.00680513 10.0192 0)
(-0.0127498 10.0262 0)
(-0.0207847 10.0354 0)
(-0.0310586 10.0478 0)
(-0.0436022 10.0641 0)
(-0.0581407 10.0855 0)
(-0.0740939 10.1131 0)
(-0.0905327 10.1477 0)
(-0.106157 10.1899 0)
(-0.118796 10.2403 0)
(-0.127656 10.2971 0)
(-0.133903 10.3589 0)
(-0.137232 10.4247 0)
(-0.137446 10.4927 0)
(-0.134453 10.5598 0)
(-0.128243 10.6203 0)
(-0.118889 10.6643 0)
(-0.10648 10.6764 0)
(-0.0912254 10.6371 0)
(-0.0728326 10.5303 0)
(-0.0516656 10.3459 0)
(-0.0168232 10.0874 0)
(-0.00136663 9.44137 0)
(0.000557376 10.0004 0)
(0.000931282 10.0021 0)
(0.00062358 10.0049 0)
(-0.000697809 10.0084 0)
(-0.00333029 10.0125 0)
(-0.00758363 10.0173 0)
(-0.0138198 10.0232 0)
(-0.0223714 10.031 0)
(-0.033439 10.0418 0)
(-0.0470852 10.0565 0)
(-0.0632175 10.0762 0)
(-0.0813684 10.1021 0)
(-0.100712 10.1352 0)
(-0.120027 10.1766 0)
(-0.137708 10.2268 0)
(-0.151169 10.286 0)
(-0.159633 10.3524 0)
(-0.164705 10.4238 0)
(-0.166182 10.4992 0)
(-0.163987 10.5766 0)
(-0.158155 10.6528 0)
(-0.148801 10.7218 0)
(-0.136086 10.774 0)
(-0.120209 10.7936 0)
(-0.101215 10.7616 0)
(-0.0785498 10.6616 0)
(-0.0541249 10.4894 0)
(-0.0177784 10.2459 0)
(0.00401839 9.48292 0)
(0.000463888 10.0003 0)
(0.000725707 10.0019 0)
(0.000315742 10.0046 0)
(-0.00109997 10.0078 0)
(-0.00381215 10.0114 0)
(-0.00817892 10.0156 0)
(-0.0146065 10.0206 0)
(-0.0235187 10.0271 0)
(-0.0352557 10.0361 0)
(-0.0499503 10.0488 0)
(-0.06753 10.0666 0)
(-0.0877301 10.0905 0)
(-0.109843 10.1217 0)
(-0.132748 10.1615 0)
(-0.154902 10.2108 0)
(-0.174381 10.2698 0)
(-0.188164 10.3389 0)
(-0.195555 10.4155 0)
(-0.198732 10.497 0)
(-0.197639 10.5822 0)
(-0.192356 10.6691 0)
(-0.183069 10.7541 0)
(-0.170014 10.8314 0)
(-0.153468 10.8911 0)
(-0.133535 10.9178 0)
(-0.110095 10.8925 0)
(-0.0829745 10.8001 0)
(-0.0552814 10.6446 0)
(-0.0201068 10.3996 0)
(0.00516685 9.52318 0)
(0.000383759 10.0003 0)
(0.000552261 10.0018 0)
(5.55096e-05 10.0043 0)
(-0.00142969 10.0073 0)
(-0.00419665 10.0105 0)
(-0.00863019 10.0141 0)
(-0.0151721 10.0183 0)
(-0.0243128 10.0236 0)
(-0.0365108 10.031 0)
(-0.0520787 10.0415 0)
(-0.0710324 10.0569 0)
(-0.0931055 10.0784 0)
(-0.117816 10.1073 0)
(-0.14416 10.145 0)
(-0.170685 10.1925 0)
(-0.19551 10.2507 0)
(-0.21636 10.3197 0)
(-0.229799 10.3994 0)
(-0.235312 10.4868 0)
(-0.235775 10.5787 0)
(-0.231328 10.6737 0)
(-0.222239 10.7698 0)
(-0.20885 10.8633 0)
(-0.191537 10.9483 0)
(-0.170568 11.0149 0)
(-0.145948 11.0482 0)
(-0.118237 11.0296 0)
(-0.0871654 10.9457 0)
(-0.0561211 10.806 0)
(-0.0221876 10.5479 0)
(0.00480696 9.57544 0)
(0.000316031 10.0003 0)
(0.000404977 10.0017 0)
(-0.000164259 10.0041 0)
(-0.00170135 10.0068 0)
(-0.00450299 10.0097 0)
(-0.00896875 10.0128 0)
(-0.0155667 10.0163 0)
(-0.0248346 10.0206 0)
(-0.0373194 10.0264 0)
(-0.0534863 10.0349 0)
(-0.0735787 10.0475 0)
(-0.0974339 10.0661 0)
(-0.124535 10.0924 0)
(-0.154125 10.1273 0)
(-0.184864 10.1725 0)
(-0.214939 10.2288 0)
(-0.242079 10.297 0)
(-0.263708 10.3767 0)
(-0.275981 10.4678 0)
(-0.278688 10.5663 0)
(-0.275533 10.6688 0)
(-0.266894 10.7736 0)
(-0.253247 10.8785 0)
(-0.235108 10.9799 0)
(-0.212918 11.0719 0)
(-0.186929 11.1449 0)
(-0.157635 11.1844 0)
(-0.12626 11.172 0)
(-0.0919561 11.0974 0)
(-0.0576809 10.9687 0)
(-0.0243723 10.7074 0)
(0.00378701 9.63704 0)
(0.000258147 10.0003 0)
(0.00027846 10.0016 0)
(-0.000349522 10.0039 0)
(-0.00192691 10.0064 0)
(-0.00474726 10.009 0)
(-0.0092198 10.0117 0)
(-0.0158302 10.0146 0)
(-0.025149 10.018 0)
(-0.0377871 10.0225 0)
(-0.0543249 10.029 0)
(-0.0752001 10.039 0)
(-0.100533 10.0542 0)
(-0.129921 10.0769 0)
(-0.162522 10.1088 0)
(-0.197266 10.1509 0)
(-0.232432 10.2047 0)
(-0.265792 10.271 0)
(-0.29472 10.3501 0)
(-0.316358 10.4414 0)
(-0.326494 10.5444 0)
(-0.325351 10.6543 0)
(-0.317603 10.7671 0)
(-0.3039 10.8813 0)
(-0.284944 10.9944 0)
(-0.261388 11.103 0)
(-0.233736 11.2014 0)
(-0.202633 11.2804 0)
(-0.169036 11.3254 0)
(-0.134322 11.3186 0)
(-0.0973249 11.2523 0)
(-0.0603567 11.1489 0)
(-0.0266674 10.8781 0)
(0.00223171 9.70661 0)
(0.000208134 10.0003 0)
(0.000169634 10.0015 0)
(-0.000507237 10.0037 0)
(-0.0021145 10.006 0)
(-0.00494216 10.0084 0)
(-0.00940309 10.0108 0)
(-0.0159943 10.0131 0)
(-0.0253077 10.0156 0)
(-0.0379988 10.0189 0)
(-0.0547326 10.0238 0)
(-0.0760951 10.0314 0)
(-0.10245 10.0434 0)
(-0.133742 10.0619 0)
(-0.169245 10.0897 0)
(-0.207735 10.1283 0)
(-0.247777 10.1787 0)
(-0.287213 10.2422 0)
(-0.323409 10.3196 0)
(-0.353406 10.4105 0)
(-0.374104 10.5141 0)
(-0.380986 10.6293 0)
(-0.374862 10.7506 0)
(-0.361505 10.8735 0)
(-0.341863 10.9965 0)
(-0.316857 11.1172 0)
(-0.287278 11.2322 0)
(-0.253962 11.3364 0)
(-0.217988 11.4204 0)
(-0.180366 11.47 0)
(-0.142347 11.4676 0)
(-0.10339 11.4268 0)
(-0.0638017 11.345 0)
(-0.0290869 11.043 0)
(0.000529221 9.78207 0)
(0.000165398 10.0003 0)
(7.57987e-05 10.0015 0)
(-0.000641973 10.0035 0)
(-0.00227093 10.0057 0)
(-0.00509766 10.0079 0)
(-0.00953416 10.0099 0)
(-0.0160837 10.0117 0)
(-0.0253511 10.0136 0)
(-0.0380214 10.0158 0)
(-0.0548195 10.0192 0)
(-0.0764421 10.0246 0)
(-0.103441 10.0336 0)
(-0.136064 10.0482 0)
(-0.174001 10.0709 0)
(-0.216135 10.1047 0)
(-0.26078 10.1512 0)
(-0.30608 10.2112 0)
(-0.349436 10.2857 0)
(-0.387815 10.375 0)
(-0.417953 10.4787 0)
(-0.436588 10.595 0)
(-0.438984 10.7225 0)
(-0.426692 10.855 0)
(-0.406703 10.9875 0)
(-0.380276 11.1185 0)
(-0.348555 11.246 0)
(-0.312637 11.3668 0)
(-0.273739 11.4757 0)
(-0.233102 11.5638 0)
(-0.1916 11.6163 0)
(-0.151039 11.6352 0)
(-0.109855 11.619 0)
(-0.0675343 11.5357 0)
(-0.0313854 11.2016 0)
(-0.00111866 9.86153 0)
(-5.84362e-06 10.0014 0)
(0.000116234 10.0002 0)
(-0.000758582 10.0034 0)
(-0.00240173 10.0054 0)
(-0.00522159 10.0075 0)
(-0.00962522 10.0092 0)
(-0.0161179 10.0106 0)
(-0.025311 10.0118 0)
(-0.0379075 10.0131 0)
(-0.0546732 10.0151 0)
(-0.0763845 10.0186 0)
(-0.103736 10.0249 0)
(-0.137211 10.0359 0)
(-0.176869 10.0538 0)
(-0.222091 10.0816 0)
(-0.271262 10.1225 0)
(-0.32215 10.1782 0)
(-0.372478 10.2489 0)
(-0.419184 10.3356 0)
(-0.458863 10.4379 0)
(-0.488016 10.5548 0)
(-0.503319 10.6841 0)
(-0.499911 10.8238 0)
(-0.480245 10.967 0)
(-0.452635 11.1084 0)
(-0.418661 11.2467 0)
(-0.379788 11.3801 0)
(-0.337463 11.5057 0)
(-0.293074 11.6183 0)
(-0.247871 11.7088 0)
(-0.203764 11.7805 0)
(-0.160169 11.8205 0)
(-0.115973 11.8078 0)
(-0.071196 11.7197 0)
(-0.0334653 11.3536 0)
(-0.00258588 9.94327 0)
(-0.000862249 10.0033 0)
(-9.79174e-05 10.0013 0)
(5.86339e-05 10.0002 0)
(-0.00251225 10.0052 0)
(-0.00532004 10.007 0)
(-0.00968558 10.0085 0)
(-0.016112 10.0095 0)
(-0.0252119 10.0102 0)
(-0.0376979 10.0107 0)
(-0.0543617 10.0115 0)
(-0.0760352 10.0133 0)
(-0.103518 10.0172 0)
(-0.137473 10.0248 0)
(-0.178255 10.0383 0)
(-0.225692 10.0603 0)
(-0.278745 10.0942 0)
(-0.335197 10.1436 0)
(-0.392235 10.2097 0)
(-0.447125 10.2926 0)
(-0.496367 10.3924 0)
(-0.536238 10.5085 0)
(-0.563098 10.6392 0)
(-0.573684 10.7815 0)
(-0.563112 10.9331 0)
(-0.534892 11.0863 0)
(-0.498758 11.2357 0)
(-0.45666 11.3804 0)
(-0.410408 11.5186 0)
(-0.361658 11.6478 0)
(-0.311824 11.7627 0)
(-0.263681 11.8714 0)
(-0.216414 11.9616 0)
(-0.168674 12.003 0)
(-0.121563 11.991 0)
(-0.0745959 11.8958 0)
(-0.0352943 11.4988 0)
(-0.0038934 10.0256 0)
(-0.00261141 10.005 0)
(-0.000969904 10.0031 0)
(-0.000207783 10.0012 0)
(3.54063e-06 10.0002 1.95452e-19)
(-0.00539896 10.0067 0)
(-0.00972213 10.0079 0)
(-0.0160772 10.0086 0)
(-0.0250726 10.0088 0)
(-0.037424 10.0085 0)
(-0.0539378 10.0083 0)
(-0.0754826 10.0085 0)
(-0.102932 10.0103 0)
(-0.137086 10.0149 0)
(-0.178526 10.0243 0)
(-0.227438 10.041 0)
(-0.283318 10.0681 0)
(-0.344611 10.1094 0)
(-0.408419 10.1685 0)
(-0.471271 10.2465 0)
(-0.530002 10.3427 0)
(-0.580715 10.4567 0)
(-0.619456 10.5872 0)
(-0.642567 10.7318 0)
(-0.64697 10.887 0)
(-0.627878 11.0498 0)
(-0.590006 11.2123 0)
(-0.544598 11.3687 0)
(-0.493983 11.5185 0)
(-0.440214 11.6605 0)
(-0.385028 11.7918 0)
(-0.331808 11.9245 0)
(-0.28002 12.0506 0)
(-0.228006 12.14 0)
(-0.176379 12.1809 0)
(-0.12652 12.1673 0)
(-0.0776282 12.0638 0)
(-0.0368375 11.637 0)
(-0.00504416 10.1071 0)
(-0.00547194 10.0064 0)
(-0.00269765 10.0047 0)
(-0.00109233 10.0029 8.72915e-19)
(-0.000312872 10.0012 -6.19305e-19)
(-5.06002e-05 10.0002 -3.89818e-19)
(-0.00974144 10.0074 0)
(-0.0160216 10.0078 0)
(-0.0249073 10.0075 0)
(-0.0371097 10.0067 0)
(-0.0534418 10.0054 0)
(-0.0747948 10.0044 0)
(-0.102094 10.0042 0)
(-0.136235 10.0062 0)
(-0.177975 10.0119 0)
(-0.227783 10.0236 0)
(-0.285589 10.0444 0)
(-0.350463 10.0777 0)
(-0.420252 10.1276 0)
(-0.491255 10.1979 0)
(-0.559321 10.2892 0)
(-0.620902 10.3997 0)
(-0.671778 10.5288 0)
(-0.707882 10.6741 0)
(-0.725668 10.8326 0)
(-0.722393 11.0002 0)
(-0.69348 11.1736 0)
(-0.644991 11.3441 0)
(-0.589733 11.5064 0)
(-0.530324 11.6602 0)
(-0.468947 11.8044 0)
(-0.409861 11.9534 0)
(-0.352428 12.103 0)
(-0.294906 12.2271 0)
(-0.238386 12.3139 0)
(-0.183177 12.3526 0)
(-0.130799 12.3359 0)
(-0.0802411 12.2233 0)
(-0.0380938 11.768 0)
(-0.00603128 10.1866 0)
(-0.00976396 10.007 0)
(-0.00550154 10.006 -1.86503e-18)
(-0.00278 10.0044 -9.20692e-19)
(-0.00120965 10.0027 4.35521e-19)
(-0.000413644 10.0011 -4.11618e-19)
(-0.000100538 10.0002 0)
(-0.0159523 10.0071 0)
(-0.0247251 10.0064 0)
(-0.0367727 10.005 0)
(-0.0529045 10.0029 0)
(-0.0740238 10.0007 0)
(-0.101089 9.99881 0)
(-0.135065 9.99836 0)
(-0.176838 10.0008 0)
(-0.227095 10.0081 0)
(-0.286113 10.023 0)
(-0.353481 10.0488 0)
(-0.427771 10.0894 0)
(-0.506097 10.1494 0)
(-0.583871 10.2324 0)
(-0.656264 10.3382 0)
(-0.719433 10.4643 0)
(-0.768938 10.609 0)
(-0.800735 10.7694 0)
(-0.811552 10.9415 0)
(-0.799124 11.1208 0)
(-0.759194 11.3036 0)
(-0.699286 11.481 0)
(-0.633741 11.6479 0)
(-0.565347 11.8041 0)
(-0.499431 11.966 0)
(-0.435447 12.1318 0)
(-0.371171 12.2788 0)
(-0.308197 12.3992 0)
(-0.247465 12.482 0)
(-0.18903 12.5173 0)
(-0.134397 12.4962 0)
(-0.0824289 12.3739 0)
(-0.0390863 11.8916 0)
(-0.00685996 10.2635 0)
(-0.0158999 10.0065 0)
(-0.00969645 10.0064 3.93289e-18)
(-0.00548635 10.0055 0)
(-0.00285788 10.0041 9.18282e-19)
(-0.00131966 10.0025 1.79928e-22)
(-0.000511721 10.001 0)
(-0.000147404 10.0001 0)
(-0.0245338 10.0055 0)
(-0.0364239 10.0035 0)
(-0.0523483 10.0007 0)
(-0.0732092 9.9974 0)
(-0.0999848 9.99402 0)
(-0.133689 9.99143 0)
(-0.175297 9.9909 0)
(-0.225665 9.9942 0)
(-0.285342 10.0037 0)
(-0.354338 10.0226 0)
(-0.431833 10.0546 0)
(-0.515764 10.104 0)
(-0.602416 10.1755 0)
(-0.686245 10.2727 0)
(-0.761787 10.3944 0)
(-0.825018 10.5369 0)
(-0.871419 10.6976 0)
(-0.897129 10.8729 0)
(-0.899308 11.0581 0)
(-0.876313 11.2481 0)
(-0.824312 11.4391 0)
(-0.752345 11.6221 0)
(-0.676195 11.7918 0)
(-0.602511 11.9661 0)
(-0.530837 12.1448 0)
(-0.458668 12.3078 0)
(-0.387884 12.4504 0)
(-0.319816 12.5655 0)
(-0.255237 12.6434 0)
(-0.193954 12.6744 0)
(-0.137342 12.6481 0)
(-0.0842074 12.5158 0)
(-0.0398444 12.0079 0)
(-0.00754287 10.337 0)
(-0.0243786 10.0046 0)
(-0.0156886 10.0057 2.07152e-22)
(-0.00951428 10.0058 0)
(-0.00546926 10.0051 -9.68279e-19)
(-0.00292608 10.0038 1.47163e-22)
(-0.00142344 10.0024 0)
(-0.000605209 10.0009 0)
(-0.000191894 10.0001 0)
(-0.0360716 10.0022 0)
(-0.0517863 9.9988 0)
(-0.0723795 9.99451 0)
(-0.0988327 9.98978 0)
(-0.13219 9.9853 0)
(-0.173496 9.98213 0)
(-0.223725 9.98183 0)
(-0.283639 9.98654 0)
(-0.353583 9.99909 0)
(-0.433239 10.023 0)
(-0.52125 10.0625 0)
(-0.614816 10.1221 0)
(-0.709303 10.2067 0)
(-0.798166 10.3195 0)
(-0.875378 10.4582 0)
(-0.936905 10.6177 0)
(-0.97831 10.7947 0)
(-0.996088 10.9846 0)
(-0.987992 11.182 0)
(-0.953121 11.3815 0)
(-0.888146 11.5792 0)
(-0.803632 11.766 0)
(-0.721292 11.9543 0)
(-0.640826 12.1456 0)
(-0.559345 12.3214 0)
(-0.479362 12.4796 0)
(-0.402497 12.6164 0)
(-0.329768 12.7253 0)
(-0.261746 12.7974 0)
(-0.19799 12.8234 0)
(-0.139681 12.7913 0)
(-0.0856048 12.649 0)
(-0.0403976 12.1169 0)
(-0.00809588 10.4068 0)
(-0.0357818 10.0011 0)
(-0.0239672 10.0036 -2.18474e-18)
(-0.0152535 10.0049 0)
(-0.00933657 10.0051 0)
(-0.0054379 10.0046 2.89602e-18)
(-0.00298484 10.0035 0)
(-0.00152063 10.0022 0)
(-0.00069442 10.0008 8.14008e-19)
(-0.00023362 10.0001 0)
(-0.0512274 9.99707 0)
(-0.0715508 9.99195 0)
(-0.097669 9.98603 0)
(-0.130636 9.97985 0)
(-0.171542 9.97433 0)
(-0.221453 9.97081 0)
(-0.281288 9.97118 0)
(-0.351657 9.97799 0)
(-0.43265 9.99448 0)
(-0.523499 10.0246 0)
(-0.622206 10.073 0)
(-0.725137 10.1445 0)
(-0.826663 10.2437 0)
(-0.919218 10.3735 0)
(-0.99634 10.5302 0)
(-1.05418 10.7072 0)
(-1.08859 10.9003 0)
(-1.09658 11.104 0)
(-1.07665 11.3125 0)
(-1.02874 11.5202 0)
(-0.950038 11.7229 0)
(-0.858211 11.9289 0)
(-0.767852 12.1347 0)
(-0.67564 12.3233 0)
(-0.584772 12.4942 0)
(-0.49747 12.6461 0)
(-0.415028 12.776 0)
(-0.338117 12.878 0)
(-0.267072 12.9438 0)
(-0.201207 12.9641 0)
(-0.141469 12.9258 0)
(-0.0866568 12.7737 0)
(-0.0407755 12.2188 0)
(-0.00853639 10.4728 0)
(-0.0507664 9.99554 0)
(-0.0351007 9.99979 0)
(-0.0231705 10.0025 -2.27327e-18)
(-0.0148346 10.004 -2.15163e-18)
(-0.00913834 10.0045 -4.07019e-18)
(-0.0053925 10.0042 0)
(-0.00303405 10.0032 -1.81783e-18)
(-0.00161085 10.002 -1.71678e-18)
(-0.000779391 10.0008 8.10149e-19)
(-0.00027257 10.0001 0)
(-0.0707327 9.98968 0)
(-0.0965133 9.9827 0)
(-0.129072 9.97503 0)
(-0.16952 9.96742 0)
(-0.218986 9.96102 0)
(-0.278514 9.9575 0)
(-0.348913 9.95911 0)
(-0.430601 9.96885 0)
(-0.523296 9.9904 0)
(-0.625684 10.0282 0)
(-0.735023 10.087 0)
(-0.846757 10.1719 0)
(-0.954197 10.2873 0)
(-1.04879 10.4354 0)
(-1.1238 10.6108 0)
(-1.17582 10.8054 0)
(-1.20115 11.0141 0)
(-1.19754 11.2307 0)
(-1.16435 11.4492 0)
(-1.10238 11.6631 0)
(-1.01616 11.8861 0)
(-0.914702 12.1105 0)
(-0.810222 12.3139 0)
(-0.706727 12.4974 0)
(-0.607052 12.6618 0)
(-0.513024 12.8063 0)
(-0.425564 12.9285 0)
(-0.344966 13.0231 0)
(-0.271311 13.0822 0)
(-0.203683 13.0965 0)
(-0.142768 13.0519 0)
(-0.0874022 12.8901 0)
(-0.0410053 12.3137 0)
(-0.0088804 10.5347 0)
(-0.0700588 9.98767 0)
(-0.0497313 9.99386 -2.42782e-18)
(-0.0338052 9.99835 2.39469e-18)
(-0.0224101 10.0014 -8.24814e-22)
(-0.0143867 10.0032 2.14468e-18)
(-0.00891976 10.0039 2.02793e-18)
(-0.00533327 10.0038 3.83272e-18)
(-0.00307349 10.003 2.71481e-18)
(-0.0016942 10.0019 -8.5432e-19)
(-0.000859963 10.0007 0)
(-0.000308823 10.0001 0)
(-0.0953762 9.97975 0)
(-0.127523 9.97075 0)
(-0.167487 9.96128 0)
(-0.21643 9.95232 0)
(-0.275486 9.94531 0)
(-0.345626 9.94227 0)
(-0.427519 9.94588 0)
(-0.521281 9.95956 0)
(-0.626169 9.98746 0)
(-0.74022 10.0344 0)
(-0.859853 10.1053 0)
(-0.979501 10.2053 0)
(-1.0914 10.3384 0)
(-1.18606 10.5058 0)
(-1.25673 10.7003 0)
(-1.30067 10.9124 0)
(-1.31485 11.136 0)
(-1.29791 11.3643 0)
(-1.25015 11.5907 0)
(-1.18144 11.8264 0)
(-1.0849 12.0691 0)
(-0.966274 12.2916 0)
(-0.848119 12.4899 0)
(-0.734004 12.6667 0)
(-0.626226 12.8232 0)
(-0.526131 12.9596 0)
(-0.434234 13.0736 0)
(-0.350443 13.1605 0)
(-0.274575 13.2126 0)
(-0.205502 13.2208 0)
(-0.143642 13.1698 0)
(-0.0878822 12.9986 0)
(-0.0411116 12.4021 0)
(-0.00914317 10.5927 0)
(-0.0944433 9.97713 0)
(-0.0685686 9.9855 -2.81718e-21)
(-0.0477672 9.99203 0)
(-0.0325782 9.99696 -1.4547e-21)
(-0.0216091 10.0004 0)
(-0.0139099 10.0025 -2.13702e-18)
(-0.00868232 10.0034 -4.03958e-18)
(-0.00525939 10.0034 -5.47139e-23)
(-0.00310317 10.0027 1.801e-18)
(-0.00177048 10.0017 -8.4974e-19)
(-0.000936118 10.0007 8.01387e-19)
(-0.000342431 10.0001 0)
(-0.126001 9.96695 0)
(-0.165474 9.95584 0)
(-0.213858 9.9446 0)
(-0.272338 9.93448 0)
(-0.342008 9.92726 0)
(-0.423741 9.92534 0)
(-0.517967 9.93186 0)
(-0.624418 9.95069 0)
(-0.741792 9.9864 0)
(-0.867376 10.0441 0)
(-0.996649 10.1289 0)
(-1.12299 10.2456 0)
(-1.23756 10.3977 0)
(-1.33007 10.5852 0)
(-1.39398 10.799 0)
(-1.42753 11.0281 0)
(-1.42855 11.2655 0)
(-1.39665 11.5038 0)
(-1.34274 11.7535 0)
(-1.26405 12.0106 0)
(-1.14794 12.2525 0)
(-1.01259 12.47 0)
(-0.881462 12.6613 0)
(-0.757524 12.83 0)
(-0.642422 12.9779 0)
(-0.536948 13.1056 0)
(-0.441194 13.2111 0)
(-0.354689 13.29 0)
(-0.276978 13.3351 0)
(-0.206748 13.337 0)
(-0.144152 13.2797 0)
(-0.0881359 13.0996 0)
(-0.041116 12.4841 0)
(-0.00933817 10.6467 0)
(-0.124759 9.96359 0)
(-0.092377 9.97436 2.69189e-18)
(-0.0657277 9.98319 -2.66034e-18)
(-0.0459192 9.99027 2.51572e-18)
(-0.0312955 9.99562 0)
(-0.0207672 9.99938 0)
(-0.0134057 10.0017 2.12829e-18)
(-0.00842461 10.0028 -2.01055e-18)
(-0.00517245 10.003 -1.8542e-23)
(-0.00312291 10.0024 8.95867e-19)
(-0.00183968 10.0016 -8.45002e-19)
(-0.00100782 10.0006 -7.95768e-19)
(-0.000373318 10.0001 0)
(-0.163496 9.951 0)
(-0.211309 9.93774 0)
(-0.269164 9.92485 0)
(-0.338224 9.91389 0)
(-0.419528 9.90701 0)
(-0.513764 9.90705 0)
(-0.621044 9.91759 0)
(-0.740625 9.94295 0)
(-0.870545 9.98809 0)
(-1.00723 10.0583 0)
(-1.14517 10.1587 0)
(-1.27663 10.2937 0)
(-1.3918 10.4659 0)
(-1.4797 10.6741 0)
(-1.53432 10.907 0)
(-1.55517 11.1522 0)
(-1.54106 11.4018 0)
(-1.50385 11.6653 0)
(-1.44007 11.9385 0)
(-1.34023 12.1964 0)
(-1.20482 12.4341 0)
(-1.0535 12.6444 0)
(-0.910311 12.8272 0)
(-0.777429 12.9867 0)
(-0.655825 13.1253 0)
(-0.545667 13.2438 0)
(-0.446617 13.3407 0)
(-0.357846 13.4116 0)
(-0.278634 13.4497 0)
(-0.207505 13.4456 0)
(-0.144355 13.3821 0)
(-0.0882008 13.1934 0)
(-0.0410381 12.5602 0)
(-0.00947765 10.697 0)
(-0.161894 9.94671 0)
(-0.121976 9.96006 0)
(-0.0884073 9.97145 2.798e-18)
(-0.0630696 9.98097 -5.30707e-18)
(-0.0439956 9.98858 5.02067e-18)
(-0.0299563 9.99434 -4.74773e-18)
(-0.0198876 9.99841 0)
(-0.0128756 10.001 2.11916e-18)
(-0.00814775 10.0023 -2.00055e-18)
(-0.00507125 10.0026 -1.88838e-18)
(-0.00313273 10.0022 0)
(-0.00190184 10.0014 8.39053e-19)
(-0.0010745 10.0005 0)
(-0.000400715 10.0001 0)
(-0.208803 9.93164 0)
(-0.266009 9.91628 0)
(-0.334393 9.90199 0)
(-0.415085 9.89066 0)
(-0.508989 9.88486 0)
(-0.616536 9.88787 0)
(-0.737441 9.90375 0)
(-0.870383 9.93722 0)
(-1.01263 9.99355 0)
(-1.15968 10.0781 0)
(-1.30494 10.1959 0)
(-1.43965 10.3505 0)
(-1.55305 10.5437 0)
(-1.6337 10.7727 0)
(-1.67645 11.0243 0)
(-1.6823 11.2842 0)
(-1.66405 11.5611 0)
(-1.61732 11.8504 0)
(-1.53043 12.1264 0)
(-1.40939 12.3815 0)
(-1.25533 12.6124 0)
(-1.08906 12.8137 0)
(-0.934838 12.9866 0)
(-0.793952 13.1361 0)
(-0.666662 13.2651 0)
(-0.552496 13.3744 0)
(-0.450681 13.4626 0)
(-0.360057 13.5257 0)
(-0.27965 13.5569 0)
(-0.207848 13.5467 0)
(-0.144303 13.4773 0)
(-0.0881097 13.2804 0)
(-0.0408945 12.6306 0)
(-0.00957115 10.7437 0)
(-0.206788 9.92623 0)
(-0.158232 9.94227 0)
(-0.116579 9.95643 0)
(-0.0847148 9.96867 5.58122e-18)
(-0.0603126 9.97885 -5.28362e-18)
(-0.0419967 9.98696 4.99748e-18)
(-0.0285667 9.99312 0)
(-0.0189717 9.99748 -2.23198e-18)
(-0.0123185 10.0003 0)
(-0.00785313 10.0018 1.98978e-18)
(-0.00495652 10.0022 0)
(-0.00313272 10.002 0)
(-0.00195679 10.0013 0)
(-0.00113492 10.0005 8.1121e-19)
(-0.000424583 10.0001 3.90761e-19)
(-0.262902 9.90867 0)
(-0.330568 9.8914 0)
(-0.410559 9.87609 0)
(-0.503896 9.86504 0)
(-0.611282 9.86125 0)
(-0.732821 9.86847 0)
(-0.867732 9.89118 0)
(-1.01401 9.93449 0)
(-1.16807 10.0039 0)
(-1.32439 10.1046 0)
(-1.47532 10.2413 0)
(-1.61109 10.4169 0)
(-1.72012 10.6316 0)
(-1.79078 10.8814 0)
(-1.81904 11.1504 0)
(-1.82233 11.44 0)
(-1.79525 11.7454 0)
(-1.72349 12.0401 0)
(-1.61306 12.315 0)
(-1.47119 12.5644 0)
(-1.29944 12.7862 0)
(-1.11942 12.977 0)
(-0.955297 13.1391 0)
(-0.807373 13.2781 0)
(-0.675186 13.3972 0)
(-0.557652 13.4972 0)
(-0.453562 13.5768 0)
(-0.361458 13.6323 0)
(-0.280126 13.6568 0)
(-0.207846 13.6408 0)
(-0.144043 13.5656 0)
(-0.0878926 13.361 0)
(-0.0406993 12.6958 0)
(-0.00962657 10.787 0)
(-0.26043 9.90191 0)
(-0.202067 9.92067 0)
(-0.151063 9.93776 6.21728e-18)
(-0.111588 9.95298 5.89022e-18)
(-0.0808928 9.96604 5.57371e-18)
(-0.0574573 9.97684 -5.27127e-18)
(-0.0399319 9.98544 0)
(-0.0271287 9.99196 0)
(-0.0180206 9.99661 0)
(-0.0117369 9.99963 4.19433e-18)
(-0.0075397 10.0013 1.97841e-18)
(-0.00482854 10.0019 1.86397e-18)
(-0.00312279 10.0018 0)
(-0.00200373 10.0012 -8.55258e-19)
(-0.0011887 10.0004 -4.1272e-19)
(-0.000445347 10 0)
(-0.326795 9.88198 0)
(-0.406016 9.86311 0)
(-0.498664 9.84736 0)
(-0.605589 9.83744 0)
(-0.72723 9.83679 0)
(-0.863276 9.84964 0)
(-1.01234 9.88088 0)
(-1.17166 9.9359 0)
(-1.33667 10.0202 0)
(-1.50085 10.139 0)
(-1.65547 10.2961 0)
(-1.78982 10.4935 0)
(-1.89177 10.7302 0)
(-1.94958 10.9998 0)
(-1.97739 11.3011 0)
(-1.97301 11.6223 0)
(-1.91912 11.9363 0)
(-1.82141 12.2322 0)
(-1.6875 12.5027 0)
(-1.52557 12.7436 0)
(-1.33732 12.9545 0)
(-1.14487 13.1334 0)
(-0.972003 13.2841 0)
(-0.817996 13.4123 0)
(-0.681661 13.5214 0)
(-0.561348 13.6123 0)
(-0.455426 13.6837 0)
(-0.362172 13.7317 0)
(-0.280153 13.7499 0)
(-0.207563 13.7282 0)
(-0.143618 13.6476 0)
(-0.0875749 13.4357 0)
(-0.0404634 12.7561 0)
(-0.00965315 10.827 0)