/*--------------------------------*- C++ -*----------------------------------*\
  =========                 |
  \\      /  F ield         | OpenFOAM: The Open Source CFD Toolbox
   \\    /   O peration     | Website:  https://openfoam.org
    \\  /    A nd           | Version:  8
     \\/     M anipulation  |
\*---------------------------------------------------------------------------*/
FoamFile
{
    version     2.0;
    format      ascii;
    class       volScalarField;
    location    "0.01";
    object      epsilon;
}
// * * * * * * * * * * * * * * * * * * * * * * * * * * * * * * * * * * * * * //

dimensions      [0 2 -3 0 0 0 0];

internalField   nonuniform List<scalar> 
15677
(
59.7815
18.4102
52.6766
8.12024
25.9552
49.9021
4.64634
13.2955
31.5278
49.9709
3.18937
7.742
17.098
36.7973
50.5478
2.49644
5.05472
10.0556
20.5769
41.0884
51.7165
2.1496
3.6304
6.49064
12.0623
23.5509
44.2936
52.8149
1.9815
2.82584
4.54833
7.68892
13.7579
25.8382
46.3896
53.5703
1.91235
2.35632
3.41993
5.30454
8.6597
15.0628
27.3799
47.5858
54.0133
1.88445
2.08206
2.73649
3.91626
5.8973
9.3881
15.9561
28.2763
48.1843
54.2454
1.87053
1.94033
2.3158
3.06715
4.30071
6.32795
9.87874
16.4834
28.7195
48.4371
54.3561
1.86757
1.87841
2.06099
2.53326
3.32589
4.57345
6.6094
10.1679
16.7437
28.8875
48.5151
54.4151
1.86901
1.8478
1.91832
2.19676
2.70901
3.50823
4.7473
6.7719
10.308
16.834
28.9135
48.5215
54.4558
1.87051
1.83568
1.85213
1.99116
2.31331
2.83463
3.62286
4.84474
6.84777
10.3517
16.84
28.896
48.5016
54.5033
1.87116
1.83295
1.81908
1.87405
2.06293
2.40013
2.91382
3.68572
4.88824
6.86835
10.3518
16.822
28.8387
48.4618
54.5452
1.87138
1.83291
1.80527
1.82021
1.91207
2.12138
2.45631
2.95703
3.71288
4.89846
6.86702
10.3378
16.7704
28.7624
48.4146
54.6166
1.87144
1.83313
1.80121
1.79471
1.82992
1.94909
2.16159
2.4875
2.97564
3.71872
4.89705
6.85666
10.3009
16.7076
28.6798
48.3867
54.6734
1.87145
1.83325
1.80013
1.78543
1.79517
1.85037
1.97789
2.18498
2.5014
2.97982
3.71766
4.88975
6.83162
10.2586
16.6415
28.6046
48.3412
54.7787
1.87145
1.83329
1.79985
1.78241
1.78235
1.80117
1.87125
1.99607
2.19613
2.50518
2.97925
3.71282
4.87313
6.80433
10.2147
16.5783
28.5134
48.3192
54.8596
1.87145
1.83329
1.79977
1.78146
1.77788
1.7844
1.81586
1.88613
2.00558
2.20002
2.5051
2.97635
3.70208
4.85567
6.7764
10.1725
16.5053
28.429
48.2815
55.0066
1.87145
1.83328
1.79974
1.78117
1.77641
1.77893
1.79361
1.82925
1.89474
2.00967
2.2006
2.5037
2.96976
3.69105
4.83822
6.74984
10.125
16.4343
28.3301
48.2683
55.1102
1.87144
1.83327
1.79972
1.78109
1.77597
1.77719
1.78593
1.80656
1.83754
1.89911
2.01111
2.20021
2.50011
2.96308
3.6805
4.82202
6.72104
10.0792
16.3551
28.24
48.2468
55.3164
1.87144
1.83326
1.79972
1.78108
1.77585
1.77667
1.78347
1.79847
1.81485
1.84218
1.90122
2.01148
2.19882
2.49652
2.95717
3.67116
4.80543
6.69375
10.0299
16.2801
28.1345
48.255
55.4494
1.87144
1.83324
1.79972
1.78108
1.77583
1.77655
1.78278
1.79578
1.80676
1.81967
1.84478
1.90237
2.01157
2.19749
2.49386
2.95261
3.6625
4.79041
6.66599
9.98318
16.1953
28.0537
48.2641
55.709
1.87143
1.83322
1.79972
1.78111
1.77584
1.77653
1.78263
1.79501
1.80408
1.81167
1.82254
1.84653
1.90342
2.01197
2.19743
2.49277
2.94919
3.65579
4.77651
6.64061
9.93315
16.1265
27.9531
48.3004
55.8731
1.87143
1.83319
1.79972
1.78115
1.77588
1.77655
1.78263
1.79485
1.80329
1.80899
1.81463
1.82458
1.84825
1.90498
2.01324
2.19835
2.49321
2.94841
3.65082
4.76559
6.61567
9.89317
16.0459
27.8857
48.3372
56.2008
1.87143
1.83315
1.79971
1.78121
1.77595
1.77659
1.78267
1.79486
1.80312
1.80819
1.81198
1.81681
1.82664
1.85059
1.90762
2.01604
2.20111
2.49556
2.94959
3.64988
4.75671
6.59804
9.84983
15.986
27.8005
48.4263
56.4012
1.87143
1.83311
1.79971
1.78129
1.77607
1.77668
1.78274
1.79489
1.80309
1.80797
1.81115
1.81418
1.81901
1.82937
1.85413
1.91197
2.0212
2.20678
2.50105
2.95391
3.65168
4.75441
6.58194
9.81901
15.9203
27.7599
48.4956
56.7859
1.87143
1.83307
1.7997
1.78138
1.77622
1.77682
1.78287
1.79496
1.80309
1.80789
1.81087
1.81332
1.81642
1.82191
1.83337
1.85951
1.91874
2.02929
2.21599
2.51093
2.96316
3.65801
4.75623
6.57419
9.7915
15.8775
27.705
48.641
57.037
1.87143
1.83303
1.7997
1.78148
1.77641
1.77702
1.7831
1.7951
1.80311
1.80782
1.81072
1.81299
1.81556
1.8194
1.82612
1.83928
1.86741
1.92864
2.04108
2.22948
2.5256
2.97815
3.67134
4.76339
6.57459
9.77461
15.8369
27.6917
48.7415
57.4448
1.87143
1.83301
1.79969
1.78159
1.77661
1.77726
1.78342
1.79534
1.80319
1.80777
1.81059
1.81279
1.81521
1.81855
1.82371
1.8323
1.84779
1.87862
1.94249
2.05749
2.24815
2.54618
2.99948
3.69169
4.77926
6.58057
9.76881
15.8149
27.6811
48.9772
57.8401
1.87144
1.83299
1.79969
1.78168
1.77681
1.77751
1.78381
1.79569
1.80336
1.80777
1.81046
1.81259
1.81497
1.81821
1.82293
1.83004
1.84114
1.85974
1.89397
1.96123
2.07941
2.27304
2.57345
3.02815
3.71972
4.80437
6.59585
9.77234
15.8039
27.6955
49.0123
58.2779
1.87144
1.83298
1.7997
1.78177
1.777
1.77777
1.78424
1.79611
1.80363
1.80787
1.81039
1.81241
1.81474
1.81797
1.82262
1.82936
1.8391
1.85353
1.876
1.91447
1.9858
2.10791
2.30498
2.60841
3.06479
3.75645
4.83767
6.62364
9.78382
15.8063
27.7048
49.1259
58.7306
1.87144
1.83298
1.7997
1.78184
1.77717
1.778
1.78466
1.79656
1.80398
1.80806
1.81042
1.8123
1.81454
1.81776
1.82244
1.82915
1.83859
1.8518
1.87036
1.89763
1.94109
2.01729
2.14383
2.34496
2.65167
3.11026
3.80181
4.88067
6.65953
9.8085
15.8184
27.7293
49.342
59.2201
1.87144
1.83299
1.79971
1.7819
1.7773
1.77821
1.78505
1.797
1.80436
1.80833
1.81055
1.81229
1.81443
1.81759
1.82228
1.82907
1.83854
1.85155
1.86909
1.89281
1.92566
1.975
2.05659
2.18822
2.39359
2.70406
3.1646
3.8565
4.93248
6.70541
9.84779
15.8504
27.7789
49.6295
59.7239
1.83302
1.87148
1.79972
1.78193
1.77741
1.77838
1.78538
1.79741
1.80473
1.80864
1.81076
1.81239
1.81443
1.81751
1.82219
1.82903
1.83863
1.85177
1.86922
1.89213
1.92192
1.96138
2.01717
2.10482
2.24173
2.45166
2.76558
3.22838
3.92003
4.99353
6.7661
9.90799
15.9033
27.8636
49.9453
60.2573
1.79973
1.83318
1.87156
1.78194
1.77747
1.77851
1.78566
1.79775
1.80508
1.80896
1.81102
1.81258
1.81456
1.81756
1.82219
1.82906
1.83879
1.85215
1.86986
1.8929
1.9221
1.95898
2.00592
2.06887
2.16273
2.30517
2.5194
2.8368
3.30113
3.99259
5.07053
6.84765
9.9823
15.973
27.97
50.2968
60.7889
1.78192
1.79989
1.83348
1.87164
1.77749
1.7786
1.78585
1.79803
1.80538
1.80925
1.81129
1.81283
1.81477
1.81774
1.82233
1.8292
1.83902
1.85262
1.87069
1.89421
1.92382
1.96051
2.00517
2.06039
2.1309
2.23124
2.3789
2.59747
2.91727
3.38302
4.08234
5.16843
6.94128
10.069
16.0557
28.1053
50.6511
61.34
1.77746
1.78196
1.8002
1.83381
1.87172
1.77862
1.78597
1.79823
1.80562
1.80951
1.81156
1.81311
1.81506
1.81802
1.8226
1.82947
1.83936
1.85318
1.87164
1.89576
1.92613
1.96364
2.00861
2.06205
2.12568
2.20456
2.31089
2.46362
2.68538
3.00722
3.48332
4.19368
5.27715
7.04473
10.1651
16.1535
28.2541
51.0274
61.8772
1.7786
1.77739
1.78206
1.80052
1.83416
1.8718
1.786
1.79835
1.80579
1.80971
1.81179
1.81337
1.81536
1.81836
1.82297
1.82987
1.83983
1.85384
1.8727
1.89748
1.92875
1.96747
2.01376
2.06817
2.13071
2.20315
2.28976
2.40247
2.55894
2.78333
3.11674
3.60629
4.31518
5.39429
7.15568
10.27
16.2608
28.4232
51.3933
62.4271
1.78594
1.77846
1.77728
1.78217
1.80087
1.83452
1.87188
1.79839
1.80588
1.80986
1.81198
1.81361
1.81567
1.81873
1.8234
1.83037
1.84043
1.85462
1.87386
1.89934
1.93165
1.97176
2.01979
2.07622
2.14044
2.21275
2.2935
2.38749
2.50559
2.66518
2.9027
3.25059
3.73915
4.44442
5.51779
7.27247
10.3808
16.379
28.5971
51.7744
62.9534
1.79834
1.78562
1.77822
1.77715
1.78227
1.80124
1.83489
1.87196
1.80591
1.80994
1.81212
1.81382
1.81594
1.81909
1.82386
1.83092
1.84111
1.85551
1.87511
1.90128
1.93472
1.97648
2.02651
2.08547
2.15248
2.22741
2.30894
2.3981
2.49759
2.62103
2.7951
3.04849
3.39511
3.87967
4.57941
5.64577
7.39296
10.4966
16.5023
28.7847
52.1356
63.4866
1.80586
1.79801
1.78502
1.77796
1.77702
1.78239
1.80162
1.83527
1.87204
1.80996
1.81221
1.81397
1.81618
1.81942
1.82429
1.83148
1.84183
1.85646
1.87645
1.90327
1.93783
1.98144
2.03388
2.09577
2.1662
2.24499
2.33007
2.42105
2.51684
2.62089
2.76108
2.95393
3.2058
3.54793
4.02561
4.71782
5.77621
7.51568
10.6149
16.632
28.9706
52.508
63.9899
1.80992
1.8056
1.79738
1.78437
1.77769
1.77688
1.78252
1.80202
1.83566
1.87213
1.81224
1.81408
1.81637
1.8197
1.82468
1.832
1.84253
1.85742
1.87782
1.9053
1.94096
1.9864
2.04162
2.1071
2.18152
2.26502
2.35504
2.45076
2.54921
2.65099
2.77226
2.93212
3.12582
3.37249
3.70687
4.17524
4.85787
5.9074
7.6388
10.7349
16.7629
29.1651
52.8535
64.4949
1.81221
1.80972
1.80511
1.79669
1.78372
1.77742
1.77675
1.78267
1.80244
1.83606
1.87221
1.81413
1.8165
1.81993
1.82502
1.83247
1.84318
1.85834
1.87916
1.9073
1.94406
1.9913
2.04931
2.11903
2.19846
2.28751
2.38357
2.4857
2.58986
2.69532
2.81667
2.95922
3.11721
3.30778
3.54634
3.86975
4.32655
4.99776
6.03754
7.7611
10.8546
16.8967
29.3533
53.2083
64.9664
1.81412
1.81206
1.80936
1.80457
1.79594
1.78305
1.77716
1.77663
1.78283
1.80287
1.83646
1.8723
1.81657
1.82009
1.82528
1.83286
1.84376
1.85918
1.88041
1.90922
1.94707
1.99607
2.05685
2.13088
2.21636
2.31256
2.41583
2.52589
2.63771
2.75013
2.87732
3.02326
3.16367
3.31425
3.49649
3.72474
4.03436
4.47739
5.13611
6.16544
7.88131
10.9734
17.0288
29.5463
53.5304
65.4373
1.81658
1.81399
1.81178
1.80896
1.80399
1.79515
1.78241
1.77692
1.77653
1.78303
1.80332
1.83686
1.87238
1.82018
1.82548
1.83318
1.84424
1.85991
1.88154
1.91098
1.9499
2.00063
2.06414
2.14246
2.23417
2.33921
2.45203
2.57174
2.69317
2.81498
2.95178
3.10701
3.25166
3.38336
3.5211
3.68989
3.90511
4.19848
4.6263
5.27158
6.29006
7.99862
11.0898
17.1609
29.7298
53.8633
65.8701
1.82022
1.81644
1.81372
1.81146
1.80853
1.80339
1.79434
1.78179
1.77669
1.77645
1.78325
1.80379
1.83727
1.87247
1.8256
1.83341
1.84463
1.86052
1.88253
1.91257
1.95251
2.00489
2.07107
2.1536
2.25157
2.36587
2.49084
2.62373
2.75706
2.89094
3.04061
3.20993
3.3643
3.50004
3.61591
3.73514
3.8858
4.08559
4.36081
4.77191
5.40304
6.41056
8.11217
11.2035
17.2893
29.9156
54.1565
66.3049
1.82565
1.82004
1.81613
1.81343
1.81113
1.80809
1.80278
1.79353
1.78121
1.7765
1.7764
1.7835
1.80427
1.83766
1.87255
1.83356
1.84493
1.86102
1.88337
1.91395
1.95485
2.00878
2.07754
2.16414
2.26832
2.39201
2.52994
2.68004
2.83026
2.9795
3.1459
3.33421
3.50366
3.64812
3.76631
3.85884
3.95376
4.08188
4.26316
4.51967
4.91304
5.52965
6.5263
8.22151
11.3135
17.4158
30.0897
54.466
66.6962
1.83365
1.8254
1.81961
1.81578
1.81312
1.8108
1.80765
1.80219
1.79274
1.78068
1.77633
1.77638
1.78378
1.80475
1.83803
1.87262
1.84512
1.86141
1.88406
1.91514
1.95692
2.01227
2.08347
2.17396
2.28422
2.41728
2.56847
2.73729
2.91044
3.0824
3.27038
3.48386
3.67442
3.83326
3.95707
4.0482
4.10949
4.1744
4.27648
4.43619
4.6736
5.04875
5.65076
6.63683
8.32616
11.4197
17.5374
30.2647
54.7279
67.092
1.84525
1.83327
1.82477
1.81913
1.81543
1.81282
1.81047
1.80723
1.80162
1.79198
1.7802
1.7762
1.77641
1.78409
1.80522
1.83839
1.8727
1.86167
1.8846
1.91615
1.95871
2.01537
2.08883
2.18297
2.2991
2.44134
2.60586
2.79421
2.9929
3.19677
3.41718
3.66405
3.88382
4.06402
4.19886
4.2896
4.3432
4.36518
4.39475
4.46776
4.60362
4.82155
5.17835
5.76595
6.74185
8.4259
11.5214
17.6558
30.4267
55.0126
67.4461
1.86188
1.84468
1.83231
1.82406
1.81865
1.81508
1.81254
1.81019
1.80686
1.80111
1.79126
1.77978
1.7761
1.77647
1.78441
1.80567
1.83873
1.87277
1.885
1.91696
1.96024
2.01809
2.09363
2.19114
2.31286
2.46393
2.64166
2.85001
3.07572
3.31594
3.58296
3.88112
4.14149
4.35312
4.50627
4.60066
4.64391
4.64873
4.6234
4.61278
4.65414
4.76454
4.96277
5.30137
5.87494
6.8412
8.52057
11.6186
17.7687
30.5881
55.2449
67.7962
1.88535
1.86104
1.84322
1.83124
1.82337
1.81819
1.81476
1.8123
1.80995
1.80656
1.80065
1.79058
1.77941
1.77603
1.77656
1.78475
1.80612
1.83905
1.87283
1.91759
1.96152
2.02046
2.09789
2.1985
2.32547
2.4849
2.67554
2.90399
3.15755
3.43702
3.75867
4.13252
4.46028
4.71858
4.90161
5.00573
5.03918
5.01829
4.96237
4.8819
4.82673
4.83435
4.91827
5.0968
5.41756
5.97763
6.93485
8.61014
11.7111
17.8775
30.7376
55.5028
68.1222
1.91818
1.88416
1.85883
1.84161
1.83021
1.82268
1.81774
1.81448
1.81213
1.8098
1.80634
1.80027
1.78994
1.7791
1.77599
1.77668
1.78509
1.80656
1.83936
1.8729
1.96257
2.02249
2.10165
2.20509
2.33695
2.50418
2.70732
2.95556
3.23719
3.55828
3.94089
4.40638
4.84115
5.18647
5.41937
5.54451
5.56942
5.51589
5.41147
5.28202
5.13874
5.0352
5.00746
5.06434
5.22336
5.52683
6.07401
7.02284
8.69461
11.799
17.9809
30.8829
55.7131
68.3799
1.96356
1.91649
1.88085
1.85642
1.84007
1.8292
1.82203
1.81734
1.81427
1.81204
1.80975
1.80622
1.79995
1.78934
1.77884
1.77598
1.77682
1.78543
1.80699
1.83966
1.87296
2.0242
2.10493
2.21098
2.34736
2.52184
2.73697
3.0043
3.31381
3.6785
4.12742
4.69734
5.26946
5.76998
6.11452
6.28373
6.30494
6.20757
6.03341
5.82262
5.60591
5.3923
5.23708
5.17283
5.2025
5.34235
5.62919
6.16425
7.1053
8.77409
11.8821
18.0793
31.0206
55.9061
68.6182
2.02583
1.96124
1.91159
1.87727
1.85412
1.83856
1.82821
1.82142
1.81701
1.81415
1.81206
1.80981
1.8062
1.79969
1.78878
1.77861
1.77598
1.77697
1.78578
1.8074
1.83995
1.87302
2.10779
2.21621
2.35677
2.53797
2.76451
3.05001
3.38703
3.79676
4.31547
5.00071
5.74044
6.46101
7.03477
7.3355
7.36911
7.21284
6.9325
6.59491
6.25121
5.93255
5.64131
5.43157
5.33006
5.33263
5.45388
5.72499
6.24851
7.18239
8.84869
11.9605
18.173
31.1307
56.0609
68.8501
2.11047
2.02268
1.95407
1.90635
1.87388
1.85187
1.83708
1.82728
1.82088
1.81677
1.81415
1.81221
1.81001
1.80627
1.79947
1.78823
1.77841
1.776
1.77712
1.78612
1.80781
1.84022
1.87308
2.22085
2.36523
2.55268
2.79002
3.09264
3.4568
3.91217
4.50203
5.31252
6.25418
7.26768
8.193
8.81032
8.96479
8.73953
8.29838
7.75555
7.20293
6.69656
6.26064
5.88475
5.61812
5.47893
5.4548
5.55775
5.81435
6.32702
7.25435
8.91861
12.0344
18.249
31.2259
56.2134
69.1484
2.22516
2.10633
2.0123
1.94649
1.90141
1.87059
1.84968
1.83567
1.82642
1.82043
1.81666
1.81428
1.8125
1.81032
1.80641
1.79925
1.78768
1.77823
1.77602
1.77728
1.78645
1.80819
1.84048
1.87311
2.37289
2.56609
2.8136
3.13232
3.52319
4.02385
4.68477
5.63127
6.81314
8.19963
9.60842
10.7372
11.2819
11.1092
10.4479
9.58367
8.6837
7.85824
7.15755
6.58895
6.12185
5.79637
5.61942
5.56926
5.65433
5.89747
6.40003
7.32136
8.98397
12.0945
18.3133
31.3233
56.4
69.4134
2.37984
2.2198
2.09143
2.00144
1.93936
1.89661
1.86737
1.84757
1.83433
1.82565
1.8201
1.81668
1.81457
1.81294
1.81071
1.80657
1.79903
1.78713
1.77807
1.77604
1.77744
1.78677
1.80856
1.84062
1.8731
2.57841
2.83536
3.16923
3.5863
4.13102
4.86261
5.95759
7.41916
9.25724
11.2825
13.1252
14.3452
14.5992
13.843
12.5242
11.0777
9.71765
8.55912
7.63237
6.91626
6.35197
5.96615
5.75162
5.67621
5.74397
5.97462
6.46781
7.38376
9.03692
12.1452
18.3823
31.4411
56.5745
69.7725
2.58939
2.3731
2.19852
2.07603
1.99124
1.93245
1.89193
1.86425
1.84555
1.83311
1.82501
1.81992
1.81686
1.81501
1.81347
1.81116
1.80674
1.79878
1.78658
1.77792
1.77606
1.77759
1.78708
1.80876
1.84063
1.8731
2.85556
3.20358
3.64618
4.23308
5.0356
6.29274
8.07067
10.43
13.1935
15.9505
18.1422
19.2214
18.8667
17.2047
14.9749
12.776
10.8517
9.3014
8.11851
7.24126
6.57462
6.12742
5.87573
5.77588
5.82706
6.04611
6.5307
7.434
9.08135
12.2002
18.4595
31.5564
56.7919
70.1103
2.87321
2.58086
2.34292
2.17682
2.06158
1.98136
1.9257
1.88739
1.86125
1.84365
1.83201
1.82452
1.81991
1.8172
1.81556
1.81408
1.81164
1.80688
1.79849
1.78602
1.77777
1.77608
1.77774
1.78725
1.80879
1.84064
1.8731
3.23579
3.70292
4.32978
5.20448
6.63727
8.76238
11.6999
15.3052
19.1591
22.6196
24.9472
25.5299
24.1508
21.2027
17.7867
14.6633
12.0749
10.0789
8.61287
7.56262
6.78942
6.28024
5.99196
5.86861
5.90397
6.1123
6.5811
7.47602
9.12947
12.2602
18.5426
31.7045
57.0058
70.4437
3.26353
2.86284
2.53803
2.31255
2.15649
2.04759
1.97172
1.91914
1.883
1.8584
1.8419
1.83107
1.8242
1.82005
1.81767
1.8162
1.81472
1.81209
1.80697
1.79815
1.78546
1.77763
1.77609
1.77782
1.78728
1.80881
1.84064
1.8731
3.7568
4.42134
5.37038
6.99051
9.48631
13.0454
17.5753
22.6809
27.6821
31.6894
33.7965
33.3948
30.4815
25.8208
20.9321
16.7169
13.3731
10.8839
9.11198
7.87902
6.99607
6.42472
6.10064
5.95472
5.97509
6.16515
6.62313
7.52137
9.18163
12.3256
18.6375
31.8476
57.2346
328.47
3.80261
3.25068
2.80213
2.4956
2.28411
2.13681
2.03394
1.96235
1.91279
1.87878
1.85571
1.84031
1.8303
1.82405
1.82034
1.81824
1.81689
1.81538
1.81251
1.807
1.79777
1.78492
1.77749
1.77609
1.77783
1.78729
1.80881
1.84064
1.87311
4.50832
5.53468
7.35091
10.2329
14.4445
19.9612
26.4406
33.2099
39.2917
43.5331
44.8995
42.8905
37.8509
31.0206
24.3734
18.9098
14.7301
11.7084
9.61226
8.18915
7.19429
6.56103
6.20206
6.03453
6.03177
6.20914
6.66838
7.57033
9.2382
12.3975
18.7395
32.0145
60.1453
373.211
4.58141
3.78812
3.16359
2.74291
2.45586
2.25656
2.11761
2.02065
1.95325
1.90667
1.87478
1.85321
1.83892
1.82973
1.82406
1.82074
1.81887
1.81761
1.816
1.81287
1.80696
1.79734
1.78439
1.77741
1.7761
1.77784
1.78729
1.80879
1.84062
1.87308
5.69822
7.71652
10.9927
15.8755
22.422
30.3637
39.0745
47.5551
54.4909
58.4673
58.3967
54.0301
46.2111
36.7443
28.0657
21.213
16.1295
12.5441
10.1101
8.49174
7.38392
6.68937
6.29647
6.09825
6.07894
6.25647
6.71713
7.62319
9.29965
12.476
18.8546
32.2425
64.1586
452.092
4.5623
5.84098
3.6619
3.08034
2.68738
2.41736
2.22968
2.0989
2.00775
1.94447
1.90081
1.871
1.85094
1.83776
1.82935
1.8242
1.82122
1.81954
1.81831
1.81657
1.81314
1.80683
1.79687
1.78407
1.7774
1.7761
1.77784
1.78728
1.80877
1.84048
1.87302
8.08399
11.7569
17.3187
24.9192
34.3805
45.1503
56.2655
66.348
73.7149
76.719
74.3389
66.7585
55.4755
42.9187
31.9597
23.5971
17.5555
13.3832
10.6022
8.78568
7.56478
6.80981
6.37218
6.15138
6.1297
6.30739
6.76961
7.68024
9.36634
12.5623
18.983
32.5222
71.0952
557.753
4.37079
5.82802
8.41
3.54385
3.00228
2.63354
2.3798
2.20348
2.08073
1.99527
1.93603
1.89524
1.86749
1.84895
1.83683
1.82912
1.82444
1.82175
1.82021
1.81896
1.81705
1.81331
1.80663
1.79664
1.78399
1.77739
1.7761
1.77783
1.78725
1.80856
1.84021
1.87296
12.5157
18.7576
27.4192
38.4267
51.3215
65.2162
78.7578
90.1399
97.2921
98.3974
92.6734
80.9526
65.5242
49.4585
36.0042
26.034
18.9932
14.2184
11.0855
9.06991
7.73657
6.90722
6.43555
6.20871
6.18434
6.36215
6.82607
7.74178
9.43879
12.657
19.1234
33.0516
80.323
682.767
4.19819
5.51157
8.43311
13.1929
3.43314
2.92663
2.58104
2.3432
2.17801
2.06313
1.98324
1.92796
1.89001
1.86435
1.84725
1.83609
1.82902
1.82475
1.8223
1.82084
1.81954
1.81743
1.81337
1.8066
1.79665
1.78395
1.77739
1.77609
1.77781
1.78708
1.80819
1.83994
1.87289
20.175
29.8943
42.448
57.4862
74.2228
91.3916
107.201
119.364
125.412
123.474
113.242
96.4277
76.2112
56.2728
40.1492
28.4972
20.4292
15.0435
11.5572
9.34322
7.87719
6.98927
6.50423
6.2706
6.24313
6.42098
6.88675
7.80811
9.51741
12.7609
19.2866
33.9232
91.4078
827.2
4.03761
5.23752
7.86286
13.2928
21.448
3.32596
2.85291
2.52989
2.30762
2.15335
2.04615
1.97171
1.92033
1.88526
1.86158
1.84581
1.83551
1.82901
1.82509
1.82283
1.82142
1.82003
1.8177
1.81355
1.80674
1.79666
1.78394
1.77739
1.77608
1.77773
1.78677
1.8078
1.83965
1.87283
32.3167
46.4016
63.5619
83.1308
103.967
124.394
142.122
154.308
158.103
151.773
135.786
112.95
87.3761
63.2703
44.3471
30.9628
21.852
15.8528
12.0145
9.56969
7.99663
7.07878
6.57872
6.3374
6.30633
6.48408
6.95184
7.8795
9.60272
12.8746
19.4936
35.1375
103.97
998.835
3.8829
4.98724
7.36531
12.2836
21.7169
34.4969
3.22174
2.78116
2.48021
2.27316
2.12954
2.02985
1.96078
1.91335
1.88102
1.85916
1.84457
1.83506
1.82905
1.82543
1.82331
1.82191
1.82042
1.81802
1.8138
1.80682
1.79665
1.78397
1.7774
1.77608
1.77758
1.78644
1.80739
1.83935
1.87276
50.2462
69.4882
91.8232
116.259
141.297
164.811
183.908
195.093
195.215
182.975
159.962
130.254
98.8542
70.3628
48.5541
33.4102
23.2514
16.6412
12.3966
9.76362
8.12808
7.17658
6.65954
6.40944
6.37415
6.55163
7.02152
7.95623
9.69503
13.0014
19.7559
36.653
119.207
1200.43
3.73313
4.74979
6.90895
11.3818
20.088
35.0687
53.7002
3.12051
2.71155
2.43212
2.23991
2.10667
2.01437
1.95073
1.90708
1.87724
1.85702
1.84351
1.83469
1.82912
1.82575
1.82373
1.82233
1.82081
1.81834
1.81394
1.80682
1.79664
1.78404
1.77747
1.77606
1.77743
1.78611
1.80698
1.83904
1.87269
75.2087
100.223
128.113
157.598
186.822
213.116
232.803
241.657
236.414
216.631
185.369
148.062
110.486
77.4692
52.7327
35.8216
24.6188
17.3035
12.7256
9.97875
8.27302
7.28355
6.74722
6.48704
6.44679
6.62375
7.09594
8.03849
9.79514
13.1436
20.0821
38.5948
136.747
1435.2
3.58837
4.52295
6.47713
10.5439
18.5955
32.615
54.7426
80.3191
3.02249
2.64426
2.38577
2.20796
2.08493
2.0001
1.94167
1.90145
1.87387
1.85513
1.84259
1.83439
1.82919
1.82602
1.82411
1.82273
1.82115
1.81851
1.81394
1.80674
1.79662
1.78435
1.77761
1.77605
1.77727
1.78577
1.80655
1.83871
1.87262
108.26
139.441
173.098
207.72
241.053
269.678
288.897
293.735
281.186
252.186
211.574
166.103
122.123
84.5199
56.8509
38.1822
25.7718
17.8753
13.0922
10.2179
8.43311
7.40062
6.84229
6.57049
6.52441
6.70054
7.17517
8.12653
9.90354
13.304
20.4938
40.9966
156.777
1754.66
3.44879
4.30659
6.06632
9.74729
17.1781
30.3372
51.238
82.0047
115.371
2.92795
2.57951
2.34128
2.17762
2.0649
1.98722
1.9335
1.89638
1.87084
1.85345
1.84177
1.83411
1.82924
1.82629
1.82448
1.82306
1.82134
1.81851
1.8138
1.8066
1.79685
1.78488
1.77775
1.77603
1.77711
1.78542
1.80611
1.83838
1.87255
150.168
187.714
227.265
267.12
304.462
334.786
352.105
350.85
328.855
289.022
238.143
184.122
133.64
91.4567
60.8823
40.1769
26.7685
18.5138
13.5016
10.4843
8.61014
7.52876
6.94528
6.66007
6.60712
6.78203
7.25924
8.22045
10.021
13.4872
21.0143
43.8475
184.184
2149.59
3.31465
4.10076
5.67681
8.98851
15.8039
28.1426
47.976
77.1922
117.834
159.52
2.8372
2.51749
2.29908
2.14967
2.04679
1.97558
1.92611
1.8918
1.86812
1.85193
1.84102
1.83384
1.82934
1.82658
1.82476
1.82325
1.82134
1.81834
1.81355
1.80662
1.79732
1.78543
1.7779
1.776
1.77696
1.78508
1.80566
1.83802
1.87247
201.38
245.395
291.023
336.309
377.532
408.634
422.148
412.314
378.625
326.495
264.666
201.903
144.932
98.2326
64.2889
41.9011
27.8817
19.2281
13.9595
10.7814
8.80612
7.66908
7.05676
6.75601
6.69497
6.86815
7.34805
8.32034
10.1483
13.6996
21.6523
47.8599
217.998
2545.54
3.18628
3.90524
5.3103
8.26674
14.4623
25.9884
44.81
72.7431
111.404
162.802
213.043
2.7505
2.45879
2.26026
2.12444
2.03043
1.96505
1.91943
1.88766
1.86565
1.85053
1.84032
1.8337
1.82951
1.82682
1.82495
1.82325
1.82114
1.81802
1.81337
1.80683
1.79775
1.78599
1.77805
1.77598
1.77681
1.78474
1.80521
1.83765
1.87238
262.082
312.753
364.843
415.914
460.796
491.339
498.538
477.244
429.616
363.976
290.788
219.268
155.917
103.943
67.2288
43.8245
29.1269
20.0283
14.4726
11.1133
9.0233
7.82275
7.1773
6.85854
6.78794
6.95872
7.44142
8.42602
10.2868
13.9467
22.5812
52.9661
254.438
2932.93
3.06409
3.71944
4.96907
7.58427
13.1594
23.8566
41.6807
68.4234
105.55
154.352
217.029
275.89
2.6687
2.40492
2.22527
2.10166
2.01563
1.95551
1.91337
1.8839
1.86337
1.84925
1.83985
1.83372
1.82968
1.82699
1.82495
1.82305
1.8208
1.8177
1.81331
1.80695
1.79814
1.78655
1.77822
1.77597
1.77667
1.78441
1.80474
1.83726
1.8723
332.348
390.14
449.422
506.784
554.939
582.925
580.542
544.582
480.929
400.906
316.215
236.078
165.133
108.858
70.4998
45.9723
30.5213
20.926
15.0481
11.4844
9.26421
7.99109
7.3075
6.96779
6.88588
7.05345
7.53887
8.53747
10.4378
14.2908
23.8308
58.4534
292.495
3286.94
2.94925
3.54308
4.65647
6.94542
11.9058
21.7474
38.5552
64.152
99.9059
146.836
206.011
280.246
347.849
2.59388
2.35652
2.19374
2.08108
2.00224
1.94686
1.90786
1.88044
1.8613
1.84833
1.83965
1.8338
1.82985
1.82699
1.82475
1.82272
1.8204
1.81742
1.81313
1.807
1.79848
1.78712
1.7784
1.77597
1.77656
1.78409
1.80427
1.83686
1.87221
412.367
478.265
545.855
610.303
660.881
683.25
667.148
613.151
531.718
436.814
340.722
250.103
173.032
114.303
74.1403
48.3725
32.0844
21.9341
15.6945
11.9
9.5317
8.17551
7.44793
7.08381
6.98852
7.15174
7.64
8.65437
10.6335
14.7494
25.2168
64.1981
330.374
3613.5
2.8447
3.37748
4.3696
6.35293
10.7135
19.671
35.4231
59.8721
94.3631
139.692
196.495
265.892
351.958
428.798
2.52687
2.31302
2.16532
2.06248
1.9901
1.939
1.9028
1.8773
1.85976
1.84785
1.83963
1.83397
1.82984
1.8268
1.82445
1.82231
1.82001
1.81703
1.81286
1.80697
1.79877
1.78767
1.7786
1.77599
1.77647
1.78378
1.80379
1.83645
1.87213
502.741
578.201
656.141
728.61
779.695
791.857
757.067
681.761
581.242
471.335
361.061
262.073
181.741
120.335
78.1929
51.0561
33.838
23.0673
16.4212
12.3659
9.82896
8.37756
7.59917
7.20657
7.09534
7.25306
7.74377
8.79893
10.876
15.2564
26.7125
70.0881
368.215
3891.13
2.75153
3.22665
4.10827
5.81042
9.59681
17.6418
32.2881
55.5536
88.8303
132.781
187.642
253.908
333.167
431.728
519.06
2.46688
2.27393
2.13969
2.04567
1.9791
1.93182
1.89822
1.87493
1.85889
1.8477
1.8398
1.83396
1.82966
1.82655
1.82408
1.82188
1.81952
1.81654
1.8125
1.80687
1.79903
1.78822
1.77883
1.77603
1.77641
1.7835
1.80331
1.83605
1.87204
604.214
692.311
783.686
864.603
912.346
907.86
848.842
749.291
628.901
499.876
378.353
275.206
191.335
127.013
82.7035
54.0572
35.8064
24.3422
17.2389
12.8885
10.1596
8.59889
7.76174
7.33582
7.20584
7.35613
7.86885
8.96549
11.129
15.8095
28.2683
76.1306
403.774
4125.15
2.66856
3.09225
3.8761
5.32287
8.56549
15.6764
29.1621
51.1834
83.247
125.964
179.274
243.06
318.068
406.87
519.581
619.812
2.41319
2.2388
2.11659
2.03045
1.96906
1.92531
1.89473
1.87356
1.85857
1.84788
1.8398
1.83378
1.82948
1.82626
1.82369
1.82138
1.81893
1.81597
1.81208
1.80673
1.79925
1.78878
1.7791
1.7761
1.77638
1.78325
1.80286
1.83565
1.87196
719.405
825.335
933.679
1021.75
1059.45
1030.05
940.967
814.748
668.276
524.075
397.241
289.588
201.886
134.398
87.721
57.4132
38.0165
25.7772
18.1597
13.4753
10.5274
8.8413
7.93607
7.47133
7.31878
7.47914
8.00608
9.1268
11.3937
16.3848
29.9195
82.0628
437.08
4283.7
2.59466
2.97284
3.67202
4.90161
7.63106
13.8005
26.0637
46.7585
77.5702
119.139
171.193
233.125
304.823
387.78
486.137
616.657
733.401
2.36512
2.20722
2.09575
2.01662
1.95999
1.92033
1.89267
1.87303
1.85878
1.84788
1.83962
1.83369
1.8293
1.82598
1.82327
1.8208
1.81827
1.81535
1.81162
1.80657
1.79947
1.78934
1.77941
1.7762
1.7764
1.78303
1.80243
1.83525
1.87188
853.709
984.942
1113.3
1204.01
1221.56
1157.15
1031.88
869.067
701.628
550.416
417.814
305.299
213.467
142.554
93.2971
61.1638
40.4975
27.3927
19.1969
14.1345
10.9369
9.1066
8.12265
7.6122
7.45451
7.6113
8.13134
9.283
11.661
17.0038
31.5647
88.0685
465.331
4399.46
2.52883
2.867
3.49113
4.54979
6.81993
12.0559
23.0212
42.2855
71.766
112.22
163.243
223.817
293.15
371.588
461.917
570.569
724.742
865.718
2.32212
2.17884
2.07685
2.00416
1.95298
1.91735
1.89186
1.87327
1.85878
1.84769
1.83963
1.83368
1.8292
1.8257
1.82278
1.82016
1.81757
1.8147
1.81116
1.80641
1.79969
1.78994
1.77978
1.77634
1.77646
1.78284
1.80201
1.83487
1.87179
1015.78
1182.74
1332.39
1417.13
1400.46
1287.35
1108.25
915.16
737.872
578.98
440.143
322.407
226.144
151.541
99.4837
65.3509
43.281
29.2109
20.3651
14.8748
11.3926
9.39683
8.32139
7.785
7.60179
7.72863
8.24388
9.43145
11.9408
17.6246
33.2618
93.4361
493.144
4456.19
2.47018
2.77334
3.33031
4.25424
6.13569
10.5088
20.092
37.7841
65.8092
105.125
155.282
214.92
282.635
357.921
442.051
539.757
660.477
847.535
1026.05
2.28364
2.15321
2.05988
1.99447
1.94878
1.91622
1.89215
1.87327
1.85858
1.84784
1.83984
1.83381
1.82914
1.82538
1.82224
1.81949
1.81686
1.81406
1.81071
1.80628
1.79995
1.79058
1.78021
1.77651
1.77654
1.78267
1.80161
1.8345
1.87171
1221.28
1437.04
1608.68
1674.69
1597.55
1399.06
1173.37
965.271
777.057
609.809
464.273
340.965
239.975
161.416
106.332
70.0172
46.4
31.2555
21.6802
15.7061
11.8996
9.71353
8.572
7.9789
7.73449
7.82952
8.34291
9.57572
12.2163
18.2686
34.8667
98.8994
519.079
4481.43
2.41792
2.69049
3.1874
4.0025
5.56306
9.18816
17.3881
33.3204
59.6887
97.7746
147.168
206.225
272.99
346.166
426.048
515.288
621.434
757.547
994.931
1230.87
2.24905
2.13028
2.04657
1.98869
1.94721
1.91658
1.89215
1.87303
1.8589
1.84834
1.84031
1.83408
1.82908
1.82503
1.8217
1.81883
1.81617
1.81346
1.81032
1.80621
1.80027
1.79127
1.7807
1.77671
1.77665
1.78253
1.80123
1.83414
1.87163
1501.38
1793.01
1987.96
1999.32
1770.75
1494.75
1244.24
1019.34
819.156
642.892
490.211
360.997
254.998
172.226
113.889
75.2046
49.8882
33.5514
23.159
16.6387
12.4627
10.1234
8.86558
8.16128
7.85134
7.91384
8.42944
9.70883
12.4937
18.8814
36.5013
104.238
548.828
4461.08
2.37121
2.61714
3.06078
3.78517
5.08768
8.07033
14.9792
29.0612
53.4559
90.0983
138.747
197.519
263.922
335.947
412.947
496.539
591.226
708.608
867.373
1189.56
1520.25
2.21822
2.11219
2.03862
1.98662
1.94766
1.91658
1.89187
1.87357
1.85979
1.84927
1.84102
1.83437
1.82901
1.8247
1.82117
1.8182
1.81554
1.81293
1.81001
1.80623
1.80067
1.79201
1.78124
1.77694
1.77677
1.7824
1.80086
1.8338
1.87155
1965.9
2369.83
2579.21
2285.4
1918.02
1598.36
1320.4
1077.16
864.038
678.15
517.919
382.495
271.23
184.005
122.196
80.9517
53.7783
36.1235
24.8188
17.6825
13.2044
10.6216
9.15566
8.33071
7.95165
7.98182
8.50003
9.83242
12.7572
19.5018
38.1151
110.534
578.155
4401.84
2.32976
2.55193
2.94897
3.59497
4.69681
7.13669
12.8777
25.1334
47.3172
82.0959
129.864
188.568
255.147
326.865
402.276
481.912
569.27
671.361
806.014
1002.61
1484.69
2057.17
2.19367
2.10151
2.0359
1.98719
1.94766
1.91622
1.89268
1.87498
1.86134
1.85057
1.84178
1.83468
1.82897
1.8244
1.8207
1.81764
1.815
1.8125
1.80981
1.80635
1.80113
1.79278
1.78183
1.77719
1.77691
1.78228
1.80052
1.83347
1.87148
2818.27
3526.92
3058.47
2517.59
2073.17
1707.99
1401.03
1138.3
911.454
715.426
547.295
405.406
288.658
196.766
131.279
87.2906
58.1003
38.9962
26.676
19.0672
14.1266
11.133
9.44044
8.48612
8.03503
8.03154
8.55463
9.94408
13.0163
20.1136
39.959
117.119
611.493
4281.28
2.29661
2.49438
2.85025
3.42702
4.37697
6.36548
11.0796
21.5723
41.4564
73.9734
120.423
179.112
246.353
318.565
393.491
470.834
552.883
645.685
760.324
925.117
1195.35
2064.34
3226.4
2.17918
2.09805
2.03662
1.98719
1.94721
1.91737
1.89479
1.87737
1.86344
1.85198
1.84261
1.83505
1.82899
1.82417
1.82031
1.81719
1.81457
1.81221
1.80975
1.80657
1.80166
1.79359
1.78246
1.77745
1.77705
1.78218
1.80019
1.83317
1.87144
4935.32
4244.02
3393.92
2743.08
2231.05
1821.5
1485.05
1202.18
961.04