/*--------------------------------*- C++ -*----------------------------------*\
  =========                 |
  \\      /  F ield         | OpenFOAM: The Open Source CFD Toolbox
   \\    /   O peration     | Website:  https://openfoam.org
    \\  /    A nd           | Version:  8
     \\/     M anipulation  |
\*---------------------------------------------------------------------------*/
FoamFile
{
    version     2.0;
    format      ascii;
    class       volScalarField;
    location    "0.4";
    object      p;
}
// * * * * * * * * * * * * * * * * * * * * * * * * * * * * * * * * * * * * * //

dimensions      [0 2 -2 0 0 0 0];

internalField   nonuniform List<scalar> 
15677
(
74.5974
74.2408
73.8281
74.3054
73.8163
73.8299
74.2804
73.8435
73.8393
73.7235
74.255
73.8449
73.8396
73.7325
73.632
74.2333
73.8471
73.8395
73.7318
73.6396
73.5359
74.2098
73.8494
73.8391
73.7329
73.6395
73.5425
73.4214
74.1847
73.852
73.8383
73.7332
73.6405
73.5425
73.4272
73.2846
74.1585
73.8551
73.8368
73.7333
73.641
73.5435
73.4273
73.2897
73.1184
74.1312
73.8571
73.8349
73.7331
73.6415
73.544
73.4283
73.2899
73.1227
72.915
74.1026
73.8586
73.8322
73.7327
73.6419
73.5447
73.429
73.291
73.1231
72.9187
72.6668
74.0731
73.8602
73.8289
73.7325
73.6423
73.5453
73.4298
73.2918
73.1243
72.9192
72.6697
72.3656
74.0432
73.8613
73.8256
73.7326
73.6429
73.5462
73.4308
73.293
73.1254
72.9206
72.6705
72.3677
72.0028
74.0134
73.8614
73.8221
73.733
73.6439
73.5475
73.4323
73.2945
73.1269
72.922
72.6721
72.3686
72.0042
71.5702
73.9868
73.8601
73.8186
73.7338
73.6456
73.5494
73.4344
73.2966
73.129
72.9241
72.674
72.3705
72.0052
71.5705
71.0595
73.9639
73.858
73.8151
73.7352
73.6482
73.5525
73.4376
73.2997
73.132
72.9269
72.6767
72.373
72.0075
71.5718
71.0588
70.4633
73.944
73.856
73.8122
73.7372
73.6521
73.5571
73.4424
73.3045
73.1365
72.9311
72.6805
72.3765
72.0106
71.5745
71.0604
70.4615
69.7748
73.9265
73.854
73.81
73.7398
73.6575
73.5636
73.4495
73.3115
73.1431
72.9372
72.686
72.3814
72.015
71.5784
71.0635
70.4633
69.7716
68.9883
73.9114
73.852
73.8084
73.7427
73.6642
73.5726
73.4595
73.3216
73.1529
72.9463
72.6942
72.3887
72.0215
71.584
71.0682
70.4669
69.7738
68.9837
68.0994
73.8984
73.8502
73.8074
73.7461
73.6715
73.5836
73.4732
73.3359
73.167
72.9595
72.7063
72.3995
72.0308
71.5921
71.0752
70.4726
69.7779
68.9861
68.0932
67.1052
73.8872
73.8485
73.8069
73.75
73.6796
73.5956
73.4898
73.3554
73.1867
72.9785
72.7239
72.4153
72.0446
71.604
71.0853
70.4811
69.7847
68.9907
68.096
67.0973
66.0048
73.8783
73.847
73.8069
73.7542
73.6883
73.6088
73.5079
73.3792
73.2137
73.0052
72.7491
72.4382
72.0649
71.6213
71.1
70.4934
69.7948
68.9987
68.1011
67.1004
65.995
64.7986
73.8714
73.8455
73.8074
73.7589
73.6976
73.623
73.5277
73.4051
73.2466
73.0417
72.7844
72.4709
72.0942
71.6468
71.1215
70.5112
69.8094
69.0105
68.1102
67.106
65.9984
64.7869
63.4899
73.8662
73.8441
73.8082
73.7639
73.7074
73.638
73.549
73.4334
73.2824
73.0861
72.8327
72.5167
72.136
71.6836
71.1529
70.5373
69.8308
69.0277
68.1238
67.1163
66.0044
64.7905
63.4761
62.0833
73.862
73.843
73.8092
73.7689
73.7176
73.6538
73.5715
73.4637
73.3216
73.1345
72.8915
72.5795
72.1944
71.7361
71.1984
70.5755
69.8619
69.0527
68.1436
67.1317
66.0158
64.7969
63.4799
62.0672
60.5909
73.8588
73.842
73.8103
73.7736
73.7276
73.6702
73.5951
73.496
73.3637
73.1875
72.9556
72.6559
72.2746
71.8095
71.2632
70.6308
69.9075
69.0893
68.1724
67.154
66.0328
64.8091
63.4864
62.071
60.572
59.0431
73.8562
73.8412
73.8115
73.7779
73.7368
73.6862
73.6195
73.5297
73.4083
73.2445
73.0259
72.7395
72.3723
71.9102
71.3539
70.7095
69.9735
69.1428
68.2146
67.1865
66.0575
64.8276
63.4992
62.0771
60.5732
58.9875
57.3793
73.8541
73.8406
73.8126
73.7819
73.7452
73.701
73.6435
73.5645
73.455
73.305
73.1017
72.8311
72.4793
72.0332
71.4784
70.8198
70.0677
69.2204
68.2763
67.2343
66.0935
64.8544
63.5186
62.0901
60.5779
58.9902
57.3122
55.5848
73.8523
73.8401
73.8137
73.7855
73.7527
73.7143
73.6654
73.5987
73.5034
73.3683
73.182
72.9299
72.5968
72.1679
71.6308
70.9715
70.1998
69.3312
68.3661
67.3044
66.1466
64.8935
63.5469
62.1098
60.5893
58.9911
57.3148
55.5545
53.7327
73.8509
73.8397
73.8146
73.7887
73.7594
73.7263
73.6852
73.63
73.5507
73.4339
73.2663
73.0349
72.7236
72.3162
71.798
71.1573
70.3817
69.487
68.4946
67.4066
66.225
64.9515
63.5884
62.1387
60.6075
58.9996
57.3091
55.5468
53.7212
51.8288
73.8498
73.8394
73.8153
73.7918
73.7655
73.737
73.703
73.6582
73.5942
73.4982
73.3536
73.145
72.8585
72.4764
71.9823
71.3617
70.6052
69.7021
68.6757
67.5534
66.3395
65.0374
63.6504
62.1815
60.6353
59.0151
57.3169
55.5374
53.7043
51.8233
49.6821
73.8488
73.8391
73.816
73.7946
73.7708
73.7465
73.7188
73.6836
73.6334
73.5572
73.4392
73.2592
73.0001
72.6471
72.1817
71.5874
70.8515
69.967
68.9264
67.7608
66.5047
65.1637
63.7429
62.2461
60.6776
59.0403
57.3308
55.5467
53.6957
51.8046
49.6799
47.2634
73.848
73.8388
73.8166
73.797
73.7756
73.7549
73.7329
73.7062
73.6686
73.6105
73.5179
73.3714
73.1473
72.8266
72.3946
71.8322
71.124
70.2597
69.236
68.0489
66.7387
65.3466
63.8797
62.3437
60.743
59.0806
57.3543
55.5601
53.7055
51.7981
49.662
47.2631
44.8172
73.8473
73.8387
73.8172
73.7992
73.7798
73.7625
73.7455
73.7264
73.7001
73.6583
73.5889
73.4745
73.2919
73.0134
72.6188
72.0939
71.4203
70.5843
69.5789
68.4057
67.0651
65.6071
64.0793
62.4896
60.8438
59.1453
57.3929
55.5833
53.719
51.8064
49.6554
47.2465
44.8187
42.386
73.8467
73.8385
73.8178
73.8011
73.7835
73.7691
73.7566
73.7443
73.7281
73.7011
73.6528
73.5678
73.4251
73.1972
72.8525
72.3702
71.7377
70.938
69.9604
68.8022
67.4709
65.9718
64.3651
62.7041
60.9966
59.2474
57.4567
55.6212
53.7422
51.8199
49.6605
47.2394
44.8041
42.3876
39.99
73.8384
73.846
73.8183
73.8028
73.7868
73.775
73.7665
73.7601
73.7529
73.7392
73.7099
73.6517
73.5457
73.3667
73.0829
72.6586
72.0735
71.3179
70.3772
69.2446
67.9234
66.4274
64.7673
63.0133
61.2238
59.4051
57.5595
55.6843
53.7792
51.8424
49.6726
47.2411
44.7969
42.3741
39.9915
37.642
73.8187
73.8383
73.8452
73.8043
73.7898
73.7803
73.7752
73.7742
73.775
73.773
73.7607
73.7267
73.6542
73.5204
73.2958
72.9437
72.4249
71.7209
70.826
69.7294
68.4299
66.9372
65.272
63.451
61.5539
59.6424
57.7206
55.7872
53.841
51.8776
49.6924
47.2505
44.7956
42.3658
39.9787
37.6427
35.3541
73.8056
73.8195
73.8382
73.8445
73.7924
73.7849
73.783
73.7867
73.7945
73.803
73.806
73.7936
73.7513
73.6588
73.489
73.2075
72.7731
72.1437
71.3035
70.2532
68.9869
67.5099
65.8392
64.0033
62.0242
59.9904
57.9657
55.9503
53.9427
51.9367
49.7238
47.2656
44.8016
42.361
39.9689
37.6305
35.3539
33.1374
73.7946
73.8073
73.8204
73.8381
73.8438
73.789
73.7898
73.7977
73.8119
73.8297
73.8461
73.8531
73.838
73.7829
73.6633
73.4474
73.096
72.5637
71.806
70.8121
69.5906
68.1419
66.4789
64.6267
62.6212
60.4897
58.3283
56.2008
54.1058
52.0353
49.7779
47.2907
44.8111
42.3623
39.9602
37.6188
35.3421
33.1361
31.0002
73.7925
73.7977
73.8094
73.8213
73.838
73.8432
73.7959
73.8076
73.8272
73.8533
73.8817
73.9059
73.9151
73.8936
73.8196
73.6641
73.3903
72.9543
72.3068
71.4022
70.237
68.8294
67.1876
65.3327
63.2983
61.1275
58.8523
56.5744
54.3586
52.1956
49.8705
47.3364
44.8283
42.3647
39.9557
37.606
35.3282
33.1246
30.9979
28.9487
73.8011
73.7973
73.801
73.8114
73.8222
73.838
73.8426
73.8162
73.8409
73.8742
73.9133
73.9528
73.9837
73.9924
73.9595
73.8588
73.6566
73.311
72.7737
71.9923
70.922
69.5684
67.9615
66.118
64.0685
61.8544
59.5259
57.1182
54.7388
52.4471
50.0243
47.4187
44.8631
42.3722
39.9499
37.5951
35.311
33.1082
30.9865
28.9454
26.9871
73.8235
73.808
73.8022
73.8045
73.8135
73.8231
73.8379
73.842
73.8529
73.8928
73.9413
73.9944
74.0446
74.0801
74.0842
74.0332
73.8962
73.6345
73.2012
72.5443
71.6096
70.3546
68.7965
66.9791
64.9286
62.6848
60.2972
57.8214
55.2966
52.8292
50.27
47.5607
44.9316
42.3937
39.9458
37.58
35.2934
33.0866
30.9674
28.934
26.9829
25.118
73.8631
73.8333
73.8149
73.8073
73.8078
73.8154
73.824
73.8379
73.8415
73.9092
73.9662
74.0313
74.0986
74.1581
74.1952
74.1888
74.1111
73.9262
73.5899
73.0512
72.2549
71.1468
69.6887
67.9123
65.8759
63.6162
61.1823
58.6305
56.022
53.3942
50.6486
47.7939
45.0572
42.4453
39.9518
37.5632
35.2683
33.0618
30.9415
28.9123
26.9714
25.1129
23.3426
73.923
73.8765
73.8426
73.8219
73.8122
73.8111
73.8173
73.825
73.8378
73.841
73.9883
74.0642
74.1466
74.2274
74.2938
74.3275
74.3033
74.1882
73.9411
73.5132
72.8495
71.8933
70.5917
68.9137
66.9072
64.6469
62.1798
59.5632
56.8609
54.1335
51.2137
48.1606
45.2719
42.5504
39.9837
37.5519
35.2377
33.0264
30.9094
28.8819
26.9469
25.1012
23.3367
21.6606
74.0066
73.9412
73.8887
73.852
73.8288
73.817
73.8143
73.8192
73.8259
73.8378
73.8406
74.0932
74.1892
74.2889
74.3815
74.4509
74.4747
74.4227
74.2572
73.9317
73.393
72.5834
71.446
69.9319
68.019
65.7741
63.2888
60.6196
57.8328
54.993
51.9587
48.7143
45.6178
42.7411
40.0648
37.562
35.208
32.9812
30.8632
28.8424
26.9122
25.0741
23.3247
21.654
20.071
74.1173
74.0308
73.9568
73.9012
73.8613
73.8354
73.8216
73.8173
73.821
73.8267
73.8378
73.8402
74.227
74.3436
74.4594
74.5607
74.6274
74.6323
74.5407
74.3091
73.8866
73.2162
72.2388
70.8994
69.1551
66.9953
64.5075
61.7997
58.9391
55.9943
52.8307
49.4516
46.1479
43.0579
40.2264
37.6164
35.1947
32.9322
30.8031
28.7854
26.8653
25.0352
23.295
21.6418
20.0637
18.5719
74.2582
74.1492
74.0508
73.9731
73.9134
73.8702
73.8418
73.8261
73.8203
73.8227
73.8276
73.8377
73.8398
74.3921
74.5289
74.6583
74.7632
74.8192
74.7943
74.6483
74.3329
73.7927
72.9683
71.8009
70.2395
68.2497
65.8347
63.1032
60.1813
57.1398
53.8527
50.322
46.8621
43.553
40.5069
37.7443
35.22
32.8945
30.7342
28.7101
26.7975
24.981
23.252
21.6095
20.0512
18.564
17.1607
74.432
74.2996
74.1744
74.0717
73.9889
73.925
73.8786
73.8479
73.8303
73.8231
73.8243
73.8284
73.8377
73.8395
74.5903
74.7453
74.8842
74.9858
75.0209
74.9524
74.7348
74.3152
73.6349
72.6335
71.2543
69.4527
67.2052
64.5303
61.5605
58.4326
55.0286
51.3492
47.7134
44.23
40.9568
37.9822
35.3106
32.8889
30.6715
28.6213
26.707
24.9024
23.1906
21.5626
20.0165
18.5513
17.1523
15.8343
74.6406
74.4853
74.3312
74.201
74.0919
74.0039
73.936
73.8867
73.8537
73.8344
73.8257
73.8259
73.8292
73.8377
73.8393
74.8224
74.9922
75.1341
75.223
75.2244
75.0958
74.787
74.2409
73.3968
72.195
70.5835
68.5263
66.0122
63.0788
59.8761
56.3636
52.539
48.7255
45.0457
41.5836
38.378
35.5006
32.9394
30.6337
28.5334
26.5985
24.797
23.1016
21.4942
19.9659
18.5142
17.1393
15.8254
14.5895
74.8851
74.7086
74.5246
74.3647
74.2266
74.1109
74.0179
73.9464
73.8942
73.8591
73.8381
73.8282
73.8273
73.8299
73.8377
73.839
75.0877
75.2668
75.4033
75.4673
75.4193
75.2116
74.7894
74.0928
73.0607
71.6362
69.7738
67.4482
64.6647
61.4743
57.8633
53.8991
49.9063
46.0229
42.3475
38.9423
35.8348
33.0774
30.6421
28.4626
26.4854
24.6693
22.9817
21.3951
19.8908
18.4601
17.1
15.8122
14.5802
13.4227
75.1652
74.971
74.7571
74.5665
74.3969
74.2505
74.1287
74.0311
73.956
73.9012
73.8641
73.8416
73.8305
73.8286
73.8305
73.8377
73.8389
75.384
75.5646
75.6843
75.7087
75.5928
75.2842
74.7246
73.8526
72.6084
70.94
68.8108
66.21
63.1533
59.5342
55.4378
51.2657
47.1713
43.2703
39.6394
36.3257
33.3439
30.7252
28.4277
26.3814
24.5312
22.8352
21.2611
19.782
18.3785
17.0426
15.7709
14.5667
13.4129
12.3303
75.4787
75.2729
75.0308
74.8094
74.6067
74.4268
74.2728
74.1452
74.0432
73.9649
73.9077
73.8688
73.8448
73.8325
73.8297
73.831
73.8377
73.8387
75.7072
75.8789
75.9676
75.9344
75.7295
75.296
74.5735
73.5007
72.0213
70.0902
67.6834
64.7983
61.3018
57.1657
52.8154
48.5027
44.3622
40.4882
36.9418
33.7517
30.9189
28.4538
26.3026
24.3941
22.6726
21.0966
19.6345
18.2604
16.9548
15.7104
14.5234
13.3992
12.3199
11.3081
75.8217
75.6128
75.3462
75.0956
74.8593
74.6439
74.4544
74.2932
74.1602
74.0542
73.973
73.9136
73.8729
73.8477
73.8343
73.8306
73.8315
73.8377
73.8386
76.0505
76.2002
76.2406
76.1292
75.8113
75.2273
74.3155
73.0172
71.2812
69.0729
66.3748
63.0457
59.0087
54.5679
50.0295
45.6344
41.4979
37.6976
34.274
31.2357
28.571
26.2707
24.2715
22.5031
20.9102
19.4526
18.1001
16.8279
15.6167
14.4601
13.3541
12.3059
11.2966
10.3567
76.1876
75.9876
75.7026
75.4264
75.1573
74.9051
74.6779
74.4795
74.3117
74.1738
74.0641
73.9802
73.9187
73.8765
73.85
73.8358
73.8314
73.8319
73.8377
73.8385
76.405
76.5162
76.4882
76.2748
75.8183
75.0565
73.9295
72.3819
70.3715
67.8687
64.7277
60.8397
56.448
51.7634
47.0985
42.678
38.6001
34.9194
31.6532
28.7904
26.3086
24.1811
22.3371
20.709
19.2433
17.9017
16.6555
15.4814
14.3608
13.2882
12.2591
11.2827
10.3395
9.56291
76.5675
76.3917
76.0974
75.8014
75.5023
75.2137
74.9469
74.7087
74.5021
74.3281
74.1857
74.0728
73.9864
73.9231
73.8794
73.852
73.837
73.8321
73.8323
73.8377
73.8384
76.7584
76.812
76.6921
76.351
75.728
74.7616
73.3935
71.576
69.2711
66.3298
62.6131
58.3218
53.6303
48.7659
44.0398
39.6577
35.6931
32.174
29.0948
26.4265
24.1383
22.1886
20.5006
19.0114
17.6704
16.4414
15.2977
14.2177
13.1837
12.1909
11.2345
10.3263
9.55682
8.89396
76.9492
76.8172
76.5258
76.2189
75.8947
75.5715
75.2648
74.9845
74.736
74.5219
74.3424
74.196
74.0801
73.9914
73.9265
73.8818
73.8537
73.838
73.8327
73.8326
73.8377
73.8383
77.0957
77.0693
76.8318
76.3348
75.5176
74.3187
72.6867
70.5769
67.8386
64.3046
60.1395
55.4988
50.5742
45.6011
40.8853
36.604
32.8021
29.4805
26.6121
24.1524
22.0647
20.2948
18.7619
17.409
16.189
15.0687
14.0232
13.0333
12.0816
11.1645
10.2767
9.54994
8.90105
8.19868
77.3175
77.2532
76.9808
76.675
76.3333
75.9795
75.634
75.3105
75.0175
74.7598
74.5389
74.3544
74.2044
74.0859
73.9954
73.9293
73.8837
73.855
73.8389
73.8332
73.8328
73.8378
73.8383
77.3988
77.2674
76.8837
76.2021
75.1615
73.7057
71.7845
69.2459
65.8985
61.8792
57.3275
52.4084
47.3214
42.3125
37.6741
33.549
29.9517
26.8564
24.2164
21.9747
20.0907
18.5001
17.1198
15.8994
14.7963
13.7803
12.8288
11.9244
11.0506
10.2053
9.49962
8.89547
8.19911
7.44659
77.6537
77.6858
77.4525
77.1636
76.8152
76.4371
76.0558
75.6895
75.3504
75.0459
74.7797
74.5528
74.364
74.2108
74.0901
73.9983
73.9313
73.8851
73.856
73.8395
73.8336
73.833
73.8378
73.8382
77.6464
77.3824
76.8232
75.9264
74.6362
72.895
70.5481
67.387
63.5297
59.1028
54.2394
49.1071
43.9239
38.9456
34.444
30.5223
27.1636
24.3162
21.9166
19.8978
18.2175
16.8038
15.5723
14.4798
13.4889
12.5727
11.7104
10.8872
10.0871
9.42787
8.84634
8.18823
7.43951
6.62233
77.9361
78.098
77.9281
77.6762
77.3351
76.9421
76.5301
76.1232
75.7376
75.3843
75.0694
74.7957
74.5634
74.3709
74.2152
74.093
74.0003
73.9327
73.8861
73.8567
73.84
73.8339
73.8332
73.8378
73.8382
77.8141
77.3891
76.6226
75.4825
73.9106
71.7459
68.7687
65.0864
60.816
56.056
50.936
45.6459
40.4268
35.5404
31.2283
27.5499
24.4561
21.8718
19.7192
17.9244
16.4453
15.2041
14.1165
13.147
12.2634
11.442
10.6643
9.91794
9.30606
8.77351
8.13913
7.42408
6.61228
5.72448
78.1391
78.4697
78.3918
78.2013
77.8857
77.4902
77.0556
76.6121
76.1813
75.7781
75.4118
75.0877
74.8075
74.5707
74.3752
74.2179
74.0947
74.0014
73.9336
73.8868
73.8573
73.8404
73.8341
73.8333
73.8378
73.8382
77.8756
77.2588
76.2548
74.8355
72.8419
70.0455
66.548
62.4586
57.8432
52.7915
47.4574
42.0619
36.8667
32.131
28.056
24.6535
21.8441
19.5318
17.6283
16.0554
14.7728
13.6986
12.7494
11.8974
11.1158
10.3843
9.68675
9.13227
8.64895
8.06418
7.37344
6.59553
5.7132
4.75008
78.2347
78.7775
78.8245
78.7244
78.4569
78.0753
77.629
77.1555
76.6825
76.2298
75.8105
75.4328
75.1007
74.8149
74.5747
74.3773
74.219
74.0954
74.0019
73.9339
73.8871
73.8575
73.8406
73.8343
73.8334
73.8377
73.8382
77.8012
76.9628
75.682
73.8411
71.2205
67.9138
64.0223
59.583
54.6492
49.3353
43.8295
38.3843
33.2754
28.7475
24.9515
21.8508
19.3385
17.3021
15.6462
14.2906
13.1981
12.2843
11.4675
10.7273
10.0423
9.3959
8.89424
8.47109
7.93657
7.2953
6.54314
5.69603
4.73791
3.69273
78.191
78.9958
79.2037
79.2282
79.0357
78.6883
78.2449
77.7509
77.241
76.7409
76.2683
75.8348
75.4471
75.1081
74.8182
74.5758
74.3774
74.2187
74.0951
74.0017
73.9338
73.8871
73.8576
73.8409
73.8345
73.8335
73.8378
73.8382
77.5593
76.4604
74.7584
72.2984
69.183
65.4997
61.2581
56.4816
51.2468
45.702
40.0732
34.6405
29.682
25.4162
21.9351
19.1554
16.9472
15.1862
13.7731
12.628
11.7183
10.9578
10.2669
9.63254
9.03902
8.59456
8.22744
7.75416
7.16412
6.46151
5.64201
4.71982
3.67998
2.54535
77.9713
79.0966
79.5042
79.692
79.6062
79.3179
78.8957
78.3938
77.8551
77.3116
76.7867
76.2964
75.8504
75.4543
75.1104
74.818
74.5744
74.3757
74.2172
74.0939
74.0009
73.9333
73.8868
73.8579
73.8412
73.8346
73.8335
73.8378
73.8382
77.1059
75.6041
73.2962
70.3573
66.8836
62.8536
58.2631
53.1568
47.6415
41.9046
36.2102
30.8576
26.1142
22.1599
19.0231
16.5773
14.6752
13.1855
12.0079
11.0654
10.3302
9.71525
9.14361
8.60942
8.22559
7.92022
7.50444
6.97662
6.32633
5.55707
4.66416
3.66075
2.53235
1.30082
77.5256
79.0487
79.6977
80.0918
80.1494
79.9498
79.5713
79.078
78.5212
77.9409
77.3667
76.8198
76.3138
75.8574
75.4552
75.1082
74.8146
74.5709
74.3726
74.2147
74.0921
73.9995
73.9324
73.887
73.8585
73.8414
73.8346
73.8334
73.8378
73.8383
76.2898
74.2234
71.4536
68.1713
64.3569
59.9726
55.0329
49.6074
43.8393
37.9591
32.2648
27.0637
22.5979
18.9982
16.228
14.1231
12.5249
11.2994
10.3485
9.59955
9.03001
8.55272
8.09377
7.77987
7.54108
7.18905
6.72023
6.13313
5.41759
4.576
3.60342
2.51233
1.28769
-0.048469
78.81
76.7024
79.7512
80.4014
80.6432
80.5666
80.259
79.7945
79.2341
78.6262
78.0078
77.4061
76.8395
76.3204
75.8564
75.4505
75.1021
74.8085
74.5655
74.3682
74.2113
74.0894
73.9975
73.9324
73.8879
73.8587
73.8414
73.8345
73.8333
73.8378
73.8383
74.9605
72.4792
69.3793
65.7616
61.5923
56.848
51.5615
45.8337
39.8501
33.8852
28.2641
23.2873
19.1568
15.9476
13.5591
11.7968
10.4965
9.52599
8.79194
8.2266
7.81364
7.46624
7.24257
7.08181
6.7989
6.39596
5.86946
5.21815
4.43187
3.51188
2.45309
1.26711
-0.0617535
-1.51056
79.6259
78.2371
75.3573
80.5883
81.0631
81.1478
80.9432
80.5323
79.9862
79.363
78.708
78.0553
77.4291
76.846
76.3174
75.8487
75.4411
75.0928
74.8001
74.5585
74.3626
74.2068
74.0859
73.9973
73.9337
73.8883
73.8587
73.8412
73.8343
73.8332
73.8378
73.8384
73.2832
70.5138
67.0849
63.112
58.5788
53.471
47.8451
41.8397
35.688
29.7072
24.238
19.5566
15.8126
13.0211
11.0226
9.59966
8.58856
7.86254
7.33427
6.9424
6.67705
6.58544
6.52631
6.32497
5.99385
5.5355
4.94656
4.22567
3.36269
2.35792
1.20579
-0.0829612
-1.52398
-3.09375
80.6163
79.2008
77.2179
73.6807
81.3785
81.6707
81.6051
81.2774
80.7679
80.1452
79.4639
78.7662
78.0828
77.4358
76.8407
76.3061
75.8352
75.4276
75.0805
74.7897
74.55
74.3556
74.2013
74.0852
73.9991
73.9343
73.8883
73.8585
73.8409
73.8341
73.8331
73.8378
73.8385
71.394
68.3325
64.5497
60.2107
55.3065
49.8352
43.8829
37.6334
31.3722
25.4538
20.2178
15.8988
12.5837
10.2286
8.6216
7.53108
6.79853
6.30507
5.97122
5.74275
5.75592
5.84437
5.7498
5.50407
5.12044
4.60203
3.94548
3.14921
2.20322
1.10678
-0.146327
-1.54589
-3.10725
-4.80659
81.5569
80.3795
78.3338
75.8794
71.805
82.1069
82.224
82.0128
81.5669
80.9643
80.2704
79.5362
78.8001
78.0905
77.4282
76.8253
76.2877
75.8167
75.4107
75.0659
74.7776
74.5399
74.3475
74.1999
74.0877
73.9999
73.9343
73.8879
73.8579
73.8406
73.8339
73.8328
73.8378
73.8386
69.2935
65.9107
61.762
57.0479
51.768
45.9366
39.677
33.2272
26.9271
21.1571
16.2356
12.3389
9.48559
7.57649
6.35731
5.5891
5.12249
4.84912
4.69837
4.77092
4.98113
5.04102
4.90761
4.61351
4.17296
3.58949
2.85971
1.98188
0.946126
-0.249308
-1.61128
-3.1299
-4.82007
-6.65776
82.4279
81.512
79.7393
77.1501
74.3301
69.7268
82.7733
82.7197
82.368
81.8098
81.1203
80.3611
79.5791
78.81
78.0808
77.4083
76.8014
76.2634
75.7941
75.3909
75.0493
74.7634
74.5282
74.345
74.2032
74.0887
73.9999
73.9337
73.8871
73.8576
73.8404
73.8336
73.8326
73.8378
73.8387
66.9522
63.2379
58.713
53.6164
47.9577
41.7724
35.232
28.638
22.3818
16.8519
12.323
8.89902
6.52965
5.06875
4.2289
3.77008
3.55588
3.49001
3.66776
3.95375
4.14128
4.16988
3.99406
3.64751
3.14527
2.49128
1.68232
0.716361
-0.416341
-1.71841
-3.1973
-4.84343
-6.67115
-8.65572
83.2287
82.5685
81.104
78.7887
75.7615
72.5811
67.41
83.3735
83.1543
82.6683
82.0045
81.2348
80.4163
79.5928
78.7987
78.0563
77.3781
76.7701
76.234
75.768
75.3687
75.03
74.7472
74.5245
74.3494
74.2046
74.0887
73.9991
73.9324
73.8869
73.8575
73.84
73.8332
73.8323
73.8378
73.8389
64.3608
60.3069
55.3972
49.9108
43.8699
37.3405
30.5556
23.888
17.7704
12.5749
8.50954
5.59729
3.72425
2.70677
2.23354
2.06957
2.09381
2.39
2.80151
3.06809
3.23081
3.22516
3.00329
2.59987
2.03073
1.30044
0.405958
-0.655116
-1.89227
-3.30884
-4.91286
-6.69517
-8.66854
-10.8126
83.954
83.5491
82.3859
80.393
77.6341
74.2017
70.5963
64.8447
83.9031
83.5245
82.9115
82.1499
81.3069
80.4364
79.581
78.7695
78.0192
77.3391
76.7329
76.2005
75.7391
75.3432
75.0083
74.7419
74.5302
74.3513
74.2046
74.0877
73.9973
73.9324
73.8872
73.8573
73.8395
73.8327
73.8319
73.8378
73.8391
61.5146
57.115
51.8103
45.9242
39.4976
32.6388
25.6589
19.0054
13.1316
8.36284
4.82152
2.4483
1.07449
0.489323
0.367277
0.482574
0.910768
1.46583
1.86296
2.10834
2.24384
2.2009
1.929
1.46388
0.82235
0.00959721
-0.977162
-2.14064
-3.48997
-5.02904
-6.76643
-8.69267
-10.8214
-13.5335
84.5977
84.4474
83.5878
81.9097
79.4751
76.3303
72.4331
68.3677
62.0272
84.3581
83.8278
83.0962
82.2444
81.3366
80.4256
79.5475
78.7252
77.9716
77.2929
76.6907
76.1635
75.7061
75.3147
75.0008
74.7493
74.5325
74.3513
74.2032
74.0852
73.9976
73.9333
73.8872
73.8568
73.8389
73.8321
73.8315
73.8378
73.8393
58.4129
53.6602
47.9463
41.6475
34.8304
27.665
20.5588
14.0254
8.50695
4.25078
1.28171
-0.5373
-1.41798
-1.58646
-1.37476
-0.801451
-0.0827702
0.464906
0.846356
1.06848
1.17426
1.09071
0.764451
0.232531
-0.487277
-1.38905
-2.47513
-3.74854
-5.21791
-6.88742
-8.76588
-10.8455
-13.5473
-16.7795
85.1547
85.2549
84.7035
83.3428
81.224
78.4229
74.841
70.4433
65.8971
58.958
84.7353
84.0622
83.2205
82.2882
81.3292
80.3887
79.4959
78.6683
77.9153
77.2408
76.6445
76.1218
75.6696
75.3047
75.0102
74.7522
74.5326
74.3495
74.1999
74.086
73.9996
73.9339
73.8868
73.856
73.838
73.8315
73.8311
73.8378
73.8396
55.0564
49.9393
43.7966
37.065
29.8542
22.4213
15.2803
8.98962
3.93939
0.271425
-2.09148
-3.35337
-3.754
-3.52485
-2.78432
-1.8794
-1.15834
-0.61872
-0.254433
-0.0577248
0.0156189
-0.112176
-0.497404
-1.10159
-1.90593
-2.90357
-4.09629
-5.48729
-7.08444
-8.89199
-10.9187
-13.5779
-16.7974
-20.094
85.6211
85.9634
85.7235
84.687
82.8852
80.4174
77.2031
73.1502
68.2337
63.1916
55.6394
85.0319
84.225
83.284
82.2873
81.2903
80.3299
79.4291
78.601
77.8522
77.184
76.5926
76.0757
75.6565
75.3165
75.0139
74.7522
74.5302
74.3451
74.2014
74.0895
74.001
73.934
73.8862
73.855
73.837
73.8307
73.8305
73.8378
73.8399
51.4445
45.9462
39.345
32.1563
24.5597
16.9208
9.86008
3.94583
-0.527656
-3.54645
-5.28508
-5.99724
-5.93656
-5.09352
-3.96723
-3.04583
-2.32225
-1.79138
-1.44578
-1.27683
-1.23893
-1.41482
-1.86395
-2.54623
-3.44164
-4.54222
-5.84909
-7.36524
-9.09768
-11.0497
-13.6571
-16.8306
-20.1067
-23.4126
85.9937
86.5658
86.6381
85.9316
84.4535
82.318
79.462
75.7946
71.2593
65.8137
60.2618
52.0727
85.2445
84.3156
83.2939
82.2485
81.2251
80.2531
79.3499
78.5255
77.7834
77.1204
76.5354
76.0588
75.6711
75.321
75.0139
74.7493
74.5245
74.3475
74.2069
74.0922
74.0018
73.9336
73.8851
73.8537
73.8358
73.8297
73.8299
73.8378
73.8402
47.5744
41.6697
34.568
26.896
18.9357
11.1848
4.34595
-1.05286
-4.85265
-7.17995
-8.29075
-8.46948
-7.70312
-6.40955
-5.24664
-4.3075
-3.58106
-3.05961
-2.73433
-2.5957
-2.59643
-2.82456
-3.34283
-4.1093
-5.10256
-6.31338
-7.74183
-9.39058
-11.2644
-13.7984
-16.9176
-20.1359
-23.4235
-26.7182
86.2681
87.0565
87.4373
87.0655
85.9185
84.1185
81.6223
78.3297
74.1976
69.1787
63.1991
57.1187
48.2574
85.3712
84.3418
83.2583
82.1782
81.1382
80.1613
79.261
78.4433
77.7066
77.0505
76.5142
76.0768
75.6766
75.321
75.0102
74.7419
74.5283
74.3558
74.2115
74.094
74.0019
73.9327
73.8837
73.852
73.8343
73.8286
73.8292
73.8378
73.8406
43.4383
37.083
29.4229
21.2429
12.9683
5.24056
-1.20557
-5.95101
-8.99905
-10.6118
-11.1047
-10.4709
-9.18429
-7.83226
-6.62982
-5.67122
-4.94145
-4.43014
-4.12698
-4.02134
-4.0641
-4.3489
-4.94183
-5.79879
-6.89689
-8.22517
-9.7826
-11.5699
-14.0259
-17.0711
-20.2222
-23.453
-26.7281
-29.9995
86.4413
87.4289
88.1116
88.0777
87.2691
85.8079
83.6773
80.7617
77.0181
72.4225
66.9269
60.4089
53.7736
44.1924
85.4208
84.3135
83.1848
82.0818
81.0335
80.0579
79.1641
78.3518
77.6222
77.0243
76.5361
76.0835
75.6766
75.3165
75.0008
74.7474
74.5401
74.3628
74.2149
74.0952
74.0015
73.9313
73.8818
73.8501
73.8326
73.8274
73.8284
73.8378
73.8411
39.0158
32.1441
23.8532
15.1524
6.65581
-0.868589
-6.72972
-10.6944
-12.9361
-13.8309
-13.3838
-12.1482
-10.7844
-9.3694
-8.12383
-7.14378
-6.41021
-5.90986
-5.63065
-5.56083
-5.64929
-5.9954
-6.66867
-7.62262
-8.8325
-10.2855
-11.978
-14.3482
-17.315
-20.3804
-23.5404
-26.7591
-30.0084
-33.2363
86.523
87.6777
88.6486
88.9567
88.4936
87.3745
85.6143
83.084
79.7284
75.5364
70.4884
64.5269
57.4626
50.2403
39.8688
85.4053
84.2398
83.0801
81.9642
80.9148
79.9451
79.0563
78.2512
77.5902
77.0507
76.5441
76.0835
75.6711
75.3047
75.0085
74.7637
74.5504
74.3684
74.2174
74.0955
74.0003
73.9293
73.8794
73.8477
73.8305
73.8259
73.8276
73.8379
73.8416
34.2768
26.8003
17.7936
8.58701
0.017285
-7.07771
-12.1561
-15.2317
-16.6403
-16.4399
-15.2922
-13.9587
-12.5117
-11.0281
-9.73547
-8.73199
-7.9942
-7.50559
-7.25224
-7.22125
-7.35923
-7.77144
-8.53089
-9.58831
-10.9169
-12.5005
-14.776
-17.6569
-20.6348
-23.704
-26.8484
-30.0401
-33.2441
-36.4064
86.5272
87.8141
89.0349
89.686
89.5798
88.8057
87.4201
85.2846
82.3237
78.5292
73.9035
68.42
62.0032
54.3798
46.5271
35.2664
85.3354
84.1286
82.9499
81.8297
80.7851
79.8196
78.9377
78.2128
77.622
77.0602
76.5441
76.0769
75.6565
75.3149
75.0304
74.7781
74.5588
74.3728
74.2188
74.0948
73.9983
73.9265
73.8765
73.8449
73.8282
73.8244
73.8268
73.8379
73.8421
29.1755
20.9712
11.1595
1.52276
-6.90516
-13.3037
-17.4116
-19.5182
-19.6458
-18.6228
-17.3501
-15.9107
-14.373
-12.815
-11.4714
-10.4425
-9.69999
-9.22395
-8.99849
-9.00939
-9.20084
-9.68408
-10.5355
-11.7028
-13.1556
-15.3219
-18.1066
-20.9908
-23.9681
-27.0188
-30.1306
-33.2761
-36.413
-39.4881
86.4663
87.8551
89.2786
90.2447
90.5071
90.0895
89.0797
87.3498
84.7936
81.3989
77.1813
72.1448
66.2445
59.3803
51.1811
42.6362
30.3554
85.2204
83.9868
82.7996
81.6822
80.6405
79.6812
78.8921
78.2505
77.6331
77.0602
76.5361
76.0588
75.6699
75.3437
75.0499
74.7902
74.5658
74.3759
74.2191
74.0931
73.9954
73.9231
73.873
73.8417
73.8257
73.8227
73.8259
73.838
73.8427
23.6407
14.534
3.85253
-6.04967
-14.0382
-19.4461
-22.4211
-23.0008
-22.1575
-20.9738
-19.5653
-18.0103
-16.3742
-14.7362
-13.3377
-12.2815
-11.5338
-11.0712
-10.8757
-10.9316
-11.1805
-11.7397
-12.6888
-13.9712
-16.0045
-18.6765
-21.4563
-24.3351
-27.2924
-30.3069
-33.3673
-36.4451
-39.4934
-42.4603
86.3516
87.8166
89.3986
90.6363
91.2474
91.2036
90.5779
89.2635
87.1263
84.1383
80.3241
75.7095
70.2886
63.9897
56.6834
47.8895
38.5715
25.0954
85.0688
83.821
82.6336
81.5173
80.4807
79.6277
78.9367
78.2635
77.6331
77.0508
76.5141
76.076
75.7068
75.3694
75.0666
74.8005
74.5712
74.3775
74.2179
74.0902
73.9915
73.9188
73.8688
73.8382
73.8231
73.821
73.825
73.838
73.8433
17.561
7.30288
-4.24416
-14.0971
-21.2796
-25.3702
-26.5127
-25.9061
-24.8561
-23.499
-21.9423
-20.2619
-18.5202
-16.7968
-15.3398
-14.2543
-13.5011
-13.053
-12.8894
-12.9934
-13.3038
-13.9436
-14.9949
-16.854
-19.3862
-22.0431
-24.8115
-27.6684
-30.5877
-33.548
-36.5363
-39.5253
-42.4642
-45.3019
86.1929
87.712
89.414
90.8786
91.8005
92.1149
91.8886
91.0079
89.3062
86.7386
83.3287
79.1222
74.1419
68.3643
61.6835
53.9404
44.5281
34.3352
19.4288
84.8882
83.6364
82.4474
81.3346
80.4185
79.6801
78.9518
78.2636
77.622
77.0242
76.5358
76.1227
75.74
75.3917
75.0812
74.8089
74.5747
74.3774
74.2153
74.0859
73.9865
73.9136
73.8642
73.8344
73.8203
73.8192
73.8241
73.8381
73.8439
10.7479
-1.03612
-13.1692
-22.5813
-28.3889
-30.2362
-29.9265
-29.0209
-27.7435
-26.1992
-24.4825
-22.6679
-20.8142
-19.0005
-17.4816
-16.3653
-15.6065
-15.1737
-15.0441
-15.1992
-15.5749
-16.2991
-17.9209
-20.2686
-22.7715
-25.4085
-28.1516
-30.969
-33.8331
-36.7198
-39.6158
-42.4954
-45.3043
-47.9927
85.9995
87.5536
89.3423
90.9894
92.1841
92.8208
92.9713
92.5507
91.3152
89.1867
86.1907
82.3849
77.8211
72.5083
66.4012
59.3551
51.179
41.1185
29.9404
13.2913
84.6852
83.4283
82.2404
81.2631
80.4797
79.6975
78.9518
78.2506
77.5901
77.0509
76.5937
76.1647
75.7691
75.4115
75.0933
74.8149
74.5759
74.3753
74.2109
74.0802
73.9803
73.9077
73.8591
73.8303
73.8173
73.8174
73.8232
73.8381
73.8446
2.85335
-10.8248
-23.0796
-31.0695
-34.2915
-34.2892
-33.5727
-32.346
-30.8147
-29.0706
-27.1846
-25.2282
-23.257
-21.3492
-19.7658
-18.6176
-17.853
-17.4367
-17.343
-17.5519
-17.9957
-19.2813
-21.377
-23.6767
-26.1477
-28.7532
-31.454
-34.2152
-37.006
-39.8001
-42.5843
-45.3344
-47.9939
-50.5141
85.7791
87.3525
89.1996
90.9865
92.4163
93.3402
93.8214
93.8398
93.1168
91.4663
88.9014
85.4989
81.3334
76.4499
70.8379
64.4288
57.0311
48.4291
37.6972
25.4469
6.60737
84.4548
83.1961
82.1587
81.334
80.4996
79.6975
78.9367
78.2127
77.6227
77.1217
76.646
76.2018
75.7951
75.4284
75.1026
74.8182
74.5748
74.3709
74.2045
74.0729
73.973
73.9012
73.8536
73.826
73.8142
73.8155
73.8223
73.8382
73.8453
-6.69711
-23.2452
-33.1564
-38.3996
-39.1502
-38.5766
-37.4337
-35.8675
-34.0594
-32.1039
-30.0427
-27.9391
-25.8465
-23.8421
-22.1928
-21.0118
-20.2419
-19.8431
-19.7872
-20.0517
-21.0522
-22.7913
-24.8145
-27.0663
-29.496
-32.054
-34.6965
-37.3846
-40.0839
-42.767
-45.4208
-48.0223
-50.5139
-52.8491
85.527
87.1176
89.0006
90.8877
92.5148
93.6917
94.4613
94.8631
94.6474
93.5395
91.4483
88.4607
84.6871
80.2029
75.0378
69.1599
62.4726
54.7403
45.7361
34.3124
20.967
-0.697852
84.1963
83.1037
82.2406
81.3567
80.4996
79.6801
78.892
78.2518
77.7082
77.1858
76.6924
76.2353
75.8177
75.4417
75.1085
74.8184
74.5708
74.3641
74.1961
74.0641
73.9648
73.8941
73.8478
73.8216
73.8111
73.8135
73.8214
73.8383
73.8461
-20.3868
-36.8389
-43.1707
-44.5444
-44.2478
-43.0469
-41.462
-39.5566
-37.4628
-35.2847
-33.0462
-30.7931
-28.5774
-26.4758
-24.76
-23.5466
-22.772
-22.3921
-22.3748
-23.197
-24.6335
-26.268
-28.2221
-30.4193
-32.7933
-35.2888
-37.857
-40.4547
-43.0447
-45.5994
-48.1051