/*--------------------------------*- C++ -*----------------------------------*\
  =========                 |
  \\      /  F ield         | OpenFOAM: The Open Source CFD Toolbox
   \\    /   O peration     | Website:  https://openfoam.org
    \\  /    A nd           | Version:  8
     \\/     M anipulation  |
\*---------------------------------------------------------------------------*/
FoamFile
{
    version     2.0;
    format      ascii;
    class       volScalarField;
    location    "0.16";
    object      epsilon;
}
// * * * * * * * * * * * * * * * * * * * * * * * * * * * * * * * * * * * * * //

dimensions      [0 2 -3 0 0 0 0];

internalField   nonuniform List<scalar> 
15677
(
59.7308
18.3652
52.6886
8.08396
26.0282
50.2357
4.62245
13.3253
31.6577
50.5437
3.17418
7.74976
17.1291
37.3377
51.6368
2.48702
5.05445
10.0488
20.8544
42.6841
53.6783
2.14425
3.62781
6.47306
12.1842
24.5732
47.681
55.7344
1.97932
2.8229
4.52989
7.73534
14.2944
28.2734
52.0322
57.6681
1.91149
2.35343
3.40405
5.31568
8.92617
16.4375
31.7679
55.7098
59.3646
1.88406
2.08031
2.7242
3.91181
6.02721
10.1139
18.5444
34.9626
58.7251
60.8664
1.8705
1.93937
2.30744
3.05668
4.36074
6.71179
11.2792
20.5742
37.7798
61.2
62.1324
1.86764
1.87829
2.05654
2.52157
3.34941
4.77879
7.36692
12.4216
22.4635
40.2414
63.1919
63.2474
1.86863
1.84883
1.91658
2.18623
2.71315
3.61643
5.16768
8.00358
13.5082
24.207
42.3368
64.8188
64.1754
1.86955
1.8387
1.85192
1.98268
2.30716
2.88698
3.85951
5.53754
8.60729
14.5386
25.7696
44.1275
66.1233
65.0094
1.86979
1.83698
1.82113
1.86776
2.0515
2.41841
3.04361
4.08565
5.88316
9.18187
15.4882
27.1695
45.6224
67.184
65.7349
1.86979
1.83724
1.81051
1.81335
1.89824
2.1176
2.51906
3.18701
4.29347
6.2086
9.71439
16.3637
28.3902
46.8801
68.0483
66.379
1.86975
1.8375
1.80822
1.78978
1.81542
1.93037
2.1789
2.6107
3.31714
4.48601
6.50819
10.2087
17.1475
29.4542
47.9252
68.753
66.967
1.86972
1.8376
1.80792
1.78275
1.77571
1.82152
1.96244
2.23532
2.69341
3.43588
4.66134
6.78424
10.6552
17.8485
30.3605
48.7822
69.3559
67.4696
1.86971
1.83761
1.80794
1.78103
1.76147
1.76615
1.83178
1.99317
2.28649
2.76814
3.54289
4.82083
7.03265
11.058
18.4575
31.1246
49.4905
69.8352
67.9763
1.8697
1.8376
1.80795
1.78069
1.75699
1.74393
1.7604
1.84317
2.02169
2.33269
2.83503
3.639
4.96312
7.25532
11.4104
18.9827
31.7575
50.0463
70.2852
68.3733
1.8697
1.83759
1.80795
1.78065
1.75572
1.73589
1.72953
1.75743
1.85457
2.04781
2.37401
2.89456
3.72404
5.08905
7.44973
11.7161
19.4213
32.2666
50.509
70.6219
68.8433
1.8697
1.83758
1.80793
1.78062
1.75541
1.73317
1.71731
1.71802
1.75589
1.86571
2.07142
2.41067
2.94694
3.79843
5.19826
7.61695
11.9722
19.781
32.672
50.8464
70.9943
69.1591
1.8697
1.83757
1.80792
1.7806
1.75533
1.73232
1.7127
1.70131
1.70847
1.7558
1.87618
2.09251
2.44292
2.99248
3.86254
5.29102
7.75696
12.1821
20.0645
32.9756
51.1333
71.2457
69.6244
1.86971
1.83756
1.80791
1.78057
1.75529
1.73206
1.71108
1.69448
1.68726
1.70087
1.75612
1.88579
2.11122
2.47102
3.03169
3.91668
5.3684
7.87007
12.3469
20.2786
33.1998
51.3244
71.5973
69.8816
1.86971
1.83756
1.8079
1.78054
1.75526
1.73195
1.71053
1.69184
1.67802
1.6753
1.69456
1.75688
1.89467
2.1278
2.49542
3.06496
3.9618
5.43022
7.95926
12.4699
20.4322
33.3489
51.4852
71.8026
70.3466
1.86971
1.83756
1.8079
1.78053
1.75523
1.73188
1.71034
1.69086
1.67423
1.66364
1.66483
1.68955
1.75829
1.90291
2.14254
2.51655
3.09309
3.99843
5.4794
8.02419
12.5563
20.5262
33.4363
51.6016
72.2006
70.5925
1.86971
1.83755
1.80789
1.78051
1.75521
1.73183
1.71024
1.69047
1.67274
1.65856
1.65071
1.65625
1.68573
1.76013
1.91077
2.15596
2.53518
3.11692
4.02809
5.51527
8.07034
12.6067
20.5823
33.4805
51.6739
72.4968
429.523
1.86971
1.83755
1.80789
1.7805
1.75519
1.73179
1.71017
1.69029
1.67215
1.65641
1.64433
1.63991
1.64886
1.68309
1.76282
1.91878
2.16862
2.55194
3.13722
4.05144
5.54195
8.09671
12.6327
20.5827
33.4748
51.7922
88.8464
717.657
1.86971
1.83755
1.80789
1.78049
1.75517
1.73176
1.71012
1.69017
1.67187
1.6555
1.64155
1.63219
1.63035
1.64379
1.68248
1.76674
1.92731
2.18123
2.56777
3.15545
4.07079
5.55979
8.11226
12.6291
20.5691
33.476
52.7125
122.201
998.64
1.86971
1.83755
1.80788
1.78048
1.75516
1.73173
1.71007
1.69009
1.67172
1.65506
1.64035
1.62863
1.62145
1.6235
1.63978
1.68355
1.7722
1.9372
2.19468
2.58393
3.17276
4.0873
5.57243
8.11195
12.6166
20.5384
33.499
55.2693
157.793
1247.12
1.86971
1.83755
1.80788
1.78048
1.75515
1.73171
1.71003
1.69002
1.6716
1.65482
1.63977
1.627
1.61731
1.61333
1.61783
1.63987
1.68662
1.77999
1.94915
2.21003
2.60122
3.19047
4.10247
5.58057
8.10868
12.5914
20.4989
33.5964
59.8396
190.429
1476.24
1.86971
1.83755
1.80788
1.78047
1.75514
1.73169
1.71
1.68997
1.67151
1.65466
1.63946
1.6262
1.61538
1.60838
1.60692
1.61633
1.64173
1.69281
1.79087
1.96418
2.22804
2.62102
3.20967
4.1182
5.58758
8.10152
12.5619
20.4539
33.8482
64.557
221.414
1670.69
1.86971
1.83755
1.80788
1.78047
1.75513
1.73167
1.70998
1.68992
1.67144
1.65454
1.63924
1.62576
1.61441
1.60598
1.6016
1.60415
1.61776
1.6466
1.70303
1.80583
1.98314
2.25008
2.64427
3.2321
4.13587
5.59578
8.09377
12.5302
20.4046
34.313
69.3595
248.677
1818.54
1.86971
1.83755
1.80788
1.78046
1.75513
1.73166
1.70995
1.68988
1.67137
1.65444
1.63908
1.62549
1.61387
1.60476
1.59899
1.59807
1.60535
1.62216
1.65615
1.71812
1.82576
2.00731
2.27702
2.67251
3.25864
4.15748
5.60713
8.08764
12.4977
20.3592
34.8704
73.714
269.875
1933.37
1.86971
1.83755
1.80788
1.78046
1.75512
1.73165
1.70994
1.68985
1.67132
1.65436
1.63894
1.62528
1.61352
1.60409
1.59764
1.59505
1.59915
1.60955
1.63119
1.67147
1.73901
1.85195
2.03758
2.31027
2.70641
3.291
4.18409
5.62324
8.08528
12.4636
20.3229
35.4068
77.0906
286.649
2025.67
1.83754
1.86975
1.80788
1.78046
1.75512
1.73164
1.70992
1.68982
1.67128
1.65429
1.63883
1.62512
1.61325
1.60367
1.59687
1.59351
1.59609
1.6033
1.6184
1.6468
1.69327
1.76703
1.8853
2.07531
2.35051
2.74758
3.32978
4.21711
5.64461
8.08647
12.4268
20.2815
35.8149
79.6818
300.25
2102.77
1.80788
1.83764
1.86982
1.78045
1.75512
1.73163
1.70991
1.68979
1.67124
1.65423
1.63873
1.62498
1.61303
1.60337
1.59638
1.59267
1.59455
1.60027
1.61216
1.63445
1.66947
1.72283
1.80314
1.92729
2.12129
2.39924
2.79633
3.37628
4.2567
5.67181
8.09124
12.3874
20.2321
36.0967
81.6629
311.751
2169.57
1.78045
1.80804
1.83784
1.86989
1.75511
1.73162
1.7099
1.68977
1.67121
1.65417
1.63865
1.62486
1.61285
1.60313
1.596
1.59215
1.59374
1.59882
1.60931
1.62872
1.65803
1.70064
1.7614
1.84878
1.97858
2.17672
2.45666
2.85407
3.43047
4.3033
5.70866
8.10219
12.352
20.1705
36.2699
83.2235
321.718
2229.15
1.75511
1.78066
1.80836
1.83805
1.86997
1.73161
1.70989
1.68975
1.67118
1.65412
1.63858
1.62476
1.61269
1.60293
1.59571
1.59179
1.59326
1.59813
1.60812
1.62641
1.65327
1.69082
1.74168
1.81064
1.90504
2.04077
2.24206
2.52434
2.92044
3.49278
4.36298
5.75785
8.1209
12.3202
20.1001
36.3658
84.4699
330.712
2283.62
1.7316
1.75536
1.78108
1.80868
1.83826
1.87004
1.70988
1.68973
1.67116
1.65407
1.63852
1.62466
1.61256
1.60276
1.59545
1.59151
1.59293
1.59778
1.60772
1.6258
1.65201
1.68785
1.73448
1.79458
1.87183
1.97375
2.1145
2.31858
2.60135
2.99617
3.5711
4.43896
5.81549
8.14613
12.2927
20.0228
36.3989
85.5153
338.897
2334.06
1.70987
1.7319
1.75588
1.78151
1.80902
1.83848
1.87012
1.68971
1.67114
1.65403
1.63848
1.62458
1.61245
1.60261
1.59524
1.59128
1.59269
1.59757
1.60763
1.62596
1.65236
1.68809
1.73372
1.79093
1.86102
1.94734
2.05592
2.20142
2.40635
2.689
3.09038
3.66896
4.52449
5.88102
8.17734
12.2695
19.9436
36.3917
86.4061
346.585
2381.43
1.6897
1.7102
1.73249
1.75641
1.78196
1.80936
1.8387
1.8702
1.67112
1.654
1.63844
1.62451
1.61235
1.60248
1.59506
1.59109
1.5925
1.59743
1.60768
1.62642
1.65351
1.69014
1.73641
1.79352
1.86153
1.94256
2.03811
2.15381
2.30187
2.50691
2.79723
3.20704
3.77753
4.61836
5.95282
8.21375
12.2515
19.8645
36.3707
87.2048
353.757
2425.96
1.67111
1.69005
1.71088
1.73311
1.75695
1.78242
1.80972
1.83893
1.87029
1.65397
1.6384
1.62444
1.61228
1.60236
1.5949
1.59093
1.59234
1.59734
1.60779
1.62697
1.65491
1.693
1.74102
1.79992
1.8691
1.94939
2.0405
2.14558
2.26766
2.41769
2.63221
2.93309
3.33522
3.89441
4.71908
6.02976
8.25486
12.2381
19.7895
36.331
87.9194
360.618
2468.26
1.65394
1.67149
1.69078
1.71157
1.73374
1.75751
1.78289
1.81008
1.83917
1.87037
1.63838
1.62438
1.61222
1.60226
1.59477
1.5908
1.59221
1.59728
1.60792
1.62754
1.65634
1.69601
1.74642
1.80844
1.88074
1.96389
2.05601
2.15817
2.27017
2.39819
2.56407
2.79128
3.08401
3.47431
4.01857
4.8251
6.11076
8.2997
12.2297
19.7194
36.2844
88.5914
367.075
2508.12
1.63835
1.65433
1.67228
1.69154
1.71228
1.73439
1.75809
1.78337
1.81045
1.83941
1.87046
1.62432
1.61216
1.60216
1.59466
1.59068
1.5921
1.59724
1.60806
1.6281
1.65774
1.69893
1.75185
1.81785
1.89485
1.98303
2.07985
2.1852
2.2962
2.41531
2.56147
2.7476
2.96947
3.24905
3.62334
4.1493
4.93508
6.19476
8.34764
12.225
19.6552
36.2381
89.2128
373.295
2546.13
1.62427
1.63876
1.65514
1.67309
1.69232
1.71301
1.73506
1.75868
1.78387
1.81083
1.83966
1.87055
1.61212
1.60206
1.59457
1.59058
1.59201
1.59721
1.6082
1.62862
1.65906
1.70171
1.75707
1.82715
1.90998
2.00533
2.10927
2.22184
2.33807
2.45846
2.59948
2.76984
2.9517
3.16488
3.42758
3.78075
4.28476
5.0479
6.28068
8.39766
12.2256
19.5978
36.1937
89.8124
379.155
2581.84
1.61209
1.62465
1.63961
1.65599
1.67393
1.69312
1.71377
1.73575
1.75929
1.78438
1.81123
1.83991
1.87064
1.60197
1.5945
1.59049
1.59193
1.59718
1.60834
1.62911
1.66031
1.70429
1.76201
1.83606
1.92486
2.02909
2.14293
2.26562
2.39149
2.51989
2.6663
2.83722
3.00581
3.17575
3.373
3.61679
3.94477
4.42411
5.16232
6.3676
8.44931
12.2283
19.5463
36.1554
90.3764
384.811
2615.95
1.6019
1.61246
1.62547
1.64049
1.65686
1.67479
1.69394
1.71454
1.73646
1.75991
1.7849
1.81163
1.84017
1.87073
1.59444
1.5904
1.59186
1.59717
1.60847
1.62956
1.66146
1.70668
1.76665
1.84448
1.93913
2.05259
2.17878
2.31555
2.4545
2.59601
2.75529
2.93831
3.10982
3.26889
3.41922
3.59253
3.81482
4.11487
4.56597
5.2775
6.45466
8.50178
12.2338
19.5012
36.1222
90.9268
390.122
2647.82
1.59441
1.60217
1.61328
1.62631
1.64139
1.65776
1.67568
1.69479
1.71533
1.73719
1.76055
1.78544
1.81204
1.84043
1.87082
1.59031
1.59179
1.59715
1.60859
1.62998
1.66252
1.70888
1.77097
1.85234
1.95271
2.07533
2.21438
2.36917
2.52665
2.68572
2.86409
3.0684
3.25503
3.41807
3.55813
3.68025
3.82169
4.01666
4.28862
4.70904
5.3922
6.5411
8.55446
12.2426
19.4617
36.0963
91.4477
395.253
2678.3
1.59023
1.59468
1.60282
1.61411
1.62719
1.64232
1.65869
1.67659
1.69567
1.71615
1.73794
1.76121
1.78599
1.81245
1.84068
1.8709
1.59172
1.59714
1.6087
1.63037
1.66349
1.7109
1.77498
1.85964
1.96554
2.09708
2.24902
2.42319
2.60501
2.78946
2.99304
3.22753
3.43983
3.61951
3.76239
3.87245
3.9568
4.05953
4.22102
4.46367
4.85163
5.50576
6.62628
8.60696
12.2534
19.4278
36.0759
91.9577
400.045
2706.58
1.59168
1.59022
1.59527
1.60347
1.61498
1.62811
1.64329
1.65965
1.67753
1.69657
1.71699
1.73871
1.76188
1.78654
1.81285
1.84093
1.87098
1.59711
1.6088
1.63073
1.66438
1.71276
1.77867
1.8664
1.9776
2.11767
2.28244
2.47662
2.6848
2.90381
3.14448
3.41929
3.66866
3.87695
4.03521
4.14348
4.21072
4.24686
4.30379
4.42653
4.63902
4.99357
5.61759
6.70973
8.65884
12.266
19.3985
36.0622
92.4407
404.682
2733.67
1.59713
1.59154
1.59024
1.59586
1.60418
1.61589
1.62907
1.64428
1.66065
1.67849
1.6975
1.71785
1.73949
1.76255
1.78707
1.81323
1.84117
1.87106
1.60889
1.63104
1.66519
1.71445
1.78205
1.87263
1.98887
2.13702
2.3145
2.52887
2.7643
3.02241
3.31529
3.65054
3.95151
4.20321
4.39
4.50747
4.56277
4.57198
4.54848
4.55245
4.63164
4.81155
5.13375
5.72705
6.79101
8.70976
12.2798
19.3738
36.0532
92.9128
408.981
2758.65
1.60903
1.59676
1.59124
1.59022
1.59649
1.60494
1.61682
1.63007
1.64529
1.66168
1.67948
1.69846
1.71873
1.74027
1.76319
1.78759
1.81361
1.8414
1.87114
1.63132
1.66591
1.71599
1.78515
1.87836
1.99934
2.15511
2.34508
2.57941
2.84262
3.14345
3.49719
3.91968
4.30494
4.62237
4.85645
4.9952
5.04425
5.02252
4.95553
4.85992
4.80366
4.83565
4.97998
5.271
5.83357
6.8698
8.75944
12.2946
19.3529
36.0495
93.3593
413.157
2782.64
1.63165
1.60831
1.59584
1.59087
1.59031
1.59715
1.60578
1.61777
1.63112
1.64634
1.66275
1.6805
1.69943
1.71961
1.74103
1.76383
1.78809
1.81397
1.84162
1.87122
1.66655
1.71737
1.78797
1.88362
2.00904
2.17195
2.37411
2.62778
2.91928
3.26608
3.68687
4.21507
4.73547
5.17482
5.4882
5.6673
5.71451
5.65523
5.5254
5.36082
5.17955
5.05585
5.03747
5.14383
5.40447
5.9367
6.94583
8.80766
12.3101
19.3356
36.0505
93.7941
417
2801.89
1.66724
1.63033
1.60639
1.59481
1.59059
1.59056
1.59781
1.60669
1.61875
1.63221
1.64742
1.66384
1.68155
1.7004
1.72046
1.74177
1.76444
1.78858
1.81433
1.84184
1.87129
1.71863
1.79053
1.88844
2.01799
2.18761
2.40152
2.67374
2.99405
3.38917
3.88146
4.53319
5.23541
5.89322
6.37306
6.62773
6.68198
6.57074
6.34936
6.07339
5.78702
5.50583
5.30762
5.23596
5.30267
5.53355
6.03605
7.01893
8.85425
12.326
19.3212
36.0537
94.2043
420.243
2818.12
1.71991
1.66525
1.62672
1.60432
1.59389
1.59032
1.59101
1.59848
1.60766
1.61977
1.63335
1.64854
1.66496
1.68259
1.70135
1.72129
1.74249
1.76504
1.78905
1.81467
1.84205
1.87136
1.79287
1.89285
2.02622
2.20215
2.42727
2.71721
3.06674
3.51122
4.07845
4.87414
5.80951
6.78005
7.58497
8.03228
8.11837
7.93953
7.58035
7.13165
6.66664
6.23269
5.83715
5.55775
5.43023
5.45611
5.65784
6.13141
7.08892
8.89908
12.3421
19.3096
36.0598
94.5487
422.932
2835.67
1.79514
1.71704
1.65944
1.62288
1.60241
1.59306
1.59
1.5916
1.59916
1.6087
1.62082
1.63452
1.64968
1.66608
1.6836
1.70227
1.7221
1.74318
1.76562
1.78951
1.81501
1.84225
1.87143
1.89693
2.03378
2.21563
2.45138
2.75822
3.13717
3.63079
4.2766
5.23933
6.46262
7.8413
9.122
9.99735
10.2596
10.0121
9.4603
8.74848
8.00135
7.3028
6.69555
6.17181
5.8051
5.61954
5.60388
5.77702
6.22254
7.15574
8.94205
12.3583
19.3
36.0677
94.8379
425.865
2854.84
1.90078
1.79119
1.70807
1.65334
1.61932
1.60068
1.59232
1.58972
1.59228
1.59989
1.60978
1.62192
1.63572
1.65083
1.66716
1.68459
1.70316
1.72289
1.74386
1.76618
1.78996
1.81533
1.84245
1.87147
2.04082
2.22813
2.47389
2.79688
3.20503
3.74676
4.476
5.62971
7.19325
9.0719
10.9745
12.4989
13.2685
13.119
12.3286
11.2438
10.0685
8.95177
7.97695
7.17245
6.50798
6.04864
5.8033
5.74577
5.89104
6.30959
7.21941
8.98312
12.3743
19.2936
36.0751
95.16
429.046
2875.68
2.04727
1.89546
1.77776
1.69876
1.64762
1.61602
1.59909
1.59164
1.58952
1.59304
1.60067
1.61091
1.62307
1.63691
1.65195
1.66822
1.68555
1.70403
1.72365
1.74452
1.76673
1.79039
1.81565
1.84255
1.87147
2.23987
2.49491
2.83331
3.27003
3.85852
4.67754
6.04452
7.99388
10.4542
13.1184
15.5084
17.098
17.491
16.637
15.0613
13.2731
11.5243
9.97157
8.68223
7.65962
6.84373
6.28742
5.98108
5.88164
5.99943
6.39267
7.27995
9.02226
12.388
19.2886
36.0851
95.5112
432.547
2898.56
2.2504
2.04034
1.87565
1.76396
1.69001
1.64225
1.61293
1.59761
1.59105
1.58942
1.59384
1.60152
1.61206
1.62423
1.63807
1.65305
1.66924
1.68649
1.70487
1.7244
1.74516
1.76726
1.79081
1.8158
1.84255
1.87147
2.5147
2.86771
3.332
3.96604
4.88223
6.48102
8.85306
11.9637
15.5147
18.9817
21.7064
23.0697
22.7218
20.8123
18.1853
15.5204
13.0945
11.0467
9.4106
8.15286
7.17711
6.52061
6.15252
6.01155
6.10195
6.47167
7.33738
9.05458
12.3999
19.2842
36.0971
95.9061
436.348
2923.43
2.53208
2.24134
2.01147
1.85555
1.75097
1.68171
1.63713
1.61001
1.59624
1.59055
1.58941
1.59468
1.60246
1.6132
1.62538
1.6392
1.65413
1.67024
1.68741
1.70569
1.72512
1.74578
1.76778
1.79102
1.8158
1.84255
1.87147
2.90037
3.391
4.06984
5.09076
6.93483
9.75751
13.5732
18.1174
22.8533
27.0259
29.804
30.5275
28.9837
25.6198
21.6622
17.9519
14.7546
12.1621
10.1536
8.64793
7.50628
6.74744
6.31735
6.13557
6.19884
6.54658
7.3846
9.08209
12.4133
19.2798
36.1134
96.3388
440.539
2950.8
2.9287
2.52058
2.19937
1.98256
1.83663
1.73859
1.67375
1.63223
1.60726
1.59499
1.59017
1.58954
1.59552
1.60347
1.61431
1.62652
1.6403
1.65518
1.67121
1.6883
1.70649
1.72583
1.74639
1.76804
1.79102
1.8158
1.84255
1.87147
3.44732
4.17085
5.30343
7.40046
10.6933
15.2553
20.8779
27.0448
32.9503
37.5931
39.9959
39.5392
36.2631
31.0132
25.4446
20.5309
16.4802
13.3029
10.9031
9.14079
7.82947
6.96725
6.47541
6.25367
6.2903
6.60809
7.42468
9.11232
12.4283
19.2769
36.1333
96.8271
445.103
2980.51
3.49569
2.91382
2.45952
2.15799
1.95536
1.81856
1.72667
1.66608
1.62754
1.6047
1.59386
1.58988
1.58987
1.59633
1.6045
1.61539
1.62765
1.64137
1.65621
1.67216
1.68917
1.70727
1.72652
1.74669
1.76804
1.79102
1.8158
1.84255
1.87147
4.26971
5.51844
7.8722
11.6469
16.9834
23.7476
31.4729
39.3492
46.2676
50.9793
52.417
50.1179
44.5092
36.9274
29.4787
23.2202
18.2478
14.4552
11.6515
9.62772
8.1451
7.17953
6.62662
6.3659
6.36519
6.66027
7.4686
9.14558
12.4454
19.2742
36.1594
97.3642
450.157
3013.27
4.35605
3.47697
2.82371
2.40031
2.11908
1.92932
1.8011
1.71514
1.65871
1.62307
1.60238
1.59284
1.58963
1.59043
1.59711
1.60556
1.61645
1.62875
1.64242
1.65721
1.67308
1.69002
1.70802
1.72685
1.74669
1.76804
1.79102
1.8158
1.84255
1.87143
5.73249
8.34561
12.606
18.7322
26.6798
36.0544
46.082
55.6141
63.2142
67.4068
67.1263
62.2165
53.6351
43.2828
33.7077
25.9834
20.0358
15.6069
12.3924
10.1054
8.45187
7.38384
6.77091
6.45831
6.42862
6.71738
7.51675
9.1822
12.4646
19.2742
36.1913
97.9737
455.68
3048.72
4.33199
5.92075
3.33985
2.73832
2.3447
2.08179
1.90412
1.78419
1.70401
1.65163
1.61879
1.60024
1.59194
1.58932
1.59112
1.59788
1.60661
1.61749
1.62983
1.64344
1.65819
1.67398
1.69084
1.7084
1.72685
1.74669
1.76804
1.79102
1.8158
1.84245
1.87136
8.81598
13.5596
20.4797
29.6313
40.7106
53.0105
65.4023
76.3621
84.1136
87.0024
84.0965
75.7273
63.5236
49.9897
38.0738
28.7867
21.8251
16.7475
13.1201
10.5713
8.74869
7.57987
6.89019
6.53686
6.49795
6.77991
7.56958
9.22259
12.4865
19.2753
36.2323
98.6476
461.825
3087.87
4.10755
5.90184
9.23309
3.21436
2.6583
2.29137
2.04568
1.87968
1.76783
1.6933
1.64486
1.61475
1.59829
1.59117
1.5891
1.59187
1.59865
1.60766
1.61852
1.63089
1.64444
1.65914
1.67486
1.69125
1.70839
1.72685
1.74669
1.76804
1.79102
1.81565
1.84225
1.87129
14.4961
22.2062
32.5649
45.3708
60.0069
75.4095
90.0583
102.021
109.18
109.782
103.209
90.488
74.0342
56.9531
42.5213
31.5995
23.5992
17.868
13.83
11.0231
9.03469
7.74269
6.99187
6.62304
6.57379
6.84843
7.62758
9.26718
12.5115
19.2785
36.2821
99.4163
468.564
3130.03
3.91009
5.50457
9.24352
15.3293
3.09783
2.58155
2.23972
2.01065
1.85603
1.75206
1.68303
1.63841
1.61103
1.5966
1.59053
1.58899
1.59264
1.59945
1.60868
1.61954
1.63191
1.64542
1.66007
1.67529
1.69124
1.70839
1.72685
1.74669
1.76804
1.79081
1.81533
1.84204
1.87122
23.8921
35.4489
49.9762
66.9613
85.4372
103.956
120.57
132.901
138.498
135.638
124.259
106.291
85.0115
64.0784
46.9986
34.3945
25.3441
18.9615
14.5186
11.4591
9.27305
7.88189
7.10374
6.71767
6.65682
6.92355
7.69131
9.31648
12.5399
19.2852
36.3453
100.271
476.107
3176.67
3.7306
5.15809
8.51659
15.4138
25.4012
2.98647
2.50731
2.18968
1.97676
1.83322
1.73691
1.67322
1.63238
1.60771
1.59515
1.59004
1.58899
1.59341
1.60028
1.60968
1.62054
1.63292
1.64638
1.66053
1.67528
1.69124
1.70839
1.72685
1.74669
1.76778
1.79038
1.815
1.84183
1.87114
38.2517
54.4794
73.7871
95.3216
117.755
139.237
157.34
169.181
172.01
164.345
146.964
122.895
96.295
71.2754
51.4591
37.1484
27.0484
20.0223
15.1833
11.8229
9.47725
8.03551
7.22697
6.8217
6.74783
7.00595
7.7614
9.37104
12.5724
19.2961
36.4219
101.252
484.394
3226.49
3.56201
4.84476
7.86895
14.1638
25.6681
40.7674
2.87907
2.43549
2.1413
1.94407
1.81129
1.72242
1.66397
1.62691
1.60481
1.59392
1.58968
1.58911
1.59415
1.60113
1.61065
1.62153
1.63391
1.64686
1.66052
1.67528
1.69124
1.70839
1.72685
1.74638
1.76725
1.78994
1.81466
1.84161
1.87106
58.8336
80.4185
104.943
131.223
157.58
181.722
200.649
210.892
209.509
195.558
170.979
140.043
107.729
78.4614
55.8616
39.842
28.7032
21.0463
15.7377
12.1348
9.70303
8.20524
7.36288
6.93617
6.84766
7.0964
7.83852
9.43151
12.6098
19.3118
36.5182
102.35
493.758
3281.71
3.40191
4.553
7.27567
13.0116
23.7248
41.3684
62.7391
2.77547
2.36622
2.0947
1.91267
1.79029
1.70871
1.65552
1.62205
1.60228
1.59288
1.58944
1.58938
1.59487
1.60199
1.61161
1.62253
1.63439
1.64684
1.66052
1.67528
1.69124
1.70839
1.72651
1.74577
1.76671
1.78949
1.81431
1.84139
1.87098
86.791
114.216
144.199
175.273
205.41
231.785
250.654
257.911
250.632
228.826
195.92
157.478
119.167
85.5628
60.1725
42.46
30.3015
21.9006
16.2129
12.4797
9.95296
8.393
7.51294
7.06227
6.9573
7.19577
7.92346
9.49859
12.6525
19.3341
36.6346
103.587
504.022
3339.94
3.24973
4.27918
6.71976
11.9312
21.8972
38.5371
63.8633
92.4844
2.67576
2.29967
2.04997
1.88262
1.77042
1.69615
1.64796
1.61772
1.6001
1.592
1.58926
1.58981
1.59555
1.60289
1.61258
1.62302
1.63437
1.64684
1.66052
1.67528
1.69124
1.70801
1.72581
1.74514
1.76616
1.78903
1.81396
1.84116
1.8709
123.06
156.587
192.113
227.949
261.673
289.718
307.38
309.939
294.866
263.624
221.387
174.954
130.478
92.5186
64.3642
44.99
31.6355
22.6328
16.7384
12.8617
10.2299
8.60095
7.67884
7.20133
7.07783
7.30498
8.01702
9.57313
12.7018
19.3637
36.7801
104.942
515.771
3415.92
3.10531
4.02289
6.19619
10.9027
20.1449
35.8471
59.9413
94.3301
130.902
2.58012
2.236
2.00724
1.85421
1.75219
1.68487
1.64118
1.61386
1.59825
1.59126
1.58902
1.59035
1.59624
1.60385
1.61303
1.62299
1.63436
1.64684
1.66052
1.67528
1.69083
1.70725
1.7251
1.7445
1.76559
1.78856
1.81359
1.84092
1.87081
168.29
208
249.089
289.678
326.775
355.748
370.705
366.491
341.563
299.378
246.989
192.247
141.552
99.2791
68.4148
47.1024
32.7793
23.4426
17.3202
13.285
10.5371
8.83149
7.86245
7.35484
7.21047
7.42513
8.12025
9.65598
12.7584
19.4039
36.9527
106.491
530.831
3506.94
2.96835
3.78462
5.70544
9.92078
18.4413
33.2306
56.2098
89.0967
133.634
178.542
2.48881
2.17537
1.9669
1.82816
1.7358
1.67475
1.63512
1.61041
1.59666
1.59065
1.58884
1.59097
1.59703
1.60431
1.61296
1.62299
1.63436
1.64684
1.66053
1.67485
1.69
1.70646
1.72437
1.74384
1.76501
1.78807
1.81322
1.84068
1.87073
222.835
268.742
315.487
360.924
401.154
430.033
440.325
426.895
389.977
335.5
272.361
209.169
152.302
105.805
71.7953
48.9135
34.0445
24.3391
17.9648
13.7545
10.8781
9.08734
8.06588
7.5245
7.3566
7.55729
8.23392
9.7482
12.8241
19.4547
37.1675
108.531
550.313
3598.38
2.83827
3.56549
5.24906
8.99094
16.7759
30.6506
52.5531
84.1529
126.824
182.235
235.593
2.40215
2.1183
1.92997
1.80475
1.72108
1.66566
1.6297
1.60738
1.5953
1.59012
1.5888
1.59176
1.59734
1.60424
1.61294
1.62299
1.63436
1.64685
1.66006
1.67396
1.68914
1.70566
1.72362
1.74316
1.76442
1.78757
1.81284
1.84043
1.87064
286.822
339.046
391.754
442.29
485.317
512.644
515.738
490.307
439.292
371.424
297.191
225.565
162.656
111.242
74.692
50.9168
35.4452
25.3324
18.6794
14.2755
11.2568
9.37151
8.29149
7.71216
7.51776
7.70312
8.35995
9.85119
12.8995
19.5222
37.4657
111.216
571.7
3689.02
2.71484
3.36714
4.82833
8.11729
15.1498
28.0895
48.9171
79.3049
120.491
173.492
240.169
301.957
2.32098
2.0662
1.89686
1.78373
1.70786
1.65751
1.62487
1.60472
1.59411
1.58977
1.58907
1.59212
1.59715
1.60425
1.61294
1.62298
1.63439
1.64637
1.65912
1.67305
1.68827
1.70483
1.72285
1.74246
1.7638
1.78706
1.81244
1.84017
1.87055
360.306
419.262
478.576
534.627
579.882
603.544
596.215
555.726
488.684
406.65
321.221
241.317
171.258
115.894
77.8934
53.1341
36.9972
26.4336
19.4724
14.8542
11.6778
9.68733
8.54189
7.91992
7.69558
7.86296
8.49973
9.96623
12.9878
19.62
37.9031
114.204
594.904
3777.96
2.59913
3.18549
4.44361
7.30162
13.5754
25.5457
45.2702
74.4744
114.322
165.554
228.985
307.124
377.41
2.2473
2.0196
1.86719
1.76487
1.696
1.65022
1.62055
1.60236
1.59318
1.58982
1.58907
1.59196
1.59712
1.60425
1.61295
1.62301
1.6339
1.64539
1.65816
1.67212
1.68737
1.70399
1.72207
1.74174
1.76318
1.78653
1.81204
1.83991
1.87046
443.479
510.103
577.128
639.224
685.639
702.528
680.767
622.053
537.382
440.758
344.252
254.361
178.604
121.027
81.4327
55.5895
38.7177
27.6552
20.3525
15.497
12.1459
10.0385
8.81995
8.15005
7.89232
8.038
8.65457
10.0953
13.108
19.7729
38.405
117.633
620.015
3864.35
2.49409
3.01916
4.09647
6.54861
12.07
23.0302
41.6004
69.6076
108.206
157.932
219.14
292.756
382.596
461.843
2.18181
1.97796
1.84062
1.74794
1.68535
1.64366
1.61668
1.60042
1.59281
1.58968
1.58872
1.59198
1.59712
1.60424
1.61302
1.62252
1.63289
1.6444
1.65717
1.67117
1.68645
1.70312
1.72126
1.74101
1.76253
1.78599
1.81163
1.83965
1.87037
536.959
612.88
689.307
758.029
803.521
809.094
768.16
688.185
584.716
473.417
363.262
265.468
186.684
126.688
85.346
58.3092
40.6257
29.011
21.3299
16.2112
12.6663
10.4289
9.12878
8.40509
8.11006
8.23017
8.82595
10.2661
13.2713
19.9544
39.0315
121.424
647.358
3947.18
2.40086
2.87007
3.78833
5.86459
10.6507
20.5617
37.9111
64.6721
102.06
150.477
209.892
280.559
363.958
466.162
555.583
2.12359
1.94075
1.81681
1.73276
1.67577
1.63775
1.61341
1.59932
1.59242
1.58925
1.58869
1.59197
1.59714
1.6043
1.61256
1.6215
1.63187
1.6434
1.65616
1.67019
1.68551
1.70223
1.72043
1.74026
1.76187
1.78544
1.81122
1.8394
1.87028
641.953
729.784
818.267
893.767
934.358
922.356
857.024
753.093
630.136
500.317
379.405
277.646
195.566
132.929
89.6716
61.3218
42.7421
30.5161
22.4152
17.0047
13.2448
10.8629
9.47172
8.68768
8.3511
8.44137
9.05032
10.4838
13.454
20.187
39.7297
125.867
676.81
4025.61
2.31841
2.73757
3.52484
5.25724
9.33818
18.1625
34.2163
59.6527
95.8177
143.062
201.047
269.426
348.767
441.645
557.847
659.869
2.07179
1.90751
1.79549
1.7191
1.66711
1.6327
1.6113
1.59846
1.59183
1.58923
1.58869
1.59195
1.59732
1.60383
1.61157
1.6205
1.63084
1.64237
1.65513
1.6692
1.68455
1.70131
1.71959
1.73948
1.7612
1.78489
1.81082
1.83916
1.8702
760.667
865.188
969.115
1049.66
1078.64
1041.14
945.953
815.865
667.562
523.111
397.043
290.976
205.317
139.803
94.4505
64.6579
45.0893
32.1866
23.6204
17.886
13.8873
11.345
9.85226
9.00082
8.61743
8.71672
9.32966
10.7175
13.6644
20.4517
40.6057
130.798
708.981
4098.45
2.24561
2.61917
3.30757
4.73919
8.15386
15.8573
30.5391
54.5465
89.4337
135.582
192.424
259.104
335.359
422.567
524.992
658.682
777.385
2.02569
1.87783
1.77634
1.70677
1.65965
1.62922
1.60983
1.59764
1.59182
1.58923
1.5887
1.5921
1.597
1.60285
1.61061
1.61948
1.62978
1.64132
1.65408
1.66817
1.68356
1.70038
1.71872
1.73869
1.76054
1.78437
1.81044
1.83892
1.87012
898.367
1027.08
1148.68
1229.37
1236.84
1164.21
1033.51
867.86
699.26
547.948
416.268
305.536
216.002
147.364
99.725
68.3499
47.6915
34.0402
24.958
18.8641
14.6005
11.8798
10.2741
9.34705
8.96624
9.05738
9.62398
10.9701
13.8967
20.7861
41.5815
136.615
743.64
4164.93
2.18134
2.51364
3.12369
4.30783
7.12664
13.6946
26.9114
49.3621
82.8707
127.946
183.866
249.341
323.399
406.328
500.859
613.613
771.295
913.239
1.98465
1.85127
1.75908
1.69608
1.65431
1.62695
1.6087
1.59764
1.59181
1.58923
1.58904
1.59174
1.5962
1.60195
1.60963
1.61846
1.62869
1.64024
1.653
1.66712
1.68255
1.69942
1.71784
1.73792
1.75989
1.78385
1.81007
1.83869
1.87004
1064.06
1226.69
1366.42
1438.36
1410.27
1289.86
1106.97
911.987
733.748
574.914
437.155
321.394
227.682
155.665
105.538
72.431
50.5737
36.0954
26.4414
19.9485
15.3907
12.4723
10.7405
9.80074
9.39812
9.41457
9.93386
11.2397
14.1646
21.1628
42.7975
143.16
781.508
4223.78
2.12458
2.42004
2.96499
3.95168
6.26336
11.7603
23.4008
44.1228
76.1023
120.064
175.226
239.917
312.529
392.463
481.05
582.961
708.016
900.071
1077.96
1.94803
1.8274
1.74407
1.68826
1.65092
1.62547
1.6087
1.59762
1.5918
1.58965
1.58903
1.59093
1.59549
1.60107
1.60862
1.61743
1.62759
1.63915
1.6519
1.66604
1.68152
1.69844
1.71696
1.73716
1.75926
1.78335
1.8097
1.83847
1.86996
1272.94
1482.41
1639.87
1687.83
1600.37
1397.6
1169.62
960.022
771.095
604.069
459.759
338.605
240.412
164.754
111.931
76.9351
53.7621
38.3715
28.0844
21.1489
16.265
13.1266
11.3513
10.3617
9.84995
9.78777
10.2579
11.5307
14.4594
21.6323
44.1709
150.871
822.677
4274.8
2.07425
2.33747
2.82571
3.65844
5.54743
10.095
20.1452
38.9061
69.1177
111.853
166.352
230.62
302.454
380.453
464.906
558.663
669.084
810.298
1053.98
1287.09
1.91525
1.80666
1.73284
1.68342
1.64899
1.6255
1.60869
1.5976
1.59237
1.58977
1.58874
1.59029
1.5948
1.60021
1.60759
1.61639
1.62646
1.63802
1.65079
1.66494
1.68048
1.69747
1.71612
1.73643
1.75865
1.78287
1.80935
1.83826
1.86989
1557.28
1838.78
2006.99
1999.48
1767.71
1489.99
1237.92
1011.95
811.305
635.424
484.101
357.202
254.232
174.674
118.944
81.8951
57.2824
40.8879
29.9013
22.4756
17.2294
13.9824
12.1047
10.9471
10.3195
10.1755
10.5974
11.841
14.8
22.1634
45.8588
159.758
866.803
4315.89
2.02945
2.26476
2.70197
3.41992
4.95911
8.69007
17.2302
33.9085
61.9776
103.236
157.082
221.23
292.887
369.902
451.638
539.775
639.203
761.06
926.312
1256.11
1582.22
1.88677
1.7909
1.72598
1.68095
1.64904
1.62548
1.60865
1.5984
1.59276
1.58971
1.58877
1.58974
1.59408
1.59937
1.60655
1.61533
1.62532
1.63687
1.64965
1.66381
1.67945
1.69653
1.7153
1.73572
1.75806
1.7824
1.809
1.83805
1.86982
2020.97
2396.15
2574.2
2276.23
1910.43
1590.23
1311.49
1067.62
854.29
668.93
510.167
377.193
269.166
185.46
126.611
87.3411
61.1595
43.6637
31.9061
23.9375
18.4893
15.0357
12.8888
11.5532
10.8041
10.5765
10.9488
12.1769
15.1755
22.8147
47.8129
170.149
917.029
4343.91
1.99058
2.20073
2.59154
3.22295
4.47813
7.51517
14.6605
29.2802
54.9207
94.2182
147.249
211.5
283.538
360.432
440.716
525.051
617.042
724.353
863.938
1069.74
1557.67
2118.33
1.86477
1.78149
1.72281
1.68105
1.64902
1.62541
1.60975
1.59925
1.59311
1.59005
1.58894
1.5893
1.59333
1.59857
1.60549
1.61425
1.62417
1.63569
1.6485
1.6627
1.67845
1.69562
1.7145
1.73503
1.75749
1.78194
1.80867
1.83784
1.86975
2844.29
3511.43
3040.47
2502.81
2061.3
1696.63
1389.62
1126.68
899.855
704.475
537.888
398.549
285.215
197.128
134.956
93.299
65.4158
46.7171
34.1114
25.8452
20.0369
16.1296
13.6984
12.1761
11.3009
10.989
11.3136
12.5335
15.608
23.5617
50.1774
182.489
971.609
4364.57
1.96023
2.14566
2.49323
3.05589
4.08771
6.54412
12.4423
25.061
48.1601
85.0343
136.754
201.156
274.083
351.683
431.644
513.776
600.604
698.321
819.087
989.97
1273.38
2137.05
3260.21
1.85173
1.77751
1.72297
1.68101
1.64891
1.62684
1.61121
1.60034
1.59403
1.59057
1.58917
1.58902
1.59256
1.59779
1.60443
1.61315
1.62302
1.63448
1.64737
1.66163
1.67748
1.69474
1.71372
1.73436
1.75693
1.7815
1.80835
1.83764
1.86971
4897.74
4216.1
3371.74
2723.81
2215.22