/*--------------------------------*- C++ -*----------------------------------*\
  =========                 |
  \\      /  F ield         | OpenFOAM: The Open Source CFD Toolbox
   \\    /   O peration     | Website:  https://openfoam.org
    \\  /    A nd           | Version:  8
     \\/     M anipulation  |
\*---------------------------------------------------------------------------*/
FoamFile
{
    version     2.0;
    format      ascii;
    class       volScalarField;
    location    "0.18";
    object      p;
}
// * * * * * * * * * * * * * * * * * * * * * * * * * * * * * * * * * * * * * //

dimensions      [0 2 -2 0 0 0 0];

internalField   nonuniform List<scalar> 
15677
(
74.1532
73.7966
73.3839
73.8612
73.3721
73.3857
73.8362
73.3993
73.3951
73.2793
73.8108
73.4007
73.3954
73.2884
73.1879
73.789
73.4029
73.3953
73.2876
73.1955
73.0918
73.7656
73.4052
73.3949
73.2887
73.1954
73.0984
72.9773
73.7404
73.4078
73.3941
73.289
73.1964
73.0984
72.9831
72.8406
73.7143
73.4108
73.3926
73.2891
73.1969
73.0993
72.9832
72.8456
72.6744
73.687
73.4129
73.3907
73.2889
73.1974
73.0999
72.9842
72.8459
72.6787
72.4711
73.6584
73.4144
73.388
73.2885
73.1977
73.1006
72.9849
72.8469
72.6791
72.4747
72.223
73.6289
73.416
73.3848
73.2883
73.1981
73.1012
72.9857
72.8478
72.6803
72.4753
72.2259
71.9218
73.5989
73.4171
73.3814
73.2884
73.1987
73.1021
72.9868
72.8489
72.6814
72.4767
72.2266
71.9239
71.5591
73.5692
73.4172
73.3779
73.2888
73.1997
73.1033
72.9882
72.8504
72.6829
72.4781
72.2282
71.9248
71.5604
71.1266
73.5425
73.4159
73.3744
73.2896
73.2014
73.1053
72.9903
72.8526
72.685
72.4801
72.2301
71.9267
71.5615
71.1269
70.616
73.5197
73.4138
73.3709
73.291
73.204
73.1084
72.9935
72.8557
72.688
72.483
72.2328
71.9292
71.5638
71.1282
70.6153
70.0199
73.4997
73.4118
73.368
73.293
73.2079
73.1129
72.9984
72.8604
72.6925
72.4871
72.2366
71.9327
71.5668
71.1309
70.6169
70.018
69.3315
73.4823
73.4097
73.3658
73.2956
73.2134
73.1195
73.0054
72.8674
72.6991
72.4932
72.2421
71.9377
71.5713
71.1347
70.6199
70.0199
69.3283
68.545
73.4672
73.4078
73.3642
73.2985
73.22
73.1285
73.0154
72.8776
72.7089
72.5023
72.2503
71.9449
71.5777
71.1404
70.6247
70.0234
69.3304
68.5404
67.6563
73.4541
73.4059
73.3632
73.3019
73.2273
73.1395
73.0291
72.8918
72.723
72.5156
72.2624
71.9557
71.5871
71.1485
70.6317
70.0292
69.3345
68.5429
67.6501
66.6622
73.4429
73.4043
73.3627
73.3058
73.2354
73.1515
73.0457
72.9114
72.7427
72.5346
72.2801
71.9715
71.6009
71.1603
70.6417
70.0376
69.3413
68.5475
67.6528
66.6543
65.5619
73.434
73.4027
73.3627
73.31
73.2441
73.1647
73.0638
72.9352
72.7697
72.5613
72.3052
71.9944
71.6211
71.1777
70.6564
70.0499
69.3514
68.5554
67.658
66.6574
65.5521
64.3559
73.4272
73.4012
73.3632
73.3147
73.2534
73.1788
73.0836
72.961
72.8026
72.5978
72.3405
72.0271
71.6504
71.2031
70.6779
70.0678
69.3661
68.5673
67.6671
66.663
65.5555
64.3441
63.0473
73.4219
73.3999
73.364
73.3196
73.2632
73.1939
73.1049
72.9893
72.8384
72.6421
72.3888
72.0729
71.6923
71.24
70.7094
70.0939
69.3874
68.5845
67.6807
66.6733
65.5616
64.3478
63.0335
61.6409
73.4178
73.3987
73.365
73.3247
73.2734
73.2097
73.1274
73.0197
72.8775
72.6905
72.4476
72.1357
71.7507
71.2924
70.7548
70.1321
69.4186
68.6095
67.7005
66.6886
65.5729
64.3541
63.0373
61.6247
60.1486
73.4145
73.3978
73.3661
73.3294
73.2834
73.226
73.151
73.0519
72.9197
72.7435
72.5117
72.2121
71.8308
71.3658
70.8196
70.1873
69.4642
68.646
67.7292
66.711
65.5899
64.3664
63.0438
61.6285
60.1297
58.601
73.4119
73.397
73.3672
73.3337
73.2926
73.2421
73.1754
73.0856
72.9643
72.8005
72.582
72.2956
71.9286
71.4665
70.9103
70.266
69.5302
68.6996
67.7714
66.7435
65.6146
64.3848
63.0566
61.6347
60.1309
58.5454
56.9373
73.4098
73.3963
73.3684
73.3376
73.301
73.2568
73.1993
73.1204
73.011
72.861
72.6577
72.3873
72.0355
71.5895
71.0348
70.3763
69.6244
68.7772
67.8332
66.7912
65.6507
64.4116
63.076
61.6477
60.1356
58.5481
56.8702
55.143
73.4081
73.3958
73.3694
73.3412
73.3085
73.2701
73.2213
73.1545
73.0593
72.9243
72.7381
72.4861
72.153
71.7242
71.1872
70.528
69.7564
68.888
67.9229
66.8614
65.7038
64.4508
63.1043
61.6673
60.147
58.549
56.8728
55.1127
53.2911
73.4067
73.3954
73.3703
73.3445
73.3152
73.2821
73.241
73.1859
73.1067
72.9899
72.8223
72.591
72.2798
71.8725
71.3544
70.7138
69.9383
69.0437
68.0514
66.9636
65.7821
64.5087
63.1458
61.6962
60.1652
58.5575
56.8672
55.105
53.2796
51.3874
73.4055
73.3951
73.371
73.3475
73.3212
73.2928
73.2588
73.2141
73.1501
73.0542
72.9096
72.7011
72.4146
72.0327
71.5386
70.9182
70.1618
69.2588
68.2325
67.1104
65.8966
64.5947
63.2078
61.739
60.193
58.5729
56.875
55.0956
53.2627
51.3819
49.2409
73.4045
73.3948
73.3717
73.3503
73.3266
73.3023
73.2747
73.2395
73.1893
73.1132
72.9952
72.8153
72.5563
72.2034
71.7381
71.1439
70.408
69.5237
68.4832
67.3178
66.0618
64.7209
63.3002
61.8036
60.2353
58.5982
56.8888
55.1049
53.2541
51.3632
49.2387
46.8225
73.4037
73.3946
73.3723
73.3528
73.3313
73.3107
73.2888
73.2621
73.2245
73.1665
73.0739
72.9275
72.7034
72.3829
71.9509
71.3887
70.6806
69.8164
68.7928
67.6058
66.2958
64.9038
63.4371
61.9012
60.3007
58.6384
56.9123
55.1183
53.2639
51.3567
49.2208
46.8221
44.3765
73.403
73.3944
73.3729
73.3549
73.3355
73.3182
73.3013
73.2822
73.256
73.2143
73.1449
73.0306
72.848
72.5696
72.1751
71.6503
70.9768
70.141
69.1357
67.9626
66.6221
65.1643
63.6367
62.0471
60.4015
58.7031
56.951
55.1415
53.2774
51.365
49.2143
46.8055
44.378
41.9455
73.4024
73.3942
73.3735
73.3568
73.3393
73.3249
73.3124
73.3001
73.2839
73.257
73.2088
73.1239
72.9812
72.7534
72.4088
71.9266
71.2942
70.4946
69.5171
68.3591
67.028
65.529
63.9224
62.2616
60.5543
58.8053
57.0147
55.1794
53.3006
51.3784
49.2193
46.7985
44.3634
41.9472
39.5499
73.3941
73.4017
73.374
73.3585
73.3426
73.3308
73.3223
73.316
73.3088
73.2951
73.2658
73.2077
73.1018
72.9229
72.6392
72.215
71.63
70.8745
69.9339
68.8015
67.4804
65.9845
64.3246
62.5708
60.7814
58.963
57.1175
55.2425
53.3376
51.401
49.2314
46.8002
44.3562
41.9337
39.5513
37.2021
73.3745
73.394
73.4009
73.36
73.3455
73.336
73.331
73.3301
73.3309
73.3289
73.3167
73.2827
73.2102
73.0766
72.852
72.5
71.9814
71.2774
70.3827
69.2862
67.9869
66.4943
64.8293
63.0084
61.1115
59.2002
57.2786
55.3454
53.3994
51.4361
49.2512
46.8095
44.3549
41.9254
39.5386
37.2029
34.9145
73.3613
73.3752
73.3939
73.4002
73.3481
73.3407
73.3388
73.3425
73.3504
73.3589
73.3619
73.3496
73.3074
73.2149
73.0452
72.7638
72.3295
71.7002
70.8601
69.81
68.5438
67.0669
65.3964
63.5607
61.5818
59.5481
57.5237
55.5084
53.5011
51.4953
49.2825
46.8246
44.3609
41.9206
39.5288
37.1907
34.9143
32.6981
73.3503
73.3631
73.3761
73.3938
73.3995
73.3448
73.3456
73.3536
73.3677
73.3856
73.4021
73.4091
73.394
73.339
73.2195
73.0037
72.6524
72.1202
71.3626
70.3688
69.1474
67.6989
66.0361
64.1841
62.1788
60.0475
57.8862
55.7589
53.6641
51.5939
49.3366
46.8497
44.3704
41.9219
39.52
37.179
34.9025
32.6968
30.5612
73.3483
73.3534
73.3651
73.377
73.3938
73.3989
73.3517
73.3634
73.3831
73.4092
73.4377
73.4619
73.4712
73.4498
73.3758
73.2204
72.9466
72.5107
71.8633
70.9589
69.7938
68.3864
66.7447
64.8901
62.8558
60.6852
58.4102
56.1325
53.9169
51.7541
49.4292
46.8954
44.3876
41.9243
39.5156
37.1661
34.8886
32.6853
30.5589
28.51
73.3568
73.353
73.3568
73.3672
73.3779
73.3937
73.3983
73.372
73.3967
73.4301
73.4693
73.5088
73.5397
73.5484
73.5156
73.4151
73.2129
72.8674
72.3302
71.549
70.4788
69.1253
67.5186
65.6753
63.6259
61.412
59.0837
56.6763
54.2971
52.0056
49.5831
46.9777
44.4224
41.9317
39.5097
37.1553
34.8714
32.6689
30.5475
28.5067
26.5487
73.3793
73.3638
73.358
73.3602
73.3692
73.3788
73.3936
73.3977
73.4088
73.4487
73.4973
73.5504
73.6006
73.6362
73.6403
73.5894
73.4525
73.1908
72.7577
72.1009
71.1663
69.9115
68.3536
66.5363
64.486
62.2424
59.855
57.3794
54.8548
52.3877
49.8287
47.1197
44.4909
41.9532
39.5056
37.1402
34.8538
32.6473
30.5285
28.4953
26.5445
24.6799
73.4189
73.3891
73.3707
73.363
73.3636
73.3712
73.3798
73.3936
73.3972
73.4651
73.5221
73.5873
73.6546
73.7142
73.7513
73.745
73.6674
73.4825
73.1463
72.6078
71.8116
70.7037
69.2457
67.4694
65.4332
63.1738
60.74
58.1884
55.5802
52.9526
50.2073
47.3528
44.6164
42.0048
39.5116
37.1233
34.8287
32.6226
30.5025
28.4736
26.533
24.6748
22.9047
73.4788
73.4324
73.3984
73.3777
73.368
73.3668
73.3731
73.3807
73.3935
73.3967
73.5442
73.6201
73.7026
73.7834
73.85
73.8837
73.8595
73.7445
73.4976
73.0697
72.4062
71.4501
70.1487
68.4708
66.4644
64.2043
61.7375
59.1211
56.419
53.6918
50.7723
47.7195
44.8311
42.1099
39.5435
37.112
34.7981
32.5871
30.4704
28.4432
26.5085
24.6631
22.8989
21.223
73.5625
73.497
73.4445
73.4078
73.3846
73.3727
73.37
73.3749
73.3816
73.3935
73.3963
73.6491
73.7452
73.8449
73.9376
74.0071
74.0309
73.9791
73.8136
73.4882
72.9496
72.1402
71.0029
69.489
67.5762
65.3315
62.8463
60.1774
57.3908
54.5513
51.5172
48.2731
45.177
42.3005
39.6246
37.1221
34.7683
32.5419
30.4242
28.4037
26.4738
24.636
22.8869
21.2164
19.6337
73.6732
73.5867
73.5127
73.457
73.4171
73.3912
73.3774
73.373
73.3767
73.3824
73.3935
73.3959
73.783
73.8997
74.0155
74.1168
74.1836
74.1886
74.0971
73.8656
73.4432
72.7729
71.7957
70.4564
68.7123
66.5526
64.065
61.3574
58.4971
55.5524
52.3891
49.0103
45.7069
42.6173
39.7861
37.1764
34.755
32.4928
30.3641
28.3467
26.4269
24.5971
22.8572
21.2042
19.6265
18.1349
73.8142
73.7051
73.6067
73.5289
73.4692
73.426
73.3976
73.3818
73.376
73.3784
73.3833
73.3934
73.3955
73.9481
74.0849
74.2144
74.3194
74.3755
74.3507
74.2048
73.8895
73.3494
72.5251
71.3579
69.7966
67.8069
65.3922
62.6609
59.7391
56.6979
53.411
49.8806
46.421
43.1123
40.0665
37.3043
34.7803
32.4551
30.2951
28.2713
26.3591
24.5428
22.8142
21.172
19.614
18.127
16.724
73.988
73.8556
73.7303
73.6276
73.5447
73.4808
73.4344
73.4037
73.3861
73.3788
73.38
73.3841
73.3934
73.3952
74.1464
74.3015
74.4404
74.542
74.5773
74.5088
74.2914
73.8719
73.1917
72.1903
70.8113
69.0099
66.7626
64.0879
61.1182
57.9906
54.5868
50.9077
47.2722
43.7892
40.5163
37.5421
34.8708
32.4495
30.2325
28.1825
26.2686
24.4643
22.7528
21.1251
19.5793
18.1143
16.7156
15.3979
74.1967
74.0413
73.8871
73.7569
73.6478
73.5597
73.4918
73.4424
73.4094
73.3901
73.3814
73.3816
73.3849
73.3934
73.3949
74.3785
74.5484
74.6904
74.7793
74.7808
74.6523
74.3436
73.7976
72.9537
71.752
70.1407
68.0836
65.5697
62.6365
59.434
55.9218
52.0974
48.2842
44.6047
41.1429
37.9378
35.0607
32.4999
30.1946
28.0946
26.1601
24.3589
22.6638
21.0567
19.5287
18.0773
16.7026
15.389
14.1533
74.4412
74.2646
74.0805
73.9207
73.7825
73.6668
73.5737
73.5021
73.45
73.4148
73.3939
73.3839
73.383
73.3856
73.3934
73.3947
74.6439
74.823
74.9596
75.0237
74.9758
74.7681
74.3461
73.6496
72.6177
71.1933
69.3311
67.0056
64.2223
61.0321
57.4213
53.4574
49.4649
45.5818
41.9068
38.5019
35.3948
32.6378
30.2029
28.0237
26.0469
24.2311
22.5438
20.9576
19.4535
18.0231
16.6633
15.3758
14.144
12.9868
74.7214
74.5271
74.3132
74.1225
73.9528
73.8064
73.6846
73.5869
73.5118
73.457
73.4199
73.3974
73.3862
73.3843
73.3862
73.3934
73.3945
74.9403
75.1209
75.2407
75.2651
75.1494
74.8409
74.2814
73.4095
72.1654
70.4972
68.3681
65.7675
62.711
59.0921
54.996
50.8242
46.7301
42.8294
39.1989
35.8856
32.9042
30.2858
27.9888
25.9428
24.093
22.3973
20.8235
19.3447
17.9415
16.6059
15.3344
14.1305
12.977
11.8946
75.0349
74.829
74.5869
74.3654
74.1627
73.9827
73.8286
73.701
73.599
73.5207
73.4635
73.4245
73.4006
73.3882
73.3854
73.3867
73.3934
73.3944
75.2635
75.4352
75.524
75.4909
75.2861
74.8527
74.1304
73.0577
71.5784
69.6475
67.2409
64.3559
60.8597
56.7238
52.3737
48.0614
43.9211
40.0475
36.5015
33.3118
30.4794
28.0147
25.8639
23.9558
22.2347
20.6589
19.1972
17.8233
16.5181
15.2739
14.0872
12.9633
11.8842
10.8726
75.3779
75.169
74.9023
74.6517
74.4153
74.1998
74.0103
73.849
73.716
73.61
73.5287
73.4693
73.4286
73.4034
73.39
73.3863
73.3872
73.3934
73.3942
75.6069
75.7566
75.7972
75.6858
75.368
74.7841
73.8724
72.5743
70.8384
68.6303
65.9324
62.6034
58.5667
54.1261
49.588
45.1932
41.057
37.2571
33.8339
30.796
28.1317
25.8319
23.8331
22.0651
20.4726
19.0153
17.6631
16.3911
15.1803
14.0239
12.9181
11.8702
10.8612
9.92143
75.744
75.5438
75.2588
74.9825
74.7133
74.4611
74.2338
74.0354
73.8675
73.7296
73.6199
73.5359
73.4745
73.4322
73.4057
73.3915
73.3871
73.3876
73.3934
73.3941
75.9614
76.0727
76.0448
75.8315
75.3751
74.6134
73.4866
71.9391
69.9288
67.4262
64.2854
60.3976
56.0061
51.3218
46.6571
42.237
38.1594
34.4792
31.2134
28.351
25.8696
23.7426
21.899
20.2713
18.8059
17.4647
16.2188
15.0449
13.9246
12.8522
11.8234
10.8472
9.90425
9.12784
76.1239
75.948
75.6536
75.3575
75.0584
74.7697
74.5029
74.2646
74.058
73.884
73.7415
73.6286
73.5421
73.4788
73.4351
73.4077
73.3927
73.3878
73.388
73.3934
73.3941
76.3148
76.3685
76.2488
75.9078
75.2849
74.3186
72.9506
71.1333
68.8285
65.8874
62.1709
57.8798
53.1885
48.3245
43.5986
39.2168
35.2526
31.7339
28.6552
25.9872
23.6995
21.7503
20.0627
18.574
17.2333
16.0046
14.8612
13.7815
12.7478
11.7552
10.799
9.89105
9.12174
8.45905
76.5057
76.3736
76.0821
75.7751
75.4508
75.1276
74.8208
74.5404
74.2919
74.0778
73.8982
73.7518
73.6359
73.5472
73.4823
73.4375
73.4094
73.3937
73.3884
73.3883
73.3934
73.394
76.6523
76.6259
76.3885
75.8916
75.0746
73.8758
72.2439
70.1343
67.3962
63.8623
59.6974
55.057
50.1326
45.1598
40.4443
36.1633
32.3618
29.0407
26.1726
23.7134
21.6262
19.8568
18.3243
16.9718
15.7522
14.6322
13.587
12.5973
11.6459
10.729
9.84142
9.11486
8.46614
7.76395
76.8741
76.8096
76.5371
76.2312
75.8895
75.5356
75.19
74.8665
74.5735
74.3157
74.0947
73.9102
73.7602
73.6416
73.5511
73.485
73.4394
73.4107
73.3945
73.3889
73.3885
73.3934
73.3939
76.9554
76.8241
76.4405
75.7591
74.7186
73.2629
71.3419
68.8033
65.4562
61.437
56.8856
51.9667
46.8799
41.8713
37.2332
33.1085
29.5116
26.4167
23.7772
21.5359
19.6524
18.0623
16.6824
15.4625
14.3597
13.344
12.3928
11.4887
10.6151
9.77001
9.06454
8.46056
7.76437
7.01204
77.2103
77.2423
77.0089
76.7199
76.3714
75.9932
75.6118
75.2455
74.9063
74.6018
74.3356
74.1086
73.9198
73.7666
73.6459
73.554
73.487
73.4408
73.4117
73.3952
73.3893
73.3887
73.3934
73.3939
77.2031
76.9392
76.3801
75.4835
74.1933
72.4523
70.1055
66.9446
63.0875
58.6608
53.7976
48.6655
43.4825
38.5045
34.0032
30.082
26.7237
23.8767
21.4776
19.4593
17.7795
16.3663
15.1352
14.0431
13.0526
12.1367
11.2746
10.4517
9.65185
8.99278
8.41142
7.75349
7.00496
6.18799
77.4927
77.6545
77.4846
77.2325
76.8914
76.4982
76.0862
75.6792
75.2936
74.9402
74.6253
74.3516
74.1193
73.9266
73.771
73.6488
73.556
73.4884
73.4418
73.4124
73.3957
73.3896
73.3889
73.3934
73.3938
77.3709
76.9459
76.1795
75.0396
73.4678
71.3033
68.3262
64.6442
60.3739
55.6141
50.4942
45.2044
39.9856
35.0994
30.7877
27.1097
24.0164
21.4325
19.2804
17.4861
16.0075
14.7669
13.6797
12.7105
11.8273
11.0062
10.2288
9.48266
8.87098
8.3386
7.7044
6.98953
6.17794
5.29036
77.6958
78.0263
77.9483
77.7577
77.442
77.0465
76.6118
76.1682
75.7373
75.334
74.9677
74.6436
74.3634
74.1265
73.931
73.7736
73.6505
73.5572
73.4893
73.4425
73.4129
73.396
73.3898
73.389
73.3934
73.3938
77.4325
76.8157
75.8119
74.3927
72.3993
69.6031
66.1056
62.0164
57.4012
52.3497
47.0158
41.6205
36.4255
31.6902
27.6155
24.2134
21.4045
19.0927
17.1898
15.6174
14.3353
13.2616
12.3128
11.4612
10.6799
9.94876
9.25145
8.69719
8.21403
7.62944
6.93889
6.16118
5.27909
4.31621
77.7916
78.3342
78.381
78.2809
78.0132
77.6315
77.1852
76.7116
76.2386
75.7858
75.3665
74.9887
74.6566
74.3707
74.1305
73.933
73.7747
73.6511
73.5576
73.4896
73.4428
73.4132
73.3963
73.39
73.3891
73.3934
73.3938
77.3582
76.5198
75.2392
73.3984
70.778
67.4714
63.5801
59.141
54.2073
48.8936
43.388
37.943
32.8343
28.3068
24.5111
21.4109
18.899
16.8632
15.2078
13.8528
12.7608
11.8475
11.0312
10.2913
9.60666
8.96056
8.45914
8.03617
7.50183
6.86075
6.1088
5.26191
4.30404
3.25912
77.7479
78.5526
78.7603
78.7848
78.5921
78.2447
77.8011
77.307
76.7971
76.2969
75.8242
75.3907
75.0029
74.6639
74.374
74.1316
73.9331
73.7744
73.6508
73.5574
73.4895
73.4428
73.4133
73.3965
73.3902
73.3891
73.3934
73.3938
77.1163
76.0176
74.3157
71.8558
68.7406
65.0575
60.816
56.0396
50.805
45.2603
39.6318
34.1993
29.2411
24.9755
21.4949
18.7157
16.5079
14.7475
13.3349
12.1905
11.2812
10.5213
9.8308
9.19683
8.60363
8.15942
7.79251
7.31943
6.72959
6.02717
5.2079
4.28595
3.24637
2.11203
77.5283
78.6534
79.061
79.2486
79.1627
78.8743
78.4519
77.95
77.4112
76.8677
76.3427
75.8523
75.4063
75.0101
74.6662
74.3738
74.1302
73.9315
73.773
73.6496
73.5566
73.489
73.4425
73.4135
73.3969
73.3903
73.3891
73.3934
73.3939
76.663
75.1614
72.8536
69.9149
66.4414
62.4115
57.8211
52.7149
47.1997
41.4631
35.7689
30.4165
25.6733
21.7193
18.583
16.1377
14.2361
12.747
11.57
10.6281
9.89341
9.27897
8.70775
8.17394
7.79041
7.48527
7.0697
6.54208
5.892
5.12296
4.23029
3.22714
2.09904
0.867825
77.0827
78.6057
79.2545
79.6485
79.706
79.5062
79.1276
78.6342
78.0774
77.497
76.9228
76.3758
75.8697
75.4132
75.011
74.664
74.3703
74.1267
73.9283
73.7704
73.6478
73.5552
73.488
73.4427
73.4141
73.397
73.3903
73.3891
73.3934
73.3939
75.847
73.7807
71.0111
67.7289
63.9148
59.5306
54.591
49.1656
43.3977
37.5176
31.8235
26.6226
22.1571
18.5578
15.788
13.6837
12.086
10.8611
9.91082
9.16243
8.59345
8.11667
7.65815
7.3446
7.10608
6.7543
6.2857
5.69881
4.98349
4.14213
3.16982
2.07902
0.854699
-0.481106
78.367
76.2595
79.308
79.9581
80.1998
80.123
79.8154
79.3508
78.7903
78.1823
77.5638
76.9621
76.3955
75.8763
75.4123
75.0063
74.6579
74.3643
74.1212
73.9239
73.767
73.645
73.5532
73.4881
73.4436
73.4144
73.397
73.3902
73.389
73.3934
73.394
74.5178
72.0367
68.9369
65.3194
61.1502
56.406
51.1197
45.3919
39.4085
33.4437
27.8228
22.8463
18.7161
15.5072
13.1192
11.3575
10.0578
9.08788
8.35445
7.78971
7.37732
7.03042
6.80716
6.64672
6.3641
5.9614
5.43514
4.78406
3.99801
3.07829
2.01979
0.834119
-0.494387
-1.9428
79.1829
77.7942
74.9146
80.1451
80.6197
80.7043
80.4996
80.0886
79.5425
78.9192
78.2641
77.6113
76.985
76.4019
75.8732
75.4045
74.9969
74.6485
74.3558
74.1142
73.9183
73.7625
73.6416
73.553
73.4893
73.444
73.4144
73.3969
73.39
73.3889
73.3934
73.394
72.8407
70.0713
66.6427
62.6698
58.1368
53.0291
47.4033
41.398
35.2464
29.2658
23.7967
19.1156
15.3719
12.5808
10.5828
9.16049
8.15001
7.42464
6.897
6.50574
6.24097
6.14984
6.0911
5.89009
5.55926
5.10116
4.51246
3.79183
2.92911
1.92462
0.772811
-0.515596
-1.95622
-3.52556
80.1732
78.7579
76.7751
73.2381
80.9352
81.2273
81.1616
80.8338
80.3242
79.7014
79.0201
78.3223
77.6388
76.9917
76.3966
75.8619
75.391
74.9834
74.6363
74.3454
74.1058
73.9113
73.757
73.6409
73.5547
73.4899
73.444
73.4141
73.3965
73.3898
73.3887
73.3934
73.3941
70.9515
67.8902
64.1075
59.7687
54.8645
49.3934
43.4412
37.1917
30.9306
25.0124
19.7765
15.4578
12.1431
9.78837
8.18196
7.09206
6.36016
5.86737
5.53417
5.30631
5.32006
5.40898
5.3148
5.0694
4.68607
4.16793
3.51164
2.71564
1.76993
0.673803
-0.578955
-1.97813
-3.53906
-5.23792
81.1137
79.9365
77.8909
75.4367
71.3625
81.6636
81.7806
81.5693
81.1232
80.5206
79.8266
79.0923
78.3562
77.6465
76.9841
76.3812
75.8435
75.3725
74.9665
74.6217
74.3334
74.0956
73.9031
73.7556
73.6433
73.5555
73.4899
73.4436
73.4135
73.3962
73.3895
73.3885
73.3934
73.3942
68.8512
65.4685
61.3199
56.6059
51.3261
45.4948
39.2352
32.7855
26.4855
20.7157
15.7944
11.898
9.04499
7.13638
5.91779
5.15022
4.6843
4.41161
4.26154
4.3347
4.54547
4.60585
4.47283
4.17907
3.73882
3.15563
2.42614
1.54861
0.513163
-0.681928
-2.04352
-3.56171
-5.2514
-7.08856
81.9846
81.0689
79.2964
76.7073
73.8875
69.2844
82.3299
82.2762
81.9244
81.3661
80.6765
79.9172
79.1351
78.366
77.6367
76.9642
76.3572
75.8192
75.3499
74.9467
74.605
74.3191
74.0839
73.9007
73.7589
73.6444
73.5555
73.4893
73.4427
73.4132
73.396
73.3892
73.3882
73.3934
73.3944
66.51
62.7957
58.2709
53.1745
47.5158
41.3306
34.7903
28.1964
21.9402
16.4105
11.8818
8.45807
6.08909
4.62871
3.78948
3.33135
3.11787
3.0527
3.23114
3.51774
3.70584
3.73493
3.55951
3.21331
2.71138
2.0577
1.24905
0.283409
-0.848948
-2.15064
-3.62911
-5.27477
-7.10195
-9.08593
82.7854
82.1253
80.661
78.3459
75.3189
72.1387
66.9677
82.93
82.7107
82.2246
81.5607
80.791
79.9724
79.1489
78.3547
77.6122
76.9339
76.326
75.7898
75.3238
74.9244
74.5857
74.3029
74.0802
73.9051
73.7603
73.6444
73.5547
73.4881
73.4425
73.4132
73.3957
73.3888
73.3879
73.3934
73.3945
63.9186
59.8649
54.9552
49.4689
43.428
36.8987
30.1138
23.4463
17.3288
12.1335
8.06828
5.15634
3.28372
2.2668
1.79424
1.63099
1.65597
1.95289
2.3651
2.63231
2.7956
2.79043
2.56897
2.16591
1.59712
0.867157
-0.0269914
-1.08771
-2.32449
-3.74063
-5.34418
-7.12597
-9.09875
-11.2422
83.5106
83.1059
81.9429
79.9501
77.1914
73.7591
70.1539
64.4025
83.4596
83.0809
82.4677
81.7061
80.863
79.9924
79.137
78.3254
77.575
76.8949
76.2887
75.7562
75.2948
74.8989
74.564
74.2976
74.0859
73.9069
73.7602
73.6433
73.5529
73.488
73.4428
73.4129
73.3952
73.3884
73.3876
73.3934
73.3947
61.0725
56.673
51.3683
45.4823
39.0558
32.197
25.2172
18.5637
12.69
7.92134
4.38024
2.00735
0.634001
0.0494298
-0.0719112
0.0441433
0.473111
1.02892
1.42675
1.67277
1.80885
1.76641
1.49494
1.0302
0.389031
-0.423366
-1.40976
-2.57285
-3.92175
-5.46035
-7.19722
-9.12288
-11.2509
-13.9621
84.1542
84.0041
83.1447
81.4667
79.0323
75.8877
71.9906
67.9254
61.5851
83.9146
83.3841
82.6524
81.8006
80.8927
79.9816
79.1035
78.2811
77.5274
76.8487
76.2465
75.7192
75.2619
74.8704
74.5565
74.305
74.0882
73.9069
73.7588
73.6409
73.5532
73.489
73.4428
73.4124
73.3945
73.3878
73.3872
73.3934
73.3949
57.9708
53.2182
47.5044
41.2056
34.3886
27.2232
20.117
13.5837
8.06527
3.80924
0.840397
-0.978253
-1.85844
-2.02628
-1.81383
-1.23972
-0.520249
0.0281936
0.410356
0.633131
0.739513
0.656479
0.330662
-0.200855
-0.920276
-1.82166
-2.90734
-4.18031
-5.64922
-7.31821
-9.19608
-11.275
-13.976
-17.2071
84.7112
84.8115
84.2603
82.8998
80.7812
77.9802
74.3985
70.0009
65.4549
58.5159
84.2917
83.6184
82.7766
81.8443
80.8852
79.9446
79.0518
78.2242
77.4712
76.7966
76.2002
75.6775
75.2253
74.8604
74.5659
74.3079
74.0882
73.9051
73.7555
73.6416
73.5552
73.4895
73.4425
73.4116
73.3937
73.3871
73.3867
73.3934
73.3952
54.6144
49.4974
43.3547
36.6231
29.4123
21.9794
14.8384
8.54779
3.49764
-0.170182
-2.53283
-3.79433
-4.19442
-3.96458
-3.22326
-2.31751
-1.59564
-1.05524
-0.690222
-0.492844
-0.418883
-0.546141
-0.930901
-1.53466
-2.33858
-3.33579
-4.52806
-5.91859
-7.51522
-9.32219
-11.3483
-14.0066
-17.225
-20.5204
85.1775
85.5199
85.2802
84.2439
82.4422
79.9746
76.7605
72.7078
67.7915
62.7494
55.1973
84.5882
83.7812
82.8402
81.8433
80.8462
79.8859
78.985
78.1569
77.408
76.7398
76.1483
75.6314
75.2122
74.8721
74.5695
74.3079
74.0859
73.9007
73.757
73.6451
73.5566
73.4896
73.4418
73.4106
73.3926
73.3863
73.3861
73.3934
73.3955
51.0025
45.5042
38.9031
31.7144
24.1178
16.4788
9.41816
3.50392
-0.969499
-3.98813
-5.72648
-6.43821
-6.37694
-5.53316
-4.40604
-3.48379
-2.75938
-2.22771
-1.88135
-1.71171
-1.67317
-1.8485
-2.29713
-2.97895
-3.8739
-4.97402
-6.28039
-7.79601
-9.52787
-11.4792
-14.0857
-17.2582
-20.5331
-23.8376
85.5501
86.1223
86.1947
85.4884
84.0105
81.8751
79.0193
75.3521
70.8169
65.3715
59.8197
51.6306
84.8007
83.8718
82.8499
81.8045
80.781
79.8089
78.9058
78.0813
77.3391
76.6762
76.0911
75.6145
75.2268
74.8766
74.5695
74.3049
74.0801
73.9032
73.7625
73.6478
73.5574
73.4892
73.4407
73.4093
73.3914
73.3853
73.3855
73.3934
73.3958
47.1324
41.2278
34.126
26.454
18.4938
10.7428
3.90393
-1.49488
-5.29459
-7.62171
-8.73219
-8.91045
-8.14344
-6.84909
-5.68532
-4.7453
-4.01801
-3.49573
-3.16968
-3.03033
-3.03038
-3.25792
-3.77567
-4.54163
-5.5344
-6.7447
-8.1726
-9.82076
-11.6939
-14.227
-17.3452
-20.5623
-23.8485
-27.1417
85.8244
86.613
86.9938
86.6223
85.4754
83.6756
81.1796
77.8871
73.7552
68.7364
62.757
56.6766
47.8153
84.9274
83.8979
82.8143
81.7342
80.6941
79.7172
78.8168
77.9991
77.2623
76.6062
76.0699
75.6325
75.2323
74.8766
74.5659
74.2975
74.0839
73.9114
73.7671
73.6497
73.5576
73.4883
73.4393
73.4076
73.3899
73.3843
73.3848
73.3934
73.3962
42.9963
36.641
28.981
20.8009
12.5263
4.79848
-1.6477
-6.39315
-9.44111
-11.0536
-11.5462
-10.9119
-9.62456
-8.2717
-7.06838
-6.10887
-5.37822
-4.86605
-4.56209
-4.4557
-4.49776
-4.78193
-5.37429
-6.2307
-7.32826
-8.65597
-10.2128
-11.9995
-14.4546
-17.4986
-20.6486
-23.878
-27.1517
-30.4215
85.9976
86.9853
87.6681
87.6343
86.8259
85.3649
83.2344
80.319
76.5756
71.9801
66.4847
59.9667
53.3315
43.7504
84.9769
83.8696
82.7408
81.6378
80.5894
79.6137
78.7199
77.9076
77.1779
76.58
76.0918
75.6392
75.2323
74.8721
74.5565
74.303
74.0957
73.9184
73.7705
73.6508
73.5571
73.4869
73.4374
73.4057
73.3882
73.383
73.384
73.3934
73.3967
38.5738
31.7021
23.4112
14.7104
6.2137
-1.31078
-7.17198
-11.1367
-13.3783
-14.2729
-13.8253
-12.5891
-11.2246
-9.80875
-8.56226
-7.58129
-6.8468
-6.34557
-6.06551
-5.9949
-6.08262
-6.42806
-7.10071
-8.05407
-9.26334
-10.7157
-12.4075
-14.7768
-17.7426
-20.8067
-23.9654
-27.1826
-30.4304
-33.6565
86.0792
87.234
88.205
88.5132
88.0504
86.9314
85.1713
82.6413
79.2858
75.0939
70.0461
64.0847
57.0205
49.7982
39.4268
84.9614
83.7958
82.6361
81.5201
80.4707
79.5009
78.6121
77.8069
77.1459
76.6064
76.0997
75.6392
75.2268
74.8603
74.5641
74.3193
74.106
73.924
73.773
73.651
73.5559
73.4849
73.435
73.4033
73.3861
73.3815
73.3832
73.3935
73.3972
33.8347
26.3582
17.3515
8.14487
-0.424926
-7.52003
-12.5985
-15.6741
-17.0826
-16.8819
-15.7337
-14.3996
-12.9518
-11.4674
-10.1738
-9.16935
-8.4306
-7.94107
-7.68683
-7.65501
-7.7922
-8.20369
-8.96247
-10.0192
-11.3471
-12.9301
-15.2046
-18.0844
-21.0612
-24.129
-27.2719
-30.4621
-33.6643
-36.8247
86.0833
87.3703
88.5912
89.2424
89.1364
88.3626
86.9771
84.8418
81.881
78.0867
73.4611
67.9777
61.5611
53.9378
46.0851
34.8243
84.8914
83.6846
82.5058
81.3856
80.3409
79.3754
78.4934
77.7685
77.1776
76.6159
76.0997
75.6325
75.2121
74.8705
74.586
74.3337
74.1144
73.9284
73.7744
73.6504
73.5539
73.4821
73.4321
73.4005
73.3838
73.38
73.3824
73.3935
73.3977
28.7335
20.5291
10.7174
1.08052
-7.34747
-13.7461
-17.8541
-19.9608
-20.0882
-19.0649
-17.7917
-16.3516
-14.8131
-13.2542
-11.9096
-10.8797
-10.1362
-9.65919
-9.43279
-9.44282
-9.63341
-10.1159
-10.9666
-12.1332
-13.5852
-15.7506
-18.5341
-21.4171
-24.3931
-27.4424
-30.5525
-33.6963
-36.8313
-39.9044
86.0223
87.4113
88.8348
89.8011
90.0636
89.6462
88.6366
86.9069
84.3509
80.9563
76.7389
71.7024
65.8023
58.9381
50.739
42.1942
29.9133
84.7764
83.5428
82.3554
81.238
80.1963
79.237
78.4478
77.8062
77.1887
76.6159
76.0917
75.6144
75.2255
74.8993
74.6055
74.3458
74.1214
73.9315
73.7746
73.6487
73.551
73.4787
73.4286
73.3973
73.3813
73.3783
73.3815
73.3936
73.3982
23.1986
14.0918
3.41032
-6.49201
-14.4806
-19.8887
-22.8638
-23.4435
-22.6
-21.4159
-20.007
-18.4512
-16.8143
-15.1753
-13.7758
-12.7185
-11.9698
-11.5062
-11.3097
-11.3646
-11.6127
-12.171
-13.1193
-14.4008
-16.4332
-19.1041
-21.8826
-24.76
-27.7159
-30.7288
-33.7875
-36.8634
-39.9096
-42.8744
85.9076
87.3726
88.9548
90.1926
90.8039
90.7603
90.1348
88.8205
86.6835
83.6957
79.8816
75.2671
69.8463
63.5475
56.2413
47.4474
38.1294
24.6533
84.6247
83.3769
82.1894
81.0731
80.0365
79.1834
78.4924
77.8192
77.1887
76.6064
76.0697
75.6316
75.2624
74.925
74.6221
74.3561
74.1268
73.9331
73.7735
73.6457
73.5471
73.4744
73.4244
73.3937
73.3787
73.3766
73.3806
73.3936
73.3989
17.1188
6.86072
-4.68643
-14.5397
-21.7221
-25.813
-26.9557
-26.349
-25.2987
-23.9412
-22.384
-20.7028
-18.9603
-17.2359
-15.7777
-14.6912
-13.9369
-13.4877
-13.323
-13.426
-13.7354
-14.3743
-15.4247
-17.2828
-19.8138
-22.4695
-25.2364
-28.0919
-31.0096
-33.9681
-36.9546
-39.9415
-42.8782
-45.7136
85.7489
87.268
88.9701
90.4348
91.3569
91.6715
91.4454
90.5648
88.8633
86.2958
82.8861
78.6798
73.6996
67.922
61.2413
53.4983
44.086
33.8931
18.9866
84.4441
83.1923
82.0032
80.8904
79.9743
79.2358
78.5074
77.8192
77.1776
76.5798
76.0914
75.6782
75.2956
74.9473
74.6367
74.3645
74.1302
73.9329
73.7708
73.6415
73.542
73.4692
73.4197
73.3899
73.3759
73.3748
73.3797
73.3937
73.3995
10.3057
-1.4782
-13.6117
-23.0239
-28.8315
-30.6793
-30.3696
-29.464
-28.1863
-26.6416
-24.9243
-23.1089
-21.2543
-19.4395
-17.9195
-16.802
-16.042
-15.6081
-15.4774
-15.6313
-16.006
-16.7291
-18.3499
-20.6963
-23.1979
-25.8335
-28.5751
-31.3908
-34.2532
-37.138
-40.0321
-42.9095
-45.716
-48.402
85.5554
87.1096
88.8984
90.5456
91.7404
92.3773
92.528
92.1075
90.8722
88.7438
85.7481
81.9424
77.3787
72.066
65.959
58.9129
50.7369
40.6764
29.4982
12.849
84.2411
82.9841
81.7962
80.8188
80.0354
79.2531
78.5074
77.8062
77.1457
76.6065
76.1492
75.7203
75.3246
74.9671
74.6489
74.3705
74.1315
73.9308
73.7664
73.6358
73.5358
73.4633
73.4146
73.3859
73.3729
73.3729
73.3788
73.3937
73.4002
2.41112
-11.2668
-23.5221
-31.5121
-34.7341
-34.7325
-34.016
-32.7893
-31.2576
-29.5131
-27.6264
-25.6692
-23.697
-21.7881
-20.2036
-19.054
-18.2882
-17.8707
-17.7758
-17.9835
-18.4262
-19.7105
-21.8048
-24.1032
-26.5726
-29.1767
-31.8758
-34.6353
-37.4242
-40.2163
-42.9984
-45.7461
-48.4032
-50.9209
85.335
86.9085
88.7556
90.5426
91.9726
92.8966
93.378
93.3965
92.6737
91.0234
88.4586
85.0563
80.8909
76.0075
70.3957
63.9866
56.5889
47.987
37.2551
25.0047
6.16485
84.0106
82.7518
81.7145
80.8897
80.0553
79.2531
78.4923
77.7683
77.1783
76.6773
76.2015
75.7573
75.3507
74.9839
74.6581
74.3737
74.1303
73.9265
73.7601
73.6285
73.5285
73.4568
73.4092
73.3816
73.3698
73.371
73.3779
73.3938
73.4009
-7.1392
-23.6864
-33.5992
-38.8425
-39.5929
-39.0201
-37.8774
-36.311
-34.5026
-32.5465
-30.4847
-28.3802
-26.2866
-24.281
-22.6303
-21.4481
-20.6768
-20.2767
-20.2195
-20.4827
-21.4818
-23.2195
-25.2411
-27.4914
-29.9194
-32.4758
-35.1165
-37.8027
-40.5
-43.181
-45.8325
-48.4316
-50.9207
-53.2533
85.0828
86.6735
88.5565
90.4437
92.071
93.248
94.0178
94.4197
94.2042
93.0965
91.0055
88.018
84.2445
79.7605
74.5954
68.7177
62.0305
54.2982
45.294
33.8702
20.5247
-1.14062
83.752
82.6594
81.7963
80.9124
80.0553
79.2357
78.4475
77.8074
77.2637
76.7413
76.2479
75.7908
75.3732
74.9972
74.664
74.3739
74.1263
73.9196
73.7516
73.6197
73.5204
73.4497
73.4034
73.3771
73.3667
73.3691
73.3769
73.3939
73.4017
-20.8283
-37.2796
-43.6146
-44.9879
-44.691
-43.4909
-41.906
-40.0005
-37.9063
-35.7276
-33.4883
-31.2342
-29.0175
-26.9146
-25.1975
-23.9826
-23.2066
-22.8252
-22.8066
-23.6273
-25.062
-26.6948
-28.6473
-30.8429
-33.215
-35.7087
-38.275
-40.8707
-43.4586
-46.011
-48.5144