/*--------------------------------*- C++ -*----------------------------------*\
  =========                 |
  \\      /  F ield         | OpenFOAM: The Open Source CFD Toolbox
   \\    /   O peration     | Website:  https://openfoam.org
    \\  /    A nd           | Version:  8
     \\/     M anipulation  |
\*---------------------------------------------------------------------------*/
FoamFile
{
    version     2.0;
    format      ascii;
    class       volVectorField;
    location    "0.18";
    object      U;
}
// * * * * * * * * * * * * * * * * * * * * * * * * * * * * * * * * * * * * * //

dimensions      [0 1 -1 0 0 0 0];

internalField   nonuniform List<vector> 
15677
(
(-0.0399015 9.66595 0)
(0.0484951 9.92199 0)
(-0.0018136 9.37829 0)
(0.0206524 9.97702 0)
(0.0198921 9.78866 0)
(0.00731346 9.14125 0)
(0.0258391 9.99515 0)
(0.0165374 9.92467 0)
(0.0111792 9.65398 0)
(0.00649146 8.96067 0)
(0.0263308 10.0025 0)
(0.0205524 9.97871 0)
(0.0165509 9.85203 0)
(0.00912497 9.53081 0)
(0.00515974 8.81703 0)
(0.0255703 10.0057 0)
(0.0215844 10.003 0)
(0.0194061 9.94152 0)
(0.0153648 9.77951 0)
(0.00798046 9.41984 0)
(0.00424051 8.70238 0)
(0.0245088 10.0071 0)
(0.021866 10.0147 0)
(0.0210023 9.98478 0)
(0.0182524 9.90244 0)
(0.0138547 9.70811 0)
(0.00692517 9.32158 0)
(0.00354492 8.61019 0)
(0.023097 10.0075 0)
(0.0217424 10.0205 0)
(0.0218695 10.0069 0)
(0.0201987 9.96497 0)
(0.0169616 9.86193 0)
(0.012442 9.64084 0)
(0.00596861 9.23643 0)
(0.00295868 8.53617 0)
(0.021409 10.0074 0)
(0.021191 10.0233 0)
(0.0221527 10.0184 0)
(0.0212881 9.99809 0)
(0.0190533 9.94371 0)
(0.015608 9.82229 0)
(0.0110792 9.57966 0)
(0.00507703 9.16416 0)
(0.00241884 8.47763 0)
(0.0195159 10.007 0)
(0.0203304 10.0235 0)
(0.0221099 10.0241 0)
(0.0217806 10.0162 0)
(0.0202166 9.98814 0)
(0.0177203 9.92275 0)
(0.014143 9.78537 0)
(0.00968578 9.52575 0)
(0.00419883 9.10454 0)
(0.00188728 8.4331 0)
(0.0175005 10.0063 0)
(0.0192741 10.0223 0)
(0.0216665 10.0271 0)
(0.0218028 10.0261 0)
(0.0207474 10.0131 0)
(0.0188617 9.97855 0)
(0.0161745 9.90359 0)
(0.0125193 9.75241 0)
(0.00820378 9.4801 0)
(0.00328857 9.0574 0)
(0.00133493 8.40161 0)
(0.0153991 10.0056 0)
(0.0179649 10.0206 0)
(0.0209339 10.0281 0)
(0.0214566 10.0315 0)
(0.0207805 10.0273 0)
(0.0193195 10.0103 0)
(0.0171882 9.97058 0)
(0.0143583 9.8872 0)
(0.0106813 9.72459 0)
(0.00658252 9.44349 0)
(0.00230469 9.02268 0)
(0.000739175 8.38287 0)
(0.013262 10.0048 0)
(0.0164817 10.0185 0)
(0.0198592 10.0274 0)
(0.0207818 10.034 0)
(0.0203999 10.0354 0)
(0.0192412 10.0288 0)
(0.0174623 10.0092 0)
(0.0151328 9.96504 0)
(0.0121996 9.8746 0)
(0.0085674 9.70297 0)
(0.0047708 9.41667 0)
(0.00121291 9.00042 0)
(5.65701e-05 8.37667 0)
(0.0111598 10.0041 0)
(0.0148851 10.0162 0)
(0.0185081 10.0258 0)
(0.0197962 10.0345 0)
(0.0196655 10.0396 0)
(0.0187146 10.0396 0)
(0.0171495 10.0319 0)
(0.0151056 10.0103 0)
(0.0126085 9.96283 0)
(0.00961865 9.86678 0)
(0.00611323 9.68862 0)
(0.00272162 9.40029 0)
(-1.50152e-05 8.9908 0)
(-0.000614098 8.38297 0)
(0.00927041 10.0034 0)
(0.0131864 10.014 0)
(0.0169194 10.0235 0)
(0.018501 10.0334 0)
(0.0185926 10.0412 0)
(0.017789 10.0456 0)
(0.0163404 10.0453 0)
(0.0144271 10.0371 0)
(0.0121441 10.0146 0)
(0.00951447 9.96484 0)
(0.00653185 9.86474 0)
(0.00325844 9.68251 0)
(0.000397468 9.39499 0)
(-0.00137834 8.99413 0)
(-0.00140243 8.40191 0)
(0.00772497 10.0029 0)
(0.0116232 10.0119 0)
(0.0151326 10.0209 0)
(0.0169102 10.0313 0)
(0.017182 10.0409 0)
(0.0164834 10.0483 0)
(0.01508 10.053 0)
(0.0131886 10.0531 0)
(0.0109495 10.0453 0)
(0.0084545 10.0228 0)
(0.00574378 9.97197 0)
(0.00285772 9.86947 0)
(-6.12986e-05 9.68558 0)
(-0.00226062 9.40141 0)
(-0.00294123 9.01057 0)
(-0.00229238 8.43377 0)
(0.00641347 10.0024 0)
(0.0102308 10.0102 0)
(0.0133937 10.0184 0)
(0.0150539 10.0286 0)
(0.0154376 10.0392 0)
(0.0148014 10.0488 0)
(0.0133862 10.0569 0)
(0.0114327 10.0624 0)
(0.00911425 10.0638 0)
(0.00656937 10.0573 0)
(0.0039047 10.0358 0)
(0.00119104 9.98514 0)
(-0.00147982 9.88198 0)
(-0.0038827 9.69871 0)
(-0.00526719 9.42008 0)
(-0.00469619 9.04038 0)
(-0.00328035 8.47861 0)
(0.00530907 10.002 0)
(0.00897442 10.0087 0)
(0.011815 10.0162 0)
(0.0131766 10.0257 0)
(0.0133766 10.0364 0)
(0.0127437 10.0475 0)
(0.0112622 10.058 0)
(0.00917363 10.0674 0)
(0.00667657 10.0747 0)
(0.00394278 10.0781 0)
(0.00112683 10.0739 0)
(-0.00163809 10.0545 0)
(-0.00424639 10.0053 0)
(-0.00655496 9.90315 0)
(-0.00826297 9.72269 0)
(-0.00864986 9.45142 0)
(-0.00664827 9.08363 0)
(-0.00436124 8.53648 0)
(0.0043851 10.0016 0)
(0.00784212 10.0074 0)
(0.0103571 10.0143 0)
(0.011438 10.023 0)
(0.0112612 10.0333 0)
(0.0103198 10.0448 0)
(0.00870818 10.0571 0)
(0.00641185 10.0691 0)
(0.00364514 10.0805 0)
(0.000605791 10.0904 0)
(-0.00251645 10.0969 0)
(-0.00554075 10.096 0)
(-0.00830252 10.0797 0)
(-0.010661 10.0332 0)
(-0.0124249 9.93388 0)
(-0.0132318 9.75813 0)
(-0.0124256 9.49573 0)
(-0.00880254 9.14045 0)
(-0.00553354 8.60725 0)
(0.00361108 10.0013 0)
(0.00682231 10.0062 0)
(0.00901453 10.0126 0)
(0.00980558 10.0206 0)
(0.00928749 10.0303 0)
(0.00782768 10.0415 0)
(0.00573221 10.0545 0)
(0.00314707 10.0685 0)
(1.61213e-05 10.0828 0)
(-0.00344088 10.0971 0)
(-0.00700509 10.1104 0)
(-0.0104591 10.1209 0)
(-0.013591 10.1242 0)
(-0.0162059 10.1122 0)
(-0.0181279 10.0699 0)
(-0.0191273 9.97487 0)
(-0.0188026 9.80555 0)
(-0.0165932 9.55317 0)
(-0.0111473 9.21059 0)
(-0.00678441 8.69058 0)
(0.0029784 10.001 0)
(0.00591082 10.0052 0)
(0.00778296 10.011 0)
(0.00828654 10.0184 0)
(0.00742691 10.0274 0)
(0.00550066 10.0381 0)
(0.0026904 10.0509 0)
(-0.000610652 10.0658 0)
(-0.00421196 10.0823 0)
(-0.00820719 10.0997 0)
(-0.0123494 10.1178 0)
(-0.0163887 10.1355 0)
(-0.0200754 10.1509 0)
(-0.0231682 10.1595 0)
(-0.0254441 10.1529 0)
(-0.0266994 10.1159 0)
(-0.0266808 10.0267 0)
(-0.0249709 9.86521 0)
(-0.0211395 9.62369 0)
(-0.0136743 9.29389 0)
(-0.00810699 8.78605 0)
(0.00247774 10.0008 0)
(0.00508799 10.0044 0)
(0.00665991 10.0096 0)
(0.00688459 10.0164 0)
(0.00569651 10.0247 0)
(0.00331022 10.0347 0)
(-0.000139486 10.047 0)
(-0.00441906 10.0618 0)
(-0.00902498 10.0794 0)
(-0.0136966 10.0992 0)
(-0.0185678 10.1206 0)
(-0.0233548 10.1433 0)
(-0.0277719 10.1664 0)
(-0.0315395 10.1877 0)
(-0.034391 10.2026 0)
(-0.0360847 10.2024 0)
(-0.0363998 10.1719 0)
(-0.0350793 10.0898 0)
(-0.0317145 9.93725 0)
(-0.0260355 9.70709 0)
(-0.0163527 9.3897 0)
(-0.00947786 8.89282 0)
(0.00209312 10.0007 0)
(0.00438441 10.0037 0)
(0.0056382 10.0084 0)
(0.0056013 10.0145 0)
(0.0041059 10.0221 0)
(0.00128289 10.0314 0)
(-0.00279102 10.043 0)
(-0.00794185 10.0573 0)
(-0.0138626 10.0748 0)
(-0.0198897 10.0958 0)
(-0.0256671 10.1198 0)
(-0.0313875 10.1462 0)
(-0.0367256 10.1745 0)
(-0.0413631 10.2039 0)
(-0.0449963 10.232 0)
(-0.047345 10.2541 0)
(-0.0481601 10.2613 0)
(-0.0472218 10.2383 0)
(-0.0442905 10.1643 0)
(-0.038989 10.0215 0)
(-0.0312378 9.8029 0)
(-0.0191619 9.49747 0)
(-0.0108782 9.01019 0)
(0.00179666 10.0006 0)
(0.00381355 10.0032 0)
(0.00475638 10.0074 0)
(0.00443695 10.0129 0)
(0.00266098 10.0198 0)
(-0.000565041 10.0283 0)
(-0.00522807 10.039 0)
(-0.0112232 10.0525 0)
(-0.0183111 10.0695 0)
(-0.0260708 10.0905 0)
(-0.0336215 10.1158 0)
(-0.0404987 10.1449 0)
(-0.0469825 10.1772 0)
(-0.0527099 10.2121 0)
(-0.0573375 10.2487 0)
(-0.0605525 10.2845 0)
(-0.0620738 10.3147 0)
(-0.061664 10.33 0)
(-0.0591225 10.3153 0)
(-0.0542529 10.2503 0)
(-0.0467292 10.1177 0)
(-0.0366929 9.91052 0)
(-0.0220369 9.61615 0)
(-0.012243 9.13655 0)
(0.00156395 10.0005 0)
(0.00334874 10.0028 0)
(0.00403402 10.0065 0)
(0.0034371 10.0114 0)
(0.00136584 10.0175 0)
(-0.0022227 10.0253 0)
(-0.00742672 10.0351 0)
(-0.0142168 10.0477 0)
(-0.0224309 10.0638 0)
(-0.0317256 10.0841 0)
(-0.0415174 10.1094 0)
(-0.0506559 10.14 0)
(-0.0585621 10.1753 0)
(-0.0656463 10.2144 0)
(-0.0715178 10.2568 0)
(-0.0758264 10.3015 0)
(-0.0782649 10.3458 0)
(-0.0785729 10.3847 0)
(-0.076545 10.4088 0)
(-0.0720244 10.403 0)
(-0.0648775 10.3474 0)
(-0.0548505 10.2252 0)
(-0.0422845 10.029 0)
(-0.0248623 9.74448 0)
(-0.0132744 9.27006 0)
(0.00137876 10.0005 0)
(0.00296774 10.0025 0)
(0.0034438 10.0059 0)
(0.00262508 10.0102 0)
(0.000272109 10.0156 0)
(-0.00368247 10.0224 0)
(-0.00937018 10.0313 0)
(-0.0168898 10.0428 0)
(-0.0261642 10.0578 0)
(-0.0369373 10.0772 0)
(-0.0487123 10.1017 0)
(-0.0606987 10.1322 0)
(-0.0714255 10.1691 0)
(-0.0802036 10.2115 0)
(-0.0876306 10.2584 0)
(-0.0933103 10.3093 0)
(-0.0969029 10.3628 0)
(-0.0981326 10.4162 0)
(-0.0967841 10.4643 0)
(-0.0927107 10.4978 0)
(-0.0858119 10.5013 0)
(-0.0760464 10.4552 0)
(-0.0632061 10.3433 0)
(-0.0479651 10.1573 0)
(-0.0278277 9.88193 0)
(-0.0156031 9.41074 0)
(0.00122954 10.0004 0)
(0.00265311 10.0022 0)
(0.00295992 10.0053 0)
(0.00197066 10.0092 0)
(-0.000597829 10.0139 0)
(-0.00488545 10.0198 0)
(-0.0110465 10.0276 0)
(-0.0192182 10.038 0)
(-0.0294674 10.0517 0)
(-0.0416338 10.0697 0)
(-0.0553188 10.0931 0)
(-0.0698248 10.1228 0)
(-0.0841113 10.1595 0)
(-0.0963381 10.2037 0)
(-0.105724 10.2543 0)
(-0.113131 10.31 0)
(-0.118181 10.37 0)
(-0.120575 10.433 0)
(-0.120096 10.496 0)
(-0.1166 10.5538 0)
(-0.110017 10.5967 0)
(-0.100333 10.6096 0)
(-0.0875749 10.5732 0)
(-0.0716531 10.471 0)
(-0.0529751 10.2945 0)
(-0.0246785 10.0222 0)
(-0.0115219 9.49623 0)
(0.00110786 10.0004 0)
(0.0023918 10.002 0)
(0.00256252 10.0049 0)
(0.00144189 10.0083 0)
(-0.00128158 10.0125 0)
(-0.00581292 10.0176 0)
(-0.0123877 10.0242 0)
(-0.0211845 10.0332 0)
(-0.0323075 10.0455 0)
(-0.0457588 10.0621 0)
(-0.061248 10.0839 0)
(-0.0781836 10.1123 0)
(-0.0956201 10.1481 0)
(-0.112226 10.192 0)
(-0.12575 10.2446 0)
(-0.135361 10.3044 0)
(-0.142272 10.3696 0)
(-0.146152 10.4395 0)
(-0.146777 10.5125 0)
(-0.144023 10.5854 0)
(-0.137846 10.6529 0)
(-0.128277 10.7052 0)
(-0.115363 10.7275 0)
(-0.0992754 10.7002 0)
(-0.0796793 10.6071 0)
(-0.0569747 10.4375 0)
(-0.0201764 10.1938 0)
(-0.00295131 9.56204 0)
(0.00100749 10.0003 0)
(0.00217394 10.0018 0)
(0.00223042 10.0045 0)
(0.00101431 10.0076 0)
(-0.00181729 10.0112 0)
(-0.00651439 10.0156 0)
(-0.0133815 10.0212 0)
(-0.0227087 10.0287 0)
(-0.0346598 10.0394 0)
(-0.0492684 10.0543 0)
(-0.0664278 10.0743 0)
(-0.0856657 10.1009 0)
(-0.106147 10.1352 0)
(-0.12663 10.1781 0)
(-0.145462 10.2304 0)
(-0.159958 10.2925 0)
(-0.169278 10.3623 0)
(-0.175084 10.4378 0)
(-0.177147 10.5181 0)
(-0.175359 10.6013 0)
(-0.169717 10.6842 0)
(-0.160301 10.7613 0)
(-0.147229 10.823 0)
(-0.130661 10.8541 0)
(-0.110607 10.8354 0)
(-0.0864717 10.7506 0)
(-0.0601835 10.5945 0)
(-0.0215905 10.3671 0)
(0.00235409 9.61943 0)
(0.000923876 10.0003 0)
(0.0019917 10.0017 0)
(0.00195471 10.0041 0)
(0.000670631 10.007 0)
(-0.00223573 10.0102 0)
(-0.00703831 10.0139 0)
(-0.0140945 10.0186 0)
(-0.023788 10.0248 0)
(-0.0364286 10.0336 0)
(-0.0521282 10.0464 0)
(-0.0708003 10.0644 0)
(-0.0921797 10.0889 0)
(-0.115558 10.1211 0)
(-0.139802 10.1623 0)
(-0.16334 10.2136 0)
(-0.184178 10.2752 0)
(-0.19916 10.3478 0)
(-0.207517 10.4285 0)
(-0.211496 10.5149 0)
(-0.21101 10.6059 0)
(-0.206102 10.6994 0)
(-0.196924 10.7922 0)
(-0.183671 10.8787 0)
(-0.166587 10.9491 0)
(-0.145734 10.9885 0)
(-0.120957 10.9782 0)
(-0.0920595 10.9024 0)
(-0.0622395 10.7642 0)
(-0.024412 10.537 0)
(0.00320228 9.67638 0)
(0.000853658 10.0003 0)
(0.00183849 10.0016 0)
(0.00172609 10.0038 0)
(0.000390303 10.0064 0)
(-0.00256128 10.0093 0)
(-0.00742378 10.0125 0)
(-0.0145897 10.0163 0)
(-0.024512 10.0213 0)
(-0.037623 10.0284 0)
(-0.0542215 10.0389 0)
(-0.0743191 10.0544 0)
(-0.09765 10.0764 0)
(-0.123737 10.1061 0)
(-0.151577 10.145 0)
(-0.179698 10.1944 0)
(-0.206163 10.255 0)
(-0.228614 10.3272 0)
(-0.243437 10.411 0)
(-0.250026 10.5034 0)
(-0.251346 10.6011 0)
(-0.247501 10.7029 0)
(-0.238722 10.8067 0)
(-0.225316 10.9091 0)
(-0.207626 11.0044 0)
(-0.185887 11.083 0)
(-0.160067 11.1304 0)
(-0.13069 11.1282 0)
(-0.0974921 11.0623 0)
(-0.0640417 10.9413 0)
(-0.0270792 10.7026 0)
(0.00271781 9.74984 0)
(0.000794279 10.0003 0)
(0.00170896 10.0015 0)
(0.00153646 10.0036 0)
(0.000160511 10.006 0)
(-0.00281445 10.0085 0)
(-0.00770208 10.0112 0)
(-0.0149177 10.0143 0)
(-0.0249637 10.0182 0)
(-0.0383631 10.0238 0)
(-0.0555723 10.0321 0)
(-0.0768394 10.0447 0)
(-0.102015 10.0636 0)
(-0.130588 10.0905 0)
(-0.161811 10.1266 0)
(-0.194337 10.1733 0)
(-0.226312 10.2319 0)
(-0.255399 10.3031 0)
(-0.278903 10.3867 0)
(-0.292759 10.4827 0)
(-0.296643 10.5872 0)
(-0.294374 10.6964 0)
(-0.286296 10.8089 0)
(-0.272848 10.9227 0)
(-0.254517 11.0342 0)
(-0.231717 11.1377 0)
(-0.204671 11.224 0)
(-0.173843 11.2791 0)
(-0.140439 11.2845 0)
(-0.103639 11.2294 0)
(-0.0667066 11.1206 0)
(-0.029931 10.8826 0)
(0.00158492 9.83457 0)
(0.000743746 10.0002 0)
(0.00159884 10.0014 0)
(0.00137697 10.0034 0)
(-2.85963e-05 10.0056 0)
(-0.00301088 10.0078 0)
(-0.00789799 10.0101 0)
(-0.015119 10.0125 0)
(-0.0252095 10.0155 0)
(-0.0387584 10.0197 0)
(-0.05634 10.026 0)
(-0.0784028 10.0359 0)
(-0.105093 10.0513 0)
(-0.136028 10.0745 0)
(-0.170378 10.1072 0)
(-0.207076 10.1508 0)
(-0.244378 10.2065 0)
(-0.280003 10.2756 0)
(-0.31123 10.3583 0)
(-0.335048 10.4543 0)
(-0.346968 10.5631 0)
(-0.347084 10.68 0)
(-0.340217 10.8007 0)
(-0.326987 10.9238 0)
(-0.308065 11.047 0)
(-0.284083 11.1669 0)
(-0.255524 11.278 0)
(-0.223016 11.3716 0)
(-0.187508 11.4336 0)
(-0.15037 11.4462 0)
(-0.110512 11.4005 0)
(-0.0706032 11.3205 0)
(-0.032874 11.0776 0)
(-0.000176541 9.92854 0)
(0.00070045 10.0002 0)
(0.00150476 10.0013 0)
(0.00124242 10.0032 0)
(-0.000183279 10.0052 0)
(-0.00316291 10.0072 0)
(-0.008031 10.0091 0)
(-0.0152253 10.011 0)
(-0.0253021 10.0132 0)
(-0.0388962 10.0161 0)
(-0.0566679 10.0207 0)
(-0.0792182 10.0281 0)
(-0.106944 10.0401 0)
(-0.139827 10.0589 0)
(-0.177172 10.0873 0)
(-0.217757 10.127 0)
(-0.26014 10.1792 0)
(-0.302129 10.2452 0)
(-0.341013 10.3259 0)
(-0.373704 10.4212 0)
(-0.396908 10.5303 0)
(-0.405772 10.6524 0)
(-0.400958 10.7818 0)
(-0.388431 10.9139 0)
(-0.369115 11.0469 0)
(-0.343913 11.1789 0)
(-0.313604 11.3066 0)
(-0.279016 11.4248 0)
(-0.241233 11.5249 0)
(-0.201274 11.5928 0)
(-0.160418 11.6111 0)
(-0.118317 11.5942 0)
(-0.0753545 11.5397 0)
(-0.0360472 11.2681 0)
(-0.00211475 10.0293 0)
(0.000663398 10.0002 0)
(0.00142382 10.0013 0)
(0.00112858 10.0031 0)
(-0.000310489 10.0049 0)
(-0.00328001 10.0067 0)
(-0.00811636 10.0083 0)
(-0.0152612 10.0097 0)
(-0.0252828 10.0111 0)
(-0.0388455 10.013 0)
(-0.0566708 10.016 0)
(-0.0794719 10.0211 0)
(-0.10784 10.03 0)
(-0.142069 10.0447 0)
(-0.1819 10.0678 0)
(-0.226241 10.1024 0)
(-0.2734 10.1503 0)
(-0.321504 10.2124 0)
(-0.367898 10.29 0)
(-0.409445 10.3834 0)
(-0.442709 10.4922 0)
(-0.464193 10.615 0)
(-0.468754 10.7506 0)
(-0.457778 10.8925 0)
(-0.438508 11.0354 0)
(-0.41219 11.1779 0)
(-0.379966 11.318 0)
(-0.342938 11.4527 0)
(-0.302335 11.577 0)
(-0.259426 11.6825 0)
(-0.215118 11.7547 0)
(-0.171478 11.7976 0)
(-0.126731 11.809 0)
(-0.0804989 11.755 0)
(-0.0391426 11.4534 0)
(-0.00396804 10.1349 0)
(0.0013536 10.0012 0)
(0.000619463 10.0002 0)
(0.00103125 10.0029 0)
(-0.000415266 10.0046 0)
(-0.00336963 10.0062 0)
(-0.00816594 10.0075 0)
(-0.0152461 10.0085 0)
(-0.0251836 10.0093 0)
(-0.0386605 10.0102 0)
(-0.0564389 10.0118 0)
(-0.079313 10.015 0)
(-0.108019 10.021 0)
(-0.143094 10.0318 0)
(-0.184664 10.0499 0)
(-0.232156 10.0782 0)
(-0.283976 10.1202 0)
(-0.33788 10.1777 0)
(-0.391551 10.2511 0)
(-0.44185 10.3413 0)
(-0.485229 10.4485 0)
(-0.517975 10.5716 0)
(-0.536476 10.7086 0)
(-0.53539 10.8577 0)
(-0.516989 11.0117 0)
(-0.489911 11.1649 0)
(-0.455746 11.316 0)
(-0.415974 11.4634 0)
(-0.372079 11.6042 0)
(-0.325482 11.7336 0)
(-0.277478 11.8427 0)
(-0.230353 11.9373 0)
(-0.183302 12.0049 0)
(-0.134911 12.0215 0)
(-0.0856192 11.9644 0)
(-0.0420352 11.6328 0)
(-0.00573717 10.2432 0)
(0.000946016 10.0028 0)
(0.00127315 10.0012 0)
(0.000567176 10.0002 0)
(-0.000502304 10.0044 0)
(-0.00343737 10.0058 0)
(-0.00818877 10.0069 0)
(-0.015195 10.0075 0)
(-0.0250293 10.0077 0)
(-0.0383827 10.0077 0)
(-0.0560427 10.0081 0)
(-0.0788592 10.0095 0)
(-0.107674 10.013 0)
(-0.143211 10.0204 0)
(-0.185895 10.0337 0)
(-0.235619 10.056 0)
(-0.291395 10.0906 0)
(-0.351027 10.1413 0)
(-0.411665 10.2097 0)
(-0.470517 10.2957 0)
(-0.523973 10.3998 0)
(-0.568128 10.5217 0)
(-0.599077 10.6596 0)
(-0.613208 10.8109 0)
(-0.605072 10.9733 0)
(-0.577991 11.1389 0)
(-0.542111 11.3017 0)
(-0.499422 11.4606 0)
(-0.451786 11.6142 0)
(-0.400921 11.76 0)
(-0.348288 11.8928 0)
(-0.297167 12.0234 0)
(-0.246522 12.14 0)
(-0.194624 12.2107 0)
(-0.142629 12.2293 0)
(-0.0904857 12.1667 0)
(-0.0446417 11.806 0)
(-0.0073548 10.3524 0)
(-0.000579707 10.0042 0)
(0.000857301 10.0027 0)
(0.00117547 10.0011 0)
(0.000517443 10.0002 1.86514e-19)
(-0.0034885 10.0055 0)
(-0.00819135 10.0063 0)
(-0.0151189 10.0066 0)
(-0.0248387 10.0063 0)
(-0.0380441 10.0056 0)
(-0.0555365 10.0048 0)
(-0.0782019 10.0046 0)
(-0.106957 10.0059 0)
(-0.142662 10.0101 0)
(-0.185977 10.0193 0)
(-0.237162 10.0359 0)
(-0.295783 10.0633 0)
(-0.360342 10.1054 0)
(-0.427947 10.1662 0)
(-0.495069 10.2469 0)
(-0.558461 10.3468 0)
(-0.614079 10.466 0)
(-0.657739 10.6033 0)
(-0.685454 10.7564 0)
(-0.693731 10.9219 0)
(-0.67713 11.0973 0)
(-0.640177 11.2737 0)
(-0.59464 11.4451 0)
(-0.54293 11.6107 0)
(-0.487186 11.7695 0)
(-0.429237 11.9186 0)
(-0.373079 12.0724 0)
(-0.317979 12.2238 0)
(-0.261772 12.3412 0)
(-0.205229 12.4126 0)
(-0.149735 12.4308 0)
(-0.0949857 12.3613 0)
(-0.0469359 11.9725 0)
(-0.00879286 10.4608 0)
(-0.00353613 10.0052 0)
(-0.000642292 10.004 0)
(0.000758065 10.0025 8.33083e-19)
(0.00108197 10.001 -5.90993e-19)
(0.000470116 10.0002 -3.71987e-19)
(-0.00817947 10.0058 0)
(-0.0150255 10.0058 0)
(-0.024626 10.005 0)
(-0.0376691 10.0037 0)
(-0.0549617 10.0019 0)
(-0.0774115 10.0003 0)
(-0.105985 9.99964 0)
(-0.141642 10.0011 0)
(-0.185218 10.0063 0)
(-0.237263 10.0178 0)
(-0.297789 10.0385 0)
(-0.365945 10.0722 0)
(-0.439631 10.1231 0)
(-0.515139 10.1955 0)
(-0.588238 10.29 0)
(-0.655263 10.4051 0)
(-0.711804 10.5402 0)
(-0.753501 10.6935 0)
(-0.776414 10.8619 0)
(-0.777311 11.0414 0)
(-0.750865 11.229 0)
(-0.702963 11.4153 0)
(-0.647074 11.5942 0)
(-0.585944 11.7654 0)
(-0.521882 11.9277 0)
(-0.459941 12.0977 0)
(-0.399267 12.2718 0)
(-0.337504 12.4228 0)
(-0.275911 12.5389 0)
(-0.214959 12.6091 0)
(-0.156162 12.6252 0)
(-0.0990591 12.5477 0)
(-0.0489266 12.132 0)
(-0.0100459 10.5672 0)
(-0.00817362 10.0054 0)
(-0.00353606 10.0048 -1.78033e-18)
(-0.000692928 10.0037 -8.78764e-19)
(0.00066459 10.0023 4.15629e-19)
(0.000992357 10.0009 -3.9281e-19)
(0.00042526 10.0001 0)
(-0.014921 10.0051 0)
(-0.0244002 10.0039 0)
(-0.0372755 10.002 0)
(-0.0543499 9.9994 0)
(-0.0765416 9.99655 0)
(-0.10485 9.99407 0)
(-0.140302 9.99299 0)
(-0.183864 9.99481 0)
(-0.236307 10.0016 0)
(-0.297997 10.0162 0)
(-0.368618 10.0419 0)
(-0.446818 10.0831 0)
(-0.529762 10.1444 0)
(-0.612846 10.2298 0)
(-0.691132 10.3395 0)
(-0.760615 10.4709 0)
(-0.816609 10.6227 0)
(-0.85471 10.7924 0)
(-0.871168 10.976 0)
(-0.863155 11.1689 0)
(-0.825569 11.3678 0)
(-0.765786 11.5629 0)
(-0.698972 11.7481 0)
(-0.628099 11.9232 0)
(-0.559458 12.1065 0)
(-0.492344 12.2967 0)
(-0.423784 12.4699 0)
(-0.35556 12.6182 0)
(-0.288789 12.7313 0)
(-0.223745 12.799 0)
(-0.161885 12.8115 0)
(-0.102681 12.7254 0)
(-0.050635 12.284 0)
(-0.0111207 10.6706 0)
(-0.0148366 10.0044 0)
(-0.00807092 10.0048 3.75461e-18)
(-0.00347632 10.0044 0)
(-0.000739328 10.0034 8.76508e-19)
(0.000577588 10.0021 1.3761e-22)
(0.000906562 10.0009 0)
(0.000382897 10.0001 0)
(-0.0241679 10.003 0)
(-0.0368743 10.0005 0)
(-0.0537238 9.99715 0)
(-0.075633 9.99319 0)
(-0.10362 9.98914 0)
(-0.138758 9.98583 0)
(-0.182105 9.98457 0)
(-0.234599 9.98718 0)
(-0.296882 9.99614 0)
(-0.369067 10.0146 0)
(-0.450429 10.0467 0)
(-0.538985 10.0967 0)
(-0.631075 10.1697 0)
(-0.721128 10.2699 0)
(-0.803523 10.396 0)
(-0.874024 10.5448 0)
(-0.9278 10.7139 0)
(-0.960546 10.8999 0)
(-0.968856 11.0983 0)
(-0.950442 11.3039 0)
(-0.900534 11.513 0)
(-0.828085 11.7157 0)
(-0.749875 11.9055 0)
(-0.673755 12.1019 0)
(-0.599128 12.3056 0)
(-0.522644 12.4946 0)
(-0.446426 12.6646 0)
(-0.372 12.8086 0)
(-0.300364 12.9176 0)
(-0.231565 12.9816 0)
(-0.166911 12.9895 0)
(-0.105853 12.8943 0)
(-0.0520863 12.4283 0)
(-0.0120309 10.7701 0)
(-0.0239751 10.0021 0)
(-0.0145841 10.0037 4.92383e-22)
(-0.00783011 10.0042 0)
(-0.00341618 10.0039 -9.24207e-19)
(-0.00077593 10.0031 8.50828e-23)
(0.000496934 10.002 0)
(0.000824708 10.0008 0)
(0.000343033 10.0001 0)
(-0.0364722 9.99918 0)
(-0.0530967 9.99516 0)
(-0.0747149 9.99023 0)
(-0.102348 9.98477 0)
(-0.137099 9.97949 0)
(-0.180089 9.97548 0)
(-0.232379 9.97433 0)
(-0.294822 9.97823 0)
(-0.36787 9.99011 0)
(-0.45131 10.0136 0)
(-0.543885 10.0531 0)
(-0.642888 10.1136 0)
(-0.74374 10.2 0)
(-0.839851 10.3162 0)
(-0.924984 10.4602 0)
(-0.994824 10.6271 0)
(-1.04454 10.8138 0)
(-1.0701 11.0161 0)
(-1.06857 11.2286 0)
(-1.03835 11.4458 0)
(-0.97507 11.6639 0)
(-0.889278 11.8723 0)
(-0.805047 12.0841 0)
(-0.72199 12.3013 0)
(-0.636232 12.5038 0)
(-0.550616 12.6894 0)
(-0.467051 12.8545 0)
(-0.386781 12.9931 0)
(-0.310643 13.0968 0)
(-0.238442 13.1561 0)
(-0.171271 13.1587 0)
(-0.108594 13.0542 0)
(-0.0533061 12.565 0)
(-0.0127934 10.8655 0)
(-0.0361364 9.99802 0)
(-0.0235145 10.0011 -2.08608e-18)
(-0.0140743 10.0029 0)
(-0.0075966 10.0036 0)
(-0.00334136 10.0035 2.76433e-18)
(-0.000802915 10.0028 0)
(0.000422671 10.0018 0)
(0.000746903 10.0007 7.76778e-19)
(0.000305697 10.0001 0)
(-0.0524756 9.99341 0)
(-0.0738035 9.9876 0)
(-0.101071 9.98091 0)
(-0.13539 9.97387 0)
(-0.177927 9.96741 0)
(-0.229832 9.9629 0)
(-0.292115 9.96227 0)
(-0.365491 9.96813 0)
(-0.450159 9.98385 0)
(-0.545462 10.0135 0)
(-0.649519 10.062 0)
(-0.758803 10.1344 0)
(-0.867736 10.2357 0)
(-0.968683 10.3696 0)
(-1.0549 10.5325 0)
(-1.12219 10.7181 0)
(-1.16588 10.9225 0)
(-1.18238 11.1405 0)
(-1.1694 11.3662 0)
(-1.12608 11.5938 0)
(-1.04849 11.8191 0)
(-0.955707 12.0504 0)
(-0.863397 12.2838 0)
(-0.767133 12.5002 0)
(-0.670503 12.6993 0)
(-0.576114 12.8796 0)
(-0.485612 13.0386 0)
(-0.399926 13.1708 0)
(-0.319668 13.2685 0)
(-0.244425 13.3224 0)
(-0.175009 13.319 0)
(-0.110935 13.2051 0)
(-0.0543208 12.6939 0)
(-0.0134264 10.9562 0)
(-0.0519566 9.99185 0)
(-0.0353955 9.99673 0)
(-0.0226237 10 -2.17096e-18)
(-0.0135852 10.0021 -2.05433e-18)
(-0.00734169 10.003 -3.88548e-18)
(-0.0032518 10.0031 0)
(-0.000820287 10.0025 -1.73505e-18)
(0.000354949 10.0017 -1.63837e-18)
(0.000673163 10.0007 7.73089e-19)
(0.000270844 10.0001 0)
(-0.0729062 9.98528 0)
(-0.0998091 9.97749 0)
(-0.133681 9.9689 0)
(-0.175707 9.96026 0)
(-0.227101 9.95275 0)
(-0.288992 9.94806 0)
(-0.362295 9.94851 0)
(-0.447533 9.95714 0)
(-0.544544 9.97779 0)
(-0.652139 10.015 0)
(-0.767714 10.0739 0)
(-0.886826 10.1599 0)
(-1.00284 10.2779 0)
(-1.10709 10.4307 0)
(-1.1925 10.6133 0)
(-1.25516 10.818 0)
(-1.29079 11.0398 0)
(-1.29636 11.2727 0)
(-1.27039 11.5106 0)
(-1.21281 11.7469 0)
(-1.12845 11.9963 0)
(-1.02613 12.2503 0)
(-0.918069 12.4835 0)
(-0.808857 12.6967 0)
(-0.701774 12.8904 0)
(-0.599089 13.0642 0)
(-0.502135 13.2161 0)
(-0.411494 13.3411 0)
(-0.327512 13.4322 0)
(-0.249575 13.48 0)
(-0.178178 13.4704 0)
(-0.112911 13.3473 0)
(-0.055156 12.8153 0)
(-0.0139469 11.0421 0)
(-0.0721579 9.98322 0)
(-0.0508473 9.99015 -2.31965e-18)
(-0.0339816 9.9953 2.28671e-18)
(-0.0217757 9.99897 -1.17714e-21)
(-0.0130656 10.0013 2.04737e-18)
(-0.00706526 10.0025 1.93597e-18)
(-0.00314799 10.0027 3.65828e-18)
(-0.000827909 10.0023 2.59109e-18)
(0.000293736 10.0015 -8.15275e-19)
(0.000603532 10.0006 0)
(0.000238458 10.0001 0)
(-0.0985704 9.97445 0)
(-0.131996 9.96448 0)
(-0.173488 9.95392 0)
(-0.224293 9.94374 0)
(-0.285629 9.93542 0)
(-0.358566 9.93101 0)
(-0.44388 9.93324 0)
(-0.5418 9.94563 0)
(-0.651718 9.97247 0)
(-0.77182 10.0187 0)
(-0.898677 10.0898 0)
(-1.02685 10.191 0)
(-1.14863 10.3271 0)
(-1.25436 10.5 0)
(-1.33683 10.703 0)
(-1.39269 10.9268 0)
(-1.41817 11.1654 0)
(-1.41103 11.4124 0)
(-1.37062 11.6607 0)
(-1.30762 11.9225 0)
(-1.21352 12.1961 0)
(-1.09231 12.4509 0)
(-0.968695 12.6812 0)
(-0.846963 12.889 0)
(-0.729985 13.0761 0)
(-0.619576 13.2424 0)
(-0.516696 13.3863 0)
(-0.421573 13.5036 0)
(-0.334262 13.5876 0)
(-0.253962 13.6291 0)
(-0.180834 13.6131 0)
(-0.114561 13.4809 0)
(-0.0558356 12.9292 0)
(-0.0143713 11.1233 0)
(-0.0975418 9.97177 0)
(-0.070574 9.98102 -3.46726e-21)
(-0.048734 9.98833 0)
(-0.0326452 9.99393 -1.8905e-21)
(-0.020885 9.99795 0)
(-0.0125151 10.0005 -2.04003e-18)
(-0.00676816 10.0019 -3.8561e-18)
(-0.00302976 10.0023 8.94244e-23)
(-0.000825957 10.0021 1.71892e-18)
(0.000238761 10.0014 -8.10926e-19)
(0.000537995 10.0005 7.64712e-19)
(0.000208507 10.0001 0)
(-0.130344 9.96057 0)
(-0.171301 9.94829 0)
(-0.221485 9.93575 0)
(-0.282162 9.92419 0)
(-0.354525 9.91542 0)
(-0.439546 9.9119 0)
(-0.537768 9.91681 0)
(-0.649051 9.93412 0)
(-0.77225 9.96858 0)
(-0.904822 10.0255 0)
(-1.04242 10.1104 0)
(-1.17857 10.2285 0)
(-1.30447 10.3841 0)
(-1.40961 10.5781 0)
(-1.48683 10.8018 0)
(-1.53362 11.0444 0)
(-1.54692 11.299 0)
(-1.52535 11.5585 0)
(-1.48066 11.8339 0)
(-1.40891 12.1217 0)
(-1.29376 12.3977 0)
(-1.15379 12.6502 0)
(-1.01506 12.8753 0)
(-0.881393 13.0763 0)
(-0.755172 13.2555 0)
(-0.637666 13.4134 0)
(-0.529408 13.5489 0)
(-0.430276 13.6581 0)
(-0.340017 13.7347 0)
(-0.257662 13.7697 0)
(-0.183035 13.7471 0)
(-0.115922 13.6062 0)
(-0.0563811 13.036 0)
(-0.014714 11.1996 0)
(-0.128979 9.9571 0)
(-0.0953558 9.96894 2.57264e-18)
(-0.0675441 9.9787 -2.54222e-18)
(-0.0467487 9.98657 2.40285e-18)
(-0.0312506 9.99262 0)
(-0.0199507 9.99697 0)
(-0.0119354 9.99982 2.03167e-18)
(-0.00645091 10.0014 -1.91909e-18)
(-0.00289723 10.002 1.19488e-22)
(-0.000814049 10.0018 8.54977e-19)
(0.000190093 10.0013 -8.06367e-19)
(0.000476475 10.0005 -7.59341e-19)
(0.000181122 10.0001 0)
(-0.169157 9.9433 0)
(-0.218715 9.92865 0)
(-0.278689 9.91421 0)
(-0.35034 9.90156 0)
(-0.434802 9.89287 0)
(-0.532868 9.89102 0)
(-0.644777 9.89967 0)
(-0.769936 9.92327 0)
(-0.906559 9.96692 0)
(-1.05127 10.0362 0)
(-1.19876 10.1367 0)
(-1.34146 10.2733 0)
(-1.46957 10.4496 0)
(-1.5718 10.6653 0)
(-1.64135 10.9098 0)
(-1.67679 11.1706 0)
(-1.67591 11.4399 0)
(-1.65148 11.7282 0)
(-1.5988 12.0317 0)
(-1.50488 12.3238 0)
(-1.36857 12.5988 0)
(-1.21028 12.8466 0)
(-1.05709 13.0646 0)
(-0.912206 13.2575 0)
(-0.777442 13.4278 0)
(-0.653491 13.5768 0)
(-0.540407 13.7035 0)
(-0.437723 13.8045 0)
(-0.344879 13.8736 0)
(-0.260752 13.902 0)
(-0.184837 13.8729 0)
(-0.11703 13.7235 0)
(-0.0568135 13.1359 0)
(-0.0149877 11.2712 0)
(-0.167398 9.93887 0)
(-0.126041 9.9535 0)
(-0.0911458 9.96601 2.67394e-18)
(-0.0647129 9.97648 -5.0714e-18)
(-0.0446848 9.9849 4.79653e-18)
(-0.0297958 9.99136 -4.53445e-18)
(-0.0189764 9.99604 0)
(-0.0113276 9.99914 2.02319e-18)
(-0.00611379 10.0009 -1.90951e-18)
(-0.00275173 10.0016 -1.80241e-18)
(-0.000791496 10.0016 0)
(0.000147467 10.0011 8.00679e-19)
(0.0004191 10.0004 0)
(0.000156804 10 0)
(-0.215997 9.92235 0)
(-0.275255 9.90535 0)
(-0.346133 9.88923 0)
(-0.429858 9.87591 0)
(-0.527431 9.86799 0)
(-0.639402 9.86879 0)
(-0.765629 9.88245 0)
(-0.904965 9.91384 0)
(-1.05489 9.96842 0)
(-1.21112 10.0519 0)
(-1.3673 10.1697 0)
(-1.51485 10.3263 0)
(-1.64297 10.5242 0)
(-1.73981 10.7621 0)
(-1.7992 11.0271 0)
(-1.821 11.305 0)
(-1.81901 11.605 0)
(-1.78764 11.9235 0)
(-1.71134 12.2336 0)
(-1.59478 12.5265 0)
(-1.43754 12.7977 0)
(-1.26161 13.0387 0)
(-1.0948 13.2483 0)
(-0.939533 13.4318 0)
(-0.796954 13.5928 0)
(-0.66721 13.7324 0)
(-0.549841 13.8501 0)
(-0.444039 13.9427 0)
(-0.348948 14.0044 0)
(-0.263305 14.0262 0)
(-0.186294 13.9907 0)
(-0.117919 13.8332 0)
(-0.0571504 13.2293 0)
(-0.0152027 11.3383 0)
(-0.213786 9.91676 0)
(-0.163539 9.93432 0)
(-0.120338 9.94983 0)
(-0.087234 9.96321 5.33358e-18)
(-0.0617791 9.97436 -5.04737e-18)
(-0.0425411 9.98331 4.773e-18)
(-0.0282878 9.99017 0)
(-0.0179637 9.99515 -2.13089e-18)
(-0.0106921 9.99849 0)
(-0.00575761 10.0005 1.89919e-18)
(-0.00259208 10.0013 0)
(-0.000759934 10.0014 0)
(0.000112074 10.001 0)
(0.000367142 10.0004 7.74057e-19)
(0.000135588 10 3.72846e-19)
(-0.271882 9.89747 0)
(-0.341958 9.87826 0)
(-0.424862 9.86082 0)
(-0.521713 9.84744 0)
(-0.633324 9.84117 0)
(-0.759932 9.8458 0)
(-0.90092 9.86592 0)
(-1.05449 9.90678 0)
(-1.21729 9.97408 0)
(-1.38407 10.0735 0)
(-1.54747 10.2103 0)
(-1.69784 10.3881 0)
(-1.82358 10.6085 0)
(-1.91244 10.8686 0)
(-1.95912 11.1533 0)
(-1.98198 11.4638 0)
(-1.97448 11.7966 0)
(-1.91817 12.1246 0)
(-1.81739 12.4377 0)
(-1.67811 12.7282 0)
(-1.50047 12.9932 0)
(-1.30782 13.2255 0)
(-1.12835 13.4254 0)
(-0.963562 13.5989 0)
(-0.813916 13.7499 0)
(-0.679004 13.88 0)
(-0.557866 13.9887 0)
(-0.449347 14.073 0)
(-0.35232 14.1273 0)
(-0.26539 14.1426 0)
(-0.187453 14.1009 0)
(-0.11862 13.9356 0)
(-0.0574071 13.3164 0)
(-0.0153671 11.401 0)
(-0.269163 9.89048 0)
(-0.208811 9.91106 0)
(-0.155979 9.92976 5.94881e-18)
(-0.115068 9.94635 5.63261e-18)
(-0.0831885 9.96057 5.32818e-18)
(-0.0587421 9.97237 -5.03706e-18)
(-0.0403282 9.98181 0)
(-0.0267287 9.98906 0)
(-0.0169137 9.99433 0)
(-0.0100303 9.99789 4.00421e-18)
(-0.00538446 10 1.88848e-18)
(-0.00241871 10.001 1.77904e-18)
(-0.000719371 10.0012 0)
(8.31798e-05 10.0009 -8.16122e-19)
(0.000320437 10.0004 -3.93807e-19)
(0.000116995 10 0)
(-0.337852 9.86851 0)
(-0.419882 9.84738 0)
(-0.515898 9.82913 0)
(-0.626857 9.81649 0)
(-0.753322 9.81294 0)
(-0.895132 9.82277 0)
(-1.0511 9.85098 0)
(-1.21867 9.90312 0)
(-1.39362 9.985 0)
(-1.5697 10.1022 0)
(-1.73849 10.2594 0)
(-1.88945 10.4594 0)
(-2.01028 10.7029 0)
(-2.08845 10.9847 0)
(-2.13885 11.3041 0)
(-2.15814 11.6501 0)
(-2.12465 11.9958 0)
(-2.04206 12.3295 0)
(-1.91634 12.6421 0)
(-1.75462 12.9276 0)
(-1.55738 13.1841 0)
(-1.34904 13.4061 0)
(-1.15792 13.5954 0)
(-0.984519 13.7583 0)
(-0.828549 13.899 0)
(-0.68906 14.0195 0)
(-0.564633 14.1193 0)
(-0.453767 14.1955 0)
(-0.355084 14.2426 0)
(-0.267071 14.2515 0)
(-0.188358 14.2037 0)
(-0.11916 14.0311 0)
(-0.0575948 13.3975 0)
(-0.0154923 11.4595 0)
(-0.334579 9.85986 0)
(-0.262852 9.8834 0)
(-0.198972 9.90542 -1.25152e-17)
(-0.149023 9.92544 1.78213e-20)