# y+ ()       
# Time        	patch         	min           	max           	average       
0.76          	splitter	3.349315e+01	5.748226e+01	3.764423e+01
0.76          	back	1.036484e+01	1.417686e+01	1.182696e+01
0.76          	sides	9.704746e+00	2.836743e+01	2.218385e+01
