# y+ ()       
# Time        	patch         	min           	max           	average       
0.5           	splitter	3.348633e+01	5.746876e+01	3.763364e+01
0.5           	back	7.867583e+00	1.216496e+01	1.064960e+01
0.5           	sides	9.704538e+00	2.832299e+01	2.223491e+01
