# y+ ()       
# Time        	patch         	min           	max           	average       
0.1           	splitter	3.348074e+01	5.742190e+01	3.760083e+01
0.1           	back	7.339209e+00	1.166856e+01	1.027566e+01
0.1           	sides	9.704625e+00	2.838342e+01	2.245707e+01
