# y+ ()       
# Time        	patch         	min           	max           	average       
0.3           	splitter	3.347919e+01	5.742199e+01	3.759914e+01
0.3           	back	6.195641e+00	1.164318e+01	9.510376e+00
0.3           	sides	9.704625e+00	2.845393e+01	2.247899e+01
