# y+ ()       
# Time        	patch         	min           	max           	average       
0.86          	splitter	3.350065e+01	5.748158e+01	3.764450e+01
0.86          	back	1.037106e+01	1.411599e+01	1.180777e+01
0.86          	sides	9.704780e+00	2.831445e+01	2.218340e+01
