/*--------------------------------*- C++ -*----------------------------------*\
  =========                 |
  \\      /  F ield         | OpenFOAM: The Open Source CFD Toolbox
   \\    /   O peration     | Website:  https://openfoam.org
    \\  /    A nd           | Version:  8
     \\/     M anipulation  |
\*---------------------------------------------------------------------------*/
FoamFile
{
    version     2.0;
    format      ascii;
    class       volScalarField;
    location    "0.03";
    object      k;
}
// * * * * * * * * * * * * * * * * * * * * * * * * * * * * * * * * * * * * * //

dimensions      [0 2 -2 0 0 0 0];

internalField   nonuniform List<scalar> 
15677
(
0.333995
0.364685
0.294341
0.368616
0.357023
0.280632
0.370644
0.359744
0.365646
0.282424
0.371861
0.361479
0.361174
0.383039
0.288688
0.372601
0.363662
0.357583
0.368117
0.401557
0.300166
0.373037
0.365618
0.357759
0.358025
0.379998
0.419297
0.311765
0.373267
0.367156
0.359405
0.354515
0.360958
0.393228
0.434767
0.322507
0.373355
0.368287
0.361316
0.354727
0.353025
0.366859
0.406181
0.447815
0.332031
0.373357
0.369069
0.363034
0.356309
0.351112
0.353477
0.373583
0.418206
0.458694
0.340348
0.373322
0.369558
0.364417
0.358197
0.351935
0.34878
0.354811
0.380629
0.429051
0.467767
0.347535
0.373282
0.369817
0.365441
0.359944
0.35373
0.348387
0.347179
0.357053
0.387596
0.4387
0.475372
0.353814
0.373255
0.36992
0.36613
0.361383
0.355682
0.349778
0.345384
0.346267
0.359634
0.394324
0.447222
0.481827
0.359022
0.373244
0.369934
0.366531
0.362468
0.357446
0.351743
0.34623
0.342876
0.345806
0.362506
0.400665
0.454736
0.48717
0.363698
0.373243
0.369916
0.366721
0.363201
0.35888
0.353708
0.34809
0.343047
0.340774
0.345817
0.365437
0.40659
0.461164
0.491715
0.367763
0.373244
0.3699
0.36678
0.363627
0.359939
0.35542
0.350172
0.344707
0.340199
0.339096
0.345983
0.368414
0.411894
0.466736
0.495563
0.371423
0.373245
0.369892
0.366782
0.363825
0.36063
0.356769
0.352101
0.346839
0.341605
0.337713
0.337686
0.346395
0.371238
0.416645
0.471499
0.498965
0.374236
0.373246
0.369889
0.366774
0.363881
0.361011
0.357722
0.353701
0.348938
0.343739
0.338813
0.335522
0.336553
0.346934
0.373858
0.42083
0.475631
0.501527
0.376834
0.373246
0.369888
0.366768
0.363888
0.36116
0.358307
0.3549
0.350759
0.345969
0.340908
0.336314
0.33361
0.335603
0.347471
0.376261
0.424504
0.478721
0.503762
0.379105
0.373246
0.369887
0.366764
0.363882
0.361203
0.358573
0.355694
0.352185
0.34798
0.343238
0.338354
0.33408
0.331904
0.334767
0.348028
0.378405
0.427258
0.481194
0.505743
0.381413
0.373246
0.369886
0.366761
0.363875
0.361208
0.358674
0.356096
0.353183
0.349615
0.345417
0.340764
0.336047
0.332057
0.330367
0.334071
0.348523
0.379945
0.429343
0.483277
0.507692
0.383143
0.373245
0.369885
0.366759
0.363869
0.361201
0.358704
0.356273
0.353728
0.350807
0.347246
0.343089
0.338516
0.333956
0.330237
0.329027
0.333445
0.348682
0.381011
0.431085
0.485078
0.509162
0.384994
0.373245
0.369884
0.366758
0.363865
0.361193
0.358706
0.35634
0.353989
0.351496
0.34863
0.34509
0.340965
0.336491
0.332095
0.328639
0.327828
0.332689
0.348661
0.38189
0.432466
0.486261
0.510683
0.386365
0.373245
0.369884
0.366756
0.363862
0.361185
0.358698
0.356358
0.354101
0.351849
0.34947
0.346641
0.343117
0.33908
0.334718
0.330463
0.327214
0.32662
0.331898
0.348605
0.382542
0.433253
0.487254
0.511899
0.388127
0.373245
0.369883
0.366755
0.363859
0.361179
0.358689
0.356357
0.354139
0.352017
0.349927
0.347603
0.344826
0.341412
0.337456
0.333163
0.329018
0.325867
0.325516
0.331266
0.3485
0.382799
0.433785
0.487866
0.513379
0.389355
0.373245
0.369883
0.366755
0.363857
0.361174
0.358681
0.356349
0.354144
0.352085
0.350161
0.348133
0.345927
0.343314
0.339946
0.336032
0.331829
0.327743
0.324744
0.324679
0.330732
0.34828
0.382823
0.433946
0.488476
0.514551
0.391069
0.373245
0.369883
0.366754
0.363856
0.36117
0.358674
0.356339
0.354135
0.352105
0.350266
0.348406
0.34657
0.344567
0.341985
0.338697
0.334898
0.330742
0.32676
0.3239
0.324025
0.330295
0.348047
0.382756
0.43393
0.488811
0.516074
0.392308
0.373245
0.369883
0.366754
0.363855
0.361167
0.358668
0.35633
0.354121
0.352103
0.350304
0.348526
0.34693
0.3453
0.343353
0.340962
0.337778
0.333998
0.329944
0.326069
0.323388
0.323736
0.330097
0.347879
0.382574
0.433829
0.489232
0.517357
0.393853
0.373245
0.369883
0.366753
0.363854
0.361165
0.358663
0.356322
0.354108
0.352092
0.350307
0.348564
0.347113
0.345704
0.344197
0.342512
0.34017
0.337086
0.333562
0.329706
0.326015
0.323424
0.323815
0.330151
0.347797
0.382303
0.433638
0.489485
0.518954
0.395056
0.373245
0.369883
0.366753
0.363853
0.361163
0.35866
0.356315
0.354096
0.352079
0.350295
0.348563
0.347193
0.3459
0.3447
0.343437
0.341847
0.33989
0.337112
0.333691
0.329916
0.326274
0.323719
0.32413
0.330379
0.347841
0.382094
0.433351
0.489859
0.520366
0.482245
0.373245
0.369883
0.366753
0.363853
0.361162
0.358656
0.35631
0.354087
0.352066
0.350278
0.348544
0.347216
0.345975
0.344974
0.343968
0.342982
0.341885
0.340098
0.337463
0.334204
0.330551
0.326974
0.324427
0.324816
0.330889
0.348023
0.381857
0.433144
0.490275
0.526385
0.596711
0.373245
0.369883
0.366752
0.363852
0.361161
0.358653
0.356305
0.354079
0.352055
0.350262
0.34852
0.347211
0.345987
0.345102
0.344244
0.343697
0.343118
0.342248
0.340745
0.338343
0.335315
0.331845
0.328343
0.325775
0.326004
0.33184
0.348406
0.3818
0.432931
0.49066
0.534622
0.749906
0.373245
0.369883
0.366752
0.363852
0.36116
0.358651
0.356301
0.354073
0.352045
0.350247
0.348498
0.347193
0.345966
0.345144
0.344365
0.344111
0.343898
0.343639
0.34314
0.342073
0.340044
0.337289
0.333933
0.330429
0.327715
0.327693
0.333145
0.349108
0.381861
0.43289
0.490507
0.544942
0.884913
0.373245
0.369883
0.366752
0.363851
0.361159
0.358649
0.356297
0.354068
0.352037
0.350234
0.348479
0.347172
0.345932
0.345139
0.3444
0.344324
0.344359
0.344533
0.344756
0.344868
0.344318
0.342647
0.340108
0.336831
0.333231
0.330299
0.329875
0.33489
0.350077
0.382053
0.432755
0.489735
0.554483
1.00185
0.373245
0.369883
0.366752
0.363851
0.361158
0.358647
0.356294
0.354065
0.352029
0.350223
0.348463
0.347151
0.345897
0.345112
0.344392
0.344411
0.344606
0.345079
0.345839
0.346797
0.347548
0.347535
0.346219
0.343873
0.340587
0.336822
0.333523
0.332597
0.33702
0.35135
0.382484
0.432318
0.488011
0.562925
1.1049
0.369883
0.373248
0.366752
0.363851
0.361157
0.358646
0.356292
0.354062
0.352023
0.350213
0.34845
0.347132
0.345866
0.345079
0.34436
0.34442
0.344721
0.345391
0.346532
0.348107
0.34982
0.351295
0.351848
0.350876
0.348645
0.34528
0.341201
0.337437
0.335831
0.339644
0.353129
0.383223
0.431424
0.48597
0.57011
1.19529
0.366752
0.369893
0.373255
0.36385
0.361156
0.358644
0.356289
0.354059
0.352018
0.350204
0.34844
0.347115
0.345838
0.345047
0.344321
0.344396
0.344758
0.345554
0.346957
0.348981
0.351419
0.353996
0.356254
0.357391
0.356698
0.354515
0.350921
0.346424
0.342009
0.339607
0.342911
0.355594
0.38417
0.430407
0.48371
0.576397
1.27436
0.36385
0.366769
0.369914
0.373263
0.361156
0.358643
0.356287
0.354058
0.352014
0.350196
0.348432
0.347099
0.345815
0.345017
0.344283
0.34436
0.344752
0.345631
0.347208
0.349555
0.352535
0.355965
0.359494
0.362584
0.364269
0.363791
0.361505
0.357572
0.352455
0.347269
0.344394
0.347069
0.35848
0.3853
0.429307
0.481269
0.581752
1.34355
0.361155
0.363872
0.366803
0.369936
0.373271
0.358642
0.356286
0.354056
0.35201
0.350189
0.348426
0.347085
0.345794
0.344991
0.344248
0.344323
0.344728
0.345658
0.347355
0.349934
0.35332
0.357404
0.361937
0.366494
0.370412
0.372605
0.372191
0.369687
0.365196
0.35933
0.35383
0.350462
0.351723
0.361741
0.386575
0.428144
0.478843
0.586548
1.40454
0.358641
0.361182
0.363916
0.366838
0.369959
0.373278
0.356284
0.354055
0.352007
0.350182
0.348422
0.347071
0.345777
0.344968
0.344216
0.344289
0.3447
0.34566
0.347439
0.350194
0.353889
0.358482
0.363806
0.369541
0.375149
0.379886
0.382453
0.381987
0.379026
0.373835
0.367846
0.362038
0.357208
0.356815
0.365291
0.387942
0.426987
0.476554
0.590961
1.45848
0.356283
0.358672
0.361236
0.363962
0.366873
0.369982
0.373286
0.354054
0.352005
0.350176
0.348419
0.347058
0.345763
0.344947
0.344189
0.344259
0.344674
0.345654
0.347491
0.350378
0.354328
0.359329
0.365289
0.371977
0.378961
0.385635
0.391082
0.39392
0.393142
0.389573
0.384494
0.378428
0.371087
0.364528
0.362281
0.369092
0.389438
0.425947
0.474432
0.59451
1.50659
0.354054
0.356318
0.358736
0.361292
0.364009
0.36691
0.370005
0.373295
0.352003
0.350171
0.348417
0.347046
0.345752
0.344928
0.344164
0.344232
0.344649
0.345646
0.347526
0.350518
0.354678
0.360037
0.366532
0.374014
0.382141
0.390415
0.398059
0.404134
0.406973
0.40572
0.402557
0.397688
0.39003
0.380846
0.372321
0.368031
0.373063
0.391096
0.425034
0.472464
0.597304
1.54949
0.352001
0.354094
0.356391
0.358801
0.361349
0.364057
0.366948
0.370029
0.373303
0.350166
0.348415
0.347035
0.345742
0.34491
0.344143
0.344209
0.344628
0.345638
0.347555
0.350632
0.354967
0.360644
0.367637
0.375813
0.384924
0.39456
0.40405
0.4126
0.419029
0.421707
0.421185
0.418592
0.412111
0.402494
0.391183
0.380485
0.374021
0.377075
0.392881
0.424288
0.470666
0.599654
1.58808
0.350162
0.352043
0.354177
0.356466
0.358869
0.361408
0.364107
0.366986
0.370054
0.373312
0.348414
0.347024
0.345735
0.344894
0.344125
0.344189
0.34461
0.345631
0.34758
0.350732
0.355218
0.36117
0.368632
0.377489
0.387492
0.398336
0.40943
0.420097
0.429278
0.435907
0.439835
0.440279
0.436082
0.427558
0.41565
0.401967
0.388924
0.380202
0.381124
0.394753
0.423666
0.46898
0.601608
1.62269
0.348414
0.350203
0.35213
0.354262
0.356544
0.358938
0.361469
0.364158
0.367026
0.37008
0.373321
0.347014
0.345728
0.344878
0.34411
0.344172
0.344595
0.345626
0.347602
0.350822
0.355441
0.361637
0.369521
0.379055
0.389975
0.401952
0.414509
0.427049
0.438606
0.448283
0.456783
0.462305
0.461115
0.454788
0.44382
0.429331
0.413069
0.397546
0.386496
0.385192
0.396697
0.423188
0.467406
0.603381
1.65405
0.347005
0.348459
0.35029
0.352219
0.35435
0.356623
0.359009
0.361531
0.364211
0.367067
0.370106
0.37333
0.345723
0.344863
0.344098
0.344158
0.344581
0.345622
0.347623
0.350903
0.355642
0.362059
0.370327
0.380486
0.39236
0.405559
0.419529
0.433826
0.447521
0.459853
0.471915
0.482819
0.486947
0.483439
0.474469
0.460692
0.443368
0.424361
0.406263
0.392832
0.389255
0.398669
0.42288
0.465949
0.604947
1.68228
0.345719
0.347039
0.348554
0.35038
0.352312
0.35444
0.356704
0.359082
0.361595
0.364265
0.367109
0.370133
0.373339
0.344848
0.344087
0.344146
0.34457
0.345619
0.347642
0.350977
0.355825
0.362443
0.371064
0.381802
0.394583
0.409109
0.42467
0.440717
0.456463
0.471233
0.486464
0.501627
0.511557
0.513494
0.507002
0.494894
0.477972
0.457599
0.435725
0.41499
0.399153
0.393287
0.400683
0.422645
0.464601
0.606464
1.70805
0.344835
0.345755
0.347117
0.348651
0.350474
0.352408
0.354533
0.356788
0.359157
0.361661
0.36432
0.367152
0.37016
0.373348
0.344079
0.344135
0.34456
0.345615
0.34766
0.351044
0.355991
0.362793
0.371739
0.383016
0.396655
0.412476
0.429834
0.447942
0.465793
0.482964
0.501194
0.52027
0.534717
0.542737
0.541654
0.531543
0.515828
0.495465
0.471875
0.447052
0.423651
0.405407
0.397263
0.402676
0.422529
0.463388
0.607854
1.7313
0.344074
0.344853
0.345833
0.347197
0.348752
0.35057
0.352507
0.354628
0.356874
0.359234
0.361728
0.364377
0.367196
0.370188
0.373357
0.344126
0.34455
0.345612
0.347675
0.351106
0.356143
0.363113
0.372357
0.384135
0.398586
0.415651
0.434802
0.455347
0.475792
0.495506
0.516798
0.539744
0.558363
0.570983
0.576082
0.571133
0.556789
0.537056
0.512996
0.486064
0.458248
0.432183
0.411553
0.401168
0.404683
0.422546
0.462282
0.609251
1.75265
0.344119
0.34409
0.344904
0.345913
0.347283
0.348856
0.350669
0.35261
0.354726
0.356962
0.359313
0.361798
0.364436
0.36724
0.370214
0.373366
0.344539
0.345609
0.34769
0.351163
0.356281
0.363404
0.372922
0.385166
0.400383
0.418636
0.439544
0.4626
0.486234
0.509232
0.533894
0.561007
0.583824
0.600666
0.610209
0.611313
0.601631
0.582466
0.558369
0.530412
0.500053
0.469232
0.44053
0.417555
0.404973
0.406621
0.422611
0.461298
0.610545
1.77195
0.344532
0.344105
0.344127
0.344954
0.345997
0.347373
0.348964
0.350772
0.352716
0.354826
0.357053
0.359395
0.361869
0.364494
0.367282
0.37024
0.373375
0.345604
0.347703
0.351215
0.356407
0.363669
0.373438
0.386114
0.402048
0.421431
0.444056
0.469624
0.496595
0.523839
0.553055
0.584995
0.612479
0.633631
0.647148
0.652205
0.648149
0.632858
0.608329
0.579577
0.547574
0.513746
0.479937
0.448646
0.423384
0.408688
0.408488
0.422745
0.460407
0.611868
1.78977
0.345606
0.344491
0.344069
0.344169
0.345009
0.346086
0.347468
0.349075
0.350879
0.352825
0.354929
0.357146
0.359477
0.361939
0.36455
0.367323
0.370264
0.373383
0.347714
0.351263
0.356522
0.363911
0.373908
0.386982
0.403586
0.424039
0.448329
0.476378
0.506728
0.538624
0.573966
0.61266
0.645804
0.671978
0.68959
0.697916
0.696838
0.686344
0.664558
0.63416
0.60052
0.564376
0.527065
0.490311
0.456498
0.429018
0.412295
0.410288
0.422947
0.459627
0.613093
1.80588
0.347733
0.345529
0.344404
0.344023
0.344221
0.345068
0.346179
0.347568
0.349189
0.35099
0.352938
0.355034
0.357241
0.35956
0.362008
0.364605
0.367363
0.370289
0.373391
0.351305
0.356626
0.364131
0.374336
0.387777
0.405003
0.426464
0.452356
0.482821
0.516576
0.55342
0.595615
0.643665
0.685542
0.718374
0.741067
0.752603
0.753284
0.744063
0.725703
0.69651
0.659778
0.621059
0.580725
0.539952
0.500315
0.464057
0.434443
0.415779
0.412023
0.42319
0.458919
0.614352
1.82085
0.351356
0.347598
0.34535
0.34431
0.343985
0.34428
0.345133
0.346276
0.347674
0.349307
0.351105
0.353054
0.355141
0.357335
0.35964
0.362075
0.364658
0.367402
0.370312
0.373399
0.356718
0.364329
0.374726
0.388504
0.406304
0.428712
0.456131
0.488931
0.526111
0.568138
0.617579
0.67655
0.73205
0.776707
0.8068
0.822378
0.823979
0.813701
0.793891
0.76607
0.728532
0.68503
0.641082
0.596552
0.552361
0.509919
0.471306
0.439647
0.41913
0.413691
0.423463
0.458311
0.615519
1.83266
0.356819
0.351141
0.347257
0.345161
0.34423
0.343956
0.344345
0.345204
0.346376
0.347786
0.349427
0.351224
0.353172
0.355248
0.357427
0.359718
0.36214
0.36471
0.36744
0.370335
0.373406
0.364506
0.375078
0.389166
0.407498
0.43079
0.459656
0.494701
0.535307
0.582637
0.639548
0.711039
0.784477
0.849818
0.894752
0.916526
0.918767
0.904938
0.879523
0.846294
0.807291
0.760465
0.709795
0.660508
0.611802
0.564262
0.519104
0.478233
0.444622
0.422341
0.415292
0.42376
0.457756
0.616548
1.84247
0.364688
0.356497
0.350573
0.346902
0.344992
0.344159
0.343936
0.344413
0.345282
0.34648
0.347903
0.349551
0.351347
0.35329
0.355351
0.357516
0.359794
0.362203
0.36476
0.367476
0.370357
0.373414
0.375396
0.389768
0.408591
0.432708
0.462938
0.500132
0.544136
0.59676
0.661355
0.747441
0.84357
0.937473
1.01041
1.04751
1.05136
1.03178
0.995923
0.950732
0.901108
0.849188
0.792165
0.733975
0.679273
0.626437
0.575634
0.52786
0.484832
0.449363
0.42541
0.416827
0.424072
0.457347
0.617388
1.85292
0.375709
0.36423
0.355606
0.349983
0.346576
0.344837
0.344098
0.343926
0.344484
0.345367
0.346589
0.348026
0.349678
0.35147
0.353404
0.355451
0.357603
0.359868
0.362265
0.364809
0.367512
0.370378
0.373421
0.390316
0.409589
0.434476
0.465986
0.505231
0.552564
0.610391
0.683035
0.786141
0.909642
1.03886
1.14996
1.22005
1.23663
1.21106
1.16064
1.0962
1.02679
0.957974
0.891535
0.823497
0.757491
0.697332
0.640434
0.586468
0.536184
0.491101
0.453871
0.428333
0.418294
0.424353
0.457009
0.618355
1.86413
0.390838
0.375077
0.362886
0.354686
0.349436
0.346273
0.344694
0.344047
0.343926
0.344557
0.345461
0.346702
0.348154
0.349804
0.35159
0.353514
0.355549
0.357687
0.35994
0.362325
0.364857
0.367546
0.370399
0.373425
0.410504
0.4361
0.468813
0.510008
0.560568
0.623482
0.704717
0.827172
0.981607
1.15076
1.30684
1.42192
1.47452
1.45728
1.3916
1.30249
1.204
1.10669
1.01635
0.934056
0.854328
0.780278
0.714657
0.653782
0.596761
0.544076
0.497042
0.458147
0.431112
0.419512
0.424609
0.456674
0.619411
1.8761
0.411353
0.389997
0.373106
0.361507
0.353825
0.348915
0.345987
0.344563
0.344006
0.34394
0.344632
0.345562
0.34682
0.348283
0.349927
0.351708
0.353622
0.355643
0.357769
0.36001
0.362383
0.364903
0.36758
0.370409
0.373425
0.437601
0.471428
0.514471
0.568138
0.63603
0.726492
0.870081
1.05736
1.26849
1.47313
1.64033
1.74334
1.76412
1.70145
1.58708
1.4534
1.31691
1.18911
1.07559
0.976445
0.884526
0.802284
0.73123
0.666477
0.606516
0.551543
0.502661
0.462194
0.433402
0.420553
0.424904
0.456314
0.620639
1.88896
0.438962
0.410265
0.38716
0.371096
0.360212
0.353002
0.348416
0.345722
0.344441
0.343972
0.343975
0.344707
0.34567
0.346939
0.348409
0.350047
0.351823
0.353726
0.355735
0.357849
0.360079
0.36244
0.364948
0.367596
0.370409
0.373425
0.473861
0.518635
0.575276
0.648057
0.748356
0.914093
1.13459
1.38761
1.64162
1.86445
2.02619
2.10223
2.07861
1.96095
1.79147
1.60927
1.43242
1.27264
1.13497
1.01838
0.913968
0.823471
0.747044
0.678523
0.615745
0.558595
0.507964
0.465514
0.435351
0.421702
0.425247
0.45597
0.621972
1.90268
0.476026
0.437573
0.406239
0.384291
0.369203
0.358969
0.352209
0.347935
0.345473
0.344328
0.343936
0.34403
0.344786
0.345782
0.347058
0.348533
0.350165
0.351935
0.353827
0.355825
0.357927
0.360145
0.362495
0.36497
0.367597
0.370409
0.373425
0.522534
0.582002
0.659594
0.770207
0.958352
1.21129
1.50479
1.80704
2.08607
2.31076
2.45218
2.488
2.40907
2.22868
1.9995
1.76648
1.54822
1.35596
1.19382
1.05955
0.942541
0.843805
0.762096
0.68993
0.624461
0.565242
0.512305
0.46833
0.437488
0.42297
0.425639
0.455592
0.62353
1.9174
0.525954
0.474287
0.431922
0.402205
0.381584
0.36738
0.357767
0.351445
0.347475
0.34524
0.344225
0.343896
0.344098
0.344867
0.345894
0.347176
0.348654
0.35028
0.352044
0.353926
0.355912
0.358002
0.36021
0.362522
0.364971
0.367597
0.370409
0.373425
0.588358
0.670682
0.791901
1.00209
1.28602
1.6178
1.96603
2.29972
2.58814
2.80041
2.90814
2.89177
2.7481
2.49884
2.20694
1.92208
1.66239
1.43792
1.25152
1.09969
0.970146
0.863263
0.776395
0.700715
0.632678
0.570681
0.515983
0.471411
0.439835
0.424371
0.4261
0.455251
0.625233
1.93306
0.593897
0.5238
0.466392
0.426314
0.398389
0.378968
0.365613
0.356605
0.350712
0.347039
0.345025
0.344133
0.343864
0.344174
0.344951
0.346004
0.347293
0.348771
0.350393
0.35215
0.354021
0.355996
0.358076
0.360241
0.362522
0.364971
0.367597
0.370409
0.373425
0.681366
0.813308
1.04469
1.35777
1.72534
2.11664
2.50211
2.85242
3.1368
3.32371
3.38534
3.30596
3.08951
2.7668
2.41052
2.07384
1.77347
1.51762
1.30757
1.13855
0.996698
0.881834
0.789954
0.710897
0.639405
0.575285
0.519999
0.474783
0.442413
0.425921
0.426622
0.45489
0.627242
1.94985
0.69074
0.591264
0.512743
0.458639
0.420995
0.394695
0.376428
0.363901
0.355486
0.35001
0.34663
0.344828
0.344052
0.343845
0.344251
0.345038
0.346114
0.347409
0.348886
0.350503
0.352253
0.354114
0.356078
0.358112
0.360241
0.362522
0.364971
0.367597
0.370409
0.373421
0.834286
1.08577
1.42596
1.82666
2.2579
2.6915
3.10001
3.45436
3.72261
3.872
3.87595
3.72387
3.42815
3.02895
2.6078
2.22015
1.88037
1.59436
1.36159
1.17594
1.02214
0.899512
0.802788
0.719239
0.645099
0.580309
0.524386
0.478476
0.445248
0.427641
0.427212
0.454602
0.62946
1.96763
0.687576
0.852813
0.575396
0.502056
0.45127
0.415838
0.391101
0.373962
0.362246
0.354409
0.349342
0.346248
0.34465
0.343987
0.343839
0.344329
0.345127
0.346222
0.347523
0.348997
0.350611
0.352353
0.354204
0.356119
0.358112
0.360241
0.362522
0.364971
0.367596
0.370399
0.373414
1.12497
1.49029
1.92148
2.38941
2.86713
3.32909
3.74875
4.09603
4.33683
4.43715
4.37264
4.13953
3.75973
3.2825
2.79706
2.35989
1.98237
1.66768
1.41328
1.21173
1.04641
0.9163
0.813325
0.726304
0.651311
0.585791
0.529181
0.482523
0.448367
0.429558
0.427885
0.454304
0.6321
1.98669
0.663496
0.850291
1.15882
0.560462
0.491883
0.444114
0.410814
0.387607
0.371574
0.360651
0.353379
0.348708
0.345895
0.344494
0.343939
0.343846
0.344405
0.34522
0.346329
0.347636
0.349106
0.350716
0.35245
0.354249
0.356118
0.358112
0.360241
0.362522
0.36497
0.36758
0.370378
0.373406
1.55057
2.00978
2.51116
3.02888
3.53904
4.01778
4.43832
4.76841
4.97104
5.01127
4.86851
4.54765
4.0807
3.52535
2.97712
2.4924
2.07905
1.73726
1.46245
1.24581
1.0695
0.930111
0.822261
0.734017
0.65809
0.591777
0.534422
0.486959
0.451803
0.431696
0.428653
0.45412
0.635053
2.00674
0.641378
0.812004
1.1577
1.60205
0.546355
0.481985
0.437137
0.405922
0.384217
0.369266
0.359118
0.352395
0.348115
0.345579
0.344361
0.343903
0.343869
0.344479
0.345315
0.346435
0.347747
0.349213
0.350819
0.352498
0.354249
0.356118
0.358112
0.360241
0.362522
0.364948
0.367546
0.370356
0.373399
2.0916
2.6235
3.17711
3.73005
4.26092
4.74669
5.15919
5.46283
5.61701
5.58667
5.35716
4.94362
4.38827
3.75603
3.14725
2.6173
2.17015
1.80296
1.50899
1.27813
1.08849
0.941841
0.832033
0.74244
0.66549
0.598313
0.540155
0.491825
0.455592
0.434085
0.429541
0.453959
0.638594
2.02821
0.62084
0.776366
1.09983
1.60312
2.16113
0.532674
0.47232
0.430341
0.401171
0.380938
0.367044
0.357651
0.351467
0.347574
0.345305
0.344248
0.343877
0.34391
0.344551
0.345412
0.346539
0.347856
0.349317
0.35087
0.352498
0.354249
0.356118
0.358112
0.360241
0.362495
0.364902
0.367511
0.370334
0.373391
2.72671
3.31257
3.90297
4.4788
5.02066
5.50542
5.90236
6.17092
6.26657
6.15592
5.8327
5.32356
4.68032
3.97361
3.30711
2.73444
2.25561
1.8647
1.55285
1.30462
1.10464
0.954695
0.842725
0.751644
0.673571
0.605454
0.546428
0.497167
0.459774
0.43676
0.43056
0.45398
0.64262
2.0506
0.60125
0.743133
1.04355
1.5266
2.16551
2.81379
0.519332
0.462898
0.423736
0.39657
0.377777
0.364913
0.356262
0.350618
0.347091
0.34507
0.34415
0.343846
0.343966
0.344623
0.345508
0.346641
0.347964
0.349368
0.35087
0.352498
0.354249
0.356118
0.358112
0.360209
0.362439
0.364856
0.367475
0.370311
0.373383
3.43588
4.05911
4.67295
5.26146
5.80662
6.28447
6.65953
6.88455
6.91169
6.71191
6.28991
5.68439
4.95543
4.17757
3.45657
2.84388
2.33551
1.92253
1.58861
1.32709
1.12233
0.968786
0.854433
0.761707
0.682402
0.61326
0.553295
0.503034
0.464396
0.439753
0.431762
0.454088
0.647463
2.07459
0.582399
0.711714
0.988926
1.45026
2.07238
2.82202
3.53868
0.506327
0.453739
0.41734
0.392131
0.374743
0.362893
0.354986
0.349856
0.346658
0.344865
0.344069
0.34382
0.344028
0.344695
0.345606
0.346745
0.348017
0.349366
0.350871
0.352498
0.354249
0.356119
0.358075
0.360144
0.362382
0.364808
0.367438
0.370288
0.373374
4.19963
4.84554
5.47162
6.06479
6.60849
7.07556
7.42298
7.59567
7.5444
7.24802
6.72442
6.02384
5.2127
4.36775
3.59577
2.94578
2.40995
1.96939
1.61881
1.35166
1.14173
0.984245
0.867261
0.772716
0.692055
0.621796
0.560815
0.509481
0.469506
0.443122
0.433142
0.454355
0.653087
2.09927
0.564223
0.681947
0.935646
1.37406
1.97848
2.71387
3.55008
4.31455
0.493684
0.444871
0.411168
0.387868
0.371863
0.361034
0.353839
0.349173
0.346276
0.344691
0.344001
0.343803
0.344095
0.344768
0.345707
0.346794
0.348015
0.349366
0.350871
0.352498
0.354249
0.356078
0.358001
0.360077
0.362323
0.364758
0.367401
0.370264
0.373366
4.99847
5.65455
6.28377
6.87729
7.41778
7.8717
8.18536
8.29616
8.15692
7.75836
7.13279
6.34043
5.45177
4.54429
3.72499
3.04041
2.47004
2.00884
1.65172
1.37853
1.16302
1.00121
0.881324
0.784767
0.702614
0.631134
0.569053
0.516567
0.475164
0.446892
0.434806
0.45487
0.659821
2.13025
0.546706
0.653806
0.883863
1.29759
1.88356
2.60445
3.42751
4.32681
5.11987
0.481435
0.436321
0.40524
0.383822
0.369212
0.35936
0.352808
0.348562
0.34594
0.344541
0.343946
0.343795
0.344164
0.344848
0.345755
0.346789
0.348016
0.349366
0.35087
0.352498
0.354204
0.355994
0.357925
0.360008
0.362263
0.364708
0.367362
0.370239
0.373357
5.81321
6.46862
7.09638
7.68985
8.22821
8.66671
8.9393
8.97771
8.74184
8.23796
7.51256
6.63338
5.67276
4.70758
3.8446
3.11654
2.52047
2.05166
1.68754
1.4079
1.18636
1.01984
0.89675
0.797967
0.714169
0.641353
0.57808
0.524359
0.481426
0.451163
0.436693
0.455713
0.669297
2.1659
0.529845
0.627289
0.833947
1.22088
1.78709
2.49329
3.30394
4.18926
5.1288
5.93349
0.469619
0.428119
0.399614
0.380098
0.366823
0.357854
0.351882
0.348017
0.345645
0.344412
0.343903
0.343797
0.344244
0.34488
0.34575
0.346789
0.348016
0.349366
0.35087
0.352449
0.354112
0.355909
0.357847
0.359938
0.362201
0.364656
0.367322
0.370213
0.373348
6.62373
7.27302
7.89918
8.49671
9.0349
9.45482
9.67704
9.63186
9.29246
8.68296
7.86227
6.90264
5.8761
4.85812
3.94052
3.18029
2.57504
2.09809
1.72653
1.43998
1.21195
1.04029
0.913678
0.81243
0.726817
0.652539
0.587973
0.532928
0.488373
0.455933
0.439035
0.457025
0.68266
2.20026
0.513646
0.602374
0.786355
1.14427
1.68879
2.37981
3.1785
4.05187
4.97417
5.93303
6.73538
0.458282
0.420346
0.394438
0.376742
0.364671
0.356498
0.351051
0.347532
0.345386
0.344301
0.343873
0.343823
0.344282
0.344866
0.345751
0.346789
0.348015
0.349368
0.350819
0.352351
0.354019
0.355822
0.357766
0.359866
0.362137
0.364603
0.367281
0.370187
0.373339
7.41356
8.05574
8.68676
9.29382
9.83408
10.2301
10.3899
10.2503
9.80301
9.09074
8.18149
7.14867
6.06246
4.97831
4.02067
3.24911
2.63403
2.14838
1.76889
1.47499
1.23999
1.06274
0.932257
0.828284
0.740666
0.664784
0.598817
0.542352
0.496058
0.461375
0.442141
0.459121
0.698433
2.23284
0.498125
0.578998
0.741536
1.06831
1.58863
2.26341
3.05068
3.91331
4.82209
5.75716
6.71882
7.50647
0.447546
0.413206
0.389777
0.37372
0.362733
0.355278
0.350307
0.3471
0.345158
0.34421
0.343871
0.343823
0.344273
0.344865
0.345751
0.346789
0.348017
0.349317
0.350714
0.35225
0.353923
0.355732
0.357684
0.359792
0.362073
0.364549
0.367239
0.37016
0.37333
8.16831
8.81183
9.45501
10.079
10.6233
10.9849
11.0691
10.825
10.2691
9.46012
8.47062
7.37236
6.2103
5.0784
4.10692
3.32329
2.69771
2.20279
1.81486
1.51315
1.27068
1.08738
0.952648
0.845664
0.755831
0.678191
0.610699
0.552713
0.504599
0.468559
0.446675
0.461214
0.715422
2.26346
0.483419
0.557051
0.699901
0.993763
1.48677
2.14371
2.91962
3.77322
4.67055
5.58793
6.51453
7.46479
8.23021
0.437703
0.406787
0.385583
0.370999
0.360989
0.354182
0.34964
0.346714
0.344963
0.344161
0.343858
0.343797
0.344276
0.344865
0.34575
0.346794
0.347963
0.349211
0.350608
0.352146
0.353824
0.35564
0.3576
0.359716
0.362006
0.364493
0.367196
0.370133
0.373321
8.88115
9.53028
10.1922
10.8414
11.3951
11.7122
11.704
11.3489
10.688
9.79117
8.73075
7.54823
6.3328
5.18568
4.19959
3.40311
2.76634
2.26155
1.86467
1.55467
1.30424
1.1144
0.975018
0.864714
0.772437
0.692863
0.62372
0.564107
0.515786
0.477906
0.451551
0.464082
0.734783
2.292
0.469918
0.536555
0.661744
0.921563
1.38364
2.02054
2.78455
3.63054
4.51946
5.42231
6.32365
7.22399
8.15022
8.90266
0.428878
0.40102
0.381811
0.368551
0.359421
0.353198
0.349039
0.346374
0.344835
0.34412
0.343827
0.343796
0.344276
0.344866
0.345755
0.346744
0.347854
0.349103
0.3505
0.35204
0.353722
0.355545
0.357513
0.359638
0.361938
0.364435
0.367152
0.370106
0.373312
9.54644
10.2144
10.9102
11.5859
12.1421
12.3991
12.2846
11.8169
11.059
10.0851
8.93283
7.69294
6.46331
5.30038
4.29894
3.48885
2.84018
2.32489
1.91852
1.59975
1.34086
1.14398
0.999538
0.885582
0.790607
0.708922
0.637978
0.578941
0.529803
0.487895
0.457399
0.467306
0.755669
2.31799
0.457802
0.51787
0.627406
0.852843
1.27989
1.89385
2.64484
3.48415
4.3676
5.26047
6.14137
7.0054
7.86505
8.75307
9.50743
0.420975
0.39584
0.378421
0.36635
0.35801
0.352309
0.348506
0.346124
0.34475
0.344079
0.343829
0.343796
0.344273
0.34488
0.345706
0.34664
0.347744
0.348994
0.350389
0.351931
0.353618
0.355448
0.357425
0.359559
0.361868
0.364377
0.367108
0.370079
0.373303
10.1596
10.8671
11.6172
12.3163
12.8585
13.0331
12.802
12.2261
11.3829
10.3098
9.09755
7.84584
6.60187
5.42267
4.40517
3.58072
2.91943
2.39301
1.97661
1.64858
1.38073
1.17631
1.02638
0.908417
0.810482
0.726472
0.656481
0.597239
0.544576
0.498823
0.463756
0.471518
0.779561
2.34169
0.446959
0.501104
0.597466
0.789283
1.1765
1.7638
2.49993
3.33293
4.21355
5.10101
5.96782
6.8025
7.61179
8.41843
9.26732
10.0329
0.413902
0.391192
0.375376
0.364372
0.356737
0.351518
0.348101
0.345966
0.344694
0.344084
0.343829
0.343796
0.344282
0.344847
0.345604
0.346536
0.347633
0.348881
0.350276
0.351819
0.353511
0.355348
0.357334
0.359477
0.361797
0.364319
0.367066
0.370054
0.373294
10.7184
11.4917
12.315
13.0363
13.536
13.6008
13.2494
12.5764
11.6255
10.4907
9.26964
8.00656
6.74835
5.55257
4.51842
3.6789
3.00427
2.46608
2.03909
1.70131
1.42401
1.21155
1.05569
0.933372
0.83217
0.749207
0.679149
0.616347
0.560202
0.510458
0.471146
0.476609
0.805775
2.362
0.437278
0.486031
0.571735
0.733334
1.0756
1.63075
2.34933
3.17573
4.05573
4.94225
5.80128
6.61518
7.38347
8.12407
8.87003
9.68441
10.4778
0.407575
0.387024
0.372643
0.362587
0.355601
0.350902
0.347854
0.345886
0.344702
0.344084
0.343827
0.343823
0.344244
0.344766
0.345506
0.346431
0.347519
0.348767
0.350161
0.351704
0.353401
0.355246
0.35724
0.359394
0.361727
0.364263
0.367025
0.370029
0.373286
11.2275
12.0989
13.007
13.733
14.1587
14.089
13.6239
12.8316
11.8175
10.6768
9.44807
8.17448
6.90241
5.68997
4.63871
3.78347
3.09482
2.54421
2.10607
1.75805
1.47082
1.24983
1.08762
0.96055
0.860216
0.776931
0.702673
0.636259
0.576584
0.523028
0.479351
0.482724
0.835476
2.37999
0.42865
0.472488
0.549378
0.685865
0.981442
1.49633
2.19274
3.01136
3.89242
4.78225
5.63979
6.44101
7.17949
7.86541
8.52682
9.20863
9.98968
10.8399
0.401916
0.383287
0.37018
0.360993
0.354702
0.350536
0.347748
0.345897
0.344702
0.344079
0.343858
0.343823
0.344163
0.344693
0.345408
0.346325
0.347404
0.348649
0.350044
0.351587
0.353288
0.355141
0.357145
0.359312
0.361659
0.364209
0.366985
0.370004
0.373278
11.6966
12.7029
13.6934
14.3902
14.7039
14.4895
13.8867
13.0287
12.0107
10.8661
9.63145
8.34862
7.06348
5.83459
4.76594
3.89443
3.19112
2.62745
2.1776
1.81885
1.52122
1.29126
1.12224
0.995598
0.894251
0.805535
0.726979
0.656911
0.593769
0.536408
0.48863
0.490408
0.868399
2.39368
0.420971
0.460355
0.529713
0.646058
0.897033
1.36537
2.03127
2.83867
3.72169
4.61875
5.48106
6.27766
6.99631
7.64166
8.23303
8.80772
9.4221
10.1682
11.1173
0.396855
0.379928
0.367981
0.359718
0.354176
0.350396
0.347763
0.345897
0.344693
0.34412
0.343872
0.343797
0.344093
0.34462
0.345312
0.346218
0.347289
0.348529
0.349924
0.351468
0.353172
0.355034
0.357051
0.359232
0.361593
0.364156
0.366946
0.369981
0.37327
12.1435