/*--------------------------------*- C++ -*----------------------------------*\
  =========                 |
  \\      /  F ield         | OpenFOAM: The Open Source CFD Toolbox
   \\    /   O peration     | Website:  https://openfoam.org
    \\  /    A nd           | Version:  8
     \\/     M anipulation  |
\*---------------------------------------------------------------------------*/
FoamFile
{
    version     2.0;
    format      ascii;
    class       volScalarField;
    location    "0.22";
    object      epsilon;
}
// * * * * * * * * * * * * * * * * * * * * * * * * * * * * * * * * * * * * * //

dimensions      [0 2 -3 0 0 0 0];

internalField   nonuniform List<scalar> 
15677
(
59.7289
18.3631
52.6875
8.08324
26.0253
50.2367
4.62214
13.3238
31.6579
50.5464
3.17403
7.74893
17.1286
37.343
51.6429
2.48694
5.05396
10.0484
20.8569
42.6966
53.6865
2.14422
3.6275
6.47273
12.1851
24.5805
47.6994
55.7433
1.9793
2.8227
4.52965
7.73568
14.2981
28.2861
52.0546
57.6764
1.91149
2.35331
3.40388
5.31579
8.92804
16.4446
31.7858
55.7333
59.3704
1.88406
2.08024
2.72409
3.91182
6.0282
10.1177
18.5553
34.9844
58.747
60.8687
1.8705
1.93935
2.30736
3.05666
4.36129
6.71394
11.2855
20.5888
37.8041
61.2181
62.1306
1.86764
1.87828
2.05649
2.52155
3.34973
4.78006
7.37058
12.4305
22.4815
40.2662
63.2049
63.2396
1.86863
1.84884
1.91655
2.1862
2.71334
3.61721
5.1699
8.00888
13.5197
24.2276
42.361
64.8247
64.1638
1.86955
1.83871
1.85192
1.98266
2.30727
2.88748
3.86092
5.54081
8.61439
14.5525
25.7923
44.1492
66.1227
64.9898
1.8698
1.83699
1.82113
1.86775
2.05156
2.41872
3.04451
4.08773
5.88759
9.19068
15.5046
27.193
45.6421
67.1763
65.7093
1.86979
1.83726
1.81052
1.81335
1.89825
2.11778
2.51963
3.18837
4.29632
6.21415
9.72503
16.3819
28.4148
46.8956
68.0334
66.3467
1.86975
1.83751
1.80823
1.78978
1.81543
1.93046
2.17926
2.61158
3.31901
4.48958
6.51494
10.2209
17.1677
29.4788
47.9373
68.7307
66.9293
1.86972
1.83761
1.80793
1.78275
1.77571
1.82154
1.96263
2.23588
2.69463
3.43822
4.66569
6.79202
10.6691
17.8703
30.3854
48.791
69.327
67.4264
1.86971
1.83762
1.80794
1.78103
1.76146
1.76614
1.83186
1.99349
2.28727
2.76968
3.54574
4.82583
7.04161
11.0733
18.4811
31.15
49.4965
69.8009
67.9278
1.8697
1.83761
1.80795
1.78069
1.75697
1.7439
1.76041
1.84331
2.02215
2.33368
2.8369
3.64225
4.96886
7.26524
11.4274
19.0081
31.7835
50.051
70.2453
68.3204
1.8697
1.8376
1.80794
1.78065
1.75569
1.73585
1.72949
1.75745
1.85479
2.0484
2.3752
2.89667
3.72774
5.09535
7.46079
11.7347
19.4487
32.2944
50.5119
70.5788
68.7848
1.8697
1.83759
1.80793
1.78063
1.75538
1.73313
1.71725
1.71797
1.75594
1.86601
2.07212
2.41202
2.94932
3.80244
5.20527
7.62902
11.9926
19.8111
32.7012
50.8504
70.9467
69.0971
1.86971
1.83758
1.80791
1.7806
1.7553
1.73228
1.71263
1.70121
1.70842
1.75587
1.87652
2.09329
2.4444
2.99501
3.86695
5.29854
7.77023
12.2046
20.0972
33.0087
51.1367
71.1965
69.5565
1.86971
1.83757
1.8079
1.78058
1.75526
1.73201
1.71101
1.69436
1.68715
1.7008
1.75619
1.88617
2.11206
2.47256
3.0344
3.9213
5.37663
7.88451
12.3717
20.3152
33.2346
51.3312
71.545
69.8102
1.86971
1.83757
1.8079
1.78055
1.75523
1.73191
1.71047
1.69172
1.6779
1.67514
1.69447
1.75696
1.89502
2.12863
2.49701
3.06774
3.96677
5.43894
7.97502
12.4968
20.4718
33.3906
51.4932
71.7494
70.2692
1.86971
1.83757
1.80789
1.78054
1.75521
1.73185
1.71028
1.69073
1.67411
1.66342
1.66466
1.68941
1.75828
1.90323
2.14333
2.5181
3.09593
4.00348
5.48878
8.04118
12.5864
20.5714
33.4794
51.6136
72.1459
70.5114
1.86971
1.83756
1.80789
1.78052
1.75519
1.7318
1.71018
1.69035
1.67262
1.65831
1.65051
1.65596
1.68549
1.76007
1.91098
2.15662
2.53661
3.11969
4.03341
5.52516
8.08895
12.6387
20.63
33.534
51.6913
72.4411
428.631
1.86971
1.83756
1.80788
1.78051
1.75517
1.73176
1.71012
1.69016
1.67204
1.65615
1.64413
1.63952
1.64853
1.68281
1.76258
1.91881
2.1691
2.55319
3.1399
4.05674
5.55234
8.1162
12.6691
20.639
33.5338
51.8128
88.7833
715.355
1.86971
1.83756
1.80788
1.7805
1.75515
1.73173
1.71007
1.69006
1.67178
1.65524
1.64137
1.63174
1.63001
1.64327
1.68188
1.76628
1.92709
2.18141
2.5687
3.15783
4.07598
5.57045
8.13349
12.6672
20.6281
33.5387
52.7396
122.114
994.035
1.86971
1.83756
1.80788
1.78049
1.75514
1.7317
1.71003
1.68998
1.67163
1.65481
1.64017
1.62817
1.62111
1.62282
1.63912
1.68279
1.77146
1.9366
2.19443
2.58439
3.17472
4.09226
5.5833
8.13415
12.6571
20.603
33.5677
55.3094
157.588
1239.74
1.86971
1.83755
1.80788
1.78049
1.75513
1.73168
1.70999
1.68992
1.67153
1.65458
1.63961
1.62654
1.61698
1.61258
1.6172
1.63884
1.68557
1.77883
1.94805
2.20918
2.60107
3.19182
4.10697
5.59151
8.13144
12.6358
20.5688
33.673
59.8897
190.053
1465.31
1.86971
1.83755
1.80788
1.78048
1.75513
1.73167
1.70997
1.68987
1.67144
1.65444
1.63931
1.62576
1.61506
1.60761
1.60629
1.6151
1.64044
1.69128
1.78914
1.9624
2.22642
2.62
3.21015
4.12197
5.59808
8.12537
12.6083
20.5292
33.9362
64.6156
220.807
1655.7
1.86971
1.83755
1.80788
1.78047
1.75512
1.73165
1.70994
1.68983
1.67137
1.65433
1.63911
1.62535
1.61412
1.60523
1.60097
1.60287
1.61631
1.64489
1.70089
1.80335
1.98047
2.24742
2.6421
3.23138
4.13855
5.60574
8.11754
12.5793
20.486
34.4115
69.4197
247.8
1799.53
1.86971
1.83755
1.80788
1.78047
1.75511
1.73164
1.70992
1.68979
1.67131
1.65424
1.63896
1.62509
1.6136
1.60404
1.59837
1.59679
1.60385
1.62032
1.65375
1.71518
1.8223
2.00347
2.27301
2.66882
3.25636
4.15868
5.6159
8.11193
12.5487
20.4454
34.979
73.779
268.723
1910.46
1.86971
1.83755
1.80788
1.78047
1.75511
1.73163
1.70991
1.68976
1.67126
1.65417
1.63883
1.62491
1.61327
1.60341
1.59706
1.5938
1.59765
1.60766
1.62865
1.66824
1.73503
1.84722
2.03223
2.30452
2.70082
3.28666
4.18335
5.63049
8.10832
12.5161
20.4146
35.5269
77.1554
285.261
1998.93
1.83755
1.86975
1.80788
1.78046
1.75511
1.73162
1.70989
1.68974
1.67122
1.6541
1.63872
1.62476
1.61302
1.60302
1.59633
1.5923
1.59462
1.6014
1.61581
1.64341
1.68895
1.76169
1.87893
2.06803
2.34257
2.73954
3.32291
4.21383
5.64971
8.10883
12.4809
20.3784
35.9468
79.7546
298.64
2072.27
1.80788
1.83765
1.86982
1.78046
1.75511
1.73161
1.70988
1.68971
1.67119
1.65405
1.63863
1.62464
1.61282
1.60275
1.59587
1.59152
1.59313
1.59841
1.60963
1.631
1.66497
1.71711
1.79608
1.91885
2.11161
2.38856
2.7853
3.36619
4.25031
5.6741
8.11208
12.4418
20.334
36.2369
81.7453
309.955
2135.33
1.78046
1.80804
1.83785
1.86989
1.7551
1.7316
1.70987
1.68969
1.67116
1.654
1.63856
1.62454
1.61265
1.60254
1.59553
1.59106
1.59238
1.59702
1.60686
1.62526
1.65345
1.6947
1.75389
1.83951
1.96752
2.16404
2.44257
2.83929
3.41654
4.29303
5.70726
8.12002
12.4064
20.2757
36.4254
83.3219
319.748
2191.21
1.7551
1.78066
1.80835
1.83805
1.86997
1.73159
1.70986
1.68968
1.67113
1.65396
1.6385
1.62445
1.61251
1.60236
1.59526
1.59074
1.59196
1.5964
1.60575
1.62299
1.64867
1.68477
1.73389
1.80083
1.89302
2.02646
2.22569
2.50616
2.90125
3.47414
4.34765
5.75115
8.13491
12.3727
20.2093
36.5253
84.5863
328.6
2241.93
1.73159
1.75535
1.78108
1.80868
1.83826
1.87004
1.70986
1.68966
1.67111
1.65392
1.63844
1.62437
1.61238
1.60222
1.59503
1.59051
1.59169
1.5961
1.60542
1.62246
1.64746
1.68176
1.72654
1.78441
1.85913
1.95825
2.09616
2.29768
2.57823
2.97156
3.54635
4.4167
5.80253
8.15504
12.3433
20.1337
36.5794
85.6591
336.641
2288.66
1.70985
1.73188
1.75587
1.78152
1.80902
1.83848
1.87012
1.68965
1.67109
1.65389
1.6384
1.6243
1.61228
1.60209
1.59484
1.59032
1.59149
1.59596
1.60541
1.62271
1.64788
1.68204
1.72573
1.78058
1.84789
1.93096
2.03611
2.17814
2.37992
2.65995
3.05888
3.636
4.49413
5.86042
8.18049
12.3166
20.0571
36.5785
86.574
344.22
2332.3
1.68964
1.71018
1.73248
1.7564
1.78196
1.80936
1.8387
1.8702
1.67108
1.65386
1.63836
1.62424
1.6122
1.60198
1.59467
1.59016
1.59134
1.59588
1.60553
1.62326
1.64914
1.68418
1.72845
1.78309
1.84814
1.9257
2.01729
2.12859
2.27247
2.47384
2.76035
3.16629
3.73499
4.57844
5.92376
8.20999
12.2949
19.9787
36.5669
87.4085
351.271
2373.14
1.67106
1.68999
1.71085
1.73309
1.75695
1.78242
1.80972
1.83893
1.87029
1.65383
1.63833
1.62418
1.61213
1.60188
1.59453
1.59003
1.59122
1.59584
1.6057
1.6239
1.65064
1.68714
1.73314
1.78949
1.85558
1.93215
2.019
2.11927
2.23615
2.381
2.59037
2.88558
3.28352
3.84103
4.66855
5.99111
8.24347
12.2766
19.904
36.5424
88.1542
358.046
2411.72
1.65381
1.67144
1.69073
1.71155
1.73373
1.75751
1.78289
1.81008
1.83917
1.87037
1.6383
1.62413
1.61207
1.60179
1.59441
1.58993
1.59113
1.59582
1.60589
1.62455
1.65217
1.69026
1.73865
1.79808
1.86718
1.94644
2.03399
2.13088
2.23711
2.35895
2.51755
2.73747
3.02393
3.40963
3.95242
4.76259
6.06154
8.27982
12.263
19.834
36.507
88.8675
364.403
2447.95
1.63827
1.65421
1.67224
1.69149
1.71226
1.73438
1.75809
1.78337
1.81045
1.83941
1.87046
1.62408
1.61202
1.60171
1.59432
1.58983
1.59105
1.59582
1.60608
1.62517
1.65366
1.6933
1.7442
1.8076
1.88133
1.96548
2.0575
2.15719
2.26186
2.374
2.51209
2.68837
2.90102
3.17372
3.54369
4.06883
4.85944
6.13398
8.31859
12.2526
19.7695
36.4734
89.5243
370.55
2482.33
1.62405
1.63868
1.65503
1.67305
1.69227
1.71299
1.73505
1.75868
1.78387
1.81083
1.83966
1.87055
1.61197
1.60163
1.59424
1.58975
1.59099
1.59582
1.60627
1.62576
1.65507
1.69618
1.74954
1.81702
1.89656
1.98776
2.08671
2.1933
2.30272
2.41542
2.5472
2.70637
2.87728
3.08037
3.33499
3.68432
4.18853
4.95789
6.20755
8.35885
12.2464
19.7109
36.44
90.1685
376.33
2514.52
1.61194
1.62444
1.63953
1.65589
1.67389
1.69307
1.71375
1.73574
1.75928
1.78438
1.81123
1.83991
1.87064
1.60155
1.59417
1.58968
1.59093
1.59583
1.60645
1.62632
1.65639
1.69887
1.75461
1.82606
1.91155
2.01157
2.12027
2.23671
2.35534
2.47541
2.61162
2.76984
2.92533
3.08296
3.26984
3.50467
3.82949
4.31045
5.05698
6.28133
8.40021
12.2423
19.6586
36.4131
90.7704
381.92
2545.12
1.60149
1.61232
1.62528
1.64041
1.65677
1.67475
1.6939
1.71452
1.73645
1.75991
1.7849
1.81163
1.84018
1.87073
1.59412
1.58961
1.59088
1.59584
1.60662
1.62682
1.65761
1.70135
1.75936
1.8346
1.92595
2.03515
2.15609
2.28637
2.41772
2.55032
2.69854
2.86749
3.02399
3.16812
3.3051
3.46818
3.68132
3.97863
4.43355
5.15571
6.35466
8.44191
12.2425
19.6125
36.3903
91.3657
387.169
2573.63
1.59409
1.6018
1.61313
1.62614
1.64132
1.65768
1.67564
1.69476
1.71532
1.73718
1.76055
1.78544
1.81204
1.84043
1.87082
1.58953
1.59083
1.59586
1.60678
1.62729
1.65874
1.70364
1.76379
1.84259
1.93965
2.05799
2.1917
2.3398
2.48933
2.63897
2.80548
2.99442
3.16427
3.31002
3.43354
3.54171
3.67348
3.86074
4.12995
4.55659
5.25338
6.42688
8.48367
12.2439
19.5718
36.3751
91.9258
392.237
2600.77
1.58947
1.59437
1.60247
1.61397
1.62704
1.64225
1.65862
1.67655
1.69564
1.71613
1.73793
1.76121
1.786
1.81245
1.84069
1.8709
1.59078
1.59586
1.60692
1.62773
1.65978
1.70574
1.76789
1.85001
1.9526
2.07984
2.22638
2.39367
2.56724
2.74175
2.93268
3.15053
3.34431
3.50442
3.6279
3.72025
3.7907
3.88462
4.04066
4.28156
4.67852
5.34912
6.49748
8.52501
12.2471
19.5364
36.3644
92.4792
396.985
2625.89
1.59076
1.5895
1.59496
1.60316
1.61484
1.62797
1.64321
1.65959
1.67749
1.69654
1.71698
1.7387
1.76188
1.78654
1.81285
1.84093
1.87098
1.59587
1.60705
1.62812
1.66072
1.70766
1.77167
1.85688
1.96478
2.10054
2.25984
2.44698
2.64667
2.8552
3.08239
3.33925
3.56828
3.75465
3.89065
3.97786
4.0269
4.04999
4.09986
4.2199
4.43172
4.79811
5.44245
6.56606
8.56558
12.2524
19.5057
36.3607
93.0019
401.558
2649.85
1.59591
1.59066
1.58957
1.59556
1.6039
1.61574
1.62895
1.6442
1.6606
1.67846
1.69748
1.71784
1.73949
1.76254
1.78707
1.81323
1.84117
1.87106
1.60717
1.62847
1.66158
1.70942
1.77515
1.86321
1.97617
2.12
2.29195
2.49916
2.72586
2.97294
3.25141
3.56723
3.84587
4.07301
4.23441
4.32736
4.36075
4.35228
4.31768
4.31729
4.39734
4.57965
4.91524
5.53302
6.63233
8.60516
12.259
19.4794
36.3622
93.5145
405.828
2671.88
1.60733
1.59558
1.59041
1.58961
1.5962
1.60471
1.61667
1.62997
1.64522
1.66163
1.67945
1.69844
1.71872
1.74027
1.76319
1.78759
1.81361
1.8414
1.87114
1.62878
1.66234
1.71102
1.77832
1.86904
1.98675
2.13819
2.32259
2.54964
2.80389
3.09309
3.43154
3.8329
4.19323
4.48286
4.68778
4.79806
4.82133
4.77819
4.69548
4.59204
4.53526
4.57184
4.7232
5.02931
5.62048
6.69606
8.64356
12.2667
19.4569
36.3665
94.0006
409.939
2692.96
1.62914
1.60667
1.59473
1.59011
1.58978
1.59685
1.60558
1.61763
1.63103
1.64627
1.6627
1.68047
1.69941
1.7196
1.74103
1.76382
1.78809
1.81397
1.84162
1.87122
1.66303
1.71247
1.78122
1.87439
1.99655
2.15513
2.35168
2.59798
2.88025
3.21484
3.61954
4.1247
4.61669
5.02372
5.30316
5.44888
5.46576
5.38116
5.23232
5.0558
4.87157
4.75236
4.74291
4.86143
5.13955
5.70451
6.75711
8.68061
12.2751
19.4379
36.3749
94.472
413.764
2709.82
1.66376
1.62791
1.60485
1.59377
1.58986
1.59013
1.59751
1.60651
1.61861
1.63214
1.64736
1.66381
1.68152
1.70039
1.72045
1.74177
1.76444
1.78858
1.81433
1.84184
1.87129
1.71378
1.78384
1.8793
2.0056
2.17089
2.37916
2.6439
2.95472
3.3371
3.81255
4.43895
5.10852
5.72808
6.16755
6.38267
6.40064
6.25911
6.01512
5.72485
5.43243
5.15489
4.9674
4.90989
4.99416
5.24544
5.78492
6.81537
8.71621
12.284
19.4219
36.3871
94.9216
416.952
2724.03
1.71511
1.66188
1.62445
1.60288
1.59291
1.58958
1.59065
1.59817
1.60751
1.61964
1.63328
1.64848
1.66493
1.68256
1.70133
1.72128
1.74248
1.76504
1.78905
1.81467
1.84205
1.87136
1.78625
1.88379
2.01392
2.18553
2.40499
2.68733
3.02715
3.45841
4.00794
4.77551
5.67355
6.59964
7.35653
7.75632
7.79851
7.58207
7.19461
6.72833
6.25611
5.82414
5.44063
5.17942
5.07208
5.12125
5.34669
5.86156
6.87081
8.75028
12.2934
19.4085
36.4021
95.2935
419.631
2739.35
1.78858
1.7124
1.6563
1.62078
1.60108
1.59215
1.58929
1.59129
1.59887
1.60857
1.6207
1.63446
1.64963
1.66605
1.68358
1.70225
1.72209
1.74318
1.76562
1.78951
1.81501
1.84225
1.87143
1.88795
2.02158
2.19911
2.42917
2.72831
3.09733
3.57727
4.20434
5.13574
6.31696
7.64555
8.87154
9.69087
9.89972
9.60481
9.0152
8.27863
7.52085
6.82429
6.22906
5.72744
5.38755
5.22894
5.2426
5.44314
5.93437
6.9234
8.7828
12.3029
19.3975
36.4163
95.6128
422.522
2756.05
1.89186
1.78485
1.70375
1.65043
1.61738
1.59945
1.59146
1.58906
1.59201
1.59961
1.60966
1.62181
1.63566
1.65078
1.66714
1.68457
1.70315
1.72288
1.74386
1.76618
1.78996
1.81533
1.84245
1.87147
2.02871
2.21171
2.45174
2.76695
3.165
3.69252
4.40179
5.52076
7.03782
8.86162
10.7046
12.1669
12.8743
12.6659
11.8247
10.7022
9.50641
8.38733
7.42538
6.64466
6.01388
5.59105
5.38012
5.3582
5.53471
6.00334
6.97316
8.81372
12.3126
19.3895
36.4304
95.9599
425.701
2774.13
2.03524
1.88685
1.77186
1.69476
1.64494
1.61424
1.59796
1.59084
1.58892
1.59279
1.60042
1.6108
1.62297
1.63686
1.65191
1.66819
1.68554
1.70402
1.72365
1.74452
1.76673
1.79039
1.81565
1.84255
1.87147
2.22354
2.47282
2.80338
3.22982
3.80352
4.60122
5.93007
7.82901
10.2307
12.8321
15.1575
16.681
17.0063
16.0868
14.4556
12.6289
10.8642
9.31806
8.05362
7.06786
6.29847
5.78928
5.52535
5.46807
5.62143
6.0685
7.02015
8.84306
12.3209
19.3835
36.446
96.3502
429.152
2793.93
2.23414
2.02866
1.86766
1.75851
1.68632
1.63977
1.61129
1.59656
1.59032
1.58887
1.59361
1.60131
1.61196
1.62415
1.63802
1.65302
1.66922
1.68648
1.70486
1.72439
1.74516
1.76726
1.79081
1.8158
1.84255
1.87147
2.49268
2.83778
3.2916
3.91022
4.80374
6.36114
8.67939
11.7286
15.2158
18.6195
21.2804
22.5756
22.1526
20.167
17.4761
14.7703
12.3323
10.3006
8.70214
7.49524
6.57976
5.9817
5.66447
5.57228
5.70336
6.12996
7.06443
8.86718
12.3283
19.3775
36.4671
96.7735
432.962
2815.37
2.51009
2.22555
2.00067
1.84819
1.74595
1.67832
1.63485
1.60851
1.59528
1.58989
1.58893
1.59445
1.60229
1.6131
1.62531
1.63916
1.6541
1.67022
1.6874
1.70569
1.72512
1.74578
1.76778
1.79102
1.8158
1.84255
1.87147
2.87047
3.35041
4.01319
5.01017
6.80976
9.57582
13.3283
17.8095
22.4872
26.6058
29.3267
29.9792
28.3467
24.8878
20.852
17.0951
13.8885
11.3213
9.36357
7.92334
6.85635
6.16783
5.79738
5.67093
5.78063
6.18776
7.10061
8.88764
12.3366
19.3723
36.4894
97.258
437.092
2838.86
2.89875
2.4992
2.18482
1.97265
1.82986
1.73398
1.67063
1.63014
1.6059
1.59411
1.58956
1.58912
1.5953
1.60332
1.61422
1.62646
1.64026
1.65516
1.6712
1.68829
1.70649
1.72583
1.74639
1.76804
1.79102
1.8158
1.84255
1.87147
3.40651
4.11339
5.22093
7.27052
10.5045
15.0024
20.5645
26.6821
32.5507
37.16
39.5149
38.9778
35.5865
30.2092
24.539
19.5686
15.5098
12.3665
10.0307
8.3488
7.12694
6.34727
5.92408
5.76419
5.85343
6.23507
7.13121
8.91005
12.346
19.367
36.5217
97.7779
441.679
2864.24
3.45457
2.88471
2.43991
2.14468
1.94626
1.81234
1.72243
1.66323
1.62564
1.60349
1.59306
1.58933
1.58954
1.59611
1.60438
1.6153
1.6276
1.64134
1.65619
1.67215
1.68916
1.70726
1.72651
1.74669
1.76804
1.79102
1.8158
1.84255
1.87147
4.21148
5.43403
7.73776
11.4517
16.7241
23.432
31.12
38.9827
45.9038
50.612
52.0076
49.6035
43.832
36.0718
28.4864
22.1554
17.1739
13.4235
10.6971
8.76855
7.39035
6.51973
6.04459
5.8522
5.9126
6.27512
7.16459
8.93462
12.3567
19.3635
36.5541
98.3845
446.66
2892.06
4.29702
3.43694
2.79718
2.38244
2.10691
1.92099
1.79541
1.71127
1.6561
1.62132
1.60128
1.5921
1.58907
1.59017
1.59689
1.60545
1.61637
1.62871
1.64239
1.6572
1.67307
1.69001
1.70802
1.72685
1.74669
1.76804
1.79102
1.8158
1.84255
1.87143
5.6462
8.20728
12.4054
18.4681
26.365
35.7167
45.759
55.34
63.0008
67.2234
66.8931
61.8272
53.0058
42.4001
32.6392
24.8205
18.8602
14.481
11.3566
9.17985
7.64562
6.68501
6.15899
5.92429
5.96247
6.31883
7.20103
8.96155
12.369
19.36
36.6032
99.0295
452.222
2922
4.27453
5.83255
3.3037
2.71425
2.3284
2.07067
1.8965
1.77899
1.70048
1.64925
1.6172
1.59924
1.59126
1.5888
1.5909
1.59768
1.60652
1.61742
1.62979
1.64342
1.65817
1.67397
1.69083
1.70839
1.72685
1.74669
1.76804
1.79102
1.8158
1.84245
1.87136
8.67423
13.3546
20.2123
29.3198
40.3926
52.7386
65.2326
76.3326
84.2172
87.163
84.1723
75.5567
62.9974
49.1072
36.9411
27.5307
20.5506
15.5292
12.0044
9.58048
7.89197
6.84296
6.25309
5.98537
6.01667
6.36655
7.24083
8.99114
12.383
19.3597
36.6501
99.7971
458.28
2954.81
4.05618
5.81573
9.0889
3.18178
2.63641
2.27652
2.03554
1.87275
1.7631
1.69009
1.6427
1.61332
1.5974
1.59055
1.58863
1.59167
1.59847
1.60757
1.61846
1.63085
1.64442
1.65913
1.67485
1.69124
1.70839
1.72685
1.74669
1.76804
1.79102
1.81565
1.84225
1.87129
14.2872
21.9369
32.2588
45.0756
59.7913
75.3528
90.2306
102.452
109.822
110.487
103.751
90.6404
73.6698
56.0989
41.3368
30.2561
22.2288
16.5596
12.6364
9.96863
8.12879
6.97366
6.33303
6.05213
6.07562
6.41865
7.28433
9.02363
12.3992
19.3608
36.724
100.606
465.073
2989.9
3.86433
5.42762
9.10334
15.1174
3.06838
2.56168
2.22624
2.00144
1.84974
1.74778
1.68013
1.63648
1.60976
1.5958
1.58997
1.58857
1.59245
1.5993
1.6086
1.61948
1.63188
1.6454
1.66006
1.67528
1.69124
1.70839
1.72686
1.74669
1.76804
1.79081
1.81533
1.84204
1.87122
23.6219
35.1501
49.7062
66.8046
85.497
104.336
121.348
134.078
139.957
137.126
125.442
106.876
84.8675
63.2797
45.7744
32.9695
23.8812
17.5655
13.2493
10.3429
8.32571
7.08513
6.42069
6.12514
6.13977
6.47551
7.33187
9.05941
12.4175
19.3645
36.7917
101.588
472.511
3028.28
3.68974
5.08975
8.39131
15.2055
25.1309
2.95987
2.48934
2.17748
1.96843
1.82754
1.73305
1.67061
1.63065
1.60658
1.59442
1.58954
1.58862
1.59323
1.60014
1.60961
1.62049
1.63289
1.64637
1.66052
1.67528
1.69124
1.70839
1.72686
1.74669
1.76778
1.79038
1.815
1.84183
1.87114
37.9613
54.2361
73.6902
95.4971
118.341
140.358
159.067
171.461
174.617
166.881
148.97
124.021
96.4271
70.5576
50.2063
35.6473
25.4967
18.5418
13.8406
10.6547
8.49417
7.20784
6.51688
6.20504
6.2096
6.53758
7.38386
9.09873
12.4393
19.3706
36.9023
102.615
480.864
3068.97
3.52552
4.78408
7.75733
13.9695
25.402
40.4845
2.85511
2.41929
2.13031
1.93658
1.80618
1.71895
1.66164
1.62536
1.60379
1.59326
1.58923
1.58879
1.59398
1.60101
1.61058
1.62149
1.63388
1.64685
1.66051
1.67528
1.69124
1.7084
1.72686
1.74639
1.76725
1.78994
1.81466
1.84161
1.87106
58.6172
80.381
105.23
132.004
159.029
183.978
203.753
214.701
213.635
199.422
173.99
141.811
108.186
77.8465
54.5903
38.2703
27.0664
19.4841
14.3337
10.9219
8.68018
7.34305
6.62253
6.29253
6.28566
6.60533
7.44071
9.14218
12.4633
19.385
37.0008
103.884
490.095
3113.34
3.3694
4.49927
7.17629
12.8342
23.47
41.0896
62.5449
2.75396
2.35169
2.08483
1.90595
1.78572
1.70562
1.65344
1.62066
1.60137
1.59228
1.58903
1.58912
1.5947
1.6019
1.61154
1.6225
1.63437
1.64684
1.66051
1.67528
1.69124
1.7084
1.72651
1.74577
1.76671
1.78949
1.81431
1.84139
1.87098
86.8105
114.61
145.163
177.02
208.15
235.663
255.651
263.736
256.678
234.3
200.105
159.977
119.991
85.0689
58.8912
40.8226
28.5832
20.2703
14.7561
11.2173
8.88576
7.49219
6.73868
6.38838
6.36856
6.67926
7.50291
9.1899
12.4926
19.3985
37.1643
105.212
500.422
3159.7
3.22085
4.23181
6.63167
11.7706
21.6575
38.257
63.6715
92.5485
2.65653
2.28668
2.04116
1.87663
1.76635
1.69339
1.64609
1.61647
1.5993
1.59146
1.58885
1.5896
1.59538
1.60281
1.61252
1.623
1.63434
1.64684
1.66052
1.67529
1.69125
1.70802
1.72582
1.74515
1.76616
1.78903
1.81396
1.84116
1.8709
123.553
157.718
194.128
231.114
266.233
295.806
314.87
318.315
303.241
270.974
226.895
178.256
131.701
92.1599
63.0799
43.2913
29.8496
20.9441
15.2233
11.5441
9.11318
7.65686
6.86648
6.49346
6.45896
6.75994
7.57092
9.24287
12.5245
19.4287
37.3096
106.868
512.01
3218.93
3.07972
3.98131
6.1187
10.7585
19.9214
35.5725
59.7203
94.3914
131.468
2.563
2.22446
1.99941
1.84888
1.74856
1.6824
1.63951
1.61272
1.59752
1.59077
1.58864
1.59017
1.59608
1.60378
1.61297
1.62297
1.63434
1.64684
1.66052
1.67529
1.69084
1.70726
1.72511
1.7445
1.76559
1.78856
1.81359
1.84092
1.87081
169.571
210.251
252.617
294.811
333.794
364.738
381.357
377.979
352.662
308.837
253.937
196.405
143.198
99.0653
67.1328
45.3539
30.9356
21.6894
15.7403
11.906
9.36498
7.83882
7.00722
6.60873
6.55757
6.84795
7.64535
9.30093
12.5642
19.4548
37.5484
108.616
527.159
3287.97
2.94575
3.74828
5.63777
9.79286
18.2346
32.9644
55.9716
89.0789
134.184
179.922
2.47364
2.16516
1.95997
1.82343
1.73257
1.67254
1.63362
1.60939
1.59601
1.59019
1.58849
1.59081
1.59688
1.60425
1.6129
1.62298
1.63435
1.64684
1.66053
1.67486
1.69
1.70647
1.72438
1.74384
1.76501
1.78807
1.81322
1.84068
1.87073
225.288
272.573
321.081
368.686
411.388
442.718
454.866
442.054
404.154
347.256
280.835
214.217
154.382
105.742
70.5185
47.1231
32.1374
22.5145
16.3129
12.307
9.64395
8.04005
7.16232
6.73522
6.6652
6.94394
7.72666
9.36569
12.6068
19.5083
37.7669
111.196
546.57
3354.99
2.81838
3.53388
5.19028
8.87966
16.5862
30.3952
52.3034
84.0764
127.215
183.571
238.162
2.38878
2.1093
1.92383
1.80055
1.7182
1.66368
1.62834
1.60647
1.59471
1.5897
1.58848
1.59162
1.5972
1.60419
1.6129
1.62298
1.63435
1.64686
1.66007
1.67397
1.68915
1.70567
1.72363
1.74316
1.76442
1.78757
1.81284
1.84043
1.87064
290.899
345
400.07
453.463
499.642
529.91
534.926
509.663
456.842
385.61
307.239
231.519
165.175
111.312
73.4216
49.0813
33.4683
23.4287
16.9475
12.7516
9.9532
8.26272
7.33336
6.8741
6.78273
7.04859
7.81566
9.43654
12.6606
19.5569
38.1751
114.267
567.67
3419.2
2.69739
3.33977
4.77773
8.02043
14.9769
27.8467
48.6609
79.18
120.757
174.55
242.639
306.14
2.30926
2.05827
1.89142
1.77999
1.70528
1.65574
1.62365
1.6039
1.59357
1.58939
1.58878
1.59199
1.59703
1.60421
1.6129
1.62298
1.63438
1.64638
1.65912
1.67306
1.68828
1.70484
1.72286
1.74246
1.76381
1.78706
1.81244
1.84017
1.87055
366.525
427.972
490.396
550.123
599.319
626.367
620.8
579.73
509.816
423.338
332.858
248.174
174.156
116.082
76.6328
51.2498
34.9433
24.442
17.6511
13.2448
10.2961
8.50921
7.52206
7.02662
6.91107
7.16266
7.91272
9.51588
12.7187
19.6585
38.6384
117.945
590.749
3479.16
2.58388
3.16185
4.40043
7.21795
13.4207
25.3174
45.012
74.3102
114.481
166.39
231.007
311.109
383.677
2.23704
2.01261
1.86237
1.76153
1.69368
1.64862
1.61946
1.60162
1.59269
1.58947
1.5888
1.59185
1.59701
1.60421
1.61292
1.62301
1.6339
1.6454
1.65817
1.67214
1.68738
1.704
1.72207
1.74175
1.76318
1.78653
1.81204
1.83991
1.87046
452.436
522.323
593.338
660.156
711.383
731.939
711.436
651.045
562.211
459.96
357.463
261.988
181.831
121.349
80.1855
53.6524
36.5787
25.5658
18.4315
13.7918
10.6764
8.78209
7.73026
7.19412
7.0513
7.2869
8.01901
9.60279
12.8051
19.7801
39.289
121.87
615.172
3534.83
2.48077
2.99876
4.0599
6.47725
11.9338
22.8185
41.3444
69.4121
108.274
158.575
220.804
296.057
388.5
470.716
2.1728
1.97177
1.83633
1.74496
1.68328
1.64223
1.61569
1.59974
1.59236
1.58936
1.58847
1.59187
1.59702
1.60421
1.613
1.62252
1.63289
1.64442
1.65718
1.67119
1.68647
1.70313
1.72127
1.74102
1.76254
1.78599
1.81163
1.83965
1.87037
549.359
629.382
711.035
785.781
836.924
846.119
805.481
722.368
613.257
495.094
377.803
273.762
190.283
127.163
84.1162
56.3146
38.3922
26.8125
19.2972
14.3985
11.098
9.08414
7.95995
7.37807
7.20441
7.42218
8.13472
9.71807
12.9148
19.9608
39.9689
126.42
642.117
3584.64
2.38922
2.85241
3.75752
5.80453
10.5329
20.3681
37.6613
64.4527
102.049
150.954
211.246
283.318
368.851
474.419
567.676
2.11566
1.93527
1.813
1.73009
1.67391
1.63646
1.61252
1.5987
1.592
1.58896
1.58847
1.59188
1.59705
1.60428
1.61255
1.62151
1.63188
1.64341
1.65618
1.67021
1.68553
1.70224
1.72044
1.74026
1.76188
1.78544
1.81122
1.8394
1.87029
658.358
751.649
847.035
929.999
976.885
967.928
901.376
792.509
662.311
524.065
395.088
286.682
199.581
133.578
88.4633
59.264
40.4033
28.1952
20.2572
15.0711
11.5651
9.41823
8.21321
7.5799
7.37175
7.56955
8.28506
9.86198
13.0463
20.1602
40.8227
131.521
670.289
3629.06
2.30821
2.72218
3.49886
5.20711
9.23908
17.9882
33.9769
59.4166
95.7403
143.395
202.135
271.722
352.876
448.425
568.957
675.905
2.06481
1.90265
1.79209
1.71671
1.66544
1.63153
1.61048
1.5979
1.59145
1.58897
1.58848
1.59187
1.59725
1.60381
1.61156
1.6205
1.63085
1.64239
1.65515
1.66922
1.68457
1.70133
1.7196
1.73949
1.76121
1.78489
1.81083
1.83916
1.8702
782.095
894.05
1006.8
1096.32
1131.77
1096
997.479
860.395
702.756
548.629
413.987
300.835
209.795
140.648
93.2674
62.5301
42.6328
29.7284
21.3213
15.8163
12.082
9.78736
8.49212
7.80133
7.55418
7.75853
8.47008
10.0167
13.1926
20.4146
41.7841
137.283
701.186
3666.18
2.23667
2.60571
3.28553
4.69755
8.07083
15.7026
30.3136
54.3008
89.3012
135.789
193.281
261.007
338.809
428.251
533.931
673.343
798.075
2.01952
1.87351
1.7733
1.70463
1.65814
1.62815
1.60908
1.59714
1.59148
1.58898
1.58851
1.59203
1.59694
1.60283
1.6106
1.61949
1.62979
1.64134
1.6541
1.66819
1.68358
1.7004
1.71873
1.7387
1.76054
1.78436
1.81044
1.83892
1.87012
926.216
1064.87
1197.7
1288.65
1301.97
1228.78
1092.08
916.603
737.011
575.397
434.594
316.301
220.994
148.426
98.5702
66.1433
45.1022
31.4271
22.4998
16.6407
12.6534
10.1945
8.79893
8.04355
7.79033
7.98651
8.66265
10.1824
13.3608
20.7128
42.907
143.979
733.739
3696.69
2.17349
2.50184
3.10482
4.27323
7.0576
13.5609
26.703
49.1137
82.6937
128.042
184.52
250.905
326.299
411.112
508.3
625.008
789.869
940.083
1.97918
1.84741
1.75636
1.69416
1.65294
1.62596
1.60801
1.59718
1.59149
1.589
1.58888
1.59167
1.59614
1.60193
1.60962
1.61847
1.62871
1.64027
1.65303
1.66715
1.68258
1.69944
1.71785
1.73793
1.7599
1.78385
1.81007
1.83869
1.87004
1100.08
1276.15
1429.78
1512.8
1488.58
1364.12
1171.29
964.264
774.258
604.454
456.983
333.149
233.237
156.966
104.413
70.1345
47.834
33.3069
23.803
17.5514
13.2834
10.6427
9.13523
8.35751
8.0787
8.22052
8.86323
10.3597
13.5534
21.0634
44.2428
151.339
769.794
3720.06
2.11766
2.40969
2.94869
3.92284
6.20625
11.647
23.2126
43.8785
75.8915
120.066
175.701
241.186
314.963
396.509
487.298
592.306
722.116
922.718
1112.3
1.94318
1.82397
1.74164
1.68651
1.64966
1.62457
1.60806
1.5972
1.59151
1.58944
1.58888
1.59086
1.59544
1.60105
1.60862
1.61745
1.62761
1.63917
1.65194
1.66607
1.68155
1.69846
1.71698
1.73717
1.75927
1.78335
1.80971
1.83846
1.86997
1319.82
1547.17
1721.84
1780.23
1692.36
1479.75
1238.72
1016.06
814.542
635.843
481.2
351.427
246.577
166.312
110.833
74.534
50.8502
35.3831
25.2415
18.5551
13.9766
11.1341
9.5718
8.74041
8.37621
8.46137
9.07144
10.5518
13.7705
21.4879
45.7209
160.214
807.082
3738.14
2.06814
2.32838
2.81152
3.63429
5.50026
10.0011
19.9783
38.6724
68.8838
111.774
166.668
231.629
304.488
383.887
470.199
566.456
680.45
827.215
1081.95
1331.43
1.91095
1.8036
1.73063
1.68181
1.64784
1.62467
1.60809
1.59721
1.59211
1.58959
1.5886
1.59023
1.59476
1.6002
1.60759
1.61641
1.62649
1.63805
1.65082
1.66497
1.68051
1.69749
1.71614
1.73644
1.75866
1.78286
1.80935
1.83825
1.86989
1618.1
1925.89
2113.57
2112.38
1870.73
1578.55
1311.99
1071.9
857.824
669.547
507.249
371.16
261.046
176.503
117.867
79.3694
54.1718
37.6707
26.8252
19.6583
14.7361
11.7719
10.1038
9.13477
8.68196
8.70898
9.28924
10.7583
14.0221
21.9672
47.5511
169.815
846.46
3751.49
2.02406
2.25678
2.68954
3.39957
4.92022
8.61209
17.0842
33.6907
61.7316
103.092
157.259
222.007
294.572
372.82
456.154
546.367
648.582
774.535
946.174
1291.28
1638.87
1.88293
1.78813
1.72396
1.67948
1.64797
1.62471
1.6081
1.59804
1.59251
1.58953
1.58863
1.58968
1.59405
1.59937
1.60655
1.61535
1.62536
1.6369
1.64969
1.66385
1.67948
1.69656
1.71532
1.73573
1.75807
1.78239
1.80901
1.83804
1.86982
2109.51
2516.19
2714.3
2405.14
2022.11
1685.25
1390.57
1131.54
903.945
705.472
535.083
392.333
276.654
187.561
125.538
84.6635
57.8167
40.1827
28.563
20.8658
15.7209
12.5476
10.6505
9.53858
8.99487
8.9643
9.51652
10.9839
14.3058
22.5519
49.5427
180.916
887.371
3761.28
1.9858
2.19372
2.58062
3.20561
4.44605
7.4507
14.5354
29.0816
54.6732
94.0236
147.304
212.068
284.911
362.905
444.592
530.687
624.946
735.341
879.604
1093.02
1604.25
2196.99
1.86131
1.77895
1.72096
1.67969
1.64802
1.6247
1.60926
1.59891
1.59287
1.58988
1.58882
1.58923
1.5933
1.59857
1.6055
1.61428
1.62421
1.63572
1.64855
1.66274
1.67848
1.69565
1.71452
1.73504
1.7575
1.78194
1.80868
1.83783
1.86975
2974.93
3691.52
3203.78
2643.19
2181.05
1797.78
1473.52
1194.47
952.61
743.433
564.588
414.885
293.381
199.489
133.86
90.4319
61.7988
42.9298
30.4612
22.4292
16.9156
13.3428
11.2083
9.94988
9.31446
9.22738
9.75561
11.2304
14.6318
23.2134
51.9627
193.078
928.194
3770.89
1.95594
2.13949
2.48363
3.04097
4.06116
6.49115
12.3368
24.8839
47.9201
84.8058
136.705
201.537
275.175
353.766
434.98
518.644
607.359
707.54
831.724
1008
1301.08
2200.16
3385.94
1.84858
1.77518
1.72125
1.67975
1.648
1.6262
1.61076
1.60001
1.59381
1.59041
1.58906
1.58896
1.59254
1.5978
1.60446
1.61318
1.62307
1.63453
1.64742
1.66167
1.67751
1.69477
1.71375
1.73437
1.75694
1.78149
1.80836
1.83763
1.86972
5122.55
4424.68
3547.5
2872.99
2341.96
1913.73
1559.62
1260.01