/*--------------------------------*- C++ -*----------------------------------*\
  =========                 |
  \\      /  F ield         | OpenFOAM: The Open Source CFD Toolbox
   \\    /   O peration     | Website:  https://openfoam.org
    \\  /    A nd           | Version:  8
     \\/     M anipulation  |
\*---------------------------------------------------------------------------*/
FoamFile
{
    version     2.0;
    format      ascii;
    class       volScalarField;
    location    "0.22";
    object      nut;
}
// * * * * * * * * * * * * * * * * * * * * * * * * * * * * * * * * * * * * * //

dimensions      [0 2 -1 0 0 0 0];

internalField   nonuniform List<scalar> 
15677
(
0.000168249
0.000653031
0.000148414
0.00151381
0.000442468
0.00014151
0.00267562
0.000875833
0.000381141
0.000142383
0.00392143
0.00151895
0.000686614
0.000354237
0.000145471
0.00502441
0.00235615
0.00114634
0.000585569
0.000340238
0.000151228
0.00584089
0.00331739
0.00178066
0.000947605
0.000529214
0.000331998
0.000157022
0.00633519
0.00429869
0.00256747
0.00146304
0.000820707
0.000492394
0.000326968
0.000162467
0.00656295
0.00518773
0.0034527
0.00213121
0.00125682
0.000737001
0.00046735
0.000324097
0.000167239
0.00665852
0.00589352
0.00435518
0.00292168
0.00184093
0.00111183
0.000677113
0.000450345
0.000322521
0.00017146
0.00670554
0.00633832
0.00518076
0.00377852
0.00255618
0.00163103
0.00100407
0.000633833
0.00043859
0.000321963
0.000175014
0.00671441
0.0065535
0.00584533
0.0046249
0.00336187
0.00228548
0.00147178
0.000923653
0.000601902
0.000430663
0.000321898
0.000178138
0.00670993
0.00666154
0.00629568
0.00537686
0.00419608
0.00304408
0.00207655
0.00134808
0.000861623
0.000578298
0.000425193
0.000322374
0.000180741
0.00670629
0.00669876
0.00652962
0.0059643
0.00498345
0.00385606
0.00279418
0.00191035
0.00125017
0.000813491
0.000560549
0.000421715
0.000322999
0.000183068
0.00670539
0.00670439
0.00664684
0.00635679
0.00564954
0.0046547
0.00358163
0.0025918
0.00177622
0.00117189
0.000775668
0.000547391
0.000419356
0.000323908
0.000185095
0.00670542
0.00670289
0.0066879
0.00656285
0.00614177
0.00536753
0.00437962
0.00335493
0.0024258
0.00166639
0.00110838
0.000745901
0.000537303
0.000418137
0.000324748
0.000186891
0.00670556
0.00670167
0.00669639
0.00665654
0.00644664
0.00593299
0.00511956
0.00414655
0.003166
0.00228763
0.00157588
0.00105666
0.00072221
0.00053004
0.000417263
0.000325789
0.000188532
0.00670562
0.00670121
0.00669712
0.00668491
0.00660478
0.00632134
0.00573638
0.00490195
0.00394834
0.00300655
0.00217219
0.00150068
0.00101466
0.000703727
0.000524331
0.000417136
0.000326716
0.000189932
0.00670563
0.00670112
0.00669671
0.00669166
0.00666368
0.00654102
0.00618756
0.00555535
0.00471193
0.00377841
0.00287164
0.00207505
0.00143832
0.000980553
0.000688849
0.000520463
0.000417064
0.000327786
0.000191344
0.00670562
0.00670113
0.00669642
0.00669273
0.00668227
0.00663442
0.00646742
0.00605681
0.00539169
0.00454562
0.00363269
0.00275695
0.00199348
0.00138669
0.000952661
0.000677474
0.000517349
0.000417572
0.000328754
0.00019245
0.0067056
0.00670116
0.00669628
0.00669267
0.00668726
0.00666905
0.00659782
0.00638869
0.00593334
0.00524433
0.00440067
0.00350746
0.00265963
0.00192516
0.00134401
0.000930324
0.000668309
0.000515596
0.000417974
0.000329813
0.000193758
0.00670558
0.00670118
0.00669621
0.00669256
0.00668818
0.00668076
0.00665129
0.0065557
0.00630999
0.00581768
0.00511323
0.00427441
0.00340024
0.00257743
0.00186823
0.00130913
0.00091231
0.000661706
0.000514132
0.000418862
0.000330829
0.000194638
0.00670558
0.00670119
0.00669617
0.00669252
0.00668815
0.0066842
0.00667158
0.0066301
0.00651071
0.0062316
0.0057121
0.00499691
0.00416522
0.00330901
0.00250855
0.00182137
0.00128092
0.000898385
0.000656433
0.00051378
0.000419564
0.000331852
0.000195932
0.00670558
0.00670119
0.00669614
0.00669251
0.00668799
0.00668504
0.0066784
0.00666129
0.00660573
0.00646407
0.00615841
0.0056161
0.00489521
0.0040716
0.00323217
0.00245157
0.00178336
0.00125863
0.000887595
0.000653243
0.000513437
0.000420709
0.000332977
0.000196647
0.00670558
0.00670119
0.00669613
0.00669251
0.00668788
0.00668518
0.0066803
0.00667327
0.00664815
0.00657999
0.00641826
0.00608967
0.00553117
0.00480701
0.00399224
0.00316837
0.00240543
0.00175347
0.00124173
0.00088004
0.000650735
0.00051407
0.000421595
0.000333876
0.00019794
0.00670558
0.00670119
0.00669612
0.0066925
0.00668781
0.00668516
0.00668065
0.00667748
0.00666546
0.00663507
0.00655326
0.006374
0.00602777
0.00545596
0.00473179
0.00392651
0.00311716
0.00236934
0.00173087
0.00122922
0.000874634
0.000650098
0.000514525
0.000423
0.000335303
0.000198622
0.00670559
0.00670118
0.00669612
0.00669249
0.00668778
0.00668513
0.0066806
0.00667879
0.00667181
0.00665947
0.00661986
0.00652721
0.00633373
0.00597122
0.00539239
0.00467012
0.00387378
0.00307657
0.00234183
0.00171464
0.00122155
0.000872302
0.000649708
0.000515924
0.000423878
0.000336041
5.33257e-05
0.00670559
0.00670117
0.00669612
0.00669247
0.00668776
0.00668509
0.0066805
0.00667912
0.00667383
0.00666953
0.00665025
0.00660651
0.00650311
0.00629646
0.00592535
0.00533937
0.00461899
0.00383177
0.00304759
0.00232458
0.00170632
0.00121801
0.000871281
0.000651086
0.000516973
0.000426248
0.000283422
6.32535e-05
0.0067056
0.00670117
0.00669612
0.00669246
0.00668775
0.00668505
0.00668043
0.00667914
0.00667431
0.00667335
0.00666301
0.00664507
0.00659236
0.0064806
0.0062662
0.0058833
0.00529659
0.00458407
0.00380717
0.00303133
0.00231532
0.00170257
0.00121699
0.000872914
0.00065261
0.000519042
0.00041977
0.0002193
7.05851e-05
0.00670561
0.00670116
0.00669612
0.00669244
0.00668774
0.00668501
0.00668039
0.00667907
0.00667433
0.00667463
0.0066679
0.00666265
0.00663613
0.00658217
0.00646462
0.0062376
0.00585822
0.00527232
0.00456167
0.00379001
0.00302151
0.00231178
0.00170327
0.00122015
0.000875675
0.000654837
0.000520194
0.000399813
0.00017791
7.59785e-05
0.00670561
0.00670115
0.00669613
0.00669243
0.00668774
0.00668498
0.00668036
0.00667899
0.00667427
0.00667491
0.00666954
0.0066701
0.00665616
0.00663497
0.0065729
0.00644802
0.00622882
0.00584165
0.00525367
0.00454684
0.00378178
0.00301981
0.0023153
0.00170974
0.00122612
0.000879927
0.000657911
0.000517977
0.000367008
0.000152488
8.03326e-05
0.00670562
0.00670114
0.00669613
0.00669241
0.00668775
0.00668494
0.00668035
0.00667891
0.00667421
0.00667488
0.00666996
0.00667293
0.00666471
0.00666073
0.00662866
0.00657046
0.00644681
0.00622149
0.00583107
0.00524413
0.00454411
0.00378593
0.0030293
0.0023268
0.00172097
0.00123486
0.000885823
0.000660846
0.000511819
0.000335831
0.000134184
8.36715e-05
0.00670563
0.00670114
0.00669614
0.0066924
0.00668775
0.00668491
0.00668035
0.00667883
0.00667416
0.00667476
0.00667002
0.00667376
0.00666809
0.00667244
0.00665579
0.00663688
0.00657314
0.00644912
0.00621951
0.00583198
0.00525103
0.00455596
0.00380219
0.00304767
0.00234482
0.00173642
0.00124645
0.000892799
0.000663246
0.00050037
0.000305713
0.000121267
8.60275e-05
0.00670563
0.00670113
0.00669614
0.00669238
0.00668776
0.00668488
0.00668035
0.00667877
0.00667413
0.00667463
0.00666997
0.00667386
0.00666924
0.00667725
0.00666829
0.00667083
0.0066423
0.00658126
0.00645705
0.00623162
0.00584882
0.00527137
0.00458042
0.00382909
0.00307456
0.00236913
0.0017558
0.00126031
0.000900821
0.000664312
0.000484899
0.000279674
0.0001128
8.77602e-05
0.00670564
0.00670112
0.00669615
0.00669237
0.00668776
0.00668485
0.00668035
0.0066787
0.00667411
0.0066745
0.00666991
0.00667374
0.00666957
0.00667882
0.00667395
0.00668719
0.00667807
0.00665444
0.00659791
0.0064783
0.00625769
0.00587902
0.00530549
0.00461719
0.00386658
0.00310976
0.00239918
0.00177887
0.0012766
0.000909517
0.00066416
0.000467941
0.000259862
0.000107062
8.90947e-05
0.00670112
0.00670565
0.00669616
0.00669236
0.00668777
0.00668483
0.00668035
0.00667865
0.0066741
0.00667439
0.00666986
0.00667355
0.00666961
0.00667916
0.00667621
0.00669435
0.00669557
0.00669291
0.00667729
0.00662596
0.00651215
0.00629731
0.00592394
0.00535336
0.00466654
0.00391427
0.00315272
0.00243492
0.00180528
0.00129455
0.000919665
0.000662701
0.000452746
0.000244661
0.000103036
9.01714e-05
0.00669616
0.00670112
0.00670567
0.00669235
0.00668777
0.0066848
0.00668036
0.00667859
0.0066741
0.00667428
0.00666982
0.00667337
0.00666957
0.00667908
0.00667702
0.00669715
0.00670365
0.00671219
0.00671981
0.00671021
0.00666643
0.00656006
0.00635228
0.00598351
0.00541541
0.00472795
0.00397201
0.00320343
0.00247563
0.00183492
0.00131714
0.000931791
0.000660748
0.000439788
0.00023282
0.000100185
9.10769e-05
0.00669234
0.00669619
0.00670114
0.00670568
0.00668778
0.00668478
0.00668037
0.00667854
0.00667411
0.00667418
0.00666978
0.00667319
0.0066695
0.00667888
0.00667727
0.00669814
0.00670701
0.00672149
0.00674171
0.00675656
0.00675593
0.00672104
0.00662373
0.00642355
0.0060595
0.00549203
0.00480191
0.00403941
0.00326092
0.00252136
0.00187083
0.001344
0.000944597
0.000659114
0.00042891
0.000223461
9.81025e-05
9.18646e-05
0.00668779
0.00669236
0.00669625
0.00670116
0.0067057
0.00668476
0.00668039
0.00667849
0.00667412
0.00667409
0.00666977
0.00667304
0.00666944
0.00667864
0.00667732
0.00669843
0.00670834
0.00672567
0.00675283
0.0067814
0.00680633
0.00681593
0.00679184
0.00670406
0.00651218
0.00615146
0.00558343
0.0048872
0.00411577
0.00332536
0.00257683
0.001915
0.00137208
0.000957905
0.000658174
0.00041998
0.000215938
9.65998e-05
9.25682e-05
0.00668474
0.00668784
0.00669241
0.00669631
0.00670118
0.00670572
0.0066804
0.00667845
0.00667413
0.006674
0.00666976
0.00667289
0.00666938
0.00667842
0.00667731
0.00669845
0.00670887
0.00672755
0.00675825
0.00679462
0.00683417
0.00687017
0.00689221
0.00687962
0.00680256
0.00661796
0.0062599
0.00568948
0.00498481
0.00420109
0.00340333
0.00264447
0.00196249
0.00140132
0.000971944
0.000657979
0.000412473
0.000209798
9.54751e-05
9.3207e-05
0.00668041
0.00668476
0.00668793
0.00669246
0.00669637
0.00670121
0.00670575
0.00667841
0.00667415
0.00667392
0.00666976
0.00667276
0.00666933
0.00667822
0.00667727
0.00669837
0.00670907
0.00672847
0.00676105
0.00680175
0.00685044
0.00690259
0.00695288
0.00698687
0.00698541
0.00691824
0.00674094
0.00638403
0.00580922
0.0050934
0.00430434
0.00349835
0.00271685
0.00201263
0.00143142
0.000986259
0.000658632
0.000406326
0.000204721
9.4666e-05
9.37957e-05
0.00667837
0.00668048
0.00668483
0.00668803
0.00669252
0.00669643
0.00670123
0.00670577
0.00667417
0.00667384
0.00666978
0.00667264
0.00666929
0.00667804
0.00667723
0.00669826
0.00670915
0.006729
0.00676268
0.00680587
0.00686
0.00692235
0.00699065
0.00705527
0.00710413
0.00711281
0.00705223
0.00687998
0.00652282
0.0059409
0.00522649
0.00443073
0.00359979
0.00279326
0.00206473
0.00146229
0.0010014
0.000660139
0.000401203
0.00020039
9.40473e-05
9.434e-05
0.00667419
0.00667838
0.0066806
0.0066849
0.00668813
0.00669257
0.0066965
0.00670125
0.00670579
0.00667377
0.0066698
0.00667252
0.00666927
0.00667789
0.00667719
0.00669815
0.00670917
0.00672935
0.00676378
0.00680862
0.00686621
0.00693505
0.00701551
0.00709968
0.00718134
0.00724338
0.00726401
0.00720801
0.00703362
0.00667432
0.00610017
0.0053862
0.00456656
0.00370722
0.00287255
0.00211837
0.0014934
0.00101625
0.000662703
0.000397011
0.000196738
9.3616e-05
9.48486e-05
0.0066737
0.00667427
0.00667844
0.00668074
0.00668497
0.00668823
0.00669263
0.00669657
0.00670127
0.00670581
0.00666982
0.0066724
0.00666926
0.00667776
0.00667715
0.00669805
0.00670918
0.00672962
0.00676463
0.00681073
0.00687079
0.00694404
0.00703312
0.00713115
0.00723474
0.00733168
0.00740803
0.0074374
0.00738622
0.0072072
0.00685399
0.0062879
0.00555478
0.00470917
0.00381938
0.00295411
0.00217289
0.00152506
0.0010309
0.000665519
0.000393614
0.000193552
9.32814e-05
9.53212e-05
0.00666986
0.00667367
0.00667442
0.0066785
0.00668087
0.00668504
0.00668834
0.00669268
0.00669664
0.00670129
0.00670583
0.00667229
0.00666927
0.00667764
0.0066771
0.00669796
0.00670919
0.00672985
0.00676534
0.00681249
0.00687449
0.00695118
0.00704672
0.00715519
0.00727559
0.00739655
0.00751066
0.00759796
0.0076345
0.00758448
0.0074214
0.00707346
0.00648519
0.00573005
0.00485533
0.00393369
0.00303696
0.00222785
0.00155686
0.00104546
0.000668718
0.000390812
0.000190824
9.30659e-05
9.57654e-05
0.00667218
0.00666993
0.00667367
0.00667457
0.00667856
0.00668102
0.00668512
0.00668846
0.00669274
0.00669671
0.00670132
0.00670586
0.00666929
0.00667753
0.00667704
0.0066979
0.0067092
0.00673005
0.00676595
0.00681403
0.00687765
0.0069573
0.00705812
0.00717478
0.00730921
0.00744964
0.00759088
0.00771821
0.00781541
0.00785543
0.00782693
0.00768259
0.0073116
0.00668722
0.00590608
0.00500277
0.00404909
0.00312025
0.00228276
0.00158857
0.00105971
0.000672292
0.000388512
0.000188402
9.28977e-05
9.61776e-05
0.00666933
0.00667205
0.00667004
0.00667368
0.00667474
0.00667863
0.00668117
0.00668519
0.00668857
0.0066928
0.00669678
0.00670134
0.00670588
0.00667742
0.00667697
0.00669787
0.00670923
0.00673024
0.0067665
0.00681541
0.00688042
0.00696275
0.00706812
0.00719182
0.00733822
0.00749586
0.00766067
0.00781772
0.00795811
0.00806096
0.00812764
0.00812385
0.00796313
0.00756542
0.00690022
0.00608314
0.00515028
0.00416401
0.00320307
0.0023372
0.00161987
0.00107385
0.000676141
0.000386651
0.000186309
9.2809e-05
9.65663e-05
0.00667731
0.00666931
0.0066719
0.00667017
0.00667369
0.00667491
0.00667869
0.00668133
0.00668527
0.00668869
0.00669286
0.00669686
0.00670137
0.0067059
0.0066769
0.00669789
0.00670927
0.00673042
0.00676698
0.00681664
0.00688289
0.0069677
0.00707707
0.00720721
0.00736439
0.00753705
0.0077245
0.00790912
0.00808297
0.00823129
0.00836616
0.00846412
0.008446
0.0082602
0.00782782
0.00712001
0.00625861
0.00529497
0.00427708
0.00328474
0.00239076
0.00165063
0.00108752
0.0006799
0.000385175
0.000184428
9.27412e-05
9.69255e-05
0.00667685
0.00667701
0.00666921
0.00667175
0.00667031
0.00667369
0.0066751
0.00667876
0.00668149
0.00668535
0.00668881
0.00669292
0.00669694
0.00670139
0.00670592
0.00669795
0.00670931
0.00673057
0.0067674
0.00681776
0.00688512
0.00697222
0.00708517
0.00722138
0.00738841
0.00757477
0.0077835
0.00799651
0.0082032
0.00838769
0.00857455
0.00874822
0.00883346
0.00879045
0.00857052
0.00809617
0.00734396
0.00643502
0.00543594
0.00438744
0.00336456
0.00244313
0.00168063
0.00110107
0.000683591
0.000383963
0.000182787
9.27279e-05
9.7265e-05
0.00669807
0.00667633
0.00667653
0.00666914
0.00667158
0.00667048
0.00667369
0.00667529
0.00667883
0.00668166
0.00668543
0.00668894
0.00669299
0.00669701
0.00670142
0.00670594
0.00670932
0.00673069
0.00676776
0.00681876
0.00688715
0.00697634
0.00709253
0.00723452
0.00741056
0.00760989
0.00783921
0.00807948
0.00832165
0.00854445
0.0087762
0.00901116
0.00917381
0.00923376
0.00915459
0.00889139
0.00836824
0.00756788
0.0066117
0.00557289
0.00449441
0.00344216
0.00249402
0.00170976
0.00111433
0.000687195
0.000382992
0.000181301
9.27216e-05
9.75772e-05
0.00670929
0.00669753
0.00667537
0.00667601
0.00666913
0.0066714
0.00667067
0.0066737
0.0066755
0.0066789
0.00668183
0.00668552
0.00668906
0.00669306
0.00669708
0.00670145
0.00670595
0.00673078
0.00676807
0.00681967
0.00688901
0.00698012
0.00709925
0.00724668
0.00743095
0.00764288
0.0078922
0.00815849
0.00843599
0.00870484
0.00898829
0.00927942
0.00950621
0.00964389
0.00966497
0.00953742
0.00922109
0.00864214
0.00778957
0.00678661
0.00570575
0.00459777
0.00351707
0.00254321
0.00173793
0.00112715
0.000690708
0.000382184
0.000179992
9.27529e-05
9.78731e-05
0.00673086
0.00670825
0.00669613
0.00667466
0.00667541
0.00666919
0.0066712
0.00667089
0.0066737
0.00667571
0.00667899
0.006682
0.00668561
0.00668919
0.00669313
0.00669715
0.00670148
0.00670597
0.00676834
0.00682051
0.00689071
0.00698357
0.00710541
0.00725792
0.00744973
0.00767395
0.00794233
0.00823361
0.00854718
0.00886619
0.00921318
0.00957243
0.00986285
0.0100693
0.0101663
0.0101313
0.00994
0.00955889
0.00891652
0.00800797
0.00695824
0.00583358
0.00469655
0.00358894
0.00259054
0.00176506
0.00113954
0.000694117
0.000381518
0.0001788
9.27842e-05
9.81436e-05
0.00676859
0.00672929
0.00670611
0.0066944
0.00667423
0.00667469
0.00666933
0.00667099
0.00667112
0.00667371
0.00667593
0.00667908
0.00668217
0.00668571
0.0066893
0.0066932
0.00669721
0.00670151
0.00670598
0.00682128
0.00689228
0.00698671
0.00711105
0.00726826
0.00746702
0.00770314
0.00798936
0.00830509
0.00865632
0.00902824
0.0094404
0.00989094
0.0102757
0.0105613
0.0107282
0.0107577
0.0106405
0.0103647
0.00990476
0.00919054
0.00822228
0.00712577
0.00595767
0.00479056
0.0036576
0.00263588
0.00179108
0.00115147
0.00069741
0.000380986
0.000177739
9.28409e-05
9.8401e-05
0.00682205
0.00676598
0.00672598
0.00670394
0.00669238
0.00667411
0.00667387
0.00666954
0.00667077
0.00667136
0.00667374
0.00667614
0.00667918
0.00668234
0.00668581
0.00668941
0.00669327
0.00669727
0.00670154
0.006706
0.00689372
0.00698958
0.00711621
0.00727774
0.00748295
0.00773044
0.00803319
0.00837332
0.00876338
0.00918848
0.00966462
0.0102285
0.0107694
0.0111895
0.0114381
0.0115178
0.0114339
0.0111985
0.010813
0.0102586
0.00946357
0.00843196
0.00728781
0.00607809
0.00487997
0.00372295
0.00267916
0.00181597
0.00116289
0.000700585
0.00038054
0.000176774
9.28949e-05
9.8606e-05
0.00689508
0.00681875
0.00676029
0.00672276
0.00670187
0.00668988
0.00667426
0.00667298
0.0066698
0.00667056
0.0066716
0.00667378
0.00667634
0.0066793
0.00668249
0.00668592
0.00668952
0.00669334
0.00669733
0.00670157
0.00670601
0.0069922
0.00712092
0.0072864
0.00749761
0.0077558
0.00807392
0.00843854
0.00886712
0.00934366
0.00988669
0.0105998
0.0113614
0.0120117
0.0124023
0.0125287
0.0124481
0.0121961
0.0118041
0.0112837
0.0106193
0.00973493
0.00863653
0.00744381
0.00619424
0.00496493
0.00378499
0.00272034
0.00183969
0.00117381
0.000703631
0.000380171
0.000175903
9.29536e-05
9.8778e-05
0.0069946
0.00689039
0.00681101
0.00675464
0.00671973
0.00670039
0.00668704
0.00667458
0.00667207
0.00667005
0.00667039
0.00667183
0.00667386
0.00667653
0.00667942
0.00668263
0.00668602
0.00668961
0.00669341
0.00669738
0.0067016
0.00670602
0.00712522
0.00729428
0.00751107
0.00777922
0.00811173
0.00850064
0.008966
0.00949246
0.0101135
0.0110224
0.012063
0.0130053
0.0136413
0.0138763
0.0137878
0.0134848
0.0130232
0.0124462
0.0117716
0.0109847
0.0100037
0.0088356
0.0075937
0.00630574
0.00504554
0.00384376
0.00275943
0.00186225
0.00118422
0.000706552
0.000379853
0.00017522
9.30064e-05
9.89628e-05
0.00712915
0.00698821
0.00687899
0.00680331
0.0067492
0.00671684
0.0066993
0.00668409
0.00667496
0.00667123
0.00667028
0.00667028
0.00667203
0.00667396
0.0066767
0.00667955
0.00668277
0.00668613
0.00668971
0.00669347
0.00669743
0.00670163
0.00670603
0.00730145
0.00752338
0.00780074
0.0081468
0.00855927
0.00905898
0.00963589
0.0103522
0.0114982
0.0128461
0.0140898
0.0149966
0.0154569
0.015452
0.015108
0.0145623
0.0138785
0.0131063
0.0122683
0.0113513
0.0102687
0.00902875
0.00773744
0.00641239
0.00512192
0.00389931
0.00279643
0.00188365
0.00119411
0.000709332
0.000379637
0.000174649
9.30682e-05
9.91635e-05
0.00730793
0.00712053
0.0069719
0.00686758
0.00679574
0.00674393
0.00671415
0.00669834
0.00668121
0.00667526
0.00667052
0.00667043
0.00667024
0.00667219
0.00667409
0.00667686
0.00667969
0.00668289
0.00668623
0.0066898
0.00669354
0.00669749
0.00670165
0.00670604
0.00753462
0.00782042
0.00817925
0.00861405
0.00914585
0.009776
0.0106054
0.0120107
0.0136525
0.0151558
0.0162936
0.0169842
0.017203
0.0169575
0.0163783
0.0156116
0.014722
0.013763
0.0127635
0.011715
0.0105285
0.00921561
0.007875
0.00651411
0.00519419
0.00395174
0.0028314
0.0019039
0.00120348
0.000711638
0.000379451
0.000174049
9.31436e-05
9.93799e-05
0.00754477
0.00729676
0.0070975
0.00695553
0.00685638
0.00678825
0.00673892
0.0067116
0.00669742
0.00667862
0.00667535
0.00667
0.00667049
0.00667028
0.00667232
0.00667424
0.006677
0.00667982
0.00668301
0.00668634
0.00668988
0.00669361
0.00669753
0.00670167
0.00670604
0.00783841
0.00820916
0.00866479
0.00922704
0.00991424
0.0108693
0.0125331
0.0144234
0.0161154
0.017413
0.0182788
0.0187159
0.0187184
0.0182837
0.0175232
0.0165812
0.0155202
0.0143969
0.0132473
0.0120713
0.0107816
0.00939579
0.00800641
0.00661089
0.00526248
0.00400116
0.00286438
0.00192305
0.00121119
0.000713594
0.000379292
0.000173415
9.32289e-05
9.96158e-05
0.00785449
0.00753025
0.00726488
0.0070744
0.00693946
0.00684541
0.00678081
0.00673428
0.00670911
0.00669644
0.0066766
0.00667514
0.0066697
0.00667046
0.00667038
0.00667242
0.00667439
0.00667713
0.00667996
0.00668313
0.00668644
0.00668997
0.00669367
0.00669756
0.00670167
0.00670604
0.00823667
0.0087115
0.00930326
0.0100508
0.0111361
0.0130394
0.0151182
0.0169239
0.0183064
0.0192771
0.0198723
0.0201025
0.0199488
0.0193888
0.0185076
0.0174421
0.0162512
0.014993
0.0137111
0.0124162
0.0110266
0.00956893
0.00813169
0.00670275
0.00532692
0.00404767
0.00289546
0.00193872
0.00121773
0.000715763
0.000379093
0.000172748
9.33344e-05
9.98699e-05
0.00826126
0.00783632
0.00748646
0.00723285
0.00705172
0.00692375
0.00683465
0.00677339
0.00672989
0.00670658
0.00669503
0.00667539
0.0066746
0.00666962
0.00667036
0.00667053
0.00667251
0.00667456
0.00667726
0.0066801
0.00668324
0.00668654
0.00669005
0.00669371
0.00669756
0.00670167
0.00670604
0.00875439
0.00937514
0.0101846
0.0113968
0.0135108
0.0157179
0.0175727
0.0189775
0.0199892
0.0206751
0.0210664
0.021155
0.0209041
0.0202746
0.0193257
0.0181844
0.016904
0.015542
0.0141486
0.0127462
0.011262
0.00973474
0.00825088
0.0067898
0.00538768
0.00409144
0.00292082
0.001952
0.0012249
0.000718145
0.000378914
0.000172048
9.34494e-05
0.000100147
0.00879249
0.00823843
0.00777695
0.0074425
0.00720136
0.00702954
0.00690838
0.0068241
0.00676609
0.00672564
0.00670401
0.00669283
0.00667487
0.00667383
0.00666968
0.00667023
0.00667069
0.00667259
0.00667472
0.00667738
0.00668023
0.00668335
0.00668664
0.00669009
0.00669371
0.00669756
0.00670167
0.00670604
0.00944307
0.0103138
0.0116443
0.0139368
0.01622
0.0180748
0.0194557
0.0204587
0.0211778
0.0216632
0.0219207
0.0219229
0.021621
0.0209641
0.0199889
0.0188108
0.0174759
0.0160392
0.0145556
0.0130589
0.011487
0.00989295
0.00836407
0.00687215
0.00544486
0.00412703
0.00294226
0.00196651
0.00123276
0.000720794
0.000378706
0.000171299
9.35953e-05
0.000100445
0.00950474
0.00876429
0.00815807
0.00771729
0.00739924
0.00717053
0.00700787
0.00689336
0.00681385
0.0067589
0.00672159
0.0067015
0.00668997
0.00667483
0.00667296
0.00666982
0.00667011
0.00667086
0.00667268
0.00667488
0.0066775
0.00668036
0.00668345
0.00668669
0.00669008
0.00669371
0.00669756
0.00670167
0.00670604
0.0104369
0.0118773
0.0143144
0.0166315
0.0184523
0.0197785
0.0207382
0.0214464
0.0219702
0.0223294
0.0225072
0.0224631
0.0221422
0.0214873
0.0205159
0.0193309
0.0179701
0.016484
0.0149303
0.0133526
0.0117007
0.0100434
0.00847135
0.00694993
0.00549178
0.00415703
0.00296564
0.00198238
0.00124138
0.000723706
0.000378513
0.000170533
9.37512e-05
0.000100769
0.0105473
0.00946955
0.00865504
0.00807745
0.00765851
0.00735684
0.00714037
0.0069867
0.00687875
0.00680401
0.00675187
0.00671786
0.00669954
0.00668673
0.00667503
0.00667211
0.00666996
0.00667001
0.00667102
0.00667277
0.00667503
0.00667762
0.00668049
0.0066835
0.00668669
0.00669008
0.00669371
0.00669756
0.00670167
0.00670603
0.0120965
0.0146422
0.016964
0.018729
0.0199817
0.0208756
0.021542
0.0220618
0.022468
0.0227548
0.0228898
0.022826
0.0225076
0.0218744
0.0209275
0.0197572
0.0183925
0.0168781
0.0152721
0.0136265
0.0119026
0.0101861
0.00857284
0.00701351
0.0055316
0.00418967
0.00299112
0.00199974
0.00125084
0.000726945
0.000378314
0.000169695
9.39527e-05
0.000101115
0.010507
0.0122919
0.00931077
0.00854704
0.00799784
0.00760084
0.00731531
0.00711089
0.00696607
0.00686461
0.00679466
0.00674521
0.00671438
0.00669819
0.00668356
0.00667525
0.00667137
0.00667008
0.00666995
0.00667116
0.00667288
0.00667517
0.00667774
0.00668056
0.0066835
0.00668669
0.00669008
0.00669371
0.00669756
0.00670165
0.00670602
0.0149214
0.0172302
0.0189267
0.020096
0.0209109
0.0215148
0.0219998
0.0224108
0.0227531
0.0230029
0.023119
0.023053
0.0227511
0.0221523
0.0212436
0.0201032
0.0187509
0.0172249
0.0155819
0.0138803
0.0120925
0.0103209
0.00865601
0.00706731
0.00557518
0.00422521
0.00301893
0.00201874
0.00126125
0.00073052
0.00037811
0.000168863
9.41655e-05
0.000101492
0.0102633
0.0122549
0.0151479
0.00915824
0.00844082
0.00791957
0.00754429
0.00727467
0.00708213
0.00694603
0.00685097
0.00678564
0.00673888
0.00671125
0.00669708
0.00668073
0.00667537
0.00667079
0.00667015
0.00666994
0.00667129
0.00667299
0.00667531
0.0066778
0.00668056
0.0066835
0.0066867
0.00669008
0.00669371
0.00669753
0.00670163
0.00670601
0.0174418
0.019064
0.0201458
0.020875
0.0214036
0.0218322
0.0222159
0.0225718
0.0228853
0.0231206
0.0232329
0.0231762
0.0229002
0.0223438
0.0214821
0.0203815
0.0190532
0.0175284
0.0158612
0.0141145
0.0122705
0.0104312
0.00872652
0.00712604
0.00562291
0.00426393
0.00304927
0.00203955
0.00127268
0.000734436
0.000377917
0.000167922
9.44443e-05
0.000101892
0.0100244
0.0119051
0.0150825
0.0175992
0.00901275
0.00833604
0.00784276
0.00748888
0.00723497
0.00705414
0.00692663
0.0068378
0.0067769
0.00673305
0.00670847
0.00669604
0.00667841
0.00667527
0.00667039
0.00667016
0.00666997
0.0066714
0.00667311
0.00667538
0.0066778
0.00668056
0.0066835
0.00668669
0.00669009
0.00669367
0.00669748
0.0067016
0.006706
0.0191554
0.0201501
0.0207913
0.0212374
0.0215951
0.021928
0.022264
0.0225999
0.0229065
0.0231411
0.0232596
0.0232203
0.0229768
0.0224679
0.021658
0.0206035
0.0193072
0.0177932
0.0161121
0.0143296
0.0124146
0.0105245
0.0088036
0.0071902
0.00567521
0.00430615
0.00308241
0.00206235
0.00128528
0.000738898
0.000377701
0.000167035
9.47386e-05
0.000102327
0.00980044
0.0115275
0.0147252
0.0175021
0.0192033
0.008872
0.00823269
0.0077675
0.00743468
0.0071963
0.00702698
0.00690787
0.00682515
0.00676865
0.00672792
0.00670589
0.00669491
0.00667689
0.00667493
0.00667016
0.00667012
0.00667004
0.0066715
0.00667317
0.00667538
0.0066778
0.00668056
0.0066835
0.00668669
0.00669005
0.00669361
0.00669743
0.00670157
0.00670598
0.0201225
0.0206771
0.0210376
0.0213155
0.0215804
0.0218705
0.0221942
0.0225322
0.0228452
0.0230879
0.0232198
0.0232043
0.0229981
0.0225397
0.0217842
0.0207791
0.0195198
0.0180236
0.016337
0.0145005
0.0125358
0.0106264
0.00888792
0.00726035
0.00573256
0.00435225
0.00311861
0.00208737
0.00129913
0.000743724
0.000377537
0.000165978
9.51252e-05
0.000102783
0.00959074
0.0111566
0.0142829
0.0172724
0.0190523
0.0200632
0.00873435
0.00813098
0.00769391
0.00738181
0.00715875
0.0070007
0.00688989
0.00681331
0.00676098
0.00672347
0.0067034
0.00669315
0.00667605
0.0066744
0.00667007
0.00667005
0.00667015
0.00667154
0.00667318
0.00667538
0.0066778
0.00668056
0.00668351
0.00668664
0.00668997
0.00669354
0.00669738
0.00670154
0.00670597
0.0205444
0.0208197
0.021013
0.0211984
0.0214224
0.0217053
0.0220397
0.0223934
0.0227207
0.0229775
0.0231288
0.0231428
0.0229778
0.0225714
0.0218711
0.0209167
0.0196975
0.0182239
0.0165111
0.0146425
0.0126669
0.0107374
0.00898018
0.0073371
0.00579547
0.00440261
0.00315818
0.00211479
0.00131443
0.000749165
0.000377296
0.000165045
9.55389e-05
0.000103276
0.00939214
0.010805
0.0137956
0.0169536
0.0188952
0.0198563
0.0203886
0.00859927
0.00803124
0.00762216
0.0073304
0.0071224
0.00697553
0.00687313
0.00680247
0.00675379
0.00671948
0.00670113
0.00669085
0.0066757
0.00667375
0.00667008
0.00666997
0.00667023
0.00667151
0.00667318
0.00667539
0.0066778
0.00668056
0.00668346
0.00668654
0.00668988
0.00669347
0.00669733
0.00670151
0.00670595
0.0205942
0.0207019
0.0208006
0.0209438
0.0211626
0.0214626
0.0218224
0.0221995
0.0225458
0.0228219
0.0229986
0.0230472
0.0229266
0.0225729
0.0219272
0.0210234
0.0198455
0.0183743
0.0166537
0.0147939
0.0128086
0.0108585
0.00908114
0.00742113
0.00586453
0.0044577
0.00320147
0.00214492
0.00133125
0.000755136
0.000377189
0.00016386
9.60762e-05
0.000103786
0.00920222
0.0104766
0.0132842
0.0165723
0.0186668
0.0197318
0.0201256
0.0203508
0.00846686
0.00793378
0.00755245
0.00728061
0.0070876
0.00695211
0.00685785
0.00679259
0.00674714
0.00671602
0.0066993
0.00668821
0.00667564
0.00667306
0.00667016
0.00666986
0.00667027
0.0066715
0.00667318
0.00667539
0.00667781
0.0066805
0.00668335
0.00668644
0.0066898
0.0066934
0.00669727
0.00670148
0.00670593
0.0203918
0.0204012
0.0204536
0.02059
0.0208291
0.0211629
0.0215563
0.0219605
0.0223293
0.0226299
0.0228381
0.0229266
0.0228527
0.0225516
0.0219593
0.0211052
0.0199514
0.0184953
0.016803
0.0149548
0.0129614
0.0109904
0.00919164
0.00751321
0.00594038
0.00451803
0.00324887
0.00217797
0.00134987
0.000761815
0.000376903
0.000162901
9.66676e-05
0.00010443
0.00901944
0.0101717
0.0127596
0.0161412
0.0183939
0.0195493
0.0200026
0.0200313
0.0200665
0.00833747
0.00783898
0.00748498
0.00723292
0.00705527
0.00693078
0.00684394
0.00678373
0.00674108
0.00671298
0.00669803
0.00668558
0.00667572
0.0066724
0.00667032
0.00666974
0.00667029
0.0066715
0.00667319
0.00667539
0.00667775
0.00668037
0.00668324
0.00668634
0.00668971
0.00669333
0.00669721
0.00670146
0.00670591
0.0200092
0.0199662
0.0200071
0.0201633
0.0204418
0.0208188
0.0212494
0.0216823
0.0220773
0.0224085
0.0226551
0.0227881
0.022763
0.0225137
0.0219729
0.021157
0.0200348
0.0186193
0.0169587
0.0151253
0.0131257
0.0111338
0.00931255
0.00761415
0.00602374
0.00458416
0.00330078
0.00221432
0.00137036
0.000769175
0.000376894
0.000161584
9.75593e-05
0.000105171
0.00884304
0.00989045
0.0122308
0.015661
0.0180896
0.0193382
0.0198303
0.0198899
0.0196895
0.0196105
0.00821136
0.00774724
0.00742039
0.00718863
0.00702584
0.00691138
0.00683133
0.00677575
0.0067356
0.00671024
0.00669695
0.00668316
0.00667586
0.00667185
0.00667048
0.00666969
0.0066703
0.00667152
0.00667319
0.00667532
0.00667764
0.00668024
0.00668313
0.00668624
0.00668961
0.00669326
0.00669714
0.00670143
0.00670589
0.019491
0.0194293
0.0194859
0.0196837
0.0200125
0.0204371
0.0209051
0.0213681
0.0217943
0.0221639
0.0224557
0.0226375
0.0226624
0.0224639
0.0219705
0.0211958
0.0201172
0.0187453
0.01712
0.0153049
0.0133019
0.0112895
0.00944477
0.00772483
0.0061154
0.00465674
0.00335773
0.00225425
0.00139304
0.000777408
0.00037653