/*--------------------------------*- C++ -*----------------------------------*\
  =========                 |
  \\      /  F ield         | OpenFOAM: The Open Source CFD Toolbox
   \\    /   O peration     | Website:  https://openfoam.org
    \\  /    A nd           | Version:  8
     \\/     M anipulation  |
\*---------------------------------------------------------------------------*/
FoamFile
{
    version     2.0;
    format      ascii;
    class       volScalarField;
    location    "1200";
    object      k;
}
// * * * * * * * * * * * * * * * * * * * * * * * * * * * * * * * * * * * * * //

dimensions      [0 2 -2 0 0 0 0];

internalField   nonuniform List<scalar> 
15677
(
0.99154
0.87871
1.19176
0.495982
0.831011
1.1386
0.398763
0.479958
0.693343
1.04266
0.380438
0.386828
0.414436
0.659608
0.977908
0.37573
0.37261
0.358583
0.359292
0.668588
0.936368
0.374332
0.370445
0.355688
0.317528
0.358565
0.691695
0.910937
0.373838
0.370028
0.359203
0.329884
0.295998
0.368867
0.717306
0.892947
0.373577
0.369929
0.362049
0.34261
0.309247
0.283174
0.39268
0.732042
0.8812
0.373421
0.36999
0.364005
0.350927
0.326921
0.292391
0.284215
0.423478
0.744732
0.871651
0.373329
0.370043
0.365277
0.356118
0.33939
0.312655
0.281999
0.289389
0.456357
0.747486
0.865073
0.373281
0.370047
0.366075
0.359367
0.347555
0.328239
0.300827
0.275536
0.300421
0.483762
0.750077
0.861159
0.373257
0.370014
0.366541
0.361409
0.352854
0.338966
0.318047
0.291611
0.272398
0.315333
0.507955
0.751061
0.859771
0.373247
0.369972
0.366771
0.36267
0.356299
0.346189
0.330695
0.309265
0.28436
0.272825
0.331837
0.527298
0.751237
0.860343
0.373245
0.369937
0.366848
0.363403
0.358518
0.351031
0.339582
0.323146
0.301645
0.279345
0.274536
0.347531
0.543813
0.751045
0.862448
0.373244
0.369916
0.366848
0.363774
0.359899
0.354252
0.345738
0.333329
0.31628
0.295376
0.275757
0.277949
0.36338
0.555594
0.751017
0.866822
0.373243
0.369906
0.366825
0.363919
0.360691
0.356341
0.349951
0.340615
0.327471
0.310241
0.290164
0.273314
0.282879
0.376914
0.565574
0.750871
0.873569
0.373242
0.369901
0.366805
0.363944
0.361079
0.357622
0.352772
0.345743
0.335723
0.322124
0.304941
0.285909
0.271935
0.287932
0.389517
0.571713
0.75096
0.882373
0.373242
0.369898
0.366791
0.363933
0.361209
0.358326
0.354576
0.349271
0.341679
0.331156
0.317274
0.30037
0.282475
0.271335
0.293564
0.399116
0.577144
0.75095
0.893251
0.373241
0.369895
0.366782
0.363918
0.361235
0.358618
0.355637
0.351607
0.345877
0.337834
0.326927
0.312966
0.296419
0.279756
0.271454
0.298656
0.407528
0.579895
0.750892
0.906199
0.373241
0.369893
0.366776
0.363904
0.361227
0.358717
0.356125
0.353049
0.34873
0.342645
0.334232
0.323096
0.309131
0.293108
0.27761
0.271843
0.3035
0.413466
0.581719
0.750895
0.921187
0.373241
0.369892
0.366772
0.363894
0.361212
0.358737
0.35632
0.353767
0.350553
0.345993
0.339603
0.330926
0.319634
0.30583
0.290277
0.276026
0.272592
0.307524
0.418258
0.581653
0.750944
0.938134
0.373241
0.369891
0.366769
0.363887
0.361199
0.35873
0.356384
0.354087
0.351504
0.348199
0.343417
0.336792
0.327923
0.316606
0.302953
0.28803
0.274771
0.273608
0.311036
0.420898
0.581153
0.751047
0.956984
0.373241
0.36989
0.366767
0.36388
0.361188
0.358714
0.356392
0.354214
0.351956
0.349403
0.345986
0.341037
0.334246
0.325275
0.313965
0.300607
0.286146
0.274023
0.274611
0.31368
0.422918
0.579978
0.751224
0.977574
0.373241
0.369889
0.366766
0.363876
0.361179
0.358699
0.35638
0.35425
0.352154
0.35001
0.347425
0.343963
0.338902
0.332001
0.322985
0.311786
0.29865
0.284815
0.27348
0.275678
0.315757
0.422915
0.577857
0.751397
0.999845
0.373241
0.369888
0.366764
0.363872
0.361172
0.358685
0.356364
0.354246
0.352224
0.350298
0.348171
0.345663
0.342167
0.337026
0.330091
0.321115
0.310039
0.297262
0.283817
0.273425
0.276657
0.317216
0.422465
0.575154
0.751725
1.02357
0.373241
0.369888
0.366763
0.363869
0.361167
0.358674
0.356348
0.354228
0.352235
0.350413
0.348542
0.346585
0.344081
0.340613
0.335506
0.328602
0.319698
0.308795
0.296212
0.283302
0.273579
0.277672
0.317983
0.421402
0.57209
0.752058
1.04871
0.373241
0.369888
0.366763
0.363867
0.361163
0.358665
0.356335
0.354206
0.352223
0.350441
0.348706
0.347064
0.34513
0.342805
0.339449
0.334349
0.327494
0.318709
0.30802
0.295877
0.283372
0.273974
0.27861
0.318438
0.419424
0.568558
0.752557
1.07495
0.373241
0.369887
0.366762
0.363865
0.36116
0.358658
0.356324
0.354187
0.352202
0.350429
0.348762
0.347283
0.345692
0.344065
0.341827
0.338539
0.333643
0.327045
0.318522
0.30807
0.29605
0.283701
0.274681
0.279587
0.318406
0.416938
0.564886
0.753071
1.10229
0.373241
0.369887
0.366761
0.363864
0.361157
0.358653
0.356314
0.35417
0.35218
0.350402
0.348765
0.347359
0.345973
0.344763
0.34317
0.34126
0.338396
0.333715
0.327231
0.318809
0.30847
0.296596
0.284419
0.275713
0.280588
0.318248
0.414062
0.560882
0.753738
1.13022
0.373241
0.369887
0.366761
0.363862
0.361155
0.358649
0.356307
0.354157
0.352161
0.350373
0.348743
0.347363
0.346092
0.3451
0.34393
0.342919
0.341375
0.33869
0.334187
0.327886
0.319621
0.309418
0.297721
0.285741
0.277033
0.281707
0.317903
0.410928
0.556916
0.754527
1.16197
0.373241
0.369887
0.366761
0.363861
0.361153
0.358645
0.356301
0.354147
0.352145
0.350347
0.348713
0.347335
0.346123
0.345234
0.344363
0.343899
0.343148
0.341897
0.339521
0.335289
0.329273
0.321242
0.311212
0.299584
0.287546
0.278709
0.282964
0.317481
0.407598
0.552715
0.755762
1.19773
0.373241
0.369887
0.36676
0.363861
0.361151
0.358642
0.356295
0.354138
0.352131
0.350325
0.348684
0.347295
0.346107
0.345262
0.344575
0.344408
0.344206
0.343855
0.343054
0.341192
0.337383
0.331643
0.323765
0.313795
0.30209
0.289903
0.28071
0.284396
0.316996
0.404194
0.548264
0.757429
1.23364
0.373241
0.369887
0.36676
0.36386
0.36115
0.358639
0.356291
0.35413
0.352119
0.350306
0.348657
0.347258
0.34607
0.345238
0.34465
0.344652
0.344796
0.34505
0.345307
0.345219
0.343896
0.340471
0.334973
0.327209
0.317178
0.305315
0.292781
0.2831
0.286051
0.316644
0.40039
0.543083
0.759349
1.26945
0.373242
0.369887
0.36676
0.363859
0.361149
0.358637
0.356287
0.354124
0.352108
0.350291
0.348634
0.347224
0.346029
0.345193
0.344652
0.344746
0.345095
0.345751
0.346734
0.347803
0.348425
0.347702
0.344657
0.339377
0.331618
0.321446
0.309237
0.296241
0.285837
0.287901
0.31638
0.396344
0.538111
0.761483
1.30489
0.369887
0.373245
0.36676
0.363859
0.361148
0.358635
0.356284
0.354119
0.352099
0.350277
0.348613
0.347195
0.34599
0.345144
0.344615
0.344759
0.345226
0.346134
0.347616
0.34949
0.351415
0.352847
0.352753
0.350079
0.344923
0.337092
0.326593
0.313924
0.300248
0.288994
0.290135
0.316444
0.392689
0.533131
0.763756
1.33968
0.36676
0.369897
0.373252
0.363859
0.361147
0.358634
0.356281
0.354114
0.352092
0.350266
0.348596
0.347169
0.345956
0.345098
0.344568
0.34473
0.345264
0.346324
0.348138
0.350578
0.353435
0.356342
0.358654
0.359211
0.356835
0.351727
0.343638
0.332699
0.319336
0.30484
0.292946
0.292913
0.316711
0.38928
0.528479
0.766213
1.37368
0.363858
0.366776
0.369918
0.37326
0.361146
0.358632
0.356278
0.35411
0.352085
0.350256
0.34858
0.347148
0.345925
0.345058
0.34452
0.344686
0.345252
0.346406
0.348433
0.351269
0.354799
0.358788
0.36278
0.366038
0.367209
0.365061
0.35982
0.351355
0.339723
0.325524
0.310564
0.29792
0.296021
0.31726
0.3863
0.523915
0.768751
1.40667
0.361146
0.36388
0.36681
0.369939
0.373268
0.358631
0.356276
0.354107
0.352079
0.350248
0.348566
0.347129
0.345898
0.345022
0.344476
0.34464
0.34522
0.346429
0.348598
0.351708
0.355727
0.36052
0.365777
0.370954
0.375163
0.376912
0.374817
0.369318
0.360202
0.347731
0.333218
0.31773
0.303451
0.299414
0.318215
0.383626
0.519747
0.771173
1.43854
0.35863
0.361172
0.363925
0.366844
0.369961
0.373276
0.356274
0.354104
0.352074
0.35024
0.348554
0.347113
0.345873
0.344991
0.344436
0.344598
0.345184
0.346425
0.348686
0.351999
0.356378
0.361778
0.368
0.374654
0.381062
0.386234
0.388412
0.386241
0.380193
0.37027
0.357668
0.342827
0.325668
0.309483
0.30312
0.31943
0.381352
0.515901
0.773606
1.46918
0.356273
0.358661
0.361227
0.36397
0.366879
0.369984
0.373284
0.354101
0.35207
0.350234
0.348544
0.347099
0.345852
0.344963
0.3444
0.344559
0.345149
0.346412
0.348736
0.352198
0.356864
0.362734
0.369711
0.377524
0.385658
0.393341
0.39937
0.401881
0.399323
0.392555
0.382746
0.370062
0.35345
0.334298
0.315968
0.307085
0.320953
0.379378
0.512458
0.775952
1.49852
0.354099
0.356308
0.358725
0.361284
0.364017
0.366916
0.370007
0.373292
0.352066
0.350228
0.348534
0.347087
0.345833
0.34494
0.344369
0.344525
0.345117
0.346396
0.348769
0.352344
0.357243
0.363513
0.371104
0.379855
0.389377
0.399068
0.407952
0.414783
0.417313
0.414201
0.407876
0.39831
0.383761
0.364985
0.343535
0.322837
0.311301
0.322683
0.377765
0.5093
0.778317
1.52652
0.352063
0.354136
0.356379
0.35879
0.361342
0.364066
0.366953
0.370031
0.373301
0.350223
0.348526
0.347076
0.345815
0.344919
0.34434
0.344494
0.345088
0.346381
0.348793
0.352461
0.357549
0.364167
0.372314
0.381861
0.392547
0.403899
0.415111
0.425168
0.432499
0.434902
0.432641
0.426994
0.415506
0.398625
0.377316
0.353294
0.330033
0.315713
0.32466
0.376416
0.506493
0.780608
1.55317
0.350218
0.352102
0.354214
0.356454
0.358858
0.361402
0.364116
0.366992
0.370056
0.37331
0.348519
0.347066
0.3458
0.3449
0.344315
0.344466
0.345062
0.346367
0.348812
0.352562
0.357812
0.364726
0.373387
0.383694
0.395402
0.408189
0.421372
0.434121
0.445071
0.452789
0.456744
0.455682
0.448115
0.434159
0.4145
0.390322
0.363482
0.337486
0.320295
0.326776
0.375363
0.503929
0.782909
1.57844
0.348513
0.350259
0.352186
0.354295
0.35653
0.358927
0.361463
0.364167
0.367031
0.370081
0.373319
0.347058
0.345786
0.344885
0.344292
0.344441
0.345038
0.346354
0.348829
0.352651
0.358044
0.36522
0.374337
0.385381
0.398113
0.412208
0.42714
0.442216
0.456228
0.468006
0.478136
0.484193
0.481206
0.471042
0.454067
0.431224
0.403874
0.374001
0.34513
0.325002
0.32908
0.374578
0.501677
0.785135
1.60236
0.347051
0.348553
0.350345
0.352272
0.354378
0.356609
0.358999
0.361526
0.364219
0.367071
0.370107
0.373328
0.345774
0.344871
0.344271
0.344418
0.345016
0.346342
0.348843
0.35273
0.358252
0.365665
0.375194
0.386912
0.400687
0.416152
0.432725
0.449925
0.466636
0.481899
0.496826
0.510223
0.514808
0.509032
0.495555
0.475043
0.448628
0.417838
0.384754
0.352903
0.329794
0.331377
0.374098
0.499643
0.787361
1.62495
0.345764
0.347088
0.348639
0.350435
0.352362
0.354464
0.35669
0.359072
0.361591
0.364273
0.367113
0.370133
0.373338
0.344859
0.344252
0.344398
0.344997
0.346331
0.348855
0.3528
0.358439
0.366069
0.375977
0.388316
0.403075
0.419995
0.438356
0.457615
0.47685
0.495252
0.514398
0.533635
0.546281
0.548391
0.538947
0.521464
0.496885
0.46654
0.432077
0.395644
0.360739
0.334675
0.333681
0.373785
0.497869
0.789505
1.64624
0.34485
0.345794
0.347171
0.348729
0.350527
0.352454
0.354552
0.356773
0.359148
0.361658
0.364328
0.367156
0.37016
0.373347
0.344234
0.344379
0.344979
0.34632
0.348866
0.352863
0.358608
0.366436
0.376693
0.389611
0.405297
0.423622
0.443962
0.465576
0.487319
0.508735
0.531804
0.556373
0.57542
0.586189
0.584724
0.570709
0.548547
0.519399
0.484794
0.446469
0.406585
0.368584
0.339599
0.335985
0.373698
0.496282
0.791637
1.66627
0.344219
0.344874
0.345864
0.347257
0.348823
0.350623
0.352549
0.354643
0.356859
0.359225
0.361727
0.364385
0.367199
0.370187
0.373356
0.344363
0.344964
0.346311
0.348875
0.352919
0.35876
0.36677
0.377347
0.390807
0.407371
0.427036
0.449341
0.473684
0.498403
0.522912
0.549898
0.579662
0.604633
0.622208
0.629818
0.623597
0.604062
0.576559
0.542395
0.503243
0.460897
0.417496
0.376385
0.344526
0.338284
0.373746
0.494906
0.793681
1.6851
0.344351
0.344215
0.344931
0.345938
0.347348
0.34892
0.350722
0.352648
0.354737
0.356947
0.359305
0.361797
0.364443
0.367243
0.370213
0.373365
0.344949
0.346303
0.348883
0.35297
0.358897
0.367072
0.377946
0.391911
0.409302
0.430251
0.454482
0.481604
0.509886
0.53827
0.569462
0.604691
0.635574
0.659516
0.674094
0.677086
0.664793
0.638752
0.605264
0.565687
0.521743
0.47526
0.428304
0.384098
0.349419
0.340571
0.373874
0.493673
0.795701
1.70276
0.344941
0.34433
0.344218
0.344991
0.346017
0.347442
0.349022
0.350824
0.35275
0.354833
0.357038
0.359387
0.361869
0.364501
0.367285
0.370239
0.373374
0.346295
0.34889
0.353016
0.359021
0.367347
0.378492
0.392926
0.411094
0.433271
0.459386
0.489263
0.521247
0.554577
0.591249
0.63263
0.669998
0.700526
0.72167
0.73138
0.727988
0.708129
0.674545
0.634446
0.589106
0.540175
0.489469
0.438947
0.391679
0.354248
0.342836
0.374116
0.492614
0.797627
1.71932
0.346295
0.344889
0.344292
0.344223
0.345055
0.346103
0.347539
0.349128
0.350929
0.352855
0.354932
0.357132
0.359471
0.361941
0.364557
0.367325
0.370263
0.373382
0.348894
0.353056
0.359134
0.367597
0.378991
0.393858
0.412754
0.436099
0.464041
0.496628
0.532391
0.571146
0.614955
0.664686
0.709918
0.748235
0.776447
0.792321
0.794612
0.782618
0.753467
0.711241
0.663915
0.612495
0.558431
0.503449
0.449374
0.399097
0.358987
0.345069
0.374448
0.491668
0.799519
1.73481
0.348908
0.346197
0.344777
0.344249
0.344245
0.345121
0.346195
0.34764
0.349238
0.351037
0.352963
0.355034
0.357228
0.359554
0.36201
0.364612
0.367365
0.370287
0.37339
0.353091
0.359235
0.367824
0.379445
0.394714
0.414287
0.438736
0.468435
0.503674
0.543297
0.587793
0.639396
0.700681
0.758027
0.806826
0.843944
0.866375
0.873105
0.864466
0.841114
0.800694
0.74866
0.693503
0.635719
0.576417
0.517137
0.459542
0.40632
0.363616
0.347263
0.374834
0.490859
0.801314
1.74931
0.353137
0.348734
0.345971
0.344658
0.344207
0.344286
0.345189
0.346294
0.347744
0.349353
0.351149
0.353075
0.355139
0.357323
0.359635
0.362078
0.364665
0.367403
0.370311
0.373398
0.359323
0.368029
0.37986
0.395497
0.4157
0.441188
0.472566
0.510388
0.553925
0.604349
0.664158
0.739489
0.815873
0.882434
0.932057
0.962735
0.97337
0.965428
0.941432
0.903521
0.849679
0.786636
0.723064
0.658664
0.594054
0.530481
0.469418
0.413328
0.368117
0.349409
0.375274
0.490136
0.803068
1.76105
0.359423
0.352873
0.348314
0.345733
0.344553
0.344163
0.344341
0.34526
0.346399
0.347852
0.349471
0.351265
0.353189
0.355243
0.357415
0.359714
0.362143
0.364716
0.367441
0.370334
0.373406
0.368211
0.380235
0.396214
0.416999
0.443462
0.476434
0.51676
0.564213
0.620626
0.689187
0.781511
0.883059
0.978814
1.05062
1.09288
1.10814
1.09886
1.0697
1.02548
0.969666
0.900226
0.824995
0.752465
0.681235
0.611274
0.543438
0.478973
0.420101
0.372478
0.351503
0.375742
0.489524
0.804506
1.77094
0.368402
0.35904
0.352197
0.347878
0.345521
0.344459
0.344123
0.344408
0.345335
0.34651
0.347965
0.349594
0.351384
0.353303
0.355344
0.357505
0.359791
0.362207
0.364766
0.367477
0.370356
0.373414
0.380573
0.396866
0.418194
0.445566
0.480047
0.522783
0.574099
0.636504
0.714642
0.827289
0.959486
1.09262
1.20189
1.26752
1.29021
1.27944
1.24174
1.18495
1.11592
1.03909
0.952049
0.863554
0.781584
0.70335
0.628024
0.555977
0.48819
0.426627
0.376687
0.353537
0.376243
0.48905
0.805759
1.78168
0.380909
0.367866
0.358001
0.351497
0.347478
0.345327
0.344372
0.344091
0.344484
0.345415
0.346625
0.348082
0.34972
0.351502
0.353413
0.355443
0.357592
0.359865
0.362269
0.364815
0.367513
0.370377
0.373421
0.397458
0.419286
0.44751
0.483412
0.528452
0.583539
0.651943
0.740705
0.876677
1.04348
1.21904
1.3744
1.48299
1.52808
1.51879
1.47221
1.39877
1.30904
1.21146
1.11107
1.00477
0.902112
0.810303
0.724938
0.644263
0.568074
0.497052
0.432894
0.380739
0.355507
0.376686
0.488685
0.807122
1.79336
0.398026
0.38018
0.366319
0.35693
0.350848
0.347104
0.345145
0.344295
0.34407
0.344566
0.345501
0.346746
0.348204
0.349845
0.351619
0.353521
0.355539
0.357677
0.359938
0.36233
0.364863
0.367547
0.370398
0.373424
0.420283
0.449299
0.48654
0.53377
0.592516
0.666957
0.767411
0.928802
1.13212
1.35224
1.55772
1.71883
1.81114
1.82233
1.77049
1.6803
1.56565
1.4392
1.31047
1.18473
1.05796
0.940453
0.838512
0.745944
0.659957
0.579713
0.505552
0.4389
0.384627
0.35716
0.377092
0.488296
0.80866
1.80605
0.421215
0.397063
0.377928
0.364734
0.35593
0.350231
0.346752
0.344976
0.344228
0.344059
0.344652
0.345596
0.346869
0.348328
0.349967
0.351733
0.353626
0.355633
0.35776
0.360009
0.362388
0.364909
0.36758
0.370408
0.373424
0.450945
0.489435
0.538744
0.601032
0.681566
0.794606
0.982418
1.22235
1.48687
1.74349
1.9611
2.11184
2.17395
2.13992
2.03708
1.89756
1.73803
1.57259
1.41122
1.2591
1.11116
0.978363
0.86611
0.766317
0.675079
0.590881
0.513687
0.444641
0.387859
0.358583
0.377552
0.487917
0.810338
1.81984
0.452449
0.419971
0.393836
0.375636
0.363248
0.354973
0.349641
0.346419
0.344819
0.344173
0.344061
0.344742
0.3457
0.346992
0.348451
0.350086
0.351844
0.353727
0.355725
0.35784
0.360078
0.362445
0.364953
0.367597
0.370408
0.373424
0.492118
0.54338
0.609099
0.695775
0.822013
1.03628
1.31169
1.61901
1.92567
2.2006
2.41439
2.54074
2.56063
2.47189
2.3115
2.11863
1.91207
1.7066
1.5121
1.33327
1.1639
1.01564
0.893007
0.786014
0.689615
0.601575
0.521453
0.449394
0.390626
0.360165
0.378095
0.48752
0.81224
1.83481
0.494521
0.450856
0.415396
0.390578
0.373481
0.361819
0.35405
0.349075
0.346107
0.344676
0.344129
0.34408
0.344833
0.34581
0.347112
0.348572
0.350202
0.351953
0.353827
0.355814
0.357918
0.360145
0.3625
0.364976
0.367597
0.370408
0.373424
0.547707
0.616734
0.709573
0.84931
1.08934
1.3984
1.74612
2.10046
2.43122
2.70904
2.90531
2.99497
2.96219
2.81089
2.58799
2.33921
2.08467
1.8391
1.61171
1.40643
1.21576
1.05209
0.919117
0.805008
0.703555
0.611789
0.527877
0.453452
0.393681
0.361926
0.378713
0.487146
0.814325
1.85109
0.551535
0.492499
0.44442
0.410821
0.38751
0.371403
0.360437
0.353162
0.348533
0.34582
0.344546
0.344094
0.344124
0.344921
0.345922
0.347229
0.348691
0.350314
0.352059
0.353923
0.355901
0.357994
0.36021
0.362528
0.364976
0.367597
0.370408
0.373424
0.623978
0.72294
0.876188
1.14081
1.48136
1.86677
2.26574
2.64934
2.98934
3.2569
3.42355
3.46559
3.3711
3.15091
2.86201
2.556
2.25348
1.96844
1.70895
1.47789
1.2664
1.08754
0.944378
0.823278
0.716891
0.620247
0.533359
0.457922
0.39706
0.363892
0.379445
0.486764
0.816699
1.86876
0.630387
0.548954
0.483457
0.438049
0.406505
0.384545
0.369388
0.3591
0.352306
0.348012
0.345553
0.344427
0.344053
0.34419
0.345007
0.346036
0.347344
0.348808
0.350424
0.352163
0.354017
0.355985
0.358068
0.360242
0.362528
0.364976
0.367597
0.370408
0.373424
0.735874
0.902397
1.19012
1.55991
1.98021
2.42047
2.85307
3.25148
3.58817
3.8339
3.96001
3.9447
3.78092
3.48707
3.13007
2.76653
2.41676
2.0934
1.803
1.54713
1.31552
1.12187
0.968739
0.840809
0.727959
0.627467
0.539396
0.462854
0.400804
0.36609
0.380281
0.486427
0.819313
1.88796
0.747358
0.627116
0.536121
0.474616
0.43203
0.402329
0.381665
0.367434
0.357809
0.351484
0.347518
0.345306
0.344322
0.344016
0.344266
0.345092
0.34615
0.347456
0.348923
0.350532
0.352264
0.354108
0.356068
0.358104
0.360242
0.362528
0.364976
0.367597
0.370408
0.373421
0.927742
1.23692
1.63368
2.0861
2.56426
3.04165
3.49355
3.89464
4.21711
4.43063
4.5064
4.42527
4.18611
3.8154
3.3895
2.96904
2.57332
2.21317
1.89328
1.61375
1.36289
1.15497
0.992165
0.855399
0.737418
0.635421
0.546052
0.468304
0.404959
0.368559
0.381276
0.486101
0.822305
1.90879
0.74334
0.950067
0.608099
0.523842
0.466248
0.4262
0.398267
0.378868
0.365544
0.356566
0.350698
0.347053
0.345083
0.344232
0.34399
0.344348
0.345179
0.346263
0.347567
0.349035
0.350637
0.352362
0.354197
0.356108
0.358104
0.360242
0.362528
0.364976
0.367597
0.370398
0.373413
1.281
1.70257
2.18442
2.69714
3.21503
3.71495
4.17413
4.56758
4.8663
5.0383
5.05497
4.90092
4.58197
4.13279
3.63834
3.16234
2.72241
2.32722
1.9794
1.67752
1.40837
1.18678
1.01169
0.867883
0.747848
0.644198
0.553405
0.474335
0.40958
0.371331
0.382417
0.48585
0.82562
1.93139
0.713461
0.946072
1.31901
0.590476
0.512242
0.458133
0.420526
0.394318
0.376157
0.363718
0.355371
0.34995
0.346623
0.344887
0.344159
0.343978
0.344432
0.345267
0.346374
0.347676
0.349144
0.350739
0.352458
0.354241
0.356108
0.358104
0.360242
0.362528
0.364976
0.36758
0.370377
0.373406
1.76656
2.27531
2.81937
3.3736
3.91602
4.42618
4.88262
5.25981
5.52647
5.64863
5.59857
5.36605
4.96461
4.43682
3.87524
3.34568
2.86361
2.43527
2.06118
1.73827
1.45188
1.21326
1.0284
0.881664
0.759369
0.6539
0.561541
0.481023
0.414728
0.374465
0.383783
0.485645
0.829433
1.95588
0.68611
0.898536
1.31521
1.82114
0.574088
0.500984
0.450235
0.415007
0.390487
0.373535
0.361961
0.354229
0.349249
0.346239
0.344719
0.344101
0.343977
0.344517
0.345357
0.346484
0.347784
0.349251
0.35084
0.352506
0.354241
0.356108
0.358104
0.360242
0.362528
0.364953
0.367546
0.370355
0.373398
2.35903
2.93145
3.51803
4.09762
4.65161
5.16192
5.60771
5.96158
6.18893
6.25377
6.13063
5.81579
5.33089
4.72576
4.09936
3.51868
2.99671
2.53722
2.13855
1.79596
1.48789
1.23587
1.04684
0.896898
0.772113
0.664642
0.570559
0.488453
0.420479
0.378003
0.385355
0.485561
0.833688
1.98241
0.661052
0.853731
1.24622
1.81851
2.42974
0.558353
0.490016
0.442555
0.409648
0.386778
0.371007
0.360276
0.353151
0.348611
0.345903
0.344575
0.344059
0.34399
0.3446
0.34545
0.34659
0.34789
0.349356
0.350889
0.352505
0.354241
0.356108
0.358104
0.360242
0.3625
0.364908
0.367512
0.370333
0.37339
3.03393
3.64927
4.26103
4.85202
5.40692
5.90977
6.33907
6.66392
6.84544
6.84641
6.64527
6.24605
5.67845
4.99849
4.31023
3.6812
3.12176
2.63313
2.21152
1.84338
1.51853
1.26077
1.06721
0.91376
0.786234
0.676557
0.580574
0.496725
0.426915
0.382032
0.387246
0.485634
0.838611
2.0111
0.637509
0.811829
1.17851
1.73056
2.42925
3.11975
0.543121
0.479342
0.435103
0.40446
0.383201
0.368579
0.358679
0.352163
0.348042
0.345608
0.344452
0.34403
0.344019
0.34468
0.345544
0.346695
0.347995
0.349408
0.350888
0.352506
0.354241
0.356108
0.358104
0.360209
0.362444
0.364861
0.367476
0.37031
0.373382
3.76826
4.4078
5.02948
5.6202
6.16825
6.65868
7.06753
7.35855
7.48832
7.41982
7.13738
6.65362
6.00565
5.25435
4.50773
3.83336
3.23891
2.72313
2.27112
1.8835
1.55209
1.28818
1.08974
0.93245
0.801907
0.689798
0.591721
0.505956
0.434141
0.386608
0.389434
0.485864
0.84415
2.04208
0.615208
0.772295
1.11246
1.64247
2.3249
3.12193
3.86672
0.528349
0.468983
0.427893
0.399454
0.379763
0.366275
0.357211
0.351276
0.347534
0.345354
0.344349
0.344006
0.344065
0.344758
0.34564
0.3468
0.348046
0.349407
0.350887
0.352506
0.354241
0.356108
0.358067
0.360144
0.362387
0.364814
0.36744
0.370287
0.373374
4.53947
5.18645
5.80496
6.387
6.9236
7.39923
7.78498
8.03781
8.11032
7.96792
7.60276
7.03621
6.31152
5.49312
4.69201
3.97542
3.34841
2.7963
2.32136
1.92723
1.58885
1.31838
1.11466
0.953188
0.819334
0.704543
0.604156
0.516283
0.442272
0.391869
0.391956
0.486372
0.850602
2.07547
0.59401
0.735076
1.04772
1.55452
2.21937
3.00322
3.87086
4.64637
0.514036
0.458964
0.420942
0.394643
0.376498
0.364152
0.355888
0.35048
0.347079
0.345136
0.344261
0.343979
0.344123
0.344836
0.34574
0.346849
0.348044
0.349407
0.350888
0.352506
0.354241
0.356067
0.357993
0.360076
0.362328
0.364765
0.367402
0.370263
0.373365
5.32524
5.96483
6.5707
7.13921
7.66308
8.12355
8.4842
8.69448
8.70468
8.48547
8.03821
7.3923
6.59565
5.71499
4.86342
4.10773
3.43709
2.85779
2.37588
1.97485
1.62911
1.35165
1.14224
0.976224
0.83874
0.720993
0.61806
0.527867
0.451455
0.397933
0.394881
0.487279
0.857942
2.11807
0.573828
0.70023
0.984486
1.46616
2.11287
2.88292
3.73916
4.65025
5.43468
0.500204
0.449317
0.414268
0.390073
0.373488
0.362237
0.354697
0.349764
0.346673
0.344948
0.344189
0.343959
0.344188
0.344919
0.345788
0.346844
0.348044
0.349407
0.350888
0.352506
0.354197
0.355984
0.357916
0.360007
0.362267
0.364714
0.367364
0.370238
0.373356
6.10316
6.72457
7.31209
7.86626
8.37905
8.82504
9.15854
9.32166
9.2653
8.96824
8.44153
7.72119
6.85818
5.92038
5.02245
4.21451
3.51145
2.92431
2.435
2.02669
1.67317
1.38828
1.17278
1.00183
0.860381
0.739384
0.633647
0.5409
0.461857
0.404971
0.398308
0.488568
0.868139
2.16879
0.554595
0.667809
0.923212
1.37735
2.00476
2.76101
3.6062
4.50599
5.43456
6.20859
0.486884
0.440072
0.407935
0.385863
0.370772
0.360509
0.353624
0.349123
0.346315
0.344788
0.344129
0.343949
0.344266
0.344953
0.345783
0.346844
0.348044
0.349407
0.350889
0.352458
0.354107
0.355899
0.357838
0.359936
0.362205
0.364663
0.367324
0.370213
0.373347
6.85333
7.44945
8.01762
8.56059
9.06541
9.49802
9.80169
9.91273
9.78687
9.41308
8.81153
8.02293
7.09965
6.10993
5.15026
4.30388
3.59173
2.99623
2.49907
2.08307
1.72136
1.4286
1.20659
1.03032
0.884542
0.75998
0.651162
0.555613
0.473694
0.413139
0.402367
0.490797
0.881585
2.21988
0.536266
0.637813
0.864485
1.28836
1.89467
2.63678
3.47161
4.3617
5.27687
6.1999
6.94661
0.474114
0.431319
0.402105
0.382064
0.36832
0.358951
0.352659
0.34855
0.346001
0.344649
0.344082
0.343964
0.344302
0.344939
0.345785
0.346845
0.348044
0.349409
0.35084
0.352361
0.354015
0.355812
0.357757
0.359863
0.362141
0.36461
0.367284
0.370187
0.373338
7.5578
8.12685
8.67974
9.21628
9.71743
10.1378
10.407
10.4617
10.265
9.81805
9.14804
8.29816
7.32088
6.26142
5.25696
4.40014
3.67832
3.07392
2.56843
2.14432
1.774
1.47293
1.244
1.06201
0.911541
0.783082
0.670897
0.57227
0.487205
0.422702
0.408115
0.494358
0.896909
2.27097
0.518809
0.610159
0.808986
1.19967
1.7825
2.50954
3.3347
4.21657
5.12156
6.02605
6.92331
7.62947
0.462023
0.423285
0.39685
0.378639
0.366109
0.357547
0.351792
0.348039
0.345724
0.344532
0.344067
0.343959
0.344293
0.344938
0.345785
0.346845
0.348047
0.349357
0.350738
0.352262
0.35392
0.355722
0.357674
0.359788
0.362076
0.364556
0.367242
0.37016
0.373328
8.20268
8.74919
9.28762
9.82034
10.3219
10.7352
10.969
10.9626
10.6968
10.1826
9.45175
8.54792
7.49631
6.38742
5.37158
4.50373
3.77161
3.15775
2.64342
2.21076
1.8314
1.52161
1.28535
1.09725
0.941718
0.809025
0.69317
0.591201
0.502721
0.435973
0.416152
0.499182
0.91419
2.32165
0.502328
0.584687
0.757379
1.11206
1.66836
2.3788
3.1945
4.06999
4.96717
5.85862
6.72951
7.58396
8.24269
0.450938
0.416064
0.392115
0.37555
0.364115
0.356283
0.351014
0.347582
0.345483
0.344461
0.344045
0.343931
0.344297
0.344938
0.345784
0.346851
0.347996
0.349251
0.350635
0.35216
0.353824
0.35563
0.357589
0.359712
0.362009
0.3645
0.367199
0.370133
0.373319
8.77783
9.30452
9.84098
10.3794
10.8793
11.2809
11.4793
11.411
11.0808
10.5072
9.72396
8.7439
7.64144
6.52222
5.49452
4.61502
3.87198
3.24806
2.72437
2.28272
1.8939
1.57496
1.33097
1.1364
0.975438
0.838169
0.718371
0.612768
0.523875
0.45399
0.425873
0.505312
0.933804
2.37152
0.487208
0.561338
0.710221
1.02647
1.55253
2.24423
3.05012
3.92076
4.81325
5.69514
6.54766
7.36588
8.1619
8.77853
0.440998
0.409575
0.387851
0.372767
0.362318
0.355146
0.350314
0.347179
0.345314
0.344407
0.344011
0.343932
0.344298
0.34494
0.34579
0.346801
0.34789
0.349143
0.35053
0.352056
0.353724
0.355537
0.357502
0.359633
0.36194
0.364443
0.367156
0.370106
0.37331
9.28011
9.79451
10.3395
10.8952
11.3939
11.7726
11.9321
11.8044
11.4172
10.7936
9.93459
8.90481
7.79574
6.66608
5.62609
4.73436
3.97977
3.34518
2.81159
2.36047
1.96176
1.63327
1.3812
1.1798
1.01306
0.870922
0.746865
0.641956
0.551863
0.474863
0.437623
0.513161
0.955993
2.42003
0.473624
0.540381
0.668073
0.944129
1.43556
2.10572
2.90075
3.76762
4.6584
5.53526
6.37412
7.16632
7.91637
8.64011
9.21973
0.432099
0.403743
0.384013
0.37026
0.3607
0.35412
0.349691
0.346876
0.3452
0.344362
0.344015
0.343933
0.344294
0.344955
0.345742
0.346695
0.347783
0.349033
0.350422
0.35195
0.353623
0.355441
0.357413
0.359553
0.361869
0.364385
0.367112
0.37008
0.373301
9.69676
10.2123
10.7795
11.3615
11.8619
12.206
12.3231
12.1425
11.7079
11.011
10.1057
9.07437
7.95917
6.81914
5.76652
4.86203
4.09528
3.4494
2.90535
2.44427
2.03524
1.69681
1.43632
1.22777
1.05497
0.907613
0.785113
0.679944
0.583359
0.499019
0.45198
0.522906
0.981093
2.46676
0.461443
0.521757
0.631821
0.8671
1.31832
1.9633
2.74569
3.60929
4.50105
5.37733
6.20858
6.98081
7.69567
8.36513
9.01325
9.5584
0.424138
0.398503
0.380561
0.368003
0.359239
0.353202
0.349207
0.346688
0.345135
0.344368
0.344016
0.343934
0.344305
0.344922
0.345642
0.34659
0.347675
0.34892
0.350312
0.351842
0.353518
0.355342
0.357321
0.359471
0.361797
0.364327
0.367071
0.370055
0.373292
10.024
10.5563
11.1612
11.7752
12.2744
12.5742
12.6488
12.4271
11.9228
11.1851
10.2838
9.25206
8.1315
6.98136
5.91595
4.99825
4.21873
3.56095
3.00585
2.53431
2.11451
1.76579
1.49656
1.28059
1.1014
0.956334
0.833993
0.721754
0.618632
0.526923
0.469466
0.535112
1.0096
2.51107
0.450546
0.505075
0.601341
0.798621
1.20294
1.81728
2.58437
3.44447
4.33951
5.21958
6.04908
6.80896
7.49577
8.12028
8.70151
9.27245
9.78952
0.417016
0.393797
0.377456
0.365966
0.357929
0.352474
0.348916
0.346602
0.345144
0.344369
0.344014
0.343963
0.34427
0.344839
0.345546
0.346483
0.347566
0.348806
0.350199
0.351731
0.353412
0.355242
0.357228
0.359387
0.361726
0.364272
0.36703
0.37003
0.373284
10.2576
10.8262
11.4847
12.1331
12.6212
12.872
12.907
12.6294
12.0912
11.3631
10.4677
9.43702
8.3122
7.15252
6.07434
5.14307
4.35025
3.67995
3.11322
2.63069
2.19969
1.8403
1.56207
1.33838
1.16225
1.01734
0.886563
0.767302
0.657811
0.558909
0.490826
0.550168
1.04182
2.55262
0.440823
0.490073
0.575487
0.740127
1.0941
1.66934
2.41636
3.27184
4.1719
5.05996
5.89363
6.64834
7.31629
7.90366
8.42858
8.9175
9.40702
9.90392
0.410646
0.389572
0.374658
0.364139
0.356875
0.352047
0.348803
0.346615
0.345146
0.344365
0.34405
0.34397
0.344192
0.344762
0.345452
0.346374
0.347456
0.348689
0.350084
0.351618
0.353302
0.355139
0.357132
0.359304
0.361657
0.364217
0.36699
0.370006
0.373276
10.3933
11.024
11.7513
12.4226
12.8956
13.0971
13.0739
12.7824
12.2586
11.5427
10.6555
9.62801
8.50044
7.33213
6.24143
5.2964
4.48982
3.80644
3.22748
2.73342
2.29076
1.92036
1.63285
1.41307
1.23685
1.08143
0.942329
0.816283
0.700782
0.595199
0.516636
0.568864
1.0786
2.59069
0.432164
0.476575
0.553253
0.691098
0.995197
1.52452
2.24273
3.09009
3.99614
4.89612
5.73995
6.49673
7.15416
7.71499
8.19318
8.61224
9.00597
9.40455
9.88933
0.404946
0.38577
0.372149
0.362654
0.356265
0.351898
0.348823
0.346617
0.34514
0.344413
0.344075
0.343957
0.344128
0.344684
0.34536
0.346263
0.347344
0.348571
0.349966
0.351503
0.35319
0.355035
0.357038
0.359223
0.36159
0.364165
0.366952
0.369983
0.373268
10.4301
11.1551
11.9416
12.6435
13.0866
13.2305
13.1884
12.9269
12.422
11.7213
10.8451
9.82328
8.69498
7.51938
6.41674
5.45796