/*--------------------------------*- C++ -*----------------------------------*\
  =========                 |
  \\      /  F ield         | OpenFOAM: The Open Source CFD Toolbox
   \\    /   O peration     | Website:  https://openfoam.org
    \\  /    A nd           | Version:  8
     \\/     M anipulation  |
\*---------------------------------------------------------------------------*/
FoamFile
{
    version     2.0;
    format      ascii;
    class       surfaceScalarField;
    location    "0.22";
    object      phi;
}
// * * * * * * * * * * * * * * * * * * * * * * * * * * * * * * * * * * * * * //

dimensions      [0 3 -1 0 0 0 0];

internalField   nonuniform List<scalar> 
31053
(
6.27714e-07
1.27523e-05
8.49605e-07
1.51581e-05
3.76228e-07
1.23761e-05
9.32307e-07
1.75573e-05
5.88711e-07
1.49456e-05
2.69477e-07
1.21066e-05
9.5596e-07
2.02163e-05
7.06833e-07
1.74392e-05
4.64515e-07
1.47506e-05
2.15946e-07
1.18906e-05
9.4697e-07
2.3249e-05
7.66296e-07
2.01569e-05
5.89848e-07
1.73138e-05
3.96036e-07
1.45705e-05
1.72505e-07
1.17181e-05
9.17031e-07
2.66899e-05
7.91304e-07
2.3224e-05
6.64812e-07
2.00819e-05
5.23495e-07
1.71864e-05
3.33277e-07
1.44097e-05
1.37917e-07
1.15802e-05
8.7164e-07
3.06654e-05
7.94051e-07
2.66872e-05
7.06738e-07
2.31821e-05
6.04698e-07
2.00007e-05
4.55658e-07
1.7064e-05
2.78503e-07
1.42691e-05
1.10748e-07
1.14695e-05
8.14199e-07
3.51974e-05
7.81439e-07
3.0678e-05
7.26488e-07
2.66674e-05
6.53076e-07
2.31337e-05
5.36907e-07
1.99195e-05
3.9149e-07
1.6951e-05
2.31385e-07
1.41485e-05
8.82703e-08
1.13812e-05
7.47551e-07
4.03866e-05
7.57275e-07
3.52216e-05
7.30374e-07
3.06741e-05
6.78654e-07
2.66419e-05
5.86041e-07
2.30845e-05
4.6875e-07
1.98422e-05
3.32578e-07
1.68498e-05
1.89265e-07
1.40475e-05
6.85604e-08
1.13126e-05
6.73409e-07
4.63541e-05
7.23497e-07
4.04204e-05
7.21639e-07
3.52303e-05
6.87389e-07
3.06654e-05
6.12075e-07
2.66158e-05
5.15145e-07
2.30381e-05
4.03059e-07
1.97717e-05
2.76727e-07
1.67624e-05
1.50214e-07
1.39659e-05
5.04623e-08
1.12622e-05
5.93456e-07
5.322e-05
6.82156e-07
4.63955e-05
7.015e-07
4.04406e-05
6.82802e-07
3.52349e-05
6.2098e-07
3.06565e-05
5.38304e-07
2.65927e-05
4.44156e-07
2.29971e-05
3.37943e-07
1.97105e-05
2.22371e-07
1.66902e-05
1.12955e-07
1.39034e-05
3.32053e-08
1.1229e-05
5.09618e-07
6.10638e-05
6.34911e-07
5.32672e-05
6.71242e-07
4.64257e-05
6.67238e-07
4.04561e-05
6.16264e-07
3.52396e-05
5.44007e-07
3.06508e-05
4.61941e-07
2.65749e-05
3.71353e-07
2.29636e-05
2.72049e-07
1.96608e-05
1.68452e-07
1.66347e-05
7.65517e-08
1.386e-05
1.62816e-08
1.12127e-05
4.24408e-07
7.00672e-05
5.83278e-07
6.11155e-05
6.31956e-07
5.33065e-05
6.41354e-07
4.64516e-05
6.0005e-07
4.04723e-05
5.35736e-07
3.52479e-05
4.61777e-07
3.06509e-05
3.81376e-07
2.65649e-05
2.95433e-07
2.29403e-05
2.04434e-07
1.96249e-05
1.14174e-07
1.65971e-05
4.0312e-08
1.3836e-05
-4.69687e-10
1.12132e-05
3.41525e-07
8.04149e-05
5.28294e-07
7.01222e-05
5.84851e-07
6.11626e-05
6.05506e-07
5.33423e-05
5.73358e-07
4.64783e-05
5.15436e-07
4.04926e-05
4.47028e-07
3.52627e-05
3.7279e-07
3.06595e-05
2.95326e-07
2.6565e-05
2.15477e-07
2.29292e-05
1.34419e-07
1.96046e-05
5.89029e-08
1.65785e-05
3.8578e-09
1.38317e-05
-1.73267e-08
1.12305e-05
2.77996e-07
7.62535e-05
4.7002e-07
8.04732e-05
5.31287e-07
7.01758e-05
5.60082e-07
6.1208e-05
5.36548e-07
5.33791e-05
4.84069e-07
4.65097e-05
4.19533e-07
4.05201e-05
3.48777e-07
3.52867e-05
2.75801e-07
3.0679e-05
2.02858e-07
2.65776e-05
1.30814e-07
2.29328e-05
6.14698e-08
1.9602e-05
2.3531e-09
1.658e-05
-3.30393e-08
1.38474e-05
-3.44241e-08
1.12649e-05
2.27127e-07
7.62409e-05
4.17675e-07
7.63059e-05
4.72648e-07
8.05318e-05
5.05706e-07
7.02301e-05
4.89796e-07
6.12548e-05
4.41986e-07
5.34212e-05
3.80149e-07
4.65491e-05
3.11064e-07
4.05579e-05
2.39768e-07
3.53227e-05
1.69855e-07
3.07121e-05
1.03252e-07
2.66052e-05
4.09114e-08
2.29534e-05
-1.46218e-08
1.9619e-05
-5.57558e-08
1.66027e-05
-7.05278e-08
1.38835e-05
-5.17722e-08
1.13167e-05
1.86618e-07
7.62305e-05
3.686e-07
7.62899e-05
4.2037e-07
7.63582e-05
4.43487e-07
8.0594e-05
4.33374e-07
7.02866e-05
3.89321e-07
6.13074e-05
3.29151e-07
5.34722e-05
2.60384e-07
4.65997e-05
1.88785e-07
4.06088e-05
1.19021e-07
3.53735e-05
5.41629e-08
3.07611e-05
-4.04081e-09
2.66501e-05
-5.43431e-08
2.29931e-05
-9.39026e-08
1.96572e-05
-1.1523e-07
1.66474e-05
-1.08511e-07
1.39402e-05
-6.91906e-08
1.13859e-05
1.54048e-07
7.62246e-05
3.23069e-07
7.6276e-05
3.71444e-07
7.63389e-05
3.86885e-07
7.64148e-05
3.67949e-07
8.06594e-05
3.26264e-07
7.03496e-05
2.66612e-07
6.137e-05
1.96908e-07
5.35357e-05
1.23432e-07
4.66651e-05
5.16786e-08
4.06762e-05
-1.43346e-08
3.5442e-05
-7.18355e-08
3.08289e-05
-1.1908e-07
2.67148e-05
-1.54848e-07
2.3054e-05
-1.76005e-07
1.97179e-05
-1.75857e-07
1.67148e-05
-1.46708e-07
1.40177e-05
-8.65469e-08
1.14724e-05
1.27605e-07
7.62164e-05
2.81418e-07
7.62662e-05
3.25926e-07
7.63216e-05
3.33348e-07
7.63924e-05
3.07392e-07
7.64753e-05
2.53424e-07
8.07323e-05
1.92664e-07
7.04236e-05
1.20658e-07
6.14462e-05
4.37497e-08
5.36154e-05
-3.17926e-08
4.67486e-05
-1.01215e-07
4.07631e-05
-1.60877e-07
3.55311e-05
-2.08201e-07
3.09181e-05
-2.41645e-07
2.68016e-05
-2.60016e-07
2.31381e-05
-2.6039e-07
1.98025e-05
-2.37087e-07
1.68051e-05
-1.84752e-07
1.41159e-05
-1.03585e-07
1.1576e-05
1.05961e-07
7.62116e-05
2.43663e-07
7.62542e-05
2.8385e-07
7.63083e-05
2.83304e-07
7.63716e-05
2.49546e-07
7.64503e-05
1.86085e-07
7.65427e-05
1.07937e-07
8.0817e-05
3.17556e-08
7.05125e-05
-5.03054e-08
6.15403e-05
-1.31523e-07
5.37151e-05
-2.06365e-07
4.68537e-05
-2.70516e-07
4.08727e-05
-3.20664e-07
3.56435e-05
-3.54528e-07
3.10309e-05
-3.70931e-07
2.69126e-05
-3.68985e-07
2.32467e-05
-3.46151e-07
1.99115e-05
-2.98261e-07
1.69187e-05
-2.22162e-07
1.42345e-05
-1.20111e-07
1.16961e-05
8.81341e-08
7.62078e-05
2.09647e-07
7.62457e-05
2.45163e-07
7.62929e-05
2.37021e-07
7.63546e-05
1.95197e-07
7.6426e-05
1.219e-07
7.65144e-05
3.01042e-08
7.66205e-05
-6.91172e-08
8.09179e-05
-1.58601e-07
7.06208e-05
-2.47639e-07
6.16564e-05
-3.30127e-07
5.38389e-05
-4.00947e-07
4.69842e-05
-4.56252e-07
4.10083e-05
-4.9309e-07
3.57821e-05
-5.09833e-07
3.11698e-05
-5.05765e-07
2.70493e-05
-4.80447e-07
2.33809e-05
-4.3226e-07
2.00455e-05
-3.58581e-07
1.70551e-05
-2.58423e-07
1.43728e-05
-1.35799e-07
1.18319e-05
7.45283e-08
6.95956e-05
1.7916e-07
7.62383e-05
2.09782e-07
7.6281e-05
1.9462e-07
7.63353e-05
1.44846e-07
7.64049e-05
6.18434e-08
7.6486e-05
-4.36782e-08
7.65882e-05
-1.61136e-07
7.67125e-05
-2.80276e-07
8.10396e-05
-3.79983e-07
7.07531e-05
-4.7274e-07
6.1799e-05
-5.52775e-07
5.39907e-05
-6.15544e-07
4.71434e-05
-6.57627e-07
4.11728e-05
-6.76992e-07
3.59493e-05
-6.72618e-07
3.13367e-05
-6.44427e-07
2.72133e-05
-5.92952e-07
2.35416e-05
-5.17489e-07
2.02044e-05
-4.17156e-07
1.72138e-05
-2.92927e-07
1.45299e-05
-1.50442e-07
1.19824e-05
6.40714e-08
6.25545e-05
1.54314e-07
6.96205e-05
1.77605e-07
7.62705e-05
1.56113e-07
7.63195e-05
9.88171e-08
7.63813e-05
6.56436e-09
7.64602e-05
-1.12247e-07
7.65546e-05
-2.47831e-07
7.66749e-05
-3.90478e-07
7.68227e-05
-5.27495e-07
8.11871e-05
-6.34038e-07
7.09144e-05
-7.2639e-07
6.19726e-05
-7.99469e-07
5.41746e-05
-8.49166e-07
4.7335e-05
-8.73277e-07
4.13691e-05
-8.70526e-07
3.61472e-05
-8.40732e-07
3.1533e-05
-7.85014e-07
2.74054e-05
-7.04765e-07
2.37289e-05
-6.00512e-07
2.03878e-05
-4.7302e-07
1.73939e-05
-3.25147e-07
1.47047e-05
-1.6364e-07
1.2146e-05
5.58717e-08
5.62262e-05
1.34314e-07
6.25745e-05
1.50823e-07
6.96472e-05
1.21456e-07
7.63051e-05
5.72873e-08
7.63611e-05
-4.35057e-08
7.64314e-05
-1.74778e-07
7.65227e-05
-3.27852e-07
7.66346e-05
-4.93696e-07
7.67781e-05
-6.60281e-07
7.69555e-05
-8.12719e-07
8.13657e-05
-9.21632e-07
7.11096e-05
-1.00861e-06
6.21817e-05
-1.06902e-06
5.43945e-05
-1.10024e-06
4.75619e-05
-1.10099e-06
4.15996e-05
-1.07107e-06
3.63775e-05
-1.0118e-06
3.17598e-05
-9.2526e-07
2.76259e-05
-8.14077e-07
2.39425e-05
-6.79904e-07
2.05947e-05
-5.25253e-07
1.7594e-05
-3.54196e-07
1.48952e-05
-1.74789e-07
1.23208e-05
4.93357e-08
5.05385e-05
1.18109e-07
5.62424e-05
1.28801e-07
6.25965e-05
9.30895e-08
6.96756e-05
2.03523e-08
7.63421e-05
-8.8066e-08
7.64056e-05
-2.30686e-07
7.64873e-05
-4.0019e-07
7.65951e-05
-5.88376e-07
7.67293e-05
-7.8401e-07
7.69019e-05
-9.72798e-07
7.71156e-05
-1.13694e-06
8.15811e-05
-1.24285e-06
7.13439e-05
-1.31803e-06
6.24308e-05
-1.35964e-06
5.46539e-05
-1.36616e-06
4.78271e-05
-1.33765e-06
4.18661e-05
-1.27576e-06
3.66415e-05
-1.18299e-06
3.20175e-05
-1.06283e-06
2.78746e-05
-9.18922e-07
2.41815e-05
-7.54309e-07
2.08237e-05
-5.72524e-07
1.78123e-05
-3.79345e-07
1.50998e-05
-1.81652e-07
1.25024e-05
4.40542e-08
4.54253e-05
1.04885e-07
5.05518e-05
1.10624e-07
5.62606e-05
7.02065e-08
6.26194e-05
-9.31258e-09
6.97053e-05
-1.2693e-07
7.63809e-05
-2.79579e-07
7.64545e-05
-4.64094e-07
7.65512e-05
-6.73297e-07
7.668e-05
-8.96903e-07
7.68422e-05
-1.12137e-06
7.70504e-05
-1.32918e-06
7.73078e-05
-1.50037e-06
8.18386e-05
-1.59615e-06
7.1622e-05
-1.65263e-06
6.27237e-05
-1.66831e-06
5.4956e-05
-1.64325e-06
4.81327e-05
-1.57985e-06
4.21702e-05
-1.48118e-06
3.69397e-05
-1.35141e-06
3.23061e-05
-1.19516e-06
2.81509e-05
-1.01744e-06
2.44446e-05
-8.21943e-07
2.10732e-05
-6.13907e-07
1.80469e-05
-3.96335e-07
1.53145e-05
-1.51459e-07
1.26539e-05
3.97318e-08
4.08303e-05
9.40193e-08
4.54361e-05
9.55594e-08
5.05668e-05
5.17141e-08
5.62791e-05
-3.26656e-08
6.26427e-05
-1.57355e-07
6.97357e-05
-3.21193e-07
7.64226e-05
-5.1903e-07
7.65095e-05
-7.47516e-07
7.66254e-05
-9.97508e-07
7.67806e-05
-1.25638e-06
7.69772e-05
-1.50712e-06
7.72284e-05
-1.72981e-06
7.75372e-05
-1.90134e-06
8.21438e-05
-1.97932e-06
7.19487e-05
-2.00898e-06
6.30644e-05
-1.9908e-06
5.53036e-05
-1.92758e-06
4.84804e-05
-1.82353e-06
4.25126e-05
-1.68377e-06
3.7272e-05
-1.51382e-06
3.26248e-05
-1.31983e-06
2.84532e-05
-1.10738e-06
2.47301e-05
-8.8135e-07
2.13406e-05
-6.43937e-07
1.82945e-05
-3.91978e-07
1.5555e-05
-1.03645e-07
1.27575e-05
3.61528e-08
3.66996e-05
8.50433e-08
4.08393e-05
8.30397e-08
4.54487e-05
3.67533e-08
5.05818e-05
-5.0998e-08
5.62974e-05
-1.80539e-07
6.26659e-05
-3.52699e-07
6.97672e-05
-5.64621e-07
7.64682e-05
-8.10334e-07
7.65723e-05
-1.08466e-06
7.67126e-05
-1.37613e-06
7.69004e-05
-1.66839e-06
7.71385e-05
-1.94183e-06
7.74404e-05
-2.17294e-06
7.78088e-05
-2.33748e-06
8.25019e-05
-2.38854e-06
7.23283e-05
-2.3823e-06
6.34559e-05
-2.32253e-06
5.56985e-05
-2.21431e-06
4.88712e-05
-2.0644e-06
4.28932e-05
-1.87959e-06
3.76378e-05
-1.66725e-06
3.29722e-05
-1.43411e-06
2.878e-05
-1.1867e-06
2.50354e-05
-9.27413e-07
2.16241e-05
-6.57098e-07
1.85596e-05
-3.68325e-07
1.58196e-05
-8.07551e-08
1.28383e-05
3.31589e-08
3.2989e-05
7.75937e-08
3.6707e-05
7.26296e-08
4.08497e-05
2.46181e-08
4.54608e-05
-6.53491e-08
5.05961e-05
-1.98013e-07
5.63149e-05
-3.7567e-07
6.26889e-05
-5.97884e-07
6.98005e-05
-8.61248e-07
7.65191e-05
-1.15748e-06
7.66451e-05
-1.47919e-06
7.68156e-05
-1.81098e-06
7.70429e-05
-2.13374e-06
7.73304e-05
-2.42379e-06
7.76912e-05
-2.6562e-06
7.81276e-05
-2.80467e-06
8.29181e-05
-2.81839e-06
7.27644e-05
-2.76722e-06
6.39006e-05
-2.65783e-06
5.6142e-05
-2.4984e-06
4.93052e-05
-2.29782e-06
4.33114e-05
-2.06513e-06
3.80357e-05
-1.80845e-06
3.33465e-05
-1.53547e-06
2.91287e-05
-1.25107e-06
2.53591e-05
-9.56717e-07
2.19237e-05
-6.57466e-07
1.88488e-05
-3.45976e-07
1.60849e-05
-7.6853e-08
1.29151e-05
3.06338e-08
2.96505e-05
7.13761e-08
3.29952e-05
6.39689e-08
3.67157e-05
1.47257e-08
4.08596e-05
-7.65547e-08
4.5472e-05
-2.11016e-07
5.06091e-05
-3.91983e-07
5.63312e-05
-6.2087e-07
6.27119e-05
-8.97047e-07
6.98363e-05
-1.2153e-06
7.65769e-05
-1.56444e-06
7.67304e-05
-1.93318e-06
7.69378e-05
-2.30315e-06
7.72124e-05
-2.65079e-06
7.75574e-05
-2.95069e-06
7.79857e-05
-3.17521e-06
7.84981e-05
-3.29674e-06
8.33964e-05
-3.26279e-06
7.32599e-05
-3.15733e-06
6.44001e-05
-2.99095e-06
5.66346e-05
-2.77449e-06
4.97819e-05
-2.51966e-06
4.3766e-05
-2.23657e-06
3.84638e-05
-1.93447e-06
3.37455e-05
-1.62018e-06
2.94979e-05
-1.29781e-06
2.57002e-05
-9.73809e-07
2.224e-05
-6.52605e-07
1.91554e-05
-3.35157e-07
1.63432e-05
-8.25843e-08
1.29977e-05
2.84899e-08
2.66501e-05
6.61538e-08
2.96557e-05
5.67438e-08
3.30024e-05
6.6188e-09
3.67238e-05
-8.52889e-08
4.08683e-05
-2.20545e-07
4.54815e-05
-4.03158e-07
5.06203e-05
-6.35923e-07
5.63462e-05
-9.20377e-07
6.27352e-05
-1.25459e-06
6.98756e-05
-1.63104e-06
7.66435e-05
-2.03359e-06
7.68308e-05
-2.448e-06
7.70827e-05
-2.85115e-06
7.74127e-05
-3.21739e-06
7.78241e-05
-3.51797e-06
7.83285e-05
-3.72326e-06
7.89246e-05
-3.80706e-06
8.39407e-05
-3.71453e-06
7.38171e-05
-3.54607e-06
6.49552e-05
-3.31567e-06
5.71758e-05
-3.0377e-06
5.02999e-05
-2.72548e-06
4.42549e-05
-2.39054e-06
3.89199e-05
-2.04196e-06
3.41673e-05
-1.68603e-06
2.98861e-05
-1.33059e-06
2.6057e-05
-9.84261e-07
2.25717e-05
-6.50061e-07
1.94703e-05
-3.34449e-07
1.6595e-05
-1.11681e-07
1.31094e-05
2.66592e-08
2.39558e-05
6.17411e-08
2.66546e-05
5.06879e-08
2.96618e-05
-4.48983e-11
3.30091e-05
-9.20867e-08
3.67306e-05
-2.27391e-07
4.08752e-05
-4.10405e-07
4.54888e-05
-6.44931e-07
5.06293e-05
-9.34156e-07
5.636e-05
-1.27872e-06
6.27593e-05
-1.67504e-06
6.99196e-05
-2.11112e-06
7.6721e-05
-2.56658e-06
7.69493e-05
-3.02241e-06
7.72539e-05
-3.45304e-06
7.76484e-05
-3.8289e-06
7.8135e-05
-4.1186e-06
7.87238e-05
-4.29334e-06
7.94109e-05
-4.32763e-06
8.45538e-05
-4.16621e-06
7.44373e-05
-3.92624e-06
6.55658e-05
-3.62629e-06
5.77644e-05
-3.28294e-06
5.08574e-05
-2.91145e-06
4.47758e-05
-2.52383e-06
3.94018e-05
-2.12894e-06
3.46102e-05
-1.73567e-06
3.02911e-05
-1.35447e-06
2.64272e-05
-9.93186e-07
2.29148e-05
-6.51251e-07
1.97871e-05
-4.16298e-07
1.68997e-05
-1.20737e-07
1.32301e-05
2.50885e-08
2.15336e-05
5.79918e-08
2.39596e-05
4.55844e-08
2.66597e-05
-5.52759e-09
2.96673e-05
-9.73674e-08
3.30144e-05
-2.3218e-07
3.67354e-05
-4.14683e-07
4.08795e-05
-6.49399e-07
4.54933e-05
-9.40735e-07
5.06359e-05
-1.2913e-06
5.63726e-05
-1.70061e-06
6.27849e-05
-2.16126e-06
6.99697e-05
-2.65752e-06
7.6812e-05
-3.16247e-06
7.70894e-05
-3.65473e-06
7.74556e-05
-4.10424e-06
7.79237e-05
-4.47814e-06
7.84946e-05
-4.74524e-06
7.91757e-05
-4.87681e-06
7.99601e-05
-4.85008e-06
8.52376e-05
-4.60952e-06
7.51205e-05
-4.29126e-06
6.62308e-05
-3.91695e-06
5.83984e-05
-3.50582e-06
5.14518e-05
-3.07431e-06
4.53263e-05
-2.63456e-06
3.99074e-05
-2.19722e-06
3.50718e-05
-1.77343e-06
3.07101e-05
-1.37349e-06
2.68075e-05
-1.00104e-06
2.32646e-05
-8.06789e-07
2.01776e-05
-4.18115e-07
1.7197e-05
-1.30672e-07
1.33608e-05
2.37351e-08
1.93534e-05
5.479e-08
2.15368e-05
4.12608e-08
2.39639e-05
-1.00455e-08
2.66642e-05
-1.01456e-07
2.96714e-05
-2.354e-07
3.30176e-05
-4.16745e-07
3.67374e-05
-6.50509e-07
4.08806e-05
-9.41981e-07
4.54945e-05
-1.29525e-06
5.06398e-05
-1.7122e-06
5.63842e-05
-2.18911e-06
6.28127e-05
-2.71553e-06
7.00277e-05
-3.26962e-06
7.69191e-05
-3.81991e-06
7.72546e-05
-4.34055e-06
7.76919e-05
-4.79756e-06
7.82431e-05
-5.1576e-06
7.89069e-05
-5.38877e-06
7.96877e-05
-5.4645e-06
8.05745e-05
-5.36499e-06
8.59931e-05
-5.03695e-06
7.58662e-05
-4.63439e-06
6.69482e-05
-4.18265e-06
5.90752e-05
-3.70286e-06
5.20803e-05
-3.21205e-06
4.59038e-05
-2.72369e-06
4.04338e-05
-2.25018e-06
3.55485e-05
-1.80247e-06
3.11391e-05
-1.38792e-06
2.71944e-05
-1.24328e-06
2.37011e-05
-8.0232e-07
2.05618e-05
-4.19824e-07
1.74862e-05
-1.38503e-07
1.34993e-05
1.73972e-05
2.25664e-08
5.20434e-08
1.93561e-05
3.75802e-08
2.15405e-05
-1.37776e-08
2.39676e-05
-1.04609e-07
2.66673e-05
-2.37431e-07
2.96734e-05
-4.17177e-07
3.3018e-05
-6.49186e-07
3.67361e-05
-9.39362e-07
4.0878e-05
-1.29286e-06
4.54921e-05
-1.7134e-06
5.0641e-05
-2.20009e-06
5.63952e-05
-2.74676e-06
6.2844e-05
-3.33754e-06
7.00956e-05
-3.94645e-06
7.70457e-05
-4.53477e-06
7.74488e-05
-5.0728e-06
7.79672e-05
-5.52544e-06
7.8611e-05
-5.85775e-06
7.93759e-05
-6.03937e-06
8.02625e-05
-6.04609e-06
8.12556e-05
-5.86386e-06
8.682e-05
-5.44077e-06
7.66726e-05
-4.94989e-06
6.77154e-05
-4.41944e-06
5.97918e-05
-3.87169e-06
5.274e-05
-3.32486e-06
4.65049e-05
-2.79369e-06
4.09773e-05
-2.29022e-06
3.60363e-05
-1.82316e-06
3.15743e-05
-1.72641e-06
2.76775e-05
-1.23576e-06
2.41345e-05
-7.94606e-07
2.09366e-05
-4.19157e-07
1.77668e-05
-1.4353e-07
1.36429e-05
1.73995e-05
4.96703e-08
2.78119e-05
2.06691e-08
3.44335e-08
1.93592e-05
-1.687e-08
2.15435e-05
-1.07028e-07
2.39701e-05
-2.3857e-07
2.66685e-05
-4.16433e-07
2.96727e-05
-6.46147e-07
3.3015e-05
-9.34019e-07
3.67308e-05
-1.28597e-06
4.08711e-05
-1.70704e-06
4.54858e-05
-2.19856e-06
5.06395e-05
-2.75773e-06
5.64062e-05
-3.37357e-06
6.288e-05
-4.02677e-06
7.01759e-05
-4.68428e-06
7.71952e-05
-5.30024e-06
7.76763e-05
-5.84407e-06
7.82858e-05
-6.27814e-06
7.90314e-05
-6.56833e-06
7.99048e-05
-6.68594e-06
8.09024e-05
-6.6122e-06
8.2004e-05
-6.33784e-06
8.77171e-05
-5.81434e-06
7.75371e-05
-5.23315e-06
6.85292e-05
-4.62443e-06
6.05445e-05
-4.01176e-06
5.34269e-05
-3.41432e-06
4.71256e-05
-2.8463e-06
4.15334e-05
-2.3178e-06
3.65309e-05
-2.26874e-06
3.21167e-05
-1.71698e-06
2.81587e-05
-1.22029e-06
2.45602e-05
-7.8254e-07
2.13e-05
-4.15044e-07
1.80384e-05
-1.45939e-07
1.37888e-05
1.74022e-05
3.17363e-08
2.78158e-05
4.58153e-08
2.85518e-05
1.88648e-08
-1.94403e-08
1.93618e-05
-1.0887e-07
2.15454e-05
-2.39046e-07
2.39705e-05
-4.14863e-07
2.66669e-05
-6.4194e-07
2.96685e-05
-9.2683e-07
3.30078e-05
-1.27596e-06
3.67208e-05
-1.69535e-06
4.08594e-05
-2.18798e-06
4.54752e-05
-2.75368e-06
5.06355e-05
-3.3854e-06
5.6418e-05
-4.06937e-06
6.29226e-05
-4.77984e-06
7.02715e-05
-5.47665e-06
7.73716e-05
-6.10919e-06
7.79414e-05
-6.64455e-06
7.86522e-05
-7.04512e-06
7.95081e-05
-7.27762e-06
8.04965e-05
-7.31833e-06
8.16085e-05
-7.15295e-06
8.28191e-05
-6.77919e-06
8.86819e-05
-6.15217e-06
7.84561e-05
-5.48053e-06
6.93853e-05
-4.79628e-06
6.1329e-05
-4.12382e-06
5.41364e-05
-3.48159e-06
4.77608e-05
-2.88202e-06
4.20976e-05
-2.88477e-06
3.71469e-05
-2.25676e-06
3.26564e-05
-1.69456e-06
2.8633e-05
-1.19709e-06
2.49748e-05
-7.6553e-07
2.16504e-05
-4.07543e-07
1.83e-05
-1.46001e-07
1.39348e-05
1.74044e-05
-2.15857e-08
2.78194e-05
2.80417e-08
2.85555e-05
4.20984e-08
2.93117e-05
1.71533e-08
-1.10261e-07
1.93632e-05
-2.39038e-07
2.15454e-05
-4.12734e-07
2.39684e-05
-6.36984e-07
2.66619e-05
-9.18466e-07
2.96601e-05
-1.26393e-06
3.29958e-05
-1.68007e-06
3.67055e-05
-2.17108e-06
4.08425e-05
-2.7388e-06
4.54603e-05
-3.3793e-06
5.06294e-05
-4.0833e-06
5.64319e-05
-4.83123e-06
6.2974e-05
-5.5908e-06
7.03856e-05
-6.31689e-06
7.75793e-05
-6.95192e-06
7.82487e-05
-7.46357e-06
7.90707e-05
-7.81416e-06
8.00447e-05
-7.97478e-06
8.1153e-05
-7.9257e-06
8.23813e-05
-7.65958e-06
8.36995e-05
-7.18138e-06
8.97111e-05
-6.44972e-06
7.94253e-05
-5.68992e-06
7.02789e-05
-4.93501e-06
6.21402e-05
-4.20849e-06
5.48633e-05
-3.52718e-06
4.8406e-05
-3.58786e-06
4.28007e-05
-2.86969e-06
3.77599e-05
-2.22672e-06
3.31886e-05
-1.66048e-06
2.90964e-05
-1.16653e-06
2.53758e-05
-7.43946e-07
2.19868e-05
-3.96991e-07
1.85509e-05
-1.44115e-07
1.40789e-05
1.74054e-05
-1.11302e-07
2.78213e-05
-2.34088e-08
2.8559e-05
2.45866e-08
2.93153e-05
3.85351e-08
3.00896e-05
1.55356e-08
-2.38682e-07
1.93629e-05
-4.10248e-07
2.15429e-05
-6.31593e-07
2.3963e-05
-9.09432e-07
2.66529e-05
-1.25069e-06
2.96469e-05
-1.6625e-06
3.29782e-05
-2.14995e-06
3.66844e-05
-2.71638e-06
4.082e-05
-3.36025e-06
4.54412e-05
-4.07591e-06
5.0622e-05
-4.84889e-06
5.64496e-05
-5.65366e-06
6.30369e-05
-6.45343e-06
7.05222e-05
-7.19556e-06
7.78229e-05
-7.81785e-06
7.8603e-05
-8.28867e-06
7.95452e-05
-8.57395e-06
8.06439e-05
-8.64813e-06
8.18754e-05
-8.4983e-06
8.322e-05
-8.12453e-06
8.46426e-05
-7.53878e-06
9.08002e-05
-6.70398e-06
8.04393e-05
-5.86056e-06
7.12044e-05
-5.04067e-06
6.29724e-05
-4.26626e-06
5.56023e-05
-4.39267e-06
4.92108e-05
-3.56963e-06
4.35007e-05
-2.83111e-06
3.83642e-05
-2.1809e-06
3.3709e-05
-1.616e-06
2.95458e-05
-1.12959e-06
2.57614e-05
-7.18463e-07
2.23083e-05
-3.8392e-07
1.87908e-05
-1.40696e-07
1.42196e-05
1.74048e-05
-2.38086e-07
2.78196e-05
-1.09661e-07
2.85605e-05
-2.49446e-08
2.93185e-05
2.1364e-08
3.0093e-05
3.5128e-08
3.08895e-05
1.40125e-08
-4.07558e-07
1.93602e-05
-6.26001e-07
2.15373e-05
-9.00102e-07
2.39537e-05
-1.23686e-06
2.66391e-05
-1.64366e-06
2.9628e-05
-2.12621e-06
3.29545e-05
-2.68895e-06
3.66569e-05
-3.33218e-06
4.0792e-05
-4.05311e-06
4.54184e-05
-4.8414e-06
5.06145e-05
-5.67718e-06
5.64731e-05
-6.53097e-06
6.31144e-05
-7.35876e-06
7.06854e-05
-8.10239e-06
7.81075e-05
-8.69443e-06
7.90088e-05
-9.10817e-06
8.00794e-05
-9.31207e-06
8.13078e-05
-9.28703e-06
8.26641e-05
-9.02755e-06
8.4123e-05
-8.54109e-06
8.56449e-05
-7.8473e-06
9.19435e-05
-6.91336e-06
8.14921e-05
-5.99198e-06
7.21558e-05
-5.1137e-06
6.38199e-05
-5.31596e-06
5.65256e-05
-4.37172e-06
5.00129e-05
-3.52184e-06
4.41914e-05
-2.77223e-06
3.89556e-05
-2.12137e-06
3.42144e-05
-1.56284e-06
2.99791e-05
-1.0875e-06
2.61304e-05
-6.89929e-07
2.26143e-05
-3.68915e-07
1.9019e-05
-1.36127e-07
1.43557e-05
1.7402e-05
-4.04777e-07
2.78129e-05
-2.31393e-07
2.85585e-05
-1.07609e-07
2.93197e-05
-2.61794e-08
3.0096e-05
1.83775e-08
3.08928e-05
3.18823e-08
3.17094e-05
1.25827e-08
-6.2038e-07
1.93545e-05
-8.90751e-07
2.1528e-05
-1.22288e-06
2.39397e-05
-1.62429e-06
2.66197e-05
-2.10107e-06
2.96029e-05
-2.65846e-06
3.2924e-05
-3.29816e-06
3.66229e-05
-4.01955e-06
4.07584e-05
-4.81562e-06
4.53927e-05
-5.6712e-06
5.06085e-05
-6.56299e-06
5.65051e-05
-7.4547e-06
6.32103e-05
-8.2969e-06
7.08799e-05
-9.02494e-06
7.8438e-05
-9.56984e-06
7.94704e-05
-9.9091e-06
8.06764e-05
-1.00171e-05
8.20379e-05
-9.88196e-06
8.35185e-05
-9.50577e-06
8.50877e-05
-8.90423e-06
8.67018e-05
-8.1045e-06
9.31347e-05
-7.07681e-06
8.2577e-05
-6.08436e-06
7.31264e-05
-6.37658e-06
6.48805e-05
-5.29331e-06
5.74472e-05
-4.31432e-06
5.08054e-05
-3.4486e-06
4.48678e-05
-2.696e-06
3.95302e-05
-2.05061e-06
3.47021e-05
-1.50287e-06
3.03945e-05
-1.04156e-06
2.64821e-05
-6.59189e-07
2.29046e-05
-3.52539e-07
1.92354e-05
-1.30738e-07
1.44865e-05
1.73965e-05
-6.14855e-07
2.77994e-05
-3.91236e-07
2.85512e-05
-2.24168e-07
2.93173e-05
-1.05168e-07
3.00969e-05
-2.71111e-08
3.08955e-05
1.56255e-08
3.17125e-05
2.88022e-08
3.25533e-05
1.12481e-08
-8.81578e-07
1.93454e-05
-1.20909e-06
2.15142e-05
-1.60494e-06
2.39203e-05
-2.07545e-06
2.65941e-05
-2.6264e-06
2.95708e-05
-3.2605e-06
3.28863e-05
-3.97885e-06
3.65822e-05
-4.77702e-06
4.07198e-05
-5.64365e-06
4.53651e-05
-6.56067e-06
5.06062e-05
-7.49843e-06
5.65489e-05
-8.41548e-06
6.33289e-05
-9.25574e-06
7.11107e-05
-9.95146e-06
7.88196e-05
-1.04307e-05
7.99921e-05
-1.06794e-05
8.13387e-05
-1.06786e-05
8.28345e-05
-1.04242e-05
8.4437e-05
-9.92692e-06
8.61104e-05
-9.21073e-06
8.78081e-05
-8.30863e-06
9.43665e-05
-7.19419e-06
8.36868e-05
-7.59414e-06
7.4344e-05
-6.35401e-06
6.59412e-05
-5.22624e-06
5.83591e-05
-4.22554e-06
5.15823e-05
-3.35384e-06
4.55256e-05
-2.60568e-06
4.00853e-05
-1.97113e-06
3.51704e-05
-1.43796e-06
3.07909e-05
-9.92977e-07
2.68159e-05
-6.27035e-07
2.31791e-05
-3.35305e-07
1.94399e-05
-1.2479e-07
1.46113e-05
1.73877e-05
-8.72721e-07
2.7777e-05
-5.92459e-07
2.8537e-05
-3.76967e-07
2.93095e-05
-2.16361e-07
3.00941e-05
-1.02302e-07
3.08961e-05
-2.77393e-08
3.1715e-05
1.31072e-08
3.25563e-05
2.58856e-08
3.34192e-05
1.00055e-08
-1.19571e-06
1.9332e-05
-1.58598e-06
2.14952e-05
-2.04999e-06
2.38949e-05
-2.59385e-06
2.65615e-05
-3.221e-06
2.95313e-05
-3.93379e-06
3.28413e-05
-4.72986e-06
3.6535e-05
-5.60088e-06
4.0677e-05
-6.53306e-06
4.53375e-05
-7.50246e-06
5.06102e-05
-8.47465e-06
5.6608e-05
-9.40161e-06
6.34748e-05
-1.02238e-05
7.1383e-05
-1.08684e-05
7.92573e-05
-1.12645e-05
8.05772e-05
-1.14078e-05
8.20679e-05
-1.1287e-05
8.36973e-05
-1.09067e-05
8.54168e-05
-1.02869e-05
8.71866e-05
-9.45814e-06
8.89576e-05
-8.4592e-06
9.56315e-05
-8.99051e-06
8.50832e-05
-7.57465e-06
7.55646e-05
-6.27769e-06
6.69926e-05
-5.12084e-06
5.92544e-05
-4.1103e-06
5.23388e-05
-3.24165e-06
4.61616e-05
-2.50448e-06
4.06186e-05
-1.8854e-06
3.56178e-05
-1.36975e-06
3.11676e-05
-9.42843e-07
2.71317e-05
-5.94185e-07
2.3438e-05
-3.17604e-07
1.96328e-05
-1.1851e-07
1.47298e-05
1.73749e-05
-1.18289e-06
2.77434e-05
-8.39107e-07
2.85137e-05
-5.69161e-07
2.92945e-05
-3.62027e-07
3.00858e-05
-2.08057e-07
3.08929e-05
-9.90362e-08
3.17153e-05
-2.80598e-08
3.25585e-05
1.08229e-08
3.3422e-05
2.31374e-08
3.43052e-05
8.85338e-09
-1.56771e-06
1.93137e-05
-2.02517e-06
2.14704e-05
-2.56161e-06
2.38626e-05
-3.18096e-06
2.65215e-05
-3.8865e-06
2.9484e-05
-4.67743e-06
3.27888e-05
-5.54784e-06
3.6482e-05
-6.48742e-06
4.06314e-05
-7.47701e-06
4.53121e-05
-8.4883e-06
5.06238e-05
-9.4805e-06
5.66869e-05
-1.0402e-05
6.3653e-05
-1.11875e-05
7.17021e-05
-1.17629e-05
7.97557e-05
-1.20594e-05
8.12288e-05
-1.20839e-05
8.28648e-05
-1.18341e-05
8.46247e-05
-1.13246e-05
8.64545e-05
-1.05825e-05
8.83109e-05
-9.64539e-06
9.01438e-05
-1.05892e-05
9.72302e-05
-8.97942e-06
8.64879e-05
-7.49058e-06
7.67775e-05
-6.1549e-06
6.80267e-05
-4.98314e-06
6.01273e-05
-3.97372e-06
5.30709e-05
-3.11606e-06
4.67732e-05
-2.39549e-06
4.11287e-05
-1.79556e-06
3.60437e-05
-1.29972e-06
3.15245e-05
-8.92139e-07
2.74296e-05
-5.6116e-07
2.36815e-05
-2.99799e-07
1.98141e-05
-1.12082e-07
1.48419e-05
1.73574e-05
-1.55029e-06
2.76961e-05
-1.13565e-06
2.84789e-05
-8.04372e-07
2.92703e-05
-5.44925e-07
3.00701e-05
-3.46355e-07
3.0884e-05
-1.99206e-07
3.17117e-05
-9.53667e-08
3.25586e-05
-2.80803e-08
3.3424e-05
8.766e-09
3.43077e-05
2.05567e-08
3.52191e-05
7.79053e-09
-2.00132e-06
1.92899e-05
-2.53025e-06
2.1439e-05
-3.14135e-06
2.3823e-05
-3.83855e-06
2.64735e-05
-4.62222e-06
2.94288e-05
-5.48837e-06
3.27294e-05
-6.42949e-06
3.64241e-05
-7.43035e-06
4.05847e-05
-8.46783e-06
4.52916e-05
-9.50759e-06
5.06509e-05
-1.05053e-05
5.67902e-05
-1.14033e-05
6.38688e-05
-1.2134e-05
7.20731e-05
-1.26227e-05
8.0319e-05
-1.2804e-05
8.19489e-05
-1.26985e-05
8.37292e-05
-1.23142e-05
8.56144e-05
-1.16736e-05
8.75456e-05
-1.0812e-05
8.94775e-05
-1.20962e-05
9.16508e-05
-1.05955e-05
9.88463e-05
-8.89137e-06
8.78887e-05
-7.35059e-06
7.79732e-05
-5.9929e-06
6.90365e-05
-4.81937e-06
6.09729e-05
-3.82067e-06
5.37755e-05
-2.98086e-06
4.73585e-05
-2.28142e-06
4.16146e-05
-1.70351e-06
3.64474e-05
-1.22917e-06
3.18616e-05
-8.4156e-07
2.771e-05
-5.28463e-07
2.39102e-05
-2.82173e-07
1.99841e-05
-1.05633e-07
1.49475e-05
1.73348e-05
-1.97865e-06
2.76322e-05
-1.48636e-06
2.84303e-05
-1.08702e-06
2.92345e-05
-7.68594e-07
3.0045e-05
-5.19818e-07
3.08677e-05
-3.30022e-07
3.17023e-05
-1.89845e-07
3.25545e-05
-9.13093e-08
3.34238e-05
-2.77979e-08
3.43096e-05
6.93503e-09
3.52215e-05
1.81404e-08
3.6155e-05
6.81354e-09
-2.50016e-06
1.92598e-05
-3.10283e-06
2.14005e-05
-3.79107e-06
2.37756e-05
-4.56612e-06
2.64174e-05
-5.42542e-06
2.93659e-05
-6.36372e-06
3.26636e-05
-7.36901e-06
3.63627e-05
-8.42251e-06
4.05394e-05
-9.49547e-06
4.52795e-05
-1.05502e-05
5.06958e-05
-1.15361e-05
5.69231e-05
-1.23927e-05
6.41275e-05
-1.30506e-05
7.2501e-05
-1.34357e-05
8.09507e-05
-1.34885e-05
8.27389e-05
-1.32451e-05
8.46601e-05
-1.27222e-05
8.66629e-05
-1.19514e-05
8.8685e-05
-1.35875e-05
9.09687e-05
-1.21278e-05
9.31831e-05
-1.05102e-05
0.000100465
-8.73621e-06
8.92744e-05
-7.16334e-06
7.91436e-05
-5.79924e-06
7.00163e-05
-4.63549e-06
6.17878e-05
-3.65582e-06
5.44504e-05
-2.83937e-06
4.79165e-05
-2.16463e-06
4.20757e-05
-1.61093e-06
3.68292e-05
-1.15903e-06
3.2179e-05
-7.91786e-07
2.79733e-05
-4.96475e-07
2.41245e-05
-2.6492e-07
2.01434e-05
-9.92699e-08
1.50468e-05
1.73062e-05
-2.47159e-06
2.75484e-05
-1.89484e-06
2.83646e-05
-1.42061e-06
2.91843e-05
-1.03682e-06
3.0008e-05
-7.31583e-07
3.08417e-05
-4.93831e-07
3.16854e-05
-3.13054e-07
3.25446e-05
-1.79989e-07
3.34193e-05
-8.68714e-08
3.4309e-05
-2.72189e-08
3.52231e-05
5.32263e-09
3.61572e-05
1.58848e-08
3.65889e-05
5.93052e-09
-3.0659e-06
1.92228e-05
-3.7449e-06
2.13543e-05
-4.51048e-06
2.37199e-05
-5.36121e-06
2.63532e-05
-6.29354e-06
2.92957e-05
-7.29811e-06
3.25927e-05
-8.35975e-06
3.63e-05
-9.45445e-06
4.04984e-05
-1.05503e-05
4.52796e-05
-1.16035e-05
5.07632e-05
-1.25603e-05
5.70907e-05
-1.33575e-05
6.44344e-05
-1.39249e-05
7.29902e-05
-1.41914e-05
8.16536e-05
-1.41052e-05
8.3599e-05
-1.37174e-05
8.56553e-05
-1.30548e-05
8.77664e-05
-1.50547e-05
9.01522e-05
-1.36544e-05
9.24953e-05
-1.20539e-05
9.47267e-05
-1.03444e-05
0.000102073
-8.52388e-06
9.06349e-05
-6.93769e-06
8.02821e-05
-5.58108e-06
7.09619e-05
-4.43711e-06
6.25691e-05
-3.48317e-06
5.50942e-05
-2.69451e-06
4.84464e-05
-2.04722e-06
4.2512e-05
-1.51898e-06
3.71892e-05
-1.09017e-06
3.24774e-05
-7.43319e-07
2.82202e-05
-4.65442e-07
2.4325e-05
-2.482e-07
2.02924e-05
-9.30737e-08
1.51398e-05
1.72711e-05
-3.03085e-06
2.74413e-05
-2.36446e-06
2.82789e-05
-1.80922e-06
2.9117e-05
-1.35333e-06
2.99565e-05
-9.85368e-07
3.08037e-05
-6.93619e-07
3.16585e-05
-4.67026e-07
3.2527e-05
-2.95428e-07
3.3409e-05
-1.69662e-07
3.43042e-05
-8.20715e-08
3.52222e-05
-2.63424e-08
3.61586e-05
3.92374e-09
3.6591e-05
1.38134e-08
3.55528e-05
5.16182e-09
-3.7006e-06
1.91785e-05
-4.45629e-06
2.13002e-05
-5.29734e-06
2.36561e-05
-6.22154e-06
2.62812e-05
-7.22163e-06
2.92192e-05
-8.28539e-06
3.25183e-05
-9.39283e-06
3.62383e-05
-1.05171e-05
4.04652e-05
-1.16204e-05
4.52965e-05
-1.26554e-05
5.08583e-05
-1.35653e-05
5.72985e-05
-1.4285e-05
6.47945e-05
-1.47458e-05
7.35446e-05
-1.48812e-05
8.24297e-05
-1.46472e-05
8.45287e-05
-1.41118e-05
8.67122e-05
-1.64879e-05
8.91995e-05
-1.51684e-05
9.16663e-05
-1.36021e-05
9.40435e-05
-1.18866e-05
9.62689e-05
-1.01096e-05
0.000103659
-8.26477e-06
9.1962e-05
-6.68206e-06
8.13831e-05
-5.34516e-06
7.187e-05
-4.2291e-06
6.3315e-05
-3.30631e-06
5.5706e-05
-2.54885e-06
4.8948e-05
-1.93062e-06
4.29236e-05
-1.42878e-06
3.75278e-05
-1.02324e-06
3.27573e-05
-6.96468e-07
2.84512e-05
-4.35574e-07
2.45124e-05
-2.32141e-07
2.04314e-05
-8.71002e-08
1.52269e-05
1.72291e-05
-3.65855e-06
2.7308e-05
-2.89757e-06
2.81698e-05
-2.25532e-06
2.90293e-05
-1.72144e-06
2.98877e-05
-1.28446e-06
3.0751e-05
-9.32611e-07
3.16196e-05
-6.54634e-07
3.24995e-05
-4.39522e-07
3.33908e-05
-2.77269e-07
3.42934e-05
-1.58919e-07
3.52171e-05
-7.69361e-08
3.61575e-05
-2.51907e-08
3.65921e-05
2.74336e-09
3.55546e-05
1.19862e-08
3.45447e-05
4.49081e-09
-4.40425e-06
1.91265e-05
-5.23499e-06
2.12378e-05
-6.14965e-06
2.35842e-05
-7.14257e-06