/*--------------------------------*- C++ -*----------------------------------*\
  =========                 |
  \\      /  F ield         | OpenFOAM: The Open Source CFD Toolbox
   \\    /   O peration     | Website:  https://openfoam.org
    \\  /    A nd           | Version:  8
     \\/     M anipulation  |
\*---------------------------------------------------------------------------*/
FoamFile
{
    version     2.0;
    format      ascii;
    class       volScalarField;
    location    "700";
    object      k;
}
// * * * * * * * * * * * * * * * * * * * * * * * * * * * * * * * * * * * * * //

dimensions      [0 2 -2 0 0 0 0];

internalField   nonuniform List<scalar> 
15677
(
0.991541
0.87871
1.19176
0.495982
0.831013
1.13859
0.398763
0.479957
0.693348
1.04264
0.380438
0.386828
0.414437
0.65962
0.977873
0.375731
0.37261
0.358583
0.359292
0.668603
0.936325
0.374332
0.370445
0.355688
0.317526
0.358572
0.691718
0.910879
0.373838
0.370028
0.359203
0.329882
0.295997
0.368876
0.717313
0.892885
0.373577
0.369928
0.362049
0.342609
0.309245
0.283175
0.392688
0.73207
0.881125
0.373422
0.36999
0.364005
0.350927
0.326919
0.292388
0.284217
0.423502
0.744734
0.871568
0.373329
0.370043
0.365277
0.356118
0.339389
0.312653
0.281998
0.289394
0.456377
0.74749
0.864986
0.373281
0.370047
0.366075
0.359366
0.347554
0.328238
0.300824
0.275534
0.300432
0.483785
0.750076
0.861067
0.373257
0.370013
0.366541
0.361408
0.352854
0.338965
0.318044
0.291609
0.2724
0.315348
0.507976
0.751054
0.859684
0.373248
0.369972
0.366771
0.36267
0.356299
0.346188
0.330693
0.309263
0.284358
0.272828
0.331855
0.52732
0.751225
0.860259
0.373245
0.369936
0.366848
0.363403
0.358518
0.35103
0.339581
0.323144
0.301642
0.279345
0.274542
0.347552
0.543829
0.751032
0.86237
0.373244
0.369916
0.366848
0.363774
0.359898
0.354251
0.345737
0.333328
0.316278
0.295375
0.275757
0.277959
0.363402
0.55561
0.751004
0.866755
0.373244
0.369905
0.366825
0.363918
0.36069
0.356341
0.34995
0.340614
0.327469
0.310239
0.290163
0.273317
0.282892
0.376937
0.565579
0.750861
0.873519
0.373243
0.3699
0.366805
0.363943
0.361079
0.357621
0.352771
0.345741
0.335721
0.322122
0.304939
0.28591
0.27194
0.287947
0.389535
0.571716
0.750953
0.882344
0.373242
0.369897
0.366791
0.363933
0.361209
0.358325
0.354575
0.34927
0.341678
0.331154
0.317273
0.30037
0.282476
0.271344
0.293583
0.399126
0.577137
0.750943
0.893252
0.373242
0.369895
0.366782
0.363917
0.361235
0.358618
0.355636
0.351606
0.345876
0.337832
0.326926
0.312966
0.296419
0.279762
0.271465
0.298672
0.40753
0.57988
0.75089
0.906235
0.373242
0.369893
0.366777
0.363904
0.361227
0.358716
0.356124
0.353048
0.348729
0.342643
0.334231
0.323096
0.309131
0.293112
0.277617
0.271856
0.303516
0.413456
0.581692
0.750897
0.921262
0.373242
0.369891
0.366773
0.363894
0.361212
0.358736
0.35632
0.353765
0.350552
0.345991
0.339603
0.330925
0.319635
0.305833
0.290282
0.276039
0.272609
0.307534
0.418231
0.581621
0.750952
0.938267
0.373242
0.36989
0.36677
0.363886
0.361198
0.358729
0.356383
0.354086
0.351503
0.348198
0.343417
0.336792
0.327924
0.316608
0.302957
0.288041
0.274784
0.273629
0.311042
0.42086
0.581113
0.751072
0.957169
0.373242
0.369889
0.366768
0.363879
0.361188
0.358713
0.356391
0.354213
0.351955
0.349402
0.345985
0.341036
0.334247
0.325277
0.313971
0.300616
0.286158
0.274045
0.274635
0.313678
0.422857
0.579929
0.751235
0.977837
0.373242
0.369888
0.366766
0.363874
0.361179
0.358698
0.35638
0.354248
0.352153
0.350009
0.347424
0.343963
0.338904
0.332003
0.322991
0.311795
0.298663
0.284837
0.273503
0.275703
0.315749
0.422847
0.577778
0.751438
1.00018
0.373242
0.369887
0.366765
0.363871
0.361173
0.358684
0.356364
0.354244
0.352223
0.350297
0.34817
0.345664
0.342168
0.337028
0.330098
0.321124
0.310054
0.297283
0.28384
0.27346
0.276688
0.317199
0.422381
0.575078
0.751747
1.02401
0.373242
0.369887
0.366764
0.363868
0.361167
0.358673
0.356348
0.354226
0.352235
0.350411
0.348542
0.346586
0.344082
0.340616
0.335514
0.328612
0.319714
0.308814
0.296238
0.283341
0.273619
0.277704
0.317958
0.421291
0.571977
0.752116
1.04923
0.373242
0.369887
0.366763
0.363866
0.361163
0.358664
0.356335
0.354205
0.352223
0.350439
0.348706
0.347065
0.34513
0.34281
0.339457
0.334359
0.327511
0.318731
0.308055
0.29592
0.283417
0.274022
0.278649
0.318408
0.419293
0.568449
0.752592
1.07559
0.373242
0.369886
0.366763
0.363864
0.36116
0.358657
0.356324
0.354185
0.352202
0.350427
0.348762
0.347283
0.345694
0.34407
0.341833
0.33855
0.333665
0.327074
0.318561
0.308112
0.2961
0.283757
0.274743
0.279628
0.318374
0.41678
0.564735
0.753142
1.10305
0.373242
0.369886
0.366762
0.363862
0.361157
0.358651
0.356315
0.354169
0.35218
0.350401
0.348765
0.347358
0.345976
0.344768
0.343176
0.341275
0.338419
0.333743
0.327268
0.318857
0.308527
0.296662
0.284495
0.275788
0.280644
0.318211
0.413889
0.560733
0.753784
1.13112
0.373242
0.369886
0.366762
0.363861
0.361155
0.358647
0.356307
0.354155
0.352161
0.350371
0.348743
0.347362
0.346096
0.345104
0.343937
0.342935
0.341396
0.33872
0.334227
0.327937
0.319686
0.309496
0.297812
0.285839
0.277128
0.28177
0.317867
0.410722
0.556723
0.754612
1.163
0.373242
0.369886
0.366762
0.36386
0.361153
0.358643
0.356301
0.354145
0.352145
0.350345
0.348713
0.347333
0.346126
0.345237
0.344373
0.343916
0.343169
0.341928
0.339564
0.335346
0.329349
0.321335
0.311319
0.299703
0.287671
0.278825
0.28305
0.317431
0.407379
0.552519
0.755818
1.19896
0.373242
0.369886
0.366761
0.36386
0.361152
0.35864
0.356296
0.354136
0.352131
0.350323
0.348683
0.347294
0.346109
0.345265
0.344585
0.344423
0.344228
0.343887
0.343102
0.341256
0.337469
0.331749
0.32389
0.313937
0.302245
0.290062
0.280855
0.284495
0.316962
0.403944
0.548024
0.757532
1.23506
0.373242
0.369886
0.366761
0.363859
0.361151
0.358638
0.356291
0.354128
0.352119
0.350304
0.348656
0.347256
0.346071
0.34524
0.34466
0.344666
0.344817
0.345083
0.345358
0.345289
0.343989
0.34059
0.335117
0.327377
0.317364
0.305513
0.29298
0.283279
0.286184
0.316603
0.400129
0.542804
0.759414
1.2711
0.373242
0.369886
0.366761
0.363858
0.361149
0.358636
0.356288
0.354122
0.352108
0.350288
0.348633
0.347221
0.346029
0.345193
0.344659
0.344759
0.345116
0.345784
0.346786
0.347877
0.348525
0.347832
0.34482
0.33957
0.331838
0.321687
0.309488
0.296489
0.286056
0.288057
0.31638
0.396079
0.537794
0.761596
1.30676
0.369886
0.373246
0.366761
0.363858
0.361148
0.358634
0.356284
0.354117
0.3521
0.350274
0.348612
0.347192
0.345989
0.345143
0.34462
0.344769
0.345245
0.346166
0.34767
0.349566
0.351521
0.352986
0.352931
0.350297
0.345177
0.337377
0.3269
0.31424
0.300555
0.289264
0.290323
0.31646
0.392416
0.532763
0.763828
1.34181
0.366761
0.369896
0.373253
0.363858
0.361148
0.358633
0.356282
0.354112
0.352092
0.350263
0.348594
0.347166
0.345953
0.345096
0.344569
0.344736
0.345279
0.346354
0.34819
0.350656
0.353544
0.356489
0.358845
0.359451
0.357123
0.352058
0.344004
0.333087
0.31973
0.305218
0.293281
0.293153
0.316753
0.389003
0.52808
0.766332
1.37605
0.363857
0.366777
0.369917
0.37326
0.361147
0.358631
0.356279
0.354108
0.352085
0.350253
0.348579
0.347144
0.345922
0.345054
0.344519
0.344689
0.345263
0.346431
0.348481
0.351345
0.35491
0.358941
0.362983
0.366296
0.367527
0.365436
0.360247
0.351819
0.340208
0.32601
0.311031
0.29834
0.296315
0.317352
0.38603
0.523459
0.768835
1.40931
0.361146
0.363879
0.36681
0.369939
0.373268
0.35863
0.356277
0.354105
0.35208
0.350245
0.348566
0.347125
0.345894
0.345018
0.344472
0.34464
0.345226
0.346447
0.348638
0.351778
0.355835
0.360675
0.365987
0.371227
0.375507
0.377328
0.375302
0.369861
0.360786
0.348334
0.333822
0.318317
0.303971
0.299782
0.318345
0.383351
0.519263
0.771267
1.44145
0.358629
0.361173
0.363924
0.366845
0.369961
0.373276
0.356275
0.354102
0.352075
0.350238
0.348554
0.347109
0.34587
0.344986
0.34443
0.344594
0.345186
0.346437
0.348718
0.352059
0.356479
0.361929
0.368212
0.374938
0.381425
0.386685
0.388952
0.38686
0.380877
0.370997
0.35842
0.343588
0.326396
0.31012
0.303568
0.319628
0.381101
0.515384
0.773665
1.47236
0.356274
0.35866
0.361228
0.36397
0.36688
0.369984
0.373284
0.3541
0.352071
0.350232
0.348544
0.347096
0.34585
0.344958
0.344394
0.344553
0.345146
0.346417
0.348758
0.352246
0.356952
0.362875
0.369918
0.37781
0.386035
0.393819
0.399956
0.402571
0.400106
0.39341
0.383656
0.371014
0.354398
0.335191
0.316741
0.30763
0.321205
0.379122
0.511914
0.776018
1.50199
0.354098
0.356308
0.358724
0.361284
0.364017
0.366916
0.370007
0.373293
0.352067
0.350227
0.348536
0.347084
0.345832
0.344934
0.344362
0.344518
0.345111
0.346396
0.348781
0.352379
0.357314
0.363637
0.371298
0.380136
0.389759
0.399564
0.408574
0.415535
0.41819
0.415182
0.40895
0.399465
0.384949
0.366152
0.344619
0.323765
0.311954
0.323023
0.377552
0.508728
0.778352
1.53027
0.352064
0.354135
0.35638
0.35879
0.361342
0.364065
0.366953
0.370031
0.373301
0.350222
0.348528
0.347074
0.345816
0.344915
0.344336
0.344487
0.345081
0.346377
0.348797
0.352484
0.357604
0.36427
0.372487
0.382126
0.392923
0.404403
0.415758
0.425968
0.433455
0.436001
0.433876
0.42836
0.416954
0.400093
0.378736
0.354595
0.331135
0.316486
0.325067
0.376196
0.50589
0.780645
1.5572
0.350218
0.352104
0.354214
0.356454
0.358857
0.361402
0.364115
0.366992
0.370055
0.37331
0.348522
0.347066
0.345802
0.344898
0.344313
0.344462
0.345056
0.346361
0.348812
0.352575
0.357851
0.364808
0.373534
0.383932
0.395758
0.408686
0.422029
0.434954
0.44609
0.453993
0.458134
0.457259
0.449833
0.43595
0.416289
0.392029
0.365028
0.338781
0.321208
0.327295
0.37521
0.503304
0.782922
1.58276
0.348516
0.350259
0.352187
0.354295
0.356531
0.358927
0.361463
0.364166
0.367031
0.370081
0.373319
0.347058
0.34579
0.344885
0.344294
0.34444
0.345035
0.34635
0.348827
0.352658
0.358072
0.365283
0.374458
0.385586
0.398436
0.412681
0.427791
0.443065
0.457293
0.469294
0.479665
0.485978
0.483194
0.473171
0.456254
0.433379
0.405906
0.375819
0.34664
0.326057
0.329673
0.374453
0.501028
0.785146
1.60697
0.347052
0.348556
0.350346
0.352274
0.354378
0.356609
0.358998
0.361526
0.364219
0.367072
0.370107
0.373328
0.345779
0.344873
0.344277
0.344422
0.345018
0.346342
0.348844
0.352737
0.358274
0.365715
0.375293
0.387086
0.400972
0.416586
0.433349
0.450768
0.467725
0.483248
0.498465
0.512194
0.517071
0.511511
0.498165
0.477685
0.451195
0.420229
0.386871
0.354644
0.331021
0.332047
0.374048
0.498979
0.787355
1.62985
0.34577
0.34709
0.348643
0.350435
0.352363
0.354464
0.35669
0.359072
0.361591
0.364273
0.367113
0.370133
0.373338
0.344863
0.344262
0.344406
0.345004
0.346337
0.348863
0.352811
0.358462
0.366113
0.376061
0.388464
0.403323
0.420384
0.438936
0.45843
0.477938
0.496636
0.516122
0.535758
0.548792
0.551225
0.542
0.524628
0.500038
0.469565
0.434862
0.398085
0.362732
0.336083
0.334444
0.373761
0.497184
0.789493
1.65142
0.344856
0.345801
0.347174
0.348732
0.350528
0.352455
0.354552
0.356773
0.359147
0.361658
0.364328
0.367156
0.37016
0.373347
0.344247
0.344393
0.344993
0.346335
0.348883
0.352884
0.358637
0.366482
0.376771
0.389744
0.405517
0.423969
0.44449
0.466343
0.488379
0.510126
0.533583
0.558618
0.57814
0.589352
0.588233
0.574425
0.55234
0.523125
0.488323
0.449682
0.409376
0.370846
0.341202
0.336842
0.37377
0.495586
0.791614
1.67175
0.344235
0.344881
0.345872
0.347261
0.348825
0.350624
0.35255
0.354643
0.356859
0.359225
0.361727
0.364385
0.367199
0.370187
0.373356
0.34438
0.344984
0.346335
0.348903
0.352953
0.358802
0.366826
0.377432
0.390937
0.407576
0.427354
0.449825
0.474397
0.499413
0.52428
0.551699
0.581996
0.607529
0.625657
0.633759
0.627892
0.608536
0.581058
0.546756
0.507322
0.464571
0.420659
0.378933
0.346331
0.339247
0.373851
0.494193
0.793649
1.69085
0.344372
0.344233
0.34494
0.345945
0.347351
0.348923
0.350723
0.352649
0.354737
0.356947
0.359305
0.361797
0.364443
0.367243
0.370213
0.373365
0.344975
0.346335
0.348924
0.353019
0.358957
0.367147
0.378046
0.39205
0.409507
0.430556
0.454939
0.482273
0.510842
0.539595
0.571254
0.607079
0.638614
0.663222
0.678429
0.681951
0.669999
0.644082
0.610546
0.570743
0.526415
0.479426
0.43186
0.386945
0.351437
0.341646
0.374031
0.492948
0.795662
1.7088
0.344971
0.344353
0.344236
0.345
0.346024
0.347445
0.349024
0.350825
0.35275
0.354833
0.357038
0.359387
0.361869
0.364501
0.367285
0.370239
0.373374
0.346335
0.348943
0.353081
0.359101
0.367445
0.378616
0.393087
0.411316
0.433582
0.459836
0.489907
0.522165
0.55586
0.593014
0.635044
0.673155
0.704472
0.726391
0.736794
0.733944
0.714381
0.680837
0.640589
0.594915
0.545483
0.494156
0.442916
0.394841
0.356485
0.344027
0.374342
0.491876
0.797577
1.72563
0.34634
0.344922
0.344316
0.34424
0.345064
0.346109
0.347542
0.34913
0.35093
0.352855
0.354932
0.357132
0.359471
0.361941
0.364557
0.367325
0.370263
0.373382
0.348957
0.353137
0.359234
0.36772
0.379144
0.394051
0.413006
0.436435
0.464507
0.497274
0.533299
0.572411
0.616699
0.66712
0.713189
0.752433
0.781583
0.798326
0.801342
0.789861
0.760914
0.718603
0.670997
0.619111
0.564416
0.508684
0.453774
0.402583
0.361452
0.346382
0.37473
0.490915
0.799464
1.74141
0.348979
0.346246
0.344811
0.344273
0.34426
0.345131
0.3462
0.347643
0.34924
0.351038
0.352963
0.355034
0.357228
0.359554
0.36201
0.364612
0.367365
0.370287
0.37339
0.353184
0.359354
0.367974
0.379631
0.394945
0.41458
0.439114
0.468939
0.50435
0.544229
0.589073
0.64115
0.703172
0.761462
0.811341
0.849582
0.873077
0.880725
0.872787
0.84986
0.809495
0.757205
0.701602
0.643194
0.583114
0.522943
0.464388
0.410142
0.366312
0.348703
0.375182
0.490098
0.801246
1.75618
0.35324
0.348809
0.34602
0.344691
0.344233
0.344298
0.345199
0.346298
0.347747
0.349354
0.35115
0.353075
0.355139
0.357322
0.359635
0.362078
0.364665
0.367403
0.370311
0.373398
0.359459
0.368203
0.380078
0.395769
0.416041
0.44162
0.473126
0.511119
0.554913
0.605678
0.66597
0.74212
0.81959
0.887399
0.938333
0.970288
0.982058
0.975022
0.951636
0.913997
0.859997
0.796473
0.732254
0.667047
0.601495
0.53688
0.474723
0.417492
0.371054
0.350979
0.37568
0.489356
0.802995
1.76822
0.359571
0.35298
0.348388
0.345781
0.344585
0.344188
0.344352
0.345269
0.346402
0.347855
0.349472
0.351266
0.353189
0.355243
0.357415
0.359714
0.362143
0.364716
0.367441
0.370334
0.373406
0.368405
0.380483
0.396526
0.417392
0.443954
0.477062
0.517566
0.565284
0.622038
0.69112
0.784387
0.887177
0.984352
1.05765
1.10139
1.11803
1.10992
1.0816
1.03785
0.982091
0.91222
0.836232
0.762817
0.690572
0.619487
0.550447
0.484748
0.424616
0.375654
0.353206
0.376216
0.488735
0.804421
1.77836
0.368609
0.359191
0.352302
0.347949
0.345566
0.34449
0.344147
0.344418
0.345343
0.346513
0.347967
0.349595
0.351384
0.353303
0.355344
0.357505
0.359791
0.362207
0.364766
0.367477
0.370356
0.373414
0.380845
0.397215
0.418634
0.44612
0.480749
0.523676
0.57527
0.63803
0.71676
0.830491
0.964062
1.09873
1.20962
1.27691
1.30124
1.29195
1.25545
1.19942
1.13069
1.05366
0.965867
0.876292
0.793161
0.713679
0.637035
0.563612
0.494444
0.431493
0.380111
0.355374
0.376774
0.488238
0.805667
1.78936
0.381197
0.368077
0.358148
0.351597
0.347545
0.345369
0.344401
0.344113
0.344492
0.345422
0.346628
0.348084
0.34972
0.351503
0.353413
0.355443
0.357592
0.359866
0.362269
0.364815
0.367513
0.370377
0.373421
0.397835
0.419769
0.448122
0.484188
0.529438
0.584821
0.653609
0.74306
0.880247
1.0485
1.2256
1.38262
1.49297
1.53991
1.53245
1.48749
1.4153
1.3263
1.22885
1.12798
1.02055
0.916443
0.823164
0.736296
0.654091
0.576348
0.503791
0.438123
0.384407
0.35748
0.377277
0.487861
0.807018
1.80128
0.398421
0.38047
0.366522
0.35707
0.350942
0.347166
0.345184
0.344321
0.344089
0.344573
0.345508
0.346748
0.348206
0.349846
0.351619
0.353521
0.355539
0.357677
0.359938
0.36233
0.364863
0.367547
0.370398
0.373424
0.4208
0.44996
0.487384
0.534845
0.593911
0.668778
0.770032
0.932738
1.13752
1.35912
1.56617
1.729
1.82324
1.83652
1.78675
1.6984
1.58511
1.45938
1.33063
1.20413
1.07585
0.956469
0.852712
0.75836
0.670617
0.588633
0.512784
0.444483
0.388546
0.359258
0.377726
0.48745
0.808542
1.81422
0.421751
0.397457
0.378204
0.364925
0.35606
0.350318
0.346808
0.345011
0.344252
0.344076
0.344659
0.345602
0.346872
0.34833
0.349967
0.351733
0.353626
0.355633
0.35776
0.360009
0.362388
0.364909
0.36758
0.370408
0.373424
0.451645
0.490337
0.539899
0.602535
0.683549
0.7975
0.986691
1.22804
1.49394
1.75196
1.97112
2.12366
2.1879
2.15626
2.05583
1.91841
1.76042
1.59574
1.43426
1.28113
1.13127
0.996165
0.881703
0.77982
0.686584
0.600456
0.521406
0.450592
0.392003
0.360792
0.378247
0.487065
0.810204
1.82827
0.45317
0.420502
0.394208
0.375894
0.363426
0.355093
0.34972
0.346471
0.344851
0.344194
0.344076
0.344749
0.345705
0.346994
0.348452
0.350086
0.351844
0.353727
0.355725
0.35784
0.360078
0.362445
0.364953
0.367597
0.370408
0.373424
0.493063
0.544602
0.610701
0.697919
0.825169
1.04084
1.3176
1.62615
1.934
2.2102
2.4255
2.55375
2.57604
2.4901
2.33253
2.14212
1.93734
1.73274
1.53807
1.35802
1.18634
1.03531
0.91006
0.800628
0.701976
0.611802
0.529676
0.455667
0.39497
0.362497
0.378847
0.486642
0.812081
1.84351
0.49549
0.451568
0.415893
0.390925
0.37372
0.361982
0.35416
0.349147
0.346153
0.344705
0.344147
0.344093
0.344839
0.345814
0.347114
0.348573
0.350202
0.351953
0.353827
0.355814
0.357918
0.360145
0.3625
0.364976
0.367597
0.370408
0.373424
0.54898
0.61842
0.711865
0.852702
1.09415
1.40447
1.75325
2.10853
2.44021
2.71912
2.91687
3.00861
2.97859
2.8306
2.61104
2.36516
2.11273
1.86819
1.64062
1.43394
1.24062
1.07372
0.937692
0.820774
0.716778
0.622681
0.536531
0.460013
0.398247
0.364398
0.379546
0.486272
0.814145
1.86005
0.552835
0.493449
0.44508
0.411281
0.38783
0.371622
0.360586
0.353261
0.348598
0.34586
0.344571
0.344111
0.344134
0.344927
0.345925
0.347231
0.348692
0.350315
0.352059
0.353923
0.355901
0.357994
0.36021
0.362528
0.364976
0.367597
0.370408
0.373424
0.625731
0.725365
0.879783
1.1458
1.48752
1.87382
2.27345
2.6576
2.99821
3.26668
3.43482
3.47919
3.38795
3.17172
2.88681
2.58422
2.28419
2.00042
1.7408
1.5082
1.29374
1.11119
0.964533
0.840237
0.730994
0.631727
0.542403
0.464805
0.401875
0.366521
0.380354
0.48586
0.816473
1.87802
0.632181
0.550223
0.484332
0.438657
0.406928
0.384837
0.369588
0.359235
0.352396
0.348071
0.345589
0.34445
0.34407
0.344197
0.345012
0.346039
0.347346
0.348809
0.350425
0.352163
0.354017
0.355985
0.358068
0.360242
0.362528
0.364976
0.367597
0.370408
0.373424
0.738407
0.906156
1.19526
1.56611
1.98711
2.42776
2.86053
3.25904
3.59601
3.84249
3.97018
3.95756
3.79765
3.50854
3.15629
2.7968
2.44998
2.12818
1.83776
1.58026
1.34537
1.1476
0.990534
0.859029
0.742923
0.639474
0.548879
0.470098
0.405899
0.368901
0.381301
0.485538
0.819064
1.89752
0.749964
0.628862
0.537278
0.475417
0.432586
0.402714
0.381931
0.367615
0.357931
0.351565
0.34757
0.345337
0.344342
0.344031
0.344272
0.345097
0.346153
0.347458
0.348923
0.350532
0.352264
0.354108
0.356068
0.358104
0.360242
0.362528
0.364976
0.367597
0.370408
0.373421
0.931626
1.24216
1.63988
2.09283
2.57111
3.04828
3.49978
3.90049
4.22291
4.43707
4.5146
4.43666
4.20215
3.83712
3.41684
3.00115
2.6089
2.25066
1.9309
1.64971
1.39532
1.18286
1.01569
0.874832
0.753142
0.648024
0.556034
0.475955
0.410371
0.371574
0.382399
0.485177
0.821978
1.9187
0.745887
0.95403
0.609668
0.524893
0.466978
0.426705
0.398617
0.379108
0.365707
0.356675
0.35077
0.347099
0.345111
0.344251
0.344004
0.344354
0.345183
0.346265
0.347569
0.349036
0.350637
0.352362
0.354197
0.356108
0.358104
0.360242
0.362528
0.364976
0.367597
0.370398
0.373413
1.28632
1.70875
2.19095
2.70353
3.22085
3.71988
4.17806
4.57065
4.869
5.04162
5.06035
4.91014
4.59677
4.15433
3.6665
3.19605
2.76021
2.36732
2.01986
1.7163
1.44342
1.21692
1.03685
0.888376
0.764418
0.657482
0.563952
0.482448
0.415352
0.374589
0.383695
0.484959
0.825266
1.94168
0.715737
0.949942
1.32436
0.591881
0.513195
0.458793
0.420983
0.394633
0.376372
0.363864
0.355468
0.350014
0.346664
0.344912
0.344175
0.34399
0.344438
0.345271
0.346376
0.347678
0.349145
0.35074
0.352458
0.354241
0.356108
0.358104
0.360242
0.362528
0.364976
0.36758
0.370377
0.373406
1.7727
2.28165
2.82532
3.37864
3.91973
4.42832
4.88316
5.259
5.52504
5.64786
5.6003
5.37243
4.97766
4.4578
3.90392
3.3808
2.90347
2.47789
2.10442
1.7799
1.48962
1.24547
1.05497
0.903325
0.776882
0.66796
0.572732
0.489662
0.420913
0.377994
0.3852
0.484711
0.828955
1.96664
0.688126
0.902065
1.32046
1.82722
0.575347
0.501845
0.450831
0.415418
0.390769
0.373727
0.36209
0.354315
0.349305
0.346275
0.344741
0.344116
0.343988
0.344522
0.345361
0.346486
0.347785
0.349252
0.35084
0.352506
0.354241
0.356108
0.358104
0.360242
0.362528
0.364953
0.367546
0.370355
0.373398
2.36518
2.937
3.52237
4.10024
4.65215
5.16018
5.60375
5.95582
6.18234
6.24801
6.12796
5.81873
5.34172
4.74583
4.1283
3.555
3.0385
2.58229
2.18453
1.84046
1.52805
1.26985
1.07495
0.919851
0.790686
0.67959
0.582487
0.497696
0.427138
0.381863
0.386994
0.484718
0.833183
1.99368
0.662828
0.8569
1.25116
1.8245
2.43573
0.55948
0.49079
0.443089
0.410016
0.38703
0.371178
0.360391
0.353227
0.348661
0.345935
0.344595
0.344073
0.344
0.344605
0.345453
0.346592
0.347891
0.349357
0.350889
0.352506
0.354241
0.356108
0.358104
0.360242
0.3625
0.364908
0.367512
0.370333
0.37339
3.03912
3.65298
4.26268
4.85115
5.40322
5.9031
6.32956
6.65218
6.83276
6.83485
6.63754
6.24505
5.68666
5.01733
4.33919
3.71854
3.16535
2.68057
2.26024
1.8904
1.56072
1.29664
1.09701
0.93815
0.805999
0.69252
0.59335
0.506664
0.434127
0.386264
0.389079
0.484825
0.837929
2.02302
0.639068
0.814641
1.18311
1.73635
2.43517
3.12467
0.544128
0.480035
0.435579
0.404788
0.383425
0.368731
0.35878
0.352231
0.348087
0.345637
0.344471
0.344042
0.344027
0.344685
0.345547
0.346697
0.347996
0.349409
0.350888
0.352506
0.354241
0.356108
0.358104
0.36021
0.362444
0.364861
0.367476
0.37031
0.373382
3.77145
4.40863
5.02743
5.61486
6.15934
6.64609
7.05147
7.33986
7.46867
7.40175
7.12404
6.64825
6.01092
5.2717
4.53649
3.87157
3.28419
2.77288
2.32222
1.93261
1.59644
1.32611
1.12138
0.958438
0.823021
0.706926
0.605476
0.516703
0.441995
0.391307
0.391478
0.485112
0.843438
2.05475
0.616575
0.77476
1.1167
1.648
2.33079
3.12683
3.86956
0.529246
0.4696
0.428316
0.399744
0.379961
0.366409
0.357301
0.351337
0.347575
0.34538
0.344366
0.344019
0.344072
0.344763
0.345643
0.346802
0.348047
0.349407
0.350888
0.352506
0.354241
0.356108
0.358067
0.360144
0.362387
0.364814
0.36744
0.370287
0.373374
4.53964
5.18344
5.7983
6.3763
6.90857
7.37975
7.76143
8.0113
8.08295
7.94274
7.58338
7.02613
6.31357
5.50875
4.72039
4.01435
3.39529
2.84801
2.37439
1.97852
1.6355
1.35854
1.14834
0.980964
0.841993
0.723011
0.619046
0.527972
0.450884
0.397133
0.394251
0.485743
0.849651
2.08907
0.595206
0.737215
1.05158
1.55977
2.22515
3.00832
3.87376
4.64614
0.514833
0.459511
0.421317
0.3949
0.376673
0.364271
0.355969
0.350535
0.347116
0.34516
0.344277
0.343992
0.344129
0.34484
0.345742
0.346851
0.348044
0.349407
0.350888
0.352506
0.354241
0.356067
0.357993
0.360076
0.362328
0.364765
0.367402
0.370263
0.373365
5.32149
5.95716
6.55866
7.12236
7.64108
8.09632
8.45229
8.65936
8.66898
8.45274
8.01245
7.37726
6.59425
5.7287
4.89127
4.14727
3.4853
2.91108
2.4309
2.02845
1.67822
1.39422
1.17816
1.006
0.863169
0.74101
0.634274
0.540666
0.460962
0.403873
0.397508
0.486721
0.85695
2.1329
0.574874
0.702065
0.987969
1.4711
2.11851
2.88813
3.74254
4.65022
5.43051
0.50091
0.4498
0.414599
0.3903
0.373644
0.362344
0.35477
0.349815
0.346707
0.34497
0.344204
0.34397
0.344193
0.344923
0.34579
0.346846
0.348044
0.349408
0.350888
0.352506
0.354197
0.355984
0.357916
0.360007
0.362267
0.364714
0.367364
0.370238
0.373356
6.09477
6.71157
7.29399
7.84253
8.34929
8.78926
9.11751
9.2773
9.2208
8.92765
8.40917
7.70099
6.85317
5.93202
5.04963
4.2545
3.56069
2.9792
2.4921
2.08272
1.72492
1.43348
1.21118
1.03386
0.886836
0.76119
0.651411
0.555008
0.472437
0.411727
0.401331
0.488202
0.866783
2.18546
0.55551
0.669371
0.926307
1.38197
2.01021
2.76628
3.60996
4.5068
5.43079
6.1998
0.487507
0.440497
0.408227
0.386065
0.370912
0.360606
0.353691
0.349169
0.346346
0.344808
0.344143
0.34396
0.344271
0.344957
0.345785
0.346846
0.348045
0.349408
0.350889
0.352458
0.354107
0.355899
0.357838
0.359936
0.362205
0.364663
0.367324
0.370213
0.373347
6.83971
7.43058
7.99285
8.5293
9.0272
9.45296
9.75087
9.85864
9.73327
9.36444
8.77243
7.99745
7.09088
6.11936
5.17677
4.34415
3.64197
3.05276
2.55833
2.14166
1.77591
1.47665
1.24773
1.06488
0.913314
0.78386
0.670745
0.571281
0.48556
0.420888
0.405922
0.490586
0.880133
2.23877
0.537067
0.639135
0.867194
1.29263
1.8999
2.64204
3.47569
4.36322
5.27439
6.19175
6.93275
0.474661
0.431693
0.402364
0.382246
0.368447
0.35904
0.35272
0.348592
0.34603
0.344668
0.344095
0.343974
0.344306
0.344943
0.345787
0.346846
0.348045
0.349409
0.35084
0.352361
0.354015
0.355812
0.357757
0.359863
0.362141
0.36461
0.367284
0.370187
0.373338
7.53857
8.10163
8.64775
9.1769
9.67012
10.0828
10.3458
10.3975
10.2022
9.7613
9.10214
8.2673
7.30825
6.26886
5.28282
4.44062
3.72955
3.13212
2.62992
2.20559
1.83155
1.52408
1.28816
1.0994
0.942963
0.809365
0.692624
0.589796
0.500636
0.431679
0.41244
0.494577
0.894966
2.29257
0.519512
0.611276
0.811314
1.20358
1.78747
2.51475
3.33902
4.2187
5.12017
6.01973
6.91043
7.61028
0.462503
0.423616
0.397082
0.378802
0.366224
0.357628
0.351849
0.348078
0.345751
0.34455
0.344079
0.343968
0.344297
0.344942
0.345787
0.346847
0.348048
0.349357
0.350738
0.352262
0.35392
0.355722
0.357674
0.359788
0.362076
0.364556
0.367242
0.37016
0.373328
8.17746
8.71735
9.24829
9.77256
10.2652
10.6699
10.8973
10.8883
10.6247
10.1177
9.39903
8.51162
7.48027
6.39312
5.39667
4.54433
3.82379
3.21763
2.70723
2.27487
1.89216
1.57611
1.33283
1.13784
0.976169
0.8381
0.717418
0.610965
0.51806
0.446725
0.421714
0.499764
0.912076
2.34641
0.502944
0.585636
0.759341
1.11559
1.67304
2.38391
3.199
4.07265
4.96674
5.85385
6.71906
7.56621
8.21784
0.451361
0.416359
0.392324
0.375699
0.36422
0.356357
0.351066
0.347618
0.345508
0.344478
0.344056
0.34394
0.344301
0.344942
0.345786
0.346852
0.347996
0.349251
0.350635
0.35216
0.353824
0.35563
0.357589
0.359712
0.362009
0.3645
0.367199
0.370133
0.373319
8.74662
9.26578
9.7937
10.3225
10.8125
11.2049
11.3968
11.3266
10.9996
10.4344
9.66442
8.70287
7.6225
6.52599
5.51867
4.65565
3.92507
3.30964
2.79059
2.3498
1.95806
1.63308
1.38212
1.18059
1.01334
0.870474
0.745607
0.635208
0.541948
0.467371
0.433017
0.506615
0.931159
2.39993
0.487752
0.562152
0.711842
1.02961
1.55691
2.24921
3.05472
3.92386
4.81366
5.69172
6.53924
7.35119
8.13945
8.74815
0.441373
0.40984
0.388041
0.372902
0.362414
0.355214
0.350362
0.347212
0.345337
0.344422
0.344022
0.343941
0.344302
0.344944
0.345791
0.346802
0.34789
0.349143
0.35053
0.352056
0.353724
0.355537
0.357502
0.359633
0.36194
0.364443
0.367156
0.370106
0.37331
9.24271
9.74881
10.2841
10.8288
11.3167
11.6858
11.839
11.7101
11.3271
10.7128
9.86918
8.85981
7.77367
6.66772
5.64916
4.77492
4.03373
3.40849
2.88028
2.43066
2.02954
1.69531
1.43636
1.22801
1.05489
0.906973
0.777592
0.66817
0.57387
0.491554
0.446964
0.515235
0.953061
2.45267
0.474106
0.541089
0.669415
0.946878
1.43961
2.1105
2.9054
3.77108
4.65953
5.53301
6.36748
7.15421
7.89759
8.613
9.18408
0.432434
0.403982
0.384185
0.370384
0.360788
0.354182
0.349736
0.346906
0.345222
0.344376
0.344025
0.343942
0.344298
0.344959
0.345744
0.346697
0.347784
0.349033
0.350422
0.35195
0.353623
0.355441
0.357413
0.359553
0.361869
0.364385
0.367112
0.37008
0.373301
9.65328
10.1595
10.7157
11.2854
11.774
12.1083
12.2196
12.0386
11.6089
10.9235
10.0354
9.02515
7.93373
6.81843
5.78835
4.90241
4.15005
3.51443
2.97658
2.51771
2.10685
1.76306
1.49586
1.28046
1.10124
0.947946
0.820664
0.711384
0.61013
0.519881
0.464151
0.526276
0.977635
2.50415
0.461873
0.522383
0.632928
0.869445
1.32203
1.96786
2.75034
3.61303
4.50281
5.37611
6.20347
6.97092
7.68001
8.3425
8.98169
9.51762
0.424438
0.39872
0.380718
0.368117
0.35932
0.35326
0.349248
0.346716
0.345155
0.344382
0.344026
0.343942
0.344308
0.344925
0.345643
0.346591
0.347676
0.348921
0.350312
0.351842
0.353519
0.355342
0.357322
0.359471
0.361797
0.364327
0.367071
0.370055
0.373292
9.97455
10.4962
11.0887
11.6891
12.1757
12.4659
12.5352
12.314
11.8164
11.092
10.2084
9.19836
8.10245
6.97809
5.93635
5.0383
4.27424
3.6277
3.07969
2.61114
2.19018
1.83654
1.56088
1.33824
1.15264
1.00245
0.875955
0.759235
0.651062
0.552899
0.485521
0.54013
1.00574
2.55392
0.450931
0.505635
0.602264
0.800592
1.20629
1.82159
2.58896
3.44843
4.3418
5.21925
6.04529
6.80097
7.4828
8.10137
8.67538
9.23687
9.74388
0.417287
0.393994
0.3776
0.36607
0.358004
0.352528
0.348955
0.346629
0.345163
0.344383
0.344024
0.343971
0.344273
0.344842
0.345548
0.346484
0.347567
0.348806
0.3502
0.351731
0.353412
0.355242
0.357228
0.359387
0.361726
0.364272
0.36703
0.37003
0.373284
10.2022
10.759
11.4032
12.0368
12.5119
12.7536
12.7838
12.5085
11.9788
11.2641
10.3869
9.37861
8.2793
7.14646
6.09311
5.18267
4.40641
3.74841
3.18972
2.71103
2.27962
1.91586
1.6316
1.40148
1.22005
1.07085
0.935631
0.811607
0.696785
0.59109
0.511804
0.557638
1.03757
2.60147
0.441168
0.490576
0.576272
0.741761
1.09708
1.67336
2.42084
3.27593
4.17463
5.0604
5.89099
6.64197
7.30557
7.88791
8.40684
8.88836
9.36795
9.85368
0.410892
0.389752
0.374789
0.364235
0.356944
0.352097
0.348839
0.346642
0.345164
0.344378
0.344059
0.343978
0.344196
0.344765
0.345454
0.346375
0.347457
0.34869
0.350084
0.351618
0.353302
0.355139
0.357132
0.359304
0.361657
0.364217
0.36699
0.370006
0.373276
10.3327
10.9494
11.6607
12.316
12.7762
12.9694
12.9428
12.6552
12.1401
11.4378
10.5692
9.56466
8.46345
7.32307
6.2584
5.33539
4.54655
3.87656
3.30667
2.8174
2.37517
2.00105
1.70799
1.4832
1.30275
1.14286
0.999105
0.868096
0.747149
0.63458
0.544062
0.579735
1.07405
2.64649
0.432475
0.477029
0.553935
0.692434
0.997825
1.52825
2.24707
3.09427
3.99925
4.89723
5.73831
6.49176
7.14536
7.70186
8.17507
8.58817
8.97442
9.36289
9.83619
0.40517
0.385935
0.37227
0.362742
0.35633
0.351946
0.348858
0.346643
0.345158
0.344426
0.344084
0.343965
0.344131
0.344687
0.345362
0.346264
0.347345
0.348572
0.349967
0.351503
0.35319
0.355035
0.357038
0.359224
0.36159
0.364165
0.366952
0.369983
0.373268
10.3636
11.0734
11.8415
12.5268
12.9578
13.0953
13.0512
12.7933
12.2972
11.6104
10.7531
9.75481
8.65369
7.50709
6.43169
5.49618
4.69446
4.01202
3.43043
2.93009