/*--------------------------------*- C++ -*----------------------------------*\
  =========                 |
  \\      /  F ield         | OpenFOAM: The Open Source CFD Toolbox
   \\    /   O peration     | Website:  https://openfoam.org
    \\  /    A nd           | Version:  8
     \\/     M anipulation  |
\*---------------------------------------------------------------------------*/
FoamFile
{
    version     2.0;
    format      ascii;
    class       volScalarField;
    location    "0.33";
    object      p;
}
// * * * * * * * * * * * * * * * * * * * * * * * * * * * * * * * * * * * * * //

dimensions      [0 2 -2 0 0 0 0];

internalField   nonuniform List<scalar> 
15677
(
74.5965
74.2399
73.8272
74.3045
73.8154
73.8291
74.2795
73.8426
73.8384
73.7226
74.2541
73.844
73.8387
73.7317
73.6312
74.2324
73.8462
73.8386
73.7309
73.6388
73.535
74.2089
73.8485
73.8382
73.732
73.6386
73.5417
73.4205
74.1838
73.8511
73.8374
73.7323
73.6397
73.5417
73.4263
73.2838
74.1576
73.8542
73.8359
73.7324
73.6402
73.5426
73.4264
73.2888
73.1175
74.1303
73.8562
73.834
73.7322
73.6406
73.5432
73.4274
73.2891
73.1219
72.9142
74.1017
73.8577
73.8314
73.7318
73.641
73.5438
73.4281
73.2901
73.1222
72.9179
72.6661
74.0722
73.8593
73.8281
73.7316
73.6414
73.5445
73.4289
73.291
73.1235
72.9184
72.669
72.3648
74.0423
73.8604
73.8247
73.7317
73.642
73.5453
73.43
73.2921
73.1246
72.9198
72.6697
72.367
72.0021
74.0125
73.8605
73.8212
73.7321
73.643
73.5466
73.4314
73.2936
73.1261
72.9212
72.6713
72.3678
72.0034
71.5695
73.9859
73.8593
73.8177
73.7329
73.6447
73.5486
73.4335
73.2958
73.1282
72.9233
72.6732
72.3698
72.0044
71.5698
71.0588
73.963
73.8572
73.8142
73.7343
73.6473
73.5516
73.4368
73.2989
73.1312
72.9261
72.6759
72.3722
72.0068
71.5711
71.0581
70.4627
73.9431
73.8551
73.8113
73.7363
73.6512
73.5562
73.4416
73.3036
73.1357
72.9302
72.6797
72.3757
72.0098
71.5738
71.0597
70.4608
69.7742
73.9257
73.8531
73.8091
73.7389
73.6566
73.5627
73.4486
73.3106
73.1423
72.9364
72.6852
72.3807
72.0143
71.5776
71.0628
70.4626
69.771
68.9877
73.9106
73.8511
73.8075
73.7418
73.6633
73.5718
73.4586
73.3208
73.1521
72.9454
72.6934
72.388
72.0207
71.5833
71.0676
70.4662
69.7731
68.9831
68.0988
73.8975
73.8493
73.8065
73.7452
73.6706
73.5828
73.4723
73.335
73.1661
72.9587
72.7055
72.3987
72.0301
71.5914
71.0745
70.472
69.7772
68.9855
68.0926
67.1047
73.8863
73.8476
73.806
73.7491
73.6787
73.5948
73.489
73.3546
73.1859
72.9777
72.7231
72.4145
72.0439
71.6032
71.0846
70.4804
69.784
68.9901
68.0954
67.0968
66.0043
73.8774
73.8461
73.806
73.7534
73.6874
73.6079
73.5071
73.3784
73.2129
73.0044
72.7483
72.4374
72.0641
71.6206
71.0993
70.4927
69.7942
68.9981
68.1005
67.0999
65.9945
64.7982
73.8705
73.8446
73.8065
73.758
73.6967
73.6221
73.5269
73.4042
73.2458
73.0409
72.7836
72.4702
72.0934
71.6461
71.1208
70.5105
69.8088
69.0099
68.1096
67.1055
65.9979
64.7864
63.4895
73.8652
73.8432
73.8073
73.763
73.7065
73.6372
73.5481
73.4325
73.2816
73.0853
72.8319
72.516
72.1352
71.6829
71.1522
70.5367
69.8301
69.0271
68.1232
67.1157
66.0039
64.79
63.4756
62.0829
73.8611
73.8421
73.8083
73.768
73.7167
73.6529
73.5707
73.4629
73.3207
73.1337
72.8907
72.5787
72.1937
71.7354
71.1977
70.5749
69.8613
69.0521
68.143
67.1311
66.0153
64.7964
63.4794
62.0668
60.5906
73.8579
73.8411
73.8094
73.7727
73.7267
73.6693
73.5943
73.4951
73.3628
73.1867
72.9548
72.6551
72.2738
71.8088
71.2625
70.6301
69.9069
69.0887
68.1718
67.1535
66.0323
64.8087
63.486
62.0706
60.5717
59.0428
73.8553
73.8403
73.8106
73.777
73.7359
73.6854
73.6187
73.5288
73.4075
73.2437
73.0251
72.7387
72.3716
71.9095
71.3532
70.7088
69.9729
69.1422
68.214
67.186
66.057
64.8271
63.4988
62.0768
60.5728
58.9873
57.3791
73.8532
73.8397
73.8117
73.781
73.7443
73.7001
73.6426
73.5637
73.4542
73.3042
73.1009
72.8303
72.4785
72.0324
71.4777
70.8191
70.0671
69.2198
68.2758
67.2337
66.093
64.8539
63.5182
62.0898
60.5775
58.9899
57.3119
55.5846
73.8514
73.8392
73.8128
73.7846
73.7518
73.7134
73.6645
73.5978
73.5025
73.3675
73.1812
72.9291
72.596
72.1672
71.6301
70.9708
70.1991
69.3306
68.3655
67.3039
66.1461
64.8931
63.5465
62.1094
60.589
58.9908
57.3145
55.5544
53.7325
73.85
73.8388
73.8137
73.7878
73.7586
73.7254
73.6843
73.6291
73.5499
73.4331
73.2654
73.0341
72.7228
72.3154
71.7973
71.1567
70.381
69.4864
68.494
67.4061
66.2245
64.951
63.588
62.1383
60.6072
58.9993
57.3089
55.5466
53.7211
51.8287
73.8488
73.8384
73.8144
73.7909
73.7646
73.7361
73.7021
73.6574
73.5934
73.4974
73.3527
73.1442
72.8577
72.4757
71.9815
71.361
70.6045
69.7015
68.6751
67.5529
66.339
65.037
63.65
62.1811
60.635
59.0148
57.3167
55.5372
53.7042
51.8232
49.6821
73.8479
73.8382
73.8151
73.7937
73.7699
73.7456
73.7179
73.6827
73.6326
73.5564
73.4384
73.2584
72.9993
72.6464
72.181
71.5867
70.8508
69.9664
68.9258
67.7603
66.5042
65.1632
63.7424
62.2457
60.6772
59.04
57.3305
55.5465
53.6956
51.8046
49.6798
47.2635
73.847
73.8379
73.8157
73.7961
73.7747
73.7541
73.7321
73.7053
73.6678
73.6097
73.517
73.3706
73.1465
72.8259
72.3939
71.8315
71.1234
70.2591
69.2354
68.0483
66.7382
65.3462
63.8793
62.3433
60.7427
59.0803
57.354
55.5599
53.7054
51.798
49.662
47.2631
44.8173
73.8464
73.8378
73.8163
73.7983
73.7789
73.7616
73.7446
73.7255
73.6992
73.6575
73.5881
73.4737
73.2911
73.0126
72.6181
72.0932
71.4196
70.5837
69.5783
68.4052
67.0645
65.6066
64.0789
62.4892
60.8435
59.145
57.3927
55.5831
53.7189
51.8063
49.6554
47.2465
44.8188
42.3862
73.8458
73.8376
73.8169
73.8002
73.7826
73.7682
73.7557
73.7434
73.7272
73.7002
73.652
73.567
73.4243
73.1965
72.8517
72.3695
71.737
70.9374
69.9598
68.8017
67.4704
65.9713
64.3647
62.7037
60.9963
59.2472
57.4565
55.621
53.7421
51.8198
49.6604
47.2395
44.8042
42.3878
39.9903
73.8375
73.8451
73.8174
73.8019
73.7859
73.7741
73.7656
73.7593
73.7521
73.7383
73.709
73.6508
73.5449
73.366
73.0822
72.6579
72.0728
71.3173
70.3766
69.244
67.9229
66.4269
64.7668
63.0129
61.2234
59.4048
57.5592
55.6841
53.7791
51.8423
49.6725
47.2412
44.797
42.3743
39.9917
37.6423
73.8178
73.8374
73.8443
73.8034
73.7889
73.7794
73.7743
73.7733
73.7741
73.7721
73.7599
73.7259
73.6534
73.5196
73.295
72.943
72.4243
71.7202
70.8254
69.7289
68.4294
66.9367
65.2716
63.4506
61.5535
59.6421
57.7203
55.787
53.8409
51.8775
49.6924
47.2505
44.7957
42.366
39.979
37.6431
35.3545
73.8046
73.8186
73.8373
73.8436
73.7915
73.784
73.7821
73.7858
73.7937
73.8022
73.8051
73.7927
73.7505
73.658
73.4882
73.2068
72.7724
72.143
71.3028
70.2526
68.9863
67.5094
65.8388
64.0029
62.0239
59.9901
57.9655
55.9501
53.9426
51.9366
49.7237
47.2656
44.8017
42.3612
39.9692
37.6309
35.3543
33.1378
73.7937
73.8064
73.8195
73.8372
73.8429
73.7881
73.789
73.7969
73.811
73.8288
73.8453
73.8522
73.8372
73.7821
73.6625
73.4467
73.0953
72.5631
71.8053
70.8115
69.59
68.1414
66.4784
64.6263
62.6209
60.4894
58.328
56.2006
54.1056
52.0353
49.7778
47.2907
44.8112
42.3625
39.9604
37.6192
35.3425
33.1366
31.0007
73.7916
73.7968
73.8085
73.8204
73.8371
73.8422
73.795
73.8067
73.8264
73.8524
73.8809
73.9051
73.9143
73.8928
73.8189
73.6633
73.3896
72.9536
72.3061
71.4016
70.2364
68.8289
67.1871
65.3323
63.2979
61.1272
58.8521
56.5742
54.3585
52.1955
49.8704
47.3364
44.8284
42.3649
39.956
37.6063
35.3286
33.125
30.9984
28.9493
73.8002
73.7964
73.8001
73.8105
73.8213
73.8371
73.8416
73.8153
73.84
73.8733
73.9125
73.952
73.9829
73.9916
73.9587
73.8581
73.6558
73.3103
72.773
71.9917
70.9214
69.5679
67.961
66.1176
64.0681
61.8541
59.5256
57.118
54.7387
52.447
50.0243
47.4187
44.8632
42.3724
39.9501
37.5955
35.3114
33.1086
30.987
28.946
26.9878
73.8226
73.8071
73.8013
73.8036
73.8126
73.8222
73.837
73.8411
73.8521
73.8919
73.9405
73.9936
74.0438
74.0793
74.0834
74.0324
73.8955
73.6337
73.2006
72.5436
71.609
70.354
68.796
66.9786
64.9282
62.6844
60.2969
57.8212
55.2964
52.8291
50.2699
47.5608
44.9317
42.3939
39.9461
37.5804
35.2937
33.0871
30.968
28.9346
26.9836
25.1188
73.8622
73.8324
73.814
73.8064
73.8069
73.8145
73.8231
73.837
73.8406
73.9084
73.9654
74.0305
74.0978
74.1573
74.1944
74.188
74.1104
73.9255
73.5892
73.0505
72.2543
71.1463
69.6882
67.9118
65.8755
63.6159
61.182
58.6302
56.0218
53.3941
50.6486
47.7939
45.0573
42.4455
39.952
37.5635
35.2687
33.0623
30.942
28.9129
26.972
25.1137
23.3434
73.9221
73.8757
73.8417
73.821
73.8113
73.8102
73.8164
73.824
73.8369
73.8401
73.9874
74.0633
74.1457
74.2266
74.2931
74.3267
74.3025
74.1874
73.9404
73.5125
72.8489
71.8927
70.5912
68.9132
66.9067
64.6465
62.1795
59.5629
56.8607
54.1333
51.2136
48.1606
45.272
42.5506
39.9839
37.5523
35.2381
33.0269
30.9099
28.8825
26.9476
25.102
23.3375
21.6614
74.0057
73.9403
73.8878
73.8511
73.8279
73.8161
73.8133
73.8183
73.8249
73.8369
73.8397
74.0924
74.1884
74.2881
74.3807
74.4502
74.4739
74.422
74.2565
73.931
73.3923
72.5828
71.4455
69.9314
68.0186
65.7737
63.2884
60.6193
57.8326
54.9929
51.9586
48.7143
45.6179
42.7413
40.0651
37.5623
35.2083
32.9817
30.8638
28.843
26.9129
25.0749
23.3255
21.6548
20.0719
74.1164
74.03
73.9559
73.9003
73.8604
73.8345
73.8207
73.8164
73.8201
73.8258
73.8369
73.8393
74.2262
74.3428
74.4586
74.5599
74.6266
74.6316
74.54
74.3085
73.886
73.2156
72.2383
70.8989
69.1546
66.9949
64.5071
61.7994
58.9389
55.9941
52.8306
49.4516
46.148
43.0581
40.2267
37.6167
35.1951
32.9326
30.8036
28.786
26.866
25.0359
23.2958
21.6426
20.0646
18.5728
74.2574
74.1483
74.0499
73.9722
73.9125
73.8693
73.8409
73.8252
73.8194
73.8218
73.8267
73.8368
73.8389
74.3913
74.5281
74.6575
74.7625
74.8185
74.7936
74.6476
74.3323
73.7921
72.9677
71.8004
70.239
68.2492
65.8344
63.1029
60.181
57.1396
53.8526
50.3219
46.8621
43.5531
40.5072
37.7446
35.2204
32.8949
30.7347
28.7107
26.7982
24.9817
23.2528
21.6104
20.0522
18.565
17.1617
74.4311
74.2988
74.1735
74.0708
73.988
73.9241
73.8778
73.847
73.8294
73.8221
73.8234
73.8275
73.8368
73.8386
74.5895
74.7445
74.8834
74.985
75.0202
74.9517
74.7342
74.3146
73.6344
72.6329
71.2538
69.4523
67.2048
64.53
61.5602
58.4325
55.0285
51.3491
47.7134
44.2301
40.957
37.9825
35.3109
32.8893
30.6721
28.6219
26.7077
24.9032
23.1914
21.5635
20.0175
18.5522
17.1533
15.8354
74.6398
74.4845
74.3303
74.2001
74.0911
74.003
73.9351
73.8858
73.8528
73.8334
73.8248
73.825
73.8282
73.8368
73.8383
74.8216
74.9914
75.1334
75.2223
75.2237
75.0952
74.7863
74.2403
73.3963
72.1945
70.5831
68.5259
66.0118
63.0785
59.8759
56.3635
52.5389
48.7255
45.0458
41.5837
38.3783
35.5009
32.9398
30.6342
28.534
26.5992
24.7978
23.1024
21.4951
19.9669
18.5152
17.1403
15.8265
14.5906
74.8844
74.7078
74.5237
74.3639
74.2257
74.1101
74.017
73.9455
73.8933
73.8582
73.8372
73.8273
73.8264
73.829
73.8368
73.8381
75.0869
75.266
75.4025
75.4666
75.4186
75.2109
74.7888
74.0923
73.0602
71.6357
69.7734
67.4478
64.6644
61.474
57.8631
53.899
49.9063
46.023
42.3477
38.9426
35.8352
33.0778
30.6426
28.4632
26.4861
24.67
22.9825
21.396
19.8917
18.4611
17.1011
15.8133
14.5813
13.4239
75.1644
74.9702
74.7563
74.5657
74.3961
74.2497
74.1278
74.0302
73.9551
73.9003
73.8632
73.8407
73.8296
73.8277
73.8296
73.8368
73.8379
75.3833
75.5639
75.6836
75.708
75.5922
75.2836
74.724
73.8521
72.6079
70.9396
68.8104
66.2096
63.153
59.534
55.4377
51.2657
47.1714
43.2705
39.6397
36.326
33.3443
30.7257
28.4283
26.382
24.5319
22.836
21.262
19.7829
18.3795
17.0437
15.7719
14.5678
13.4141
12.3316
75.478
75.2721
75.03
74.8086
74.6059
74.426
74.2719
74.1443
74.0423
73.964
73.9068
73.8678
73.8439
73.8316
73.8288
73.8301
73.8368
73.8378
75.7064
75.8782
75.9669
75.9338
75.7289
75.2954
74.573
73.5002
72.0208
70.0898
67.6831
64.798
61.3016
57.1656
52.8153
48.5027
44.3623
40.4884
36.9421
33.7521
30.9194
28.4543
26.3033
24.3948
22.6734
21.0974
19.6354
18.2613
16.9559
15.7115
14.5245
13.4004
12.3211
11.3094
75.8209
75.6121
75.3454
75.0948
74.8585
74.643
74.4535
74.2923
74.1593
74.0533
73.9721
73.9127
73.872
73.8467
73.8334
73.8297
73.8306
73.8368
73.8377
76.0498
76.1995
76.24
76.1286
75.8107
75.2267
74.315
73.0167
71.2807
69.0726
66.3745
63.0454
59.0085
54.5678
50.0295
45.6345
41.4981
37.6979
34.2744
31.2361
28.5715
26.2713
24.2722
22.5039
20.9111
19.4535
18.1011
16.8289
15.6178
14.4612
13.3552
12.3072
11.2979
10.358
76.1869
75.9868
75.7019
75.4256
75.1565
74.9043
74.677
74.4787
74.3108
74.1729
74.0632
73.9793
73.9178
73.8755
73.8491
73.8348
73.8305
73.831
73.8368
73.8375
76.4043
76.5155
76.4876
76.2742
75.8177
75.056
73.929
72.3815
70.3711
67.8684
64.7274
60.8395
56.4479
51.7634
47.0985
42.6782
38.6003
34.9198
31.6537
28.7909
26.3092
24.1818
22.3379
20.7099
19.2442
17.9027
16.6566
15.4825
14.362
13.2893
12.2603
11.284
10.3408
9.56425
76.5668
76.391
76.0966
75.8006
75.5015
75.2129
74.9461
74.7078
74.5012
74.3272
74.1848
74.0719
73.9855
73.9221
73.8785
73.8511
73.8361
73.8312
73.8314
73.8368
73.8375
76.7577
76.8113
76.6915
76.3505
75.7275
74.7611
73.393
71.5757
69.2707
66.3295
62.6128
58.3217
53.6302
48.766
44.0399
39.6579
35.6934
32.1744
29.0953
26.427
24.1389
22.1894
20.5014
19.0123
17.6713
16.4424
15.2987
14.2188
13.1849
12.1921
11.2357
10.3276
9.55815
8.89532
76.9486
76.8165
76.5251
76.2181
75.8939
75.5707
75.264
74.9836
74.7352
74.5211
74.3415
74.1951
74.0792
73.9905
73.9256
73.8809
73.8528
73.8371
73.8318
73.8317
73.8368
73.8374
77.0951
77.0686
76.8312
76.3342
75.5171
74.3183
72.6863
70.5765
67.8383
64.3044
60.1393
55.4987
50.5742
45.6012
40.8855
36.6043
32.8025
29.481
26.6126
24.153
22.0654
20.2956
18.7628
17.4099
16.1901
15.0698
14.0243
13.0345
12.0828
11.1657
10.278
9.55127
8.90241
8.20008
77.3169
77.2525
76.9801
76.6742
76.3326
75.9787
75.6332
75.3097
75.0167
74.7589
74.538
74.3535
74.2035
74.085
73.9945
73.9283
73.8828
73.8541
73.8379
73.8323
73.8319
73.8368
73.8373
77.3982
77.2668
76.8832
76.2016
75.161
73.7053
71.7842
69.2455
65.8982
61.879
57.3274
52.4084
47.3214
42.3126
37.6744
33.5493
29.9521
26.8569
24.217
21.9754
20.0915
18.501
17.1207
15.9004
14.7974
13.7814
12.8299
11.9256
11.0519
10.2066
9.50096
8.89684
8.2005
7.44802
77.6531
77.6852
77.4518
77.1629
76.8144
76.4363
76.055
75.6887
75.3495
75.0451
74.7789
74.5519
74.3631
74.2099
74.0892
73.9974
73.9304
73.8842
73.8551
73.8386
73.8327
73.8321
73.8368
73.8373
77.6458
77.3819
76.8227
75.926
74.6358
72.8946
70.5478
67.3867
63.5295
59.1027
54.2394
49.1071
43.924
38.9458
34.4443
30.5227
27.1641
24.3168
21.9173
19.8985
18.2184
16.8047
15.5732
14.4809
13.49
12.5739
11.7116
10.8884
10.0884
9.4292
8.8477
8.18963
7.44094
6.6238
77.9355
78.0974
77.9275
77.6755
77.3344
76.9413
76.5293
76.1224
75.7368
75.3834
75.0685
74.7949
74.5626
74.37
74.2143
74.0921
73.9994
73.9318
73.8852
73.8558
73.8391
73.833
73.8323
73.8368
73.8373
77.8136
77.3885
76.6221
75.4821
73.9102
71.7456
68.7684
65.0862
60.8158
56.056
50.936
45.646
40.427
35.5406
31.2286
27.5503
24.4567
21.8724
19.7199
17.9252
16.4462
15.2051
14.1176
13.1481
12.2645
11.4432
10.6656
9.91925
9.3074
8.77488
8.14053
7.42551
6.61375
5.72598
78.1385
78.4691
78.3911
78.2006
77.885
77.4895
77.0549
76.6113
76.1805
75.7772
75.4109
75.0869
74.8066
74.5698
74.3743
74.217
74.0938
74.0005
73.9326
73.8859
73.8563
73.8394
73.8332
73.8324
73.8368
73.8372
77.8751
77.2583
76.2544
74.8351
72.8416
70.0453
66.5477
62.4584
57.8431
52.7915
47.4575
42.062
36.8669
32.1313
28.0564
24.654
21.8447
19.5324
17.6291
16.0563
14.7738
13.6997
12.7505
11.8986
11.117
10.3856
9.68805
9.13361
8.65032
8.06557
7.37487
6.597
5.71471
4.75163
78.2342
78.7769
78.8238
78.7237
78.4562
78.0745
77.6282
77.1547
76.6817
76.229
75.8097
75.432
75.0998
74.814
74.5738
74.3764
74.2181
74.0945
74.001
73.933
73.8862
73.8566
73.8397
73.8334
73.8325
73.8368
73.8372
77.8007
76.9623
75.6816
73.8407
71.2202
67.9136
64.0222
59.5829
54.6492
49.3353
43.8296
38.3845
33.2756
28.7479
24.9519
21.8513
19.3391
17.3028
15.647
14.2915
13.1991
12.2854
11.4687
10.7285
10.0435
9.3972
8.89558
8.47246
7.93797
7.29673
6.54461
5.69754
4.73946
3.69432
78.1905
78.9952
79.2031
79.2276
79.035
78.6876
78.2441
77.7501
77.2402
76.7401
76.2674
75.8339
75.4462
75.1072
74.8174
74.5749
74.3765
74.2178
74.0941
74.0008
73.9329
73.8862
73.8567
73.8399
73.8336
73.8325
73.8368
73.8373
77.5588
76.46
74.758
72.2981
69.1828
65.4996
61.258
56.4815
51.2468
45.702
40.0733
34.6407
29.6823
25.4165
21.9356
19.156
16.9479
15.187
13.774
12.629
11.7193
10.9589
10.2681
9.6338
9.04033
8.5959
8.22881
7.75557
7.16556
6.46298
5.64352
4.72137
3.68157
2.54699
77.9709
79.096
79.5037
79.6913
79.6055
79.3172
78.8949
78.3931
77.8543
77.3108
76.7859
76.2955
75.8496
75.4534
75.1095
74.8171
74.5735
74.3748
74.2163
74.093
74
73.9324
73.8859
73.8569
73.8403
73.8337
73.8325
73.8368
73.8373
77.1055
75.6037
73.2959
70.3571
66.8834
62.8535
58.263
53.1567
47.6415
41.9047
36.2104
30.8579
26.1146
22.1603
19.0236
16.5779
14.676
13.1863
12.0089
11.0664
10.3313
9.71644
9.14486
8.61072
8.22694
7.9216
7.50585
6.97806
6.32781
5.55859
4.66571
3.66234
2.53399
1.30251
77.5251
79.0483
79.6972
80.0913
80.1488
79.9491
79.5706
79.0772
78.5204
77.9401
77.3659
76.819
76.313
75.8565
75.4543
75.1073
74.8137
74.57
74.3717
74.2138
74.0911
73.9986
73.9314
73.8861
73.8575
73.8405
73.8337
73.8325
73.8368
73.8373
76.2894
74.223
71.4533
68.171
64.3568
59.9725
55.0328
49.6074
43.8394
37.9592
32.265
27.064
22.5982
18.9987
16.2285
14.1238
12.5257
11.3003
10.3495
9.60063
9.03117
8.55395
8.09507
7.78121
7.54247
7.19047
6.72168
6.13461
5.4191
4.57755
3.60501
2.51397
1.28938
-0.0467165
78.8096
76.702
79.7506
80.4008
80.6426
80.5659
80.2583
79.7938
79.2333
78.6254
78.007
77.4052
76.8387
76.3195
75.8555
75.4496
75.1012
74.8076
74.5646
74.3673
74.2104
74.0884
73.9966
73.9315
73.887
73.8578
73.8405
73.8336
73.8324
73.8368
73.8374
74.9602
72.4789
69.3791
65.7614
61.5922
56.8479
51.5615
45.8337
39.8502
33.8854
28.2644
23.2876
19.1572
15.9481
13.5597
11.7976
10.4973
9.52693
8.79298
8.22773
7.81485
7.46752
7.2439
7.08319
6.80032
6.39741
5.87095
5.21967
4.43342
3.51348
2.45474
1.26881
-0.0600003
-1.50874
79.6254
78.2367
75.3569
80.5878
81.0625
81.1471
80.9425
80.5316
79.9855
79.3623
78.7072
78.0545
77.4282
76.8452
76.3165
75.8478
75.4402
75.0919
74.7992
74.5575
74.3617
74.2058
74.085
73.9964
73.9328
73.8874
73.8578
73.8403
73.8334
73.8323
73.8368
73.8375
73.2829
70.5135
67.0847
63.1118
58.5787
53.471
47.8451
41.8397
35.6881
29.7075
24.2382
19.557
15.813
13.0216
11.0232
9.60044
8.58945
7.86353
7.33536
6.94358
6.67831
6.58676
6.52769
6.32639
5.99531
5.53699
4.94808
4.22724
3.3643
2.35957
1.20749
-0.0812074
-1.52216
-3.09187
80.6158
79.2004
77.2175
73.6804
81.3779
81.6701
81.6045
81.2767
80.7672
80.1445
79.4632
78.7654
78.082
77.435
76.8399
76.3052
75.8343
75.4267
75.0796
74.7888
74.5491
74.3547
74.2004
74.0843
73.9981
73.9333
73.8874
73.8575
73.8399
73.8332
73.8321
73.8368
73.8376
71.3937
68.3323
64.5495
60.2106
55.3064
49.8352
43.883
37.6335
31.3724
25.4541
20.2181
15.8992
12.5842
10.2292
8.62231
7.53191
6.79946
6.30611
5.97235
5.74397
5.75722
5.84574
5.75122
5.50553
5.12194
4.60357
3.94705
3.15082
2.20487
1.10848
-0.144571
-1.54408
-3.10537
-4.80464
81.5564
80.3791
78.3334
75.879
71.8048
82.1063
82.2234
82.0122
81.5662
80.9636
80.2696
79.5354
78.7993
78.0897
77.4273
76.8245
76.2868
75.8158
75.4098
75.065
74.7767
74.5389
74.3465
74.1989
74.0867
73.9989
73.9333
73.887
73.8569
73.8397
73.833
73.8319
73.8368
73.8377
69.2933
65.9106
61.7619
57.0478
51.768
45.9367
39.677
33.2273
26.9273
21.1573
16.2359
12.3394
9.48611
7.57713
6.35807
5.58996
5.12347
4.8502
4.69955
4.77218
4.98247
5.04243
4.90907
4.61501
4.1745
3.59107
2.86133
1.98354
0.947833
-0.247549
-1.60946
-3.12802
-4.81812
-6.65573
82.4273
81.5115
79.7389
77.1497
74.3298
69.7266
82.7727
82.7191
82.3674
81.8091
81.1195
80.3603
79.5783
78.8092
78.08
77.4075
76.8005
76.2625
75.7932
75.39
75.0484
74.7625
74.5272
74.3441
74.2023
74.0878
73.9989
73.9328
73.8861
73.8567
73.8394
73.8327
73.8317
73.8368
73.8378
66.952
63.2377
58.7129
53.6164
47.9577
41.7725
35.2321
28.6382
22.382
16.8522
12.3234
8.89948
6.53021
5.06942
4.22969
3.77099
3.5569
3.49113
3.66899
3.95506
4.14267
4.17133
3.99557
3.64906
3.14685
2.4929
1.68399
0.718075
-0.414577
-1.71659
-3.19542
-4.84148
-6.66912
-8.65361
83.2282
82.5679
81.1035
78.7883
75.7612
72.5809
67.4098
83.3729
83.1536
82.6676
82.0038
81.2341
80.4155
79.592
78.7979
78.0554
77.3772
76.7693
76.2331
75.7671
75.3678
75.0291
74.7463
74.5236
74.3485
74.2037
74.0878
73.9981
73.9315
73.8859
73.8566
73.8391
73.8323
73.8314
73.8368
73.838
64.3607
60.3068
55.3971
49.9108
43.8699
37.3406
30.5557
23.8881
17.7707
12.5752
8.50993
5.59777
3.72483
2.70747
2.23437
2.07052
2.09487
2.39117
2.80278
3.06945
3.23225
3.22666
3.00484
2.60146
2.03236
1.30212
0.407679
-0.653346
-1.89045
-3.30695
-4.9109
-6.69314
-8.66643
-10.8104
83.9534
83.5486
82.3854
80.3926
77.6337
74.2014
70.5961
64.8446
83.9024
83.5238
82.9107
82.1491
81.3061
80.4356
79.5802
78.7687
78.0183
77.3382
76.732
76.1996
75.7382
75.3422
75.0074
74.741
74.5293
74.3503
74.2037
74.0867
73.9964
73.9315
73.8862
73.8563
73.8386
73.8318
73.831
73.8368
73.8382
61.5145
57.115
51.8102
45.9242
39.4977
32.6389
25.6591
19.0056
13.1319
8.36317
4.82193
2.44881
1.07511
0.490063
0.368142
0.483561
0.911871
1.46704
1.86427
2.10974
2.24532
2.20244
1.93059
1.46552
0.824034
0.0113269
-0.975383
-2.13881
-3.48808
-5.02708
-6.7644
-8.69056
-10.8192
-13.5311
84.597
84.4468
83.5873
81.9092
79.4747
76.33
72.4328
68.3676
62.0271
84.3575
83.8271
83.0954
82.2437
81.3358
80.4248
79.5467
78.7244
77.9707
77.292
76.6898
76.1626
75.7052
75.3138
74.9999
74.7484
74.5316
74.3503
74.2023
74.0843
73.9966
73.9324
73.8862
73.8558
73.8379
73.8312
73.8306
73.8368
73.8384
58.4128
53.6602
47.9463
41.6476
34.8305
27.6652
20.559
14.0256
8.50723
4.25113
1.28214
-0.536767
-1.41733
-1.58569
-1.37386
-0.800427
-0.0816274
0.466162
0.847714
1.06993
1.17579
1.0923
0.766094
0.234221
-0.485539
-1.38726
-2.47329
-3.74664
-5.21595
-6.88539
-8.76377
-10.8433
-13.545
-16.777
85.154
85.2543
84.7029
83.3424
81.2236
78.4225
74.8408
70.4431
65.897
58.9579
84.7346
84.0614
83.2197
82.2875
81.3284
80.3878
79.495
78.6674
77.9145
77.2399
76.6436
76.1209
75.6687
75.3038
75.0093
74.7513
74.5316
74.3485
74.199
74.0851
73.9986
73.933
73.8859
73.8551
73.8371
73.8305
73.8301
73.8368
73.8386
55.0563
49.9393
43.7966
37.065
29.8543
22.4214
15.2805
8.98985
3.93968
0.271788
-2.09103
-3.35281
-3.75332
-3.52404
-2.78339
-1.87834
-1.15716
-0.617421
-0.253029
-0.0562292
0.0171928
-0.110538
-0.49571
-1.09985
-1.90413
-2.90172
-4.09438
-5.48532
-7.0824
-8.88988
-10.9165
-13.5756
-16.795
-20.0915
85.6204
85.9628
85.7229
84.6865
82.8847
80.417
77.2028
73.15
68.2336
63.1915
55.6394
85.0312
84.2243
83.2833
82.2865
81.2894
80.3291
79.4283
78.6001
77.8513
77.1831
76.5917
76.0748
75.6556
75.3155
75.013
74.7513
74.5293
74.3441
74.2004
74.0885
74
73.933
73.8852
73.854
73.8361
73.8297
73.8296
73.8368
73.8389
51.4445
45.9462
39.3451
32.1564
24.5598
16.9209
9.86027
3.94607
-0.527354
-3.54607
-5.28461
-5.99667
-5.93586
-5.09269
-3.96627
-3.04473
-2.32103
-1.79004
-1.44433
-1.27529
-1.23731
-1.41313
-1.8622
-2.54443
-3.43978
-4.54031
-5.84711
-7.3632
-9.09556
-11.0475
-13.6548
-16.8282
-20.1042
-23.4099
85.993
86.5652
86.6375
85.9311
84.4531
82.3176
79.4616
75.7944
71.2591
65.8136
60.2617
52.0727
85.2437
84.3149
83.2931
82.2477
81.2243
80.2522
79.3491
78.5246
77.7825
77.1195
76.5345
76.0579
75.6702
75.32
75.013
74.7484
74.5236
74.3466
74.206
74.0912
74.0008
73.9326
73.8842
73.8527
73.8348
73.8288
73.829
73.8368
73.8393
47.5743
41.6697
34.568
26.8961
18.9358
11.185
4.34615
-1.05262
-4.85234
-7.17955
-8.29026
-8.46888
-7.70239
-6.40869
-5.24565
-4.30636
-3.5798
-3.05822
-2.73284
-2.59411
-2.59475
-2.82281
-3.34103
-4.10743
-5.10064
-6.31139
-7.73978
-9.38845
-11.2621
-13.7961
-16.9152
-20.1334
-23.4208
-26.7154
86.2674
87.0559
87.4367
87.065
85.918
84.1181
81.622
78.3294
74.1974
69.1786
63.199
57.1186
48.2573
85.3704
84.341
83.2575
82.1774
81.1374
80.1605
79.2601
78.4424
77.7057
77.0496
76.5133
76.0759
75.6757
75.3201
75.0093
74.741
74.5273
74.3549
74.2105
74.0931
74.001
73.9318
73.8827
73.8511
73.8334
73.8277
73.8283
73.8369
73.8397
43.4383
37.083
29.423
21.243
12.9684
5.24072
-1.20537
-5.95076
-8.99873
-10.6114
-11.1042
-10.4703
-9.18355
-7.83138
-6.6288
-5.67004
-4.94014
-4.4287
-4.12544
-4.01969
-4.06237
-4.3471
-4.93997
-5.79686
-6.8949
-8.22311
-9.78047
-11.5677
-14.0236
-17.0687
-20.2197
-23.4503
-26.7253
-29.9966
86.4406
87.4283
88.1109
88.0771
87.2686
85.8074
83.6769
80.7614
77.0178
72.4223
66.9268
60.4088
53.7735
44.1924
85.4201
84.3127
83.184
82.081
81.0327
80.057
79.1632
78.3509
77.6212
77.0233
76.5352
76.0826
75.6757
75.3155
74.9999
74.7464
74.5392
74.3619
74.2139
74.0942
74.0005
73.9303
73.8809
73.8491
73.8316
73.8264
73.8275
73.8369
73.8401
39.0158
32.1441
23.8533
15.1525
6.65595
-0.868424
-6.72951
-10.6941
-12.9358
-13.8305
-13.3833
-12.1475
-10.7837
-9.36849
-8.12276
-7.14257
-6.40886
-5.90838
-5.62905
-5.55913
-5.6475
-5.99354
-6.66674
-7.62062
-8.83043
-10.2834
-11.9757
-14.3458
-17.3126
-20.3778
-23.5377
-26.7563
-30.0055
-33.2332
86.5223
87.677
88.6479
88.9561
88.4931
87.374
85.6138
83.0837
79.7281
75.5362
70.4882
64.5268
57.4626
50.2402
39.8688
85.4046
84.239
83.0793
81.9633
80.914
79.9443
79.0554
78.2503
77.5893
77.0498
76.5431
76.0826
75.6702
75.3037
75.0075
74.7628
74.5494
74.3675
74.2164
74.0945
73.9993
73.9283
73.8785
73.8467
73.8296
73.825
73.8267
73.8369
73.8406
34.2768
26.8003
17.7936
8.58712
0.0174188
-7.07754
-12.1559
-15.2314
-16.6399
-16.4395
-15.2917
-13.958
-12.5109
-11.0272
-9.73437
-8.73074
-7.9928
-7.50405
-7.25058
-7.21949
-7.35738
-7.76951
-8.52889
-9.58624
-10.9147
-12.4983
-14.7736
-17.6545
-20.6323
-23.7013
-26.8456
-30.0371
-33.241
-36.4032
86.5264
87.8133
89.0342
89.6853
89.5792
88.8052
87.4196
85.2842
82.3233
78.5289
73.9033
68.4198
62.0031
54.3798
46.5271
35.2664
85.3346
84.1278
82.949
81.8289
80.7842
79.8187
78.9368
78.2119
77.621
77.0593
76.5431
76.0759
75.6555
75.314
75.0295
74.7771
74.5579
74.3719
74.2179
74.0938
73.9974
73.9256
73.8755
73.844
73.8273
73.8234
73.8258
73.837
73.8411
29.1756
20.9713
11.1596
1.52286
-6.90503
-13.3035
-17.4113
-19.5179
-19.6455
-18.6224
-17.3496
-15.91
-14.3722
-12.8141
-11.4702
-10.4412
-9.69854
-9.22236
-8.99677
-9.00757
-9.19892
-9.68208
-10.5334
-11.7007
-13.1534
-15.3195
-18.1041
-20.9882
-23.9654
-27.016
-30.1276
-33.273
-36.4097
-39.4848
86.4655
87.8544
89.2778
90.244
90.5065
90.089
89.0792
87.3494
84.7933
81.3986
77.1811
72.1446
66.2444
59.3802
51.1811
42.6362
30.3554
85.2196
83.986
82.7987
81.6813
80.6396
79.6803
78.8912
78.2496
77.6322
77.0593
76.5352
76.0579
75.6689
75.3428
75.0489
74.7892
74.5649
74.375
74.2181
74.0921
73.9944
73.9221
73.872
73.8408
73.8248
73.8218
73.8249
73.837
73.8417
23.6408
14.5341
3.85262
-6.04956
-14.038
-19.4459
-22.4209
-23.0005
-22.1572
-20.9733
-19.5648
-18.0096
-16.3734
-14.7352
-13.3365
-12.2801
-11.5323
-11.0696
-10.8739
-10.9297
-11.1785
-11.7376
-12.6866
-13.9689
-16.0021
-18.6741
-21.4537
-24.3324
-27.2896
-30.3039
-33.3642
-36.4419
-39.49
-42.4569
86.3508
87.8158
89.3978
90.6356
91.2468
91.2031
90.5774
89.2631
87.1259
84.138
80.3238
75.7093
70.2884
63.9896
56.6834
47.8895
38.5715
25.0955
85.068
83.8201
82.6327
81.5164
80.4798
79.6268
78.9358
78.2626
77.6322
77.0498
76.5132
76.0751
75.7059
75.3685
75.0656
74.7996
74.5702
74.3766
74.217
74.0892
73.9905
73.9178
73.8679
73.8372
73.8221
73.8201
73.8241
73.8371
73.8423
17.561
7.30295
-4.24408
-14.097
-21.2795
-25.3701
-26.5125
-25.9058
-24.8557
-23.4985
-21.9417
-20.2611
-18.5194
-16.7958
-15.3385
-14.2529
-13.4996
-13.0513
-12.8875
-12.9914
-13.3017
-13.9414
-14.9927
-16.8517
-19.3838
-22.0406
-24.8087
-27.6655
-30.5847
-33.5449
-36.533
-39.5219
-42.4607
-45.2984
86.1921
87.7112
89.4132
90.8779
91.7998
92.1143
91.8881
91.0074
89.3058
86.7382
83.3284
79.122
74.1418
68.3642
61.6834
53.9404
44.5281
34.3352
19.4288
84.8874
83.6356
82.4465
81.3337
80.4176
79.6792
78.9509
78.2626
77.621
77.0233
76.5348
76.1217
75.7391
75.3908
75.0802
74.808
74.5737
74.3764
74.2143
74.085
73.9855
73.9127
73.8632
73.8334
73.8193
73.8183
73.8231
73.8371
73.843
10.7479
-1.03605
-13.1691
-22.5812
-28.3888
-30.2361
-29.9263
-29.0206
-27.7432
-26.1988
-24.482
-22.6672
-20.8133
-18.9995
-17.4804
-16.3639
-15.6049
-15.1719
-15.0422
-15.1971
-15.5727
-16.2968
-17.9186
-20.2661
-22.7689
-25.4058
-28.1488
-30.966
-33.83
-36.7166
-39.6125
-42.492
-45.3007
-47.9891
85.9987
87.5528
89.3415
90.9886
92.1834
92.8202
92.9708
92.5502
91.3147
89.1863
86.1904
82.3847
77.8209
72.5081
66.4011
59.355
51.179
41.1185
29.9404
13.2913
84.6844
83.4275
82.2395
81.2622
80.4787
79.6966
78.9509
78.2496
77.5892
77.05
76.5927
76.1637
75.7681
75.4106
75.0923
74.8139
74.575
74.3743
74.2099
74.0792
73.9793
73.9068
73.8581
73.8294
73.8164
73.8164
73.8222
73.8372
73.8436
2.85339
-10.8247
-23.0795
-31.0694
-34.2914
-34.2891
-33.5725
-32.3457
-30.8143
-29.0701
-27.184
-25.2274
-23.256
-21.348
-19.7645
-18.616
-17.8513
-17.4348
-17.341
-17.5497
-17.9935
-19.2789
-21.3745
-23.6741
-26.1449
-28.7504
-31.451
-34.2121
-37.0028
-39.7968
-42.5809
-45.3309
-47.9903
-50.5105
85.7783
87.3517
89.1988
90.9858
92.4156
93.3395
93.8208
93.8392
93.1163
91.4659
88.9011
85.4986
81.3332
76.4497
70.8378
64.4287
57.031
48.4291
37.6973
25.447
6.60739
84.4539
83.1952
82.1578
81.3331
80.4987
79.6966
78.9358
78.2117
77.6218
77.1208
76.645
76.2008
75.7942
75.4274
75.1016
74.8172
74.5738
74.3699
74.2036
74.0719
73.972
73.9003
73.8527
73.8251
73.8133
73.8145
73.8213
73.8373
73.8444
-6.69708
-23.2451
-33.1563
-38.3995
-39.1501
-38.5765
-37.4335
-35.8672
-34.0591
-32.1034
-30.0421
-27.9383
-25.8455
-23.8409
-22.1914
-21.0102
-20.2401
-19.8412
-19.7851
-20.0495
-21.0499
-22.7889
-24.8119
-27.0636
-29.4931
-32.051
-34.6933
-37.3814
-40.0806
-42.7636
-45.4173
-48.0187
-50.5103
-52.8455
85.5261
87.1168
88.9998
90.8869
92.5141
93.691
94.4607
94.8625
94.6469
93.539
91.4479
88.4604
84.6868
80.2027
75.0376
69.1598
62.4726
54.7403
45.7361
34.3124
20.967
-0.697855
84.1954
83.1028
82.2397
81.3558
80.4987
79.6792
78.891
78.2508
77.7072
77.1848
76.6914
76.2343
75.8167
75.4407
75.1075
74.8174
74.5698
74.3631
74.1951
74.0632
73.9639
73.8932
73.8469
73.8206
73.8101
73.8125
73.8204
73.8373
73.8451
-20.3868
-36.8388
-43.1707
-44.5444
-44.2477
-43.0468
-41.4619
-39.5564
-37.4625
-35.2842
-33.0455
-30.7922
-28.5764
-26.4745
-24.7586
-23.545
-22.7702
-22.39
-22.3727
-23.1947
-24.631
-26.2654
-28.2194
-30.4165
-32.7903
-35.2856
-37.8537
-40.4514
-43.0412
-45.5958
-48.1015
-50.5363