/*--------------------------------*- C++ -*----------------------------------*\
  =========                 |
  \\      /  F ield         | OpenFOAM: The Open Source CFD Toolbox
   \\    /   O peration     | Website:  https://openfoam.org
    \\  /    A nd           | Version:  8
     \\/     M anipulation  |
\*---------------------------------------------------------------------------*/
FoamFile
{
    version     2.0;
    format      ascii;
    class       volScalarField;
    location    "0.04";
    object      epsilon;
}
// * * * * * * * * * * * * * * * * * * * * * * * * * * * * * * * * * * * * * //

dimensions      [0 2 -3 0 0 0 0];

internalField   nonuniform List<scalar> 
15677
(
59.73
18.3648
52.6885
8.08403
26.0263
50.2355
4.62261
13.3239
31.6579
50.5439
3.17435
7.74877
17.1294
37.3362
51.6409
2.48716
5.05373
10.0492
20.8529
42.6875
53.6733
2.14435
3.62728
6.47337
12.183
24.5758
47.6775
55.7419
1.97936
2.82253
4.53012
7.73459
14.2961
28.27
52.0365
57.6615
1.9115
2.35323
3.40422
5.31522
8.92723
16.4349
31.7711
55.7047
59.3607
1.88407
2.08019
2.72432
3.91154
6.02788
10.1123
18.5469
34.9581
58.7186
60.8517
1.8705
1.93933
2.30751
3.05653
4.36117
6.71075
11.2809
20.5714
37.7728
61.185
62.1308
1.86764
1.87827
2.05656
2.5215
3.34968
4.77814
7.36794
12.42
22.4588
40.2261
63.1775
63.2387
1.86864
1.84883
1.91658
2.18619
2.71331
3.61603
5.16828
8.00276
13.5052
24.1958
42.3204
64.7967
64.1573
1.86956
1.83869
1.85193
1.98267
2.30726
2.88676
3.85985
5.53713
8.60535
14.5314
25.7588
44.1021
66.0884
64.9903
1.86981
1.83696
1.82114
1.86776
2.05155
2.4183
3.04379
4.08543
5.88187
9.17767
15.4819
27.1512
45.5814
67.1434
65.7462
1.8698
1.83722
1.81054
1.81336
1.89826
2.11755
2.51914
3.18689
4.29262
6.20616
9.71062
16.3524
28.3604
46.8316
68.0171
66.3707
1.86976
1.83748
1.80825
1.78979
1.81543
1.93035
2.17894
2.61061
3.31656
4.48452
6.5059
10.2021
17.1291
29.4146
47.8804
68.7114
66.9318
1.86973
1.83757
1.80796
1.78276
1.77572
1.82152
1.96245
2.23525
2.69301
3.43496
4.65993
6.78044
10.6447
17.8223
30.3227
48.7229
69.2902
67.4369
1.86972
1.83758
1.80798
1.78105
1.76147
1.76615
1.83177
1.9931
2.28623
2.76758
3.542
4.81863
7.0267
11.043
18.4319
31.0732
49.4019
69.7657
67.9466
1.86971
1.83757
1.80799
1.78073
1.75699
1.74393
1.76037
1.84309
2.02152
2.33236
2.83447
3.63772
4.95971
7.24738
11.3948
18.9482
31.6787
49.9421
70.2124
68.353
1.86971
1.83756
1.80798
1.7807
1.75572
1.73589
1.72945
1.75734
1.85447
2.04765
2.3737
2.89383
3.72212
5.08491
7.44045
11.6963
19.3658
32.1692
50.3911
70.5438
68.8225
1.86971
1.83755
1.80796
1.78069
1.7554
1.73317
1.7172
1.71792
1.75586
1.86568
2.0713
2.41031
2.94591
3.79625
5.1928
7.6062
11.9384
19.7107
32.555
50.7135
70.9083
69.1341
1.86971
1.83754
1.80795
1.78068
1.75531
1.73232
1.71255
1.70119
1.70851
1.75588
1.8762
2.09239
2.44245
2.99137
3.85946
5.28511
7.73758
12.1387
19.9748
32.844
50.9825
71.1468
69.589
1.86971
1.83754
1.80793
1.78066
1.75527
1.73206
1.7109
1.69434
1.68734
1.701
1.75625
1.88586
2.11112
2.47056
3.03006
3.91331
5.35747
7.84503
12.2899
20.1804
33.047
51.1473
71.4788
69.8382
1.86971
1.83753
1.80792
1.78064
1.75524
1.73195
1.71034
1.69168
1.67814
1.67549
1.69479
1.7571
1.89484
2.12774
2.49468
3.06306
3.95578
5.41618
7.92635
12.4075
20.3118
33.1711
51.2804
71.6715
70.3133
1.86971
1.83753
1.80792
1.78063
1.7552
1.73189
1.71013
1.69068
1.67437
1.66389
1.66507
1.68988
1.75869
1.90312
2.14235
2.51564
3.08999
3.99077
5.46117
7.98769
12.4791
20.3973
33.2319
51.361
72.0513
70.5692
1.86971
1.83753
1.80791
1.78062
1.75518
1.73184
1.71002
1.69026
1.67289
1.65888
1.65091
1.65673
1.68631
1.76048
1.91096
2.15577
2.53383
3.11299
4.01835
5.49485
8.02629
12.526
20.4149
33.2304
51.4085
72.3443
430.603
1.86971
1.83753
1.80791
1.78061
1.75516
1.7318
1.70995
1.69005
1.67232
1.65679
1.64446
1.64058
1.64948
1.68349
1.76329
1.9191
2.1684
2.55038
3.1326
4.04084
5.51853
8.05064
12.5281
20.4028
33.2115
51.504
88.6015
722.728
1.86971
1.83753
1.8079
1.7806
1.75514
1.73176
1.70989
1.68992
1.67206
1.6559
1.64164
1.633
1.63087
1.64432
1.68321
1.76744
1.9279
2.1813
2.56636
3.15087
4.05945
5.53512
8.05543
12.5183
20.3713
33.1725
52.387
121.845
1009.44
1.86971
1.83753
1.8079
1.78059
1.75513
1.73174
1.70984
1.68983
1.67191
1.65548
1.6404
1.62954
1.6219
1.62434
1.64054
1.68451
1.77337
1.93839
2.19541
2.58321
3.16866
4.07605
5.5452
8.05251
12.4955
20.3146
33.1798
54.8819
157.435
1267.08
1.86971
1.83753
1.8079
1.78058
1.75512
1.73171
1.70981
1.68976
1.6718
1.65525
1.63982
1.62795
1.61773
1.61433
1.61822
1.64094
1.68811
1.78199
1.95136
2.21194
2.60177
3.18761
4.09165
5.5522
8.04535
12.4587
20.2548
33.2522
59.3413
190.595
1508.43
1.86971
1.83753
1.80789
1.78058
1.75512
1.73169
1.70978
1.6897
1.67171
1.65509
1.6395
1.62717
1.61579
1.60944
1.60719
1.61775
1.64344
1.69529
1.79416
1.96799
2.2318
2.62366
3.20878
4.10883
5.55943
8.03478
12.4193
20.1972
33.4696
64.0395
222.28
1715.18
1.86971
1.83753
1.80789
1.78057
1.75511
1.73167
1.70975
1.68966
1.67163
1.65497
1.63928
1.62674
1.61482
1.60706
1.60183
1.60562
1.61968
1.64934
1.70704
1.81105
1.98926
2.25656
2.64991
3.23434
4.12917
5.56938
8.02515
12.3823
20.1303
33.8923
68.8505
250.043
1874.22
1.86971
1.83753
1.80789
1.78057
1.75511
1.73166
1.70974
1.68962
1.67156
1.65487
1.63912
1.62647
1.61428
1.60585
1.59919
1.59952
1.60735
1.6251
1.66069
1.72433
1.83368
2.01666
2.28724
2.68236
3.26527
4.15524
5.5839
8.02097
12.3456
20.0717
34.4289
73.1283
271.681
2000.09
1.86971
1.83753
1.80789
1.78056
1.75511
1.73165
1.70972
1.68958
1.67149
1.65478
1.63899
1.62626
1.61392
1.60519
1.59782
1.59649
1.60115
1.61262
1.63599
1.67838
1.74821
1.86353
2.05125
2.32553
2.72193
3.30385
4.18784
5.60567
8.02227
12.3087
20.023
34.9284
76.409
288.951
2104.01
1.83753
1.86974
1.80789
1.78056
1.75511
1.73163
1.70971
1.68956
1.67144
1.65471
1.63888
1.6261
1.61365
1.60477
1.59704
1.59493
1.59809
1.60641
1.62342
1.65414
1.70335
1.78025
1.90175
2.09476
2.37243
2.77054
3.35053
4.22932
5.63474
8.02728
12.2705
19.9719
35.2921
78.9101
303.299
2192.81
1.80789
1.83762
1.86981
1.78055
1.75511
1.73162
1.7097
1.68953
1.67139
1.65464
1.63879
1.62596
1.61343
1.60446
1.59653
1.59407
1.59653
1.6034
1.6173
1.6421
1.68018
1.73721
1.82157
1.95003
2.14809
2.4296
2.82875
3.40751
4.27921
5.6717
8.03932
12.2348
19.91
35.5181
80.8829
315.501
2271.47
1.78055
1.80804
1.83782
1.86989
1.75511
1.73161
1.7097
1.68951
1.67135
1.65457
1.63872
1.62583
1.61324
1.60422
1.59615
1.59355
1.59571
1.60194
1.61447
1.63657
1.66919
1.71585
1.78131
1.87407
2.00946
2.21294
2.49786
2.89846
3.4741
4.3388
5.72175
8.06318
12.2046
19.831
35.6527
82.4605
326.235
2342.38
1.75511
1.78076
1.80836
1.83803
1.86996
1.73161
1.70969
1.6895
1.67131
1.65452
1.63867
1.62572
1.61307
1.60402
1.59585
1.59317
1.59522
1.60125
1.61327
1.63438
1.66473
1.70663
1.7627
1.83786
1.9391
2.08207
2.29001
2.5786
2.97916
3.55197
4.41542
5.78919
8.09671
12.1765
19.7504
35.7558
83.7516
335.738
2407.94
1.7316
1.75537
1.78117
1.80868
1.83824
1.87004
1.70969
1.68948
1.67127
1.65446
1.63862
1.62561
1.61294
1.60385
1.59561
1.59289
1.59489
1.60088
1.61285
1.63384
1.66365
1.70407
1.75639
1.82333
1.9084
2.01913
2.16882
2.38127
2.6718
3.07255
3.65013
4.51451
5.86867
8.13812
12.1579
19.6788
35.784
84.791
344.304
2468.94
1.70969
1.73189
1.75589
1.7816
1.80901
1.83846
1.87012
1.68947
1.67124
1.65442
1.63859
1.62552
1.61282
1.6037
1.5954
1.59266
1.59464
1.60067
1.61275
1.63403
1.66413
1.70459
1.75611
1.82065
1.89945
1.99609
2.11553
2.27217
2.48722
2.77855
3.18934
3.7754
4.62679
5.95851
8.18914
12.1503
19.6103
35.7741
85.6247
352.239
2526.67
1.68946
1.71002
1.73249
1.75643
1.78205
1.80935
1.83868
1.8702
1.67122
1.65437
1.63857
1.62542
1.61273
1.60357
1.59523
1.59248
1.59444
1.60053
1.61279
1.63452
1.66536
1.70685
1.75924
1.82403
1.90138
1.99343
2.10171
2.23168
2.39293
2.6098
2.91307
3.33617
3.91451
4.75145
6.05809
8.24924
12.1521
19.5439
35.7449
86.3404
359.497
2581.26
1.67119
1.68981
1.71071
1.73311
1.75698
1.7825
1.8097
1.83891
1.87028
1.65433
1.63855
1.62534
1.61266
1.60346
1.59508
1.59232
1.59429
1.60044
1.61289
1.63509
1.66682
1.70986
1.76417
1.83107
1.91007
2.00233
2.10725
2.22796
2.36702
2.53414
2.76528
3.08436
3.50078
4.06752
4.88676
6.16652
8.31738
12.1584
19.4801
35.6881
86.9166
366.509
2633.44
1.65429
1.67155
1.69055
1.71141
1.73374
1.75754
1.78296
1.81006
1.83915
1.87037
1.63854
1.62525
1.61261
1.60334
1.59496
1.59219
1.59416
1.60038
1.61301
1.63567
1.6683
1.71297
1.76982
1.8401
1.92264
2.01848
2.12559
2.24519
2.37614
2.52421
2.71313
2.96529
3.27812
3.68328
4.23342
5.03155
6.28241
8.39186
12.1715
19.4206
35.6126
87.4596
372.871
2683.01
1.63853
1.65467
1.67232
1.6913
1.71214
1.73439
1.75813
1.78344
1.81044
1.83939
1.87046
1.62518
1.61257
1.60324
1.59487
1.59209
1.59406
1.60034
1.61315
1.63624
1.66973
1.71599
1.77544
1.84991
1.93753
2.03905
2.15187
2.27627
2.40848
2.55084
2.7239
2.94122
3.19338
3.49493
3.88216
4.41108
5.18447
6.4044
8.47123
12.1906
19.3646
35.5306
87.8886
379.142
2730.57
1.62511
1.63895
1.65547
1.6731
1.69209
1.71288
1.73507
1.75872
1.78393
1.81082
1.83964
1.87055
1.61254
1.60313
1.5948
1.59199
1.59397
1.60031
1.61329
1.63677
1.67109
1.71883
1.78082
1.85954
1.95331
2.06259
2.18344
2.31654
2.45614
2.60285
2.77521
2.98333
3.19984
3.4447
3.73331
4.09705
4.59954
5.34421
6.53077
8.55418
12.2132
19.3111
35.439
88.3218
384.792
2775.65
1.61252
1.62545
1.63981
1.65629
1.67391
1.69289
1.71364
1.73576
1.75934
1.78444
1.81121
1.8399
1.87064
1.60302
1.59475
1.59191
1.5939
1.60029
1.61343
1.63726
1.67236
1.72148
1.78591
1.86872
1.96873
2.08745
2.21907
2.36369
2.51498
2.67273
2.85481
3.06993
3.2826
3.49087
3.71846
3.98882
4.32633
4.79688
5.50883
6.66011
8.63937
12.2383
19.2599
35.3535
88.6653
390.472
2818.98
1.60293
1.61292
1.62623
1.6407
1.65713
1.67474
1.69372
1.71443
1.73647
1.75996
1.78496
1.81161
1.84016
1.87073
1.59473
1.59183
1.59383
1.60028
1.61356
1.63772
1.67353
1.72392
1.79067
1.87737
1.98349
2.1119
2.25668
2.41681
2.58321
2.75709
2.95646
3.19038
3.41447
3.62323
3.81361
4.01443
4.25782
4.56705
5.00127
5.6774
6.79112
8.72572
12.2652
19.2133
35.2659
89.053
395.552
2859.83
1.59473
1.60319
1.61376
1.62703
1.64161
1.658
1.67561
1.69458
1.71523
1.73721
1.76061
1.78549
1.81202
1.84042
1.87082
1.59174
1.59377
1.60026
1.61367
1.63814
1.67461
1.72617
1.7951
1.88545
1.9975
2.13546
2.29382
2.47345
2.66048
2.85503
3.0781
3.34051
3.58892
3.81253
4.00617
4.16721
4.33159
4.53878
4.81646
5.21201
5.84845
6.92273
8.81241
12.2938
19.1707
35.1915
89.3566
400.718
2899.1
1.59166
1.59504
1.60381
1.61462
1.62786
1.64256
1.6589
1.6765
1.69547
1.71606
1.73796
1.76127
1.78603
1.81243
1.84067
1.8709
1.59369
1.60024
1.61378
1.63853
1.6756
1.72824
1.7992
1.89294
2.01073
2.15793
2.32987
2.53025
2.74374
2.96715
3.2204
3.52102
3.80547
4.05799
4.26785
4.43242
4.55066
4.66774
4.82997
5.06928
5.42635
6.02056
7.05391
8.89883
12.324
19.1338
35.1197
89.711
405.321
2935.84
1.59365
1.59162
1.59567
1.60442
1.61551
1.62873
1.64353
1.65982
1.67742
1.69638
1.71691
1.73874
1.76194
1.78657
1.81282
1.84092
1.87099
1.60022
1.61387
1.63888
1.6765
1.73013
1.80298
1.89987
2.02314
2.17918
2.3646
2.58621
2.82799
3.08986
3.38612
3.73622
4.07002
4.36597
4.60713
4.78547
4.90333
4.96285
5.02063
5.13032
5.32431
5.64196
6.19216
7.18381
8.98452
12.3557
19.1019
35.0593
90.0034
410.046
2971.22
1.60023
1.59347
1.59156
1.59632
1.60507
1.61645
1.62964
1.64453
1.66078
1.67836
1.69733
1.71779
1.73953
1.76261
1.78709
1.81321
1.84116
1.87107
1.61395
1.6392
1.67732
1.73186
1.80644
1.90626
2.03472
2.19913
2.39787
2.64073
2.9116
3.21668
3.57193
3.99378
4.39448
4.75305
5.04343
5.25032
5.37237
5.42075
5.40274
5.38821
5.43748
5.58022
5.85739
6.36256
7.31204
9.06912
12.3885
19.0751
35.0044
90.3549
414.228
3004.04
1.61409
1.59979
1.59306
1.59146
1.59704
1.60578
1.61741
1.63059
1.64555
1.66177
1.67934
1.69829
1.71868
1.74031
1.76326
1.7876
1.81358
1.84139
1.87115
1.63947
1.67805
1.73343
1.80962
1.91214
2.04549
2.21777
2.42956
2.69331
2.99385
3.34588
3.76869
4.29158
4.79796
5.24871
5.61535
5.87013
6.00647
6.03711
5.98691
5.86933
5.76849
5.74936
5.83556
6.07039
6.53143
7.43805
9.15232
12.4224
19.0525
34.9622
90.6416
418.542
3035.71
1.63981
1.61322
1.5987
1.59259
1.59145
1.5978
1.60655
1.6184
1.63159
1.6466
1.66279
1.68036
1.69928
1.71957
1.74108
1.76389
1.7881
1.81395
1.84161
1.87122
1.6787
1.73484
1.8125
1.91754
2.05546
2.23513
2.45961
2.74358
3.07437
3.47643
3.97253
4.61687
5.28814
5.90045
6.3879
6.72201
6.88631
6.89642
6.78817
6.60359
6.36146
6.15951
6.06401
6.08941
6.2785
6.6974
7.56133
9.23384
12.4569
19.0353
34.9284
90.9875
422.335
3061.26
1.67941
1.63831
1.61097
1.5975
1.59222
1.59155
1.59857
1.60739
1.61941
1.63263
1.64767
1.66385
1.6814
1.70027
1.72043
1.74182
1.7645
1.78858
1.8143
1.84183
1.8713
1.73612
1.81512
1.92249
2.06465
2.25127
2.48795
2.79133
3.15289
3.60693
4.18066
4.96697
5.85625
6.74215
7.4584
7.92494
8.14303
8.12958
7.93721
7.63124
7.27113
6.87743
6.55923
6.3797
6.34098
6.48137
6.8595
7.68141
9.31339
12.492
19.0238
34.9048
91.2718
425.729
3082.82
1.73744
1.67715
1.63424
1.60859
1.59644
1.59195
1.59179
1.59934
1.6083
1.62043
1.63373
1.64877
1.66494
1.68243
1.70122
1.72127
1.74254
1.76509
1.78905
1.81464
1.84204
1.87137
1.81751
1.92701
2.07311
2.26624
2.51458
2.83651
3.22916
3.73584
4.39124
5.34308
6.50568
7.7659
8.89135
9.6381
9.9602
9.93131
9.62357
9.13678
8.56705
7.98761
7.41477
6.96554
6.69483
6.58899
6.67861
7.01703
7.79788
9.39081
12.5277
19.0155
34.886
91.5603
428.422
3106.22
1.81986
1.7342
1.67066
1.62991
1.60642
1.59549
1.59173
1.59226
1.60009
1.6093
1.62149
1.63487
1.64989
1.66603
1.68345
1.70215
1.72209
1.74324
1.76567
1.78951
1.81498
1.84225
1.87144
1.93119
2.08087
2.28013
2.5395
2.87916
3.30291
3.86185
4.60381
5.7466
7.2379
8.96715
10.6566
11.95
12.5659
12.5563
12.111
11.3728
10.492
9.59064
8.74853
7.97018
7.37616
7.00788
6.83237
6.86988
7.1695
7.91045
9.46586
12.5634
19.01
34.8756
91.7695
431.498
3131.84
1.93516
1.8154
1.72425
1.66384
1.62587
1.60443
1.59462
1.59141
1.5929
1.60085
1.61037
1.62257
1.63605
1.651
1.66709
1.68444
1.70305
1.72288
1.74392
1.76623
1.78995
1.8153
1.84245
1.87147
2.0881
2.29299
2.56277
2.91935
3.37385
3.98414
4.81888
6.1774
8.04748
10.3323
12.7262
14.7906
16.0766
16.3184
15.7371
14.6788
13.3647
11.9898
10.6919
9.54722
8.53963
7.78866
7.31742
7.07023
7.05484
7.31651
8.01886
9.53844
12.5988
19.009
34.868
92.0497
434.708
3159.79
2.09477
1.92915
1.80055
1.71391
1.65744
1.62211
1.60258
1.59385
1.59113
1.59366
1.60163
1.6115
1.62369
1.63722
1.65209
1.66813
1.6854
1.70393
1.72366
1.74458
1.76678
1.79039
1.81562
1.84255
1.87147
2.30506
2.58448
2.9572
3.44176
4.10234
5.03724
6.63323
8.92375
11.8381
15.0643
18.1046
20.378
21.3824
20.9322
19.4964
17.6115
15.5742
13.6101
11.8574
10.3754
9.11854
8.2006
7.62213
7.3018
7.2332
7.45784
8.123
9.60831
12.6293
19.0093
34.8658
92.3138
438.402
3190.57
2.31598
2.08693
1.90726
1.78528
1.70419
1.65141
1.61857
1.60089
1.59314
1.59094
1.59451
1.60245
1.61267
1.62481
1.63837
1.65316
1.66915
1.68634
1.70479
1.72441
1.74523
1.76731
1.79081
1.81578
1.84255
1.87147
2.60494
2.99287
3.50651
4.21656
5.25949
7.11003
9.85349
13.4575
17.6258
21.8306
25.3853
27.5885
27.9386
26.4112
23.8054
20.8724
17.969
15.3294
13.0716
11.2241
9.70214
8.60958
7.92075
7.52644
7.40477
7.59334
8.22265
9.66664
12.656
19.0107
34.8665
92.6705
442.288
3224.15
2.62304
2.30566
2.055
1.88507
1.77093
1.69497
1.64565
1.61524
1.59932
1.59252
1.59085
1.59541
1.60333
1.61384
1.62592
1.63948
1.6542
1.67014
1.68726
1.70561
1.72514
1.74585
1.76783
1.79101
1.81578
1.84255
1.87147
3.02677
3.56823
4.32729
5.48578
7.60246
10.8226
15.1626
20.3626
25.8939
31.0017
34.8141
36.5471
35.7752
32.7292
28.6179
24.416
20.5132
17.1227
14.3189
12.084
10.2857
9.01327
8.21217
7.74364
7.56942
7.7229
8.30567
9.7167
12.6861
19.014
34.8709
93.0147
446.728
3261.27
3.05636
2.60974
2.25914
2.02307
1.86423
1.75726
1.68612
1.64015
1.61211
1.59786
1.59201
1.59087
1.59634
1.60427
1.61497
1.62702
1.64057
1.65523
1.67111
1.68816
1.70642
1.72585
1.74646
1.76808
1.79101
1.81578
1.84255
1.87147
3.62735
4.4353
5.71584
8.10445
11.8171
16.9266
23.2269
30.2148
37.1069
42.9098
46.5843
47.3244
44.8776
39.8319
33.8734
28.192
23.1704
18.9656
15.5841
12.9468
10.8649
9.40953
8.49542
7.95301
7.72705
7.82963
8.37676
9.77217
12.72
19.0213
34.8802
93.4677
451.47
3301.65
3.6786
3.03876
2.54184
2.21338
1.99313
1.84435
1.7441
1.6776
1.6349
1.60918
1.59655
1.59163
1.59104
1.59725
1.60525
1.61607
1.6281
1.64162
1.65623
1.67205
1.68903
1.70721
1.72654
1.74676
1.76808
1.79101
1.81578
1.84255
1.87147
4.54119
5.94695
8.60989
12.8235
18.7238
26.1728
34.7137
43.5705
51.6845
57.8239
60.8192
59.9278
55.1858
47.6394
39.5018
32.1482
25.9049
20.8354
16.8536
13.8045
11.4356
9.79651
8.7697
8.15422
7.85799
7.92044
8.4553
9.83376
12.7588
19.0309
34.9025
93.9165
456.832
3346.41
4.6342
3.65591
2.93801
2.47619
2.17052
1.96453
1.82516
1.73138
1.66942
1.62991
1.60646
1.59537
1.59136
1.59141
1.59809
1.60626
1.61713
1.62918
1.64264
1.65721
1.67297
1.68987
1.70797
1.72689
1.74676
1.76808
1.79101
1.81578
1.84255
1.87144
6.17648
9.11456
13.8297
20.5301
29.157
39.3151
50.2634
60.9299
69.9704
75.9274
77.5592
74.2976
66.5965
56.052
45.4262
36.2321
28.6835
22.7121
18.1155
14.6503
11.9943
10.1726
9.03433
8.32167
7.96994
8.02018
8.54218
9.90231
12.8029
19.0464
34.928
94.4589
462.681
3394.89
4.60402
6.37922
3.50117
2.84294
2.41481
2.12957
1.9369
1.80659
1.71911
1.66157
1.62516
1.604
1.59433
1.59113
1.592
1.59889
1.60729
1.61816
1.63024
1.64364
1.65817
1.67386
1.6907
1.70835
1.72689
1.74676
1.76808
1.79101
1.81578
1.84245
1.87137
9.61359
14.8251
22.3244
32.1398
43.9491
57.0652
70.442
82.7004
92.2067
97.302
96.7542
90.3076
78.9698
64.9551
51.5673
40.3937
31.4762
24.5777
19.3593
15.4786
12.5383
10.5365
9.25524
8.46503
8.09352
8.12992
8.6384
9.97875
12.8534
19.0664
34.9711
95.0341
469.18
3448.77
4.34867
6.35043
10.0541
3.36028
2.75442
2.35618
2.09001
1.91014
1.78865
1.70732
1.65407
1.62063
1.60178
1.59345
1.59085
1.59272
1.59966
1.60833
1.61917
1.63127
1.64461
1.65911
1.67473
1.69111
1.70835
1.72689
1.74676
1.76808
1.79101
1.81562
1.84224
1.8713
15.7989
24.0884
35.0873
48.5543
63.869
80.0363
95.7018
109.172
118.519
121.918
118.262
107.773
92.1372
74.2259
57.8471
44.5867
34.2563
26.417
20.5766
16.2847
13.0651
10.841
9.44475
8.6235
8.23012
8.25086
8.74507
10.0642
12.9113
19.0939
35.0272
95.6848
476.451
3506.75
4.1243
5.90003
10.0448
16.6602
3.23062
2.66991
2.29958
2.05173
1.8843
1.77138
1.69601
1.64692
1.61641
1.59983
1.59271
1.59066
1.5935
1.60043
1.60937
1.62015
1.63229
1.64555
1.66004
1.67516
1.69111
1.70835
1.72689
1.74676
1.76808
1.7908
1.8153
1.84204
1.87122
25.8044
37.9711
53.0803
70.585
89.5564
108.701
126.36
140.506
148.907
149.632
141.855
126.458
105.911
83.7403
64.192
48.7693
37.0005
28.2177
21.7608
17.065
13.506
11.1024
9.65464
8.79896
8.38134
8.38439
8.8635
10.1598
12.978
19.1306
35.0954
96.4393
484.368
3571.42
3.92205
5.50633
9.22588
16.7161
27.3312
3.10757
2.58846
2.24489
2.01475
1.85939
1.75479
1.6852
1.6402
1.61265
1.59818
1.5921
1.59057
1.5943
1.6012
1.61038
1.62112
1.63329
1.64649
1.66049
1.67516
1.69111
1.70835
1.72689
1.74676
1.76782
1.79038
1.81497
1.84182
1.87114
40.7644
57.4867
77.1436
98.8781
121.478
143.375
162.595
176.734
183.242
180.187
167.229
146.091
120.097
93.3787
70.5343
52.9046
39.6899
29.9698
22.9065
17.7176
13.8847
11.3923
9.88746
8.99354
8.549
8.53209
8.99517
10.2672
13.055
19.1754
35.1986
97.2236
493.452
3640.35
3.73354
5.15249
8.49276
15.3491
27.5514
43.2582
2.98951
2.50993
2.19215
1.97916
1.83547
1.73891
1.675
1.63409
1.60937
1.59676
1.59164
1.5906
1.59509
1.602
1.61138
1.62207
1.63428
1.64694
1.66049
1.67516
1.69111
1.70835
1.72689
1.74645
1.7673
1.78994
1.81463
1.8416
1.87107
61.7359
83.4927
107.912
133.869
159.916
184.226
204.457
217.754
221.264
213.223
194.019
166.384
134.502
103.029
76.8135
56.962
42.3087
31.6652
23.8643
18.2778
14.3047
11.7142
10.1461
9.20964
8.73517
8.69578
9.14177
10.3879
13.1435
19.2375
35.2991
98.2258
503.176
3717.54
3.55573
4.82487
7.82624
14.0803
25.4626
43.7842
65.532
2.87613
2.4344
2.14146
1.945
1.81258
1.7239
1.66567
1.62867
1.6065
1.59555
1.5913
1.59073
1.59586
1.60281
1.61236
1.62303
1.63477
1.64691
1.66049
1.67516
1.69111
1.70835
1.72654
1.74584
1.76676
1.78949
1.81429
1.84138
1.87099
89.5836
116.599
145.768
175.775
204.989
231.296
251.877
263.337
262.588
248.286
221.821
187.043
148.946
112.592
82.979
60.9161
44.8445
33.0829
24.6863
18.8987
14.7708
12.072
10.4338
9.45003
8.94223
8.87755
9.30526
10.5237
13.2471
19.3065
35.4701
99.1845
514.518
3798.82
3.38776
4.51886
7.2051
12.8893
23.4897
40.8001
66.5376
95.0143
2.76744
2.36201
2.0929
1.91236
1.79093
1.71014
1.65732
1.62386
1.60401
1.59454
1.59109
1.59099
1.59659
1.60365
1.61336
1.62349
1.63475
1.6469
1.66049
1.67516
1.69111
1.70796
1.72584
1.74521
1.76621
1.78904
1.81393
1.84115
1.8709
124.88
157.116
190.837
224.63
256.701
284.536
304.677
313.12
306.71
284.858
250.213
207.785
163.262
121.982
88.9887
64.7463
46.9656
34.2997
25.5971
19.5875
15.2887
12.4702
10.7542
9.71783
9.17287
9.0798
9.48781
10.6772
13.365
19.4059
35.6135
100.517
526.614
3906.02
3.22927
4.23368
6.62197
11.757
21.6007
37.9549
62.4957
96.6814
132.228
2.66352
2.29291
2.04658
1.88151
1.77107
1.69778
1.64985
1.61958
1.60186
1.59369
1.59092
1.59141
1.59732
1.60457
1.61384
1.62343
1.63475
1.6469
1.66049
1.67516
1.69069
1.70719
1.72512
1.74456
1.76565
1.78856
1.81357
1.84091
1.87082
167.852
205.057
243.036
280.354
314.984
343.826
362.575
366.613
353.022
322.375
278.781
228.351
177.312
131.129
94.8083
67.9505
48.7868
35.6481
26.6071
20.3522
15.8648
12.9138
11.1116
10.0166
9.43016
9.30527
9.69209
10.8502
13.505
19.5084
35.8767
101.712
543.221
4035.48
3.07986
3.96954
6.07678
10.6767
19.7676
35.1938
58.6366
91.4269
134.711
177.299
2.56453
2.22724
2.0029
1.85324
1.75321
1.68668
1.64317
1.61577
1.60003
1.59297
1.5907
1.59197
1.59813
1.605
1.61378
1.62342
1.63475
1.64691
1.66049
1.67473
1.68986
1.7064
1.72439
1.7439
1.76507
1.78808
1.81319
1.84067
1.87073
218.386
260.198
302.162
342.821
379.756
408.999
425.182
423.199
400.84
360.263
307.134
248.518
190.978
139.975
99.6734
70.7013
50.805
37.1435
27.7283
21.2021
16.506
13.4083
11.5105
10.3502
9.71755
9.55707
9.92065
11.0465
13.6622
19.66
36.0791
103.807
563.179
4167.74
2.93879
3.72699
5.57142
9.65132
17.9792
32.4763
54.8649
86.4441
128.081
180.68
229.966
2.47076
2.16553
1.96295
1.82785
1.73717
1.67673
1.63719
1.61236
1.59845
1.59236
1.59059
1.59273
1.59846
1.60491
1.61378
1.62342
1.63475
1.64694
1.66003
1.67384
1.689
1.70559
1.72363
1.74322
1.76447
1.78759
1.81281
1.84042
1.87064
276.1
322.186
367.987
411.947
450.982
479.864
492
482.146
449.428
397.964
334.933
268.101
204.167
147.358
103.847
73.749
53.0434
38.8036
28.9738
22.1472
17.2201
13.9601
11.9561
10.7233
10.0389
9.8387
10.1776
11.2682
13.852
19.8088
36.5326
105.812
586.719
4300.61
2.80549
3.50819
5.10702
8.69021
16.2364
29.7823
51.1206
81.571
121.888
172.474
234.214
289.663
2.38306
2.10928
1.92716
1.80505
1.72276
1.66779
1.63183
1.60935
1.5971
1.59193
1.59081
1.59307
1.59828
1.60491
1.61378
1.62343
1.63477
1.64648
1.6591
1.67294
1.68813
1.70475
1.72285
1.74252
1.76387
1.78708
1.81242
1.84016
1.87055
340.471
390.661
440.4
487.856
528.785
556.231
562.419
542.62
498.04
434.981
361.893
286.953
215.145
153.683
108.467
77.1276
55.5281
40.6477
30.3584
23.1988
18.0157
14.5759
12.4541
11.1406
10.3986
10.1541
10.4644
11.5228
14.0626
20.0719
36.9315
108.894
610.863
4433.41
2.68085
3.30956
4.68323
7.79725
14.5469
27.1083
47.3675
76.7197
115.87
164.988
224.153
294.598
355.663
2.30356
2.05903
1.89509
1.78459
1.70982
1.65978
1.62704
1.60669
1.59602
1.59191
1.59079
1.59291
1.59826
1.60491
1.61378
1.62349
1.63427
1.64554
1.65815
1.67202
1.68723
1.7039
1.72206
1.7418
1.76324
1.78656
1.81202
1.8399
1.87046
410.991
465.434
519.598
570.986
613.47
637.879
635.677
603.711
545.977
470.887
387.787
302.593
224.528
160.67
113.582
80.875
58.2873
42.6974
31.8984
24.3693
18.9023
15.2632
13.0107
11.6074
10.8013
10.5078
10.7847
11.8093
14.3673
20.3696
37.6432
111.6
638.421
4564.69
2.56787
3.12908
4.30149
6.97376
12.9274
24.4628
43.5902
71.8301
109.903
157.812
215.259
282.28
360.935
427.268
2.23299
2.01416
1.86637
1.76622
1.69821
1.65257
1.62274
1.6045
1.59556
1.59173
1.59042
1.59293
1.59826
1.60491
1.61384
1.62303
1.63327
1.64458
1.65718
1.67107
1.68631
1.70302
1.72124
1.74106
1.7626
1.78603
1.81161
1.83964
1.87037
487.345
546.672
606.199
662.114
705.457
724.439
710.842
664.505
592.619
505.34
409.204
315.928
234.865
168.386
119.244
85.0322
61.3526
44.9766
33.6117
25.6722
19.8902
16.03
13.6325
12.1295
11.2518
10.9052
11.1419
12.1988
14.7512
20.7911
38.2492
115.366
667.87
4692.78
2.46768
2.96834
3.96362
6.2254
11.3969
21.863
39.7888
66.8646
103.893
150.78
206.915
271.795
345.771
432.375
504.015
2.17032
1.97407
1.84065
1.74974
1.68774
1.64606
1.6191
1.60322
1.5951
1.59127
1.5904
1.59293
1.59828
1.605
1.61335
1.62205
1.63226
1.6436
1.65619
1.6701
1.68537
1.70212
1.72041
1.7403
1.76194
1.78548
1.8112
1.83939
1.87028
569.653
635.152
701.511
762.545
805.187
815.29
786.865
724.143
637.455
533.782
427.418
330.571
246.244
176.905
125.512
89.6435
64.7582
47.511
35.5177
27.1221
20.9902
16.8847
14.3264
12.7127
11.7558
11.3501
11.617
12.6927
15.2043
21.2156
39.1728
119.202
700.122
4816.8
2.37908
2.82631
3.67522
5.56135
9.97447
19.3324
35.9747
61.8036
97.771
143.756
198.901
262.237
333.415
413.505
508.36
585.97
2.11462
1.93828
1.8176
1.7349
1.67828
1.64048
1.61671
1.60225
1.59447
1.59126
1.5904
1.5929
1.59846
1.60457
1.61234
1.62109
1.63124
1.6426
1.65519
1.66911
1.6844
1.7012
1.71955
1.73952
1.76126
1.78495
1.81081
1.83914
1.8702
658.807
732.618
807.95
874.173
913.017
909.594
862.686
781.874
674.496
557.927
447.357
346.626
258.754
186.3
132.445
94.7566
68.5407
50.3287
37.6376
28.7349
22.2139
17.8363
15.0994
13.363
12.3177
11.9405
12.2158
13.2359
15.6889
21.7732
40.1438
123.839
736.058
4934.14
2.30085
2.69983
3.43748
4.99534
8.69134
16.8981
32.1699
56.6399
91.4851
136.632
191.036
253.324
322.533
398.873
484.538
588.909
674.15
2.06508
1.90631
1.79689
1.7215
1.6701
1.63661
1.61509
1.60136
1.59448
1.59126
1.59041
1.59307
1.59813
1.60363
1.61135
1.62012
1.6302
1.64158
1.65416
1.6681
1.68342
1.70025
1.71868
1.73873
1.7606
1.78442
1.81042
1.83891
1.87012
756.836
842.567
929.392
999.394
1029.16
1006.5
937.286
829.85
705.945
584.299
469.135
364.193
272.481
196.644
140.105
100.421
72.7387
53.4591
39.9936
30.5269
23.5734
18.8935
15.9587
14.0856
13.0598
12.6813
12.8579
13.8148
16.2469
22.3914
41.3881
129.318
774.395
5044.48
2.23183
2.58717
3.23802
4.52447
7.57955
14.6045
28.4063
51.3792
84.9932
129.312
183.165
244.817
312.766
386.472
467.105
558.371
675.219
771.251
2.021
1.87768
1.77822
1.70987
1.66421
1.63411
1.61391
1.60136
1.59448
1.59127
1.59079
1.59273
1.5973
1.60278
1.61035
1.61913
1.62914
1.64053
1.65312
1.66706
1.68242
1.69928
1.71778
1.73795
1.75995
1.78392
1.81005
1.83868
1.87004
868.214
971.124
1071.65
1141.12
1154.47
1104.87
1000.21
870.735
740.296
613.027
492.856
383.362
287.507
208.012
148.553
106.686
77.3921
56.933
42.6085
32.5151
25.0807
20.0652
16.9101
15.0355
13.9839
13.4647
13.5363
14.441
16.8563
23.1426
42.9288
135.331
817.931
5145.06
2.17089
2.48719
3.06718
4.13583
6.64391
12.5441
24.7519
46.0429
78.2647
121.706
175.145
236.513
303.801
375.833
452.893
537.538
635.353
770.687
882.854
1.98167
1.85196
1.76197
1.7013
1.66051
1.63257
1.61393
1.60136
1.59447
1.59173
1.59082
1.59196
1.59657
1.60197
1.60933
1.61812
1.62806
1.63945
1.65206
1.66601
1.68139
1.69829
1.7169
1.73719
1.75932
1.78343
1.80969
1.83845
1.86996
1001.07
1128.85
1242.98
1306.53
1288.62
1190.05
1054.35
915.581
777.726
644.23
518.608
404.208
303.902
220.467
157.848
113.603
82.5408
60.7812
45.5057
34.7162
26.7476
21.3587
18.1562
16.2102
14.9518
14.2831
14.2513
15.1054
17.5405
24.0389
44.7095
143.084
864.405
5235.94
2.1169
2.39886
2.91823
3.81629
5.86647
10.7618
21.3501
40.7078
71.2851
113.724
166.824
228.22
295.389
366.548
441.295
521.141
610.519
717.465
882.338
1021.03
1.94647
1.82959
1.74974
1.69604
1.65849
1.63261
1.61393
1.60135
1.5951
1.59191
1.59059
1.59139
1.59583
1.60117
1.60829
1.61709
1.62698
1.63834
1.65098
1.66493
1.68035
1.69731
1.71604
1.73645
1.7587
1.78295
1.80934
1.83824
1.86989
1171.18
1333.67
1467.91
1499.37
1409.17
1264.46
1114.42
964.752
818.432
678.014
546.457
426.786
321.72
234.065
168.041
121.216
88.2224
65.0335
48.7074
37.1465
28.5841
23.0481
19.6885
17.4315
15.9539
15.1304
14.9959
15.8133
18.3033
25.0708
47.0614
151.383
916.365
5315.26
2.06888
2.321
2.78651
3.55605
5.22729
9.24917
18.2943
35.5749
64.112
105.287
158.043
219.729
287.286
358.312
431.763
508.428
591.509
687.978
810.216
1027.03
1210.34
1.91584
1.81251
1.74232
1.69345
1.65856
1.63261
1.6139
1.60225
1.59557
1.59193
1.5907
1.59097
1.59506
1.60039
1.60725
1.61603
1.62589
1.6372
1.64988
1.66384
1.67933
1.69636
1.71521
1.73573
1.7581
1.78248
1.809
1.83802
1.86981
1413.99
1646.14
1758.95
1678.72
1516.3
1348.51
1181.42
1018.83
862.687
714.504
576.46
451.128
340.993
248.846
179.173
129.564
94.4705
69.7166
52.2341
39.8193
30.9774
25.1169
21.2734
18.6872
16.9803
15.9987
15.7679
16.5641
19.1436
26.3332
49.6952
162.022
973.598
5383.39
2.0272
2.25237
2.66915
3.34255
4.70465
7.98508
15.5917
30.8019
56.985
96.3946
148.633
210.804
279.237
350.834
423.92
498.65
577.455
665.913
774.973
926.467
1250.52
1517.03
1.89209
1.80236
1.73899
1.69357
1.65856
1.63256
1.61509
1.60324
1.59604
1.59237
1.59093
1.59072
1.59426
1.59963
1.60622
1.61494
1.62479
1.63604
1.64876
1.66277
1.67834
1.69544
1.7144
1.73504
1.75752
1.78203
1.80867
1.83782
1.86974
1843.73
2079.71
2030.8
1840.12
1640.99
1445.22
1257.47
1078.84
910.966
753.881
608.668
477.243
361.728
264.823
191.27
138.675
101.311
74.8525
56.101
43.2949
33.899
27.2493
22.8953
19.9647
18.0211
16.8817
16.5635
17.3557
20.0885
27.7585
53.0622
173.989
1034.67
5439.64
1.99454
2.19333
2.56463
3.1628
4.28
6.9385
13.2445
26.4334
50.1232
87.2765
138.493
201.18
270.944
343.825
417.424
491.33
567.366
650.201
749.459
883.586
1098.31
1695.95
2166.78
1.87809
1.7982
1.73918
1.69357
1.65847
1.63411
1.61674
1.60453
1.59712
1.59299
1.59109
1.59059
1.59347
1.59886
1.60522
1.61382
1.62368
1.63486
1.64765
1.66174
1.67738
1.69455
1.71361
1.73437
1.75696
1.78159
1.80835
1.83762
1.86971
2522.69
2538.97
2301.9
2048.55
1794.56
1564.42