/*--------------------------------*- C++ -*----------------------------------*\
  =========                 |
  \\      /  F ield         | OpenFOAM: The Open Source CFD Toolbox
   \\    /   O peration     | Website:  https://openfoam.org
    \\  /    A nd           | Version:  8
     \\/     M anipulation  |
\*---------------------------------------------------------------------------*/
FoamFile
{
    version     2.0;
    format      ascii;
    class       volScalarField;
    location    "0.04";
    object      p;
}
// * * * * * * * * * * * * * * * * * * * * * * * * * * * * * * * * * * * * * //

dimensions      [0 2 -2 0 0 0 0];

internalField   nonuniform List<scalar> 
15677
(
61.4371
61.0311
60.6955
61.1854
60.6942
60.6315
61.1053
60.7132
60.6411
60.5669
61.0857
60.7134
60.6416
60.5756
60.4706
61.0675
60.7165
60.642
60.5749
60.4782
60.3702
61.0447
60.7193
60.6422
60.5754
60.4782
60.3769
60.2573
61.0199
60.7211
60.642
60.5755
60.479
60.377
60.2631
60.121
60.9942
60.7222
60.6413
60.5753
60.4796
60.3777
60.2633
60.1261
59.9547
60.9673
60.7228
60.6403
60.5746
60.4801
60.3784
60.264
60.1264
59.959
59.7514
60.9394
60.7233
60.6389
60.5738
60.4805
60.3791
60.2648
60.1273
59.9594
59.755
59.5034
60.9105
60.7233
60.6373
60.5728
60.4811
60.3798
60.2657
60.1282
59.9605
59.7556
59.5063
59.2024
60.8806
60.7223
60.6358
60.5721
60.4818
60.3808
60.2667
60.1293
59.9617
59.7569
59.507
59.2045
58.8399
60.8497
60.7205
60.6346
60.5716
60.4829
60.3821
60.2681
60.1308
59.9632
59.7584
59.5086
59.2054
58.8413
58.4077
60.8215
60.718
60.6337
60.5714
60.4846
60.3842
60.2702
60.133
59.9653
59.7604
59.5106
59.2073
58.8421
58.408
57.8976
60.7972
60.7151
60.6335
60.5717
60.4873
60.3874
60.2734
60.1361
59.9683
59.7633
59.5132
59.2098
58.8446
58.4094
57.8969
57.3021
60.7763
60.7121
60.6341
60.5726
60.4911
60.3921
60.2782
60.1408
59.9728
59.7674
59.517
59.2132
58.8476
58.4119
57.8984
57.3003
56.6144
60.759
60.7088
60.6351
60.5744
60.4964
60.3989
60.2852
60.1478
59.9794
59.7735
59.5226
59.2182
58.8521
58.4158
57.9015
57.302
56.6113
55.829
60.7444
60.7049
60.6364
60.5769
60.5028
60.4081
60.2951
60.1579
59.9892
59.7826
59.5307
59.2255
58.8585
58.4214
57.9063
57.3056
56.6133
55.8245
54.9415
60.7322
60.7007
60.6378
60.58
60.5099
60.4194
60.3088
60.1721
60.0033
59.7959
59.5428
59.2362
58.8679
58.4296
57.9132
57.3113
56.6174
55.8267
54.9354
53.9491
60.722
60.6967
60.6392
60.5837
60.5176
60.4316
60.3254
60.1917
60.023
59.8149
59.5604
59.252
58.8817
58.4414
57.9233
57.3198
56.6242
55.8314
54.9379
53.9413
52.8507
60.7138
60.6928
60.6407
60.588
60.526
60.4449
60.3436
60.2153
60.05
59.8415
59.5856
59.2749
58.9019
58.4588
57.9379
57.332
56.6343
55.8393
54.9432
53.944
52.8411
51.6471
60.7074
60.6895
60.6424
60.5928
60.535
60.4592
60.3634
60.2411
60.0828
59.878
59.6208
59.3076
58.9312
58.4842
57.9594
57.3498
56.6489
55.8511
54.9522
53.9499
52.844
51.6355
50.3412
60.7025
60.6869
60.644
60.598
60.5445
60.4744
60.3847
60.2694
60.1185
59.9223
59.669
59.3534
58.9729
58.521
57.9908
57.3759
56.6702
55.8683
54.9658
53.96
52.8504
51.6385
50.3276
48.9383
60.6987
60.6848
60.6456
60.6032
60.5545
60.4902
60.4073
60.2997
60.1577
59.9706
59.7277
59.416
59.0313
58.5734
58.0362
57.4141
56.7014
55.8933
54.9856
53.9754
52.8615
51.6454
50.3307
48.9225
47.4502
60.6956
60.6831
60.647
60.6082
60.5643
60.5066
60.4309
60.3319
60.1997
60.0236
59.7918
59.4923
59.1113
58.6467
58.101
57.4692
56.7469
55.9298
55.0143
53.9977
52.8785
51.6574
50.3377
48.9254
47.4306
45.905
60.6931
60.6818
60.6484
60.6128
60.5735
60.5226
60.4554
60.3655
60.2443
60.0805
59.862
59.5757
59.2089
58.7472
58.1915
57.5478
56.8128
55.9832
55.0564
54.0301
52.9032
51.6758
50.3503
48.9322
47.4311
45.8445
44.2462
60.6911
60.6808
60.6497
60.6169
60.5818
60.5373
60.4793
60.4003
60.2909
60.1409
59.9376
59.6672
59.3157
58.87
58.3158
57.6579
56.9068
56.0607
55.1181
54.0778
52.9391
51.7025
50.3697
48.9448
47.4364
45.8504
44.1767
42.4577
60.6895
60.68
60.6508
60.6206
60.5893
60.5506
60.5012
60.4344
60.3392
60.2042
60.0179
59.7659
59.433
59.0045
58.4679
57.8093
57.0386
56.1713
55.2076
54.1477
52.9921
51.7415
50.3979
48.9643
47.4474
45.8529
44.182
42.4324
40.6108
60.6881
60.6793
60.6517
60.6241
60.596
60.5626
60.5211
60.4657
60.3865
60.2697
60.102
59.8707
59.5596
59.1526
58.6348
57.9949
57.2202
56.3267
55.3358
54.2497
53.0702
51.7993
50.4392
48.993
47.4655
45.8607
44.1772
42.4218
40.6004
38.716
60.687
60.6788
60.6525
60.6272
60.602
60.5732
60.5388
60.494
60.4299
60.3338
60.1892
59.9807
59.6943
59.3126
58.8188
58.1989
57.4432
56.5414
55.5165
54.3961
53.1844
51.885
50.5009
49.0356
47.4931
45.8762
44.1829
42.413
40.5844
38.7098
36.5751
60.6861
60.6784
60.6532
60.6301
60.6073
60.5827
60.5547
60.5193
60.4691
60.3928
60.2747
60.0948
59.8358
59.483
59.018
58.4243
57.6891
56.8058
55.7667
54.603
53.3491
52.0108
50.5931
49.0999
47.5351
45.9015
44.197
42.4197
40.5762
38.6919
36.5722
34.1623
60.6853
60.678
60.6538
60.6327
60.6121
60.5912
60.5688
60.542
60.5043
60.446
60.3533
60.2067
59.9827
59.6623
59.2306
58.6687
57.9612
57.0979
56.0756
54.8904
53.5826
52.1932
50.7295
49.197
47.6002
45.9418
44.2205
42.4337
40.5841
38.6848
36.5554
34.1615
31.7314
60.6846
60.6777
60.6544
60.6349
60.6163
60.5987
60.5814
60.5621
60.5357
60.4938
60.4243
60.3098
60.1271
59.8487
59.4545
58.93
58.257
57.422
56.4179
55.2464
53.9081
52.4529
50.9284
49.3423
47.7005
46.0062
44.2591
42.4563
40.5984
38.6923
36.5482
34.1461
31.7322
29.3117
60.6841
60.6775
60.655
60.6369
60.6201
60.6053
60.5925
60.58
60.5636
60.5365
60.488
60.4029
60.2602
60.0323
59.6878
59.2059
58.5739
57.7751
56.7986
55.6421
54.3129
52.8166
51.2132
49.556
47.8527
46.108
44.3225
42.4937
40.6208
38.7063
36.553
34.1384
31.7186
29.3127
26.9263
60.6772
60.6834
60.6555
60.6386
60.6234
60.6112
60.6024
60.5959
60.5885
60.5745
60.5451
60.4867
60.3806
60.2016
59.9179
59.4939
58.9092
58.1543
57.2146
56.0836
54.7644
53.2709
51.6141
49.8641
48.0789
46.265
44.4247
42.5561
40.6574
38.7279
36.565
34.1404
31.7104
29.3001
26.9271
24.5904
60.656
60.677
60.6827
60.6401
60.6263
60.6164
60.6111
60.6099
60.6105
60.6083
60.5959
60.5616
60.4889
60.3551
60.1304
59.7785
59.2601
58.5566
57.6627
56.5674
55.2697
53.7794
52.1174
50.3002
48.4077
46.5012
44.5849
42.6581
40.7184
38.7628
36.5843
34.1493
31.7095
29.2909
26.9151
24.5907
22.3155
60.6415
60.6568
60.6768
60.6819
60.6289
60.6211
60.6189
60.6224
60.6301
60.6383
60.6411
60.6284
60.5859
60.4933
60.3234
60.0419
59.6077
58.9788
58.1394
57.0902
55.8255
54.3507
52.683
50.8508
48.8762
46.8477
44.8287
42.82
40.8191
38.8212
36.6155
34.1641
31.7145
29.2866
26.9043
24.579
22.3151
20.1118
60.6312
60.6433
60.6577
60.6766
60.6813
60.6252
60.6257
60.6335
60.6474
60.6649
60.6812
60.6879
60.6725
60.6172
60.4974
60.2815
59.9302
59.3982
58.641
57.6481
56.428
54.9813
53.321
51.4723
49.4711
47.345
45.1895
43.0689
40.9808
38.9188
36.6689
34.1888
31.7235
29.2868
26.8961
24.5664
22.3034
20.1105
17.9877
60.6287
60.6342
60.6454
60.6587
60.6764
60.6806
60.6318
60.6433
60.6627
60.6885
60.7167
60.7407
60.7496
60.7278
60.6536
60.4979
60.2241
59.7881
59.141
58.2372
57.0732
55.6674
54.0279
52.1763
50.146
47.9803
45.7111
43.4404
41.2317
39.0776
36.7604
34.2336
31.74
29.2888
26.8906
24.5539
22.2888
20.0987
17.9855
15.9495
60.637
60.6333
60.6377
60.6475
60.6597
60.6762
60.6801
60.6519
60.6764
60.7094
60.7483
60.7875
60.8181
60.8264
60.7933
60.6924
60.49
60.1444
59.6072
58.8263
57.757
56.4049
54.8
52.9595
50.9137
48.7045
46.3817
43.9812
41.6094
39.327
36.9127
34.3147
31.7737
29.2954
26.8843
24.542
22.2719
20.0819
17.9736
15.9465
14.0015
60.6593
60.6438
60.6384
60.6411
60.6495
60.6606
60.6761
60.6795
60.6884
60.728
60.7763
60.8291
60.8789
60.9141
60.9178
60.8665
60.7293
60.4674
60.0342
59.3775
58.4434
57.1896
55.6334
53.8184
51.7714
49.532
47.1499
44.6809
42.1637
39.7063
37.1561
34.4548
31.8406
29.3156
26.8793
24.5265
22.2532
20.0606
17.9544
15.9343
13.9977
12.1462
60.6987
60.6687
60.6509
60.6434
60.6444
60.6515
60.6616
60.6759
60.679
60.7444
60.8012
60.8659
60.9329
60.992
61.0287
61.022
60.944
60.7587
60.4223
59.8836
59.0877
57.9804
56.5238
54.7495
52.7161
50.4605
48.0317
45.4863
42.8851
40.2673
37.5315
34.6853
31.964
29.3654
26.884
24.5085
22.2277
20.0347
17.9284
15.9127
13.9852
12.1415
10.3845
60.7584
60.7116
60.6784
60.6579
60.6484
60.6477
60.6535
60.6625
60.6758
60.6786
60.8231
60.8987
60.9808
61.0612
61.1273
61.1605
61.1359
61.0204
60.7731
60.345
59.6814
58.7256
57.425
55.7487
53.7448
51.4881
49.0257
46.4152
43.7197
41.002
38.092
35.0479
32.1755
29.468
26.914
24.4959
22.1958
19.9987
17.8953
15.8821
13.961
12.1286
10.379
8.71631
60.8419
60.7757
60.7243
60.6878
60.6647
60.6532
60.6509
60.6554
60.6634
60.6757
60.6781
60.9277
61.0234
61.1227
61.2148
61.2838
61.3071
61.2547
61.0887
60.763
60.2241
59.4147
58.2779
56.765
54.8541
52.6123
50.131
47.4674
44.6871
41.8567
38.8318
35.5962
32.5168
29.655
26.9923
24.5039
22.1646
19.9522
17.8486
15.8416
13.9259
12.102
10.3658
8.71002
7.14035
60.9524
60.8648
60.7922
60.7367
60.697
60.6714
60.6578
60.6539
60.6572
60.6644
60.6756
60.6777
61.0611
61.1774
61.2927
61.3934
61.4596
61.464
61.3719
61.1399
60.7171
60.0466
59.0694
57.7307
55.9878
53.8306
51.3463
48.6433
45.7886
42.8527
39.6981
36.3273
33.0408
29.9668
27.1498
24.5551
22.149
19.9016
17.7871
15.784
13.8781
12.0624
10.3366
8.69644
7.1333
5.65468
61.0931
60.9823
60.886
60.8084
60.7488
60.7059
60.6778
60.6623
60.6569
60.659
60.6652
60.6755
60.6774
61.2257
61.3621
61.491
61.5953
61.6507
61.6253
61.4787
61.1628
60.6223
59.7978
58.6307
57.0702
55.0821
52.67
49.9428
47.0258
43.9927
40.714
37.1907
33.748
30.455
27.4247
24.6785
22.1708
19.8614
17.7166
15.7073
13.8096
12.0073
10.2928
8.66481
7.11942
5.64695
4.25669
61.2666
61.1319
61.0094
60.9067
60.8241
60.7605
60.7144
60.6839
60.6666
60.6597
60.6606
60.6661
60.6754
60.6771
61.4234
61.5779
61.7162
61.8171
61.8515
61.7824
61.5643
61.1442
60.4635
59.462
58.0832
56.2828
54.0372
51.3659
48.4003
45.28
41.8836
38.2105
34.5914
31.1241
27.8669
24.9102
22.2565
19.852
17.6512
15.6168
13.7177
11.928
10.2306
8.61681
7.08538
5.63278
4.24834
2.94322
61.4751
61.3164
61.166
61.0356
60.9268
60.839
60.7715
60.7224
60.6897
60.6706
60.6623
60.6622
60.6669
60.6753
60.6768
61.6547
61.824
61.9654
62.0534
62.054
61.9248
61.6153
61.0687
60.2243
59.0225
57.4115
55.3556
52.844
49.9139
46.7179
43.2121
39.3927
35.5951
31.9307
28.4847
25.2975
22.4397
19.8972
17.6093
15.5259
13.6074
11.8212
10.1407
8.54775
7.03345
5.59639
4.23391
2.93429
1.71089
61.7194
61.5383
61.3591
61.199
61.061
60.9458
60.8531
60.7819
60.73
60.6951
60.6744
60.6648
60.6637
60.6676
60.6753
60.6766
61.9193
62.0978
62.2337
62.2968
62.2479
62.0394
61.6165
60.9194
59.8869
58.4624
56.6007
54.2768
51.4954
48.3107
44.7054
40.7447
36.767
32.8984
29.2384
25.8518
22.7645
20.0279
17.6121
15.4508
13.4911
11.6915
10.0193
8.44762
6.95772
5.54076
4.19524
2.91963
1.70144
0.556217
61.9993
61.7992
61.5914
61.4004
61.2309
61.085
60.9636
60.8663
60.7915
60.737
60.7002
60.6779
60.6671
60.6651
60.6682
60.6752
60.6765
62.2147
62.3947
62.5138
62.537
62.4202
62.1108
61.5504
60.6777
59.4332
57.7648
55.6366
53.0369
49.9847
46.3702
42.2756
38.1173
34.0366
30.1503
26.5374
23.2443
20.284
17.6872
15.41
13.3826
11.5501
9.8707
8.31215
6.84772
5.45863
4.13613
2.87878
1.68656
0.54626
-0.524568
62.3127
62.0991
61.8648
61.6427
61.4402
61.2609
61.1073
60.9801
60.8784
60.8004
60.7435
60.7048
60.6811
60.6692
60.6662
60.6688
60.6752
60.6763
62.5367
62.7078
62.796
62.7616
62.5554
62.121
61.3977
60.3243
58.8445
56.9137
54.5072
51.6255
48.1323
43.9958
39.6576
35.3573
31.2305
27.374
23.8477
20.6797
17.8696
15.4276
13.2975
11.4083
9.70473
8.14536
6.69879
5.33919
4.04789
2.81643
1.64364
0.531128
-0.535171
-1.5353
62.6557
62.4367
62.18
61.9284
61.6921
61.4774
61.2885
61.1277
60.9951
60.8895
60.8085
60.7494
60.709
60.684
60.671
60.6672
60.6693
60.6752
60.6762
62.8787
63.0278
63.0678
62.955
62.6357
62.0507
61.1381
59.839
58.1027
55.894
53.1986
49.8714
45.8315
41.4006
36.8729
32.4904
28.3705
24.59
21.188
18.1733
15.5325
13.2564
11.279
9.53027
7.95548
6.51456
5.17747
3.91949
2.72239
1.5783
0.486258
-0.550623
-1.5472
-2.47835
63.0217
62.8088
62.5361
62.2584
61.9894
61.7381
61.5114
61.3136
61.1462
61.0087
60.8994
60.8157
60.7545
60.7126
60.6864
60.6724
60.668
60.6697
60.6752
60.6761
63.2315
63.3423
63.3141
63.0991
62.6409
61.8781
60.7501
59.2019
57.1904
54.6896
51.549
47.6557
43.2717
38.5959
33.9418
29.5369
25.4779
21.8187
18.5756
15.738
13.2814
11.179
9.35731
7.74916
6.30163
4.97659
3.74566
2.58553
1.47878
0.418216
-0.597245
-1.56276
-2.4945
-3.26047
63.4018
63.2099
62.9307
62.6327
62.3337
62.046
61.7799
61.5422
61.3362
61.1627
61.0207
60.9081
60.8219
60.7589
60.7155
60.6884
60.6737
60.6687
60.6701
60.6752
60.676
63.583
63.6363
63.5166
63.1736
62.5488
61.5811
60.2121
58.3933
56.0894
53.147
49.4231
45.1378
40.4528
35.5974
30.8847
26.5204
22.5763
19.0805
16.026
13.3843
11.1225
9.19865
7.53348
6.06447
4.74156
3.529
2.40029
1.33397
0.313546
-0.667669
-1.61075
-2.50884
-3.26802
-3.91968
63.7839
63.6319
63.3588
63.0493
62.7252
62.403
62.0972
61.8175
61.5696
61.356
61.177
61.0309
60.9154
60.827
60.7624
60.7179
60.69
60.6747
60.6693
60.6704
60.6752
60.6759
63.9181
63.8916
63.6547
63.1555
62.336
61.136
59.5025
57.393
54.6521
51.1098
46.9497
42.3135
37.3949
32.4328
27.7324
23.4707
19.6912
16.3946
13.5525
11.1207
9.06054
7.31707
5.80734
4.47473
3.27287
2.1687
1.13803
0.161331
-0.777135
-1.68315
-2.55798
-3.27601
-3.91615
-4.61076
64.1529
64.0639
63.8136
63.5044
63.1628
62.8102
62.4656
62.1428
61.8505
61.5934
61.373
61.189
61.0394
60.9212
60.831
60.7651
60.7198
60.6913
60.6756
60.6698
60.6706
60.6752
60.6759
64.2184
64.0873
63.705
63.0208
61.9775
60.52
58.5985
56.0563
52.7001
48.6852
44.1361
39.2202
34.1405
29.1443
24.5233
20.4199
16.8469
13.7784
11.1663
8.95369
7.09819
5.53457
4.17771
2.97767
1.89252
0.892369
-0.0446501
-0.936243
-1.79707
-2.63185
-3.32618
-3.92214
-4.61077
-5.35414
64.4901
64.492
64.285
63.9919
63.6435
63.2668
62.8865
62.5211
62.1827
61.8789
61.6134
61.3869
61.1986
61.0458
60.9255
60.8339
60.7672
60.7213
60.6924
60.6762
60.6703
60.6709
60.6752
60.6759
64.4626
64.1997
63.6427
62.7429
61.4491
59.7067
57.3561
54.1863
50.3326
45.9062
41.0433
35.9153
30.7409
25.7772
21.2954
17.3977
14.0653
11.2465
8.87623
6.88759
5.23672
3.85037
2.64248
1.57034
0.597196
-0.303527
-1.15161
-1.96257
-2.74995
-3.4006
-3.97188
-4.62107
-5.36075
-6.16639
64.7738
64.899
64.7605
64.5032
64.1621
63.7707
63.3599
62.9539
62.5692
62.2166
61.9024
61.6294
61.3976
61.2055
61.0502
60.9284
60.8359
60.7686
60.7223
60.6931
60.6767
60.6706
60.671
60.6751
60.6758
64.6264
64.2031
63.4402
62.2963
60.7203
58.5515
55.5662
51.8869
47.6145
42.8527
37.7341
32.4497
27.2413
22.3717
18.0821
14.4299
11.3645
8.81055
6.68866
4.925
3.47613
2.26271
1.19881
0.249471
-0.616623
-1.42289
-2.18672
-2.92135
-3.52223
-4.04729
-4.67112
-5.37642
-6.17645
-7.05243
64.9786
65.2648
65.224
65.0269
64.7113
64.3177
63.8844
63.4419
63.0121
62.6097
62.2442
61.9208
61.6412
61.4049
61.2099
61.0529
60.9301
60.8371
60.7695
60.723
60.6937
60.6771
60.6708
60.6712
60.6751
60.6758
64.6829
64.069
63.0703
61.646
59.6456
56.8411
53.3461
49.2528
44.6335
39.581
34.2494
28.8609
23.6786
18.9622
14.9124
11.5384
8.75937
6.47912
4.60768
3.06688
1.81523
0.768999
-0.156493
-0.988441
-1.75285
-2.46964
-3.15373
-3.69838
-4.1718
-4.74828
-5.42804
-6.19481
-7.06381
-8.0148
65.0768
65.5658
65.6566
65.5484
65.281
64.9014
64.4566
63.9843
63.5124
63.0606
62.6422
62.2653
61.9339
61.6487
61.4089
61.212
61.0541
60.9308
60.8376
60.7699
60.7234
60.6939
60.6773
60.671
60.6713
60.6751
60.6758
64.6024
63.7686
62.4945
60.6468
58.0146
54.709
50.8128
46.3682
41.4315
36.1172
30.6148
25.1783
20.0846
15.5787
11.8106
8.74077
6.2608
4.25809
2.63543
1.31274
0.25183
-0.633779
-1.4269
-2.14733
-2.81541
-3.44757
-3.93749
-4.35198
-4.87599
-5.508
-6.24817
-7.08305
-8.02691
-9.0585
65.0365
65.7763
66.0359
66.0505
65.8581
65.5131
65.0712
64.5785
64.0698
63.5708
63.0991
62.6665
62.2796
61.9413
61.652
61.4101
61.2121
61.0538
60.9305
60.8374
60.7698
60.7233
60.694
60.6776
60.6712
60.6713
60.6751
60.6758
64.353
63.2597
61.5672
59.0957
55.9758
52.2861
48.0392
43.2582
38.0205
32.4758
26.8515
21.4293
16.4886
12.2473
8.79701
6.05049
3.87663
2.15091
0.772208
-0.339181
-1.21685
-1.949
-2.61634
-3.23115
-3.80813
-4.2402
-4.59668
-5.06063
-5.63942
-6.33157
-7.1378
-8.04701
-9.07109
-10.1903
64.8216
65.8677
66.3367
66.5122
66.4267
66.1411
65.7207
65.2202
64.6827
64.1405
63.6167
63.1273
62.6822
62.2869
61.9436
61.6518
61.4088
61.2105
61.0524
60.9294
60.8366
60.7692
60.7231
60.6944
60.6779
60.6714
60.6713
60.6752
60.6759
63.8886
62.3959
60.0979
57.1534
53.6668
49.6304
45.0353
39.9242
34.4059
28.6698
22.9812
17.6412
12.9183
8.99124
5.88794
3.47756
1.61181
0.158833
-0.983197
-1.8914
-2.59405
-3.18055
-3.72881
-4.24378
-4.6128
-4.90691
-5.31139
-5.82904
-6.46719
-7.22466
-8.10305
-9.09219
-10.2031
-11.4176
64.381
65.8085
66.5307
66.9099
66.9679
66.7713
66.3948
65.903
65.3477
64.7687
64.1957
63.6498
63.1448
62.6892
62.2878
61.9415
61.6485
61.4053
61.2074
61.0499
60.9275
60.8351
60.7684
60.7234
60.6949
60.6781
60.6714
60.6713
60.6752
60.6759
63.0608
61.0034
58.2543
54.9583
51.1304
46.7403
41.7954
36.3647
30.5938
24.7152
19.0284
13.8421
9.39953
5.82999
3.09593
1.02869
-0.531321
-1.71875
-2.63299
-3.34706
-3.88367
-4.33246
-4.76823
-5.06459
-5.28966
-5.62975
-6.08645
-6.66238
-7.36476
-8.19325
-9.14986
-10.225
-11.4305
-12.7478
65.5531
63.5669
66.5856
67.2168
67.4596
67.3862
67.0809
66.6181
66.0592
65.4527
64.8357
64.2351
63.6697
63.1515
62.6884
62.2832
61.9355
61.6424
61.3999
61.203
61.0464
60.9247
60.8334
60.7686
60.7242
60.6952
60.6781
60.6713
60.6712
60.6752
60.676
61.7134
59.2529
56.1719
52.5399
48.3564
43.6055
38.3135
32.5801
26.5941
20.632
15.0203
10.0608
5.95634
2.77994
0.430253
-1.2923
-2.55264
-3.4837
-4.18017
-4.71008
-5.08979
-5.4087
-5.61074
-5.75501
-6.0235
-6.41367
-6.92707
-7.56609
-8.33806
-9.24356
-10.2847
-11.4531
-12.7609
-14.1886
66.4587
64.9647
62.231
67.4015
67.8767
67.9655
67.7633
67.3543
66.81
66.1883
65.5347
64.8833
64.2582
63.6763
63.1486
62.6807
62.2739
61.9262
61.6341
61.393
61.1974
61.0418
60.9216
60.8333
60.7697
60.7246
60.6952
60.678
60.6711
60.6711
60.6752
60.6761
60.0234
57.275
53.8701
49.8818
45.3323
40.2175
34.5858
28.5746
22.421
16.4445
10.9869
6.32539
2.61016
-0.145764
-2.103
-3.48415
-4.45354
-5.13887
-5.62868
-5.98463
-6.21648
-6.28096
-6.31939
-6.5035
-6.81933
-7.26393
-7.83873
-8.54605
-9.39341
-10.3821
-11.5147
-12.7841
-14.2017
-15.7479
67.4236
66.0352
63.9191
60.5681
68.1899
68.486
68.4235
68.0977
67.5901
66.9691
66.2894
65.5931
64.911
64.2651
63.6711
63.1374
62.6673
62.2605
61.9141
61.6238
61.3844
61.1902
61.0367
60.9211
60.8348
60.7703
60.7246
60.6949
60.6776
60.6709
60.6709
60.6752
60.6762
58.1163
55.0819
51.328
46.971
42.0486
36.57
30.6115
24.3561
18.0939
12.1816
6.95958
2.66311
-0.620354
-2.93735
-4.50059
-5.54742
-6.23664
-6.68827
-6.98284
-7.17496
-7.12937
-7.01454
-7.08761
-7.31517
-7.6825
-8.18607
-8.82729
-9.60859
-10.5375
-11.6161
-12.8476
-14.2257
-15.7611
-17.4339
68.3617
67.1854
65.168
62.5572
58.6994
68.9207
69.04
68.8314
68.3875
67.7868
67.0945
66.3618
65.6272
64.9188
64.2576
63.6558
63.1191
62.6489
62.2437
61.8996
61.6116
61.374
61.1826
61.0356
60.9231
60.8357
60.7703
60.7242
60.6944
60.6774
60.6707
60.6707
60.6753
60.6763
55.9986
52.6488
48.5326
43.7978
38.4979
32.6588
26.3926
19.937
13.6372
7.87547
2.97059
-0.900935
-3.71999
-5.58831
-6.76148
-7.48413
-7.90589
-8.13637
-8.24707
-8.13901
-7.89696
-7.80972
-7.92061
-8.19548
-8.61861
-9.18601
-9.89914
-10.7604
-11.7773
-12.953
-14.2911
-15.7858
-17.4469
-19.2546
69.2355
68.3136
66.5393
63.9874
60.9817
56.6275
69.5879
69.536
69.187
68.6306
67.9429
67.1854
66.4049
65.6372
64.9092
64.2379
63.6319
63.0949
62.6265
62.224
61.8827
61.597
61.363
61.1806
61.0383
60.9243
60.8357
60.7697
60.7235
60.6941
60.6772
60.6703
60.6705
60.6753
60.6764
53.6404
49.9636
45.4755
40.3552
34.6743
28.4811
21.9337
15.3344
9.08028
3.56114
-0.948521
-4.34475
-6.67721
-8.09482
-8.88646
-9.29794
-9.46587
-9.48785
-9.2705
-8.9494
-8.72891
-8.67182
-8.82394
-9.15007
-9.63364
-10.2702
-11.061
-12.0086
-13.1205
-14.4007
-15.8531
-17.4724
-19.2675
-21.2182
70.0376
69.3731
67.8991
65.5845
62.5986
59.2077
54.3174
70.1886
69.9709
69.4875
68.8256
68.0578
67.2409
66.4189
65.6261
64.8848
64.2078
63.6008
63.0656
62.6005
62.2015
61.8629
61.5818
61.3599
61.1842
61.0399
60.9243
60.8349
60.7687
60.7232
60.694
60.6768
60.6699
60.6702
60.6753
60.6766
51.0304
47.0199
42.1513
36.6373
30.5718
24.0344
17.2424
10.5704
4.45743
-0.724642
-4.76818
-7.65012
-9.48373
-10.4555
-10.8784
-10.9933
-10.9215
-10.5815
-10.1305
-9.82757
-9.63062
-9.60647
-9.80336
-10.185
-10.734
-11.4453
-12.3199
-13.3606
-14.5748
-15.967
-17.5416
-19.2936
-21.2306
-23.3334
70.7638
70.3547
69.1857
67.1822
64.4241
61.0357
57.2017
51.7572
70.7188
70.3416
69.7311
68.9713
68.1301
67.2612
66.4072
65.597
64.8479
64.1689
63.5638
63.0323
62.5712
62.1754
61.8425
61.5772
61.3645
61.1862
61.0399
60.9232
60.8334
60.7685
60.7235
60.6938
60.6763
60.6694
60.6698
60.6753
60.6768
48.1647
43.8148
38.5554
32.637
26.1833
19.3165
12.33
5.67371
-0.192589
-4.94512
-8.46206
-10.8025
-12.1344
-12.6715
-12.7412
-12.5753
-12.0991
-11.5001
-11.0621
-10.779
-10.6078
-10.6195
-10.865
-11.3068
-11.9266
-12.7185
-13.6835
-14.8244
-16.1482
-17.66
-19.3646
-21.2567
-23.3428
-26.0061
71.4088
71.253
70.3897
68.7039
66.2591
63.1103
59.2665
54.9523
48.9443
71.1744
70.6454
69.9162
69.0662
68.1601
67.2506
66.3739
65.5529
64.8005
64.123
63.5218
62.9949
62.5375
62.1485
61.8359
61.5831
61.3672
61.1863
61.0384
60.9212
60.8335
60.7694
60.7235
60.6933
60.6757
60.6689
60.6694
60.6754
60.677
45.0423
40.3458
34.6815
28.3448
21.4978
14.3253
7.21353
0.679623
-4.82808
-9.06516
-12.0074
-13.7913
-14.6277
-14.7457
-14.4799
-13.855
-13.0879
-12.4948
-12.071
-11.8097
-11.6666
-11.7172
-12.0154
-12.5223
-13.2185
-14.0974
-15.1595
-16.4077
-17.8487
-19.4877
-21.3294
-23.369
-26.019
-29.1834
71.9672
72.0609
71.5063
70.1391
68.0147
65.1971
61.6137
57.2754
52.4615
45.8792
71.552
70.8803
70.0409
69.1104
68.1529
67.2139
66.3225
65.4962
64.7445
64.0712
63.475
62.9522
62.503
62.1396
61.8435
61.5864
61.3672
61.1843
61.0357
60.9218
60.8353
60.77
60.7232
60.6925
60.6749
60.6682
60.6689
60.6754
60.6773
41.6631
36.6094
30.5206
23.7445
16.5016
9.06358
1.91881
-4.36969
-9.40593
-13.0521
-15.3859
-16.6103
-16.9644
-16.6826
-15.8865
-14.9292
-14.1582
-13.5715
-13.1632
-12.9256
-12.8131
-12.9061
-13.2614
-13.8386
-14.6172
-15.5897
-16.7559
-18.1188
-19.6842
-21.4574
-23.4426
-26.0507
-29.1998
-32.4129
72.435
72.7701
72.5272
71.484
69.6791
67.1989
63.9712
59.9151
55.0642
49.7362
42.564
71.8491
71.0438
70.1049
69.1097
68.1143
67.1554
66.2559
65.4293
64.6817
64.0137
63.422
62.9085
62.4912
62.149
61.8477
61.5865
61.3646
61.1807
61.0369
60.925
60.8368
60.7701
60.7225
60.6915
60.6738
60.6674
60.6684
60.6755
60.6776
38.026
32.599
26.0563
18.8155
11.1848
3.54445
-3.51706
-9.42596
-13.8827
-16.8772
-18.5846
-19.2569
-19.1476
-18.2498
-17.0668
-16.0914
-15.3161
-14.7365
-14.345
-14.1331
-14.0541
-14.1931
-14.6101
-15.2632
-16.1305
-17.2032
-18.4807
-19.9653
-21.6622
-23.5754
-26.1294
-29.2346
-32.4257
-35.6475
72.8088
73.3737
73.4426
72.7294
71.2491
69.1032
66.2375
62.5575
58.0155
52.6429
46.7862
38.9998
72.0622
71.1348
70.115
69.0713
68.0494
67.0788
66.1772
65.3541
64.6121
63.9487
63.3677
62.8934
62.5029
62.1542
61.8477
61.5832
61.36
61.1828
61.0421
60.9278
60.8376
60.7697
60.7215
60.6902
60.6726
60.6664
60.6678
60.6756
60.678
34.1274
28.3024
21.2639
13.5309
5.53614
-2.21095
-9.04634
-14.4359
-18.2169
-20.5177
-21.5951
-21.7319
-20.9144
-19.5646
-18.3433
-17.3483
-16.5683
-15.9961
-15.6228
-15.4391
-15.3963
-15.5852
-16.069
-16.8036
-17.766
-18.9459
-20.3416
-21.9549
-23.7888
-26.271
-29.3204
-32.4575
-35.6582
-38.8599
73.0842
73.866
74.2425
73.8644
72.7157
70.9062
68.4012
65.101
60.9553
55.9263
50.0269
43.622
35.1862
72.1894
71.1614
70.0798
69.0013
67.9627
66.9875
66.0886
65.271
64.5336
63.8822
63.3486
62.9078
62.5093
62.1543
61.8436
61.5773
61.3633
61.1906
61.0468
60.9297
60.8378
60.7688
60.72
60.6886
60.6711
60.6653
60.6671
60.6757
60.6784
29.9586
23.6926
16.101
7.84996
-0.456781
-8.17418
-14.6121
-19.3441
-22.3719
-23.9563
-24.414
-23.7354
-22.396
-20.9859
-19.7231
-18.7067
-17.9211
-17.3569
-17.0033
-16.8502
-16.8469
-17.0898
-17.6454
-18.4676
-19.5316
-20.8254
-22.3461
-24.0937
-26.4964
-29.4734
-32.5435
-35.6892
-38.8694
-42.0349
73.258
74.2403
74.9176
74.8774
74.0679
72.5982
70.4579
67.5367
63.7848
59.1758
53.6657
47.2348
40.2546
31.1213
72.2395
71.1336
70.0067
68.9052
67.8586
66.8845
65.9907
65.1775
64.4532
63.8585
63.3661
62.9156
62.5094
62.1491
61.8361
61.5821
61.3744
61.1978
61.0503
60.9308
60.8374
60.7674
60.7182
60.6866
60.6694
60.664
60.6663
60.6758
60.6788
25.4985
18.7275
10.5112
1.72847
-6.79346
-14.3008
-20.1488
-24.0965
-26.3171
-27.1823
-26.6968
-25.4146
-23.9963
-22.5212
-21.2132
-20.1731
-19.3814
-18.8256
-18.4934
-18.3733
-18.4127
-18.7139
-19.3466
-20.2624
-21.4345
-22.8489
-24.5003
-26.8167
-29.7139
-32.702
-35.7757
-38.9013
-42.0434
-45.1553
73.3401
74.4909
75.4556
75.7572
75.2937
74.1677
72.3971
69.8612
66.4994
62.2992
57.2381
51.2562
44.286
36.6964
26.7948
72.2244
71.0602
69.9023
68.7881
67.7405
66.7706
65.8805
65.0816
64.4244
63.8797
63.3755
62.9156
62.5031
62.1397
61.8429
61.5975
61.385
61.2035
61.0528
60.9311
60.8362
60.7654
60.7158
60.6842
60.6674
60.6625
60.6654
60.6759
60.6793
20.7152
13.3531
4.42705
-4.87089
-13.4523
-20.5257
-25.5855
-28.6423
-30.0296
-29.7968
-28.6089
-27.2271
-25.7236
-24.1778
-22.8204
-21.7544
-20.9558
-20.4089
-20.0996
-20.0151
-20.1008
-20.4645
-21.1799
-22.1952
-23.4815
-25.0221
-27.2421
-30.0524
-32.9532
-35.9385
-38.9898
-42.076
-45.1625
-48.1996
73.3445
74.6287
75.8434
76.4874
76.3807
75.6019
74.2052
72.064
69.0976
65.2969
60.6631
55.1665
48.7223
41.2001
32.9549
22.1854
72.1549
70.9494
69.7726
68.6543
67.6094
66.6422
65.7673
65.0468
64.4497
63.8909
63.3755
62.9079
62.4914
62.1489
61.8636
61.6123
61.3936
61.208
61.0542
60.9305
60.8342
60.7627
60.7129
60.6814
60.6651
60.6609
60.6646
60.6761
60.6798
15.5615
7.48879
-2.23789
-11.9706
-20.3877
-26.7664
-30.8479
-32.9385
-33.0418
-31.9852
-30.6707
-29.1811
-27.5849
-25.9623
-24.5512
-23.4569
-22.6507
-22.1132
-21.8283
-21.7823
-21.9175
-22.3484
-23.1515
-24.2721
-25.678
-27.7864
-30.4982
-33.3053
-36.1977
-39.1579
-42.1661
-45.1953
-48.2054
-51.1458
73.2838
74.6709
76.089
77.0468
77.3089
76.8883
75.8675
74.1313
71.5704
68.17
63.9465
58.9013
52.9882
46.0882
37.9974
29.0317
17.2614
72.0403
70.8082
69.6231
68.5053
67.4614
66.5101
65.7261
65.077
64.463
63.8909
63.3662
62.8936
62.5035
62.1762
61.8835
61.6246
61.4006
61.211
61.0545
60.9288
60.8313
60.7592
60.7093
60.6782
60.6626
60.6592
60.6637
60.6762
60.6804
9.96569
1.01375
-9.58878
-19.5698
-27.5275
-32.919
-35.8645
-36.4295
-35.5604
-34.3419
-32.89
-31.2828
-29.586
-27.8805
-26.4117
-25.2868
-24.472
-23.9444
-23.6856
-23.6805
-23.869
-24.3712
-25.2671
-26.4979
-28.4694
-31.0652
-33.7664
-36.5593
-39.4246
-42.339
-45.286
-48.2381
-51.1501
-53.9727
73.1694
74.633
76.2113
77.4391
78.0499
78.0047
77.3688
76.047
73.9056
70.9128
67.0933
62.4726
57.0421
50.7308
43.3794
34.7001
24.9286
11.9792
71.8894
70.6433
69.4555
68.3365
67.3089
66.4617
65.7618
65.0926
64.463
63.8798
63.3487
62.9091
62.5385
62.2025
61.9005
61.6349
61.4059
61.2126
61.0534
60.9259
60.8274
60.755
60.7052
60.6747
60.66
60.6575
60.6628
60.6764
60.681
3.81826
-6.25807
-17.7406
-27.6311
-34.7556
-38.8557
-39.9623
-39.3441
-38.2664
-36.8732
-35.2714
-33.5367
-31.7317
-29.9376
-28.4069
-27.2491
-26.425
-25.9077
-25.6766
-25.715
-25.96
-26.5376
-27.5306
-29.3228
-31.7742
-34.3497
-37.0301
-39.7935
-42.6117
-45.4621
-48.3287
-51.1824
-53.9755
-56.6605
73.0114
74.5289
76.2287
77.6824
78.6035
78.9175
78.6827
77.7933
76.0878
73.5159
70.1018
65.8902
60.9034
55.1148
48.4222
40.6233
31.3305
20.6457
6.27594
71.7099
70.4569
69.2648
68.1619
67.2526
66.5036
65.7799
65.0927
64.4499
63.8586
63.3684
62.9534
62.5725
62.2252
61.9151
61.6433
61.4094
61.2125
61.0507
60.9216
60.8224
60.7498
60.7005
60.6709
60.6572
60.6557
60.6619
60.6766
60.6816
-3.06321
-14.6207
-26.7794
-36.0484
-41.8652
-43.729
-43.3859
-42.4688
-41.1625
-39.5804
-37.8168
-35.9453
-34.0251
-32.1372
-30.5408
-29.3481
-28.5139
-28.0074
-27.8054
-27.8895
-28.194
-28.8506
-30.3986
-32.6597
-35.077
-37.6228
-40.2696
-42.9846
-45.738
-48.5062
-51.2718
-54.007
-56.6618
-59.1903
72.819
74.3712
76.1589
77.7945
78.9877
79.6244
79.7686
79.3382
78.0987
75.9666
72.967
69.1574
64.5882
59.2684
53.1485
46.0913
37.8475
27.9111
16.1927
0.0694379
71.505
70.2437
69.0669
68.0972
67.3016
66.5247
65.78
65.0772
64.4245
63.883
63.4234
62.9965
62.602
62.245
61.9272
61.6493
61.4107
61.2104
61.0463
60.9159
60.8162
60.7439
60.6955
60.6669
60.6542
60.6538
60.6609
60.6768
60.6823
-10.9921
-24.5389
-36.7215
-44.5033
-47.7579
-47.7881
-47.0433
-45.8047
-44.2443
-42.4599
-40.5244
-38.5083
-36.467
-34.4808
-32.8157
-31.5862
-30.7414
-30.246
-30.0742
-30.2061
-30.5729
-31.775
-33.7764
-35.9848
-38.3602
-40.8656
-43.4614
-46.1107
-48.7819
-51.4488
-54.0944
-56.692
-59.1903
-61.5461
72.5965
74.1709
76.0181
77.7934
79.2204
80.1444
80.6215
80.6298
79.902
78.2485
75.6806
72.275
68.1058
63.2165
57.5971
51.1725
43.7649
35.0832
24.4776
11.6154
-6.75307
71.2688
70.0212
68.9933
68.1541
67.3259
66.5248
65.762
65.0469
64.4542
63.9504
63.4769
63.0341
62.628
62.2617
61.9365
61.6526
61.4096
61.2061
61.04
60.9087
60.809
60.7374
60.69
60.6626
60.6512
60.6518
60.66
60.677
60.683
-20.6544
-36.7983
-47.041
-51.7682
-52.6193
-52.081
-50.914
-49.3376
-47.5018
-45.5029
-43.3888
-41.222
-39.0554
-36.9677
-35.2316
-33.9641
-33.1081
-32.6242
-32.4836
-32.6649
-33.5721
-35.2063
-37.1305
-39.2808
-41.6056
-44.0549
-46.583
-49.1499
-51.7209
-54.2686
-56.7763
-59.2187
-61.5442
-63.7113
72.3379
73.9329
75.8209
77.6972
79.3194
80.4963
81.2637
81.6557
81.4342
80.3235
78.2299
75.24
71.4636
66.9756
61.8041
55.9179
49.2124
41.4731
32.3764
21.0701
7.00568
-14.3907
71.021
69.9382
69.059
68.1821
67.326
66.5038
65.7262
65.0826
64.5356
64.0159
63.524
63.0675
62.6505
62.2751
61.9424
61.6528
61.4056
61.1993
61.0316
60.8999
60.8008
60.7303
60.6842
60.6582
60.648
60.6499
60.659
60.6772
60.6838
-33.5867
-50.707