/*--------------------------------*- C++ -*----------------------------------*\
  =========                 |
  \\      /  F ield         | OpenFOAM: The Open Source CFD Toolbox
   \\    /   O peration     | Website:  https://openfoam.org
    \\  /    A nd           | Version:  8
     \\/     M anipulation  |
\*---------------------------------------------------------------------------*/
FoamFile
{
    version     2.0;
    format      ascii;
    class       surfaceScalarField;
    location    "0.04";
    object      phi;
}
// * * * * * * * * * * * * * * * * * * * * * * * * * * * * * * * * * * * * * //

dimensions      [0 3 -1 0 0 0 0];

internalField   nonuniform List<scalar> 
31053
(
6.27704e-07
1.27523e-05
8.49585e-07
1.51581e-05
3.76237e-07
1.23761e-05
9.32276e-07
1.75573e-05
5.88725e-07
1.49456e-05
2.69503e-07
1.21066e-05
9.55916e-07
2.02164e-05
7.06847e-07
1.74392e-05
4.64567e-07
1.47506e-05
2.15986e-07
1.18906e-05
9.46912e-07
2.3249e-05
7.6631e-07
2.01569e-05
5.89926e-07
1.73138e-05
3.96132e-07
1.45704e-05
1.72589e-07
1.1718e-05
9.16956e-07
2.669e-05
7.91315e-07
2.3224e-05
6.64917e-07
2.00819e-05
5.23651e-07
1.71863e-05
3.33447e-07
1.44096e-05
1.38015e-07
1.158e-05
8.71543e-07
3.06654e-05
7.94059e-07
2.66872e-05
7.06871e-07
2.3182e-05
6.04919e-07
2.00006e-05
4.55922e-07
1.70638e-05
2.78722e-07
1.42689e-05
1.10882e-07
1.14691e-05
8.14074e-07
3.51975e-05
7.81442e-07
3.0678e-05
7.26653e-07
2.66674e-05
6.53367e-07
2.31336e-05
5.37274e-07
1.99193e-05
3.91844e-07
1.69507e-05
2.31676e-07
1.41481e-05
8.8437e-08
1.13806e-05
7.47392e-07
4.03867e-05
7.57276e-07
3.52216e-05
7.30577e-07
3.06741e-05
6.79022e-07
2.66418e-05
5.86524e-07
2.30843e-05
4.69254e-07
1.98419e-05
3.33042e-07
1.68493e-05
1.89605e-07
1.40469e-05
6.87265e-08
1.13119e-05
6.73212e-07
4.63542e-05
7.23493e-07
4.04205e-05
7.21888e-07
3.52303e-05
6.87847e-07
3.06653e-05
6.1269e-07
2.66156e-05
5.15814e-07
2.30378e-05
4.0371e-07
1.97712e-05
2.77259e-07
1.67617e-05
1.50569e-07
1.39651e-05
5.05952e-08
1.12613e-05
5.9321e-07
5.322e-05
6.82149e-07
4.63955e-05
7.01802e-07
4.04406e-05
6.83361e-07
3.52348e-05
6.21743e-07
3.06562e-05
5.39154e-07
2.65923e-05
4.45009e-07
2.29965e-05
3.38688e-07
1.97098e-05
2.22938e-07
1.66893e-05
1.1328e-07
1.39024e-05
3.33405e-08
1.1228e-05
5.0932e-07
6.10639e-05
6.34905e-07
5.32672e-05
6.71602e-07
4.64257e-05
6.67917e-07
4.0456e-05
6.17193e-07
3.52394e-05
5.4506e-07
3.06503e-05
4.63016e-07
2.65743e-05
3.72335e-07
2.29628e-05
2.7285e-07
1.96599e-05
1.69015e-07
1.66336e-05
7.68818e-08
1.38588e-05
1.64734e-08
1.12115e-05
4.24063e-07
7.00673e-05
5.83277e-07
6.11155e-05
6.32382e-07
5.33065e-05
6.42171e-07
4.64515e-05
6.01169e-07
4.0472e-05
5.37017e-07
3.52474e-05
4.63101e-07
3.06502e-05
3.82622e-07
2.6564e-05
2.96501e-07
2.29392e-05
2.05275e-07
1.96236e-05
1.14756e-07
1.65957e-05
4.07168e-08
1.38346e-05
-2.47504e-10
1.12118e-05
3.41149e-07
8.04149e-05
5.28304e-07
7.01222e-05
5.85353e-07
6.11625e-05
6.06481e-07
5.33422e-05
5.74694e-07
4.64779e-05
5.16976e-07
4.04921e-05
4.48635e-07
3.52619e-05
3.74334e-07
3.06585e-05
2.96699e-07
2.65638e-05
2.16632e-07
2.29278e-05
1.35311e-07
1.96031e-05
5.95662e-08
1.65769e-05
4.33834e-09
1.383e-05
-1.71395e-08
1.12289e-05
2.77621e-07
7.62535e-05
4.70043e-07
8.04732e-05
5.31875e-07
7.01757e-05
5.61236e-07
6.12078e-05
5.38132e-07
5.33787e-05
4.85905e-07
4.6509e-05
4.21463e-07
4.05192e-05
3.5066e-07
3.52855e-05
2.77521e-07
3.06777e-05
2.0436e-07
2.6576e-05
1.32059e-07
2.29311e-05
6.24451e-08
1.96002e-05
3.12483e-09
1.65781e-05
-3.25623e-08
1.38454e-05
-3.41682e-08
1.12631e-05
2.26772e-07
7.62408e-05
4.17707e-07
7.63059e-05
4.73333e-07
8.05317e-05
5.07059e-07
7.02299e-05
4.91662e-07
6.12543e-05
4.4416e-07
5.34205e-05
3.82447e-07
4.6548e-05
3.13331e-07
4.05566e-05
2.41881e-07
3.53212e-05
1.71746e-07
3.07103e-05
1.04888e-07
2.66032e-05
4.22555e-08
2.29513e-05
-1.35173e-08
1.96168e-05
-5.49312e-08
1.66004e-05
-6.99599e-08
1.38812e-05
-5.13805e-08
1.13144e-05
1.8628e-07
7.62305e-05
3.6864e-07
7.62899e-05
4.21146e-07
7.63581e-05
4.4506e-07
8.05937e-05
4.35557e-07
7.0286e-05
3.91879e-07
6.13065e-05
3.31867e-07
5.3471e-05
2.63088e-07
4.65983e-05
1.91342e-07
4.06071e-05
1.21352e-07
3.53716e-05
5.6232e-08
3.0759e-05
-2.27448e-09
2.66477e-05
-5.28565e-08
2.29906e-05
-9.26869e-08
1.96546e-05
-1.14296e-07
1.66448e-05
-1.07771e-07
1.39376e-05
-6.87971e-08
1.13832e-05
1.53716e-07
7.62246e-05
3.23123e-07
7.6276e-05
3.72307e-07
7.63388e-05
3.88655e-07
7.64145e-05
3.70485e-07
8.06588e-05
3.29253e-07
7.03486e-05
2.69804e-07
6.13686e-05
2.00109e-07
5.3534e-05
1.26492e-07
4.66631e-05
5.45066e-08
4.06739e-05
-1.17795e-08
3.54396e-05
-6.95926e-08
3.08263e-05
-1.17153e-07
2.6712e-05
-1.53202e-07
2.30511e-05
-1.74653e-07
1.97149e-05
-1.74752e-07
1.67118e-05
-1.45937e-07
1.40147e-05
-8.62027e-08
1.14694e-05
1.27268e-07
7.62164e-05
2.81492e-07
7.62662e-05
3.26876e-07
7.63214e-05
3.35305e-07
7.63921e-05
3.10249e-07
7.64747e-05
2.56897e-07
8.07311e-05
1.96395e-07
7.0422e-05
1.24421e-07
6.14443e-05
4.73801e-08
5.36131e-05
-2.84029e-08
4.6746e-05
-9.81127e-08
4.07603e-05
-1.58102e-07
3.55281e-05
-2.05775e-07
3.09149e-05
-2.39526e-07
2.67984e-05
-2.58203e-07
2.31347e-05
-2.58885e-07
1.97991e-05
-2.35928e-07
1.68018e-05
-1.84008e-07
1.41125e-05
-1.03273e-07
1.15727e-05
1.0561e-07
7.62117e-05
2.43761e-07
7.62542e-05
2.84886e-07
7.63082e-05
2.85442e-07
7.63713e-05
2.52711e-07
7.64496e-05
1.9e-07
7.65416e-05
1.12271e-07
8.08153e-05
3.61536e-08
7.05103e-05
-4.60311e-08
6.15377e-05
-1.27498e-07
5.37122e-05
-2.02647e-07
4.68506e-05
-2.67147e-07
4.08693e-05
-3.17676e-07
3.564e-05
-3.51884e-07
3.10273e-05
-3.68618e-07
2.69088e-05
-3.67032e-07
2.32428e-05
-3.44578e-07
1.99077e-05
-2.97093e-07
1.69148e-05
-2.21449e-07
1.42307e-05
-1.19784e-07
1.16925e-05
8.77634e-08
7.62078e-05
2.0977e-07
7.62456e-05
2.46281e-07
7.62928e-05
2.39334e-07
7.63543e-05
1.98658e-07
7.64254e-05
1.26241e-07
7.65134e-05
3.49936e-08
7.66189e-05
-6.4005e-08
8.09154e-05
-1.53603e-07
7.06179e-05
-2.42901e-07
6.16531e-05
-3.25716e-07
5.38353e-05
-3.96911e-07
4.69803e-05
-4.52632e-07
4.10043e-05
-4.8986e-07
3.5778e-05
-5.06971e-07
3.11656e-05
-5.03307e-07
2.70451e-05
-4.78411e-07
2.33767e-05
-4.30643e-07
2.00413e-05
-3.57409e-07
1.70508e-05
-2.57693e-07
1.43686e-05
-1.35414e-07
1.18279e-05
7.41343e-08
6.95956e-05
1.79314e-07
7.62383e-05
2.10977e-07
7.6281e-05
1.97102e-07
7.6335e-05
1.48593e-07
7.64044e-05
6.65963e-08
7.6485e-05
-3.82491e-08
7.65866e-05
-1.55366e-07
7.67102e-05
-2.74468e-07
8.10363e-05
-3.74444e-07
7.07494e-05
-4.67551e-07
6.17949e-05
-5.47991e-07
5.39864e-05
-6.11212e-07
4.71389e-05
-6.53734e-07
4.11682e-05
-6.73515e-07
3.59445e-05
-6.69587e-07
3.13319e-05
-6.41861e-07
2.72085e-05
-5.90836e-07
2.35369e-05
-5.15807e-07
2.01997e-05
-4.15937e-07
1.7209e-05
-2.92104e-07
1.45253e-05
-1.5e-07
1.19779e-05
6.36544e-08
6.25545e-05
1.54499e-07
6.96204e-05
1.78872e-07
7.62704e-05
1.58757e-07
7.63193e-05
1.02838e-07
7.63808e-05
1.17128e-08
7.64592e-05
-1.06297e-07
7.6553e-05
-2.41426e-07
7.66727e-05
-3.83926e-07
7.68197e-05
-5.21062e-07
8.11829e-05
-6.27979e-07
7.09098e-05
-7.20765e-07
6.19677e-05
-7.94335e-07
5.41695e-05
-8.44525e-07
4.73297e-05
-8.69107e-07
4.13637e-05
-8.66844e-07
3.61418e-05
-8.37555e-07
3.15276e-05
-7.82325e-07
2.74e-05
-7.02514e-07
2.37236e-05
-5.98722e-07
2.03824e-05
-4.71676e-07
1.73886e-05
-3.24226e-07
1.46995e-05
-1.63168e-07
1.21411e-05
5.54361e-08
5.62262e-05
1.34533e-07
6.25744e-05
1.52151e-07
6.96472e-05
1.24253e-07
7.63049e-05
6.15728e-08
7.63606e-05
-3.79733e-08
7.64305e-05
-1.68326e-07
7.65213e-05
-3.20833e-07
7.66325e-05
-4.86423e-07
7.67752e-05
-6.53027e-07
7.69517e-05
-8.05689e-07
8.13606e-05
-9.15068e-07
7.11041e-05
-1.00257e-06
6.2176e-05
-1.06354e-06
5.43885e-05
-1.09528e-06
4.75559e-05
-1.09657e-06
4.15935e-05
-1.06719e-06
3.63714e-05
-1.00844e-06
3.17537e-05
-9.22363e-07
2.76198e-05
-8.11637e-07
2.39365e-05
-6.77944e-07
2.05887e-05
-5.23777e-07
1.75882e-05
-3.53217e-07
1.48896e-05
-1.74327e-07
1.23154e-05
4.88881e-08
5.05385e-05
1.18364e-07
5.62424e-05
1.3018e-07
6.25964e-05
9.60184e-08
6.96754e-05
2.48896e-08
7.63416e-05
-8.21672e-08
7.64048e-05
-2.23756e-07
7.64859e-05
-3.92578e-07
7.6593e-05
-5.80408e-07
7.67264e-05
-7.75963e-07
7.68981e-05
-9.64879e-07
7.71108e-05
-1.12933e-06
8.15749e-05
-1.23581e-06
7.13374e-05
-1.31159e-06
6.2424e-05
-1.3538e-06
5.4647e-05
-1.36089e-06
4.78202e-05
-1.33296e-06
4.18592e-05
-1.27162e-06
3.66346e-05
-1.17935e-06
3.20107e-05
-1.05966e-06
2.78679e-05
-9.16255e-07
2.41748e-05
-7.52182e-07
2.08171e-05
-5.70956e-07
1.78059e-05
-3.78341e-07
1.50936e-05
-1.81198e-07
1.24966e-05
4.35997e-08
4.54253e-05
1.05172e-07
5.05517e-05
1.12045e-07
5.62605e-05
7.32447e-08
6.26192e-05
-4.55844e-09
6.97048e-05
-1.20684e-07
7.63801e-05
-2.72191e-07
7.64532e-05
-4.55916e-07
7.65492e-05
-6.64662e-07
7.66773e-05
-8.88092e-07
7.68386e-05
-1.11259e-06
7.70458e-05
-1.32062e-06
7.73021e-05
-1.49221e-06
8.18313e-05
-1.58865e-06
7.16144e-05
-1.64578e-06
6.2716e-05
-1.66207e-06
5.49482e-05
-1.63764e-06
4.81249e-05
-1.57482e-06
4.21624e-05
-1.47669e-06
3.69319e-05
-1.34742e-06
3.22985e-05
-1.19169e-06
2.81433e-05
-1.01456e-06
2.44372e-05
-8.19677e-07
2.10658e-05
-6.12262e-07
1.80398e-05
-3.95298e-07
1.53077e-05
-1.50949e-07
1.26476e-05
3.92749e-08
4.08303e-05
9.43274e-08
4.54361e-05
9.7014e-08
5.05668e-05
5.48385e-08
5.62789e-05
-2.77317e-08
6.26424e-05
-1.50811e-07
6.9735e-05
-3.13369e-07
7.64213e-05
-5.10311e-07
7.65076e-05
-7.38243e-07
7.66228e-05
-9.87966e-07
7.67771e-05
-1.24678e-06
7.69728e-05
-1.49763e-06
7.72229e-05
-1.72062e-06
7.75305e-05
-1.89265e-06
8.21353e-05
-1.97133e-06
7.194e-05
-2.00166e-06
6.30556e-05
-1.98413e-06
5.52947e-05
-1.92154e-06
4.84716e-05
-1.81807e-06
4.25038e-05
-1.67884e-06
3.72634e-05
-1.50945e-06
3.26162e-05
-1.31607e-06
2.84448e-05
-1.10429e-06
2.47218e-05
-8.78939e-07
2.13325e-05
-6.42191e-07
1.82867e-05
-3.90842e-07
1.55476e-05
-1.03101e-07
1.27507e-05
3.56974e-08
3.66996e-05
8.53589e-08
4.08393e-05
8.45168e-08
4.54486e-05
3.99425e-08
5.05817e-05
-4.59154e-08
5.62971e-05
-1.73743e-07
6.26653e-05
-3.445e-07
6.97661e-05
-5.55391e-07
7.64664e-05
-8.00454e-07
7.65698e-05
-1.07442e-06
7.67093e-05
-1.36574e-06
7.68961e-05
-1.65803e-06
7.71332e-05
-1.93167e-06
7.74339e-05
-2.16316e-06
7.78011e-05
-2.32823e-06
8.24922e-05
-2.37999e-06
7.23183e-05
-2.37444e-06
6.34459e-05
-2.31533e-06
5.56885e-05
-2.20774e-06
4.88613e-05
-2.05841e-06
4.28834e-05
-1.8742e-06
3.76281e-05
-1.66249e-06
3.29626e-05
-1.43006e-06
2.87706e-05
-1.18338e-06
2.50262e-05
-9.2483e-07
2.16152e-05
-6.55206e-07
1.85511e-05
-3.67113e-07
1.58116e-05
-8.02833e-08
1.28309e-05
3.27073e-08
3.2989e-05
7.79062e-08
3.6707e-05
7.4113e-08
4.08497e-05
2.78631e-08
4.54607e-05
-6.01427e-08
5.05959e-05
-1.91003e-07
5.63144e-05
-3.67152e-07
6.26879e-05
-5.88212e-07
6.97989e-05
-8.50793e-07
7.65167e-05
-1.14658e-06
7.6642e-05
-1.46805e-06
7.68116e-05
-1.79979e-06
7.70379e-05
-2.12265e-06
7.73241e-05
-2.41298e-06
7.76837e-05
-2.64578e-06
7.81186e-05
-2.79475e-06
8.29069e-05
-2.8092e-06
7.27531e-05
-2.75874e-06
6.38893e-05
-2.65001e-06
5.61308e-05
-2.49121e-06
4.92941e-05
-2.29126e-06
4.33004e-05
-2.05924e-06
3.80249e-05
-1.80329e-06
3.33359e-05
-1.5311e-06
2.91183e-05
-1.24749e-06
2.53489e-05
-9.53912e-07
2.19139e-05
-6.55441e-07
1.88394e-05
-3.44744e-07
1.60761e-05
-7.6216e-08
1.29072e-05
3.01867e-08
2.96505e-05
7.16819e-08
3.29952e-05
6.54452e-08
3.67157e-05
1.80254e-08
4.08595e-05
-7.12428e-08
4.54718e-05
-2.03825e-07
5.06087e-05
-3.83194e-07
5.63304e-05
-6.10823e-07
6.27106e-05
-8.86098e-07
6.98342e-05
-1.20377e-06
7.65739e-05
-1.55259e-06
7.67265e-05
-1.92119e-06
7.6933e-05
-2.29118e-06
7.72064e-05
-2.639e-06
7.75502e-05
-2.93916e-06
7.79771e-05
-3.16405e-06
7.84879e-05
-3.28608e-06
8.33838e-05
-3.25286e-06
7.32472e-05
-3.14811e-06
6.43874e-05
-2.9824e-06
5.6622e-05
-2.76661e-06
4.97694e-05
-2.51249e-06
4.37537e-05
-2.23017e-06
3.84517e-05
-1.92889e-06
3.37337e-05
-1.61545e-06
2.94863e-05
-1.29393e-06
2.56889e-05
-9.70782e-07
2.22292e-05
-6.5044e-07
1.91451e-05
-3.33681e-07
1.63335e-05
-8.16424e-08
1.29888e-05
2.80468e-08
2.66501e-05
6.6453e-08
2.96557e-05
5.82078e-08
3.30025e-05
9.9722e-09
3.67238e-05
-7.98831e-08
4.08682e-05
-2.13197e-07
4.54812e-05
-3.94136e-07
5.06197e-05
-6.25557e-07
5.63451e-05
-9.09009e-07
6.27335e-05
-1.24253e-06
6.9873e-05
-1.61853e-06
7.66398e-05
-2.02085e-06
7.68262e-05
-2.4352e-06
7.7077e-05
-2.83843e-06
7.74058e-05
-3.20481e-06
7.78158e-05
-3.50563e-06
7.83187e-05
-3.71127e-06
7.89131e-05
-3.79554e-06
8.39265e-05
-3.70375e-06
7.38029e-05
-3.536e-06
6.4941e-05
-3.30632e-06
5.71617e-05
-3.0291e-06
5.0286e-05
-2.71768e-06
4.42412e-05
-2.38359e-06
3.89064e-05
-2.03591e-06
3.41541e-05
-1.68089e-06
2.98732e-05
-1.32638e-06
2.60445e-05
-9.80991e-07
2.25598e-05
-6.47585e-07
1.9459e-05
-3.32586e-07
1.65845e-05
-1.10379e-07
1.30992e-05
2.62192e-08
2.39558e-05
6.20332e-08
2.66546e-05
5.21411e-08
2.96618e-05
3.35385e-09
3.30091e-05
-8.65963e-08
3.67305e-05
-2.19906e-07
4.08749e-05
-4.01184e-07
4.54882e-05
-6.34292e-07
5.06284e-05
-9.2243e-07
5.63586e-05
-1.26621e-06
6.27571e-05
-1.66195e-06
6.99164e-05
-2.09769e-06
7.67167e-05
-2.55301e-06
7.6944e-05
-3.00881e-06
7.72474e-05
-3.43948e-06
7.76405e-05
-3.81544e-06
7.81256e-05
-4.10534e-06
7.87127e-05
-4.28039e-06
7.9398e-05
-4.31514e-06
8.45379e-05
-4.15447e-06
7.44213e-05
-3.91525e-06
6.55499e-05
-3.61608e-06
5.77487e-05
-3.27357e-06
5.08419e-05
-2.90297e-06
4.47606e-05
-2.51629e-06
3.93868e-05
-2.12238e-06
3.45956e-05
-1.73011e-06
3.02769e-05
-1.34993e-06
2.64134e-05
-9.8956e-07
2.29017e-05
-6.48395e-07
1.97748e-05
-4.13781e-07
1.68879e-05
-1.19684e-07
1.32189e-05
2.46502e-08
2.15336e-05
5.82761e-08
2.39596e-05
4.70296e-08
2.66597e-05
-2.09406e-09
2.96673e-05
-9.18016e-08
3.30143e-05
-2.24575e-07
3.67351e-05
-4.0529e-07
4.0879e-05
-6.38526e-07
4.54925e-05
-9.28704e-07
5.06347e-05
-1.2784e-06
5.63708e-05
-1.68704e-06
6.27822e-05
-2.14722e-06
6.9966e-05
-2.64322e-06
7.68069e-05
-3.14806e-06
7.70832e-05
-3.64025e-06
7.74481e-05
-4.08974e-06
7.79148e-05
-4.46369e-06
7.8484e-05
-4.73095e-06
7.91633e-05
-4.86279e-06
7.99456e-05
-4.83651e-06
8.52199e-05
-4.59673e-06
7.51028e-05
-4.27928e-06
6.62131e-05
-3.90583e-06
5.83809e-05
-3.49564e-06
5.14346e-05
-3.06512e-06
4.53094e-05
-2.6264e-06
3.98908e-05
-2.19013e-06
3.50556e-05
-1.76745e-06
3.06945e-05
-1.36854e-06
2.67924e-05
-9.97036e-07
2.32504e-05
-8.03027e-07
2.01641e-05
-4.15835e-07
1.7184e-05
-1.29869e-07
1.33487e-05
2.32975e-08
1.93534e-05
5.50666e-08
2.15368e-05
4.27006e-08
2.39639e-05
-6.58387e-09
2.66642e-05
-9.58248e-08
2.96713e-05
-2.2769e-07
3.30174e-05
-4.07203e-07
3.6737e-05
-6.39435e-07
4.08799e-05
-9.29689e-07
4.54934e-05
-1.28201e-06
5.06383e-05
-1.69823e-06
5.6382e-05
-2.17458e-06
6.28096e-05
-2.70061e-06
7.00233e-05
-3.25446e-06
7.69133e-05
-3.80459e-06
7.72476e-05
-4.32507e-06
7.76835e-05
-4.782e-06
7.82331e-05
-5.14205e-06
7.88951e-05
-5.37332e-06
7.96738e-05
-5.44932e-06
8.05584e-05
-5.35026e-06
8.59735e-05
-5.02304e-06
7.58466e-05
-4.62137e-06
6.69287e-05
-4.1706e-06
5.90559e-05
-3.69183e-06
5.20613e-05
-3.20211e-06
4.58851e-05
-2.7149e-06
4.04156e-05
-2.24257e-06
3.55308e-05
-1.79601e-06
3.11219e-05
-1.38257e-06
2.71779e-05
-1.23806e-06
2.36854e-05
-7.98691e-07
2.05469e-05
-4.17792e-07
1.7472e-05
-1.37773e-07
1.34865e-05
1.73972e-05
2.21282e-08
5.23125e-08
1.93561e-05
3.90171e-08
2.15405e-05
-1.02922e-08
2.39676e-05
-9.89209e-08
2.66673e-05
-2.2963e-07
2.96732e-05
-4.07506e-07
3.30177e-05
-6.3794e-07
3.67356e-05
-9.26847e-07
4.08771e-05
-1.27935e-06
4.54908e-05
-1.69908e-06
5.06391e-05
-2.18514e-06
5.63925e-05
-2.73133e-06
6.28403e-05
-3.32175e-06
7.00906e-05
-3.93036e-06
7.70391e-05
-4.51841e-06
7.74409e-05
-5.05623e-06
7.79577e-05
-5.50874e-06
7.85998e-05
-5.84099e-06
7.93628e-05
-6.0227e-06
8.02472e-05
-6.02966e-06
8.12378e-05
-5.8479e-06
8.67983e-05
-5.4257e-06
7.66509e-05
-4.93579e-06
6.76939e-05
-4.4064e-06
5.97704e-05
-3.85979e-06
5.2719e-05
-3.31417e-06
4.64844e-05
-2.78427e-06
4.09573e-05
-2.28207e-06
3.60168e-05
-1.81625e-06
3.15556e-05
-1.71946e-06
2.76593e-05
-1.23055e-06
2.41173e-05
-7.91096e-07
2.09202e-05
-4.17149e-07
1.77513e-05
-1.42687e-07
1.36292e-05
1.73995e-05
4.99325e-08
2.78119e-05
2.02292e-08
3.58693e-08
1.93593e-05
-1.33635e-08
2.15435e-05
-1.0129e-07
2.397e-05
-2.30689e-07
2.66683e-05
-4.06651e-07
2.96724e-05
-6.34751e-07
3.30145e-05
-9.21312e-07
3.673e-05
-1.27221e-06
4.08699e-05
-1.69242e-06
4.54841e-05
-2.18325e-06
5.06372e-05
-2.74187e-06
5.6403e-05
-3.35725e-06
6.28758e-05
-4.01002e-06
7.01703e-05
-4.66712e-06
7.71878e-05
-5.28276e-06
7.76674e-05
-5.82632e-06
7.82753e-05
-6.26019e-06
7.9019e-05
-6.5503e-06
7.98904e-05
-6.66796e-06
8.08855e-05
-6.59447e-06
8.19844e-05
-6.3206e-06
8.76932e-05
-5.79805e-06
7.75132e-05
-5.21792e-06
6.85054e-05
-4.61037e-06
6.0521e-05
-3.99897e-06
5.34038e-05
-3.40288e-06
4.7103e-05
-2.83624e-06
4.15115e-05
-2.30913e-06
3.65097e-05
-2.25977e-06
3.20959e-05
-1.70991e-06
2.81387e-05
-1.21506e-06
2.45412e-05
-7.78938e-07
2.1282e-05
-4.12823e-07
1.80215e-05
-1.4489e-07
1.37741e-05
1.74022e-05
3.31726e-08
2.78158e-05
4.60581e-08
2.85518e-05
1.84229e-08
-1.59151e-08
1.93618e-05
-1.0309e-07
2.15453e-05
-2.31097e-07
2.39704e-05
-4.04984e-07
2.66667e-05
-6.30416e-07
2.9668e-05
-9.13958e-07
3.30072e-05
-1.262e-06
3.67198e-05
-1.68049e-06
4.0858e-05
-2.17237e-06
4.54733e-05
-2.73746e-06
5.06328e-05
-3.36865e-06
5.64144e-05
-4.05209e-06
6.29179e-05
-4.76203e-06
7.02652e-05
-5.45835e-06
7.73634e-05
-6.0905e-06
7.79316e-05
-6.62553e-06
7.86406e-05
-7.02586e-06
7.94945e-05
-7.25825e-06
8.04806e-05
-7.299e-06
8.159e-05
-7.13386e-06
8.27976e-05
-6.76063e-06
8.86558e-05
-6.13462e-06
7.84299e-05
-5.46414e-06
6.93591e-05
-4.78119e-06
6.13032e-05
-4.11015e-06
5.4111e-05
-3.4694e-06
4.77361e-05
-2.87136e-06
4.20737e-05
-2.87349e-06
3.71234e-05
-2.24752e-06
3.26335e-05
-1.68735e-06
2.8611e-05
-1.19166e-06
2.4954e-05
-7.6163e-07
2.16308e-05
-4.05011e-07
1.82816e-05
-1.44779e-07
1.39189e-05
1.74044e-05
-1.80436e-08
2.78195e-05
2.94544e-08
2.85555e-05
4.23222e-08
2.93117e-05
1.6709e-08
-1.04444e-07
1.93632e-05
-2.3103e-07
2.15453e-05
-4.02772e-07
2.39682e-05
-6.25349e-07
2.66616e-05
-9.05452e-07
2.96595e-05
-1.2498e-06
3.29949e-05
-1.66499e-06
3.67043e-05
-2.15521e-06
4.08408e-05
-2.72227e-06
4.54581e-05
-3.36218e-06
5.06264e-05
-4.06558e-06
5.64279e-05
-4.81288e-06
6.29687e-05
-5.57183e-06
7.03787e-05
-6.29737e-06
7.75702e-05
-6.93195e-06
7.8238e-05
-7.44323e-06
7.9058e-05
-7.79356e-06
8.00299e-05
-7.95403e-06
8.11357e-05
-7.90496e-06
8.23611e-05
-7.63909e-06
8.36761e-05
-7.16143e-06
8.96826e-05
-6.43087e-06
7.93966e-05
-5.67236e-06
7.02503e-05
-4.91889e-06
6.2112e-05
-4.19394e-06
5.48356e-05
-3.51429e-06
4.83791e-05
-3.57397e-06
4.27742e-05
-2.85798e-06
3.77339e-05
-2.21722e-06
3.31634e-05
-1.65297e-06
2.90723e-05
-1.16075e-06
2.53531e-05
-7.39698e-07
2.19655e-05
-3.94231e-07
1.8531e-05
-1.42835e-07
1.40617e-05
1.74054e-05
-1.05453e-07
2.78213e-05
-1.98939e-08
2.8559e-05
2.59763e-08
2.93153e-05
3.87399e-08
3.00896e-05
1.50887e-08
-2.30624e-07
1.93628e-05
-4.00214e-07
2.15427e-05
-6.19862e-07
2.39627e-05
-8.96294e-07
2.66524e-05
-1.23641e-06
2.96461e-05
-1.64724e-06
3.29772e-05
-2.13386e-06
3.6683e-05
-2.69958e-06
4.08181e-05
-3.34283e-06
4.54387e-05
-4.05784e-06
5.06186e-05
-4.83011e-06
5.64452e-05
-5.63416e-06
6.30311e-05
-6.43325e-06
7.05146e-05
-7.17477e-06
7.7813e-05
-7.79657e-06
7.85913e-05
-8.26699e-06
7.95314e-05
-8.55197e-06
8.06278e-05
-8.62597e-06
8.18567e-05
-8.47612e-06
8.31982e-05
-8.10258e-06
8.46173e-05
-7.51741e-06
9.07691e-05
-6.68381e-06
8.0408e-05
-5.84182e-06
7.11732e-05
-5.02355e-06
6.29416e-05
-4.25088e-06
5.55722e-05
-4.37586e-06
4.9181e-05
-3.55515e-06
4.34714e-05
-2.81902e-06
3.83357e-05
-2.17103e-06
3.36815e-05
-1.60812e-06
2.95197e-05
-1.12348e-06
2.57369e-05
-7.14014e-07
2.22853e-05
-3.81128e-07
1.87693e-05
-1.39494e-07
1.42012e-05
1.74047e-05
-2.29983e-07
2.78197e-05
-1.03843e-07
2.85606e-05
-2.14586e-08
2.93185e-05
2.27312e-08
3.0093e-05
3.53139e-08
3.08895e-05
1.35625e-08
-3.97462e-07
1.936e-05
-6.14186e-07
2.1537e-05
-8.86858e-07
2.39533e-05
-1.22244e-06
2.66385e-05
-1.62825e-06
2.96271e-05
-2.10994e-06
3.29533e-05
-2.67194e-06
3.66553e-05
-3.31451e-06
4.07898e-05
-4.03474e-06
4.54156e-05
-4.82227e-06
5.06108e-05
-5.65726e-06
5.64683e-05
-6.51027e-06
6.31081e-05
-7.33732e-06
7.06771e-05
-8.08031e-06
7.80968e-05
-8.67184e-06
7.89962e-05
-9.08514e-06
8.00646e-05
-9.28869e-06
8.12905e-05
-9.26341e-06
8.2644e-05
-9.00389e-06
8.40995e-05
-8.51765e-06
8.56175e-05
-7.82448e-06
9.19098e-05
-6.89187e-06
8.14581e-05
-5.97208e-06
7.21218e-05
-5.09561e-06
6.37863e-05
-5.29589e-06
5.64922e-05
-4.35413e-06
4.998e-05
-3.50684e-06
4.41592e-05
-2.7597e-06
3.89244e-05
-2.11112e-06
3.41845e-05
-1.55466e-06
2.99508e-05
-1.08122e-06
2.61041e-05
-6.85514e-07
2.25897e-05
-3.66286e-07
1.89961e-05
-1.35102e-07
1.43363e-05
1.74019e-05
-3.94626e-07
2.78131e-05
-2.23325e-07
2.85586e-05
-1.01827e-07
2.93198e-05
-2.27242e-08
3.00961e-05
1.97231e-08
3.08928e-05
3.20494e-08
3.17094e-05
1.21292e-08
-6.08494e-07
1.93543e-05
-8.77415e-07
2.15276e-05
-1.20835e-06
2.39392e-05
-1.60874e-06
2.6619e-05
-2.08464e-06
2.96019e-05
-2.64127e-06
3.29226e-05
-3.28027e-06
3.66211e-05
-4.00093e-06
4.0756e-05
-4.79621e-06
4.53896e-05
-5.65095e-06
5.06045e-05
-6.5419e-06
5.64999e-05
-7.43278e-06
6.32035e-05
-8.27421e-06
7.0871e-05
-9.0016e-06
7.84266e-05
-9.54595e-06
7.9457e-05
-9.88472e-06
8.06606e-05
-9.9923e-06
8.20194e-05
-9.85686e-06
8.34969e-05
-9.48058e-06
8.50624e-05
-8.87926e-06
8.66723e-05
-8.08022e-06
9.30982e-05
-7.05401e-06
8.254e-05
-6.06334e-06
7.30895e-05
-6.35294e-06
6.48434e-05
-5.27228e-06
5.74104e-05
-4.29606e-06
5.07692e-05
-3.43308e-06
4.48326e-05
-2.68308e-06
3.94963e-05
-2.04008e-06
3.46699e-05
-1.49456e-06
3.03642e-05
-1.03536e-06
2.64539e-05
-6.55019e-07
2.28784e-05
-3.50224e-07
1.92113e-05
-1.2995e-07
1.44662e-05
1.73963e-05
-6.02905e-07
2.77996e-05
-3.81124e-07
2.85514e-05
-2.16141e-07
2.93174e-05
-9.94254e-08
3.0097e-05
-2.36887e-08
3.08956e-05
1.69505e-08
3.17125e-05
2.89507e-08
3.25533e-05
1.07907e-08
-8.68162e-07
1.93451e-05
-1.19446e-06
2.15137e-05
-1.58927e-06
2.39197e-05
-2.05888e-06
2.65932e-05
-2.60905e-06
2.95696e-05
-3.24243e-06
3.28848e-05
-3.96003e-06
3.65802e-05
-4.75738e-06
4.07172e-05
-5.62314e-06
4.53617e-05
-6.53926e-06
5.06018e-05
-7.47613e-06
5.65433e-05
-8.39234e-06
6.33217e-05
-9.23184e-06
7.11013e-05
-9.92689e-06
7.88075e-05
-1.04056e-05
7.99779e-05
-1.06537e-05
8.1322e-05
-1.06524e-05
8.28149e-05
-1.03976e-05
8.4414e-05
-9.90017e-06
8.60833e-05
-9.18423e-06
8.77763e-05
-8.28291e-06
9.43271e-05
-7.1701e-06
8.36468e-05
-7.56665e-06
7.43032e-05
-6.32919e-06
6.59003e-05
-5.20436e-06
5.83187e-05
-4.20665e-06
5.15427e-05
-3.33787e-06
4.54873e-05
-2.59247e-06
4.00487e-05
-1.9605e-06
3.51358e-05
-1.42974e-06
3.07586e-05
-9.87063e-07
2.67859e-05
-6.23263e-07
2.31515e-05
-3.33392e-07
1.94147e-05
-1.24244e-07
1.45905e-05
1.73874e-05
-8.59235e-07
2.77772e-05
-5.80551e-07
2.85372e-05
-3.66901e-07
2.93096e-05
-2.08382e-07
3.00942e-05
-9.66044e-08
3.08962e-05
-2.43522e-08
3.17151e-05
1.4413e-08
3.25563e-05
2.60158e-08
3.34192e-05
9.54402e-09
-1.18099e-06
1.93316e-05
-1.57022e-06
2.14946e-05
-2.03331e-06
2.38941e-05
-2.57637e-06
2.65605e-05
-3.20278e-06
2.953e-05
-3.91481e-06
3.28395e-05
-4.71003e-06
3.65328e-05
-5.58015e-06
4.06742e-05
-6.5114e-06
4.53339e-05
-7.47987e-06
5.06056e-05
-8.45118e-06
5.66021e-05
-9.37732e-06
6.34671e-05
-1.01987e-05
7.13731e-05
-1.08427e-05
7.92446e-05
-1.12381e-05
8.05623e-05
-1.13807e-05
8.20504e-05
-1.12593e-05
8.36766e-05
-1.08786e-05
8.53924e-05
-1.02586e-05
8.71577e-05
-9.4301e-06
8.89235e-05
-8.43204e-06
9.5589e-05
-8.95901e-06
8.50391e-05
-7.54576e-06
7.55198e-05
-6.25182e-06
6.69477e-05
-5.0982e-06
5.92102e-05
-4.09089e-06
5.22958e-05
-3.22537e-06
4.61202e-05
-2.49116e-06
4.05793e-05
-1.87486e-06
3.5581e-05
-1.36183e-06
3.11333e-05
-9.37361e-07
2.71e-05
-5.90898e-07
2.3409e-05
-3.16112e-07
1.96066e-05
-1.18186e-07
1.47087e-05
1.73745e-05
-1.16811e-06
2.77437e-05
-8.25668e-07
2.85139e-05
-5.57303e-07
2.92948e-05
-3.52013e-07
3.00859e-05
-2.00132e-07
3.0893e-05
-9.3389e-08
3.17154e-05
-2.47113e-08
3.25586e-05
1.21103e-08
3.3422e-05
2.32493e-08
3.43052e-05
8.38792e-09
-1.55186e-06
1.93132e-05
-2.00839e-06
2.14697e-05
-2.54401e-06
2.38618e-05
-3.16261e-06
2.65203e-05
-3.86737e-06
2.94825e-05
-4.65744e-06
3.2787e-05
-5.52693e-06
3.64796e-05
-6.46557e-06
4.06284e-05
-7.45421e-06
4.53082e-05
-8.46458e-06
5.0619e-05
-9.45593e-06
5.66807e-05
-1.03766e-05
6.3645e-05
-1.11614e-05
7.16918e-05
-1.1736e-05
7.97425e-05
-1.20317e-05
8.12133e-05
-1.20554e-05
8.28465e-05
-1.1805e-05
8.4603e-05
-1.12949e-05
8.64287e-05
-1.05526e-05
8.82802e-05
-9.61582e-06
9.01073e-05
-1.05537e-05
9.71837e-05
-8.94627e-06
8.64396e-05
-7.46042e-06
7.67284e-05
-6.12812e-06
6.79777e-05
-4.95987e-06
6.00792e-05
-3.95392e-06
5.30243e-05
-3.09962e-06
4.67287e-05
-2.38223e-06
4.10867e-05
-1.78528e-06
3.60044e-05
-1.29222e-06
3.14882e-05
-8.87164e-07
2.73963e-05
-5.58374e-07
2.36512e-05
-2.98711e-07
1.97871e-05
-1.11949e-07
1.48206e-05
1.7357e-05
-1.53437e-06
2.76965e-05
-1.12091e-06
2.84792e-05
-7.90988e-07
2.92706e-05
-5.33124e-07
3.00703e-05
-3.36401e-07
3.08842e-05
-1.91341e-07
3.17118e-05
-8.97738e-08
3.25586e-05
-2.47736e-08
3.34241e-05
1.00357e-08
3.43078e-05
2.06495e-08
3.52191e-05
7.32144e-09
-1.98446e-06
1.92893e-05
-2.51255e-06
2.14383e-05
-3.12289e-06
2.3822e-05
-3.8193e-06
2.64723e-05
-4.6021e-06
2.94272e-05
-5.46733e-06
3.27274e-05
-6.40749e-06
3.64215e-05
-7.40739e-06
4.05815e-05
-8.44393e-06
4.52876e-05
-9.48281e-06
5.06458e-05
-1.04797e-05
5.67838e-05
-1.13769e-05
6.38606e-05
-1.21068e-05
7.20626e-05
-1.25947e-05
8.03055e-05
-1.27751e-05
8.1933e-05
-1.26687e-05
8.37102e-05
-1.22836e-05
8.55917e-05
-1.16423e-05
8.75184e-05
-1.07805e-05
8.94449e-05
-1.20576e-05
9.16112e-05
-1.05582e-05
9.87956e-05
-8.85674e-06
8.7836e-05
-7.31932e-06
7.79196e-05
-5.96535e-06
6.89831e-05
-4.79562e-06
6.09209e-05
-3.80066e-06
5.37254e-05
-2.96443e-06
4.73109e-05
-2.26838e-06
4.15698e-05
-1.69362e-06
3.64058e-05
-1.22216e-06
3.18232e-05
-8.37108e-07
2.7675e-05
-5.26157e-07
2.38787e-05
-2.8145e-07
1.99566e-05
-1.05653e-07
1.49263e-05
1.73343e-05
-1.96171e-06
2.76326e-05
-1.4705e-06
2.84307e-05
-1.07235e-06
2.92349e-05
-7.55271e-07
3.00453e-05
-5.08083e-07
3.0868e-05
-3.20134e-07
3.17025e-05
-1.82047e-07
3.25546e-05
-8.57747e-08
3.34239e-05
-2.4537e-08
3.43096e-05
8.18594e-09
3.52215e-05
1.82128e-08
3.6155e-05
6.34146e-09
-2.48238e-06
1.92591e-05
-3.08428e-06
2.13997e-05
-3.77172e-06
2.37745e-05
-4.54589e-06
2.64161e-05
-5.40427e-06
2.93642e-05
-6.3416e-06
3.26615e-05
-7.34592e-06
3.63601e-05
-8.39848e-06
4.05361e-05
-9.47057e-06
4.52753e-05
-1.05245e-05
5.06906e-05
-1.15096e-05
5.69165e-05
-1.23654e-05
6.41192e-05
-1.30225e-05
7.24903e-05
-1.34066e-05
8.0937e-05
-1.34584e-05
8.27226e-05
-1.32139e-05
8.46406e-05
-1.26901e-05
8.66394e-05
-1.19186e-05
8.86565e-05
-1.35465e-05
9.09337e-05
-1.20872e-05
9.31402e-05
-1.04711e-05
0.00010041
-8.70025e-06
8.92169e-05
-7.13111e-06
7.90854e-05
-5.77106e-06
6.99586e-05
-4.61143e-06
6.17316e-05
-3.63575e-06
5.43967e-05
-2.82311e-06
4.78656e-05
-2.15192e-06
4.20281e-05
-1.60149e-06
3.67851e-05
-1.15252e-06
3.21386e-05
-7.87829e-07
2.79367e-05
-4.94602e-07
2.40918e-05
-2.64504e-07
2.01154e-05
-9.94046e-08
1.50257e-05
1.73056e-05
-2.45374e-06
2.75489e-05
-1.87798e-06
2.8365e-05
-1.40483e-06
2.91847e-05
-1.02222e-06
3.00084e-05
-7.18333e-07
3.0842e-05
-4.82171e-07
3.16856e-05
-3.0324e-07
3.25449e-05
-1.72265e-07
3.34195e-05
-8.13994e-08
3.43091e-05
-2.4006e-08
3.52231e-05
6.55256e-09
3.61573e-05
1.59357e-08
3.65889e-05
5.45623e-09
-3.04727e-06
1.92221e-05
-3.72547e-06
2.13534e-05
-4.49017e-06
2.37187e-05
-5.33996e-06
2.63518e-05
-6.27133e-06
2.92939e-05
-7.27493e-06
3.25905e-05
-8.33563e-06
3.62972e-05
-9.42946e-06
4.0495e-05
-1.05245e-05
4.52754e-05
-1.1577e-05
5.0758e-05
-1.25331e-05
5.70842e-05
-1.33294e-05
6.44261e-05
-1.38959e-05
7.29796e-05
-1.41613e-05
8.164e-05
-1.40739e-05
8.35826e-05
-1.36849e-05
8.56355e-05
-1.30213e-05
8.77421e-05
-1.50121e-05
9.01221e-05
-1.36113e-05
9.24578e-05
-1.20114e-05
9.46804e-05
-1.03038e-05
0.000102014
-8.48675e-06
9.05725e-05
-6.90468e-06
8.0219e-05
-5.55246e-06
7.08996e-05
-4.41289e-06
6.25088e-05
-3.46319e-06
5.50368e-05
-2.67852e-06
4.83922e-05
-2.03491e-06
4.24615e-05
-1.51001e-06
3.71426e-05
-1.08414e-06
3.24349e-05
-7.39807e-07
2.81819e-05
-4.63934e-07
2.42912e-05
-2.48027e-07
2.02641e-05
-9.32894e-08
1.5119e-05
1.72705e-05
-3.01215e-06
2.74418e-05
-2.34671e-06
2.82795e-05
-1.79246e-06
2.91175e-05
-1.33763e-06
2.9957e-05
-9.70844e-07
3.08042e-05
-6.80449e-07
3.16589e-05
-4.55449e-07
3.25273e-05
-2.85698e-07
3.34092e-05
-1.62017e-07
3.43043e-05
-7.66664e-08
3.52223e-05
-2.31786e-08
3.61587e-05
5.12996e-09
3.6591e-05
1.38421e-08
3.55528e-05
4.68615e-09
-3.6811e-06
1.91777e-05
-4.43591e-06
2.12991e-05
-5.27602e-06
2.36548e-05
-6.19927e-06
2.62797e-05
-7.19838e-06
2.92173e-05
-8.2612e-06
3.2516e-05
-9.36779e-06
3.62355e-05
-1.04913e-05
4.04617e-05
-1.15939e-05
4.52923e-05
-1.26282e-05
5.08531e-05
-1.35374e-05
5.72921e-05
-1.42563e-05
6.47864e-05
-1.4716e-05
7.35343e-05
-1.48502e-05
8.24163e-05
-1.46148e-05
8.45124e-05
-1.40779e-05
8.66921e-05
-1.64444e-05
8.91744e-05
-1.51237e-05
9.16346e-05
-1.3557e-05
9.40035e-05
-1.18424e-05
9.6219e-05
-1.00676e-05
0.000103594
-8.22667e-06
9.18945e-05
-6.64845e-06
8.1315e-05
-5.31626e-06
7.1803e-05
-4.20487e-06
6.32505e-05
-3.28652e-06
5.56448e-05
-2.53321e-06
4.88905e-05
-1.91875e-06
4.28703e-05
-1.42027e-06
3.74788e-05
-1.01765e-06
3.27128e-05
-6.93333e-07
2.84113e-05
-4.34357e-07
2.44776e-05
-2.32147e-07
2.04029e-05
-8.73654e-08
1.52063e-05
1.72284e-05
-3.63898e-06
2.73087e-05
-2.879e-06
2.81704e-05
-2.23769e-06
2.90298e-05
-1.70477e-06
2.98882e-05
-1.26885e-06
3.07515e-05
-9.18177e-07
3.162e-05
-6.41554e-07
3.24999e-05
-4.28036e-07
3.33912e-05
-2.6763e-07
3.42937e-05
-1.51361e-07
3.52172e-05
-7.16026e-08
3.61576e-05
-2.20796e-08
3.65922e-05
3.92385e-09
3.55546e-05
1.19929e-08
3.45447e-05
4.01439e-09
-4.38381e-06
1.91256e-05
-5.21362e-06
2.12367e-05