/*--------------------------------*- C++ -*----------------------------------*\
  =========                 |
  \\      /  F ield         | OpenFOAM: The Open Source CFD Toolbox
   \\    /   O peration     | Website:  https://openfoam.org
    \\  /    A nd           | Version:  8
     \\/     M anipulation  |
\*---------------------------------------------------------------------------*/
FoamFile
{
    version     2.0;
    format      ascii;
    class       volScalarField;
    location    "0.16";
    object      p;
}
// * * * * * * * * * * * * * * * * * * * * * * * * * * * * * * * * * * * * * //

dimensions      [0 2 -2 0 0 0 0];

internalField   nonuniform List<scalar> 
15677
(
74.0347
73.6781
73.2654
73.7427
73.2536
73.2672
73.7177
73.2808
73.2766
73.1608
73.6923
73.2821
73.2769
73.1699
73.0694
73.6705
73.2844
73.2768
73.1691
73.077
72.9733
73.6471
73.2867
73.2764
73.1702
73.0769
72.9799
72.8588
73.6219
73.2893
73.2756
73.1705
73.0779
72.9799
72.8646
72.7221
73.5958
73.2923
73.2741
73.1706
73.0784
72.9808
72.8647
72.7271
72.5559
73.5685
73.2944
73.2722
73.1704
73.0789
72.9814
72.8657
72.7274
72.5602
72.3526
73.5399
73.2959
73.2695
73.17
73.0792
72.9821
72.8664
72.7284
72.5606
72.3562
72.1045
73.5104
73.2975
73.2663
73.1698
73.0796
72.9827
72.8672
72.7293
72.5618
72.3568
72.1074
71.8033
73.4804
73.2986
73.2629
73.1699
73.0802
72.9836
72.8683
72.7304
72.5629
72.3582
72.1081
71.8054
71.4406
73.4507
73.2987
73.2594
73.1703
73.0812
72.9848
72.8697
72.7319
72.5644
72.3596
72.1097
71.8063
71.4419
71.0081
73.424
73.2974
73.2559
73.1711
73.0829
72.9868
72.8718
72.7341
72.5665
72.3617
72.1116
71.8083
71.443
71.0084
70.4975
73.4012
73.2953
73.2524
73.1725
73.0855
72.9899
72.875
72.7372
72.5695
72.3645
72.1143
71.8107
71.4453
71.0097
70.4968
69.9014
73.3812
73.2933
73.2495
73.1745
73.0894
72.9944
72.8799
72.7419
72.574
72.3686
72.1181
71.8142
71.4484
71.0124
70.4984
69.8995
69.213
73.3638
73.2912
73.2473
73.1771
73.0949
73.001
72.8869
72.7489
72.5806
72.3748
72.1237
71.8192
71.4528
71.0162
70.5015
69.9014
69.2098
68.4266
73.3487
73.2893
73.2457
73.18
73.1015
73.01
72.8969
72.7591
72.5904
72.3838
72.1319
71.8264
71.4593
71.0219
70.5062
69.9049
69.2119
68.422
67.5378
73.3356
73.2874
73.2447
73.1834
73.1089
73.021
72.9106
72.7733
72.6045
72.3971
72.1439
71.8372
71.4686
71.03
70.5132
69.9107
69.216
68.4244
67.5316
66.5438
73.3244
73.2858
73.2442
73.1873
73.1169
73.033
72.9272
72.7929
72.6242
72.4161
72.1616
71.853
71.4824
71.0418
70.5233
69.9192
69.2228
68.429
67.5343
66.5358
65.4434
73.3155
73.2842
73.2442
73.1915
73.1256
73.0462
72.9453
72.8167
72.6512
72.4428
72.1868
71.8759
71.5026
71.0592
70.5379
69.9314
69.233
68.4369
67.5395
66.5389
65.4336
64.2374
73.3087
73.2827
73.2447
73.1962
73.1349
73.0603
72.9651
72.8425
72.6841
72.4793
72.222
71.9086
71.532
71.0846
70.5594
69.9493
69.2476
68.4488
67.5486
66.5445
65.437
64.2256
62.9289
73.3034
73.2813
73.2455
73.2011
73.1447
73.0754
72.9864
72.8708
72.7199
72.5236
72.2703
71.9544
71.5738
71.1215
70.5909
69.9754
69.2689
68.466
67.5622
66.5548
65.4431
64.2293
62.915
61.5224
73.2993
73.2802
73.2465
73.2062
73.1549
73.0912
73.0089
72.9012
72.759
72.572
72.3291
72.0172
71.6322
71.174
70.6364
70.0136
69.3001
68.491
67.582
66.5702
65.4544
64.2357
62.9188
61.5062
60.0301
73.296
73.2792
73.2476
73.2109
73.1649
73.1075
73.0325
72.9334
72.8012
72.625
72.3932
72.0936
71.7123
71.2473
70.7011
70.0688
69.3457
68.5276
67.6108
66.5925
65.4714
64.2479
62.9253
61.51
60.0112
58.4825
73.2934
73.2785
73.2487
73.2152
73.1741
73.1236
73.0569
72.9671
72.8458
72.6821
72.4635
72.1771
71.8101
71.348
70.7918
70.1475
69.4117
68.5811
67.6529
66.625
65.4961
64.2663
62.9382
61.5162
60.0124
58.4269
56.8188
73.2913
73.2778
73.2499
73.2191
73.1825
73.1383
73.0808
73.0019
72.8925
72.7425
72.5392
72.2688
71.917
71.471
70.9163
70.2578
69.5059
68.6587
67.7147
66.6728
65.5322
64.2932
62.9575
61.5292
60.0171
58.4296
56.7517
55.0245
73.2896
73.2773
73.2509
73.2227
73.19
73.1516
73.1028
73.0361
72.9408
72.8058
72.6196
72.3676
72.0345
71.6057
71.0687
70.4095
69.6379
68.7695
67.8044
66.7429
65.5853
64.3323
62.9858
61.5488
60.0285
58.4305
56.7543
54.9942
53.1726
73.2881
73.2769
73.2518
73.226
73.1967
73.1636
73.1225
73.0674
72.9882
72.8714
72.7038
72.4725
72.1613
71.754
71.2359
70.5953
69.8198
68.9252
67.933
66.8451
65.6636
64.3903
63.0274
61.5778
60.0467
58.439
56.7487
54.9865
53.1611
51.2689
73.287
73.2766
73.2525
73.229
73.2027
73.1743
73.1403
73.0956
73.0316
72.9357
72.7911
72.5826
72.2962
71.9142
71.4201
70.7997
70.0433
69.1403
68.114
66.9919
65.7781
64.4762
63.0893
61.6205
60.0745
58.4545
56.7565
54.9771
53.1442
51.2633
49.1223
73.286
73.2763
73.2532
73.2318
73.2081
73.1838
73.1562
73.121
73.0708
72.9947
72.8767
72.6968
72.4378
72.0849
71.6196
71.0254
70.2895
69.4053
68.3647
67.1993
65.9433
64.6024
63.1817
61.6851
60.1168
58.4797
56.7703
54.9864
53.1356
51.2447
49.1201
46.7039
73.2852
73.2761
73.2538
73.2343
73.2128
73.1922
73.1703
73.1436
73.106
73.048
72.9554
72.809
72.5849
72.2644
71.8324
71.2702
70.5621
69.6979
68.6743
67.4873
66.1773
64.7854
63.3186
61.7827
60.1822
58.5199
56.7938
54.9998
53.1454
51.2382
49.1023
46.7036
44.2579
73.2845
73.2759
73.2544
73.2364
73.217
73.1997
73.1828
73.1637
73.1375
73.0958
73.0264
72.9121
72.7296
72.4511
72.0566
71.5318
70.8583
70.0225
69.0172
67.8442
66.5036
65.0458
63.5182
61.9286
60.283
58.5846
56.8325
55.023
53.1589
51.2465
49.0957
46.6869
44.2594
41.8269
73.2839
73.2757
73.255
73.2383
73.2208
73.2064
73.1939
73.1816
73.1654
73.1385
73.0903
73.0054
72.8627
72.6349
72.2903
71.8081
71.1757
70.3762
69.3986
68.2406
66.9095
65.4105
63.8039
62.1431
60.4358
58.6868
56.8962
55.0609
53.1821
51.2599
49.1007
46.6799
44.2448
41.8286
39.4312
73.2756
73.2832
73.2555
73.24
73.2241
73.2123
73.2038
73.1975
73.1903
73.1766
73.1474
73.0892
72.9833
72.8044
72.5207
72.0965
71.5115
70.756
69.8154
68.683
67.3619
65.8661
64.2061
62.4523
60.6629
58.8445
56.999
55.124
53.2191
51.2824
49.1128
46.6816
44.2376
41.815
39.4327
37.0834
73.256
73.2755
73.2824
73.2415
73.227
73.2175
73.2125
73.2116
73.2124
73.2104
73.1982
73.1642
73.0917
72.9581
72.7335
72.3815
71.8629
71.1589
70.2642
69.1678
67.8684
66.3758
64.7108
62.8899
60.993
59.0817
57.1601
55.2268
53.2809
51.3176
49.1326
46.6909
44.2363
41.8068
39.4199
37.0842
34.7958
73.2428
73.2567
73.2754
73.2817
73.2296
73.2222
73.2203
73.224
73.2319
73.2404
73.2434
73.2311
73.1889
73.0965
72.9267
72.6453
72.2111
71.5817
70.7416
69.6915
68.4253
66.9485
65.278
63.4422
61.4633
59.4296
57.4052
55.3899
53.3826
51.3767
49.164
46.7061
44.2423
41.802
39.4101
37.072
34.7956
32.5793
73.2318
73.2446
73.2576
73.2753
73.281
73.2263
73.2271
73.2351
73.2492
73.2671
73.2836
73.2906
73.2755
73.2205
73.101
72.8852
72.5339
72.0017
71.2441
70.2503
69.029
67.5804
65.9176
64.0656
62.0603
59.929
57.7677
55.6404
53.5456
51.4753
49.2181
46.7311
44.2518
41.8032
39.4014
37.0603
34.7838
32.578
30.4424
73.2298
73.2349
73.2466
73.2585
73.2752
73.2804
73.2332
73.2449
73.2646
73.2907
73.3192
73.3434
73.3527
73.3313
73.2573
73.1019
72.8282
72.3922
71.7448
70.8404
69.6753
68.2679
66.6262
64.7716
62.7373
60.5667
58.2917
56.014
53.7984
51.6356
49.3107
46.7768
44.269
41.8057
39.3969
37.0474
34.7698
32.5665
30.4401
28.3911
73.2383
73.2345
73.2383
73.2487
73.2594
73.2752
73.2798
73.2535
73.2782
73.3116
73.3508
73.3903
73.4212
73.4299
73.3971
73.2966
73.0944
72.7489
72.2117
71.4305
70.3603
69.0068
67.4001
65.5568
63.5074
61.2935
58.9652
56.5578
54.1786
51.887
49.4645
46.8591
44.3038
41.8131
39.391
37.0366
34.7527
32.5501
30.4286
28.3879
26.4298
73.2608
73.2453
73.2395
73.2417
73.2507
73.2603
73.2751
73.2792
73.2903
73.3302
73.3787
73.4319
73.4821
73.5177
73.5218
73.4709
73.3341
73.0724
72.6392
71.9824
71.0478
69.793
68.2351
66.4178
64.3675
62.1239
59.7365
57.2609
54.7363
52.2691
49.7101
47.0011
44.3723
41.8346
39.387
37.0215
34.735
32.5285
30.4096
28.3764
26.4256
24.5609
73.3004
73.2706
73.2522
73.2445
73.245
73.2526
73.2612
73.2751
73.2787
73.3466
73.4036
73.4688
73.5361
73.5957
73.6328
73.6265
73.5489
73.364
73.0278
72.4893
71.6931
70.5852
69.1272
67.3509
65.3148
63.0553
60.6215
58.0699
55.4616
52.8341
50.0887
47.2343
44.4978
41.8862
39.3929
37.0046
34.71
32.5038
30.3836
28.3547
26.414
24.5558
22.7857
73.3603
73.3139
73.2799
73.2592
73.2495
73.2483
73.2546
73.2622
73.275
73.2782
73.4257
73.5016
73.5841
73.6649
73.7315
73.7652
73.741
73.626
73.3791
72.9512
72.2877
71.3316
70.0302
68.3523
66.3459
64.0858
61.6189
59.0025
56.3005
53.5732
50.6537
47.6009
44.7125
41.9912
39.4248
36.9933
34.6793
32.4683
30.3515
28.3243
26.3896
24.5441
22.7798
21.1039
73.444
73.3785
73.326
73.2893
73.2661
73.2542
73.2515
73.2564
73.263
73.275
73.2778
73.5306
73.6267
73.7264
73.8191
73.8886
73.9124
73.8606
73.6951
73.3697
72.8311
72.0217
70.8844
69.3705
67.4577
65.213
62.7278
60.0588
57.2723
54.4327
51.3987
48.1545
45.0584
42.1819
39.5059
37.0034
34.6496
32.4231
30.3054
28.2848
26.3549
24.517
22.7678
21.0973
19.5145
73.5547
73.4682
73.3942
73.3385
73.2986
73.2727
73.2589
73.2545
73.2582
73.2639
73.275
73.2774
73.6645
73.7812
73.897
73.9983
74.0651
74.0701
73.9786
73.7471
73.3247
72.6544
71.6772
70.3379
68.5938
66.4341
63.9465
61.2389
58.3786
55.4339
52.2706
48.8918
45.5883
42.4986
39.6674
37.0577
34.6363
32.374
30.2452
28.2278
26.308
24.4781
22.7381
21.0851
19.5073
18.0156
73.6957
73.5866
73.4882
73.4104
73.3507
73.3075
73.2791
73.2633
73.2575
73.2599
73.2648
73.2749
73.277
73.8296
73.9664
74.0959
74.2009
74.257
74.2322
74.0863
73.771
73.2309
72.4066
71.2394
69.6781
67.6884
65.2737
62.5424
59.6206
56.5793
53.2925
49.762
46.3024
42.9936
39.9479
37.1856
34.6615
32.3363
30.1763
28.1524
26.2401
24.4238
22.6951
21.0529
19.4948
18.0078
16.6047
73.8695
73.7371
73.6118
73.5091
73.4262
73.3623
73.3159
73.2851
73.2676
73.2603
73.2615
73.2656
73.2749
73.2767
74.0279
74.183
74.3219
74.4235
74.4588
74.3903
74.1729
73.7534
73.0732
72.0718
70.6928
68.8914
66.6441
63.9694
60.9997
57.8721
54.4683
50.7891
47.1536
43.6706
40.3977
37.4234
34.752
32.3307
30.1136
28.0636
26.1496
24.3453
22.6337
21.0059
19.4601
17.995
16.5963
15.2785
74.0782
73.9228
73.7686
73.6384
73.5293
73.4412
73.3733
73.3239
73.2909
73.2716
73.2629
73.2631
73.2663
73.2749
73.2764
74.26
74.4298
74.5719
74.6608
74.6623
74.5338
74.2251
73.6791
72.8352
71.6335
70.0222
67.9651
65.4512
62.518
59.3155
55.8032
51.9789
48.1657
44.4861
41.0243
37.8191
34.942
32.3811
30.0757
27.9757
26.0411
24.2399
22.5447
20.9375
19.4095
17.958
16.5833
15.2696
14.0339
74.3227
74.1461
73.962
73.8022
73.664
73.5483
73.4552
73.3836
73.3315
73.2963
73.2753
73.2654
73.2645
73.2671
73.2749
73.2762
74.5254
74.7045
74.8411
74.9052
74.8573
74.6496
74.2276
73.5311
72.4992
71.0747
69.2125
66.8871
64.1038
60.9135
57.3028
53.3388
49.3463
45.4632
41.7882
38.3833
35.2761
32.519
30.0841
27.9048
25.9279
24.1121
22.4247
20.8384
19.3343
17.9039
16.544
15.2564
14.0246
12.8673
74.6028
74.4086
74.1947
74.004
73.8343
73.6879
73.5661
73.4684
73.3933
73.3385
73.3014
73.2788
73.2677
73.2658
73.2677
73.2749
73.276
74.8218
75.0024
75.1222
75.1466
75.0308
74.7224
74.1628
73.291
72.0469
70.3787
68.2496
65.649
62.5925
58.9736
54.8775
50.7056
46.6115
42.7108
39.0802
35.7669
32.7854
30.167
27.8699
25.8239
23.9739
22.2782
20.7044
19.2255
17.8223
16.4866
15.215
14.0111
12.8575
11.7751
74.9164
74.7105
74.4684
74.2469
74.0442
73.8642
73.7101
73.5825
73.4805
73.4022
73.3449
73.306
73.282
73.2697
73.2669
73.2682
73.2749
73.2759
75.1449
75.3167
75.4055
75.3724
75.1676
74.7342
74.0118
72.9392
71.4599
69.529
67.1223
64.2374
60.7411
56.6052
52.2552
47.9428
43.8025
39.9289
36.3828
33.1931
30.3606
27.8958
25.745
23.8368
22.1156
20.5398
19.078
17.7041
16.3988
15.1546
13.9678
12.8438
11.7647
10.7531
75.2594
75.0505
74.7838
74.5332
74.2968
74.0813
73.8918
73.7305
73.5975
73.4915
73.4102
73.3508
73.3101
73.2849
73.2715
73.2678
73.2687
73.2749
73.2757
75.4884
75.6381
75.6786
75.5673
75.2495
74.6656
73.7539
72.4558
70.7199
68.5118
65.8139
62.4849
58.4481
54.0075
49.4694
45.0746
40.9384
37.1384
33.7152
30.6772
28.0129
25.713
23.7141
21.946
20.3534
18.8961
17.5438
16.2718
15.0609
13.9044
12.7986
11.7507
10.7416
9.8018
75.6254
75.4253
75.1403
74.8639
74.5948
74.3426
74.1153
73.9169
73.749
73.6111
73.5014
73.4174
73.3559
73.3137
73.2872
73.2729
73.2686
73.2691
73.2749
73.2756
75.8428
75.9542
75.9263
75.713
75.2565
74.4949
73.368
71.8206
69.8103
67.3077
64.1668
60.279
55.8876
51.2032
46.5385
42.1184
38.0408
34.3605
31.0946
28.2322
25.7507
23.6236
21.7799
20.1522
18.6867
17.3454
16.0995
14.9256
13.8052
12.7327
11.7038
10.7277
9.78463
9.00818
76.0054
75.8295
75.5351
75.239
74.9399
74.6512
74.3844
74.1461
73.9395
73.7654
73.623
73.5101
73.4236
73.3603
73.3166
73.2892
73.2742
73.2693
73.2694
73.2749
73.2755
76.1963
76.25
76.1303
75.7893
75.1664
74.2001
72.8321
71.0148
68.71
65.7688
62.0523
57.7612
53.0699
48.2059
43.48
39.0982
35.1339
31.6152
28.5364
25.8684
23.5806
21.6313
19.9436
18.4548
17.114
15.8853
14.7418
13.6621
12.6283
11.6357
10.6794
9.77143
9.00208
8.33937
76.3872
76.255
75.9636
75.6565
75.3323
75.0091
74.7023
74.4219
74.1734
73.9593
73.7797
73.6333
73.5174
73.4287
73.3637
73.319
73.2909
73.2752
73.2699
73.2697
73.2749
73.2755
76.5338
76.5074
76.27
75.7731
74.956
73.7573
72.1254
70.0157
67.2776
63.7438
59.5789
54.9384
50.014
45.0412
40.3257
36.0447
32.2431
28.9219
26.0539
23.5945
21.5073
19.7377
18.2051
16.8525
15.6329
14.5128
13.4675
12.4779
11.5263
10.6094
9.7218
8.9952
8.34645
7.64423
76.7555
76.6911
76.4186
76.1127
75.771
75.4171
75.0715
74.748
74.455
74.1972
73.9762
73.7917
73.6417
73.5231
73.4326
73.3665
73.3209
73.2922
73.276
73.2704
73.27
73.2749
73.2754
76.8368
76.7056
76.322
75.6405
74.6
73.1443
71.2233
68.6848
65.3376
61.3185
56.767
51.8481
46.7613
41.7526
37.1146
32.9898
29.3929
26.2979
23.6583
21.417
19.5334
17.9432
16.5632
15.3432
14.2404
13.2246
12.2733
11.3691
10.4955
9.65039
8.94489
8.34088
7.64466
6.89229
77.0918
77.1238
76.8903
76.6014
76.2529
75.8747
75.4933
75.127
74.7878
74.4833
74.2171
73.9901
73.8013
73.6481
73.5274
73.4355
73.3685
73.3223
73.2932
73.2767
73.2708
73.2702
73.2749
73.2754
77.0845
76.8207
76.2616
75.3649
74.0748
72.3337
69.987
66.8261
62.9689
58.5422
53.679
48.5469
43.3639
38.3859
33.8846
29.9633
26.6049
23.7579
21.3588
19.3403
17.6605
16.2471
15.0159
13.9238
12.9332
12.0172
11.1551
10.3321
9.53222
8.87313
8.29175
7.63379
6.88521
6.06819
77.3742
77.536
77.366
77.114
76.7728
76.3797
75.9677
75.5607
75.1751
74.8217
74.5068
74.2331
74.0007
73.8081
73.6525
73.5303
73.4375
73.3699
73.3233
73.2939
73.2772
73.2711
73.2704
73.2749
73.2753
77.2524
76.8274
76.061
74.9211
73.3493
71.1848
68.2077
64.5256
60.2553
55.4955
50.3757
45.0858
39.8669
34.9808
30.669
26.991
23.8976
21.3137
19.1615
17.3671
15.8884
14.6477
13.5604
12.5912
11.7078
10.8867
10.1092
9.36304
8.75133
8.21892
7.58469
6.86979
6.05814
5.1705
77.5773
77.9078
77.8297
77.6391
77.3235
76.9279
76.4933
76.0497
75.6188
75.2155
74.8492
74.5251
74.2448
74.008
73.8124
73.6551
73.532
73.4386
73.3707
73.324
73.2944
73.2775
73.2713
73.2705
73.2749
73.2753
77.3139
76.6972
75.6934
74.2742
72.2807
69.4845
65.9871
61.8978
57.2826
52.2311
46.8972
41.5019
36.3069
31.5715
27.4968
24.0947
21.2857
18.9738
17.0708
15.4984
14.2162
13.1424
12.1935
11.3418
10.5604
9.82919
9.13183
8.57753
8.09436
7.50974
6.81915
6.04139
5.15923
4.19627
77.673
78.2156
78.2625
78.1623
77.8947
77.513
77.0667
76.5931
76.1201
75.6673
75.248
74.8702
74.5381
74.2522
74.0119
73.8145
73.6562
73.5326
73.4391
73.3711
73.3243
73.2947
73.2777
73.2715
73.2706
73.2749
73.2753
77.2396
76.4013
75.1206
73.2798
70.6594
67.3529
63.4616
59.0224
54.0887
48.775
43.2694
37.8244
32.7157
28.1881
24.3924
21.2921
18.7802
16.7443
15.0888
13.7337
12.6416
11.7282
10.9118
10.1718
9.48711
8.84095
8.33949
7.91651
7.38214
6.74102
5.98901
5.14206
4.1841
3.1391
77.6294
78.434
78.6418
78.6662
78.4735
78.1261
77.6826
77.1885
76.6786
76.1784
75.7057
75.2722
74.8844
74.5454
74.2555
74.0131
73.8146
73.6559
73.5323
73.4389
73.371
73.3243
73.2947
73.278
73.2717
73.2706
73.2749
73.2753
76.9977
75.899
74.1971
71.7372
68.6221
64.9389
60.6974
55.921
50.6864
45.1417
39.5131
34.0807
29.1224
24.8569
21.3762
18.5969
16.3891
14.6286
13.2159
12.0714
11.162
10.4019
9.71137
9.07731
8.48404
8.03979
7.67285
7.19974
6.60986
5.90739
5.08805
4.16602
3.12635
1.9919
77.4097
78.5348
78.9424
79.13
79.0441
78.7558
78.3334
77.8315
77.2926
76.7491
76.2242
75.7338
75.2878
74.8916
74.5477
74.2552
74.0117
73.813
73.6544
73.5311
73.4381
73.3705
73.324
73.295
73.2784
73.2718
73.2706
73.2749
73.2754
76.5444
75.0428
72.735
69.7963
66.3227
62.2929
57.7025
52.5963
47.0811
41.3444
35.6502
30.2978
25.5547
21.6006
18.4642
16.0189
14.1173
12.628
11.4509
10.5089
9.77414
9.15959
8.58828
8.05438
7.6708
7.36564
6.95003
6.42236
5.77222
5.00312
4.11037
3.10712
1.97891
0.747566
76.9641
78.4871
79.136
79.5299
79.5874
79.3876
79.0091
78.5157
77.9588
77.3784
76.8042
76.2572
75.7512
75.2947
74.8925
74.5455
74.2518
74.0081
73.8098
73.6519
73.5292
73.4367
73.3695
73.3242
73.2956
73.2785
73.2718
73.2706
73.2749
73.2754
75.7284
73.6621
70.8925
67.6103
63.7961
59.4119
54.4723
49.0469
43.279
37.399
31.7049
26.504
22.0384
18.4391
15.6692
13.5649
11.9671
10.7421
9.79172
9.04323
8.47415
7.99725
7.53864
7.22503
6.98648
6.63465
6.16599
5.57904
4.86365
4.02222
3.0498
1.95889
0.734439
-0.60152
78.2484
76.1409
79.1894
79.8395
80.0813
80.0045
79.6968
79.2323
78.6717
78.0637
77.4453
76.8435
76.277
75.7578
75.2937
74.8878
74.5394
74.2457
74.0027
73.8054
73.6485
73.5265
73.4347
73.3696
73.3251
73.2959
73.2785
73.2717
73.2705
73.2749
73.2755
74.3992
71.918
68.8183
65.2007
61.0315
56.2874
51.001
45.2733
39.2898
33.3251
27.7042
22.7276
18.5974
15.3885
13.0005
11.2387
9.93883
8.96884
8.23531
7.67047
7.25797
6.91097
6.68764
6.52717
6.24449
5.84173
5.31539
4.66423
3.8781
2.95828
1.89967
0.713866
-0.614802
-2.0634
79.0643
77.6756
74.7959
80.0265
80.5012
80.5857
80.3811
79.97
79.4239
78.8007
78.1456
77.4928
76.8665
76.2834
75.7547
75.286
74.8784
74.53
74.2373
73.9957
73.7998
73.6439
73.5231
73.4344
73.3708
73.3255
73.2959
73.2784
73.2715
73.2703
73.2749
73.2755
72.722
69.9527
66.524
62.5512
58.0181
52.9105
47.2847
41.2793
35.1278
29.1472
23.6781
18.997
15.2532
12.4621
10.464
9.04161
8.03103
7.30555
6.77781
6.38645
6.12158
6.03038
5.9716
5.77054
5.43963
4.98144
4.39266
3.67193
2.80911
1.8045
0.652558
-0.636006
-2.07682
-3.64638
80.0546
78.6392
76.6565
73.1195
80.8166
81.1088
81.0431
80.7152
80.2056
79.5829
78.9015
78.2037
77.5203
76.8732
76.2781
75.7434
75.2725
74.8649
74.5178
74.2269
73.9872
73.7928
73.6385
73.5224
73.4362
73.3714
73.3255
73.2956
73.278
73.2713
73.2702
73.2749
73.2756
70.8328
67.7716
63.9888
59.65
54.7459
49.2747
43.3225
37.0731
30.812
24.8938
19.6579
15.3392
12.0244
9.66965
8.06315
6.97315
6.24114
5.74823
5.41493
5.18698
5.20066
5.28955
5.19531
4.94984
4.5664
4.04816
3.39176
2.59565
1.64981
0.553553
-0.699364
-2.09873
-3.65988
-5.359
80.9951
79.8179
77.7723
75.318
71.2438
81.545
81.662
81.4507
81.0047
80.402
79.708
78.9738
78.2376
77.528
76.8656
76.2627
75.725
75.254
74.8479
74.5032
74.2149
73.977
73.7846
73.637
73.5248
73.437
73.3714
73.3251
73.295
73.2777
73.271
73.27
73.2749
73.2757
68.7325
65.3498
61.2012
56.4872
51.2074
45.3761
39.1166
32.6669
26.3669
20.5971
15.6758
11.7794
8.92633
7.01765
5.79896
5.03128
4.56523
4.29243
4.14225
4.21536
4.4261
4.48643
4.35333
4.05947
3.6191
3.03579
2.30617
1.4285
0.392915
-0.802336
-2.16411
-3.68253
-5.37248
-7.20994
81.866
80.9503
79.1778
76.5887
73.7688
69.1657
82.2113
82.1576
81.8059
81.2475
80.5579
79.7987
79.0166
78.2475
77.5182
76.8457
76.2387
75.7006
75.2314
74.8281
74.4865
74.2006
73.9653
73.7822
73.6403
73.5259
73.437
73.3708
73.3242
73.2947
73.2775
73.2707
73.2697
73.2749
73.2759
66.3912
62.677
58.1522
53.0558
47.3972
41.212
34.6716
28.0778
21.8216
16.2919
11.7632
8.33947
5.97044
4.50997
3.67063
3.21237
2.99876
2.93347
3.11184
3.39842
3.58648
3.6155
3.43998
3.09366
2.5916
1.93777
1.12897
0.16317
-0.969356
-2.27124
-3.74992
-5.39584
-7.22333
-9.20767
82.6668
82.0067
80.5423
78.2273
75.2002
72.0199
66.8489
82.8114
82.5921
82.106
81.4422
80.6724
79.8538
79.0303
78.2361
77.4936
76.8154
76.2074
75.6712
75.2053
74.8059
74.4672
74.1844
73.9616
73.7866
73.6417
73.5259
73.4362
73.3696
73.324
73.2947
73.2772
73.2703
73.2694
73.2749
73.276
63.7999
59.7461
54.8365
49.3502
43.3093
36.7801
29.9953
23.3277
17.2103
12.0149
7.94975
5.03776
3.16508
2.14805
1.67537
1.51197
1.53681
1.83364
2.24581
2.513
2.67624
2.67099
2.4494
2.0462
1.47724
0.747115
-0.147209
-1.20811
-2.44508
-3.86145
-5.46526
-7.24735
-9.22049
-11.3643
83.392
82.9873
81.8242
79.8314
77.0727
73.6404
70.0352
64.2837
83.341
82.9623
82.3492
81.5875
80.7444
79.8739
79.0185
78.2069
77.4565
76.7764
76.1701
75.6377
75.1763
74.7804
74.4455
74.1791
73.9674
73.7884
73.6417
73.5248
73.4344
73.3695
73.3243
73.2944
73.2766
73.2698
73.2691
73.2749
73.2762
60.9537
56.5542
51.2496
45.3636
38.9371
32.0784
25.0986
18.4452
12.5715
7.80287
4.26174
1.8888
0.515366
-0.0693269
-0.190817
-0.074918
0.353929
0.909674
1.30748
1.55346
1.68947
1.64692
1.37531
0.910406
0.269049
-0.543541
-1.53013
-2.69344
-4.04257
-5.58143
-7.31861
-9.24462
-11.3731
-14.0849
84.0356
83.8855
83.026
81.348
78.9136
75.7689
71.8719
67.8067
61.4663
83.796
83.2655
82.5338
81.682
80.7742
79.863
78.9849
78.1626
77.4089
76.7302
76.1279
75.6007
75.1433
74.7519
74.438
74.1864
73.9697
73.7884
73.6403
73.5223
73.4347
73.3705
73.3243
73.2939
73.276
73.2693
73.2686
73.2749
73.2764
57.8521
53.0995
47.3856
41.087
34.2699
27.1046
19.9985
13.4652
7.94685
3.69082
0.721939
-1.09678
-1.97706
-2.14505
-1.93277
-1.35881
-0.639435
-0.0910417
0.291081
0.513805
0.620097
0.536932
0.21095
-0.320759
-1.04039
-1.94199
-3.02791
-4.30113
-5.7703
-7.4396
-9.31783
-11.3972
-14.0987
-17.3306
84.5926
84.6929
84.1416
82.7811
80.6625
77.8615
74.2798
69.8822
65.3361
58.3971
84.1731
83.4998
82.6581
81.7258
80.7666
79.8261
78.9332
78.1056
77.3526
76.6781
76.0817
75.559
75.1068
74.7419
74.4474
74.1894
73.9697
73.7866
73.637
73.5231
73.4367
73.371
73.3239
73.2931
73.2751
73.2686
73.2682
73.2749
73.2767
54.4956
49.3786
43.236
36.5044
29.2938
21.8609
14.72
8.42942
3.37929
-0.28854
-2.65124
-3.91283
-4.31304
-4.08337
-3.34224
-2.43662
-1.71483
-1.17448
-0.809514
-0.612204
-0.538354
-0.665766
-1.05072
-1.6547
-2.45885
-3.45632
-4.64886
-6.03967
-7.63661
-9.44394
-11.4704
-14.1293
-17.3485
-20.6448
85.0589
85.4013
85.1616
84.1252
82.3235
79.8559
76.6418
72.589
67.6727
62.6306
55.0786
84.4696
83.6627
82.7216
81.7248
80.7277
79.7673
78.8665
78.0383
77.2894
76.6212
76.0298
75.5129
75.0937
74.7536
74.451
74.1894
73.9674
73.7822
73.6385
73.5266
73.4381
73.3711
73.3233
73.2921
73.2741
73.2678
73.2676
73.2749
73.277
50.8838
45.3855
38.7844
31.5958
23.9993
16.3604
9.29981
3.38564
-1.08776
-4.10642
-5.84484
-6.55668
-6.49557
-5.65199
-4.52504
-3.60291
-2.87858
-2.34697
-2.00068
-1.83112
-1.79272
-1.96823
-2.41707
-3.09914
-3.99437
-5.09477
-6.40145
-7.9174
-9.64962
-11.6014
-14.2085
-17.3817
-20.6576
-23.9631
85.4315
86.0037
86.0761
85.3697
83.8918
81.7564
78.9005
75.2333
70.6981
65.2527
59.7008
51.5119
84.6821
83.7532
82.7314
81.686
80.6625
79.6904
78.7872
77.9628
77.2206
76.5576
75.9726
75.496
75.1083
74.7581
74.451
74.1864
73.9616
73.7846
73.644
73.5293
73.4388
73.3707
73.3222
73.2908
73.2729
73.2668
73.267
73.2749
73.2773
47.0136
41.109
34.0074
26.3355
18.3753
10.6245
3.7857
-1.61305
-5.41276
-7.73992
-8.8505
-9.0289
-8.2621
-6.96796
-5.80435
-4.86444
-4.13723
-3.61502
-3.28905
-3.14981
-3.15003
-3.37778
-3.89578
-4.66202
-5.65509
-6.86572
-8.29397
-9.94252
-11.8161
-14.3498
-17.4688
-20.6868
-23.974
-27.2684
85.7058
86.4943
86.8752
86.5036
85.3567
83.5569
81.0608
77.7684
73.6364
68.6176
62.6381
56.5578
47.6966
84.8088
83.7793
82.6957
81.6156
80.5756
79.5986
78.6982
77.8806
77.1438
76.4877
75.9513
75.514
75.1138
74.7581
74.4473
74.179
73.9654
73.7929
73.6485
73.5311
73.439
73.3698
73.3208
73.2891
73.2714
73.2657
73.2663
73.2749
73.2777
42.8775
36.5223
28.8623
20.6824
12.4079
4.68024
-1.76581
-6.5112
-9.55917
-11.1718
-11.6645
-11.0304
-9.74325
-8.3906
-7.18743
-6.22803
-5.49747
-4.98539
-4.68153
-4.57528
-4.61753
-4.90194
-5.49459
-6.35132
-7.44922
-8.7773
-10.3345
-12.1216
-14.5774
-17.6222
-20.7731
-24.0036
-27.2783
-30.5494
85.879
86.8667
87.5494
87.5157
86.7072
85.2462
83.1157
80.2003
76.4568
71.8613
66.3659
59.8479
53.2127
43.6316
84.8584
83.751
82.6223
81.5192
80.4708
79.4951
78.6014
77.789
77.0593
76.4614
75.9732
75.5206
75.1138
74.7536
74.4379
74.1845
73.9772
73.7999
73.652
73.5322
73.4386
73.3684
73.3189
73.2871
73.2697
73.2645
73.2655
73.2749
73.2782
38.455
31.5834
23.2926
14.5919
6.09541
-1.42888
-7.28994
-11.2546
-13.4962
-14.3909
-13.9436
-12.7076
-11.3434
-9.92768
-8.68134
-7.70047
-6.96608
-6.46495
-6.18503
-6.1146
-6.20254
-6.54826
-7.22123
-8.17495
-9.38461
-10.8374
-12.5296
-14.8996
-17.8662
-20.9312
-24.0909
-27.3093
-30.5583
-33.7858
85.9606
87.1154
88.0863
88.3946
87.9317
86.8127
85.0526
82.5225
79.167
74.9751
69.9272
63.9659
56.9017
49.6794
39.308
84.8428
83.6773
82.5175
81.4015
80.3521
79.3824
78.4935
77.6884
77.0274
76.4879
75.9812
75.5206
75.1082
74.7418
74.4455
74.2008
73.9875
73.8055
73.6545
73.5325
73.4374
73.3663
73.3165
73.2848
73.2676
73.263
73.2647
73.275
73.2786
33.716
26.2396
17.233
8.0265
-0.543084
-7.63797
-12.7163
-15.7919
-17.2004
-16.9999
-15.852
-14.5181
-13.0706
-11.5863
-10.2929
-9.28856
-8.54993
-8.06053
-7.80646
-7.77485
-7.91231
-8.32412
-9.08327
-10.1404
-11.4688
-13.0522
-15.3274
-18.2081
-21.1857
-24.2546
-27.3986
-30.59
-33.7936
-36.9555
85.9647
87.2517
88.4726
89.1238
89.0177
88.2439
86.8583
84.723
81.7622
77.9678
73.3423
67.8589
61.4422
53.8189
45.9662
34.7056
84.7728
83.566
82.3872
81.267
80.2224
79.2568
78.3749
77.6499
77.0591
76.4973
75.9812
75.514
75.0936
74.752
74.4675
74.2152
73.9959
73.8099
73.6559
73.5319
73.4354
73.3636
73.3136
73.282
73.2653
73.2615
73.2639
73.275
73.2792
28.6148
20.4105
10.5989
0.962254
-7.46548
-13.8639
-17.9717
-20.0784
-20.206
-19.1829
-17.91
-16.4701
-14.9319
-13.3732
-12.0287
-10.999
-10.2556
-9.77874
-9.55256
-9.56283
-9.75374
-10.2366
-11.0877
-12.2547
-13.7073
-15.8733
-18.6577
-21.5417
-24.5186
-27.569
-30.6805
-33.8256
-36.9621
-40.0369
85.9037
87.2927
88.7162
89.6825
89.945
89.5275
88.5178
86.7881
84.2321
80.8375
76.62
71.5836
65.6835
58.8193
50.6202
42.0753
29.7946
84.6578
83.4242
82.2369
81.1195
80.0777
79.1184
78.3293
77.6877
77.0702
76.4973
75.9732
75.4959
75.1069
74.7808
74.4869
74.2273
74.0029
73.813
73.6561
73.5301
73.4325
73.3601
73.31
73.2788
73.2628
73.2598
73.263
73.275
73.2797
23.0799
13.9733
3.29192
-6.61015
-14.5984
-20.0063
-22.9812
-23.561
-22.7177
-21.5339
-20.1252
-18.5697
-16.9331
-15.2943
-13.8949
-12.8378
-12.0892
-11.6259
-11.4296
-11.4848
-11.7333
-12.292
-13.2408
-14.5228
-16.5559
-19.2277
-22.0072
-24.8856
-27.8426
-30.8567
-33.9168
-36.9942
-40.0421
-43.0086
85.789
87.254
88.8362
90.074
90.6852
90.6416
90.016
88.7018
86.5647
83.5768
79.7627
75.1482
69.7274
63.4287
56.1224
47.3286
38.0105
24.5345
84.5061
83.2583
82.0709
80.9545
79.9179
79.0649
78.3738
77.7007
77.0702
76.4879
75.9512
75.5131
75.1439
74.8065
74.5036
74.2376
74.0082
73.8146
73.655
73.5272
73.4285
73.3559
73.3059
73.2752
73.2601
73.2581
73.2621
73.2751
73.2803
17.0001
6.74218
-4.80475
-14.6577
-21.8397
-25.9304
-27.073
-26.4664
-25.4164
-24.0592
-22.5021
-20.8213
-19.079
-17.3548
-15.8969
-14.8105
-14.0564
-13.6075
-13.4431
-13.5465
-13.8563
-14.4957
-15.5467
-17.4055
-19.9374
-22.594
-25.362
-28.2186
-31.1376
-34.0975
-37.0854
-40.074
-43.0124
-45.8496
85.6303
87.1494
88.8515
90.3162
91.2382
91.5528
91.3267
90.446
88.7445
86.177
82.7672
78.5609
73.5807
67.8031
61.1224
53.3794
43.9671
33.7741
18.8678
84.3255
83.0737
81.8846
80.7718
79.8557
79.1172
78.3889
77.7006
77.0591
76.4613
75.9728
75.5597
75.1771
74.8288
74.5182
74.2459
74.0117
73.8144
73.6523
73.523
73.4235
73.3507
73.3012
73.2714
73.2573
73.2563
73.2612
73.2751
73.281
10.1869
-1.59669
-13.7301
-23.1417
-28.9488
-30.7964
-30.4868
-29.5813
-28.3039
-26.7595
-25.0424
-23.2273
-21.3729
-19.5584
-18.0386
-16.9214
-16.1617
-15.7281
-15.5977
-15.7521
-16.1273
-16.851
-18.4725
-20.8198
-23.3224
-25.959
-28.7018
-31.5188
-34.3826
-37.2689
-40.1645
-43.0437
-45.852
-48.5399
85.4369
86.991
88.7797
90.4269
91.6218
92.2586
92.4093
91.9887
90.7534
88.625
85.6292
81.8235
77.2598
71.947
65.8401
58.794
50.618
40.5575
29.3792
12.7301
84.1225
82.8656
81.6776
80.7002
79.9168
79.1346
78.3889
77.6876
77.0272
76.488
76.0307
75.6017
75.2061
74.8485
74.5303
74.2519
74.013
73.8123
73.6479
73.5172
73.4173
73.3448
73.2961
73.2674
73.2544
73.2544
73.2603
73.2752
73.2817
2.29231
-11.3853
-23.6403
-31.6296
-34.8512
-34.8495
-34.1331
-32.9065
-31.3751
-29.6308
-27.7444
-25.7875
-23.8156
-21.907
-20.3227
-19.1735
-18.408
-17.9909
-17.8964
-18.1047
-18.5479
-19.833
-21.9283
-24.2277
-26.6982
-29.3034
-32.0038
-34.7647
-37.5551
-40.3488
-43.1326
-45.8822
-48.5411
-51.0607
85.2164
86.7899
88.637
90.424
91.8539
92.7779
93.2593
93.2778
92.5549
90.9046
88.3398
84.9374
80.772
75.8886
70.2767
63.8677
56.47
47.8681
37.1361
24.8856
6.04572
83.8921
82.6333
81.5959
80.7711
79.9367
79.1346
78.3738
77.6497
77.0597
76.5588
76.083
75.6388
75.2322
74.8654
74.5396
74.2552
74.0118
73.8079
73.6415
73.5099
73.41
73.3382
73.2907
73.2631
73.2513
73.2525
73.2593
73.2753
73.2824
-7.25808
-23.8046
-33.7174
-38.9599
-39.7099
-39.137
-37.9943
-36.4281
-34.6199
-32.6641
-30.6025
-28.4984
-26.405
-24.3998
-22.7495
-21.5676
-20.7968
-20.3972
-20.3405
-20.6043
-21.6042
-23.3428
-25.3656
-27.6169
-30.0462
-32.6039
-35.2459
-37.9337
-40.6326
-43.3153
-45.9686
-48.5695
-51.0605
-53.3949
84.9642
86.5549
88.4379
90.3251
91.9523
93.1294
93.8991
94.301
94.0854
92.9776
90.8866
87.8991
84.1256
79.6415
74.4765
68.5988
61.9115
54.1792
45.175
33.7512
20.4054
-1.26014
83.6335
82.5409
81.6777
80.7938
79.9367
79.1172
78.329
77.6888
77.1452
76.6228
76.1293
75.6723
75.2547
74.8787
74.5455
74.2554
74.0078
73.8011
73.6331
73.5012
73.4018
73.3312
73.2849
73.2586
73.2481
73.2506
73.2584
73.2753
73.2832
-20.9471
-37.3978
-43.7331
-45.1053
-44.8077
-43.6077
-42.0226
-40.1173
-38.0233
-35.8449
-33.606
-31.3522
-29.1359
-27.0334
-25.3167
-24.1023
-23.3268
-22.946
-22.928
-23.7495
-25.1853
-26.8192
-28.7729
-30.9697
-33.3432
-35.8382
-38.406
-41.0034
-43.5929
-46.1471