/*--------------------------------*- C++ -*----------------------------------*\
  =========                 |
  \\      /  F ield         | OpenFOAM: The Open Source CFD Toolbox
   \\    /   O peration     | Website:  https://openfoam.org
    \\  /    A nd           | Version:  8
     \\/     M anipulation  |
\*---------------------------------------------------------------------------*/
FoamFile
{
    version     2.0;
    format      ascii;
    class       volScalarField;
    location    "0.42";
    object      p;
}
// * * * * * * * * * * * * * * * * * * * * * * * * * * * * * * * * * * * * * //

dimensions      [0 2 -2 0 0 0 0];

internalField   nonuniform List<scalar> 
15677
(
77.8512
77.4453
77.1076
77.5995
77.1063
77.0385
77.5193
77.1253
77.0481
76.9667
77.4998
77.1254
77.0486
76.9754
76.8615
77.4817
77.1286
77.049
76.9747
76.8691
76.7504
77.4588
77.1315
77.0492
76.9752
76.8691
76.7571
76.6254
77.4341
77.1333
77.049
76.9754
76.8698
76.7572
76.6313
76.4759
77.4085
77.1344
77.0484
76.9752
76.8705
76.758
76.6314
76.4811
76.2956
77.3817
77.1353
77.0474
76.9746
76.871
76.7587
76.6322
76.4814
76.3001
76.078
77.3539
77.1361
77.0461
76.9738
76.8715
76.7595
76.6331
76.4823
76.3005
76.0817
75.8157
77.3254
77.1364
77.0448
76.973
76.8722
76.7603
76.634
76.4833
76.3016
76.0823
75.8187
75.501
77.2961
77.1359
77.0436
76.9725
76.8731
76.7614
76.6352
76.4846
76.3029
76.0836
75.8195
75.5033
75.1262
77.266
77.1345
77.0427
76.9722
76.8744
76.7629
76.6367
76.4862
76.3045
76.0852
75.8211
75.5042
75.1277
74.6836
77.2387
77.1326
77.0425
76.9725
76.8765
76.7653
76.6391
76.4885
76.3067
76.0874
75.8231
75.5061
75.1287
74.6841
74.166
77.2154
77.1305
77.043
76.9733
76.8796
76.7688
76.6425
76.4919
76.3099
76.0903
75.8258
75.5086
75.131
74.6855
74.1656
73.5667
77.1956
77.1284
77.0445
76.9751
76.8841
76.774
76.6477
76.4969
76.3146
76.0946
75.8297
75.5122
75.1341
74.6881
74.1671
73.5652
72.8799
77.1794
77.1261
77.0465
76.9779
76.8902
76.7814
76.6552
76.5042
76.3216
76.101
75.8354
75.5172
75.1386
74.692
74.1701
73.5669
72.8772
72.1011
77.1661
77.1234
77.0489
76.9814
76.8976
76.7915
76.6658
76.5148
76.3317
76.1103
75.8438
75.5246
75.1451
74.6976
74.1748
73.5704
72.8791
72.097
71.227
77.1552
77.1206
77.0515
76.9857
76.9058
76.8038
76.6803
76.5297
76.3462
76.1239
75.8561
75.5355
75.1545
74.7057
74.1817
73.576
72.8832
72.0992
71.2215
70.256
77.1465
77.1179
77.0543
76.9907
76.9148
76.8172
76.698
76.55
76.3665
76.1433
75.8739
75.5514
75.1683
74.7175
74.1917
73.5843
72.8898
72.1038
71.2239
70.249
69.1883
77.1397
77.1156
77.0573
76.9965
76.9246
76.8319
76.7173
76.5748
76.3942
76.1703
75.8993
75.5744
75.1885
74.7347
74.2062
73.5964
72.8996
72.1114
71.2291
70.2516
69.1795
68.0257
77.1348
77.1139
77.0605
77.0029
76.9352
76.8477
76.7385
76.6017
76.428
76.2074
75.9348
75.6071
75.2176
74.7599
74.2273
73.6138
72.9139
72.1229
71.2377
70.2572
69.1823
68.0152
66.7725
77.1313
77.1128
77.0638
77.0098
76.9465
76.8645
76.7614
76.6313
76.4648
76.2524
75.9833
75.6527
75.2591
74.7962
74.2582
73.6394
72.9346
72.1394
71.2507
70.2668
69.1883
68.018
66.7601
65.435
77.1287
77.1121
77.0669
77.0169
76.9583
76.8822
76.7857
76.6632
76.5051
76.3016
76.0424
75.7153
75.3169
74.8478
74.3027
73.6766
72.9648
72.1635
71.2697
70.2814
69.1989
68.0244
66.763
65.4206
64.026
77.1268
77.1118
77.0698
77.0236
76.9701
76.9005
76.8112
76.6971
76.5486
76.3556
76.1069
75.7914
75.3962
74.92
74.366
73.7303
73.0089
72.1988
71.2972
70.3027
69.2149
68.0357
66.7695
65.4232
64.008
62.5741
77.1254
77.1117
77.0725
77.0299
76.9811
76.9187
76.8378
76.7326
76.5948
76.4137
76.1778
75.8747
75.4928
75.0189
74.4546
73.8067
73.0726
72.2502
71.3375
70.3335
69.2382
68.0528
66.7811
65.4294
64.0081
62.5156
61.0248
77.1244
77.1118
77.075
77.0356
76.9912
76.9354
76.8639
76.7696
76.6433
76.4755
76.2542
75.9663
75.5988
75.1397
74.5761
73.9137
73.1635
72.3246
71.3964
70.3788
69.2721
68.0778
66.799
65.4408
64.0127
62.5215
60.9572
59.3635
77.1237
77.112
77.0774
77.0408
77.0004
76.9506
76.888
76.806
76.6937
76.5405
76.3355
76.0652
75.7153
75.2723
74.7249
74.0608
73.2908
72.4308
71.4818
70.4451
69.3219
68.1143
66.8251
65.4586
64.0224
62.5231
60.9627
59.3388
57.6584
77.1232
77.1123
77.0794
77.0455
77.0086
76.9644
76.9099
76.8395
76.7433
76.6079
76.4209
76.1704
75.8412
75.4183
74.8884
74.2413
73.4662
72.58
71.6041
70.5416
69.3954
68.1682
66.8633
65.4848
64.0385
62.5294
60.9568
59.3283
57.6503
55.9241
77.1228
77.1127
77.0813
77.0499
77.0161
76.9767
76.9296
76.8699
76.7889
76.6742
76.5097
76.2811
75.9755
75.5764
75.0688
74.44
73.6819
72.7861
71.7764
70.6803
69.5027
68.248
66.9202
65.5235
64.063
62.5426
60.9609
59.3186
57.634
55.9198
53.9775
77.1226
77.113
77.083
77.0538
77.0228
76.9878
76.9473
76.8973
76.8303
76.7353
76.597
76.3962
76.1167
75.7452
75.2645
74.6597
73.92
73.0403
72.0151
70.8762
69.6574
68.3652
67.0051
65.582
64.1007
62.5645
60.9725
59.3236
57.625
55.9014
53.9763
51.8042
77.1225
77.1134
77.0846
77.0574
77.0288
76.9977
76.9632
76.9219
76.8676
76.7906
76.6775
76.5095
76.2638
75.923
75.4736
74.8985
74.1839
73.3215
72.3103
71.1486
69.8769
68.535
67.1308
65.6705
64.159
62.5996
60.9922
59.3347
57.6308
55.8935
53.9592
51.8049
49.6378
77.1224
77.1137
77.086
77.0605
77.0341
77.0066
76.9773
76.9439
76.901
76.8405
76.7504
76.614
76.4088
76.1084
75.6945
75.1543
74.4713
73.6341
72.638
71.4867
70.1832
68.7772
67.3143
65.8029
64.249
62.6562
61.0249
59.3531
57.6419
55.8987
53.9515
51.7893
49.6397
47.503
77.1223
77.1141
77.0874
77.0633
77.0389
77.0145
76.9899
76.9635
76.9309
76.8852
76.8162
76.7088
76.5427
76.2915
75.9251
75.4249
74.7799
73.9755
73.0032
71.8632
70.565
69.1168
67.5775
65.9979
64.3858
62.746
61.0794
59.384
57.6596
55.9091
53.954
51.7814
49.6257
47.5049
45.4192
77.1144
77.1224
77.0886
77.0657
77.0432
77.0215
77.0012
76.9809
76.9575
76.9252
76.8751
76.7942
76.6642
76.4607
76.1532
75.7081
75.1072
74.3429
73.4033
72.2843
70.9919
69.5421
67.9487
66.2797
64.5898
62.8851
61.1678
59.4363
57.6889
55.9257
53.9624
51.7812
49.6172
47.4918
45.4207
43.3988
77.0897
77.1149
77.1224
77.0679
77.047
77.0278
77.0112
76.9965
76.9813
76.9609
76.9279
76.8709
76.7738
76.6145
76.3644
75.9887
75.4506
74.7338
73.8353
72.7472
71.471
70.0196
68.416
66.6797
64.8871
63.0951
61.3074
59.5228
57.7387
55.9527
53.9762
51.7864
49.614
47.4824
45.4082
43.3999
41.451
77.0699
77.0912
77.1156
77.1226
77.0504
77.0334
77.0201
77.0103
77.0024
76.9926
76.9749
76.9395
76.8722
76.7534
76.5567
76.2492
75.7918
75.1451
74.2963
73.2487
71.9996
70.5577
68.9431
67.1863
65.3122
63.4045
61.5209
59.6611
57.822
55.9989
53.9991
51.7957
49.6154
47.4759
45.3973
43.3877
41.4515
39.5829
77.0534
77.0725
77.0932
77.1163
77.1228
77.0383
77.028
77.0226
77.0211
77.0208
77.0167
77.0006
76.9603
76.8781
76.7305
76.4866
76.1091
75.5549
74.7829
73.7857
72.5746
71.1539
69.5398
67.7606
65.8542
63.8502
61.8383
59.8753
57.9572
56.0773
54.0393
51.8117
49.619
47.4727
45.3873
43.3752
41.4393
39.5827
37.7998
77.0427
77.0573
77.0757
77.0952
77.1171
77.1231
77.035
77.0336
77.0379
77.0459
77.0539
77.0551
77.0388
76.9898
76.8868
76.7016
76.399
75.9371
75.2695
74.3547
73.1927
71.805
70.2037
68.4139
66.4719
64.4226
62.2996
60.1968
58.1689
56.2068
54.11
51.8426
49.6267
47.4694
45.3787
43.3613
41.425
39.5703
37.7989
36.1052
77.0412
77.0484
77.0621
77.079
77.0972
77.1179
77.1235
77.0433
77.0527
77.0683
77.087
77.1035
77.1088
77.0896
77.0269
76.8953
76.6621
76.2872
75.7246
74.9257
73.8502
72.5079
70.9321
69.1441
67.1782
65.0785
62.8962
60.6678
58.4898
56.4123
54.2299
51.9012
49.6461
47.4674
45.3677
43.347
41.4072
39.5541
37.7863
36.1036
34.5005
77.0517
77.0491
77.055
77.0668
77.0822
77.0993
77.1187
77.124
77.0659
77.0881
77.1165
77.1466
77.1711
77.1785
77.1521
77.0691
76.8994
76.6055
76.1427
75.4618
74.5129
73.259
71.722
69.9491
67.9714
65.8324
63.5838
61.2815
58.9642
56.7277
54.4243
52.006
49.6895
47.4735
45.3549
43.3276
41.3868
39.5323
37.768
36.0906
34.4983
32.986
77.0773
77.0625
77.058
77.0616
77.0715
77.0855
77.1014
77.1195
77.1245
77.1057
77.1427
77.1849
77.2265
77.2577
77.2638
77.2246
77.1127
76.8932
76.5238
75.9558
75.1374
74.0194
72.5702
70.8264
68.8503
66.6835
64.3783
61.9929
59.5867
57.1983
54.7278
52.1821
49.7748
47.499
45.3459
43.3029
41.3586
39.5058
37.7424
36.0704
34.485
32.9832
31.5605
77.1209
77.0917
77.0742
77.0668
77.0682
77.0762
77.0887
77.1035
77.1205
77.1251
77.1658
77.2191
77.2758
77.3281
77.3634
77.3634
77.3038
77.1523
76.8691
76.4074
75.715
74.7392
73.4332
71.7733
69.8133
67.6316
65.2802
62.8195
60.3129
57.8208
55.1862
52.4642
49.9269
47.5613
45.3515
43.2777
41.3215
39.4685
37.7097
36.0409
34.4627
32.9694
31.5571
30.222
77.1858
77.1399
77.1068
77.0857
77.0756
77.0746
77.0809
77.092
77.1056
77.1215
77.1258
77.2492
77.3197
77.3908
77.4519
77.4872
77.4746
77.3847
77.1807
76.8177
76.2447
75.4075
74.2539
72.742
70.8584
68.6763
66.2907
63.7633
61.1616
58.5515
55.7984
52.8975
50.1795
47.6845
45.3879
43.2617
41.2792
39.4187
37.6633
36.0021
34.4295
32.9452
31.543
30.2181
28.9679
77.2751
77.2106
77.1592
77.1216
77.0971
77.0842
77.081
77.0855
77.0952
77.1077
77.1226
77.1266
77.3586
77.4467
77.5308
77.5975
77.627
77.5928
77.4607
77.1887
76.7274
76.0225
75.0191
73.6678
71.9337
69.8167
67.4106
64.827
62.1366
59.4111
56.5228
53.4836
50.576
47.9004
45.4781
43.2701
41.2405
39.359
37.6008
35.9468
34.3848
32.9085
31.5169
30.2036
28.9636
27.7949
77.3917
77.3072
77.235
77.1781
77.1363
77.1083
77.0926
77.0872
77.0901
77.0984
77.1098
77.1238
77.1275
77.4961
77.6012
77.6958
77.7629
77.7788
77.7118
77.5229
77.1649
76.5848
75.7262
74.535
72.967
70.9972
68.6406
66.0131
63.2424
60.4051
57.3815
54.1845
51.1209
48.2495
45.651
43.3239
41.2194
39.2972
37.5236
35.8717
34.3208
32.8581
31.4768
30.1757
28.9487
27.7902
26.6995
77.5382
77.4328
77.3377
77.2588
77.1967
77.1505
77.1191
77.1008
77.0933
77.0945
77.1016
77.112
77.125
77.1284
77.6634
77.7835
77.8842
77.9447
77.9365
77.8231
77.56
77.096
76.3748
75.3396
73.9396
72.138
69.9222
67.3245
64.4834
61.5397
58.3819
55.023
51.7807
48.7394
45.9436
43.4487
41.2344
39.2457
37.4385
35.7772
34.2334
32.7857
31.4211
30.1325
28.9191
27.7749
26.6944
25.6777
77.7162
77.5904
77.4708
77.3676
77.2822
77.2147
77.1643
77.1296
77.1087
77.0993
77.0989
77.1047
77.1141
77.1262
77.1293
77.861
77.9925
78.093
78.1374
78.0922
77.9157
77.5589
76.9665
76.0807
74.8462
73.2176
71.1683
68.7002
65.865
62.8219
59.5323
56.0083
52.5783
49.3418
46.3665
43.6774
41.3074
39.2202
37.3564
35.6691
34.122
32.6864
31.3406
30.0716
28.8729
27.7438
26.6788
25.6723
24.7257
77.9266
77.782
77.6374
77.5079
77.3967
77.3047
77.2319
77.1774
77.1396
77.1164
77.1051
77.1031
77.1078
77.1161
77.1274
77.1303
78.0882
78.2254
78.317
78.333
78.2351
77.9765
77.5037
76.7589
75.6845
74.2287
72.354
70.0463
67.3247
64.2595
60.8428
57.1518
53.5246
50.0786
46.8968
44.023
41.4662
39.2387
37.2895
35.5565
33.9916
32.5588
31.2299
29.9836
28.8072
27.6948
26.6461
25.6564
24.7199
23.8395
78.169
78.009
77.8399
77.6833
77.5441
77.4246
77.326
77.2483
77.19
77.1493
77.1237
77.1106
77.1072
77.1107
77.1181
77.1286
77.1312
78.3424
78.4776
78.5488
78.5216
78.3523
77.9896
77.3767
76.4546
75.1677
73.4702
71.3349
68.763
65.79
62.3243
58.4666
54.6335
50.962
47.5542
44.468
41.7261
39.3234
37.2519
35.4482
33.849
32.4068
31.0869
29.8621
28.712
27.6246
26.5947
25.6223
24.7037
23.8335
23.0152
78.441
78.2714
78.0801
77.8964
77.7278
77.5784
77.4509
77.3462
77.2637
77.2019
77.1584
77.1307
77.1159
77.111
77.1134
77.1199
77.1297
77.1322
78.6193
78.7419
78.7785
78.69
78.428
77.9371
77.1584
76.0337
74.5115
72.5543
70.1482
67.3086
63.9155
59.9679
55.9216
52.008
48.3515
45.0287
42.0744
39.491
37.26
35.3539
33.6997
32.2351
30.9143
29.7045
28.5804
27.5227
26.5203
25.5685
24.6684
23.817
23.0089
22.249
78.7386
78.5678
78.3584
78.1493
77.9511
77.77
77.6106
77.4756
77.3651
77.2783
77.2131
77.167
77.1373
77.1208
77.1145
77.1159
77.1217
77.1309
77.1332
78.912
79.0088
78.9935
78.8227
78.4439
77.7988
76.8279
75.4758
73.6974
71.4664
68.7807
65.5079
61.5981
57.4078
53.2352
49.3051
45.7172
42.5228
39.7332
37.3304
35.2841
33.5492
32.0458
30.7145
29.5123
28.409
27.3817
26.4121
25.4903
24.6125
23.7805
22.992
22.2419
21.5378
79.0551
78.8946
78.6739
78.4431
78.2163
78.0026
77.8092
77.6406
77.4985
77.3827
77.2918
77.2235
77.1751
77.1434
77.1252
77.1178
77.1183
77.1233
77.132
77.1341
79.2113
79.2658
79.1783
78.9013
78.3794
77.5529
76.3635
74.7606
72.7082
70.1897
67.064
63.2464
59.0376
54.6633
50.4329
46.5478
43.0807
40.0557
37.4593
35.2544
33.4014
31.84
30.4865
29.2858
28.1985
27.1975
26.2623
25.3763
24.5307
23.7227
22.9544
22.2248
21.5284
20.9542
79.3814
79.2462
79.0239
78.7775
78.525
78.279
78.0502
77.8454
77.6681
77.5195
77.3988
77.3042
77.233
77.1822
77.1487
77.1292
77.1207
77.1204
77.1249
77.1331
77.1351
79.5048
79.4976
79.3143
78.9049
78.2121
77.1765
75.743
73.8683
71.5243
68.5642
64.8697
60.6975
56.2406
51.7535
47.5365
43.7597
40.4645
37.6453
35.265
33.2702
31.6151
30.2271
29.0207
27.9466
26.9696
26.0662
25.2184
24.4114
23.6376
22.895
22.1865
21.5117
20.95
20.4645
79.7053
79.6144
79.4035
79.1504
78.8773
78.6012
78.3368
78.0939
77.8785
77.6932
77.5385
77.4133
77.3153
77.2414
77.1885
77.1534
77.1328
77.1234
77.1224
77.1264
77.1342
77.136
79.7772
79.6858
79.3806
78.8102
77.9179
76.6457
74.9446
72.7771
69.9929
66.4423
62.3395
57.8571
53.2243
48.7033
44.5747
40.9681
37.8907
35.3073
33.16
31.3828
29.9269
28.7098
27.6462
26.6939
25.8222
25.0113
24.2459
23.5134
22.807
22.1257
21.4728
20.9366
20.4665
19.9492
80.0114
79.9883
79.8056
79.5579
79.272
78.97
78.6711
78.3893
78.1334
77.9081
77.7156
77.5555
77.4262
77.3249
77.2486
77.1939
77.1576
77.136
77.1258
77.1243
77.1277
77.1353
77.137
80.0099
79.809
79.3534
78.5926
77.4714
75.9371
73.9441
71.3391
67.944
63.9362
59.4693
54.7515
50.0244
45.5514
41.5831
38.202
35.38
33.0548
31.1515
29.5951
28.3366
27.2861
26.3601
25.524
24.7522
24.0286
23.341
22.6783
22.0349
21.4109
20.8974
20.4544
19.9489
19.3963
80.2808
80.3536
80.2202
79.9938
79.7061
79.3847
79.0545
78.7343
78.4364
78.1685
77.9343
77.7351
77.5701
77.437
77.3329
77.2546
77.1986
77.1612
77.1389
77.128
77.126
77.1291
77.1364
77.138
80.1813
79.8432
79.2072
78.2252
76.8478
75.0236
72.596
69.362
65.4701
61.0584
56.3066
51.4323
46.6905
42.3422
38.5978
35.488
32.9503
30.8984
29.2447
27.9084
26.843
25.9533
25.1589
24.4331
23.7557
23.1143
22.4995
21.9021
21.3177
20.8349
20.4154
19.9345
19.3918
18.7958
80.4916
80.6931
80.6346
80.4496
80.1744
79.843
79.487
79.1306
78.7906
78.4778
78.1989
77.9567
77.7516
77.5821
77.4457
77.3394
77.2597
77.2026
77.1644
77.1414
77.13
77.1276
77.1303
77.1375
77.1392
80.2665
79.7621
78.914
77.6815
76.0166
73.7603
70.6897
66.9319
62.6132
57.8797
52.9137
47.9539
43.2712
39.1171
35.6512
32.8491
30.616
28.8458
27.4422
26.3222
25.4437
24.7082
24.0387
23.417
22.8285
22.2642
21.7175
21.1812
20.7397
20.3523
19.8951
19.3744
18.7893
18.145
80.6181
80.9863
81.0325
80.9137
80.6694
80.3408
79.967
79.5787
79.1979
78.8395
78.5133
78.2245
77.9751
77.7646
77.5914
77.4526
77.3447
77.2638
77.2059
77.1671
77.1437
77.1318
77.1291
77.1316
77.1388
77.1404
80.2383
79.5368
78.4461
76.9282
74.8325
71.9249
68.3167
64.1242
59.4589
54.4611
49.3384
44.36
39.8081
35.9123
32.7708
30.3037
28.3879
26.902
25.745
24.8349
24.1356
23.5466
22.9952
22.4717
21.9664
21.4742
20.9912
20.6002
20.2554
19.831
19.3339
18.7704
18.1377
17.4423
80.6319
81.2093
81.3949
81.3717
81.1811
80.8718
80.4913
80.0778
79.6593
79.2559
78.8809
78.5426
78.245
77.9891
77.7743
77.5983
77.4578
77.3488
77.2671
77.2087
77.1695
77.1456
77.1335
77.1306
77.1329
77.1401
77.1416
80.0665
79.1377
77.7671
75.8186
73.0686
69.6209
65.5815
61.0274
56.0558
50.8351
45.6131
40.6868
36.3375
32.7589
29.9794
27.8662
26.2732
25.0691
24.1523
23.4439
22.915
22.4647
22.0245
21.5928
21.1655
20.7406
20.4059
20.1134
19.7321
19.2682
18.7286
18.1184
17.4346
16.6851
80.501
81.3358
81.6992
81.8059
81.6965
81.4272
81.0547
80.6254
80.1748
79.7284
79.3044
78.9145
78.5654
78.26
77.999
77.781
77.6031
77.4615
77.3518
77.2698
77.211
77.1714
77.1474
77.1353
77.1323
77.1342
77.1414
77.1428
79.7187
78.5263
76.7288
74.1277
70.8425
66.9745
62.5656
57.6719
52.4196
47.0212
41.7655
36.9679
32.8926
29.6838
27.2953
25.5469
24.2762
23.3476
22.662
22.1457
21.7778
21.458
21.1221
20.7763
20.4217
20.1495
19.9156
19.5874
19.1672
18.6611
18.0756
17.415
16.677
15.8695
80.1894
81.3367
81.9198
82.1955
82.1996
81.9955
81.6496
81.2175
80.7426
80.2574
79.7856
79.343
78.9398
78.5811
78.2697
78.0051
77.7851
77.6061
77.4639
77.354
77.2717
77.2127
77.1731
77.1495
77.1373
77.1339
77.1354
77.1427
77.1441
79.1533
77.5507
75.1139
71.9864
68.2942
64.0542
59.2812
54.0592
48.5576
43.0376
37.8243
33.2367
29.504
26.7097
24.7323
23.3523
22.3986
21.7359
21.2707
20.9362
20.7197
20.5223
20.2838
20.0182
19.8224
19.6543
19.3858
19.0195
18.5576
18.0061
17.3713
16.6569
15.8612
14.992
79.6507
81.1805
82.028
82.5165
82.6715
82.5626
82.2661
81.8475
81.3594
80.842
80.3253
79.8304
79.3713
78.9563
78.5904
78.2747
78.0079
77.7868
77.6074
77.4652
77.3552
77.2729
77.214
77.1754
77.1518
77.1392
77.1354
77.1366
77.144
77.1452
78.2134
76.0078
73.0628
69.5409
65.4772
60.8567
55.719
50.1866
44.4791
38.9069
33.8213
29.5265
26.1992
23.8547
22.3001
21.2861
20.6398
20.2312
19.9746
19.8112
19.7364
19.6532
19.5055
19.4075
19.3204
19.1193
18.8137
18.4066
17.9
17.3
16.6121
15.8407
14.9835
14.049
80.8264
78.7259
81.9917
82.7419
83.0898
83.1111
82.8915
82.5071
82.0201
81.4796
80.9231
80.3778
79.8624
79.3888
78.9649
78.594
78.2757
78.0078
77.7866
77.6074
77.4653
77.3555
77.2736
77.2165
77.1782
77.154
77.1408
77.1369
77.1378
77.1451
77.1463
76.7112
74.044
70.7227
66.8309
62.3762
57.3656
51.8691
46.055
40.199
34.6573
29.7917
25.8704
23.0027
21.133
20.0048
19.3489
18.9974
18.8295
18.7693
18.7659
18.8232
18.8465
18.8786
18.8959
18.7781
18.5417
18.1964
17.7456
17.1912
16.539
15.7948
14.9626
14.0404
13.0372
81.7726
80.1251
77.2323
82.8405
83.4295
83.6205
83.5104
83.1851
82.7175
82.1663
81.5774
80.9854
80.4145
79.8811
79.3965
78.9665
78.5926
78.2732
78.0053
77.7845
77.6059
77.4642
77.3553
77.2762
77.22
77.1808
77.1559
77.1423
77.1383
77.1388
77.1462
77.1474
74.8031
71.8034
68.1224
63.8322
58.9703
53.5657
47.7248
41.6708
35.7389
30.3225
25.7728
22.2998
19.9351
18.5547
17.849
17.539
17.4677
17.5265
17.6498
17.7956
17.9758
18.1967
18.3535
18.3433
18.1927
17.9184
17.5307
17.033
16.4275
15.7198
14.9156
14.019
13.0286
11.9537
82.7759
81.2432
78.9263
75.3476
83.6613
84.0677
84.1042
83.8679
83.4419
82.8958
82.2851
81.6523
81.0283
80.4349
79.8878
79.3957
78.9621
78.5869
78.2678
78.0007
77.7808
77.6029
77.4626
77.3578
77.2804
77.223
77.183
77.1576
77.1436
77.1395
77.1398
77.1473
77.1486
72.6289
69.3074
65.2308
60.5216
55.2415
49.4448
43.2841
37.047
31.1283
25.942
21.8029
18.8433
17.0127
16.1259
15.8326
15.8533
16.0463
16.3171
16.6112
16.8957
17.2936
17.6526
17.7865
17.7469
17.5611
17.2463
16.8131
16.2654
15.6055
14.8388
13.9711
13.0068
11.9451
10.7957
83.7516
82.4392
80.2344
77.3557
73.2081
84.4256
84.6515
84.5387
84.1815
83.6603
83.0412
82.376
81.7033
81.0513
80.4408
79.8842
79.3875
78.9525
78.5777
78.2597
77.994
77.7751
77.5991
77.4648
77.3629
77.284
77.2255
77.1848
77.159
77.1449
77.1406
77.1408
77.1483
77.1498
70.204
66.5193
62.0242
56.8798
51.1735
44.9935
38.5502
32.2044
26.4036
21.5584
17.9193
15.526
14.2475
13.8495
13.9535
14.2873
14.7277
15.1958
15.6486
16.1716
16.7225
17.0652
17.1746
17.1035
16.8801
16.5219
16.0402
15.4392
14.7215
13.8924
12.958
11.9229
10.7872
9.56125
84.6637
83.6122
81.6629
78.8624
75.5231
70.8258
85.1274
85.1782
84.9215
84.4493
83.8389
83.1526
82.4379
81.7303
81.0566
80.4341
79.8717
79.3731
78.9385
78.5653
78.2492
77.9848
77.7687
77.601
77.4711
77.3672
77.2868
77.2274
77.1862
77.1604
77.1461
77.1416
77.1417
77.1495
77.1511
67.4854
63.4158
58.4837
52.8888
46.7518
40.2055
33.5327
27.1722
21.6084
17.2169
14.157
12.3681
11.6473
11.7251
12.2076
12.8355
13.5063
14.1574
14.8747
15.5658
16.1061
16.4314
16.5147
16.41
16.1463
15.7419
15.2085
14.551
13.7721
12.8774
11.8731
10.7645
9.55298
8.24905
85.505
84.7171
83.0782
80.5349
77.2344
73.457
68.151
85.7634
85.6444
85.25
84.6695
83.9767
83.2291
82.4707
81.7357
81.0467
80.4166
79.8516
79.3535
78.9209
78.5499
78.2356
77.9748
77.7698
77.6085
77.4761
77.3704
77.2888
77.2288
77.188
77.1619
77.1472
77.1426
77.1428
77.1506
77.1524
64.4501
59.9796
54.5914
48.5309
41.962
35.0777
28.2479
21.9881
16.7918
12.9628
10.5469
9.38453
9.21557
9.75036
10.5896
11.4917
12.3762
13.3233
14.2274
14.9121
15.4413
15.7482
15.8036
15.6628
15.3562
14.9026
14.3145
13.5973
12.754
11.7908
10.714
9.52997
8.24118
6.85887
86.2711
85.7446
84.4212
82.2057
79.1557
75.4005
71.1124
65.1596
86.3294
86.0468
85.5219
84.8409
84.0725
83.2703
82.4774
81.7227
81.0239
80.3902
79.8253
79.3295
78.8996
78.5309
78.221
77.975
77.7789
77.6145
77.4797
77.3724
77.2902
77.231
77.19
77.1633
77.1482
77.1435
77.1438
77.1517
77.1538
61.0831
56.1952
50.329
43.7861
36.7894
29.6107
22.7212
16.6992
12.0074
8.83893
7.11427
6.58527
6.95272
7.92035
9.09304
10.2495
11.4693
12.6262
13.5293
14.2076
14.7251
15.0122
15.0377
14.8586
14.5064
14.0008
13.3548
12.5747
11.6643
10.6299
9.47875
8.21805
6.85259
5.12644
86.9563
86.689
85.6822
83.8007
81.0843
77.5938
73.3209
68.4665
61.8376
86.8212
86.3826
85.7358
84.9618
84.1256
83.28
82.4619
81.6942
80.9902
80.3562
79.7938
79.3012
78.8739
78.5107
78.2199
77.9858
77.7859
77.6185
77.4818
77.3737
77.293
77.2339
77.1919
77.1646
77.1492
77.1443
77.1448
77.1529
77.1553
57.3707
52.0453
45.6741
38.6311
31.218
23.8106
16.9888
11.3619
7.3101
4.88396
3.87846
3.97554
4.85558
6.22889
7.71104
9.25374
10.7121
11.875
12.7775
13.4491
13.9541
14.22
14.2138
13.994
13.5935
13.033
12.3262
11.4805
10.5004
9.39293
8.16631
6.82969
5.11867
3.12002
87.5553
87.5426
86.8558
85.3093
82.9332
79.7968
75.8172
70.9693
65.5118
58.1727
87.2351
86.6497
85.8894
85.0315
84.1407
83.2629
82.4277
81.6527
80.9476
80.3161
79.7572
79.2675
78.847
78.5079
78.2328
77.994
77.7904
77.6206
77.4829
77.3772
77.297
77.2366
77.1936
77.1656
77.15
77.145
77.1458
77.1542
77.1568
53.2972
47.5079
40.5987
33.0354
25.231
17.6936
11.1008
6.04025
2.75395
1.13063
0.852734
1.5556
2.91873
4.66871
6.60451
8.42325
9.89674
11.0667
11.969
12.6334
13.125
13.3683
13.3284
13.0655
12.6142
11.9961
11.2259
10.3121
9.2605
8.07894
6.77767
5.09352
3.11129
1.15129
88.0637
88.2969
87.933
86.7266
84.6906
81.9135
78.3203
73.797
68.3396
62.245
54.1509
87.5684
86.8453
85.9816
85.0554
84.1236
83.2234
82.3779
81.6005
80.8977
80.2699
79.7142
79.2324
78.842
78.5232
78.2424
77.999
77.7924
77.6213
77.4874
77.383
77.3009
77.239
77.195
77.1665
77.1507
77.1457
77.1467
77.1555
77.1584
48.8414
42.5544
35.0633
26.9622
18.8191
11.2916
5.12183
0.802854
-1.61094
-2.39547
-1.9565
-0.677909
1.13486
3.42138
5.68286
7.52994
9.02044
10.1983
11.1003
11.757
12.2343
12.4537
12.3782
12.0701
11.5654
10.8873
10.0515
9.06796
7.94374
6.68894
5.04005
3.0846
1.14535
-0.753122
88.478
88.945
88.9031
88.0427
86.352
83.931
80.7291
76.6222
71.5279
65.4339
58.6637
49.7525
87.8173
86.9675
86.0187
85.0406
84.0795
83.1651
82.3154
81.5397
80.8406
80.2161
79.6696
79.2248
78.8601
78.5343
78.248
78.0009
77.7926
77.627
77.4953
77.3885
77.3043
77.2409
77.1961
77.1671
77.1512
77.1462
77.1476
77.1569
77.1601
43.9754
37.1441
29.0186
20.3767
11.9865
4.65697
-0.869853
-4.27983
-5.74096
-5.67742
-4.54833
-2.73153
-0.288437
2.38402
4.6928
6.57103
8.08023
9.26662
10.1683
10.8167
11.2789
11.473
11.3601
11.0047
10.4446
9.70438
8.8014
7.74711
6.55115
4.94914
3.02952
1.12047
-0.757269
-2.57871
88.7932
89.4813
89.7559
89.2462
87.9079
85.8448
83.0315
79.3428
74.6965
69.0157
62.2594
54.7637
44.9514
87.9788
87.0236
86.0092
84.9932
84.0129
83.0916
82.2425
81.4704
80.7746
80.1604
79.6587
79.2461
78.873
78.5405
78.2496
78.0004
77.7999
77.6379
77.503
77.3933
77.3072
77.2425
77.1969
77.1675
77.1515
77.1467
77.1485
77.1583
77.1618
38.6591
31.2173
22.399
13.2384
4.75219
-2.13461
-6.7842
-9.14004
-9.60233
-8.70617
-6.92701
-4.36597
-1.46957
1.27141
3.63164
5.54373
7.07303
8.26854
9.16986
9.80965
10.256
10.4235
10.2715
9.86687
9.2496
8.44597
7.47494
6.35073
4.8082
2.93638
1.06669
-0.781232
-2.58189
-4.31451
89.0051
89.8988
90.4817
90.3251
89.3465
87.6447
85.2223
81.9491
77.7453
72.5507
66.2737
58.8261
50.5379
39.713
88.0612
87.0238
85.9608
84.9189
83.928
83.0058
82.1598
81.3905
80.7062
80.1458
79.6838
79.261
78.8798
78.5417
78.2481
78.0096
77.8144
77.6484
77.5098
77.3974
77.3095
77.2437
77.1973
77.1676
77.1517
77.147
77.1493
77.1598
77.1634
32.8267
24.6847
15.1151
5.50788
-2.83984
-8.98348
-12.5253
-13.7185
-13.1714
-11.4806
-8.81437
-5.71879
-2.73366
0.0812176
2.4969
4.44523
5.99599
7.20126
8.10236
8.73312
9.16282
9.3026
9.11022
8.65492
7.97927
7.11157
6.07337
4.60358
2.79245
0.973958
-0.833532
-2.60563
-4.31685
-5.94817
89.1227
90.1906
91.0678
91.2675
90.6552
89.3184
87.2902
84.4367
80.6688
75.9445
70.2013
63.3198
55.144
45.9781
33.9803
88.0767
86.9772
85.8799
84.8228
83.8286
82.9084
82.0645
81.3079
80.6872
80.1751
79.7009
79.2684
78.8804
78.539
78.2596
78.0286
77.8285
77.6577
77.5156
77.4009
77.3113
77.2444
77.1974
77.1675
77.1516
77.1472
77.15
77.1612
77.1651
26.386
17.4299
7.06835
-2.82816
-10.7079
-15.7694
-17.9997
-17.9665
-16.4358
-13.6739
-10.3713
-7.16283
-4.08231
-1.18836
1.28629
3.27311
4.84672
6.06253
6.96361
7.58503
7.99754
8.10869
7.87476
7.36792
6.63345
5.70261
4.32065
2.58413
0.829643
-0.92479
-2.65667
-4.3401
-5.94944
-7.46649
89.1604
90.3671
91.5001
92.0562
91.8209
90.8529
89.2211
86.7943
83.4645
79.1965
73.9581
67.6707
60.174
51.2215
41.0644
27.6698
88.0359
86.8917
85.7729
84.7091
83.7155
82.7963
81.9659
81.2839
80.7213
80.1946
79.709
79.2684
78.8761
78.5534
78.2843
78.0473
77.841
77.6658
77.5206
77.4036
77.3124
77.2445
77.197
77.167
77.1514
77.1473
77.1507
77.1625
77.1668
19.2111
9.30019
-1.83354
-11.742
-18.7251
-22.3581
-23.1205
-21.85
-19.0053
-15.4753
-12.0274
-8.69806
-5.51598
-2.53867
-0.00187422
2.02563
3.62358
4.85075
5.75207
6.36403
6.75896
6.84083
6.56479
6.0062
5.21389
3.94197
2.29663
0.620433
-1.06775
-2.7463
-4.38939
-5.9717
-7.46727
-8.8593
89.1308
90.4455
91.7864
92.6685
92.8223
92.235
91.0003
89.0077
86.123
82.3074
77.5495
71.8108
64.9846
56.8558
47.0662
35.7614
20.6635
87.9487
86.7748
85.645
84.5795
83.5852
82.6801
81.9363
81.3235
80.7436
80.2035
79.7081
79.2621
78.8938
78.5848
78.3085
78.0639
77.8522
77.6729
77.5246
77.4054
77.3127
77.244
77.1962
77.1661
77.1509
77.1472
77.1512
77.1639
77.1685
11.1071
0.0974307
-11.6542
-21.1546
-26.7197
-28.6083
-27.8129
-24.8913
-21.1039
-17.3827
-13.7798
-10.3226
-7.03432
-3.97009
-1.36828
0.702038
2.32579
3.56517
4.46718
5.06974
5.44693
5.49934
5.18124
4.57196
3.44198
1.91175
0.331616
-1.27545
-2.88713
-4.4767
-6.01862
-7.48841
-8.85978
-10.1196
89.0456
90.4415
91.9463
93.1075
93.6293
93.4414
92.6125
91.0609
88.6319
85.2713
80.9806
75.7528
69.5314
62.17
53.3865
42.6848
30.0221
12.7768
87.8236
86.633
85.4982
84.4297
83.4497
82.6443
81.9821
81.3489
80.7532
80.2016
79.6995
79.2838
78.9333
78.6156
78.33
78.0787
77.8619
77.6787
77.5275
77.4062
77.3122
77.2428
77.1948
77.1649
77.1502
77.1471
77.1517
77.1652
77.1701
1.78111
-10.4221
-22.3966
-30.9283
-34.4805
-34.3818
-31.4689
-27.357
-23.3115
-19.3881
-15.6227
-12.0332
-8.63543
-5.48152
-2.81223
-0.697214
0.953687
2.20623
3.10956
3.70304
4.06274
4.08605
3.72701
2.78452
1.40299
-0.0553492
-1.56248
-3.09172
-4.61425
-6.10266
-7.53241
-8.88002
-10.1195
-11.2402
88.9151
90.369
91.9989
93.392
94.2405
94.4359
94.0305
92.9361
90.9761
88.0794
84.2504
79.5081
73.8363
67.1508
59.2546
49.7903
38.0812
23.7836
3.72521
87.6687
86.4688
85.3278
84.2735
83.4071
82.6971
82.0108
81.3592
80.7501
80.19
79.7256
79.3327
78.9721
78.6432
78.3495
78.0919
77.8701
77.683
77.5291
77.4059
77.3108
77.2409
77.1929
77.1635
77.1493
77.1468
77.1522
77.1665
77.1718
-9.23246
-22.5143
-33.9934
-40.8729
-41.7448
-38.8739
-34.399
-29.9269
-25.6115
-21.4789
-17.548
-13.8243
-10.3154
-7.06999
-4.33146
-2.17023
-0.490896
0.77585
1.68132
2.26646
2.60941
2.60477
1.91853
0.733528
-0.567277
-1.94742
-3.37435
-4.81394
-6.23546
-7.61225
-8.92038
-10.1368
-11.2388
-12.2167
88.7487
90.241
91.9621
93.5408
94.6748
95.2146
95.2112
94.6005
93.1376
90.7195
87.3554
83.0818
77.9193
71.832
64.7007
56.2687
46.0957
33.258
16.9687
-6.96185
87.4873
86.2771
85.1495
84.2235
83.4677
82.7295
82.022
81.3546
80.7351
80.2213
79.7856
79.3808
79.0069
78.6683
78.3669
78.1031
77.8764
77.6857
77.5291
77.4043
77.3084
77.2382
77.1905
77.1617
77.1482
77.1464
77.1525
77.1678
77.1735
-22.7375
-36.3876
-46.3601
-50.5223
-47.3772
-42.4197
-37.4061
-32.5688
-27.9802
-23.6396
-19.5447
-15.6876
-12.0676
-8.73041
-5.9218
-3.71325
-2.00433
-0.722285
0.186494
0.764541
1.092
0.768078
-0.148514
-1.24105
-2.45691
-3.75342
-5.0895
-6.42815
-7.73884
-8.99517
-10.1735
-11.2534
-12.214
-13.0505
88.5509
90.0684
91.8524
93.5729
94.951
95.7973
96.1485
95.9993
95.0792
93.1761
90.2884
86.4774
81.7937
76.2464
69.7726
62.214
53.2441
42.3361
28.2158
9.49416
-20.1983
87.2739
86.0756
85.0916
84.2928
83.5042
82.7415
82.0156
81.3356
80.7722
80.2938
79.8444
79.424
79.0386
78.6908
78.3818
78.1119
77.8806
77.6864
77.5276
77.4014
77.3049
77.2349
77.1877
77.1596
77.147
77.146
77.1529
77.169
77.1752
-40.2798
-51.5606
-58.7032
-58.0991
-51.7664
-45.9696
-40.4324
-35.2411
-30.3904
-25.8506
-21.5978
-17.6114
-13.8828
-10.4552
-7.57673
-5.3203
-3.58085
-2.28224
-1.36856
-0.795988
-0.782011
-1.32015
-2.12874
-3.12744
-4.25502
-5.45884
-6.69378
-7.92249
-9.11422
-10.2427
-11.2861
-12.2267
-13.0468
-13.7435
88.3162
89.8567
91.6845
93.5073
95.0878
96.2038
96.8657
97.1201
96.7348
95.4108
93.0386
89.6944
85.4712
80.4174
74.5219
67.6909
59.7237
50.2141
38.5592
22.9568
1.31004
-38.1206
87.0482
86.0093
85.1706
84.3337
83.517
82.733
81.9919
81.3792
80.859
80.3649
79.8973
79.4635
79.0672
78.7103
78.3938
78.118
77.8823
77.685
77.5241
77.397
77.3005
77.231
77.1846
77.1573
77.1456
77.1454
77.1532
77.1702
77.1769
-61.8855
-65.6958
-70.1353
-63.6355
-55.9904
-49.4245
-43.4107
-37.8988
-32.8104
-28.0876
-23.6882
-19.5804
-15.7486
-12.234
-9.28711
-6.98291
-5.21211
-3.89544
-2.97512
-2.71352
-2.89734
-3.30754
-4.01075
-4.91502
-5.94722
-7.04948
-8.17537
-9.28697
-10.3532
-11.3494
-12.2562
-13.0565
-13.7398
-14.3016
88.0671
89.6017
91.4659
93.3622
95.1036
96.4533
97.386
97.9855
98.0817
97.3475
95.5691
92.7285
88.9594
84.3669
78.9849
72.7776
65.6173
57.2628
47.2269
34.8248
17.5144
-7.36902