/*--------------------------------*- C++ -*----------------------------------*\
  =========                 |
  \\      /  F ield         | OpenFOAM: The Open Source CFD Toolbox
   \\    /   O peration     | Website:  https://openfoam.org
    \\  /    A nd           | Version:  8
     \\/     M anipulation  |
\*---------------------------------------------------------------------------*/
FoamFile
{
    version     2.0;
    format      ascii;
    class       volVectorField;
    location    "0.3";
    object      U;
}
// * * * * * * * * * * * * * * * * * * * * * * * * * * * * * * * * * * * * * //

dimensions      [0 1 -1 0 0 0 0];

internalField   nonuniform List<vector> 
15677
(
(-0.0399065 9.6659 0)
(0.0485054 9.92195 0)
(-0.00181071 9.37806 0)
(0.0206672 9.97698 0)
(0.0199036 9.78844 0)
(0.00731782 9.14083 0)
(0.0258579 9.99512 0)
(0.0165589 9.92446 0)
(0.0111907 9.65355 0)
(0.00649609 8.96007 0)
(0.0263575 10.0025 0)
(0.0205842 9.9785 0)
(0.0165729 9.8516 0)
(0.00913594 9.53018 0)
(0.00516342 8.81628 0)
(0.0256056 10.0057 0)
(0.021629 10.0028 0)
(0.0194408 9.94108 0)
(0.0153858 9.77886 0)
(0.00799004 9.41905 0)
(0.00424457 8.7015 0)
(0.0245533 10.0071 0)
(0.021925 10.0145 0)
(0.0210511 9.98434 0)
(0.0182854 9.90178 0)
(0.0138725 9.70729 0)
(0.00693528 9.32066 0)
(0.00355107 8.60916 0)
(0.0231504 10.0075 0)
(0.0218186 10.0203 0)
(0.0219336 10.0064 0)
(0.0202456 9.96432 0)
(0.0169895 9.86109 0)
(0.0124598 9.63988 0)
(0.00598277 9.23538 0)
(0.00296965 8.53492 0)
(0.0214741 10.0074 0)
(0.021289 10.0231 0)
(0.0222374 10.018 0)
(0.0213504 9.99743 0)
(0.0190932 9.94287 0)
(0.0156352 9.82131 0)
(0.0111037 9.57857 0)
(0.00510034 9.1629 0)
(0.00243773 8.47602 0)
(0.019593 10.0069 0)
(0.0204497 10.0233 0)
(0.0222209 10.0236 0)
(0.0218617 10.0155 0)
(0.0202702 9.9873 0)
(0.0177586 9.92176 0)
(0.0141795 9.78425 0)
(0.00972707 9.52447 0)
(0.00423761 9.10294 0)
(0.00191785 8.43093 0)
(0.0175939 10.0063 0)
(0.0194208 10.0221 0)
(0.0218018 10.0266 0)
(0.0219025 10.0255 0)
(0.0208168 10.0122 0)
(0.0189129 9.97756 0)
(0.0162245 9.90246 0)
(0.0125797 9.75111 0)
(0.00827403 9.47849 0)
(0.00335032 9.05526 0)
(0.00138152 8.39861 0)
(0.0155101 10.0055 0)
(0.0181428 10.0204 0)
(0.0211026 10.0276 0)
(0.0215783 10.0309 0)
(0.0208663 10.0265 0)
(0.0193857 10.0094 0)
(0.0172541 9.96944 0)
(0.0144398 9.88588 0)
(0.0107839 9.72298 0)
(0.0066962 9.44137 0)
(0.00239789 9.01972 0)
(0.000806254 8.3787 0)
(0.0133939 10.0048 0)
(0.0166928 10.0183 0)
(0.0200611 10.027 0)
(0.020929 10.0334 0)
(0.0205061 10.0345 0)
(0.0193243 10.0279 0)
(0.0175465 10.008 0)
(0.0152385 9.96371 0)
(0.0123375 9.87298 0)
(0.00873376 9.70087 0)
(0.00494419 9.41377 0)
(0.00134736 8.99631 0)
(0.000161857 8.37094 0)
(0.0113115 10.0041 0)
(0.0151345 10.0161 0)
(0.0187479 10.0253 0)
(0.019974 10.0338 0)
(0.0197929 10.0387 0)
(0.018817 10.0386 0)
(0.0172548 10.0307 0)
(0.015239 10.009 0)
(0.012786 9.96121 0)
(0.00984251 9.86469 0)
(0.00636792 9.68579 0)
(0.002973 9.39629 0)
(0.00017112 8.98514 0)
(-0.000487528 8.37527 0)
(0.00943522 10.0034 0)
(0.0134836 10.0138 0)
(0.0172029 10.0231 0)
(0.0187137 10.0328 0)
(0.0187456 10.0403 0)
(0.0179126 10.0446 0)
(0.0164693 10.0442 0)
(0.0145919 10.0358 0)
(0.0123663 10.0129 0)
(0.00980197 9.96276 0)
(0.00687542 9.86195 0)
(0.00362866 9.67862 0)
(0.000744307 9.3895 0)
(-0.00113218 8.98646 0)
(-0.00124155 8.39172 0)
(0.00791241 10.0029 0)
(0.0119755 10.0118 0)
(0.0154655 10.0205 0)
(0.0171622 10.0307 0)
(0.0173633 10.04 0)
(0.0166306 10.0474 0)
(0.0152351 10.0519 0)
(0.0133889 10.0518 0)
(0.0112223 10.0437 0)
(0.00881315 10.0207 0)
(0.0061851 9.96921 0)
(0.00335882 9.86568 0)
(0.000458785 9.68027 0)
(-0.00179148 9.39396 0)
(-0.00261781 9.00037 0)
(-0.00208692 8.42051 0)
(0.00661624 10.0024 0)
(0.0106246 10.01 0)
(0.0137788 10.018 0)
(0.0153489 10.0279 0)
(0.0156498 10.0383 0)
(0.014974 10.0478 0)
(0.0135698 10.0558 0)
(0.0116725 10.0611 0)
(0.00944389 10.0622 0)
(0.007008 10.0553 0)
(0.00445456 10.0331 0)
(0.0018352 9.98141 0)
(-0.000779924 9.87681 0)
(-0.00318535 9.69152 0)
(-0.00465094 9.41015 0)
(-0.00428103 9.02708 0)
(-0.00302156 8.46167 0)
(0.00552727 10.002 0)
(0.00941056 10.0085 0)
(0.012246 10.0158 0)
(0.0135134 10.0251 0)
(0.013621 10.0356 0)
(0.0129428 10.0466 0)
(0.0114762 10.057 0)
(0.00945678 10.0661 0)
(0.00706978 10.0731 0)
(0.00447132 10.0761 0)
(0.00179847 10.0712 0)
(-0.00083517 10.0508 0)
(-0.00334421 10.0002 0)
(-0.00560808 9.8962 0)
(-0.00734851 9.71311 0)
(-0.00785904 9.43845 0)
(-0.00612511 9.06661 0)
(-0.00404045 8.51518 0)
(0.0046165 10.0016 0)
(0.00831498 10.0072 0)
(0.0108321 10.0139 0)
(0.0118127 10.0225 0)
(0.011535 10.0325 0)
(0.0105453 10.044 0)
(0.00895362 10.0561 0)
(0.00674161 10.0679 0)
(0.00410865 10.079 0)
(0.001235 10.0884 0)
(-0.00170828 10.0942 0)
(-0.00456029 10.0923 0)
(-0.00717704 10.0747 0)
(-0.00943854 10.0265 0)
(-0.0111784 9.92465 0)
(-0.0120572 9.74561 0)
(-0.0114285 9.47909 0)
(-0.00815329 9.11902 0)
(-0.00514118 8.58086 0)
(0.0038511 10.0013 0)
(0.00732666 10.0061 0)
(0.00952841 10.0122 0)
(0.0102151 10.0201 0)
(0.00958645 10.0296 0)
(0.00807527 10.0407 0)
(0.00600829 10.0535 0)
(0.00352564 10.0673 0)
(0.000556247 10.0814 0)
(-0.0026998 10.0952 0)
(-0.00604414 10.1078 0)
(-0.00927999 10.1173 0)
(-0.0122165 10.1194 0)
(-0.01468 10.1056 0)
(-0.0165173 10.0609 0)
(-0.0175233 9.96281 0)
(-0.0173208 9.78947 0)
(-0.0153551 9.53218 0)
(-0.0103519 9.18402 0)
(-0.00631024 8.65832 0)
(0.00323266 10.001 0)
(0.0064442 10.0051 0)
(0.0083313 10.0107 0)
(0.00872735 10.0179 0)
(0.0077476 10.0268 0)
(0.0057651 10.0373 0)
(0.0029916 10.05 0)
(-0.000183097 10.0647 0)
(-0.00359015 10.0809 0)
(-0.00734324 10.0979 0)
(-0.0112181 10.1153 0)
(-0.0149872 10.132 0)
(-0.0184225 10.1461 0)
(-0.0213042 10.1531 0)
(-0.0234317 10.1442 0)
(-0.0246246 10.1042 0)
(-0.024655 10.0112 0)
(-0.0231303 9.84491 0)
(-0.0196219 9.59762 0)
(-0.0127108 9.26138 0)
(-0.00754019 8.7471 0)
(0.00273705 10.0008 0)
(0.00563752 10.0043 0)
(0.00723812 10.0094 0)
(0.00735323 10.016 0)
(0.00603555 10.0241 0)
(0.00358689 10.034 0)
(0.000179542 10.0462 0)
(-0.00394969 10.0608 0)
(-0.00831889 10.0781 0)
(-0.0127001 10.0975 0)
(-0.0172487 10.1182 0)
(-0.0217053 10.14 0)
(-0.0258075 10.1618 0)
(-0.0292976 10.1814 0)
(-0.0319316 10.1941 0)
(-0.0334898 10.1911 0)
(-0.0337768 10.157 0)
(-0.0325605 10.0703 0)
(-0.0294584 9.91201 0)
(-0.0241972 9.67517 0)
(-0.0151977 9.35043 0)
(-0.00880704 8.84632 0)
(0.00235941 10.0007 0)
(0.00495343 10.0036 0)
(0.00624086 10.0082 0)
(0.00609398 10.0142 0)
(0.00445975 10.0217 0)
(0.00156723 10.0309 0)
(-0.00246087 10.0423 0)
(-0.00744118 10.0564 0)
(-0.0130815 10.0737 0)
(-0.018754 10.0943 0)
(-0.024144 10.1176 0)
(-0.029464 10.143 0)
(-0.0344139 10.17 0)
(-0.0386986 10.1977 0)
(-0.0420376 10.2237 0)
(-0.0441721 10.2431 0)
(-0.0448769 10.2468 0)
(-0.0439574 10.2194 0)
(-0.0412011 10.14 0)
(-0.0362562 9.99057 0)
(-0.0290338 9.76431 0)
(-0.0177907 9.45056 0)
(-0.010092 8.95525 0)
(0.00206903 10.0006 0)
(0.00439591 10.0031 0)
(0.00537817 10.0072 0)
(0.00495017 10.0126 0)
(0.00302596 10.0194 0)
(-0.000277775 10.0278 0)
(-0.00489372 10.0384 0)
(-0.0107012 10.0518 0)
(-0.0174703 10.0685 0)
(-0.0248079 10.0891 0)
(-0.0318822 10.1138 0)
(-0.0382766 10.1419 0)
(-0.0442866 10.1729 0)
(-0.0495743 10.2062 0)
(-0.0538204 10.2406 0)
(-0.056734 10.2737 0)
(-0.0580568 10.3006 0)
(-0.0575752 10.3118 0)
(-0.0551161 10.2919 0)
(-0.0505087 10.2205 0)
(-0.0434531 10.0802 0)
(-0.0340764 9.86439 0)
(-0.0204239 9.56072 0)
(-0.0113287 9.07226 0)
(0.00184187 10.0005 0)
(0.00394329 10.0027 0)
(0.00466919 10.0064 0)
(0.0039653 10.0112 0)
(0.00173799 10.0172 0)
(-0.0019375 10.0249 0)
(-0.00709538 10.0346 0)
(-0.013684 10.0471 0)
(-0.0215452 10.063 0)
(-0.0303579 10.083 0)
(-0.0395774 10.1076 0)
(-0.0481154 10.1373 0)
(-0.0554467 10.1712 0)
(-0.0619895 10.2086 0)
(-0.0673785 10.249 0)
(-0.0712863 10.291 0)
(-0.0734287 10.332 0)
(-0.0735676 10.3669 0)
(-0.0715234 10.3861 0)
(-0.0671653 10.3743 0)
(-0.0603867 10.3113 0)
(-0.0509622 10.1804 0)
(-0.0392072 9.97449 0)
(-0.0229801 9.67959 0)
(-0.0122272 9.19548 0)
(0.00166162 10.0004 0)
(0.00357119 10.0024 0)
(0.00408616 10.0057 0)
(0.00316296 10.01 0)
(0.0006466 10.0153 0)
(-0.00340485 10.0221 0)
(-0.00904954 10.0309 0)
(-0.0163574 10.0424 0)
(-0.0252491 10.0572 0)
(-0.0354856 10.0762 0)
(-0.0466034 10.1002 0)
(-0.0578601 10.1298 0)
(-0.0678615 10.1654 0)
(-0.0759772 10.2061 0)
(-0.0828027 10.2509 0)
(-0.0879661 10.2991 0)
(-0.0911514 10.3494 0)
(-0.0921041 10.3988 0)
(-0.090633 10.4422 0)
(-0.0866159 10.4699 0)
(-0.0799822 10.4665 0)
(-0.0707155 10.412 0)
(-0.0586322 10.2903 0)
(-0.0443731 10.0934 0)
(-0.0256514 9.80665 0)
(-0.0143434 9.32496 0)
(0.00151665 10.0004 0)
(0.0032637 10.0021 0)
(0.00360929 10.0052 0)
(0.00251375 10.009 0)
(-0.000225401 10.0137 0)
(-0.00462079 10.0196 0)
(-0.0107449 10.0274 0)
(-0.0186981 10.0377 0)
(-0.0285398 10.0512 0)
(-0.040121 10.069 0)
(-0.0530703 10.0919 0)
(-0.0667322 10.1208 0)
(-0.0801252 10.1563 0)
(-0.0915014 10.1988 0)
(-0.100143 10.2473 0)
(-0.106897 10.3002 0)
(-0.111409 10.357 0)
(-0.113402 10.4161 0)
(-0.112682 10.4745 0)
(-0.109131 10.5267 0)
(-0.102702 10.563 0)
(-0.0934083 10.5679 0)
(-0.0813005 10.522 0)
(-0.0663186 10.4088 0)
(-0.0488184 10.2203 0)
(-0.0221341 9.93554 0)
(-0.010066 9.39804 0)
(0.00139857 10.0003 0)
(0.00300823 10.0019 0)
(0.00321375 10.0047 0)
(0.00198662 10.0082 0)
(-0.000914472 10.0123 0)
(-0.00556527 10.0174 0)
(-0.0121128 10.024 0)
(-0.0206893 10.0331 0)
(-0.0313853 10.0453 0)
(-0.0442092 10.0616 0)
(-0.0588917 10.083 0)
(-0.0748771 10.1106 0)
(-0.0912717 10.1453 0)
(-0.106813 10.1877 0)
(-0.119363 10.2382 0)
(-0.128155 10.2952 0)
(-0.13437 10.3572 0)
(-0.137704 10.4232 0)
(-0.137954 10.4915 0)
(-0.135019 10.559 0)
(-0.128876 10.6201 0)
(-0.119583 10.6649 0)
(-0.107213 10.6781 0)
(-0.0919579 10.6402 0)
(-0.0735114 10.5349 0)
(-0.0522321 10.3521 0)
(-0.0171826 10.0951 0)
(-0.00157418 9.45065 0)
(0.00130128 10.0003 0)
(0.00279508 10.0018 0)
(0.0028844 10.0044 0)
(0.00156077 10.0075 0)
(-0.00145834 10.0111 0)
(-0.00628654 10.0155 0)
(-0.0131384 10.0211 0)
(-0.0222503 10.0287 0)
(-0.0337619 10.0394 0)
(-0.0477078 10.054 0)
(-0.063998 10.0737 0)
(-0.082189 10.0996 0)
(-0.10149 10.1329 0)
(-0.120722 10.1744 0)
(-0.138313 10.2246 0)
(-0.151708 10.284 0)
(-0.160142 10.3506 0)
(-0.165228 10.4222 0)
(-0.166755 10.4978 0)
(-0.164639 10.5756 0)
(-0.158899 10.6523 0)
(-0.149636 10.722 0)
(-0.136992 10.7751 0)
(-0.121151 10.7961 0)
(-0.102143 10.7657 0)
(-0.0793915 10.6675 0)
(-0.054811 10.4971 0)
(-0.0182074 10.2554 0)
(0.00383092 9.49409 0)
(0.00122032 10.0003 0)
(0.00261643 10.0017 0)
(0.00261119 10.004 0)
(0.00121488 10.0069 0)
(-0.00188629 10.0101 0)
(-0.00683222 10.0139 0)
(-0.0138863 10.0186 0)
(-0.023374 10.0249 0)
(-0.0355726 10.0337 0)
(-0.0505837 10.0464 0)
(-0.068333 10.0642 0)
(-0.0885794 10.0881 0)
(-0.110651 10.1194 0)
(-0.133469 10.1593 0)
(-0.155532 10.2086 0)
(-0.174944 10.2678 0)
(-0.188704 10.337 0)
(-0.196121 10.4137 0)
(-0.199367 10.4955 0)
(-0.198377 10.581 0)
(-0.193216 10.6683 0)
(-0.184053 10.754 0)
(-0.171106 10.8321 0)
(-0.154636 10.893 0)
(-0.13473 10.9212 0)
(-0.111248 10.8978 0)
(-0.0840048 10.8074 0)
(-0.0561246 10.6541 0)
(-0.0206447 10.4111 0)
(0.00491023 9.53646 0)
(0.0011524 10.0003 0)
(0.00246586 10.0015 0)
(0.00238304 10.0038 0)
(0.000931152 10.0063 0)
(-0.00222324 10.0092 0)
(-0.00724056 10.0125 0)
(-0.0144181 10.0164 0)
(-0.0241471 10.0215 0)
(-0.0368211 10.0287 0)
(-0.0527189 10.0392 0)
(-0.071852 10.0545 0)
(-0.0939751 10.0761 0)
(-0.118643 10.105 0)
(-0.144896 10.1427 0)
(-0.171324 10.1903 0)
(-0.19608 10.2485 0)
(-0.216912 10.3176 0)
(-0.230394 10.3975 0)
(-0.236001 10.4851 0)
(-0.236597 10.5773 0)
(-0.232307 10.6728 0)
(-0.223381 10.7694 0)
(-0.210142 10.8637 0)
(-0.192949 10.9497 0)
(-0.172052 11.0177 0)
(-0.147437 11.0527 0)
(-0.11965 11.0363 0)
(-0.0884119 10.9548 0)
(-0.0571339 10.8175 0)
(-0.022835 10.5617 0)
(0.00451958 9.5916 0)
(0.00109501 10.0002 0)
(0.00233816 10.0015 0)
(0.00219367 10.0035 0)
(0.000697924 10.0059 0)
(-0.00248849 10.0085 0)
(-0.0075421 10.0112 0)
(-0.0147834 10.0145 0)
(-0.0246503 10.0186 0)
(-0.0376229 10.0243 0)
(-0.0541303 10.0326 0)
(-0.0744091 10.0452 0)
(-0.0983162 10.0638 0)
(-0.125372 10.09 0)
(-0.154863 10.125 0)
(-0.185497 10.1702 0)
(-0.215496 10.2266 0)
(-0.242621 10.2948 0)
(-0.264305 10.3746 0)
(-0.276704 10.4659 0)
(-0.279583 10.5647 0)
(-0.276629 10.6676 0)
(-0.2682 10.7729 0)
(-0.254752 10.8785 0)
(-0.236783 10.9809 0)
(-0.214715 11.0741 0)
(-0.188783 11.1487 0)
(-0.159465 11.1902 0)
(-0.127974 11.1803 0)
(-0.0934498 11.1083 0)
(-0.0588968 10.9823 0)
(-0.0251542 10.7241 0)
(0.00346551 9.65653 0)
(0.00104619 10.0002 0)
(0.00222926 10.0014 0)
(0.00203373 10.0033 0)
(0.00050396 10.0055 0)
(-0.00269715 10.0078 0)
(-0.0077609 10.0102 0)
(-0.0150214 10.0128 0)
(-0.0249483 10.016 0)
(-0.0380842 10.0204 0)
(-0.0549707 10.0268 0)
(-0.0760367 10.0368 0)
(-0.101421 10.0519 0)
(-0.130757 10.0746 0)
(-0.16325 10.1065 0)
(-0.197877 10.1486 0)
(-0.232959 10.2023 0)
(-0.266299 10.2687 0)
(-0.295292 10.3478 0)
(-0.317082 10.4393 0)
(-0.32744 10.5425 0)
(-0.326554 10.6529 0)
(-0.319074 10.7662 0)
(-0.30563 10.8811 0)
(-0.286903 10.9951 0)
(-0.263527 11.1048 0)
(-0.235988 11.2046 0)
(-0.204917 11.2854 0)
(-0.171259 11.3328 0)
(-0.136377 11.3288 0)
(-0.0991051 11.2654 0)
(-0.0618174 11.1653 0)
(-0.0275967 10.8984 0)
(0.00185881 9.72984 0)
(0.00100434 10.0002 0)
(0.002136 10.0013 0)
(0.00189814 10.0032 0)
(0.000344349 10.0052 0)
(-0.00286112 10.0073 0)
(-0.00791595 10.0093 0)
(-0.0151632 10.0113 0)
(-0.0250925 10.0137 0)
(-0.0382896 10.0169 0)
(-0.0553788 10.0217 0)
(-0.0769347 10.0292 0)
(-0.103338 10.0411 0)
(-0.134569 10.0597 0)
(-0.16995 10.0873 0)
(-0.20831 10.1259 0)
(-0.248253 10.1762 0)
(-0.287661 10.2398 0)
(-0.323925 10.3171 0)
(-0.354094 10.4082 0)
(-0.375057 10.512 0)
(-0.382267 10.6275 0)
(-0.376487 10.7493 0)
(-0.363464 10.8729 0)
(-0.344124 10.9968 0)
(-0.319367 11.1185 0)
(-0.289966 11.235 0)
(-0.256742 11.3408 0)
(-0.220765 11.4269 0)
(-0.183032 11.4791 0)
(-0.144788 11.4798 0)
(-0.105522 11.4425 0)
(-0.0655463 11.3648 0)
(-0.0301882 11.0673 0)
(9.46618e-05 9.80939 0)
(0.000968621 10.0002 0)
(0.00205568 10.0013 0)
(0.00178291 10.003 0)
(0.000212097 10.0049 0)
(-0.00298961 10.0068 0)
(-0.00802213 10.0085 0)
(-0.015233 10.01 0)
(-0.0251232 10.0117 0)
(-0.0383065 10.0139 0)
(-0.0554652 10.0171 0)
(-0.0772827 10.0225 0)
(-0.104326 10.0315 0)
(-0.136876 10.046 0)
(-0.174675 10.0686 0)
(-0.216658 10.1023 0)
(-0.261186 10.1487 0)
(-0.306445 10.2086 0)
(-0.349865 10.283 0)
(-0.388427 10.3724 0)
(-0.418865 10.4762 0)
(-0.437894 10.5928 0)
(-0.440731 10.7208 0)
(-0.428869 10.854 0)
(-0.409274 10.9873 0)
(-0.383182 11.1194 0)
(-0.351718 11.2482 0)
(-0.315965 11.3707 0)
(-0.277128 11.4815 0)
(-0.236439 11.572 0)
(-0.194765 11.6274 0)
(-0.153957 11.65 0)
(-0.112406 11.6381 0)
(-0.0695976 11.5594 0)
(-0.0326772 11.2302 0)
(-0.00162284 9.89329 0)
(0.00198572 10.0012 0)
(0.000925732 10.0002 0)
(0.00168397 10.0029 0)
(0.000102309 10.0046 0)
(-0.00308999 10.0063 0)
(-0.0080912 10.0077 0)
(-0.0152498 10.0089 0)
(-0.0250717 10.01 0)
(-0.0381873 10.0112 0)
(-0.0553178 10.0131 0)
(-0.0772245 10.0166 0)
(-0.104615 10.0228 0)
(-0.138005 10.0337 0)
(-0.177506 10.0515 0)
(-0.222551 10.0791 0)
(-0.27158 10.1199 0)
(-0.322408 10.1754 0)
(-0.372788 10.2461 0)
(-0.41968 10.3327 0)
(-0.459684 10.4351 0)
(-0.489283 10.5522 0)
(-0.50512 10.6819 0)
(-0.502272 10.8223 0)
(-0.483118 10.9664 0)
(-0.455953 11.1089 0)
(-0.422336 11.2485 0)
(-0.383713 11.3834 0)
(-0.341526 11.5109 0)
(-0.297151 11.6258 0)
(-0.251833 11.719 0)
(-0.207548 11.7941 0)
(-0.163663 11.8385 0)
(-0.118989 11.8306 0)
(-0.0736062 11.7475 0)
(-0.0349605 11.3869 0)
(-0.00315097 9.97977 0)
(0.00159709 10.0028 0)
(0.00190456 10.0011 0)
(0.000874204 10.0002 0)
(1.04491e-05 10.0044 0)
(-0.0031678 10.006 0)
(-0.00813211 10.0071 0)
(-0.0152285 10.0079 0)
(-0.0249625 10.0084 0)
(-0.0379727 10.0088 0)
(-0.0550048 10.0095 0)
(-0.0768736 10.0113 0)
(-0.10439 10.0151 0)
(-0.138249 10.0227 0)
(-0.178853 10.036 0)
(-0.226084 10.0578 0)
(-0.278962 10.0916 0)
(-0.335324 10.1408 0)
(-0.392395 10.2067 0)
(-0.447465 10.2895 0)
(-0.497044 10.3893 0)
(-0.537403 10.5055 0)
(-0.564874 10.6365 0)
(-0.576144 10.7794 0)
(-0.566249 10.9318 0)
(-0.538618 11.0862 0)
(-0.502968 11.2369 0)
(-0.461232 11.3831 0)
(-0.415211 11.5232 0)
(-0.366555 11.6546 0)
(-0.316669 11.772 0)
(-0.26842 11.884 0)
(-0.220946 11.9783 0)
(-0.1728 12.0246 0)
(-0.125084 12.0178 0)
(-0.0773774 11.9281 0)
(-0.0370056 11.5371 0)
(-0.00454734 10.0671 0)
(-7.17052e-05 10.0042 0)
(0.0015062 10.0026 0)
(0.00180584 10.0011 0)
(0.000825268 10.0002 2.05441e-19)
(-0.00322805 10.0056 0)
(-0.00815138 10.0066 0)
(-0.0151801 10.0071 0)
(-0.0248143 10.0071 0)
(-0.0376942 10.0067 0)
(-0.0545791 10.0064 0)
(-0.0763189 10.0066 0)
(-0.103797 10.0083 0)
(-0.137843 10.0128 0)
(-0.179085 10.0221 0)
(-0.227763 10.0386 0)
(-0.28343 10.0654 0)
(-0.34459 10.1065 0)
(-0.408397 10.1654 0)
(-0.471412 10.2432 0)
(-0.530482 10.3392 0)
(-0.58171 10.4532 0)
(-0.621125 10.584 0)
(-0.645025 10.729 0)
(-0.650268 10.8849 0)
(-0.631969 11.0489 0)
(-0.594751 11.2127 0)
(-0.549851 11.3708 0)
(-0.499589 11.5225 0)
(-0.446012 11.6666 0)
(-0.390855 11.8004 0)
(-0.337611 11.9361 0)
(-0.285705 12.0662 0)
(-0.233357 12.1602 0)
(-0.181192 12.2064 0)
(-0.130579 12.1983 0)
(-0.080798 12.1009 0)
(-0.0387656 11.6806 0)
(-0.00578669 10.1538 0)
(-0.00328461 10.0053 0)
(-0.000139477 10.004 0)
(0.00140519 10.0025 9.17675e-19)
(0.00171148 10.001 -6.50956e-19)
(0.000778603 10.0001 -4.09734e-19)
(-0.00815473 10.0061 0)
(-0.0151124 10.0063 0)
(-0.024641 10.0059 0)
(-0.0373759 10.0049 0)
(-0.0540813 10.0036 0)
(-0.0756285 10.0025 0)
(-0.10295 10.0023 0)
(-0.136972 10.0041 0)
(-0.178496 10.0097 0)
(-0.228043 10.0212 0)
(-0.285598 10.0417 0)
(-0.350292 10.0747 0)
(-0.42003 10.1243 0)
(-0.491159 10.1943 0)
(-0.559551 10.2854 0)
(-0.621659 10.3959 0)
(-0.673254 10.525 0)
(-0.710235 10.6707 0)
(-0.729 10.8298 0)
(-0.726725 10.9983 0)
(-0.698716 11.1731 0)
(-0.650932 11.3453 0)
(-0.596191 11.5096 0)
(-0.537104 11.6656 0)
(-0.475857 11.8122 0)
(-0.416849 11.9642 0)
(-0.3594 12.1175 0)
(-0.301624 12.246 0)
(-0.244622 12.3379 0)
(-0.188719 12.3823 0)
(-0.135423 12.3715 0)
(-0.0838159 12.2653 0)
(-0.0402431 11.817 0)
(-0.00686105 10.2388 0)
(-0.00816311 10.0057 0)
(-0.00329394 10.005 -1.96133e-18)
(-0.000193822 10.0037 -9.68009e-19)
(0.00130866 10.0023 4.57813e-19)
(0.00162001 10.0009 -4.32673e-19)
(0.000734232 10.0001 0)
(-0.0150315 10.0056 0)
(-0.0244519 10.0048 0)
(-0.0370352 10.0033 0)
(-0.0535422 10.0012 0)
(-0.0748548 9.99884 0)
(-0.101938 9.99691 0)
(-0.135784 9.99635 0)
(-0.177323 9.99861 0)
(-0.227292 10.0057 0)
(-0.286024 10.0203 0)
(-0.353165 10.0458 0)
(-0.427347 10.0861 0)
(-0.505739 10.1456 0)
(-0.5838 10.2283 0)
(-0.656715 10.3339 0)
(-0.720628 10.46 0)
(-0.771078 10.6048 0)
(-0.803973 10.7657 0)
(-0.815967 10.9387 0)
(-0.804699 11.1191 0)
(-0.765776 11.3036 0)
(-0.70661 11.4831 0)
(-0.641567 11.6523 0)
(-0.573443 11.8111 0)
(-0.507731 11.976 0)
(-0.443855 12.1454 0)
(-0.379419 12.2967 0)
(-0.31603 12.4218 0)
(-0.254644 12.51 0)
(-0.19534 12.5514 0)
(-0.139608 12.5366 0)
(-0.0864214 12.4212 0)
(-0.0414611 11.9464 0)
(-0.00777539 10.3212 0)
(-0.0149685 10.005 0)
(-0.00807686 10.0052 4.13616e-18)
(-0.00324117 10.0045 0)
(-0.0002454 10.0034 9.65544e-19)
(0.00121829 10.0021 1.26847e-22)
(0.00153223 10.0008 0)
(0.000692141 10.0001 0)
(-0.0242532 10.0039 0)
(-0.0366833 10.0018 0)
(-0.0529843 9.99901 0)
(-0.0740375 9.99561 0)
(-0.100826 9.99216 0)
(-0.13439 9.98947 0)
(-0.175748 9.98877 0)
(-0.225804 9.99185 0)
(-0.28516 10.0011 0)
(-0.353884 10.0196 0)
(-0.431213 10.0512 0)
(-0.515142 10.1001 0)
(-0.602013 10.1712 0)
(-0.686326 10.268 0)
(-0.762615 10.3895 0)
(-0.826834 10.532 0)
(-0.874426 10.6931 0)
(-0.901469 10.869 0)
(-0.905032 11.0553 0)
(-0.883356 11.2468 0)
(-0.832452 11.4398 0)
(-0.761242 11.6253 0)
(-0.685557 11.7977 0)
(-0.61225 11.9751 0)
(-0.540838 12.1575 0)
(-0.468625 12.3246 0)
(-0.39751 12.4718 0)
(-0.328837 12.5921 0)
(-0.263407 12.6757 0)
(-0.20106 12.7131 0)
(-0.143159 12.6935 0)
(-0.0886268 12.5684 0)
(-0.0424468 12.0685 0)
(-0.00854194 10.4004 0)
(-0.0240905 10.003 0)
(-0.0147437 10.0043 5.50643e-22)
(-0.0078517 10.0046 0)
(-0.00318988 10.0041 -1.01811e-18)
(-0.0002876 10.0032 6.92322e-23)
(0.00113385 10.002 0)
(0.00144799 10.0008 0)
(0.000652319 10.0001 0)
(-0.0363267 10.0006 0)
(-0.052421 9.99709 0)
(-0.0732053 9.99276 0)
(-0.0996671 9.98796 0)
(-0.132876 9.98337 0)
(-0.173916 9.98003 0)
(-0.22381 9.9795 0)
(-0.28337 9.98391 0)
(-0.352998 9.99607 0)
(-0.432432 10.0195 0)
(-0.520372 10.0585 0)
(-0.614078 10.1176 0)
(-0.708971 10.2017 0)
(-0.798546 10.3141 0)
(-0.876762 10.4527 0)
(-0.939545 10.6123 0)
(-0.982408 10.7897 0)
(-1.00177 10.9805 0)
(-0.995265 11.1793 0)
(-0.961867 11.3806 0)
(-0.898063 11.5809 0)
(-0.814295 11.7705 0)
(-0.732574 11.962 0)
(-0.65258 12.1571 0)
(-0.571207 12.3372 0)
(-0.490995 12.5 0)
(-0.41359 12.6417 0)
(-0.340038 12.7561 0)
(-0.270946 12.8344 0)
(-0.205915 12.8669 0)
(-0.146111 12.8418 0)
(-0.0904546 12.7071 0)
(-0.0432283 12.1834 0)
(-0.00917631 10.4759 0)
(-0.0360305 9.99946 0)
(-0.0236725 10.0021 -2.29807e-18)
(-0.0142651 10.0035 0)
(-0.00763581 10.004 0)
(-0.00312429 10.0037 3.04516e-18)
(-0.000320568 10.0029 0)
(0.00105548 10.0018 0)
(0.00136746 10.0007 8.55573e-19)
(0.000614763 10.0001 0)
(-0.0518589 9.9954 0)
(-0.0723746 9.99023 0)
(-0.098497 9.98424 0)
(-0.131307 9.97796 0)
(-0.171933 9.97228 0)
(-0.221488 9.96852 0)
(-0.28094 9.96857 0)
(-0.350952 9.97497 0)
(-0.431668 9.99098 0)
(-0.522378 10.0206 0)
(-0.621143 10.0684 0)
(-0.724389 10.1392 0)
(-0.82654 10.2379 0)
(-0.920066 10.3674 0)
(-0.998477 10.5239 0)
(-1.05787 10.7012 0)
(-1.09402 10.8949 0)
(-1.10385 11.0997 0)
(-1.08573 11.31 0)
(-1.03944 11.5199 0)
(-0.961954 11.7255 0)
(-0.871084 11.935 0)
(-0.781489 12.1449 0)
(-0.689599 12.3378 0)
(-0.598645 12.5133 0)
(-0.510888 12.6702 0)
(-0.427666 12.8054 0)
(-0.349685 12.9133 0)
(-0.27733 12.9855 0)
(-0.209965 13.0127 0)
(-0.148518 12.9816 0)
(-0.0919369 12.8374 0)
(-0.0438334 12.2912 0)
(-0.00969537 10.5475 0)
(-0.0513904 9.9939 0)
(-0.0353507 9.9982 0)
(-0.0228351 10.001 -2.39145e-18)
(-0.0138088 10.0027 -2.26306e-18)
(-0.00739904 10.0034 -4.28009e-18)
(-0.0030443 10.0033 0)
(-0.000344281 10.0026 -1.91122e-18)
(0.000983334 10.0017 -1.8046e-18)
(0.0012906 10.0007 8.51503e-19)
(0.000579383 10.0001 0)
(-0.071552 9.98799 0)
(-0.0973359 9.98095 0)
(-0.12973 9.97317 0)
(-0.169884 9.9654 0)
(-0.218976 9.95876 0)
(-0.278093 9.95491 0)
(-0.348097 9.95612 0)
(-0.429457 9.96535 0)
(-0.521948 9.98631 0)
(-0.624311 10.0234 0)
(-0.733869 10.0816 0)
(-0.846124 10.1658 0)
(-0.954441 10.2806 0)
(-1.05029 10.4283 0)
(-1.12691 10.6037 0)
(-1.18079 10.7987 0)
(-1.20817 11.0083 0)
(-1.20666 11.2263 0)
(-1.17549 11.4468 0)
(-1.11527 11.6635 0)
(-1.03058 11.8901 0)
(-0.930295 12.1187 0)
(-0.826438 12.3267 0)
(-0.72307 12.5151 0)
(-0.62307 12.6846 0)
(-0.528321 12.8345 0)
(-0.439809 12.9624 0)
(-0.357871 13.0631 0)
(-0.282647 13.1288 0)
(-0.213282 13.1502 0)
(-0.150436 13.113 0)
(-0.0931093 12.9594 0)
(-0.044288 12.3921 0)
(-0.0101149 10.6151 0)
(-0.070867 9.98601 0)
(-0.0503646 9.99225 -2.55504e-18)
(-0.0340196 9.99682 2.51909e-18)
(-0.0220417 10 -1.21816e-21)
(-0.013323 10.002 2.25534e-18)
(-0.00714145 10.0029 2.13255e-18)
(-0.0029503 10.003 4.02977e-18)
(-0.000358581 10.0024 2.85413e-18)
(0.000917413 10.0016 -8.97975e-19)
(0.00121752 10.0006 0)
(0.000546152 10.0001 0)
(-0.0961909 9.97803 0)
(-0.128169 9.96892 0)
(-0.167828 9.95929 0)
(-0.216378 9.9501 0)
(-0.274999 9.94276 0)
(-0.344708 9.9393 0)
(-0.426227 9.94239 0)
(-0.519722 9.95545 0)
(-0.624507 9.98264 0)
(-0.73868 10.0288 0)
(-0.858722 10.0989 0)
(-0.979128 10.1982 0)
(-1.09219 10.3307 0)
(-1.18843 10.4977 0)
(-1.26104 10.6923 0)
(-1.30719 10.905 0)
(-1.32373 11.1297 0)
(-1.30916 11.3599 0)
(-1.26362 11.5887 0)
(-1.19709 11.8277 0)
(-1.10242 12.0748 0)
(-0.984856 12.3021 0)
(-0.867131 12.5057 0)
(-0.752892 12.6879 0)
(-0.644503 12.85 0)
(-0.543384 12.9921 0)
(-0.450132 13.1121 0)
(-0.364711 13.2053 0)
(-0.287 13.2642 0)
(-0.215943 13.2797 0)
(-0.151925 13.2363 0)
(-0.0940113 13.0735 0)
(-0.0446149 12.4864 0)
(-0.01045 10.6787 0)
(-0.0952404 9.97544 0)
(-0.0693937 9.98388 -3.49536e-21)
(-0.0483718 9.99047 0)
(-0.032766 9.99548 -1.92266e-21)
(-0.021207 9.99901 0)
(-0.0128071 10.0012 -2.24719e-18)
(-0.0068636 10.0023 -4.24757e-18)
(-0.00284248 10.0026 1.08676e-22)
(-0.00036355 10.0022 1.89341e-18)
(0.000857762 10.0014 -8.93189e-19)
(0.00114823 10.0005 8.42262e-19)
(0.000515018 10.0001 0)
(-0.126633 9.96515 0)
(-0.165795 9.95387 0)
(-0.213771 9.9424 0)
(-0.271791 9.93196 0)
(-0.340998 9.92431 0)
(-0.422313 9.92187 0)
(-0.516215 9.92775 0)
(-0.622488 9.94584 0)
(-0.73989 9.98072 0)
(-0.865771 10.0375 0)
(-0.995673 10.1214 0)
(-1.12304 10.2374 0)
(-1.23908 10.3888 0)
(-1.33352 10.576 0)
(-1.39974 10.7901 0)
(-1.43585 11.0199 0)
(-1.43956 11.2587 0)
(-1.41031 11.4992 0)
(-1.35915 11.752 0)
(-1.28311 12.0131 0)
(-1.16887 12.26 0)
(-1.03441 12.4833 0)
(-0.903467 12.6804 0)
(-0.779094 12.8549 0)
(-0.663052 13.0089 0)
(-0.556217 13.1426 0)
(-0.458777 13.2543 0)
(-0.370333 13.3397 0)
(-0.290494 13.3918 0)
(-0.218027 13.4011 0)
(-0.153041 13.3516 0)
(-0.0946794 13.1801 0)
(-0.0448347 12.5743 0)
(-0.010714 10.7383 0)
(-0.125365 9.96181 0)
(-0.093198 9.9727 2.8335e-18)
(-0.0665316 9.98161 -2.79992e-18)
(-0.0465048 9.98876 2.64667e-18)
(-0.0314562 9.99419 0)
(-0.0203299 9.99805 0)
(-0.012263 10.0005 2.23793e-18)
(-0.00656605 10.0018 -2.11389e-18)
(-0.00272095 10.0022 1.33847e-22)
(-0.000359155 10.0019 9.41741e-19)
(0.000804324 10.0013 -8.88144e-19)
(0.00108271 10.0005 -8.36339e-19)
(0.000486093 10.0001 0)
(-0.163795 9.94907 0)
(-0.21119 9.93557 0)
(-0.268564 9.92235 0)
(-0.337132 9.91097 0)
(-0.417978 9.90356 0)
(-0.511835 9.90295 0)
(-0.618868 9.91272 0)
(-0.738388 9.93722 0)
(-0.868494 9.9814 0)
(-1.00568 10.0506 0)
(-1.14449 10.1501 0)
(-1.27727 10.2842 0)
(-1.39425 10.4557 0)
(-1.48446 10.6637 0)
(-1.54179 10.897 0)
(-1.56558 11.1433 0)
(-1.55451 11.3946 0)
(-1.52056 11.6608 0)
(-1.46012 11.9377 0)
(-1.36306 12.2003 0)
(-1.22946 12.4439 0)
(-1.07881 12.6606 0)
(-0.93548 12.8498 0)
(-0.801797 13.0156 0)
(-0.678878 13.1606 0)
(-0.566992 13.2855 0)
(-0.465903 13.3888 0)
(-0.37487 13.4664 0)
(-0.293233 13.5116 0)
(-0.219611 13.5149 0)
(-0.153838 13.4593 0)
(-0.0951487 13.2794 0)
(-0.0449661 12.6561 0)
(-0.010919 10.794 0)
(-0.162154 9.94481 0)
(-0.122611 9.95832 0)
(-0.0892141 9.96984 2.94489e-18)
(-0.0638629 9.97944 -5.58499e-18)
(-0.0445622 9.98712 5.2824e-18)
(-0.0300881 9.99297 -4.99415e-18)
(-0.0194139 9.99714 0)
(-0.0116915 9.99986 2.22845e-18)
(-0.00624938 10.0014 -2.1033e-18)
(-0.00258561 10.0019 -1.98532e-18)
(-0.000345545 10.0017 0)
(0.000756933 10.0012 8.81871e-19)
(0.00102133 10.0005 0)
(0.000459936 10 0)
(-0.208649 9.9295 0)
(-0.265361 9.91382 0)
(-0.333226 9.8991 0)
(-0.413424 9.88724 0)
(-0.506901 9.88078 0)
(-0.614136 9.88301 0)
(-0.734896 9.89798 0)
(-0.867919 9.93044 0)
(-1.01054 9.98568 0)
(-1.15831 10.0691 0)
(-1.30472 10.1858 0)
(-1.44107 10.3395 0)
(-1.55665 10.5321 0)
(-1.64003 10.761 0)
(-1.6859 11.0132 0)
(-1.6951 11.2744 0)
(-1.68057 11.5534 0)
(-1.63782 11.846 0)
(-1.55453 12.1264 0)
(-1.43633 12.3871 0)
(-1.28395 12.6246 0)
(-1.11805 12.8331 0)
(-0.963312 13.013 0)
(-0.821211 13.1693 0)
(-0.692189 13.305 0)
(-0.5759 13.4209 0)
(-0.471674 13.5157 0)
(-0.378454 13.5856 0)
(-0.295319 13.6239 0)
(-0.220765 13.6212 0)
(-0.154366 13.5597 0)
(-0.09545 13.3718 0)
(-0.0450253 12.7322 0)
(-0.0110745 10.8459 0)
(-0.206582 9.92411 0)
(-0.158526 9.9404 0)
(-0.117205 9.95475 0)
(-0.0855191 9.96712 5.87362e-18)
(-0.0610958 9.97738 -5.55894e-18)
(-0.0425426 9.98557 5.25683e-18)
(-0.0286685 9.9918 0)
(-0.0184606 9.99628 -2.34703e-18)
(-0.011093 9.99923 0)
(-0.00591381 10.0009 2.09189e-18)
(-0.00243812 10.0016 0)
(-0.000321858 10.0015 0)
(0.000715523 10.0011 0)
(0.000965323 10.0004 8.5253e-19)
(0.000436679 10 4.10644e-19)
(-0.262206 9.90623 0)
(-0.329337 9.88854 0)
(-0.408798 9.87269 0)
(-0.501664 9.86099 0)
(-0.608679 9.8564 0)
(-0.729996 9.86269 0)
(-0.864889 9.88435 0)
(-1.01141 9.92651 0)
(-1.16605 9.99465 0)
(-1.32335 10.0942 0)
(-1.47573 10.2297 0)
(-1.61349 10.4043 0)
(-1.72511 10.6184 0)
(-1.79893 10.8682 0)
(-1.83076 11.1381 0)
(-1.83815 11.4292 0)
(-1.8156 11.7373 0)
(-1.7482 12.0359 0)
(-1.64158 12.3161 0)
(-1.50256 12.5718 0)
(-1.33229 12.8011 0)
(-1.15227 12.9997 0)
(-0.987189 13.1694 0)
(-0.837591 13.3157 0)
(-0.703218 13.4417 0)
(-0.583142 13.5485 0)
(-0.476254 13.6349 0)
(-0.38121 13.6973 0)
(-0.296847 13.729 0)
(-0.221556 13.7205 0)
(-0.154669 13.6533 0)
(-0.0956123 13.4578 0)
(-0.0450258 12.8029 0)
(-0.0111881 10.8943 0)
(-0.259665 9.8995 0)
(-0.201896 9.9186 0)
(-0.151351 9.93595 6.54749e-18)
(-0.112218 9.95135 6.20082e-18)
(-0.0816959 9.96453 5.86601e-18)
(-0.058229 9.97543 -5.54625e-18)
(-0.0404558 9.9841 0)
(-0.0271991 9.99071 0)
(-0.017471 9.99547 0)
(-0.0104689 9.99864 4.41018e-18)
(-0.00556054 10.0005 2.08e-18)
(-0.00227781 10.0013 1.9595e-18)
(-0.000289796 10.0014 0)
(0.000680864 10.001 -8.98861e-19)
(0.00091492 10.0004 -4.33724e-19)
(0.000415941 10 0)
(-0.325497 9.87914 0)
(-0.404168 9.85974 0)
(-0.496302 9.84333 0)
(-0.602801 9.8326 0)
(-0.72415 9.83102 0)
(-0.860087 9.84279 0)
(-1.00929 9.87283 0)
(-1.16903 9.92654 0)
(-1.33485 10.0095 0)
(-1.50028 10.1269 0)
(-1.65668 10.2827 0)
(-1.79341 10.4791 0)
(-1.89837 10.7153 0)
(-1.95982 10.9851 0)
(-1.99199 11.2873 0)
(-1.99261 11.6105 0)
(-1.94375 11.9277 0)
(-1.85075 12.2283 0)
(-1.72081 12.5049 0)
(-1.56167 12.7531 0)
(-1.3746 12.9723 0)
(-1.18171 13.1598 0)
(-1.0074 13.3185 0)
(-0.851213 13.4544 0)
(-0.712205 13.5708 0)
(-0.588913 13.6687 0)
(-0.479799 13.7469 0)
(-0.383256 13.8018 0)
(-0.297901 13.8271 0)
(-0.222042 13.813 0)
(-0.154788 13.7403 0)
(-0.0956598 13.5377 0)
(-0.0449778 12.8686 0)
(-0.0112697 10.9393 0)
(-0.322442 9.8708 0)
(-0.253711 9.89263 0)
(-0.192544 9.9131 -1.37759e-17)
(-0.144756 9.93174 1.75456e-20)
(-0.107063 9.94814 -1.23488e-17)