/*--------------------------------*- C++ -*----------------------------------*\
  =========                 |
  \\      /  F ield         | OpenFOAM: The Open Source CFD Toolbox
   \\    /   O peration     | Website:  https://openfoam.org
    \\  /    A nd           | Version:  8
     \\/     M anipulation  |
\*---------------------------------------------------------------------------*/
FoamFile
{
    version     2.0;
    format      ascii;
    class       volScalarField;
    location    "0.22";
    object      epsilon;
}
// * * * * * * * * * * * * * * * * * * * * * * * * * * * * * * * * * * * * * //

dimensions      [0 2 -3 0 0 0 0];

internalField   nonuniform List<scalar> 
15677
(
59.7003
18.3535
52.6122
8.08764
25.8887
50.162
4.62722
13.2619
31.5741
50.4817
3.17784
7.72265
17.0788
37.2617
51.5979
2.48949
5.04242
10.0235
20.8056
42.6337
53.6525
2.14571
3.62249
6.4605
12.1575
24.5334
47.6444
55.7176
1.97986
2.8208
4.52362
7.72126
14.2696
28.241
52.0027
57.6516
1.91169
2.35296
3.40097
5.3082
8.91189
16.4156
31.7406
55.6817
59.3511
1.88416
2.08028
2.72279
3.90785
6.01908
10.1005
18.5253
34.9357
58.6988
60.8497
1.87055
1.9394
2.30686
3.05465
4.3561
6.70383
11.267
20.5551
37.7531
61.1708
62.1161
1.86765
1.87831
2.05634
2.52061
3.34679
4.77413
7.35932
12.4096
22.4442
40.2112
63.1605
63.2273
1.86862
1.84885
1.91652
2.18582
2.7117
3.61374
5.16293
7.99621
13.4957
24.1851
42.3024
64.7821
64.1534
1.86953
1.8387
1.85192
1.98254
2.3064
2.88548
3.85657
5.53304
8.59946
14.5248
25.744
44.0864
66.0822
64.9869
1.86976
1.83698
1.82112
1.86771
2.05113
2.41761
3.04181
4.08288
5.87816
9.17357
15.4717
27.1386
45.5728
67.1356
65.713
1.86976
1.83725
1.81049
1.81333
1.89808
2.1172
2.51798
3.18534
4.29025
6.20357
9.70417
16.3439
28.3517
46.8225
67.9946
66.3554
1.86971
1.83752
1.80818
1.78977
1.81537
1.93019
2.1783
2.6097
3.31506
4.48289
6.50179
10.197
17.1219
29.4075
47.8571
68.6929
66.9436
1.86969
1.83763
1.80788
1.78275
1.77568
1.82145
1.96212
2.23475
2.6921
3.43391
4.65725
6.77726
10.6395
17.8176
30.3022
48.7025
69.2901
67.4445
1.86967
1.83765
1.80789
1.78104
1.76143
1.76613
1.83163
1.99286
2.2857
2.7669
3.54025
4.81656
7.02308
11.0395
18.4171
31.0553
49.3973
69.7612
67.9525
1.86966
1.83765
1.80791
1.78072
1.75695
1.74392
1.76033
1.84301
2.02124
2.33192
2.83334
3.63631
4.95719
7.2445
11.3855
18.9348
31.6722
49.938
70.2055
68.3475
1.86966
1.83764
1.8079
1.78069
1.75567
1.7359
1.72948
1.75736
1.85434
2.04736
2.37297
2.89284
3.72032
5.08256
7.43482
11.687
19.3596
32.1672
50.385
70.5316
68.8207
1.86966
1.83764
1.80788
1.78068
1.75535
1.7332
1.71726
1.718
1.75579
1.86548
2.07083
2.4096
2.94461
3.79442
5.18932
7.60009
11.9337
19.7101
32.5527
50.7024
70.8985
69.1346
1.86966
1.83763
1.80786
1.78067
1.75526
1.73237
1.71263
1.70132
1.70843
1.7557
1.87588
2.09188
2.44152
2.98999
3.85718
5.28116
7.73439
12.1386
19.975
32.8381
50.9728
71.1382
69.6049
1.86966
1.83763
1.80785
1.78064
1.75522
1.73213
1.711
1.69452
1.68722
1.70085
1.75602
1.88548
2.11045
2.46955
3.02852
3.91082
5.35534
7.84498
12.2907
20.1794
33.0406
51.1379
71.4823
69.861
1.86966
1.83762
1.80784
1.78062
1.75518
1.73204
1.71045
1.69192
1.67797
1.67535
1.69458
1.7568
1.89435
2.12703
2.49365
3.06153
3.95437
5.41598
7.92699
12.4087
20.3086
33.1645
51.2826
71.6791
70.3325
1.86967
1.83762
1.80784
1.7806
1.75515
1.73198
1.71025
1.69097
1.67416
1.66375
1.66488
1.68957
1.7583
1.90264
2.1417
2.51474
3.08909
3.99049
5.4616
7.98927
12.4784
20.3945
33.235
51.3683
72.0603
70.5814
1.86967
1.83761
1.80783
1.78059
1.75513
1.73193
1.71015
1.6906
1.67266
1.65872
1.65073
1.65639
1.68597
1.76019
1.91061
2.15529
2.5333
3.11274
4.01865
5.49605
8.0269
12.5258
20.4186
33.2372
51.4185
72.3517
430.217
1.86967
1.83761
1.80783
1.78057
1.75511
1.73189
1.71007
1.69042
1.67206
1.65661
1.64432
1.64019
1.64916
1.68332
1.76318
1.91891
2.16815
2.55025
3.13283
4.04165
5.5196
8.05157
12.5312
20.4078
33.2201
51.5173
88.5864
722.506
1.86967
1.8376
1.80783
1.78056
1.75509
1.73185
1.71002
1.69031
1.67178
1.65571
1.64153
1.63256
1.63059
1.64422
1.68332
1.76748
1.92788
2.18131
2.56656
3.15144
4.06045
5.53632
8.05789
12.5221
20.3781
33.1832
52.3979
121.8
1010.42
1.86968
1.8376
1.80783
1.78055
1.75508
1.73182
1.70997
1.69022
1.67162
1.65529
1.64032
1.62906
1.62166
1.62425
1.64081
1.6847
1.77353
1.93853
2.19562
2.58364
3.16944
4.07716
5.547
8.05533
12.5003
20.3219
33.19
54.878
157.551
1267.52
1.86968
1.8376
1.80783
1.78054
1.75507
1.7318
1.70993
1.69015
1.67151
1.65505
1.63975
1.62745
1.61751
1.61424
1.6186
1.64129
1.68839
1.78224
1.95161
2.21228
2.60235
3.1885
4.09304
5.55446
8.04883
12.4629
20.2625
33.2601
59.3718
190.565
1507.51
1.86968
1.83759
1.80784
1.78053
1.75507
1.73177
1.7099
1.6901
1.67141
1.65489
1.63943
1.62666
1.61558
1.60936
1.60766
1.61827
1.64385
1.69566
1.79444
1.96828
2.23222
2.62433
3.20983
4.11049
5.56189
8.03744
12.4241
20.2
33.4754
64.0383
222.03
1714.48
1.86968
1.83759
1.80784
1.78052
1.75506
1.73175
1.70988
1.69005
1.67134
1.65476
1.63921
1.62623
1.61462
1.60698
1.60237
1.60625
1.62021
1.64978
1.70739
1.81131
1.98956
2.25703
2.65066
3.23551
4.13087
5.57141
8.02845
12.3837
20.1302
33.8952
68.7784
249.961
1874.75
1.86968
1.83759
1.80784
1.78052
1.75506
1.73173
1.70986
1.69
1.67127
1.65466
1.63904
1.62595
1.61408
1.60578
1.59978
1.60024
1.60799
1.62562
1.66111
1.72459
1.83388
2.01695
2.28773
2.68314
3.26643
4.15673
5.58576
8.02138
12.3441
20.069
34.4098
73.096
271.802
2001.68
1.86969
1.83758
1.80784
1.78051
1.75506
1.73172
1.70985
1.68996
1.67122
1.65457
1.63891
1.62574
1.61372
1.60511
1.59844
1.59727
1.60188
1.61323
1.63645
1.67866
1.74834
1.86365
2.05149
2.32599
2.72266
3.30485
4.18902
5.60643
8.02172
12.3046
20.0138
34.9126
76.426
289.205
2105.79
1.83758
1.86972
1.80785
1.7805
1.75506
1.7317
1.70984
1.68993
1.67118
1.6545
1.63879
1.62557
1.61345
1.60469
1.59768
1.59575
1.59888
1.6071
1.62393
1.65442
1.70345
1.78024
1.90176
2.09494
2.37282
2.77115
3.35129
4.22989
5.63434
8.02523
12.264
19.9575
35.2803
78.982
303.369
2194.4
1.80785
1.83768
1.8698
1.7805
1.75506
1.73169
1.70983
1.68989
1.67115
1.65443
1.63869
1.62543
1.61322
1.60438
1.59718
1.59492
1.59736
1.60414
1.61786
1.6424
1.68026
1.73712
1.82142
1.94994
2.14817
2.42988
2.82919
3.40787
4.27907
5.67019
8.03512
12.2237
19.8947
35.5361
80.9143
315.403
2272.59
1.78049
1.80801
1.83787
1.86987
1.75506
1.73168
1.70982
1.68986
1.67112
1.65436
1.63861
1.6253
1.61303
1.60413
1.5968
1.5944
1.59656
1.60273
1.61508
1.63689
1.66925
1.71571
1.78104
1.87377
2.00925
2.21293
2.49802
2.89866
3.47407
4.33796
5.7189
8.056
12.1923
19.8258
35.6734
82.4328
325.845
2343.33
1.75506
1.7807
1.80833
1.83808
1.86995
1.73166
1.70982
1.68984
1.6711
1.65431
1.63855
1.62519
1.61287
1.60393
1.59649
1.59403
1.59608
1.60205
1.6139
1.63473
1.66479
1.70645
1.76235
1.83741
1.93866
2.08176
2.28991
2.57863
2.97914
3.55155
4.41368
5.78484
8.08841
12.1665
19.7491
35.7481
83.6215
335.294
2408.9
1.73165
1.75532
1.78111
1.80866
1.83828
1.87003
1.70982
1.68981
1.67109
1.65425
1.6385
1.62509
1.61274
1.60375
1.59624
1.59374
1.59575
1.6017
1.6135
1.6342
1.66371
1.70387
1.75598
1.82279
1.90781
2.01859
2.16843
2.38109
2.67174
3.07235
3.64913
4.51195
5.86365
8.13015
12.1503
19.6714
35.7448
84.6168
343.897
2470.18
1.70981
1.73194
1.75584
1.78154
1.809
1.8385
1.87011
1.68979
1.67107
1.6542
1.63846
1.625
1.61263
1.6036
1.59602
1.59351
1.5955
1.60149
1.61341
1.6344
1.66419
1.70438
1.75568
1.82005
1.89876
1.99538
2.11492
2.27174
2.48704
2.77846
3.18883
3.77402
4.62398
5.95346
8.18164
12.1397
19.593
35.7246
85.4417
351.984
2528.35
1.68977
1.71015
1.73253
1.75637
1.78199
1.80934
1.83872
1.87019
1.67106
1.65416
1.63842
1.62491
1.61254
1.60346
1.59583
1.59331
1.5953
1.60135
1.61345
1.63489
1.66542
1.70663
1.75878
1.82339
1.90061
1.99263
2.10096
2.23105
2.39256
2.60967
2.91284
3.33558
3.91314
4.74866
6.05315
8.24134
12.1404
19.5198
35.6809
86.1809
359.531
2583.34
1.67105
1.69012
1.71083
1.73314
1.75692
1.78244
1.8097
1.83895
1.87028
1.65412
1.6384
1.62483
1.61247
1.60334
1.59566
1.59315
1.59514
1.60125
1.61355
1.63546
1.66687
1.70962
1.76368
1.83039
1.90926
2.00146
2.1064
2.22722
2.36649
2.53387
2.76513
3.08425
3.50046
4.06636
4.88412
6.16161
8.30887
12.1452
19.4515
35.6228
86.8248
366.75
2636.04
1.65409
1.67144
1.69084
1.71152
1.73377
1.75749
1.78291
1.81007
1.83918
1.87036
1.63838
1.62476
1.61241
1.60322
1.59553
1.59301
1.595
1.60119
1.61367
1.63604
1.66834
1.71272
1.7693
1.83939
1.9218
2.01757
2.12468
2.24435
2.37551
2.52384
2.71294
2.96542
3.27847
3.68333
4.23255
5.02914
6.27748
8.38287
12.1558
19.3914
35.5592
87.4336
373.55
2685.88
1.63836
1.65446
1.67224
1.69159
1.71224
1.73441
1.75807
1.78339
1.81044
1.83942
1.87045
1.62469
1.61237
1.60311
1.59542
1.59289
1.59489
1.60114
1.61381
1.63659
1.66976
1.71572
1.77489
1.84917
1.93665
2.03809
2.15092
2.27537
2.40778
2.55039
2.72364
2.94139
3.19407
3.4958
3.88269
4.4107
5.1824
6.39955
8.46199
12.1746
19.3382
35.5002
87.9846
380.098
2733.78
1.62463
1.63877
1.65527
1.67306
1.69236
1.71298
1.73508
1.75866
1.78388
1.81083
1.83966
1.87054
1.61234
1.603
1.59533
1.59278
1.5948
1.60111
1.61395
1.63712
1.67111
1.71854
1.78025
1.85877
1.95239
2.06159
2.18246
2.3156
2.45538
2.60233
2.77487
2.98348
3.20068
3.44601
3.73486
4.09831
4.59981
5.34263
6.52631
8.54539
12.1988
19.2933
35.4451
88.5229
386.273
2778.9
1.61232
1.62499
1.63963
1.6561
1.67391
1.69315
1.71374
1.73576
1.75927
1.78439
1.81122
1.83992
1.87063
1.60289
1.59527
1.59269
1.59471
1.60108
1.61408
1.63762
1.67237
1.72117
1.78532
1.86793
1.96777
2.08641
2.21804
2.3627
2.51416
2.67213
2.85438
3.07001
3.28348
3.49244
3.72052
3.99119
4.32849
4.79799
5.50806
6.65653
8.632
12.2278
19.2552
35.3979
89.0207
392.233
2822.29
1.6028
1.6127
1.62578
1.64052
1.65695
1.67478
1.69397
1.71452
1.73647
1.7599
1.78491
1.81163
1.84018
1.87073
1.59522
1.5926
1.59463
1.60106
1.61421
1.63807
1.67354
1.72361
1.79007
1.87655
1.98249
2.11082
2.25559
2.41575
2.58233
2.75641
2.9559
3.19032
3.41528
3.62488
3.81605
4.01752
4.26126
4.57042
5.0036
5.67786
6.78901
8.72087
12.2606
19.2246
35.3584
89.5137
397.836
2862.91
1.59521
1.60305
1.61352
1.6266
1.64143
1.65784
1.67567
1.69481
1.71532
1.73719
1.76054
1.78545
1.81204
1.84044
1.87081
1.5925
1.59456
1.60104
1.61432
1.63849
1.67462
1.72585
1.79449
1.88459
1.99647
2.13435
2.29268
2.47232
2.65954
2.85427
3.07738
3.34024
3.5895
3.81403
4.00872
4.1708
4.33597
4.54354
4.82115
5.2159
5.8506
6.92278
8.81109
12.2968
19.1998
35.3266
89.9754
403.252
2902
1.59241
1.59548
1.60364
1.61436
1.62745
1.64238
1.65876
1.67659
1.69568
1.71614
1.73794
1.7612
1.786
1.81245
1.84069
1.8709
1.59447
1.60101
1.61443
1.63888
1.67561
1.72791
1.79858
1.89206
2.00968
2.15679
2.32868
2.52906
2.74272
2.96622
3.21945
3.52041
3.80567
4.05911
4.27015
4.43614
4.55569
4.67371
4.83642
5.07566
5.43218
6.02487
7.05667
8.90184
12.3353
19.1818
35.3024
90.434
408.311
2938.31
1.59443
1.59236
1.59604
1.60423
1.61524
1.62834
1.64335
1.65971
1.67753
1.69658
1.71698
1.7387
1.76188
1.78654
1.81285
1.84093
1.87098
1.60098
1.61452
1.63924
1.67651
1.72979
1.80234
1.89897
2.02207
2.17799
2.36335
2.58498
2.82688
3.08869
3.38482
3.73518
4.06968
4.36647
4.60884
4.78884
4.90856
4.96968
5.02857
5.13884
5.33277
5.65006
6.199
7.18979
8.99237
12.3758
19.1678
35.284
90.8667
413.217
2973.32
1.601
1.59424
1.59225
1.59661
1.60487
1.61615
1.62927
1.64435
1.66069
1.6785
1.6975
1.71785
1.73949
1.76254
1.78707
1.81323
1.84116
1.87106
1.6146
1.63955
1.67733
1.73151
1.80579
1.90534
2.03363
2.1979
2.39659
2.63945
2.91034
3.21523
3.57029
3.9922
4.39337
4.75259
5.04419
5.25294
5.37727
5.428
5.41187
5.39856
5.44847
5.59115
5.8682
6.3724
7.32157
9.0821
12.4175
19.1597
35.2733
91.2939
417.759
3005.61
1.61475
1.60057
1.5938
1.5921
1.59726
1.60557
1.61709
1.63025
1.64537
1.66171
1.6795
1.69845
1.71873
1.74027
1.76319
1.78758
1.81361
1.84139
1.87114
1.63982
1.67806
1.73308
1.80895
1.91119
2.04437
2.21649
2.42825
2.69196
2.99241
3.34415
3.7668
4.28934
4.79564
5.24676
5.61467
5.8717
6.01083
6.04443
5.99698
5.88143
5.7818
5.76325
5.8493
6.08397
6.54447
7.45134
9.17051
12.4601
19.1539
35.2656
91.6988
422.188
3036.78
1.64018
1.61392
1.59945
1.59329
1.59206
1.59794
1.60633
1.61806
1.63127
1.64643
1.66277
1.68052
1.69943
1.71961
1.74103
1.76382
1.78809
1.81397
1.84162
1.87122
1.67869
1.73448
1.81183
1.91657
2.05431
2.2338
2.45826
2.74213
3.07274
3.47449
3.97035
4.61355
5.28379
5.89611
6.38514
6.72223
6.89026
6.90416
6.79939
6.61768
6.3774
6.17639
6.08124
6.10636
6.29513
6.71377
7.57844
9.25718
12.503
19.1535
35.2657
92.0957
426.254
3061.86
1.67942
1.63873
1.61165
1.59822
1.5929
1.59211
1.59864
1.60716
1.61906
1.63234
1.64751
1.66386
1.68156
1.7004
1.72046
1.74176
1.76444
1.78857
1.81433
1.84184
1.87129
1.73574
1.81442
1.9215
2.06347
2.24988
2.48655
2.78975
3.15109
3.60481
4.17796
4.96181
5.84878
6.73426
7.45279
7.92371
8.14712
8.13892
7.95102
7.64851
7.29083
6.89827
6.58037
6.40072
6.36142
6.50125
6.87928
7.70232
9.3417
12.5459
19.1547
35.2677
92.4706
429.707
3083.06
1.73707
1.67722
1.63467
1.60925
1.59717
1.59261
1.5923
1.59934
1.60808
1.62007
1.63346
1.64862
1.66498
1.6826
1.70134
1.72129
1.74248
1.76504
1.78905
1.81467
1.84205
1.87137
1.81676
1.92599
2.07189
2.26481
2.5131
2.83478
3.22721
3.73347
4.38764
5.33537
6.49426
7.75365
8.88224
9.63542
9.96537
9.9441
9.64265
9.16022
8.59308
8.0148
7.4417
6.99166
6.72008
6.61317
6.70189
7.04024
7.82251
9.42379
12.5884
19.1577
35.2723
92.787
432.555
3105.97
1.81911
1.73389
1.67072
1.63036
1.60713
1.59622
1.59237
1.59268
1.60004
1.60907
1.62112
1.63462
1.64976
1.6661
1.68361
1.70226
1.7221
1.74318
1.76562
1.78951
1.81501
1.84225
1.87144
1.93008
2.07959
2.27864
2.53794
2.87725
3.30079
3.85909
4.59894
5.73588
7.22216
8.95022
10.6437
11.9458
12.573
12.5746
12.1386
11.4068
10.5291
9.62842
8.78528
8.00451
7.40801
7.03778
6.86049
6.89663
7.19611
7.93863
9.50318
12.6303
19.1632
35.2795
93.0522
435.664
3131.1
1.93404
1.81472
1.72391
1.66391
1.62642
1.60516
1.59534
1.59206
1.59325
1.60074
1.61012
1.6222
1.63582
1.6509
1.66718
1.6846
1.70316
1.72289
1.74386
1.76618
1.78995
1.81533
1.84245
1.87147
2.08668
2.29141
2.5611
2.91728
3.37155
3.98082
4.81243
6.16341
8.02722
10.3104
12.709
14.7843
16.0857
16.3438
15.7765
14.728
13.4192
12.0449
10.7445
9.59562
8.58264
7.827
7.35237
7.10247
7.08512
7.34646
8.05043
9.57971
12.6713
19.1693
35.2865
93.3482
439.036
3158.44
2.09331
1.9281
1.7998
1.71358
1.65766
1.62272
1.60331
1.59454
1.59175
1.59393
1.60148
1.61124
1.62332
1.63701
1.65202
1.66824
1.68556
1.70402
1.72365
1.74451
1.76673
1.79039
1.81565
1.84255
1.87147
2.30329
2.58263
2.95497
3.43923
4.09833
5.02902
6.61579
8.89877
11.8109
15.0421
18.0954
20.3883
21.4152
20.9856
19.5652
17.6893
15.6545
13.6873
11.9278
10.4375
9.17149
8.24612
7.66248
7.33832
7.26702
7.49102
8.15771
9.65319
12.7059
19.1753
35.2959
93.6706
442.751
3188.59
2.31414
2.08553
1.90612
1.78453
1.70403
1.65172
1.61922
1.6016
1.59381
1.59152
1.59469
1.60228
1.61239
1.62446
1.63818
1.65311
1.66926
1.6865
1.70487
1.7244
1.74516
1.76726
1.79081
1.81581
1.84255
1.87147
2.60278
2.99039
3.50368
4.21174
5.24941
7.08904
9.82356
13.4244
17.5979
21.8176
25.3958
27.6279
28.0071
26.5031
23.9122
20.9853
18.0801
15.4323
13.1625
11.3016
9.76616
8.66292
7.96683
7.56734
7.44212
7.62968
8.26042
9.71434
12.7359
19.1829
35.3078
94.0354
446.775
3221.43
2.62075
2.30392
2.05347
1.88392
1.77038
1.69493
1.64603
1.61591
1.60002
1.59316
1.59138
1.59552
1.60314
1.61354
1.62559
1.63931
1.65418
1.67026
1.68742
1.70569
1.72513
1.74578
1.76778
1.79102
1.81581
1.84255
1.87147
3.02387
3.56491
4.32149
5.47377
7.57789
10.7876
15.1235
20.3289
25.8769
31.0121
34.8595
36.6304
35.8924
32.8704
28.771
24.5703
20.6597
17.2545
14.4325
12.1787
10.3618
9.07498
8.26424
7.78901
7.61026
7.76214
8.34589
9.76672
12.7693
19.1925
35.3239
94.4337
451.224
3257.76
3.0533
2.60756
2.25726
2.02153
1.86332
1.75685
1.68616
1.64059
1.61281
1.59856
1.59262
1.59135
1.59638
1.60407
1.61465
1.62671
1.64041
1.65523
1.67123
1.68831
1.70649
1.72583
1.74638
1.76804
1.79102
1.81581
1.84255
1.87147
3.62332
4.42827
5.70169
8.07625
11.777
16.8814
23.1875
30.1944
37.1182
42.9625
46.6831
47.4679
45.0573
40.033
34.0807
28.3934
23.3561
19.1291
15.7223
13.0598
10.9538
9.48007
8.55369
8.0029
7.77138
7.8713
8.41904
9.82463
12.8067
19.2045
35.3445
94.8875
456.06
3297.29
3.67417
3.0359
2.53952
2.21148
1.99188
1.84358
1.74378
1.67773
1.63541
1.60989
1.59722
1.5922
1.59145
1.59723
1.60503
1.61574
1.62782
1.64148
1.65626
1.67218
1.68918
1.70726
1.72652
1.74668
1.76804
1.79102
1.81581
1.84255
1.87147
4.5328
5.93049
8.57788
12.7783
18.6729
26.1285
34.6913
43.5851
51.7475
57.9416
60.9917
60.1489
55.4415
47.9105
39.7703
32.4014
26.1332
21.0329
17.018
13.9368
11.538
9.87623
8.83434
8.20866
7.90528
7.96419
8.4998
9.88876
12.8487
19.2195
35.3714
95.3842
461.44
3341.15
4.62492
3.65167
2.93513
2.47389
2.16899
1.96342
1.82449
1.73116
1.66963
1.63047
1.60718
1.59603
1.59189
1.59172
1.59802
1.60603
1.61679
1.62891
1.64252
1.65726
1.6731
1.69003
1.70802
1.72686
1.74668
1.76804
1.79102
1.81581
1.84255
1.87143
6.1577
9.0786
13.7795
20.4739
29.1088
39.2924
50.2842
61.0077
70.1125
76.1348
77.8266
74.6132
66.9412
56.4022
45.7622
36.5413
28.957
22.9451
18.3071
14.8027
12.1108
10.2618
9.10543
8.38006
8.01982
8.06623
8.58907
9.95994
12.8961
19.2382
35.4052
95.937
467.304
3388.76
4.59497
6.35872
3.49727
2.84024
2.41296
2.12819
1.93588
1.80602
1.71899
1.66187
1.62577
1.6047
1.59497
1.59167
1.59223
1.59878
1.60705
1.61782
1.62998
1.64353
1.65824
1.67399
1.69085
1.70839
1.72686
1.74668
1.76804
1.79102
1.81581
1.84245
1.87136
9.57406
14.7698
22.2631
32.0887
43.9284
57.0955
70.5397
82.8741
92.4572
97.6241
97.1368
90.7335
79.415
65.3923
51.976
40.762
31.7969
24.8475
19.5788
15.6515
12.669
10.6353
9.33201
8.5269
8.1463
8.17853
8.68786
10.0391
12.9495
19.2614
35.4483
96.5296
473.872
3441.73
4.34086
6.33013
10.0119
3.35695
2.75227
2.35448
2.08871
1.90923
1.78819
1.7073
1.65445
1.62129
1.60247
1.59405
1.59136
1.59288
1.59953
1.60807
1.61882
1.63104
1.64453
1.65919
1.67487
1.69126
1.70839
1.72686
1.74668
1.76804
1.79102
1.81565
1.84225
1.87129
15.7393
24.0223
35.0337
48.5372
63.9124
80.1591
95.9146
109.475
118.907
122.379
118.779
108.323
92.6927
74.7566
58.3325
45.0167
34.6256
26.7244
20.8246
16.4784
13.2103
10.9482
9.52654
8.68935
8.28619
8.30233
8.79731
10.1272
13.0099
19.2902
35.5015
97.1973
481.042
3499.01
4.11799
5.88208
10.0028
16.5971
3.22817
2.66794
2.29798
2.05053
1.88349
1.77102
1.69609
1.64738
1.61711
1.60049
1.59328
1.59113
1.59359
1.60027
1.60909
1.61982
1.63207
1.64549
1.66012
1.67529
1.69126
1.70838
1.72686
1.74668
1.76804
1.7908
1.81533
1.84204
1.87122
25.7347
37.9154
53.0673
70.644
89.7096
108.96
126.726
140.971
149.457
150.251
142.521
127.143
106.585
84.3696
64.7573
49.2627
37.4193
28.5632
22.0374
17.2796
13.6638
11.2171
9.74218
8.86935
8.44115
8.43904
8.91874
10.2256
13.0786
19.3258
35.568
97.9168
489.141
3562.93
3.91747
5.49123
9.18717
16.652
27.2587
3.10541
2.58658
2.24338
2.01365
1.85869
1.75453
1.68538
1.64072
1.61335
1.59882
1.59264
1.591
1.59434
1.60104
1.61009
1.6208
1.63307
1.64645
1.66058
1.67529
1.69126
1.70838
1.72686
1.74668
1.76778
1.79038
1.815
1.84183
1.87114
40.7089
57.4785
77.2189
99.0653
121.791
143.814
163.148
177.387
183.975
180.98
168.057
146.922
120.894
94.1102
71.1814
53.4626
40.1587
30.3534
23.2117
17.9503
14.0536
11.5155
9.9816
9.06916
8.61307
8.59031
9.05366
10.3355
13.1568
19.3696
35.6492
98.7404
497.981
3631.55
3.72988
5.14038
8.45909
15.2857
27.4773
43.2032
2.98751
2.50814
2.19075
1.97816
1.83488
1.73877
1.67527
1.63467
1.61008
1.59738
1.59214
1.59098
1.59508
1.60182
1.61106
1.62176
1.63407
1.64691
1.66058
1.67528
1.69126
1.70839
1.72686
1.74638
1.76726
1.78994
1.81466
1.84161
1.87106
61.7361
83.5852
108.134
134.24
160.435
184.879
205.224
218.613
222.194
214.201
195.017
167.365
135.427
103.865
77.5437
57.5849
42.8276
32.0869
24.1941
18.5265
14.4862
11.8471
10.2478
9.2913
8.80415
8.75804
9.20378
10.4588
13.2462
19.4236
35.7495
99.6346
508.08
3708.45
3.55273
4.81479
7.79738
14.0201
25.3841
43.7278
65.5404
2.87427
2.43271
2.14017
1.9441
1.8121
1.72387
1.66602
1.62929
1.60721
1.59615
1.59177
1.59106
1.59582
1.60262
1.61202
1.62273
1.63456
1.64689
1.66058
1.67528
1.69126
1.70839
1.72651
1.74577
1.76672
1.78949
1.81432
1.84139
1.87098
89.6986
116.855
146.197
176.38
205.752
232.188
252.872
264.412
263.725
249.458
222.994
188.177
150.001
113.534
83.7927
61.6041
45.4133
33.5373
25.0377
19.1653
14.9666
12.2161
10.5443
9.5387
9.01687
8.9444
9.37111
10.5972
13.3484
19.4897
35.8722
100.676
519.048
3790.15
3.38531
4.51051
7.17989
12.8339
23.4111
40.7309
66.5473
95.1511
2.76568
2.36041
2.09172
1.91156
1.79057
1.71021
1.65775
1.62451
1.6047
1.59512
1.59152
1.59126
1.59653
1.60345
1.613
1.6232
1.63454
1.64689
1.66058
1.67529
1.69126
1.70801
1.72582
1.74514
1.76616
1.78903
1.81396
1.84116
1.8709
125.18
157.602
191.527
225.509
257.729
285.677
305.905
314.417
308.057
286.226
251.563
209.073
164.447
123.029
89.8858
65.4989
47.5774
34.7829
25.9728
19.8743
15.501
12.6272
10.875
9.81466
9.25409
9.1519
9.55792
10.7528
13.4661
19.5713
36.0224
101.818
531.786
3897.74
3.22722
4.22696
6.60013
11.7061
21.5236
37.8786
62.4806
96.826
132.57
2.66183
2.29141
2.04551
1.88083
1.77082
1.69794
1.65035
1.62027
1.60253
1.59425
1.59136
1.59162
1.59723
1.60434
1.61346
1.62316
1.63455
1.64689
1.66058
1.67529
1.69085
1.70725
1.72511
1.74449
1.7656
1.78855
1.8136
1.84092
1.87081
168.408
205.831
244.026
281.526
316.282
345.211
364.031
368.129
354.579
323.939
280.307
229.792
178.626
132.281
95.788
68.7588
49.4361
36.1633
27.0101
20.6621
16.0957
13.0857
11.2443
10.123
9.51908
9.38345
9.76702
10.9285
13.6014
19.6708
36.2073
103.164
547.875
4029.21
3.07808
3.96427
6.05834
10.6304
19.6924
35.1124
58.6042
91.5332
135.072
177.923
2.5629
2.22584
2.00194
1.85268
1.75308
1.68694
1.64372
1.61648
1.60069
1.59352
1.59116
1.5921
1.59799
1.60475
1.6134
1.62316
1.63455
1.64689
1.66058
1.67486
1.69001
1.70646
1.72438
1.74383
1.76501
1.78807
1.81322
1.84068
1.87072
219.26
261.298
303.47
344.285
381.31
410.613
426.856
424.931
402.606
362.021
308.834
250.11
192.419
141.231
100.724
71.5582
51.4961
37.6947
28.1621
21.5381
16.7583
13.5975
11.657
10.4679
9.81558
9.6424
10.001
11.1265
13.7581
19.7934
36.4321
104.953
569.142
4163.35
2.93714
3.72303
5.55625
9.61017
17.9065
32.3904
54.8162
86.521
128.391
181.341
230.94
2.4692
2.16426
1.96211
1.82741
1.73715
1.67707
1.63779
1.6131
1.59911
1.5929
1.59101
1.59277
1.5983
1.60468
1.6134
1.62316
1.63454
1.64691
1.66012
1.67398
1.68916
1.70566
1.72363
1.74315
1.76442
1.78757
1.81284
1.84043
1.87063
277.335
323.627
369.605
413.679
452.76
481.682
493.882
484.091
451.4
399.911
336.801
269.841
205.733
148.702
104.96
74.6598
53.7814
39.3953
29.4424
22.5129
17.497
14.1692
12.1189
10.8542
10.1478
9.93256
10.2647
11.3524
13.9401
19.9433
36.7633
107.312
592.427
4298.86
2.80387
3.50564
5.09478
8.65493
16.1672
29.6931
51.0564
81.6171
122.158
173.074
235.249
291.033
2.38158
2.10814
1.92644
1.80474
1.72285
1.66821
1.63249
1.61011
1.59775
1.59242
1.59113
1.59306
1.59815
1.60469
1.6134
1.62316
1.63456
1.64644
1.65917
1.67307
1.68828
1.70484
1.72286
1.74246
1.76381
1.78706
1.81244
1.84018
1.87054
342.082
392.429
442.293
489.808
530.745
558.231
564.503
544.776
500.214
437.111
363.924
288.836
216.817
155.103
109.648
78.0986
56.3186
41.2851
30.8665
23.5983
18.3209
14.8082
12.636
11.2873
10.5204
10.2581
10.5589
11.61
14.1528
20.1622
37.2343
110.105
617.954
4434.28
2.67926
3.30776
4.6735
7.76716
14.482
27.0176
47.2893
76.7355
116.094
165.542
225.125
296.061
357.45
2.3022
2.05803
1.8945
1.7844
1.71001
1.66027
1.62776
1.60748
1.59662
1.59229
1.59105
1.59293
1.59814
1.60469
1.6134
1.6232
1.63406
1.64548
1.65821
1.67215
1.68739
1.70399
1.72207
1.74174
1.76318
1.78653
1.81204
1.83992
1.87045
412.965
467.485
521.703
573.1
615.58
640.055
637.97
606.082
548.35
473.195
389.977
304.597
226.291
162.175
114.838
81.9133
59.137
43.3864
32.4513
24.8074
19.24
15.5224
13.2151
11.7729
10.9386
10.6247
10.888
11.9039
14.4473
20.4782
37.8332
113.275
645.754
4568.73
2.56632
3.12766
4.29414
6.94852
12.8683
24.3726
43.5
71.8158
110.08
158.307
216.186
283.686
362.852
429.461
2.23175
2.01329
1.8659
1.76614
1.69849
1.65317
1.62353
1.60522
1.59601
1.59205
1.59074
1.59297
1.59814
1.60468
1.61346
1.62273
1.63306
1.6445
1.65723
1.6712
1.68647
1.70312
1.72127
1.74101
1.76253
1.78599
1.81162
1.83966
1.87036
489.636
548.929
608.437
664.338
707.704
726.809
713.364
667.097
595.188
507.821
411.528
318.036
236.729
169.985
120.586
86.146
62.269
45.724
34.2156
26.1544
20.2652
16.3205
13.8633
12.3174
11.4081
11.0379
11.2576
12.3007
14.8459
20.8674
38.5541
116.991
676.32
4700.53
2.46621
2.96709
3.95828
6.20501
11.3445
21.7753
39.6891
66.8217
104.021
151.214
207.774
273.169
347.651
434.743
506.575
2.16923
1.97334
1.8403
1.74978
1.68816
1.64677
1.61982
1.60375
1.59548
1.59167
1.59076
1.59297
1.59815
1.60475
1.61299
1.62174
1.63204
1.6435
1.65622
1.67023
1.68553
1.70223
1.72044
1.74026
1.76187
1.78544
1.81121
1.83941
1.87027
572.183
637.518
703.812
764.847
807.596
817.906
789.645
726.965
640.219
536.408
429.856
332.792
248.218
178.607
126.949
90.8422
65.7498
48.3247
36.1798
27.655
21.4084
17.2117
14.5883
12.9273
11.935
11.5026
11.7505
12.8167
15.3029
21.337
39.4508
121.256
709.55
4828.59
2.37771
2.82506
3.67154
5.54548
9.92953
19.2494
35.8687
61.7343
97.8496
144.123
199.69
263.543
335.288
415.871
511.148
588.83
2.11368
1.93767
1.81738
1.73511
1.67886
1.64112
1.61719
1.60269
1.59496
1.59171
1.59076
1.59292
1.5983
1.60433
1.61201
1.62077
1.631
1.64248
1.65519
1.66923
1.68457
1.70132
1.71959
1.73948
1.7612
1.7849
1.81082
1.83917
1.87019
661.477
735.027
810.243
876.557
915.695
912.529
865.772
784.943
677.428
560.679
449.917
348.97
260.849
188.117
133.987
96.0507
69.6173
51.2176
38.3659
29.3258
22.682
18.2057
15.398
13.6096
12.5251
12.122
12.3802
13.3841
15.8238
21.9049
40.5449
126.232
746.253
4950.94
2.29962
2.69851
3.43548
4.98334
8.65455
16.8215
32.0611
56.5477
91.5146
136.927
191.743
254.558
324.349
401.276
487.38
592.066
677.217
2.06428
1.90584
1.79687
1.7219
1.6706
1.63696
1.61546
1.60196
1.59504
1.59171
1.59074
1.59306
1.59799
1.60343
1.61104
1.61978
1.62994
1.64144
1.65415
1.6682
1.68359
1.70038
1.71873
1.7387
1.76053
1.78437
1.81043
1.83894
1.87011
759.636
844.93
931.608
1002.04
1032.23
1009.91
940.746
833.142
709.024
587.187
471.829
366.672
274.709
198.589
141.765
101.822
73.9116
54.4337
40.7976
31.1844
24.099
19.3124
16.3006
14.3704
13.3078
12.9061
13.0603
14.0046
16.4138
22.5896
41.8903
132.016
786.168
5066.55
2.23075
2.58582
3.23687
4.51557
7.54978
14.5356
28.2983
51.2684
84.9757
129.533
183.781
245.96
314.518
388.836
470.048
561.664
678.665
774.418
2.02035
1.87743
1.77843
1.71017
1.66434
1.63433
1.6145
1.60207
1.59503
1.59167
1.59105
1.59277
1.59721
1.6026
1.61005
1.61879
1.62887
1.64037
1.65308
1.66715
1.68258
1.69942
1.71784
1.73792
1.75988
1.78386
1.81005
1.83871
1.87002
871.055
973.345
1074.06
1144.07
1158.35
1109
1004.02
874.224
743.535
616.062
495.696
385.988
289.882
210.098
150.346
108.209
78.6742
58.0051
43.4991
33.249
25.6727
20.5417
17.3028
15.3745
14.2892
13.7416
13.7892
14.6771
17.0815
23.4071
43.5481
138.757
830.497
5173.4
2.16998
2.48585
3.06642
4.12961
6.62024
12.4844
24.6481
45.9187
78.204
121.851
175.662
237.553
305.462
378.153
455.826
541.019
639.071
774.291
886.106
1.98127
1.85199
1.76205
1.70113
1.66047
1.63306
1.61465
1.60207
1.59496
1.59205
1.59113
1.59209
1.59651
1.60179
1.60905
1.61778
1.62778
1.63927
1.65199
1.66608
1.68156
1.69845
1.71697
1.73717
1.75925
1.78337
1.80969
1.83849
1.86995
1003.89
1131.43
1245.24
1310.99
1294.16
1194.82
1058.46
919.278
781.132
647.418
521.603
406.994
306.438
222.711
159.789
115.262
83.9468
61.9645
46.4953
35.5379
27.4162
21.9022
18.6199
16.6233
15.3243
14.6226
14.5625
15.4037
17.8303
24.3896
45.5652
146.721
878.749
5270.88
2.1163
2.39763
2.91757
3.81224
5.84825
10.7116
21.2539
40.5762
71.1867
113.795
167.237
229.142
296.94
368.786
444.212
524.648
614.544
721.601
886.126
1024.6
1.94638
1.82942
1.74921
1.69565
1.65881
1.63328
1.61465
1.60196
1.59548
1.59229
1.59101
1.59161
1.5958
1.60101
1.60803
1.61675
1.62667
1.63815
1.65088
1.66497
1.68051
1.69748
1.71612
1.73644
1.75864
1.78289
1.80933
1.83828
1.86987
1174.73
1336.01
1473.71
1508.01
1415.75
1269.67
1118.8
968.639
821.998
681.36
549.618
429.746
324.435
236.485
170.148
123.029
89.7691
66.3434
49.8104
38.069
29.3412
23.684
20.2471
17.9294
16.4037
15.5413
15.3765
16.1787
18.6725
25.5453
48.0582
156.012
932.562
5357.27
2.06866
2.32009
2.78582
3.55398
5.21368
9.2083
18.2074
35.4423
63.9833
105.287
158.348
220.521
288.708
360.443
434.613
511.957
595.603
692.58
814.852
1031.43
1214.42
1.91549
1.81156
1.74152
1.69354
1.65911
1.63328
1.6145
1.6027
1.59602
1.59243
1.59116
1.59126
1.59506
1.60025
1.60701
1.6157
1.62556
1.63699
1.64976
1.66386
1.67948
1.69655
1.71529
1.73574
1.75805
1.78242
1.80898
1.83807
1.86979
1419.17
1658.16
1775.69
1688.22
1523.19
1353.94
1185.93
1022.83
866.379
717.999
579.791
454.276
343.905
251.46
181.468
131.552
96.1768
71.1711
53.4668
40.8577
31.8557
25.8748
21.9387
19.2804
17.5166
16.49
16.2252
17.0057
19.6057
26.925
51.0434
167.176
991.158
5432.91
2.02666
2.25189
2.66864
3.34164
4.69472
7.95225
15.5151
30.6736
56.8356
96.3303
148.83
211.458
280.512
352.833
426.675
502.13
581.609
670.636
780.24
931.808
1256.97
1526.05
1.89075
1.80107
1.73881
1.69395
1.65911
1.63306
1.61547
1.60377
1.59664
1.59292
1.59136
1.59106
1.59431
1.5995
1.606
1.61463
1.62444
1.63581
1.64862
1.66275
1.67848
1.69565
1.71449
1.73505
1.75747
1.78197
1.80865
1.83787
1.86972
1867.4
2111.41
2043.78
1847.94
1647.14
1450.16
1261.68
1082.76
914.697
757.492
612.168
480.591
364.855
267.655
193.774
140.859
103.198
76.4716
57.4821
44.4911
34.9357
28.1427
23.679
20.6631
18.6524
17.4603
17.1051
17.8818
20.6521
28.5237
54.7125
180.206
1056.5
5496.62
1.99278
2.19241
2.5644
3.16277
4.27324
6.91258
13.1791
26.3134
49.9626
87.1591
138.583
201.689
272.058
345.668
420.056
494.732
571.492
655.018
754.915
889.723
1105.44
1712.15
2187.36
1.87629
1.79769
1.73935
1.69395
1.65881
1.63433
1.61723
1.60526
1.59779
1.59354
1.59153
1.59098
1.59357
1.59876
1.60501
1.61352
1.62332
1.63462
1.64749
1.66169
1.6775
1.69478
1.71371
1.73439
1.75691
1.78153
1.80832
1.83767
1.86969
2552.84
2537.91
2303.19