/*--------------------------------*- C++ -*----------------------------------*\
  =========                 |
  \\      /  F ield         | OpenFOAM: The Open Source CFD Toolbox
   \\    /   O peration     | Website:  https://openfoam.org
    \\  /    A nd           | Version:  8
     \\/     M anipulation  |
\*---------------------------------------------------------------------------*/
FoamFile
{
    version     2.0;
    format      ascii;
    class       volVectorField;
    location    "0.42";
    object      U;
}
// * * * * * * * * * * * * * * * * * * * * * * * * * * * * * * * * * * * * * //

dimensions      [0 1 -1 0 0 0 0];

internalField   nonuniform List<vector> 
15677
(
(-0.0399015 9.66595 0)
(0.0484951 9.92199 0)
(-0.0018136 9.37829 0)
(0.0206524 9.97702 0)
(0.0198921 9.78866 0)
(0.00731345 9.14125 0)
(0.0258391 9.99515 0)
(0.0165374 9.92467 0)
(0.0111792 9.65398 0)
(0.00649145 8.96067 0)
(0.0263309 10.0025 0)
(0.0205524 9.97871 0)
(0.0165509 9.85203 0)
(0.00912494 9.53081 0)
(0.00515971 8.81703 0)
(0.0255703 10.0057 0)
(0.0215844 10.003 0)
(0.0194061 9.94152 0)
(0.0153648 9.77951 0)
(0.00798041 9.41984 0)
(0.00424047 8.70238 0)
(0.0245088 10.0071 0)
(0.0218661 10.0147 0)
(0.0210023 9.98478 0)
(0.0182524 9.90244 0)
(0.0138546 9.70811 0)
(0.00692509 9.32158 0)
(0.00354486 8.61019 0)
(0.0230971 10.0075 0)
(0.0217425 10.0205 0)
(0.0218695 10.0069 0)
(0.0201986 9.96497 0)
(0.0169615 9.86193 0)
(0.0124418 9.64084 0)
(0.00596849 9.23643 0)
(0.00295859 8.53617 0)
(0.0214091 10.0074 0)
(0.021191 10.0233 0)
(0.0221526 10.0184 0)
(0.021288 9.99809 0)
(0.0190532 9.94371 0)
(0.0156078 9.82229 0)
(0.0110789 9.57966 0)
(0.00507687 9.16416 0)
(0.00241873 8.47764 0)
(0.019516 10.007 0)
(0.0203305 10.0235 0)
(0.0221099 10.0241 0)
(0.0217805 10.0162 0)
(0.0202164 9.98814 0)
(0.01772 9.92275 0)
(0.0141427 9.78537 0)
(0.00968547 9.52576 0)
(0.00419862 9.10455 0)
(0.00188715 8.43311 0)
(0.0175007 10.0063 0)
(0.0192742 10.0223 0)
(0.0216665 10.0271 0)
(0.0218026 10.0261 0)
(0.0207471 10.0131 0)
(0.0188613 9.97855 0)
(0.016174 9.90359 0)
(0.0125189 9.75242 0)
(0.00820338 9.4801 0)
(0.00328832 9.05741 0)
(0.00133477 8.40163 0)
(0.0153992 10.0056 0)
(0.017965 10.0206 0)
(0.0209339 10.0281 0)
(0.0214564 10.0315 0)
(0.0207802 10.0273 0)
(0.019319 10.0103 0)
(0.0171876 9.97058 0)
(0.0143577 9.88721 0)
(0.0106807 9.7246 0)
(0.00658201 9.4435 0)
(0.00230437 9.02269 0)
(0.000738982 8.38289 0)
(0.0132621 10.0048 0)
(0.0164818 10.0185 0)
(0.0198592 10.0274 0)
(0.0207816 10.034 0)
(0.0203995 10.0354 0)
(0.0192406 10.0288 0)
(0.0174615 10.0092 0)
(0.015132 9.96505 0)
(0.0121988 9.87461 0)
(0.00856664 9.70298 0)
(0.00477019 9.41668 0)
(0.00121253 9.00044 0)
(5.63586e-05 8.37669 0)
(0.01116 10.0041 0)
(0.0148853 10.0162 0)
(0.0185081 10.0258 0)
(0.0197959 10.0345 0)
(0.019665 10.0396 0)
(0.0187139 10.0396 0)
(0.0171486 10.0319 0)
(0.0151046 10.0103 0)
(0.0126075 9.96284 0)
(0.00961761 9.86679 0)
(0.00611231 9.68863 0)
(0.00272087 9.40031 0)
(-1.5424e-05 8.99082 0)
(-0.000614361 8.383 0)
(0.00927063 10.0034 0)
(0.0131866 10.014 0)
(0.0169194 10.0235 0)
(0.0185006 10.0334 0)
(0.018592 10.0412 0)
(0.0177882 10.0456 0)
(0.0163393 10.0453 0)
(0.0144258 10.0371 0)
(0.0121427 10.0146 0)
(0.00951312 9.96485 0)
(0.00653058 9.86475 0)
(0.00325733 9.68252 0)
(0.0003966 9.39501 0)
(-0.00137885 8.99415 0)
(-0.00140272 8.40194 0)
(0.00772523 10.0029 0)
(0.0116234 10.0119 0)
(0.0151326 10.0209 0)
(0.0169099 10.0313 0)
(0.0171813 10.0409 0)
(0.0164824 10.0483 0)
(0.0150787 10.053 0)
(0.0131871 10.0531 0)
(0.0109479 10.0453 0)
(0.00845281 10.0228 0)
(0.00574214 9.97198 0)
(0.0028562 9.86949 0)
(-6.26153e-05 9.6856 0)
(-0.00226163 9.40144 0)
(-0.00294181 9.0106 0)
(-0.00229271 8.43381 0)
(0.00641375 10.0024 0)
(0.010231 10.0102 0)
(0.0133937 10.0184 0)
(0.0150535 10.0286 0)
(0.0154368 10.0392 0)
(0.0148002 10.0488 0)
(0.0133846 10.0569 0)
(0.0114309 10.0624 0)
(0.00911227 10.0638 0)
(0.0065673 10.0573 0)
(0.00390263 10.0358 0)
(0.00118906 9.98515 0)
(-0.0014816 9.88199 0)
(-0.00388421 9.69874 0)
(-0.00526833 9.42011 0)
(-0.00469686 9.04041 0)
(-0.00328073 8.47865 0)
(0.00530937 10.002 0)
(0.00897471 10.0087 0)
(0.0118149 10.0162 0)
(0.0131761 10.0257 0)
(0.0133756 10.0364 0)
(0.0127423 10.0475 0)
(0.0112603 10.058 0)
(0.00917148 10.0674 0)
(0.0066742 10.0747 0)
(0.00394028 10.0781 0)
(0.00112429 10.0739 0)
(-0.00164058 10.0545 0)
(-0.00424871 10.0053 0)
(-0.00655704 9.90318 0)
(-0.00826468 9.72272 0)
(-0.00865116 9.45146 0)
(-0.00664902 9.08368 0)
(-0.00436166 8.53653 0)
(0.0043854 10.0016 0)
(0.00784244 10.0074 0)
(0.0103571 10.0143 0)
(0.0114375 10.023 0)
(0.0112601 10.0333 0)
(0.0103182 10.0448 0)
(0.00870603 10.0571 0)
(0.00640932 10.0691 0)
(0.00364232 10.0805 0)
(0.0006028 10.0904 0)
(-0.00251951 10.0969 0)
(-0.0055438 10.096 0)
(-0.00830545 10.0797 0)
(-0.0106637 10.0333 0)
(-0.0124272 9.93391 0)
(-0.0132337 9.75817 0)
(-0.0124271 9.49577 0)
(-0.00880338 9.1405 0)
(-0.00553402 8.60731 0)
(0.0036114 10.0013 0)
(0.00682265 10.0062 0)
(0.00901453 10.0126 0)
(0.00980502 10.0206 0)
(0.00928626 10.0303 0)
(0.00782577 10.0415 0)
(0.00572971 10.0545 0)
(0.00314411 10.0685 0)
(1.28097e-05 10.0828 0)
(-0.00344443 10.0971 0)
(-0.00700876 10.1104 0)
(-0.0104628 10.1209 0)
(-0.0135946 10.1242 0)
(-0.0162093 10.1122 0)
(-0.018131 10.0699 0)
(-0.01913 9.9749 0)
(-0.0188048 9.80559 0)
(-0.0165949 9.55322 0)
(-0.0111482 9.21065 0)
(-0.00678495 8.69064 0)
(0.0029787 10.001 0)
(0.00591117 10.0052 0)
(0.00778296 10.011 0)
(0.00828593 10.0184 0)
(0.00742556 10.0274 0)
(0.00549853 10.0381 0)
(0.00268754 10.0509 0)
(-0.000614104 10.0658 0)
(-0.00421584 10.0823 0)
(-0.00821136 10.0997 0)
(-0.0123537 10.1178 0)
(-0.0163931 10.1355 0)
(-0.0200797 10.1509 0)
(-0.0231723 10.1595 0)
(-0.025448 10.1529 0)
(-0.026703 10.1159 0)
(-0.0266838 10.0268 0)
(-0.0249734 9.86526 0)
(-0.0211413 9.62374 0)
(-0.0136754 9.29395 0)
(-0.00810758 8.78611 0)
(0.00247805 10.0008 0)
(0.00508837 10.0044 0)
(0.00665992 10.0096 0)
(0.00688394 10.0164 0)
(0.00569504 10.0247 0)
(0.00330786 10.0347 0)
(-0.000142691 10.047 0)
(-0.00442301 10.0618 0)
(-0.00902949 10.0794 0)
(-0.0137014 10.0992 0)
(-0.0185729 10.1206 0)
(-0.02336 10.1433 0)
(-0.027777 10.1664 0)
(-0.0315445 10.1877 0)
(-0.0343958 10.2026 0)
(-0.0360891 10.2025 0)
(-0.0364038 10.1719 0)
(-0.0350827 10.0898 0)
(-0.0317173 9.93731 0)
(-0.0260376 9.70715 0)
(-0.0163538 9.38977 0)
(-0.00947851 8.89289 0)
(0.00209344 10.0007 0)
(0.0043848 10.0037 0)
(0.00563821 10.0084 0)
(0.00560061 10.0145 0)
(0.00410432 10.0221 0)
(0.00128032 10.0314 0)
(-0.00279455 10.043 0)
(-0.00794627 10.0573 0)
(-0.0138677 10.0748 0)
(-0.0198954 10.0958 0)
(-0.025673 10.1198 0)
(-0.0313936 10.1462 0)
(-0.0367317 10.1746 0)
(-0.0413691 10.2039 0)
(-0.0450021 10.232 0)
(-0.0473505 10.2542 0)
(-0.0481651 10.2614 0)
(-0.0472263 10.2383 0)
(-0.0442943 10.1644 0)
(-0.0389921 10.0216 0)
(-0.0312401 9.80297 0)
(-0.0191632 9.49754 0)
(-0.0108789 9.01027 0)
(0.00179699 10.0006 0)
(0.00381395 10.0032 0)
(0.00475638 10.0074 0)
(0.00443622 10.0129 0)
(0.00265929 10.0198 0)
(-0.00056781 10.0283 0)
(-0.00523193 10.039 0)
(-0.0112281 10.0526 0)
(-0.0183168 10.0695 0)
(-0.0260773 10.0905 0)
(-0.0336285 10.1158 0)
(-0.0405058 10.145 0)
(-0.0469897 10.1772 0)
(-0.052717 10.2122 0)
(-0.0573444 10.2488 0)
(-0.0605591 10.2846 0)
(-0.0620799 10.3147 0)
(-0.0616697 10.3301 0)
(-0.0591275 10.3154 0)
(-0.0542571 10.2503 0)
(-0.0467327 10.1178 0)
(-0.0366955 9.9106 0)
(-0.0220383 9.61624 0)
(-0.0122438 9.13664 0)
(0.00156428 10.0005 0)
(0.00334916 10.0028 0)
(0.00403402 10.0065 0)
(0.00343634 10.0114 0)
(0.00136405 10.0175 0)
(-0.00222567 10.0253 0)
(-0.00743089 10.0351 0)
(-0.0142222 10.0477 0)
(-0.0224373 10.0638 0)
(-0.0317329 10.0842 0)
(-0.0415254 10.1094 0)
(-0.0506642 10.14 0)
(-0.0585705 10.1753 0)
(-0.0656547 10.2144 0)
(-0.071526 10.2569 0)
(-0.0758343 10.3015 0)
(-0.0782724 10.3458 0)
(-0.0785798 10.3847 0)
(-0.0765513 10.4089 0)
(-0.07203 10.4031 0)
(-0.0648823 10.3475 0)
(-0.0548543 10.2253 0)
(-0.0422873 10.0291 0)
(-0.0248639 9.74457 0)
(-0.0132753 9.27016 0)
(0.0013791 10.0005 0)
(0.00296817 10.0025 0)
(0.0034438 10.0059 0)
(0.00262429 10.0102 0)
(0.000270226 10.0156 0)
(-0.00368562 10.0224 0)
(-0.00937464 10.0313 0)
(-0.0168956 10.0428 0)
(-0.0261712 10.0578 0)
(-0.0369453 10.0772 0)
(-0.0487212 10.1017 0)
(-0.0607082 10.1322 0)
(-0.0714353 10.1691 0)
(-0.0802134 10.2115 0)
(-0.0876403 10.2584 0)
(-0.0933196 10.3093 0)
(-0.0969119 10.3628 0)
(-0.098141 10.4162 0)
(-0.0967918 10.4644 0)
(-0.0927177 10.4978 0)
(-0.0858181 10.5013 0)
(-0.0760517 10.4553 0)
(-0.0632103 10.3434 0)
(-0.0479683 10.1574 0)
(-0.0278295 9.88203 0)
(-0.0156041 9.41084 0)
(0.00122989 10.0004 0)
(0.00265355 10.0022 0)
(0.00295994 10.0053 0)
(0.00196984 10.0092 0)
(-0.000599793 10.0139 0)
(-0.00488876 10.0198 0)
(-0.0110512 10.0276 0)
(-0.0192244 10.038 0)
(-0.0294749 10.0517 0)
(-0.0416425 10.0697 0)
(-0.0553286 10.0932 0)
(-0.0698354 10.1228 0)
(-0.0841225 10.1595 0)
(-0.0963495 10.2038 0)
(-0.105735 10.2543 0)
(-0.113142 10.31 0)
(-0.118192 10.3701 0)
(-0.120585 10.4331 0)
(-0.120105 10.4961 0)
(-0.116609 10.5538 0)
(-0.110025 10.5967 0)
(-0.10034 10.6097 0)
(-0.0875807 10.5733 0)
(-0.0716578 10.471 0)
(-0.0529786 10.2946 0)
(-0.0246805 10.0223 0)
(-0.0115231 9.49635 0)
(0.00110821 10.0004 0)
(0.00239225 10.002 0)
(0.00256252 10.0049 0)
(0.00144105 10.0083 0)
(-0.00128361 10.0125 0)
(-0.00581638 10.0176 0)
(-0.0123927 10.0242 0)
(-0.021191 10.0332 0)
(-0.0323156 10.0455 0)
(-0.0457683 10.0621 0)
(-0.0612587 10.084 0)
(-0.0781954 10.1123 0)
(-0.0956326 10.1481 0)
(-0.112239 10.192 0)
(-0.125763 10.2447 0)
(-0.135374 10.3044 0)
(-0.142285 10.3697 0)
(-0.146164 10.4396 0)
(-0.146788 10.5125 0)
(-0.144034 10.5855 0)
(-0.137855 10.6529 0)
(-0.128286 10.7053 0)
(-0.115371 10.7275 0)
(-0.0992818 10.7003 0)
(-0.0796845 10.6072 0)
(-0.0569786 10.4376 0)
(-0.0201786 10.194 0)
(-0.00295214 9.56217 0)
(0.00100785 10.0003 0)
(0.00217441 10.0018 0)
(0.00223043 10.0045 0)
(0.00101347 10.0076 0)
(-0.00181938 10.0112 0)
(-0.00651798 10.0156 0)
(-0.0133868 10.0212 0)
(-0.0227157 10.0287 0)
(-0.0346684 10.0394 0)
(-0.0492785 10.0543 0)
(-0.0664394 10.0743 0)
(-0.0856786 10.1009 0)
(-0.106161 10.1352 0)
(-0.126644 10.1781 0)
(-0.145477 10.2304 0)
(-0.159973 10.2925 0)
(-0.169292 10.3623 0)
(-0.175098 10.4379 0)
(-0.177161 10.5181 0)
(-0.175371 10.6013 0)
(-0.169728 10.6843 0)
(-0.160311 10.7614 0)
(-0.147239 10.823 0)
(-0.13067 10.8541 0)
(-0.110614 10.8355 0)
(-0.0864775 10.7507 0)
(-0.0601877 10.5946 0)
(-0.0215932 10.3673 0)
(0.00235287 9.61957 0)
(0.000924243 10.0003 0)
(0.00199217 10.0017 0)
(0.00195473 10.0041 0)
(0.000669768 10.007 0)
(-0.00223787 10.0102 0)
(-0.00704201 10.0139 0)
(-0.0140999 10.0186 0)
(-0.0237953 10.0248 0)
(-0.0364377 10.0336 0)
(-0.052139 10.0464 0)
(-0.0708127 10.0644 0)
(-0.0921935 10.0889 0)
(-0.115573 10.1211 0)
(-0.139818 10.1623 0)
(-0.163356 10.2136 0)
(-0.184195 10.2753 0)
(-0.199177 10.3478 0)
(-0.207533 10.4285 0)
(-0.211511 10.515 0)
(-0.211025 10.6059 0)
(-0.206116 10.6995 0)
(-0.196937 10.7923 0)
(-0.183683 10.8788 0)
(-0.166598 10.9492 0)
(-0.145743 10.9886 0)
(-0.120965 10.9783 0)
(-0.0920658 10.9025 0)
(-0.0622442 10.7644 0)
(-0.0244148 10.5372 0)
(0.00320097 9.67653 0)
(0.000854027 10.0003 0)
(0.00183898 10.0016 0)
(0.00172613 10.0038 0)
(0.00038943 10.0064 0)
(-0.00256348 10.0093 0)
(-0.00742758 10.0125 0)
(-0.0145953 10.0163 0)
(-0.0245195 10.0213 0)
(-0.0376325 10.0284 0)
(-0.0542329 10.0389 0)
(-0.0743323 10.0544 0)
(-0.0976648 10.0764 0)
(-0.123754 10.1061 0)
(-0.151595 10.145 0)
(-0.179716 10.1944 0)
(-0.206182 10.255 0)
(-0.228633 10.3272 0)
(-0.243456 10.4111 0)
(-0.250044 10.5034 0)
(-0.251364 10.6011 0)
(-0.247517 10.7029 0)
(-0.238738 10.8067 0)
(-0.22533 10.9091 0)
(-0.207639 11.0044 0)
(-0.185899 11.0831 0)
(-0.160078 11.1305 0)
(-0.130699 11.1283 0)
(-0.097499 11.0625 0)
(-0.0640469 10.9414 0)
(-0.0270823 10.7027 0)
(0.00271644 9.75001 0)
(0.00079465 10.0003 0)
(0.00170945 10.0015 0)
(0.0015365 10.0036 0)
(0.000159607 10.006 0)
(-0.00281669 10.0085 0)
(-0.00770598 10.0112 0)
(-0.0149235 10.0143 0)
(-0.0249714 10.0182 0)
(-0.038373 10.0238 0)
(-0.0555842 10.0321 0)
(-0.0768533 10.0447 0)
(-0.102031 10.0637 0)
(-0.130605 10.0905 0)
(-0.16183 10.1266 0)
(-0.194357 10.1733 0)
(-0.226333 10.232 0)
(-0.255421 10.3031 0)
(-0.278925 10.3868 0)
(-0.29278 10.4828 0)
(-0.296663 10.5872 0)
(-0.294394 10.6964 0)
(-0.286314 10.809 0)
(-0.272866 10.9228 0)
(-0.254533 11.0342 0)
(-0.231731 11.1378 0)
(-0.204684 11.2241 0)
(-0.173855 11.2792 0)
(-0.140449 11.2846 0)
(-0.103647 11.2295 0)
(-0.0667124 11.1207 0)
(-0.0299345 10.8828 0)
(0.00158351 9.83474 0)
(0.000744119 10.0002 0)
(0.00159933 10.0014 0)
(0.00137702 10.0034 0)
(-2.95086e-05 10.0056 0)
(-0.00301317 10.0078 0)
(-0.00790197 10.0101 0)
(-0.0151249 10.0125 0)
(-0.0252175 10.0155 0)
(-0.0387685 10.0197 0)
(-0.0563523 10.0261 0)
(-0.0784174 10.0359 0)
(-0.105109 10.0513 0)
(-0.136046 10.0745 0)
(-0.170398 10.1073 0)
(-0.207098 10.1508 0)
(-0.244401 10.2065 0)
(-0.280027 10.2756 0)
(-0.311254 10.3584 0)
(-0.335072 10.4544 0)
(-0.346992 10.5632 0)
(-0.347107 10.6801 0)
(-0.340239 10.8008 0)
(-0.327007 10.9239 0)
(-0.308084 11.047 0)
(-0.284101 11.1669 0)
(-0.25554 11.2781 0)
(-0.223031 11.3717 0)
(-0.187521 11.4337 0)
(-0.15038 11.4463 0)
(-0.110521 11.4007 0)
(-0.0706098 11.3206 0)
(-0.0328779 11.0778 0)
(-0.000178085 9.92873 0)
(0.000700825 10.0002 0)
(0.00150526 10.0013 0)
(0.00124248 10.0032 0)
(-0.000184204 10.0052 0)
(-0.00316524 10.0072 0)
(-0.00803507 10.0091 0)
(-0.0152313 10.011 0)
(-0.0253103 10.0132 0)
(-0.0389066 10.0161 0)
(-0.0566807 10.0207 0)
(-0.0792333 10.0281 0)
(-0.106962 10.0401 0)
(-0.139847 10.0589 0)
(-0.177193 10.0873 0)
(-0.217781 10.127 0)
(-0.260165 10.1792 0)
(-0.302155 10.2452 0)
(-0.34104 10.3259 0)
(-0.373731 10.4213 0)
(-0.396935 10.5304 0)
(-0.405798 10.6525 0)
(-0.400983 10.7819 0)
(-0.388455 10.9139 0)
(-0.369138 11.047 0)
(-0.343934 11.179 0)
(-0.313624 11.3067 0)
(-0.279034 11.4249 0)
(-0.241249 11.525 0)
(-0.201288 11.5929 0)
(-0.16043 11.6112 0)
(-0.118326 11.5944 0)
(-0.0753618 11.5399 0)
(-0.0360515 11.2683 0)
(-0.0021164 10.0296 0)
(0.000663774 10.0002 0)
(0.00142431 10.0013 0)
(0.00112863 10.003 0)
(-0.000311427 10.0049 0)
(-0.00328239 10.0067 0)
(-0.0081205 10.0083 0)
(-0.0152673 10.0097 0)
(-0.0252912 10.0111 0)
(-0.0388562 10.013 0)
(-0.0566839 10.016 0)
(-0.0794875 10.0211 0)
(-0.107858 10.03 0)
(-0.142089 10.0447 0)
(-0.181922 10.0678 0)
(-0.226266 10.1024 0)
(-0.273426 10.1503 0)
(-0.321532 10.2124 0)
(-0.367927 10.29 0)
(-0.409475 10.3834 0)
(-0.44274 10.4922 0)
(-0.464223 10.6151 0)
(-0.468783 10.7507 0)
(-0.457807 10.8926 0)
(-0.438535 11.0355 0)
(-0.412216 11.178 0)
(-0.37999 11.3181 0)
(-0.34296 11.4528 0)
(-0.302355 11.5772 0)
(-0.259443 11.6826 0)
(-0.215133 11.7548 0)
(-0.171491 11.7977 0)
(-0.126741 11.8092 0)
(-0.0805071 11.7552 0)
(-0.0391475 11.4536 0)
(-0.00396992 10.1351 0)
(0.00135409 10.0012 0)
(0.000619841 10.0002 0)
(0.0010313 10.0029 0)
(-0.000416215 10.0046 0)
(-0.00337204 10.0062 0)
(-0.00817015 10.0075 0)
(-0.0152524 10.0085 0)
(-0.0251921 10.0093 0)
(-0.0386714 10.0102 0)
(-0.0564523 10.0118 0)
(-0.079329 10.015 0)
(-0.108038 10.021 0)
(-0.143116 10.0318 0)
(-0.184688 10.0499 0)
(-0.232182 10.0782 0)
(-0.284004 10.1202 0)
(-0.33791 10.1777 0)
(-0.391582 10.2511 0)
(-0.441882 10.3414 0)
(-0.485262 10.4485 0)
(-0.518008 10.5716 0)
(-0.53651 10.7086 0)
(-0.535423 10.8577 0)
(-0.51702 11.0118 0)
(-0.48994 11.165 0)
(-0.455774 11.3161 0)
(-0.416 11.4635 0)
(-0.372103 11.6043 0)
(-0.325504 11.7338 0)
(-0.277497 11.8429 0)
(-0.230371 11.9374 0)
(-0.183317 12.005 0)
(-0.134923 12.0217 0)
(-0.0856283 11.9646 0)
(-0.0420406 11.633 0)
(-0.00573929 10.2434 0)
(0.000946069 10.0028 0)
(0.00127365 10.0012 0)
(0.000567555 10.0002 0)
(-0.000503267 10.0044 0)
(-0.00343982 10.0058 0)
(-0.00819303 10.0069 0)
(-0.0152013 10.0075 0)
(-0.0250379 10.0077 0)
(-0.0383938 10.0077 0)
(-0.0560564 10.0081 0)
(-0.0788756 10.0095 0)
(-0.107694 10.013 0)
(-0.143233 10.0204 0)
(-0.18592 10.0337 0)
(-0.235646 10.056 0)
(-0.291424 10.0906 0)
(-0.351058 10.1413 0)
(-0.411698 10.2097 0)
(-0.470552 10.2957 0)
(-0.524009 10.3999 0)
(-0.568165 10.5217 0)
(-0.599114 10.6597 0)
(-0.613245 10.811 0)
(-0.605108 10.9734 0)
(-0.578026 11.139 0)
(-0.542144 11.3018 0)
(-0.499453 11.4607 0)
(-0.451815 11.6143 0)
(-0.400947 11.7602 0)
(-0.348312 11.893 0)
(-0.297189 12.0235 0)
(-0.246541 12.1402 0)
(-0.19464 12.2109 0)
(-0.142643 12.2295 0)
(-0.0904959 12.1669 0)
(-0.0446477 11.8062 0)
(-0.00735714 10.3526 0)
(-0.000580684 10.0042 0)
(0.000857364 10.0027 0)
(0.00117597 10.0011 0)
(0.000517823 10.0002 1.87647e-19)
(-0.00349098 10.0055 0)
(-0.00819567 10.0063 0)
(-0.0151253 10.0066 0)
(-0.0248475 10.0063 0)
(-0.0380554 10.0056 0)
(-0.0555505 10.0048 0)
(-0.0782186 10.0046 0)
(-0.106977 10.0059 0)
(-0.142685 10.0102 0)
(-0.186002 10.0193 0)
(-0.23719 10.0359 0)
(-0.295814 10.0633 0)
(-0.360375 10.1054 0)
(-0.427982 10.1663 0)
(-0.495106 10.2469 0)
(-0.5585 10.3468 0)
(-0.614119 10.466 0)
(-0.65778 10.6033 0)
(-0.685495 10.7564 0)
(-0.693773 10.922 0)
(-0.677171 11.0974 0)
(-0.640215 11.2738 0)
(-0.594677 11.4452 0)
(-0.542964 11.6108 0)
(-0.487218 11.7696 0)
(-0.429267 11.9188 0)
(-0.373106 12.0726 0)
(-0.318004 12.224 0)
(-0.261793 12.3414 0)
(-0.205248 12.4128 0)
(-0.14975 12.4311 0)
(-0.0949969 12.3616 0)
(-0.0469424 11.9728 0)
(-0.00879544 10.4611 0)
(-0.00353863 10.0052 0)
(-0.000643262 10.004 0)
(0.000758131 10.0025 8.38146e-19)
(0.00108247 10.001 -5.94585e-19)
(0.000470497 10.0002 -3.74247e-19)
(-0.00818384 10.0058 0)
(-0.015032 10.0058 0)
(-0.0246349 10.005 0)
(-0.0376805 10.0037 0)
(-0.0549759 10.0019 0)
(-0.0774285 10.0003 0)
(-0.106005 9.99965 0)
(-0.141665 10.0011 0)
(-0.185244 10.0063 0)
(-0.237292 10.0178 0)
(-0.29782 10.0385 0)
(-0.36598 10.0722 0)
(-0.439668 10.1232 0)
(-0.515179 10.1956 0)
(-0.588279 10.29 0)
(-0.655306 10.4051 0)
(-0.711848 10.5402 0)
(-0.753546 10.6935 0)
(-0.77646 10.8619 0)
(-0.777357 11.0415 0)
(-0.750909 11.2291 0)
(-0.703005 11.4154 0)
(-0.647115 11.5943 0)
(-0.585982 11.7655 0)
(-0.521917 11.9278 0)
(-0.459974 12.0978 0)
(-0.399297 12.272 0)
(-0.337532 12.4229 0)
(-0.275935 12.5391 0)
(-0.21498 12.6093 0)
(-0.156179 12.6254 0)
(-0.0990715 12.548 0)
(-0.0489338 12.1323 0)
(-0.0100487 10.5675 0)
(-0.00817804 10.0054 0)
(-0.00353857 10.0048 -1.79115e-18)
(-0.000693895 10.0037 -8.84105e-19)
(0.000664661 10.0023 4.18154e-19)
(0.000992865 10.0009 -3.95197e-19)
(0.000425643 10.0001 0)
(-0.0149276 10.0051 0)
(-0.0244092 10.0039 0)
(-0.0372871 10.002 0)
(-0.0543643 9.9994 0)
(-0.0765589 9.99655 0)
(-0.10487 9.99408 0)
(-0.140326 9.993 0)
(-0.18389 9.99482 0)
(-0.236336 10.0016 0)
(-0.29803 10.0162 0)
(-0.368653 10.042 0)
(-0.446857 10.0832 0)
(-0.529803 10.1444 0)
(-0.61289 10.2299 0)
(-0.691177 10.3395 0)
(-0.760662 10.4709 0)
(-0.816658 10.6228 0)
(-0.85476 10.7924 0)
(-0.871218 10.976 0)
(-0.863205 11.169 0)
(-0.825618 11.3679 0)
(-0.765834 11.563 0)
(-0.699017 11.7483 0)
(-0.628141 11.9234 0)
(-0.559497 12.1066 0)
(-0.492381 12.2969 0)
(-0.423818 12.47 0)
(-0.35559 12.6184 0)
(-0.288816 12.7315 0)
(-0.223767 12.7993 0)
(-0.161903 12.8118 0)
(-0.102694 12.7257 0)
(-0.0506428 12.2843 0)
(-0.0111237 10.6709 0)
(-0.0148432 10.0044 0)
(-0.00807536 10.0048 3.77744e-18)
(-0.00347883 10.0044 0)
(-0.00074029 10.0034 8.81836e-19)
(0.000577667 10.0021 1.3759e-22)
(0.000907074 10.0009 0)
(0.000383282 10.0001 0)
(-0.024177 10.003 0)
(-0.036886 10.0005 0)
(-0.0537383 9.99716 0)
(-0.0756505 9.9932 0)
(-0.103641 9.98915 0)
(-0.138782 9.98584 0)
(-0.182132 9.98458 0)
(-0.234629 9.98719 0)
(-0.296915 9.99615 0)
(-0.369104 10.0147 0)
(-0.450468 10.0467 0)
(-0.539028 10.0967 0)
(-0.63112 10.1698 0)
(-0.721175 10.2699 0)
(-0.803573 10.3961 0)
(-0.874076 10.5448 0)
(-0.927854 10.714 0)
(-0.9606 10.9 0)
(-0.968911 11.0984 0)
(-0.950497 11.304 0)
(-0.900588 11.5131 0)
(-0.828137 11.7158 0)
(-0.749924 11.9057 0)
(-0.673802 12.1021 0)
(-0.599172 12.3057 0)
(-0.522685 12.4948 0)
(-0.446463 12.6648 0)
(-0.372033 12.8089 0)
(-0.300393 12.9178 0)
(-0.231589 12.9818 0)
(-0.166931 12.9898 0)
(-0.105867 12.8946 0)
(-0.0520948 12.4287 0)
(-0.0120342 10.7705 0)
(-0.0239843 10.0021 0)
(-0.0145908 10.0037 4.92501e-22)
(-0.00783455 10.0042 0)
(-0.00341869 10.0039 -9.29825e-19)
(-0.000776884 10.0031 8.50576e-23)
(0.00049702 10.002 0)
(0.000825224 10.0008 0)
(0.00034342 10.0001 0)
(-0.0364841 9.99919 0)
(-0.0531114 9.99517 0)
(-0.0747326 9.99024 0)
(-0.102369 9.98478 0)
(-0.137123 9.9795 0)
(-0.180116 9.97549 0)
(-0.232409 9.97434 0)
(-0.294856 9.97825 0)
(-0.367908 9.99013 0)
(-0.451351 10.0136 0)
(-0.543929 10.0532 0)
(-0.642935 10.1136 0)
(-0.74379 10.2 0)
(-0.839904 10.3163 0)
(-0.925039 10.4603 0)
(-0.99488 10.6272 0)
(-1.0446 10.8139 0)
(-1.07016 11.0161 0)
(-1.06864 11.2287 0)
(-1.03841 11.4459 0)
(-0.97513 11.664 0)
(-0.889336 11.8724 0)
(-0.805102 12.0842 0)
(-0.722042 12.3015 0)
(-0.636282 12.504 0)
(-0.550662 12.6896 0)
(-0.467092 12.8547 0)
(-0.386818 12.9933 0)
(-0.310675 13.0971 0)
(-0.238469 13.1564 0)
(-0.171292 13.159 0)
(-0.108609 13.0545 0)
(-0.0533151 12.5653 0)
(-0.0127969 10.8658 0)
(-0.0361484 9.99802 0)
(-0.0235237 10.0011 -2.09876e-18)
(-0.014081 10.0029 0)
(-0.00760104 10.0036 0)
(-0.00334386 10.0035 2.78113e-18)
(-0.00080386 10.0028 0)
(0.000422763 10.0018 0)
(0.000747423 10.0007 7.81498e-19)
(0.000306087 10.0001 0)
(-0.0524905 9.99341 0)
(-0.0738214 9.98761 0)
(-0.101092 9.98092 0)
(-0.135414 9.97388 0)
(-0.177955 9.96743 0)
(-0.229864 9.96292 0)
(-0.29215 9.96229 0)
(-0.365529 9.96816 0)
(-0.4502 9.98388 0)
(-0.545507 10.0136 0)
(-0.649568 10.062 0)
(-0.758855 10.1344 0)
(-0.867791 10.2358 0)
(-0.968741 10.3697 0)
(-1.05496 10.5325 0)
(-1.12225 10.7182 0)
(-1.16595 10.9226 0)
(-1.18244 11.1405 0)
(-1.16946 11.3663 0)
(-1.12615 11.5939 0)
(-1.04855 11.8192 0)
(-0.95577 12.0506 0)
(-0.863458 12.2839 0)
(-0.767192 12.5004 0)
(-0.670558 12.6995 0)
(-0.576164 12.8798 0)
(-0.485657 13.0388 0)
(-0.399967 13.1711 0)
(-0.319703 13.2688 0)
(-0.244454 13.3226 0)
(-0.175032 13.3193 0)
(-0.110952 13.2055 0)
(-0.0543305 12.6943 0)
(-0.01343 10.9566 0)
(-0.0519716 9.99185 0)
(-0.0354076 9.99673 0)
(-0.0226329 10 -2.18414e-18)
(-0.0135919 10.0021 -2.06681e-18)
(-0.00734612 10.003 -3.90909e-18)
(-0.00325429 10.0031 0)
(-0.000821222 10.0025 -1.74559e-18)
(0.000355049 10.0017 -1.64832e-18)
(0.000673688 10.0007 7.77787e-19)
(0.000271237 10.0001 0)
(-0.0729243 9.98529 0)
(-0.0998304 9.97749 0)
(-0.133706 9.96891 0)
(-0.175735 9.96027 0)
(-0.227133 9.95277 0)
(-0.289027 9.94808 0)
(-0.362333 9.94853 0)
(-0.447576 9.95716 0)
(-0.54459 9.97781 0)
(-0.652188 10.015 0)
(-0.767767 10.074 0)
(-0.886883 10.1599 0)
(-1.0029 10.2779 0)
(-1.10716 10.4307 0)
(-1.19256 10.6134 0)
(-1.25523 10.8181 0)
(-1.29086 11.0398 0)
(-1.29644 11.2728 0)
(-1.27047 11.5107 0)
(-1.21288 11.747 0)
(-1.12852 11.9964 0)
(-1.0262 12.2504 0)
(-0.918137 12.4836 0)
(-0.808922 12.6968 0)
(-0.701834 12.8906 0)
(-0.599145 13.0645 0)
(-0.502185 13.2163 0)
(-0.411538 13.3414 0)
(-0.32755 13.4324 0)
(-0.249606 13.4803 0)
(-0.178202 13.4707 0)
(-0.112929 13.3477 0)
(-0.0551663 12.8157 0)
(-0.0139508 11.0425 0)
(-0.0721762 9.98323 0)
(-0.0508624 9.99016 -2.33372e-18)
(-0.0339936 9.99531 2.3006e-18)
(-0.021785 9.99897 -1.17727e-21)
(-0.0130723 10.0013 2.05981e-18)
(-0.00706969 10.0025 1.94774e-18)
(-0.00315046 10.0027 3.68052e-18)
(-0.000828833 10.0023 2.60684e-18)
(0.000293844 10.0015 -8.20229e-19)
(0.000604062 10.0006 0)
(0.000238852 10.0001 0)
(-0.0985919 9.97446 0)
(-0.132021 9.96449 0)
(-0.173516 9.95393 0)
(-0.224325 9.94376 0)
(-0.285665 9.93544 0)
(-0.358605 9.93103 0)
(-0.443923 9.93326 0)
(-0.541847 9.94566 0)
(-0.651769 9.9725 0)
(-0.771874 10.0188 0)
(-0.898735 10.0898 0)
(-1.02691 10.191 0)
(-1.14869 10.3271 0)
(-1.25443 10.5 0)
(-1.3369 10.7031 0)
(-1.39276 10.9268 0)
(-1.41825 11.1654 0)
(-1.41111 11.4125 0)
(-1.3707 11.6608 0)
(-1.3077 11.9226 0)
(-1.2136 12.1963 0)
(-1.09239 12.4511 0)
(-0.968772 12.6813 0)
(-0.847035 12.8892 0)
(-0.730052 13.0763 0)
(-0.619637 13.2426 0)
(-0.51675 13.3866 0)
(-0.421621 13.5039 0)
(-0.334303 13.5879 0)
(-0.253995 13.6295 0)
(-0.18086 13.6134 0)
(-0.114581 13.4813 0)
(-0.0558464 12.9296 0)
(-0.0143754 11.1237 0)
(-0.0975634 9.97177 0)
(-0.0705922 9.98103 -3.46747e-21)
(-0.048749 9.98833 0)
(-0.0326573 9.99394 -1.89064e-21)
(-0.0208943 9.99795 0)
(-0.0125217 10.0005 -2.05242e-18)
(-0.00677256 10.0019 -3.87954e-18)
(-0.00303222 10.0023 8.9474e-23)
(-0.000826871 10.0021 1.72937e-18)
(0.000238875 10.0014 -8.15854e-19)
(0.000538532 10.0005 7.69359e-19)
(0.000208904 10.0001 0)
(-0.130369 9.96058 0)
(-0.17133 9.9483 0)
(-0.221517 9.93576 0)
(-0.282198 9.92421 0)
(-0.354564 9.91544 0)
(-0.43959 9.91192 0)
(-0.537815 9.91683 0)
(-0.649103 9.93415 0)
(-0.772306 9.96862 0)
(-0.904881 10.0255 0)
(-1.04248 10.1104 0)
(-1.17864 10.2286 0)
(-1.30454 10.3841 0)
(-1.40968 10.5781 0)
(-1.48691 10.8019 0)
(-1.5337 11.0444 0)
(-1.54701 11.2991 0)
(-1.52543 11.5586 0)
(-1.48075 11.8341 0)
(-1.409 12.1218 0)
(-1.29386 12.3978 0)
(-1.15388 12.6504 0)
(-1.01515 12.8755 0)
(-0.881473 13.0765 0)
(-0.755246 13.2557 0)
(-0.637732 13.4137 0)
(-0.529467 13.5491 0)
(-0.430328 13.6584 0)
(-0.340061 13.7351 0)
(-0.257698 13.7701 0)
(-0.183063 13.7475 0)
(-0.115942 13.6066 0)
(-0.0563926 13.0364 0)
(-0.0147182 11.2 0)
(-0.129004 9.95711 0)
(-0.0953775 9.96895 2.58821e-18)
(-0.0675624 9.97871 -2.55761e-18)
(-0.0467638 9.98658 2.41743e-18)
(-0.0312626 9.99262 0)
(-0.0199599 9.99697 0)
(-0.011942 9.99982 2.04402e-18)
(-0.00645529 10.0014 -1.93076e-18)
(-0.00289967 10.002 1.19534e-22)
(-0.00081495 10.0018 8.60172e-19)
(0.000190217 10.0013 -8.11266e-19)
(0.000477019 10.0005 -7.63955e-19)
(0.000181521 10.0001 0)
(-0.169186 9.94331 0)
(-0.218747 9.92866 0)
(-0.278726 9.91423 0)
(-0.35038 9.90158 0)
(-0.434846 9.89289 0)
(-0.532917 9.89104 0)
(-0.644829 9.8997 0)
(-0.769992 9.9233 0)
(-0.90662 9.96696 0)
(-1.05134 10.0363 0)
(-1.19883 10.1368 0)
(-1.34154 10.2734 0)
(-1.46965 10.4496 0)
(-1.57188 10.6654 0)
(-1.64144 10.9099 0)
(-1.67688 11.1707 0)
(-1.676 11.44 0)
(-1.65157 11.7283 0)
(-1.5989 12.0318 0)
(-1.50498 12.3239 0)
(-1.36868 12.5989 0)
(-1.21037 12.8468 0)
(-1.05718 13.0648 0)
(-0.912293 13.2577 0)
(-0.777522 13.4281 0)
(-0.653563 13.5771 0)
(-0.54047 13.7038 0)
(-0.437779 13.8048 0)
(-0.344926 13.874 0)
(-0.26079 13.9024 0)
(-0.184867 13.8733 0)
(-0.117052 13.7239 0)
(-0.0568256 13.1364 0)
(-0.0149922 11.2716 0)
(-0.167427 9.93888 0)
(-0.126067 9.95351 0)
(-0.0911675 9.96602 2.69013e-18)
(-0.0647312 9.97648 -5.10208e-18)
(-0.0446998 9.9849 4.8256e-18)
(-0.0298078 9.99136 -4.56195e-18)
(-0.0189856 9.99604 0)
(-0.0113342 9.99914 2.03548e-18)
(-0.00611815 10.0009 -1.92112e-18)
(-0.00275414 10.0016 -1.81336e-18)
(-0.000792386 10.0016 0)
(0.0001476 10.0011 8.05545e-19)
(0.000419654 10.0004 0)
(0.000157205 10 0)
(-0.21603 9.92236 0)
(-0.275291 9.90536 0)
(-0.346173 9.88925 0)
(-0.429902 9.87594 0)
(-0.52748 9.86801 0)
(-0.639455 9.86882 0)
(-0.765686 9.88248 0)
(-0.905026 9.91388 0)
(-1.05495 9.96845 0)
(-1.21119 10.0519 0)
(-1.36737 10.1697 0)
(-1.51492 10.3263 0)
(-1.64305 10.5243 0)
(-1.73989 10.7621 0)
(-1.79929 11.0272 0)
(-1.82109 11.305 0)
(-1.81911 11.6051 0)
(-1.78775 11.9236 0)
(-1.71145 12.2338 0)
(-1.59489 12.5267 0)
(-1.43765 12.7979 0)
(-1.26172 13.0389 0)
(-1.09491 13.2485 0)
(-0.939628 13.4321 0)
(-0.797041 13.593 0)
(-0.667288 13.7327 0)
(-0.54991 13.8504 0)
(-0.444098 13.9431 0)
(-0.348998 14.0048 0)
(-0.263345 14.0266 0)
(-0.186325 13.9911 0)
(-0.117942 13.8336 0)
(-0.057163 13.2297 0)
(-0.0152073 11.3387 0)
(-0.213819 9.91677 0)
(-0.163568 9.93433 0)
(-0.120364 9.94984 0)
(-0.0872557 9.96322 5.36586e-18)
(-0.0617974 9.97437 -5.07795e-18)
(-0.0425561 9.98331 4.80195e-18)
(-0.0282998 9.99017 0)
(-0.0179728 9.99515 -2.14383e-18)
(-0.0106987 9.99849 0)
(-0.00576193 10.0005 1.91074e-18)
(-0.00259448 10.0013 0)
(-0.000760809 10.0014 0)
(0.000112218 10.001 0)
(0.000367706 10.0004 7.7876e-19)
(0.00013599 10 3.75111e-19)
(-0.271919 9.89749 0)
(-0.341999 9.87828 0)
(-0.424907 9.86084 0)
(-0.521763 9.84747 0)
(-0.633378 9.84119 0)
(-0.75999 9.84583 0)
(-0.900982 9.86595 0)
(-1.05455 9.90682 0)
(-1.21736 9.97412 0)
(-1.38415 10.0736 0)
(-1.54754 10.2103 0)
(-1.69792 10.3881 0)
(-1.82366 10.6085 0)
(-1.91253 10.8687 0)
(-1.95922 11.1533 0)
(-1.98208 11.4639 0)
(-1.97459 11.7967 0)
(-1.91829 12.1247 0)
(-1.81752 12.4378 0)
(-1.67824 12.7284 0)
(-1.5006 12.9934 0)
(-1.30794 13.2257 0)
(-1.12846 13.4256 0)
(-0.963665 13.5991 0)
(-0.814009 13.7502 0)
(-0.679087 13.8803 0)
(-0.557939 13.989 0)
(-0.44941 14.0734 0)
(-0.352372 14.1277 0)
(-0.265432 14.1429 0)
(-0.187485 14.1013 0)
(-0.118643 13.9361 0)
(-0.0574202 13.3168 0)
(-0.0153719 11.4014 0)
(-0.2692 9.8905 0)
(-0.208844 9.91107 0)
(-0.156008 9.92977 5.98456e-18)
(-0.115093 9.94635 5.66654e-18)
(-0.0832102 9.96058 5.36035e-18)
(-0.0587603 9.97237 -5.06752e-18)
(-0.0403432 9.98181 0)
(-0.0267406 9.98906 0)
(-0.0169229 9.99433 0)
(-0.0100369 9.99789 4.02853e-18)
(-0.00538875 10 1.89995e-18)
(-0.00242108 10.001 1.78985e-18)
(-0.000720231 10.0012 0)
(8.33368e-05 10.0009 -8.21081e-19)
(0.000321011 10.0004 -3.96199e-19)
(0.000117399 10 0)
(-0.337893 9.86853 0)
(-0.419927 9.8474 0)
(-0.515948 9.82915 0)
(-0.626911 9.81651 0)
(-0.75338 9.81297 0)
(-0.895195 9.82281 0)
(-1.05116 9.85102 0)
(-1.21875 9.90316 0)
(-1.39369 9.98505 0)
(-1.56978 10.1023 0)
(-1.73857 10.2594 0)
(-1.88953 10.4595 0)
(-2.01037 10.7029 0)
(-2.08855 10.9847 0)
(-2.13896 11.3042 0)
(-2.15825 11.6502 0)
(-2.12477 11.9959 0)
(-2.0422 12.3296 0)
(-1.91648 12.6422 0)
(-1.75476 12.9277 0)
(-1.55752 13.1843 0)
(-1.34917 13.4064 0)
(-1.15805 13.5956 0)
(-0.984631 13.7586 0)
(-0.828649 13.8993 0)
(-0.689149 14.0199 0)
(-0.56471 14.1196 0)
(-0.453834 14.1959 0)
(-0.355139 14.243 0)
(-0.267115 14.2519 0)
(-0.188392 14.2042 0)
(-0.119185 14.0316 0)
(-0.0576084 13.398 0)
(-0.0154973 11.4599 0)
(-0.33462 9.85988 0)
(-0.262889 9.88341 0)
(-0.199005 9.90543 -1.25903e-17)
(-0.149052 9.92545 1.78219e-20)
(-0.109649 9.94307 -1.12848e-17)