/*--------------------------------*- C++ -*----------------------------------*\
  =========                 |
  \\      /  F ield         | OpenFOAM: The Open Source CFD Toolbox
   \\    /   O peration     | Website:  https://openfoam.org
    \\  /    A nd           | Version:  8
     \\/     M anipulation  |
\*---------------------------------------------------------------------------*/
FoamFile
{
    version     2.0;
    format      ascii;
    class       volScalarField;
    location    "600";
    object      nut;
}
// * * * * * * * * * * * * * * * * * * * * * * * * * * * * * * * * * * * * * //

dimensions      [0 2 -1 0 0 0 0];

internalField   nonuniform List<scalar> 
15677
(
7.48316e-05
0.000154182
0.000258074
0.000722818
0.00180655
0.00331916
0.00477686
0.00581866
0.00636659
0.00658975
0.00667781
0.00671617
0.00671482
0.00670855
0.00670615
0.00670572
0.00670575
0.00670578
0.00670576
0.00670573
0.0067057
0.00670568
0.00670567
0.00670566
0.00670566
0.00670566
0.00670566
0.00670566
0.00670567
0.00670567
0.00670567
0.00670567
0.00670568
0.00670568
0.00670568
8.20516e-05
0.000137573
0.000177802
0.00037503
0.000873848
0.00172062
0.00284135
0.00405912
0.00517076
0.00598093
0.00641389
0.00659624
0.0066836
0.00670344
0.00670348
0.00670188
0.00670117
0.00670102
0.00670105
0.0067011
0.00670113
0.00670114
0.00670114
0.00670114
0.00670114
0.00670114
0.00670113
0.00670113
0.00670112
0.00670112
0.00670111
0.00670111
0.0067011
0.0067011
0.00670109
8.0204e-05
0.000111442
0.00014752
0.000310396
0.000665532
0.00126631
0.0021133
0.00314462
0.00423187
0.00521263
0.00595692
0.00639455
0.00659108
0.00667464
0.0066949
0.00669774
0.00669729
0.00669674
0.00669646
0.00669635
0.00669629
0.00669625
0.00669623
0.00669621
0.0066962
0.0066962
0.00669619
0.00669619
0.00669619
0.00669619
0.0066962
0.0066962
0.0066962
0.0066962
0.0066962
7.67508e-05
0.000108579
0.000125402
0.000257579
0.000566699
0.00106514
0.00176671
0.00264957
0.00364252
0.00462964
0.0054809
0.00609886
0.00645422
0.00661937
0.00667435
0.00668937
0.00669254
0.00669283
0.00669267
0.00669256
0.00669251
0.00669249
0.00669247
0.00669245
0.00669244
0.00669242
0.0066924
0.00669239
0.00669237
0.00669236
0.00669235
0.00669234
0.00669233
0.00669232
0.00669231
7.43253e-05
0.000111408
0.000122936
0.000234025
0.000504698
0.000947249
0.00156256
0.00234424
0.00325113
0.00420181
0.00508671
0.00580029
0.00628304
0.00654081
0.00664233
0.00667621
0.00668608
0.0066883
0.0066885
0.00668834
0.00668818
0.00668808
0.00668801
0.00668797
0.00668794
0.00668792
0.00668791
0.0066879
0.0066879
0.00668789
0.00668789
0.00668789
0.00668789
0.00668789
0.00668789
7.27332e-05
0.000117716
0.000123032
0.000212536
0.000461319
0.000868398
0.00142909
0.00214032
0.00297764
0.00388315
0.00476782
0.00553127
0.00609603
0.00643965
0.00659537
0.00665571
0.00667693
0.0066834
0.00668501
0.00668526
0.00668521
0.00668513
0.00668506
0.00668501
0.00668496
0.00668491
0.00668488
0.00668484
0.00668481
0.00668479
0.00668476
0.00668474
0.00668473
0.00668471
0.00668469
7.17213e-05
0.000124136
0.00012711
0.000205273
0.000427885
0.000808047
0.00133241
0.00199429
0.00277784
0.0036408
0.00451124
0.00529863
0.00592051
0.00633595
0.00654049
0.00662892
0.00666411
0.00667656
0.00668033
0.00668119
0.00668123
0.0066811
0.00668098
0.0066809
0.00668084
0.00668079
0.00668075
0.00668072
0.0066807
0.00668068
0.00668067
0.00668066
0.00668065
0.00668065
0.00668064
7.10213e-05
0.000129488
0.000135632
0.000196349
0.000401262
0.000758835
0.00125703
0.00188326
0.00262546
0.00345165
0.00430313
0.00509974
0.00575969
0.0062295
0.00648025
0.00659761
0.0066488
0.00666907
0.00667629
0.00667854
0.00667908
0.0066791
0.006679
0.00667889
0.00667879
0.0066787
0.00667863
0.00667857
0.00667851
0.00667846
0.00667842
0.00667838
0.00667835
0.00667832
0.00667829
7.05359e-05
0.000133929
0.00014498
0.000192022
0.000377206
0.000717442
0.00119494
0.0017949
0.00250546
0.0033011
0.00413308
0.00493067
0.00561541
0.00612698
0.00641771
0.00656273
0.00663046
0.00665932
0.00667045
0.00667423
0.00667527
0.0066754
0.00667531
0.00667519
0.00667508
0.00667499
0.00667491
0.00667485
0.00667479
0.00667475
0.00667472
0.00667469
0.00667466
0.00667465
0.00667463
7.01497e-05
0.000136621
0.000153679
0.00019264
0.00035746
0.000682307
0.00114321
0.00172274
0.00240842
0.00317884
0.0039926
0.00478691
0.0054877
0.00603147
0.00635614
0.00652678
0.00661126
0.00664981
0.00666601
0.00667221
0.00667427
0.00667475
0.00667474
0.0066746
0.00667444
0.0066743
0.00667417
0.00667406
0.00667396
0.00667388
0.00667381
0.00667375
0.0066737
0.00667364
0.0066736
6.98768e-05
0.000139323
0.000161894
0.000195233
0.000339886
0.00064851
0.00109768
0.00166234
0.00232907
0.00307894
0.00387631
0.00466515
0.00537596
0.00594425
0.00629707
0.00649053
0.00659064
0.0066384
0.00665935
0.00666777
0.00667077
0.0066716
0.0066717
0.00667159
0.00667145
0.0066713
0.00667116
0.00667105
0.00667095
0.00667086
0.00667078
0.00667072
0.00667067
0.00667063
0.0066706
6.97116e-05
0.000141507
0.000169168
0.000199178
0.000327525
0.0006194
0.00105687
0.00161025
0.00226238
0.00299609
0.00377952
0.00456218
0.00527905
0.0058661
0.00624252
0.00645629
0.00657147
0.00662918
0.00665605
0.00666759
0.00667203
0.00667338
0.00667363
0.00667353
0.00667333
0.00667312
0.00667293
0.00667276
0.00667261
0.00667249
0.00667239
0.00667231
0.00667223
0.00667216
0.00667209
6.96415e-05
0.000143174
0.000175717
0.000204027
0.000318867
0.000594225
0.00102114
0.00156562
0.00220736
0.00292774
0.00369933
0.00447585
0.00519634
0.0057978
0.00619321
0.00642437
0.00655265
0.00661849
0.00664993
0.00666394
0.00666968
0.00667162
0.00667211
0.0066721
0.00667194
0.00667174
0.00667155
0.00667137
0.00667121
0.00667107
0.00667094
0.00667082
0.00667071
0.00667062
0.00667055
6.96574e-05
0.000144423
0.000181079
0.000209219
0.000313361
0.000573927
0.000990379
0.00152746
0.00216066
0.00287207
0.0036335
0.00440439
0.00512667
0.00573869
0.00615052
0.00639687
0.00653773
0.00661335
0.00665103
0.00666836
0.00667565
0.00667821
0.00667891
0.00667894
0.00667875
0.00667849
0.00667823
0.006678
0.0066778
0.00667764
0.00667752
0.00667744
0.00667738
0.00667734
0.00667731
6.97293e-05
0.000145403
0.000185865
0.00021432
0.000309848
0.000557444
0.00096428
0.00149537
0.00212231
0.0028259
0.00358087
0.00434628
0.00506961
0.00569131
0.00611484
0.00637431
0.00652528
0.00660622
0.00664745
0.00666741
0.00667633
0.00667971
0.00668078
0.00668097
0.00668086
0.00668066
0.00668044
0.00668025
0.00668009
0.00667994
0.00667979
0.00667964
0.00667946
0.00667926
0.00667905
6.98846e-05
0.000146072
0.000189482
0.000219111
0.00030829
0.000543972
0.000942482
0.00146881
0.00209167
0.0027898
0.003539
0.0043016
0.00502572
0.00565101
0.00608442
0.0063559
0.0065188
0.00661116
0.00665945
0.00668286
0.00669368
0.00669802
0.00669956
0.00669999
0.0067
0.00669986
0.00669967
0.00669948
0.0066993
0.00669914
0.00669901
0.00669892
0.00669888
0.0066989
0.00669901
7.01344e-05
0.000146559
0.000192992
0.000223449
0.000307543
0.000533859
0.000924882
0.001448
0.00206822
0.00276285
0.00350804
0.00426736
0.0049905
0.00562709
0.00607487
0.00635283
0.00652062
0.00661604
0.00666676
0.00669201
0.00670388
0.00670884
0.00671073
0.00671138
0.00671154
0.00671151
0.00671142
0.00671132
0.00671123
0.00671117
0.00671113
0.00671112
0.00671113
0.00671114
0.00671113
7.04625e-05
0.000146798
0.000195329
0.000227683
0.000308422
0.000527428
0.000911614
0.00143185
0.0020516
0.00274511
0.00348737
0.00424579
0.00497633
0.00561518
0.00606729
0.00635375
0.00652778
0.00662763
0.00668169
0.00670928
0.00672261
0.00672847
0.00673094
0.00673199
0.00673245
0.00673267
0.0067328
0.00673289
0.00673299
0.0067331
0.00673321
0.00673333
0.00673344
0.00673352
0.0067336
7.08673e-05
0.000146757
0.000197333
0.000231021
0.000309483
0.000522889
0.000902214
0.00142225
0.00204167
0.00273413
0.00347835
0.00424059
0.00496827
0.00560924
0.00606625
0.00636039
0.00654324
0.00664996
0.00670911
0.00674026
0.00675594
0.00676324
0.00676661
0.00676831
0.00676928
0.00676993
0.00677043
0.00677088
0.00677129
0.00677168
0.00677205
0.00677238
0.00677266
0.00677287
0.00677305
7.13472e-05
0.000146608
0.000198651
0.000234538
0.000311797
0.000521338
0.000897239
0.00141551
0.00203808
0.00273572
0.00348049
0.00424032
0.00496833
0.00561454
0.00608007
0.00638225
0.00657135
0.00668329
0.00674639
0.00678051
0.00679837
0.00680737
0.00681221
0.00681509
0.00681708
0.00681867
0.00682004
0.00682127
0.0068224
0.00682343
0.00682438
0.00682523
0.00682601
0.0068267
0.00682737
7.18988e-05
0.000146282
0.000199785
0.000237428
0.00031412
0.000521221
0.000895423
0.00141681
0.00204364
0.00274259
0.00348864
0.00424909
0.00498304
0.00563651
0.00610882
0.00641749
0.00661277
0.00673015
0.00679752
0.00683495
0.00685576
0.00686745
0.00687441
0.00687912
0.0068827
0.00688567
0.00688826
0.00689058
0.0068927
0.00689465
0.00689643
0.00689808
0.00689958
0.00690094
0.00690222
7.25181e-05
0.000145765
0.00020059
0.000239453
0.000317608
0.000523769
0.00089757
0.0014212
0.00205194
0.00275428
0.00350605
0.00427307
0.00501235
0.00567222
0.00615171
0.0064672
0.00666907
0.00679184
0.00686373
0.00690504
0.00692985
0.00694474
0.0069545
0.00696177
0.00696777
0.00697303
0.0069778
0.00698218
0.0069862
0.0069899
0.00699329
0.00699638
0.00699919
0.00700171
0.00700403
7.3199e-05
0.000145106
0.000200954
0.000241552
0.000320561
0.000527823
0.000902436
0.00142929
0.00206603
0.00277577
0.00353463
0.00430857
0.00505499
0.00572277
0.00621029
0.00653336
0.00674259
0.00687149
0.00694812
0.00699574
0.00702578
0.00704566
0.00706006
0.00707161
0.00708149
0.00709026
0.00709818
0.0071054
0.00711203
0.00711812
0.0071237
0.00712882
0.00713347
0.00713767
0.0071415
7.39357e-05
0.000144332
0.000201022
0.000243592
0.00032403
0.000532891
0.000910241
0.00144242
0.00208681
0.00280657
0.00357316
0.00435566
0.00511101
0.00578816
0.00628505
0.00661767
0.00683411
0.0069684
0.0070536
0.00710802
0.00714476
0.00717111
0.00719151
0.00720869
0.00722398
0.007238
0.00725099
0.00726305
0.00727423
0.00728453
0.00729398
0.00730261
0.00731043
0.00731749
0.00732387
7.47213e-05
0.000143439
0.000200841
0.000245242
0.000327819
0.000539608
0.000921039
0.00145991
0.00211416
0.00284384
0.00362118
0.00441442
0.0051808
0.00586962
0.00637801
0.00672066
0.00694479
0.0070885
0.00718346
0.00724704
0.00729327
0.0073293
0.0073592
0.00738558
0.00740956
0.00743159
0.00745188
0.00747059
0.00748784
0.00750374
0.00751838
0.00753179
0.00754403
0.00755514
0.00756514
7.55485e-05
0.000142474
0.000200447
0.000246551
0.000331994
0.00054782
0.000934528
0.00148202
0.00214785
0.00288881
0.0036786
0.00448473
0.0052644
0.00596669
0.00648964
0.00684235
0.00707504
0.00723231
0.00733832
0.00741352
0.00747211
0.00752081
0.00756292
0.00760086
0.00763596
0.00766888
0.00769991
0.00772911
0.00775643
0.00778182
0.00780526
0.00782678
0.00784641
0.00786424
0.00788017
7.64113e-05
0.000141419
0.00019985
0.000247724
0.000336544
0.000557386
0.000950505
0.00150755
0.00218619
0.00294091
0.00374523
0.00456642
0.00536154
0.0060816
0.00661922
0.00698198
0.00723054
0.00740219
0.00752269
0.00761342
0.00768886
0.0077553
0.00781538
0.00787153
0.00792471
0.00797494
0.00802205
0.00806596
0.00810676
0.00814462
0.00817969
0.0082121
0.0082419
0.00826917
0.00829354
7.72997e-05
0.000140327
0.000199113
0.000248678
0.000341189
0.000568053
0.00096866
0.00153698
0.0022296
0.00300001
0.00382076
0.00465925
0.00547311
0.00621249
0.00676545
0.00714204
0.00740976
0.00759807
0.00773639
0.00784662
0.00794389
0.00803409
0.00811828
0.00819775
0.00827304
0.00834461
0.00841297
0.00847835
0.00854061
0.00859939
0.0086543
0.00870513
0.00875184
0.00879459
0.00883257
7.82108e-05
0.000139177
0.000198216
0.000249542
0.00034614
0.000579882
0.000989052
0.00157015
0.0022778
0.00306553
0.00390481
0.00476296
0.00559911
0.00635825
0.00692617
0.00732589
0.00761352
0.00782254
0.00798362
0.0081195
0.00824584
0.00836727
0.00848303
0.00859507
0.00870496
0.00881273
0.00891711
0.00901652
0.00910991
0.00919709
0.0092785
0.00935484
0.00942669
0.00949448
0.00955607
7.91314e-05
0.000138017
0.000197242
0.000250229
0.000351268
0.000592629
0.00101126
0.00160659
0.00233076
0.00313743
0.00399695
0.00487724
0.00573847
0.00651754
0.00710561
0.00753129
0.00784196
0.00807601
0.00826507
0.00843278
0.00859597
0.00875982
0.00892321
0.00908657
0.00924758
0.00940319
0.00955232
0.00969618
0.00983687
0.00997588
0.0101133
0.0102481
0.0103784
0.0105024
0.0106139
0.00670569
0.0067057
0.00670572
0.00670573
0.00670575
0.00670577
0.00670578
0.0067058
0.00670582
0.00670584
0.00670586
0.00670588
0.0067059
0.00670592
0.00670594
0.00670595
0.00670597
0.00670598
0.006706
0.00670601
0.00670602
0.00670603
0.0067011
0.00670113
0.00670115
0.00670117
0.0067012
0.00670122
0.00670124
0.00670127
0.00670129
0.00670131
0.00670134
0.00670137
0.0067014
0.00670142
0.00670145
0.00670148
0.00670151
0.00670154
0.00670157
0.0067016
0.00670163
0.00670166
0.00669623
0.00669629
0.00669634
0.0066964
0.00669646
0.00669652
0.00669659
0.00669665
0.00669672
0.0066968
0.00669687
0.00669694
0.00669702
0.00669708
0.00669715
0.00669721
0.00669727
0.00669733
0.00669738
0.00669744
0.00669749
0.00669753
0.00669234
0.00669239
0.00669245
0.0066925
0.00669256
0.00669262
0.00669268
0.00669274
0.0066928
0.00669286
0.00669293
0.00669299
0.00669306
0.00669313
0.0066932
0.00669327
0.00669334
0.00669341
0.00669348
0.00669355
0.00669362
0.00669368
0.00668793
0.00668801
0.0066881
0.00668819
0.00668829
0.00668839
0.0066885
0.00668861
0.00668872
0.00668884
0.00668896
0.00668908
0.0066892
0.00668931
0.00668942
0.00668952
0.00668962
0.00668971
0.0066898
0.00668988
0.00668997
0.00669005
0.00668472
0.0066848
0.00668487
0.00668495
0.00668503
0.00668511
0.00668519
0.00668527
0.00668535
0.00668544
0.00668553
0.00668563
0.00668572
0.00668583
0.00668593
0.00668603
0.00668614
0.00668624
0.00668635
0.00668645
0.00668655
0.00668665
0.00668069
0.00668079
0.0066809
0.00668102
0.00668114
0.00668127
0.00668141
0.00668155
0.0066817
0.00668186
0.00668202
0.00668219
0.00668235
0.0066825
0.00668264
0.00668277
0.00668289
0.00668301
0.00668312
0.00668323
0.00668334
0.00668344
0.00667831
0.00667839
0.00667846
0.00667854
0.00667862
0.00667869
0.00667877
0.00667885
0.00667893
0.00667901
0.00667911
0.00667921
0.00667932
0.00667944
0.00667956
0.00667969
0.00667982
0.00667996
0.00668009
0.00668023
0.00668036
0.00668048
0.00667467
0.00667476
0.00667486
0.00667498
0.0066751
0.00667525
0.0066754
0.00667557
0.00667576
0.00667595
0.00667615
0.00667634
0.00667652
0.00667669
0.00667684
0.00667698
0.00667711
0.00667724
0.00667736
0.00667748
0.00667759
0.00667771
0.00667359
0.00667362
0.00667366
0.00667369
0.00667372
0.00667375
0.00667377
0.00667378
0.00667379
0.00667381
0.00667385
0.0066739
0.00667399
0.0066741
0.00667423
0.00667438
0.00667453
0.00667469
0.00667484
0.00667499
0.00667514
0.00667528
0.00667059
0.0066706
0.00667062
0.00667067
0.00667075
0.00667086
0.006671
0.00667118
0.00667138
0.0066716
0.00667181
0.006672
0.00667216
0.00667229
0.0066724
0.00667248
0.00667256
0.00667264
0.00667273
0.00667282
0.00667293
0.00667304
0.00667202
0.00667192
0.00667182
0.00667172
0.00667158
0.00667142
0.00667123
0.00667101
0.00667078
0.00667057
0.00667041
0.00667032
0.00667031
0.00667037
0.00667048
0.00667063
0.00667078
0.00667094
0.00667108
0.00667121
0.00667133
0.00667143
0.00667039
0.0066701
0.00666984
0.00666964
0.00666953
0.00666953
0.00666963
0.00666981
0.00667003
0.00667024
0.00667041
0.00667049
0.00667047
0.00667039
0.00667026
0.00667012
0.00667
0.00666992
0.00666988
0.00666989
0.00666994
0.00667002
0.00667712
0.00667677
0.00667639
0.00667592
0.0066753
0.00667454
0.00667365
0.0066727
0.00667176
0.00667092
0.00667026
0.00666983
0.00666963
0.00666962
0.00666971
0.00666984
0.00666996
0.00667004
0.00667007
0.00667004
0.00666998
0.0066699
0.00667825
0.00667678
0.00667563
0.00667484
0.00667442
0.00667436
0.00667455
0.00667488
0.00667521
0.00667539
0.00667528
0.00667482
0.00667408
0.00667321
0.00667232
0.00667152
0.00667087
0.0066704
0.0066701
0.00666995
0.00666992
0.00666996
0.00669854
0.00669749
0.00669588
0.00669394
0.00669161
0.00668879
0.00668573
0.00668266
0.00667977
0.00667731
0.00667575
0.00667495
0.00667475
0.00667486
0.00667507
0.00667521
0.00667517
0.0066749
0.00667442
0.0066738
0.00667311
0.00667244
0.00671007
0.00670782
0.00670558
0.00670336
0.0067014
0.00670006
0.00669897
0.00669797
0.00669697
0.00669579
0.00669367
0.00669094
0.00668767
0.0066844
0.00668141
0.0066789
0.00667712
0.00667608
0.00667559
0.00667544
0.00667547
0.00667557
0.00673192
0.00672833
0.00672488
0.00672163
0.00671857
0.00671563
0.0067129
0.00671028
0.00670766
0.00670497
0.00670235
0.00670001
0.0066985
0.00669731
0.00669622
0.0066951
0.00669352
0.00669136
0.00668875
0.00668608
0.00668357
0.00668139
0.00677023
0.00676413
0.00675807
0.0067523
0.00674678
0.00674142
0.00673639
0.00673174
0.00672726
0.00672295
0.00671899
0.00671534
0.00671202
0.0067091
0.00670643
0.00670389
0.00670152
0.00669948
0.00669812
0.006697
0.00669596
0.00669492
0.00682385
0.00681572
0.00680762
0.00679972
0.00679196
0.00678426
0.00677661
0.006769
0.00676154
0.00675417
0.00674717
0.00674059
0.00673448
0.00672908
0.00672443
0.00672029
0.00671665
0.0067135
0.00671066
0.00670815
0.00670588
0.00670389
0.00689726
0.00688536
0.00687345
0.00686182
0.00685044
0.00683928
0.00682832
0.00681763
0.00680731
0.00679754
0.00678817
0.00677916
0.00677065
0.00676277
0.00675539
0.00674858
0.00674232
0.00673668
0.00673152
0.00672689
0.00672278
0.00671933
0.00699733
0.00698038
0.00696336
0.00694673
0.00693045
0.00691453
0.00689896
0.0068838
0.0068691
0.00685494
0.00684131
0.00682826
0.00681606
0.0068049
0.00679472
0.00678554
0.00677735
0.00676987
0.00676297
0.00675664
0.00675084
0.00674558
0.00713248
0.00710862
0.00708469
0.00706128
0.00703837
0.00701596
0.00699408
0.00697274
0.00695202
0.00693196
0.0069126
0.00689408
0.00687684
0.00686114
0.00684685
0.00683389
0.00682215
0.00681149
0.00680175
0.00679284
0.0067847
0.00677743
0.00731221
0.00727927
0.00724618
0.00721374
0.00718197
0.00715087
0.00712047
0.00709082
0.00706197
0.007034
0.00700695
0.00698107
0.00695703
0.00693516
0.00691526
0.0068972
0.0068808
0.0068659
0.00685234
0.00683997
0.00682869
0.00681862
0.00755001
0.00750489
0.00745958
0.00741511
0.00737151
0.0073288
0.00728699
0.00724616
0.00720641
0.00716782
0.0071305
0.00709481
0.00706168
0.00703155
0.00700418
0.00697931
0.00695673
0.00693623
0.0069176
0.00690064
0.00688521
0.00687146
0.00786124
0.00780021
0.00773888
0.00767858
0.0076194
0.00756137
0.00750451
0.00744891
0.0073947
0.00734201
0.007291
0.00724218
0.00719688
0.00715574
0.00711841
0.00708454
0.00705382
0.00702596
0.00700067
0.00697768
0.00695678
0.00693813
0.00826973
0.00818726
0.00810457
0.00802304
0.00794286
0.00786417
0.00778708
0.00771173
0.00763831
0.007567
0.00749803
0.00743205
0.00737082
0.00731519
0.00726469
0.00721889
0.00717738
0.00713979
0.00710575
0.00707489
0.00704692
0.00702199
0.00880321
0.0086913
0.00858077
0.00847222
0.00836513
0.00825947
0.00815551
0.00805357
0.00795401
0.00785718
0.00776355
0.0076742
0.00759163
0.00751695
0.0074494
0.00738826
0.0073329
0.00728275
0.00723733
0.00719616
0.00715887
0.00712563
0.00951929
0.00935665
0.00920051
0.00905183
0.00890808
0.00876756
0.00862973
0.00849466
0.00836271
0.00823413
0.00810909
0.00798888
0.00787713
0.00777583
0.0076844
0.00760215
0.00752824
0.00746178
0.00740188
0.00734772
0.00729865
0.00725476
0.0105724
0.0103239
0.0100798
0.00985084
0.00963642
0.0094335
0.00923969
0.00905335
0.00887377
0.00870167
0.0085374
0.0083812
0.00823619
0.00810384
0.00798301
0.00787303
0.00777355
0.00768411
0.00760407
0.00753251
0.00746847
0.00741174
0.00670604
0.00670604
0.00670604
0.00670604
0.00670604
0.00670604
0.00670167
0.00670167
0.00670167
0.00670167
0.00670167
0.00670167
0.00669756
0.00669756
0.00669756
0.00669756
0.00669756
0.00669756
0.00669371
0.00669371
0.00669371
0.00669371
0.00669371
0.00669371
0.00669009
0.00669008
0.00669008
0.00669008
0.00669008
0.00669009
0.0066867
0.0066867
0.0066867
0.0066867
0.0066867
0.0066867
0.00668349
0.00668349
0.00668349
0.00668349
0.00668349
0.00668349
0.00668055
0.00668055
0.00668055
0.00668055
0.00668055
0.00668055
0.00667776
0.00667776
0.00667775
0.00667775
0.00667776
0.00667776
0.00667535
0.00667535
0.00667535
0.00667535
0.00667535
0.00667535
0.00667309
0.00667309
0.00667309
0.00667309
0.00667309
0.00667309
0.00667147
0.00667145
0.00667144
0.00667144
0.00667145
0.00667147
0.00667008
0.00667011
0.00667013
0.00667013
0.00667011
0.00667008
0.00666979
0.00666968
0.00666963
0.00666963
0.00666968
0.0066698
0.00667009
0.00667024
0.00667033
0.00667033
0.00667024
0.0066701
0.00667188
0.00667154
0.00667139
0.00667139
0.00667155
0.00667189
0.00667591
0.00667626
0.00667645
0.00667645
0.00667626
0.00667591
0.00667998
0.00667946
0.0066793
0.0066793
0.00667947
0.00668
0.00669448
0.00669453
0.00669454
0.00669454
0.00669454
0.00669448
0.00670289
0.00670277
0.00670281
0.00670281
0.00670278
0.0067029
0.00671759
0.00671738
0.00671741
0.00671741
0.00671739
0.00671761
0.00674288
0.0067425
0.00674249
0.0067425
0.00674251
0.0067429
0.00677373
0.00677339
0.0067734
0.00677341
0.00677341
0.00677376
0.00681351
0.006813
0.00681303
0.00681304
0.00681302
0.00681354
0.00686455
0.00686393
0.00686399
0.006864
0.00686395
0.00686458
0.00692875
0.00692796
0.00692805
0.00692806
0.00692798
0.00692879
0.00700956
0.00700865
0.0070088
0.00700881
0.00700867
0.0070096
0.00710912
0.0071081
0.00710836
0.00710837
0.00710812
0.00710917
0.00723286
0.00723149
0.00723173
0.00723174
0.00723152
0.00723292
0.00738407
0.00738272
0.00738308
0.00738309
0.00738275
0.00738414
0.00670603
0.00670602
0.00670601
0.006706
0.00670598
0.00670597
0.00670595
0.00670594
0.00670592
0.0067059
0.00670588
0.00670586
0.00670584
0.00670582
0.0067058
0.00670578
0.00670576
0.00670574
0.00670573
0.00670571
0.00670569
0.00670568
0.00670166
0.00670163
0.0067016
0.00670157
0.00670154
0.00670151
0.00670148
0.00670145
0.00670143
0.0067014
0.00670137
0.00670134
0.00670132
0.00670129
0.00670127
0.00670125
0.00670123
0.0067012
0.00670118
0.00670116
0.00670114
0.00670111
0.00669753
0.00669749
0.00669743
0.00669738
0.00669733
0.00669727
0.00669721
0.00669715
0.00669708
0.00669701
0.00669694
0.00669687
0.00669679
0.00669672
0.00669665
0.00669658
0.00669651
0.00669645
0.00669639
0.00669633
0.00669627
0.00669622
0.00669368
0.00669361
0.00669355
0.00669348
0.00669341
0.00669334
0.00669327
0.0066932
0.00669313
0.00669306
0.006693
0.00669293
0.00669286
0.0066928
0.00669274
0.00669268
0.00669263
0.00669257
0.00669252
0.00669246
0.00669241
0.00669236
0.00669005
0.00668997
0.00668988
0.0066898
0.00668971
0.00668962
0.00668952
0.00668942
0.00668931
0.0066892
0.00668908
0.00668896
0.00668883
0.00668871
0.0066886
0.00668849
0.00668838
0.00668828
0.00668818
0.00668809
0.006688
0.00668791
0.00668665
0.00668655
0.00668645
0.00668634
0.00668624
0.00668613
0.00668603
0.00668593
0.00668582
0.00668572
0.00668563
0.00668553
0.00668544
0.00668536
0.00668527
0.00668519
0.00668512
0.00668504
0.00668497
0.00668489
0.00668482
0.00668475
0.00668344
0.00668334
0.00668323
0.00668312
0.00668301
0.00668289
0.00668277
0.00668264
0.0066825
0.00668235
0.00668219
0.00668203
0.00668186
0.0066817
0.00668155
0.0066814
0.00668126
0.00668113
0.006681
0.00668089
0.00668078
0.00668068
0.00668048
0.00668036
0.00668022
0.00668009
0.00667996
0.00667982
0.00667969
0.00667956
0.00667944
0.00667932
0.00667921
0.00667911
0.00667902
0.00667893
0.00667886
0.00667878
0.00667871
0.00667863
0.00667856
0.00667848
0.00667841
0.00667834
0.00667771
0.00667759
0.00667748
0.00667736
0.00667724
0.00667711
0.00667698
0.00667684
0.00667669
0.00667653
0.00667635
0.00667615
0.00667596
0.00667576
0.00667558
0.0066754
0.00667525
0.0066751
0.00667498
0.00667486
0.00667476
0.00667467
0.00667528
0.00667514
0.00667499
0.00667484
0.00667468
0.00667453
0.00667437
0.00667423
0.0066741
0.00667399
0.00667391
0.00667385
0.00667382
0.0066738
0.00667378
0.00667377
0.00667376
0.00667373
0.00667371
0.00667368
0.00667365
0.00667362
0.00667304
0.00667293
0.00667282
0.00667273
0.00667265
0.00667257
0.00667249
0.0066724
0.0066723
0.00667217
0.00667201
0.00667182
0.00667161
0.00667139
0.00667119
0.00667101
0.00667087
0.00667076
0.00667068
0.00667064
0.00667062
0.00667061
0.00667144
0.00667133
0.00667121
0.00667108
0.00667094
0.00667078
0.00667063
0.00667049
0.00667038
0.00667032
0.00667033
0.00667042
0.00667058
0.00667079
0.00667102
0.00667124
0.00667143
0.00667159
0.00667173
0.00667184
0.00667194
0.00667203
0.00667002
0.00666994
0.00666989
0.00666989
0.00666993
0.00667001
0.00667013
0.00667027
0.0066704
0.00667049
0.0066705
0.00667042
0.00667026
0.00667004
0.00666982
0.00666965
0.00666955
0.00666956
0.00666968
0.00666988
0.00667016
0.00667046
0.00666991
0.00666999
0.00667005
0.00667007
0.00667005
0.00666997
0.00666985
0.00666972
0.00666963
0.00666965
0.00666984
0.00667027
0.00667094
0.00667179
0.00667273
0.00667368
0.00667457
0.00667532
0.00667593
0.0066764
0.00667678
0.00667712
0.00666997
0.00666992
0.00666996
0.00667012
0.00667043
0.00667091
0.00667157
0.00667237
0.00667325
0.00667412
0.00667484
0.00667529
0.0066754
0.00667522
0.00667489
0.00667456
0.00667437
0.00667445
0.0066749
0.00667571
0.0066769
0.00667841
0.00667246
0.00667314
0.00667383
0.00667445
0.00667493
0.00667519
0.00667522
0.00667508
0.00667487
0.00667476
0.00667498
0.00667578
0.00667738
0.00667987
0.00668278
0.00668586
0.00668892
0.00669172
0.00669402
0.00669595
0.00669754
0.00669859
0.00667558
0.00667547
0.00667545
0.00667561
0.00667612
0.0066772
0.00667903
0.00668156
0.00668455
0.00668779
0.00669101
0.00669371
0.00669582
0.006697
0.006698
0.006699
0.00670009
0.00670144
0.00670343
0.00670565
0.00670789
0.00671015
0.00668143
0.00668365
0.00668619
0.00668888
0.0066915
0.00669363
0.00669517
0.00669627
0.00669735
0.00669854
0.00670003
0.00670238
0.00670503
0.00670773
0.00671035
0.00671298
0.00671571
0.00671865
0.00672172
0.00672496
0.00672842
0.00673201
0.00669494
0.00669598
0.00669704
0.00669817
0.00669954
0.00670163
0.00670402
0.00670655
0.0067092
0.0067121
0.00671539
0.00671904
0.00672303
0.00672738
0.00673187
0.00673653
0.00674157
0.00674692
0.00675244
0.0067582
0.00676426
0.00677037
0.00670392
0.00670593
0.00670824
0.00671078
0.00671364
0.00671681
0.00672047
0.00672462
0.00672926
0.00673464
0.00674068
0.00674725
0.00675431
0.00676172
0.0067692
0.00677682
0.00678447
0.00679214
0.00679988
0.00680776
0.00681583
0.00682393
0.00671938
0.00672288
0.00672704
0.00673173
0.00673694
0.0067426
0.00674889
0.00675569
0.00676303
0.00677084
0.00677926
0.00678824
0.0067977
0.00680753
0.0068179
0.00682861
0.00683955
0.00685069
0.00686203
0.00687361
0.00688546
0.00689729
0.00674564
0.00675097
0.00675684
0.00676324
0.00677019
0.0067777
0.00678592
0.0067951
0.00680524
0.00681632
0.00682838
0.0068414
0.00685515
0.0068694
0.00688416
0.00689935
0.0069149
0.00693079
0.00694699
0.00696354
0.00698044
0.00699726
0.00677751
0.00678488
0.00679311
0.00680212
0.00681193
0.00682265
0.0068344
0.00684736
0.0068616
0.00687718
0.00689422
0.00691271
0.00693224
0.00695242
0.00697323
0.0069946
0.00701647
0.00703881
0.00706161
0.00708488
0.00710862
0.00713227
0.00681873
0.00682893
0.00684034
0.00685284
0.0068665
0.00688147
0.0068979
0.00691596
0.00693577
0.00695748
0.00698126
0.00700708
0.00703437
0.00706253
0.00709149
0.00712119
0.00715156
0.00718256
0.00721417
0.00724638
0.00727918
0.00731178
0.00687161
0.00688554
0.00690114
0.00691826
0.00693703
0.00695764
0.00698026
0.00700511
0.00703237
0.00706227
0.00709503
0.00713066
0.00716832
0.00720716
0.00724708
0.00728797
0.00732974
0.00737231
0.00741567
0.00745979
0.00750466
0.00754926
0.00693832
0.00695721
0.00697835
0.00700156
0.00702703
0.00705503
0.00708581
0.00711965
0.00715683
0.00719767
0.00724246
0.00729119
0.00734267
0.00739571
0.00745016
0.00750584
0.00756265
0.00762048
0.00767931
0.00773912
0.0077998
0.00786007
0.00702223
0.00704748
0.00707578
0.00710693
0.00714122
0.00717899
0.00722058
0.00726634
0.00731664
0.00737185
0.0074324
0.00749827
0.00756788
0.00763967
0.00771341
0.00778888
0.0078659
0.00794431
0.008024
0.00810482
0.0081866
0.00826798
0.00712594
0.00715962
0.00719734
0.00723889
0.00728464
0.00733503
0.0073905
0.00745159
0.00751887
0.00759299
0.00767465
0.00776385
0.00785836
0.00795585
0.00805585
0.00815796
0.00826182
0.0083671
0.00847351
0.0085811
0.00869036
0.00880071
0.00725515
0.00729962
0.00734925
0.00740392
0.00746426
0.00753105
0.00760512
0.0076873
0.00777836
0.00787891
0.00798943
0.00810944
0.00823565
0.00836512
0.00849764
0.00863294
0.00877063
0.00891062
0.00905345
0.00920077
0.00935504
0.00951529
0.00741224
0.00746971
0.00753449
0.00760674
0.00768737
0.00777724
0.00787692
0.00798676
0.00810707
0.00823839
0.00838179
0.00853772
0.00870351
0.00887683
0.00905723
0.00924394
0.00943762
0.00963985
0.00985297
0.0100798
0.0103211
0.0105661
0.00670567
0.00670567
0.00670567
0.00670566
0.00670566
0.00670566
0.00670565
0.00670565
0.00670565
0.00670565
0.00670565
0.00670566
0.00670567
0.00670568
0.0067057
0.00670573
0.00670577
0.00670578
0.00670575
0.00670573
0.00670616
0.00670856
0.00671483
0.00671617
0.00667779
0.0065897
0.00636641
0.00581822
0.00477612
0.00331828
0.00180582
0.000722411
0.00025791
0.000154125
7.48191e-05
0.00670111
0.00670111
0.00670112
0.00670112
0.00670113
0.00670113
0.00670114
0.00670114
0.00670114
0.00670115
0.00670115
0.00670115
0.00670114
0.00670114
0.00670112
0.00670109
0.00670105
0.00670102
0.00670116
0.00670188
0.00670347
0.00670344
0.00668359
0.00659621
0.00641378
0.00598065
0.00517027
0.0040585
0.00284072
0.00172011
0.000873522
0.000374863
0.000177728
0.000137547
8.20327e-05
0.00669619
0.00669619
0.00669618
0.00669618
0.00669618
0.00669618
0.00669618
0.00669618
0.00669618
0.00669619
0.0066962
0.00669621
0.00669623
0.00669626
0.0066963
0.00669636
0.00669647
0.00669675
0.0066973
0.00669775
0.0066949
0.00667465
0.00659107
0.0063945
0.00595675
0.0052123
0.00423142
0.00314412
0.00211285
0.00126596
0.00066531
0.000310273
0.00014746
0.000111416
8.0184e-05
0.00669234
0.00669234
0.00669235
0.00669236
0.00669237
0.00669238
0.00669239
0.0066924
0.00669241
0.00669243
0.00669244
0.00669245
0.00669246
0.00669248
0.0066925
0.00669255
0.00669266
0.00669282
0.00669254
0.00668937