/*--------------------------------*- C++ -*----------------------------------*\
  =========                 |
  \\      /  F ield         | OpenFOAM: The Open Source CFD Toolbox
   \\    /   O peration     | Website:  https://openfoam.org
    \\  /    A nd           | Version:  8
     \\/     M anipulation  |
\*---------------------------------------------------------------------------*/
FoamFile
{
    version     2.0;
    format      ascii;
    class       volScalarField;
    location    "600";
    object      p;
}
// * * * * * * * * * * * * * * * * * * * * * * * * * * * * * * * * * * * * * //

dimensions      [0 2 -2 0 0 0 0];

internalField   nonuniform List<scalar> 
15677
(
85.8832
82.8684
82.8464
83.0721
83.0358
82.974
82.933
82.8949
82.8544
82.8124
82.7694
82.7257
82.6819
82.6386
82.6005
82.5687
82.5415
82.518
82.4977
82.4802
82.4651
82.4525
82.4426
82.4346
82.4282
82.423
82.4187
82.4152
82.4122
82.4097
82.4076
82.4058
82.4043
82.403
82.4018
82.9587
82.0003
82.5186
82.5721
82.515
82.514
82.5208
82.5219
82.521
82.5197
82.5173
82.5131
82.5065
82.4973
82.4866
82.4759
82.4652
82.4549
82.4452
82.4362
82.428
82.4209
82.4151
82.4104
82.4065
82.4034
82.4007
82.3985
82.3967
82.3951
82.3938
82.3927
82.3917
82.3909
82.3902
82.4223
82.2357
82.4374
82.3649
82.3513
82.3634
82.3659
82.3658
82.3662
82.3667
82.367
82.3672
82.3672
82.3667
82.3658
82.3647
82.3634
82.3622
82.361
82.3599
82.359
82.3583
82.3579
82.3576
82.3575
82.3574
82.3575
82.3576
82.3578
82.3579
82.3581
82.3583
82.3585
82.3587
82.3589
82.2744
82.2564
82.2975
82.2578
82.2703
82.274
82.272
82.2712
82.2709
82.2707
82.2707
82.2712
82.2723
82.274
82.2763
82.279
82.282
82.2853
82.289
82.2929
82.2972
82.3015
82.3055
82.3093
82.3126
82.3157
82.3185
82.3209
82.3231
82.3251
82.3269
82.3284
82.3298
82.3311
82.3321
82.1344
82.1411
82.1442
82.1362
82.147
82.1472
82.1481
82.15
82.152
82.1545
82.1577
82.162
82.1675
82.1745
82.1824
82.1905
82.1991
82.2081
82.2174
82.2271
82.237
82.2466
82.2554
82.2633
82.2704
82.2768
82.2824
82.2874
82.2919
82.2958
82.2993
82.3024
82.3052
82.3076
82.3097
82.0168
82.023
82.0223
82.0242
82.0291
82.0299
82.0322
82.0347
82.0375
82.0411
82.0459
82.0524
82.0609
82.072
82.0848
82.0982
82.1126
82.1276
82.1433
82.1594
82.1759
82.192
82.2066
82.2197
82.2314
82.2419
82.2511
82.2594
82.2667
82.2731
82.2788
82.2839
82.2884
82.2924
82.2958
81.8973
81.9012
81.9022
81.9052
81.9077
81.9097
81.9123
81.915
81.9184
81.9229
81.9291
81.9375
81.949
81.9642
81.9822
82.0014
82.0221
82.044
82.067
82.0909
82.1153
82.1392
82.1609
82.1804
82.1979
82.2135
82.2273
82.2396
82.2505
82.2601
82.2686
82.2762
82.2829
82.2888
82.2938
81.7569
81.7595
81.7618
81.7645
81.7667
81.7694
81.7723
81.7757
81.7801
81.786
81.7942
81.8055
81.8209
81.8417
81.8664
81.893
81.9218
81.9526
81.9849
82.0185
82.053
82.0868
82.1176
82.1453
82.1702
82.1923
82.212
82.2294
82.2449
82.2586
82.2708
82.2815
82.2911
82.2995
82.3065
81.5892
81.5911
81.5938
81.5964
81.5989
81.6022
81.6057
81.61
81.6157
81.6235
81.6343
81.6493
81.6699
81.6978
81.7312
81.7673
81.8066
81.8486
81.8928
81.9389
81.9865
82.033
82.0755
82.1138
82.1481
82.1787
82.206
82.2302
82.2516
82.2706
82.2874
82.3023
82.3156
82.3273
82.337
81.3872
81.3887
81.3914
81.3944
81.3974
81.4011
81.4055
81.411
81.4184
81.4286
81.4428
81.4626
81.4898
81.5266
81.571
81.6191
81.6716
81.7279
81.7873
81.8494
81.9135
81.9762
82.0337
82.0855
82.132
82.1734
82.2104
82.2432
82.2723
82.298
82.3209
82.3411
82.3591
82.375
82.3882
81.1432
81.1445
81.1473
81.1507
81.1542
81.1586
81.164
81.1709
81.1805
81.1937
81.2123
81.238
81.2734
81.3215
81.3795
81.4427
81.5117
81.5859
81.6644
81.7464
81.8313
81.9145
81.9908
82.0597
82.1215
82.1767
82.2259
82.2696
82.3085
82.3429
82.3734
82.4004
82.4244
82.4457
82.4632
80.8497
80.8508
80.8535
80.8573
80.8615
80.8668
80.8734
80.8821
80.8942
80.9112
80.9349
80.9679
81.0134
81.0752
81.1501
81.2317
81.3211
81.4173
81.5193
81.6261
81.7368
81.8453
81.945
82.0352
82.1162
82.1886
82.2532
82.3106
82.3616
82.4068
82.4469
82.4825
82.5141
82.5422
82.5651
80.4985
80.4993
80.5018
80.5062
80.5112
80.5175
80.5255
80.5364
80.5516
80.5729
80.6029
80.6446
80.7022
80.7806
80.8757
80.9796
81.0936
81.2165
81.347
81.484
81.6261
81.7657
81.8942
82.0105
82.1151
82.2087
82.2923
82.3666
82.4327
82.4914
82.5434
82.5896
82.6306
82.6671
82.6967
80.081
80.0814
80.084
80.0889
80.0948
80.1024
80.1122
80.1256
80.1444
80.1709
80.2082
80.2603
80.3322
80.4301
80.5491
80.6795
80.8227
80.9774
81.142
81.3151
81.495
81.6721
81.8353
81.9833
82.1166
82.236
82.3427
82.4378
82.5223
82.5974
82.664
82.7232
82.7759
82.8226
82.8604
79.5898
79.59
79.5926
79.5981
79.6051
79.6141
79.6259
79.6422
79.6651
79.6976
79.7434
79.8073
79.8957
80.0162
80.163
80.3241
80.5015
80.6934
80.8981
81.1138
81.3384
81.56
81.7646
81.9505
82.1181
82.2686
82.4031
82.5231
82.6299
82.7249
82.8093
82.8843
82.9511
83.0103
83.058
79.0184
79.0184
79.021
79.0271
79.0353
79.046
79.06
79.0793
79.1068
79.1459
79.2012
79.2785
79.3854
79.5316
79.71
79.9062
80.1227
80.3575
80.6085
80.8736
81.1504
81.424
81.6773
81.9078
82.1161
82.3033
82.471
82.6208
82.7542
82.873
82.9787
83.0726
83.1564
83.2307
83.2902
78.3608
78.3606
78.3632
78.3699
78.3794
78.3919
78.4082
78.4309
78.4633
78.5096
78.5752
78.6672
78.7947
78.9693
79.1829
79.4183
79.6789
79.9622
80.2659
80.5874
80.924
81.2577
81.5674
81.8499
82.1056
82.336
82.5426
82.7275
82.8924
83.0394
83.1703
83.2867
83.3907
83.483
83.5563
77.6121
77.6116
77.6143
77.6215
77.6324
77.6466
77.6654
77.6916
77.7291
77.783
77.8597
77.9674
78.117
78.3225
78.5747
78.8535
79.1628
79.5
79.8625
80.2474
80.6516
81.0536
81.4278
81.7699
82.0804
82.3606
82.6125
82.8382
83.04
83.22
83.3804
83.5233
83.6512
83.7646
83.8542
76.7685
76.7677
76.7704
76.7782
76.7904
76.8065
76.8278
76.8574
76.9001
76.9619
77.05
77.1742
77.3473
77.5857
77.8792
78.2046
78.5668
78.9629
79.39
79.8449
80.3244
80.8028
81.2496
81.6593
82.0322
82.3696
82.6734
82.9462
83.1905
83.4088
83.6036
83.7774
83.9331
84.0712
84.1795
75.8278
75.8266
75.8293
75.8377
75.8512
75.8691
75.8927
75.9257
75.9736
76.0431
76.1427
76.2838
76.4812
76.7539
77.0907
77.4653
77.8837
78.3429
78.8397
79.3708
79.9327
80.4956
81.0231
81.5083
81.9513
82.3532
82.7161
83.0425
83.3354
83.5977
83.8321
84.0415
84.2294
84.396
84.5256
74.7894
74.7879
74.7906
74.7994
74.814
74.8336
74.8593
74.8954
74.9481
75.0251
75.1362
75.2941
75.5157
75.8231
76.2043
76.6299
77.1069
77.6324
78.2032
78.8157
79.4664
80.1209
80.7367
81.3053
81.8261
82.3
82.729
83.116
83.4639
83.776
84.0555
84.3055
84.5304
84.7295
84.8831
73.6543
73.6525
73.655
73.6643
73.6799
73.7009
73.7285
73.7672
73.8242
73.9082
74.03
74.2041
74.4494
74.7911
75.2167
75.6938
76.2306
76.8244
77.472
78.1699
78.9146
79.6671
80.3782
81.0374
81.6433
82.1965
82.6988
83.153
83.5625
83.9306
84.2608
84.5568
84.8237
85.0597
85.2398
72.4253
72.423
72.4255
72.4351
72.4515
72.4735
72.5025
72.5434
72.604
72.694
72.8255
73.0145
73.2822
73.6568
74.1257
74.6535
75.2499
75.9125
76.6383
77.424
78.2664
79.1219
79.9342
80.6903
81.3881
82.0274
82.6098
83.138
83.6154
84.0457
84.4324
84.7799
85.0938
85.3711
85.5799
71.1065
71.1039
71.1062
71.116
71.133
71.1557
71.1856
71.2279
71.2911
71.386
71.5257
71.7279
72.0159
72.421
72.9307
73.507
74.1612
74.8914
75.695
76.5691
77.5112
78.473
79.3907
80.249
81.0444
81.7759
82.4447
83.0531
83.6046
84.1029
84.5517
84.956
85.3223
85.6451
85.8846
69.7041
69.701
69.7031
69.7129
69.7302
69.7533
69.7833
69.8262
69.891
69.9892
70.1354
70.3485
70.6539
71.0859
71.6326
72.2538
72.9626
73.7573
74.6362
75.5974
76.6388
77.7081
78.7339
79.6979
80.5953
81.4241
82.1845
82.8788
83.5099
84.0817
84.598
85.0642
85.4879
85.8604
86.1314
68.2252
68.2217
68.2235
68.2332
68.2505
68.2733
68.3029
68.3453
68.4103
68.5103
68.6608
68.8819
69.2011
69.6556
70.2342
70.8954
71.6535
72.5078
73.4576
74.502
75.6401
76.8158
77.95
79.0215
80.0237
80.9532
81.8094
82.5939
83.3093
83.9593
84.5478
85.0805
85.5664
85.992
86.2944
66.6783
66.6745
66.6759
66.6853
66.7022
66.7243
66.7527
66.7936
66.8574
66.9573
67.1095
67.3355
67.6643
68.1358
68.7402
69.4348
70.2354
71.1424
72.1565
73.2781
74.5077
75.786
77.0264
78.2048
79.3124
80.3444
81.299
82.1768
82.9801
83.712
84.3764
84.9794
85.5317
86.0132
86.3448
65.0728
65.0686
65.0696
65.0784
65.0946
65.1154
65.1418
65.1801
65.2412
65.3389
65.4902
65.7174
66.0512
66.5335
67.1564
67.8767
68.7114
69.6624
70.7321
71.9222
73.2353
74.6094
75.9512
77.2333
78.4448
79.5789
80.6324
81.6048
82.4977
83.3138
84.0565
84.7326
85.3546
85.8937
86.2497
63.4192
63.4147
63.4151
63.4233
63.4384
63.4573
63.4808
63.5155
63.5723
63.6657
63.8132
64.0378
64.3713
64.8578
65.4912
66.2281
67.0871
68.0719
69.1863
70.434
71.8198
73.2802
74.7159
76.096
77.4071
78.6403
79.7909
80.857
81.8395
82.7403
83.5621
84.3122
85.0057
85.6016
85.9715
61.7267
61.7219
61.7217
61.7289
61.7425
61.7589
61.7788
61.8085
61.8595
61.9465
62.0873
62.3054
62.6334
63.1169
63.7517
64.4952
65.3676
66.3742
67.5205
68.8125
70.2574
71.7911
73.309
74.7771
76.1797
77.5062
78.7498
79.9069
80.9766
81.9601
82.8589
83.6817
84.4465
85.0966
85.4631
82.4005
82.399
82.3974
82.396
82.3946
82.3933
82.392
82.3908
82.3896
82.3885
82.3875
82.3866
82.3857
82.385
82.3843
82.3838
82.3833
82.3828
82.3825
82.3822
82.3819
82.3817
82.3894
82.3886
82.3877
82.3869
82.3861
82.3854
82.3846
82.3839
82.3833
82.3826
82.382
82.3815
82.381
82.3805
82.3802
82.3798
82.3795
82.3793
82.3791
82.3789
82.3788
82.3787
82.3593
82.3598
82.3604
82.361
82.3615
82.362
82.3626
82.3631
82.3636
82.3641
82.3645
82.3649
82.3653
82.3657
82.366
82.3662
82.3665
82.3667
82.3669
82.367
82.3672
82.3673
82.3338
82.3357
82.3376
82.3395
82.3414
82.3432
82.3449
82.3466
82.3482
82.3498
82.3512
82.3526
82.3538
82.3549
82.3558
82.3567
82.3574
82.358
82.3585
82.3589
82.3593
82.3596
82.3128
82.3162
82.3196
82.323
82.3262
82.3294
82.3325
82.3355
82.3383
82.341
82.3435
82.3459
82.348
82.3498
82.3514
82.3527
82.3539
82.3548
82.3556
82.3562
82.3567
82.3571
82.3005
82.3056
82.3108
82.3158
82.3207
82.3254
82.33
82.3344
82.3385
82.3424
82.3461
82.3494
82.3523
82.3549
82.357
82.3588
82.3603
82.3614
82.3624
82.3631
82.3635
82.3638
82.3007
82.3077
82.3149
82.3218
82.3286
82.3351
82.3413
82.3472
82.3528
82.358
82.3628
82.3672
82.3709
82.3741
82.3767
82.3788
82.3805
82.3817
82.3826
82.3832
82.3834
82.3834
82.3163
82.3255
82.3351
82.3444
82.3534
82.3619
82.37
82.3777
82.3849
82.3915
82.3975
82.4029
82.4074
82.4112
82.4141
82.4164
82.4181
82.4192
82.4199
82.4201
82.4198
82.4192
82.3503
82.3623
82.3748
82.387
82.3986
82.4096
82.4199
82.4296
82.4386
82.4468
82.4541
82.4605
82.4658
82.47
82.4732
82.4754
82.4769
82.4776
82.4777
82.4773
82.4762
82.4746
82.4061
82.4215
82.4375
82.4532
82.4679
82.4819
82.495
82.507
82.5181
82.528
82.5368
82.5442
82.5502
82.5547
82.5578
82.5598
82.5607
82.5608
82.56
82.5584
82.5561
82.5532
82.487
82.5064
82.5269
82.5468
82.5654
82.5829
82.5992
82.614
82.6275
82.6394
82.6497
82.6582
82.6647
82.6693
82.6722
82.6736
82.6737
82.6725
82.6704
82.6674
82.6633
82.6584
82.5963
82.6207
82.6466
82.6717
82.6951
82.7168
82.7368
82.755
82.7712
82.7853
82.7972
82.8068
82.8138
82.8183
82.8206
82.8211
82.8198
82.817
82.813
82.8079
82.8014
82.7939
82.7373
82.7676
82.8002
82.8316
82.8607
82.8876
82.9121
82.9342
82.9536
82.9702
82.984
82.9946
83.0019
83.006
83.0074
83.0064
83.0033
82.9983
82.9917
82.9839
82.9743
82.9633
82.9127
82.9503
82.9911
83.0301
83.0661
83.0992
83.1292
83.1558
83.179
83.1985
83.2143
83.226
83.2334
83.2369
83.2369
83.2339
83.2282
83.2203
83.2106
83.1991
83.1856
83.1703
83.1247
83.171
83.2218
83.2701
83.3146
83.3552
83.3917
83.4239
83.4515
83.4744
83.4924
83.5052
83.5126
83.5151
83.5132
83.5076
83.4988
83.4872
83.4733
83.4574
83.439
83.4183
83.3745
83.4314
83.4944
83.5542
83.609
83.6586
83.703
83.7418
83.7747
83.8017
83.8223
83.8363
83.8436
83.8446
83.8404
83.8315
83.8187
83.8025
83.7836
83.7623
83.7378
83.7106
83.6623
83.7321
83.8101
83.8838
83.951
84.0117
84.0656
84.1125
84.1519
84.1837
84.2074
84.2228
84.2298
84.2292
84.222
84.2092
84.1915
84.1698
84.1448
84.1169
84.0853
84.0502
83.9864
84.0719
84.1682
84.259
84.3414
84.4156
84.4813
84.538
84.5853
84.623
84.6506
84.6678
84.6746
84.672
84.6613
84.6438
84.6204
84.5922
84.5599
84.5243
84.4842
84.4398
84.3434
84.4481
84.5669
84.6784
84.7796
84.8703
84.9504
85.0192
85.0764
85.1214
85.1539
85.1736
85.1804
85.1756
85.1611
85.1381
85.1081
85.0722
85.0315
84.9869
84.937
84.8818
84.7277
84.8558
85.0021
85.1391
85.2631
85.3743
85.4721
85.556
85.6253
85.6797
85.7186
85.7416
85.7488
85.742
85.7231
85.6942
85.6567
85.6121
85.5618
85.5069
85.4456
85.378
85.1312
85.2877
85.4677
85.6358
85.7879
85.9241
86.0439
86.1465
86.2311
86.2974
86.3446
86.3724
86.3808
86.3721
86.3489
86.3134
86.2676
86.2133
86.1522
86.0856
86.0115
85.9298
85.5428
85.7339
85.9549
86.1609
86.3474
86.5145
86.6615
86.7874
86.8914
86.9728
87.031
87.0654
87.0763
87.0664
87.0388
86.9964
86.9416
86.8767
86.8035
86.724
86.6356
86.5379
85.9483
86.1812
86.4522
86.7044
86.9329
87.138
87.3185
87.4735
87.6018
87.7026
87.7752
87.819
87.8342
87.8241
87.7926
87.7433
87.679
87.6025
87.5163
87.4224
87.3182
87.2028
86.3306
86.6136
86.9451
87.2531
87.5328
87.7843
88.0064
88.1974
88.3562
88.4818
88.5734
88.6301
88.652
88.6434
88.609
88.5529
88.4789
88.3902
88.2899
88.1805
88.0591
87.9243
86.6693
87.0117
87.4158
87.7911
88.1328
88.441
88.7138
88.9495
89.1465
89.3036
89.4198
89.4939
89.5262
89.5215
89.4855
89.4235
89.3399
89.2387
89.1235
88.9975
88.8574
88.7014
86.9407
87.3527
87.8435
88.2993
88.7156
89.0923
89.4272
89.7178
89.9624
90.1592
90.3071
90.4046
90.4517
90.4541
90.4188
90.3522
90.2595
90.1457
90.0151
89.8716
89.7118
89.5331
87.1187
87.6108
88.204
88.7551
89.2604
89.7194
90.1293
90.4872
90.7905
91.0371
91.2256
91.3538
91.4216
91.4355
91.4041
91.3349
91.2343
91.1083
90.9621
90.8005
90.6199
90.417
87.175
87.7569
88.4707
89.1339
89.7446
90.3017
90.8018
91.241
91.6161
91.9245
92.164
92.3322
92.4281
92.4592
92.4358
92.3669
92.2603
92.1232
91.9617
91.7818
91.5798
91.3515
87.0785
87.757
88.6104
89.4044
90.1384
90.8115
91.4188
91.9558
92.4183
92.8029
93.1068
93.3263
93.4596
93.5153
93.5054
93.4408
93.3309
93.1842
93.0083
92.8102
92.5863
92.3316
86.7918
87.5769
88.5911
89.5385
90.4179
91.2282
91.963
92.6164
93.1832
93.6594
94.0416
94.3251
94.5067
94.5959
94.6067
94.5519
94.4428
94.2894
94.1008
93.8853
93.64
93.3597
82.3816
82.3814
82.3813
82.3813
82.3813
82.3813
82.3786
82.3785
82.3784
82.3783
82.3783
82.3784
82.3674
82.3673
82.3673
82.3673
82.3672
82.3671
82.3598
82.3598
82.3599
82.3598
82.3597
82.3595
82.3573
82.3576
82.3577
82.3576
82.3574
82.357
82.3641
82.3646
82.3648
82.3647
82.3643
82.3637
82.3837
82.3844
82.3847
82.3846
82.3841
82.3832
82.4193
82.4204
82.4209
82.4207
82.4201
82.4188
82.4744
82.476
82.4766
82.4765
82.4756
82.4738
82.5525
82.5547
82.5556
82.5554
82.5543
82.5518
82.657
82.66
82.6612
82.661
82.6595
82.6562
82.7915
82.7955
82.7971
82.797
82.795
82.7906
82.9597
82.9649
82.967
82.9668
82.9643
82.9587
83.165
83.1718
83.1745
83.1743
83.1711
83.1639
83.4109
83.4196
83.423
83.4228
83.4189
83.4096
83.7007
83.7117
83.7159
83.7156
83.7108
83.6992
84.0372
84.051
84.0561
84.0558
84.05
84.0356
84.4231
84.4401
84.4464
84.4461
84.4391
84.4214
84.8607
84.8816
84.8892
84.8888
84.8805
84.8589
85.352
85.3773
85.3863
85.3859
85.3762
85.3499
85.898
85.9286
85.9392
85.9388
85.9274
85.8958
86.4997
86.5363
86.5487
86.5483
86.535
86.4974
87.1574
87.2009
87.2153
87.2148
87.1995
87.1549
87.8709
87.9223
87.9389
87.9384
87.9208
87.8682
88.6393
88.6997
88.7186
88.7181
88.6981
88.6365
89.4614
89.532
89.5535
89.553
89.5303
89.4585
90.335
90.417
90.4413
90.4408
90.4152
90.3318
91.2585
91.3532
91.3806
91.38
91.3514
91.2552
92.2267
92.3355
92.3661
92.3655
92.3337
92.2233
93.243
93.3657
93.4001
93.3994
93.3638
93.2395
82.3814
82.3816
82.3818
82.382
82.3823
82.3826
82.383
82.3835
82.3841
82.3847
82.3855
82.3863
82.3873
82.3883
82.3893
82.3905
82.3917
82.393
82.3943
82.3957
82.3971
82.3986
82.3784
82.3784
82.3785
82.3786
82.3787
82.3789
82.3791
82.3793
82.3796
82.3799
82.3803
82.3808
82.3813
82.3818
82.3824
82.383
82.3837
82.3844
82.3851
82.3858
82.3866
82.3874
82.367
82.3668
82.3665
82.3663
82.366
82.3657
82.3654
82.365
82.3646
82.3641
82.3636
82.3631
82.3625
82.3619
82.3613
82.3607
82.3601
82.3595
82.3588
82.3582
82.3576
82.3569
82.3592
82.3588
82.3584
82.3578
82.3572
82.3565
82.3557
82.3547
82.3537
82.3525
82.3511
82.3496
82.348
82.3463
82.3445
82.3427
82.3409
82.339
82.337
82.3351
82.3331
82.3311
82.3566
82.3561
82.3555
82.3548
82.3539
82.3528
82.3515
82.3501
82.3484
82.3464
82.3442
82.3416
82.3389
82.3361
82.3331
82.3299
82.3267
82.3234
82.32
82.3165
82.313
82.3096
82.3633
82.3629
82.3623
82.3614
82.3604
82.359
82.3574
82.3555
82.3531
82.3505
82.3474
82.3438
82.3399
82.3358
82.3315
82.3269
82.3222
82.3173
82.3122
82.3071
82.3018
82.2967
82.3828
82.3827
82.3823
82.3815
82.3805
82.379
82.3772
82.3748
82.372
82.3687
82.3647
82.3601
82.3551
82.3496
82.3438
82.3376
82.3312
82.3245
82.3176
82.3104
82.3032
82.2961
82.4185
82.4189
82.419
82.4186
82.4177
82.4164
82.4145
82.4119
82.4087
82.4048
82.4
82.3944
82.388
82.3811
82.3736
82.3656
82.3572
82.3485
82.3393
82.3298
82.3201
82.3108
82.4738
82.4752
82.476
82.4763
82.4759
82.4749
82.4732
82.4706
82.4672
82.4627
82.4572
82.4505
82.4427
82.4341
82.4248
82.4147
82.404
82.3927
82.3809
82.3685
82.3559
82.3438
82.5522
82.555
82.5571
82.5583
82.5588
82.5584
82.5572
82.5548
82.5513
82.5465
82.5403
82.5325
82.5232
82.5128
82.5014
82.4888
82.4754
82.4611
82.446
82.4301
82.4139
82.3984
82.6573
82.662
82.6658
82.6685
82.6703
82.671
82.6706
82.6688
82.6655
82.6605
82.6536
82.6447
82.6339
82.6214
82.6074
82.5921
82.5754
82.5574
82.5384
82.5183
82.4976
82.478
82.7927
82.8
82.8061
82.8109
82.8145
82.8168
82.8176
82.8168
82.814
82.809
82.8016
82.7915
82.779
82.7642
82.7474
82.7286
82.708
82.6858
82.662
82.6366
82.6104
82.5859
82.962
82.9727
82.9819
82.9894
82.9955
83
83.0026
83.0031
83.0011
82.9964
82.9887
82.9775
82.963
82.9456
82.9255
82.9027
82.8775
82.85
82.8204
82.7887
82.7558
82.7254
83.1689
83.1839
83.197
83.208
83.2173
83.2246
83.2296
83.232
83.2314
83.2273
83.2193
83.207
83.1904
83.17
83.146
83.1185
83.0877
83.054
83.0173
82.9779
82.9368
82.8991
83.4167
83.4371
83.4551
83.4705
83.4839
83.4948
83.503
83.5078
83.509
83.5058
83.4978
83.4843
83.4653
83.4414
83.4128
83.3796
83.3422
83.3009
83.2557
83.2068
83.1558
83.1093
83.7089
83.7358
83.7599
83.7807
83.799
83.8144
83.8264
83.8345
83.8379
83.836
83.828
83.8132
83.7915
83.7635
83.7293
83.6894
83.644
83.5934
83.538
83.4776
83.4143
83.3573
84.0483
84.0832
84.1144
84.1417
84.166
84.1869
84.2037
84.2155
84.2218
84.2215
84.2136
84.1974
84.1724
84.1394
84.0986
84.0505
83.9953
83.9336
83.8655
83.7912
83.713
83.6431
84.4378
84.482
84.5217
84.5567
84.5882
84.6156
84.6379
84.6544
84.6639
84.6654
84.6577
84.6396
84.6106
84.5715
84.5226
84.4644
84.3974
84.3219
84.2385
84.1472
84.0506
83.9651
84.8796
84.9347
84.9842
85.0282
85.0681
85.103
85.1318
85.1535
85.1668
85.1704
85.1626
85.1419
85.1078
85.0611
85.0022
84.9317
84.85
84.7579
84.6557
84.5435
84.4245
84.32
85.3757
85.4433
85.5042
85.5585
85.6078
85.6513
85.6875
85.7151
85.7325
85.7379
85.7296
85.7055
85.6648
85.6086
85.5372
85.4514
85.3517
85.239
85.1138
84.9761
84.8297
84.702
85.9273
86.0092
86.0829
86.1488
86.2089
86.262
86.3063
86.3403
86.3619
86.3691
86.3594
86.3304
86.2812
86.2128
86.1258
86.021
85.8991
85.7611
85.6077
85.4389
85.259
85.103
86.5354
86.6332
86.7213
86.8001
86.8722
86.9358
86.989
87.0297
87.0554
87.0637
87.0514
87.0157
86.9553
86.8713
86.7647
86.6362
86.4868
86.3177
86.1298
85.9231
85.7023
85.512
87.2001
87.3158
87.4197
87.5129
87.598
87.673
87.7355
87.7829
87.8124
87.8206
87.804
87.7588
87.6836
87.5799
87.4485
87.2906
87.1073
86.9
86.67
86.4172
86.1466
85.9149
87.9215
88.0568
88.178
88.2866
88.3858
88.4728
88.5448
88.5987
88.6309
88.6375
88.6139
88.5558
88.4613
88.3324
88.17
87.9755
87.7504
87.4964
87.215
86.9064
86.5758
86.2944
88.6986
88.8552
88.995
89.1203
89.2342
89.3336
89.415
89.4746
89.5081
89.5106
89.4767
89.401
89.2815
89.1205
88.9194
88.6797
88.4034
88.0925
87.749
87.3733
86.9704
86.6302
89.5301
89.7097
89.8694
90.0121
90.1413
90.2531
90.3433
90.4073
90.4398
90.435
90.3862
90.2871
90.1353
89.934
89.6847
89.3895
89.0506
88.6709
88.2527
87.7967
87.3077
86.8984
90.414
90.618
90.7985
90.9593
91.1039
91.2278
91.3256
91.3918
91.4203
91.4037
91.3343
91.2043
91.0113
90.7594
90.4507
90.0876
89.6731
89.2107
88.7036
88.1526
87.5618
87.0733
91.3484
91.578
91.78
91.9591
92.1188
92.2536
92.3571
92.4227
92.4428
92.4089
92.3115
92.1415
91.8966
91.5821
91.2006
90.7555
90.2503
89.6895
89.077
88.4142
87.7037
87.1263
92.3285
92.5848
92.8087
93.0059
93.1799
93.3239
93.4304
93.4913
93.4976
93.4391
93.3044
93.0829
92.7728
92.381
91.9112
91.3674
90.7544
90.0773
89.3415
88.5484
87.6994
87.0264
93.3567
93.6387
93.8841
94.0986
94.2851
94.4355
94.5408
94.5915
94.5768
94.4847
94.3018
94.0163
93.6268
93.1423
92.5671
91.906
91.1648
90.3503
89.4693
88.5235
87.515
86.7367
82.3998
82.4009
82.4022
82.4037
82.4055
82.4075
82.4099
82.4128
82.4163
82.4205
82.4256
82.4319
82.4397
82.4496
82.462
82.4769
82.4943
82.5144
82.5378
82.565
82.5966
82.6347
82.6778
82.7216
82.7653
82.8083
82.8503
82.8907
82.9289
82.9699
83.0317
83.068
82.8423
82.8643
85.8791
82.3881
82.3888
82.3896
82.3906
82.3917
82.3929
82.3944
82.3962
82.3983
82.4008
82.4039
82.4076
82.4122
82.4178
82.4247
82.4328
82.4416
82.4512
82.4614
82.4719
82.4826
82.4932
82.5023
82.5088
82.513
82.5153
82.5166
82.5175
82.5164
82.5096
82.5106
82.5676
82.5141
81.9959
82.9541
82.3565
82.3564
82.3562
82.3559
82.3557
82.3555
82.3552
82.355
82.3548
82.3546
82.3545
82.3545
82.3546
82.3549
82.3554
82.3561
82.357
82.358
82.3591
82.3602
82.3612
82.362
82.3624
82.3624
82.3621
82.3618
82.3612
82.3608
82.361
82.3585
82.3463
82.36
82.4324
82.2308
82.4173
82.3294
82.3284
82.3271
82.3257
82.3241
82.3223
82.3202
82.3179
82.3153
82.3124
82.3092
82.3056
82.3017
82.2975
82.293
82.2885
82.2843
82.2804
82.2769
82.2738
82.271
82.2686
82.2668
82.2656
82.2651
82.265
82.2652
82.2655
82.2663
82.2682
82.2645
82.2521
82.2917
82.2507
82.2686
82.3065
82.3044
82.302
82.2991
82.296
82.2924
82.2883
82.2838
82.2786
82.2728
82.2663
82.259
82.2508
82.2418
82.2319
82.2218
82.2119
82.2023
82.1932
82.1844
82.1761
82.1681
82.161
82.1553
82.151
82.1477
82.1453
82.1432
82.1413
82.1405
82.1402
82.1294
82.1374
82.1344
82.1277
82.2919
82.2885
82.2845
82.2799
82.2748
82.269
82.2624
82.2549
82.2465
82.2371
82.2264
82.2145
82.2011
82.1862
82.1699
82.153
82.1366
82.1207
82.1054
82.0909
82.0773
82.0643
82.0531
82.0445
82.038
82.0331
82.0295
82.0266
82.0241
82.0219
82.0211
82.0161
82.0143
82.015
82.0088
82.2891
82.2841
82.2781
82.2713
82.2637
82.255
82.2452
82.2342
82.2217
82.2077
82.1918
82.1741
82.1542
82.1322
82.108
82.0832
82.0591
82.0358
82.0136
81.9927
81.9732
81.9551
81.9397
81.9281
81.9196
81.9134
81.9088
81.9054
81.9027
81.9001
81.8982
81.8956
81.8926
81.8916
81.8877
82.301
82.2938
82.2853
82.2756
82.2647
82.2524
82.2386
82.2229
82.2052
82.1852
82.1628
82.1377
82.1096
82.0784
82.0443
82.0093
81.9754
81.9427
81.9117
81.8826
81.8558
81.8308
81.8099
81.7943
81.783
81.7747
81.7688
81.7644
81.761
81.7581
81.7554
81.7532
81.7505
81.7482
81.7456
82.3303
82.3205
82.3087
82.2953
82.2802
82.2632
82.244
82.2223
82.1978
82.1703
82.1393
82.1046
82.0659
82.023
81.9761
81.9281
81.8816
81.8369
81.7946
81.7551
81.7186
81.685
81.657
81.6362
81.6211
81.6103
81.6024
81.5967
81.5924
81.5889
81.5856
81.5831
81.5805
81.5778
81.5759
82.3803
82.367
82.3509
82.3327
82.3123
82.2892
82.2631
82.2338
82.2006
82.1634
82.1215
82.0746
82.0223
81.9644
81.9012
81.8366
81.7741
81.7143
81.6576
81.6048
81.5563
81.5117
81.4747
81.4473
81.4275
81.4132
81.4029
81.3955
81.39
81.3857
81.3819
81.3789
81.3759
81.3732
81.3717
82.454
82.4363
82.4148
82.3905
82.3632
82.3324
82.2977
82.2586
82.2145
82.1649
82.1092
82.0469
81.9775
81.9007
81.817
81.7316
81.649
81.5701
81.4955
81.4261
81.3626
81.3042
81.2559
81.2203
81.1945
81.1759
81.1626
81.1531
81.1461
81.1407
81.1363
81.1328
81.1293
81.1266
81.1253
82.5545
82.5313
82.503
82.471
82.4352
82.3947
82.3491
82.2977
82.2399
82.1748
82.1019
82.0204
81.9297
81.8293
81.7202
81.6089
81.5016
81.3991
81.3024
81.2126
81.1306
81.0554
80.9933
80.9477
80.9145
80.8908
80.8738
80.8616
80.8528
80.8462
80.841
80.8368
80.8329
80.8303
80.8292
82.6845
82.6546
82.6178
82.5764
82.5298
82.4774
82.4183
82.3518
82.2769
82.1929
82.0987
81.9935
81.8766
81.7474
81.6071
81.4644
81.3268
81.1957
81.0723
80.9579
80.8535
80.7581
80.6794
80.6216
80.5797
80.5497
80.5282
80.513
80.5022
80.4941
80.4878
80.4828
80.4785
80.4759
80.4751
82.8466
82.8084
82.7613
82.7081
82.6485
82.5814
82.5058
82.4208
82.3252
82.2179
82.0979
81.9639
81.8153
81.6513
81.4735
81.2928
81.1191
80.9538
80.7986
80.6548
80.524
80.4046
80.3063
80.2343
80.182
80.1446
80.118
80.0992
80.0858
80.076
80.0684
80.0625
80.0576
80.055
80.0546
83.0425
82.9943
82.9345
82.8672
82.7917
82.7068
82.6113
82.5039
82.3832
82.2481
82.0969
81.9286
81.742
81.5365
81.3142
81.0887
80.8723
80.6669
80.4743
80.2964
80.1348
79.9876
79.8667
79.7781
79.714
79.6681
79.6355
79.6126
79.5963
79.5845
79.5755
79.5684
79.563
79.5604
79.5601
83.2728
83.2127
83.1378
83.0534
82.9589
82.8527
82.7333
82.5991
82.4487
82.2803
82.0923
81.8833
81.652
81.3977
81.1232
80.8455
80.5797
80.3279
80.0924
79.8752
79.6785
79.4997
79.3531
79.2459
79.1684
79.113
79.0738
79.0463
79.0269
79.0129
79.0023
78.994
78.988
78.9853
78.9853
83.537
83.4629
83.37
83.2653
83.1482
83.0167
82.869
82.7033
82.5178
82.3103
82.0792
81.8225
81.5392
81.2285
80.8938
80.5562
80.2339
79.9294
79.6452
79.384
79.1479
78.9338
78.7588
78.631
78.5388
78.4731
78.4267
78.3943
78.3716
78.3552
78.3428
78.3332
78.3266
78.3239
78.3241
83.8328
83.7424
83.6282
83.4997
83.356
83.1948
83.014
82.8115
82.585
82.3322
82.051
81.7396
81.3965
81.0213
80.6182
80.2129
79.8271
79.4637
79.1256
78.8155
78.5361
78.2834
78.0774
77.9274
77.8195
77.7427
77.6887
77.6511
77.625
77.6062
77.5919
77.581
77.5738
77.5711
77.5716
84.156
84.0468
83.9079
83.7513
83.5767
83.3811
83.1619
82.9168
82.6431
82.3383
81.9999
81.626
81.2152
80.7673
80.2877
79.8071
79.3511
78.923
78.5259
78.1629
77.8368
77.5427
77.3037
77.1302
77.0058
76.9176
76.8557
76.8129
76.7833
76.762
76.7459
76.7337
76.7259
76.7232
76.724
84.4999
84.3693
84.2017
84.0129
83.8026
83.5673
83.3041
83.0102
82.6828
82.3189
81.916
81.4719
80.9854
80.4567
79.8926
79.3295
78.7972
78.2992
77.839
77.4197
77.0443
76.7067
76.4335
76.2357
76.0943
75.9945
75.9249
75.877
75.844
75.8204
75.8025
75.789
75.7806
75.7779
75.7791
84.8552
84.7005
84.5003
84.2744
84.0233
83.7428
83.4297
83.0807
82.6927
82.2626
81.7876
81.2656
80.6957
80.0786
79.4227
78.7707
78.1568
77.5849
77.0583
76.5802
76.1538
75.7717
75.4637
75.2417
75.0834
74.9722
74.8951
74.8423
74.8062
74.7805
74.7609
74.7463
74.7374
74.7347
74.7363
85.2095
85.0282
84.7909
84.523
84.2258
83.8945
83.5253
83.1147
82.6594
82.1559
81.6015
80.9943
80.3338
79.6212
78.8672
78.1211
77.4217
76.7728
76.1778
75.6399
75.1618
74.7353
74.3929
74.147
73.9727
73.8506
73.7666
73.7095
73.6707
73.6431
73.6221
73.6065
73.5972
73.5946
73.5965
85.5473
85.337
85.0584
84.7432
84.3945
84.0066
83.5752
83.0966
82.5672
81.9835
81.3429
80.6437
79.8861
79.0724
78.2152
77.3713
76.584
75.8568
75.1929
74.5952
74.0663
73.5964
73.221
72.9527
72.7633
72.6316
72.5415
72.4808
72.4399
72.4109
72.3888
72.3724
72.3628
72.3603
72.3626
85.8495
85.6084
85.2842
84.9165
84.5109
84.0607
83.5612
83.0085
82.3987
81.7286
80.9957
80.1989
79.339
78.4197
77.4561
76.5124
75.6366
74.8314
74.0998
73.4441
72.8666
72.3558
71.9498
71.6612
71.4586
71.3185
71.2235
71.1602
71.1178
71.088
71.0652
71.0482
71.0384
71.0361
71.0387
86.0939
85.8211
85.447
85.0218
84.5542
84.0364
83.4633
82.8308
82.1352
81.3733
80.5431
79.6441
78.6784
77.651
76.5798
75.5365
74.5736
73.6929
72.8966
72.1863
71.5637
71.0157
70.5827
70.2766
70.063
69.9165
69.8181
69.7532
69.7103
69.6802
69.6571
69.6398
69.63
69.6279
69.631
86.2545
85.9501
85.5227
85.0351
84.5008
83.9108
83.2594
82.5425
81.7566
80.8988
79.9678
78.964
77.8908
76.7548
75.5771
74.437
73.3906
72.4389
71.5828
70.823
70.1603
69.5803
69.1247
68.8046
68.5829
68.4321
68.3319
68.2668
68.2243
68.1947
68.1718
68.1545
68.1448
68.143
68.1464
86.3024
85.9685
85.4851
84.931
84.3263
83.6603
82.9268
82.122
81.2427
80.2865
79.2529
78.1436
76.9634
75.721
74.4406
73.2089
72.0852
71.069
70.1599
69.3575
68.6611
68.0551
67.5824
67.2526
67.026
66.8734
66.7732
66.7093
66.6683
66.6398
66.6177
66.6007
66.5914
66.59
66.5938
86.205
85.8464
85.3052
84.6811
84.0032
83.2588
82.441
81.5465
80.5725
79.5174
78.3816
77.1683
75.8843
74.5404
73.1641
71.8487
70.6563
69.5843
68.631
67.7942
67.0721
66.4473
65.9636
65.6288
65.4008
65.249
65.151
65.0897
65.0513
65.0249
65.004
64.9878
64.9789
64.978
64.9821
85.9248
85.5518
84.9534
84.2578
83.5057
82.6821
81.7795
80.7954
79.7276
78.5753
77.3403
76.0274
74.6453
73.2074
71.7445
70.3563
69.106
67.9891
67.0018
66.1405
65.4014
64.766
64.2779
63.9432
63.7177
63.5697
63.4758
63.4188
63.384
63.3605
63.3415
63.3263
63.3181
63.3177
63.3222
85.4147
85.0446
84.3917
83.6245
82.7996
81.8988
80.9135
79.842
78.6832
77.4378
76.1095
74.7049
73.2347
71.7144
70.1781
68.7305
67.4357
66.2866
65.2773
64.4023
63.6563
63.0193
62.5339
62.2045
61.9855
61.844
61.7566
61.7053
61.6754
61.6555
61.639
61.6253
61.6181
61.6183
61.6231
59.8178
59.813
59.8122
59.8183
59.8301
59.8434
59.8586
59.882
59.925
60.0027
60.1329
60.3393
60.6553
61.1275
61.7538
62.4935
63.3681
64.3845
65.5505
66.8745
68.367
69.9646
71.559
73.1136
74.6094
76.0315
77.3693
78.6164
79.7706
80.8324
81.8036
82.6947
83.5271
84.2221
84.5638
57.6844
57.6791
57.6775
57.6823
57.6917
57.7007
57.7094
57.724
57.7558
57.8202
57.9346
58.1225
58.4178
58.8666
59.4697
60.1894
61.0483
62.055
63.2195
64.5537
66.0717
67.7132
69.3676
70.9923
72.5618
74.0569
75.4655
76.7821
78.0061
79.1385
80.1805
81.1442
82.0552
82.8062
83.0994
55.5444
55.5387
55.536
55.539
55.5452
55.549
55.5501
55.5543
55.5729
55.6208
55.715
55.8789
56.1454
56.559
57.1237
57.8062
58.6287
59.6015
60.7372
62.0508
63.5596
65.2059
66.8754
68.5202
70.1141
71.6415
73.0945
74.4693
75.7637
76.9757
78.1024
79.1546
80.1608
80.9833
81.2426
53.4242
53.4182
53.4146
53.4155
53.4183
53.4166
53.4095
53.4023
53.4062
53.4354
53.5062
53.6413
53.8719
54.2402
54.7533