/*--------------------------------*- C++ -*----------------------------------*\
  =========                 |
  \\      /  F ield         | OpenFOAM: The Open Source CFD Toolbox
   \\    /   O peration     | Website:  https://openfoam.org
    \\  /    A nd           | Version:  8
     \\/     M anipulation  |
\*---------------------------------------------------------------------------*/
FoamFile
{
    version     2.0;
    format      ascii;
    class       surfaceScalarField;
    location    "600";
    object      phi;
}
// * * * * * * * * * * * * * * * * * * * * * * * * * * * * * * * * * * * * * //

dimensions      [0 3 -1 0 0 0 0];

internalField   nonuniform List<scalar> 
31053
(
1.74434e-06
1.16444e-05
1.36369e-06
1.57479e-05
1.26622e-06
1.77357e-05
1.20175e-06
2.03092e-05
1.1311e-06
2.33071e-05
1.05762e-06
2.67437e-05
9.80829e-07
3.06883e-05
9.0043e-07
3.52156e-05
8.16789e-07
4.04111e-05
7.30738e-07
4.6373e-05
6.43579e-07
5.32143e-05
5.57041e-07
6.10646e-05
4.7306e-07
7.00733e-05
3.93692e-07
8.04115e-05
3.32462e-07
7.62517e-05
2.82004e-07
7.62409e-05
2.40124e-07
7.62324e-05
2.05133e-07
7.62255e-05
1.75713e-07
7.62199e-05
1.50829e-07
7.62154e-05
1.2967e-07
7.62116e-05
1.13033e-07
6.95988e-05
9.99148e-08
6.25571e-05
8.93963e-08
5.62282e-05
8.08426e-08
5.05399e-05
7.38032e-08
4.54272e-05
6.79507e-08
4.08318e-05
6.30421e-08
3.67013e-05
5.88939e-08
3.29888e-05
5.53648e-08
2.96518e-05
5.2345e-08
2.66524e-05
4.97476e-08
2.39564e-05
4.75031e-08
2.15332e-05
4.55556e-08
1.9355e-05
1.73972e-05
4.38607e-08
9.63578e-07
1.06808e-05
1.52649e-06
1.5185e-05
1.50996e-06
1.77522e-05
1.45182e-06
2.03673e-05
1.39867e-06
2.33602e-05
1.34278e-06
2.67996e-05
1.28183e-06
3.07493e-05
1.21535e-06
3.52821e-05
1.14308e-06
4.04833e-05
1.06503e-06
4.6451e-05
9.81531e-07
5.32978e-05
8.93292e-07
6.11529e-05
8.01342e-07
7.01652e-05
7.06779e-07
8.05061e-05
6.26344e-07
7.63321e-05
5.54238e-07
7.6313e-05
4.8966e-07
7.62969e-05
4.31836e-07
7.62833e-05
3.80065e-07
7.62717e-05
3.33722e-07
7.62617e-05
2.92261e-07
7.62531e-05
2.58325e-07
6.96327e-05
2.3077e-07
6.25846e-05
2.08199e-07
5.62508e-05
1.89561e-07
5.05585e-05
1.74055e-07
4.54427e-05
1.61065e-07
4.08448e-05
1.50112e-07
3.67123e-05
1.40821e-07
3.29981e-05
1.32899e-07
2.96597e-05
1.26107e-07
2.66592e-05
1.20259e-07
2.39623e-05
1.15201e-07
2.15382e-05
1.10809e-07
1.93594e-05
1.74011e-05
1.06979e-07
5.93451e-07
1.00873e-05
1.20949e-06
1.45689e-05
1.33758e-06
1.76241e-05
1.32747e-06
2.03774e-05
1.29683e-06
2.33909e-05
1.2603e-06
2.68362e-05
1.21949e-06
3.07901e-05
1.17383e-06
3.53278e-05
1.12233e-06
4.05348e-05
1.06407e-06
4.65093e-05
9.98378e-07
5.33635e-05
9.25015e-07
6.12262e-05
8.44443e-07
7.02458e-05
7.57718e-07
8.05928e-05
6.81175e-07
7.64087e-05
6.10265e-07
7.63839e-05
5.4484e-07
7.63624e-05
4.84664e-07
7.63435e-05
4.29485e-07
7.63268e-05
3.79064e-07
7.63121e-05
3.33151e-07
7.6299e-05
2.94869e-07
6.9671e-05
2.63277e-07
6.26162e-05
2.37058e-07
5.6277e-05
2.15181e-07
5.05804e-05
1.96829e-07
4.5461e-05
1.81356e-07
4.08603e-05
1.68245e-07
3.67254e-05
1.57084e-07
3.30092e-05
1.4754e-07
2.96693e-05
1.39344e-07
2.66674e-05
1.32279e-07
2.39693e-05
1.26166e-07
2.15443e-05
1.20858e-07
1.93647e-05
1.74057e-05
1.16237e-07
4.31824e-07
9.6555e-06
9.70905e-07
1.40299e-05
1.18757e-06
1.74074e-05
1.22393e-06
2.03411e-05
1.21071e-06
2.34041e-05
1.18305e-06
2.68638e-05
1.1487e-06
3.08244e-05
1.10896e-06
3.53675e-05
1.06355e-06
4.05803e-05
1.0117e-06
4.65611e-05
9.52473e-07
5.34227e-05
8.85021e-07
6.12937e-05
8.08908e-07
7.03219e-05
7.24533e-07
8.06772e-05
6.48722e-07
7.64845e-05
5.77484e-07
7.64552e-05
5.11033e-07
7.64288e-05
4.49413e-07
7.64051e-05
3.92583e-07
7.63837e-05
3.40456e-07
7.63642e-05
2.92924e-07
7.63465e-05
2.53423e-07
6.97105e-05
2.21011e-07
6.26487e-05
1.94311e-07
5.63037e-05
1.72225e-07
5.06025e-05
1.5388e-07
4.54794e-05
1.38578e-07
4.08756e-05
1.25757e-07
3.67382e-05
1.14969e-07
3.302e-05
1.05853e-07
2.96784e-05
9.81158e-08
2.66751e-05
9.15223e-08
2.39759e-05
8.5881e-08
2.155e-05
8.10361e-08
1.93696e-05
1.74099e-05
7.68594e-08
3.07065e-07
9.34843e-06
7.47165e-07
1.35898e-05
1.00237e-06
1.71522e-05
1.07498e-06
2.02685e-05
1.07919e-06
2.33999e-05
1.06025e-06
2.68828e-05
1.03072e-06
3.0854e-05
9.94097e-07
3.54041e-05
9.51203e-07
4.06231e-05
9.01801e-07
4.66105e-05
8.45209e-07
5.34793e-05
7.80587e-07
6.13583e-05
7.07234e-07
7.03953e-05
6.24994e-07
8.07594e-05
5.50013e-07
7.65595e-05
4.78812e-07
7.65264e-05
4.11948e-07
7.64957e-05
3.49751e-07
7.64673e-05
2.92404e-07
7.6441e-05
2.40002e-07
7.64167e-05
1.92583e-07
7.6394e-05
1.53634e-07
6.97494e-05
1.22146e-07
6.26801e-05
9.66536e-08
5.63292e-05
7.59729e-08
5.06232e-05
5.91555e-08
4.54962e-05
4.54417e-08
4.08893e-05
3.42245e-08
3.67494e-05
2.50192e-08
3.30292e-05
1.74386e-08
2.9686e-05
1.11736e-08
2.66814e-05
5.97689e-09
2.39811e-05
1.65067e-09
2.15543e-05
-1.96402e-09
1.93732e-05
1.74129e-05
-4.99516e-09
2.14387e-07
9.13404e-06
5.67759e-07
1.32364e-05
8.28102e-07
1.68919e-05
9.22988e-07
2.01736e-05
9.39902e-07
2.33829e-05
9.26911e-07
2.68958e-05
8.99668e-07
3.08812e-05
8.63375e-07
3.54404e-05
8.1969e-07
4.06668e-05
7.68839e-07
4.66614e-05
7.10397e-07
5.35377e-05
6.4367e-07
6.1425e-05
5.67989e-07
7.0471e-05
4.83105e-07
8.08443e-05
4.05578e-07
7.6637e-05
3.31888e-07
7.66001e-05
2.6277e-07
7.65648e-05
1.98742e-07
7.65313e-05
1.40153e-07
7.64996e-05
8.72323e-08
7.64696e-05
4.01216e-08
7.64411e-05
2.23435e-09
6.97873e-05
-2.76203e-08
6.271e-05
-5.10719e-08
5.63527e-05
-6.94402e-08
5.06415e-05
-8.37858e-08
4.55106e-05
-9.49569e-08
4.09004e-05
-1.03628e-07
3.67581e-05
-1.10335e-07
3.30359e-05
-1.15501e-07
2.96911e-05
-1.19459e-07
2.66853e-05
-1.22473e-07
2.39841e-05
-1.24749e-07
2.15566e-05
-1.26449e-07
1.93749e-05
1.74141e-05
-1.27703e-07
1.527e-07
8.98134e-06
4.30921e-07
1.29582e-05
6.77174e-07
1.66456e-05
7.84539e-07
2.00662e-05
8.09508e-07
2.3358e-05
7.99346e-07
2.69059e-05
7.71591e-07
3.0909e-05
7.32578e-07
3.54794e-05
6.84606e-07
4.07148e-05
6.28295e-07
4.67177e-05
5.63478e-07
5.36025e-05
4.89637e-07
6.14989e-05
4.06237e-07
7.05544e-05
3.13132e-07
8.09374e-05
2.28487e-07
7.67216e-05
1.48394e-07
7.66802e-05
7.37165e-08
7.66395e-05
5.13134e-09
7.65999e-05
-5.68647e-08
7.65616e-05
-1.11921e-07
7.65246e-05
-1.59801e-07
7.64889e-05
-1.9713e-07
6.98247e-05
-2.25424e-07
6.27383e-05
-2.46602e-07
5.63738e-05
-2.62218e-07
5.06572e-05
-2.73517e-07
4.55219e-05
-2.81488e-07
4.09084e-05
-2.86914e-07
3.67635e-05
-2.90407e-07
3.30394e-05
-2.92447e-07
2.96932e-05
-2.93406e-07
2.66863e-05
-2.93573e-07
2.39843e-05
-2.93168e-07
2.15562e-05
-2.92362e-07
1.93741e-05
1.74131e-05
-2.91284e-07
1.10466e-07
8.87087e-06
3.24753e-07
1.27439e-05
5.46391e-07
1.6424e-05
6.5783e-07
1.99548e-05
6.85871e-07
2.33299e-05
6.75148e-07
2.69166e-05
6.44033e-07
3.09401e-05
5.99448e-07
3.5524e-05
5.44072e-07
4.07702e-05
4.78791e-07
4.6783e-05
4.0364e-07
5.36777e-05
3.18281e-07
6.15842e-05
2.22362e-07
7.06503e-05
1.15963e-07
8.10438e-05
1.98408e-08
7.68178e-05
-7.05352e-08
7.67705e-05
-1.54166e-07
7.67231e-05
-2.30217e-07
7.66759e-05
-2.98036e-07
7.66294e-05
-3.57138e-07
7.65837e-05
-4.07181e-07
7.6539e-05
-4.44771e-07
6.98623e-05
-4.71869e-07
6.27654e-05
-4.90802e-07
5.63928e-05
-5.03452e-07
5.06698e-05
-5.11321e-07
4.55297e-05
-5.15595e-07
4.09127e-05
-5.17205e-07
3.67652e-05
-5.16875e-07
3.30391e-05
-5.15165e-07
2.96915e-05
-5.12502e-07
2.66836e-05
-5.09212e-07
2.3981e-05
-5.0554e-07
2.15525e-05
-5.01668e-07
1.93702e-05
1.74091e-05
-4.97731e-07
7.96928e-08
8.79117e-06
2.41813e-07
1.25817e-05
4.30739e-07
1.62351e-05
5.39032e-07
1.98465e-05
5.65838e-07
2.33031e-05
5.51231e-07
2.69313e-05
5.13883e-07
3.09774e-05
4.60926e-07
3.5577e-05
3.95176e-07
4.08359e-05
3.17634e-07
4.68605e-05
2.28441e-07
5.37669e-05
1.27385e-07
6.16853e-05
1.43038e-08
7.07634e-05
-1.10422e-07
8.11686e-05
-2.22406e-07
7.69298e-05
-3.27028e-07
7.68752e-05
-4.23134e-07
7.68192e-05
-5.09712e-07
7.67625e-05
-5.85939e-07
7.67056e-05
-6.51176e-07
7.6649e-05
-7.04956e-07
7.65928e-05
-7.43784e-07
6.99011e-05
-7.70182e-07
6.27918e-05
-7.87004e-07
5.64096e-05
-7.96554e-07
5.06794e-05
-8.00665e-07
4.55338e-05
-8.00782e-07
4.09128e-05
-7.9803e-07
3.67624e-05
-7.9328e-07
3.30343e-05
-7.87195e-07
2.96854e-05
-7.80281e-07
2.66767e-05
-7.72913e-07
2.39736e-05
-7.65371e-07
2.1545e-05
-7.57857e-07
1.93627e-05
1.74018e-05
-7.50516e-07
5.42906e-08
8.73688e-06
1.74004e-07
1.2462e-05
3.26605e-07
1.60825e-05
4.25228e-07
1.97479e-05
4.46908e-07
2.32814e-05
4.25226e-07
2.69529e-05
3.78766e-07
3.10239e-05
3.14614e-07
3.56411e-05
2.35518e-07
4.0915e-05
1.42442e-07
4.69536e-05
3.55328e-08
5.38738e-05
-8.53567e-08
6.18062e-05
-2.20219e-07
7.08982e-05
-3.6834e-07
8.13167e-05
-5.00684e-07
7.70621e-05
-6.23684e-07
7.69982e-05
-7.35985e-07
7.69315e-05
-8.36371e-07
7.68629e-05
-9.23814e-07
7.67931e-05
-9.97495e-07
7.67226e-05
-1.05679e-06
7.66521e-05
-1.098e-06
6.99423e-05
-1.12433e-06
6.28181e-05
-1.13926e-06
5.64245e-05
-1.14564e-06
5.06857e-05
-1.14571e-06
4.55339e-05
-1.14123e-06
4.09083e-05
-1.13358e-06
3.67548e-05
-1.12381e-06
3.30246e-05
-1.11271e-06
2.96743e-05
-1.1009e-06
2.66649e-05
-1.08881e-06
2.39616e-05
-1.07678e-06
2.15329e-05
-1.06502e-06
1.93509e-05
1.73905e-05
-1.0537e-06
3.05717e-08
8.70631e-06
1.14898e-07
1.23777e-05
2.31557e-07
1.59658e-05
3.14683e-07
1.96647e-05
3.27412e-07
2.32687e-05
2.95567e-07
2.69848e-05
2.37076e-07
3.10824e-05
1.58819e-07
3.57194e-05
6.33137e-08
4.10105e-05
-4.86499e-08
4.70656e-05
-1.77014e-07
5.40021e-05
-3.21927e-07
6.19511e-05
-4.83255e-07
7.10595e-05
-6.59942e-07
8.14934e-05
-8.1727e-07
7.72194e-05
-9.62943e-07
7.71438e-05
-1.09536e-06
7.70639e-05
-1.21304e-06
7.69806e-05
-1.31473e-06
7.68948e-05
-1.39939e-06
7.68073e-05
-1.46621e-06
7.67189e-05
-1.51114e-06
6.99872e-05
-1.53816e-06
6.28451e-05
-1.55156e-06
5.64379e-05
-1.55478e-06
5.0689e-05
-1.55059e-06
4.55297e-05
-1.54112e-06
4.08989e-05
-1.52805e-06
3.67417e-05
-1.51267e-06
3.30092e-05
-1.49593e-06
2.96575e-05
-1.47857e-06
2.66475e-05
-1.46111e-06
2.39441e-05
-1.44393e-06
2.15157e-05
-1.42731e-06
1.93343e-05
1.73746e-05
-1.41142e-06
9.7341e-09
8.69657e-06
6.22103e-08
1.23252e-05
1.43917e-07
1.58841e-05
2.06586e-07
1.96021e-05
2.06678e-07
2.32686e-05
1.61701e-07
2.70298e-05
8.82769e-08
3.11558e-05
-7.08254e-09
3.58147e-05
-1.22182e-07
4.11256e-05
-2.56496e-07
4.71999e-05
-4.10158e-07
5.41558e-05
-5.83393e-07
6.21243e-05
-7.75981e-07
7.12521e-05
-9.86526e-07
8.17039e-05
-1.1736e-06
7.74065e-05
-1.34641e-06
7.73166e-05
-1.50305e-06
7.72206e-05
-1.64175e-06
7.71193e-05
-1.76096e-06
7.7014e-05
-1.85938e-06
7.69057e-05
-1.93597e-06
7.67955e-05
-1.98617e-06
7.00374e-05
-2.01486e-06
6.28738e-05
-2.02722e-06
5.64503e-05
-2.02745e-06
5.06892e-05
-2.01887e-06
4.55211e-05
-2.0041e-06
4.08841e-05
-1.98517e-06
3.67228e-05
-1.96362e-06
3.29876e-05
-1.94064e-06
2.96346e-05
-1.9171e-06
2.6624e-05
-1.89362e-06
2.39206e-05
-1.87067e-06
2.14928e-05
-1.84856e-06
1.93122e-05
1.73535e-05
-1.82751e-06
-7.59471e-09
8.70416e-06
1.45565e-08
1.23031e-05
6.21226e-08
1.58365e-05
1.00385e-07
1.95638e-05
8.43022e-08
2.32847e-05
2.33373e-08
2.70907e-05
-6.78543e-08
3.1247e-05
-1.8326e-07
3.59301e-05
-3.21103e-07
4.12635e-05
-4.81221e-07
4.736e-05
-6.64017e-07
5.43386e-05
-8.69862e-07
6.23302e-05
-1.09851e-06
7.14808e-05
-1.34825e-06
8.19536e-05
-1.56992e-06
7.76282e-05
-1.77446e-06
7.75212e-05
-1.95961e-06
7.74057e-05
-2.12326e-06
7.72829e-05
-2.26352e-06
7.71542e-05
-2.37876e-06
7.7021e-05
-2.46768e-06
7.68844e-05
-2.52499e-06
7.00947e-05
-2.55657e-06
6.29054e-05
-2.56862e-06
5.64623e-05
-2.56618e-06
5.06868e-05
-2.55325e-06
4.55082e-05
-2.53299e-06
4.08638e-05
-2.50785e-06
3.66976e-05
-2.47969e-06
3.29595e-05
-2.44993e-06
2.96048e-05
-2.41962e-06
2.65937e-05
-2.38952e-06
2.38905e-05
-2.36019e-06
2.14635e-05
-2.33201e-06
1.9284e-05
1.73267e-05
-2.30521e-06
-2.37603e-08
8.72792e-06
-3.01464e-08
1.23095e-05
-1.57891e-08
1.58222e-05
-4.67822e-09
1.95527e-05
-4.01719e-08
2.33202e-05
-1.19841e-07
2.71704e-05
-2.31414e-07
3.13585e-05
-3.696e-07
3.60683e-05
-5.3314e-07
4.1427e-05
-7.22315e-07
4.75492e-05
-9.37887e-07
5.45542e-05
-1.18046e-06
6.25728e-05
-1.44981e-06
7.17501e-05
-1.74397e-06
8.22478e-05
-2.00505e-06
7.78893e-05
-2.24595e-06
7.77621e-05
-2.46401e-06
7.76238e-05
-2.6567e-06
7.74756e-05
-2.82176e-06
7.73193e-05
-2.95719e-06
7.71564e-05
-3.06131e-06
7.69885e-05
-3.12791e-06
7.01613e-05
-3.16391e-06
6.29414e-05
-3.17666e-06
5.64751e-05
-3.17215e-06
5.06822e-05
-3.15514e-06
4.54912e-05
-3.12941e-06
4.08381e-05
-3.09787e-06
3.66661e-05
-3.06277e-06
3.29244e-05
-3.02582e-06
2.95678e-05
-2.98827e-06
2.65561e-05
-2.95104e-06
2.38533e-05
-2.9148e-06
2.14272e-05
-2.87999e-06
1.92492e-05
1.72937e-05
-2.84692e-06
-4.05942e-08
8.76852e-06
-7.34312e-08
1.23423e-05
-9.11016e-08
1.58398e-05
-1.08987e-07
1.95706e-05
-1.66657e-07
2.33779e-05
-2.67497e-07
2.72712e-05
-4.01778e-07
3.14928e-05
-5.65178e-07
3.62317e-05
-7.57069e-07
4.16189e-05
-9.78261e-07
4.77704e-05
-1.22995e-06
5.48059e-05
-1.51305e-06
6.28559e-05
-1.82747e-06
7.20646e-05
-2.17103e-06
8.25914e-05
-2.4762e-06
7.81944e-05
-2.75805e-06
7.80439e-05
-3.01346e-06
7.78792e-05
-3.23948e-06
7.77017e-05
-3.43335e-06
7.75132e-05
-3.59265e-06
7.73157e-05
-3.71527e-06
7.71111e-05
-3.79373e-06
7.02398e-05
-3.83607e-06
6.29837e-05
-3.8509e-06
5.64899e-05
-3.84523e-06
5.06766e-05
-3.82471e-06
4.54707e-05
-3.79376e-06
4.08072e-05
-3.75588e-06
3.66282e-05
-3.71373e-06
3.28822e-05
-3.66934e-06
2.95234e-05
-3.62421e-06
2.6511e-05
-3.57945e-06
2.38085e-05
-3.53587e-06
2.13836e-05
-3.494e-06
1.92073e-05
1.72539e-05
-3.45421e-06
-5.78996e-08
8.82641e-06
-1.15826e-07
1.24002e-05
-1.64252e-07
1.58883e-05
-2.12219e-07
1.96185e-05
-2.94358e-07
2.346e-05
-4.18418e-07
2.73953e-05
-5.7739e-07
3.16518e-05
-7.68091e-07
3.64224e-05
-9.90632e-07
4.18414e-05
-1.24643e-06
4.80262e-05
-1.53718e-06
5.50966e-05
-1.86421e-06
6.31829e-05
-2.22766e-06
7.2428e-05
-2.62527e-06
8.2989e-05
-2.97901e-06
7.85482e-05
-3.3063e-06
7.83712e-05
-3.6035e-06
7.81764e-05
-3.86715e-06
7.79653e-05
-4.09401e-06
7.774e-05
-4.28112e-06
7.75028e-05
-4.42589e-06
7.72559e-05
-4.51921e-06
7.03331e-05
-4.57026e-06
6.30348e-05
-4.58897e-06
5.65086e-05
-4.58348e-06
5.06711e-05
-4.56036e-06
4.54475e-05
-4.52482e-06
4.07716e-05
-4.48095e-06
3.65843e-05
-4.43189e-06
3.28332e-05
-4.38005e-06
2.94716e-05
-4.32723e-06
2.64582e-05
-4.27474e-06
2.37561e-05
-4.22355e-06
2.13324e-05
-4.17431e-06
1.91581e-05
1.7207e-05
-4.12747e-06
-7.53037e-08
8.90172e-06
-1.57289e-07
1.24822e-05
-2.35292e-07
1.59663e-05
-3.13727e-07
1.9697e-05
-4.21998e-07
2.35683e-05
-5.70842e-07
2.75441e-05
-7.56051e-07
3.1837e-05
-9.75721e-07
3.66421e-05
-1.23077e-06
4.20965e-05
-1.52328e-06
4.83187e-05
-1.85556e-06
5.54289e-05
-2.22944e-06
6.35568e-05
-2.64539e-06
7.2844e-05
-3.10114e-06
8.34447e-05
-3.50744e-06
7.89545e-05
-3.88431e-06
7.87481e-05
-4.22759e-06
7.85196e-05
-4.53323e-06
7.82709e-05
-4.79742e-06
7.80042e-05
-5.01661e-06
7.7722e-05
-5.18761e-06
7.74269e-05
-5.29929e-06
7.04448e-05
-5.36191e-06
6.30974e-05
-5.3868e-06
5.65335e-05
-5.3833e-06
5.06676e-05
-5.35897e-06
4.54232e-05
-5.31986e-06
4.07325e-05
-5.27072e-06
3.65352e-05
-5.21523e-06
3.27777e-05
-5.15624e-06
2.94126e-05
-5.09586e-06
2.63978e-05
-5.03567e-06
2.36959e-05
-4.97681e-06
2.12736e-05
-4.92008e-06
1.91014e-05
1.7153e-05
-4.86603e-06
-9.23642e-08
8.99408e-06
-1.97384e-07
1.25872e-05
-3.03785e-07
1.60727e-05
-4.12576e-07
1.98058e-05
-5.48001e-07
2.37037e-05
-7.22707e-07
2.77188e-05
-9.35223e-07
3.20495e-05
-1.18502e-06
3.68919e-05
-1.47389e-06
4.23854e-05
-1.80466e-06
4.86494e-05
-2.18031e-06
5.58045e-05
-2.60327e-06
6.39797e-05
-3.07441e-06
7.33151e-05
-3.5917e-06
8.3962e-05
-4.0541e-06
7.94169e-05
-4.48437e-06
7.91784e-05
-4.87781e-06
7.89131e-05
-5.22976e-06
7.86229e-05
-5.53575e-06
7.83102e-05
-5.79157e-06
7.79778e-05
-5.99333e-06
7.76287e-05
-6.12736e-06
7.05788e-05
-6.20497e-06
6.3175e-05
-6.23891e-06
5.65675e-05
-6.23974e-06
5.06684e-05
-6.21609e-06
4.53996e-05
-6.17491e-06
4.06913e-05
-6.12166e-06
3.64819e-05
-6.06064e-06
3.27167e-05
-5.99514e-06
2.93471e-05
-5.92767e-06
2.63303e-05
-5.86009e-06
2.36283e-05
-5.79376e-06
2.12072e-05
-5.72963e-06
1.90373e-05
1.70917e-05
-5.66839e-06
-1.08836e-07
9.10291e-06
-2.35872e-07
1.27143e-05
-3.69329e-07
1.62061e-05
-5.07721e-07
1.99442e-05
-6.70637e-07
2.38666e-05
-8.71748e-07
2.79199e-05
-1.1121e-06
3.22899e-05
-1.3926e-06
3.71724e-05
-1.716e-06
4.27088e-05
-2.08591e-06
4.90193e-05
-2.50602e-06
5.62247e-05
-2.97944e-06
6.44531e-05
-3.50769e-06
7.38434e-05
-4.08914e-06
8.45435e-05
-4.6106e-06
7.99383e-05
-5.09764e-06
7.96654e-05
-5.54498e-06
7.93604e-05
-5.94735e-06
7.90253e-05
-6.29958e-06
7.86624e-05
-6.59671e-06
7.82749e-05
-6.83408e-06
7.7866e-05
-6.99495e-06
7.07397e-05
-7.09153e-06
6.32716e-05
-7.13794e-06
5.66139e-05
-7.14604e-06
5.06765e-05
-7.12555e-06
4.53791e-05
-7.08433e-06
4.06501e-05
-7.02864e-06
3.64262e-05
-6.96343e-06
3.26515e-05
-6.89251e-06
2.92762e-05
-6.81879e-06
2.62566e-05
-6.74447e-06
2.3554e-05
-6.67116e-06
2.11339e-05
-6.60003e-06
1.89661e-05
1.70236e-05
-6.53187e-06
-1.24535e-07
9.22745e-06
-2.72398e-07
1.28621e-05
-4.31415e-07
1.63651e-05
-5.98127e-07
2.01109e-05
-7.88142e-07
2.40566e-05
-1.01558e-06
2.81474e-05
-1.28372e-06
3.2558e-05
-1.59494e-06
3.74836e-05
-1.95291e-06
4.30667e-05
-2.36206e-06
4.94285e-05
-2.82691e-06
5.66895e-05
-3.35137e-06
6.49776e-05
-3.93778e-06
7.44298e-05
-4.58512e-06
8.51908e-05
-5.16778e-06
8.0521e-05
-5.71427e-06
8.02119e-05
-6.21876e-06
7.98649e-05
-6.67535e-06
7.94819e-05
-7.07813e-06
7.90652e-05
-7.42135e-06
7.86182e-05
-7.69947e-06
7.81442e-05
-7.89209e-06
7.09323e-05
-8.01211e-06
6.33916e-05
-8.07504e-06
5.66768e-05
-8.09394e-06
5.06954e-05
-8.07965e-06
4.53648e-05
-8.04101e-06
4.06115e-05
-7.9851e-06
3.63703e-05
-7.91755e-06
3.25839e-05
-7.84273e-06
2.92014e-05
-7.76404e-06
2.61779e-05
-7.68403e-06
2.3474e-05
-7.6046e-06
2.10545e-05
-7.52714e-06
1.88887e-05
1.69491e-05
-7.45264e-06
-1.39169e-07
9.36661e-06
-3.06542e-07
1.30295e-05
-4.89235e-07
1.65478e-05
-6.82586e-07
2.03042e-05
-8.98812e-07
2.42728e-05
-1.15194e-06
2.84005e-05
-1.44726e-06
3.28533e-05
-1.78852e-06
3.78249e-05
-2.18038e-06
4.34586e-05
-2.62814e-06
4.98763e-05
-3.13723e-06
5.71986e-05
-3.71247e-06
6.55528e-05
-4.35708e-06
7.50744e-05
-5.0709e-06
8.59046e-05
-5.71599e-06
8.11661e-05
-6.32386e-06
8.08197e-05
-6.88816e-06
8.04292e-05
-7.40233e-06
7.9996e-05
-7.85974e-06
7.95226e-05
-8.25379e-06
7.90122e-05
-8.57797e-06
7.84683e-05
-8.8076e-06
7.11619e-05
-8.95605e-06
6.35401e-05
-9.04005e-06
5.67608e-05
-9.07388e-06
5.07292e-05
-9.06946e-06
4.53604e-05
-9.03661e-06
4.05786e-05
-8.98327e-06
3.6317e-05
-8.91577e-06
3.25164e-05
-8.83912e-06
2.91247e-05
-8.75719e-06
2.6096e-05
-8.67296e-06
2.33897e-05
-8.58866e-06
2.09702e-05
-8.50592e-06
1.88059e-05
1.68691e-05
-8.42595e-06
-1.52515e-07
9.51913e-06
-3.37741e-07
1.32147e-05
-5.421e-07
1.67522e-05
-7.60054e-07
2.05222e-05
-1.00103e-06
2.45138e-05
-1.27864e-06
2.86781e-05
-1.59993e-06
3.31746e-05
-1.96998e-06
3.81949e-05
-2.39445e-06
4.3883e-05
-2.87951e-06
5.03613e-05
-3.43149e-06
5.77506e-05
-4.05622e-06
6.61776e-05
-4.75801e-06
7.57762e-05
-5.53782e-06
8.66844e-05
-6.24561e-06
8.18739e-05
-6.91594e-06
8.14901e-05
-7.54196e-06
8.10552e-05
-8.11652e-06
8.05706e-05
-8.63224e-06
8.00384e-05
-9.08167e-06
7.94616e-05
-9.45728e-06
7.8844e-05
-9.72943e-06
7.14341e-05
-9.91166e-06
6.37223e-05
-1.00218e-05
5.68709e-05
-1.00752e-05
5.07827e-05
-1.00849e-05
4.53701e-05
-1.00617e-05
4.05553e-05
-1.00143e-05
3.62696e-05
-9.94977e-06
3.24519e-05
-9.87386e-06
2.90488e-05
-9.79094e-06
2.60131e-05
-9.70443e-06
2.33032e-05
-9.61692e-06
2.08827e-05
-9.53035e-06
1.87194e-05
1.67849e-05
-9.44616e-06
-1.64409e-07
9.68354e-06
-3.65597e-07
1.34159e-05
-5.89502e-07
1.69761e-05
-8.29647e-07
2.07623e-05
-1.09336e-06
2.47775e-05
-1.39379e-06
2.89786e-05
-1.73936e-06
3.35202e-05
-2.13642e-06
3.8592e-05
-2.59156e-06
4.43382e-05
-3.11185e-06
5.08816e-05
-3.70455e-06
5.83433e-05
-4.37658e-06
6.68496e-05
-5.13349e-06
7.65331e-05
-5.97765e-06
8.75286e-05
-6.7474e-06
8.26436e-05
-7.48033e-06
8.2223e-05
-8.16915e-06
8.17441e-05
-8.80617e-06
8.12076e-05
-9.38336e-06
8.06156e-05
-9.89237e-06
7.99706e-05
-1.03246e-05
7.92762e-05
-1.06449e-05
7.17543e-05
-1.08665e-05
6.39439e-05
-1.10083e-05
5.70127e-05
-1.10865e-05
5.08609e-05
-1.1115e-05
4.53987e-05
-1.11057e-05
4.0546e-05
-1.10681e-05
3.6232e-05
-1.10102e-05
3.23939e-05
-1.09381e-05
2.89767e-05
-1.08569e-05
2.59319e-05
-1.07705e-05
2.32168e-05
-1.06819e-05
2.07941e-05
-1.05934e-05
1.86308e-05
1.66981e-05
-1.05065e-05
-1.74705e-07
9.85824e-06
-3.89841e-07
1.3631e-05
-6.30917e-07
1.72172e-05
-8.90667e-07
2.10221e-05
-1.17475e-06
2.50616e-05
-1.49586e-06
2.92997e-05
-1.86357e-06
3.38879e-05
-2.28534e-06
3.90138e-05
-2.76864e-06
4.48215e-05
-3.32142e-06
5.14344e-05
-3.95191e-06
5.89738e-05
-4.66819e-06
6.75659e-05
-5.47719e-06
7.73421e-05
-6.38294e-06
8.84343e-05
-7.21287e-06
8.34736e-05
-8.00751e-06
8.30176e-05
-8.75928e-06
8.24958e-05
-9.46006e-06
8.19084e-05
-1.01012e-05
8.12567e-05
-1.06735e-05
8.05429e-05
-1.11673e-05
7.977e-05
-1.15412e-05
7.21282e-05
-1.18079e-05
6.42107e-05
-1.1987e-05
5.71917e-05
-1.20954e-05
5.09693e-05
-1.21481e-05
4.54513e-05
-1.21575e-05
4.05554e-05
-1.21342e-05
3.62087e-05
-1.20867e-05
3.23465e-05
-1.20221e-05
2.89121e-05
-1.19459e-05
2.58557e-05
-1.18625e-05
2.31334e-05
-1.17753e-05
2.07069e-05
-1.16871e-05
1.85425e-05
1.66106e-05
-1.15996e-05
-1.83313e-07
1.00416e-05
-4.10268e-07
1.3858e-05
-6.65953e-07
1.74728e-05
-9.42569e-07
2.12987e-05
-1.24442e-06
2.53635e-05
-1.58375e-06
2.9639e-05
-1.97105e-06
3.42752e-05
-2.41478e-06
3.94575e-05
-2.92325e-06
4.533e-05
-3.50522e-06
5.20164e-05
-4.16991e-06
5.96385e-05
-4.9266e-06
6.83226e-05
-5.78374e-06
7.81992e-05
-6.74725e-06
8.93979e-05
-7.63455e-06
8.43609e-05
-8.48901e-06
8.38721e-05
-9.30291e-06
8.33097e-05
-1.00678e-05
8.26733e-05
-1.07745e-05
8.19634e-05
-1.14131e-05
8.11815e-05
-1.19728e-05
8.03298e-05
-1.24056e-05
7.25609e-05
-1.27231e-05
6.45282e-05
-1.29452e-05
5.74138e-05
-1.30896e-05
5.11137e-05
-1.31718e-05
4.55335e-05
-1.32052e-05
4.05888e-05
-1.3201e-05
3.62044e-05
-1.31685e-05
3.2314e-05
-1.31154e-05
2.8859e-05
-1.30478e-05
2.57881e-05
-1.29707e-05
2.30564e-05
-1.2888e-05
2.06242e-05
-1.28026e-05
1.84571e-05
1.65249e-05
-1.27169e-05
-1.90169e-07
1.02317e-05
-4.2674e-07
1.40946e-05
-6.94429e-07
1.77405e-05
-9.85078e-07
2.15893e-05
-1.3019e-06
2.56803e-05
-1.65672e-06
2.99938e-05
-2.06079e-06
3.46793e-05
-2.52341e-06
3.99201e-05
-3.05363e-06
4.58602e-05
-3.66103e-06
5.26238e-05
-4.35578e-06
6.03332e-05
-5.14839e-06
6.91152e-05
-6.04892e-06
7.90997e-05
-7.06539e-06
9.04143e-05
-8.00624e-06
8.53017e-05
-8.91762e-06
8.47835e-05
-9.79186e-06
8.4184e-05
-1.06203e-05
8.35018e-05
-1.13934e-05
8.27364e-05
-1.21004e-05
8.18885e-05
-1.27298e-05
8.09592e-05
-1.32261e-05
7.30573e-05
-1.35998e-05
6.49019e-05
-1.38707e-05
5.76847e-05
-1.40569e-05
5.12999e-05
-1.41744e-05
4.5651e-05
-1.42371e-05
4.06516e-05
-1.42571e-05
3.62244e-05
-1.42444e-05
3.23012e-05
-1.42072e-05
2.88218e-05
-1.41523e-05
2.57333e-05
-1.40852e-05
2.29893e-05
-1.40103e-05
2.05492e-05
-1.39308e-05
1.83777e-05
1.64437e-05
-1.38496e-05
-1.95276e-07
1.0427e-05
-4.39248e-07
1.43385e-05
-7.16342e-07
1.80176e-05
-1.01814e-06
2.18911e-05
-1.34704e-06
2.60092e-05
-1.71447e-06
3.03613e-05
-2.13229e-06
3.50971e-05
-2.61049e-06
4.03983e-05
-3.15877e-06
4.64085e-05
-3.78748e-06
5.32525e-05
-4.50773e-06
6.10535e-05
-5.33124e-06
6.99387e-05
-6.26975e-06
8.00382e-05
-7.33349e-06
9.14781e-05
-8.32319e-06
8.62914e-05
-9.2877e-06
8.5748e-05
-1.02195e-05
8.51158e-05
-1.11099e-05
8.43922e-05
-1.1949e-05
8.35755e-05
-1.27257e-05
8.26652e-05
-1.34277e-05
8.16612e-05
-1.39918e-05
7.36214e-05
-1.44267e-05
6.53367e-05
-1.47518e-05
5.80098e-05
-1.49853e-05
5.15334e-05
-1.51437e-05
4.58094e-05
-1.52415e-05
4.07493e-05
-1.52911e-05
3.6274e-05
-1.53031e-05
3.23133e-05
-1.52865e-05
2.88052e-05
-1.52487e-05
2.56955e-05
-1.51957e-05
2.29362e-05
-1.51322e-05
2.04857e-05
-1.50621e-05
1.83076e-05
1.63699e-05
-1.49883e-05
-1.98633e-07
1.06256e-05
-4.47824e-07
1.45877e-05
-7.31776e-07
1.83016e-05
-1.04189e-06
2.22012e-05
-1.37996e-06
2.63472e-05
-1.75707e-06
3.07384e-05
-2.18552e-06
3.55255e-05
-2.67586e-06
4.08886e-05
-3.23838e-06
4.6971e-05
-3.88407e-06
5.38982e-05
-4.62495e-06
6.17943e-05
-5.47395e-06
7.07877e-05
-6.44449e-06
8.10088e-05
-7.54908e-06
9.25826e-05
-8.58218e-06
8.73245e-05
-9.59519e-06
8.6761e-05
-1.05808e-05
8.61014e-05
-1.15305e-05
8.53419e-05
-1.24344e-05
8.44795e-05
-1.32812e-05
8.35119e-05
-1.40577e-05
8.24377e-05
-1.46929e-05
7.42567e-05
-1.51933e-05
6.58371e-05
-1.55778e-05
5.83943e-05
-1.58643e-05
5.182e-05
-1.60694e-05
4.60145e-05
-1.62078e-05
4.08877e-05
-1.62925e-05
3.63587e-05
-1.63347e-05
3.23555e-05
-1.63439e-05
2.88144e-05
-1.6328e-05
2.56795e-05
-1.62934e-05
2.29016e-05
-1.62455e-05
2.04378e-05
-1.61886e-05
1.82507e-05
1.63072e-05
-1.61258e-05
-2.00403e-07
1.0826e-05
-4.52723e-07
1.484e-05
-7.41069e-07
1.85899e-05
-1.05675e-06
2.25169e-05
-1.40114e-06
2.66916e-05
-1.78501e-06
3.11222e-05
-2.22094e-06
3.59615e-05
-2.71993e-06
4.13876e-05
-3.29275e-06
4.75438e-05
-3.95099e-06
5.45564e-05
-4.70749e-06
6.25508e-05
-5.57635e-06
7.16565e-05
-6.5726e-06
8.2005e-05
-7.71112e-06
9.37212e-05
-8.78165e-06
8.83951e-05
-9.83775e-06
8.78171e-05
-1.08726e-05
8.71362e-05
-1.18781e-05
8.63474e-05
-1.28446e-05
8.54459e-05
-1.37605e-05
8.44279e-05
-1.46126e-05
8.32898e-05
-1.53218e-05
7.49659e-05
-1.58918e-05
6.6407e-05
-1.63405e-05
5.8843e-05
-1.66854e-05
5.21649e-05
-1.69428e-05
4.62719e-05
-1.71277e-05
4.10727e-05
-1.72535e-05
3.64845e-05
-1.73319e-05
3.24338e-05
-1.73727e-05
2.88552e-05
-1.73844e-05
2.56912e-05
-1.73738e-05
2.28911e-05
-1.73468e-05
2.04108e-05
-1.73079e-05
1.82118e-05
1.626e-05
-1.72607e-05
-2.00364e-07
1.10264e-05
-4.53803e-07
1.50935e-05
-7.44292e-07
1.88804e-05
-1.06304e-06
2.28357e-05
-1.41107e-06
2.70396e-05
-1.79889e-06
3.15101e-05
-2.23927e-06
3.64019e-05
-2.74351e-06
4.18919e-05
-3.32276e-06
4.8123e-05
-3.98915e-06
5.52228e-05
-4.75624e-06
6.33179e-05
-5.63922e-06
7.25395e-05
-6.65461e-06
8.30204e-05
-7.81975e-06
9.48863e-05
-8.92124e-06
8.94966e-05
-1.00144e-05
8.89102e-05
-1.10931e-05
8.8215e-05
-1.215e-05
8.74042e-05
-1.31759e-05
8.64718e-05
-1.41594e-05
8.54114e-05
-1.50872e-05
8.42175e-05
-1.58721e-05
7.57508e-05
-1.65149e-05
6.70499e-05
-1.70324e-05
5.93605e-05
-1.74414e-05
5.25739e-05
-1.77582e-05
4.65887e-05
-1.79977e-05
4.13122e-05
-1.81732e-05
3.666e-05
-1.82963e-05
3.25569e-05
-1.8377e-05
2.8936e-05
-1.8424e-05
2.57381e-05
-1.84444e-05
2.29115e-05
-1.84443e-05
2.04107e-05
-1.84287e-05
1.81962e-05
-1.84014e-05
1.62327e-05
4.0963e-08
2.78135e-05
3.81624e-08
2.85527e-05
3.54574e-08
2.93115e-05
3.28488e-08
3.00906e-05
3.0337e-08
3.08903e-05
2.79221e-08
3.17114e-05
2.56037e-08
3.25542e-05
2.33807e-08
3.34194e-05
2.1252e-08
3.43077e-05
1.92155e-08
3.52196e-05
1.7269e-08
3.61557e-05
1.54336e-08
3.65907e-05
1.37662e-08
3.55529e-05
1.22454e-08
3.45446e-05
1.08531e-08
3.35649e-05
9.57353e-09
3.2613e-05
8.39292e-09
3.16881e-05
7.29945e-09
3.07894e-05
6.28278e-09
2.99162e-05
5.3339e-09
2.90678e-05
4.44494e-09
2.82435e-05
2.74425e-05
3.60979e-09
1.00428e-07
2.782e-05
9.40355e-08
2.85591e-05
8.78142e-08
2.93178e-05
8.17681e-08
3.00966e-05
7.59008e-08
3.08962e-05
7.02147e-08
3.1717e-05
6.47116e-08
3.25597e-05
5.93919e-08
3.34248e-05
5.42547e-08
3.43128e-05
4.9298e-08
3.52245e-05
4.45183e-08
3.61605e-05
3.9977e-08
3.65953e-05
3.58317e-08
3.55571e-05
3.20348e-08
3.45484e-05
2.85437e-08
3.35684e-05
2.53213e-08
3.26162e-05
2.23351e-08
3.16911e-05
1.95566e-08
3.07922e-05
1.6961e-08
2.99188e-05
1.45269e-08
2.90702e-05
1.22353e-08
2.82458e-05
2.74447e-05
1.00671e-08
1.08886e-07
2.78274e-05
1.01759e-07
2.85662e-05
9.4856e-08
2.93247e-05
8.81836e-08
3.01033e-05
8.17462e-08
3.09026e-05
7.55471e-08
3.17232e-05
6.9588e-08
3.25657e-05
6.3869e-08
3.34305e-05
5.83883e-08
3.43183e-05
5.31422e-08
3.52298e-05
4.81241e-08
3.61655e-05
4.3389e-08
3.66e-05
3.90834e-08
3.55614e-05
3.51501e-08
3.45524e-05
3.15397e-08
3.3572e-05
2.82088e-08
3.26195e-05
2.512e-08
3.16942e-05
2.22404e-08
3.07951e-05
1.95418e-08
2.99215e-05
1.69995e-08
2.90728e-05
1.45924e-08
2.82482e-05
2.7447e-05
1.23034e-08
7.11832e-08
2.78331e-05
6.57647e-08
2.85716e-05
6.06152e-08
2.93298e-05
5.57394e-08
3.01082e-05
5.11401e-08
3.09072e-05
4.68186e-08
3.17276e-05
4.27736e-08
3.25697e-05
3.90019e-08
3.34343e-05
3.54974e-08
3.43218e-05
3.22512e-08
3.5233e-05
2.92513e-08
3.61685e-05
2.652e-08
3.66027e-05
2.41237e-08
3.55638e-05
2.20055e-08
3.45545e-05
2.01161e-08
3.35739e-05
1.84133e-08
3.26212e-05
1.68611e-08
3.16957e-05
1.54286e-08
3.07965e-05
1.40902e-08
2.99229e-05
1.28239e-08
2.90741e-05
1.16116e-08
2.82494e-05
2.74481e-05
1.04379e-08
-7.18613e-09
2.78352e-05
-9.03775e-09
2.85735e-05
-1.05378e-08
2.93313e-05
-1.16856e-08
3.01093e-05
-1.24832e-08
3.0908e-05
-1.2935e-08
3.1728e-05
-1.30488e-08
3.25698e-05
-1.28355e-08
3.3434e-05
-1.23094e-08
3.43213e-05
-1.14892e-08
3.52322e-05
-1.03974e-08
3.61674e-05
-9.08141e-09
3.66014e-05
-7.64349e-09
3.55624e-05
-6.13516e-09
3.4553e-05
-4.59929e-09
3.35724e-05
-3.0712e-09
3.26197e-05
-1.57967e-09
3.16942e-05
-1.47802e-10
3.07951e-05
1.20616e-09
2.99215e-05
2.46814e-09
2.90728e-05
3.62802e-09
2.82482e-05
2.74471e-05
4.67962e-09
-1.2466e-07
2.78322e-05
-1.21161e-07
2.857e-05
-1.17191e-07
2.93274e-05
-1.12757e-07
3.01049e-05
-1.07869e-07
3.09031e-05
-1.0254e-07
3.17227e-05
-9.67878e-08
3.25641e-05
-9.06357e-08
3.34279e-05
-8.41111e-08
3.43148e-05
-7.72466e-08
3.52253e-05
-7.00808e-08
3.61602e-05
-6.27633e-08
3.65941e-05
-5.56438e-08
3.55552e-05
-4.87647e-08
3.45461e-05
-4.21582e-08
3.35658e-05
-3.58486e-08
3.26134e-05
-2.98528e-08
3.16882e-05
-2.41821e-08
3.07894e-05
-1.88425e-08
2.99162e-05
-1.38362e-08
2.90678e-05
-9.16071e-09
2.82435e-05
2.74427e-05
-4.80812e-09
-2.81244e-07
2.78222e-05
-2.70595e-07
2.85593e-05
-2.59316e-07
2.93161e-05
-2.47426e-07
3.0093e-05
-2.34944e-07
3.08907e-05
-2.21899e-07
3.17096e-05
-2.08323e-07
3.25505e-05
-1.94255e-07
3.34138e-05
-1.7974e-07
3.43003e-05
-1.64832e-07
3.52104e-05
-1.49591e-07
3.6145e-05
-1.34302e-07
3.65788e-05
-1.19644e-07
3.55406e-05
-1.05645e-07