/*--------------------------------*- C++ -*----------------------------------*\
  =========                 |
  \\      /  F ield         | OpenFOAM: The Open Source CFD Toolbox
   \\    /   O peration     | Website:  https://openfoam.org
    \\  /    A nd           | Version:  8
     \\/     M anipulation  |
\*---------------------------------------------------------------------------*/
FoamFile
{
    version     2.0;
    format      ascii;
    class       volScalarField;
    location    "0.37";
    object      nut;
}
// * * * * * * * * * * * * * * * * * * * * * * * * * * * * * * * * * * * * * //

dimensions      [0 2 -1 0 0 0 0];

internalField   nonuniform List<scalar> 
15677
(
0.000168168
0.000652158
0.000148202
0.00151204
0.000443119
0.0001413
0.00267195
0.000878265
0.000381094
0.0001422
0.00391618
0.00152281
0.000687424
0.00035437
0.000145345
0.0050189
0.00236051
0.00114814
0.000586175
0.000340355
0.000151132
0.00583665
0.00332123
0.00178315
0.000948898
0.000529657
0.000332083
0.000156949
0.00633334
0.00430115
0.00257015
0.00146494
0.000821675
0.000492735
0.000327042
0.000162397
0.00656224
0.00518819
0.00345502
0.00213346
0.00125843
0.000737784
0.000467641
0.000324148
0.000167184
0.00665816
0.00589321
0.00435671
0.00292391
0.00184304
0.00111317
0.000677787
0.000450587
0.000322582
0.000171406
0.00670537
0.00633807
0.00518148
0.00378037
0.00255856
0.00163295
0.00100529
0.000634426
0.000438835
0.000322009
0.000174973
0.00671433
0.00655338
0.00584544
0.00462615
0.0033642
0.0022878
0.00147362
0.000924784
0.000602487
0.000430874
0.000321962
0.000178103
0.00670988
0.00666151
0.00629553
0.0053775
0.00419807
0.00304655
0.00207895
0.00134986
0.000862757
0.000578833
0.000425427
0.000322428
0.000180712
0.00670626
0.00669877
0.00652943
0.00596452
0.0049849
0.00385837
0.00279696
0.00191277
0.00125202
0.000814587
0.000561116
0.000421924
0.000323075
0.00018306
0.0067054
0.00670439
0.00664668
0.00635687
0.00565041
0.00465661
0.00358448
0.00259471
0.00177884
0.00117375
0.000776837
0.000547923
0.000419608
0.000323977
0.000185105
0.00670547
0.00670284
0.00668781
0.0065629
0.00614214
0.0053689
0.00438223
0.00335809
0.0024291
0.0016691
0.00111041
0.000747059
0.000537891
0.000418361
0.000324823
0.000186915
0.00670567
0.00670158
0.00669637
0.00665652
0.00644671
0.00593384
0.00512167
0.00414964
0.00316973
0.00229114
0.00157891
0.00105874
0.000723475
0.000530614
0.000417492
0.000325869
0.000188572
0.00670579
0.00670107
0.00669715
0.00668484
0.0066048
0.00632182
0.00573784
0.00490469
0.00395216
0.00301066
0.00217618
0.00150387
0.00101696
0.000705013
0.000524959
0.000417362
0.0003268
0.000189983
0.00670585
0.00670092
0.00669682
0.00669155
0.0066637
0.00654125
0.00618841
0.00555753
0.00471543
0.00378279
0.00287642
0.00207939
0.00144193
0.000982977
0.0006903
0.00052109
0.000417304
0.000327885
0.000191413
0.00670587
0.00670088
0.00669659
0.00669255
0.00668235
0.00663451
0.00646783
0.00605836
0.00539454
0.00454989
0.00363788
0.00276226
0.00199844
0.00139059
0.000955426
0.000678964
0.000518062
0.000417838
0.000328857
0.000192526
0.00670589
0.00670086
0.00669651
0.00669242
0.00668742
0.00666903
0.00659803
0.00638971
0.00593536
0.00524812
0.00440582
0.00351342
0.00266575
0.00193067
0.00134848
0.000933281
0.000670071
0.000516342
0.000418251
0.000329939
0.000193859
0.00670589
0.00670085
0.0066965
0.00669223
0.00668845
0.0066806
0.00665148
0.00655631
0.00631118
0.00582075
0.00511783
0.00428051
0.00340714
0.00258439
0.00187457
0.00131409
0.000915786
0.000663518
0.000514991
0.000419204
0.000330969
0.000194743
0.00670589
0.00670083
0.0066965
0.00669212
0.00668851
0.0066839
0.00667189
0.00663039
0.00651137
0.00623389
0.00571573
0.00500263
0.00417242
0.0033171
0.00251655
0.00182857
0.00128665
0.000902119
0.000658683
0.000514751
0.00041992
0.000332015
0.000196068
0.00670589
0.00670083
0.0066965
0.00669207
0.00668844
0.0066846
0.00667887
0.00666126
0.00660622
0.00646573
0.00616082
0.00562106
0.00490214
0.00408019
0.00324139
0.00246084
0.00179169
0.00126518
0.000892179
0.000655559
0.000514509
0.000421166
0.00033318
0.00019679
0.00670589
0.00670082
0.0066965
0.00669203
0.00668839
0.00668463
0.00668095
0.00667295
0.00664875
0.00658105
0.00641964
0.00609378
0.00553715
0.00481526
0.00400209
0.00317948
0.00241628
0.00176328
0.00124931
0.000884842
0.000653677
0.000515409
0.000422096
0.000334097
0.000198118
0.00670588
0.00670083
0.0066965
0.00669201
0.00668836
0.00668453
0.00668143
0.00667689
0.00666633
0.00663547
0.00655425
0.00637752
0.00603203
0.00546326
0.0047419
0.00393896
0.00312996
0.0023819
0.00174183
0.00123796
0.000880868
0.000653184
0.000515893
0.000423602
0.000335581
0.000198819
0.00670588
0.00670083
0.00669649
0.00669199
0.00668833
0.00668444
0.00668148
0.006678
0.00667296
0.00665925
0.00662103
0.00652982
0.00633608
0.00597793
0.00540224
0.00468237
0.00388707
0.00309142
0.00235666
0.00172865
0.00123238
0.000878808
0.000653686
0.000517854
0.000424639
0.000336369
5.33911e-05
0.00670587
0.00670084
0.00669648
0.00669198
0.00668832
0.00668438
0.00668143
0.00667819
0.0066752
0.00666881
0.00665186
0.00660789
0.00650476
0.00630325
0.005933
0.00534946
0.00463287
0.00385047
0.00306749
0.00234343
0.00172232
0.00122973
0.00087967
0.00065552
0.000519019
0.000427125
0.000283994
6.34629e-05
0.00670586
0.00670085
0.00669646
0.00669198
0.0066883
0.00668433
0.00668138
0.00667812
0.00667583
0.00667229
0.00666506
0.00664527
0.00659449
0.00648631
0.00626973
0.00589279
0.00531343
0.00460491
0.00382857
0.00305303
0.00233618
0.00172069
0.00123139
0.000882197
0.000657564
0.000521549
0.000420818
0.000219936
7.09698e-05
0.00670585
0.00670086
0.00669645
0.00669199
0.00668828
0.0066843
0.00668134
0.00667802
0.00667592
0.00667334
0.00667028
0.00666195
0.00663913
0.00658557
0.00646685
0.00624868
0.00587375
0.00529029
0.00458368
0.00381423
0.0030466
0.00233581
0.00172481
0.00123689
0.000886357
0.000660764
0.000522864
0.000401337
0.00017828
7.65403e-05
0.00670585
0.00670087
0.00669644
0.00669199
0.00668825
0.00668429
0.0066813
0.00667793
0.00667588
0.0066735
0.00667213
0.00666882
0.00665991
0.00663616
0.00657675
0.00645815
0.00624092
0.005858
0.00527462
0.0045723
0.00381088
0.00305063
0.00234457
0.00173532
0.00124558
0.000892651
0.000664849
0.000521158
0.000368769
0.000152642
8.10947e-05
0.00670584
0.00670088
0.00669643
0.006692
0.00668823
0.00668428
0.00668126
0.00667786
0.00667581
0.00667342
0.00667263
0.00667131
0.00666895
0.00666034
0.00663442
0.00657785
0.00645745
0.00623548
0.00585042
0.00527107
0.00457661
0.00382227
0.00306624
0.00236162
0.00175082
0.00125803
0.00090064
0.000668699
0.000515719
0.000337645
0.000134174
8.46479e-05
0.00670584
0.00670088
0.00669641
0.00669201
0.00668821
0.00668428
0.00668121
0.00667781
0.00667574
0.00667328
0.0066727
0.00667198
0.00667257
0.00667113
0.0066629
0.00664201
0.00658198
0.006462
0.00623792
0.00585843
0.00528496
0.00459593
0.00384598
0.00309187
0.0023861
0.00177156
0.00127342
0.000910087
0.000672594
0.0005051
0.000307591
0.000121083
8.72074e-05
0.00670583
0.00670089
0.0066964
0.00669202
0.00668818
0.00668429
0.00668117
0.00667778
0.00667567
0.00667315
0.00667263
0.00667201
0.00667377
0.00667549
0.00667615
0.00667452
0.00664972
0.00659281
0.00647423
0.00625679
0.00588245
0.00531352
0.00462933
0.00388192
0.0031274
0.00241796
0.00179683
0.00129215
0.00092088
0.000675127
0.00049052
0.000281568
0.000112477
8.91327e-05
0.00670582
0.0067009
0.00669639
0.00669203
0.00668816
0.0066843
0.00668113
0.00667776
0.00667559
0.00667305
0.00667253
0.00667186
0.00667407
0.0066769
0.00668193
0.00669003
0.00668452
0.00666495
0.00661421
0.00650143
0.00629021
0.00592161
0.00535779
0.00467696
0.00393013
0.00317265
0.00245686
0.00182689
0.00131331
0.000932801
0.000676653
0.000474409
0.000261872
0.000106619
9.0652e-05
0.0067009
0.00670582
0.00669638
0.00669204
0.00668814
0.00668431
0.00668108
0.00667776
0.00667552
0.00667298
0.00667243
0.00667167
0.00667406
0.00667719
0.0066841
0.006697
0.00670144
0.00670268
0.0066929
0.00664801
0.00654302
0.00633902
0.00597751
0.00541788
0.00473908
0.00399063
0.00322757
0.00250273
0.00186114
0.00133761
0.000947434
0.000677554
0.000460352
0.000246763
0.000102481
9.19061e-05
0.00669638
0.00670093
0.00670583
0.00669205
0.00668812
0.00668432
0.00668104
0.00667777
0.00667544
0.00667294
0.00667231
0.0066715
0.00667396
0.00667709
0.0066848
0.00669971
0.00670924
0.00672149
0.0067351
0.00673151
0.00669613
0.00660042
0.00640584
0.00605085
0.00549499
0.00481617
0.00406337
0.0032919
0.00255528
0.00189976
0.00136696
0.00096495
0.000678443
0.000448377
0.000235106
9.95233e-05
9.29849e-05
0.00669206
0.00669639
0.00670097
0.00670583
0.00668811
0.00668433
0.00668101
0.00667777
0.00667537
0.00667291
0.0066722
0.00667136
0.00667383
0.00667687
0.00668495
0.00670062
0.00671248
0.00673049
0.00675691
0.00677728
0.00678481
0.0067603
0.00667634
0.00649146
0.00614337
0.00558968
0.00490792
0.00414826
0.00336553
0.00261429
0.00194747
0.00140237
0.00098398
0.0006797
0.000438661
0.000225892
9.73287e-05
9.39398e-05
0.00668809
0.0066921
0.00669643
0.00670101
0.00670583
0.00668434
0.00668097
0.00667779
0.00667529
0.00667291
0.00667207
0.00667126
0.0066737
0.00667662
0.00668491
0.00670085
0.00671371
0.00673449
0.00676791
0.00680167
0.00683461
0.00685445
0.00684354
0.00677144
0.00659783
0.0062552
0.0057026
0.00501538
0.00424517
0.00344793
0.0026868
0.00200656
0.00144035
0.00100393
0.000682543
0.000430755
0.000218595
9.57218e-05
9.48079e-05
0.00668435
0.00668812
0.00669218
0.00669647
0.00670105
0.00670584
0.00668095
0.0066778
0.00667523
0.00667291
0.00667195
0.0066712
0.00667356
0.0066764
0.00668481
0.00670082
0.00671416
0.00673625
0.00677321
0.00681455
0.0068621
0.00690817
0.00694294
0.00694601
0.00688816
0.00672449
0.00638728
0.00583388
0.00513785
0.00435364
0.00354926
0.002776
0.00207076
0.00148094
0.00102577
0.000686283
0.000424601
0.000212626
9.44779e-05
9.56051e-05
0.00668092
0.00668441
0.00668818
0.00669226
0.00669651
0.00670109
0.00670584
0.00667781
0.00667516
0.00667293
0.00667182
0.00667117
0.0066734
0.00667621
0.0066847
0.0067007
0.00671429
0.00673709
0.00677591
0.00682147
0.00687808
0.00694024
0.00700362
0.00705338
0.00707112
0.007025
0.00687244
0.00653894
0.00598196
0.00527639
0.00448726
0.0036733
0.00287323
0.00213983
0.0015234
0.00104803
0.000691268
0.000419811
0.00020768
9.35558e-05
9.63498e-05
0.00667782
0.00668094
0.00668452
0.00668825
0.00669234
0.00669656
0.00670113
0.00670585
0.00667511
0.00667294
0.0066717
0.00667117
0.00667323
0.00667607
0.0066846
0.00670055
0.00671431
0.00673754
0.00677748
0.00682541
0.00688745
0.00695975
0.0070411
0.00712169
0.00719015
0.00722206
0.00718666
0.00703943
0.00670869
0.0061469
0.00544494
0.00465279
0.00380974
0.0029775
0.00221303
0.00156845
0.00107036
0.000697605
0.000416241
0.000203549
9.28142e-05
9.70434e-05
0.00667506
0.00667789
0.00668101
0.00668463
0.00668832
0.00669242
0.0066966
0.00670116
0.00670586
0.00667296
0.00667159
0.0066712
0.00667304
0.00667598
0.00668451
0.00670041
0.00671428
0.00673781
0.0067785
0.00682804
0.00689351
0.00697226
0.00706585
0.00716601
0.00726767
0.00735308
0.00740128
0.00737542
0.00722989
0.00689513
0.00634549
0.00564991
0.00483222
0.0039559
0.00308808
0.00228984
0.00161542
0.00109355
0.000704832
0.000413761
0.000200058
9.22656e-05
9.76987e-05
0.00667298
0.00667506
0.00667803
0.00668108
0.00668474
0.00668839
0.0066925
0.00669665
0.0067012
0.00670587
0.00667148
0.00667124
0.00667285
0.00667596
0.0066844
0.00670027
0.00671424
0.00673802
0.00677926
0.00683005
0.00689796
0.00698112
0.00708342
0.00719748
0.00732133
0.00744214
0.00754689
0.00760802
0.00759132
0.00744611
0.00712218
0.00658393
0.00586887
0.00502158
0.00410981
0.00320385
0.00236968
0.00166394
0.00111737
0.000712801
0.000412214
0.000197112
9.18081e-05
9.83107e-05
0.00667139
0.00667305
0.0066751
0.00667816
0.00668117
0.00668486
0.00668847
0.00669258
0.0066967
0.00670124
0.00670588
0.00667128
0.00667264
0.006676
0.00668427
0.00670014
0.00671419
0.00673818
0.00677988
0.00683173
0.00690155
0.00698817
0.007097
0.00722153
0.00736252
0.00750775
0.00765108
0.00777134
0.00784499
0.00783352
0.00771365
0.00740563
0.00683694
0.00609661
0.00521868
0.00426933
0.00332354
0.00245178
0.00171369
0.00114146
0.00072093
0.000411412
0.000194587
9.14762e-05
9.88917e-05
0.00667132
0.00667131
0.00667318
0.00667514
0.00667829
0.00668126
0.00668497
0.00668855
0.00669266
0.00669676
0.00670128
0.00670589
0.00667245
0.00667609
0.00668409
0.00670002
0.00671416
0.00673833
0.00678042
0.00683321
0.00690461
0.00699423
0.00710837
0.00724113
0.00739652
0.00756156
0.00773275
0.0078942
0.00803046
0.00811242
0.0081327
0.00804275
0.00771749
0.00711166
0.00633073
0.00541952
0.00443202
0.00344579
0.00253553
0.0017642
0.00116614
0.000729197
0.000411128
0.000192432
9.11889e-05
9.94328e-05
0.00667226
0.00667138
0.00667122
0.00667331
0.0066752
0.00667843
0.00668135
0.00668508
0.00668865
0.00669274
0.00669682
0.00670132
0.0067059
0.00667622
0.00668386
0.00669993
0.00671414
0.00673848
0.00678091
0.00683454
0.00690731
0.00699964
0.00711833
0.00725821
0.00742591
0.00760838
0.00780392
0.0079962
0.00817746
0.00832479
0.00844496
0.0085038
0.00840202
0.0080497
0.00740425
0.00657427
0.00562202
0.00459637
0.00356956
0.00262019
0.00181518
0.00119116
0.000737618
0.000411312
0.000190561
9.09884e-05
9.99476e-05
0.00667637
0.00667194
0.00667144
0.00667114
0.00667344
0.00667528
0.00667856
0.00668146
0.00668519
0.00668874
0.00669282
0.00669688
0.00670135
0.00670591
0.00668357
0.00669989
0.00671415
0.00673863
0.00678137
0.00683575
0.00690972
0.00700456
0.00712723
0.00727368
0.00745237
0.00764999
0.00786908
0.00809007
0.0083064
0.00850153
0.00869388
0.00886125
0.0089122
0.00878822
0.00839954
0.00770894
0.00682774
0.00582552
0.00476065
0.0036933
0.00270507
0.00186628
0.00121634
0.000746097
0.000411868
0.000188957
9.08082e-05
0.000100425
0.00668322
0.0066764
0.00667145
0.00667151
0.00667109
0.00667357
0.00667537
0.00667868
0.00668159
0.0066853
0.00668885
0.0066929
0.00669695
0.00670139
0.00670593
0.00669991
0.00671419
0.0067388
0.0067818
0.00683684
0.0069119
0.00700904
0.00713527
0.00728793
0.0074766
0.00768806
0.00792943
0.0081797
0.00843038
0.00866408
0.0089124
0.00916162
0.00932457
0.00935561
0.00919862
0.00876428
0.0080214
0.00708773
0.00602953
0.00492261
0.00381602
0.00278951
0.00191719
0.00124147
0.000754652
0.000412521
0.000187555
9.06913e-05
0.00010088
0.00670003
0.00668215
0.00667635
0.00667096
0.00667158
0.00667106
0.00667368
0.00667548
0.00667881
0.00668172
0.00668541
0.00668896
0.00669298
0.00669701
0.00670142
0.00670594
0.00671426
0.00673897
0.00678219
0.00683784
0.00691389
0.00701314
0.00714258
0.00730113
0.00749885
0.00772354
0.00798639
0.00826431
0.00855205
0.00882714
0.00912454
0.00944102
0.00968968
0.00983486
0.00983326
0.0096316
0.00914162
0.00833958
0.00735113
0.00623651
0.00508214
0.00393692
0.00287301
0.00196761
0.00126645
0.000763156
0.000413338
0.000186371
9.05813e-05
0.000101299
0.00671434
0.00669965
0.00668016
0.00667634
0.00667052
0.00667162
0.00667107
0.00667378
0.00667561
0.00667892
0.00668186
0.00668552
0.00668907
0.00669306
0.00669708
0.00670146
0.00670595
0.00673914
0.00678254
0.00683873
0.0069157
0.00701687
0.00714925
0.00731335
0.00751932
0.00775692
0.00804037
0.00834434
0.00866952
0.00899435
0.00934749
0.00972617
0.0100485
0.010284
0.0103971
0.0103476
0.0100872
0.00953015
0.00866185
0.00761433
0.00644414
0.00523908
0.00405561
0.0029551
0.00201729
0.0012911
0.000771705
0.000414265
0.000185314
9.05188e-05
0.0001017
0.00673932
0.00671336
0.00669884
0.00667816
0.00667628
0.00667016
0.00667163
0.00667114
0.00667386
0.00667577
0.00667903
0.00668201
0.00668562
0.00668918
0.00669313
0.00669714
0.00670149
0.00670596
0.00678282
0.00683953
0.00691734
0.00702027
0.00715535
0.00732461
0.00753813
0.00778835
0.00809119
0.00842028
0.00878429
0.00916235
0.00958168
0.0100364
0.0104361
0.0107575
0.0109641
0.0110236
0.0109042
0.0105667
0.00992921
0.00898686
0.00787629
0.0066506
0.00539257
0.00417116
0.00303527
0.00206599
0.00131534
0.000780138
0.000415231
0.000184423
9.04555e-05
0.000102066
0.00678306
0.0067376
0.00671117
0.00669801
0.00667653
0.00667607
0.00666993
0.00667157
0.00667125
0.00667392
0.00667594
0.00667914
0.00668217
0.00668573
0.00668929
0.00669321
0.0066972
0.00670152
0.00670598
0.00684023
0.00691884
0.00702336
0.00716092
0.00733495
0.00755545
0.00781785
0.00813866
0.00849269
0.00889728
0.00932937
0.00981523
0.0103746
0.0108914
0.0113161
0.0116151
0.011758
0.0117279
0.0115083
0.0110715
0.0103382
0.00931353
0.0081361
0.00685475
0.00554326
0.00428291
0.00311318
0.00211351
0.00133905
0.000788522
0.000416266
0.000183635
9.0429e-05
0.000102418
0.00684091
0.00678009
0.0067338
0.00670891
0.00669678
0.00667542
0.00667567
0.00666984
0.00667146
0.00667141
0.00667398
0.00667613
0.00667926
0.00668232
0.00668584
0.0066894
0.00669328
0.00669726
0.00670155
0.00670599
0.00692019
0.00702615
0.00716602
0.00734442
0.00757137
0.00784538
0.00818282
0.00856204
0.00900771
0.00949224
0.010046
0.0107412
0.0114471
0.0120374
0.0124437
0.0126593
0.0126804
0.012514
0.0121602
0.0116005
0.0107561
0.00964081
0.00839295
0.00705506
0.00569173
0.00439094
0.00318862
0.00215969
0.00136217
0.000796666
0.000417297
0.000182912
9.0397e-05
0.000102699
0.00692148
0.00683702
0.00677363
0.00673
0.00670668
0.00669502
0.00667479
0.00667505
0.00666989
0.0066713
0.00667161
0.00667403
0.00667633
0.00667937
0.00668247
0.00668595
0.0066895
0.00669336
0.00669731
0.00670159
0.006706
0.00702868
0.00717066
0.00735305
0.00758601
0.00787091
0.00822383
0.0086284
0.00911391
0.00964878
0.0102798
0.0111544
0.0121126
0.012961
0.0135343
0.0138213
0.0138723
0.0137129
0.0133688
0.0128519
0.0121494
0.0111807
0.00996744
0.00864604
0.00725039
0.00583705
0.00449523
0.00326143
0.0022044
0.00138461
0.000804663
0.000418361
0.000182298
9.03915e-05
0.000102936
0.00703103
0.00691605
0.0068281
0.00676704
0.0067264
0.00670444
0.00669288
0.00667461
0.00667425
0.00667006
0.00667112
0.00667183
0.00667408
0.00667652
0.00667949
0.00668262
0.00668605
0.00668959
0.00669343
0.00669736
0.00670162
0.00670601
0.00717487
0.00736089
0.00759943
0.00789446
0.00826188
0.0086915
0.00921438
0.00979943
0.0105258
0.0116248
0.0128759
0.014018
0.0148453
0.015266
0.0153455
0.0151788
0.0148066
0.0142636
0.0135679
0.0127107
0.0116085
0.0102919
0.00889453
0.0074404
0.00597854
0.00459573
0.00333151
0.00224754
0.00140633
0.000812465
0.000419442
0.000181813
9.03839e-05
0.00010319
0.00717874
0.00702368
0.00690316
0.00681932
0.00676068
0.00672303
0.00670227
0.00669018
0.00667476
0.00667333
0.00667029
0.00667093
0.00667205
0.00667416
0.0066767
0.00667961
0.00668275
0.00668616
0.00668968
0.0066935
0.00669742
0.00670165
0.00670602
0.00736799
0.00761168
0.00791608
0.00829715
0.00875093
0.00930848
0.00994648
0.0107892
0.0121424
0.0136884
0.0151023
0.0161765
0.0168231
0.0170223
0.0168716
0.0164839
0.015902
0.0151632
0.0142889
0.0132746
0.0120354
0.0106123
0.00913757
0.00762474
0.00611574
0.00469239
0.00339879
0.00228904
0.00142728
0.000819995
0.000420361
0.000181431
9.03868e-05
0.000103468
0.00737444
0.00716882
0.00700534
0.00689029
0.00681083
0.00675465
0.00671987
0.00670074
0.00668714
0.00667511
0.00667239
0.00667054
0.00667079
0.00667226
0.00667425
0.00667687
0.00667974
0.00668288
0.00668627
0.00668977
0.00669357
0.00669746
0.00670168
0.00670602
0.00762283
0.00793583
0.00832973
0.00880635
0.0093964
0.0100922
0.0110687
0.0126821
0.0144877
0.0161129
0.0173736
0.0182205
0.0186412
0.0186329
0.0182849
0.0177099
0.0169478
0.0160352
0.0149961
0.013831
0.0124568
0.0109268
0.00937434
0.00780312
0.00624829
0.00478515
0.00346324
0.00232887
0.00144743
0.000826305
0.000421173
0.000181023
9.03888e-05
0.000103768
0.00763294
0.00736155
0.00714302
0.00698699
0.0068778
0.00680259
0.00674892
0.00671683
0.00669959
0.00668401
0.0066755
0.00667153
0.00667074
0.0066707
0.00667243
0.00667436
0.00667701
0.00667988
0.00668299
0.00668637
0.00668986
0.00669364
0.00669751
0.00670169
0.00670602
0.00795383
0.0083597
0.00885761
0.00947882
0.0102378
0.0113569
0.0132149
0.0152235
0.0169853
0.0183574
0.0193368
0.0199433
0.0201743
0.0200129
0.0195232
0.0188105
0.0179096
0.0168551
0.0156734
0.0143709
0.0128682
0.0112334
0.00960405
0.00797524
0.00637593
0.00487402
0.00352486
0.00236699
0.00146422
0.000831737
0.000422087
0.000180617
9.04048e-05
0.000104097
0.00796997
0.00761621
0.00732588
0.00711718
0.00696909
0.00686565
0.00679456
0.00674336
0.00671399
0.00669858
0.00668102
0.00667577
0.00667084
0.00667086
0.00667069
0.00667256
0.0066745
0.00667715
0.00668001
0.0066831
0.00668648
0.00668994
0.0066937
0.00669754
0.00670169
0.00670602
0.00838716
0.00890475
0.00955654
0.0103826
0.011644
0.0137174
0.0158672
0.0176963
0.0191107
0.0201529
0.0208752
0.0212966
0.0213982
0.0211433
0.0205678
0.0197669
0.0187697
0.0176082
0.0163098
0.0148868
0.0132656
0.0115304
0.00982597
0.00814083
0.00649849
0.00495895
0.00358363
0.00239859
0.0014786
0.000837774
0.000423136
0.00018018
9.04183e-05
0.000104453
0.00841177
0.00794883
0.00756728
0.00729013
0.00709196
0.00695165
0.00685381
0.00678664
0.00673807
0.00671131
0.0066976
0.00667841
0.00667577
0.00667039
0.00667089
0.00667075
0.00667267
0.00667465
0.00667727
0.00668015
0.00668321
0.00668658
0.00669001
0.00669374
0.00669753
0.00670169
0.00670602
0.008948
0.00963012
0.0105251
0.0119205
0.0141748
0.0164099
0.018251
0.019654
0.0207011
0.0214731
0.0220106
0.0223118
0.0223396
0.0220405
0.0214257
0.0205788
0.0195235
0.0182874
0.0168984
0.0153736
0.0136459
0.0118162
0.0100395
0.00829971
0.00661588
0.0050401
0.00363207
0.00242558
0.00149452
0.000844498
0.00042432
0.000179752
9.04505e-05
0.000104844
0.00898659
0.00838489
0.00788264
0.00751826
0.00725516
0.00706736
0.00693464
0.00684222
0.0067788
0.0067332
0.00670867
0.00669649
0.00667662
0.00667542
0.00667018
0.00667083
0.00667087
0.00667276
0.00667481
0.00667739
0.00668029
0.00668331
0.00668668
0.00669005
0.00669374
0.00669753
0.00670169
0.00670602
0.00969995
0.0106631
0.0121793
0.0145807
0.0168554
0.0186689
0.020023
0.0210327
0.0218017
0.0223897
0.0228119
0.023046
0.023042
0.0227354
0.0221161
0.0212568
0.0201744
0.0188921
0.0174364
0.0158282
0.0140069
0.0120896
0.010244
0.00845174
0.00672796
0.0051076
0.0036733
0.00245533
0.00151217
0.000852002
0.000425687
0.000179289
9.04805e-05
0.000105267
0.00976378
0.00895303
0.00829536
0.00781623
0.00747026
0.007221
0.00704336
0.00691804
0.00683088
0.00677099
0.00672859
0.00670597
0.00669465
0.00667568
0.0066748
0.00667014
0.00667072
0.00667101
0.00667283
0.00667497
0.0066775
0.00668043
0.00668341
0.00668674
0.00669005
0.00669374
0.00669753
0.00670169
0.00670602
0.0107946
0.01242
0.014935
0.0172143
0.0189742
0.0202558
0.0211998
0.0219277
0.0225149
0.022992
0.0233513
0.0235567
0.0235504
0.0232616
0.0226628
0.0218157
0.0207306
0.0194251
0.0179235
0.0162491
0.0143471
0.0123497
0.0104393
0.0085968
0.00682052
0.00516536
0.00371862
0.00248818
0.00153177
0.000860399
0.000427233
0.000178847
9.05363e-05
0.000105731
0.010913
0.00972135
0.00883093
0.00820581
0.00775108
0.00742335
0.00718763
0.00701994
0.00690185
0.00681982
0.00676333
0.00672416
0.00670331
0.00669219
0.00667538
0.00667401
0.00667023
0.00667059
0.00667118
0.00667289
0.00667514
0.0066776
0.00668056
0.00668346
0.00668674
0.00669005
0.00669374
0.00669753
0.00670169
0.00670602
0.0126427
0.0152382
0.0174995
0.0191906
0.0203863
0.0212475
0.0219088
0.022458
0.0229388
0.0233575
0.0236906
0.0238931
0.0239044
0.0236503
0.023089
0.0222718
0.0212022
0.0198918
0.0183617
0.0166362
0.0146658
0.0125961
0.010625
0.00871663
0.00689939
0.00522916
0.00376852
0.00252449
0.00155357
0.000869813
0.000429027
0.000178353
9.05903e-05
0.000106231
0.0108654
0.0128382
0.00954187
0.00871098
0.00811775
0.00768736
0.00737749
0.00715507
0.00699712
0.00688611
0.00680912
0.00675581
0.00672007
0.00670087
0.00668913
0.00667545
0.00667317
0.00667037
0.00667046
0.00667136
0.00667296
0.0066753
0.0066777
0.00668064
0.00668345
0.00668674
0.00669005
0.00669374
0.00669754
0.00670168
0.00670601
0.015494
0.0177239
0.0193385
0.0204423
0.0212117
0.0217906
0.0222761
0.022723
0.0231504
0.0235466
0.0238777
0.0240948
0.0241369
0.0239287
0.0234163
0.022641
0.0216
0.0202985
0.0187539
0.0169905
0.0149628
0.0128284
0.0107778
0.00881874
0.00698613
0.00529972
0.00382359
0.00256472
0.0015779
0.0008804
0.000431065
0.000177887
9.06795e-05
0.000106782
0.0105925
0.0127864
0.0157051
0.00936999
0.00859385
0.00803139
0.00762503
0.00733269
0.00712333
0.00697494
0.00687088
0.00679897
0.00674864
0.00671645
0.00669938
0.00668598
0.00667567
0.00667237
0.00667052
0.00667035
0.00667153
0.00667302
0.00667546
0.00667774
0.00668065
0.00668345
0.00668674
0.00669005
0.00669374
0.00669751
0.00670165
0.006706
0.0178992
0.0194348
0.0204455
0.0211197
0.0216075
0.0220127
0.022399
0.0227968
0.0232064
0.0236039
0.0239493
0.0241926
0.0242746
0.0241195
0.023663
0.0229375
0.0219339
0.0206517
0.0191038
0.0173135
0.0152386
0.0130178
0.0109077
0.00893098
0.00708167
0.00537786
0.00388447
0.00260937
0.00160508
0.000892332
0.000433445
0.000177362
9.07684e-05
0.000107371
0.010322
0.0124107
0.0156272
0.0180335
0.0092076
0.00847882
0.00794683
0.00756411
0.007289
0.00709247
0.00695346
0.00685624
0.0067894
0.00674211
0.0067132
0.00669822
0.00668303
0.00667587
0.00667168
0.00667065
0.00667026
0.00667169
0.0066731
0.00667556
0.00667773
0.00668065
0.00668345
0.00668674
0.00669005
0.0066937
0.00669746
0.00670162
0.00670599
0.0194928
0.0204123
0.0209915
0.0213848
0.0217
0.0220073
0.0223472
0.0227316
0.0231473
0.0235619
0.0239324
0.0242104
0.0243386
0.0242413
0.0238448
0.0231738
0.0222136
0.0209579
0.0194152
0.0176072
0.0154599
0.0131778
0.0110499
0.00905446
0.00718703
0.00546452
0.00395194
0.00265904
0.00163555
0.000905831
0.000436166
0.000176887
9.0906e-05
0.000108021
0.0100681
0.0119975
0.0152769
0.01792
0.0195161
0.00905205
0.00836564
0.00786418
0.00750464
0.00724649
0.00706256
0.00693273
0.0068423
0.00678049
0.00673613
0.00671036
0.00669718
0.00668045
0.00667594
0.00667113
0.00667075
0.00667021
0.00667185
0.00667311
0.00667558
0.00667772
0.00668065
0.00668345
0.00668674
0.00669001
0.00669363
0.00669741
0.00670158
0.00670597
0.0203549
0.0208418
0.0211403
0.0213608
0.0215776
0.0218392
0.0221687
0.022564
0.0230016
0.0234438
0.0238475
0.0241666
0.0243459
0.0243091
0.0239748
0.0233605
0.0224471
0.021223
0.019692
0.0178381
0.0156451
0.0133518
0.0112057
0.00919041
0.00730337
0.00556077
0.00402686
0.0027144
0.00166978
0.000921141
0.000439368
0.000176346
9.10473e-05
0.00010871
0.00983135
0.0115848
0.0148362
0.0176803
0.0193504
0.0202729
0.00890115
0.00825449
0.00778358
0.00744674
0.00720527
0.00703365
0.00691294
0.00682936
0.00677223
0.0067308
0.00670779
0.00669617
0.00667842
0.00667583
0.00667072
0.00667081
0.0066702
0.00667195
0.00667308
0.00667559
0.00667772
0.00668065
0.00668346
0.00668668
0.00668993
0.00669357
0.00669736
0.00670155
0.00670596
0.0206809
0.0208871
0.0210118
0.0211315
0.021301
0.0215528
0.0218968
0.0223195
0.0227894
0.0232667
0.02371
0.0240756
0.0243097
0.0243351
0.0240635
0.0235068
0.0226419
0.0214524
0.0199048
0.0180289
0.015844
0.0135407
0.0113763
0.00934015
0.00743201
0.00566782
0.00411028
0.00277629
0.00170835
0.00093858
0.000443059
0.00017589
9.12566e-05
0.000109472
0.00960914
0.0111891
0.0143399
0.017363
0.019186
0.0200544
0.0205043
0.00875389
0.00814569
0.00770516
0.00739053
0.00716544
0.00700602
0.00689457
0.00681751
0.0067646
0.00672615
0.00670537
0.00669497
0.00667714
0.00667552
0.00667045
0.00667085
0.00667017
0.00667197
0.00667306
0.00667559
0.00667773
0.00668064
0.00668341
0.00668658
0.00668985
0.0066935
0.00669731
0.00670152
0.00670595
0.020634
0.0206644
0.0206844
0.0207534
0.0209112
0.0211788
0.0215546
0.0220154
0.0225249
0.0230432
0.0235318
0.023949
0.0242408
0.0243291
0.0241197
0.0236201
0.022804
0.0216238
0.0200785
0.018231
0.0160573
0.0137456
0.011563
0.00950512
0.00757442
0.00578707
0.00420339
0.00284566
0.00175197
0.00095851
0.000447437
0.000175365
9.14788e-05
0.00011027
0.0093988
0.0108165
0.0138121
0.0169902
0.0189568
0.0199242
0.0202337
0.0203709
0.0086101
0.00803955
0.00762912
0.00733616
0.00712735
0.00698038
0.00687783
0.00680665
0.0067575
0.00672207
0.00670304
0.00669312
0.0066764
0.00667509
0.00667028
0.00667086
0.00667013
0.00667199
0.00667306
0.00667558
0.00667774
0.00668056
0.00668331
0.00668648
0.00668977
0.00669342
0.00669725
0.00670149
0.00670594
0.0203265
0.0202472
0.0202115
0.0202644
0.0204367
0.0207387
0.0211578
0.0216639
0.0222182
0.022783
0.0233225
0.0237957
0.0241476
0.0242989
0.0241505
0.0237066
0.0229196
0.0217618
0.0202596
0.0184443
0.0162854
0.0139674
0.0117672
0.00968689
0.00773221
0.00592008
0.00430761
0.00292369
0.00180143
0.000981392
0.000452539
0.00017498
9.17952e-05
0.000111304
0.00919842
0.0104698
0.0132651
0.0165703
0.0186876
0.019742
0.0201091
0.0200482
0.0199833
0.00846996
0.00793646
0.00755568
0.00728415
0.00709202
0.00695704
0.00686255
0.00679672
0.00675088
0.00671843
0.00670098
0.00669083
0.00667602
0.00667461
0.00667023
0.00667084
0.00667012
0.00667199
0.00667308
0.00667556
0.0066777
0.00668043
0.00668321
0.00668637
0.00668968
0.00669335
0.0066972
0.00670146
0.00670593
0.0198271
0.0196862
0.019628
0.0196915
0.0198983
0.0202468
0.020717
0.0212732
0.0218767
0.0224935
0.0230898
0.0236232
0.024037
0.0242506
0.0241614
0.023761
0.0230109
0.0219028
0.0204474
0.0186684
0.0165285
0.014207
0.0119901
0.00988707
0.00790717
0.00606864
0.00442449
0.00301163
0.00185779
0.00100779
0.000458647
0.000174529
9.22154e-05
0.000112541
0.00900665
0.01015
0.0127066
0.0161045
0.0183895
0.0195344
0.019941
0.0199117
0.0196089
0.0194137
0.00833365
0.00783685
0.00748549
0.00723592
0.00705991
0.00693579
0.00684863
0.00678771
0.00674473
0.0067153
0.00669946
0.00668842
0.00667584
0.00667424
0.00667027
0.00667083
0.00667012
0.00667197
0.00667311
0.00667546
0.0066776
0.00668029
0.0066831
0.00668626
0.00668959
0.00669328
0.00669714
0.00670142
0.00670591
0.0191848
0.0190136
0.0189597
0.0190555
0.0193089
0.0197129
0.0202392
0.0208485
0.0215057
0.0221811
0.0228403
0.0234377
0.0239143
0.0241892
0.0241554
0.0238017
0.0231009
0.0220458
0.0206411
0.0189029
0.0167866
0.0144649
0.012233
0.0101073
0.00810121
0.00623472
0.00455609
0.00311136
0.00192221
0.00103839
0.00046586
0.000174299
9.28344e-05
0.000113777
0.00882378