/*--------------------------------*- C++ -*----------------------------------*\
  =========                 |
  \\      /  F ield         | OpenFOAM: The Open Source CFD Toolbox
   \\    /   O peration     | Website:  https://openfoam.org
    \\  /    A nd           | Version:  8
     \\/     M anipulation  |
\*---------------------------------------------------------------------------*/
FoamFile
{
    version     2.0;
    format      ascii;
    class       volScalarField;
    location    "0.3";
    object      epsilon;
}
// * * * * * * * * * * * * * * * * * * * * * * * * * * * * * * * * * * * * * //

dimensions      [0 2 -3 0 0 0 0];

internalField   nonuniform List<scalar> 
15677
(
59.7017
18.355
52.6127
8.08819
25.8904
50.1614
4.62748
13.2628
31.5738
50.4802
3.17797
7.72315
17.0788
37.2595
51.5942
2.48956
5.04271
10.0236
20.8046
42.6279
53.6502
2.14574
3.62266
6.4606
12.1572
24.5299
47.6381
55.714
1.97987
2.8209
4.52374
7.72111
14.2678
28.2367
51.9956
57.6521
1.9117
2.35301
3.40108
5.30812
8.91106
16.4132
31.7351
55.6782
59.3529
1.88417
2.0803
2.72289
3.90779
6.0187
10.0991
18.5218
34.9319
58.6994
60.8573
1.87055
1.93941
2.30695
3.0546
4.35594
6.70298
11.2651
20.5522
37.7522
61.1788
62.1273
1.86765
1.87832
2.0564
2.52056
3.34673
4.77356
7.35827
12.4075
22.4426
40.2161
63.1764
63.2444
1.86863
1.84884
1.91656
2.18578
2.7117
3.61334
5.16236
7.9948
13.4945
24.1866
42.3152
64.8076
64.1764
1.86954
1.83869
1.85192
1.98251
2.30642
2.88519
3.85624
5.53203
8.59866
14.5248
25.7509
44.1087
66.1181
65.0123
1.86978
1.83696
1.82112
1.86771
2.05116
2.41741
3.04162
4.08216
5.87767
9.17308
15.475
27.1518
45.6081
67.183
65.7421
1.86978
1.83722
1.81049
1.81332
1.8981
2.11707
2.51788
3.18482
4.28994
6.20298
9.70582
16.3506
28.3748
46.8691
68.0529
66.3875
1.86974
1.83748
1.80819
1.78976
1.81537
1.93012
2.17824
2.60934
3.31486
4.48235
6.50265
10.2001
17.1354
29.4403
47.9187
68.7611
66.9791
1.86972
1.83758
1.8079
1.78272
1.7757
1.82142
1.96209
2.23451
2.69195
3.43348
4.65771
6.77864
10.647
17.8369
30.3492
48.7788
69.3689
67.4825
1.86971
1.8376
1.80792
1.781
1.76146
1.76611
1.83162
1.99272
2.2856
2.76658
3.54048
4.81715
7.02728
11.0499
18.4472
31.1152
49.4913
69.8508
67.9924
1.86971
1.83759
1.80795
1.78067
1.75699
1.74391
1.76035
1.84295
2.02117
2.3317
2.83344
3.63655
4.95956
7.25002
11.403
18.9732
31.7507
50.0498
70.305
68.3896
1.86971
1.83758
1.80795
1.78062
1.75572
1.73588
1.72952
1.75734
1.8543
2.04722
2.37299
2.89293
3.72165
5.08555
7.44478
11.709
19.4132
32.2618
50.5162
70.6434
68.863
1.86971
1.83757
1.80794
1.78061
1.75541
1.73316
1.71731
1.71799
1.75578
1.8654
2.0708
2.40962
2.94534
3.79609
5.19497
7.61218
11.9659
19.7739
32.6696
50.8557
71.0197
69.1782
1.86971
1.83756
1.80793
1.78058
1.75534
1.73232
1.71271
1.70131
1.70845
1.75566
1.87584
2.09186
2.44188
2.99092
3.86034
5.28787
7.75267
12.1762
20.0589
32.9751
51.1458
71.2722
69.6474
1.86971
1.83755
1.80792
1.78055
1.75531
1.73205
1.7111
1.69449
1.68727
1.70083
1.75597
1.88543
2.11058
2.47
3.03021
3.91459
5.36554
7.86601
12.342
20.2741
33.2013
51.3385
71.6277
69.9024
1.86971
1.83755
1.80791
1.78053
1.75528
1.73195
1.71057
1.69187
1.67806
1.67532
1.69453
1.75672
1.89431
2.12717
2.49446
3.06358
3.95989
5.42755
7.95578
12.4654
20.429
33.3524
51.5027
71.8336
70.3725
1.86971
1.83755
1.80791
1.78051
1.75525
1.73188
1.71038
1.69089
1.67428
1.66369
1.66485
1.6895
1.75814
1.90257
2.14195
2.51566
3.09184
3.99668
5.47707
8.02094
12.5528
20.5244
33.4414
51.6195
72.2318
70.6179
1.86971
1.83755
1.8079
1.7805
1.75523
1.73183
1.71028
1.6905
1.6728
1.65862
1.65077
1.65628
1.68571
1.75998
1.91046
2.15542
2.53438
3.11579
4.02655
5.51313
8.06777
12.6036
20.5814
33.4881
51.6956
72.5291
429.7
1.86971
1.83754
1.8079
1.78049
1.75521
1.73179
1.71021
1.69032
1.67221
1.65649
1.64441
1.63999
1.64891
1.68307
1.76271
1.91851
2.16815
2.55123
3.13623
4.05008
5.54018
8.09429
12.6308
20.5838
33.4839
51.8182
88.8888
717.968
1.86971
1.83754
1.8079
1.78048
1.75519
1.73176
1.71016
1.6902
1.67194
1.65557
1.64164
1.63229
1.63044
1.64385
1.6825
1.76665
1.92709
2.18084
2.56717
3.1546
4.06965
5.55825
8.11067
12.6277
20.5707
33.4869
52.7412
122.271
998.988
1.86971
1.83754
1.80789
1.78047
1.75518
1.73173
1.71011
1.69012
1.67178
1.65514
1.64044
1.62876
1.62157
1.62363
1.63988
1.68359
1.77215
1.93703
2.19437
2.58344
3.17207
4.08636
5.57123
8.11057
12.6157
20.5411
33.5126
55.3001
157.888
1247.61
1.86971
1.83754
1.80789
1.78047
1.75516
1.73171
1.71007
1.69005
1.67166
1.65489
1.63987
1.62712
1.61744
1.61349
1.61796
1.63999
1.68669
1.77999
1.94905
2.2098
2.60085
3.18992
4.10173
5.57966
8.10763
12.5914
20.5033
33.6123
59.873
190.563
1476.75
1.86971
1.83754
1.80789
1.78046
1.75516
1.73169
1.71003
1.68999
1.67157
1.65473
1.63955
1.62632
1.61551
1.60856
1.60708
1.61651
1.64187
1.69292
1.79091
1.96414
2.22789
2.62076
3.20926
4.11765
5.5869
8.10095
12.5628
20.4599
33.8662
64.6015
221.577
1671.18
1.86972
1.83754
1.80789
1.78046
1.75515
1.73167
1.71
1.68995
1.67149
1.65461
1.63933
1.62588
1.61454
1.60616
1.60177
1.60437
1.61796
1.64677
1.70317
1.80592
1.98316
2.25002
2.64411
3.23182
4.13547
5.59531
8.09384
12.5319
20.4113
34.3344
69.4114
248.875
1818.99
1.86972
1.83754
1.80789
1.78045
1.75514
1.73166
1.70998
1.68991
1.67142
1.6545
1.63915
1.6256
1.614
1.60494
1.59916
1.59831
1.60559
1.62239
1.65637
1.71831
1.8259
2.0074
2.27702
2.67242
3.25846
4.15722
5.60701
8.08805
12.4998
20.3675
34.8939
73.7798
270.096
1933.72
1.86972
1.83754
1.80789
1.78045
1.75514
1.73165
1.70996
1.68987
1.67136
1.65442
1.63901
1.62539
1.61363
1.60427
1.59781
1.59529
1.59941
1.60982
1.63146
1.67173
1.73924
1.85214
2.03771
2.31033
2.70639
3.29089
4.184
5.62336
8.08629
12.4664
20.3323
35.4346
77.1666
286.893
2025.85
1.83754
1.86975
1.80789
1.78045
1.75513
1.73164
1.70995
1.68984
1.67132
1.65434
1.63889
1.62521
1.61335
1.60383
1.59704
1.59375
1.59635
1.60358
1.61871
1.64711
1.69356
1.76729
1.88552
2.07548
2.35061
2.74759
3.32975
4.21715
5.64493
8.08764
12.4301
20.2928
35.8473
79.7678
300.514
2102.73
1.80789
1.83764
1.86982
1.78045
1.75513
1.73163
1.70993
1.68981
1.67128
1.65427
1.63879
1.62507
1.61312
1.60351
1.59653
1.5929
1.59481
1.60056
1.61249
1.6348
1.66982
1.72316
1.80343
1.92752
2.12146
2.39934
2.79636
3.3763
4.2568
5.67225
8.09261
12.3918
20.2452
36.1318
81.7585
312.031
2169.3
1.78045
1.80804
1.83784
1.86989
1.75512
1.73162
1.70992
1.68979
1.67124
1.65421
1.6387
1.62494
1.61293
1.60326
1.59614
1.59236
1.59398
1.59911
1.60963
1.62909
1.65842
1.70102
1.76175
1.84907
1.9788
2.17687
2.45673
2.85408
3.43047
4.3034
5.70907
8.10391
12.3572
20.1853
36.3101
83.3275
322.013
2228.62
1.75512
1.78065
1.80836
1.83804
1.86997
1.73161
1.70991
1.68977
1.67122
1.65416
1.63863
1.62483
1.61277
1.60305
1.59583
1.59198
1.59348
1.5984
1.60844
1.62679
1.65368
1.69124
1.74208
1.811
1.90532
2.04096
2.24216
2.52435
2.92038
3.49269
4.36293
5.75824
8.12284
12.326
20.1166
36.4074
84.5828
331.02
2282.8
1.73161
1.75537
1.78107
1.80869
1.83826
1.87005
1.7099
1.68975
1.67119
1.65411
1.63857
1.62473
1.61263
1.60287
1.59556
1.59168
1.59314
1.59802
1.60801
1.62617
1.65243
1.68829
1.73493
1.795
1.87218
1.97399
2.11461
2.31857
2.60124
2.99596
3.57074
4.43871
5.81585
8.14808
12.2992
20.0408
36.4465
85.6366
339.221
2332.93
1.70989
1.7319
1.75589
1.78151
1.80902
1.83847
1.87012
1.68973
1.67117
1.65407
1.63852
1.62465
1.61251
1.60271
1.59534
1.59143
1.59287
1.59779
1.60791
1.6263
1.65277
1.68854
1.73419
1.79139
1.86142
1.94764
2.05608
2.2014
2.40619
2.68869
3.08982
3.66827
4.524
5.88113
8.1792
12.2765
19.9631
36.4409
86.5359
346.92
2379.99
1.68972
1.71022
1.7325
1.75642
1.78195
1.80937
1.8387
1.8702
1.67115
1.65403
1.63848
1.62456
1.61241
1.60257
1.59514
1.59123
1.59266
1.59763
1.60793
1.62673
1.65389
1.69059
1.7369
1.79401
1.86199
1.94291
2.03833
2.15382
2.30168
2.50652
2.79651
3.20604
3.77645
4.61739
5.9525
8.21541
12.2589
19.8854
36.4223
87.3425
354.108
2424.19
1.67114
1.69007
1.71089
1.73311
1.75696
1.78241
1.80972
1.83893
1.87029
1.654
1.63845
1.62449
1.61233
1.60245
1.59498
1.59105
1.59248
1.59751
1.608
1.62725
1.65526
1.69342
1.7415
1.80043
1.86959
1.94981
2.04078
2.14564
2.2675
2.41723
2.63133
2.93183
3.33373
3.89271
4.71744
6.02889
8.25626
12.2457
19.8116
36.3863
88.0664
360.979
2466.15
1.65397
1.67152
1.6908
1.71158
1.73374
1.75752
1.78288
1.81008
1.83916
1.87037
1.63842
1.62443
1.61227
1.60233
1.59484
1.5909
1.59234
1.59743
1.60811
1.62779
1.65665
1.69639
1.74687
1.80895
1.88126
1.96436
2.05637
2.15831
2.27006
2.39773
2.56307
2.78979
3.08214
3.47204
4.01601
4.82265
6.10922
8.30067
12.2375
19.7425
36.3428
88.7462
367.455
2505.66
1.63839
1.65436
1.67231
1.69155
1.7123
1.73439
1.7581
1.78337
1.81045
1.83941
1.87046
1.62437
1.61221
1.60222
1.59472
1.59077
1.59221
1.59737
1.60822
1.62831
1.65801
1.69927
1.75225
1.81832
1.89537
1.98354
2.08028
2.18543
2.29618
2.41491
2.56045
2.74594
2.96726
3.24625
3.62004
4.14573
4.93167
6.19238
8.34809
12.2328
19.6793
36.2992
89.3774
373.685
2543.33
1.62432
1.63879
1.65517
1.67312
1.69233
1.71303
1.73506
1.75869
1.78387
1.81084
1.83966
1.87055
1.61217
1.60212
1.59463
1.59066
1.59211
1.59732
1.60834
1.6288
1.65929
1.702
1.75743
1.82758
1.91047
2.00583
2.10974
2.22214
2.33815
2.45817
2.59851
2.76815
2.94928
3.16164
3.42359
3.77624
4.27998
5.04334
6.27733
8.39746
12.2333
19.6227
36.2575
89.9848
379.563
2578.7
1.61213
1.62469
1.63964
1.65601
1.67395
1.69313
1.71378
1.73575
1.75929
1.78438
1.81123
1.83991
1.87064
1.60203
1.59455
1.59056
1.59201
1.59728
1.60845
1.62926
1.6605
1.70454
1.76232
1.83644
1.92529
2.02957
2.14341
2.26599
2.39168
2.51971
2.66543
2.83559
3.00334
3.17221
3.36845
3.61135
3.93877
4.4179
5.15645
6.36313
8.44835
12.2358
19.572
36.2218
90.5588
385.23
2612.46
1.60195
1.61251
1.62551
1.64052
1.65688
1.67481
1.69395
1.71455
1.73646
1.75991
1.7849
1.81163
1.84017
1.87073
1.59449
1.59046
1.59193
1.59725
1.60856
1.62969
1.66162
1.70688
1.76691
1.84479
1.93951
2.05303
2.17925
2.31594
2.45478
2.59596
2.75456
2.93679
3.10741
3.26528
3.41427
3.58644
3.80777
4.10716
4.55813
5.27014
6.44895
8.49996
12.2411
19.5275
36.1909
91.1168
390.558
2643.99
1.59446
1.60223
1.61332
1.62635
1.64142
1.65778
1.6757
1.6948
1.71534
1.73719
1.76055
1.78544
1.81204
1.84043
1.87082
1.59036
1.59185
1.59722
1.60866
1.63008
1.66264
1.70904
1.77118
1.85259
1.95303
2.07571
2.2148
2.36955
2.52698
2.6858
2.8635
3.06705
3.25278
3.41452
3.55306
3.67362
3.81376
4.00773
4.27895
4.69936
5.38322
6.53402
8.5517
12.2495
19.4887
36.1678
91.6479
395.701
2674.13
1.59028
1.59473
1.60286
1.61414
1.62722
1.64235
1.65871
1.67661
1.69568
1.71616
1.73794
1.76121
1.78599
1.81245
1.84068
1.8709
1.59177
1.59719
1.60876
1.63044
1.66358
1.71102
1.77513
1.85984
1.96579
2.09738
2.24938
2.42355
2.60537
2.78965
2.9926
3.22637
3.43783
3.61615
3.75736
3.86564
3.9482
4.04947
4.20995
4.45186
4.83997
5.495
6.61774
8.60316
12.2599
19.4552
36.149
92.1652
400.51
2702.08
1.59173
1.59027
1.5953
1.6035
1.61501
1.62814
1.64331
1.65968
1.67754
1.69658
1.717
1.73871
1.76188
1.78654
1.81285
1.84093
1.87098
1.59715
1.60885
1.63077
1.66444
1.71283
1.77877
1.86653
1.97778
2.1179
2.28272
2.47693
2.68518
2.90405
3.14415
3.41835
3.66697
3.87393
4.03042
4.1367
4.20186
4.23595
4.29132
4.41307
4.62479
4.97965
5.60491
6.69962
8.65394
12.2719
19.4264
36.1384
92.6585
405.159
2728.85
1.59717
1.59159
1.59026
1.59588
1.60421
1.61591
1.6291
1.6443
1.66067
1.67851
1.69751
1.71786
1.7395
1.76255
1.78707
1.81323
1.84117
1.87106
1.60891
1.63107
1.66522
1.71449
1.78211
1.87269
1.98897
2.13716
2.31469
2.52912
2.76464
3.02264
3.31506
3.64987
3.95025
4.20068
4.38567
4.50099
4.55391
4.56071
4.53496
4.5373
4.61558
4.7949
5.11747
5.71234
6.77927
8.7037
12.2852
19.4021
36.1303
93.1372
409.474
2753.52
1.60905
1.5968
1.59125
1.59023
1.59651
1.60497
1.61684
1.6301
1.64531
1.6617
1.6795
1.69847
1.71874
1.74028
1.7632
1.78759
1.81361
1.8414
1.87114
1.63132
1.66592
1.71599
1.78515
1.87836
1.99937
2.15515
2.34518
2.57957
2.84286
3.14363
3.49714
3.91942
4.30424
4.62048
4.85281
4.98935
5.03577
5.01123
4.94151
4.84347
4.78557
4.81673
4.96073
5.25224
5.81674
6.85636
8.75217
12.2994
19.3815
36.1304
93.594
413.661
2777.18
1.63164
1.60833
1.59584
1.59087
1.59032
1.59717
1.6058
1.61779
1.63115
1.64636
1.66276
1.68051
1.69944
1.71961
1.74103
1.76383
1.78809
1.81397
1.84162
1.87122
1.66652
1.71734
1.78793
1.88356
2.00899
2.17189
2.3741
2.62783
2.91938
3.26622
3.68705
4.21519
4.73531
5.17369
5.48549
5.66247
5.70696
5.64449
5.51135
5.34373
5.1599
5.03459
5.01552
5.12184
5.38315
5.91767
6.93065
8.79915
12.3142
19.3644
36.1324
94.0348
417.519
2796.19
1.6672
1.63032
1.60636
1.59478
1.59058
1.59057
1.59783
1.60671
1.61877
1.63223
1.64744
1.66386
1.68156
1.70041
1.72046
1.74177
1.76444
1.78858
1.81433
1.84184
1.87129
1.71854
1.79044
1.88833
2.01785
2.18744
2.40139
2.67364
2.99398
3.38929
3.8818
4.53338
5.23536
5.89266
6.37156
6.62451
6.67616
6.5615
6.3362
6.05636
5.7666
5.48273
5.283
5.21084
5.27782
5.5096
6.01479
7.00195
8.84448
12.3295
19.3502
36.1371
94.4547
420.775
2812.21
1.7198
1.6652
1.62664
1.60424
1.59386
1.59031
1.59101
1.59849
1.60768
1.61978
1.63336
1.64855
1.66498
1.68259
1.70135
1.72129
1.74249
1.76504
1.78905
1.81467
1.84205
1.87136
1.7927
1.89267
2.02601
2.20187
2.42701
2.71692
3.0665
3.51129
4.07875
4.87394
5.80906
6.77978
7.58498
8.03174
8.11578
7.93345
7.56977
7.11614
6.64651
6.20874
5.81039
5.52959
5.40181
5.42833
5.63119
6.10788
7.07016
8.88802
12.3449
19.3387
36.1456
94.8045
423.47
2829.52
1.79494
1.71693
1.6593
1.62275
1.60236
1.59304
1.58998
1.5916
1.59917
1.60871
1.62084
1.63453
1.6497
1.66609
1.68361
1.70227
1.7221
1.74319
1.76562
1.78951
1.81501
1.84225
1.87143
1.89663
2.03346
2.21524
2.45097
2.75773
3.13672
3.63072
4.27659
5.2384
6.46153
7.8413
9.12391
10.0009
10.2627
10.0121
9.45531
8.7373
7.98375
7.27955
6.66792
6.14124
5.77328
5.58773
5.57309
5.74768
6.19676
7.13516
8.92971
12.3604
19.3293
36.1549
95.1008
426.417
2848.42
1.90042
1.79098
1.70785
1.65313
1.61922
1.60063
1.59229
1.58969
1.59228
1.59989
1.60979
1.62193
1.63573
1.65084
1.66717
1.6846
1.70316
1.72289
1.74386
1.76618
1.78996
1.81533
1.84245
1.87147
2.04033
2.22759
2.47331
2.79617
3.20436
3.74643
4.47545
5.62785
7.19145
9.0722
10.9786
12.5074
13.2799
13.1294
12.3341
11.2417
10.0577
8.93255
7.95071
7.14111
6.4735
6.01306
5.76805
5.71194
5.85894
6.28143
7.19702
8.9695
12.3757
19.323
36.1639
95.4278
429.613
2868.96
2.04669
1.8951
1.77741
1.69845
1.64746
1.61592
1.59903
1.5916
1.58949
1.59303
1.60067
1.61092
1.62308
1.63692
1.65196
1.66823
1.68556
1.70403
1.72366
1.74452
1.76673
1.79039
1.81565
1.84255
1.87147
2.23909
2.49409
2.83237
3.26912
3.85785
4.67628
6.04153
7.99116
10.4545
13.1243
15.5219
17.119
17.5159
16.6594
15.0756
13.2761
11.5153
9.95136
8.65323
7.62459
6.80527
6.24802
5.94235
5.84477
5.96477
6.36217
7.25575
9.00738
12.3888
19.318
36.1751
95.788
433.133
2891.49
2.24949
2.03978
1.87511
1.76351
1.68977
1.64209
1.61282
1.59754
1.591
1.58938
1.59383
1.60152
1.61207
1.62424
1.63808
1.65306
1.66925
1.6865
1.70487
1.7244
1.74516
1.76726
1.79081
1.8158
1.84255
1.87147
2.51354
2.86643
3.33078
3.96495
4.88015
6.47675
8.84905
11.9633
15.5215
18.9991
21.7362
23.1104
22.7668
20.852
18.212
15.5309
13.0884
11.0262
9.37915
8.11424
7.13469
6.47737
6.11029
5.97157
6.06474
6.43888
7.3114
9.03861
12.4002
19.3137
36.189
96.1891
436.948
2915.98
2.53073
2.24046
2.01069
1.85492
1.75062
1.68148
1.63696
1.60989
1.59616
1.5905
1.58937
1.59466
1.60246
1.61321
1.62539
1.63921
1.65414
1.67025
1.68742
1.7057
1.72513
1.74579
1.76778
1.79102
1.8158
1.84255
1.87147
2.89864
3.38931
4.06815
5.08776
6.92915
9.7518
13.5712
18.1236
22.8726
27.0625
29.859
30.5966
29.0564
25.6824
21.7052
17.9722
14.753
12.1421
10.1201
8.60586
7.45992
6.70038
6.27165
6.09252
6.1591
6.51154
7.3571
9.06517
12.413
19.3094
36.207
96.6327
441.163
2942.91
2.92673
2.51923
2.19826
1.98168
1.83613
1.73826
1.67351
1.63205
1.60713
1.5949
1.59011
1.5895
1.5955
1.60346
1.61431
1.62653
1.64031
1.65519
1.67122
1.68831
1.70649
1.72583
1.74639
1.76804
1.79102
1.8158
1.84255
1.87147
3.44503
4.16831
5.29924
7.39317
10.6856
15.2511
20.8821
27.0638
32.9906
37.6591
40.0871
39.6471
36.3719
31.1046
25.5076
20.5633
16.4844
13.2841
10.8679
9.09547
7.77925
6.9164
6.42627
6.2076
6.24807
6.57116
7.39587
9.09434
12.4273
19.3066
36.2292
97.1287
445.746
2972.13
3.49306
2.91187
2.45794
2.1568
1.95466
1.81809
1.72632
1.66583
1.62736
1.60457
1.59377
1.58981
1.58983
1.59631
1.6045
1.61539
1.62765
1.64138
1.65622
1.67217
1.68917
1.70727
1.72652
1.74669
1.76804
1.79102
1.8158
1.84255
1.87147
4.26624
5.51282
7.86287
11.6368
16.9763
23.7487
31.4894
39.3897
46.3398
51.0874
52.5572
50.2762
44.6628
37.0534
29.5653
23.2668
18.2591
14.4385
11.6151
9.57937
8.09114
7.12495
6.57408
6.31687
6.32083
6.62169
7.4383
9.12638
12.4436
19.3039
36.2575
97.6798
450.834
3004.31
4.35199
3.47432
2.82155
2.39868
2.11813
1.92865
1.80061
1.71477
1.65844
1.62287
1.60224
1.59274
1.58954
1.59039
1.59708
1.60555
1.61645
1.62875
1.64242
1.65722
1.67309
1.69002
1.70802
1.72685
1.74669
1.76804
1.79102
1.8158
1.84255
1.87143
5.72551
8.33397
12.5929
18.7218
26.6771
36.0667
46.1192
55.6871
63.332
67.5722
67.3307
62.4376
53.8424
43.4489
33.8212
26.0463
20.0553
15.5929
12.3552
10.0543
8.39428
7.32562
6.71505
6.40675
6.3824
6.67696
7.48478
9.16163
12.4619
19.3039
36.2921
98.2996
456.38
3039.12
4.32781
5.91282
3.33705
2.7362
2.34336
2.08088
1.90343
1.78368
1.70363
1.65135
1.61857
1.60009
1.59183
1.58923
1.59108
1.59785
1.6066
1.61749
1.62983
1.64345
1.65819
1.67398
1.69084
1.7084
1.72685
1.74669
1.76804
1.79102
1.8158
1.84245
1.87136
8.80244
13.5432
20.465
29.624
40.7174
53.0414
65.4706
76.4813
84.2938
87.2434
84.3817
76.0241
63.7932
50.201
38.2171
28.8675
21.854
16.7369
13.0824
10.5176
8.68763
7.5181
6.83151
6.48312
6.44964
6.73742
7.53571
9.20045
12.4828
19.305
36.3362
98.9915
462.574
3077.51
4.10342
5.89364
9.2181
3.21175
2.65654
2.29007
2.04475
1.87898
1.76731
1.69291
1.64456
1.61453
1.59814
1.59105
1.589
1.59183
1.59862
1.60764
1.61852
1.63088
1.64445
1.65914
1.67486
1.69125
1.70839
1.72685
1.74669
1.76804
1.79102
1.81565
1.84225
1.87129
14.4771
22.187
32.5515
45.3707
60.0297
75.4686
90.1707
102.204
109.443
110.119
103.593
90.8737
74.3741
57.2141
42.697
31.6998
23.6385
17.8614
13.7924
10.9671
8.9703
7.67791
6.93073
6.56684
6.52313
6.8036
7.59158
9.24326
12.5065
19.3082
36.389
99.7742
469.344
3118.8
3.90646
5.49673
9.22789
15.308
3.09568
2.57982
2.23842
2.00971
1.85532
1.75153
1.68262
1.63811
1.6108
1.59645
1.59041
1.58889
1.5926
1.59942
1.60867
1.61953
1.63191
1.64542
1.66007
1.67529
1.69124
1.70839
1.72685
1.74669
1.76804
1.79081
1.81533
1.84204
1.87122
23.8694
35.4288
49.967
66.9738
85.4839
104.054
120.743
133.169
138.869
136.097
124.762
106.778
85.4287
64.3928
47.2088
34.5156
25.3945
18.9595
14.4814
11.4012
9.20591
7.81451
7.03985
6.65871
6.60352
6.87609
7.65289
9.2905
12.5336
19.3145
36.4567
100.653
476.954
3164.42
3.72771
5.15125
8.50167
15.3906
25.3753
2.98436
2.50555
2.18837
1.97581
1.83249
1.73637
1.6728
1.63207
1.60748
1.59499
1.58992
1.5889
1.59336
1.60025
1.60966
1.62054
1.63291
1.64638
1.66053
1.67528
1.69124
1.70839
1.72685
1.74669
1.76778
1.79038
1.815
1.84183
1.87114
38.2271
54.4601
73.7858
95.3532
117.836
139.389
157.594
169.56
172.519
164.952
147.605
123.495
96.7956
71.6464
51.7055
37.2915
27.1108
20.0256
15.1469
11.7634
9.40775
7.96524
7.16
6.75964
6.69153
6.95551
7.72021
9.34271
12.5644
19.3256
36.5365
101.653
485.289
3213.05
3.55924
4.83904
7.8556
14.1399
25.6389
40.738
2.87691
2.43372
2.13999
1.94311
1.81055
1.72186
1.66354
1.62659
1.60458
1.59375
1.58956
1.58902
1.5941
1.6011
1.61064
1.62153
1.6339
1.64685
1.66052
1.67528
1.69124
1.70839
1.72685
1.74638
1.76725
1.78994
1.81466
1.84161
1.87106
58.8077
80.4019
104.954
131.281
157.706
181.947
201.011
211.418
210.191
196.342
171.777
140.767
108.318
78.8913
56.1457
40.0081
28.7784
21.0554
15.7024
12.074
9.63096
8.13175
7.29246
6.87062
6.78796
7.04257
7.79417
9.40044
12.5998
19.3406
36.6394
102.783
494.739
3266.88
3.39915
4.54769
7.26382
12.9891
23.6936
41.3334
62.7063
2.77328
2.36445
2.09339
1.91169
1.78954
1.70814
1.65509
1.62173
1.60205
1.59271
1.58932
1.5893
1.59482
1.60197
1.61159
1.62252
1.63438
1.64684
1.66052
1.67528
1.69124
1.70839
1.72651
1.74577
1.76671
1.78949
1.81431
1.84139
1.87098
86.7656
114.205
144.227
175.366
205.596
232.105
251.157
258.625
251.529
229.819
196.892
158.333
119.847
86.0536
60.4957
42.6501
30.3903
21.9152
16.1786
12.4177
9.87806
8.31594
7.43865
6.99277
6.89373
7.13807
7.87547
9.46438
12.6402
19.3632
36.7592
104.075
505.087
3323.48
3.24701
4.27415
6.70862
11.9101
21.8668
38.4982
63.8213
92.4495
2.67355
2.29789
2.04867
1.88163
1.76967
1.69558
1.64752
1.6174
1.59988
1.59184
1.58913
1.58975
1.5955
1.60287
1.61255
1.62301
1.63435
1.64684
1.66051
1.67528
1.69124
1.70801
1.72581
1.74514
1.76616
1.78903
1.81396
1.84116
1.8709
123.038
156.583
192.164
228.088
261.936
290.163
308.072
310.895
296.025
264.856
222.551
175.947
131.253
93.0717
64.7277
45.2054
31.7369
22.6524
16.7054
12.7983
10.1519
8.51991
7.6002
7.12737
7.00985
7.24285
7.96487
9.53519
12.6869
19.3916
36.9145
105.476
516.953
3397.09
3.10259
4.0182
6.18565
10.8822
20.115
35.8081
59.8926
94.2811
130.867
2.57789
2.23422
2.00594
1.85322
1.75143
1.6843
1.64075
1.61353
1.59803
1.5911
1.5889
1.5903
1.59618
1.60381
1.61299
1.62298
1.63435
1.64684
1.66051
1.67528
1.69083
1.70725
1.7251
1.7445
1.76559
1.78856
1.81359
1.84092
1.87081
168.272
208.005
249.167
289.874
327.138
356.361
371.647
367.756
343.037
300.879
248.356
193.382
142.423
99.8959
68.8201
47.3407
32.8917
23.4679
17.2888
13.2202
10.4557
8.74602
7.7789
7.27582
7.13744
7.3579
8.06321
9.61381
12.7401
19.4319
37.0929
107.098
532.185
3484.8
2.96559
3.78028
5.69561
9.90091
18.4113
33.1908
56.1598
89.0372
133.578
178.508
2.48656
2.1736
1.9656
1.82716
1.73505
1.67418
1.63469
1.61009
1.59644
1.5905
1.58873
1.59091
1.59693
1.60426
1.61292
1.62298
1.63435
1.64683
1.66052
1.67484
1.68999
1.70646
1.72437
1.74383
1.76501
1.78807
1.81322
1.84068
1.87073
222.824
268.755
315.594
361.188
401.647
430.876
441.602
428.551
391.818
337.296
273.94
210.448
153.27
106.487
72.238
49.1717
34.1693
24.3708
17.9352
13.6883
10.793
8.99693
7.9768
7.43969
7.27777
7.48424
8.17138
9.70092
12.8021
19.4811
37.321
109.217
551.946
3572.43
2.83547
3.5616
5.23996
8.97218
16.7457
30.6099
52.4999
84.0905
126.753
182.173
235.563
2.3999
2.11655
1.92868
1.80377
1.72034
1.6651
1.62928
1.60707
1.5951
1.58999
1.58867
1.59166
1.59723
1.60421
1.61291
1.62298
1.63434
1.64684
1.66005
1.67395
1.68914
1.70566
1.72362
1.74315
1.76441
1.78757
1.81284
1.84043
1.87064
286.816
339.061
391.885
442.632
485.99
513.812
517.465
492.445
441.553
373.536
298.987
226.991
163.722
111.982
75.1671
51.197
35.5837
25.3713
18.6522
14.2079
11.1678
9.27559
8.19615
7.62076
7.43224
7.62309
8.29052
9.79791
12.8727
19.5481
37.6314
112.044
573.663
3658.36
2.712
3.36348
4.81992
8.09951
15.1195
28.0478
48.8614
79.2355
120.416
173.409
240.103
301.931
2.31874
2.06449
1.89559
1.78277
1.70713
1.65696
1.62446
1.60444
1.59394
1.58961
1.58887
1.592
1.59706
1.60423
1.61291
1.62297
1.63436
1.64636
1.65911
1.67305
1.68826
1.70483
1.72285
1.74246
1.7638
1.78706
1.81244
1.84017
1.87055
360.299
419.257
478.717
535.074
580.823
605.181
598.539
558.445
491.411
409.092
323.237
242.889
172.411
116.684
78.4039
53.4385
37.151
26.4808
19.4479
14.7852
11.5844
9.58526
8.43945
7.82096
7.60237
7.77553
8.42237
9.90572
12.9555
19.6436
38.0917
115.191
597.237
3741.83
2.59628
3.18192
4.43596
7.28487
13.5455
25.5034
45.2125
74.4002
114.234
165.466
228.892
307.054
377.385
2.2451
2.01795
1.86595
1.76392
1.69528
1.64968
1.62018
1.60213
1.59297
1.58957
1.58884
1.59187
1.59705
1.60422
1.61291
1.62299
1.63388
1.64538
1.65815
1.67211
1.68736
1.70398
1.72206
1.74174
1.76318
1.78653
1.81204
1.83991
1.87046
443.448
510.04
577.266
639.843
687.008
704.84
683.858
625.449
540.614
443.538
346.488
256.06
179.83
121.871
81.9819
55.9206
38.8885
27.7118
20.3314
15.4268
12.0477
9.92953
8.70946
8.04244
7.79
7.94179
8.56797
10.0262
13.0675
19.7934
38.6241
118.8
622.882
3821.83
2.49126
3.01564
4.08956
6.53312
12.041
22.9878
41.5412
69.5293
108.111
157.825
219.042
292.655
382.518
461.798
2.17967
1.97635
1.8394
1.74702
1.68466
1.64318
1.61637
1.60014
1.59249
1.58939
1.58853
1.59191
1.59704
1.6042
1.61297
1.62249
1.63287
1.64439
1.65716
1.67116
1.68644
1.70311
1.72126
1.74101
1.76253
1.78599
1.81163
1.83965
1.87037
536.858
612.689
689.448
758.97
805.578
812.354
772.208
692.349
588.478
476.539
365.688
267.275
187.991
127.59
85.9374
58.6697
40.8157
29.0785
21.3129
16.1399
12.563
10.3123
9.00913
8.2875
7.9972
8.12358
8.72849
10.185
13.219
19.9741
39.2723
122.853
650.843
3896.71
2.3981
2.86656
3.78216
5.85053
10.6231
20.5196
37.8511
64.5906
101.958
150.36
209.768
280.458
363.851
466.061
555.475
2.12153
1.9392
1.81563
1.73187
1.67515
1.63735
1.61303
1.59887
1.59203
1.58903
1.58854
1.5919
1.59704
1.60424
1.61251
1.62148
1.63186
1.64338
1.65615
1.67019
1.6855
1.70222
1.72043
1.74025
1.76187
1.78544
1.81122
1.8394
1.87028
641.692
729.395
818.48
895.311
937.493
926.896
862.223
758.097
634.443
503.733
381.994
279.57
196.959
133.895
90.3091
61.7149
42.9537
30.596
22.4033
16.9325
13.1359
10.7377
9.34167
8.55857
8.226
8.32246
8.93777
10.3858
13.3891
20.1973
40.025
127.564
681.103
3966.68
2.31572
2.73406
3.51954
5.24464
9.3127
18.1211
34.1561
59.569
95.7105
142.935
200.91
269.291
348.67
441.531
557.682
659.619
2.06982
1.90601
1.79436
1.7183
1.66659
1.6322
1.61069
1.59793
1.59154
1.58905
1.58853
1.59185
1.59719
1.60377
1.61153
1.62047
1.63082
1.64235
1.65512
1.66919
1.68454
1.70131
1.71958
1.73948
1.7612
1.7849
1.81082
1.83916
1.8702
760.158
864.545
969.585
1052.3
1083.4
1047.34
952.497
821.763
672.346
526.783
399.81
293.028
206.803
140.837
95.1384
65.0872
45.3253
32.2809
23.6147
17.8133
13.7726
11.2102
9.71034
8.8584
8.47808
8.58057
9.19633
10.6002
13.5807
20.464
40.9257
132.918
714.185
4027.66
2.24302
2.61569
3.30284
4.728
8.13043
15.817
30.4794
54.4615
89.3223
135.447
192.274
258.955
335.221
422.488
524.857
658.377
776.895
2.02381
1.8764
1.77532
1.7061
1.65901
1.62843
1.60911
1.59725
1.59159
1.58904
1.58849
1.59196
1.59688
1.60281
1.61057
1.61945
1.62975
1.6413
1.65406
1.66816
1.68355
1.70037
1.71871
1.73869
1.76054
1.78437
1.81044
1.83892
1.87012
897.55
1026.17
1149.88
1233.9
1243.88
1172.55
1041.58
874.559
704.464
551.902
419.229
307.724
217.587
148.472
100.468
68.8194
47.955
34.1513
24.9598
18.7912
14.4793
11.7343
10.1187
9.18924
8.80723
8.8976
9.46665
10.8286
13.7963
20.7813
41.9891
139.169
750.32
4083.24
2.17888
2.51022
3.11933
4.29808
7.10535
13.6562
26.8528
49.2768
82.7563
127.804
183.705
249.174
323.248
406.198
500.814
613.419
770.727
912.439
1.98287
1.84997
1.75823
1.69526
1.65328
1.626
1.60816
1.59733
1.59157
1.58898
1.58877
1.59161
1.5961
1.60189
1.60958
1.61842
1.62867
1.64022
1.65298
1.66711
1.68254
1.69941
1.71783
1.73791
1.75989
1.78385
1.81007
1.83869
1.87004
1062.91
1225.76
1369.27
1445.7
1420.85
1300.91
1116.44
919.401
739.422
579.18
440.325
323.728
229.373
156.852
106.341
72.9454
50.8687
36.2259
26.4523
19.8761
15.2628
12.3147
10.5696
9.62186
9.21264
9.22746
9.74814
11.0722
14.0367
21.1626
43.2423
146.394
789.062
4125.26
2.12226
2.41672
2.96088
3.94322
6.24436
11.7244
23.3442
44.0383
75.986
119.917
175.055
239.736
312.357
392.33
480.938
582.978
707.677
899.136
1076.81
1.94644
1.82631
1.74304
1.68694
1.6497
1.62478
1.60827
1.5973
1.59148
1.58932
1.58878
1.59083
1.5954
1.601
1.60857
1.61739
1.62756
1.63912
1.65188
1.66603
1.68151
1.69843
1.71696
1.73716
1.75926
1.78335
1.8097
1.83847
1.86996
1271.86
1482.07
1644.92
1701.34
1616.24
1411.24
1180.36
968.249
777.293
608.674
463.153
341.093
242.215
166.026
112.801
77.4995
54.0926
38.5246
28.1064
21.0777
16.1297
12.9555
11.1595
10.1548
9.63424
9.56909
10.0405
11.3304
14.3089
21.6073
44.7435
154.888
833.236
4155.91
2.0722
2.3343
2.82175
3.65114
5.53071
10.0624
20.0911
38.8235
69.0009
111.702
166.174
230.426
302.265
380.292
464.815
558.574
669.211
809.711
1052.51
1286.08
1.91392
1.80534
1.73117
1.68185
1.64809
1.62494
1.60824
1.59717
1.59194
1.58946
1.58854
1.5902
1.5947
1.60013
1.60754
1.61634
1.62643
1.638
1.65076
1.66492
1.68047
1.69746
1.71611
1.73642
1.75865
1.78287
1.80935
1.83826
1.86989
1557.67
1838.74
2022.68
2024.81
1788.49
1505.95
1250.1
1021.09
818.08
640.395
487.733
359.852
256.154
176.039
119.886
82.5153
57.6535
41.0673
29.9367
22.4064
17.0864
13.7935
11.8854
10.7085
10.0695
9.92107
10.3421
11.6056
14.6114
22.1413
46.5136
164.846
882.527
4173.82
2.02775
2.26193
2.69813
3.41376
4.94462
8.66048
17.1788
33.8287
61.8615
103.084
156.898
221.025
292.682
369.725
451.509
539.756
639.138
761.392
925.505
1254.45
1583.87
1.88515
1.78878
1.724
1.6798
1.64832
1.62489
1.60806
1.5978
1.59235
1.58947
1.58857
1.58962
1.59398
1.59928
1.60649
1.61528
1.62528
1.63684
1.64962
1.6638
1.67943
1.69652
1.71529
1.73571
1.75806
1.7824
1.809
1.83805
1.86982
2023.38
2416.72
2614.85
2311.16
1935.36
1608.79
1325.29
1077.77
861.689
674.292
514.048
380.012
271.212
186.922
127.631
88.0235
61.5766
43.8737
31.9575
23.8714
18.3364
14.8237
12.6387
11.2789
10.5153
10.2812
10.6534
11.8973
14.955
22.7667
48.6391
176.748
935.741
4173.33
1.98855
2.19834
2.58803
3.21761
4.46565
7.48868
14.6126
29.204
54.8068
94.0643
147.06
211.286
283.32
360.236
440.573
524.978
617.135
724.319
864.663
1068.27
1559.02
2134.24
1.86216
1.77897
1.72137
1.68012
1.64826
1.62464
1.60894
1.59869
1.5928
1.58982
1.58871
1.58914
1.59322
1.59846
1.60543
1.61419
1.62413
1.63566
1.64847
1.66268
1.67843
1.69561
1.71449
1.73502
1.75749
1.78195
1.80867
1.83784
1.86975
2883.8
3580.41
3097.4
2544.52
2090.61
1717.97
1405.14
1137.9
907.92
710.247
542.029
401.542
287.39
198.693
136.063
94.0508
65.8853
46.9624
34.1819
25.7841
19.8717
15.8919
13.4139
11.8616
10.9683
10.6475
10.9709
12.2089
15.34
23.5077
51.1904
191.735
992.837
4165.85
1.957
2.14287
2.49013
3.05135
4.07713
6.52073
12.3981
24.9892
48.0497
84.8806
136.561
200.935
273.853
351.472
431.48
513.695
600.618
698.585
819.123
991.291
1271.79
2163.12
3325.78
1.84863
1.77569
1.7218
1.68005
1.64792
1.62578
1.61047
1.59992
1.59374
1.59029
1.58891
1.58882
1.59244
1.59767
1.60436
1.61309
1.62297
1.63445
1.64734
1.66161
1.67746
1.69472
1.71371
1.73435
1.75693
1.7815
1.80835
1.83764
1.86971
5027.12
4306.16
3437.38
2771.73