/*--------------------------------*- C++ -*----------------------------------*\
  =========                 |
  \\      /  F ield         | OpenFOAM: The Open Source CFD Toolbox
   \\    /   O peration     | Website:  https://openfoam.org
    \\  /    A nd           | Version:  8
     \\/     M anipulation  |
\*---------------------------------------------------------------------------*/
FoamFile
{
    version     2.0;
    format      ascii;
    class       volScalarField;
    location    "0.39";
    object      k;
}
// * * * * * * * * * * * * * * * * * * * * * * * * * * * * * * * * * * * * * //

dimensions      [0 2 -2 0 0 0 0];

internalField   nonuniform List<scalar> 
15677
(
0.334174
0.365052
0.29475
0.368748
0.357673
0.281013
0.370704
0.360069
0.366095
0.282727
0.371892
0.36163
0.361454
0.383265
0.288834
0.372616
0.363742
0.357728
0.368296
0.401614
0.300243
0.373042
0.365662
0.357846
0.358142
0.380061
0.419301
0.311783
0.373265
0.367179
0.359463
0.35459
0.361017
0.393221
0.43474
0.322599
0.373348
0.368306
0.361362
0.354781
0.353059
0.366857
0.406103
0.447881
0.33216
0.373348
0.369084
0.363071
0.356351
0.351134
0.353491
0.373513
0.418197
0.458816
0.340573
0.373312
0.369569
0.364447
0.358231
0.351949
0.3488
0.354771
0.380622
0.42906
0.468013
0.347733
0.373273
0.369826
0.365468
0.359971
0.353737
0.348405
0.347162
0.357082
0.387592
0.438786
0.475619
0.353989
0.373247
0.369927
0.366154
0.361407
0.355685
0.34979
0.345386
0.346328
0.359672
0.39435
0.447252
0.482113
0.359273
0.373237
0.369941
0.366553
0.362488
0.357446
0.351749
0.346245
0.342955
0.345889
0.362546
0.400606
0.454742
0.487486
0.364008
0.373237
0.369923
0.366741
0.36322
0.358879
0.35371
0.348114
0.343134
0.340895
0.345895
0.365406
0.40645
0.461126
0.492115
0.368141
0.373238
0.369908
0.366798
0.363645
0.359937
0.35542
0.350201
0.3448
0.340344
0.339222
0.34602
0.368278
0.411636
0.46675
0.495984
0.371798
0.373239
0.3699
0.366798
0.363843
0.360628
0.356768
0.352133
0.346936
0.341765
0.337874
0.337775
0.346329
0.370946
0.416392
0.471438
0.499403
0.375146
0.373239
0.369897
0.366788
0.3639
0.361009
0.357722
0.353736
0.349037
0.343906
0.338999
0.335648
0.336553
0.346717
0.373537
0.420437
0.475554
0.502359
0.378011
0.373239
0.369896
0.366778
0.363908
0.361156
0.358308
0.354935
0.350859
0.346141
0.341107
0.336468
0.333665
0.335479
0.347213
0.375785
0.42407
0.478946
0.504978
0.380899
0.373239
0.369895
0.366772
0.363903
0.361198
0.358577
0.355726
0.352287
0.348155
0.343444
0.338527
0.334176
0.331861
0.334607
0.347633
0.377886
0.427031
0.481916
0.507397
0.383172
0.373239
0.369894
0.366767
0.363896
0.361202
0.358681
0.356124
0.353284
0.349788
0.345625
0.340952
0.336178
0.332078
0.330296
0.333807
0.348101
0.379589
0.42966
0.484345
0.509489
0.385863
0.373239
0.369893
0.366764
0.36389
0.361193
0.358712
0.356295
0.353829
0.350976
0.347452
0.343288
0.338677
0.334032
0.330231
0.328883
0.333175
0.348439
0.381142
0.431676
0.486473
0.511667
0.387681
0.373239
0.369893
0.366761
0.363886
0.361183
0.358714
0.356357
0.354089
0.351656
0.348832
0.345293
0.341154
0.336615
0.332146
0.328585
0.327702
0.332588
0.348805
0.382295
0.433488
0.488218
0.513419
0.390357
0.373239
0.369892
0.36676
0.363882
0.361175
0.358706
0.356369
0.3542
0.351998
0.349664
0.346845
0.343333
0.339244
0.334814
0.330488
0.327206
0.326686
0.332186
0.349041
0.383348
0.434736
0.489791
0.515623
0.391851
0.373239
0.369891
0.366758
0.363878
0.361168
0.358696
0.356362
0.354236
0.352155
0.350109
0.347805
0.34507
0.3416
0.337587
0.333269
0.329135
0.326089
0.32595
0.331819
0.349301
0.384035
0.435965
0.491054
0.517113
0.394536
0.37324
0.369891
0.366758
0.363875
0.361162
0.358687
0.35635
0.354238
0.352214
0.350329
0.348336
0.346191
0.3435
0.340115
0.336233
0.332071
0.328098
0.325266
0.325369
0.331684
0.349518
0.384726
0.43665
0.492409
0.519729
0.395972
0.37324
0.36989
0.366757
0.363873
0.361158
0.358678
0.356338
0.354226
0.352225
0.35042
0.348612
0.346835
0.344735
0.342222
0.338985
0.335211
0.331174
0.32738
0.3248
0.325256
0.33174
0.349806
0.385121
0.437537
0.493279
0.521439
0.507245
0.37324
0.36989
0.366757
0.363871
0.361155
0.358671
0.356327
0.354209
0.352216
0.350442
0.348738
0.347179
0.345462
0.343657
0.341256
0.338123
0.334588
0.330846
0.327304
0.324862
0.325394
0.331941
0.35009
0.385596
0.43794
0.495191
0.530255
0.717975
0.37324
0.36989
0.366757
0.36387
0.361153
0.358665
0.356318
0.354193
0.352199
0.350432
0.348781
0.347337
0.345877
0.344523
0.34277
0.340676
0.337942
0.334656
0.331025
0.327557
0.325192
0.325799
0.332367
0.350524
0.385946
0.438774
0.495848
0.547337
0.899834
0.37324
0.369889
0.366757
0.363868
0.361151
0.35866
0.35631
0.354179
0.352181
0.350409
0.348782
0.347387
0.34609
0.345002
0.343705
0.342523
0.34078
0.338206
0.335086
0.331614
0.328252
0.325946
0.326616
0.333157
0.351105
0.386405
0.439447
0.495611
0.560747
1.04845
0.37324
0.369889
0.366757
0.363867
0.36115
0.358656
0.356304
0.354167
0.352164
0.350383
0.348762
0.347385
0.346179
0.345234
0.344304
0.343697
0.342753
0.341275
0.338966
0.336087
0.332847
0.329627
0.327354
0.327946
0.33429
0.351907
0.387048
0.439231
0.494215
0.570908
1.17894
0.37324
0.369889
0.366757
0.363866
0.361148
0.358653
0.356299
0.354157
0.35215
0.350359
0.348735
0.347356
0.346198
0.345323
0.344639
0.34437
0.344017
0.343462
0.342379
0.340503
0.337985
0.334935
0.331749
0.329395
0.32976
0.335833
0.352993
0.387679
0.438403
0.491223
0.578134
1.28642
0.37324
0.369889
0.366757
0.363865
0.361147
0.35865
0.356295
0.354149
0.352138
0.350339
0.348708
0.347319
0.346178
0.345334
0.344795
0.344743
0.344792
0.344886
0.344914
0.344464
0.343011
0.340788
0.337865
0.334661
0.332092
0.332139
0.337817
0.354383
0.388144
0.43667
0.486056
0.582953
1.36696
0.37324
0.369889
0.366757
0.363864
0.361147
0.358647
0.356291
0.354142
0.352127
0.350321
0.348683
0.347283
0.34614
0.345305
0.344843
0.344923
0.345234
0.345796
0.34661
0.347395
0.347549
0.346548
0.34459
0.341754
0.338403
0.335541
0.33509
0.340278
0.355989
0.388448
0.433699
0.479452
0.586177
1.4293
0.37324
0.369889
0.366757
0.363863
0.361146
0.358645
0.356288
0.354136
0.352118
0.350306
0.348661
0.347251
0.3461
0.345258
0.344831
0.344986
0.34546
0.346338
0.347737
0.349398
0.350972
0.351799
0.351243
0.349524
0.346661
0.343088
0.339752
0.338685
0.343225
0.35787
0.388418
0.429702
0.472934
0.588858
1.47954
0.369888
0.373244
0.366757
0.363863
0.361146
0.358643
0.356285
0.354131
0.35211
0.350294
0.348642
0.347223
0.346062
0.34521
0.344788
0.344983
0.345553
0.346636
0.348445
0.350765
0.353363
0.355831
0.357369
0.35725
0.355676
0.352713
0.348733
0.344811
0.342883
0.346597
0.360214
0.388283
0.425642
0.466741
0.591433
1.52172
0.366757
0.369899
0.373251
0.363862
0.361145
0.358641
0.356283
0.354126
0.352103
0.350283
0.348626
0.347198
0.346028
0.345165
0.344737
0.344946
0.345571
0.346781
0.348867
0.351667
0.355046
0.358714
0.362157
0.364438
0.364685
0.36319
0.359942
0.355443
0.350681
0.347741
0.350766
0.363132
0.387999
0.421664
0.461199
0.594394
1.55846
0.363862
0.366774
0.369919
0.373259
0.361145
0.35864
0.356281
0.354122
0.352097
0.350274
0.348611
0.347178
0.345998
0.345125
0.344687
0.344897
0.345548
0.346838
0.349106
0.352248
0.356211
0.360809
0.365664
0.370158
0.373156
0.373712
0.372114
0.36847
0.363179
0.357408
0.353847
0.355956
0.366378
0.387964
0.417987
0.456334
0.597541
1.59136
0.361145
0.363883
0.366807
0.369941
0.373267
0.358638
0.35628
0.354119
0.352092
0.350266
0.348598
0.34716
0.345972
0.345089
0.344641
0.344848
0.345509
0.346846
0.349237
0.352623
0.35702
0.362331
0.368295
0.374446
0.380015
0.383709
0.384407
0.382595
0.37826
0.372006
0.365803
0.361533
0.361694
0.369918
0.388118
0.414693
0.452154
0.601191
1.62154
0.358637
0.361172
0.363928
0.366842
0.369963
0.373275
0.356278
0.354116
0.352087
0.350259
0.348587
0.347145
0.345948
0.345058
0.3446
0.344803
0.345468
0.346831
0.349304
0.352872
0.357596
0.363457
0.370295
0.37777
0.385278
0.391946
0.396203
0.396935
0.3946
0.389405
0.382982
0.376315
0.370066
0.367931
0.373832
0.388553
0.411796
0.448604
0.604933
1.6495
0.356277
0.358668
0.361227
0.363973
0.366878
0.369985
0.373283
0.354113
0.352083
0.350253
0.348577
0.347132
0.345927
0.345031
0.344564
0.344763
0.345429
0.34681
0.349338
0.353043
0.358034
0.36433
0.371866
0.380406
0.389487
0.398414
0.406091
0.410831
0.411273
0.408251
0.403234
0.396684
0.387955
0.379372
0.374616
0.377863
0.389395
0.409462
0.44552
0.609064
1.67582
0.35411
0.356312
0.358731
0.361284
0.36402
0.366914
0.370008
0.373292
0.35208
0.350248
0.348568
0.347121
0.345908
0.345008
0.344532
0.344727
0.345393
0.346788
0.349358
0.353168
0.358378
0.365052
0.373166
0.382588
0.392967
0.403753
0.414036
0.42268
0.42759
0.427576
0.425178
0.420486
0.411828
0.400619
0.38935
0.381759
0.382056
0.390586
0.407527
0.44299
0.613136
1.70051
0.352077
0.354148
0.356384
0.358796
0.361342
0.364068
0.366952
0.370032
0.3733
0.350243
0.34856
0.347111
0.345891
0.344988
0.344504
0.344695
0.345362
0.346768
0.349372
0.353269
0.358658
0.365665
0.374312
0.384494
0.395978
0.408335
0.420803
0.432444
0.441753
0.44668
0.447797
0.446287
0.439523
0.428271
0.414177
0.399912
0.389277
0.386439
0.392084
0.406109
0.440815
0.617476
1.72399
0.350239
0.352117
0.354226
0.356459
0.358864
0.361402
0.364118
0.366991
0.370056
0.373309
0.348553
0.347103
0.345876
0.344972
0.344479
0.344667
0.345334
0.34675
0.349383
0.353356
0.3589
0.366193
0.375338
0.386254
0.398726
0.41246
0.42681
0.441002
0.453715
0.463597
0.470425
0.473055
0.469574
0.460169
0.445844
0.428495
0.410961
0.397094
0.390972
0.393798
0.405052
0.439114
0.621637
1.74605
0.348547
0.350279
0.3522
0.354306
0.356535
0.358933
0.361464
0.364169
0.36703
0.370081
0.373318
0.347096
0.345863
0.344958
0.344458
0.344643
0.34531
0.346734
0.349394
0.353434
0.359116
0.366662
0.376252
0.387889
0.401361
0.416367
0.432411
0.448843
0.464482
0.478222
0.490915
0.50026
0.501003
0.49485
0.482209
0.464363
0.443429
0.422393
0.405137
0.395667
0.395593
0.404444
0.437663
0.62597
1.76712
0.347089
0.348587
0.350366
0.352287
0.354389
0.356614
0.359004
0.361527
0.364221
0.367071
0.370107
0.373328
0.34585
0.344946
0.344438
0.344621
0.345288
0.346721
0.349404
0.353505
0.35931
0.367087
0.377082
0.389381
0.403881
0.420235
0.437887
0.45639
0.474644
0.491743
0.509052
0.525486
0.533501
0.53147
0.521866
0.50542
0.483641
0.458836
0.434101
0.413335
0.400506
0.397509
0.404023
0.436585
0.630049
1.78685
0.34584
0.347127
0.348673
0.350455
0.352376
0.354474
0.356695
0.359077
0.361592
0.364275
0.367113
0.370134
0.373338
0.344937
0.344419
0.344601
0.34527
0.346709
0.349413
0.35357
0.359487
0.367475
0.377842
0.390754
0.40623
0.424027
0.443449
0.463985
0.484714
0.504876
0.526295
0.548423
0.564305
0.569968
0.564222
0.550407
0.52959
0.503492
0.474566
0.445982
0.421626
0.40544
0.399499
0.403972
0.435676
0.634229
1.80573
0.344929
0.345868
0.34721
0.348761
0.350547
0.352468
0.354562
0.356778
0.359152
0.361659
0.36433
0.367156
0.370161
0.373347
0.344402
0.344584
0.345253
0.346699
0.349423
0.353629
0.359649
0.36783
0.37854
0.392026
0.408424
0.427618
0.449014
0.471897
0.495115
0.518253
0.543536
0.570917
0.593091
0.607285
0.609426
0.598988
0.580228
0.554494
0.52373
0.49048
0.457937
0.429949
0.410422
0.401579
0.404051
0.435058
0.638121
1.8233
0.344386
0.344953
0.345936
0.347296
0.348854
0.350642
0.352563
0.354652
0.356864
0.359229
0.361728
0.364386
0.367199
0.370188
0.373356
0.344568
0.345238
0.346691
0.349432
0.353684
0.359796
0.368155
0.379181
0.393204
0.410476
0.431009
0.454374
0.479989
0.506185
0.532417
0.561603
0.594156
0.622206
0.64314
0.654292
0.65164
0.635492
0.611078
0.579926
0.544187
0.506448
0.469876
0.438244
0.415416
0.403704
0.404235
0.434571
0.642065
1.84014
0.344556
0.344377
0.34501
0.346006
0.347386
0.34895
0.350741
0.352662
0.354745
0.356953
0.359308
0.361799
0.364444
0.367243
0.370214
0.373365
0.345224
0.346684
0.349441
0.353734
0.359929
0.368451
0.379769
0.394293
0.41239
0.434208
0.459508
0.487911
0.517695
0.547838
0.58126
0.619313
0.653294
0.680594
0.698694
0.705248
0.696391
0.673464
0.642697
0.605689
0.564708
0.522357
0.48172
0.446462
0.420384
0.405881
0.404541
0.434319
0.645707
1.85571
0.345215
0.344529
0.344372
0.34507
0.346081
0.34748
0.349051
0.350842
0.352763
0.354841
0.357044
0.35939
0.361871
0.364502
0.367285
0.370239
0.373374
0.346677
0.349448
0.353779
0.360051
0.368721
0.380307
0.395297
0.41417
0.437217
0.46441
0.495585
0.529112
0.564265
0.603238
0.647545
0.688121
0.722103
0.746824
0.760107
0.760178
0.743499
0.71266
0.674852
0.631599
0.585157
0.538105
0.493398
0.454557
0.425297
0.408091
0.404926
0.434126
0.649372
1.87066
0.346677
0.345157
0.344483
0.344366
0.345133
0.346162
0.347577
0.349155
0.350947
0.352867
0.35494
0.357137
0.359474
0.361942
0.364558
0.367325
0.370264
0.373382
0.349454
0.353819
0.360162
0.368967
0.380799
0.396221
0.415819
0.440035
0.469065
0.502969
0.540328
0.580985
0.627192
0.680045
0.728732
0.770753
0.802729
0.822265
0.828019
0.819217
0.792833
0.752867
0.707335
0.657488
0.605409
0.553605
0.504851
0.462487
0.430129
0.410314
0.40537
0.434115
0.652726
1.8844
0.349467
0.346568
0.345035
0.344435
0.344372
0.3452
0.34625
0.347677
0.349264
0.351055
0.352975
0.355042
0.357232
0.359557
0.362012
0.364612
0.367365
0.370288
0.37339
0.353854
0.36026
0.36919
0.381248
0.397069
0.417342
0.442665
0.47346
0.510037
0.551311
0.597783
0.651904
0.716631
0.777889
0.830856
0.872131
0.898462
0.908713
0.903184
0.882531
0.844282
0.793899
0.739968
0.683212
0.625368
0.568787
0.516027
0.470221
0.434859
0.41253
0.405863
0.434152
0.656099
1.89763
0.353896
0.349274
0.346325
0.344906
0.344392
0.344397
0.345268
0.346345
0.34778
0.349377
0.351166
0.353086
0.355146
0.357327
0.359637
0.362079
0.364665
0.367404
0.370311
0.373398
0.360349
0.369391
0.381656
0.397845
0.418747
0.445111
0.477591
0.51677
0.562009
0.614473
0.676964
0.756189
0.837179
0.908652
0.963072
0.998128
1.01251
1.00764
0.986109
0.950162
0.897701
0.835572
0.772588
0.708641
0.644948
0.583591
0.526888
0.477733
0.439469
0.414724
0.406395
0.434239
0.659158
1.90822
0.360444
0.353605
0.348826
0.346071
0.344788
0.344347
0.344441
0.345337
0.346447
0.347887
0.349495
0.351281
0.3532
0.355249
0.357419
0.359716
0.362145
0.364717
0.367441
0.370334
0.373406
0.369574
0.382026
0.398555
0.420039
0.447379
0.481458
0.52316
0.572355
0.630869
0.70234
0.799107
0.906041
1.00768
1.08525
1.13266
1.15222
1.14622
1.11937
1.07671
1.02189
0.952864
0.877695
0.805049
0.733667
0.664073
0.597972
0.537404
0.485
0.443942
0.416882
0.406952
0.434399
0.661815
1.91715
0.369757
0.360023
0.35289
0.348362
0.345836
0.344681
0.3443
0.344499
0.345409
0.346554
0.347999
0.349616
0.351399
0.353313
0.35535
0.357509
0.359793
0.362208
0.364767
0.367477
0.370356
0.373414
0.382365
0.399201
0.421225
0.449476
0.485069
0.529197
0.582287
0.646857
0.728192
0.845826
0.984086
1.12397
1.24016
1.31217
1.34015
1.33335
1.29821
1.24274
1.17414
1.09717
1.00944
0.920057
0.837211
0.758197
0.682683
0.611891
0.54755
0.492008
0.448268
0.418993
0.407528
0.434568
0.664001
1.92679
0.382691
0.36917
0.358928
0.352151
0.347926
0.345619
0.344582
0.344257
0.344568
0.345486
0.346668
0.348114
0.349741
0.351517
0.353423
0.355449
0.357596
0.359867
0.36227
0.364816
0.367513
0.370377
0.373421
0.399795
0.42231
0.451411
0.488431
0.534877
0.591762
0.66241
0.754681
0.896074
1.06938
1.25226
1.41547
1.53184
1.58378
1.57975
1.53665
1.46489
1.37536
1.27696
1.17518
1.06699
0.962422
0.868939
0.782149
0.700732
0.625322
0.557308
0.498744
0.452438
0.421049
0.408035
0.434733
0.666404
1.93733
0.400352
0.381895
0.367547
0.357804
0.351452
0.347518
0.345418
0.344492
0.344224
0.344644
0.345568
0.346786
0.348235
0.349865
0.351633
0.35353
0.355545
0.35768
0.35994
0.36233
0.364863
0.367547
0.370398
0.373424
0.423315
0.453194
0.491553
0.540201
0.600768
0.677545
0.781809
0.948886
1.15887
1.38655
1.60042
1.77034
1.87119
1.88962
1.84289
1.75559
1.64165
1.5142
1.38333
1.2549
1.12501
1.00454
0.900105
0.805457
0.718179
0.638243
0.566669
0.505202
0.456444
0.422779
0.408486
0.434939
0.669004
1.94876
0.424233
0.399301
0.379537
0.365887
0.356735
0.35079
0.347134
0.34523
0.344411
0.344201
0.344727
0.345658
0.346907
0.348357
0.349986
0.351746
0.353634
0.355638
0.357762
0.36001
0.362389
0.364909
0.36758
0.370408
0.373424
0.454853
0.494449
0.545177
0.609308
0.692281
0.809391
1.00298
1.24952
1.52156
1.78668
2.01365
2.17411
2.24546
2.21897
2.12104
1.98372
1.82388
1.65621
1.49139
1.33528
1.18297
1.04616
0.930588
0.828062
0.734994
0.65064
0.575626
0.511376
0.459778
0.424271
0.409001
0.435202
0.671901
1.96133
0.456341
0.422873
0.395928
0.377143
0.364307
0.355715
0.350157
0.346771
0.345055
0.344342
0.344191
0.344814
0.345757
0.347028
0.348477
0.350103
0.351856
0.353735
0.355729
0.357842
0.360079
0.362446
0.364954
0.367597
0.370408
0.373424
0.497155
0.549825
0.617403
0.706621
0.837125
1.05712
1.33892
1.65345
1.96839
2.25269
2.47676
2.61372
2.64353
2.5626
2.40686
2.21547
2.00757
1.79864
1.59939
1.4153
1.24034
1.08703
0.960275
0.84991
0.751156
0.662509
0.584176
0.51649
0.462631
0.425933
0.409595
0.435529
0.675027
1.97498
0.499542
0.454614
0.418098
0.392531
0.374861
0.362794
0.354735
0.34955
0.346429
0.344894
0.344285
0.344196
0.344902
0.345861
0.347146
0.348596
0.350218
0.351964
0.353833
0.355818
0.35792
0.360146
0.362501
0.364976
0.367597
0.370408
0.373424
0.55419
0.625087
0.720558
0.864678
1.11028
1.42538
1.77986
2.14196
2.48165
2.76965
2.97713
3.07834
3.05618
2.91296
2.69442
2.44639
2.18948
1.93923
1.70583
1.49407
1.29667
1.12694
0.989065
0.870964
0.766651
0.673844
0.591249
0.520855
0.465785
0.427788
0.410282
0.43593
0.678524
1.99003
0.558003
0.49735
0.447901
0.413335
0.389294
0.37267
0.361333
0.35379
0.348969
0.34611
0.344746
0.344239
0.344222
0.344988
0.345969
0.347262
0.348714
0.35033
0.352069
0.353929
0.355905
0.357996
0.360211
0.362528
0.364976
0.367597
0.370408
0.373424
0.632412
0.73409
0.891761
1.16171
1.50788
1.89944
2.30543
2.69718
3.04672
3.32533
3.50422
3.5588
3.47569
3.26387
2.97906
2.67306
2.36714
2.07625
1.80955
1.57085
1.35154
1.16569
1.01687
0.891192
0.781469
0.683225
0.597279
0.525664
0.469275
0.429864
0.411076
0.436427
0.682296
2.00633
0.638832
0.555202
0.487932
0.44127
0.408796
0.38618
0.37055
0.35992
0.35288
0.348413
0.345816
0.344611
0.344196
0.344274
0.34507
0.346079
0.347375
0.348829
0.350439
0.352172
0.354023
0.355989
0.358069
0.360243
0.362528
0.364976
0.367597
0.370408
0.373424
0.7472
0.918143
1.21091
1.5858
2.01157
2.45796
2.89766
3.30456
3.65147
3.90924
4.04877
4.04711
3.8955
3.61034
3.25717
2.89294
2.53876
2.20844
1.90967
1.64506
1.40461
1.20311
1.04364
0.91057
0.793742
0.691226
0.603918
0.530969
0.473146
0.432193
0.412005
0.436955
0.686557
2.02435
0.758747
0.635287
0.541846
0.478738
0.434957
0.404424
0.38316
0.368495
0.358556
0.352006
0.347881
0.345544
0.34449
0.344149
0.344341
0.345152
0.346189
0.347485
0.348942
0.350545
0.352272
0.354113
0.35607
0.358105
0.360243
0.362528
0.364976
0.367597
0.370408
0.373421
0.94361
1.25755
1.6589
2.11601
2.59931
3.0826
3.54161
3.9516
4.28514
4.5119
4.60241
4.53615
4.31003
3.94836
3.52605
3.10421
2.70313
2.33492
2.00557
1.71628
1.45565
1.23908
1.06929
0.92664
0.804216
0.700037
0.611237
0.536832
0.477447
0.434813
0.413074
0.43761
0.691142
2.0438
0.75439
0.965895
0.615521
0.529079
0.469985
0.428868
0.400178
0.380228
0.366506
0.357241
0.351169
0.347379
0.345296
0.344386
0.344111
0.344416
0.345234
0.346299
0.347594
0.349053
0.350649
0.35237
0.354202
0.356111
0.358105
0.360242
0.362528
0.364976
0.367597
0.370398
0.373413
1.30143
1.72708
2.21282
2.72963
3.25212
3.75765
4.22405
4.62701
4.93788
5.12452
5.15741
5.01954
4.71454
4.27476
3.78369
3.30565
2.85945
2.45516
2.09684
1.78424
1.50447
1.2735
1.09057
0.940364
0.81576
0.709755
0.619318
0.543322
0.482235
0.437763
0.414339
0.438284
0.696385
2.06536
0.723455
0.961374
1.33909
0.597192
0.516972
0.461533
0.422953
0.396052
0.377386
0.364585
0.355979
0.350372
0.346913
0.345079
0.344298
0.344087
0.344494
0.345317
0.346407
0.347701
0.349161
0.350751
0.352465
0.354245
0.35611
0.358105
0.360242
0.362527
0.364976
0.36758
0.370377
0.373406
1.79032
2.30225
2.84935
3.4068
3.95322
4.46878
4.93279
5.32035
5.60049
5.73887
5.70665
5.49168
5.10512
4.58713
4.02875
3.49653
3.00729
2.56886
2.18329
1.84876
1.55095
1.30199
1.10874
0.955502
0.828499
0.72049
0.628255
0.550518
0.487578
0.441102
0.415782
0.439178
0.702005
2.08851
0.695081
0.912483
1.33454
1.84406
0.580101
0.505276
0.453319
0.417202
0.39205
0.374639
0.362738
0.354771
0.349624
0.346496
0.344891
0.344227
0.344075
0.344574
0.345403
0.346514
0.347806
0.349267
0.35085
0.352512
0.354244
0.35611
0.358104
0.360242
0.362527
0.364953
0.367546
0.370355
0.373398
2.38448
2.95903
3.5475
4.12944
4.68692
5.20268
5.65663
6.02202
6.2644
6.34723
6.24363
5.94773
5.47867
4.88376
4.26039
3.67645
3.14647
2.67592
2.26481
1.90975
1.58921
1.32627
1.12878
0.972216
0.842578
0.732364
0.638154
0.558512
0.493553
0.444879
0.417523
0.440059
0.708527
2.11424
0.669013
0.866323
1.26398
1.84032
2.45371
0.563767
0.4939
0.445336
0.411621
0.388178
0.371993
0.360966
0.35363
0.348942
0.34613
0.344729
0.344172
0.344077
0.344653
0.345491
0.346618
0.347911
0.349371
0.350898
0.352511
0.354243
0.356109
0.358104
0.360242
0.3625
0.364908
0.367512
0.370333
0.37339
3.05913
3.67523
4.28778
4.88029
5.43851
5.94713
6.38546
6.72323
6.92156
6.94241
6.76254
6.38367
5.83285
5.16353
4.47816
3.84529
3.27701
2.77639
2.34143
1.95965
1.62171
1.35298
1.15089
0.990695
0.858159
0.745522
0.649142
0.567412
0.500248
0.449187
0.419484
0.441322
0.715487
2.14162
0.644597
0.823073
1.19471
1.75051
2.45165
3.14249
0.547985
0.482836
0.437594
0.406222
0.384446
0.369452
0.359287
0.352585
0.348335
0.345809
0.344591
0.344131
0.344094
0.344729
0.345581
0.346721
0.348015
0.349421
0.350896
0.35251
0.354243
0.356109
0.358104
0.360209
0.362443
0.364861
0.367476
0.37031
0.373382
3.79081
4.42988
5.05126
5.64312
6.19454
6.69133
7.11034
7.41591
7.56443
7.51777
7.25835
6.79632
6.16608
5.42584
4.68197
4.00319
3.39908
2.87041
2.40378
2.00184
1.65731
1.38238
1.1753
1.01115
0.875428
0.760125
0.661359
0.577341
0.507775
0.454075
0.421907
0.442509
0.723692
2.17215
0.621493
0.782325
1.12716
1.6606
2.34519
3.14242
3.88584
0.532697
0.472108
0.430109
0.401015
0.380862
0.367041
0.357744
0.351647
0.347793
0.345529
0.344473
0.3441
0.344129
0.344803
0.345674
0.346825
0.348064
0.349418
0.350894
0.352509
0.354242
0.356108
0.358067
0.360143
0.362386
0.364813
0.36744
0.370287
0.373374
4.55707
5.20232
5.82003
6.40301
6.94327
7.42608
7.82339
8.09262
8.18594
8.06734
7.7269
7.18343
6.47741
5.67051
4.872
4.15043
3.51295
2.94661
2.45633
2.04786
1.69632
1.41473
1.20227
1.0338
0.894592
0.776361
0.674971
0.588443
0.516251
0.459704
0.424598
0.444339
0.732419
2.20422
0.599551
0.743956
1.06108
1.57096
2.2376
3.02142
3.88708
4.6596
0.517905
0.46174
0.422898
0.396016
0.377458
0.36482
0.356354
0.350805
0.347308
0.34529
0.344371
0.344065
0.344177
0.344878
0.345772
0.346873
0.348059
0.349417
0.350893
0.352509
0.354242
0.356067
0.357991
0.360075
0.362327
0.364764
0.367402
0.370263
0.373365
5.33545
5.9729
6.5776
7.14705
7.6751
8.14379
8.51763
8.74636
8.77947
8.58595
8.16504
7.54353
6.76649
5.89774
5.04863
4.28739
3.60498
3.01068
2.51343
2.09802
1.73903
1.45034
1.23208
1.05892
0.915888
0.794442
0.690169
0.600888
0.525837
0.46611
0.428017
0.446
0.742848
2.24627
0.578688
0.708006
0.996593
1.48115
2.12921
2.89888
3.75278
4.65998
5.44009
0.503628
0.451764
0.41598
0.391269
0.374322
0.362818
0.355102
0.350048
0.346873
0.345082
0.344286
0.344034
0.344237
0.34496
0.345817
0.346864
0.348057
0.349415
0.350893
0.352508
0.354197
0.355983
0.357914
0.360005
0.362266
0.364714
0.367364
0.370238
0.373356
6.10462
6.72351
7.30965
7.86499
8.38258
8.83811
9.1867
9.37039
9.33899
9.06939
8.57059
7.87598
7.03352
6.10803
5.21237
4.39776
3.6822
3.08011
2.57543
2.15267
1.78578
1.48952
1.26503
1.08678
0.939577
0.814609
0.707172
0.614871
0.536687
0.473574
0.431765
0.448676
0.755984
2.29671
0.55884
0.674544
0.934096
1.39104
2.01947
2.77495
3.61735
4.51273
5.43626
6.20464
0.489894
0.442208
0.409419
0.386898
0.371493
0.361012
0.353976
0.34937
0.346488
0.344903
0.344213
0.344018
0.344313
0.344991
0.345807
0.346861
0.348055
0.349414
0.350893
0.352459
0.354106
0.355897
0.357835
0.359934
0.362204
0.364662
0.367324
0.370213
0.373347
6.84481
7.43824
8.00508
8.54933
9.05986
9.50378
9.82437
9.95836
9.85915
9.5145
8.9424
8.18087
7.27906
6.30202
5.34387
4.4902
3.76569
3.15528
2.6427
2.21214
1.8369
1.5326
1.30145
1.1177
0.965952
0.837134
0.726229
0.630625
0.549044
0.482091
0.436655
0.451623
0.773391
2.34763
0.539959
0.643583
0.874171
1.30086
1.90797
2.64899
3.48065
4.36569
5.27502
6.19197
6.93219
0.476738
0.433165
0.403383
0.382956
0.368942
0.359384
0.352962
0.348762
0.346147
0.344748
0.344159
0.344031
0.344345
0.344969
0.345804
0.346858
0.348054
0.349415
0.350842
0.352361
0.354013
0.355809
0.357754
0.359861
0.36214
0.364609
0.367283
0.370187
0.373338
7.53842
8.10499
8.6564
9.19372
9.70115
10.1352
10.4252
10.5038
10.3356
9.91935
9.28034
8.45887
7.50399
6.45702
5.45371
4.5899
3.85587
3.23659
2.71561
2.2768
1.89273
1.57992
1.34166
1.15201
0.995329
0.862317
0.747632
0.648417
0.563103
0.492148
0.442992
0.456805
0.793303
2.39806
0.522004
0.615058
0.817478
1.21108
1.79455
2.5203
3.34196
4.21834
5.1166
6.01435
6.9048
7.60381
0.464288
0.424868
0.397946
0.379403
0.366641
0.357918
0.352051
0.348218
0.345846
0.344622
0.344142
0.344019
0.344326
0.344962
0.345801
0.346857
0.348055
0.349361
0.350739
0.352261
0.353918
0.355719
0.357671
0.359786
0.362074
0.364555
0.367242
0.37016
0.373328
8.17241
8.71529
9.25135
9.78534
10.2943
10.7231
10.9813
11.001
10.7652
10.2833
9.58511
8.71109
7.68234
6.58597
5.57181
4.6973
3.95315
3.32444
2.79454
2.34699
1.95363
1.63183
1.38602
1.19004
1.02804
0.890489
0.771693
0.668559
0.579244
0.505801
0.452697
0.462189
0.814724
2.44762
0.505072
0.588823
0.76468
1.12243
1.67933
2.38833
3.20031
4.06992
4.95984
5.84356
6.70729
7.55415
8.20633
0.452878
0.417414
0.393051
0.376202
0.364568
0.356598
0.35123
0.34773
0.345594
0.344551
0.344112
0.343976
0.344322
0.344957
0.345798
0.34686
0.348001
0.349253
0.350635
0.352158
0.35382
0.355626
0.357586
0.359709
0.362007
0.364499
0.367199
0.370133
0.373319
8.73635
9.25962
9.79403
10.3355
10.8423
11.2604
11.4859
11.4453
11.1466
10.607
9.85807
8.90894
7.82986
6.72398
5.69857
4.81282
4.05795
3.41921
2.87984
2.42307
2.01993
1.68866
1.43486
1.23215
1.06445
0.921987
0.798779
0.691405
0.601113
0.524536
0.463352
0.469738
0.84008
2.49583
0.489553
0.564819
0.716332
1.03584
1.56258
2.25278
3.05478
3.91924
4.80397
5.67762
6.522
7.33291
8.11998
8.73012
0.442651
0.41072
0.388646
0.373319
0.3627
0.355405
0.350489
0.347312
0.345425
0.344487
0.34406
0.343964
0.344318
0.344955
0.345801
0.346807
0.347891
0.349143
0.350528
0.352053
0.35372
0.355532
0.357498
0.35963
0.361937
0.364442
0.367155
0.370106
0.37331
9.22588
9.73658
10.2798
10.8413
11.3523
11.7457
11.9328
11.8341
11.4799
10.892
10.0691
9.07129
7.98666
6.87131
5.83432
4.93682
4.17064
3.52126
2.97185
2.50534
2.09192
1.75071
1.4885
1.27866
1.10488
0.957184
0.829224
0.722141
0.629958
0.545622
0.477111
0.477894
0.866956
2.54131
0.475621
0.543303
0.673119
0.952524
1.44481
2.11347
2.90457
3.76504
4.64763
5.51569
6.34607
7.13017
7.87266
8.58692
9.15837
0.433498
0.404709
0.384683
0.370722
0.361013
0.354328
0.349849
0.34701
0.345299
0.344416
0.344047
0.343955
0.344311
0.344966
0.345748
0.346698
0.347782
0.349031
0.350418
0.351945
0.353617
0.355435
0.357408
0.359549
0.361866
0.364383
0.367112
0.37008
0.373301
9.62915
10.1409
10.7077
11.2976
11.8148
12.1726
12.3164
12.1673
11.7664
11.1078
10.2403
9.24217
8.15268
7.02807
5.97932
5.06961
4.29154
3.63092
3.07087
2.59408
2.16988
1.81826
1.54723
1.32986
1.14966
0.996366
0.869804
0.761763
0.66195
0.570093
0.492547
0.488554
0.899186
2.58493
0.463135
0.524207
0.635992
0.874448
1.32685
1.97044
2.74897
3.60604
4.48925
5.35621
6.17846
6.94255
7.64951
8.31124
8.94921
9.48396
0.425311
0.399312
0.381119
0.368379
0.359486
0.353389
0.349368
0.346807
0.3452
0.344403
0.344038
0.343948
0.344316
0.344925
0.345642
0.34659
0.347672
0.348916
0.350307
0.351835
0.353512
0.355335
0.357315
0.359466
0.361794
0.364326
0.36707
0.370054
0.373292
9.94225
10.4712
11.0786
11.7038
12.2213
12.5327
12.6307
12.4441
11.9769
11.28
10.418
9.42099
8.32763
7.19423
6.13368
5.2114
4.42091
3.74843
3.17716
2.68952
2.25402
1.89151
1.61124
1.386
1.199
1.04801
0.921056
0.804759
0.69736
0.597446
0.511861
0.501026
0.933558
2.62303
0.451971
0.507131
0.604736
0.804865
1.2108
1.82394
2.58734
3.44093
4.32713
5.19737
6.01737
6.76877
7.44812
8.06493
8.63824
9.19711
9.70124
0.417992
0.394467
0.377907
0.366261
0.358152
0.352668
0.34906
0.346677
0.345183
0.344393
0.344028
0.34397
0.344273
0.344837
0.345542
0.34648
0.34756
0.348799
0.350192
0.351722
0.353403
0.355234
0.35722
0.359381
0.361722
0.36427
0.36703
0.37003
0.373284
10.1607
10.7292
11.3945
12.0549
12.5599
12.8181
12.8734
12.6377
12.1407
11.4552
10.6008
9.60681
8.51093
7.36954
6.29738
5.36231
4.5589
3.87399
3.29087
2.7918
2.34443
1.97056
1.68067
1.44715
1.26325
1.11194
0.975388
0.850827
0.735835
0.628541
0.533765
0.51633
0.974883
2.65868
0.44201
0.491796
0.578235
0.745324
1.10128
1.67563
2.41925
3.26837
4.15941
5.03716
5.86078
6.60664
7.26707
7.84775
8.3651
8.84553
9.32004
9.80027
0.411448
0.39011
0.375008
0.364403
0.35711
0.35222
0.34889
0.346659
0.345172
0.344378
0.344054
0.343963
0.344188
0.344755
0.345443
0.346367
0.347446
0.34868
0.350075
0.351607
0.353292
0.35513
0.357124
0.359298
0.361653
0.364215
0.36699
0.370006
0.373275
10.2826
10.9171
11.6554
12.3369
12.8169
13.0279
13.0242
12.7813
12.3021
11.6309
10.7869
9.79824
8.70168
7.55347
6.47017
5.52224
4.70555
4.00764
3.41205
2.90093
2.44114
2.05541
1.75544
1.52578
1.34123
1.1782
1.03204
0.899363
0.77722
0.662605
0.559925
0.534971
1.01959
2.68617
0.433138
0.478014
0.555473
0.695264
1.00171
1.53053
2.24572
3.08703
3.98403
4.87326
5.70643
6.45388
7.1037
7.65817
8.13033
8.5418
8.92589
9.30637
9.77384
0.405584
0.386185
0.372462
0.362935
0.356474
0.352
0.348874
0.346649
0.345152
0.344413
0.344063
0.343937
0.344117
0.344672
0.345345
0.346252
0.347331
0.348558
0.349954
0.35149
0.353178
0.355024
0.357028
0.359216
0.361585
0.364162
0.366952
0.369982
0.373267
10.303
11.0414
11.843
12.531
12.9733
13.1406
13.1224
12.9122
12.4582
11.8041
10.9739
9.99341
8.89854
7.74517