/*--------------------------------*- C++ -*----------------------------------*\
  =========                 |
  \\      /  F ield         | OpenFOAM: The Open Source CFD Toolbox
   \\    /   O peration     | Website:  https://openfoam.org
    \\  /    A nd           | Version:  8
     \\/     M anipulation  |
\*---------------------------------------------------------------------------*/
FoamFile
{
    version     2.0;
    format      ascii;
    class       volScalarField;
    location    "0.26";
    object      p;
}
// * * * * * * * * * * * * * * * * * * * * * * * * * * * * * * * * * * * * * //

dimensions      [0 2 -2 0 0 0 0];

internalField   nonuniform List<scalar> 
15677
(
77.4069
77.0008
76.667
77.1551
76.6657
76.6112
77.075
76.6847
76.6208
76.5575
77.0554
76.6849
76.6213
76.5663
76.475
77.0372
76.6879
76.6218
76.5656
76.4827
76.392
77.0144
76.6907
76.622
76.5661
76.4826
76.3987
76.3003
76.9895
76.6923
76.6218
76.5662
76.4834
76.3988
76.3061
76.1893
76.9637
76.6933
76.621
76.566
76.484
76.3995
76.3063
76.1944
76.0526
76.9368
76.6936
76.62
76.5652
76.4844
76.4002
76.307
76.1947
76.057
75.8838
76.9088
76.6935
76.6184
76.5642
76.4848
76.4008
76.3078
76.1955
76.0574
75.8875
75.6754
76.8793
76.6927
76.6165
76.5631
76.4852
76.4014
76.3085
76.1964
76.0584
75.8881
75.6784
75.4197
76.8483
76.6911
76.6146
76.5621
76.4857
76.4022
76.3094
76.1974
76.0595
75.8892
75.6791
75.4219
75.1086
76.816
76.6887
76.6128
76.5612
76.4864
76.4032
76.3106
76.1986
76.0608
75.8906
75.6805
75.4227
75.1101
74.7344
76.786
76.6855
76.6112
76.5603
76.4875
76.4048
76.3123
76.2004
76.0626
75.8924
75.6823
75.4245
75.111
74.7349
74.2896
76.7602
76.6818
76.6101
76.5596
76.4894
76.4073
76.3148
76.2031
76.0652
75.8949
75.6846
75.4267
75.1131
74.7362
74.2891
73.7671
76.7381
76.6778
76.6094
76.5593
76.492
76.411
76.3188
76.207
76.069
75.8985
75.688
75.4298
75.1159
74.7385
74.2905
73.7656
73.161
76.7193
76.6729
76.6089
76.5594
76.4957
76.4163
76.3245
76.2129
76.0747
75.9038
75.6928
75.4342
75.1199
74.742
74.2933
73.7672
73.1583
72.4663
76.7031
76.6673
76.6084
76.56
76.5001
76.4235
76.3326
76.2214
76.0831
75.9117
75.7
75.4406
75.1256
74.7471
74.2976
73.7705
73.1601
72.4623
71.6793
76.6892
76.6614
76.6077
76.5611
76.5049
76.4323
76.3438
76.2334
76.0952
75.9232
75.7106
75.4501
75.1339
74.7543
74.3039
73.7756
73.1639
72.4643
71.6738
70.798
76.677
76.6554
76.6069
76.5625
76.5101
76.4418
76.3575
76.2497
76.1122
75.9398
75.7261
75.4641
75.1462
74.7649
74.3129
73.7833
73.17
72.4686
71.676
70.7909
69.822
76.6669
76.6496
76.6061
76.5643
76.5158
76.4521
76.3723
76.2702
76.1355
75.963
75.7483
75.4844
75.1642
74.7804
74.326
73.7943
73.1791
72.4756
71.6808
70.7933
69.8132
68.7527
76.6587
76.6443
76.6052
76.5664
76.5218
76.4631
76.3884
76.2918
76.1638
75.9949
75.7794
75.5135
75.1903
74.8031
74.3453
73.8102
73.1922
72.4863
71.6889
70.7986
69.8157
68.7422
67.594
76.652
76.6397
76.6043
76.5688
76.5282
76.4747
76.4057
76.3155
76.1945
76.0336
75.822
75.5542
75.2277
74.8361
74.3734
73.8337
73.2113
72.5016
71.7011
70.8076
69.8214
68.7448
67.5815
66.3515
76.6465
76.6358
76.6034
76.5712
76.5348
76.4867
76.4239
76.3408
76.228
76.0758
75.8738
75.6099
75.2799
74.8832
74.4143
73.8679
73.2393
72.524
71.7187
70.8213
69.8313
68.7508
67.5842
66.337
65.0376
76.6419
76.6325
76.6026
76.5734
76.5413
76.499
76.4428
76.3676
76.264
76.1219
75.9304
75.6779
75.3515
74.949
74.4725
73.9176
73.2802
72.5568
71.7444
70.8412
69.8464
68.7614
67.5903
66.3394
65.0195
63.6804
76.6381
76.6297
76.6019
76.5754
76.5472
76.5109
76.4623
76.3955
76.302
76.1714
75.9922
75.7521
75.4389
75.0394
74.5541
73.9884
73.3395
72.6047
71.7821
70.87
69.8682
68.7776
67.6013
66.3452
65.0194
63.6217
62.2248
76.6348
76.6273
76.6012
76.5773
76.5525
76.5217
76.4812
76.4242
76.3417
76.2238
76.0588
75.8335
75.5346
75.1499
74.6662
74.0878
73.4242
72.6743
71.8373
70.9125
69.9
68.801
67.6181
66.3559
65.0236
63.6274
62.1568
60.6553
76.632
76.6252
76.6006
76.5789
76.5572
76.5314
76.4984
76.4522
76.3825
76.2785
76.1292
75.9211
75.6396
75.271
74.8035
74.2245
73.5432
72.774
71.9176
70.9749
69.9469
68.8353
67.6425
66.3726
65.0326
63.6285
62.1621
60.6304
59.0402
76.6296
76.6233
76.6
76.5802
76.5613
76.54
76.5139
76.4778
76.4224
76.335
76.203
76.014
75.7528
75.4041
74.9542
74.3923
73.7073
72.9142
72.0328
71.066
70.0162
68.886
67.6784
66.3971
65.0475
63.6341
62.1557
60.6197
59.0319
57.3935
76.6275
76.6217
76.5995
76.5814
76.565
76.5476
76.5276
76.5006
76.4587
76.3901
76.2791
76.1114
75.8732
75.548
75.1203
74.5769
73.9092
73.1081
72.1954
71.1971
70.1178
68.9615
67.7321
66.4335
65.0703
63.6461
62.1591
60.6096
59.0154
57.3889
55.5411
76.6257
76.6204
76.599
76.5825
76.5681
76.5542
76.5397
76.521
76.4914
76.4405
76.3537
76.2121
75.9994
75.7012
75.3002
74.7809
74.1319
73.3472
72.421
71.3828
70.2646
69.0727
67.8125
66.4886
65.1055
63.6662
62.1695
60.6137
59.0059
57.3703
55.5397
53.4674
76.6241
76.6191
76.5985
76.5834
76.5709
76.5601
76.5504
76.5391
76.5206
76.4858
76.4219
76.3109
76.1304
75.8622
75.492
75.0022
74.3785
73.6118
72.7001
71.6412
70.4732
69.2343
67.932
66.5724
65.1603
63.6988
62.1874
60.6237
59.011
57.3619
55.5223
53.4679
51.3941
76.6227
76.6181
76.5981
76.5842
76.5734
76.5652
76.5599
76.5552
76.5465
76.5264
76.4834
76.4015
76.2589
76.0295
75.6941
75.2389
74.6468
73.9057
73.0099
71.9621
70.7648
69.4651
68.1069
66.6983
65.2455
63.7519
62.2176
60.6403
59.0208
57.3664
55.514
53.452
51.3958
49.3456
76.6214
76.6171
76.5977
76.5849
76.5755
76.5698
76.5682
76.5693
76.5695
76.5625
76.5385
76.4832
76.377
76.194
75.9046
75.4888
74.9344
74.2262
73.3549
72.3195
71.1284
69.7892
68.3583
66.8845
65.3758
63.8368
62.2684
60.6686
59.0367
57.3756
55.5158
53.4435
51.3815
49.3472
47.341
76.6163
76.62
76.5972
76.5855
76.5773
76.5737
76.5755
76.5817
76.5898
76.5945
76.5875
76.5565
76.4837
76.3456
76.112
75.7497
75.239
74.5709
73.7326
72.719
71.535
70.1955
68.7134
67.1542
65.5706
63.9692
62.3519
60.7173
59.0634
57.3903
55.523
53.4426
51.3725
49.334
47.3424
45.3929
76.5969
76.6152
76.6182
76.5861
76.5789
76.5772
76.5819
76.5927
76.6077
76.6228
76.631
76.6218
76.5795
76.4827
76.3035
76.0075
75.5579
74.937
74.14
73.1579
71.9913
70.6516
69.1609
67.5376
65.8556
64.1701
62.4847
60.7988
59.1096
57.4148
55.535
53.4466
51.3686
49.324
47.3297
45.3938
43.5101
76.5865
76.5965
76.6141
76.6164
76.5803
76.5802
76.5875
76.6024
76.6235
76.6478
76.6696
76.68
76.6651
76.6061
76.4772
76.2461
75.874
75.3216
74.5742
73.633
72.4944
71.1657
69.6657
68.0238
66.2638
64.4669
62.689
60.9304
59.1881
57.4573
55.5553
53.4541
51.3688
49.3168
47.3183
45.3814
43.5104
41.7
76.5815
76.5872
76.5961
76.6128
76.6146
76.5829
76.5925
76.6109
76.6374
76.6699
76.7038
76.7315
76.7414
76.7165
76.6337
76.4629
76.1673
75.704
75.0319
74.1413
73.0413
71.735
70.2373
68.5751
66.7849
64.8956
62.994
61.1355
59.3166
57.531
55.592
53.4676
51.3706
49.3125
47.3076
45.3685
43.4981
41.6995
39.9678
76.5852
76.5831
76.5878
76.5956
76.6116
76.6128
76.5968
76.6184
76.6497
76.6894
76.734
76.7772
76.8091
76.8149
76.7739
76.6587
76.4345
76.0599
75.4887
74.6791
73.6287
72.3564
70.8731
69.2023
67.3791
65.4467
63.4382
61.4447
59.5193
57.654
55.658
53.4951
51.3759
49.3075
47.298
45.354
43.4834
41.6871
39.9667
38.3175
76.6005
76.5881
76.5848
76.5885
76.5951
76.6103
76.6111
76.625
76.6606
76.7067
76.7607
76.8176
76.8691
76.9024
76.8992
76.8345
76.6764
76.3852
75.9153
75.2182
74.253
73.0268
71.5703
69.9033
68.0585
66.0788
64.0136
61.8988
59.8283
57.8509
55.7717
53.5492
51.392
49.3032
47.2854
45.3387
43.4651
41.6705
39.9541
38.3156
36.7508
76.6306
76.6052
76.591
76.5864
76.589
76.5946
76.609
76.6093
76.6702
76.7219
76.7843
76.8534
76.9223
76.9801
77.0107
76.9918
76.894
76.6802
76.3064
75.7234
74.8814
73.7426
72.326
70.6758
68.8216
66.8053
64.6771
62.4914
60.2862
58.1547
55.958
53.6482
51.4313
49.3062
47.2703
45.3177
43.4437
41.6482
39.9355
38.3028
36.7483
35.2683
76.6783
76.6375
76.6097
76.5938
76.5878
76.5894
76.594
76.6076
76.6075
76.7354
76.8052
76.8851
76.9694
77.0491
77.1099
77.1321
77.0891
76.9464
76.6622
76.1882
75.4729
74.4666
73.1369
71.5173
69.6669
67.6255
65.444
63.1789
60.8881
58.6096
56.2506
53.817
51.5114
49.328
47.2586
45.291
43.414
41.6208
39.9094
38.2822
36.7352
35.2652
33.8694
76.7468
76.6881
76.644
76.6141
76.5965
76.5892
76.5898
76.5934
76.6062
76.6058
76.8237
76.9132
77.0112
77.1102
77.1979
77.257
77.2634
77.1855
76.984
76.6125
76.0191
75.1511
73.9614
72.4252
70.5927
68.5391
66.3145
63.9778
61.5907
59.2121
56.6943
54.0893
51.6571
49.3859
47.2609
45.2633
43.375
41.5822
39.8758
38.2523
36.7126
35.2517
33.8656
32.5524
76.8392
76.7604
76.6971
76.6502
76.6182
76.5991
76.5904
76.59
76.5928
76.6047
76.604
76.938
77.0483
77.1643
77.2761
77.3681
77.4188
77.3995
77.2737
76.9973
76.5194
75.7859
74.7448
73.3534
71.5972
69.5455
67.2898
64.89
62.412
59.92
57.2877
54.5093
51.9014
49.5039
47.2939
45.2446
43.3306
41.5306
39.8283
38.2128
36.6791
35.2273
33.8519
32.5481
31.3152
76.9589
76.8578
76.7725
76.7057
76.6562
76.6221
76.6014
76.5914
76.5902
76.5921
76.6032
76.6022
77.081
77.2125
77.3454
77.4667
77.5571
77.5907
77.5337
77.3446
76.9746
76.3695
75.4745
74.2399
72.6302
70.6438
68.3704
65.9181
63.3556
60.7528
57.9904
55.0784
52.2866
49.7132
47.3802
45.2505
43.2899
41.4691
39.7641
38.1563
36.6337
35.1903
33.8256
32.5341
31.3105
30.1551
77.1086
76.9837
76.8737
76.784
76.7139
76.6618
76.6257
76.6034
76.5923
76.5902
76.5914
76.6016
76.6005
77.2551
77.4072
77.5544
77.6802
77.7611
77.7663
77.657
77.3866
76.9024
76.1481
75.0696
73.6222
71.7803
69.5572
67.0643
64.4255
61.7158
58.8234
55.7593
52.8168
50.0533
47.5485
45.3021
43.2675
41.4059
39.6854
38.0797
36.5686
35.1393
33.7853
32.5061
31.2962
30.1499
29.0688
77.2909
77.1413
77.0045
76.889
76.7951
76.7216
76.6669
76.629
76.6053
76.593
76.5901
76.5906
76.6
76.5987
77.4618
77.6325
77.7897
77.9129
77.9741
77.9371
77.7582
77.3863
76.7654
75.8389
74.5555
72.8782
70.7933
68.3314
65.6262
62.8147
59.7935
56.5738
53.459
50.5315
47.835
45.4246
43.2819
41.3544
39.5998
37.9842
36.4799
35.0658
33.7289
32.4626
31.2664
30.1353
29.0632
28.053
77.5076
77.3335
77.1681
77.0244
76.9037
76.8055
76.7287
76.6716
76.6319
76.6068
76.5935
76.5898
76.5898
76.5984
76.5971
77.7015
77.8874
78.0483
78.1594
78.1878
78.0922
77.8238
77.3279
76.5467
75.4249
73.9167
71.9949
69.6603
66.9627
64.0565
60.9089
57.5304
54.2349
51.1194
48.2497
45.6504
43.3552
41.3303
39.519
37.8764
36.3679
34.9653
33.6475
32.4012
31.2201
30.104
29.0484
28.047
27.1041
77.7594
77.5624
77.3678
77.1938
77.0435
76.9173
76.8149
76.7351
76.6757
76.6344
76.6081
76.5939
76.5894
76.589
76.5968
76.5955
77.9737
78.169
78.3249
78.4118
78.3917
78.2182
77.8381
77.194
76.2282
74.8888
73.1378
70.9605
68.3747
65.4485
62.1791
58.64
55.1547
51.8375
48.7692
45.9919
43.5148
41.3518
39.4555
37.7665
36.2386
34.8376
33.5358
32.3122
31.1539
30.055
29.0156
28.032
27.0977
26.2186
78.0459
77.8293
77.6059
77.4006
77.2183
77.0611
76.9296
76.8233
76.7407
76.6793
76.6365
76.6091
76.594
76.5888
76.5882
76.5952
76.594
78.2757
78.4727
78.6122
78.6599
78.5726
78.2992
77.7831
76.9657
75.7911
74.2133
72.2048
69.7657
66.9304
63.6148
59.9152
56.2316
52.6973
49.4116
46.4303
43.7751
41.4415
39.424
37.6637
36.1001
34.6877
33.393
32.1899
31.0578
29.9843
28.9642
27.9979
27.0826
26.2119
25.393
78.3649
78.1344
77.8841
77.6475
77.4319
77.2409
77.077
76.9406
76.8308
76.7455
76.6823
76.6381
76.6097
76.5939
76.588
76.5874
76.5937
76.5926
78.6032
78.7914
78.9002
78.8907
78.7147
78.3171
77.6392
76.6229
75.2164
73.382
71.1053
68.4007
65.1566
61.371
57.4815
53.7138
50.1887
46.9803
44.1215
41.6145
39.4415
37.5788
35.9585
34.5214
33.2234
32.033
30.9256
29.8816
28.8893
27.9442
27.0472
26.1966
25.3859
24.6236
78.7121
78.4761
78.2031
77.9366
77.6872
77.4606
77.2612
77.091
76.9501
76.8371
76.7495
76.6847
76.6393
76.61
76.5937
76.5871
76.5866
76.5923
76.5913
78.9493
79.1154
79.1762
79.0884
78.7995
78.2516
77.3852
76.1449
74.4853
72.3799
69.8258
66.6997
62.9515
58.9227
54.9045
51.1158
47.6527
44.5642
41.86
39.5227
37.523
35.8207
34.3421
33.0306
31.8447
30.7554
29.74
28.7804
27.8655
26.9915
26.16
25.3704
24.6156
23.9081
79.0811
78.8509
78.5617
78.269
77.9867
77.7234
77.4862
77.279
77.1032
76.9582
76.8422
76.7526
76.6863
76.6399
76.61
76.5932
76.5861
76.5857
76.5909
76.5899
79.3047
79.4323
79.4247
79.2345
78.8065
78.0807
76.9993
75.5112
73.5804
71.19
68.2077
64.5493
60.5024
56.2886
52.2095
48.4604
45.1108
42.1823
39.6606
37.5098
35.6918
34.1525
32.8149
31.6266
30.5495
29.5575
28.6302
27.7507
26.9092
26.1025
25.3327
24.6
23.8972
23.3178
79.4627
79.2531
78.9574
78.6443
78.3318
78.0322
77.7557
77.5087
77.2943
77.1133
76.9646
76.8461
76.7548
76.6872
76.6401
76.6097
76.5926
76.5851
76.5848
76.5896
76.5887
79.6571
79.7267
79.627
79.3082
78.7127
77.7814
76.4588
74.7018
72.482
69.6615
66.1229
62.1108
57.8159
53.4877
49.4183
45.7714
42.5854
39.8525
37.5356
35.5831
33.9515
32.5753
31.3761
30.3074
29.3352
28.4362
27.5925
26.7891
26.0169
25.2736
24.5616
23.8824
23.3129
22.8214
79.8445
79.6747
79.3853
79.0606
78.7229
78.3889
78.0726
77.7837
77.5277
77.3069
77.1213
76.9694
76.8487
76.7559
76.6874
76.6398
76.6091
76.5918
76.5841
76.5839
76.5883
76.5875
79.9911
79.98
79.7622
79.2859
78.4943
77.3293
75.7419
73.6947
71.046
67.647
63.7014
59.3803
54.9095
50.5456
46.56
43.0762
40.0985
37.5905
35.4948
33.7479
32.304
31.0885
30.024
29.0706
28.1986
27.3879
26.6236
25.892
25.1851
24.5013
23.8434
23.3022
22.824
22.3006
80.2112
80.1046
79.8381
79.5138
79.1587
78.7942
78.4393
78.1076
77.8074
77.5432
77.3166
77.127
76.9724
76.8499
76.756
76.6871
76.6391
76.6083
76.5909
76.583
76.5829
76.5871
76.5863
80.2879
80.1709
79.806
79.1427
78.1252
76.7009
74.8242
72.3504
69.1024
65.2482
60.9409
56.3858
51.8203
47.5015
43.6704
40.4038
37.6711
35.4095
33.5455
32.0074
30.7494
29.6908
28.7561
27.9129
27.1361
26.4092
25.7197
25.0558
24.4101
23.7822
23.2629
22.8149
22.3006
21.7412
80.5439
80.5285
80.306
79.9979
79.636
79.2475
78.857
78.4828
78.1369
77.8265
77.555
77.3234
77.1303
76.9736
76.8498
76.7554
76.6861
76.6381
76.6072
76.5897
76.582
76.5818
76.5859
76.585
80.526
80.2751
79.7331
78.8515
77.5805
75.8689
73.568
70.4765
66.7347
62.4801
57.8901
53.1795
48.5983
44.4001
40.7858
37.7809
35.321
33.3203
31.6931
30.363
29.2868
28.3797
27.5693
26.8307
26.1441
25.4963
24.8771
24.2767
23.6885
23.2013
22.7759
22.2888
21.7366
21.132
80.8205
80.9292
80.7761
80.5042
80.1497
79.7465
79.3258
78.9112
78.5192
78.1604
77.8408
77.563
77.327
77.1313
76.973
76.8487
76.754
76.6847
76.6367
76.606
76.5885
76.5809
76.5808
76.5846
76.5837
80.6803
80.2661
79.5151
78.3857
76.8297
74.6957
71.7634
68.1521
63.9874
59.4138
54.6114
49.8157
45.2918
41.2829
37.9386
35.2305
33.0628
31.3306
29.9405
28.8146
27.9142
27.1524
26.46
25.8206
25.2191
24.6455
24.0923
23.5514
23.1056
22.7138
22.2495
21.7213
21.125
20.4697
81.0152
81.2861
81.2324
81.0212
80.6925
80.2872
79.844
79.3931
78.9563
78.5481
78.1777
77.8501
77.5669
77.3276
77.1301
76.971
76.8465
76.7519
76.6829
76.6352
76.6047
76.5872
76.5799
76.5796
76.5832
76.5823
80.7234
80.1149
79.1239
77.7114
75.7341
72.9607
69.4954
65.4534
60.945
56.1093
51.152
46.338
41.9426
38.186
35.1564
32.7712
30.9072
29.4455
28.2889
27.3609
26.629
26.0053
25.4245
24.8786
24.357
23.8531
23.3618
22.9656
22.6164
22.1865
21.6809
21.108
20.4617
19.7525
81.0994
81.5752
81.6554
81.5344
81.2542
80.8631
80.4084
79.9279
79.4493
78.992
78.5693
78.1887
77.8543
77.5668
77.3253
77.1269
76.9678
76.8435
76.7493
76.6807
76.6333
76.6032
76.5859
76.5787
76.5783
76.5818
76.581
80.6249
79.7916
78.5227
76.6891
74.0695
70.7611
66.8684
62.4674
57.655
52.5989
47.5443
42.7826
38.587
35.1405
32.4619
30.4172
28.8616
27.6674
26.7377
25.9996
25.4277
24.9346
24.4592
24.0009
23.5542
23.1155
22.7717
22.4739
22.0871
21.6163
21.0664
20.4444
19.744
18.9772
81.041
81.77
82.0226
82.0261
81.8217
81.4656
81.0139
80.5131
79.9979
79.4937
79.0181
78.5824
78.1932
77.8534
77.5631
77.3205
77.1221
76.9634
76.8397
76.7462
76.6781
76.6312
76.6015
76.5845
76.5773
76.5769
76.5804
76.5797
80.3521
79.257
77.5705
75.0965
71.9471
68.2218
63.9617
59.2233
54.1331
48.9023
43.8162
39.1834
35.2581
32.1731
29.8732
28.1787
26.9303
25.9969
25.285
24.7275
24.3066
23.9365
23.5599
23.1837
22.8071
22.5199
22.2766
21.9419
21.5147
20.9998
20.4019
19.7265
18.9684
18.1393
80.8036
81.8413
82.3083
82.4754
82.3793
82.0831
81.653
81.1444
80.6004
80.0533
79.5259
79.0341
78.5874
78.1913
77.8479
77.5563
77.3137
77.1158
76.958
76.8353
76.7426
76.6752
76.629
76.5999
76.5829
76.5758
76.5754
76.579
76.5784
79.8626
78.3665
76.053
73.058
69.5047
65.4088
60.7867
55.723
50.3871
45.0384
39.9969
35.5736
31.9863
29.3062
27.4039
26.0624
25.115
24.4326
23.9278
23.5408
23.262
23.007
22.7228
22.4234
22.2038
22.0202
21.7409
21.3665
20.8957
20.3331
19.683
18.9504
18.1302
17.2341
80.3398
81.7572
82.4837
82.8583
82.9077
82.7013
82.3155
81.8156
81.2538
80.6699
80.0937
79.5458
79.0398
78.5842
78.1836
77.8385
77.5469
77.305
77.1083
76.9518
76.8302
76.7385
76.6722
76.6272
76.5983
76.5813
76.5742
76.5739
76.5776
76.5773
79.007
76.9202
74.1039
70.7171
66.7931
62.3186
57.3346
51.9644
46.4271
41.0301
36.1185
31.9868
28.7992
26.5578
25.0634
24.0715
23.4152
22.9718
22.6625
22.4357
22.2894
22.142
21.9441
21.8095
21.6977
21.4795
21.1615
20.7442
20.2264
19.6124
18.9059
18.1118
17.2248
16.2569
81.4761
79.4986
82.5164
83.1475
83.3846
83.3031
82.989
82.5182
81.9527
81.3412
80.721
80.1187
79.5528
79.0354
78.574
78.1711
77.8258
77.5351
77.2948
77.0998
76.9448
76.8245
76.7341
76.6698
76.6255
76.5965
76.5794
76.5725
76.5724
76.5764
76.5762
77.601
75.0574
71.8671
68.1108
63.7972
58.9352
53.5963
47.9493
42.2684
36.9061
32.2163
28.456
25.7208
23.9416
22.8576
22.2067
21.8285
21.6108
21.4849
21.4076
21.3849
21.3377
21.3156
21.2946
21.1503
20.8948
20.5348
20.0713
19.5029
18.8333
18.0662
17.206
16.2475
15.203
82.367
80.8564
78.1007
83.3117
83.7849
83.8678
83.6578
83.241
82.6899
82.0631
81.4061
80.7531
80.128
79.5474
79.0223
78.5577
78.1544
77.8102
77.5214
77.2832
77.0902
76.9368
76.8185
76.7312
76.6682
76.6235
76.5944
76.5774
76.5707
76.571
76.5752
76.5752
75.7932
72.919
69.3687
65.2151
60.4967
55.2444
49.566
43.6847
37.9335
32.7006
28.3278
25.0124
22.7713
21.4674
20.789
20.4663
20.3515
20.3455
20.3905
20.4522
20.5442
20.6888
20.7885
20.7377
20.5582
20.2624
19.8573
19.344
18.721
17.9918
17.1595
16.2284
15.1936
14.0675
83.3138
81.9162
79.7508
76.3159
84.0789
84.3722
84.3035
83.9704
83.4559
82.8294
82.146
81.448
80.7659
80.1219
79.5312
79.0017
78.5363
78.1342
77.7922
77.5061
77.2704
77.0795
76.9285
76.8146
76.7296
76.666
76.6211
76.5921
76.5753
76.5691
76.5696
76.5741
76.5741
73.7203
70.5234
66.5783
62.0076
56.8744
51.2347
45.2423
39.1843
33.4521
28.4531
24.4911
21.6843
19.9668
19.1412
18.8571
18.8471
18.9797
19.1709
19.3744
19.5651
19.8666
20.1448
20.2187
20.1355
19.9179
19.5787
19.125
18.5581
17.8765
17.0831
16.1809
15.1741
14.0581
12.8456
84.2326
83.0524
80.9973
78.2769
74.277
84.7889
84.9045
84.6896
84.2388
83.6321
82.9357
82.2009
81.4662
80.7599
80.1026
79.5058
78.9748
78.5105
78.111
77.7723
77.4892
77.256
77.0683
76.9236
76.8133
76.7273
76.6633
76.6184
76.5895
76.5734
76.5675
76.5681
76.5729
76.5731
71.3947
67.8347
63.4727
58.4699
52.9149
46.8976
40.6293
34.4695
28.8612
24.2065
20.7434
18.4964
17.3189
16.9651
17.0596
17.3445
17.7077
18.0817
18.432
18.8508
19.2989
19.5569
19.6027
19.4845
19.2259
18.8399
18.3338
17.7093
16.9647
16.1026
15.1257
14.0383
12.8362
11.5325
85.0873
84.1652
82.3626
79.7184
76.5419
71.9931
85.4359
85.3793
85.0237
84.461
83.7685
83.0081
82.2272
81.4615
80.7377
80.072
79.4727
78.9426
78.4812
78.0855
77.7504
77.4703
77.2412
77.0622
76.923
76.8109
76.7243
76.66
76.6153
76.5873
76.5716
76.5657
76.5665
76.5717
76.572
68.7743
64.8302
60.0337
54.5845
48.6043
42.2273
35.737
29.5699
24.2043
20.0058
17.1193
15.4683
14.8346
14.9388
15.3925
15.9529
16.53
17.073
17.6742
18.2528
18.6855
18.9214
18.9369
18.781
18.4782
18.0418
17.4795
16.793
15.981
15.0454
13.989
12.8159
11.5233
10.1237
85.8703
85.2092
83.7142
81.324
78.1849
74.5712
69.4158
86.0164
85.7932
85.3031
84.6356
83.864
83.0459
82.2255
81.4369
80.7018
80.032
79.4331
78.9061
78.449
78.0575
77.726
77.4509
77.2336
77.0616
76.9203
76.8073
76.7204
76.6564
76.6128
76.5853
76.5696
76.5639
76.5649
76.5705
76.5709
65.8369
61.4934
56.2443
50.3345
43.9287
37.2215
30.5824
24.5235
19.5308
15.8959
13.6491
12.6144
12.5173
13.0594
13.8501
14.6663
15.4409
16.263
17.0404
17.6071
18.023
18.235
18.2176
18.0211
17.6706
17.1801
16.5575
15.8047
14.9206
13.9068
12.766
11.5026
10.115
8.61414
86.5775
86.175
84.9927
82.9274
80.0358
76.4435
72.3201
66.5215
86.5265
86.143
85.5259
84.7613
83.9178
83.0497
82.1996
81.3956
80.6543
79.9841
79.3882
78.866
78.4138
78.0264
77.7009
77.4413
77.2334
77.059
76.9163
76.8027
76.7159
76.6537
76.611
76.5832
76.5675
76.5619
76.5632
76.5692
76.5699
62.5676
57.8091
52.0866
45.7005
38.8743
31.8812
25.1912
19.3778
14.894
11.9193
10.3575
9.94409
10.3667
11.3218
12.4259
13.4784
14.5678
15.5864
16.3565
16.9102
17.3078
17.4939
17.4411
17.2007
16.7991
16.2505
15.5632
14.7396
13.7787
12.682
11.4522
10.0946
8.6076
6.71385
87.2033
87.0569
86.1882
84.4542
81.8937
78.5634
74.4543
69.7665
63.2965
86.962
86.426
85.6906
84.8369
83.9305
83.024
82.1533
81.3403
80.5972
79.9298
79.3391
78.8224
78.3749
77.9946
77.689
77.4419
77.2308
77.0545
76.9108
76.7974
76.7132
76.6521
76.6088
76.5808
76.5651
76.5598
76.5614
76.568
76.5688
58.9537
53.7609
47.5387
40.6597
33.4257
26.2133
19.6004
14.1893
10.3487
8.11405
7.26314
7.46204
8.37922
9.71965
11.1132
12.5277
13.8394
14.8571
15.6193
16.1588
16.5364
16.6942
16.6031
16.3156
15.859
15.2483
14.4919
13.5929
12.5505
11.3664
10.0436
8.58796
6.70502
4.46723
87.7423
87.8472
87.2953
85.8935
83.6709
80.6928
76.874
72.1917
66.9033
59.7294
87.3195
86.6403
85.7954
84.863
83.9074
82.9736
82.09
81.2733
80.5325
79.8705
79.2858
78.7742
78.3351
77.9799
77.6905
77.4394
77.2258
77.0481
76.9044
76.7947
76.7121
76.6501
76.6063
76.578
76.5625
76.5575
76.5595
76.5667
76.5678
54.9801
49.327
42.5733
35.1823
27.5667
20.2346
13.8601
9.0217
5.94829
4.51214
4.37858
5.16789
6.54915
8.24551
10.0645
11.7357
13.0552
14.0718
14.8253
15.3492
15.7049
15.8319
15.6996
15.3614
14.8459
14.1688
13.3389
12.3599
11.2316
9.95592
8.53676
6.68222
4.45625
2.19774
88.1905
88.5379
88.3052
87.2404
85.3555
82.735
79.3004
74.9391
69.6497
63.7275
55.8066
87.5962
86.7835
85.8406
84.8457
83.8543
82.9026
82.0126
81.1971
80.4616
79.8061
79.2269
78.725
78.3171
77.9826
77.6883
77.4338
77.2183
77.0404
76.9019
76.7946
76.7107
76.6477
76.6033
76.575
76.5597
76.555
76.5575
76.5654
76.5667
50.6256
44.4793
37.1514
29.2318
21.288
13.9773
8.03512
3.94337
1.74211
1.13832
1.70946
3.05773
4.86891
7.07022
9.19239
10.8844
12.2123
13.2276
13.9712
14.4777
14.8094
14.9031
14.7262
14.3337
13.7553
13.0075
12.0996
11.0361
9.81772
8.44725
6.62884
4.43152
2.18945
-0.0678214
88.5443
89.1218
89.2073
88.4852
86.943
84.677
81.632
77.6844
72.7536
66.8307
60.2373
51.5084
87.7889
86.8552
85.8335
84.792
83.7762
82.8145
81.9241
81.1135
80.3847
79.7349
79.1667
78.7031
78.3214
77.9807
77.6821
77.4251
77.2091
77.0382
76.9031
76.794
76.7085
76.6446
76.5999
76.5716
76.5566
76.5524
76.5555
76.5641
76.5658
45.8626
39.1775
31.2236
22.7737
14.5949
7.49414
2.20349
-0.975978
-2.22712
-1.9914
-0.744017
1.12459
3.53283
6.09489
8.25669
9.97094
11.3077
12.3211
13.0535
13.5408
13.8462
13.9037
13.6788
13.228
12.5826
11.7597
10.7695
9.61742
8.30563
6.53594
4.37543
2.16756
-0.0743472
-2.31704
88.7995
89.5935
89.9915
89.6163
88.4236
86.5139
83.8563
80.3247
75.8386
70.3236
63.742
56.4283
46.8089
87.8963
86.8638
85.7823
84.7081
83.6775
82.7129
81.8266
81.0228
80.2998
79.6623
79.1404
78.7093
78.3199
77.9739
77.6719
77.4141
77.2076
77.0415
76.9039
76.7925
76.7056
76.641
76.5961
76.5678
76.5533
76.5495
76.5533
76.5628
76.5649
40.6516
33.3625
24.7257
15.7697
7.50754
0.860694
-3.54539
-5.66954
-5.92662
-4.86887
-2.98675
-0.407961
2.42702
5.05063
7.25495
8.99286
10.3386
11.3492
12.069
12.535
12.8114
12.8295
12.5531
12.0401
11.3234
10.4212
9.34456
8.10053
6.38976
4.27852
2.11291
-0.0947899
-2.32268
-4.54567
88.9536
89.9467
90.6482
90.622
89.7857
88.2354
85.9678
82.8503
78.804
73.7709
67.6621
60.3937
52.2935
41.6738
87.9278
86.8192
85.6945
84.5993
83.5624
82.6005
81.7206
80.9225
80.2131
79.6309
79.149
78.7085
78.3124
77.9621
77.6588
77.4135
77.2136
77.0443
76.9034
76.79
76.702
76.6368
76.5917
76.5637
76.5496
76.5465
76.551
76.5615
76.564
34.928
26.9463
17.5706
8.18185
0.0704502
-5.82345
-9.11651
-10.0791
-9.33381
-7.49387
-4.75863
-1.67252
1.24627
3.93573
6.18519
7.9477
9.3022
10.309
11.0144
11.4568
11.7014
11.6768
11.345
10.7658
9.97361
8.98805
7.82154
6.17885
4.12698
2.01545
-0.14812
-2.3429
-4.55052
-6.74778
89.0167
90.1765
91.1654
91.4906
91.0168
89.8293
87.9549
85.2562
81.644
77.0778
71.4975
64.7871
56.7957
47.8248
36.047
87.8953
86.7304
85.5766
84.4706
83.4343
82.4781
81.6034
80.8199
80.1759
79.6423
79.1489
78.7003
78.2988
77.9466
77.6596
77.4231
77.219
77.0454
76.9018
76.7866
76.6975
76.6319
76.5868
76.5591
76.5457
76.5433
76.5487
76.5603
76.5633
28.5988
19.8132
9.66051
-0.00327628
-7.63452
-12.4386
-14.4175
-14.1574
-12.4376
-9.55962
-6.21518
-3.01844
-0.00991786
2.74923
5.04578
6.83345
8.19628
9.19809
9.88719
10.3032
10.5129
10.4419
10.0509
9.4013
8.52959
7.4571
5.89278
3.90975
1.8614
-0.245255
-2.39574
-4.57038
-6.75176
-8.91588
89.0031
90.2944
91.531
92.2055
92.1039
91.2824
89.8035
87.5309
84.3557
80.2433
75.1635
69.0407
61.7186
52.9565
43.0026
29.8437
87.8094
86.6053
85.4347
84.3263
83.2944
82.3424
81.4832
80.7764
80.1908
79.6433
79.14
78.6846
78.2804
77.9491
77.6737
77.4319
77.2223
77.045
76.899
76.7822
76.6922
76.6262
76.5813
76.5541
76.5414
76.5399
76.5465
76.5591
76.5626
21.5386
11.8115
0.903436
-8.75788
-15.4812
-18.8514
-19.3631
-17.8716
-14.8696
-11.25
-7.7593
-4.44418
-1.34076
1.49079
3.83574
5.64875
7.0192
8.01444
8.6849
9.07163
9.24293
9.12169
8.66732
7.94333
6.98846
5.51941
3.61666
1.64046
-0.400295
-2.49313
-4.62246
-6.77099
-8.91901
-11.0422
88.9253
90.3176
91.7542
92.7462
93.0264
92.5815
91.4985
89.66
86.9293
83.2678
78.6653
73.0859
66.4264
58.4761
48.8834
37.791
22.9465
87.6797
86.451
85.2739
84.1678
83.1386
82.2029
81.4326
80.7952
80.1929
79.6336
79.1221
78.663
78.2851
77.9688
77.6869
77.4382
77.2238
77.0432
76.8949
76.7766
76.6858
76.6197
76.5751
76.5486
76.5369
76.5366
76.5442
76.5581
76.5621
13.5552
2.74503
-8.7636
-18.0026
-23.2994
-24.9223
-23.8804
-20.7677
-16.848
-13.033
-9.38614
-5.94615
-2.7445
0.161138
2.55513
4.3932
5.7701
6.75678
7.40594
7.76011
7.88917
7.71355
7.19168
6.38954
5.03979
3.23523
1.34312
-0.622832
-2.64921
-4.71989
-6.8219
-8.93746
-11.0444
-13.1195
88.7947
90.2617
91.8544
93.1174
93.7566
93.704
93.0245
91.6268
89.352
86.1447
82.0073
76.9348
70.8737
63.6812
55.0805
44.5832
32.1435
15.1739
87.5148
86.2741
85.0962
83.9908
82.9782
82.1446
81.4561
80.7988
80.1824
79.6131
79.0967
78.6704
78.3116
77.9875
77.697
77.4423
77.2236
77.0398
76.8893
76.7697
76.6784
76.6124
76.5682
76.5427
76.5324
76.5332
76.542
76.557
76.5616
4.35802
-7.62836
-19.3423
-27.5992
-30.8798
-30.5161
-27.3863
-23.1065
-18.9207
-14.8983
-11.0877
-7.51924
-4.21767
-1.23745
1.20539
3.06748
4.44904
5.42471
6.0495
6.3674
6.45002
6.21568
5.62226
4.42767
2.74655
0.957159
-0.921718
-2.8726
-4.87667
-6.91891
-8.98693
-11.0621
-13.1209
-15.1403
88.6217
90.1405
91.8508
93.3377
94.2948
94.6165
94.3549
93.4134
91.6081
88.8649
85.1882
80.5982
75.0817
68.5575
60.8329
51.5561
40.0597
25.9984
6.24318
87.3223
86.0769
84.8968
83.8079
82.9116
82.1735
81.4614
80.7874
80.1591
79.5835
79.1073
78.7051
78.337
78.0024
77.7045
77.4443
77.2213
77.0345
76.882
76.7614
76.6698
76.6041
76.5609
76.5367
76.5277
76.5298
76.5398
76.556
76.5612
-6.51688
-19.5609
-30.7648
-37.3586
-37.9623
-34.8543
-30.1856
-25.5338
-21.0685
-16.8307
-12.8536
-9.15588
-5.75456
-2.70072
-0.210514
1.67362
3.05734
4.01894
4.61573
4.89327
4.92489
4.62729
3.64468
2.12459
0.464339
-1.30865
-3.17127
-5.10009
-7.07555
-9.08303
-11.11
-13.1377
-15.1407
-17.0964
88.4154
89.9666
91.7611
93.4259
94.66
95.3169
95.449
94.9873
93.6792
91.4156
88.2036
84.0808
79.0698
73.1379
66.1692
57.9116
47.9312
35.3145
19.2787
-4.31571
87.1058
85.8542
84.69
83.7322
82.9466
82.1807
81.4492
80.7611
80.1246
79.5979
79.1517
78.7384
78.3577
78.0141
77.7093
77.4437
77.2167
77.0271
76.8729
76.7515
76.66
76.5951
76.5532
76.5305
76.523
76.5265
76.5377
76.5551
76.561
-19.8679
-33.2582
-42.9497
-46.8242
-43.4394
-38.2663
-33.0462
-28.0146
-23.2646
-18.8121
-14.6702
-10.8453
-7.34667
-4.22224
-1.68774
0.215292
1.59774
2.54143
3.10607
3.33869
3.31425
2.63166
1.33128
-0.160576
-1.80076
-3.55621
-5.39696
-7.29772
-9.23875
-11.205
-13.184
-15.1566
-17.096
-18.9792
88.1801
89.7511
91.6018
93.4009
94.8709
95.8251
96.3029
96.2963
95.5284
93.7806
91.046
87.3853
82.8507
77.4542
71.1359
63.7414
54.9488
44.2383
30.3481
11.9005
-17.4144
86.8593
85.6223
84.6047
83.7742
82.9561
82.1677
81.4194
80.7211
80.1435
79.6534
79.1943
78.7662
78.3747
78.0227
77.7111
77.4403
77.2095
77.0174
76.8618
76.74
76.6491
76.5855
76.5453
76.5242
76.5182
76.5231
76.5355
76.5542
76.5608
-37.2265
-48.2471
-55.1185
-54.2493
-47.6952
-41.6659
-35.9074
-30.5043
-25.4789
-20.8197
-16.5194
-12.5729
-8.98259
-5.79308
-3.21929
-1.30198
0.0746024
0.99569
1.52331
1.70575
1.299
0.308496
-0.954802
-2.42217
-4.04332
-5.77724
-7.59088
-9.45845
-11.3592
-13.2775
-15.2013
-17.1112
-18.9775
-20.7744
87.9102
89.4992
91.3872
93.2817
94.9461
96.161
96.9402
97.3296
97.0915
95.9215
93.7037
90.5105
86.4353
81.5291
75.7837
69.1086
61.3067
51.9774
40.5249
25.1626
3.81045
-35.1795
86.6012
85.5269
84.6546
83.7864
82.9422
82.1341
81.3732
80.745
80.2117
79.7069
79.2304
78.7895
78.3879
78.0276
77.7094
77.4336
77.1994
77.0051
76.8485
76.7271
76.6375
76.5756
76.5371
76.5178
76.5134
76.5197
76.5335
76.5534
76.5606
-58.6219
-62.2175
-66.3827
-59.6607
-51.7724
-44.9511
-38.6994
-32.9549
-27.676
-22.8256
-18.3789
-14.3208
-10.6478
-7.40161
-4.79586
-2.87067
-1.50589
-0.61314
-0.12844
-0.326372
-1.03107
-1.97467
-3.2088
-4.65547
-6.25554
-7.96384
-9.74613
-11.5753
-13.4294
-15.2931
-17.1541
-18.9911
-20.7738
-22.4747
87.6266
89.2063
91.125
93.0861
94.904
96.3439
97.3843
98.1104
98.3479
97.764
96.1396
93.4514
89.8306
85.3838
80.1481
74.0904
67.0862
58.8985
49.0456
36.8501
19.7902
-4.7814
-58.6441
86.4952
85.5857
84.6697
83.7715
82.9045
82.0808
81.4029