/*--------------------------------*- C++ -*----------------------------------*\
  =========                 |
  \\      /  F ield         | OpenFOAM: The Open Source CFD Toolbox
   \\    /   O peration     | Website:  https://openfoam.org
    \\  /    A nd           | Version:  8
     \\/     M anipulation  |
\*---------------------------------------------------------------------------*/
FoamFile
{
    version     2.0;
    format      ascii;
    class       volScalarField;
    location    "0.08";
    object      k;
}
// * * * * * * * * * * * * * * * * * * * * * * * * * * * * * * * * * * * * * //

dimensions      [0 2 -2 0 0 0 0];

internalField   nonuniform List<scalar> 
15677
(
0.333994
0.364682
0.29434
0.368614
0.357021
0.280632
0.370641
0.359745
0.365645
0.282421
0.371857
0.361481
0.361176
0.383035
0.288665
0.372596
0.363665
0.35759
0.368114
0.401533
0.30016
0.373032
0.365622
0.357771
0.358023
0.379975
0.419284
0.311712
0.37326
0.367161
0.359419
0.354513
0.36094
0.393211
0.434704
0.322532
0.373348
0.368293
0.361331
0.354727
0.353002
0.366836
0.406109
0.447823
0.332041
0.373349
0.369076
0.363049
0.356311
0.351084
0.353453
0.373515
0.418218
0.458684
0.340425
0.373314
0.369565
0.364432
0.358201
0.351905
0.34876
0.354755
0.380653
0.429048
0.467826
0.34751
0.373274
0.369824
0.365456
0.359949
0.353699
0.348366
0.347128
0.35709
0.387619
0.43876
0.475339
0.353726
0.373248
0.369927
0.366144
0.36139
0.355652
0.349753
0.345342
0.34631
0.359684
0.394394
0.447172
0.481751
0.358907
0.373237
0.36994
0.366545
0.362474
0.357416
0.351714
0.346196
0.342919
0.345875
0.362579
0.40063
0.45462
0.48705
0.363569
0.373237
0.369922
0.366733
0.363208
0.358852
0.353677
0.348063
0.343089
0.340854
0.345888
0.365437
0.406474
0.460951
0.491601
0.367633
0.373238
0.369907
0.366791
0.363634
0.359911
0.355388
0.350149
0.344748
0.340285
0.339188
0.346019
0.368328
0.411638
0.466532
0.495381
0.371226
0.373239
0.369899
0.366792
0.363832
0.360604
0.356736
0.352082
0.34688
0.341693
0.337818
0.337733
0.346345
0.370994
0.416388
0.471169
0.498719
0.374517
0.37324
0.369896
0.366782
0.363889
0.360986
0.357691
0.353684
0.348978
0.343828
0.338925
0.335576
0.33652
0.34673
0.373596
0.420416
0.475238
0.501598
0.37732
0.37324
0.369894
0.366774
0.363897
0.361135
0.358278
0.354884
0.350799
0.346058
0.341021
0.336373
0.333591
0.33544
0.347236
0.375845
0.424037
0.478584
0.504136
0.380161
0.37324
0.369893
0.36677
0.363892
0.361179
0.358548
0.355677
0.352225
0.348069
0.343349
0.338417
0.334073
0.331773
0.334567
0.347658
0.377949
0.426983
0.481504
0.506487
0.382371
0.37324
0.369892
0.366766
0.363885
0.361185
0.358652
0.356077
0.353223
0.349701
0.345524
0.34083
0.336051
0.331954
0.330197
0.333761
0.348127
0.379655
0.429592
0.483894
0.508497
0.385019
0.37324
0.369891
0.366764
0.363879
0.361179
0.358683
0.356251
0.353769
0.35089
0.347347
0.343157
0.338532
0.333878
0.330088
0.328764
0.33312
0.34847
0.381199
0.431593
0.485968
0.510613
0.386775
0.37324
0.36989
0.366763
0.363875
0.361172
0.358686
0.356316
0.354031
0.351572
0.348725
0.345158
0.340994
0.336436
0.331965
0.32841
0.327566
0.332524
0.348816
0.382352
0.43338
0.487678
0.512283
0.389405
0.37324
0.369889
0.366762
0.363871
0.361166
0.35868
0.356333
0.354145
0.351918
0.349559
0.346707
0.343161
0.339046
0.334601
0.330262
0.327005
0.326515
0.332087
0.349056
0.383391
0.434613
0.489192
0.514421
0.390839
0.37324
0.369889
0.366761
0.363868
0.361161
0.358671
0.356331
0.354183
0.35208
0.350008
0.347668
0.344892
0.341391
0.337346
0.332996
0.328871
0.32583
0.325745
0.331718
0.349283
0.384064
0.435808
0.490424
0.515837
0.393476
0.37324
0.369888
0.36676
0.363865
0.361157
0.358662
0.356322
0.354188
0.352144
0.350234
0.348202
0.346013
0.343287
0.339846
0.335918
0.331754
0.327765
0.324978
0.325119
0.331502
0.349474
0.38473
0.436476
0.491709
0.518354
0.394868
0.37324
0.369888
0.36676
0.363863
0.361154
0.358655
0.356313
0.354178
0.352161
0.350331
0.348482
0.346665
0.34452
0.341926
0.33865
0.33486
0.330775
0.326986
0.324389
0.324905
0.331531
0.349727
0.385105
0.437319
0.492551
0.520011
0.505192
0.373241
0.369888
0.366759
0.363862
0.361151
0.358649
0.356304
0.354165
0.352157
0.350359
0.348613
0.347022
0.345244
0.343355
0.340929
0.337723
0.334078
0.330313
0.326766
0.324401
0.325004
0.331684
0.349975
0.385543
0.437698
0.494465
0.528711
0.713759
0.373241
0.369887
0.366759
0.36386
0.361149
0.358644
0.356297
0.354151
0.352145
0.350355
0.348663
0.347192
0.345654
0.344236
0.342442
0.340185
0.337368
0.334076
0.330423
0.326961
0.324651
0.325341
0.332037
0.350348
0.385863
0.43852
0.494979
0.545571
0.892596
0.373241
0.369887
0.366758
0.363859
0.361147
0.35864
0.356291
0.35414
0.35213
0.350338
0.34867
0.347255
0.34587
0.344748
0.343363
0.342005
0.340216
0.337561
0.334396
0.330899
0.327547
0.325291
0.326043
0.332724
0.350867
0.386266
0.439119
0.494694
0.558654
1.0382
0.373241
0.369887
0.366758
0.363859
0.361146
0.358637
0.356286
0.35413
0.352117
0.350317
0.348658
0.347262
0.345968
0.345002
0.343917
0.343182
0.342167
0.340592
0.338195
0.335245
0.331948
0.328747
0.326534
0.327254
0.333754
0.351584
0.386893
0.438864
0.493231
0.568505
1.16542
0.373241
0.369887
0.366758
0.363858
0.361145
0.358634
0.356282
0.354122
0.352105
0.350298
0.348637
0.347242
0.345996
0.345106
0.344253
0.34391
0.343431
0.342753
0.341534
0.339522
0.33691
0.333843
0.330686
0.328415
0.32893
0.33518
0.352603
0.387411
0.437979
0.490154
0.575333
1.26976
0.373241
0.369887
0.366758
0.363857
0.361144
0.358632
0.356278
0.354116
0.352095
0.350281
0.348616
0.347213
0.345987
0.345131
0.344422
0.344298
0.344224
0.34417
0.344002
0.343369
0.3418
0.33949
0.336551
0.333389
0.330929
0.331154
0.337033
0.353869
0.387867
0.436156
0.484839
0.579898
1.3477
0.373241
0.369887
0.366758
0.363857
0.361143
0.35863
0.356275
0.35411
0.352087
0.350267
0.348596
0.347184
0.34596
0.345114
0.344486
0.344493
0.344684
0.345082
0.345675
0.346252
0.346208
0.345071
0.343028
0.340183
0.336895
0.334169
0.333935
0.339353
0.355391
0.388004
0.433066
0.478211
0.582824
1.40784
0.373241
0.369887
0.366758
0.363856
0.361142
0.358629
0.356273
0.354106
0.352079
0.350255
0.348579
0.347158
0.34593
0.34508
0.344491
0.344573
0.344927
0.34564
0.34679
0.348224
0.349557
0.350164
0.349458
0.347657
0.344797
0.34131
0.338149
0.337337
0.342124
0.357109
0.387907
0.428992
0.471574
0.585323
1.45623
0.369887
0.373245
0.366758
0.363856
0.361142
0.358628
0.35627
0.354102
0.352073
0.350245
0.348563
0.347135
0.3459
0.345041
0.344464
0.344588
0.345039
0.345957
0.347509
0.349576
0.351905
0.354095
0.35539
0.355111
0.35346
0.350518
0.346659
0.342949
0.341327
0.345348
0.359303
0.387616
0.42481
0.465356
0.58774
1.49678
0.366758
0.369897
0.373252
0.363856
0.361141
0.358626
0.356268
0.354098
0.352068
0.350236
0.34855
0.347116
0.345874
0.345005
0.344428
0.344568
0.345077
0.346123
0.347951
0.350485
0.353566
0.356918
0.360046
0.362061
0.362141
0.360578
0.357378
0.353035
0.348535
0.345942
0.349328
0.362009
0.387261
0.420761
0.459758
0.590568
1.5321
0.363856
0.366774
0.369918
0.373259
0.361141
0.358625
0.356267
0.354096
0.352063
0.350229
0.348539
0.347099
0.34585
0.344973
0.344392
0.344536
0.345074
0.346202
0.348214
0.351084
0.354732
0.358982
0.363473
0.367613
0.370321
0.370707
0.36906
0.365493
0.360406
0.35495
0.351755
0.354279
0.365088
0.386941
0.416983
0.454863
0.593614
1.56372
0.36114
0.363877
0.366808
0.369939
0.373267
0.358624
0.356265
0.354093
0.352059
0.350223
0.348529
0.347084
0.345829
0.344945
0.344357
0.344502
0.345054
0.346232
0.34837
0.351482
0.355555
0.360497
0.366059
0.371796
0.376971
0.380353
0.380885
0.379044
0.37483
0.36883
0.362958
0.359098
0.359759
0.368374
0.386997
0.413636
0.450675
0.597166
1.59273
0.358624
0.361167
0.363922
0.366843
0.369961
0.373275
0.356264
0.354091
0.352055
0.350217
0.34852
0.347072
0.345811
0.34492
0.344327
0.34447
0.345029
0.346239
0.348463
0.351759
0.356155
0.361633
0.368041
0.375056
0.382098
0.388332
0.392261
0.392832
0.390502
0.385473
0.379309
0.37301
0.367265
0.365726
0.372106
0.387288
0.410653
0.447112
0.600839
1.61961
0.356263
0.358655
0.361223
0.363968
0.366878
0.369984
0.373284
0.354089
0.352052
0.350212
0.348512
0.347061
0.345795
0.344899
0.344301
0.344441
0.345006
0.346238
0.348523
0.351959
0.35662
0.362526
0.369613
0.37766
0.386219
0.394626
0.401833
0.406228
0.406532
0.403549
0.398683
0.392418
0.384159
0.376179
0.372098
0.375953
0.38791
0.408208
0.444034
0.60489
1.64492
0.354087
0.356299
0.358719
0.36128
0.364015
0.366915
0.370007
0.373292
0.35205
0.350208
0.348506
0.347052
0.345781
0.34488
0.344278
0.344416
0.344984
0.346234
0.348567
0.352113
0.356995
0.363274
0.370928
0.379832
0.389647
0.399846
0.409557
0.417695
0.422258
0.422126
0.41973
0.415194
0.406926
0.396292
0.385738
0.378925
0.37994
0.38895
0.406221
0.441489
0.608913
1.66867
0.352048
0.354125
0.356371
0.358785
0.361338
0.364064
0.366952
0.370031
0.373301
0.350204
0.3485
0.347044
0.345769
0.344865
0.344258
0.344395
0.344966
0.346231
0.348604
0.352242
0.357307
0.363919
0.372097
0.381743
0.392632
0.40435
0.416166
0.427178
0.435958
0.440536
0.441469
0.439943
0.43344
0.422683
0.409286
0.395862
0.386119
0.384102
0.390269
0.404672
0.439323
0.61318
1.69126
0.350201
0.352088
0.354205
0.356446
0.358853
0.361398
0.364114
0.36699
0.370056
0.37331
0.348495
0.347038
0.345758
0.344852
0.34424
0.344376
0.34495
0.346229
0.348637
0.352356
0.35758
0.36448
0.373153
0.38352
0.39537
0.408425
0.422059
0.435528
0.447571
0.45689
0.463268
0.465672
0.462272
0.453228
0.439526
0.423015
0.40646
0.393605
0.388425
0.391855
0.403553
0.437599
0.6173
1.7125
0.348491
0.350243
0.352173
0.354286
0.356523
0.358923
0.36146
0.364165
0.36703
0.370081
0.373319
0.347031
0.345748
0.34484
0.344225
0.34436
0.344937
0.346228
0.348668
0.35246
0.357826
0.364983
0.3741
0.38518
0.39801
0.412303
0.427578
0.443209
0.458068
0.471083
0.483068
0.491867
0.492471
0.486502
0.474357
0.457286
0.437343
0.417427
0.401313
0.392884
0.393538
0.402817
0.436157
0.621568
1.73277
0.347026
0.348533
0.350331
0.352261
0.35437
0.356602
0.358995
0.361523
0.364218
0.36707
0.370107
0.373328
0.345739
0.344831
0.344211
0.344346
0.344926
0.346228
0.348697
0.352554
0.35805
0.365442
0.374965
0.386703
0.400546
0.416157
0.432995
0.45063
0.468011
0.484252
0.500659
0.516241
0.52376
0.521679
0.512404
0.496618
0.47578
0.452126
0.428663
0.409173
0.397493
0.39532
0.402365
0.435057
0.625607
1.75177
0.345732
0.347066
0.348622
0.350422
0.352352
0.354457
0.356684
0.359068
0.361588
0.364272
0.367112
0.370133
0.373338
0.344823
0.344198
0.344333
0.344916
0.346229
0.348724
0.352642
0.358255
0.365863
0.375761
0.388111
0.402919
0.419948
0.438515
0.458123
0.477895
0.497086
0.517438
0.538475
0.553518
0.55874
0.553073
0.539763
0.519796
0.494826
0.467224
0.440068
0.417127
0.4022
0.397197
0.402178
0.434154
0.629733
1.76993
0.344817
0.345766
0.347152
0.348714
0.350517
0.352445
0.354546
0.356768
0.359144
0.361655
0.364327
0.367155
0.37016
0.373347
0.344186
0.344322
0.344908
0.346231
0.348749
0.352722
0.358443
0.36625
0.376496
0.38942
0.405144
0.423552
0.444055
0.46595
0.488135
0.510198
0.534266
0.560345
0.581405
0.594774
0.596583
0.586403
0.568348
0.543679
0.514244
0.482501
0.451549
0.425114
0.406962
0.399148
0.402223
0.433515
0.633578
1.78686
0.344176
0.344845
0.345841
0.347241
0.34881
0.350614
0.352542
0.354637
0.356854
0.359222
0.361724
0.364384
0.367199
0.370187
0.373356
0.344312
0.344901
0.346233
0.348773
0.352796
0.358615
0.366606
0.377173
0.390636
0.40723
0.426965
0.449405
0.473978
0.499064
0.524117
0.551945
0.582998
0.609687
0.629485
0.639883
0.637065
0.621394
0.597909
0.568057
0.53387
0.497833
0.463018
0.43308
0.411739
0.401165
0.402357
0.433017
0.63748
1.80306
0.344306
0.344177
0.344906
0.345917
0.347334
0.348909
0.350714
0.352641
0.354732
0.356943
0.359302
0.361795
0.364442
0.367242
0.370213
0.373365
0.344894
0.346234
0.348795
0.352863
0.358772
0.366931
0.377796
0.391764
0.409183
0.430193
0.454543
0.481861
0.510454
0.539304
0.571224
0.607578
0.639955
0.665825
0.682826
0.688763
0.679962
0.657778
0.628204
0.592748
0.553555
0.513109
0.474398
0.440975
0.416499
0.40322
0.402613
0.432745
0.641067
1.81806
0.344891
0.34429
0.344186
0.344969
0.346
0.34743
0.349013
0.350817
0.352744
0.354828
0.357035
0.359384
0.361867
0.3645
0.367284
0.370239
0.373374
0.346235
0.348814
0.352925
0.358915
0.367229
0.378368
0.392807
0.411002
0.433236
0.459461
0.489512
0.521775
0.555515
0.592828
0.635223
0.67393
0.706173
0.729453
0.74175
0.741413
0.725085
0.695315
0.659002
0.617573
0.573169
0.528232
0.485623
0.448755
0.42121
0.405317
0.402954
0.432547
0.6447
1.83245
0.346242
0.344846
0.344258
0.344196
0.345037
0.346089
0.347529
0.349121
0.350923
0.35285
0.354928
0.357129
0.359468
0.361939
0.364556
0.367325
0.370263
0.373382
0.348829
0.352979
0.359046
0.3675
0.378891
0.393767
0.412691
0.436092
0.46414
0.49689
0.532915
0.57205
0.616436
0.667111
0.713603
0.753513
0.783669
0.801847
0.806831
0.797937
0.772296
0.733795
0.690103
0.642373
0.592593
0.543119
0.496634
0.456382
0.425849
0.40743
0.403359
0.432515
0.647995
1.84568
0.348851
0.346151
0.344741
0.34422
0.344224
0.345107
0.346184
0.347632
0.349232
0.351033
0.352959
0.355031
0.357225
0.359552
0.362009
0.364611
0.367364
0.370287
0.37339
0.353026
0.359162
0.367748
0.37937
0.39465
0.414255
0.438762
0.468565
0.503962
0.543842
0.588702
0.640847
0.703053
0.761655
0.812028
0.851007
0.875561
0.884687
0.878761
0.858476
0.821479
0.773032
0.72133
0.667008
0.611731
0.557701
0.507384
0.463825
0.430393
0.409544
0.403812
0.432547
0.651342
1.8584
0.353082
0.348685
0.345933
0.344628
0.344184
0.344269
0.345178
0.346285
0.347738
0.349348
0.351145
0.353072
0.355136
0.35732
0.359633
0.362076
0.364664
0.367403
0.370311
0.373398
0.359266
0.36797
0.379807
0.39546
0.415697
0.441247
0.472729
0.510709
0.554504
0.605282
0.665626
0.741914
0.819628
0.887835
0.939351
0.972097
0.984942
0.979384
0.958023
0.923063
0.87249
0.81285
0.752527
0.691356
0.630501
0.571921
0.517833
0.471057
0.434826
0.411639
0.40431
0.432626
0.654342
1.86861
0.359377
0.352826
0.348274
0.345702
0.344529
0.344145
0.344329
0.345252
0.346393
0.347848
0.349468
0.351262
0.353187
0.35524
0.357413
0.359712
0.362142
0.364715
0.36744
0.370333
0.373406
0.368169
0.380202
0.396202
0.417026
0.443552
0.476632
0.517118
0.564831
0.621593
0.69071
0.784071
0.887057
0.984588
1.05842
1.10282
1.12026
1.11318
1.08629
1.04454
0.99149
0.92511
0.853062
0.783554
0.715312
0.648835
0.585734
0.527952
0.478057
0.439131
0.413705
0.404831
0.432778
0.656983
1.87721
0.368372
0.359001
0.352159
0.347846
0.345496
0.34444
0.344109
0.344399
0.345329
0.346506
0.347962
0.349592
0.351382
0.353301
0.355342
0.357503
0.359789
0.362206
0.364765
0.367477
0.370355
0.373414
0.380558
0.396875
0.418245
0.445687
0.480277
0.523177
0.574755
0.63751
0.71625
0.830018
0.963735
1.09874
1.21018
1.27815
1.30318
1.29463
1.25904
1.20434
1.13756
1.06325
0.979026
0.893469
0.814277
0.738785
0.666675
0.599106
0.537719
0.484811
0.443298
0.41573
0.405377
0.432938
0.659117
1.88649
0.380907
0.367843
0.357971
0.351468
0.347453
0.345307
0.344358
0.344082
0.344478
0.345411
0.346624
0.348081
0.349719
0.351501
0.353412
0.355441
0.35759
0.359864
0.362268
0.364814
0.367512
0.370377
0.373421
0.397488
0.41936
0.447657
0.483674
0.528881
0.584231
0.652992
0.742415
0.879562
1.0479
1.22531
1.38292
1.49405
1.54178
1.53498
1.49061
1.41914
1.33128
1.23569
1.13757
1.03383
0.933849
0.844569
0.761699
0.683974
0.61201
0.547115
0.491306
0.447317
0.417704
0.405857
0.433101
0.661511
1.89663
0.39807
0.380184
0.366304
0.356908
0.350825
0.347085
0.345131
0.344285
0.344064
0.344563
0.345501
0.346746
0.348205
0.349845
0.351618
0.35352
0.355538
0.357675
0.359937
0.362328
0.364862
0.367546
0.370398
0.373424
0.420381
0.44947
0.486829
0.534232
0.593242
0.668053
0.769224
0.931796
1.13657
1.35844
1.56611
1.72983
1.82506
1.83918
1.78994
1.70192
1.58906
1.46424
1.33724
1.21351
1.08905
0.973968
0.874308
0.783991
0.700697
0.624426
0.556131
0.497536
0.451182
0.419367
0.406288
0.433298
0.664056
1.90765
0.421328
0.397111
0.377937
0.364726
0.355913
0.350214
0.346738
0.344966
0.344223
0.344058
0.344653
0.345598
0.346871
0.34833
0.349968
0.351733
0.353625
0.355632
0.357758
0.360007
0.362387
0.364908
0.36758
0.370408
0.373424
0.451144
0.48975
0.539234
0.60179
0.682712
0.796515
0.985462
1.22671
1.4928
1.75142
1.97157
2.12534
2.19076
2.15993
2.05977
1.92231
1.76437
1.6003
1.4404
1.29005
1.14419
1.01359
0.903384
0.805604
0.716813
0.63634
0.564761
0.503495
0.454399
0.420804
0.406777
0.43356
0.666943
1.91974
0.452664
0.420084
0.393884
0.37565
0.363243
0.354962
0.34963
0.346411
0.344815
0.344171
0.344063
0.344745
0.345704
0.346996
0.348453
0.350087
0.351844
0.353727
0.355724
0.357838
0.360076
0.362444
0.364953
0.367596
0.370408
0.373424
0.492463
0.543898
0.609888
0.696973
0.824003
1.03932
1.31585
1.6245
1.9329
2.21014
2.42688
2.55672
2.58032
2.49501
2.33732
2.14638
1.94117
1.73681
1.54352
1.36625
1.19875
1.05249
0.93169
0.82649
0.732304
0.647748
0.573002
0.508433
0.457155
0.422404
0.407349
0.433874
0.669993
1.93289
0.494885
0.451065
0.415502
0.390627
0.373495
0.361818
0.354045
0.349069
0.346104
0.344676
0.344131
0.344085
0.344838
0.345815
0.347117
0.348575
0.350203
0.351954
0.353826
0.355813
0.357917
0.360143
0.362499
0.364975
0.367596
0.370408
0.373424
0.548261
0.617557
0.710823
0.85136
1.09233
1.4023
1.75107
2.10682
2.43954
2.72004
2.91975
3.01342
2.98474
2.83706
2.61682
2.36978
2.11633
1.87159
1.64517
1.44125
1.25231
1.09046
0.959133
0.846614
0.747157
0.658644
0.57982
0.512649
0.460202
0.424194
0.408004
0.434276
0.673477
1.94736
0.552109
0.492849
0.444612
0.410921
0.387554
0.371419
0.36044
0.353161
0.348532
0.345821
0.34455
0.3441
0.344132
0.344928
0.345929
0.347235
0.348695
0.350317
0.35206
0.353923
0.3559
0.357992
0.360208
0.362526
0.364975
0.367596
0.370408
0.373424
0.624849
0.724251
0.878286
1.14371
1.48496
1.87113
2.27113
2.65626
2.99853
3.26925
3.4399
3.48647
3.39646
3.18003
2.89369
2.58917
2.28746
2.00298
1.74423
1.51436
1.30447
1.12731
0.985636
0.865948
0.761363
0.667663
0.585635
0.517297
0.463576
0.426198
0.408778
0.434753
0.677153
1.96307
0.631286
0.549505
0.483774
0.438224
0.406594
0.384587
0.369406
0.359108
0.35231
0.348016
0.345559
0.344435
0.344063
0.344199
0.345016
0.346044
0.34735
0.348812
0.350427
0.352164
0.354017
0.355984
0.358066
0.360241
0.362526
0.364975
0.367596
0.370408
0.373424
0.737255
0.904542
1.19293
1.5632
1.98395
2.42485
2.85852
3.25867
3.59803
3.84749
3.97825
3.96803
3.80905
3.51901
3.16441
2.80209
2.45281
2.12973
1.83986
1.58503
1.35493
1.1629
1.01114
0.884469
0.773132
0.675359
0.592039
0.522426
0.467322
0.428451
0.409666
0.435352
0.681396
1.98039
0.748782
0.627982
0.536614
0.4749
0.432182
0.40241
0.381706
0.367455
0.357821
0.351493
0.347526
0.345315
0.344333
0.344029
0.344277
0.345103
0.346159
0.347463
0.348927
0.350535
0.352265
0.354108
0.356067
0.358103
0.360241
0.362526
0.364975
0.367596
0.370408
0.373421
0.929933
1.23966
1.63668
2.08925
2.56766
3.04562
3.49867
3.90182
4.22749
4.44543
4.52656
4.45107
4.21698
3.85005
3.42631
3.00674
2.61118
2.25103
1.93145
1.65286
1.40346
1.19711
1.03559
0.899832
0.78318
0.683834
0.5991
0.528098
0.471488
0.430986
0.410718
0.436009
0.685866
1.99914
0.744723
0.952271
0.608865
0.524273
0.466493
0.426336
0.398342
0.378909
0.365567
0.356581
0.350711
0.347066
0.345096
0.344246
0.344005
0.344361
0.345191
0.346273
0.347575
0.34904
0.35064
0.352364
0.354197
0.356107
0.358103
0.360241
0.362526
0.364975
0.367596
0.370398
0.373413
1.28368
1.70531
2.18701
2.6996
3.21759
3.71806
4.17857
4.57452
4.87712
5.05437
5.07716
4.92925
4.61555
4.17001
3.67741
3.20194
2.76182
2.36634
2.01864
1.71757
1.44988
1.22986
1.05588
0.912958
0.794253
0.693184
0.6069
0.534379
0.47613
0.433851
0.411931
0.436779
0.691079
2.01987
0.714695
0.94821
1.32162
0.591131
0.512611
0.45835
0.420649
0.394388
0.376197
0.363744
0.355391
0.349967
0.34664
0.344903
0.344175
0.343995
0.344446
0.34528
0.346384
0.347684
0.34915
0.350742
0.35246
0.354241
0.356107
0.358103
0.360241
0.362526
0.364975
0.36758
0.370377
0.373406
1.76908
2.27743
2.821
3.37483
3.91722
4.42799
4.88609
5.26637
5.53777
5.66609
5.62292
5.39699
5.00085
4.47648
3.91638
3.38693
2.9043
2.47537
2.1012
1.77902
1.49408
1.25696
1.07321
0.927431
0.806474
0.703514
0.615529
0.541349
0.481315
0.437089
0.413372
0.437642
0.696561
2.04219
0.687164
0.90051
1.31774
1.82346
0.574638
0.501308
0.450428
0.415118
0.390553
0.373576
0.361989
0.354252
0.349269
0.346259
0.344738
0.34412
0.343996
0.344532
0.345371
0.346494
0.347792
0.349257
0.350843
0.352507
0.354241
0.356107
0.358103
0.360241
0.362526
0.364952
0.367546
0.370355
0.373398
2.36073
2.93235
3.5181
4.09707
4.65097
5.16207
5.60998
5.96774
6.20084
6.27286
6.15736
5.84942
5.36976
4.76772
4.14235
3.56134
3.03842
2.57803
2.17908
1.83713
1.53048
1.28008
1.09231
0.943412
0.819981
0.714944
0.625092
0.549097
0.487119
0.440773
0.415039
0.438662
0.70303
2.06691
0.661932
0.855474
1.24863
1.82072
2.43109
0.558828
0.490302
0.442726
0.40975
0.386841
0.371049
0.360307
0.353177
0.348635
0.345925
0.344596
0.344079
0.34401
0.344616
0.345464
0.346601
0.347898
0.349362
0.350892
0.352507
0.354241
0.356107
0.358103
0.360241
0.362499
0.364907
0.367511
0.370333
0.37339
3.03418
3.64833
4.25895
4.84914
5.40399
5.90793
6.34002
6.66977
6.85824
6.86745
6.6746
6.28245
5.71989
5.0426
4.35489
3.72504
3.16423
2.67438
2.25227
1.88468
1.56141
1.3055
1.11338
0.96108
0.834932
0.727613
0.635712
0.55773
0.493634
0.444962
0.417029
0.439836
0.709811
2.09333
0.638254
0.813337
1.18073
1.7327
2.43043
3.11946
0.543531
0.479594
0.435255
0.404553
0.383261
0.368622
0.358712
0.352191
0.348069
0.345633
0.344475
0.344051
0.344038
0.344697
0.345558
0.346706
0.348003
0.349414
0.350891
0.352507
0.354241
0.356107
0.358103
0.360208
0.362443
0.36486
0.367476
0.37031
0.373382
3.76642
4.40442
5.02467
5.6145
6.16264
6.65463
7.06716
7.36435
7.5024
7.44317
7.16953
6.69287
6.04962
5.30049
4.55386
3.87815
3.28188
2.76453
2.31184
1.92489
1.59528
1.33347
1.13666
0.980633
0.851504
0.741681
0.647529
0.567371
0.500964
0.449759
0.419344
0.441235
0.717931
2.12268
0.615836
0.773601
1.11448
1.64446
2.32607
3.12138
3.86414
0.528704
0.469205
0.428029
0.39954
0.379822
0.366318
0.357246
0.351307
0.347563
0.34538
0.344373
0.34403
0.344085
0.344776
0.345654
0.346811
0.348054
0.349412
0.350891
0.352507
0.354241
0.356107
0.358066
0.360142
0.362385
0.364813
0.367439
0.370287
0.373374
4.53492
5.18002
5.7969
6.37801
6.91494
7.39283
7.78346
8.04396
8.12618
7.99398
7.63794
7.07833
6.35794
5.54115
4.73942
4.02093
3.39162
2.83761
2.36204
1.96873
1.63238
1.36425
1.16237
1.00229
0.869901
0.757329
0.660705
0.578164
0.509239
0.45525
0.422121
0.442888
0.726391
2.15369
0.594538
0.736191
1.04958
1.55637
2.22045
3.00271
3.86791
4.64085
0.514345
0.459161
0.421065
0.394724
0.376555
0.364195
0.355925
0.350512
0.347109
0.345163
0.344286
0.344004
0.344143
0.344853
0.345754
0.346861
0.348052
0.349412
0.350891
0.352507
0.354241
0.356066
0.357991
0.360074
0.362326
0.364764
0.367402
0.370263
0.373365
5.31734
5.95481
6.55886
7.12646
7.6511
8.1148
8.48187
8.70159
8.72291
8.5146
8.07655
7.43729
6.64444
5.76477
4.91194
4.15374
3.48031
2.89905
2.41657
2.0165
1.673
1.39813
1.19078
1.02632
0.89035
0.774767
0.67543
0.590279
0.518605
0.461584
0.425381
0.444871
0.736709
2.19411
0.574271
0.701164
0.986183
1.46793
2.11388
2.88238
3.73628
4.64427
5.42563
0.500474
0.449491
0.41438
0.390149
0.373544
0.362281
0.354735
0.349799
0.346705
0.344976
0.344215
0.343983
0.344208
0.344937
0.345802
0.346856
0.348052
0.349412
0.350891
0.352507
0.354197
0.355983
0.357914
0.360005
0.362266
0.364713
0.367363
0.370238
0.373356
6.09137
6.71041
7.29593
7.84934
8.36356
8.81413
9.15601
9.33049
9.28646
9.00071
8.48308
7.769
6.90924
5.97178
5.07189
4.26079
3.55473
2.96559
2.47575
2.06852
1.71745
1.4354
1.22219
1.05297
0.91311
0.79423
0.691922
0.603912
0.529248
0.468894
0.429318
0.447257
0.749269
2.24304
0.55497
0.668579
0.92474
1.37905
2.00575
2.76049
3.60334
4.50012
5.42502
6.19547
0.487121
0.440226
0.408036
0.385934
0.370826
0.360554
0.353663
0.349158
0.346347
0.344817
0.344155
0.343974
0.344285
0.344971
0.345797
0.346856
0.348052
0.349412
0.350892
0.352459
0.354107
0.355898
0.357836
0.359934
0.362203
0.364662
0.367324
0.370213
0.373347
6.83708
7.43057
7.9966
8.5391
9.04632
9.48548
9.79986
9.92418
9.81139
9.44901
8.85626
8.07349
7.15289
6.16281
5.20037
4.35044
3.63516
3.03762
2.53995
2.12512
1.76604
1.47638
1.25691
1.08256
0.938463
0.815991
0.710433
0.619303
0.541377
0.477396
0.433986
0.450745
0.766586
2.29232
0.536585
0.638439
0.86584
1.28998
1.89568
2.63634
3.46888
4.35591
5.26747
6.18624
6.92884
0.474321
0.431456
0.402197
0.382132
0.368374
0.358996
0.352699
0.348586
0.346034
0.344678
0.344109
0.343989
0.344322
0.344957
0.345799
0.346856
0.348052
0.349414
0.350842
0.352362
0.354014
0.35581
0.357755
0.359861
0.36214
0.364609
0.367283
0.370187
0.373338
7.53649
8.10265
8.65335
9.18985
9.69487
10.1243
10.4075
10.4763
10.2932
9.85742
9.19586
8.35135
7.37618
6.31547
5.30768
4.44711
3.72201
3.1155
2.6095
2.18664
1.81911
1.52139
1.29526
1.1154
0.966724
0.840347
0.731255
0.636719
0.555256
0.4873
0.440742
0.455447
0.785098
2.34162
0.519084
0.610662
0.810157
1.20123
1.78353
2.50922
3.33217
4.21103
5.11231
6.01265
6.90501
7.60647
0.462204
0.423407
0.396935
0.378704
0.366162
0.357592
0.351832
0.348075
0.345756
0.344561
0.344093
0.343984
0.344313
0.344956
0.345799
0.346856
0.348054
0.349361
0.350741
0.352262
0.35392
0.35572
0.357672
0.359786
0.362074
0.364555
0.367241
0.37016
0.373328
8.17574
8.71877
9.25479
9.78825
10.2955
10.7209
10.9719
10.9807
10.7285
10.2252
9.50247
8.60362
7.5533
6.4425
5.42306
4.55122
3.81568
3.1996
2.68474
2.25339
1.87698
1.57077
1.33758
1.15184
0.998228
0.867635
0.754708
0.656495
0.5712
0.501091
0.450133
0.461589
0.806498
2.39023
0.502565
0.585095
0.758358
1.11353
1.66943
2.37862
3.19222
4.06477
4.9583
5.84549
6.71171
7.56048
8.21396
0.451096
0.416173
0.392195
0.375613
0.364166
0.356328
0.351054
0.347618
0.345515
0.344491
0.344072
0.343957
0.344317
0.344956
0.345797
0.346861
0.348003
0.349255
0.350637
0.35216
0.353823
0.355628
0.357587
0.359709
0.362007
0.364499
0.367198
0.370133
0.373319
8.74454
9.26781
9.80253
10.344
10.8513
11.2675
11.4854
11.4327
11.1157
10.5528
9.77736
8.80164
7.69984
6.57846
5.54689
4.66318
3.91653
3.29029
2.76603
2.32571
1.93996
1.62484
1.38419
1.1922
1.03333
0.898204
0.781177
0.678993
0.592981
0.519758
0.461614
0.468811
0.829488
2.43805
0.487414
0.561672
0.711001
1.02785
1.55365
2.24423
3.04813
3.91593
4.80484
5.68258
6.53032
7.34331
8.13261
8.74312
0.441137
0.409674
0.387926
0.372827
0.362368
0.35519
0.350353
0.347214
0.345347
0.344437
0.34404
0.343958
0.344317
0.344957
0.345802
0.34681
0.347896
0.349147
0.350531
0.352056
0.353723
0.355534
0.3575
0.359631
0.361938
0.364442
0.367155
0.370106
0.373309
9.23951
9.75021
10.2946
10.857
11.3688
11.7625
11.9418
11.8292
11.4548
10.8416
9.99008
8.96419
7.85565
6.72361
5.67949
4.78332
4.02493
3.38789
2.85366
2.40388
2.00834
1.68388
1.43542
1.23684
1.07237
0.932439
0.811022
0.709399
0.621798
0.541427
0.475316
0.477699
0.856193
2.48431
0.473804
0.540658
0.668698
0.9454
1.43671
2.10589
2.89908
3.76324
4.65053
5.52332
6.35761
7.14456
7.8887
8.6046
9.17666
0.432223
0.403834
0.384083
0.370318
0.360748
0.354161
0.349729
0.346912
0.345235
0.344393
0.344042
0.343958
0.344313
0.344971
0.345753
0.346704
0.347789
0.349036
0.350423
0.351949
0.353621
0.355438
0.35741
0.35955
0.361867
0.364384
0.367111
0.37008
0.3733
9.64778
10.1599
10.729
11.3219
11.8407
12.1999
12.3351
12.1696
11.747
11.0606
10.1628
9.13539
8.02066
6.87807
5.82109
4.91193
4.14118
3.49269
2.94791
2.48816
2.08237
1.74817
1.49154
1.28605
1.1157
0.970662
0.850958
0.748845
0.654181
0.566343
0.492129
0.488472
0.88487
2.52887
0.461602
0.521993
0.632313
0.868212
1.3195
1.96365
2.74437
3.6054
4.4938
5.36611
6.19291
6.96024
7.66934
8.33213
8.97092
9.50673
0.424249
0.398587
0.380627
0.368058
0.359284
0.353242
0.349246
0.346726
0.34517
0.344398
0.344042
0.343957
0.344322
0.344936
0.345652
0.346598
0.34768
0.348923
0.350313
0.35184
0.353516
0.355339
0.357318
0.359468
0.361795
0.364326
0.367069
0.370055
0.373292
9.96562
10.4958
11.1072
11.7377
12.258
12.5709
12.6599
12.4539
11.9623
11.2357
10.3422
9.31464
8.1946
7.0418
5.97181
5.04921
4.26549
3.60493
3.04899
2.57874
2.16224
1.8179
1.55276
1.34008
1.16357
1.02122
0.901736
0.792046
0.690257
0.595066
0.512195
0.501659
0.918331
2.57086
0.450687
0.50528
0.601724
0.799561
1.20411
1.81779
2.58338
3.4411
4.33291
5.20912
6.03431
6.78952
7.47115
8.08936
8.66299
9.22245
9.72804
0.417116
0.393874
0.377517
0.366015
0.357973
0.352517
0.348959
0.34664
0.345177
0.344398
0.34404
0.343985
0.344285
0.344852
0.345556
0.34649
0.347571
0.348808
0.350199
0.351729
0.353409
0.355238
0.357224
0.359384
0.361723
0.36427
0.367029
0.37003
0.373283
10.1889
10.7597
11.4313
12.1001
12.6083
12.867
12.9126
12.6539
12.1302
11.414
10.527
9.50102
8.3769
7.21452
6.1316
5.19522
4.39799
3.72475
3.15704
2.67573
2.24805
1.89318
1.61924
1.39907
1.22611
1.0842
0.956016
0.8388
0.730101
0.627709
0.536432
0.517919
0.954392
2.61023
0.440947
0.490254
0.575788
0.740894
1.09523
1.66999
2.4157
3.26899
4.16599
5.05031
5.8798
6.63004
7.29317
7.87512
8.39316
8.8733
9.34842
9.83101
0.410735
0.389641
0.374712
0.364187
0.356922
0.352094
0.348845
0.346652
0.345177
0.344392
0.344073
0.343989
0.344206
0.344774
0.345461
0.34638
0.347459
0.34869
0.350083
0.351615
0.353299
0.355135
0.357128
0.359301
0.361654
0.364216
0.366989
0.370006
0.373275
10.3156
10.9548
11.7023
12.3944
12.8777
13.0852
13.0709
12.803
12.296
11.5932
10.7154
9.69314
8.56663
7.39571
6.30018
5.34987
4.53867
3.85215
3.27208
2.77915
2.33979
1.97401
1.69095
1.47513
1.30245
1.15001
1.01322
0.888715
0.773486
0.664506
0.56496
0.537653
0.996587
2.64607
0.432273
0.476736
0.553496
0.691693
0.99627
1.52528
2.24238
3.08777
3.99096
4.88733
5.72709
6.47956
7.1325
7.68846
8.16094
8.57257
8.95591
9.33703
9.80745
0.405025
0.38583
0.372201
0.362706
0.356317
0.351944
0.348862
0.346652
0.345169
0.344438
0.344094
0.343974
0.344141
0.344695
0.345367
0.346268
0.347346
0.348571
0.349965
0.351499
0.353186
0.35503
0.357033
0.35922
0.361586
0.364163
0.366951
0.369983
0.373267
10.3432
11.0881
11.9009
12.6027
13.0467
13.2048
13.175
12.9401
12.4566
11.7701
10.9047
9.88913
8.76246
7.5845