/*--------------------------------*- C++ -*----------------------------------*\
  =========                 |
  \\      /  F ield         | OpenFOAM: The Open Source CFD Toolbox
   \\    /   O peration     | Website:  https://openfoam.org
    \\  /    A nd           | Version:  8
     \\/     M anipulation  |
\*---------------------------------------------------------------------------*/
FoamFile
{
    version     2.0;
    format      ascii;
    class       surfaceScalarField;
    location    "0.02";
    object      phi;
}
// * * * * * * * * * * * * * * * * * * * * * * * * * * * * * * * * * * * * * //

dimensions      [1 0 -1 0 0 0 0];

internalField   nonuniform List<scalar> 
31053
(
1.31471e-06
1.43317e-05
1.71787e-06
1.75807e-05
6.8087e-07
1.33677e-05
1.84527e-06
2.04989e-05
1.08952e-06
1.68436e-05
5.01029e-07
1.26692e-05
1.85648e-06
2.36557e-05
1.30704e-06
1.99031e-05
8.97541e-07
1.62128e-05
3.90822e-07
1.2084e-05
1.80744e-06
2.72243e-05
1.41612e-06
2.31116e-05
1.15391e-06
1.93731e-05
7.5945e-07
1.56294e-05
3.08927e-07
1.15615e-05
1.72174e-06
3.12607e-05
1.46588e-06
2.66743e-05
1.29975e-06
2.26488e-05
1.02102e-06
1.88718e-05
6.57884e-07
1.50378e-05
2.09877e-07
1.1124e-05
1.61097e-06
3.59171e-05
1.4798e-06
3.06725e-05
1.37895e-06
2.62289e-05
1.17443e-06
2.22251e-05
9.30471e-07
1.83237e-05
5.00272e-07
1.44914e-05
1.70048e-07
1.07511e-05
1.48255e-06
4.12211e-05
1.46842e-06
3.52684e-05
1.41741e-06
3.02123e-05
1.25779e-06
2.5838e-05
1.09712e-06
2.17447e-05
7.58861e-07
1.7777e-05
4.1675e-07
1.40058e-05
1.17883e-07
1.04528e-05
1.34175e-06
4.72917e-05
1.43699e-06
4.0495e-05
1.42775e-06
3.4772e-05
1.30055e-06
2.98184e-05
1.18381e-06
2.53925e-05
9.34198e-07
2.12436e-05
6.54867e-07
1.72588e-05
3.04625e-07
1.36101e-05
9.07026e-08
1.02091e-05
1.19345e-06
5.42697e-05
1.38801e-06
4.64712e-05
1.41647e-06
3.99471e-05
1.31739e-06
3.43526e-05
1.22333e-06
2.93685e-05
1.02948e-06
2.49265e-05
8.30911e-07
2.07409e-05
5.00725e-07
1.68205e-05
2.35227e-07
1.32838e-05
6.41513e-08
1.0016e-05
1.0425e-06
6.22951e-05
1.32316e-06
5.33365e-05
1.38682e-06
4.58579e-05
1.31519e-06
3.94875e-05
1.23477e-06
3.38705e-05
1.07292e-06
2.89022e-05
9.31183e-07
2.44474e-05
6.59662e-07
2.03013e-05
3.9192e-07
1.64493e-05
1.7551e-07
1.30242e-05
2.64156e-08
9.8555e-06
8.94486e-07
7.14611e-05
1.24316e-06
6.12291e-05
1.34109e-06
5.26432e-05
1.29675e-06
4.53461e-05
1.22728e-06
3.89555e-05
1.08557e-06
3.33738e-05
9.75381e-07
2.84215e-05
7.57687e-07
2.40246e-05
5.24883e-07
1.99171e-05
3.0102e-07
1.61519e-05
8.9343e-08
1.28104e-05
2.7755e-09
9.7173e-06
7.54694e-07
8.19804e-05
1.14885e-06
7.02402e-05
1.2807e-06
6.04399e-05
1.2634e-06
5.20674e-05
1.20457e-06
4.47502e-05
1.07841e-06
3.84088e-05
9.84258e-07
3.28628e-05
8.04205e-07
2.80008e-05
6.08581e-07
2.36484e-05
4.09307e-07
1.96054e-05
1.64718e-07
1.59074e-05
3.43481e-08
1.26257e-05
-2.18908e-08
9.60718e-06
6.27534e-07
9.40717e-05
1.04077e-06
8.05791e-05
1.20727e-06
6.93381e-05
1.21566e-06
5.97873e-05
1.16826e-06
5.13942e-05
1.05597e-06
4.41383e-05
9.70247e-07
3.78468e-05
8.15819e-07
3.24198e-05
6.45468e-07
2.76259e-05
4.75394e-07
2.33405e-05
2.33198e-07
1.93497e-05
7.76186e-08
1.56921e-05
-2.32308e-08
1.24763e-05
-4.37412e-08
9.52291e-06
5.2903e-07
8.91992e-05
9.20546e-07
9.24594e-05
1.12231e-06
7.95441e-05
1.15459e-06
6.85948e-05
1.11848e-06
5.90226e-05
1.02007e-06
5.07033e-05
9.39234e-07
4.3509e-05
8.03976e-07
3.73627e-05
6.49712e-07
3.20267e-05
4.99288e-07
2.7319e-05
2.75558e-07
2.309e-05
1.16413e-07
1.91183e-05
-1.59124e-08
1.55137e-05
-7.3742e-08
1.23613e-05
-6.73867e-08
9.46102e-06
4.49659e-07
8.91801e-05
8.16745e-07
8.76598e-05
1.02785e-06
9.12682e-05
1.08157e-06
7.8693e-05
1.05547e-06
6.77233e-05
9.70719e-07
5.82384e-05
8.94047e-07
4.99918e-05
7.74296e-07
4.29689e-05
6.31303e-07
3.69345e-05
4.91369e-07
3.17053e-05
2.85483e-07
2.70739e-05
1.32974e-07
2.28574e-05
-1.06699e-08
1.892e-05
-9.85264e-08
1.53741e-05
-1.26592e-07
1.22756e-05
-8.33494e-08
9.42273e-06
3.86753e-07
8.91635e-05
7.20759e-07
8.76329e-05
9.42998e-07
8.65252e-05
9.98539e-07
9.02897e-05
9.79557e-07
7.76964e-05
9.07565e-07
6.68309e-05
8.35484e-07
5.74294e-05
7.29315e-07
4.93824e-05
5.95139e-07
4.24924e-05
4.60641e-07
3.65844e-05
2.68206e-07
3.14532e-05
1.20949e-07
2.68423e-05
-2.14354e-08
2.26499e-05
-1.2591e-07
1.87599e-05
-1.82948e-07
1.52689e-05
-1.66786e-07
1.22183e-05
-9.80058e-08
9.40832e-06
3.38013e-07
8.91518e-05
6.30973e-07
8.76102e-05
8.63656e-07
8.64931e-05
9.22259e-07
8.5594e-05
8.9201e-07
8.91461e-05
8.30138e-07
7.66779e-05
7.6381e-07
6.59087e-05
6.69539e-07
5.67377e-05
5.43568e-07
4.88454e-05
4.11845e-07
4.2102e-05
2.29999e-07
3.63131e-05
8.36888e-08
3.12134e-05
-5.53243e-08
2.66291e-05
-1.6569e-07
2.24758e-05
-2.41096e-07
1.86371e-05
-2.53782e-07
1.51946e-05
-1.99954e-07
1.21902e-05
-1.13238e-07
9.41787e-06
3.01673e-07
8.91369e-05
5.4649e-07
8.75931e-05
7.90087e-07
8.64646e-05
8.49754e-07
8.55577e-05
8.11331e-07
8.4507e-05
7.39095e-07
8.79796e-05
6.78849e-07
7.56238e-05
5.94909e-07
6.51211e-05
4.7708e-07
5.61282e-05
3.47301e-07
4.84042e-05
1.74047e-07
4.18014e-05
2.60312e-08
3.60546e-05
-1.11834e-07
3.09884e-05
-2.24489e-07
2.64441e-05
-3.08233e-07
2.23381e-05
-3.44839e-07
1.85461e-05
-3.08036e-07
1.51524e-05
-2.35072e-07
1.2192e-05
-1.26203e-07
9.44824e-06
2.76401e-07
8.91259e-05
4.65818e-07
8.75745e-05
7.22753e-07
8.64414e-05
7.81271e-07
8.55248e-05
7.34613e-07
8.44666e-05
6.54416e-07
8.3399e-05
5.81021e-07
8.67714e-05
5.04891e-07
7.47245e-05
3.95729e-07
6.44267e-05
2.67587e-07
5.56258e-05
1.01684e-07
4.80656e-05
-4.95366e-08
4.1515e-05
-1.88262e-07
3.58098e-05
-3.03759e-07
3.07891e-05
-3.91123e-07
2.62936e-05
-4.41876e-07
2.22319e-05
-4.23049e-07
1.84874e-05
-3.66902e-07
1.51452e-05
-2.65135e-07
1.222e-05
-1.38102e-07
9.4975e-06
2.59821e-07
8.91171e-05
3.87633e-07
8.7561e-05
6.61912e-07
8.64163e-05
7.16784e-07
8.54973e-05
6.62439e-07
8.4429e-05
5.73082e-07
8.33553e-05
4.89789e-07
8.22524e-05
3.99692e-07
8.57414e-05
2.99183e-07
7.39306e-05
1.72888e-07
6.38523e-05
1.28543e-08
5.52405e-05
-1.41962e-07
4.77429e-05
-2.83388e-07
4.12426e-05
-4.02771e-07
3.55902e-05
-4.93801e-07
3.06241e-05
-5.51743e-07
2.61745e-05
-5.48921e-07
2.2156e-05
-5.08438e-07
1.84679e-05
-4.17675e-07
1.51693e-05
-2.92474e-07
1.22717e-05
-1.49228e-07
9.56413e-06
2.47351e-07
8.13853e-05
3.11238e-07
8.75503e-05
6.08182e-07
8.63959e-05
6.55809e-07
8.54684e-05
5.95086e-07
8.43966e-05
4.95902e-07
8.33133e-05
4.02334e-07
8.22055e-05
3.0173e-07
8.1274e-05
1.87746e-07
8.48307e-05
6.30921e-08
7.32717e-05
-9.25795e-08
6.34114e-05
-2.51389e-07
5.48731e-05
-3.96919e-07
4.74356e-05
-5.21514e-07
4.09967e-05
-6.17036e-07
3.54067e-05
-6.79814e-07
3.04917e-05
-6.88301e-07
2.60826e-05
-6.60231e-07
2.21208e-05
-5.82832e-07
1.84842e-05
-4.63586e-07
1.52215e-05
-3.17863e-07
1.23449e-05
-1.59422e-07
9.6465e-06
2.35542e-07
7.3154e-05
2.46401e-07
7.99495e-05
5.62028e-07
8.63776e-05
5.97975e-07
8.54446e-05
5.32389e-07
8.43629e-05
4.23392e-07
8.32761e-05
3.20041e-07
8.21587e-05
2.07687e-07
8.12236e-05
8.42437e-08
8.04079e-05
-6.11828e-08
8.40721e-05
-2.14789e-07
7.27645e-05
-3.77935e-07
6.29903e-05
-5.29448e-07
5.45229e-05
-6.60515e-07
4.71568e-05
-7.61921e-07
4.07898e-05
-8.29174e-07
3.52589e-05
-8.46099e-07
3.03852e-05
-8.25344e-07
2.60319e-05
-7.60249e-07
2.21255e-05
-6.50191e-07
1.85332e-05
-5.05989e-07
1.52994e-05
-3.4118e-07
1.24377e-05
-1.68573e-07
9.74312e-06
2.23448e-07
6.57564e-05
1.93571e-07
7.18579e-05
5.2685e-07
7.88716e-05
5.42603e-07
8.54236e-05
4.74423e-07
8.43343e-05
3.55477e-07
8.32376e-05
2.43972e-07
8.21156e-05
1.19125e-07
8.11715e-05
-1.4599e-08
8.03528e-05
-1.74663e-07
7.9684e-05
-3.52856e-07
8.34855e-05
-5.21643e-07
7.22789e-05
-6.81312e-07
6.25887e-05
-8.20861e-07
5.4204e-05
-9.29651e-07
4.6921e-05
-1.00226e-06
4.06228e-05
-1.02638e-06
3.51376e-05
-1.00956e-06
3.03207e-05
-9.52421e-07
2.60244e-05
-8.51408e-07
2.21671e-05
-7.12219e-07
1.86119e-05
-5.44895e-07
1.54005e-05
-3.62124e-07
1.25483e-05
-1.76703e-07
9.85242e-06
2.10541e-07
5.91076e-05
1.51222e-07
6.45863e-05
5.00773e-07
7.08834e-05
4.93453e-07
7.79988e-05
4.21135e-07
8.43084e-05
2.92093e-07
8.32044e-05
1.74658e-07
8.20705e-05
3.73043e-08
8.1122e-05
-1.06928e-07
8.02941e-05
-2.81503e-07
7.96225e-05
-4.78116e-07
7.91205e-05
-6.81395e-07
8.2922e-05
-8.52555e-07
7.18151e-05
-1.00318e-06
6.22216e-05
-1.12184e-06
5.3933e-05
-1.20127e-06
4.67305e-05
-1.23226e-06
4.04849e-05
-1.21803e-06
3.50605e-05
-1.16542e-06
3.03033e-05
-1.06939e-06
2.6058e-05
-9.35395e-07
2.22426e-05
-7.69028e-07
1.87175e-05
-5.79894e-07
1.55226e-05
-3.80752e-07
1.26747e-05
-1.83709e-07
9.97299e-06
1.96709e-07
5.31304e-05
1.17798e-07
5.80511e-05
4.81449e-07
6.37063e-05
4.49926e-07
7.0098e-05
3.76753e-07
7.6976e-05
2.32891e-07
8.31741e-05
1.12687e-07
8.20302e-05
-3.70302e-08
8.10696e-05
-1.91014e-07
8.02363e-05
-3.7975e-07
7.95555e-05
-5.95247e-07
7.905e-05
-8.24978e-07
7.85772e-05
-1.04175e-06
8.23821e-05
-1.20757e-06
7.13892e-05
-1.33946e-06
6.19078e-05
-1.4285e-06
5.37136e-05
-1.46697e-06
4.65728e-05
-1.45602e-06
4.03949e-05
-1.40505e-06
3.50351e-05
-1.31046e-06
3.03314e-05
-1.17759e-06
2.61296e-05
-1.01232e-06
2.23488e-05
-8.2019e-07
1.88475e-05
-6.10995e-07
1.56634e-05
-3.96809e-07
1.28151e-05
-1.89543e-07
1.01033e-05
1.81798e-07
4.7759e-05
9.2391e-08
5.21762e-05
4.66656e-07
5.72575e-05
4.11445e-07
6.29996e-05
3.40314e-07
6.91751e-05
1.82766e-07
7.59361e-05
5.82327e-08
8.19926e-05
-1.0329e-07
8.10215e-05
-2.65698e-07
8.01746e-05
-4.67697e-07
7.94877e-05
-7.02072e-07
7.89721e-05
-9.581e-07
7.84957e-05
-1.21064e-06
7.80544e-05
-1.43244e-06
8.18836e-05
-1.58278e-06
7.10228e-05
-1.68543e-06
6.16526e-05
-1.73375e-06
5.35314e-05
-1.72757e-06
4.64679e-05
-1.67692e-06
4.03624e-05
-1.58099e-06
3.50606e-05
-1.44544e-06
3.04023e-05
-1.27696e-06
2.6236e-05
-1.08172e-06
2.24828e-05
-8.65642e-07
1.89991e-05
-6.37836e-07
1.58207e-05
-4.10254e-07
1.29676e-05
-1.94143e-07
1.02418e-05
1.6602e-07
4.29301e-05
7.39408e-08
4.68968e-05
4.54847e-07
5.14614e-05
3.77474e-07
5.66215e-05
3.10498e-07
6.2167e-05
1.40854e-07
6.8237e-05
1.48315e-08
7.48508e-05
-1.61237e-07
8.09757e-05
-3.29997e-07
8.01161e-05
-5.44038e-07
7.94147e-05
-7.96603e-07
7.88917e-05
-1.07839e-06
7.84043e-05
-1.36646e-06
7.79593e-05
-1.63273e-06
7.75685e-05
-1.85009e-06
8.14511e-05
-1.97268e-06
7.07226e-05
-2.03478e-06
6.14398e-05
-2.03626e-06
5.34084e-05
-1.98608e-06
4.64277e-05
-1.8872e-06
4.0387e-05
-1.74585e-06
3.51344e-05
-1.56995e-06
3.05128e-05
-1.36685e-06
2.63742e-05
-1.14339e-06
2.26416e-05
-9.04904e-07
1.91698e-05
-6.60346e-07
1.59923e-05
-4.20922e-07
1.31303e-05
-1.97615e-07
1.03872e-05
1.49508e-07
3.85921e-05
6.16992e-08
4.21508e-05
4.44658e-07
4.62539e-05
3.47919e-07
5.08887e-05
2.85878e-07
5.58708e-05
1.05878e-07
6.13211e-05
-1.93628e-08
6.72567e-05
-2.0635e-07
7.39145e-05
-3.83396e-07
8.00593e-05
-6.07618e-07
7.93439e-05
-8.77314e-07
7.88047e-05
-1.18363e-06
7.83083e-05
-1.50669e-06
7.78519e-05
-1.81734e-06
7.74576e-05
-2.08816e-06
7.71428e-05
-2.28857e-06
8.10927e-05
-2.37111e-06
7.04702e-05
-2.38464e-06
6.12937e-05
-2.33717e-06
5.33584e-05
-2.23486e-06
4.64519e-05
-2.08563e-06
4.04662e-05
-1.8987e-06
3.52532e-05
-1.68302e-06
3.06595e-05
-1.44686e-06
2.65407e-05
-1.19675e-06
2.28223e-05
-9.37853e-07
1.9357e-05
-6.78277e-07
1.61761e-05
-4.29007e-07
1.33016e-05
-1.99723e-07
1.05379e-05
1.32618e-07
3.4689e-05
5.47141e-08
3.78876e-05
4.35298e-07
4.15733e-05
3.22512e-07
4.57378e-05
2.65422e-07
5.02122e-05
7.65829e-08
5.5108e-05
-4.64078e-08
6.04363e-05
-2.40519e-07
6.64088e-05
-4.22389e-07
7.30679e-05
-6.5768e-07
7.9274e-05
-9.42894e-07
7.87185e-05
-1.272e-06
7.82038e-05
-1.62893e-06
7.77375e-05
-1.98348e-06
7.73314e-05
-2.30787e-06
7.70135e-05
-2.57036e-06
7.6785e-05
-2.74121e-06
8.07877e-05
-2.77413e-06
7.02931e-05
-2.73356e-06
6.12302e-05
-2.62941e-06
5.33814e-05
-2.47122e-06
4.65381e-05
-2.27059e-06
4.05967e-05
-2.03811e-06
3.54133e-05
-1.78394e-06
3.08387e-05
-1.51628e-06
2.67324e-05
-1.24156e-06
2.3022e-05
-9.64181e-07
1.95583e-05
-6.91916e-07
1.63699e-05
-4.34222e-07
1.34797e-05
-2.0411e-07
1.06959e-05
1.15586e-07
3.11807e-05
5.22595e-08
3.4052e-05
4.26125e-07
3.73693e-05
3.01185e-07
4.1108e-05
2.47996e-07
4.51287e-05
5.22602e-08
4.95245e-05
-6.81284e-08
5.431e-05
-2.65986e-07
5.9669e-05
-4.49568e-07
6.56399e-05
-6.91075e-07
7.23387e-05
-9.92455e-07
7.86324e-05
-1.34189e-06
7.80987e-05
-1.73117e-06
7.76125e-05
-2.1285e-06
7.71955e-05
-2.50614e-06
7.68657e-05
-2.83113e-06
7.66344e-05
-3.07213e-06
7.64756e-05
-3.20334e-06
8.05676e-05
-3.17729e-06
7.02095e-05
-3.07497e-06
6.12493e-05
-2.90883e-06
5.34749e-05
-2.69277e-06
4.66828e-05
-2.4401e-06
4.07745e-05
-2.16301e-06
3.56109e-05
-1.87184e-06
3.1047e-05
-1.57475e-06
2.6946e-05
-1.2775e-06
2.32379e-05
-9.84229e-07
1.97713e-05
-7.00959e-07
1.65718e-05
-4.40036e-07
1.36626e-05
-2.51294e-07
1.0894e-05
9.8755e-08
2.80301e-05
5.34605e-08
3.0605e-05
4.16936e-07
3.35873e-05
2.83591e-07
3.69496e-05
2.32934e-07
4.05598e-05
3.21099e-08
4.45085e-05
-8.5778e-08
4.88053e-05
-2.84775e-07
5.36162e-05
-4.67677e-07
5.89716e-05
-7.10958e-07
6.49746e-05
-1.02295e-06
7.1738e-05
-1.39206e-06
7.79924e-05
-1.81163e-06
7.74851e-05
-2.2501e-06
7.70467e-05
-2.68e-06
7.67052e-05
-3.0674e-06
7.64617e-05
-3.37932e-06
7.6301e-05
-3.58788e-06
7.62451e-05
-3.66737e-06
8.04527e-05
-3.57428e-06
7.02195e-05
-3.40335e-06
6.13489e-05
-3.17215e-06
5.36355e-05
-2.89676e-06
4.68819e-05
-2.59256e-06
4.09955e-05
-2.27227e-06
3.5842e-05
-1.94619e-06
3.12808e-05
-1.62192e-06
2.71784e-05
-1.30498e-06
2.34673e-05
-9.97799e-07
1.99936e-05
-7.08262e-07
1.67791e-05
-5.44104e-07
1.38942e-05
-2.43969e-07
1.10889e-05
8.23137e-08
2.51972e-05
5.76112e-08
2.75096e-05
4.0756e-07
3.01885e-05
2.6951e-07
3.32085e-05
2.1953e-07
3.64566e-05
1.56968e-08
4.00006e-05
-1.00513e-07
4.38607e-05
-2.98256e-07
4.81783e-05
-4.79112e-07
5.29844e-05
-7.20599e-07
5.83656e-05
-1.03811e-06
6.44222e-05
-1.41992e-06
7.11351e-05
-1.86898e-06
7.73551e-05
-2.34621e-06
7.68934e-05
-2.82682e-06
7.65291e-05
-3.27584e-06
7.6273e-05
-3.65886e-06
7.61e-05
-3.94598e-06
7.60445e-05
-4.10786e-06
7.61121e-05
-4.12691e-06
8.04438e-05
-3.95829e-06
7.03211e-05
-3.7144e-06
6.1525e-05
-3.41576e-06
5.38584e-05
-3.08103e-06
4.71306e-05
-2.72656e-06
4.12552e-05
-2.36515e-06
3.61027e-05
-2.00661e-06
3.15366e-05
-1.65819e-06
2.74266e-05
-1.32391e-06
2.37076e-05
-1.00702e-06
2.02223e-05
-8.76753e-07
1.70415e-05
-5.34252e-07
1.41281e-05
-2.39707e-07
1.12833e-05
6.64762e-08
2.26471e-05
6.39288e-08
2.47269e-05
3.98038e-07
2.71366e-05
2.58517e-07
2.98467e-05
2.07446e-07
3.27655e-05
2.45976e-09
3.59523e-05
-1.12971e-07
3.94174e-05
-3.07652e-07
4.32943e-05
-4.85582e-07
4.76066e-05
-7.22835e-07
5.24335e-05
-1.04171e-06
5.78592e-05
-1.43007e-06
6.38651e-05
-1.90022e-06
7.05316e-05
-2.41523e-06
7.67358e-05
-2.94425e-06
7.63463e-05
-3.45347e-06
7.60656e-05
-3.90705e-06
7.5879e-05
-4.27327e-06
7.58131e-05
-4.51966e-06
7.58831e-05
-4.62517e-06
7.60779e-05
-4.57389e-06
8.0539e-05
-4.32387e-06
7.05102e-05
-4.00358e-06
6.17728e-05
-3.6368e-06
5.41386e-05
-3.24376e-06
4.74242e-05
-2.84107e-06
4.15493e-05
-2.4412e-06
3.63892e-05
-2.05346e-06
3.18111e-05
-1.68362e-06
2.76878e-05
-1.33582e-06
2.39559e-05
-1.24732e-06
2.05122e-05
-8.64691e-07
1.73071e-05
-5.24616e-07
1.43609e-05
-2.3413e-07
1.14756e-05
2.03581e-05
5.20281e-08
7.17789e-08
2.22223e-05
3.88346e-07
2.43928e-05
2.50269e-07
2.6828e-05
1.96321e-07
2.94488e-05
-7.91758e-09
3.23107e-05
-1.23771e-07
3.54274e-05
-3.13735e-07
3.8906e-05
-4.88568e-07
4.27776e-05
-7.19774e-07
4.71065e-05
-1.03696e-06
5.19702e-05
-1.42706e-06
5.73461e-05
-1.91073e-06
6.33047e-05
-2.45353e-06
6.99409e-05
-3.03039e-06
7.61571e-05
-3.59761e-06
7.58488e-05
-4.12051e-06
7.5636e-05
-4.56559e-06
7.55575e-05
-4.89793e-06
7.56183e-05
-5.09282e-06
7.58184e-05
-5.1307e-06
7.61411e-05
-5.00163e-06
8.07341e-05
-4.66546e-06
7.07816e-05
-4.26722e-06
6.20868e-05
-3.833e-06
5.44709e-05
-3.38359e-06
4.77579e-05
-2.93553e-06
4.18736e-05
-2.50072e-06
3.66977e-05
-2.08686e-06
3.2101e-05
-1.69934e-06
2.79588e-05
-1.65549e-06
2.42712e-05
-1.2328e-06
2.08058e-05
-8.49539e-07
1.75721e-05
-5.12303e-07
1.45909e-05
-2.2737e-07
1.16642e-05
1.99757e-05
7.93899e-08
3.25397e-05
3.56723e-08
3.78566e-07
2.19232e-05
2.44284e-07
2.41144e-05
1.8603e-07
2.64708e-05
-1.58974e-08
2.90386e-05
-1.33179e-07
3.18385e-05
-3.17257e-07
3.49656e-05
-4.8901e-07
3.84393e-05
-7.13196e-07
4.23243e-05
-1.02624e-06
4.66838e-05
-1.41476e-06
5.14993e-05
-1.90586e-06
5.68278e-05
-2.46739e-06
6.27528e-05
-3.0804e-06
6.93835e-05
-3.70603e-06
7.56233e-05
-4.29612e-06
7.53804e-05
-4.81908e-06
7.5276e-05
-5.23801e-06
7.53246e-05
-5.52456e-06
7.55178e-05
-5.65542e-06
7.58496e-05
-5.61675e-06
7.62983e-05
-5.40348e-06
8.10237e-05
-4.97852e-06
7.11295e-05
-4.50246e-06
6.24612e-05
-4.00255e-06
5.48498e-05
-3.49978e-06
4.81267e-05
-3.01015e-06
4.22236e-05
-2.54384e-06
3.70246e-05
-2.10775e-06
3.24031e-05
-2.10762e-06
2.83043e-05
-1.63858e-06
2.45914e-05
-1.21181e-06
2.10994e-05
-8.29937e-07
1.78345e-05
-4.97554e-07
1.48166e-05
-2.19766e-07
1.18482e-05
1.9707e-05
3.69454e-07
3.19416e-05
7.90743e-08
3.34053e-05
2.18704e-08
2.4013e-07
2.16721e-05
1.76377e-07
2.37937e-05
-2.17898e-08
2.61009e-05
-1.41511e-07
2.86139e-05
-3.1867e-07
3.14218e-05
-4.87742e-07
3.45445e-05
-7.04301e-07
3.8029e-05
-1.01154e-06
4.19394e-05
-1.39612e-06
4.62529e-05
-1.89008e-06
5.10217e-05
-2.46305e-06
5.63147e-05
-3.10141e-06
6.22276e-05
-3.77222e-06
6.88627e-05
-4.43111e-06
7.51136e-05
-5.03027e-06
7.49782e-05
-5.53555e-06
7.50005e-05
-5.91526e-06
7.51831e-05
-6.14233e-06
7.55112e-05
-6.19886e-06
7.59738e-05
-6.07567e-06
7.65452e-05
-5.77387e-06
8.14017e-05
-5.25941e-06
7.15476e-05
-4.70697e-06
6.28899e-05
-4.14443e-06
5.52699e-05
-3.59238e-06
4.85259e-05
-3.06504e-06
4.25954e-05
-2.57142e-06
3.73661e-05
-2.61666e-06
3.27895e-05
-2.08888e-06
2.86563e-05
-1.61169e-06
2.49123e-05
-1.18439e-06
2.13904e-05
-8.06431e-07
1.80923e-05
-4.81056e-07
1.50367e-05
-2.11618e-07
1.20268e-05
1.94811e-05
2.36776e-07
3.15076e-05
3.59328e-07
3.27956e-05
7.57653e-08
3.42956e-05
9.5263e-09
1.67297e-07
2.13843e-05
-2.60365e-08
2.34602e-05
-1.48882e-07
2.57189e-05
-3.18478e-07
2.82379e-05
-4.85236e-07
3.1042e-05
-6.94094e-07
3.41735e-05
-9.94217e-07
3.76791e-05
-1.37357e-06
4.15461e-05
-1.8668e-06
4.58144e-05
-2.4457e-06
5.05468e-05
-3.10065e-06
5.58229e-05
-3.80415e-06
6.17314e-05
-4.51702e-06
6.83592e-05
-5.19623e-06
7.4666e-05
-5.78651e-06
7.46562e-05
-6.25997e-06
7.48132e-05
-6.58578e-06
7.51332e-05
-6.74183e-06
7.55964e-05
-6.71453e-06
7.61873e-05
-6.50097e-06
7.68764e-05
-6.1083e-06
8.18615e-05
-5.50518e-06
7.20293e-05
-4.87933e-06
6.3367e-05
-4.25852e-06
5.57257e-05
-3.6615e-06
4.89507e-05
-3.10105e-06
4.29848e-05
-3.19556e-06
3.78042e-05
-2.59678e-06
3.31844e-05
-2.05641e-06
2.90103e-05
-1.57601e-06
2.5231e-05
-1.15137e-06
2.16767e-05
-7.80049e-07
1.83441e-05
-4.63358e-07
1.52504e-05
-2.03125e-07
1.21993e-05
1.92225e-05
1.59012e-07
3.11526e-05
2.26868e-07
3.23489e-05
3.50326e-07
3.3672e-05
7.15288e-08
3.52072e-05
-1.42065e-09
-2.89504e-08
2.10837e-05
-1.55503e-07
2.31166e-05
-3.16996e-07
2.53797e-05
-4.81957e-07
2.78955e-05
-6.83171e-07
3.0707e-05
-9.75418e-07
3.38559e-05
-1.34878e-06
3.73211e-05
-1.83876e-06
4.11447e-05
-2.41937e-06
4.53766e-05
-3.08411e-06
5.00887e-05
-3.81014e-06
5.53537e-05
-4.56273e-06
6.12469e-05
-5.30581e-06
6.79083e-05
-5.98717e-06
7.42937e-05
-6.55404e-06
7.44183e-05
-6.98029e-06
7.47144e-05
-7.23958e-06
7.51732e-05
-7.31365e-06
7.57701e-05
-7.19511e-06
7.64855e-05
-6.88731e-06
7.72861e-05
-6.40302e-06
8.23958e-05
-5.71391e-06
7.25678e-05
-5.0192e-06
6.38861e-05
-4.34488e-06
5.62119e-05
-3.70803e-06
4.93966e-05
-3.85775e-06
4.34853e-05
-3.1752e-06
3.82528e-05
-2.55907e-06
3.35828e-05
-2.01241e-06
2.9363e-05
-1.53286e-06
2.55451e-05
-1.11415e-06
2.19566e-05
-7.51654e-07
1.85888e-05
-4.4487e-07
1.5457e-05
-1.94454e-07
1.23654e-05
1.89518e-05
-3.11435e-08
3.07349e-05
1.51242e-07
3.19878e-05
2.16349e-07
3.32139e-05
3.41009e-07
3.45696e-05
6.64052e-08
3.61447e-05
-1.09619e-08
-1.61463e-07
2.07748e-05
-3.1463e-07
2.28107e-05
-4.78152e-07
2.50712e-05
-6.72056e-07
2.75933e-05
-9.55865e-07
3.0419e-05
-1.32312e-06
3.35308e-05
-1.80791e-06
3.69546e-05
-2.38726e-06
4.07426e-05
-3.05649e-06
4.49519e-05
-3.79703e-06
4.96482e-05
-4.5777e-06
5.48917e-05
-5.36858e-06
6.08056e-05
-6.12355e-06
6.75214e-05
-6.79306e-06
7.40009e-05
-7.32051e-06
7.42654e-05
-7.68603e-06
7.47032e-05
-7.86653e-06
7.53006e-05
-7.84969e-06
7.60286e-05
-7.63446e-06
7.68633e-05
-7.23017e-06
7.77684e-05
-6.65549e-06
8.29973e-05
-5.88491e-06
7.31562e-05
-5.1265e-06
6.44413e-05
-4.40441e-06
5.67232e-05
-4.6176e-06
4.99708e-05
-3.83763e-06
4.39987e-05
-3.13248e-06
3.87066e-05
-2.50662e-06
3.39808e-05
-1.95885e-06
2.97117e-05
-1.48408e-06
2.58528e-05
-1.07398e-06
2.22289e-05
-7.21948e-07
1.88255e-05
-4.25954e-07
1.5656e-05
-1.85718e-07
1.2525e-05
1.86737e-05
-1.66722e-07
3.03023e-05
-3.3504e-08
3.156e-05
1.44907e-07
3.28464e-05
2.05753e-07
3.40997e-05
3.31271e-07
3.54927e-05
6.05142e-08
3.71059e-05
-1.91134e-08
-3.11647e-07
2.0499e-05
-4.74125e-07
2.25328e-05
-6.6102e-07
2.47986e-05
-9.36186e-07
2.73326e-05
-1.29742e-06
3.01243e-05
-1.7758e-06
3.31969e-05
-2.35171e-06
3.65864e-05
-3.02152e-06
4.03506e-05
-3.77024e-06
4.45407e-05
-4.56978e-06
4.92111e-05
-5.39518e-06
5.44651e-05
-6.20596e-06
6.04177e-05
-6.95963e-06
6.72023e-05
-7.60128e-06
7.37885e-05
-8.07518e-06
7.41969e-05
-8.36658e-06
7.47778e-05
-8.45787e-06
7.55128e-05
-8.34303e-06
7.63678e-05
-8.02726e-06
7.73153e-05
-7.52636e-06
7.83166e-05
-6.86454e-06
8.36584e-05
-6.01789e-06
7.37876e-05
-5.2021e-06
6.50265e-05
-5.4905e-06
5.73828e-05
-4.59862e-06
5.05607e-05
-3.78999e-06
4.45188e-05
-3.07125e-06
3.91607e-05
-2.44212e-06
3.43752e-05
-1.89799e-06
3.00542e-05
-1.43131e-06
2.61526e-05
-1.0319e-06
2.24925e-05
-6.91504e-07
1.90537e-05
-4.06888e-07
1.5847e-05
-1.7703e-07
1.26778e-05
1.84253e-05
-3.08549e-07
2.98507e-05
-1.67767e-07
3.11181e-05
-3.53583e-08
3.24098e-05
1.38782e-07
3.37261e-05
1.95116e-07
3.50108e-05
3.21074e-07
3.64391e-05
5.38686e-08
3.80953e-05
-2.58236e-08
-4.70018e-07
2.02489e-05
-6.50357e-07
2.22871e-05
-9.16749e-07
2.45627e-05
-1.27234e-06
2.70658e-05
-1.74343e-06
2.98208e-05
-2.31452e-06
3.28605e-05
-2.98197e-06
3.62259e-05
-3.73407e-06
3.99686e-05
-4.54524e-06
4.41301e-05
-5.39445e-06
4.88028e-05
-6.24628e-06
5.40826e-05
-7.06471e-06
6.00862e-05
-7.80137e-06
6.69521e-05
-8.40103e-06
7.36568e-05
-8.80711e-06
7.42121e-05
-9.0126e-06
7.49365e-05
-9.00598e-06
7.58063e-05
-8.78756e-06
7.6783e-05
-8.3696e-06
7.78358e-05
-7.77422e-06
7.8924e-05
-7.02955e-06
8.43714e-05
-6.11364e-06
7.44551e-05
-6.49195e-06
6.57831e-05
-5.47387e-06
5.80616e-05
-4.54608e-06
5.1159e-05
-3.71942e-06
4.50402e-05
-2.99494e-06
3.96116e-05
-2.36832e-06
3.47635e-05
-1.83184e-06
3.03887e-05
-1.37589e-06
2.64434e-05
-9.88696e-07
2.27469e-05
-6.60772e-07
1.92731e-05
-3.87913e-07
1.603e-05
-1.68444e-07
1.28237e-05
1.82001e-05
-4.65976e-07
2.94484e-05
-2.98538e-07
3.06538e-05
-1.67035e-07
3.19586e-05
-3.65688e-08
3.32806e-05
1.32874e-07
3.46312e-05
1.84528e-07
3.59449e-05
3.10369e-07
3.74135e-05
4.64641e-08
3.91107e-05
-3.10519e-08
-6.40198e-07
2.00275e-05
-8.97923e-07
2.2074e-05
-1.24825e-06
2.43216e-05
-1.71161e-06
2.67903e-05
-2.27695e-06
2.95143e-05
-2.93999e-06
3.253e-05
-3.6918e-06
3.58726e-05
-4.50911e-06
3.95851e-05
-5.3735e-06
4.37427e-05
-6.25444e-06
4.84309e-05
-7.12137e-06
5.37469e-05
-7.93221e-06
5.98124e-05
-8.63813e-06
6.67714e-05
-9.18129e-06
7.36057e-05
-9.50658e-06
7.431e-05
-9.61589e-06
7.51769e-05
-9.50398e-06
7.61775e-05
-9.17863e-06
7.72691e-05
-8.65922e-06
7.84184e-05
-7.97268e-06
7.95838e-05
-7.15118e-06
8.51288e-05
-7.63873e-06
7.53208e-05
-6.47954e-06
6.65632e-05
-5.4166e-06
5.87509e-05
-4.46544e-06
5.17595e-05
-3.63013e-06
4.55583e-05
-2.9069e-06
4.00559e-05
-2.28764e-06
3.51435e-05
-1.7621e-06
3.07139e-05
-1.31885e-06
2.67244e-05
-9.45001e-07
2.29915e-05
-6.30136e-07
1.94833e-05
-3.69158e-07
1.6205e-05
-1.60041e-07
1.2963e-05
1.80007e-05
-6.30673e-07
2.9079e-05
-4.49541e-07
3.024e-05
-2.87378e-07
3.14826e-05
-1.65742e-07
3.282e-05
-3.70914e-08
3.41767e-05
1.27237e-07
3.55594e-05
1.73951e-07
3.69067e-05
2.99177e-07
3.84136e-05
3.82739e-08
4.01497e-05
-3.46817e-08
-8.79911e-07
1.98351e-05
-1.22546e-06
2.18563e-05
-1.6808e-06
2.40718e-05
-2.23993e-06
2.65116e-05
-2.8971e-06
2.9212e-05
-3.64596e-06
3.22044e-05
-4.46525e-06
3.55163e-05
-5.33809e-06
3.92202e-05
-6.23853e-06
4.33851e-05
-7.14064e-06
4.80974e-05
-8.00801e-06
5.34589e-05
-8.79815e-06
5.95968e-05
-9.45901e-06
6.66607e-05
-9.93217e-06
7.36351e-05
-1.01649e-05
7.44895e-05
-1.01689e-05
7.54965e-05
-9.94644e-06
7.66223e-05
-9.5133e-06
7.78207e-05
-8.89449e-06
7.90567e-05
-8.12206e-06
8.02888e-05
-8.94812e-06
8.61152e-05
-7.63368e-06
7.62159e-05
-6.4182e-06
6.73567e-05
-5.32518e-06
5.94434e-05
-4.36178e-06
5.23567e-05
-3.52621e-06
4.60695e-05
-2.81011e-06
4.04914e-05
-2.20221e-06
3.55135e-05
-1.69014e-06
3.10288e-05
-1.26108e-06
2.6995e-05
-9.01366e-07
2.32261e-05
-5.99812e-07
1.96844e-05
-3.50781e-07
1.63718e-05
-1.51857e-07
1.30956e-05
1.78271e-05
-8.63047e-07
2.87458e-05
-6.0152e-07
2.98598e-05
-4.30878e-07
3.10576e-05
-2.75667e-07
3.23323e-05
-1.64054e-07
3.37067e-05
-3.68055e-08
3.50961e-05
1.21834e-07
3.65154e-05
1.63417e-07
3.78939e-05
2.87593e-07
3.94371e-05
2.92569e-08
4.12218e-05
-3.66288e-08
-1.20411e-06
1.96387e-05
-1.65143e-06
2.16301e-05
-2.20405e-06
2.38187e-05
-2.85447e-06
2.62358e-05
-3.59842e-06
2.89129e-05
-4.41669e-06
3.18748e-05
-5.2927e-06
3.51746e-05
-6.20514e-06
3.88796e-05
-7.13158e-06
4.3059e-05
-8.04085e-06
4.78033e-05
-8.89632e-06
5.32196e-05
-9.65193e-06
5.94407e-05
-1.02542e-05
6.6621e-05
-1.06447e-05
7.37453e-05
-1.0774e-05
7.47492e-05
-1.06653e-05
7.58922e-05
-1.03297e-05
7.7136e-05
-9.78927e-06
7.84318e-05
-9.07534e-06
7.9744e-05
-1.01782e-05
8.12124e-05
-8.95551e-06
8.71395e-05
-7.57002e-06
7.71288e-05
-6.3156e-06
6.81552e-05
-5.20564e-06
6.01328e-05
-4.24e-06
5.29463e-05
-3.41126e-06
4.65707e-05
-2.70715e-06
4.09158e-05
-2.11378e-06
3.58723e-05
-1.6171e-06
3.13326e-05
-1.20333e-06
2.72548e-05
-8.5812e-07
2.34504e-05
-5.70053e-07
1.98763e-05
-3.32872e-07
1.65307e-05
-1.43907e-07
1.32217e-05
1.765e-05
-1.18427e-06
2.84485e-05
-8.15906e-07
2.9516e-05
-5.70795e-07
3.0668e-05
-4.1138e-07
3.18962e-05
-2.63626e-07
3.3207e-05
-1.61918e-07
3.46165e-05
-3.56519e-08
3.60431e-05
1.16658e-07
3.74969e-05
1.52721e-07
3.89041e-05
2.75682e-07
4.04933e-05
1.93401e-08
4.23198e-05
-3.68017e-08
-1.6237e-06
1.94342e-05
-2.16978e-06
2.14006e-05
-2.81285e-06
2.35676e-05
-3.5506e-06
2.59618e-05
-4.36566e-06
2.86092e-05
-5.24087e-06
3.15565e-05
-6.15947e-06
3.48528e-05
-7.10164e-06
3.85647e-05
-8.04079e-06
4.27651e-05
-8.94575e-06
4.75493e-05
-9.77618e-06
5.303e-05
-1.0484e-05
5.93453e-05
-1.10146e-05
6.66533e-05
-1.13102e-05
7.39361e-05
-1.13268e-05
7.50874e-05
-1.11009e-05
7.63607e-05
-1.06507e-05
7.77137e-05
-1.0006e-05
7.90963e-05
-1.13919e-05
8.06511e-05
-1.02023e-05
8.21769e-05
-8.89258e-06
8.81878e-05
-7.45648e-06
7.80493e-05
-6.17891e-06
6.89512e-05
-5.06392e-06
6.08141e-05
-4.10455e-06
5.35249e-05
-3.28849e-06
4.70597e-05
-2.60019e-06
4.13278e-05
-2.02376e-06
3.62189e-05
-1.54396e-06
3.16249e-05
-1.14603e-06
2.75037e-05
-8.15639e-07
2.36646e-05
-5.41016e-07
2.0059e-05
-3.15465e-07
1.66817e-05
-1.36213e-07
1.33414e-05
1.74652e-05
-1.59785e-06
2.81329e-05
-1.1192e-06
2.92107e-05
-7.66911e-07
3.03149e-05
-5.3972e-07
3.14971e-05
-3.91184e-07
3.27594e-05
-2.51082e-07
3.41046e-05
-1.59362e-07
3.55539e-05
-3.35796e-08
3.70157e-05
1.11624e-07
3.85016e-05
1.41812e-07
3.99466e-05
2.63462e-07
4.15752e-05
8.56627e-09
4.2831e-05
-3.56657e-08
-2.13738e-06
1.92263e-05
-2.77285e-06
2.11723e-05
-3.50348e-06
2.33171e-05
-4.31387e-06
2.56828e-05
-5.18527e-06
2.83141e-05
-6.10565e-06
3.12544e-05
-7.05675e-06
3.45517e-05
-8.01615e-06
3.82758e-05
-8.95744e-06
4.2504e-05
-9.84575e-06
4.73368e-05
-1.06384e-05
5.28921e-05
-1.12854e-05
5.93125e-05
-1.17314e-05
6.67588e-05
-1.19213e-05
7.42072e-05
-1.18183e-05
7.55018e-05
-1.14717e-05
7.68977e-05
-1.09084e-05
7.83498e-05
-1.25842e-05
7.99819e-05
-1.1439e-05
8.16054e-05
-1.0145e-05
8.3169e-05
-8.76968e-06
8.92478e-05
-7.3016e-06
7.89685e-05
-6.0152e-06
6.97388e-05
-4.90536e-06
6.14832e-05
-3.95929e-06
5.40897e-05
-3.1605e-06
4.75346e-05
-2.49101e-06
4.17262e-05
-1.9334e-06
3.65529e-05
-1.47125e-06
3.19054e-05
-1.08969e-06
2.77417e-05
-7.74167e-07
2.38686e-05
-5.12771e-07
2.02328e-05
-2.98615e-07
1.68251e-05
-1.288e-07
1.34548e-05
1.72771e-05
-2.10705e-06
2.77925e-05
-1.51049e-06
2.88885e-05
-1.05203e-06
3.0003e-05
-7.1755e-07
3.11348e-05
-5.08682e-07
3.23506e-05
-3.70308e-07
3.36451e-05
-2.38045e-07
3.50297e-05
-1.564e-07
3.65167e-05
-3.05631e-08
3.80117e-05
1.06691e-07
3.95386e-05
1.30582e-07
4.10146e-05
2.50886e-07
4.20799e-05
-2.13435e-09
4.16224e-05
-3.43934e-08
-2.73486e-06
1.9019e-05
-3.45785e-06
2.09438e-05
-4.26252e-06
2.30615e-05
-5.12798e-06
2.54102e-05
-6.04684e-06
2.80321e-05
-7.00164e-06
3.0969e-05
-7.97362e-06
3.42717e-05
-8.94058e-06
3.80138e-05
-9.87253e-06
4.22772e-05
-1.07322e-05
4.71677e-05
-1.14743e-05
5.28081e-05
-1.20472e-05
5.93445e-05
-1.23967e-05
6.69386e-05
-1.24722e-05
7.4558e-05
-1.22439e-05
7.59899e-05
-1.1776e-05
7.74988e-05
-1.37497e-05
7.92082e-05
-1.26625e-05
8.09227e-05
-1.13938e-05
8.25938e-05
-1.00179e-05
8.4177e-05
-8.59689e-06
9.03095e-05
-7.11384e-06
7.98792e-05
-5.83081e-06
7.0513e-05
-4.73474e-06
6.21368e-05
-3.80746e-06
5.46386e-05
-3.02956e-06
4.79942e-05
-2.38119e-06
4.21103e-05
-1.84343e-06
3.68737e-05
-1.39964e-06
3.2174e-05
-1.03463e-06
2.79687e-05
-7.33809e-07
2.40627e-05
-4.85406e-07
2.03978e-05
-2.82368e-07
1.69611e-05
-1.21673e-07
1.35623e-05
1.70891e-05
-2.69915e-06
2.74297e-05
-1.99565e-06
2.85412e-05
-1.42073e-06
2.9676e-05
-9.84511e-07
3.08164e-05
-6.68128e-07
3.19789e-05
-4.7756e-07
3.32266e-05
-3.48846e-07
3.4558e-05
-2.24454e-07
3.59803e-05
-1.53151e-07
3.7503e-05
-2.6597e-08
3.904e-05
1.01753e-07
4.06011e-05
1.19013e-07
4.15136e-05
2.37677e-07
4.08933e-05
-1.06053e-08
4.04464e-05
-3.31995e-08
-3.41422e-06
1.8811e-05
-4.21253e-06
2.07101e-05
-5.07051e-06
2.28105e-05
-5.9855e-06
2.51482e-05
-6.94001e-06
2.77635e-05
-7.9186e-06