/*--------------------------------*- C++ -*----------------------------------*\
  =========                 |
  \\      /  F ield         | OpenFOAM: The Open Source CFD Toolbox
   \\    /   O peration     | Website:  https://openfoam.org
    \\  /    A nd           | Version:  8
     \\/     M anipulation  |
\*---------------------------------------------------------------------------*/
FoamFile
{
    version     2.0;
    format      ascii;
    class       volVectorField;
    location    "0.02";
    object      U;
}
// * * * * * * * * * * * * * * * * * * * * * * * * * * * * * * * * * * * * * //

dimensions      [0 1 -1 0 0 0 0];

internalField   nonuniform List<vector> 
15677
(
(-0.0983597 9.36776 0)
(0.102368 9.82618 0)
(-0.0161282 8.66432 0)
(0.0257325 9.90999 0)
(0.0415299 9.40963 0)
(0.00967647 8.15325 0)
(0.0418524 9.93573 0)
(0.0228815 9.63731 0)
(0.0188743 9.02105 0)
(0.0108318 7.74174 0)
(0.0419252 9.94537 0)
(0.0335334 9.72097 0)
(0.0259936 9.35002 0)
(0.0136106 8.67683 0)
(0.00838675 7.38483 0)
(0.0397843 9.94915 0)
(0.0348214 9.75495 0)
(0.0318307 9.49437 0)
(0.0249973 9.08936 0)
(0.0121188 8.34299 0)
(0.00580626 7.09436 0)
(0.0374795 9.95032 0)
(0.035343 9.76961 0)
(0.0341321 9.55913 0)
(0.029864 9.29404 0)
(0.0235091 8.827 0)
(0.00923104 8.03684 0)
(0.00463882 6.85057 0)
(0.0347666 9.95026 0)
(0.0352942 9.77568 0)
(0.0354823 9.58998 0)
(0.0326875 9.3908 0)
(0.0292118 9.09411 0)
(0.0196056 8.57019 0)
(0.00812805 7.76398 0)
(0.00336672 6.64425 0)
(0.0317185 9.94959 0)
(0.0347405 9.77741 0)
(0.0359964 9.6053 0)
(0.0342007 9.43806 0)
(0.0324673 9.22634 0)
(0.0259087 8.89514 0)
(0.017499 8.32494 0)
(0.00610037 7.52853 0)
(0.00276087 6.46924 0)
(0.0284313 9.94864 0)
(0.0337378 9.77673 0)
(0.0359609 9.61267 0)
(0.0349086 9.46248 0)
(0.0340081 9.29087 0)
(0.0296713 9.06658 0)
(0.0241052 8.69618 0)
(0.0137878 8.10261 0)
(0.00495875 7.32801 0)
(0.00200418 6.32187 0)
(0.0250162 9.9475 0)
(0.0323561 9.7746 0)
(0.0353969 9.61551 0)
(0.0350475 9.47539 0)
(0.0345996 9.32402 0)
(0.0314739 9.15111 0)
(0.0282908 8.90636 0)
(0.0199169 8.50696 0)
(0.0112766 7.90754 0)
(0.00379879 7.15705 0)
(0.000959375 6.20276 0)
(0.0216367 9.94622 0)
(0.0306358 9.77155 0)
(0.034429 9.6155 0)
(0.0347467 9.48184 0)
(0.034608 9.34181 0)
(0.0321785 9.19386 0)
(0.0302927 9.01307 0)
(0.0241358 8.75102 0)
(0.0166142 8.33493 0)
(0.00900411 7.7376 0)
(0.0017635 7.01784 0)
(9.5322e-05 6.10483 0)
(0.0183806 9.94491 0)
(0.0285445 9.76794 0)
(0.0330717 9.6136 0)
(0.0340381 9.48429 0)
(0.0341421 9.35129 0)
(0.0321782 9.2166 0)
(0.03097 9.06689 0)
(0.0263487 8.87961 0)
(0.0204457 8.60698 0)
(0.0136002 8.18053 0)
(0.00504402 7.59702 0)
(0.000372911 6.90304 0)
(-0.00054469 6.02656 0)
(0.0154019 9.94361 0)
(0.0261211 9.76406 0)
(0.0313705 9.61044 0)
(0.0329411 9.48404 0)
(0.03331 9.35577 0)
(0.0317061 9.22892 0)
(0.0307975 9.09521 0)
(0.0271444 8.94501 0)
(0.0224088 8.75574 0)
(0.0169144 8.47447 0)
(0.00807232 8.05008 0)
(0.00234292 7.47933 0)
(-0.00117049 6.81049 0)
(-0.00129708 5.96817 0)
(0.0129241 9.94246 0)
(0.0233653 9.76015 0)
(0.0293664 9.6065 0)
(0.031477 9.48189 0)
(0.0320858 9.35692 0)
(0.0308101 9.23518 0)
(0.0300431 9.11059 0)
(0.0270431 8.97929 0)
(0.022977 8.8325 0)
(0.0184596 8.64046 0)
(0.0103355 8.36063 0)
(0.00421831 7.93858 0)
(-0.000907419 7.38265 0)
(-0.0027626 6.74033 0)
(-0.00225401 5.92736 0)
(0.0109293 9.94149 0)
(0.0206962 9.7567 0)
(0.0270798 9.6022 0)
(0.0296843 9.47845 0)
(0.0304891 9.35567 0)
(0.0295448 9.23754 0)
(0.0288159 9.1187 0)
(0.0263042 8.99788 0)
(0.0226372 8.87287 0)
(0.0186139 8.72726 0)
(0.0112972 8.54087 0)
(0.00546655 8.26135 0)
(-0.000453718 7.84453 0)
(-0.00407336 7.308 0)
(-0.00467346 6.69034 0)
(-0.00303224 5.90244 0)
(0.00936555 9.94067 0)
(0.0183346 9.75383 0)
(0.0248155 9.59828 0)
(0.0276068 9.47418 0)
(0.0285272 9.35267 0)
(0.0278683 9.23709 0)
(0.0271732 9.12225 0)
(0.0250365 9.00785 0)
(0.0216283 8.89485 0)
(0.0178069 8.77303 0)
(0.0110471 8.63637 0)
(0.00552572 8.45304 0)
(-0.000471034 8.17515 0)
(-0.00510303 7.76998 0)
(-0.00770265 7.25357 0)
(-0.00625031 6.65829 0)
(-0.00383493 5.89181 0)
(0.00812405 9.93997 0)
(0.0161139 9.7514 0)
(0.0227586 9.59498 0)
(0.025494 9.46995 0)
(0.0262259 9.34844 0)
(0.0257731 9.23453 0)
(0.0251173 9.12263 0)
(0.0232791 9.01255 0)
(0.0200595 8.90684 0)
(0.0162807 8.79801 0)
(0.00988842 8.68688 0)
(0.00441835 8.55592 0)
(-0.00145024 8.37508 0)
(-0.00656997 8.10476 0)
(-0.0103372 7.71398 0)
(-0.0110069 7.21744 0)
(-0.00781383 6.64182 0)
(-0.00471301 5.89496 0)
(0.00716325 9.93934 0)
(0.0140466 9.74932 0)
(0.0208338 9.59213 0)
(0.0235183 9.46619 0)
(0.0238638 9.3439 0)
(0.023259 9.23038 0)
(0.0226495 9.12057 0)
(0.0210343 9.01364 0)
(0.0179683 8.91281 0)
(0.0141477 8.81174 0)
(0.00800328 8.71442 0)
(0.00239112 8.61055 0)
(-0.00348598 8.48359 0)
(-0.00882648 8.31003 0)
(-0.0133211 8.05011 0)
(-0.0154882 7.67517 0)
(-0.0140345 7.19709 0)
(-0.00961522 6.64027 0)
(-0.00557271 5.91117 0)
(0.00648451 9.93875 0)
(0.0121071 9.74753 0)
(0.0190629 9.58967 0)
(0.02165 9.46283 0)
(0.0216566 9.3397 0)
(0.0206461 9.22561 0)
(0.0197691 9.1166 0)
(0.0182892 9.01201 0)
(0.0153589 8.91469 0)
(0.0114519 8.81876 0)
(0.00546623 8.7296 0)
(-0.000401274 8.64038 0)
(-0.00643821 8.54145 0)
(-0.0120491 8.4225 0)
(-0.0169354 8.25817 0)
(-0.0202963 8.01046 0)
(-0.0200127 7.65157 0)
(-0.0175636 7.19186 0)
(-0.0113821 6.65296 0)
(-0.00646323 5.93886 0)
(0.00604949 9.93824 0)
(0.0102226 9.74601 0)
(0.0174517 9.58754 0)
(0.0198908 9.4598 0)
(0.0195743 9.33583 0)
(0.0181845 9.22102 0)
(0.0167949 9.11167 0)
(0.0150297 9.00817 0)
(0.0122229 8.91351 0)
(0.00820084 8.82127 0)
(0.00229308 8.73742 0)
(-0.00389666 8.65684 0)
(-0.0102137 8.57307 0)
(-0.0161961 8.48273 0)
(-0.0214688 8.37307 0)
(-0.025562 8.21933 0)
(-0.0265574 7.98446 0)
(-0.0253595 7.64268 0)
(-0.0210452 7.2013 0)
(-0.013203 6.67809 0)
(-0.00739528 5.97729 0)
(0.00576619 9.93782 0)
(0.0083558 9.74475 0)
(0.0160099 9.58574 0)
(0.0182334 9.45707 0)
(0.0176254 9.3323 0)
(0.0158368 9.21668 0)
(0.0139856 9.1067 0)
(0.0116414 9.00305 0)
(0.00855434 8.90978 0)
(0.00439211 8.82038 0)
(-0.00152643 8.74032 0)
(-0.00808442 8.66537 0)
(-0.0147879 8.5905 0)
(-0.0212421 8.51567 0)
(-0.0269961 8.43482 0)
(-0.0316736 8.33545 0)
(-0.0337344 8.19231 0)
(-0.0338237 7.97215 0)
(-0.0306611 7.64826 0)
(-0.0246151 7.2236 0)
(-0.0151169 6.71476 0)
(-0.00836034 6.0257 0)
(0.00550406 9.93749 0)
(0.00667348 9.74382 0)
(0.0147678 9.58426 0)
(0.0166661 9.45462 0)
(0.0158097 9.3291 0)
(0.013623 9.21267 0)
(0.0113199 9.10184 0)
(0.00844538 8.99766 0)
(0.00476743 8.90445 0)
(2.59801e-05 8.81663 0)
(-0.00600143 8.7395 0)
(-0.0129778 8.66858 0)
(-0.0201737 8.5995 0)
(-0.0272034 8.53378 0)
(-0.0335482 8.46858 0)
(-0.0388222 8.39811 0)
(-0.0418021 8.3084 0)
(-0.0429129 8.17762 0)
(-0.0411453 7.97363 0)
(-0.0360847 7.6667 0)
(-0.0283471 7.2577 0)
(-0.0170991 6.76209 0)
(-0.00934682 6.08322 0)
(0.00521711 9.93717 0)
(0.00525599 9.74316 0)
(0.013717 9.58315 0)
(0.0151698 9.45243 0)
(0.0141261 9.32621 0)
(0.011548 9.209 0)
(0.00883582 9.09723 0)
(0.00540838 8.99221 0)
(0.00119613 8.89859 0)
(-0.0043981 8.81094 0)
(-0.0111267 8.73551 0)
(-0.0185833 8.66773 0)
(-0.0263985 8.60283 0)
(-0.0341224 8.54303 0)
(-0.0411825 8.48704 0)
(-0.0471371 8.43235 0)
(-0.0510012 8.37131 0)
(-0.0529375 8.29254 0)
(-0.0523737 8.17591 0)
(-0.0486532 7.98755 0)
(-0.041731 7.69694 0)
(-0.0322208 7.30275 0)
(-0.0191404 6.81932 0)
(-0.0103582 6.14903 0)
(0.00493712 9.93684 0)
(0.00413871 9.74264 0)
(0.0129625 9.58237 0)
(0.0137979 9.45055 0)
(0.0125708 9.32361 0)
(0.00960958 9.20569 0)
(0.00655657 9.09292 0)
(0.00257752 8.98689 0)
(-0.00217437 8.89248 0)
(-0.00849399 8.80447 0)
(-0.0162992 8.72925 0)
(-0.0248865 8.66335 0)
(-0.0334746 8.60175 0)
(-0.0420453 8.54625 0)
(-0.0499712 8.49629 0)
(-0.0567351 8.45096 0)
(-0.0615205 8.40574 0)
(-0.0642267 8.35501 0)
(-0.0646789 8.28896 0)
(-0.0621409 8.18602 0)
(-0.0564578 8.01301 0)
(-0.04758 7.73813 0)
(-0.0362101 7.35787 0)
(-0.0212286 6.88538 0)
(-0.0113758 6.22218 0)
(0.00463282 9.93652 0)
(0.00323024 9.74222 0)
(0.0123989 9.58182 0)
(0.0125688 9.44902 0)
(0.0112085 9.32136 0)
(0.00779817 9.20269 0)
(0.00450002 9.08894 0)
(-2.06281e-05 8.98179 0)
(-0.00526678 8.88633 0)
(-0.0123104 8.79752 0)
(-0.0210594 8.72198 0)
(-0.0311689 8.65633 0)
(-0.0413809 8.59676 0)
(-0.0509939 8.54472 0)
(-0.0599838 8.4992 0)
(-0.0677331 8.46005 0)
(-0.0735305 8.42433 0)
(-0.0770835 8.38921 0)
(-0.0784406 8.35047 0)
(-0.0768965 8.29669 0)
(-0.0723088 8.20729 0)
(-0.0645392 8.04923 0)
(-0.0535982 7.78935 0)
(-0.0402974 7.4221 0)
(-0.0233496 6.95948 0)
(-0.0123995 6.30189 0)
(0.00430502 9.93622 0)
(0.00252425 9.74188 0)
(0.0119716 9.58143 0)
(0.0114784 9.44776 0)
(0.0100771 9.31951 0)
(0.00618465 9.20011 0)
(0.00267729 9.08527 0)
(-0.00235911 8.97696 0)
(-0.00805033 8.8803 0)
(-0.015771 8.79037 0)
(-0.0254572 8.714 0)
(-0.0369047 8.64804 0)
(-0.049209 8.58875 0)
(-0.060943 8.53886 0)
(-0.0712563 8.49699 0)
(-0.0802354 8.46247 0)
(-0.087209 8.43315 0)
(-0.0917734 8.40753 0)
(-0.0940179 8.38411 0)
(-0.0933548 8.35686 0)
(-0.0896547 8.31522 0)
(-0.0828445 8.23907 0)
(-0.072856 8.09532 0)
(-0.0597557 7.8497 0)
(-0.0444437 7.49451 0)
(-0.0254805 7.04052 0)
(-0.0134093 6.38712 0)
(0.00395433 9.93596 0)
(0.00199603 9.7416 0)
(0.0116387 9.58116 0)
(0.0105148 9.44672 0)
(0.00914919 9.31797 0)
(0.0048247 9.19795 0)
(0.00115463 9.08203 0)
(-0.00441231 8.97239 0)
(-0.0104934 8.87446 0)
(-0.0188213 8.78318 0)
(-0.0294089 8.70562 0)
(-0.0421565 8.63879 0)
(-0.0563153 8.5792 0)
(-0.0707612 8.52958 0)
(-0.0837639 8.49001 0)
(-0.0943029 8.45941 0)
(-0.102711 8.435 0)
(-0.108514 8.41592 0)
(-0.111734 8.40196 0)
(-0.111933 8.38971 0)
(-0.108994 8.3738 0)
(-0.102907 8.34404 0)
(-0.0936952 8.28057 0)
(-0.0813633 8.15044 0)
(-0.0659944 7.91822 0)
(-0.0486195 7.57407 0)
(-0.0276011 7.12768 0)
(-0.0144115 6.4771 0)
(0.0035851 9.93572 0)
(0.00162514 9.74138 0)
(0.0113623 9.58096 0)
(0.00966564 9.44584 0)
(0.0083849 9.31667 0)
(0.00368726 9.19613 0)
(-7.00521e-05 9.07929 0)
(-0.00610471 8.96828 0)
(-0.0125565 8.86885 0)
(-0.0214203 8.77607 0)
(-0.0328465 8.69705 0)
(-0.046829 8.62891 0)
(-0.0627935 8.56839 0)
(-0.0796615 8.51846 0)
(-0.0960983 8.47918 0)
(-0.10992 8.45108 0)
(-0.120132 8.43095 0)
(-0.12749 8.41704 0)
(-0.131883 8.40974 0)
(-0.133021 8.40693 0)
(-0.130807 8.40567 0)
(-0.125287 8.40089 0)
(-0.116576 8.38246 0)
(-0.104796 8.33097 0)
(-0.0899818 8.21364 0)
(-0.0722688 7.99392 0)
(-0.0527781 7.65987 0)
(-0.0297046 7.21979 0)
(-0.0153531 6.57096 0)
(0.00320333 9.93552 0)
(0.00139156 9.74121 0)
(0.0111162 9.58082 0)
(0.00892625 9.44508 0)
(0.00775455 9.31556 0)
(0.00273313 9.19457 0)
(-0.00102938 9.07697 0)
(-0.00741184 8.96475 0)
(-0.01416 8.86373 0)
(-0.0235285 8.7691 0)
(-0.0357145 8.68844 0)
(-0.0508396 8.61865 0)
(-0.068536 8.55671 0)
(-0.0877721 8.50579 0)
(-0.107286 8.46619 0)
(-0.12534 8.43842 0)
(-0.139471 8.42107 0)
(-0.148824 8.41184 0)
(-0.154715 8.40999 0)
(-0.156976 8.41402 0)
(-0.155549 8.42212 0)
(-0.150536 8.43165 0)
(-0.142131 8.43748 0)
(-0.130573 8.42971 0)
(-0.116046 8.38939 0)
(-0.0986454 8.28397 0)
(-0.0785093 8.07585 0)
(-0.056904 7.75078 0)
(-0.0317482 7.31627 0)
(-0.0166232 6.66715 0)
(0.00281605 9.93534 0)
(0.001276 9.74107 0)
(0.0108804 9.5807 0)
(0.00830094 9.44443 0)
(0.00722195 9.3146 0)
(0.00193517 9.19321 0)
(-0.00177381 9.07497 0)
(-0.0083955 8.96171 0)
(-0.0153078 8.8593 0)
(-0.0250574 8.76262 0)
(-0.0379704 8.67987 0)
(-0.0541163 8.60818 0)
(-0.0734467 8.54443 0)
(-0.0949669 8.49197 0)
(-0.117502 8.45134 0)
(-0.139358 8.42329 0)
(-0.158599 8.40631 0)
(-0.172533 8.4002 0)
(-0.180409 8.40348 0)
(-0.184116 8.41331 0)
(-0.183649 8.42841 0)
(-0.17918 8.44726 0)
(-0.170983 8.46709 0)
(-0.159403 8.48286 0)
(-0.144772 8.48497 0)
(-0.127354 8.45493 0)
(-0.107264 8.36049 0)
(-0.0846895 8.16294 0)
(-0.0609305 7.84611 0)
(-0.0341261 7.4154 0)
(-0.0177971 6.78241 0)
(0.00242992 9.9352 0)
(0.00125812 9.74096 0)
(0.0106449 9.58059 0)
(0.00777754 9.44387 0)
(0.00676224 9.31377 0)
(0.00127402 9.19202 0)
(-0.00238578 9.07323 0)
(-0.00912472 8.95909 0)
(-0.0160916 8.85549 0)
(-0.0260276 8.75692 0)
(-0.0395147 8.67179 0)
(-0.0566007 8.59765 0)
(-0.0774424 8.53176 0)
(-0.101131 8.4773 0)
(-0.126597 8.43503 0)
(-0.1522 8.40592 0)
(-0.176035 8.3887 0)
(-0.196023 8.38309 0)
(-0.209012 8.3899 0)
(-0.214678 8.40539 0)
(-0.215496 8.42665 0)
(-0.211724 8.45269 0)
(-0.203735 8.48183 0)
(-0.19199 8.51132 0)
(-0.176952 8.53627 0)
(-0.159054 8.54738 0)
(-0.138608 8.5267 0)
(-0.115795 8.4422 0)
(-0.0907253 8.25443 0)
(-0.0651639 7.94436 0)
(-0.036231 7.52914 0)
(-0.0185141 6.90438 0)
(0.00205059 9.93508 0)
(0.00132058 9.74086 0)
(0.010406 9.58048 0)
(0.00734947 9.44338 0)
(0.00636182 9.31306 0)
(0.000727474 9.19098 0)
(-0.00289424 9.07172 0)
(-0.00965865 8.9568 0)
(-0.0166029 8.85221 0)
(-0.0265605 8.75197 0)
(-0.0403852 8.66464 0)
(-0.0581837 8.58761 0)
(-0.0804551 8.51887 0)
(-0.106164 8.46204 0)
(-0.134435 8.41761 0)
(-0.16369 8.38676 0)
(-0.192068 8.36843 0)
(-0.217491 8.3627 0)
(-0.237431 8.3702 0)
(-0.248754 8.38969 0)
(-0.251395 8.41723 0)
(-0.248635 8.44984 0)
(-0.240977 8.48639 0)
(-0.229016 8.5252 0)
(-0.213371 8.56362 0)
(-0.194629 8.59689 0)
(-0.173287 8.6161 0)
(-0.149746 8.60372 0)
(-0.124149 8.52832 0)
(-0.0968249 8.34894 0)
(-0.0693664 8.05656 0)
(-0.0380315 7.65694 0)
(-0.019451 7.02777 0)
(0.00168355 9.93498 0)
(0.00144795 9.74077 0)
(0.010174 9.58037 0)
(0.00701084 9.44296 0)
(0.00599968 9.31246 0)
(0.000283412 9.19007 0)
(-0.00332246 9.07039 0)
(-0.0100395 8.9548 0)
(-0.0169128 8.84936 0)
(-0.0267699 8.74767 0)
(-0.0407335 8.65838 0)
(-0.058939 8.57864 0)
(-0.0823521 8.50648 0)
(-0.10998 8.44639 0)
(-0.140893 8.39934 0)
(-0.173666 8.36617 0)
(-0.206489 8.34599 0)
(-0.237305 8.33921 0)
(-0.263494 8.34679 0)
(-0.282701 8.36721 0)
(-0.291493 8.39932 0)
(-0.290292 8.43887 0)
(-0.28326 8.48244 0)
(-0.271161 8.5289 0)
(-0.2548 8.57668 0)
(-0.234944 8.62319 0)
(-0.212276 8.6639 0)
(-0.187381 8.69019 0)
(-0.160666 8.68526 0)
(-0.132431 8.6176 0)
(-0.103191 8.45702 0)
(-0.0735138 8.18309 0)
(-0.0401667 7.78554 0)
(-0.0203652 7.15018 0)
(0.0013399 9.93489 0)
(0.00160335 9.74068 0)
(0.00995308 9.58027 0)
(0.00676539 9.4426 0)
(0.00566778 9.31195 0)
(-7.5427e-05 9.18928 0)
(-0.00368999 9.06923 0)
(-0.0102981 8.95304 0)
(-0.017077 8.84689 0)
(-0.0267468 8.74393 0)
(-0.0406968 8.65292 0)
(-0.0590614 8.57074 0)
(-0.0832253 8.49531 0)
(-0.11241 8.43125 0)
(-0.145866 8.3805 0)
(-0.18198 8.34447 0)
(-0.219106 8.32176 0)
(-0.25522 8.3131 0)
(-0.287657 8.31976 0)
(-0.313943 8.3405 0)
(-0.331549 8.37388 0)
(-0.336915 8.41866 0)
(-0.331051 8.4699 0)
(-0.319073 8.52389 0)
(-0.302011 8.57959 0)
(-0.28086 8.63551 0)
(-0.256523 8.68923 0)
(-0.229771 8.73641 0)
(-0.201224 8.76893 0)
(-0.171396 8.77011 0)
(-0.141214 8.71999 0)
(-0.109642 8.57899 0)
(-0.0777216 8.31066 0)
(-0.0422037 7.91301 0)
(-0.0212018 7.27061 0)
(0.0017453 9.74058 0)
(0.000905294 9.93488 0)
(0.00962447 9.58016 0)
(0.00660676 9.4423 0)
(0.00538851 9.31151 0)
(-0.000355754 9.1886 0)
(-0.00401414 9.06822 0)
(-0.0104602 8.95148 0)
(-0.0171367 8.84472 0)
(-0.0265633 8.74067 0)
(-0.0403838 8.64816 0)
(-0.0587253 8.56382 0)
(-0.0833169 8.48542 0)
(-0.113567 8.41753 0)
(-0.149133 8.36215 0)
(-0.188504 8.32196 0)
(-0.229742 8.29611 0)
(-0.271002 8.28481 0)
(-0.30963 8.28962 0)
(-0.343038 8.30961 0)
(-0.368547 8.34369 0)
(-0.383628 8.39017 0)
(-0.384657 8.44738 0)
(-0.37332 8.50983 0)
(-0.35576 8.57359 0)
(-0.333258 8.63772 0)
(-0.306977 8.70091 0)
(-0.277951 8.76089 0)
(-0.246979 8.81368 0)
(-0.21478 8.85116 0)
(-0.182884 8.86781 0)
(-0.150298 8.83578 0)
(-0.115925 8.70208 0)
(-0.0816995 8.43738 0)
(-0.0440906 8.03838 0)
(-0.0219609 7.38841 0)
(0.00906287 9.58002 0)
(0.0022154 9.74095 0)
(0.000595889 9.93494 0)
(0.00635499 9.44204 0)
(0.00516687 9.31116 0)
(-0.000540392 9.18801 0)
(-0.00430159 9.06734 0)
(-0.0105501 8.95011 0)
(-0.0171234 8.84282 0)
(-0.0262734 8.73782 0)
(-0.0398797 8.64403 0)
(-0.0580709 8.55779 0)
(-0.0828413 8.47673 0)
(-0.113747 8.40535 0)
(-0.150808 8.34545 0)
(-0.192943 8.29993 0)
(-0.23823 8.26939 0)
(-0.284442 8.25473 0)
(-0.329136 8.25686 0)
(-0.369648 8.27509 0)
(-0.403159 8.30871 0)
(-0.426938 8.35636 0)
(-0.438536 8.41579 0)
(-0.434311 8.48503 0)
(-0.416729 8.55809 0)
(-0.393 8.63084 0)
(-0.364634 8.70254 0)
(-0.332953 8.77205 0)
(-0.299058 8.83742 0)
(-0.263818 8.89462 0)
(-0.229384 8.94618 0)
(-0.194901 8.97868 0)
(-0.159018 8.95288 0)
(-0.121868 8.82455 0)
(-0.0854175 8.56221 0)
(-0.0458497 8.16102 0)
(-0.0226515 7.503 0)
(0.00564065 9.44182 0)
(0.00959746 9.58064 0)
(0.00209917 9.74177 0)
(0.000306888 9.93503 2.0849e-16)
(0.00471027 9.31088 0)
(-0.000599706 9.18752 0)
(-0.00450887 9.06658 0)
(-0.0105804 8.9489 0)
(-0.0170654 8.84114 0)
(-0.0259182 8.73534 0)
(-0.0392484 8.64042 0)
(-0.0572089 8.55254 0)
(-0.0819695 8.46913 0)
(-0.113216 8.39461 0)
(-0.151255 8.33055 0)
(-0.195405 8.27981 0)
(-0.244182 8.24313 0)
(-0.29535 8.22326 0)
(-0.345921 8.2219 0)
(-0.393446 8.23742 0)
(-0.434996 8.2695 0)
(-0.467644 8.3171 0)
(-0.488684 8.37828 0)
(-0.495816 8.45037 0)
(-0.485445 8.5311 0)
(-0.460893 8.61402 0)
(-0.430471 8.69489 0)
(-0.395896 8.77322 0)
(-0.358589 8.84818 0)
(-0.319725 8.91778 0)
(-0.282043 8.98839 0)
(-0.244782 9.05436 0)
(-0.206357 9.09118 0)
(-0.16727 9.06967 0)
(-0.127432 8.94537 0)
(-0.088905 8.68448 0)
(-0.0475038 8.28036 0)
(-0.0232821 7.61394 0)
(0.00338377 9.31066 0)
(0.00701684 9.44261 0)
(0.00903846 9.58203 9.3292e-16)
(0.00199462 9.74263 -6.6181e-16)
(4.12347e-05 9.93515 -4.15438e-16)
(-0.000825955 9.18712 0)
(-0.00461205 9.06593 0)
(-0.0104983 8.94784 0)
(-0.0169751 8.83967 0)
(-0.0255343 8.73316 0)
(-0.0385393 8.63729 0)
(-0.0562225 8.54798 0)
(-0.0808354 8.46251 0)
(-0.112184 8.3852 0)
(-0.150795 8.31738 0)
(-0.196326 8.26178 0)
(-0.247693 8.21903 0)
(-0.303218 8.19221 0)
(-0.359741 8.18516 0)
(-0.414125 8.19708 0)
(-0.463678 8.22657 0)
(-0.505304 8.27295 0)
(-0.536045 8.33463 0)
(-0.553293 8.40916 0)
(-0.554978 8.49346 0)
(-0.537609 8.58498 0)
(-0.505433 8.67691 0)
(-0.467876 8.76497 0)
(-0.426806 8.84903 0)
(-0.383728 8.92829 0)
(-0.34216 9.01107 0)
(-0.301365 9.09541 0)
(-0.259421 9.16446 0)
(-0.217195 9.20372 0)
(-0.175005 9.18507 0)
(-0.132644 9.06384 0)
(-0.0921871 8.80357 0)
(-0.0490606 8.39593 0)
(-0.0238603 7.72095 0)
(-0.00246105 9.18678 0)
(0.0056054 9.31172 -1.98914e-15)
(0.00609344 9.44444 -9.81052e-16)
(0.00882318 9.58342 4.65015e-16)
(0.00189924 9.74355 -4.39603e-16)
(-0.000184161 9.9353 0)
(-0.00513642 9.06538 0)
(-0.0102836 8.94693 0)
(-0.0167813 8.83838 0)
(-0.0251376 8.73127 0)
(-0.0377967 8.63455 0)
(-0.055175 8.54402 0)
(-0.0795395 8.45676 0)
(-0.110818 8.377 0)
(-0.149688 8.3058 0)
(-0.196096 8.24578 0)
(-0.249282 8.19735 0)
(-0.308101 8.16358 0)
(-0.369938 8.14874 0)
(-0.431383 8.15452 0)
(-0.488836 8.18041 0)
(-0.539481 8.22446 0)
(-0.580125 8.2854 0)
(-0.607846 8.36109 0)
(-0.620227 8.44863 0)
(-0.615504 8.54451 0)
(-0.59035 8.64602 0)
(-0.549984 8.746 0)
(-0.50493 8.84032 0)
(-0.457168 8.92898 0)
(-0.411082 9.02145 0)
(-0.366033 9.11775 0)
(-0.319737 9.20457 0)
(-0.273277 9.27493 0)
(-0.227378 9.31526 0)
(-0.182256 9.29842 0)
(-0.137538 9.17933 0)
(-0.0952839 8.91902 0)
(-0.0505339 8.50743 0)
(-0.0243897 7.82383 0)
(-0.00742675 9.0649 0)
(0.000755038 9.18795 4.1959e-15)
(0.00424557 9.31406 0)
(0.00577173 9.44635 9.77883e-16)
(0.00863813 9.58488 3.97059e-20)
(0.00177778 9.74453 0)
(-0.000386331 9.93547 0)
(-0.0106418 8.94614 0)
(-0.0164562 8.83725 0)
(-0.0246429 8.72961 0)
(-0.037042 8.63217 0)
(-0.054121 8.54059 0)
(-0.0781583 8.45178 0)
(-0.109242 8.36988 0)
(-0.148138 8.29568 0)
(-0.195031 8.23167 0)
(-0.249419 8.17803 0)
(-0.310603 8.13773 0)
(-0.376512 8.11503 0)
(-0.444376 8.11213 0)
(-0.510102 8.1315 0)
(-0.569741 8.17211 0)
(-0.620425 8.23111 0)
(-0.658934 8.30669 0)
(-0.682477 8.39619 0)
(-0.688917 8.49622 0)
(-0.676873 8.60294 0)
(-0.643228 8.71348 0)
(-0.594204 8.82055 0)
(-0.54139 8.91999 0)
(-0.490263 9.02211 0)
(-0.440265 9.12817 0)
(-0.388764 9.22672 0)
(-0.33714 9.31432 0)
(-0.286342 9.38468 0)
(-0.236946 9.42513 0)
(-0.189079 9.40913 0)
(-0.142144 9.29139 0)
(-0.0982168 9.03051 0)
(-0.0519329 8.61464 0)
(-0.0248733 7.92248 0)
(-0.0132133 8.94545 0)
(-0.00286786 9.06622 -2.23255e-19)
(-0.00108922 9.19067 0)
(0.00400292 9.31655 -1.02955e-15)
(0.00554131 9.44836 5.79742e-20)
(0.00842146 9.58638 0)
(0.0016332 9.74556 0)
(-0.000569208 9.93566 0)
(-0.016886 8.83628 0)
(-0.0240157 8.72819 0)
(-0.0361766 8.6301 0)
(-0.0530858 8.53761 0)
(-0.076758 8.44746 0)
(-0.107554 8.3637 0)
(-0.146302 8.28687 0)
(-0.193379 8.21929 0)
(-0.24849 8.16092 0)
(-0.311286 8.11457 0)
(-0.380169 8.08444 0)
(-0.453029 8.07271 0)
(-0.526412 8.08257 0)
(-0.595636 8.1164 0)
(-0.656443 8.17227 0)
(-0.705994 8.24649 0)
(-0.741137 8.33666 0)
(-0.759321 8.43957 0)
(-0.758776 8.55141 0)
(-0.738575 8.66806 0)
(-0.695831 8.78666 0)
(-0.637791 8.89964 0)
(-0.581191 9.01298 0)
(-0.525638 9.12897 0)
(-0.468087 9.23733 0)
(-0.410322 9.33645 0)
(-0.353582 9.42357 0)
(-0.298657 9.49304 0)
(-0.245958 9.53273 0)
(-0.195515 9.51674 0)
(-0.1465 9.39969 0)
(-0.101002 9.13782 0)
(-0.0532687 8.71746 0)
(-0.0253147 8.01685 0)
(-0.0200665 8.83543 0)
(-0.00699693 8.94676 -2.32908e-15)
(-0.00525526 9.06939 0)
(-0.00105612 9.19352 0)
(0.00391409 9.31918 3.07702e-15)
(0.00528857 9.45044 0)
(0.0081865 9.58792 0)
(0.00147538 9.74665 8.67172e-16)
(-0.000719494 9.93584 0)
(-0.0243155 8.72697 0)
(-0.0351612 8.62832 0)
(-0.0519539 8.53503 0)
(-0.0753724 8.44373 0)
(-0.105836 8.35835 0)
(-0.1443 8.27921 0)
(-0.191333 8.20846 0)
(-0.246801 8.14584 0)
(-0.310608 8.09397 0)
(-0.381574 8.05691 0)
(-0.458148 8.03676 0)
(-0.53758 8.03684 0)
(-0.615846 8.06038 0)
(-0.687646 8.10936 0)
(-0.748456 8.18096 0)
(-0.795594 8.27053 0)
(-0.826089 8.37505 0)
(-0.837733 8.49079 0)
(-0.829222 8.61361 0)
(-0.800123 8.73923 0)
(-0.747797 8.86466 0)
(-0.685445 8.99221 0)
(-0.623801 9.1199 0)
(-0.559401 9.23842 0)
(-0.494501 9.34737 0)
(-0.430715 9.44583 0)
(-0.369105 9.53157 0)
(-0.310273 9.59936 0)
(-0.254468 9.63753 0)
(-0.201598 9.62088 0)
(-0.150627 9.50399 0)
(-0.103657 9.2408 0)
(-0.0545462 8.81584 0)
(-0.0257184 8.10695 0)
(-0.0278996 8.72591 0)
(-0.0122709 8.8368 0)
(-0.00968021 8.95008 -2.41853e-15)
(-0.00532974 9.07268 -2.28831e-15)
(-0.00101589 9.1965 -4.32646e-15)
(0.00376254 9.32191 0)
(0.00503097 9.4526 -1.93162e-15)
(0.00795401 9.58951 -1.82787e-15)
(0.00128617 9.74778 8.62412e-16)
(-0.000832418 9.93604 0)
(-0.0352475 8.62679 0)
(-0.0506765 8.53281 0)
(-0.0738741 8.4405 0)
(-0.104131 8.35373 0)
(-0.142235 8.27255 0)
(-0.189044 8.19901 0)
(-0.244591 8.13259 0)
(-0.308941 8.07572 0)
(-0.381276 8.0323 0)
(-0.460512 8.00425 0)
(-0.544519 7.99492 0)
(-0.63004 8.00775 0)
(-0.712413 8.04578 0)
(-0.785695 8.11056 0)
(-0.845206 8.19822 0)
(-0.888563 8.30308 0)
(-0.913099 8.42151 0)
(-0.917061 8.54934 0)
(-0.899686 8.6822 0)
(-0.861073 8.81557 0)
(-0.804735 8.95635 0)
(-0.736558 9.09896 0)
(-0.664507 9.22961 0)
(-0.591482 9.3489 0)
(-0.519513 9.45717 0)
(-0.449996 9.55407 0)
(-0.38377 9.63768 0)
(-0.321252 9.70312 0)
(-0.262521 9.73919 0)
(-0.207367 9.72132 0)
(-0.154543 9.60414 0)
(-0.106196 9.3394 0)
(-0.0557758 8.90977 0)
(-0.0260879 8.1928 0)
(-0.039197 8.62546 0)
(-0.018367 8.72728 -2.58429e-15)
(-0.0154332 8.84041 2.54837e-15)
(-0.00951518 8.95356 2.5476e-19)
(-0.00521863 9.07612 2.28001e-15)
(-0.00102411 9.19959 2.15385e-15)
(0.00363418 9.32476 4.0663e-15)
(0.00477212 9.45484 2.8827e-15)
(0.00768319 9.59116 -9.08918e-16)
(0.00107679 9.74895 0)
(-0.000905064 9.93624 0)
(-0.0506999 8.53092 0)
(-0.0722085 8.43773 0)
(-0.102302 8.34973 0)
(-0.140167 8.26679 0)
(-0.186638 8.19077 0)
(-0.242048 8.12098 0)
(-0.306575 8.05962 0)
(-0.379721 8.0104 0)
(-0.460768 7.97504 0)
(-0.548127 7.95683 0)
(-0.639231 7.95928 0)
(-0.730224 7.98573 0)
(-0.815751 8.03902 0)
(-0.889254 8.12015 0)
(-0.946035 8.22404 0)
(-0.984179 8.34393 0)
(-1.00146 8.47564 0)
(-0.996668 8.61468 0)
(-0.969646 8.75635 0)
(-0.927996 8.90582 0)
(-0.865918 9.06255 0)
(-0.785465 9.2088 0)
(-0.703232 9.34053 0)
(-0.621882 9.45924 0)
(-0.543178 9.56592 0)
(-0.468232 9.6605 0)
(-0.397645 9.74135 0)
(-0.331657 9.80391 0)
(-0.270162 9.83742 0)
(-0.21285 9.81789 0)
(-0.158269 9.70004 0)
(-0.10863 9.43358 0)
(-0.0569592 8.99928 0)
(-0.0264235 8.27449 0)
(-0.0551853 8.52927 0)
(-0.0276438 8.62668 3.29384e-19)
(-0.0217423 8.73111 0)
(-0.0150748 8.84421 2.85424e-19)
(-0.00903228 8.9572 0)
(-0.0051566 9.07969 -2.27038e-15)
(-0.000998799 9.2028 -4.28757e-15)
(0.00348812 9.32771 -1.50892e-19)
(0.00450251 9.45714 1.91112e-15)
(0.00742429 9.59286 -9.0353e-16)
(0.000839463 9.75017 8.51849e-16)
(-0.00093818 9.93644 0)
(-0.0720156 8.43536 0)
(-0.100286 8.34629 0)
(-0.137949 8.26179 0)
(-0.184198 8.18359 0)
(-0.239332 8.11081 0)
(-0.303742 8.04544 0)
(-0.377265 7.99098 0)
(-0.459449 7.94892 0)
(-0.54916 7.92244 0)
(-0.644445 7.915 0)
(-0.742189 7.93013 0)
(-0.83786 7.97111 0)
(-0.925397 8.0404 0)
(-0.997699 8.13828 0)
(-1.05021 8.25835 0)
(-1.08169 8.3928 0)
(-1.09045 8.537 0)
(-1.07595 8.68604 0)
(-1.04665 8.84465 0)
(-1.00004 9.01096 0)
(-0.92453 9.17224 0)
(-0.832036 9.32011 0)
(-0.739975 9.45148 0)
(-0.650666 9.56862 0)
(-0.565579 9.67291 0)
(-0.485503 9.76455 0)
(-0.410805 9.84217 0)
(-0.341545 9.90146 0)
(-0.277432 9.93206 0)
(-0.218074 9.91052 0)
(-0.161823 9.79167 0)
(-0.110964 9.52336 0)
(-0.0580995 9.08445 0)
(-0.0267276 8.3521 0)
(-0.0768671 8.43332 0)
(-0.041689 8.53041 2.8605e-15)
(-0.0309972 8.63051 -2.82323e-15)
(-0.020981 8.73517 2.67495e-15)
(-0.0142542 8.8482 0)
(-0.00862702 8.961 0)
(-0.00511582 9.0834 2.25965e-15)
(-0.000965898 9.20612 -2.13264e-15)
(0.00336401 9.33076 -1.48429e-19)
(0.00423803 9.45951 9.49999e-16)
(0.007144 9.59462 -8.97819e-16)
(0.000558641 9.75142 -8.45327e-16)
(-0.000927633 9.93662 0)
(-0.0999232 8.34333 0)
(-0.135512 8.25748 0)
(-0.18157 8.17734 0)
(-0.236547 8.10191 0)
(-0.30064 8.03296 0)
(-0.374193 7.97378 0)
(-0.456982 7.92564 0)
(-0.548245 7.89153 0)
(-0.646552 7.87483 0)
(-0.749459 7.87909 0)
(-0.853213 7.90789 0)
(-0.952568 7.96427 0)
(-1.04079 8.05018 0)
(-1.11031 8.16501 0)
(-1.15696 8.301 0)
(-1.18032 8.44935 0)
(-1.17941 8.6049 0)
(-1.16348 8.77182 0)
(-1.12975 8.94827 0)
(-1.06916 9.12013 0)
(-0.98038 9.28374 0)
(-0.876254 9.43166 0)
(-0.774807 9.5616 0)
(-0.677946 9.67633 0)
(-0.586809 9.77758 0)
(-0.501896 9.8658 0)
(-0.423317 9.93981 0)
(-0.350961 9.99555 0)
(-0.284361 10.023 0)
(-0.223062 9.99915 0)
(-0.165217 9.87903 0)
(-0.113201 9.60881 0)
(-0.0591988 9.16536 0)
(-0.0270018 8.42573 0)
(-0.10521 8.34078 0)
(-0.0612589 8.43429 0)
(-0.0449286 8.53444 2.9691e-15)
(-0.0295498 8.63461 -5.6281e-15)
(-0.0196903 8.73948 5.32962e-15)
(-0.013569 8.85237 -5.03936e-15)
(-0.00824836 8.96496 0)
(-0.00503864 9.08725 2.24766e-15)
(-0.000879619 9.20955 -2.12054e-15)
(0.00323838 9.33392 -1.99916e-15)
(0.00394983 9.46195 0)
(0.00686067 9.59645 8.90974e-16)
(0.000243546 9.7527 0)
(-0.000898192 9.93678 0)
(-0.1349 8.25376 0)
(-0.17868 8.1719 0)
(-0.23354 8.09413 0)
(-0.297402 8.02199 0)
(-0.370748 7.95858 0)
(-0.45371 7.90493 0)
(-0.545889 7.86386 0)
(-0.64628 7.83856 0)
(-0.753023 7.83255 0)
(-0.863086 7.84956 0)
(-0.97202 7.89302 0)
(-1.07386 7.96561 0)
(-1.16124 8.0686 0)
(-1.22631 8.20037 0)
(-1.26546 8.35181 0)
(-1.27933 8.51302 0)
(-1.27797 8.68751 0)
(-1.25824 8.87345 0)
(-1.20967 9.05664 0)
(-1.13513 9.23164 0)
(-1.03344 9.3958 0)
(-0.918187 9.54253 0)
(-0.80784 9.67016 0)
(-0.703845 9.78179 0)
(-0.606976 9.87949 0)
(-0.517492 9.96393 0)
(-0.43524 10.0341 0)
(-0.359943 10.086 0)
(-0.290981 10.1101 0)
(-0.227834 10.0838 0)
(-0.168461 9.9622 0)
(-0.115344 9.69 0)
(-0.0602588 9.24213 0)
(-0.0272473 8.49551 0)
(-0.140543 8.25054 0)
(-0.0874332 8.34141 0)
(-0.0641232 8.43844 0)
(-0.0427381 8.53879 5.91839e-15)
(-0.0275006 8.63898 -5.60739e-15)
(-0.0185989 8.74401 5.30767e-15)
(-0.0128684 8.85672 0)
(-0.00782644 8.96909 -2.36876e-15)
(-0.00497476 9.09126 0)
(-0.000786944 9.2131 2.10767e-15)
(0.00310842 9.33719 0)
(0.00366493 9.46445 0)
(0.00655074 9.59833 0)
(-2.02015e-05 9.75398 8.62103e-16)
(-0.00087165 9.93693 4.1447e-16)
(-0.177785 8.16719 0)
(-0.230225 8.08734 0)
(-0.293881 8.01236 0)
(-0.367101 7.94514 0)
(-0.449928 7.88654 0)
(-0.542505 7.83913 0)
(-0.644227 7.80593 0)
(-0.753717 7.79034 0)
(-0.868588 7.79611 0)
(-0.985146 7.82694 0)
(-1.09822 7.88602 0)
(-1.20114 7.97551 0)
(-1.28603 8.09584 0)
(-1.34489 8.24434 0)
(-1.37495 8.41034 0)
(-1.38956 8.59171 0)
(-1.38516 8.78661 0)
(-1.34971 8.98076 0)
(-1.28618 9.16809 0)
(-1.19795 9.34424 0)
(-1.08382 9.5075 0)
(-0.957983 9.65198 0)
(-0.839227 9.77654 0)
(-0.72849 9.88456 0)
(-0.626197 9.97834 0)
(-0.532369 10.0587 0)
(-0.446626 10.1248 0)
(-0.368524 10.1729 0)
(-0.297312 10.1934 0)
(-0.232399 10.1644 0)
(-0.171564 10.0412 0)
(-0.117398 9.76702 0)
(-0.0612782 9.31486 0)
(-0.027464 8.56154 0)
(-0.183773 8.16309 0)
(-0.120499 8.25064 0)
(-0.0896492 8.34545 6.57169e-15)
(-0.0608716 8.44298 6.22399e-15)
(-0.0398434 8.54347 5.89558e-15)
(-0.0256177 8.64362 -5.58264e-15)
(-0.0175014 8.74876 0)
(-0.0121613 8.86124 0)
(-0.00739207 8.97339 0)
(-0.0048778 9.09541 4.44286e-15)
(-0.00064053 9.21677 2.09368e-15)
(0.0029847 9.34058 1.97076e-15)
(0.00334651 9.467 0)
(0.0062216 9.60021 -9.08646e-16)
(-0.000180315 9.75522 -4.38936e-16)
(-0.000848839 9.93707 0)
(-0.229073 8.08141 0)
(-0.28999 8.0039 0)
(-0.363108 7.93328 0)
(-0.44585 7.87023 0)
(-0.538447 7.81708 0)
(-0.64088 7.77666 0)
(-0.752234 7.75221 0)
(-0.870666 7.74741 0)
(-0.99317 7.7661 0)
(-1.11535 7.81183 0)
(-1.23129 7.88743 0)
(-1.33372 7.99432 0)
(-1.41435 8.13208 0)
(-1.46525 8.29666 0)
(-1.49754 8.48421 0)
(-1.51016 8.68768 0)
(-1.48923 8.89265 0)
(-1.43769 9.09221 0)
(-1.35929 9.28142 0)
(-1.25778 9.45704 0)
(-1.13174 9.6181 0)
(-0.995841 9.75941 0)
(-0.869135 9.8803 0)
(-0.752009 9.98433 0)
(-0.644569 10.0739 0)
(-0.546591 10.15 0)
(-0.457517 10.2119 0)
(-0.376736 10.256 0)
(-0.303374 10.273 0)
(-0.23677 10.2412 0)
(-0.174533 10.1163 0)
(-0.119365 9.84002 0)
(-0.0622565 9.38371 0)
(-0.0276557 8.62396 0)
(-0.235391 8.07624 0)
(-0.161274 8.16243 0)
(-0.121683 8.25436 -1.384e-14)
(-0.0851633 8.34997 -7.86646e-19)