/*--------------------------------*- C++ -*----------------------------------*\
  =========                 |
  \\      /  F ield         | OpenFOAM: The Open Source CFD Toolbox
   \\    /   O peration     | Website:  https://openfoam.org
    \\  /    A nd           | Version:  8
     \\/     M anipulation  |
\*---------------------------------------------------------------------------*/
FoamFile
{
    version     2.0;
    format      ascii;
    class       volScalarField;
    location    "1100";
    object      epsilon;
}
// * * * * * * * * * * * * * * * * * * * * * * * * * * * * * * * * * * * * * //

dimensions      [0 2 -3 0 0 0 0];

internalField   nonuniform List<scalar> 
15677
(
1182.95
450.741
1558.77
85.8084
451.65
1455.62
19.8101
116.597
388.112
1275.54
7.2126
35.9267
104.773
360.521
1158.54
3.82901
14.3045
37.2938
92.6199
361.013
1085.47
2.64035
7.18079
17.114
35.2365
94.125
365.884
1041.51
2.1617
4.33784
9.17372
17.2866
33.6991
99.4777
372.543
1010.77
1.97289
3.03441
5.5836
9.9214
17.0571
33.9573
109.125
372.995
990.845
1.90448
2.3828
3.79254
6.27473
10.1574
16.6797
35.4175
119.151
372.105
974.736
1.87844
2.06059
2.83785
4.30807
6.63566
10.133
16.7265
38.3702
129.237
368.213
963.677
1.86721
1.92147
2.31398
3.1911
4.6379
6.78587
10.0806
17.0251
42.3059
137.13
363.494
957.1
1.86735
1.86801
2.02992
2.53932
3.44694
4.83136
6.83312
10.0852
17.7053
46.4677
143.45
358.902
954.743
1.86899
1.84318
1.89333
2.15983
2.7194
3.62239
4.93525
6.8472
10.1428
18.7217
50.7491
148.04
354.895
955.677
1.86963
1.83738
1.83764
1.9488
2.27427
2.85601
3.73625
4.98945
6.85224
10.2864
19.9556
54.6092
151.503
351.711
959.155
1.86973
1.83717
1.81462
1.84527
2.00981
2.36887
2.95499
3.80825
5.01511
6.86579
10.5507
21.2098
58.2214
153.593
349.321
966.415
1.8697
1.83752
1.80889
1.80066
1.86356
2.06603
2.44319
3.02489
3.8517
5.02593
6.9006
10.8419
22.5574
61.1662
154.982
347.604
977.69
1.86967
1.83768
1.80791
1.78608
1.79397
1.88814
2.11374
2.49991
3.07263
3.87607
5.0325
6.95345
11.1881
23.7847
63.6995
155.482
346.568
992.48
1.86966
1.83771
1.80789
1.78199
1.76781
1.79444
1.91114
2.15269
2.54187
3.10402
3.88847
5.03792
7.02528
11.5224
24.9861
65.5213
155.48
346.13
1010.87
1.86966
1.83769
1.80793
1.78101
1.75907
1.75495
1.79654
1.93166
2.18336
2.57212
3.12324
3.89346
5.04607
7.09858
11.8728
26.0053
66.8941
155.209
346.223
1032.91
1.86965
1.83768
1.80794
1.78083
1.75638
1.74002
1.74513
1.80069
1.94894
2.20691
2.59284
3.13405
3.89311
5.05361
7.17926
12.1902
26.8881
67.702
154.619
346.677
1058.62
1.86965
1.83766
1.80792
1.78079
1.75563
1.73471
1.72373
1.73808
1.80499
1.96298
2.22426
2.60647
3.13826
3.89082
5.06253
7.25375
12.4828
27.5485
68.1591
153.628
347.657
1087.96
1.86965
1.83765
1.80789
1.78076
1.75542
1.73298
1.71521
1.71028
1.73261
1.80891
1.9739
2.2367
2.61433
3.13771
3.88616
5.06925
7.32305
12.7189
28.0416
68.1099
152.51
349.125
1120.92
1.86966
1.83765
1.80787
1.78073
1.75534
1.73245
1.71206
1.69838
1.69869
1.72845
1.81211
1.98216
2.24504
2.6182
3.13524
3.87917
5.07493
7.37918
12.9117
28.3302
67.8818
151.327
351.034
1157.28
1.86966
1.83764
1.80786
1.7807
1.75528
1.73226
1.71095
1.6936
1.6832
1.68916
1.72494
1.81465
1.98823
2.2505
2.61864
3.13008
3.87138
5.07612
7.42225
13.0343
28.4396
67.3716
150.042
353.298
1197.08
1.86966
1.83763
1.80785
1.78067
1.75524
1.73216
1.71054
1.69178
1.67652
1.67039
1.68078
1.72218
1.8167
1.99273
2.25371
2.61795
3.1239
3.86191
5.07473
7.44975
13.1184
28.3942
66.6132
148.644
356
1239.95
1.86966
1.83763
1.80785
1.78065
1.7552
1.73209
1.71036
1.69108
1.67378
1.66189
1.65874
1.6741
1.72002
1.81848
1.99628
2.25582
2.61651
3.11678
3.85265
5.07067
7.46126
13.1189
28.2587
65.7029
147.258
358.994
1285.94
1.86966
1.83762
1.80784
1.78063
1.75517
1.73203
1.71025
1.69076
1.67267
1.6582
1.64827
1.64945
1.66845
1.7187
1.82064
1.99969
2.25797
2.61455
3.11111
3.84268
5.06319
7.45657
13.0969
27.9946
64.6866
145.806
362.393
1334.51
1.86967
1.83762
1.80784
1.78061
1.75515
1.73198
1.71017
1.69059
1.67219
1.65662
1.64351
1.63736
1.64106
1.66458
1.71899
1.82366
2.00372
2.26066
2.61484
3.10588
3.83499
5.05291
7.44365
13.0425
27.6398
63.566
144.417
366.026
1385.81
1.86967
1.83761
1.80784
1.7806
1.75513
1.73194
1.71011
1.69047
1.67194
1.65589
1.64141
1.63162
1.62717
1.63561
1.66248
1.72057
1.82812
2.00937
2.26544
2.61679
3.10525
3.82867
5.04227
7.41905
12.9435
27.2206
62.4084
142.994
370.008
1438.84
1.86967
1.83761
1.80784
1.78058
1.75512
1.7319
1.71006
1.69037
1.67177
1.65551
1.64043
1.62892
1.62043
1.62057
1.63107
1.66328
1.72424
1.83506
2.01763
2.27335
2.62185
3.10722
3.82613
5.03236
7.38743
12.8205
26.7618
61.2062
141.668
374.169
1499.94
1.86968
1.8376
1.80784
1.78057
1.75511
1.73187
1.71002
1.69029
1.67165
1.65527
1.63994
1.62761
1.61723
1.61293
1.61449
1.63132
1.66621
1.7313
1.84536
2.0297
2.2852
2.6319
3.11313
3.82782
5.02433
7.35095
12.6823
26.2745
60.0165
140.333
379.138
1569.75
1.86968
1.8376
1.80785
1.78056
1.7551
1.73184
1.70998
1.69022
1.67155
1.6551
1.63963
1.62693
1.61566
1.60911
1.60617
1.61398
1.63366
1.67251
1.7425
1.86023
2.04656
2.30256
2.64791
3.1253
3.83359
5.01921
7.31385
12.5347
25.7775
58.8227
138.984
384.953
1640.93
1.86968
1.8376
1.80785
1.78055
1.7551
1.73182
1.70996
1.69016
1.67146
1.65496
1.63941
1.62652
1.61484
1.60716
1.60203
1.6048
1.61595
1.63946
1.68401
1.75901
1.88074
2.06975
2.32644
2.67096
3.14513
3.84571
5.02037
7.27794
12.3846
25.2782
57.5468
137.528
391.031
1712.97
1.86968
1.83759
1.80785
1.78054
1.7551
1.73179
1.70993
1.69011
1.67139
1.65484
1.63923
1.62622
1.61434
1.60613
1.59989
1.60007
1.60662
1.62151
1.65078
1.70146
1.78193
1.90842
2.10026
2.35841
2.70195
3.17299
3.86659
5.02565
7.24501
12.2354
24.7377
56.1662
136.236
397.274
1785.26
1.83759
1.86972
1.80785
1.78054
1.75509
1.73177
1.70992
1.69006
1.67134
1.65474
1.63908
1.62599
1.61397
1.6055
1.59874
1.59761
1.60182
1.61209
1.63266
1.6689
1.72602
1.81284
1.94437
2.13978
2.3992
2.74229
3.20953
3.89612
5.03724
7.21743
12.077
24.1602
54.8918
135.013
403.659
1857.24
1.80785
1.83768
1.86979
1.78053
1.75509
1.73176
1.70991
1.69002
1.67129
1.65465
1.63895
1.6258
1.61368
1.60506
1.59802
1.59628
1.59933
1.60729
1.62322
1.65134
1.69473
1.75933
1.85297
1.99035
2.18911
2.45043
2.79241
3.25604
3.93411
5.05816
7.19516
11.9116
23.6262
53.6912
133.947
410.101
1928.46
1.78052
1.80801
1.83788
1.86987
1.75509
1.73174
1.70989
1.68998
1.67126
1.65457
1.63885
1.62564
1.61344
1.60471
1.59751
1.59548
1.59801
1.60485
1.61852
1.64246
1.67825
1.72998
1.80272
1.90419
2.04737
2.25015
2.51253
2.85355
3.3124
3.98185
5.09095
7.18082
11.7662
23.1326
52.6006
132.961
416.616
1998.43
1.75509
1.78073
1.80833
1.83808
1.86995
1.73173
1.70989
1.68995
1.67123
1.65449
1.63876
1.62549
1.61323
1.60443
1.5971
1.59493
1.59723
1.60362
1.61626
1.63832
1.67043
1.7154
1.77623
1.85806
1.96748
2.11733
2.32317
2.587
2.92587
3.37962
4.04565
5.13935
7.18338
11.6394
22.6878
51.5909
132.114
423.044
2066.84
1.73172
1.75535
1.78114
1.80866
1.83829
1.87002
1.70988
1.68992
1.6712
1.65443
1.63869
1.62537
1.61306
1.6042
1.59677
1.5945
1.59669
1.60293
1.61523
1.63667
1.66739
1.70943
1.76444
1.8358
1.92719
2.04518
2.20056
2.40998
2.67384
3.0101
3.46609
4.13059
5.20149
7.19415
11.5312
22.2862
50.6835
131.354
429.415
2133.31
1.70987
1.732
1.75587
1.78157
1.809
1.8385
1.87011
1.68989
1.67118
1.65437
1.63864
1.62525
1.61292
1.60399
1.59648
1.59415
1.59629
1.6025
1.61477
1.63625
1.66677
1.70815
1.76131
1.82844
1.91092
2.01275
2.13868
2.29995
2.50989
2.77412
3.11736
3.57801
4.22982
5.2758
7.21681
11.4431
21.9301
49.8543
130.717
435.632
2197.65
1.68987
1.7102
1.73259
1.7564
1.78201
1.80935
1.83872
1.87019
1.67117
1.65432
1.63859
1.62515
1.6128
1.60382
1.59624
1.59387
1.59597
1.60218
1.61455
1.63632
1.66732
1.70923
1.76246
1.82872
1.90854
2.00415
2.11695
2.25134
2.41591
2.6262
2.89918
3.25271
3.70458
4.34136
5.36041
7.25374
11.3729
21.6141
49.1154
130.159
441.733
2259.64
1.67115
1.69021
1.71088
1.73319
1.75695
1.78246
1.8097
1.83895
1.87027
1.65427
1.63856
1.62506
1.61271
1.60367
1.59604
1.59363
1.59571
1.60195
1.61444
1.63659
1.66832
1.71151
1.76619
1.83384
1.91412
2.00847
2.11647
2.24133
2.38387
2.55184
2.77344
3.05936
3.40503
3.84504
4.46339
5.45476
7.3005
11.3208
21.3368
48.4464
129.701
447.643
2319.16
1.65423
1.67154
1.69093
1.71158
1.73381
1.75751
1.78292
1.81007
1.83918
1.87036
1.63853
1.62498
1.61265
1.60353
1.59587
1.59344
1.5955
1.60177
1.6144
1.63694
1.66945
1.71412
1.77108
1.84168
1.92483
2.02167
2.13046
2.25249
2.38673
2.53756
2.72491
2.96423
3.24204
3.57472
3.99783
4.59513
5.55706
7.35651
11.2826
21.094
47.8531
129.311
453.401
2376.11
1.63851
1.6546
1.67233
1.69167
1.71229
1.73446
1.75809
1.7834
1.81045
1.83942
1.87045
1.6249
1.61259
1.60341
1.59573
1.59329
1.59533
1.60164
1.61441
1.6373
1.67061
1.71675
1.77615
1.85071
1.93854
2.04045
2.15396
2.27947
2.41348
2.55818
2.7321
2.94516
3.18173
3.44728
3.76105
4.1627
4.73491
5.6662
7.41953
11.2598
20.8826
47.3195
128.998
458.945
2430.45
1.62483
1.63891
1.65539
1.67314
1.69243
1.71303
1.73512
1.75868
1.78389
1.81083
1.83967
1.87054
1.61255
1.60329
1.59563
1.59316
1.5952
1.60155
1.61445
1.63769
1.67175
1.71927
1.7811
1.85976
1.95351
2.06284
2.18386
2.31716
2.45733
2.60502
2.778
2.98478
3.19549
3.42177
3.67299
3.96351
4.33799
4.88177
5.78038
7.48902
11.2463
20.6992
46.8487
128.742
464.313
2482.14
1.61252
1.62518
1.63976
1.65621
1.67398
1.69321
1.71378
1.7358
1.75929
1.7844
1.81122
1.83992
1.87063
1.60318
1.59556
1.59306
1.5951
1.60149
1.61453
1.63808
1.67285
1.72167
1.78583
1.86846
1.9683
2.08688
2.21837
2.36272
2.51379
2.67138
2.85289
3.06666
3.27656
3.47717
3.6838
3.91364
4.18039
4.52315
5.03461
5.89897
7.56298
11.2472
20.5408
46.4292
128.542
469.455
2531.22
1.60308
1.6129
1.62595
1.64063
1.65705
1.67484
1.69402
1.71456
1.7365
1.75992
1.78492
1.81163
1.84018
1.87073
1.59551
1.59297
1.59502
1.60146
1.61463
1.63848
1.67392
1.72393
1.79032
1.87671
1.98252
2.11066
2.25513
2.41474
2.58053
2.75355
2.9513
3.18284
3.40431
3.60861
3.78961
3.96822
4.16789
4.40649
4.71669
5.19219
6.02008
7.64077
11.2527
20.4033
46.0586
128.391
474.408
2577.69
1.59549
1.60331
1.6137
1.62675
1.64153
1.65793
1.67573
1.69486
1.71535
1.73722
1.76056
1.78546
1.81204
1.84044
1.87081
1.59287
1.59495
1.60145
1.61475
1.63889
1.67495
1.72607
1.79456
1.88447
1.9961
2.13365
2.29153
2.47048
2.65671
2.85006
3.07087
3.32995
3.57482
3.79422
3.98191
4.13222
4.2732
4.43503
4.63868
4.91527
5.35226
6.14313
7.72114
11.2645
20.2848
45.731
128.28
479.13
2621.64
1.59278
1.59575
1.60387
1.61451
1.62758
1.64247
1.65883
1.67664
1.69572
1.71617
1.73796
1.76122
1.78601
1.81245
1.84069
1.8709
1.59487
1.60144
1.61487
1.6393
1.67595
1.72811
1.79857
1.89177
2.00901
2.15565
2.32692
2.52648
2.73902
2.96098
3.21166
3.50834
3.78838
4.03583
4.2401
4.39761
4.50407
4.59678
4.71345
4.87576
5.11828
5.51525
6.26726
7.80301
11.2837
20.1831
45.4408
128.209
483.661
2663.11
1.59483
1.59272
1.59629
1.60444
1.61537
1.62846
1.64343
1.65977
1.67758
1.69662
1.71701
1.73873
1.76189
1.78655
1.81285
1.84093
1.87098
1.60141
1.615
1.6397
1.6769
1.73003
1.80234
1.89863
2.02125
2.17656
2.36114
2.58174
2.82237
3.08247
3.37591
3.72174
4.05051
4.34048
4.57525
4.74705
4.8571
4.90419
4.93699
5.00093
5.11586
5.32052
5.67916
6.39144
7.88578
11.3075
20.0957
45.1843
128.162
487.96
2702.19
1.60144
1.59464
1.59259
1.59683
1.60505
1.61627
1.62937
1.64442
1.66075
1.67854
1.69754
1.71788
1.73951
1.76256
1.78708
1.81324
1.84117
1.87106
1.6151
1.64007
1.67779
1.73184
1.80589
1.90506
2.03282
2.19636
2.3941
2.63575
2.90513
3.20806
3.56024
3.97736
4.37243
4.72421
5.00728
5.20704
5.32212
5.3624
5.33171
5.29195
5.29534
5.35857
5.52109
5.84237
6.51479
7.9686
11.335
20.0213
44.9575
128.15
492.072
2738.97
1.61527
1.60101
1.59416
1.5924
1.59745
1.60572
1.6172
1.63033
1.64543
1.66176
1.67953
1.69849
1.71876
1.74029
1.76321
1.78759
1.81361
1.8414
1.87114
1.64038
1.67861
1.73353
1.80919
1.91108
2.0437
2.21504
2.42573
2.68806
2.98673
3.33619
3.75567
4.27305
4.77264
5.2156
5.57409
5.82109
5.95028
5.97415
5.91606
5.78592
5.65986
5.59481
5.60221
5.71923
6.00364
6.63644
8.05097
11.3652
19.9576
44.757
128.157
495.959
2773.54
1.64078
1.61445
1.59987
1.59361
1.59232
1.59811
1.60646
1.61815
1.63134
1.64647
1.66281
1.68055
1.69946
1.71963
1.74105
1.76384
1.78809
1.81398
1.84162
1.87122
1.67932
1.73507
1.81225
1.91668
2.05389
2.23261
2.45595
2.73831
3.06693
3.46609
3.95844
4.59592
5.25851
5.86145
6.33979
6.66564
6.82269
6.82645
6.71223
6.52034
6.26597
6.03893
5.89762
5.84525
5.91419
6.162
6.75578
8.13215
11.3975
19.9038
44.5796
128.176
499.667
2801.77
1.68009
1.63935
1.61215
1.5986
1.59319
1.59234
1.59878
1.60727
1.61912
1.63239
1.64755
1.66389
1.68159
1.70042
1.72048
1.74178
1.76445
1.78858
1.81433
1.84184
1.87129
1.73643
1.81503
1.92187
2.06338
2.24908
2.48466
2.78632
3.14555
3.59645
4.16577
4.94327
5.82143
6.69578
7.40154
7.85929
8.07019
8.05095
7.85369
7.5429
7.1762
6.77054
6.42737
6.20217
6.08639
6.10528
6.31665
6.8721
8.21191
11.4313
19.8579
44.4229
128.214
502.704
2825.63
1.73783
1.67794
1.63527
1.60969
1.5975
1.59286
1.59248
1.59946
1.60816
1.62012
1.6335
1.64865
1.66501
1.68262
1.70137
1.72131
1.7425
1.76505
1.78905
1.81468
1.84205
1.87137
1.81751
1.92662
2.07217
2.26447
2.51177
2.83197
3.22229
3.72568
4.37579
5.31661
6.46564
7.71217
8.82524
9.56198
9.87667
9.84254
9.53112
9.04123
8.46785
7.88233
7.29756
6.82326
6.50693
6.32449
6.29188
6.46716
6.98579
8.28983
11.4659
19.8197
44.2837
128.253
505.301
2851.57
1.81996
1.73472
1.67141
1.6309
1.60752
1.5965
1.59258
1.59282
1.60013
1.60912
1.62115
1.63465
1.64978
1.66612
1.68363
1.70228
1.72212
1.7432
1.76563
1.78951
1.81501
1.84225
1.87144
1.93089
2.08022
2.27879
2.53724
2.87523
3.2968
3.85232
4.58805
5.71783
7.19372
8.90767
10.583
11.8644
12.4714
12.4565
12.0084
11.2691
10.387
9.48292
8.63483
7.84408
7.22451
6.81048
6.55858
6.47347
6.61185
7.09613
8.36575
11.501
19.7871
44.1766
128.299
508.125
2879.81
1.93498
1.81565
1.72471
1.66454
1.6269
1.60549
1.59558
1.59223
1.59334
1.60081
1.61016
1.62222
1.63583
1.65092
1.6672
1.68462
1.70317
1.72291
1.74387
1.76619
1.78996
1.81534
1.84245
1.87147
2.08754
2.29201
2.56106
2.91613
3.36867
3.97538
4.80304
6.14708
8.0007
10.2694
12.648
14.6985
15.9732
16.2076
15.6236
14.5657
13.2532
11.8787
10.5786
9.42743
8.40635
7.62887
7.11145
6.78783
6.65002
6.75072
7.20279
8.43925
11.5361
19.7638
44.0893
128.35
511.243
2910.53
2.09433
1.92915
1.80071
1.7143
1.65822
1.62314
1.60359
1.59473
1.59188
1.59399
1.60152
1.61125
1.62333
1.63702
1.65203
1.66825
1.68558
1.70404
1.72367
1.74453
1.76674
1.79039
1.81565
1.84255
1.87147
2.30418
2.58316
2.95466
3.43752
4.09439
5.02153
6.60209
8.87585
11.7741
14.9847
18.0101
20.2697
21.2632
20.8075
19.3723
17.4915
15.4588
13.4967
11.7418
10.2522
8.98
8.03403
7.40857
7.01154
6.82102
6.88387
7.30533
8.51033
11.5666
19.7453
43.9993
128.423
514.639
2944.01
2.31523
2.08669
1.90714
1.78535
1.70468
1.6522
1.61956
1.60182
1.59395
1.5916
1.59473
1.60229
1.61239
1.62446
1.63817
1.65312
1.66927
1.68652
1.70488
1.72442
1.74517
1.76728
1.79081
1.81581
1.84255
1.87147
2.60367
2.9908
3.50308
4.20934
5.2441
7.07863
9.80556
13.3941
17.5478
21.7379
25.2775
27.466
27.8054
26.2748
23.6738
20.7493
17.8538
15.2177
12.9573
11.1003
9.56042
8.43765
7.70064
7.22911
6.98614
7.01121
7.40383
8.56978
11.5932
19.7278
43.9055
128.506
518.401
2980.46
2.62187
2.30519
2.0546
1.88484
1.77113
1.69549
1.64643
1.61618
1.60018
1.59326
1.59143
1.59553
1.60314
1.61352
1.62558
1.6393
1.65418
1.67027
1.68743
1.7057
1.72514
1.74579
1.7678
1.79102
1.81581
1.84255
1.87147
3.02473
3.56521
4.32051
5.47074
7.57115
10.7754
15.1014
20.2888
25.8078
30.9012
34.6962
36.4119
35.6286
32.5826
28.4814
24.2934
20.4023
17.0167
14.2095
11.9627
10.1431
8.83753
7.98655
7.44005
7.14508
7.13303
7.4856
8.62084
11.6234
19.7102
43.8105
128.62
522.505
3020.21
3.05444
2.60888
2.25848
2.02255
1.86417
1.75749
1.68663
1.64091
1.61301
1.59867
1.59268
1.59136
1.59637
1.60404
1.61463
1.62669
1.64039
1.65523
1.67124
1.68832
1.7065
1.72585
1.7464
1.76805
1.79102
1.81581
1.84255
1.87147
3.62414
4.42842
5.70085
8.07325
11.771
16.8685
23.1598
30.1399
37.0216
42.8075
46.4586
47.1758
44.7165
39.6752
33.7341
28.0732
23.0675
18.869
15.483
12.8308
10.7237
9.23167
8.26541
7.64394
7.29779
7.23384
7.55558
8.67738
11.6575
19.6949
43.7121
128.749
527.066
3063.52
3.67534
3.03727
2.54079
2.21259
1.99282
1.84431
1.74431
1.6781
1.63564
1.61003
1.59728
1.59221
1.59143
1.59719
1.60499
1.6157
1.62779
1.64146
1.65625
1.67218
1.68919
1.70728
1.72653
1.7467
1.76805
1.79102
1.81581
1.84255
1.87147
4.53364
5.93134
8.57833
12.7785
18.6696
26.1144
34.6545
43.5088
51.611
57.7251
60.6855
59.7625
55.0071
47.4717
39.3608
32.0358
25.8132
20.7516
16.7638
13.6965
11.2979
9.61821
8.53654
7.84056
7.42498
7.32003
7.63274
8.74008
11.6964
19.6798
43.615
128.922
532.054
3110.79
4.62626
3.65309
2.93643
2.47506
2.17002
1.96422
1.82508
1.73158
1.66991
1.63063
1.60725
1.59604
1.59187
1.59168
1.59797
1.60598
1.61675
1.62888
1.6425
1.65725
1.6731
1.69004
1.70803
1.72687
1.7467
1.76805
1.79102
1.81581
1.84255
1.87143
6.15976
9.08198
13.7854
20.4802
29.109
39.2753
50.233
60.8993
69.9196
75.8344
77.4129
74.1086
66.3946
55.8709
45.2841
36.1283
28.6059
22.6438
18.0397
14.5528
11.8623
9.99553
8.79946
8.00552
7.53395
7.415
7.71796
8.80973
11.7405
19.6693
43.5158
129.121
537.621
3162.29
4.5966
6.36169
3.49854
2.84146
2.41404
2.12906
1.93653
1.80649
1.71931
1.66206
1.62586
1.60472
1.59494
1.59161
1.59217
1.59872
1.60699
1.61777
1.62995
1.64351
1.65823
1.674
1.69086
1.7084
1.72687
1.74669
1.76805
1.79102
1.81581
1.84245
1.87136
9.57984
14.7807
22.2784
32.1032
43.932
57.0726
70.4671
82.7201
92.1867
97.2118
96.5854
90.0839
78.737
64.7573
51.424
40.3001
31.415
24.5275
19.2999
15.3937
12.4139
10.3625
9.02081
8.14711
7.65429
7.51979
7.81218
8.88722
11.791
19.6594
43.422
129.379
543.721
3218.53
4.34219
6.3335
10.0196
3.3582
2.75342
2.35539
2.08942
1.90974
1.78854
1.70751
1.65456
1.62132
1.60244
1.59399
1.59128
1.5928
1.59945
1.60801
1.61877
1.631
1.6445
1.65918
1.67487
1.69127
1.7084
1.72688
1.7467
1.76805
1.79102
1.81565
1.84225
1.87129
15.7545
24.0454
35.0616
48.5617
63.9198
80.128
95.8124
109.259
118.531
121.82
118.054
107.499
91.8638
74.0073
57.7021
44.5045
34.2133
26.3868
20.5357
16.2144
12.9505
10.6719
9.2111
8.30374
7.78751
7.63562
7.91653
8.97359
11.8486
19.6575
43.3279
129.68
550.566
3279.8
4.11928
5.88481
10.0113
16.616
3.22938
2.66887
2.2987
2.05107
1.88386
1.77125
1.69621
1.64741
1.61708
1.60043
1.5932
1.59103
1.59351
1.60019
1.60902
1.61977
1.63203
1.64547
1.66011
1.6753
1.69127
1.7084
1.72688
1.7467
1.76805
1.79081
1.81533
1.84204
1.87122
25.765
37.9554
53.1118
70.6824
89.7234
108.92
126.585
140.671
148.944
149.505
141.585
126.116
105.586
83.4962
64.0444
48.6993
36.9771
28.2092
21.74
17.0114
13.4022
10.9379
9.42197
8.47736
7.93519
7.76386
8.03227
9.07004
11.9146
19.6601
43.2469
130.064
558.082
3346.68
3.91873
5.49378
9.19453
16.6728
27.2956
3.10638
2.5873
2.24392
2.01404
1.85893
1.75466
1.68541
1.64069
1.61328
1.59873
1.59254
1.59088
1.59424
1.60095
1.61001
1.62074
1.63304
1.64642
1.66058
1.67529
1.69127
1.7084
1.72688
1.7467
1.76779
1.79039
1.815
1.84183
1.87114
40.7604
57.5412
77.2871
99.1257
121.818
143.764
162.958
176.976
183.281
180
166.868
145.662
119.709
93.1047
70.3829
52.8472
39.6871
29.9842
22.9076
17.6805
13.7904
11.233
9.65608
8.67013
8.09918
7.90611
8.16089
9.17794
11.9905
19.6682
43.1665
130.516
566.569
3419.48
3.73083
5.14264
8.46599
15.3047
27.518
43.2656
2.98825
2.50865
2.19112
1.97839
1.835
1.7388
1.67523
1.63459
1.60997
1.59727
1.59202
1.59085
1.59498
1.60173
1.61099
1.62171
1.63403
1.64689
1.66057
1.67529
1.69127
1.7084
1.72687
1.74639
1.76727
1.78995
1.81467
1.84161
1.87106
61.8169
83.6809
108.239
134.337
160.488
184.824
204.969
218.055
221.269
212.934
193.533
165.844
134.041
102.721
76.6573
56.9174
42.3273
31.7039
23.8859
18.2549
14.2207
11.5607
9.91642
8.88457
8.28159
8.06422
8.30406
9.2989
12.0777
19.6862
43.1129
131.091
575.913
3498.82
3.5534
4.81642
7.80341
14.0378
25.4233
43.7974
65.6388
2.87477
2.43302
2.14037
1.9442
1.81212
1.72382
1.66593
1.62917
1.60708
1.59602
1.59164
1.59093
1.59571
1.60253
1.61195
1.62268
1.63452
1.64687
1.66057
1.67529
1.69127
1.7084
1.72653
1.74578
1.76673
1.7895
1.81432
1.84139
1.87098
89.8228
117.003
146.363
176.54
205.85
232.131
252.53
263.658
262.505
247.846
221.173
186.373
148.402
112.246
82.8171
60.8843
44.8852
33.1437
24.7253
18.891
14.6982
11.9252
10.2064
9.12359
8.48489
8.24031
8.46379
9.4348
12.1784
19.7173
43.0611
131.765
586.534
3584.97
3.38573
4.51159
7.18451
12.8495
23.4488
40.7999
66.6578
95.3028
2.76596
2.36053
2.09177
1.91154
1.7905
1.71009
1.65761
1.62437
1.60455
1.59497
1.59138
1.59113
1.59642
1.60335
1.61292
1.62314
1.6345
1.64687
1.66058
1.67529
1.69127
1.70803
1.72584
1.74515
1.76618
1.78904
1.81396
1.84116
1.8709
125.371
157.831
191.789
225.766
257.897
285.617
305.439
313.399
306.468
284.208
249.369
206.967
162.628
121.596
88.8203
64.7276
47.0262
34.379
25.6545
19.5963
15.2289
12.3312
10.5299
9.39055
8.71186
8.43684
8.64223
9.58876
12.2951
19.7632
43.0554
132.634
598.272
3696.01
3.2274
4.22756
6.60341
11.7189
21.5584
37.9465
62.5918
96.9967
132.803
2.66189
2.29136
2.04543
1.88072
1.77068
1.69779
1.65018
1.6201
1.60236
1.59409
1.59121
1.59149
1.59711
1.60424
1.61338
1.6231
1.63451
1.64687
1.66057
1.6753
1.69086
1.70726
1.72512
1.74451
1.76561
1.78856
1.8136
1.84092
1.87081
168.703
206.187
244.437
281.929
316.546
345.134
363.382
366.761
352.539
321.461
277.71
227.371
176.582
130.701
94.6333
67.9435
48.8637
35.7467
26.6843
20.3791
15.8192
12.7839
10.8912
9.68915
8.96572
8.65673
8.84064
9.76315
12.4309
19.8278
43.0712
133.653
614.205
3829.76
3.07804
3.96446
6.06044
10.6403
19.7227
35.1764
58.7153
91.7057
135.333
178.281
2.56278
2.22566
2.00177
1.8525
1.7529
1.68675
1.64353
1.61629
1.60051
1.59335
1.591
1.59197
1.59788
1.60465
1.61332
1.6231
1.63451
1.64687
1.66058
1.67487
1.69003
1.70648
1.72439
1.74385
1.76503
1.78808
1.81323
1.84068
1.87072
219.715
261.847
304.097
344.892
381.691
410.481
425.931
423.103
400.029
359.033
305.814
247.368
190.151
139.505
99.4929
70.7036
50.8987
37.2627
27.8269
21.2488
16.4765
13.2892
11.2954
10.0236
9.25015
8.9037
9.06204
9.96095
12.589
19.9174
43.1185
135.205
634.276
3966.68
2.93691
3.72286
5.55733
9.61739
17.9319
32.4485
54.9223
86.6944
128.653
181.738
231.485
2.46891
2.16397
1.96187
1.82718
1.73693
1.67686
1.63759
1.6129
1.59893
1.59274
1.59085
1.59264
1.59818
1.60458
1.61333
1.6231
1.63451
1.64689
1.66011
1.67398
1.68917
1.70568
1.72365
1.74317
1.76443
1.78758
1.81284
1.84043
1.87063
278.026
324.454
370.536
414.548
453.256
481.414
492.547
481.679
448.209
396.382
333.35
266.779
203.242
146.852
103.662
73.7602
53.1547
38.9448
29.0957
22.2159
17.2088
13.8536
11.7478
10.3986
9.56933
9.18144
9.31013
10.1854
12.7739
20.0352
43.2488
137.343
656.53
4105.3
2.80348
3.50515
5.09504
8.6599
16.1875
29.7442
51.1549
81.7834
122.421
173.468
235.845
291.849
2.38118
2.10779
1.92615
1.80448
1.72261
1.66798
1.63227
1.60991
1.59757
1.59225
1.59097
1.59293
1.59802
1.6046
1.61333
1.62311
1.63452
1.64643
1.65917
1.67308
1.6883
1.70486
1.72288
1.74248
1.76382
1.78707
1.81245
1.84018
1.87054
343.11
393.645
443.627
490.983
531.297
557.672
562.579
541.651
496.351
433.027
360.046
285.46
214.137
153.146
108.274
77.1478
55.658
40.8128
30.5059
23.2921
18.0252
14.4843
12.2548
10.8195
9.92798
9.49425
9.58888
10.4408
12.9904
20.2208
43.5043
140.022
680.443
4245.02
2.67875
3.30711
4.67316
7.77008
14.4973
27.0611
47.3782
76.8917
116.346
165.934
225.707
296.941
358.645
2.30173
2.05765
1.89418
1.78411
1.70975
1.66003
1.62754
1.60728
1.59644
1.59212
1.59088
1.59279
1.59802
1.6046
1.61333
1.62315
1.63403
1.64546
1.65821
1.67216
1.68741
1.70401
1.7221
1.74176
1.76319
1.78654
1.81204
1.83992
1.87045
414.461
469.225
523.544
574.581
616.034
638.96
635.248
602.141
543.795
468.569
385.688
300.96
223.452
160.098
113.38
80.9043
58.4374
42.8886
32.0743
24.49
18.9355
15.1894
12.8229
11.2921
10.3313
9.84669
9.90335
10.7318
13.2918
20.5025
43.9117
143.126
707.028
4384.04
2.56575
3.12692
4.29337
6.94976
12.8791
24.4081
43.5781
71.959
110.318
158.681
216.758
284.528
364.122
431.174
2.23125
2.01289
1.86557
1.76585
1.69822
1.65293
1.62331
1.60503
1.59582
1.59187
1.59056
1.59284
1.59803
1.60459
1.61339
1.62268
1.63303
1.64449
1.65723
1.67121
1.68649
1.70315
1.72129
1.74103
1.76255
1.786
1.81163
1.83966
1.87036
491.77
551.359
610.872
666.038
707.787
724.862
709.657
662.303
589.975
502.694
406.906
314.18
233.715
167.777
119.034
85.0711
61.5246
45.1966
33.8191
25.8238
19.9506
15.9772
13.4594
11.8226
10.785
10.2444
10.2586
11.1252
13.699
20.8671
44.4549
146.939
735.618
4521.51
2.4656
2.96633
3.95727
6.20498
11.3513
21.8032
39.7559
66.9501
104.242
151.567
208.314
273.985
348.84
436.535
508.985
2.16871
1.97293
1.83996
1.74948
1.6879
1.64655
1.61961
1.60354
1.59528
1.59148
1.59059
1.59284
1.59803
1.60467
1.61293
1.62171
1.63202
1.64349
1.65623
1.67024
1.68555
1.70226
1.72047
1.74028
1.76189
1.78546
1.81122
1.83941
1.87027
575.169
640.81
706.84
766.507
806.87
814.78
784.877
721.398
634.445
530.904
424.967
328.705
245.016
176.256
125.292
89.6933
64.9545
47.763
35.7604
27.3088
21.0819
16.8569
14.1717
12.4175
11.2952
10.6923
10.7349
11.6371
14.168
21.3188
45.2103
151.339
767.467
4655.21
2.37709
2.8243
3.67046
5.54463
9.93317
19.2701
35.9239
61.8467
98.0497
144.45
200.199
264.305
336.423
417.508
513.633
592.171
2.11317
1.93727
1.81704
1.73482
1.67861
1.6409
1.61697
1.60246
1.59476
1.59153
1.5906
1.5928
1.5982
1.60426
1.61195
1.62074
1.63099
1.64248
1.65521
1.66925
1.6846
1.70135
1.71962
1.73951
1.76122
1.78491
1.81082
1.83917
1.87019
665.583
739.32
813.675
877.609
913.624
908.026
860.108
778.831
671.306
554.896
444.761
344.644
257.445
185.608
132.214
94.8188
68.7642
50.6165
37.92
28.9612
22.3416
17.8382
14.9676
13.0839
11.8673
11.2903
11.3468
12.2029
14.7038
21.8837
46.1701
156.68
801.796
4784.25
2.29901
2.69776
3.43441
4.98205
8.65599
16.8358
32.1051
56.6434
91.6925
137.227
192.216
255.273
325.394
402.811
489.581
595.466
681.794
2.06379
1.90545
1.79655
1.72165
1.67036
1.63671
1.61521
1.60172
1.59484
1.59154
1.59058
1.59295
1.5979
1.60337
1.61099
1.61976
1.62993
1.64144
1.65416
1.66823
1.68362
1.70042
1.71876
1.73873
1.76055
1.78439
1.81044
1.83894
1.8701
765.183
850.213
934.812
1001.7
1028.29
1004.37
934.724
826.892
702.715
581.168
466.419
362.103
271.094
195.912
139.865
100.498
72.9933
53.7876
40.3209
30.7983
23.7427
18.9307
15.8552
13.8274
12.6273
12.0497
12.0114
12.8235
15.3158
22.5703
47.4365
162.862
840.114
4906.17
2.23017
2.58509
3.23589
4.51413
7.54963
14.5444
28.3319
51.3477
85.1304
129.802
184.216
246.623
315.49
390.231
472.07
564.564
683.285
780.634
2.01989
1.87707
1.77816
1.70992
1.66407
1.63404
1.61424
1.60184
1.59485
1.5915
1.59091
1.59267
1.59714
1.60254
1.61001
1.61877
1.62886
1.64038
1.6531
1.66718
1.68262
1.69946
1.71788
1.73795
1.75991
1.78388
1.81006
1.83871
1.87002
878.343
979.17
1076
1141
1153.35
1103.75
998.488
868.129
737.195
609.888
490.067
381.183
286.05
207.241
148.307
106.782
77.6826
57.3077
42.987
32.838
25.2979
20.1441
16.841
14.8095
13.5822
12.8616
12.7273
13.5026
16.0102
23.4121
49.0223
170.333
881.631
5020.38
2.16945
2.48515
3.06554
4.12818
6.61913
12.4891
24.6725
45.9823
78.3353
122.089
176.056
238.163
306.362
379.437
457.636
543.617
642.832
780.566
894.516
1.98086
1.85168
1.76178
1.70082
1.66014
1.63277
1.61441
1.60185
1.59478
1.59191
1.59102
1.59201
1.59644
1.60174
1.60902
1.61777
1.62778
1.63929
1.65202
1.66612
1.6816
1.69849
1.71701
1.73721
1.75928
1.78339
1.80969
1.83849
1.86994
1013.13
1136.68
1242.97
1307.1
1291.45
1191.74
1054
913.782
775.024
641.232
515.822
401.978
302.391
219.666
157.601
113.723
82.8734
61.209
45.9425
35.0981
27.0203
21.4867
18.1366
16.0321
14.5911
13.7208
13.4916
14.2353
16.7954
24.4205
51.0601
179.065
927.992
5124.3
2.11583
2.39698
2.91678
3.81092
5.84664
10.7134
21.2706
40.6257
71.2954
114
167.588
229.698
297.769
369.969
445.858
526.944
617.805
726.436
894.757
1035.91
1.94605
1.82913
1.74886
1.69528
1.65849
1.63301
1.61442
1.60175
1.59532
1.59218
1.59092
1.59153
1.59574
1.60097
1.60801
1.61675
1.62669
1.63817
1.65092
1.66502
1.68056
1.69753
1.71616
1.73648
1.75867
1.78291
1.80934
1.83828
1.86987
1185.32
1336.47
1472.47
1511.38
1419.32
1269.98
1116.5
964.414
816.526
675.385
543.799
424.568
320.186
233.249
167.803
121.368
88.6052
65.5228
49.2112
37.5961
28.921
23.2444
19.7372
17.3116
15.6451
14.6202
14.3002
15.0239
17.6743
25.6336
53.5901
189.631
978.735
5218.42
2.06831
2.31951
2.78511
3.55281
5.21188
9.20836
18.2182
35.4796
64.0711
105.461
158.656
221.022
289.469
361.535
436.122
514.006
598.46
696.595
821.059
1043.43
1229.24
1.91517
1.81116
1.74109
1.69318
1.65882
1.63303
1.61427
1.60252
1.5959
1.59233
1.59108
1.59119
1.59501
1.60022
1.607
1.61571
1.62559
1.63703
1.6498
1.66391
1.67953
1.69661
1.71534
1.73578
1.75807
1.78244
1.80899
1.83807
1.86979
1431.1
1667.81
1793.17
1706.97
1535.38
1360.11
1187.34
1020.84
862.129
712.568
574.109
449.018
339.484
248.038
178.959
129.76
94.9138
70.2777
52.8152
40.3469
31.4026
25.4044
21.4009
18.6359
16.7338
15.552
15.1477
15.8685
18.6572
27.0691
56.7656
202.123
1035.34
5299.91
2.02632
2.25146
2.66802
3.34068
4.69296
7.95112
15.5212
30.7011
56.9051
96.4742
149.094
211.902
281.203
353.839
428.066
504
584.098
674.154
785.102
939.922
1274.08
1546.72
1.89028
1.80056
1.7384
1.69364
1.65884
1.63281
1.61527
1.60365
1.59655
1.59284
1.5913
1.59102
1.59428
1.59949
1.60601
1.61465
1.62448
1.63586
1.64867
1.66281
1.67854
1.69571
1.71454
1.7351
1.7575
1.78199
1.80865
1.83787
1.86972
1905.28
2158.23
2095.64
1885.58
1672.6
1465.4
1268.9
1084.32
912.474
753.079
606.88
475.381
360.317
264.063
191.101
138.93
101.828
75.4981
56.7719
43.9296
34.44
27.639
23.1121
19.9918
17.8467
16.5085
16.0289
16.7709
19.7511
28.7694
60.6571
217.195
1097.87
5371.61
1.99225
2.192
2.56391
3.16201
4.27164
6.91077
13.1818
26.3329
50.0171
87.2766
138.806
202.075
272.678
346.591
421.345
496.451
573.752
657.988
759.24
895.565
1116.81
1736.85
2233.3
1.87569
1.79723
1.73901
1.69366
1.65854
1.63412
1.6171
1.60517
1.59771
1.59348
1.59149
1.59096
1.59356
1.59877
1.60504
1.61356
1.62337
1.63468
1.64756
1.66176
1.67757
1.69485
1.71376
1.73444
1.75693
1.78156
1.80833
1.83768
1.86968
2610.72
2650.7
2390.6