/*--------------------------------*- C++ -*----------------------------------*\
  =========                 |
  \\      /  F ield         | OpenFOAM: The Open Source CFD Toolbox
   \\    /   O peration     | Website:  https://openfoam.org
    \\  /    A nd           | Version:  8
     \\/     M anipulation  |
\*---------------------------------------------------------------------------*/
FoamFile
{
    version     2.0;
    format      ascii;
    class       volScalarField;
    location    "1100";
    object      p;
}
// * * * * * * * * * * * * * * * * * * * * * * * * * * * * * * * * * * * * * //

dimensions      [0 2 -2 0 0 0 0];

internalField   nonuniform List<scalar> 
15677
(
90.1831
87.1658
87.2555
87.1445
86.2971
86.7193
87.3703
86.8167
86.533
86.5714
87.334
86.8701
86.7352
86.5536
86.4307
87.2722
86.8129
86.6626
86.5947
86.4375
86.3117
87.2311
86.812
86.6489
86.555
86.4405
86.3179
86.1901
87.193
86.8188
86.6611
86.5675
86.4325
86.3173
86.194
86.0465
87.1525
86.8198
86.6636
86.5712
86.4433
86.3191
86.195
86.049
85.8743
87.1106
86.819
86.6634
86.5693
86.4436
86.3241
86.198
86.0514
85.8762
85.6662
87.0675
86.8177
86.6639
86.5685
86.4445
86.3249
86.2006
86.0541
85.8789
85.6677
85.4141
87.0238
86.8153
86.6644
86.5682
86.4464
86.3272
86.2025
86.0563
85.8815
85.6705
85.4154
85.1101
86.98
86.8111
86.6648
86.568
86.4485
86.3297
86.2052
86.0591
85.8841
85.6735
85.4182
85.1111
84.7453
86.9368
86.8046
86.665
86.5681
86.451
86.3326
86.2079
86.0621
85.8874
85.6765
85.4216
85.1138
84.7461
84.3108
86.8987
86.7954
86.665
86.5687
86.4543
86.3363
86.2114
86.0655
85.891
85.6804
85.4252
85.1178
84.7487
84.3112
83.7987
86.867
86.7848
86.6646
86.5698
86.4587
86.3413
86.2161
86.07
85.8955
85.6848
85.4298
85.1221
84.7531
84.3139
83.7989
83.2017
86.8397
86.7741
86.6638
86.5717
86.4644
86.3479
86.2224
86.0762
85.9014
85.6905
85.4353
85.1275
84.7583
84.3189
83.8016
83.2017
82.5132
86.8163
86.7634
86.6628
86.5742
86.4716
86.3567
86.2312
86.0846
85.9095
85.6982
85.4426
85.1343
84.7648
84.3251
83.8072
83.2044
82.513
81.7277
86.796
86.7532
86.6617
86.577
86.4798
86.3681
86.243
86.0964
85.9207
85.7088
85.4525
85.1435
84.7732
84.333
83.8145
83.2107
82.5157
81.7271
80.8403
86.7786
86.7435
86.6606
86.5801
86.4882
86.3813
86.2588
86.1124
85.9363
85.7236
85.4663
85.1561
84.7846
84.3432
83.824
83.2193
82.5227
81.7299
80.8395
79.8483
86.7634
86.7346
86.6595
86.5837
86.4971
86.3952
86.2774
86.1339
85.9577
85.7442
85.4856
85.1738
84.8004
84.3572
83.8363
83.2305
82.5327
81.7374
80.8423
79.8471
78.7502
86.7509
86.7264
86.6585
86.5876
86.5064
86.41
86.2973
86.1595
85.9866
85.7725
85.5125
85.1986
84.8228
84.3769
83.8534
83.2452
82.5457
81.7489
80.8505
79.8499
78.7486
77.5462
86.741
86.7194
86.6577
86.5918
86.5161
86.4256
86.3187
86.1872
86.0213
85.8109
85.5494
85.2331
84.8541
84.4047
83.8775
83.2656
82.563
81.7639
80.8634
79.8588
78.7515
77.5442
76.2381
86.733
86.7136
86.6571
86.5962
86.5261
86.4418
86.3414
86.2171
86.0589
85.857
85.5995
85.2806
84.8979
84.4439
83.9116
83.2945
82.5869
81.7838
80.8804
79.8731
78.7609
77.547
76.2357
74.8296
86.7266
86.7089
86.6568
86.6007
86.5363
86.4585
86.3653
86.2489
86.0997
85.9072
85.66
85.3452
84.9581
84.4985
83.9598
83.3358
82.6212
81.8115
80.903
79.8921
78.7765
77.557
76.2385
74.8268
73.3259
86.7214
86.7051
86.6566
86.6049
86.5463
86.4756
86.39
86.2824
86.1433
85.9618
85.7259
85.4233
85.0402
84.5739
84.027
83.394
82.6701
81.8513
80.9345
79.9173
78.7974
77.5737
76.2489
74.8294
73.3228
71.7338
86.7171
86.7019
86.6565
86.6088
86.5554
86.4922
86.4153
86.3173
86.1893
86.0203
85.7979
85.5086
85.1396
84.6766
84.1198
83.4755
82.7395
81.9085
80.9801
79.9526
78.825
77.5962
76.2666
74.8401
73.3252
71.7302
70.0613
86.7135
86.6993
86.6565
86.6123
86.5636
86.5073
86.44
86.3531
86.2372
86.0822
85.8751
85.6019
85.2483
84.8013
84.2465
83.5881
82.8367
81.9898
81.0458
80.0038
78.8638
77.626
76.2904
74.8586
73.336
71.7324
70.0573
68.3173
86.7105
86.697
86.6566
86.6155
86.5709
86.5209
86.4625
86.3881
86.2866
86.1467
85.9568
85.7022
85.3674
84.9378
84.4005
83.742
82.9713
82.104
81.1396
80.0781
78.9205
77.6679
76.3219
74.8835
73.355
71.7432
70.0592
68.313
66.5125
86.708
86.6952
86.6567
86.6183
86.5774
86.533
86.4827
86.42
86.3348
86.2133
86.0423
85.8085
85.4957
85.0877
84.5695
83.9297
83.1556
82.2625
81.2717
80.1847
79.0033
77.7297
76.3665
74.9162
73.3804
71.7624
70.0698
68.3145
66.5079
64.656
86.7058
86.6936
86.6569
86.6208
86.5833
86.5437
86.5007
86.4488
86.3789
86.2785
86.1306
85.9198
85.632
85.2495
84.7555
84.1358
83.3808
82.4801
81.4558
80.3356
79.1227
77.8205
76.4326
74.9628
73.4137
71.7878
70.0888
68.3247
66.5089
64.651
62.5513
86.704
86.6923
86.6571
86.6231
86.5884
86.5533
86.5168
86.4745
86.4187
86.3382
86.2171
86.0351
85.7749
85.4215
84.9565
84.3632
83.6289
82.7468
81.7091
80.5463
79.2923
77.9522
76.5307
75.0324
73.4614
71.8211
70.1138
68.3432
66.5186
64.6515
62.5464
60.1845
86.7025
86.6911
86.6572
86.6251
86.593
86.5617
86.5311
86.4974
86.4542
86.392
86.2964
86.1481
85.9231
85.6023
85.1708
84.6096
83.9031
83.0412
82.0205
80.8371
79.5301
78.1403
76.6739
75.1366
73.5334
71.8689
70.1461
68.367
66.5361
64.6603
62.5463
60.1791
57.7934
86.7011
86.6902
86.6574
86.6269
86.597
86.5692
86.5437
86.5177
86.4859
86.4402
86.368
86.2519
86.0685
85.7901
85.3963
84.8727
84.201
83.3675
82.3652
81.1957
79.8594
78.4049
76.8794
75.29
73.6425
71.942
70.193
68.3977
66.5583
64.6765
62.5541
60.1782
57.7876
55.408
86.7
86.6893
86.6576
86.6284
86.6005
86.5758
86.5549
86.5357
86.5141
86.4832
86.4322
86.3456
86.2023
85.9747
85.631
85.1502
84.5198
83.7228
82.7483
81.594
80.2671
78.7729
77.17
75.5115
73.8044
72.0543
70.2659
68.4425
66.5864
64.6963
62.5687
60.1849
57.7858
55.402
53.0537
86.6886
86.6986
86.6577
86.6298
86.6037
86.5817
86.5648
86.5517
86.5391
86.5214
86.4895
86.4298
86.3233
86.1448
85.8622
85.4397
84.8568
84.104
83.1666
82.0379
80.7213
79.2303
77.5759
75.8264
74.0399
72.2227
70.3795
68.5136
66.628
64.7209
62.5855
60.1971
57.7905
55.3991
53.0474
50.7447
86.6579
86.6878
86.697
86.6311
86.6065
86.5869
86.5735
86.5658
86.5613
86.5554
86.5405
86.505
86.4321
86.2989
86.0756
85.7255
85.2093
84.5082
83.6168
82.5242
81.2292
79.7418
78.0827
76.2683
74.3766
72.4696
70.552
68.6265
66.6956
64.7579
62.6056
60.2095
57.7995
55.402
53.0436
50.7383
48.4931
86.6321
86.6582
86.6869
86.6955
86.6089
86.5914
86.5812
86.5783
86.5809
86.5855
86.5859
86.572
86.5294
86.4375
86.2691
85.9898
85.5581
84.932
84.0954
83.0492
81.7876
80.3159
78.6515
76.8227
74.8515
72.8248
70.8072
68.8005
66.8057
64.8204
62.6367
60.2231
57.8067
55.4075
53.0443
50.7334
48.4864
46.3099
86.611
86.6337
86.6588
86.686
86.694
86.5954
86.5881
86.5893
86.5982
86.6121
86.626
86.6316
86.6162
86.5617
86.4436
86.23
85.8815
85.3527
84.5989
83.6092
82.3925
80.9492
79.2924
77.4475
75.4505
73.3289
71.1771
69.0605
66.9782
64.9255
62.6919
60.2454
57.8124
55.4088
53.0461
50.7318
48.4804
46.303
44.2042
86.5988
86.614
86.6356
86.6593
86.6851
86.6926
86.5941
86.5991
86.6135
86.6357
86.6617
86.6844
86.6933
86.6725
86.6
86.4468
86.176
85.7436
85.1002
84.2003
83.0399
81.6378
80.0022
78.1546
76.1288
73.9683
71.7054
69.4405
67.2391
65.0935
62.7889
60.29
57.824
55.4059
53.0411
50.7296
48.4765
46.296
44.1972
42.1825
86.5991
86.6036
86.6175
86.6375
86.6599
86.6843
86.6912
86.6077
86.6271
86.6566
86.6932
86.7313
86.7619
86.7712
86.7398
86.6415
86.4423
86.1005
85.5674
84.7908
83.7258
82.3777
80.777
78.9407
76.8996
74.6958
72.3796
69.9873
67.6243
65.3514
62.9486
60.3748
57.8554
55.4057
53.0286
50.7177
48.47
46.2897
44.1891
42.1754
40.2492
86.6149
86.6062
86.6087
86.6209
86.6394
86.6604
86.6835
86.6899
86.6391
86.6751
86.7211
86.7728
86.8226
86.8589
86.8644
86.8158
86.682
86.4239
85.9951
85.343
84.4136
83.1645
81.6128
79.8024
77.7602
75.5263
73.1508
70.6899
68.1832
65.7366
63.1985
60.5207
57.9245
55.422
53.0154
50.695
48.451
46.2788
44.1804
42.1662
40.2421
38.4071
86.6491
86.6248
86.6132
86.6139
86.6242
86.6412
86.6609
86.6827
86.6886
86.6915
86.7459
86.8096
86.8765
86.9367
86.9753
86.9713
86.8967
86.7155
86.3836
85.8499
85.0591
83.9569
82.5054
80.7359
78.7077
76.4576
74.0352
71.4977
68.9065
66.3008
63.5777
60.7561
58.0519
55.4725
53.015
50.6677
48.4175
46.2525
44.165
42.1552
40.2318
38.3998
36.6574
86.705
86.6627
86.6342
86.6205
86.619
86.6275
86.643
86.6613
86.682
86.6874
86.7678
86.8422
86.9243
87.0057
87.0737
87.1098
87.0886
86.9773
86.7347
86.3117
85.6535
84.7033
83.4083
81.7375
79.7389
77.4878
75.0317
72.4286
69.7427
67.036
64.1395
61.1209
58.2667
55.5778
53.0447
50.6491
48.3753
46.2079
44.1313
42.1352
40.2184
38.3885
36.6501
35.0001
86.7858
86.7233
86.6749
86.6439
86.6275
86.6239
86.6307
86.6447
86.6618
86.6812
86.6862
86.8711
86.9667
87.067
87.1612
87.2329
87.2597
87.2116
87.0504
86.7299
86.1967
85.3932
84.2624
82.7554
80.8505
78.6144
76.1395
73.4829
70.7113
67.8912
64.8781
61.6687
58.6082
55.7665
53.1247
50.656
48.3376
46.1505
44.0755
42.0941
40.1939
38.3729
36.6377
34.9929
33.4343
86.8947
86.8102
86.739
86.6876
86.6533
86.6343
86.6286
86.6337
86.6463
86.6623
86.6805
86.6851
87.0043
87.1215
87.2387
87.3423
87.4121
87.4208
87.3336
87.107
86.69
86.0256
85.0547
83.7224
81.9859
79.8349
77.3569
74.6609
71.8143
68.8875
65.7435
62.3972
59.1297
56.0767
53.2824
50.7081
48.3205
46.093
44.0025
42.0271
40.1455
38.344
36.62
34.9795
33.4271
31.9581
87.0349
86.9269
86.83
86.7554
86.6999
86.6623
86.6409
86.6332
86.6367
86.6479
86.6627
86.6799
86.6841
87.1698
87.3078
87.4395
87.5476
87.6073
87.5868
87.4457
87.1358
86.6016
85.7836
84.6233
83.0695
81.0881
78.6827
75.9622
73.0532
70.0283
66.7587
63.2586
59.8325
56.5607
53.5543
50.8306
48.3425
46.051
43.9251
41.9385
40.0673
38.2884
36.5868
34.9596
33.4127
31.9508
30.5689
87.2088
87.0767
86.9517
86.851
86.7712
86.7117
86.671
86.6471
86.6375
86.6395
86.6494
86.6631
86.6792
86.6832
87.3691
87.5262
87.668
87.7734
87.8129
87.7492
87.5371
87.1235
86.4496
85.455
84.0833
82.2899
80.0515
77.3872
74.4292
71.3167
67.9282
64.2768
60.6723
57.2238
53.9908
51.0581
48.4263
46.0411
43.8577
41.8411
39.9633
38.1992
36.5242
34.9224
33.3909
31.9355
30.5617
29.2638
87.4183
87.2626
87.1076
86.9783
86.8712
86.7863
86.7228
86.6792
86.653
86.6416
86.6421
86.6508
86.6634
86.6787
86.6824
87.603
87.7755
87.9212
88.0144
88.0206
87.8975
87.5945
87.0548
86.2176
85.0231
83.4195
81.3709
78.8667
75.9446
72.7559
69.2571
65.4584
61.6733
58.0255
54.6013
51.4386
48.6045
46.0838
43.8147
41.748
39.8462
38.0801
36.4243
34.8529
33.3497
31.912
30.5456
29.2567
28.0395
87.6644
87.4869
87.3009
87.141
87.0038
86.8902
86.8004
86.7333
86.6869
86.6586
86.6455
86.6446
86.6521
86.6637
86.6782
86.6816
87.8709
88.0532
88.194
88.2629
88.2203
88.0184
87.6025
86.9127
85.8878
84.4709
82.6168
80.3004
77.5272
74.3501
70.751
66.8107
62.8437
58.9895
55.3492
51.9844
48.9216
46.2087
43.8144
41.6714
39.7275
37.9438
36.2906
34.7426
33.2736
31.8669
30.5203
29.2396
28.0324
26.8924
87.9466
87.7512
87.5343
87.3427
87.173
87.0277
86.908
86.8136
86.7431
86.694
86.6637
86.6491
86.6469
86.6532
86.664
86.6777
86.681
88.1703
88.3547
88.4792
88.509
88.3989
88.0965
87.5435
86.6786
85.4418
83.7814
81.6609
79.0697
76.025
72.4168
68.3422
64.1936
60.1256
56.2566
52.6633
49.3918
46.4564
43.8834
41.627
39.6172
37.7998
36.1356
34.595
33.1534
31.7846
30.4716
29.2128
28.0145
26.8854
25.8189
88.2627
88.0555
87.8093
87.5862
87.3826
87.2027
87.0498
86.9244
86.8258
86.7521
86.7006
86.6685
86.6524
86.6489
86.6542
86.6642
86.6773
86.6804
88.4971
88.673
88.767
88.7397
88.5409
88.114
87.3984
86.3329
84.8612
82.9384
80.5405
77.6664
74.1794
70.0634
65.7342
61.4456
57.3343
53.4949
49.988
46.8418
44.0568
41.6383
39.5283
37.6561
35.9668
34.422
32.9925
31.6549
30.3834
29.1607
27.9862
26.8668
25.8119
24.8151
88.6087
88.3986
88.1267
87.8737
87.6356
87.4194
87.2301
87.0701
86.9395
86.8369
86.7603
86.7066
86.6727
86.6552
86.6506
86.6551
86.6644
86.6769
86.6799
88.8447
88.9987
89.0448
88.9397
88.6283
88.0511
87.1465
85.8557
84.1276
81.9278
79.2396
75.919
71.8999
67.4783
62.9616
58.5935
54.4888
50.7249
47.3425
44.3495
41.7337
39.4808
37.5229
35.7903
34.2291
32.8021
31.4813
30.2446
29.0668
27.9309
26.8371
25.7926
24.8082
23.8771
88.9781
88.7771
88.4856
88.2063
87.9348
87.681
87.453
87.255
87.0885
86.953
86.8469
86.7676
86.7119
86.6764
86.6576
86.6521
86.6558
86.6645
86.6766
86.6795
89.2037
89.3195
89.2975
89.0908
88.641
87.8863
86.7666
85.2267
83.2242
80.7306
77.5973
73.7252
69.3502
64.6855
60.0452
55.6542
51.61
47.9675
44.7441
41.9277
39.4957
37.4163
35.6135
34.0206
32.5861
31.2745
30.0591
28.9195
27.8318
26.7788
25.7617
24.7881
23.8703
23.1177
89.3616
89.1854
88.8833
88.5838
88.2815
87.9905
87.7223
87.4835
87.2774
87.1048
86.965
86.8556
86.7739
86.7163
86.6795
86.6597
86.6533
86.6564
86.6646
86.6763
86.6791
89.5622
89.6203
89.5066
89.1726
88.5566
87.5974
86.2367
84.4269
82.1304
79.1963
75.4938
71.2169
66.5427
61.7009
57.002
52.6514
48.7225
45.2432
42.208
39.587
37.3493
35.448
33.8013
32.3468
31.0363
29.8366
28.7229
27.6764
26.6747
25.7005
24.7562
23.8496
23.111
22.4791
89.7471
89.6157
89.3151
89.0042
88.6762
88.35
88.0411
87.7594
87.5105
87.297
87.119
86.9752
86.863
86.779
86.7199
86.6819
86.6613
86.6543
86.6569
86.6647
86.676
86.6788
89.905
89.8828
89.6516
89.162
88.3521
87.1604
85.5357
83.4339
80.7025
77.1814
73.0285
68.4026
63.4975
58.5495
53.8634
49.6158
45.8515
42.5709
39.7474
37.3357
35.299
33.5778
32.0862
30.7673
29.5772
28.4855
27.4692
26.5118
25.5918
24.6924
23.8167
23.0895
22.4725
21.7861
90.1191
90.0569
89.7737
89.4636
89.1176
88.7601
88.4116
88.0861
87.792
87.5339
87.3137
87.1309
86.9836
86.8688
86.783
86.7227
86.6839
86.6626
86.6551
86.6573
86.6648
86.6758
86.6785
90.2139
90.0863
89.7088
89.0351
88.0018
86.553
84.6394
82.1075
78.772
74.7627
70.2234
65.3209
60.2558
55.2747
50.6688
46.5796
43.0214
39.9681
37.3738
35.1806
33.3478
31.806
30.4669
29.2801
28.2061
27.2179
26.2949
25.4219
24.5794
23.7504
23.0562
22.4509
21.7796
21.0339
90.4589
90.4952
90.2491
89.956
89.6026
89.2202
88.8354
88.4664
88.1254
87.8199
87.5535
87.3274
87.1403
86.9899
86.873
86.786
86.7248
86.6854
86.6637
86.6558
86.6576
86.6648
86.6756
86.6782
90.4677
90.2068
89.6536
88.7651
87.4821
85.748
83.4077
80.2576
76.4083
71.9917
67.142
62.0284
56.87
51.9226
47.456
43.5723
40.254
37.4494
35.096
33.1259
31.4969
30.132
28.9416
27.8822
26.9197
26.0304
25.1958
24.4029
23.6335
22.9878
22.4167
21.758
21.0274
20.2174
90.7445
90.9135
90.7287
90.4725
90.126
89.7281
89.3121
88.9018
88.5137
88.1586
87.8428
87.5692
87.3378
87.1471
86.9943
86.876
86.788
86.7263
86.6864
86.6644
86.6562
86.6578
86.6649
86.6754
86.6779
90.6421
90.2189
89.458
88.3265
86.7621
84.6037
81.6365
77.9607
73.6987
68.9498
63.8451
58.5763
53.3852
48.5329
44.2585
40.6198
37.5675
35.0266
32.9203
31.1743
29.7465
28.5541
27.5075
26.5704
25.7144
24.9191
24.1684
23.4509
22.8679
22.3468
21.7228
21.0056
20.2109
19.3313
90.9502
91.2919
91.1962
91.0018
90.6804
90.2796
89.8404
89.393
88.959
88.5534
88.1855
87.8607
87.5806
87.3448
87.1513
86.9969
86.8776
86.7892
86.7272
86.6871
86.6649
86.6566
86.658
86.6648
86.6752
86.6777
90.7107
90.0941
89.0949
87.6849
85.6983
82.9108
79.4182
75.336
70.7293
65.6896
60.373
55.0019
49.8384
45.1402
41.1051
37.7438
34.9766
32.708
30.851
29.3269
28.0955
27.0699
26.1614
25.3414
24.5865
23.8802
23.2086
22.6805
22.2244
21.6513
20.9695
20.1888
19.3248
18.3696
91.0477
91.6069
91.6327
91.5294
91.2556
90.8682
90.4169
89.939
89.4623
89.0065
88.585
88.2059
87.8732
87.5876
87.3485
87.1532
86.9979
86.8783
86.7897
86.7276
86.6875
86.6652
86.6568
86.6581
86.6647
86.675
86.6776
90.644
89.8033
88.5265
86.695
84.0838
80.7806
76.8951
72.4624
67.5373
62.237
56.7516
51.3348
46.2613
41.7742
38.0202
34.9619
32.4923
30.4997
28.8902
27.5833
26.5419
25.6764
24.9
24.1912
23.5321
22.9097
22.4322
22.0335
21.5261
20.8962
20.1517
19.3023
18.363
17.3258
91.0046
91.8332
92.0155
92.0377
91.8385
91.4851
91.0361
90.5372
90.0232
89.5195
89.044
88.6085
88.2195
87.8801
87.5906
87.3494
87.1531
86.9975
86.8779
86.7895
86.7275
86.6875
86.6653
86.657
86.6581
86.6645
86.6748
86.6775
90.4104
89.3065
87.6061
85.1583
82.0474
78.3686
74.1314
69.3609
64.1358
58.607
53.0024
47.6025
42.6835
38.4613
35.024
32.2875
30.1222
28.4052
27.0382
25.9418
25.0829
24.3705
23.7196
23.116
22.5473
22.1251
21.7805
21.3313
20.7679
20.0765
19.264
18.3401
17.3193
16.1933
90.7831
91.9431
92.3191
92.506
92.4133
92.1186
91.6905
91.1834
90.6399
90.0924
89.5642
89.0712
88.6233
88.226
87.8818
87.59
87.3478
87.1513
86.996
86.8767
86.7887
86.727
86.6873
86.6655
86.6571
86.6579
86.6643
86.6747
86.6774
89.9671
88.4549
86.1478
83.2176
79.7498
75.7218
71.1345
66.0344
60.5306
54.8131
49.1476
43.8325
39.1325
35.2245
32.1326
29.7305
27.8715
26.4256
25.294
24.4
23.7154
23.1482
22.6161
22.112
21.7516
21.4668
21.0731
20.5686
19.9446
19.1867
18.3006
17.2958
16.1867
14.9648
90.333
91.9056
92.515
92.9105
92.9608
92.7545
92.3699
91.871
91.3091
90.7243
90.1462
89.5961
89.0876
88.6294
88.2263
87.8792
87.5862
87.344
87.148
86.9934
86.8748
86.7873
86.7261
86.6874
86.6658
86.657
86.6577
86.6641
86.6746
86.6774
89.1612
87.0799
84.3036
81.0326
77.2216
72.8373
67.9004
62.4821
56.7282
50.8718
45.2117
40.0531
35.6343
32.0831
29.3586
27.2976
25.7423
24.5604
23.6555
22.9549
22.4357
22.0058
21.5856
21.3012
21.0844
20.7521
20.3044
19.7404
19.0509
18.2209
17.2551
16.1628
14.9582
13.6327
91.6803
89.5002
92.5692
93.2247
93.4589
93.3754
93.0615
92.5911
92.0252
91.4123
90.7896
90.1842
89.6147
89.0933
88.6277
88.221
87.8726
87.5798
87.3383
87.1434
86.9898
86.8721
86.7853
86.726
86.6879
86.6658
86.6568
86.6575
86.6639
86.6745
86.6774
87.8459
85.3363
82.2284
78.6204
74.4524
69.7069
64.4233
58.7045
52.7389
46.8034
41.2223
36.2929
32.2126
29.0534
26.711
24.9926
23.7349
22.808
22.1196
21.6027
21.2397
20.9391
20.7541
20.6218
20.3599
19.9753
19.4696
18.8412
18.0808
17.1727
16.1205
14.9336
13.6261
12.189
92.4447
91.1208
88.1391
93.4158
93.883
93.9607
93.7497
93.3326
92.7808
92.1523
91.4925
90.8356
90.2059
89.6201
89.0893
88.6192
88.211
87.8628
87.571
87.331
87.1377
86.9852
86.8686
86.7849
86.7269
86.6881
86.6656
86.6564
86.6571
86.6637
86.6745
86.6775
86.1777
83.3719
79.9293
75.9652
71.432
66.3218
60.6996
54.7062
48.5777
42.6328
37.2096
32.5804
28.889
26.1484
24.1959
22.8166
21.8479
21.1653
20.6827
20.3391
20.1234
20.079
20.0578
19.8839
19.5722
19.1314
18.5631
17.8651
17.0278
16.0352
14.8899
13.6009
12.1824
10.6256
93.4486
92.0178
90.1241
86.4419
94.2021
94.4878
94.4156
94.0815
93.566
92.9377
92.2513
91.549
90.8616
90.2114
89.6137
89.0771
88.605
88.1969
87.8501
87.5602
87.3223
87.1305
86.9797
86.8677
86.7863
86.7272
86.6878
86.6651
86.6559
86.6567
86.6634
86.6744
86.6776
84.2971
81.1877
77.3861
73.0558
68.15
62.6756
56.7289
50.4959
44.2644
38.3891
33.2053
28.9425
25.6819
23.3778
21.8165
20.7692
20.0787
19.6287
19.3403
19.16
19.2238
19.3592
19.3014
19.0813
18.7162
18.2149
17.5789
16.8055
15.8852
14.8014
13.5554
12.1565
10.6189
8.93383
94.3852
93.2145
91.1456
88.805
84.5479
94.9275
95.0386
94.8208
94.3687
93.7602
93.0608
92.3217
91.5812
90.8679
90.2025
89.5972
89.0578
88.5858
88.1794
87.835
87.5478
87.3119
87.1222
86.9779
86.8697
86.7867
86.7269
86.6871
86.6643
86.6553
86.6562
86.663
86.6744
86.6778
82.2015
78.7595
74.5876
69.8818
64.599
58.7647
52.5138
46.0866
39.824
34.1049
29.2416
25.4043
22.6063
20.7479
19.5737
18.8482
18.4235
18.1934
18.0882
18.2104
18.4715
18.5773
18.4785
18.2091
17.7865
17.2198
16.5105
15.6557
14.6457
13.4634
12.1092
10.5923
8.9272
7.10557
95.2529
94.3433
92.5779
89.9528
87.2736
82.4498
95.5913
95.5316
95.1735
94.6092
93.9139
93.1494
92.3627
91.5895
90.8567
90.1814
89.5722
89.0326
88.5624
88.159
87.8179
87.5332
87.3
87.1194
86.9807
86.8704
86.7864
86.726
86.686
86.6637
86.6547
86.6556
86.6626
86.6744
86.678
79.8616
76.0775
71.5243
66.4361
60.7735
54.5863
48.0597
41.4962
35.2866
29.8155
25.35
21.9876
19.6735
18.2624
17.4666
17.05
16.8775
16.8549
17.08
17.4166
17.6543
17.7265
17.5841
17.2615
16.7768
16.1395
15.3511
14.4083
13.3017
12.0134
10.5431
8.89981
7.09895
5.13226
96.0511
95.3965
93.9388
91.6283
88.5555
85.5378
80.1108
96.1888
95.9636
95.4712
94.8015
94.0262
93.2026
92.3746
91.5766
90.8308
90.1499
89.5399
89.0024
88.5357
88.1362
87.7981
87.5168
87.2959
87.1233
86.9817
86.87
86.7852
86.7244
86.6854
86.6631
86.654
86.655
86.6622
86.6744
86.6783
77.2692
73.1336
68.1905
62.7129
56.6675
50.1389
43.3751
36.7478
30.6868
25.5579
21.56
18.7102
16.8917
15.9227
15.4925
15.3702
15.4359
15.7772
16.2374
16.5542
16.7651
16.8017
16.6124
16.2325
15.6806
14.967
14.0932
13.0557
11.8451
10.4432
8.84848
7.07079
5.12563
3.00759
96.7736
96.375
95.217
93.2293
90.4739
86.9865
83.5604
77.5219
96.7158
96.3311
95.7118
94.9444
94.096
93.2206
92.361
91.5458
90.7923
90.1098
89.5016
88.968
88.506
88.1102
87.7761
87.5109
87.301
87.1246
86.9813
86.8685
86.7831
86.7239
86.6851
86.6624
86.6531
86.6542
86.6618
86.6745
86.6786
74.4186
69.9247
64.5814
58.7049
52.2744
45.4211
38.4724
31.8709
26.064
21.3687
17.8976
15.5866
14.2656
13.7273
13.6472
13.8037
14.2748
14.8765
15.3224
15.6164
15.7989
15.7973
15.5571
15.1153
14.491
13.695
12.7292
11.5899
10.2677
8.74416
7.01726
5.09669
3.00095
0.295144
97.4144
97.271
96.4167
94.7426
92.3111
89.1705
85.2055
81.3357
74.6776
97.1682
96.6317
95.8939
95.0365
94.1236
93.2079
92.3257
91.4999
90.7434
90.0624
89.4585
88.9302
88.4724
88.0812
87.7679
87.5175
87.3028
87.1241
86.9794
86.8656
86.7829
86.7243
86.6846
86.6614
86.652
86.6533
86.6613
86.6746
86.6791
71.3093
66.4484
60.6903
54.403
47.5841
40.4319
33.37
26.9017
21.4603
17.283
14.3851
12.6268
11.7968
11.6732
11.9259
12.5409
13.3039
13.8989
14.328
14.5979
14.7498
14.7067
14.4117
13.903
13.2006
12.3159
11.2512
10.0025
8.56101
6.90813
5.04086
2.97117
0.288164
-2.94292
97.9686
98.0761
97.5301
96.1744
94.0565
91.2589
87.6783
83.2016
78.8646
71.5777
97.5426
96.8634
96.0156
95.078
94.1139
93.169
92.2724
91.4415
90.6859
90.0092
89.4113
88.8878
88.4353
88.0704
87.7766
87.52
87.3022
87.1217
86.9756
86.8659
86.7842
86.7242
86.6837
86.6601
86.6508
86.6523
86.6608
86.6747
86.6796
67.9411
62.7004
56.5079
49.7911
42.5829
35.1744
28.0943
21.883
16.919
13.3331
11.0406
9.83672
9.48403
9.7562
10.5369
11.4846
12.251
12.8374
13.2489
13.4928
13.6114
13.5234
13.1691
12.5882
11.8016
10.8216
9.65072
8.28523
6.71681
4.92663
2.91279
0.257917
-2.94954
-6.20258
98.432
98.782
98.5477
97.5171
95.7165
93.2508
90.0356
85.9831
80.9752
76.1542
68.2235
97.8365
97.0235
96.0767
95.0747
94.0729
93.1084
92.204
91.3728
90.6214
89.9513
89.3587
88.841
88.4213
88.0813
87.7796
87.5193
87.2993
87.1168
86.9766
86.8686
86.7849
86.7236
86.6824
86.6586
86.6493
86.6512
86.6602
86.6749
86.6802
64.3128
58.6735
52.0168
44.8488
37.2626
29.664
22.683
16.8634
12.4832
9.54715
7.87628
7.21864
7.32437
8.20768
9.37436
10.3399
11.1088
11.6864
12.0789
12.2944
12.3769
12.2404
11.8221
11.1634
10.2862
9.20385
7.91947
6.42972
4.72663
2.79304
0.196063
-2.98067
-6.20898
-9.47148
98.8016
99.3817
99.4599
98.7598
97.2837
95.1509
92.2932
88.6213
84.0859
78.5349
73.215
64.6149
98.0461
97.1114
96.084
95.0336
94.0057
93.0297
92.1232
91.2958
90.5514
89.8869
89.3006
88.823
88.435
88.0852
87.779
87.5157
87.293
87.1188
86.9813
86.8705
86.785
86.7225
86.6808
86.6568
86.6477
86.65
86.6596
86.6752
86.6809
60.4204
54.3554
47.1932
39.5523
31.6154
23.9253
17.1864
11.8962
8.19399
5.94733
4.90008
4.77185
5.5783
6.91103
8.11575
9.09938
9.87143
10.4396
10.8114
10.9962
11.0395
10.8504
10.363
9.6206
8.64632
7.45441
6.0492
4.42763
2.58388
0.0695851
-3.04522
-6.24108
-9.47765
-12.7359
99.073
99.8695
100.257
99.8918
98.7474
96.9509
94.4546
91.157
87.0166
81.9965
75.8961
70.0572
60.7492
98.17
97.1348
96.046
94.9611
93.9168
92.9362
92.0325
91.2123
90.4737
89.8159
89.2781
88.8401
88.4398
88.0845
87.7745
87.5077
87.2962
87.1261
86.985
86.8717
86.7844
86.721
86.6787
86.6546
86.6457
86.6486
86.6589
86.6755
86.6816
56.2548
49.7176
41.9947
33.8623
25.6312
17.9894
11.6634
7.03684
4.08678
2.55006
2.11539
2.79222
4.11614
5.50837
6.75312
7.75674
8.5324
9.09036
9.43973
9.59108
9.59202
9.34606
8.78429
7.95198
6.87374
5.56522
4.03171
2.27248
-0.150764
-3.17945
-6.30848
-9.51051
-12.7418
-15.9753
99.2432
100.239
100.928
100.902
100.097
98.6391
96.5103
93.5911
89.84
85.2311
79.7333
73.0773
66.6908
56.6234
98.2168
97.1039
95.9701
94.8626
93.8102
92.8309
91.9342
91.1198
90.388
89.7882
89.299
88.846
88.439
88.0791
87.7644
87.5126
87.3071
87.1323
86.9876
86.872
86.7832
86.7188
86.6761
86.6521
86.6436
86.647
86.6582
86.6758
86.6825
51.7927
44.7154
36.3636
27.7376
19.3119
11.9044
6.17929
2.3385
0.191024
-0.634146
-0.139162
1.13465
2.53601
3.99157
5.28
6.30546
7.08504
7.63191
7.95707
8.07226
8.02723
7.71996
7.07826
6.1497
4.96076
3.52838
1.8607
-0.477244
-3.41352
-6.45041
-9.58054
-12.7751
-15.9808
-19.1677
99.3219
100.484
101.462
101.778
101.319
100.204
98.4474
95.9153
92.5539
88.3511
83.2839
77.3189
70.0973
63.1288
52.2253
98.1985
97.0277
95.8631
94.7428
93.6895
92.7166
91.8254
91.0177
90.3544
89.8137
89.3062
88.8451
88.4325
88.0665
87.7714
87.5279
87.3164
87.137
86.9893
86.8714
86.7812
86.716
86.673
86.6491
86.6411
86.6453
86.6574
86.6762
86.6834
47.0007
39.294
30.2381
21.1434
12.6847
5.73644
0.805016
-2.1497
-3.47074
-3.21416
-2.02594
-0.654829
0.829666
2.35398
3.68981
4.73883
5.52263
6.05761
6.35665
6.43277
6.33806
5.96485
5.23752
4.20638
2.89989
1.338
-0.90841
-3.75752
-6.69698
-9.72993
-12.8473
-16.0143
-19.173
-22.2923
99.3231
100.618
101.846
102.505
102.404
101.634
100.253
98.1172
95.1524
91.3492
86.7091
81.1995
74.7775
66.9748
59.3778
47.5296
98.1258
96.9139
95.7306
94.6062
93.558
92.59
91.705
90.9773
90.3852
89.8223
89.3052
88.8373
88.417
88.0762
87.7923
87.5413
87.324
87.1406
86.9899
86.8699
86.7784
86.7125
86.6694
86.6457
86.6383
86.6435
86.6566
86.6766
86.6844
41.828
33.3727
23.5392
14.0674
5.79555
-0.426034
-4.39004
-6.38414
-6.44117
-5.37171
-4.06045
-2.58423
-1.0094
0.589171
1.97601
3.05033
3.83874
4.36096
4.6319
4.66595
4.51775
4.0738
3.25522
2.11514
0.685819
-1.45409
-4.20913
-7.05587
-9.98795
-13.0035
-16.0883
-19.2063
-22.2971
-25.3278
99.2593
100.655
102.086
103.061
103.329
102.916
101.912
100.183
97.6249
94.224
89.9942
84.9394
79.0051
72.1329
63.7297
55.4356
42.4984
98.0082
96.7697
95.5779
94.4567
93.4123
92.4496
91.6572
91.0142
90.3953
89.8212
89.2961
88.8184
88.4298
88.1038
87.8108
87.5525
87.33
87.1427
86.9892
86.8673
86.7746
86.7083
86.6651
86.6419
86.6354
86.6416
86.6559
86.6771
86.6855
36.1953
26.8293
16.1948
6.49416
-1.25906
-6.49484
-9.33085
-9.8229
-8.9224
-7.69504
-6.24997
-4.65933
-2.98695
-1.30885
0.132508
1.23396
2.02732
2.53584
2.77669
2.76567
2.56006
2.04064
1.1252
-0.128637
-2.13391
-4.77798
-7.52379
-10.3593
-13.2714
-16.2504
-19.2815
-22.3301
-25.3321
-28.2528
99.1418
100.614
102.203
103.449
104.067
104.028
103.409
102.097
99.9596
96.9674
93.144
88.5135
83.0703
76.7285
69.4093
60.3852
51.3003
37.0805
97.8539
96.6013
95.4099
94.2907
93.2503
92.3936
91.7011
91.0262
90.3942
89.8105
89.273
88.835
88.4656
88.1285
87.8265
87.5618
87.3344
87.1434
86.9871
86.8634
86.7698
86.7031
86.6602
86.6377
86.6322
86.6396
86.655
86.6776
86.6866
29.9778
19.5117
8.07409
-1.48858
-8.40922
-12.3275
-13.3623
-12.6897
-11.5883
-10.1898
-8.5986
-6.88445
-5.10777
-3.34519
-1.84584
-0.715578
0.0829616
0.57683
0.785617
0.726517
0.459662
-0.139868
-1.15632
-2.98266
-5.48485
-8.1098
-10.8394
-13.652
-16.5259
-19.4483
-22.406
-25.3644
-28.2566
-31.0464
98.9804
100.506
102.215
103.688
104.617
104.937
104.717
103.842
102.141
99.571
96.1543
91.9358
86.9356
81.1311
74.3977
66.6331
56.9654
46.9645
31.1972
97.6706
96.4146
95.2226
94.1055
93.1852
92.4454
91.715
91.0249
90.3817
89.7827
89.2941
88.8804
88.4977
88.1498
87.84
87.5692
87.3369
87.1422
86.9834
86.8582
86.7638
86.6971
86.6547
86.6333
86.6289
86.6376
86.6542
86.6781
86.6878
22.9866
11.0834
-0.712704
-9.96204
-15.3606
-17.1181
-16.722
-15.7606
-14.4399
-12.8566
-11.108
-9.26208
-7.37504
-5.52343
-3.96307
-2.80258
-1.99872
-1.52044
-1.3457
-1.45572
-1.78755
-2.47052
-4.05354
-6.36675
-8.83577
-11.4368
-14.1393
-16.9117
-19.7288
-22.576
-25.4402
-28.2878
-31.0496
-33.6889
98.7841
100.345
102.139
103.796
104.998
105.641
105.798
105.384
104.15
102.021
99.0213
95.2061
90.627
85.2902
79.1511
72.0423
63.8304
53.4931
42.4185
24.7656
97.4652
96.2055
95.0127
94.0306
93.246
92.4614
91.7137
91.0105
90.3484
89.8089
89.3508
88.9213
88.5256
88.1685
87.8511
87.5741
87.3371
87.139
86.978
86.8515
86.7566
86.6903
86.6489
86.6286
86.6255
86.6355
86.6534
86.6787
86.689
14.7891
1.5632
-10.6836
-18.2406
-21.1662
-21.1005
-20.3074
-19.0342
-17.4708
-15.692
-13.777
-11.7921
-9.78961
-7.84539
-6.22162
-5.02983
-4.22066
-3.75903
-3.62016
-3.78378
-4.18314
-5.42364
-7.47929
-9.74085
-12.1745
-14.7419
-17.4007
-20.1155
-22.8583
-25.6116
-28.3627
-31.0794
-33.6914
-36.1615
98.5611
100.14
101.993
103.789
105.227
106.157
106.645
106.671
105.952
104.303
101.736
98.3268
94.1492
89.2472
83.6068
77.16
69.6897
61.0287
50.005
37.6978
17.6532
97.234
95.9698
94.9272
94.1016
93.2644
92.46
91.6971
90.971
90.3805
89.8785
89.4018
88.9572
88.5506
88.1842
87.8593
87.5763
87.3348
87.1336
86.9705
86.8431
86.7484
86.6829
86.6426
86.6237
86.622
86.6333
86.6526
86.6792
86.6903
5.12079
-10.8831
-20.1461
-25.5268
-25.9685
-25.3089
-24.1027
-22.4984
-20.6706
-18.6875
-16.6001
-14.471
-12.3496
-10.3105
-8.62184
-7.39816
-6.58402
-6.14006
-6.03884
-6.25747
-7.20986
-8.90323
-10.8828
-13.0937
-15.484
-18.002
-20.6008
-23.2414
-25.892
-28.5332
-31.1525
-33.7193
-36.1634
-38.447
98.3083
99.9028
101.791
103.687
105.322
106.506
107.281
107.692
107.482
106.377
104.286
101.294
97.5115
93.0125
87.8255
81.915
75.1833
67.3685
58.2714
46.5515
32.8653
9.75255
96.9716
95.8731
95.0096
94.1225
93.2629
92.4411
91.6504
91.0097
90.4647
89.9411
89.447
88.9896
88.572
88.1964
87.864
87.5753
87.3297
87.1256
86.961
86.8333
86.7392
86.6749
86.6361
86.6186
86.6185
86.6312
86.6518
86.6799
86.6916
-9.55739
-22.0746
-30.1132
-31.5072
-30.9661
-29.7133
-28.0705
-26.1283
-24.0238
-21.8286
-19.567
-17.2914
-15.0498
-12.9153
-11.1614
-9.90606
-9.08756
-8.66249
-8.59949
-9.37188
-10.76
-12.3454
-14.2539
-16.4085
-18.741
-21.1945
-23.7176
-26.267
-28.8081
-31.3197
-33.7898
-36.1888
-38.4483
-40.5289
98.0201
99.6284
101.544
103.506
105.3
106.705
107.73
108.467
108.718
108.17
106.633
104.101
100.716
96.6033
91.8249
86.3907
80.2387
73.2476
65.1211
55.6037
43.2046
27.9034
0.514832
96.8628
95.9682
95.0333
94.1209
93.2415
92.3863
91.6966