/*--------------------------------*- C++ -*----------------------------------*\
  =========                 |
  \\      /  F ield         | OpenFOAM: The Open Source CFD Toolbox
   \\    /   O peration     | Website:  https://openfoam.org
    \\  /    A nd           | Version:  8
     \\/     M anipulation  |
\*---------------------------------------------------------------------------*/
FoamFile
{
    version     2.0;
    format      ascii;
    class       surfaceScalarField;
    location    "1100";
    object      phi;
}
// * * * * * * * * * * * * * * * * * * * * * * * * * * * * * * * * * * * * * //

dimensions      [0 3 -1 0 0 0 0];

internalField   nonuniform List<scalar> 
31053
(
1.74488e-06
1.16351e-05
1.3637e-06
1.57612e-05
9.63177e-07
1.0672e-05
1.26634e-06
1.77374e-05
1.52675e-06
1.51976e-05
5.92793e-07
1.00792e-05
1.20191e-06
2.03044e-05
1.51007e-06
1.7754e-05
1.2094e-06
1.4581e-05
4.31173e-07
9.64799e-06
1.13124e-06
2.33107e-05
1.45188e-06
2.03626e-05
1.33736e-06
1.76261e-05
9.70609e-07
1.40416e-05
3.06521e-07
9.34147e-06
1.05776e-06
2.67335e-05
1.39868e-06
2.33639e-05
1.32715e-06
2.03728e-05
1.18711e-06
1.74096e-05
7.46687e-07
1.36014e-05
2.13562e-07
9.12791e-06
9.80924e-07
3.06968e-05
1.34275e-06
2.67894e-05
1.29642e-06
2.33946e-05
1.2233e-06
2.03366e-05
1.00157e-06
1.71547e-05
5.66792e-07
1.32482e-05
1.52042e-07
8.97587e-06
9.00478e-07
3.52204e-05
1.28173e-06
3.07579e-05
1.2598e-06
2.6826e-05
1.20991e-06
2.3408e-05
1.0739e-06
2.02643e-05
8.26805e-07
1.68947e-05
4.2993e-07
1.29703e-05
1.09573e-07
8.8663e-06
8.16812e-07
4.04037e-05
1.21516e-06
3.5287e-05
1.21886e-06
3.07988e-05
1.18206e-06
2.68539e-05
1.07783e-06
2.34041e-05
9.21293e-07
2.01698e-05
6.75436e-07
1.66492e-05
3.23272e-07
1.27566e-05
7.8348e-08
8.78796e-06
7.3073e-07
4.63661e-05
1.14281e-06
4.0476e-05
1.17306e-06
3.53328e-05
1.14748e-06
3.08334e-05
1.05857e-06
2.68731e-05
9.37767e-07
2.33876e-05
7.821e-07
2.00632e-05
5.43913e-07
1.64285e-05
2.39532e-07
1.25954e-05
5.29331e-08
8.73503e-06
6.435e-07
5.32272e-05
1.06468e-06
4.64442e-05
1.12142e-06
4.05277e-05
1.10749e-06
3.53728e-05
1.02866e-06
3.08633e-05
9.24284e-07
2.68866e-05
8.064e-07
2.33633e-05
6.5435e-07
1.99527e-05
4.27306e-07
1.62408e-05
1.71212e-07
1.24771e-05
2.87913e-08
8.70625e-06
5.56914e-07
6.10666e-05
9.81055e-07
5.33109e-05
1.063e-06
4.65026e-05
1.06181e-06
4.05733e-05
9.91627e-07
3.54098e-05
8.96467e-07
3.08911e-05
7.95499e-07
2.68975e-05
6.81417e-07
2.33362e-05
5.3423e-07
1.98458e-05
3.22025e-07
1.609e-05
1.11281e-07
1.23947e-05
7.76681e-09
8.69848e-06
4.72898e-07
7.0066e-05
8.92703e-07
6.11549e-05
9.97099e-07
5.33768e-05
1.00965e-06
4.65548e-05
9.48275e-07
4.06167e-05
8.59525e-07
3.54468e-05
7.66891e-07
3.09197e-05
6.69641e-07
2.69093e-05
5.59674e-07
2.33108e-05
4.18785e-07
1.9749e-05
2.25667e-07
1.59756e-05
5.76494e-08
1.23448e-05
-9.81523e-09
8.7083e-06
3.93492e-07
8.04114e-05
8.00652e-07
7.01581e-05
9.23532e-07
6.12285e-05
9.50063e-07
5.34363e-05
8.98361e-07
4.66047e-05
8.15125e-07
4.06611e-05
7.26917e-07
3.54868e-05
6.37324e-07
3.0952e-05
5.43618e-07
2.69254e-05
4.38625e-07
2.32909e-05
3.06348e-07
1.96684e-05
1.36417e-07
1.58968e-05
8.94333e-09
1.2326e-05
-2.66613e-08
8.73495e-06
3.3224e-07
7.62513e-05
7.05989e-07
8.05061e-05
8.42759e-07
7.02388e-05
8.82233e-07
6.12963e-05
8.41178e-07
5.34935e-05
7.6347e-07
4.66564e-05
6.77879e-07
4.07101e-05
5.91384e-07
3.55327e-05
5.04623e-07
3.0991e-05
4.1499e-07
2.6949e-05
3.16623e-07
2.32807e-05
1.95921e-07
1.96089e-05
5.27896e-08
1.5853e-05
-3.71104e-08
1.23365e-05
-4.42736e-08
8.77923e-06
2.81772e-07
7.62405e-05
6.25488e-07
7.63318e-05
7.55832e-07
8.0593e-05
8.05734e-07
7.03153e-05
7.75925e-07
6.13616e-05
7.04115e-07
5.35529e-05
6.20372e-07
4.67139e-05
5.34499e-07
4.0767e-05
4.4981e-07
3.55875e-05
3.66328e-07
3.10397e-05
2.82206e-07
2.69834e-05
1.92855e-07
2.32837e-05
8.70877e-08
1.95746e-05
-2.73452e-08
1.58432e-05
-8.19481e-08
1.23741e-05
-6.23951e-08
8.84163e-06
2.39894e-07
7.62319e-05
5.53347e-07
7.63126e-05
6.79142e-07
7.64084e-05
7.20964e-07
8.06778e-05
7.01911e-07
7.03894e-05
6.36401e-07
6.14293e-05
5.54201e-07
5.3619e-05
4.67526e-07
4.67809e-05
3.81989e-07
4.08348e-05
2.99704e-07
3.56541e-05
2.20837e-07
3.11011e-05
1.44587e-07
2.70317e-05
6.69861e-08
2.33038e-05
-2.11169e-08
1.95683e-05
-1.05119e-07
1.58664e-05
-1.26071e-07
1.24378e-05
-8.06348e-08
8.92226e-06
2.04918e-07
7.6227e-05
4.88766e-07
7.62965e-05
6.08133e-07
7.63836e-05
6.44844e-07
7.64846e-05
6.18984e-07
8.07607e-05
5.59672e-07
7.04661e-05
4.78893e-07
6.15046e-05
3.90463e-07
5.36961e-05
3.02123e-07
4.68607e-05
2.1785e-07
4.09167e-05
1.39353e-07
3.57356e-05
6.7484e-08
3.11782e-05
1.84431e-09
2.70968e-05
-6.15817e-08
2.33443e-05
-1.28919e-07
1.95921e-05
-1.81029e-07
1.59213e-05
-1.69411e-07
1.25266e-05
-9.85839e-08
9.02085e-06
1.75528e-07
7.62194e-05
4.30974e-07
7.62848e-05
5.42661e-07
7.63619e-05
5.73371e-07
7.64551e-05
5.43446e-07
7.65601e-05
4.73691e-07
8.08467e-05
3.93923e-07
7.05511e-05
3.03019e-07
6.15921e-05
2.10307e-07
5.37879e-05
1.21682e-07
4.69569e-05
4.02466e-08
4.10158e-05
-3.19974e-08
3.58351e-05
-9.39888e-08
3.1274e-05
-1.46421e-07
2.71817e-05
-1.92678e-07
2.34081e-05
-2.36072e-07
1.96472e-05
-2.55076e-07
1.6007e-05
-2.1149e-07
1.26395e-05
-1.16024e-07
9.13687e-06
1.50687e-07
7.62148e-05
3.79274e-07
7.62711e-05
4.82493e-07
7.63449e-05
5.06765e-07
7.64285e-05
4.71794e-07
7.65267e-05
3.95254e-07
7.66385e-05
2.99165e-07
8.09414e-05
2.0486e-07
7.06492e-05
1.06386e-07
6.1696e-05
1.12849e-08
5.38983e-05
-7.57554e-08
4.70729e-05
-1.51692e-07
4.11355e-05
-2.14579e-07
3.59557e-05
-2.63726e-07
3.13913e-05
-2.99835e-07
2.72888e-05
-3.25546e-07
2.34975e-05
-3.41825e-07
1.97339e-05
-3.26815e-07
1.61223e-05
-2.52141e-07
1.27756e-05
-1.32745e-07
9.26962e-06
1.29586e-07
7.62111e-05
3.33038e-07
7.62611e-05
4.27386e-07
7.63262e-05
4.45076e-07
7.64066e-05
4.04594e-07
7.64957e-05
3.20802e-07
7.66012e-05
2.13134e-07
7.67246e-05
9.60915e-08
8.10502e-05
-9.78342e-09
7.07654e-05
-1.13418e-07
6.18207e-05
-2.08667e-07
5.40312e-05
-2.91161e-07
4.72124e-05
-3.58198e-07
4.12791e-05
-4.08294e-07
3.61003e-05
-4.41104e-07
3.15326e-05
-4.57212e-07
2.74205e-05
-4.58795e-07
2.36145e-05
-4.45301e-07
1.98524e-05
-3.95861e-07
1.62661e-05
-2.90979e-07
1.29339e-05
-1.48437e-07
9.41806e-06
1.13014e-07
6.95986e-05
2.91724e-07
7.62524e-05
3.77097e-07
7.63114e-05
3.8827e-07
7.6383e-05
3.42186e-07
7.6469e-05
2.51082e-07
7.65655e-05
1.31856e-07
7.66825e-05
-2.0357e-09
7.68227e-05
-1.37784e-07
8.11782e-05
-2.52394e-07
7.09044e-05
-3.58559e-07
6.19706e-05
-4.50623e-07
5.41907e-05
-5.24791e-07
4.7379e-05
-5.78939e-07
4.14498e-05
-6.12271e-07
3.62714e-05
-6.24589e-07
3.17e-05
-6.16674e-07
2.75784e-05
-5.90907e-07
2.37601e-05
-5.45388e-07
2.00019e-05
-4.61655e-07
1.64367e-05
-3.27533e-07
1.31129e-05
-1.6292e-07
9.58098e-06
9.99651e-08
6.2557e-05
2.57955e-07
6.96323e-05
3.3138e-07
7.62981e-05
3.36262e-07
7.63634e-05
2.84762e-07
7.64404e-05
1.86628e-07
7.65335e-05
5.62155e-08
7.66411e-05
-9.41471e-08
7.67746e-05
-2.52554e-07
7.69375e-05
-4.04887e-07
8.13307e-05
-5.25265e-07
7.10711e-05
-6.3021e-07
6.21502e-05
-7.14866e-07
5.43808e-05
-7.76076e-07
4.75761e-05
-8.12806e-07
4.16503e-05
-8.24631e-07
3.64715e-05
-8.11859e-07
3.18951e-05
-7.7622e-07
2.77637e-05
-7.20064e-07
2.39348e-05
-6.41061e-07
2.01813e-05
-5.23374e-07
1.66326e-05
-3.61266e-07
1.33113e-05
-1.75966e-07
9.75694e-06
8.95169e-08
5.62284e-05
2.30575e-07
6.25844e-05
2.93332e-07
6.96704e-05
2.88946e-07
7.63455e-05
2.32421e-07
7.64157e-05
1.27801e-07
7.64993e-05
-1.30924e-08
7.66028e-05
-1.79216e-07
7.67262e-05
-3.59606e-07
7.68816e-05
-5.40956e-07
7.70735e-05
-7.0767e-07
8.15131e-05
-8.29663e-07
7.12705e-05
-9.28686e-07
6.2364e-05
-1.0006e-06
5.46053e-05
-1.04368e-06
4.7807e-05
-1.05757e-06
4.18832e-05
-1.04261e-06
3.67022e-05
-1.00044e-06
3.21194e-05
-9.33472e-07
2.79771e-05
-8.44551e-07
2.41383e-05
-7.31032e-07
2.0389e-05
-5.8032e-07
1.68516e-05
-3.91697e-07
1.3527e-05
-1.87447e-07
9.94439e-06
8.10326e-08
5.05405e-05
2.08183e-07
5.62508e-05
2.61992e-07
6.26158e-05
2.49725e-07
6.97096e-05
1.85202e-07
7.63927e-05
7.48356e-08
7.64687e-05
-7.55542e-08
7.65617e-05
-2.56382e-07
7.668e-05
-4.57749e-07
7.68243e-05
-6.67222e-07
7.70079e-05
-8.69882e-07
7.72358e-05
-1.04751e-06
8.1731e-05
-1.16595e-06
7.15078e-05
-1.25297e-06
6.26164e-05
-1.30624e-06
5.48679e-05
-1.325e-06
4.80744e-05
-1.30999e-06
4.21506e-05
-1.26324e-06
3.6965e-05
-1.18742e-06
3.23733e-05
-1.08613e-06
2.82187e-05
-9.62499e-07
2.43698e-05
-8.14244e-07
2.06229e-05
-6.31922e-07
1.70918e-05
-4.18592e-07
1.37582e-05
-1.97247e-07
1.01416e-05
7.40606e-08
4.5427e-05
1.8972e-07
5.05589e-05
2.36035e-07
5.62768e-05
2.17631e-07
6.26479e-05
1.46556e-07
6.97483e-05
2.78761e-08
7.64396e-05
-1.30811e-07
7.65239e-05
-3.24972e-07
7.66303e-05
-5.45941e-07
7.67682e-05
-7.8228e-07
7.69394e-05
-1.01985e-06
7.71579e-05
-1.24082e-06
7.74291e-05
-1.42486e-06
8.19899e-05
-1.53292e-06
7.17877e-05
-1.60125e-06
6.29114e-05
-1.62882e-06
5.51717e-05
-1.61631e-06
4.83807e-05
-1.56658e-06
4.24539e-05
-1.48303e-06
3.72606e-05
-1.36991e-06
3.26571e-05
-1.23169e-06
2.84879e-05
-1.07233e-06
2.46278e-05
-8.89756e-07
2.08808e-05
-6.77602e-07
1.73509e-05
-4.41683e-07
1.40026e-05
-2.0529e-07
1.03469e-05
6.82721e-08
4.08318e-05
1.74382e-07
4.54423e-05
2.14419e-07
5.05806e-05
1.91268e-07
5.63032e-05
1.15438e-07
6.2679e-05
-9.70221e-09
6.97858e-05
-1.78622e-07
7.64874e-05
-3.8449e-07
7.65835e-05
-6.23328e-07
7.67077e-05
-8.84875e-07
7.68708e-05
-1.1559e-06
7.70754e-05
-1.41912e-06
7.73362e-05
-1.65436e-06
7.76586e-05
-1.83833e-06
8.22953e-05
-1.92854e-06
7.2115e-05
-1.97017e-06
6.32527e-05
-1.96408e-06
5.55195e-05
-1.91356e-06
4.87277e-05
-1.82326e-06
4.27942e-05
-1.69851e-06
3.75892e-05
-1.5448e-06
3.29702e-05
-1.36803e-06
2.87836e-05
-1.17245e-06
2.49105e-05
-9.56797e-07
2.116e-05
-7.16919e-07
1.76261e-05
-4.60801e-07
1.42581e-05
-2.1156e-07
1.05585e-05
6.34237e-08
3.67008e-05
1.61551e-07
4.08446e-05
1.96321e-07
4.54604e-05
1.69524e-07
5.06023e-05
9.03527e-08
5.63282e-05
-3.91426e-08
6.27084e-05
-2.15653e-07
6.98229e-05
-4.34586e-07
7.65375e-05
-6.89255e-07
7.66494e-05
-9.73941e-07
7.67968e-05
-1.27653e-06
7.69914e-05
-1.58043e-06
7.72367e-05
-1.8658e-06
7.75476e-05
-2.10903e-06
7.79293e-05
-2.28576e-06
8.26525e-05
-2.34909e-06
7.24939e-05
-2.35493e-06
6.36436e-05
-2.3074e-06
5.59133e-05
-2.212e-06
4.91164e-05
-2.07584e-06
4.31715e-05
-1.90587e-06
3.79503e-05
-1.70941e-06
3.33116e-05
-1.49309e-06
2.91042e-05
-1.26178e-06
2.52155e-05
-1.01475e-06
2.14578e-05
-7.49646e-07
1.79149e-05
-4.7589e-07
1.45225e-05
-2.16042e-07
1.07745e-05
5.93306e-08
3.29901e-05
1.50747e-07
3.67117e-05
1.8109e-07
4.08599e-05
1.51517e-07
4.54784e-05
7.00962e-08
5.06226e-05
-6.2114e-08
5.63512e-05
-2.43489e-07
6.27363e-05
-4.71906e-07
6.98602e-05
-7.43246e-07
7.65915e-05
-1.04864e-06
7.67241e-05
-1.38041e-06
7.69006e-05
-1.72291e-06
7.71339e-05
-2.05681e-06
7.74277e-05
-2.35838e-06
7.7797e-05
-2.6026e-06
7.82461e-05
-2.7631e-06
8.30665e-05
-2.78919e-06
7.29282e-05
-2.75024e-06
6.40864e-05
-2.65321e-06
5.63545e-05
-2.50666e-06
4.95473e-05
-2.31981e-06
4.35854e-05
-2.10186e-06
3.83428e-05
-1.86115e-06
3.36796e-05
-1.60527e-06
2.94477e-05
-1.33946e-06
2.55402e-05
-1.06325e-06
2.17714e-05
-7.75707e-07
1.82148e-05
-4.86971e-07
1.47934e-05
-2.189e-07
1.09934e-05
5.58524e-08
2.96515e-05
1.41594e-07
3.29992e-05
1.68207e-07
3.67245e-05
1.3654e-07
4.08748e-05
5.37055e-08
4.54948e-05
-7.99666e-08
5.06404e-05
-2.64106e-07
5.63718e-05
-4.98505e-07
6.27629e-05
-7.81847e-07
6.98988e-05
-1.10834e-06
7.66512e-05
-1.46649e-06
7.68102e-05
-1.84497e-06
7.70227e-05
-2.22522e-06
7.73023e-05
-2.58362e-06
7.7653e-05
-2.8947e-06
7.80891e-05
-3.1308e-06
7.86138e-05
-3.26431e-06
8.35416e-05
-3.24283e-06
7.34208e-05
-3.14971e-06
6.45829e-05
-2.9958e-06
5.68436e-05
-2.79231e-06
5.00198e-05
-2.55131e-06
4.40349e-05
-2.28332e-06
3.87649e-05
-1.99793e-06
3.40723e-05
-1.70335e-06
2.98116e-05
-1.40487e-06
2.58819e-05
-1.10217e-06
2.20979e-05
-7.95164e-07
1.85229e-05
-4.94258e-07
1.50687e-05
-2.19854e-07
1.12133e-05
5.28785e-08
2.6651e-05
1.33797e-07
2.96593e-05
1.57259e-07
3.30102e-05
1.2403e-07
3.6737e-05
4.04098e-08
4.08881e-05
-9.37826e-08
4.55086e-05
-2.791e-07
5.06554e-05
-5.16785e-07
5.63901e-05
-8.077e-07
6.27887e-05
-1.14937e-06
6.99398e-05
-1.53393e-06
7.67187e-05
-1.94526e-06
7.69105e-05
-2.36907e-06
7.71666e-05
-2.78215e-06
7.75008e-05
-3.15881e-06
7.79171e-05
-3.47032e-06
7.84286e-05
-3.68707e-06
7.90366e-05
-3.78278e-06
8.40816e-05
-3.70285e-06
7.39739e-05
-3.54687e-06
6.5134e-05
-3.3291e-06
5.73804e-05
-3.06438e-06
5.05328e-05
-2.76649e-06
4.45181e-05
-2.44759e-06
3.92146e-05
-2.11813e-06
3.44871e-05
-1.78645e-06
3.01932e-05
-1.45775e-06
2.62374e-05
-1.13158e-06
2.24343e-05
-8.08276e-07
1.8837e-05
-4.97535e-07
1.53464e-05
-2.71328e-07
1.14846e-05
5.03225e-08
2.39566e-05
1.27121e-07
2.66577e-05
1.47912e-07
2.96686e-05
1.13534e-07
3.30207e-05
2.95955e-08
3.67479e-05
-1.04426e-07
4.08988e-05
-2.89746e-07
4.55193e-05
-5.28687e-07
5.06673e-05
-8.2376e-07
5.64062e-05
-1.17509e-06
6.28144e-05
-1.57874e-06
6.99846e-05
-2.02273e-06
7.67961e-05
-2.48669e-06
7.70281e-05
-2.95161e-06
7.7336e-05
-3.39186e-06
7.77339e-05
-3.77788e-06
7.82247e-05
-4.07833e-06
7.88198e-05
-4.26443e-06
7.95182e-05
-4.31059e-06
8.46893e-05
-4.16194e-06
7.4589e-05
-3.93468e-06
6.57396e-05
-3.64773e-06
5.79638e-05
-3.31821e-06
5.10846e-05
-2.9621e-06
4.50326e-05
-2.59262e-06
3.96891e-05
-2.22053e-06
3.49212e-05
-1.85411e-06
3.05895e-05
-1.49819e-06
2.6604e-05
-1.15183e-06
2.27778e-05
-8.15012e-07
1.91544e-05
-6.15085e-07
1.56902e-05
-2.67592e-07
1.17522e-05
4.81151e-08
2.15342e-05
1.21376e-07
2.39623e-05
1.39898e-07
2.66657e-05
1.04689e-07
2.96775e-05
2.07727e-08
3.30295e-05
-1.12583e-07
3.6756e-05
-2.97058e-07
4.09061e-05
-5.35754e-07
4.55263e-05
-8.32411e-07
5.0676e-05
-1.18913e-06
5.64202e-05
-1.60508e-06
6.28408e-05
-2.07286e-06
7.00348e-05
-2.57675e-06
7.68862e-05
-3.08995e-06
7.71664e-05
-3.59101e-06
7.75352e-05
-4.04989e-06
7.80059e-05
-4.43375e-06
7.85801e-05
-4.71146e-06
7.92669e-05
-4.85429e-06
8.00619e-05
-4.83948e-06
8.53669e-05
-4.61196e-06
7.52663e-05
-4.30681e-06
6.63986e-05
-3.94613e-06
5.85917e-05
-3.54987e-06
5.16723e-05
-3.13553e-06
4.55755e-05
-2.7168e-06
4.01853e-05
-2.30444e-06
3.53715e-05
-1.90635e-06
3.09977e-05
-1.52651e-06
2.69787e-05
-1.16307e-06
2.31259e-05
-1.00905e-06
1.95484e-05
-6.07269e-07
1.60299e-05
-2.61272e-07
1.20135e-05
4.62012e-08
1.93539e-05
1.16413e-07
2.15392e-05
1.33e-07
2.39692e-05
9.72054e-08
2.66731e-05
1.3553e-08
2.96847e-05
-1.18797e-07
3.30357e-05
-3.01832e-07
3.67608e-05
-5.39208e-07
4.09095e-05
-8.35542e-07
4.55295e-05
-1.19442e-06
5.06813e-05
-1.61743e-06
5.64326e-05
-2.10077e-06
6.28687e-05
-2.63403e-06
7.0092e-05
-3.19549e-06
7.69917e-05
-3.75378e-06
7.73292e-05
-4.28297e-06
7.77682e-05
-4.74914e-06
7.83212e-05
-5.11897e-06
7.89876e-05
-5.36065e-06
7.97732e-05
-5.44764e-06
8.06701e-05
-5.36018e-06
8.61151e-05
-5.04558e-06
7.60051e-05
-4.65674e-06
6.71092e-05
-4.21959e-06
5.92614e-05
-3.75618e-06
5.2293e-05
-3.28476e-06
4.61434e-05
-2.81918e-06
4.07001e-05
-2.36979e-06
3.58349e-05
-1.94346e-06
3.14146e-05
-1.54302e-06
2.73587e-05
-1.44189e-06
2.35587e-05
-9.97414e-07
1.99386e-05
-5.93947e-07
1.63625e-05
-2.53068e-07
1.22666e-05
1.73977e-05
4.45363e-08
1.12108e-07
1.93582e-05
1.27039e-07
2.15451e-05
9.08456e-08
2.39756e-05
7.6257e-09
2.66791e-05
-1.23493e-07
2.96894e-05
-3.04695e-07
3.30386e-05
-5.40001e-07
3.67616e-05
-8.34645e-07
4.09086e-05
-1.1933e-06
4.55283e-05
-1.61935e-06
5.06832e-05
-2.11188e-06
5.64437e-05
-2.6647e-06
6.28994e-05
-3.26205e-06
7.01586e-05
-3.87805e-06
7.7116e-05
-4.47414e-06
7.75204e-05
-5.02053e-06
7.80396e-05
-5.48213e-06
7.86844e-05
-5.82412e-06
7.9451e-05
-6.0162e-06
8.03418e-05
-6.03423e-06
8.13441e-05
-5.86429e-06
8.69338e-05
-5.4552e-06
7.68035e-05
-4.97888e-06
6.78685e-05
-4.46427e-06
5.99695e-05
-3.93458e-06
5.29428e-05
-3.4085e-06
4.67328e-05
-2.89952e-06
4.12298e-05
-2.41677e-06
3.63083e-05
-1.96585e-06
3.18374e-05
-1.91491e-06
2.78317e-05
-1.4269e-06
2.39882e-05
-9.76951e-07
2.03216e-05
-5.76352e-07
1.66858e-05
-2.43466e-07
1.251e-05
1.74014e-05
1.08356e-07
2.78129e-05
4.16849e-08
1.21872e-07
1.93634e-05
8.54194e-08
2.15506e-05
2.74327e-09
2.39804e-05
-1.27009e-07
2.66826e-05
-3.06132e-07
2.96908e-05
-5.38875e-07
3.30375e-05
-8.30874e-07
3.67578e-05
-1.18757e-06
4.09029e-05
-1.61369e-06
4.55227e-05
-2.11053e-06
5.06818e-05
-2.67525e-06
5.64542e-05
-3.29696e-06
6.29343e-05
-3.95642e-06
7.0237e-05
-4.62077e-06
7.72626e-05
-5.24432e-06
7.77442e-05
-5.79632e-06
7.83538e-05
-6.23922e-06
7.90995e-05
-6.53901e-06
7.99739e-05
-6.66708e-06
8.09746e-05
-6.60478e-06
8.20846e-05
-6.34304e-06
8.78216e-05
-5.83423e-06
7.76589e-05
-5.26859e-06
6.86729e-05
-4.67698e-06
6.07119e-05
-4.08341e-06
5.36177e-05
-3.50635e-06
4.73396e-05
-2.95791e-06
4.17709e-05
-2.44586e-06
3.67883e-05
-2.44155e-06
3.23641e-05
-1.89694e-06
2.83017e-05
-1.39931e-06
2.44106e-05
-9.49439e-07
2.06947e-05
-5.5551e-07
1.69979e-05
-2.32821e-07
1.27428e-05
1.74059e-05
1.1738e-07
2.78193e-05
1.01925e-07
2.85528e-05
3.89272e-08
8.07734e-08
1.9368e-05
-1.29189e-09
2.15546e-05
-1.29609e-07
2.3983e-05
-3.06521e-07
2.6683e-05
-5.36398e-07
2.96883e-05
-8.25123e-07
3.30317e-05
-1.17865e-06
3.67489e-05
-1.6027e-06
4.08919e-05
-2.10018e-06
4.55123e-05
-2.6709e-06
5.06775e-05
-3.30788e-06
5.64651e-05
-3.99741e-06
6.29753e-05
-4.71388e-06
7.03301e-05
-5.41731e-06
7.74356e-05
-6.05725e-06
7.80051e-05
-6.60063e-06
7.87152e-05
-7.00994e-06
7.95704e-05
-7.252e-06
8.05588e-05
-7.30322e-06
8.16731e-05
-7.14946e-06
8.2891e-05
-6.7887e-06
8.87761e-05
-6.1771e-06
7.85674e-05
-5.52196e-06
6.95178e-05
-4.85558e-06
6.14841e-05
-4.20201e-06
5.43134e-05
-3.57823e-06
4.79599e-05
-2.99488e-06
4.232e-05
-3.03963e-06
3.73864e-05
-2.42079e-06
3.28879e-05
-1.8622e-06
2.87646e-05
-1.36153e-06
2.48227e-05
-9.16472e-07
2.10556e-05
-5.32224e-07
1.72973e-05
-2.21455e-07
1.29643e-05
1.74099e-05
7.67794e-08
2.78264e-05
1.10241e-07
2.8559e-05
9.56608e-08
2.93127e-05
3.62665e-08
-4.63683e-09
1.93714e-05
-1.31501e-07
2.15565e-05
-3.06151e-07
2.39827e-05
-5.33006e-07
2.66796e-05
-8.18072e-07
2.96813e-05
-1.16764e-06
3.30207e-05
-1.58808e-06
3.67343e-05
-2.08354e-06
4.08753e-05
-2.65583e-06
4.54973e-05
-3.30105e-06
5.06707e-05
-4.01e-06
5.64777e-05
-4.7632e-06
6.30246e-05
-5.52854e-06
7.04413e-05
-6.26103e-06
7.76394e-05
-6.90331e-06
7.83078e-05
-7.42288e-06
7.91282e-05
-7.78214e-06
8.01006e-05
-7.95231e-06
8.12079e-05
-7.9138e-06
8.24374e-05
-7.6595e-06
8.37618e-05
-7.19464e-06
8.97936e-05
-6.47906e-06
7.95245e-05
-5.73629e-06
7.03985e-05
-4.99912e-06
6.22812e-05
-4.29013e-06
5.50253e-05
-3.62471e-06
4.85897e-05
-3.72411e-06
4.30044e-05
-3.01612e-06
3.79817e-05
-2.37874e-06
3.34045e-05
-1.81384e-06
2.92169e-05
-1.31576e-06
2.52219e-05
-8.7937e-07
2.14028e-05
-5.07248e-07
1.75831e-05
-2.0967e-07
1.3174e-05
1.74127e-05
-7.41936e-09
2.78318e-05
7.14329e-08
2.85659e-05
1.03337e-07
2.93188e-05
8.95715e-08
3.00906e-05
3.37037e-08
-1.32844e-07
1.93727e-05
-3.05246e-07
2.15556e-05
-5.29029e-07
2.39787e-05
-8.10237e-07
2.66718e-05
-1.15534e-06
2.9669e-05
-1.57116e-06
3.30038e-05
-2.06271e-06
3.67135e-05
-2.6333e-06
4.08527e-05
-3.28145e-06
4.54777e-05
-4.00153e-06
5.06622e-05
-4.77916e-06
5.64937e-05
-5.58895e-06
6.3085e-05
-6.39424e-06
7.05745e-05
-7.1426e-06
7.78787e-05
-7.77201e-06
7.86569e-05
-8.25065e-06
7.95967e-05
-8.54455e-06
8.06928e-05
-8.62827e-06
8.19223e-05
-8.48907e-06
8.3267e-05
-8.12726e-06
8.46945e-05
-7.55509e-06
9.08697e-05
-6.73669e-06
8.05249e-05
-5.9102e-06
7.13096e-05
-5.10713e-06
6.30982e-05
-4.34831e-06
5.57489e-05
-4.51003e-06
4.93757e-05
-3.69797e-06
4.36863e-05
-2.96628e-06
3.85692e-05
-2.31924e-06
3.39099e-05
-1.75466e-06
2.96558e-05
-1.2639e-06
2.56065e-05
-8.39357e-07
2.17349e-05
-4.81253e-07
1.78546e-05
-1.97723e-07
1.33717e-05
1.74136e-05
-1.33768e-07
2.78335e-05
-9.12673e-09
2.8571e-05
6.63532e-08
2.93254e-05
9.66607e-08
3.00965e-05
8.36566e-08
3.08905e-05
3.12395e-08
-3.03974e-07
1.93715e-05
-5.24713e-07
2.15513e-05
-8.01998e-07
2.39705e-05
-1.14237e-06
2.66588e-05
-1.55293e-06
2.96508e-05
-2.03928e-06
3.29804e-05
-2.60584e-06
3.6686e-05
-3.25296e-06
4.08243e-05
-3.97785e-06
4.5454e-05
-4.77026e-06
5.06533e-05
-5.61044e-06
5.65152e-05
-6.469e-06
6.31598e-05
-7.3021e-06
7.0734e-05
-8.05179e-06
7.81585e-05
-8.65085e-06
7.90571e-05
-9.07232e-06
8.01245e-05
-9.28476e-06
8.13493e-05
-9.26922e-06
8.27025e-05
-9.02039e-06
8.41601e-05
-8.54592e-06
8.56853e-05
-7.8657e-06
9.19987e-05
-6.94809e-06
8.15628e-05
-6.04294e-06
7.22454e-05
-5.18004e-06
6.39299e-05
-5.41414e-06
5.6653e-05
-4.48171e-06
5.01594e-05
-3.6398e-06
4.43598e-05
-2.89466e-06
3.91446e-05
-2.24575e-06
3.4401e-05
-1.68718e-06
3.00791e-05
-1.2077e-06
2.59748e-05
-7.97532e-07
2.20512e-05
-4.54794e-07
1.81117e-05
-1.85818e-07
1.35575e-05
1.74121e-05
-3.02465e-07
2.78297e-05
-1.30037e-07
2.85724e-05
-1.04741e-08
2.93302e-05
6.15602e-08
3.01029e-05
9.02274e-08
3.08962e-05
7.79255e-08
3.17104e-05
2.88709e-08
-5.20242e-07
1.9367e-05
-7.93639e-07
2.15429e-05
-1.1292e-06
2.39573e-05
-1.53414e-06
2.664e-05
-2.01447e-06
2.9626e-05
-2.57539e-06
3.29499e-05
-3.21863e-06
3.66517e-05
-3.94359e-06
4.079e-05
-4.74333e-06
4.54271e-05
-5.60277e-06
5.06456e-05
-6.49872e-06
5.65449e-05
-7.39497e-06
6.32526e-05
-8.24229e-06
7.09245e-05
-8.97624e-06
7.84839e-05
-9.52804e-06
7.95128e-05
-9.87492e-06
8.07146e-05
-9.99135e-06
8.20714e-05
-9.86562e-06
8.35477e-05
-9.49995e-06
8.51142e-05
-8.91026e-06
8.67298e-05
-8.12384e-06
9.31744e-05
-7.11198e-06
8.26318e-05
-6.13475e-06
7.32001e-05
-6.45522e-06
6.4971e-05
-5.38464e-06
5.75559e-05
-4.41481e-06
5.09344e-05
-3.55488e-06
4.502e-05
-2.80541e-06
3.97043e-05
-2.16145e-06
3.48752e-05
-1.61371e-06
3.04851e-05
-1.14873e-06
2.6326e-05
-7.54803e-07
2.23512e-05
-4.28325e-07
1.83542e-05
-1.7413e-07
1.37316e-05
1.74076e-05
-5.1575e-07
2.78187e-05
-2.91464e-07
2.85681e-05
-1.25827e-07
2.93312e-05
-1.14586e-08
3.01074e-05
5.7052e-08
3.09024e-05
8.4036e-08
3.17159e-05
7.23838e-08
3.25543e-05
2.66036e-08
-7.85364e-07
1.93587e-05
-1.11614e-06
2.15298e-05
-1.51533e-06
2.39385e-05
-1.98918e-06
2.66147e-05
-2.54341e-06
2.9594e-05
-3.18077e-06
3.2912e-05
-3.90235e-06
3.66104e-05
-4.7038e-06
4.07505e-05
-5.57385e-06
4.53981e-05
-6.49448e-06
5.06414e-05
-7.43616e-06
5.65861e-05
-8.35755e-06
6.33679e-05
-9.20276e-06
7.1151e-05
-9.90423e-06
7.88601e-05
-1.03903e-05
8.00282e-05
-1.06464e-05
8.13696e-05
-1.06539e-05
8.28597e-05
-1.04087e-05
8.44564e-05
-9.92166e-06
8.61256e-05
-9.21696e-06
8.7823e-05
-8.32769e-06
9.43901e-05
-7.22832e-06
8.37254e-05
-7.65291e-06
7.43978e-05
-6.42629e-06
6.60127e-05
-5.30889e-06
5.845e-05
-4.31539e-06
5.16949e-05
-3.44814e-06
4.56628e-05
-2.70248e-06
4.02453e-05
-2.06927e-06
3.53308e-05
-1.53636e-06
3.08728e-05
-1.08829e-06
2.66595e-05
-7.1192e-07
2.26348e-05
-4.02238e-07
1.85823e-05
-1.62766e-07
1.38944e-05
1.73996e-05
-7.77315e-07
2.77985e-05
-4.95485e-07
2.85565e-05
-2.79803e-07
2.93265e-05
-1.21101e-07
3.0108e-05
-1.20676e-08
3.09066e-05
5.28309e-08
3.17219e-05
7.80896e-08
3.25596e-05
6.70226e-08
3.34202e-05
2.44307e-08
-1.10342e-06
1.9346e-05
-1.49688e-06
2.15114e-05
-1.96404e-06
2.39133e-05
-2.51097e-06
2.65823e-05
-3.14113e-06
2.95543e-05
-3.85688e-06
3.28666e-05
-4.6559e-06
3.65625e-05
-5.52995e-06
4.07066e-05
-6.46529e-06
4.5369e-05
-7.43808e-06
5.06433e-05
-8.41399e-06
5.66425e-05
-9.34511e-06
6.35102e-05
-1.0172e-05
7.14188e-05
-1.08223e-05
7.92921e-05
-1.1225e-05
8.06068e-05
-1.13755e-05
8.20913e-05
-1.12627e-05
8.37137e-05
-1.08913e-05
8.54261e-05
-1.02814e-05
8.719e-05
-9.46361e-06
8.89589e-05
-8.47679e-06
9.56386e-05
-9.02908e-06
8.51015e-05
-7.62749e-06
7.5599e-05
-6.34208e-06
6.70459e-05
-5.19386e-06
5.93285e-05
-4.18926e-06
5.2436e-05
-3.32436e-06
4.62846e-05
-2.58946e-06
4.07655e-05
-1.97188e-06
3.57663e-05
-1.45687e-06
3.12413e-05
-1.02749e-06
2.69751e-05
-6.69535e-07
2.29021e-05
-3.76779e-07
1.87963e-05
-1.51828e-07
1.40462e-05
1.73874e-05
-1.09122e-06
2.77666e-05
-7.45462e-07
2.85354e-05
-4.74388e-07
2.93142e-05
-2.67514e-07
3.01028e-05
-1.15913e-07
3.09069e-05
-1.23144e-08
3.17258e-05
4.8896e-08
3.25653e-05
7.23864e-08
3.34253e-05
6.18526e-08
3.43061e-05
2.2352e-08
-1.47907e-06
1.93282e-05
-1.93954e-06
2.14869e-05
-2.47886e-06
2.38812e-05
-3.10101e-06
2.65422e-05
-3.80926e-06
2.95067e-05
-4.60286e-06
3.28135e-05
-5.47599e-06
3.65086e-05
-6.41836e-06
4.06596e-05
-7.41091e-06
4.53418e-05
-8.42538e-06
5.06547e-05
-9.42112e-06
5.67185e-05
-1.03466e-05
6.36848e-05
-1.11367e-05
7.17332e-05
-1.17175e-05
7.97846e-05
-1.20203e-05
8.12515e-05
-1.20517e-05
8.28803e-05
-1.18097e-05
8.46321e-05
-1.13086e-05
8.64533e-05
-1.05759e-05
8.83024e-05
-9.64921e-06
9.01313e-05
-1.06074e-05
9.72169e-05
-9.01251e-06
8.64866e-05
-7.53627e-06
7.67932e-05
-6.21058e-06
6.80626e-05
-5.04629e-06
6.01855e-05
-4.0421e-06
5.31538e-05
-3.1879e-06
4.68831e-05
-2.46966e-06
4.12633e-05
-1.87149e-06
3.61809e-05
-1.37669e-06
3.15905e-05
-9.67252e-07
2.72728e-05
-6.28066e-07
2.31533e-05
-3.5219e-07
1.89967e-05
-1.41382e-07
1.41876e-05
1.73704e-05
-1.46209e-06
2.77208e-05
-1.04539e-06
2.85025e-05
-7.12565e-07
2.92922e-05
-4.5241e-07
3.00899e-05
-2.5456e-07
3.09012e-05
-1.1024e-07
3.17257e-05
-1.21961e-08
3.2569e-05
4.52539e-08
3.34308e-05
6.69331e-08
3.43111e-05
5.68693e-08
3.522e-05
2.03675e-08
-1.91598e-06
1.93046e-05
-2.44764e-06
2.14557e-05
-3.06135e-06
2.38416e-05
-3.76106e-06
2.6494e-05
-4.54718e-06
2.9451e-05
-5.41577e-06
3.27533e-05
-6.35938e-06
3.64496e-05
-7.36283e-06
4.06116e-05
-8.40307e-06
4.53195e-05
-9.44584e-06
5.06794e-05
-1.04469e-05
5.68189e-05
-1.13487e-05
6.38968e-05
-1.20837e-05
7.20995e-05
-1.25776e-05
8.03419e-05
-1.27649e-05
8.19647e-05
-1.26661e-05
8.37367e-05
-1.22891e-05
8.56125e-05
-1.16565e-05
8.75339e-05
-1.08037e-05
8.94568e-05
-1.20975e-05
9.16214e-05
-1.06087e-05
9.88131e-05
-8.91802e-06
8.78683e-05
-7.38852e-06
7.79711e-05
-6.03973e-06
6.9056e-05
-4.87297e-06
6.10164e-05
-3.87915e-06
5.3845e-05
-3.04277e-06
4.74562e-05
-2.34583e-06
4.17377e-05
-1.77e-06
3.65742e-05
-1.29709e-06
3.19204e-05
-9.08193e-07
2.75529e-05
-5.87913e-07
2.33891e-05
-3.28628e-07
1.91839e-05
-1.31459e-07
1.43191e-05
1.7348e-05
-1.89357e-06
2.7658e-05
-1.39929e-06
2.84554e-05
-9.98263e-07
2.92583e-05
-6.78663e-07
3.00671e-05
-4.2962e-07
3.08876e-05
-2.40999e-07
3.17195e-05
-1.04109e-07
3.25685e-05
-1.17281e-08
3.34342e-05
4.18873e-08
3.43163e-05
6.17214e-08
3.52248e-05
5.20672e-08
3.61559e-05
1.84729e-08
-2.41768e-06
1.92747e-05
-3.02283e-06
2.14171e-05
-3.7134e-06
2.37939e-05
-4.4907e-06
2.64375e-05
-5.35222e-06
2.93875e-05
-6.29274e-06
3.26867e-05
-7.30032e-06
3.63871e-05
-8.35624e-06
4.05647e-05
-9.4318e-06
4.53054e-05
-1.04893e-05
5.07219e-05
-1.14785e-05
5.69487e-05
-1.23386e-05
6.41517e-05
-1.30007e-05
7.25226e-05
-1.33906e-05
8.09675e-05
-1.34491e-05
8.27477e-05
-1.32119e-05
8.46596e-05
-1.26958e-05
8.66518e-05
-1.19325e-05
8.86627e-05
-1.35738e-05
9.09332e-05
-1.21244e-05
9.31371e-05
-1.05176e-05
0.000100413
-8.75598e-06
8.92358e-05
-7.19346e-06
7.91249e-05
-5.83756e-06
7.00206e-05
-4.68015e-06
6.18174e-05
-3.70524e-06
5.45075e-05
-2.89233e-06
4.80027e-05
-2.22033e-06
4.2188e-05
-1.66902e-06
3.69462e-05
-1.2189e-06
3.22311e-05
-8.50901e-07
2.78159e-05
-5.49349e-07
2.36098e-05
-3.06174e-07
1.93587e-05
-1.22085e-07
1.44412e-05
1.73195e-05
-2.38924e-06
2.75751e-05
-1.81065e-06
2.83909e-05
-1.33478e-06
2.92097e-05
-9.49618e-07
3.0032e-05
-6.43603e-07
3.0864e-05
-4.06021e-07
3.17054e-05
-2.26864e-07
3.25619e-05
-9.7537e-08
3.34334e-05
-1.09189e-08
3.43194e-05
3.88006e-08
3.52298e-05
5.67496e-08
3.61605e-05
4.74458e-08
3.65898e-05
1.669e-08
-2.98589e-06
1.92377e-05
-3.66709e-06
2.13708e-05
-4.43475e-06
2.3738e-05
-5.28751e-06
2.63728e-05
-6.22185e-06
2.93166e-05
-7.22847e-06
3.26148e-05
-8.29224e-06
3.63231e-05
-9.38921e-06
4.05221e-05
-1.04875e-05
4.53036e-05
-1.15435e-05
5.07869e-05
-1.25033e-05
5.71133e-05
-1.33038e-05
6.44548e-05
-1.38751e-05
7.3007e-05
-1.4146e-05
8.16645e-05
-1.4065e-05
8.36009e-05
-1.36831e-05
8.56468e-05
-1.30268e-05
8.77461e-05
-1.50281e-05
9.0117e-05
-1.36365e-05
9.24453e-05
-1.20453e-05
9.46648e-05
-1.03458e-05
0.000102003
-8.53679e-06
9.05791e-05
-6.9603e-06
8.02476e-05
-5.61152e-06
7.0952e-05
-4.47363e-06
6.25858e-05
-3.52447e-06
5.51396e-05
-2.7395e-06
4.85219e-05
-2.09521e-06
4.26142e-05
-1.56965e-06
3.72969e-05
-1.14293e-06
3.25231e-05
-7.95786e-07
2.80623e-05
-5.12514e-07
2.38161e-05
-2.84894e-07
1.95215e-05
-1.13274e-07
1.45544e-05
1.72845e-05
-2.95085e-06
2.74686e-05
-2.2828e-06
2.83062e-05
-1.72603e-06
2.91436e-05
-1.26875e-06
2.99822e-05
-8.99775e-07
3.08281e-05
-6.07648e-07
3.16811e-05
-3.81672e-07
3.25472e-05
-2.12145e-07
3.34264e-05
-9.05443e-08
3.43182e-05
-9.78554e-09
3.52326e-05
3.59788e-08
3.61653e-05
5.20083e-08
3.65942e-05
4.30603e-08
3.55536e-05
1.50732e-08
-3.62268e-06
1.91933e-05
-4.38031e-06
2.13164e-05
-5.22323e-06
2.36737e-05
-6.14927e-06
2.63002e-05
-7.15119e-06
2.92393e-05
-8.21685e-06
3.25394e-05
-9.3263e-06
3.62602e-05
-1.04527e-05
4.04873e-05
-1.15583e-05
4.53185e-05
-1.25959e-05
5.08795e-05
-1.35086e-05
5.73181e-05
-1.42315e-05
6.48112e-05
-1.46958e-05
7.35568e-05
-1.48352e-05
8.24347e-05
-1.4606e-05
8.45238e-05
-1.40759e-05
8.66959e-05
-1.64502e-05
8.91681e-05
-1.5138e-05
9.16185e-05
-1.35796e-05
9.39796e-05
-1.18728e-05
9.61918e-05
-1.01052e-05
0.000103571
-8.27117e-06
9.189e-05
-6.69771e-06
8.13338e-05
-5.36844e-06
7.18468e-05
-4.25839e-06
6.33197e-05
-3.34041e-06
5.57406e-05
-2.58682e-06
4.90135e-05
-1.97184e-06
4.30164e-05
-1.47292e-06
3.76269e-05
-1.06973e-06
3.27971e-05
-7.43058e-07
2.82929e-05
-4.77528e-07
2.40088e-05
-2.64833e-07
1.9673e-05
-1.05027e-07
1.46595e-05
1.72423e-05
-3.58052e-06
2.73359e-05
-2.81808e-06
2.81979e-05
-2.17447e-06
2.90569e-05
-1.63926e-06
2.99146e-05
-1.2012e-06
3.0777e-05
-8.48699e-07
3.16442e-05
-5.70744e-07
3.25222e-05
-3.56681e-07
3.34112e-05
-1.96947e-07
3.43109e-05
-8.31735e-08
3.52311e-05
-8.34962e-09
3.61678e-05
3.34111e-08
3.65986e-05
4.7555e-08
3.55576e-05
3.90648e-08
3.45455e-05
1.3601e-08
-4.32805e-06
1.91411e-05
-5.16054e-06
2.12537e-05
-6.07687e-06
2.36013e-05
-7.07147e-06
2.62204e-05
-8.13457e-06