/*--------------------------------*- C++ -*----------------------------------*\
  =========                 |
  \\      /  F ield         | OpenFOAM: The Open Source CFD Toolbox
   \\    /   O peration     | Website:  https://openfoam.org
    \\  /    A nd           | Version:  8
     \\/     M anipulation  |
\*---------------------------------------------------------------------------*/
FoamFile
{
    version     2.0;
    format      ascii;
    class       surfaceScalarField;
    location    "0.1";
    object      phi;
}
// * * * * * * * * * * * * * * * * * * * * * * * * * * * * * * * * * * * * * //

dimensions      [0 3 -1 0 0 0 0];

internalField   nonuniform List<scalar> 
1540
(
1.01084e-10
-1.01107e-10
7.69538e-10
-6.6828e-10
1.80167e-09
-1.0321e-09
2.96873e-09
-1.16686e-09
4.10337e-09
-1.13464e-09
5.09799e-09
-9.94665e-10
5.89428e-09
-7.96436e-10
6.46824e-09
-5.74041e-10
6.8148e-09
-3.46651e-10
6.93516e-09
-1.20375e-10
6.8291e-09
1.05914e-10
6.49386e-09
3.35169e-10
5.92636e-09
5.67524e-10
5.13013e-09
7.96131e-10
4.12873e-09
1.00152e-09
2.98003e-09
1.14868e-09
1.7929e-09
1.18707e-09
7.4415e-10
1.04893e-09
8.34856e-11
6.60768e-10
8.36017e-11
7.10788e-10
-8.11711e-10
2.46245e-09
-2.41987e-09
4.8245e-09
-3.39417e-09
7.40325e-09
-3.74568e-09
9.88504e-09
-3.61636e-09
1.20586e-08
-3.1683e-09
1.3803e-08
-2.54116e-09
1.50637e-08
-1.83506e-09
1.58243e-08
-1.10754e-09
1.60841e-08
-3.80198e-10
1.58421e-08
3.47785e-10
1.50931e-08
1.08407e-09
1.38337e-08
1.82714e-09
1.20775e-08
2.55213e-09
9.88055e-09
3.19849e-09
7.36816e-09
3.6613e-09
4.76175e-09
3.79356e-09
2.39092e-09
3.41989e-09
6.69884e-10
2.38209e-09
7.53524e-10
1.179e-09
-1.99067e-09
3.72593e-09
-4.9666e-09
6.96007e-09
-6.62835e-09
1.03707e-08
-7.15648e-09
1.35817e-08
-6.82747e-09
1.63501e-08
-5.93678e-09
1.85458e-08
-4.73688e-09
2.01182e-08
-3.40751e-09
2.10605e-08
-2.05005e-09
2.13803e-08
-7.00095e-10
2.10794e-08
6.48818e-10
2.01474e-08
2.01594e-09
1.85709e-08
3.40371e-09
1.63541e-08
4.76899e-09
1.35516e-08
6.00093e-09
1.03032e-08
6.90976e-09
6.86584e-09
7.23109e-09
3.63352e-09
6.65242e-09
1.13e-09
4.88574e-09
1.88352e-09
1.44552e-09
-3.43612e-09
4.46316e-09
-7.98421e-09
8.16044e-09
-1.03255e-08
1.19282e-08
-1.09243e-08
1.53645e-08
-1.0264e-08
1.82409e-08
-8.8132e-09
2.04618e-08
-6.95786e-09
2.20177e-08
-4.96328e-09
2.29379e-08
-2.97024e-09
2.32538e-08
-1.0161e-09
2.29746e-08
9.28063e-10
2.20794e-08
2.91128e-09
2.05281e-08
4.9549e-09
1.82885e-08
7.00849e-09
1.53752e-08
8.91437e-09
1.18959e-08
1.03892e-08
8.09622e-09
1.10307e-08
4.39552e-09
1.03532e-08
1.4096e-09
7.87169e-09
3.29314e-09
1.57007e-09
-5.0063e-09
4.75629e-09
-1.11705e-08
8.51252e-09
-1.40818e-08
1.21672e-08
-1.45789e-08
1.53301e-08
-1.3427e-08
1.78299e-08
-1.1313e-08
1.96488e-08
-8.77668e-09
2.08557e-08
-6.17026e-09
2.15465e-08
-3.66094e-09
2.1795e-08
-1.26446e-09
2.16228e-08
1.10013e-09
2.09909e-08
3.5432e-09
1.98121e-08
6.13376e-09
1.79857e-08
8.8349e-09
1.54473e-08
1.14528e-08
1.22289e-08
1.36077e-08
8.52217e-09
1.47374e-08
4.73728e-09
1.41381e-08
1.55444e-09
1.10545e-08
4.84764e-09
1.58676e-09
-6.59302e-09
4.64953e-09
-1.42335e-08
8.03942e-09
-1.74719e-08
1.10696e-08
-1.7609e-08
1.3409e-08
-1.57662e-08
1.4993e-08
-1.28969e-08
1.59314e-08
-9.71505e-09
1.64172e-08
-6.65604e-09
1.66464e-08
-3.89025e-09
1.67567e-08
-1.37462e-09
1.67883e-08
1.06851e-09
1.66741e-08
3.65727e-09
1.62561e-08
6.55174e-09
1.53279e-08
9.76299e-09
1.37005e-08
1.30803e-08
1.12808e-08
1.60273e-08
8.15947e-09
1.78587e-08
4.69495e-09
1.76027e-08
1.59262e-09
1.41569e-08
6.44037e-09
1.4991e-09
-8.09211e-09
4.12514e-09
-1.68597e-08
6.66469e-09
-2.00116e-08
8.46991e-09
-1.94141e-08
9.33056e-09
-1.66267e-08
9.35367e-09
-1.29201e-08
8.83848e-09
-9.19985e-09
8.15609e-09
-5.97354e-09
7.64493e-09
-3.37917e-09
7.53213e-09
-1.26192e-09
7.88426e-09
7.16251e-10
8.5942e-09
2.94733e-09
9.40269e-09
5.74327e-09
9.95359e-09
9.21211e-09
9.87733e-09
1.31565e-08
8.89544e-09
1.70091e-08
6.93698e-09
1.98171e-08
4.2541e-09
2.02856e-08
1.53047e-09
1.68805e-08
7.97093e-09
1.29117e-09
-9.38336e-09
3.10449e-09
-1.8673e-08
4.20034e-09
-2.11075e-08
4.03628e-09
-1.92502e-08
2.60175e-09
-1.51921e-08
2.5777e-10
-1.0576e-08
-2.42768e-09
-6.51439e-09
-4.83667e-09
-3.56457e-09
-6.43585e-09
-1.78017e-09
-6.87692e-09
-8.20959e-10
-6.05833e-09
-1.02424e-10
-4.14179e-09
1.03082e-09
-1.52448e-09
3.12597e-09
1.23169e-09
6.45598e-09
3.50716e-09
1.08811e-08
4.76054e-09
1.57556e-08
4.6816e-09
1.98962e-08
3.34495e-09
2.16223e-08
1.35518e-09
1.88703e-08
9.32611e-09
9.27063e-10
-1.03106e-08
1.44559e-09
-1.91915e-08
3.37791e-10
-1.99997e-08
-2.74816e-09
-1.61642e-08
-7.52205e-09
-1.04183e-08
-1.32619e-08
-4.83595e-09
-1.90303e-08
-7.46062e-10
-2.38757e-08
1.28082e-09
-2.70044e-08
1.34841e-09
-2.79072e-08
8.17932e-11
-2.64366e-08
-1.57313e-09
-2.28269e-08
-2.57879e-09
-1.76595e-08
-2.0416e-09
-1.17717e-08
5.68214e-10
-6.12141e-09
5.2308e-09
-1.61198e-09
1.1246e-08
1.10626e-09
1.7178e-08
1.83824e-09
2.08903e-08
1.03532e-09
1.9673e-08
1.03614e-08
3.51694e-10
-1.06624e-08
-1.06166e-09
-1.77781e-08
-5.36557e-09
-1.56958e-08
-1.26096e-08
-8.92003e-09
-2.20701e-08
-9.57793e-10
-3.25279e-08
5.62188e-09
-4.2548e-08
9.27402e-09
-5.07368e-08
9.4697e-09
-5.59583e-08
6.56987e-09
-5.7493e-08
1.61647e-09
-5.51334e-08
-3.9327e-09
-4.92095e-08
-8.50272e-09
-4.05432e-08
-1.0708e-08
-3.03355e-08
-9.63947e-09
-1.99937e-08
-5.11101e-09
-1.09092e-08
2.16138e-09
-4.20239e-09
1.04712e-08
-4.59584e-10
1.71474e-08
5.20711e-10
1.86925e-08
1.08821e-08
-5.14113e-10
-1.01483e-08
-4.70524e-09
-1.35869e-08
-1.35061e-08
-6.89481e-09
-2.65127e-08
4.08667e-09
-4.23964e-08
1.4926e-08
-5.92676e-08
2.24931e-08
-7.5033e-08
2.50395e-08
-8.77213e-08
2.21581e-08
-9.57526e-08
1.46012e-08
-9.8136e-08
3.99986e-09
-9.45869e-08
-7.4818e-09
-8.5558e-08
-1.75316e-08
-7.21829e-08
-2.40833e-08
-5.61343e-08
-2.5688e-08
-3.9409e-08
-2.18364e-08
-2.4046e-08
-1.32017e-08
-1.18027e-08
-1.7721e-09
-3.814e-09
9.15842e-09
-2.60158e-10
1.51385e-08
1.0622e-08
-1.77183e-09
-8.37644e-09
-9.86017e-09
-5.49848e-09
-2.48529e-08
8.09802e-09
-4.56924e-08
2.49263e-08
-7.02243e-08
3.9458e-08
-9.56693e-08
4.79382e-08
-1.19076e-07
4.84461e-08
-1.37727e-07
4.08098e-08
-1.49476e-07
2.63496e-08
-1.52983e-07
7.5075e-09
-1.47867e-07
-1.25981e-08
-1.34735e-07
-3.06634e-08
-1.15119e-07
-4.37e-08
-9.12964e-08
-4.95103e-08
-6.6027e-08
-4.71058e-08
-4.21986e-08
-3.70302e-08
-2.24174e-08
-2.15533e-08
-8.5718e-09
-4.68726e-09
-1.39913e-09
7.96596e-09
9.22308e-09
-3.55492e-09
-4.82144e-09
-1.70021e-08
7.94885e-09
-4.03731e-08
3.14691e-08
-7.16912e-08
5.62445e-08
-1.07694e-07
7.54613e-08
-1.4444e-07
8.46837e-08
-1.77871e-07
8.18776e-08
-2.04323e-07
6.72617e-08
-2.20927e-07
4.29536e-08
-2.25908e-07
1.24884e-08
-2.18757e-07
-1.97495e-08
-2.00276e-07
-4.9144e-08
-1.72498e-07
-7.14789e-08
-1.38468e-07
-8.35401e-08
-1.01921e-07
-8.36525e-08
-6.68438e-08
-7.21074e-08
-3.69596e-08
-5.14373e-08
-1.51745e-08
-2.64723e-08
-3.01695e-09
-4.19137e-09
6.20621e-09
-6.02895e-09
1.20757e-09
-2.67203e-08
2.86404e-08
-6.1256e-08
6.60047e-08
-1.06394e-07
1.01383e-07
-1.5741e-07
1.26478e-07
-2.0886e-07
1.36133e-07
-2.55281e-07
1.283e-07
-2.91815e-07
1.03795e-07
-3.14691e-07
6.58295e-08
-3.21586e-07
1.9383e-08
-3.1183e-07
-2.9505e-08
-2.86466e-07
-7.45084e-08
-2.48145e-07
-1.09799e-07
-2.00879e-07
-1.30807e-07
-1.49634e-07
-1.34898e-07
-9.98024e-08
-1.21939e-07
-5.65619e-08
-9.46776e-08
-2.41732e-08
-5.88608e-08
-5.26423e-09
-2.31003e-08
9.41934e-10
-9.39763e-09
1.06052e-08
-3.97316e-08
5.89744e-08
-8.89364e-08
1.15209e-07
-1.52062e-07
1.64509e-07
-2.22479e-07
1.96894e-07
-2.92828e-07
2.06482e-07
-3.55885e-07
1.91357e-07
-4.05302e-07
1.53213e-07
-4.36194e-07
9.67208e-08
-4.45556e-07
2.87457e-08
-4.32518e-07
-4.25431e-08
-3.98407e-07
-1.08619e-07
-3.46637e-07
-1.6157e-07
-2.82409e-07
-1.95035e-07
-2.12234e-07
-2.05073e-07
-1.43285e-07
-1.90888e-07
-8.26072e-08
-1.55355e-07
-3.62456e-08
-1.05222e-07
-8.32855e-09
-5.10174e-08
-7.38665e-09
-1.39073e-08
2.45125e-08
-5.68915e-08
1.01959e-07
-1.25113e-07
1.83431e-07
-2.11354e-07
2.5075e-07
-3.06533e-07
2.92074e-07
-4.00887e-07
3.00835e-07
-4.85001e-07
2.75472e-07
-5.50701e-07
2.18912e-07
-5.91733e-07
1.37753e-07
-6.04259e-07
4.12723e-08
-5.87151e-07
-5.96517e-08
-5.4207e-07
-1.537e-07
-4.7335e-07
-2.30291e-07
-3.87644e-07
-2.8074e-07
-2.93372e-07
-2.99346e-07
-1.99935e-07
-2.84325e-07
-1.16761e-07
-2.38528e-07
-5.22138e-08
-1.6977e-07
-1.24397e-08
-9.07915e-08
-1.98263e-08
-1.98506e-08
4.4363e-08
-7.9202e-08
1.6131e-07
-1.71757e-07
2.75985e-07
-2.87329e-07
3.66322e-07
-4.13734e-07
4.18478e-07
-5.38212e-07
4.25314e-07
-6.48675e-07
3.85934e-07
-7.34726e-07
3.04963e-07
-7.88458e-07
1.91484e-07
-8.0502e-07
5.78342e-08
-7.82953e-07
-8.17177e-08
-7.24304e-07
-2.12349e-07
-6.34489e-07
-3.20106e-07
-5.21912e-07
-3.93317e-07
-3.97317e-07
-4.23941e-07
-2.72871e-07
-4.0877e-07
-1.61003e-07
-3.50397e-07
-7.30623e-08
-2.5771e-07
-1.78753e-08
-1.45978e-07
-3.77016e-08
-2.75674e-08
7.19304e-08
-1.07812e-07
2.41554e-07
-2.31104e-07
3.99277e-07
-3.83433e-07
5.18651e-07
-5.48725e-07
5.8377e-07
-7.10554e-07
5.87143e-07
-8.53595e-07
5.28975e-07
-9.64794e-07
4.16162e-07
-1.03427e-06
2.60963e-07
-1.05596e-06
7.95203e-08
-1.02798e-06
-1.09699e-07
-9.5279e-07
-2.87536e-07
-8.37069e-07
-4.35827e-07
-6.91287e-07
-5.391e-07
-5.28985e-07
-5.86242e-07
-3.65716e-07
-5.7204e-07
-2.17653e-07
-4.98459e-07
-9.99568e-08
-3.75407e-07
-2.49671e-08
-2.20968e-07
-6.26688e-08
-3.74445e-08
1.09375e-07
-1.44007e-07
3.48117e-07
-3.05627e-07
5.60898e-07
-5.03432e-07
7.16456e-07
-7.16543e-07
7.9688e-07
-9.24101e-07
7.94701e-07
-1.10693e-06
7.118e-07
-1.24884e-06
5.58073e-07
-1.33763e-06
3.49761e-07
-1.3658e-06
1.07686e-07
-1.33093e-06
-1.44571e-07
-1.23591e-06
-3.82556e-07
-1.08883e-06
-5.82909e-07
-9.02549e-07
-7.25378e-07
-6.9393e-07
-7.94861e-07
-4.82614e-07
-7.83356e-07
-2.89399e-07
-6.91674e-07
-1.34262e-07
-5.30544e-07
-3.41085e-08
-3.21121e-07
-9.67776e-08
-4.99109e-08
1.59286e-07
-1.89187e-07
4.87393e-07
-3.97979e-07
7.69689e-07
-6.5131e-07
9.69788e-07
-9.22447e-07
1.06802e-06
-1.18525e-06
1.0575e-06
-1.41602e-06
9.42573e-07
-1.59496e-06
7.37016e-07
-1.7072e-06
4.62e-07
-1.74352e-06
1.44008e-07
-1.70085e-06
-1.87242e-07
-1.58248e-06
-5.00928e-07
-1.39803e-06
-7.6736e-07
-1.16306e-06
-9.60343e-07
-8.98287e-07
-1.05964e-06
-6.28217e-07
-1.05343e-06
-3.79305e-07
-9.40586e-07
-1.77557e-07
-7.32292e-07
-4.57632e-08
-4.52916e-07
-1.42541e-07
-6.54295e-08
2.24715e-07
-2.44829e-07
6.66793e-07
-5.10895e-07
1.03576e-06
-8.31097e-07
1.28999e-06
-1.17165e-06
1.40857e-06
-1.50023e-06
1.38608e-06
-1.78796e-06
1.2303e-06
-2.01094e-06
9.59994e-07
-2.15127e-06
6.02333e-07
-2.1978e-06
1.90541e-07
-2.14662e-06
-2.38428e-07
-2.00133e-06
-6.46219e-07
-1.77314e-06
-9.95552e-07
-1.48055e-06
-1.25292e-06
-1.14865e-06
-1.39154e-06
-8.07645e-07
-1.39443e-06
-4.90813e-07
-1.25742e-06
-2.31653e-07
-9.91452e-07
-6.04724e-08
-6.24096e-07
-2.03013e-07
-8.44828e-08
3.09198e-07
-3.12425e-07
8.94735e-07
-6.47064e-07
1.37039e-06
-1.04662e-06
1.68955e-06
-1.46897e-06
1.83092e-06
-1.87463e-06
1.79174e-06
-2.22892e-06
1.5846e-06
-2.50344e-06
1.23451e-06
-2.67697e-06
7.75865e-07
-2.73619e-06
2.49766e-07
-2.67615e-06
-2.98474e-07
-2.5006e-06
-8.21766e-07
-2.22227e-06
-1.27388e-06
-1.86273e-06
-1.61246e-06
-1.45184e-06
-1.80243e-06
-1.02637e-06
-1.8199e-06
-6.27717e-07
-1.65608e-06
-2.98593e-07
-1.32058e-06
-7.88625e-08
-8.43826e-07
-2.81876e-07
-1.07555e-07
4.16753e-07
-3.93409e-07
1.18059e-06
-8.08946e-07
1.78593e-06
-1.3012e-06
2.1818e-06
-1.81827e-06
2.34799e-06
-2.31263e-06
2.28609e-06
-2.74326e-06
2.01523e-06
-3.07696e-06
1.56821e-06
-3.28906e-06
9.87964e-07
-3.3639e-06
3.24604e-07
-3.29525e-06
-3.67129e-07
-3.08675e-06
-1.03027e-06
-2.75238e-06
-1.60825e-06
-2.31669e-06
-2.04815e-06
-1.81456e-06
-2.30456e-06
-1.29007e-06
-2.34439e-06
-7.94114e-07
-2.15203e-06
-3.80665e-07
-1.73403e-06
-1.01655e-07
-1.12284e-06
-3.83531e-07
-1.35112e-07
5.51865e-07
-4.89077e-07
1.53455e-06
-9.98569e-07
2.29542e-06
-1.59722e-06
2.78045e-06
-2.22187e-06
2.97264e-06
-2.81612e-06
2.88035e-06
-3.33231e-06
2.53142e-06
-3.73243e-06
1.96832e-06
-3.98838e-06
1.24392e-06
-4.08215e-06
4.18371e-07
-4.00601e-06
-4.43273e-07
-3.76307e-06
-1.27321e-06
-3.36804e-06
-2.00328e-06
-2.84801e-06
-2.56818e-06
-2.24279e-06
-2.90978e-06
-1.60429e-06
-2.98289e-06
-9.94308e-07
-2.76201e-06
-4.80399e-07
-2.24793e-06
-1.29684e-07
-1.47355e-06
-5.13215e-07
-1.67589e-07
7.19455e-07
-6.00504e-07
1.96747e-06
-1.2173e-06
2.91222e-06
-1.93566e-06
3.49881e-06
-2.67967e-06
3.71666e-06
-3.38348e-06
3.58415e-06
-3.99282e-06
3.14076e-06
-4.46524e-06
2.44075e-06
-4.76967e-06
1.54834e-06
-4.8859e-06
5.34602e-07
-4.80455e-06
-5.24617e-07
-4.52763e-06
-1.55013e-06
-4.06971e-06
-2.4612e-06
-3.45945e-06
-3.17843e-06
-2.74095e-06
-3.62828e-06
-1.97404e-06
-3.7498e-06
-1.23266e-06
-3.50339e-06
-6.00564e-07
-2.88003e-06
-1.63915e-07
-1.9102e-06
-6.77129e-07
-2.05392e-07
9.24847e-07
-7.285e-07
2.49058e-06
-1.46562e-06
3.64934e-06
-2.31559e-06
4.34879e-06
-3.18827e-06
4.58933e-06
-4.00812e-06
4.404e-06
-4.71494e-06
3.84758e-06
-5.26286e-06
2.98866e-06
-5.61876e-06
1.90424e-06
-5.76084e-06
6.76685e-07
-5.67803e-06
-6.07428e-07
-5.37049e-06
-1.85767e-06
-4.8513e-06
-2.98039e-06
-4.14905e-06
-3.88068e-06
-3.31062e-06
-4.46671e-06
-2.40308e-06
-4.65734e-06
-1.51335e-06
-4.39312e-06
-7.44162e-07
-3.64922e-06
-2.05479e-07
-2.44888e-06
-8.82608e-07
-2.4894e-07
1.17379e-06
-8.73657e-07
3.11529e-06
-1.74301e-06
4.51869e-06
-2.7336e-06
5.33938e-06
-3.73975e-06
5.59548e-06
-4.6767e-06
5.34095e-06
-5.4798e-06
4.65068e-06
-6.10173e-06
3.61059e-06
-6.50907e-06
2.31159e-06
-6.67957e-06
8.47187e-07
-6.60067e-06
-6.86331e-07
-6.26983e-06
-2.18851e-06
-5.69678e-06
-3.55344e-06
-4.90741e-06
-4.67005e-06
-3.94867e-06
-5.42546e-06
-2.89293e-06
-5.71308e-06
-1.84002e-06
-5.44603e-06
-9.14427e-07
-4.57481e-06
-2.55731e-07
-3.10758e-06
-1.13834e-06
-2.98793e-07
1.47258e-06
-1.03654e-06
3.85304e-06
-2.04791e-06
5.53007e-06
-3.18323e-06
6.4747e-06
-4.32038e-06
6.73263e-06
-5.36685e-06
6.38742e-06
-6.2564e-06
5.54023e-06
-6.94345e-06
4.29764e-06
-7.39716e-06
2.76529e-06
-7.59671e-06
1.04674e-06
-7.52871e-06
-7.54337e-07
-7.18703e-06
-2.53019e-06
-6.57562e-06
-4.16485e-06
-5.71394e-06
-5.53173e-06
-4.64455e-06
-6.49484e-06
-3.4413e-06
-6.91633e-06
-2.21524e-06
-6.67209e-06
-1.11485e-06
-5.67521e-06
-3.16363e-07
-3.90606e-06
-1.4547e-06
-3.55923e-07
1.8285e-06
-1.21814e-06
4.71525e-06
-2.37787e-06
6.6898e-06
-3.65433e-06
7.75115e-06
-4.90886e-06
7.98717e-06
-6.04438e-06
7.52293e-06
-6.99777e-06
6.49363e-06
-7.73011e-06
5.02998e-06
-8.21734e-06
3.25252e-06
-8.44303e-06
1.27243e-06
-8.39416e-06
-8.03206e-07
-8.06032e-06
-2.86402e-06
-7.43678e-06
-4.7884e-06
-6.53156e-06
-6.43695e-06
-5.37634e-06
-7.65006e-06
-4.03973e-06
-8.25294e-06
-2.63961e-06
-8.07221e-06
-1.34921e-06
-6.96561e-06
-3.89617e-07
-4.86566e-06
-1.84432e-06
-4.22259e-07
2.25076e-06
-1.42072e-06
5.71371e-06
-2.7298e-06
7.99889e-06
-4.13205e-06
9.1534e-06
-5.47389e-06
9.32901e-06
-6.65947e-06
8.70851e-06
-7.63613e-06
7.47029e-06
-8.37864e-06
5.7725e-06
-8.87547e-06
3.74935e-06
-9.11861e-06
1.51557e-06
-9.09748e-06
-8.24338e-07
-8.79708e-06
-3.16442e-06
-8.20095e-06
-5.38452e-06
-7.29963e-06
-7.33828e-06
-6.10497e-06
-8.84472e-06
-4.66993e-06
-9.68797e-06
-3.11036e-06
-9.63178e-06
-1.62173e-06
-8.45424e-06
-4.78685e-07
-6.00871e-06
-2.323e-06
-5.01687e-07
2.75245e-06
-1.6491e-06
6.86113e-06
-3.1001e-06
9.44989e-06
-4.59489e-06
1.06482e-05
-5.97007e-06
1.07042e-05
-7.14108e-06
9.87952e-06
-8.07648e-06
8.40569e-06
-8.77404e-06
6.47006e-06
-9.24193e-06
4.21723e-06
-9.48555e-06
1.75919e-06
-9.49959e-06
-8.10292e-07
-9.26498e-06
-3.39903e-06
-8.75105e-06
-5.89845e-06
-7.92436e-06
-8.16497e-06
-6.7659e-06
-1.00032e-05
-5.29793e-06
-1.11559e-05
-3.61873e-06
-1.1311e-05
-1.9371e-06
-1.01359e-05
-5.88483e-07
-7.35732e-06
-2.91149e-06
-6.0182e-07
3.35427e-06
-1.91233e-06
8.17164e-06
-3.4835e-06
1.10211e-05
-5.00993e-06
1.21746e-05
-6.33045e-06
1.20247e-05
-7.38821e-06
1.09373e-05
-8.18782e-06
9.20529e-06
-8.76129e-06
7.04353e-06
-9.14426e-06
4.60021e-06
-9.36074e-06
1.97567e-06
-9.41411e-06
-7.5692e-07
-9.28288e-06
-3.53026e-06
-8.92126e-06
-6.26007e-06
-8.26653e-06
-8.8197e-06
-7.25691e-06
-1.10128e-05
-5.86441e-06
-1.25484e-05
-4.14496e-06
-1.30304e-05
-2.30013e-06
-1.19807e-05
-7.27031e-07
-8.93043e-06
-3.63852e-06
-7.36971e-07
4.09124e-06
-2.22476e-06
9.65942e-06
-3.86808e-06
1.26644e-05
-5.32187e-06
1.36284e-05
-6.45221e-06
1.31551e-05
-7.25537e-06
1.17404e-05
-7.79069e-06
9.74062e-06
-8.13589e-06
7.38873e-06
-8.36039e-06
4.82471e-06
-8.51063e-06
2.12591e-06
-8.60179e-06
-6.65762e-07
-8.61304e-06
-3.51901e-06
-8.48563e-06
-6.38748e-06
-8.12608e-06
-9.17925e-06
-7.42042e-06
-1.17185e-05
-6.26839e-06
-1.37005e-05
-4.64801e-06
-1.46508e-05
-2.71374e-06
-1.3915e-05
-9.07722e-07
-1.07364e-05
-4.54624e-06
-9.32546e-07
5.02379e-06
-2.60347e-06
1.13303e-05
-4.21991e-06
1.42808e-05
-5.42834e-06
1.48368e-05
-6.16958e-06
1.38963e-05
-6.52878e-06
1.20996e-05
-6.6397e-06
9.85154e-06
-6.63326e-06
7.38229e-06
-6.61387e-06
4.80533e-06
-6.65e-06
2.16204e-06
-6.7699e-06
-5.45865e-07
-6.95771e-06
-3.33119e-06
-7.14854e-06
-6.19666e-06
-7.2244e-06
-9.10339e-06
-7.01817e-06
-1.19247e-05
-6.33934e-06
-1.43793e-05
-5.04386e-06
-1.59463e-05
-3.17109e-06
-1.57877e-05
-1.15221e-06
-1.27553e-05
-5.69846e-06
-1.22864e-06
6.25243e-06
-3.05137e-06
1.31531e-05
-4.44165e-06
1.56711e-05
-5.12749e-06
1.55227e-05
-5.20461e-06
1.39734e-05
-4.88888e-06
1.17839e-05
-4.4004e-06
9.36306e-06
-3.91901e-06
6.9009e-06
-3.57443e-06
4.46075e-06
-3.44899e-06
2.0366e-06
-3.58124e-06
-4.13615e-07
-3.96493e-06
-2.9475e-06
-4.54151e-06
-5.62009e-06
-5.18665e-06
-8.45825e-06
-5.69647e-06
-1.14149e-05
-5.78964e-06
-1.42861e-05
-5.15941e-06
-1.65765e-05
-3.63011e-06
-1.7317e-05
-1.48998e-06
-1.48954e-05
-7.18844e-06
-1.66857e-06
7.921e-06
-3.49269e-06
1.49772e-05
-4.27071e-06
1.64491e-05
-4.01443e-06
1.52664e-05
-3.08573e-06
1.30447e-05
-1.85855e-06
1.05567e-05
-6.24962e-07
8.12947e-06
4.14115e-07
5.86182e-06
1.13019e-06
3.74467e-06
1.44594e-06
1.72086e-06
1.32122e-06
-2.88904e-07
7.49484e-07
-2.37576e-06
-2.34131e-07
-4.63647e-06
-1.53089e-06
-7.16148e-06
-2.94328e-06
-1.00025e-05
-4.13689e-06
-1.30925e-05
-4.63619e-06
-1.60772e-05
-3.9376e-06
-1.80156e-05
-1.93654e-06
-1.68965e-05
-9.12498e-06
-2.22827e-06
1.01493e-05
-3.57882e-06
1.63277e-05
-3.05073e-06
1.5921e-05
-1.29606e-06
1.35117e-05
9.68841e-07
1.07798e-05
3.2517e-06
8.27386e-06
5.25839e-06
6.12278e-06
6.82898e-06
4.29123e-06
7.88087e-06
2.69278e-06
8.36978e-06
1.23195e-06
8.26802e-06
-1.87146e-07
7.55663e-06
-1.66437e-06
6.23087e-06
-3.31072e-06
4.32355e-06
-5.25416e-06
1.95431e-06
-7.63327e-06
-5.88219e-07
-1.055e-05
-2.7452e-06
-1.39202e-05
-3.63844e-06
-1.71224e-05
-2.4047e-06
-1.81302e-05
-1.15297e-05
-2.57357e-06
1.27228e-05
-2.17906e-06
1.59332e-05
7.3155e-07
1.30104e-05
4.4966e-06
9.74665e-06
8.17709e-06
7.09934e-06
1.13636e-05
5.08734e-06
1.3909e-05
3.57743e-06
1.57836e-05
2.41655e-06
1.69993e-05
1.47716e-06
1.75698e-05
6.61426e-07
1.74932e-05
-1.10565e-07
1.67437e-05
-9.14865e-07
1.52714e-05
-1.83843e-06
1.30141e-05
-2.99687e-06
9.93519e-06
-4.55433e-06
6.11617e-06
-6.73097e-06
1.94719e-06
-9.75125e-06
-1.54196e-06
-1.36332e-05
-2.45316e-06
-1.72191e-05
-1.39828e-05
-7.86189e-07
1.3509e-05
4.08036e-06
1.10667e-05
1.03014e-05
6.7894e-06
1.58053e-05
4.2427e-06
2.01804e-05
2.72431e-06
2.34926e-05
1.77517e-06
2.59075e-05
1.16246e-06
2.75792e-05
7.44833e-07
2.86204e-05
4.36028e-07
2.90982e-05
1.83568e-07
2.90359e-05
-4.82011e-08
2.84105e-05
-2.89507e-07
2.71481e-05
-5.76027e-07
2.51127e-05
-9.61496e-07
2.20984e-05
-1.53999e-06
1.78498e-05
-2.48239e-06
1.21942e-05
-4.09565e-06
5.4885e-06
-6.92752e-06
-1.26193e-07
-1.16044e-05
-1.4109e-05
1.3509e-05
2.45757e-05
3.13651e-05
3.56078e-05
3.83321e-05
4.01073e-05
4.12697e-05
4.20146e-05
4.24506e-05
4.26342e-05
4.2586e-05
4.22965e-05
4.17204e-05
4.07589e-05
3.92189e-05
3.67366e-05
3.26409e-05
2.57134e-05
1.4109e-05
)
;

boundaryField
{
    movingWall
    {
        type            calculated;
        value           uniform 0;
    }
    fixedWalls
    {
        type            calculated;
        value           uniform 0;
    }
    frontAndBack
    {
        type            empty;
        value           nonuniform List<scalar> 0();
    }
}


// ************************************************************************* //
