/*--------------------------------*- C++ -*----------------------------------*\
  =========                 |
  \\      /  F ield         | OpenFOAM: The Open Source CFD Toolbox
   \\    /   O peration     | Website:  https://openfoam.org
    \\  /    A nd           | Version:  8
     \\/     M anipulation  |
\*---------------------------------------------------------------------------*/
FoamFile
{
    version     2.0;
    format      ascii;
    class       volScalarField;
    location    "0.46";
    object      nut;
}
// * * * * * * * * * * * * * * * * * * * * * * * * * * * * * * * * * * * * * //

dimensions      [0 2 -1 0 0 0 0];

internalField   nonuniform List<scalar> 
15677
(
0.000168164
0.000652167
0.000148206
0.00151211
0.000443128
0.000141309
0.0026721
0.000878263
0.00038108
0.000142213
0.00391636
0.00152281
0.00068737
0.000354348
0.000145362
0.00501907
0.00236053
0.00114805
0.000586077
0.000340316
0.000151156
0.00583677
0.00332128
0.00178301
0.000948685
0.000529528
0.000332039
0.000156963
0.0063334
0.00430124
0.00256997
0.00146461
0.000821392
0.000492582
0.000326979
0.00016241
0.00656228
0.0051883
0.00345482
0.00213304
0.00125795
0.000737436
0.000467457
0.000324087
0.00016718
0.00665821
0.00589329
0.00435651
0.00292343
0.00184235
0.00111255
0.000677385
0.000450406
0.000322497
0.000171397
0.00670541
0.00633806
0.0051813
0.00377989
0.00255766
0.00163203
0.00100456
0.000634017
0.00043862
0.000321929
0.000174948
0.00671436
0.00655333
0.00584533
0.00462572
0.00336316
0.00228662
0.00147248
0.000923999
0.000602033
0.000430679
0.000321854
0.000178069
0.0067099
0.00666147
0.00629548
0.00537715
0.00419698
0.00304516
0.00207738
0.00134859
0.000861885
0.000578408
0.000425192
0.000322325
0.000180673
0.00670626
0.00669874
0.00652943
0.00596424
0.00498388
0.00385687
0.002795
0.00191099
0.00125058
0.000813719
0.000560634
0.000421711
0.000322942
0.000182994
0.00670536
0.00670438
0.00664671
0.0063566
0.00564957
0.00465514
0.00358227
0.00259246
0.00177673
0.00117224
0.000775861
0.000547473
0.000419338
0.000323851
0.000185022
0.00670539
0.00670288
0.00668782
0.00656269
0.00614159
0.0053676
0.00437997
0.00335548
0.00242634
0.00166685
0.00110869
0.000746095
0.000537368
0.000418123
0.00032469
0.000186815
0.00670553
0.00670167
0.00669634
0.00665643
0.00644641
0.00593282
0.00511958
0.00414687
0.00316646
0.00228815
0.0015763
0.00105698
0.000722383
0.000530103
0.000417245
0.000325727
0.000188461
0.0067056
0.00670122
0.00669708
0.00668483
0.00660461
0.00632108
0.00573614
0.00490199
0.00394863
0.00300703
0.00217268
0.00150112
0.00101495
0.0007039
0.000524384
0.000417115
0.000326654
0.000189857
0.0067056
0.00670113
0.00669669
0.00669161
0.00666357
0.0065408
0.0061872
0.00555515
0.00471198
0.00377875
0.00287214
0.00207557
0.00143874
0.000980858
0.000689002
0.000520509
0.000417039
0.000327719
0.000191275
0.00670558
0.00670115
0.0066964
0.00669268
0.00668221
0.00663426
0.00646709
0.00605648
0.00539149
0.00454575
0.0036331
0.00275748
0.00199401
0.00138713
0.000952939
0.00067762
0.000517384
0.00041754
0.000328687
0.000192376
0.00670556
0.00670119
0.00669627
0.00669263
0.00668723
0.00666894
0.00659757
0.00638838
0.00593297
0.00524423
0.00440091
0.00350794
0.00266023
0.0019257
0.00134441
0.000930597
0.000668436
0.000515622
0.000417937
0.000329738
0.00019369
0.00670554
0.00670121
0.00669621
0.00669251
0.00668818
0.00668066
0.00665112
0.00655545
0.00630956
0.00581742
0.00511325
0.00427473
0.00340083
0.00257804
0.00186876
0.00130954
0.000912555
0.000661816
0.000514145
0.000418818
0.000330755
0.000194562
0.00670553
0.00670122
0.00669617
0.00669247
0.00668818
0.00668409
0.0066715
0.0066299
0.00651034
0.00623133
0.00571192
0.00499702
0.0041657
0.00330962
0.00250919
0.0018219
0.00128129
0.000898606
0.000656524
0.000513786
0.000419517
0.00033177
0.000195863
0.00670553
0.00670123
0.00669615
0.00669246
0.00668804
0.00668491
0.00667838
0.00666111
0.00660546
0.00646378
0.00615808
0.005616
0.00489551
0.00407212
0.00323285
0.00245221
0.00178385
0.00125898
0.000887792
0.00065332
0.00051343
0.000420652
0.000332895
0.000196567
0.00670554
0.00670123
0.00669614
0.00669246
0.00668795
0.00668504
0.00668035
0.00667309
0.00664798
0.00657973
0.00641791
0.00608942
0.00553124
0.00480734
0.00399285
0.00316904
0.00240603
0.00175394
0.00124204
0.00088021
0.000650789
0.000514056
0.000421539
0.000333787
0.000197867
0.00670554
0.00670122
0.00669613
0.00669245
0.00668789
0.00668501
0.00668074
0.00667727
0.00666538
0.00663484
0.00655295
0.00637371
0.00602763
0.00545604
0.00473222
0.00392712
0.00311781
0.00236992
0.00173128
0.00122949
0.000874774
0.000650146
0.0005145
0.000422927
0.000335204
0.000198544
0.00670555
0.00670121
0.00669613
0.00669244
0.00668786
0.00668497
0.00668072
0.00667857
0.00667182
0.00665924
0.00661962
0.00652693
0.00633346
0.00597106
0.00539257
0.00467057
0.00387438
0.0030772
0.00234232
0.00171498
0.00122177
0.000872425
0.00064973
0.000515892
0.000423815
0.000335946
5.33071e-05
0.00670556
0.0067012
0.00669613
0.00669242
0.00668784
0.00668493
0.00668065
0.00667888
0.0066739
0.00666929
0.00665008
0.00660625
0.00650278
0.00629612
0.00592529
0.0053396
0.0046194
0.0038323
0.00304805
0.00232499
0.00170662
0.00121823
0.000871385
0.00065112
0.00051694
0.000426233
0.000283265
6.32109e-05
0.00670557
0.00670119
0.00669614
0.00669241
0.00668783
0.00668489
0.00668059
0.00667889
0.00667444
0.00667309
0.00666291
0.00664482
0.00659203
0.00648025
0.0062661
0.0058832
0.00529653
0.00458428
0.00380751
0.0030318
0.00231571
0.00170285
0.00121717
0.000873019
0.000652618
0.000519027
0.000419657
0.000219129
7.05159e-05
0.00670557
0.00670118
0.00669614
0.0066924
0.00668783
0.00668486
0.00668055
0.00667882
0.00667449
0.00667435
0.00666787
0.0066624
0.00663582
0.00658181
0.00646426
0.006237
0.00585777
0.00527236
0.00456194
0.0037904
0.00302192
0.00231213
0.0017035
0.00122033
0.000875744
0.000654861
0.000520157
0.00039966
0.000177816
7.5888e-05
0.00670558
0.00670117
0.00669615
0.00669238
0.00668782
0.00668483
0.00668052
0.00667875
0.00667444
0.00667463
0.00666957
0.00666985
0.00665588
0.00663462
0.00657246
0.00644744
0.00622827
0.00584134
0.00525366
0.00454703
0.00378207
0.00302008
0.00231555
0.00170992
0.00122625
0.000880017
0.000657931
0.000517918
0.000366832
0.000152427
8.02205e-05
0.00670559
0.00670116
0.00669615
0.00669237
0.00668782
0.00668481
0.0066805
0.00667867
0.00667439
0.0066746
0.00667003
0.00667269
0.00666447
0.00666041
0.00662821
0.0065698
0.00644612
0.00622094
0.00583069
0.00524393
0.004544
0.00378597
0.00302946
0.00232698
0.00172113
0.00123499
0.000885915
0.000660858
0.000511738
0.000335642
0.000134157
8.35407e-05
0.0067056
0.00670116
0.00669616
0.00669236
0.00668782
0.00668478
0.00668049
0.00667861
0.00667434
0.0066745
0.0066701
0.00667352
0.00666788
0.00667216
0.00665533
0.00663617
0.00657236
0.00644826
0.00621876
0.00583119
0.00525039
0.00455562
0.00380207
0.00304772
0.00234496
0.00173658
0.0012466
0.000892896
0.000663258
0.000500235
0.000305545
0.000121262
8.58836e-05
0.00670561
0.00670115
0.00669616
0.00669235
0.00668782
0.00668476
0.00668048
0.00667856
0.0066743
0.00667438
0.00667007
0.00667364
0.00666906
0.00667706
0.00666776
0.00667012
0.00664147
0.00658027
0.00645591
0.00623031
0.00584767
0.00527045
0.00457984
0.0038288
0.00307452
0.00236925
0.00175599
0.00126047
0.000900946
0.000664309
0.00048474
0.000279546
0.000112811
8.76062e-05
0.00670561
0.00670114
0.00669617
0.00669234
0.00668782
0.00668474
0.00668047
0.00667851
0.00667427
0.00667426
0.00667001
0.00667353
0.00666939
0.00667869
0.0066732
0.00668655
0.00667724
0.00665339
0.00659658
0.00647677
0.00625604
0.00587749
0.00530426
0.00461636
0.00386613
0.00310965
0.0023993
0.00177909
0.00127684
0.00090968
0.000664195
0.000467787
0.000259759
0.00010708
8.89331e-05
0.00670113
0.00670562
0.00669617
0.00669233
0.00668782
0.00668472
0.00668047
0.00667846
0.00667425
0.00667416
0.00666995
0.00667336
0.00666945
0.00667906
0.00667544
0.00669399
0.00669479
0.00669184
0.00667582
0.00662424
0.00651019
0.00629524
0.005922
0.00535179
0.00466547
0.00391369
0.00315258
0.00243507
0.00180558
0.00129486
0.000919875
0.000662722
0.000452588
0.000244589
0.000103064
9.00036e-05
0.00669617
0.00670114
0.00670564
0.00669232
0.00668783
0.00668471
0.00668047
0.00667842
0.00667424
0.00667407
0.0066699
0.00667319
0.00666941
0.006679
0.00667626
0.00669683
0.00670294
0.00671114
0.00671817
0.00670837
0.00666425
0.0065576
0.00634972
0.00598113
0.0054135
0.00472664
0.00397133
0.00320328
0.00247585
0.00183533
0.00131749
0.000932077
0.000660754
0.000439651
0.000232767
0.000100214
9.09049e-05
0.00669231
0.0066962
0.00670116
0.00670567
0.00668783
0.00668469
0.00668047
0.00667839
0.00667423
0.00667399
0.00666987
0.00667303
0.00666935
0.00667882
0.00667653
0.00669783
0.00670635
0.00672043
0.00674003
0.00675472
0.00675362
0.00671833
0.00662071
0.00642045
0.00605667
0.00548977
0.00480042
0.00403867
0.00326083
0.00252171
0.00187139
0.00134453
0.000944978
0.00065921
0.000428806
0.000223433
9.81373e-05
9.16892e-05
0.00668783
0.00669234
0.00669626
0.00670117
0.00670569
0.00668468
0.00668047
0.00667835
0.00667423
0.00667391
0.00666984
0.00667288
0.00666928
0.0066786
0.0066766
0.00669814
0.00670771
0.00672464
0.00675109
0.00677951
0.00680397
0.00681306
0.00678853
0.00670046
0.00650853
0.00614817
0.00558087
0.00488555
0.00411503
0.00332538
0.00257735
0.00191578
0.00137286
0.000958435
0.000658284
0.000419897
0.000215925
9.66338e-05
9.23905e-05
0.00668466
0.00668788
0.00669239
0.00669632
0.00670119
0.00670571
0.00668048
0.00667832
0.00667424
0.00667384
0.00666982
0.00667275
0.00666923
0.00667838
0.00667659
0.00669817
0.00670825
0.00672655
0.00675652
0.00679269
0.00683175
0.00686722
0.00688873
0.00687569
0.00679834
0.00661377
0.00625618
0.00568663
0.00498306
0.00420042
0.0034035
0.00264528
0.0019636
0.00140234
0.000972629
0.000658232
0.000412453
0.00020981
9.55127e-05
9.30276e-05
0.00668048
0.00668469
0.00668797
0.00669244
0.00669638
0.00670121
0.00670573
0.00667829
0.00667424
0.00667377
0.00666982
0.00667263
0.00666918
0.00667819
0.00667657
0.00669811
0.00670847
0.0067275
0.00675935
0.00679981
0.00684797
0.00689956
0.00694925
0.00698268
0.00698079
0.00691344
0.00673625
0.00637991
0.00580619
0.00509161
0.00430374
0.00349884
0.00271809
0.00201414
0.00143276
0.000987155
0.000658925
0.000406333
0.000204745
9.47014e-05
9.36153e-05
0.00667826
0.00668054
0.00668477
0.00668806
0.0066925
0.00669644
0.00670123
0.00670576
0.00667425
0.0066737
0.00666982
0.00667251
0.00666915
0.00667801
0.00667655
0.00669801
0.00670856
0.00672804
0.006761
0.00680394
0.00685752
0.00691927
0.00698692
0.0070509
0.0070992
0.00710746
0.00704678
0.00687484
0.00651847
0.00593775
0.00522469
0.00443044
0.00360077
0.00279501
0.00206672
0.00146397
0.00100254
0.000660656
0.000401268
0.000200435
9.40841e-05
9.41591e-05
0.00667426
0.00667828
0.00668066
0.00668485
0.00668816
0.00669256
0.00669651
0.00670125
0.00670578
0.00667364
0.00666984
0.0066724
0.00666912
0.00667787
0.00667652
0.0066979
0.0067086
0.00672842
0.00676213
0.00680671
0.00686373
0.00693194
0.00701171
0.00709519
0.00717618
0.00723766
0.00725794
0.00720189
0.00702802
0.00666972
0.00609688
0.00538467
0.00456673
0.00370878
0.00287493
0.00212093
0.00149552
0.00101763
0.000663323
0.00039714
0.000196798
9.36506e-05
9.46675e-05
0.00667358
0.00667434
0.00667835
0.00668078
0.00668492
0.00668826
0.00669261
0.00669658
0.00670127
0.0067058
0.00666986
0.0066723
0.00666912
0.00667774
0.00667649
0.00669781
0.00670863
0.0067287
0.00676301
0.00680884
0.00686833
0.00694093
0.00702927
0.00712657
0.0072294
0.00732567
0.00740149
0.00743058
0.00737957
0.00720114
0.00684921
0.00628486
0.00555372
0.00471
0.00382169
0.00295725
0.00217611
0.00152767
0.0010326
0.000666282
0.000393809
0.00019363
9.33148e-05
9.51406e-05
0.00666988
0.00667357
0.00667447
0.00667843
0.00668091
0.006685
0.00668836
0.00669267
0.00669665
0.00670129
0.00670583
0.00667219
0.00666913
0.00667762
0.00667645
0.00669773
0.00670865
0.00672895
0.00676374
0.00681063
0.00687205
0.00694807
0.00704285
0.00715053
0.0072701
0.00739031
0.00750375
0.00759057
0.00762702
0.00757724
0.00741478
0.00706856
0.00648266
0.00572969
0.00485699
0.00393691
0.00304098
0.00223182
0.00156003
0.00104745
0.000669671
0.00039108
0.00019092
9.30976e-05
9.55853e-05
0.00667209
0.00666995
0.00667359
0.00667461
0.0066785
0.00668105
0.00668508
0.00668847
0.00669273
0.00669672
0.00670132
0.00670585
0.00666916
0.0066775
0.00667641
0.00669768
0.00670867
0.00672917
0.00676438
0.00681219
0.00687522
0.0069542
0.00705425
0.00717008
0.00730361
0.0074432
0.00758366
0.00771035
0.00780725
0.00784721
0.00781899
0.00767578
0.00730681
0.00668507
0.00590658
0.00500543
0.00405337
0.00312528
0.00228757
0.00159234
0.00106208
0.000673463
0.000388857
0.000188514
9.29255e-05
9.59986e-05
0.0066692
0.00667197
0.00667004
0.00667361
0.00667476
0.00667858
0.00668119
0.00668516
0.00668858
0.00669279
0.00669679
0.00670134
0.00670588
0.00667738
0.00667637
0.00669766
0.00670871
0.00672937
0.00676494
0.00681359
0.00687802
0.00695968
0.00706426
0.00718709
0.00733255
0.00748927
0.00765318
0.00780945
0.00794936
0.00805188
0.0081185
0.00811547
0.00795632
0.00756095
0.0068987
0.00608468
0.00515413
0.00416952
0.00320923
0.00234294
0.00162431
0.00107657
0.000677491
0.000387093
0.000186443
9.28361e-05
9.63882e-05
0.00667726
0.00666919
0.00667183
0.00667016
0.00667363
0.00667492
0.00667866
0.00668134
0.00668525
0.0066887
0.00669285
0.00669686
0.00670137
0.0067059
0.00667632
0.00669768
0.00670875
0.00672955
0.00676544
0.00681485
0.00688052
0.00696465
0.00707322
0.00720248
0.00735867
0.00753034
0.00771676
0.00790048
0.00807369
0.00822146
0.00835595
0.0084543
0.00843735
0.00825344
0.00782384
0.00711937
0.00626144
0.00530022
0.00428395
0.00329214
0.00239751
0.00165577
0.00109068
0.000681452
0.000385693
0.000184575
9.2762e-05
9.6749e-05
0.0066763
0.00667696
0.00666909
0.00667169
0.00667029
0.00667365
0.0066751
0.00667873
0.0066815
0.00668533
0.00668882
0.00669292
0.00669694
0.0067014
0.00670592
0.00669775
0.00670879
0.00672971
0.00676588
0.00681599
0.00688278
0.0069692
0.00708134
0.00721666
0.00738268
0.00756798
0.00777559
0.00798757
0.00819345
0.00837716
0.00856333
0.00873706
0.00882307
0.00878152
0.00856396
0.00809292
0.00734441
0.00643913
0.00544273
0.0043958
0.0033733
0.00245095
0.00168652
0.00110469
0.000685346
0.000384589
0.000182962
9.27493e-05
9.70898e-05
0.00669785
0.00667584
0.00667647
0.00666903
0.00667154
0.00667045
0.00667367
0.00667529
0.00667881
0.00668166
0.00668542
0.00668894
0.00669299
0.00669701
0.00670142
0.00670594
0.0067088
0.00672984
0.00676626
0.00681701
0.00688484
0.00697335
0.00708873
0.00722981
0.00740481
0.00760304
0.00783118
0.00807033
0.00831147
0.00853324
0.00876402
0.0089987
0.00916175
0.00922272
0.0091455
0.00888523
0.00836589
0.00756968
0.00661731
0.00558133
0.00450436
0.00345231
0.00250298
0.00171645
0.00111841
0.00068917
0.000383688
0.000181483
9.27346e-05
9.74038e-05
0.00670877
0.00669729
0.00667501
0.00667593
0.00666903
0.00667137
0.00667064
0.00667368
0.00667549
0.00667889
0.00668183
0.00668551
0.00668907
0.00669306
0.00669708
0.00670145
0.00670595
0.00672993
0.00676659
0.00681795
0.00688672
0.00697715
0.00709548
0.00724199
0.0074252
0.00763599
0.00788408
0.00814915
0.00842542
0.00869302
0.00897522
0.00926573
0.00949249
0.00963075
0.0096533
0.00952828
0.00921545
0.00864085
0.00779287
0.00679392
0.00571599
0.00460942
0.00352872
0.00255337
0.00174545
0.00113172
0.000692901
0.000382999
0.000180205
9.27679e-05
9.77013e-05
0.00673002
0.00670773
0.00669578
0.00667438
0.00667531
0.0066691
0.00667118
0.00667085
0.00667369
0.0066757
0.00667898
0.006682
0.00668561
0.00668919
0.00669313
0.00669715
0.00670148
0.00670597
0.00676688
0.00681881
0.00688845
0.00698063
0.00710166
0.00725325
0.00744399
0.00766703
0.00793416
0.00822411
0.00853627
0.0088539
0.00919939
0.00955758
0.00984749
0.0100539
0.0101519
0.010119
0.00993083
0.00955387
0.00891645
0.00801292
0.00696741
0.00584571
0.00470999
0.00360216
0.00260193
0.00177343
0.00114461
0.000696538
0.000382408
0.000179017
9.27889e-05
9.79738e-05
0.00676716
0.00672849
0.00670562
0.00669399
0.00667403
0.00667459
0.00666926
0.00667097
0.00667109
0.00667371
0.00667591
0.00667908
0.00668217
0.00668571
0.0066893
0.0066932
0.00669721
0.00670151
0.00670598
0.00681961
0.00689004
0.0069838
0.00710733
0.00726361
0.00746129
0.00769622
0.00798114
0.00829543
0.00864516
0.00901564
0.00942606
0.00987498
0.0102585
0.0105435
0.0107107
0.0107417
0.0106273
0.0103554
0.00990039
0.00919179
0.00822901
0.00713692
0.00597177
0.00480584
0.00367241
0.00264853
0.00180032
0.00115703
0.000700063
0.000381966
0.000177991
9.28487e-05
9.82327e-05
0.0068204
0.00676463
0.00672525
0.00670346
0.00669194
0.00667397
0.00667376
0.00666948
0.00667075
0.00667133
0.00667374
0.00667612
0.00667918
0.00668233
0.00668581
0.00668941
0.00669327
0.00669727
0.00670154
0.006706
0.0068915
0.00698669
0.00711251
0.0072731
0.00747723
0.00772351
0.00802492
0.00836354
0.00875205
0.00917567
0.00964973
0.0102113
0.0107501
0.0111686
0.0114167
0.0114972
0.0114157
0.011184
0.0108035
0.0102548
0.00946623
0.00844058
0.00730106
0.00609426
0.00489715
0.0037394
0.0026931
0.00182609
0.00116897
0.000703467
0.000381612
0.000177023
9.28912e-05
9.84396e-05
0.00689289
0.00681717
0.00675903
0.00672208
0.00670143
0.00668939
0.00667417
0.00667287
0.00666974
0.00667055
0.00667157
0.00667378
0.00667633
0.0066793
0.00668249
0.00668592
0.00668952
0.00669334
0.00669733
0.00670157
0.00670601
0.00698932
0.00711725
0.00728178
0.00749189
0.00774887
0.0080656
0.00842867
0.00885567
0.00933066
0.00987114
0.0105811
0.0113394
0.0119867
0.0123755
0.012502
0.0124231
0.0121747
0.0117878
0.0112737
0.0106162
0.00973905
0.00864713
0.00745924
0.00621255
0.00498404
0.00380309
0.00273558
0.0018507
0.0011804
0.000706746
0.00038133
0.000176191
9.29537e-05
9.8613e-05
0.00699174
0.00688828
0.00680952
0.00675348
0.00671913
0.0067001
0.00668654
0.00667452
0.00667196
0.00667001
0.00667038
0.00667181
0.00667386
0.00667652
0.00667942
0.00668263
0.00668602
0.00668961
0.00669341
0.00669738
0.0067016
0.00670602
0.00712155
0.00728968
0.00750536
0.00777228
0.00810337
0.0084907
0.00895446
0.00947926
0.0100971
0.011002
0.0120384
0.0129764
0.0136088
0.0138422
0.0137543
0.0134543
0.0129978
0.0124275
0.0117608
0.0109821
0.0100093
0.00884822
0.00761136
0.00632625
0.0050666
0.00386352
0.00277596
0.00187415
0.00119131
0.000709892
0.000381114
0.000175503
9.29963e-05
9.87995e-05
0.00712551
0.00698546
0.00687699
0.00680191
0.00674816
0.00671629
0.00669907
0.00668361
0.00667492
0.00667113
0.00667024
0.00667026
0.00667201
0.00667396
0.00667669
0.00667955
0.00668276
0.00668613
0.00668971
0.00669348
0.00669744
0.00670163
0.00670603
0.00729685
0.00751768
0.00779379
0.00813841
0.00854927
0.00904736
0.00962248
0.0103351
0.0114765
0.0128196
0.0140578
0.0149594
0.0154159
0.0154095
0.0150669
0.0145254
0.0138483
0.0130847
0.0122562
0.011349
0.0102757
0.00904343
0.00775736
0.00643514
0.00514495
0.00392073
0.00281426
0.00189643
0.00120171
0.000712905
0.00038096
0.000174962
9.30632e-05
9.9002e-05
0.00730334
0.00711702
0.00696929
0.00686568
0.00679444
0.00674297
0.00671366
0.00669816
0.00668078
0.00667522
0.00667043
0.0066704
0.00667022
0.00667218
0.00667409
0.00667685
0.00667968
0.00668289
0.00668623
0.0066898
0.00669354
0.00669749
0.00670165
0.00670604
0.00752892
0.00781347
0.00817083
0.00860403
0.00913416
0.00976237
0.0105875
0.0119879
0.0136247
0.0151218
0.0162533
0.0169383
0.0171532
0.0169065
0.0163295
0.0155681
0.0146866
0.013738
0.0127499
0.0117128
0.0105369
0.00923235
0.0078972
0.0065391
0.00521918
0.00397482
0.00285051
0.00191756
0.00121158
0.0007154
0.000380864
0.000174365
9.31246e-05
9.92208e-05
0.00753908
0.00729233
0.00709416
0.00695306
0.00685463
0.00678703
0.00673807
0.00671117
0.00669725
0.00667826
0.00667531
0.00666992
0.00667047
0.00667026
0.00667231
0.00667423
0.006677
0.00667982
0.00668301
0.00668634
0.00668988
0.00669361
0.00669754
0.00670167
0.00670604
0.00783141
0.00820071
0.00865475
0.00921529
0.00990043
0.0108507
0.0125096
0.0143948
0.0160804
0.0173709
0.0182299
0.0186614
0.0186602
0.0182247
0.0174669
0.0165311
0.0154796
0.0143683
0.013232
0.0120691
0.0107914
0.00941457
0.00803089
0.00663811
0.00528942
0.00402587
0.00288475
0.00193756
0.00121971
0.000717533
0.000380727
0.000173756
9.32177e-05
9.94591e-05
0.00784749
0.00752473
0.00726067
0.00707124
0.00693718
0.0068438
0.00677967
0.00673356
0.00670872
0.00669626
0.00667635
0.00667508
0.00666964
0.00667044
0.00667037
0.00667242
0.00667439
0.00667713
0.00667996
0.00668313
0.00668644
0.00668997
0.00669368
0.00669756
0.00670167
0.00670604
0.00822816
0.00870143
0.00929144
0.0100368
0.0111167
0.0130155
0.0150894
0.0168885
0.0182635
0.0192269
0.0198154
0.0200403
0.0198831
0.0193225
0.0184444
0.0173859
0.0162056
0.0149608
0.013694
0.0124138
0.0110375
0.00958972
0.00815843
0.00673219
0.00535579
0.00407398
0.00291707
0.00195397
0.00122663
0.000719899
0.000380632
0.00017311
9.33035e-05
9.97164e-05
0.00825274
0.00782951
0.00748123
0.00722887
0.0070488
0.00692165
0.00683316
0.00677231
0.00672926
0.00670621
0.00669477
0.00667523
0.00667454
0.00666957
0.00667035
0.00667051
0.00667251
0.00667455
0.00667726
0.0066801
0.00668324
0.00668654
0.00669005
0.00669371
0.00669756
0.00670167
0.00670604
0.00874425
0.00936322
0.0101704
0.0113768
0.0134867
0.0156892
0.0175373
0.0189343
0.0199385
0.0206174
0.0210026
0.021086
0.0208319
0.0202018
0.0192563
0.0181225
0.0168536
0.0155063
0.0141295
0.0127436
0.0112742
0.00975749
0.00827985
0.00682143
0.00541845
0.00411932
0.00294348
0.00196789
0.00123421
0.0007225
0.000380519
0.000172418
9.34295e-05
9.99968e-05
0.00878234
0.00823014
0.0077705
0.00743756
0.00719769
0.00702687
0.00690645
0.00682274
0.0067651
0.00672508
0.00670368
0.00669255
0.00667476
0.00667376
0.00666964
0.00667022
0.00667068
0.00667259
0.00667471
0.00667738
0.00668023
0.00668335
0.00668664
0.00669009
0.00669371
0.00669756
0.00670167
0.00670604
0.00943102
0.0102993
0.0116235
0.0139128
0.0161915
0.0180395
0.0194127
0.0204083
0.0211205
0.0215995
0.0218513
0.0218486
0.0215432
0.0208856
0.0199139
0.0187437
0.017421
0.0160002
0.0145347
0.0130559
0.0115003
0.00991762
0.00839523
0.00690593
0.00547751
0.00415622
0.00296583
0.00198311
0.00124254
0.00072541
0.000380417
0.000171721
9.3549e-05
0.000100299
0.00949265
0.00875442
0.00815021
0.00771122
0.00739469
0.00716716
0.00700542
0.00689161
0.00681262
0.00675798
0.00672111
0.00670121
0.00668965
0.00667477
0.00667289
0.00666979
0.0066701
0.00667085
0.00667268
0.00667487
0.0066775
0.00668036
0.00668345
0.00668669
0.00669009
0.00669371
0.00669756
0.00670167
0.00670604
0.0104221
0.0118559
0.0142905
0.0166033
0.0184173
0.0197359
0.0206885
0.0213902
0.0219079
0.0222613
0.0224336
0.0223845
0.0220598
0.0214039
0.0204359
0.0192591
0.0179111
0.0164419
0.0149075
0.0133493
0.011715
0.0100699
0.00850466
0.00698582
0.00552607
0.00418737
0.00299023
0.00199978
0.0012517
0.00072859
0.000380342
0.000170938
9.37183e-05
0.000100628
0.0105323
0.00945773
0.00864573
0.00807006
0.00765292
0.00735267
0.00713729
0.00698447
0.00687717
0.00680295
0.00675107
0.00671746
0.00669936
0.00668642
0.00667499
0.00667205
0.00666994
0.00667
0.00667101
0.00667278
0.00667503
0.00667763
0.00668049
0.00668351
0.00668669
0.00669009
0.00669371
0.00669756
0.00670167
0.00670603
0.0120747
0.0146183
0.0169361
0.0186942
0.0199398
0.0208271
0.0214875
0.0220018
0.0224025
0.0226838
0.0228133
0.0227442
0.0224215
0.0217867
0.0208431
0.0196812
0.0183298
0.0168331
0.0152476
0.0136228
0.0119179
0.0102144
0.00860828
0.00705119
0.00556731
0.00422129
0.00301686
0.00201805
0.00126177
0.000732188
0.000380243
0.000170186
9.38858e-05
0.00010098
0.0104922
0.01227
0.0092997
0.00853835
0.00799103
0.00759572
0.0073115
0.00710809
0.00696406
0.0068632
0.00679373
0.00674452
0.00671404
0.00669806
0.0066833
0.00667523
0.00667132
0.00667007
0.00666995
0.00667116
0.00667288
0.00667517
0.00667775
0.00668056
0.0066835
0.0066867
0.00669009
0.00669371
0.00669756
0.00670165
0.00670602
0.0148977
0.0172023
0.0188922
0.0200548
0.0208638
0.0214623
0.0219425
0.0223487
0.022686
0.0229305
0.0230408
0.0229689
0.022662
0.0220609
0.0211552
0.0200233
0.0186848
0.0171772
0.0155558
0.0138764
0.0121088
0.0103511
0.00869329
0.00710655
0.00561249
0.00425827
0.00304595
0.00203808
0.00127286
0.000736083
0.000380219
0.000169318
9.41134e-05
0.000101364
0.0102496
0.0122336
0.0151239
0.009148
0.00843283
0.00791332
0.00753961
0.0072712
0.0070796
0.00694423
0.00684973
0.00678481
0.00673828
0.00671097
0.00669696
0.00668051
0.00667535
0.00667075
0.00667014
0.00666994
0.00667129
0.00667299
0.00667531
0.0066778
0.00668056
0.0066835
0.0066867
0.00669009
0.00669371
0.00669754
0.00670163
0.00670601
0.0174139
0.0190296
0.0201053
0.0208294
0.0213534
0.0217779
0.0221576
0.0225093
0.022818
0.0230479
0.0231539
0.0230905
0.0228086
0.0222493
0.0213901
0.0202981
0.0189842
0.0174785
0.0158338
0.0141104
0.0122878
0.010463
0.00876538
0.00716701
0.00566201
0.00429861
0.00307776
0.00206007
0.00128509
0.000740516
0.000380142
0.000168506
9.435e-05
0.000101773
0.0100118
0.0118852
0.0150586
0.0175717
0.00900341
0.00832872
0.00783703
0.00748463
0.00723183
0.00705187
0.00692503
0.00683671
0.00677617
0.00673255
0.00670823
0.00669595
0.00667824
0.00667525
0.00667036
0.00667016
0.00666997
0.0066714
0.00667311
0.00667538
0.0066778
0.00668056
0.0066835
0.0066867
0.00669009
0.00669368
0.00669749
0.0067016
0.006706
0.0191213
0.0201102
0.0207472
0.0211896
0.0215441
0.0218737
0.0222063
0.0225382
0.0228401
0.023069
0.0231805
0.0231336
0.0228832
0.0223705
0.0215628
0.020517
0.0192354
0.0177412
0.0160836
0.0143255
0.0124328
0.0105577
0.00884422
0.00723311
0.00571632
0.00434268
0.00311255
0.00208421
0.0012986
0.000745364
0.000380189
0.000167552
9.46569e-05
0.000102218
0.00978916
0.0115094
0.0147019
0.0174759
0.0191697
0.0088635
0.00822597
0.00776228
0.00743085
0.00719349
0.00702497
0.00690647
0.0068242
0.00676801
0.00672753
0.00670569
0.00669483
0.00667677
0.00667492
0.00667013
0.00667012
0.00667004
0.0066715
0.00667318
0.00667539
0.0066778
0.00668057
0.00668351
0.0066867
0.00669005
0.00669361
0.00669744
0.00670157
0.00670598
0.0200835
0.0206343
0.0209921
0.0212677
0.0215303
0.0218176
0.0221381
0.0224723
0.0227805
0.0230171
0.0231412
0.023117
0.0229028
0.0224398
0.0216861
0.0206897
0.0194457
0.01797
0.0163076
0.0144965
0.0125548
0.010661
0.00893046
0.00730542
0.00577593
0.00439086
0.00315064
0.00211075
0.00131351
0.000750868
0.000380151
0.00016668
9.49935e-05
0.000102686
0.0095806
0.0111404
0.0142609
0.0172489
0.0190202
0.0200254
0.00872661
0.00812485
0.00768919
0.00737839
0.00715625
0.00699894
0.00688867
0.00681249
0.00676041
0.00672315
0.00670323
0.00669304
0.00667598
0.00667439
0.00667005
0.00667005
0.00667014
0.00667154
0.00667318
0.00667539
0.0066778
0.00668057
0.00668351
0.00668665
0.00668997
0.00669354
0.00669738
0.00670154
0.00670597
0.0205032
0.0207764
0.0209682
0.0211523
0.0213742
0.0216546
0.021986
0.022336
0.0226584
0.0229085
0.0230511
0.0230552
0.0228811
0.0224693
0.0217704
0.0208248
0.0196212
0.0181688
0.0164811
0.0146385
0.0126867
0.0107736
0.00902486
0.0073846
0.0058414
0.0044436
0.00319236
0.00213995
0.00133002
0.000756912
0.000380304
0.000165647
9.54106e-05
0.000103195
0.00938301
0.0107906
0.0137751
0.0169325
0.0188658
0.0198204
0.0203493
0.00859225
0.00802568
0.00761794
0.00732737
0.00712021
0.006974
0.00687208
0.00680176
0.00675332
0.00671923
0.006701
0.00669073
0.00667566
0.00667374
0.00667006
0.00666996
0.00667023
0.00667152
0.00667319
0.00667539
0.00667781
0.00668056
0.00668346
0.00668655
0.00668989
0.00669347
0.00669733
0.00670151
0.00670595
0.0205531
0.0206598
0.0207582
0.0209003
0.0211171
0.0214148
0.0217719
0.0221454
0.0224865
0.0227551
0.0229219
0.0229594
0.0228286
0.0224686
0.0218241
0.0209293
0.0197674
0.0183181
0.0166232
0.0147899
0.0128293
0.0108964
0.0091282
0.00747137
0.00591335
0.00450141
0.00323813
0.0021721
0.00134828
0.000763746
0.000380335
0.000164713
9.58925e-05
0.000103723
0.00919402
0.0104641
0.0132651
0.0165536
0.0186403
0.0196985
0.0200887
0.0203123
0.00846052
0.00792877
0.00754871
0.00727795
0.0070857
0.0069508
0.00685696
0.006792
0.00674673
0.00671583
0.00669922
0.00668811
0.00667562
0.00667305
0.00667015
0.00666985
0.00667027
0.00667151
0.00667319
0.00667539
0.00667781
0.0066805
0.00668336
0.00668645
0.0066898
0.00669341
0.00669727
0.00670148
0.00670594
0.0203526
0.0203621
0.0204142
0.0205495
0.0207867
0.0211183
0.0215094
0.0219102
0.0222733
0.0225654
0.0227626
0.0228386
0.0227536
0.0224455
0.021854
0.0210089
0.0198719
0.0184382
0.0167719
0.0149508
0.0129829
0.0110302
0.00924134
0.00756652
0.00599249
0.00456484
0.00328837
0.00220753
0.00136856
0.000771264
0.000380629
0.000163624
9.64649e-05
0.000104395
0.00901213
0.0101605
0.0127414
0.0161243
0.0183707
0.0195189
0.0199682
0.0199957
0.0200302
0.00833176
0.0078345
0.00748171
0.00723061
0.00705364
0.00692967
0.0068432
0.00678325
0.00674076
0.00671283
0.00669796
0.0066855
0.0066757
0.00667238
0.00667031
0.00666975
0.0066703
0.00667151
0.00667319
0.0066754
0.00667776
0.00668038
0.00668325
0.00668634
0.00668971
0.00669334
0.00669721
0.00670146
0.00670592
0.0199737
0.0199304
0.0199709
0.0201259
0.0204026
0.0207779
0.0212067
0.0216362
0.0220248
0.0223464
0.0225806
0.0227
0.0226626
0.0224058
0.0218656
0.0210593
0.0199542
0.0185612
0.0169269
0.0151211
0.0131482
0.0111756
0.00936518
0.00767092
0.00607959
0.00463455
0.00334359
0.00224664
0.00139101
0.000779834
0.000380789
0.000162623
9.72893e-05
0.000105176
0.00883654
0.00988082
0.012214
0.0156452
0.0180696
0.019311
0.0197987
0.0198568
0.0196563
0.0195772
0.00820627
0.00774329
0.00741756
0.00718665
0.00702446
0.00691044
0.00683072
0.00677536
0.00673534
0.00671014
0.0066969
0.00668308
0.00667585
0.00667183
0.00667048
0.0066697
0.00667031
0.00667153
0.0066732
0.00667533
0.00667764
0.00668025
0.00668314
0.00668624
0.00668962
0.00669327
0.00669714
0.00670143
0.0067059
0.019459
0.019397
0.0194527
0.0196493
0.0199768
0.0204006
0.0208672
0.0213264
0.0217453
0.0221039
0.0223821
0.0225493
0.022561
0.0223544
0.0218617
0.0210968
0.0200353
0.0186861
0.0170875
0.0153007
0.0133253
0.0113336
0.00950065
0.00778553
0.00617552
0.00471126
0.00340436
0.0022898
0.00141605