/*--------------------------------*- C++ -*----------------------------------*\
  =========                 |
  \\      /  F ield         | OpenFOAM: The Open Source CFD Toolbox
   \\    /   O peration     | Website:  https://openfoam.org
    \\  /    A nd           | Version:  8
     \\/     M anipulation  |
\*---------------------------------------------------------------------------*/
FoamFile
{
    version     2.0;
    format      ascii;
    class       volVectorField;
    location    "0.46";
    object      U;
}
// * * * * * * * * * * * * * * * * * * * * * * * * * * * * * * * * * * * * * //

dimensions      [0 1 -1 0 0 0 0];

internalField   nonuniform List<vector> 
15677
(
(-0.0398999 9.66597 0)
(0.0484953 9.922 0)
(-0.00180779 9.37823 0)
(0.0206534 9.97703 0)
(0.0199019 9.78864 0)
(0.00732593 9.14089 0)
(0.0258391 9.99516 0)
(0.016556 9.92467 0)
(0.0112035 9.6537 0)
(0.00651424 8.95979 0)
(0.0263299 10.0025 0)
(0.0205755 9.97872 0)
(0.0165936 9.85181 0)
(0.00916754 9.53003 0)
(0.0051931 8.81532 0)
(0.0255673 10.0057 0)
(0.0216149 10.003 0)
(0.0194689 9.94132 0)
(0.0154447 9.77881 0)
(0.00804557 9.41824 0)
(0.00428551 8.69955 0)
(0.0245025 10.0071 0)
(0.0219012 10.0147 0)
(0.0210851 9.98461 0)
(0.0183694 9.9018 0)
(0.0139787 9.70662 0)
(0.00701422 9.31883 0)
(0.00360156 8.60595 0)
(0.0230815 10.0075 0)
(0.0217876 10.0206 0)
(0.0219741 10.0067 0)
(0.0203572 9.96436 0)
(0.0171451 9.86053 0)
(0.0126129 9.63823 0)
(0.00608343 9.23225 0)
(0.00302919 8.53027 0)
(0.0213837 10.0074 0)
(0.021247 10.0235 0)
(0.0222884 10.0183 0)
(0.0214937 9.99749 0)
(0.0193031 9.94237 0)
(0.0158627 9.81981 0)
(0.0112991 9.57564 0)
(0.00521913 9.15827 0)
(0.00250493 8.4698 0)
(0.019479 10.007 0)
(0.0203934 10.0236 0)
(0.0222914 10.0239 0)
(0.0220382 10.0156 0)
(0.0205392 9.98682 0)
(0.0180686 9.92036 0)
(0.0144728 9.78151 0)
(0.0099585 9.52002 0)
(0.00437108 9.09667 0)
(0.00199175 8.42308 0)
(0.0174565 10.0063 0)
(0.0193505 10.0224 0)
(0.0218821 10.0269 0)
(0.0221159 10.0255 0)
(0.0211554 10.0117 0)
(0.0193138 9.97621 0)
(0.0166271 9.89986 0)
(0.0129294 9.74688 0)
(0.00853502 9.47238 0)
(0.00349606 9.04728 0)
(0.00146162 8.38907 0)
(0.0153445 10.0056 0)
(0.0180556 10.0207 0)
(0.0212038 10.028 0)
(0.0218463 10.0309 0)
(0.0212818 10.026 0)
(0.0198885 10.008 0)
(0.0177775 9.96693 0)
(0.0149226 9.88185 0)
(0.0111798 9.71711 0)
(0.00698178 9.4335 0)
(0.00255454 9.00999 0)
(0.000892602 8.36746 0)
(0.0132013 10.0049 0)
(0.0165839 10.0186 0)
(0.0201751 10.0273 0)
(0.0212468 10.0335 0)
(0.0210036 10.0341 0)
(0.0199416 10.0266 0)
(0.0182047 10.0056 0)
(0.015869 9.95981 0)
(0.012887 9.86734 0)
(0.00916797 9.69325 0)
(0.00525143 9.40411 0)
(0.00151502 8.98481 0)
(0.000264356 8.35798 0)
(0.011066 10.0041 0)
(0.014997 10.0164 0)
(0.0188745 10.0257 0)
(0.0203528 10.0339 0)
(0.0203913 10.0383 0)
(0.0195631 10.0373 0)
(0.0180646 10.0283 0)
(0.0160344 10.0051 0)
(0.0135066 9.95575 0)
(0.0104476 9.85734 0)
(0.00683547 9.67636 0)
(0.00330152 9.3848 0)
(0.000352434 8.97185 0)
(-0.000384975 8.36058 0)
(0.00916025 10.0035 0)
(0.0133268 10.0141 0)
(0.0173414 10.0234 0)
(0.0191608 10.0329 0)
(0.0194587 10.0399 0)
(0.0188075 10.0433 0)
(0.017451 10.0418 0)
(0.0155729 10.032 0)
(0.0132782 10.0076 0)
(0.0105982 9.95563 0)
(0.00752884 9.85281 0)
(0.0041283 9.66734 0)
(0.00109386 9.37617 0)
(-0.000940835 8.97134 0)
(-0.00113281 8.37525 0)
(0.00760557 10.0029 0)
(0.0117837 10.012 0)
(0.0156255 10.0208 0)
(0.017686 10.0308 0)
(0.018208 10.0397 0)
(0.0176961 10.0461 0)
(0.0164127 10.0495 0)
(0.0145801 10.0481 0)
(0.0123496 10.0385 0)
(0.00982362 10.0137 0)
(0.00704746 9.96033 0)
(0.0040582 9.85471 0)
(0.000993403 9.66713 0)
(-0.00141382 9.37877 0)
(-0.002409 8.9834 0)
(-0.00196726 8.40219 0)
(0.00629088 10.0024 0)
(0.0104094 10.0102 0)
(0.013954 10.0183 0)
(0.0159619 10.0281 0)
(0.0166447 10.038 0)
(0.0162357 10.0466 0)
(0.0149716 10.0534 0)
(0.0131026 10.0575 0)
(0.0108148 10.057 0)
(0.00825969 10.0484 0)
(0.00555144 10.0244 0)
(0.00275985 9.97074 0)
(-3.26006e-05 9.864 0)
(-0.0026106 9.67649 0)
(-0.00423904 9.39306 0)
(-0.00405044 9.0082 0)
(-0.00288809 8.4414 0)
(0.00519664 10.002 0)
(0.00917568 10.0087 0)
(0.0124399 10.0161 0)
(0.0142163 10.0252 0)
(0.014787 10.0353 0)
(0.014429 10.0454 0)
(0.0131348 10.0546 0)
(0.0111592 10.0624 0)
(0.00871709 10.068 0)
(0.00599565 10.0693 0)
(0.00315939 10.0627 0)
(0.00034323 10.0404 0)
(-0.00235423 9.98773 0)
(-0.00480395 9.8815 0)
(-0.00672455 9.69617 0)
(-0.00740582 9.4194 0)
(-0.00586828 9.04573 0)
(-0.00389066 8.49285 0)
(0.00427742 10.0016 0)
(0.00806418 10.0073 0)
(0.0110443 10.0141 0)
(0.0125998 10.0225 0)
(0.0128757 10.0321 0)
(0.0122865 10.0428 0)
(0.0109052 10.0538 0)
(0.00875481 10.0643 0)
(0.0060704 10.0739 0)
(0.00306847 10.0817 0)
(-4.8596e-05 10.0858 0)
(-0.00309589 10.0821 0)
(-0.00591391 10.0625 0)
(-0.00837357 10.0121 0)
(-0.0103056 9.90803 0)
(-0.0113724 9.72669 0)
(-0.0109247 9.458 0)
(-0.00786501 9.09602 0)
(-0.00497235 8.55634 0)
(0.00354589 10.0012 0)
(0.00707786 10.0061 0)
(0.0097588 10.0123 0)
(0.0110813 10.0201 0)
(0.0110911 10.0292 0)
(0.0100768 10.0395 0)
(0.00829257 10.0512 0)
(0.00589257 10.0637 0)
(0.00287573 10.0763 0)
(-0.000515167 10.0885 0)
(-0.00404576 10.0995 0)
(-0.00749204 10.1072 0)
(-0.0106451 10.1073 0)
(-0.0133208 10.0916 0)
(-0.0153625 10.0447 0)
(-0.0165667 9.94422 0)
(-0.0165617 9.7685 0)
(-0.0147906 9.50895 0)
(-0.0100264 9.15877 0)
(-0.00611957 8.63145 0)
(0.00293022 10.001 0)
(0.00617094 10.0051 0)
(0.00858439 10.0107 0)
(0.00966756 10.0178 0)
(0.00940821 10.0263 0)
(0.00801187 10.0361 0)
(0.00561516 10.0477 0)
(0.0025848 10.0612 0)
(-0.000864401 10.0759 0)
(-0.00475982 10.0913 0)
(-0.00883552 10.107 0)
(-0.0128326 10.122 0)
(-0.0165024 10.1342 0)
(-0.0196125 10.1392 0)
(-0.0219585 10.1283 0)
(-0.0233608 10.086 0)
(-0.0235966 9.99061 0)
(-0.0222816 9.82179 0)
(-0.0189854 9.57211 0)
(-0.0123417 9.23373 0)
(-0.0073245 8.7177 0)
(0.00244303 10.0008 0)
(0.00536923 10.0043 0)
(0.00750644 10.0094 0)
(0.00836224 10.0158 0)
(0.00784345 10.0236 0)
(0.00606871 10.0328 0)
(0.00312376 10.044 0)
(-0.000773073 10.0573 0)
(-0.0051334 10.0732 0)
(-0.00966462 10.0909 0)
(-0.0144304 10.11 0)
(-0.019135 10.13 0)
(-0.0234923 10.15 0)
(-0.02723 10.1677 0)
(-0.0300985 10.1784 0)
(-0.0318789 10.1732 0)
(-0.0323807 10.1368 0)
(-0.0313795 10.0475 0)
(-0.0285035 9.88661 0)
(-0.0234768 9.64724 0)
(-0.0147783 9.32021 0)
(-0.0085632 8.81421 0)
(0.00206886 10.0007 0)
(0.00468486 10.0036 0)
(0.0065341 10.0082 0)
(0.00716684 10.014 0)
(0.00640617 10.0211 0)
(0.00427265 10.0296 0)
(0.000792015 10.0401 0)
(-0.0038776 10.053 0)
(-0.00942754 10.0688 0)
(-0.0152078 10.0878 0)
(-0.0208324 10.1095 0)
(-0.0264227 10.1331 0)
(-0.0316508 10.1584 0)
(-0.036205 10.1842 0)
(-0.0397974 10.2082 0)
(-0.042169 10.2255 0)
(-0.0430992 10.227 0)
(-0.0424022 10.1971 0)
(-0.0398748 10.115 0)
(-0.0351773 9.96276 0)
(-0.0282166 9.73379 0)
(-0.0173137 9.41757 0)
(-0.0098165 8.92023 0)
(0.00177883 10.0006 0)
(0.00412689 10.0031 0)
(0.00569673 10.0072 0)
(0.00608507 10.0123 0)
(0.00510355 10.0188 0)
(0.00263965 10.0266 0)
(-0.00134561 10.0363 0)
(-0.00676396 10.0485 0)
(-0.0133725 10.0638 0)
(-0.0207416 10.0828 0)
(-0.028014 10.1058 0)
(-0.0347027 10.1322 0)
(-0.0410164 10.1614 0)
(-0.046598 10.1928 0)
(-0.051119 10.2253 0)
(-0.0542872 10.2564 0)
(-0.0558484 10.281 0)
(-0.0555976 10.2899 0)
(-0.0533725 10.2674 0)
(-0.0490125 10.1931 0)
(-0.042231 10.0499 0)
(-0.0331487 9.8311 0)
(-0.0198819 9.52477 0)
(-0.011018 9.03411 0)
(0.00155035 10.0005 0)
(0.00367268 10.0027 0)
(0.00501212 10.0064 0)
(0.00515618 10.0109 0)
(0.0039405 10.0166 0)
(0.0011812 10.0237 0)
(-0.00326604 10.0325 0)
(-0.00938812 10.0439 0)
(-0.0170177 10.0584 0)
(-0.0257984 10.0768 0)
(-0.0351429 10.0998 0)
(-0.0439414 10.1277 0)
(-0.051604 10.1599 0)
(-0.058467 10.1954 0)
(-0.0641546 10.2338 0)
(-0.0683369 10.2738 0)
(-0.0707331 10.3127 0)
(-0.0711135 10.3453 0)
(-0.069309 10.3621 0)
(-0.0652011 10.3474 0)
(-0.0586941 10.2814 0)
(-0.0495765 10.1473 0)
(-0.0381547 9.93824 0)
(-0.0223651 9.64046 0)
(-0.0118807 9.15398 0)
(0.00136783 10.0004 0)
(0.0033001 10.0024 0)
(0.00445483 10.0057 0)
(0.00440983 10.0098 0)
(0.00296339 10.0147 0)
(-9.48819e-05 10.0209 0)
(-0.00495278 10.0289 0)
(-0.0117189 10.0392 0)
(-0.0203081 10.0527 0)
(-0.0304481 10.0702 0)
(-0.041632 10.0926 0)
(-0.0530763 10.1204 0)
(-0.0633744 10.1542 0)
(-0.0718385 10.1931 0)
(-0.0789881 10.2359 0)
(-0.0844476 10.2821 0)
(-0.0879041 10.3303 0)
(-0.0891113 10.3776 0)
(-0.0878878 10.4185 0)
(-0.0841237 10.4436 0)
(-0.0777624 10.4371 0)
(-0.0687982 10.3794 0)
(-0.0570616 10.2542 0)
(-0.0431804 10.054 0)
(-0.0249551 9.76411 0)
(-0.0139349 9.27988 0)
(0.00122021 10.0004 0)
(0.00299235 10.0022 0)
(0.00399894 10.0052 0)
(0.0037971 10.0088 0)
(0.00218849 10.0131 0)
(-0.00113586 10.0185 0)
(-0.00639389 10.0254 0)
(-0.0137332 10.0347 0)
(-0.0232028 10.0469 0)
(-0.0346225 10.0632 0)
(-0.047578 10.0845 0)
(-0.0613704 10.1117 0)
(-0.0749843 10.1453 0)
(-0.0866704 10.186 0)
(-0.0956629 10.2325 0)
(-0.102736 10.2835 0)
(-0.107537 10.3382 0)
(-0.109798 10.3951 0)
(-0.109336 10.4511 0)
(-0.106044 10.5007 0)
(-0.0998883 10.5342 0)
(-0.0908966 10.5359 0)
(-0.0791289 10.4865 0)
(-0.0645405 10.3696 0)
(-0.0474714 10.1775 0)
(-0.0213511 9.88937 0)
(-0.00961247 9.34925 0)
(0.0010995 10.0004 0)
(0.00273663 10.002 0)
(0.00362431 10.0047 0)
(0.00331343 10.008 0)
(0.00159178 10.0118 0)
(-0.0019297 10.0163 0)
(-0.00753018 10.0222 0)
(-0.0154142 10.0302 0)
(-0.0256705 10.0412 0)
(-0.0382683 10.056 0)
(-0.0528966 10.0759 0)
(-0.0689548 10.1018 0)
(-0.085512 10.1347 0)
(-0.101282 10.1752 0)
(-0.114136 10.2237 0)
(-0.12327 10.2787 0)
(-0.129793 10.3386 0)
(-0.13341 10.4024 0)
(-0.133929 10.4684 0)
(-0.131261 10.5334 0)
(-0.125395 10.5917 0)
(-0.116402 10.6335 0)
(-0.10437 10.6432 0)
(-0.0895016 10.6016 0)
(-0.0715042 10.4923 0)
(-0.0507299 10.3056 0)
(-0.0162871 10.0451 0)
(-0.00111446 9.39797 0)
(0.000999831 10.0003 0)
(0.00252299 10.0018 0)
(0.00331452 10.0044 0)
(0.00292203 10.0073 0)
(0.00111857 10.0106 0)
(-0.00251852 10.0145 0)
(-0.00835545 10.0193 0)
(-0.0166932 10.026 0)
(-0.0276876 10.0354 0)
(-0.041344 10.0487 0)
(-0.0575194 10.0669 0)
(-0.0757254 10.0911 0)
(-0.0951312 10.1226 0)
(-0.114528 10.1622 0)
(-0.132332 10.2105 0)
(-0.146013 10.2679 0)
(-0.154773 10.3323 0)
(-0.160156 10.4017 0)
(-0.161963 10.475 0)
(-0.160121 10.5503 0)
(-0.154663 10.6243 0)
(-0.145701 10.6911 0)
(-0.133394 10.7409 0)
(-0.117937 10.7583 0)
(-0.0993701 10.7238 0)
(-0.0771357 10.6213 0)
(-0.0531397 10.4468 0)
(-0.0172342 10.2012 0)
(0.00421781 9.43735 0)
(0.000916823 10.0003 0)
(0.00234358 10.0017 0)
(0.00305697 10.004 0)
(0.00260557 10.0067 0)
(0.000753952 10.0096 0)
(-0.00295229 10.0129 0)
(-0.00893072 10.0169 0)
(-0.0175735 10.0222 0)
(-0.029172 10.03 0)
(-0.0438171 10.0413 0)
(-0.0613916 10.0576 0)
(-0.081595 10.0799 0)
(-0.103714 10.1094 0)
(-0.126636 10.1475 0)
(-0.14884 10.1949 0)
(-0.168433 10.252 0)
(-0.182451 10.3191 0)
(-0.190177 10.3936 0)
(-0.193711 10.473 0)
(-0.193001 10.556 0)
(-0.188126 10.6407 0)
(-0.179267 10.7235 0)
(-0.166657 10.7985 0)
(-0.150569 10.8558 0)
(-0.131103 10.8801 0)
(-0.108131 10.8524 0)
(-0.0814806 10.7575 0)
(-0.0542335 10.5997 0)
(-0.0195293 10.3525 0)
(0.00537485 9.47552 0)
(0.000847162 10.0003 0)
(0.00219217 10.0016 0)
(0.00284176 10.0038 0)
(0.00234921 10.0062 0)
(0.000472353 10.0087 0)
(-0.00326345 10.0115 0)
(-0.00931407 10.0147 0)
(-0.0181376 10.019 0)
(-0.030139 10.0251 0)
(-0.0455864 10.0343 0)
(-0.0644692 10.0482 0)
(-0.086492 10.0682 0)
(-0.11115 10.0954 0)
(-0.137447 10.1313 0)
(-0.163948 10.177 0)
(-0.188803 10.2332 0)
(-0.209772 10.3002 0)
(-0.223478 10.3778 0)
(-0.229378 10.463 0)
(-0.230256 10.5527 0)
(-0.226253 10.6455 0)
(-0.217633 10.7393 0)
(-0.204732 10.8305 0)
(-0.187921 10.9132 0)
(-0.167462 10.9774 0)
(-0.143356 11.0082 0)
(-0.116161 10.9871 0)
(-0.0855972 10.9008 0)
(-0.055019 10.7588 0)
(-0.021579 10.4984 0)
(0.00500293 9.52537 0)
(0.0007883 10.0003 0)
(0.0020638 10.0015 0)
(0.00266106 10.0035 0)
(0.00214067 10.0057 0)
(0.000255907 10.008 0)
(-0.0034811 10.0103 0)
(-0.00955146 10.0129 0)
(-0.0184611 10.0161 0)
(-0.0306996 10.0208 0)
(-0.0466824 10.028 0)
(-0.0666252 10.0392 0)
(-0.0903573 10.0563 0)
(-0.117346 10.0809 0)
(-0.146823 10.1141 0)
(-0.177465 10.1573 0)
(-0.207486 10.2117 0)
(-0.234652 10.2779 0)
(-0.256419 10.3555 0)
(-0.269007 10.4444 0)
(-0.272164 10.5406 0)
(-0.269493 10.6407 0)
(-0.261368 10.7432 0)
(-0.248257 10.8458 0)
(-0.23067 10.9448 0)
(-0.209041 11.0344 0)
(-0.183617 11.105 0)
(-0.15489 11.1421 0)
(-0.124074 11.1272 0)
(-0.0903134 11.0501 0)
(-0.0565205 10.9191 0)
(-0.023736 10.6553 0)
(0.00397208 9.58457 0)
(0.000738241 10.0002 0)
(0.00195447 10.0014 0)
(0.00250862 10.0033 0)
(0.00197045 10.0054 0)
(9.05124e-05 10.0074 0)
(-0.00362714 10.0093 0)
(-0.00967924 10.0112 0)
(-0.0186043 10.0136 0)
(-0.0309533 10.017 0)
(-0.0472524 10.0224 0)
(-0.0679071 10.031 0)
(-0.0930294 10.0448 0)
(-0.122224 10.0659 0)
(-0.154645 10.096 0)
(-0.189217 10.1363 0)
(-0.224247 10.1881 0)
(-0.257539 10.2523 0)
(-0.286503 10.3293 0)
(-0.308316 10.4184 0)
(-0.318829 10.519 0)
(-0.318213 10.6266 0)
(-0.311026 10.737 0)
(-0.297912 10.8488 0)
(-0.279564 10.9595 0)
(-0.256628 11.0657 0)
(-0.2296 11.1616 0)
(-0.19912 11.2381 0)
(-0.16614 11.2807 0)
(-0.132025 11.2714 0)
(-0.0955998 11.2027 0)
(-0.0591431 11.0967 0)
(-0.0260149 10.8232 0)
(0.00241683 9.65179 0)
(0.000695379 10.0002 0)
(0.00186094 10.0013 0)
(0.00237949 10.0032 0)
(0.00183103 10.005 0)
(-3.51537e-05 10.0068 0)
(-0.00371891 10.0084 0)
(-0.00972574 10.0098 0)
(-0.0186148 10.0114 0)
(-0.0309799 10.0137 0)
(-0.047428 10.0174 0)
(-0.0685087 10.0237 0)
(-0.0945742 10.0343 0)
(-0.125577 10.0513 0)
(-0.160809 10.0773 0)
(-0.199053 10.1141 0)
(-0.238875 10.1625 0)
(-0.27815 10.224 0)
(-0.31428 10.2992 0)
(-0.34434 10.3879 0)
(-0.365265 10.4891 0)
(-0.372597 10.6019 0)
(-0.367087 10.7208 0)
(-0.354378 10.8412 0)
(-0.335407 10.9617 0)
(-0.311086 11.08 0)
(-0.282197 11.1926 0)
(-0.24957 11.2942 0)
(-0.214278 11.3758 0)
(-0.177321 11.4229 0)
(-0.139938 11.418 0)
(-0.101581 11.3746 0)
(-0.0625431 11.2899 0)
(-0.02841 10.9853 0)
(0.000718007 9.72499 0)
(0.000658753 10.0002 0)
(0.00178039 10.0013 0)
(0.00226963 10.003 0)
(0.00171649 10.0048 0)
(-0.000129935 10.0063 0)
(-0.00377001 10.0076 0)
(-0.00971306 10.0086 0)
(-0.0185299 10.0095 0)
(-0.0308421 10.0108 0)
(-0.047314 10.013 0)
(-0.0686019 10.0172 0)
(-0.095243 10.0249 0)
(-0.127488 10.038 0)
(-0.165048 10.0591 0)
(-0.206837 10.091 0)
(-0.251178 10.1356 0)
(-0.296224 10.1935 0)
(-0.339411 10.2658 0)
(-0.377743 10.3529 0)
(-0.407989 10.4542 0)
(-0.426915 10.568 0)
(-0.429847 10.693 0)
(-0.418265 10.823 0)
(-0.399016 10.953 0)
(-0.373347 11.0815 0)
(-0.342391 11.2064 0)
(-0.307238 11.3248 0)
(-0.269096 11.4312 0)
(-0.229198 11.5168 0)
(-0.188408 11.5669 0)
(-0.148512 11.5831 0)
(-0.107964 11.564 0)
(-0.0662287 11.4779 0)
(-0.0306843 11.1412 0)
(-0.000925115 9.80229 0)
(0.00171086 10.0012 0)
(0.000614989 10.0002 0)
(0.00217533 10.0029 0)
(0.00162215 10.0045 0)
(-0.000200645 10.0059 0)
(-0.00379104 10.0069 0)
(-0.00965831 10.0075 0)
(-0.0183782 10.0078 0)
(-0.030589 10.0082 0)
(-0.0469933 10.0091 0)
(-0.0683242 10.0115 0)
(-0.095258 10.0166 0)
(-0.128279 10.0261 0)
(-0.167463 10.0424 0)
(-0.212222 10.0684 0)
(-0.260979 10.1075 0)
(-0.311521 10.161 0)
(-0.361577 10.2296 0)
(-0.408125 10.314 0)
(-0.447793 10.414 0)
(-0.477111 10.5284 0)
(-0.492784 10.6552 0)
(-0.490008 10.7923 0)
(-0.471155 10.9329 0)
(-0.444383 11.0717 0)
(-0.411258 11.2074 0)
(-0.373233 11.3382 0)
(-0.331749 11.4613 0)
(-0.288183 11.5715 0)
(-0.243775 11.6595 0)
(-0.200415 11.7284 0)
(-0.157525 11.7655 0)
(-0.114003 11.7501 0)
(-0.0698482 11.6592 0)
(-0.0327448 11.2906 0)
(-0.00239222 9.88197 0)
(0.00209308 10.0028 0)
(0.00162896 10.0012 0)
(0.000562428 10.0002 0)
(0.00154364 10.0043 0)
(-0.00025248 10.0055 0)
(-0.00379003 10.0063 0)
(-0.00957468 10.0066 0)
(-0.0181818 10.0064 0)
(-0.0302582 10.0059 0)
(-0.0465301 10.0057 0)
(-0.0677837 10.0064 0)
(-0.0947972 10.0091 0)
(-0.128233 10.0154 0)
(-0.168456 10.0273 0)
(-0.215322 10.0477 0)
(-0.267832 10.0798 0)
(-0.323816 10.1271 0)
(-0.38048 10.1911 0)
(-0.435101 10.2716 0)
(-0.484213 10.369 0)
(-0.524124 10.4827 0)
(-0.551221 10.6107 0)
(-0.562264 10.7504 0)
(-0.552428 10.8994 0)
(-0.525132 11.0499 0)
(-0.489938 11.1967 0)
(-0.448783 11.3387 0)
(-0.403467 11.4744 0)
(-0.355635 11.6011 0)
(-0.30669 11.7134 0)
(-0.25938 11.8195 0)
(-0.212904 11.9067 0)
(-0.16592 11.9453 0)
(-0.119524 11.9307 0)
(-0.0732143 11.8328 0)
(-0.03456 11.4334 0)
(-0.0036915 9.96234 0)
(0.00147492 10.0041 0)
(0.00200286 10.0026 0)
(0.00152661 10.0011 0)
(0.000512517 10.0002 2.05617e-19)
(-0.000290267 10.0052 0)
(-0.00377283 10.0058 0)
(-0.00947196 10.0057 0)
(-0.0179577 10.0051 0)
(-0.0298785 10.0039 0)
(-0.045974 10.0027 0)
(-0.0670647 10.0019 0)
(-0.0940009 10.0025 0)
(-0.127577 10.0058 0)
(-0.168385 10.0138 0)
(-0.216633 10.0288 0)
(-0.27185 10.0542 0)
(-0.332531 10.0935 0)
(-0.395833 10.1505 0)
(-0.458305 10.2262 0)
(-0.516788 10.3199 0)
(-0.567415 10.4314 0)
(-0.606263 10.5594 0)
(-0.629693 10.7013 0)
(-0.634648 10.8538 0)
(-0.616403 11.0139 0)
(-0.579571 11.1736 0)
(-0.535211 11.3273 0)
(-0.485638 11.4745 0)
(-0.432893 11.614 0)
(-0.378701 11.7427 0)
(-0.326414 11.8727 0)
(-0.275509 11.9958 0)
(-0.224349 12.0823 0)
(-0.173528 12.1205 0)
(-0.124423 12.1044 0)
(-0.076222 11.9984 0)
(-0.0360982 11.5693 0)
(-0.00483839 10.042 0)
(-0.000324128 10.0049 0)
(0.00141371 10.0039 0)
(0.00189417 10.0025 9.18373e-19)
(0.00142897 10.001 -6.51507e-19)
(0.000465 10.0001 -4.10087e-19)
(-0.0037446 10.0053 0)
(-0.00935689 10.005 0)
(-0.017718 10.0039 0)
(-0.0294718 10.0022 0)
(-0.0453626 10 0)
(-0.0662318 9.99794 0)
(-0.0929783 9.99667 0)
(-0.126493 9.99736 0)
(-0.167537 10.0017 0)
(-0.216599 10.0119 0)
(-0.273639 10.031 0)
(-0.33777 10.0624 0)
(-0.406896 10.1102 0)
(-0.477374 10.1783 0)
(-0.545073 10.2671 0)
(-0.606444 10.3752 0)
(-0.657294 10.5016 0)
(-0.69358 10.6443 0)
(-0.711777 10.8001 0)
(-0.709158 10.9648 0)
(-0.681209 11.1354 0)
(-0.633879 11.3031 0)
(-0.579782 11.4627 0)
(-0.521516 11.6139 0)
(-0.461253 11.7554 0)
(-0.403209 11.9017 0)
(-0.346764 12.0483 0)
(-0.290201 12.1696 0)
(-0.234596 12.2536 0)
(-0.180243 12.2897 0)
(-0.128658 12.2705 0)
(-0.07882 12.1555 0)
(-0.0373557 11.6981 0)
(-0.00582523 10.1199 0)
(-0.00372186 10.0049 0)
(-0.000321109 10.0046 -1.96286e-18)
(0.0013517 10.0036 -9.68728e-19)
(0.00179189 10.0023 4.58181e-19)
(0.00133499 10.0009 -4.33037e-19)
(0.000419934 10.0001 0)
(-0.00923493 10.0043 0)
(-0.0174709 10.0029 0)
(-0.0290538 10.0006 0)
(-0.0447244 9.99769 0)
(-0.0653341 9.99443 0)
(-0.0918133 9.99149 0)
(-0.12512 9.98984 0)
(-0.166141 9.99094 0)
(-0.215581 9.99679 0)
(-0.273744 10.01 0)
(-0.340256 10.034 0)
(-0.413737 10.0727 0)
(-0.491367 10.1305 0)
(-0.568619 10.2111 0)
(-0.640677 10.3144 0)
(-0.703689 10.4379 0)
(-0.753239 10.5799 0)
(-0.785305 10.7375 0)
(-0.796631 10.9068 0)
(-0.784967 11.0832 0)
(-0.746124 11.2631 0)
(-0.687503 11.4377 0)
(-0.623232 11.6018 0)
(-0.556086 11.7554 0)
(-0.491337 11.9145 0)
(-0.428456 12.0772 0)
(-0.365258 12.2214 0)
(-0.303319 12.3389 0)
(-0.243563 12.4191 0)
(-0.186033 12.452 0)
(-0.132227 12.4286 0)
(-0.0810021 12.304 0)
(-0.0383549 11.8198 0)
(-0.00665678 10.1952 0)
(-0.0091324 10.0038 0)
(-0.00361621 10.0044 4.13953e-18)
(-0.000276662 10.0042 0)
(0.00129553 10.0033 9.66231e-19)
(0.00169499 10.0021 1.54302e-22)
(0.00124459 10.0008 0)
(0.000377576 10.0001 0)
(-0.0172219 10.002 0)
(-0.0286343 9.99927 0)
(-0.0440797 9.99562 0)
(-0.0644086 9.99133 0)
(-0.0905695 9.98691 0)
(-0.123565 9.98318 0)
(-0.164375 9.98138 0)
(-0.213865 9.98327 0)
(-0.272608 9.99125 0)
(-0.340648 10.0084 0)
(-0.41721 10.0385 0)
(-0.500288 10.0858 0)
(-0.586232 10.155 0)
(-0.66956 10.2497 0)
(-0.744814 10.3688 0)
(-0.807955 10.5085 0)
(-0.854482 10.6665 0)
(-0.880554 10.8389 0)
(-0.883346 11.0212 0)
(-0.861231 11.2083 0)
(-0.810446 11.3963 0)
(-0.739895 11.5764 0)
(-0.66514 11.7435 0)
(-0.59276 11.9148 0)
(-0.522322 12.0904 0)
(-0.451364 12.2504 0)
(-0.381749 12.3902 0)
(-0.314789 12.5026 0)
(-0.251246 12.578 0)
(-0.190912 12.6067 0)
(-0.135159 12.5783 0)
(-0.0827856 12.4438 0)
(-0.0391248 11.9342 0)
(-0.00734516 10.2673 0)
(-0.0170116 10.0012 0)
(-0.00887884 10.0031 3.77879e-22)
(-0.00339726 10.0039 0)
(-0.000228968 10.0038 -1.01899e-18)
(0.0012474 10.0031 1.11564e-22)
(0.0016033 10.002 0)
(0.00115763 10.0008 0)
(0.000337617 10.0001 0)
(-0.028219 9.99806 0)
(-0.0434405 9.99379 0)
(-0.0634819 9.98859 0)
(-0.0892951 9.98286 0)
(-0.121912 9.97727 0)
(-0.162377 9.97288 0)
(-0.211675 9.97124 0)
(-0.270587 9.97446 0)
(-0.339488 9.98535 0)
(-0.418103 10.0074 0)
(-0.505124 10.0449 0)
(-0.597813 10.1024 0)
(-0.691598 10.1845 0)
(-0.779999 10.2947 0)
(-0.856985 10.4307 0)
(-0.918498 10.5874 0)
(-0.960118 10.7615 0)
(-0.978357 10.9484 0)
(-0.970984 11.1429 0)
(-0.937114 11.3394 0)
(-0.873489 11.5342 0)
(-0.790526 11.7181 0)
(-0.709644 11.9033 0)
(-0.63056 12.0914 0)
(-0.550441 12.2642 0)
(-0.471777 12.4195 0)
(-0.39617 12.5536 0)
(-0.324623 12.66 0)
(-0.257691 12.7297 0)
(-0.194924 12.7535 0)
(-0.1375 12.7194 0)
(-0.0841986 12.5751 0)
(-0.0396951 12.0415 0)
(-0.00790598 10.3358 0)
(-0.0278686 9.99699 0)
(-0.0165543 10.0004 -2.29991e-18)
(-0.00839996 10.0024 0)
(-0.00318179 10.0033 0)
(-0.000168841 10.0034 3.04774e-18)
(0.00120702 10.0028 0)
(0.00151683 10.0018 0)
(0.0010745 10.0007 8.56329e-19)
(0.000300176 10.0001 0)
(-0.0428127 9.99217 0)
(-0.0625684 9.98616 0)
(-0.0880243 9.97928 0)
(-0.120223 9.97204 0)
(-0.160251 9.96535 0)
(-0.209184 9.96054 0)
(-0.267959 9.95948 0)
(-0.33721 9.9647 0)
(-0.417067 9.97944 0)
(-0.506807 10.0077 0)
(-0.604489 10.0539 0)
(-0.706538 10.1231 0)
(-0.807389 10.2198 0)
(-0.899535 10.3469 0)
(-0.976502 10.5008 0)
(-1.03442 10.6749 0)
(-1.06913 10.865 0)
(-1.07769 11.0657 0)
(-1.05859 11.2713 0)
(-1.01181 11.4759 0)
(-0.934598 11.6755 0)
(-0.844392 11.8784 0)
(-0.755576 12.0809 0)
(-0.664894 12.2663 0)
(-0.575517 12.4342 0)
(-0.489641 12.5834 0)
(-0.408544 12.7106 0)
(-0.332882 12.8103 0)
(-0.262978 12.8739 0)
(-0.198136 12.8922 0)
(-0.139304 12.8521 0)
(-0.0852766 12.6981 0)
(-0.040095 12.1419 0)
(-0.00835618 10.4006 0)
(-0.0422844 9.99074 0)
(-0.0271391 9.99582 0)
(-0.0157076 9.99937 -2.39323e-18)
(-0.00793697 10.0016 -2.26487e-18)
(-0.00294773 10.0028 -4.28379e-18)
(-9.66309e-05 10.003 0)
(0.00117455 10.0026 -1.91268e-18)
(0.00143573 10.0017 -1.80611e-18)
(0.000995096 10.0006 8.52264e-19)
(0.000265174 10.0001 0)
(-0.0616745 9.98402 0)
(-0.0867751 9.9761 0)
(-0.11854 9.96741 0)
(-0.158078 9.95868 0)
(-0.206527 9.95104 0)
(-0.264942 9.94614 0)
(-0.334159 9.94624 0)
(-0.414627 9.95429 0)
(-0.50611 9.974 0)
(-0.607344 10.0097 0)
(-0.715643 10.0664 0)
(-0.826509 10.1489 0)
(-0.933316 10.2617 0)
(-1.02756 10.407 0)
(-1.1025 10.5794 0)
(-1.15468 10.7711 0)
(-1.18041 10.9768 0)
(-1.17747 11.1903 0)
(-1.14524 11.4056 0)
(-1.08454 11.6165 0)
(-0.99986 11.8362 0)
(-0.900125 12.0572 0)
(-0.797361 12.2573 0)
(-0.695547 12.4377 0)
(-0.59749 12.5992 0)
(-0.504993 12.741 0)
(-0.418961 12.8608 0)
(-0.339675 12.9531 0)
(-0.267204 13.0102 0)
(-0.200628 13.0227 0)
(-0.140635 12.9764 0)
(-0.0860577 12.8129 0)
(-0.0403515 12.2355 0)
(-0.00871158 10.4616 0)
(-0.0609254 9.98212 0)
(-0.0411997 9.98919 -2.55648e-18)
(-0.0257898 9.99455 2.52108e-18)
(-0.0148974 9.99842 -1.01995e-21)
(-0.00744715 10.0009 2.25735e-18)
(-0.00269559 10.0023 2.13437e-18)
(-1.24402e-05 10.0027 4.03332e-18)
(0.00115016 10.0023 2.85638e-18)
(0.00135972 10.0015 -8.9875e-19)
(0.000919367 10.0006 0)
(0.000232582 10.0001 0)
(-0.0855544 9.97329 0)
(-0.116888 9.9633 0)
(-0.155914 9.95275 0)
(-0.203803 9.9426 0)
(-0.261702 9.93427 0)
(-0.330602 9.92977 0)
(-0.411204 9.93177 0)
(-0.503663 9.94368 0)
(-0.607285 9.96963 0)
(-0.720157 10.0144 0)
(-0.838755 10.0831 0)
(-0.957567 10.1806 0)
(-1.06889 10.3109 0)
(-1.16328 10.4755 0)
(-1.23396 10.667 0)
(-1.27815 10.8761 0)
(-1.29284 11.0965 0)
(-1.27668 11.3217 0)
(-1.23 11.545 0)
(-1.16258 11.7773 0)
(-1.06768 12.0164 0)
(-0.950979 12.2354 0)
(-0.834721 12.4305 0)
(-0.72244 12.6043 0)
(-0.616405 12.7581 0)
(-0.517942 12.8919 0)
(-0.427551 13.0036 0)
(-0.345128 13.0884 0)
(-0.270481 13.1386 0)
(-0.202482 13.1452 0)
(-0.141554 13.0927 0)
(-0.0865823 12.92 0)
(-0.0404887 12.3226 0)
(-0.00898704 10.5186 0)
(-0.0845368 9.97081 0)
(-0.0593853 9.98011 -3.14947e-21)
(-0.0391811 9.98755 0)
(-0.0245094 9.99332 -1.68631e-21)
(-0.0140488 9.99751 0)
(-0.00693033 10.0003 -2.24923e-18)
(-0.00242606 10.0018 -4.25137e-18)
(8.37003e-05 10.0023 2.72427e-23)
(0.00113379 10.0021 1.89491e-18)
(0.00128877 10.0014 -8.93951e-19)
(0.000847181 10.0005 8.43035e-19)
(0.000202346 10.0001 0)
(-0.115273 9.95967 0)
(-0.153786 9.9475 0)
(-0.201085 9.93511 0)
(-0.258368 9.92373 0)
(-0.326748 9.9151 0)
(-0.407127 9.91165 0)
(-0.499972 9.91646 0)
(-0.605058 9.93342 0)
(-0.721133 9.96709 0)
(-0.845535 10.0225 0)
(-0.973796 10.105 0)
(-1.09935 10.2191 0)
(-1.2134 10.3684 0)
(-1.30572 10.553 0)
(-1.36972 10.7638 0)
(-1.40362 10.9897 0)
(-1.40524 11.2239 0)
(-1.37424 11.459 0)
(-1.32143 11.7053 0)
(-1.2441 11.9587 0)
(-1.12984 12.1969 0)
(-0.996624 12.4111 0)
(-0.867582 12.5993 0)
(-0.745631 12.765 0)
(-0.632396 12.9104 0)
(-0.52865 13.0356 0)
(-0.434471 13.1389 0)
(-0.349381 13.2159 0)
(-0.272923 13.2593 0)
(-0.203783 13.2598 0)
(-0.142122 13.2011 0)
(-0.0868887 13.0196 0)
(-0.0405277 12.4035 0)
(-0.00919588 10.5719 0)
(-0.113936 9.95644 0)
(-0.0824212 9.96821 2.83488e-18)
(-0.0564926 9.97802 -2.80143e-18)
(-0.0372789 9.98598 2.64865e-18)
(-0.0231759 9.99215 0)
(-0.0131615 9.99664 0)
(-0.00638836 9.99963 2.23999e-18)
(-0.00213954 10.0013 -2.11587e-18)
(0.000190912 10.002 5.81702e-23)
(0.00112643 10.0019 9.42533e-19)
(0.00122285 10.0013 -8.88933e-19)
(0.000778294 10.0005 -8.37117e-19)
(0.000174531 10.0001 0)
(-0.151706 9.94285 0)
(-0.198409 9.92847 0)
(-0.255032 9.91436 0)
(-0.322758 9.90205 0)
(-0.402652 9.89369 0)
(-0.495438 9.8921 0)
(-0.601268 9.90084 0)
(-0.719444 9.92425 0)
(-0.848054 9.96725 0)
(-0.983576 10.0352 0)
(-1.12053 10.1331 0)
(-1.25127 10.2655 0)
(-1.36598 10.4348 0)
(-1.45377 10.6399 0)
(-1.50857 10.8698 0)
(-1.52985 11.1118 0)
(-1.51646 11.3581 0)
(-1.48013 11.6181 0)
(-1.41749 11.8875 0)
(-1.31923 12.1417 0)
(-1.1859 12.3758 0)
(-1.03694 12.5828 0)
(-0.896012 12.7625 0)
(-0.765271 12.9192 0)
(-0.64565 13.0554 0)
(-0.537306 13.1717 0)
(-0.439894 13.2665 0)
(-0.352578 13.3357 0)
(-0.274641 13.3723 0)
(-0.204611 13.3668 0)
(-0.142394 13.3021 0)
(-0.0870133 13.1122 0)
(-0.0404876 12.4786 0)
(-0.00935002 10.6215 0)
(-0.149995 9.93872 0)
(-0.111104 9.95313 0)
(-0.0784055 9.96556 2.9465e-18)
(-0.0537825 9.97602 -5.58821e-18)
(-0.0353042 9.98449 5.28598e-18)
(-0.021788 9.99103 -4.99803e-18)
(-0.0122389 9.99581 0)
(-0.00582219 9.99902 2.23042e-18)
(-0.00183676 10.0009 -2.1053e-18)
(0.000309112 10.0017 -1.98708e-18)
(0.00112737 10.0017 0)
(0.00116231 10.0012 8.82667e-19)
(0.000712782 10.0004 0)
(0.000149559 10.0001 0)
(-0.195788 9.92257 0)
(-0.251735 9.90603 0)
(-0.318746 9.89044 0)
(-0.39798 9.87769 0)
(-0.490374 9.87032 0)
(-0.596395 9.8716 0)
(-0.715802 9.88559 0)
(-0.847321 9.91702 0)
(-0.988269 9.97113 0)
(-1.13418 10.0533 0)
(-1.27852 10.1685 0)
(-1.41255 10.3205 0)
(-1.52557 10.5108 0)
(-1.60618 10.7367 0)
(-1.64919 10.9851 0)
(-1.65557 11.2417 0)
(-1.638 11.515 0)
(-1.59216 11.8005 0)
(-1.50662 12.0727 0)
(-1.38737 12.324 0)
(-1.23565 12.5514 0)
(-1.07195 12.7494 0)
(-0.920188 12.9194 0)
(-0.781592 13.0663 0)
(-0.656395 13.193 0)
(-0.544122 13.3002 0)
(-0.443996 13.3865 0)
(-0.354859 13.448 0)
(-0.275741 13.4779 0)
(-0.20504 13.4665 0)
(-0.142422 13.3961 0)
(-0.0869882 13.1981 0)
(-0.0403845 12.5482 0)
(-0.00945886 10.6677 0)
(-0.193651 9.91734 0)
(-0.146288 9.93451 0)
(-0.10567 9.94978 0)
(-0.0746657 9.96303 5.87706e-18)
(-0.0509771 9.97412 -5.56296e-18)
(-0.0332566 9.98307 5.26107e-18)
(-0.0203524 9.98999 0)
(-0.0112826 9.99504 -2.34922e-18)
(-0.00523249 9.99845 0)
(-0.00151919 10.0005 2.09391e-18)
(0.000439165 10.0014 0)
(0.0011345 10.0015 0)
(0.0011073 10.0011 0)
(0.000652201 10.0004 8.53345e-19)
(0.000127424 10.0001 4.11043e-19)
(-0.2485 9.89863 0)
(-0.314764 9.88011 0)
(-0.393253 9.86343 0)
(-0.485026 9.85087 0)
(-0.59082 9.84542 0)
(-0.71078 9.85082 0)
(-0.844169 9.87156 0)
(-0.989029 9.91275 0)
(-1.14181 9.97983 0)
(-1.29704 10.0781 0)
(-1.44711 10.2122 0)
(-1.58226 10.385 0)
(-1.69098 10.5968 0)
(-1.76167 10.8435 0)
(-1.79027 11.1092 0)
(-1.79401 11.3952 0)
(-1.76758 11.6968 0)
(-1.69691 11.9875 0)
(-1.58805 12.2586 0)
(-1.44822 12.5042 0)
(-1.27906 12.7225 0)
(-1.10185 12.9101 0)
(-0.940369 13.0694 0)
(-0.794876 13.206 0)
(-0.664884 13.323 0)
(-0.549311 13.4211 0)
(-0.446952 13.499 0)
(-0.356357 13.553 0)
(-0.276321 13.5764 0)
(-0.20514 13.5594 0)
(-0.14225 13.4833 0)
(-0.0868422 13.2778 0)
(-0.0402321 12.6127 0)
(-0.00953007 10.7104 0)
(-0.24589 9.89207 0)
(-0.188886 9.91204 0)
(-0.139092 9.93032 6.54851e-18)
(-0.100638 9.94661 6.20313e-18)
(-0.0708009 9.96065 5.86897e-18)
(-0.0480762 9.97235 -5.54984e-18)
(-0.0311458 9.98175 0)
(-0.0188711 9.98901 0)
(-0.0102939 9.99432 0)
(-0.00462073 9.99792 4.41426e-18)
(-0.00118732 10.0001 2.08196e-18)
(0.000579673 10.0011 1.96127e-18)
(0.00115146 10.0013 0)
(0.00105626 10.001 -8.99696e-19)
(0.000597321 10.0003 -4.34146e-19)
(0.00010766 10 0)
(-0.310848 9.87093 0)
(-0.388535 9.85074 0)
(-0.47957 9.83353 0)
(-0.584845 9.82201 0)
(-0.704836 9.81962 0)
(-0.839273 9.83057 0)
(-0.986816 9.85976 0)
(-1.14473 9.91258 0)
(-1.30851 9.99455 0)
(-1.47166 10.1108 0)
(-1.62547 10.2653 0)
(-1.75927 10.4598 0)
(-1.86096 10.6936 0)
(-1.91886 10.96 0)
(-1.9469 11.2577 0)
(-1.94292 11.5751 0)
(-1.88983 11.885 0)
(-1.79342 12.177 0)
(-1.66133 12.4435 0)
(-1.50172 12.6807 0)
(-1.31632 12.8882 0)
(-1.12692 13.0641 0)
(-0.956873 13.2121 0)
(-0.805428 13.3381 0)
(-0.67138 13.4453 0)
(-0.553085 13.5344 0)
(-0.448926 13.6043 0)
(-0.357194 13.651 0)
(-0.276471 13.6681 0)
(-0.204969 13.6457 0)
(-0.14192 13.5643 0)
(-0.0865999 13.3517 0)
(-0.0400407 12.6723 0)
(-0.00957271 10.7501 0)
(-0.307727 9.86277 0)
(-0.239861 9.88545 0)
(-0.179531 9.90683 -1.37781e-17)