/*--------------------------------*- C++ -*----------------------------------*\
  =========                 |
  \\      /  F ield         | OpenFOAM: The Open Source CFD Toolbox
   \\    /   O peration     | Website:  https://openfoam.org
    \\  /    A nd           | Version:  8
     \\/     M anipulation  |
\*---------------------------------------------------------------------------*/
FoamFile
{
    version     2.0;
    format      ascii;
    class       volScalarField;
    location    "0.05";
    object      k;
}
// * * * * * * * * * * * * * * * * * * * * * * * * * * * * * * * * * * * * * //

dimensions      [0 2 -2 0 0 0 0];

internalField   nonuniform List<scalar> 
15677
(
0.33416
0.365033
0.294767
0.368732
0.357705
0.281044
0.370693
0.360088
0.366147
0.282769
0.371884
0.361639
0.361486
0.383351
0.288902
0.37261
0.363747
0.357749
0.368359
0.401721
0.30028
0.373038
0.365665
0.357857
0.358177
0.380154
0.419383
0.31184
0.373263
0.367181
0.359468
0.354611
0.361069
0.393317
0.434818
0.322579
0.373348
0.368305
0.361363
0.354793
0.353086
0.366923
0.406224
0.447877
0.332106
0.373349
0.369082
0.36307
0.356357
0.351144
0.353523
0.373604
0.418278
0.458747
0.340512
0.373314
0.369566
0.364445
0.358233
0.351949
0.348809
0.354815
0.380701
0.429113
0.467914
0.347518
0.373275
0.369823
0.365464
0.35997
0.353732
0.348401
0.347172
0.357123
0.387667
0.438856
0.475361
0.353763
0.37325
0.369924
0.36615
0.361404
0.355675
0.349779
0.345375
0.346334
0.359714
0.394471
0.447207
0.481786
0.358996
0.373241
0.369939
0.366549
0.362483
0.357433
0.351732
0.346221
0.342938
0.345895
0.362626
0.400665
0.454656
0.487135
0.363618
0.37324
0.369921
0.366737
0.363214
0.358864
0.35369
0.348082
0.343104
0.340866
0.345911
0.365466
0.406499
0.461045
0.491655
0.367649
0.373241
0.369906
0.366795
0.363639
0.35992
0.355396
0.350164
0.34476
0.340293
0.339205
0.346041
0.368341
0.411721
0.466603
0.495406
0.371255
0.373241
0.369898
0.366797
0.363838
0.36061
0.356741
0.352092
0.346889
0.3417
0.337833
0.337749
0.346351
0.371054
0.416456
0.471205
0.498755
0.37453
0.37324
0.369894
0.366787
0.363895
0.360991
0.357694
0.353692
0.348985
0.343834
0.338939
0.335588
0.336521
0.346769
0.373648
0.420452
0.475282
0.50162
0.377342
0.373239
0.369892
0.366779
0.363902
0.361139
0.35828
0.35489
0.350803
0.346064
0.341033
0.336383
0.333592
0.335465
0.347271
0.375871
0.424075
0.478612
0.504158
0.380201
0.373239
0.369891
0.366774
0.363896
0.361182
0.35855
0.355682
0.352228
0.348073
0.343358
0.338426
0.334076
0.331793
0.334591
0.347673
0.377973
0.427005
0.481528
0.506528
0.38242
0.373239
0.36989
0.366771
0.363888
0.361186
0.358654
0.356081
0.353225
0.349703
0.345531
0.340838
0.336057
0.331971
0.330217
0.333771
0.348138
0.379663
0.429604
0.483938
0.508551
0.385036
0.373238
0.369889
0.366769
0.363882
0.361179
0.358686
0.356255
0.35377
0.350891
0.347351
0.343164
0.338539
0.333894
0.330107
0.328774
0.333124
0.348462
0.381194
0.431626
0.486031
0.510643
0.386802
0.373238
0.369888
0.366768
0.363876
0.361171
0.358689
0.35632
0.354032
0.351572
0.348728
0.345163
0.341003
0.336452
0.331983
0.328421
0.327567
0.332508
0.348796
0.382362
0.433433
0.487722
0.51232
0.389411
0.373238
0.369887
0.366767
0.363872
0.361163
0.358682
0.356336
0.354145
0.351917
0.34956
0.346712
0.343172
0.339063
0.334619
0.330275
0.327005
0.326497
0.33206
0.349046
0.383421
0.434654
0.489241
0.514442
0.390854
0.373238
0.369887
0.366766
0.363868
0.361158
0.358673
0.356334
0.354182
0.352078
0.350007
0.347671
0.344903
0.341407
0.337364
0.33301
0.328872
0.325813
0.325716
0.331695
0.349287
0.384089
0.43585
0.490453
0.515855
0.393486
0.373238
0.369887
0.366766
0.363865
0.361153
0.358665
0.356325
0.354186
0.352141
0.350231
0.348203
0.346024
0.343303
0.339865
0.335932
0.331756
0.327751
0.32495
0.32509
0.331485
0.349477
0.384753
0.436503
0.491749
0.518397
0.394893
0.373239
0.369886
0.366765
0.363863
0.36115
0.358657
0.356315
0.354176
0.352157
0.350325
0.348482
0.346676
0.344537
0.341944
0.338664
0.334863
0.330763
0.32696
0.324358
0.324878
0.331515
0.349729
0.385121
0.437348
0.492587
0.520057
0.505239
0.373239
0.369886
0.366765
0.363862
0.361148
0.358652
0.356307
0.354162
0.352152
0.350352
0.348611
0.347032
0.34526
0.343373
0.340944
0.337726
0.334067
0.330289
0.326735
0.32437
0.324976
0.331667
0.349974
0.385553
0.437731
0.494468
0.528772
0.713773
0.373239
0.369886
0.366764
0.36386
0.361146
0.358647
0.3563
0.354149
0.352139
0.350346
0.348659
0.3472
0.345669
0.344253
0.342456
0.340184
0.337357
0.334054
0.330395
0.326928
0.324618
0.325312
0.332018
0.350342
0.385882
0.438544
0.495039
0.545636
0.892548
0.373239
0.369886
0.366763
0.363859
0.361144
0.358643
0.356294
0.354137
0.352124
0.350327
0.348666
0.347261
0.345884
0.344763
0.343375
0.342003
0.340209
0.337544
0.33437
0.330866
0.327511
0.325255
0.326012
0.3327
0.350866
0.386282
0.439159
0.494769
0.558706
1.03803
0.373239
0.369886
0.366763
0.363858
0.361143
0.35864
0.356289
0.354128
0.352111
0.350306
0.348652
0.347267
0.345979
0.345017
0.343925
0.343178
0.34216
0.340578
0.338172
0.335214
0.331909
0.328706
0.326493
0.327217
0.333729
0.351579
0.38692
0.438914
0.493312
0.568544
1.16513
0.373239
0.369886
0.366763
0.363858
0.361142
0.358637
0.356285
0.35412
0.352099
0.350286
0.34863
0.347247
0.346006
0.34512
0.344254
0.343905
0.343423
0.34274
0.341512
0.339489
0.33687
0.333799
0.330639
0.328368
0.328889
0.335151
0.352603
0.387452
0.438041
0.490232
0.575379
1.26933
0.373239
0.369886
0.366762
0.363857
0.361141
0.358635
0.356281
0.354114
0.352089
0.35027
0.348609
0.347217
0.345996
0.345142
0.34442
0.344293
0.344215
0.344156
0.343979
0.343337
0.34176
0.339443
0.336498
0.333333
0.330874
0.331106
0.337001
0.353876
0.387922
0.436226
0.484935
0.579916
1.3471
0.373239
0.369886
0.366762
0.363857
0.36114
0.358633
0.356278
0.354109
0.352081
0.350256
0.348589
0.347188
0.345968
0.345124
0.344481
0.344486
0.344672
0.345065
0.345651
0.346222
0.346168
0.345023
0.342971
0.340119
0.336828
0.334104
0.333878
0.339317
0.355409
0.388072
0.433155
0.478268
0.582864
1.40709
0.37324
0.369886
0.366762
0.363856
0.36114
0.358632
0.356276
0.354104
0.352074
0.350245
0.348572
0.347162
0.345937
0.345088
0.344484
0.344563
0.344913
0.34562
0.346762
0.348192
0.349518
0.350115
0.349399
0.347588
0.344721
0.34123
0.33807
0.33727
0.342084
0.357127
0.387978
0.429051
0.471651
0.585339
1.45532
0.369886
0.373243
0.366762
0.363856
0.361139
0.35863
0.356273
0.354101
0.352068
0.350235
0.348557
0.347139
0.345907
0.34505
0.344457
0.344576
0.345022
0.345934
0.347477
0.349541
0.351863
0.354046
0.355329
0.355036
0.353374
0.350424
0.346559
0.342852
0.34125
0.345301
0.359321
0.387678
0.424878
0.465392
0.587757
1.49574
0.366761
0.369896
0.373251
0.363856
0.361139
0.358629
0.356272
0.354097
0.352063
0.350227
0.348544
0.347119
0.34588
0.345014
0.34442
0.344555
0.345058
0.346098
0.347915
0.350444
0.353521
0.356866
0.359983
0.361983
0.362047
0.360471
0.357259
0.352912
0.348418
0.345847
0.349275
0.362011
0.387331
0.420799
0.45982
0.590587
1.53092
0.363856
0.366778
0.369917
0.373259
0.361139
0.358628
0.35627
0.354095
0.352058
0.35022
0.348533
0.347102
0.345857
0.344981
0.344384
0.344523
0.345054
0.346175
0.348175
0.351039
0.354682
0.358924
0.363405
0.367531
0.370222
0.370588
0.368924
0.365344
0.360253
0.354806
0.351642
0.354206
0.36507
0.38697
0.417027
0.454884
0.593615
1.56241
0.361139
0.363877
0.366811
0.369938
0.373266
0.358627
0.356268
0.354092
0.352054
0.350214
0.348523
0.347088
0.345836
0.344953
0.34435
0.344489
0.345034
0.346203
0.348329
0.351434
0.355499
0.360433
0.365984
0.371707
0.376865
0.380226
0.380733
0.378872
0.374643
0.368641
0.362785
0.35895
0.359657
0.36833
0.387012
0.413648
0.450723
0.597198
1.59127
0.358626
0.361166
0.363922
0.366845
0.369961
0.373275
0.356267
0.35409
0.352051
0.350209
0.348514
0.347075
0.345817
0.344928
0.344321
0.344458
0.34501
0.34621
0.348421
0.351708
0.356094
0.361562
0.367959
0.374959
0.381983
0.388196
0.392097
0.39264
0.390285
0.385241
0.379081
0.372787
0.367068
0.365588
0.372023
0.387277
0.41067
0.447127
0.600837
1.61803
0.356266
0.358657
0.361221
0.363968
0.366881
0.369983
0.373283
0.354088
0.352048
0.350204
0.348507
0.347065
0.345801
0.344907
0.344295
0.34443
0.344987
0.346209
0.348481
0.351906
0.356556
0.36245
0.369524
0.377554
0.386094
0.394478
0.401657
0.406021
0.406287
0.403278
0.398403
0.392125
0.383867
0.375926
0.371918
0.375837
0.387861
0.408184
0.444072
0.604932
1.64318
0.354087
0.356301
0.358721
0.361278
0.364016
0.366917
0.370007
0.373291
0.352046
0.350201
0.348501
0.347055
0.345787
0.344889
0.344272
0.344406
0.344966
0.346206
0.348525
0.35206
0.356929
0.363194
0.370832
0.379717
0.389511
0.399686
0.409368
0.417472
0.421992
0.421821
0.4194
0.414832
0.406544
0.395925
0.385421
0.378689
0.379786
0.38886
0.4062
0.4415
0.608919
1.66681
0.352044
0.354125
0.356374
0.358787
0.361337
0.364064
0.366954
0.370031
0.3733
0.350197
0.348495
0.347047
0.345775
0.344873
0.344253
0.344385
0.344949
0.346204
0.348563
0.352189
0.35724
0.363837
0.371996
0.38162
0.392486
0.404177
0.415963
0.42694
0.435673
0.440205
0.441099
0.439518
0.432969
0.422204
0.408832
0.395469
0.385821
0.383897
0.390141
0.404604
0.43935
0.613229
1.68926
0.350194
0.352084
0.354205
0.356449
0.358855
0.361397
0.364114
0.366992
0.370055
0.373309
0.34849
0.34704
0.345763
0.34486
0.344236
0.344367
0.344934
0.346203
0.348597
0.352304
0.357513
0.364396
0.373049
0.383392
0.395215
0.408241
0.421842
0.435274
0.447268
0.456536
0.462867
0.465195
0.46172
0.45264
0.438936
0.42246
0.405978
0.393235
0.388171
0.391686
0.403481
0.437603
0.617324
1.71037
0.348486
0.350236
0.35217
0.354286
0.356526
0.358924
0.361459
0.364165
0.367031
0.37008
0.373318
0.347034
0.345753
0.344849
0.344221
0.344351
0.344922
0.346203
0.348629
0.352408
0.357759
0.364899
0.373994
0.385048
0.397849
0.412109
0.427348
0.442941
0.457747
0.470707
0.48264
0.491348
0.491851
0.485812
0.473634
0.456567
0.436672
0.416848
0.400866
0.392571
0.393335
0.402696
0.436171
0.621622
1.73051
0.347029
0.348528
0.350325
0.352258
0.354371
0.356605
0.358996
0.361522
0.364218
0.367072
0.370106
0.373328
0.345745
0.344839
0.344208
0.344338
0.344911
0.346204
0.348659
0.352504
0.357984
0.365358
0.374858
0.386569
0.400381
0.415956
0.432754
0.450349
0.467674
0.483858
0.500208
0.515685
0.523082
0.520903
0.511557
0.495738
0.474914
0.451326
0.427977
0.408642
0.397117
0.395073
0.402241
0.435054
0.625655
1.74939
0.345737
0.347068
0.348617
0.350416
0.352349
0.354457
0.356686
0.359069
0.361588
0.364272
0.367113
0.370133
0.373338
0.344831
0.344195
0.344326
0.344902
0.346206
0.348687
0.352592
0.35819
0.365779
0.375654
0.387976
0.402751
0.419743
0.438267
0.457831
0.477545
0.496677
0.516969
0.53789
0.552789
0.557887
0.552117
0.538731
0.518738
0.493797
0.466283
0.439266
0.416504
0.401758
0.39691
0.402001
0.434155
0.629794
1.76742
0.344825
0.34577
0.347154
0.348709
0.350511
0.352443
0.354547
0.35677
0.359145
0.361655
0.364327
0.367156
0.37016
0.373347
0.344183
0.344315
0.344895
0.346209
0.348713
0.352673
0.358379
0.366167
0.376388
0.389284
0.404974
0.423343
0.443803
0.465651
0.487774
0.509775
0.533782
0.559738
0.580638
0.593853
0.595526
0.585233
0.567105
0.542424
0.513038
0.481408
0.450622
0.424395
0.406451
0.398815
0.402031
0.433502
0.633652
1.78423
0.344173
0.344852
0.345845
0.347242
0.348805
0.350608
0.35254
0.354638
0.356856
0.359223
0.361724
0.364384
0.367199
0.370187
0.373356
0.344306
0.344888
0.346212
0.348738
0.352748
0.358552
0.366523
0.377066
0.3905
0.407059
0.426755
0.44915
0.473674
0.498694
0.523683
0.551451
0.582376
0.608891
0.628514
0.638736
0.635762
0.619977
0.59643
0.566586
0.532472
0.496577
0.461958
0.432259
0.411156
0.400787
0.402147
0.433002
0.637549
1.80031
0.3443
0.344175
0.344914
0.345922
0.347334
0.348904
0.350709
0.35264
0.354733
0.356945
0.359302
0.361794
0.364442
0.367242
0.370213
0.373365
0.344882
0.346214
0.348761
0.352817
0.35871
0.36685
0.37769
0.391629
0.409011
0.429982
0.454286
0.48155
0.510079
0.538864
0.570722
0.606943
0.639134
0.664812
0.681608
0.687338
0.678371
0.656082
0.626463
0.591039
0.551952
0.51168
0.4732
0.440048
0.415842
0.402795
0.402373
0.432714
0.641166
1.8152
0.344879
0.344284
0.344186
0.344977
0.346004
0.347429
0.349008
0.350812
0.352743
0.35483
0.357037
0.359385
0.361867
0.3645
0.367284
0.370239
0.373374
0.346216
0.348781
0.352879
0.358855
0.367149
0.378263
0.392672
0.410831
0.433025
0.459201
0.489198
0.521397
0.555073
0.592319
0.634572
0.673082
0.705116
0.728166
0.740219
0.739655
0.723163
0.693305
0.656973
0.615609
0.571347
0.526622
0.484281
0.447719
0.420477
0.404842
0.402692
0.432515
0.644778
1.82948
0.346222
0.344833
0.344255
0.344199
0.345043
0.346092
0.347528
0.349116
0.350919
0.352849
0.35493
0.35713
0.359468
0.361938
0.364556
0.367325
0.370263
0.373382
0.348797
0.352935
0.358986
0.367422
0.378788
0.393635
0.412522
0.435882
0.463879
0.496575
0.532539
0.571604
0.615911
0.666438
0.712721
0.752403
0.782299
0.800199
0.804912
0.795785
0.769996
0.731435
0.68776
0.640136
0.590542
0.541321
0.495143
0.455234
0.425038
0.406907
0.403072
0.432468
0.648117
1.8426
0.348819
0.346131
0.344732
0.344219
0.344227
0.345112
0.346187
0.34763
0.349228
0.351029
0.352958
0.355032
0.357226
0.359552
0.362008
0.364611
0.367365
0.370287
0.37339
0.352984
0.359104
0.36767
0.379269
0.39452
0.414087
0.438553
0.468305
0.503648
0.543468
0.588246
0.640298
0.702354
0.760737
0.810855
0.849536
0.873764
0.882573
0.876367
0.855861
0.818748
0.770287
0.71865
0.664482
0.609439
0.555708
0.505741
0.462562
0.429504
0.408971
0.403503
0.432495
0.651433
1.85523
0.353039
0.348652
0.345917
0.344622
0.344181
0.344274
0.345182
0.346288
0.347736
0.349344
0.351142
0.353071
0.355137
0.357321
0.359633
0.362076
0.364664
0.367403
0.370311
0.373398
0.359211
0.367895
0.379707
0.395332
0.415533
0.441041
0.472472
0.510399
0.55413
0.604812
0.665059
0.741209
0.818691
0.8866
0.937762
0.970117
0.98258
0.976688
0.955056
0.919909
0.869275
0.809684
0.749487
0.688527
0.62796
0.569729
0.516036
0.469679
0.433858
0.411019
0.403976
0.432569
0.654485
1.86534
0.359321
0.352782
0.348249
0.345692
0.344523
0.344142
0.344334
0.345255
0.346395
0.347845
0.349464
0.351259
0.353186
0.355242
0.357414
0.359712
0.362142
0.364715
0.367441
0.370333
0.373406
0.368098
0.380105
0.396076
0.416865
0.443352
0.476379
0.516813
0.564457
0.621113
0.690144
0.783389
0.886131
0.983309
1.05671
1.10064
1.11761
1.11012
1.0829
1.04091
0.987727
0.921363
0.849443
0.780132
0.712166
0.646037
0.583339
0.525999
0.476565
0.438085
0.413036
0.404475
0.432714
0.657088
1.87387
0.368301
0.358944
0.352125
0.347827
0.345485
0.344434
0.344107
0.344405
0.345332
0.346507
0.347959
0.349588
0.35138
0.353301
0.355343
0.357504
0.359789
0.362205
0.364765
0.367477
0.370356
0.373414
0.380468
0.396753
0.418088
0.445491
0.480032
0.52288
0.574383
0.637027
0.715704
0.829378
0.962831
1.09743
1.20836
1.27578
1.30025
1.29119
1.25516
1.20015
1.13318
1.05882
0.9747
0.889366
0.810455
0.735313
0.663615
0.596506
0.535609
0.483203
0.442173
0.415013
0.404997
0.43286
0.659274
1.88307
0.380818
0.36777
0.357926
0.351442
0.347433
0.345296
0.344353
0.344081
0.344484
0.345414
0.346624
0.348078
0.349715
0.351499
0.353412
0.355442
0.357591
0.359864
0.362268
0.364814
0.367512
0.370377
0.373421
0.397376
0.419209
0.447467
0.483436
0.528594
0.583866
0.652519
0.741906
0.878968
1.04701
1.22398
1.38103
1.49154
1.53862
1.5312
1.48628
1.41437
1.32622
1.23051
1.13242
1.02889
0.92924
0.840333
0.757894
0.680649
0.609204
0.54485
0.489583
0.446115
0.416939
0.405458
0.433025
0.661623
1.89313
0.397961
0.380093
0.366247
0.356873
0.350796
0.347065
0.345121
0.344281
0.344064
0.344568
0.345502
0.346746
0.348201
0.349842
0.351617
0.35352
0.355539
0.357676
0.359936
0.362328
0.364862
0.367546
0.370398
0.373424
0.420246
0.44929
0.486601
0.533955
0.592887
0.6676
0.768763
0.931248
1.1357
1.35709
1.56418
1.72725
1.82177
1.83518
1.78527
1.69666
1.58336
1.45829
1.33122
1.2076
1.08347
0.968834
0.869647
0.779846
0.697104
0.621413
0.553711
0.4957
0.449903
0.418563
0.405871
0.433205
0.664233
1.90403
0.421197
0.396999
0.377865
0.364681
0.355874
0.350185
0.34672
0.344958
0.34422
0.344058
0.344657
0.345599
0.34687
0.348326
0.349965
0.351731
0.353625
0.355633
0.357759
0.360007
0.362386
0.364908
0.36758
0.370408
0.373424
0.450985
0.489538
0.538969
0.601447
0.682285
0.796108
0.984962
1.22586
1.49146
1.74951
1.96901
2.12205
2.18669
2.15506
2.05418
1.91612
1.75774
1.59344
1.43353
1.28338
1.13795
1.00792
0.898291
0.801117
0.712952
0.633123
0.562188
0.501548
0.453055
0.419964
0.406342
0.433473
0.667055
1.91603
0.452513
0.419949
0.393795
0.375592
0.363191
0.354922
0.349603
0.346395
0.344808
0.344169
0.344064
0.344749
0.345704
0.346994
0.34845
0.350084
0.351843
0.353728
0.355725
0.357839
0.360076
0.362443
0.364952
0.367596
0.370408
0.373424
0.492282
0.543655
0.609563
0.696577
0.82365
1.03887
1.31505
1.62321
1.93107
2.20768
2.42371
2.55275
2.57548
2.48931
2.33085
2.13928
1.93362
1.72906
1.53581
1.35881
1.19186
1.04628
0.926163
0.821661
0.728177
0.644328
0.570278
0.506392
0.455754
0.421526
0.406892
0.433762
0.670205
1.92904
0.494716
0.450908
0.415395
0.390554
0.373427
0.361765
0.354007
0.349044
0.34609
0.34467
0.34413
0.344086
0.344841
0.345815
0.347115
0.348572
0.350201
0.351953
0.353827
0.355814
0.357917
0.360143
0.362499
0.364975
0.367596
0.370408
0.373424
0.548057
0.617267
0.710471
0.851065
1.09194
1.40157
1.74988
2.10511
2.43726
2.7171
2.91604
3.00882
2.97918
2.83056
2.6095
2.3618
2.10791
1.86298
1.63663
1.43306
1.24476
1.0837
0.953172
0.841444
0.742766
0.655024
0.576968
0.510527
0.458737
0.423271
0.407523
0.434179
0.673594
1.94339
0.55192
0.492673
0.444485
0.410831
0.387467
0.37135
0.36039
0.353126
0.348509
0.345809
0.344545
0.344099
0.344134
0.34493
0.345929
0.347232
0.348692
0.350315
0.35206
0.353924
0.355901
0.357993
0.360208
0.362526
0.364975
0.367596
0.370408
0.373424
0.624611
0.723964
0.878063
1.14339
1.48431
1.87004
2.26957
2.65419
2.99589
3.26592
3.43575
3.48135
3.39028
3.17281
2.88558
2.58037
2.2782
1.99353
1.7349
1.50543
1.29627
1.12002
0.979247
0.860441
0.756712
0.663873
0.582672
0.515081
0.462041
0.425226
0.408269
0.434616
0.67741
1.95893
0.631072
0.549305
0.483632
0.438114
0.406485
0.384499
0.369341
0.35906
0.352277
0.347995
0.345548
0.34443
0.344062
0.344202
0.345017
0.346043
0.347348
0.348809
0.350425
0.352164
0.354018
0.355985
0.358067
0.36024
0.362526
0.364975
0.367596
0.370408
0.373424
0.737046
0.90441
1.1927
1.56264
1.98298
2.42346
2.85668
3.25636
3.59517
3.84394
3.97382
3.96251
3.80235
3.51116
3.15559
2.79253
2.44277
2.11951
1.82976
1.57539
1.34611
1.15509
1.00433
0.878631
0.768262
0.67142
0.58895
0.520107
0.465705
0.427422
0.409122
0.435243
0.681521
1.9761
0.748616
0.62776
0.536444
0.474771
0.432048
0.4023
0.381622
0.367393
0.357776
0.351462
0.347508
0.345307
0.34433
0.344028
0.34428
0.345103
0.346158
0.34746
0.348924
0.350533
0.352265
0.354109
0.356068
0.358103
0.360241
0.362526
0.364975
0.367596
0.370408
0.373421
0.929891
1.23954
1.63623
2.0884
2.56642
3.04401
3.4967
3.89945
4.22462
4.44185
4.522
4.44529
4.20986
3.84166
3.41685
2.99649
2.60042
2.24007
1.92064
1.64254
1.39402
1.18879
1.02837
0.893715
0.778118
0.67973
0.595871
0.525661
0.469778
0.429891
0.410142
0.435855
0.686185
1.99463
0.744555
0.952277
0.608669
0.524109
0.466335
0.426199
0.398237
0.378828
0.365508
0.356539
0.350683
0.347049
0.345089
0.344244
0.344005
0.344363
0.34519
0.346271
0.347572
0.349037
0.350638
0.352364
0.354198
0.356108
0.358103
0.360241
0.362526
0.364975
0.367596
0.370398
0.373413
1.28365
1.70499
2.1863
2.69851
3.21619
3.71642
4.1767
4.57236
4.87449
5.05097
5.07265
4.92336
4.60814
4.16118
3.66741
3.19106
2.75039
2.3547
2.00715
1.70661
1.43986
1.22104
1.04831
0.906598
0.788977
0.688892
0.603511
0.531809
0.474314
0.432681
0.411305
0.436672
0.691221
2.01515
0.714539
0.948213
1.32164
0.590925
0.51241
0.458189
0.420517
0.394288
0.376121
0.363689
0.355352
0.349942
0.346626
0.344897
0.344173
0.343994
0.344448
0.345279
0.346383
0.347681
0.349147
0.350741
0.35246
0.354242
0.356108
0.358103
0.360241
0.362526
0.364975
0.36758
0.370377
0.373406
1.76886
2.27687
2.82007
3.37364
3.91588
4.4266
4.88463
5.26472
5.53565
5.6631
5.61864
5.39112
4.99328
4.46731
3.9059
3.3755
2.89226
2.46309
2.08908
1.76746
1.48351
1.24774
1.06534
0.9208
0.800956
0.69901
0.611958
0.538627
0.479378
0.435833
0.412708
0.437459
0.696959
2.03719
0.686973
0.900515
1.31778
1.82329
0.574381
0.501107
0.450273
0.414991
0.390456
0.373503
0.361938
0.354217
0.349247
0.346247
0.344732
0.344118
0.343996
0.344533
0.34537
0.346492
0.347788
0.349254
0.350842
0.352508
0.354242
0.356108
0.358103
0.360241
0.362526
0.364952
0.367546
0.370355
0.373398
2.36026
2.9316
3.51712
4.09601
4.64999
5.16126
5.60928
5.96691
6.19948
6.27046
6.15345
5.8437
5.36213
4.7583
4.13148
3.54942
3.02583
2.56518
2.16637
1.82499
1.51945
1.2705
1.08411
0.936476
0.814191
0.7102
0.621315
0.546202
0.485043
0.439418
0.414302
0.438553
0.703202
2.06164
0.661665
0.85542
1.24872
1.82058
2.43067
0.558567
0.490109
0.442577
0.409628
0.38675
0.370981
0.360259
0.353145
0.348615
0.345914
0.344591
0.344078
0.34401
0.344616
0.345463
0.346598
0.347895
0.34936
0.350891
0.352507
0.354242
0.356108
0.358103
0.36024
0.362498
0.364907
0.367511
0.370333
0.37339
3.03353
3.64758
4.25819
4.84854
5.40375
5.90811
6.34044
6.67008
6.85789
6.86583
6.67122
6.27701
5.71231
5.03302
4.34369
3.71268
3.15114
2.66098
2.23901
1.87207
1.54999
1.29553
1.10481
0.953801
0.828834
0.722597
0.631698
0.554636
0.491397
0.443488
0.416247
0.439606
0.710308
2.08769
0.63797
0.813181
1.18078
1.73265
2.43005
3.11887
0.543278
0.479409
0.435111
0.404437
0.383175
0.368559
0.358668
0.352162
0.348051
0.345623
0.344471
0.34405
0.344039
0.344697
0.345556
0.346703
0.348001
0.349412
0.35089
0.352507
0.354242
0.356108
0.358103
0.360208
0.362442
0.36486
0.367476
0.37031
0.373382
3.7658
4.40396
5.02448
5.61477
6.16356
6.6562
7.06907
7.36607
7.50325
7.44248
7.1668
6.68781
6.04217
5.29082
4.5424
3.86541
3.26833
2.75064
2.29813
1.91189
1.58344
1.32307
1.12767
0.972969
0.845057
0.736353
0.643244
0.564047
0.498539
0.448151
0.418451
0.441114
0.71816
2.11667
0.615549
0.773406
1.11445
1.64439
2.32576
3.12082
3.86357
0.528459
0.469029
0.427891
0.399431
0.379742
0.366259
0.357205
0.35128
0.347546
0.345372
0.34437
0.344028
0.344085
0.344774
0.345653
0.346809
0.348052
0.34941
0.350889
0.352507
0.354242
0.356108
0.358066
0.360142
0.362385
0.364813
0.367439
0.370286
0.373374
4.5346
5.18021
5.79768
6.37959
6.91749
7.3962
7.78719
8.04734
8.12839
7.99433
7.63594
7.07374
6.3507
5.53146
4.72776
4.00786
3.37767
2.82333
2.34796
1.9553
1.62007
1.35338
1.15292
0.994198
0.863057
0.751645
0.656107
0.574572
0.506597
0.453472
0.421175
0.442586
0.727009
2.14719
0.594249
0.735971
1.04953
1.55626
2.22012
3.00218
3.86737
4.6406
0.514111
0.458995
0.420933
0.394621
0.37648
0.364141
0.355887
0.350488
0.347094
0.345156
0.344283
0.344001
0.344142
0.344852
0.345754
0.346859
0.348049
0.34941
0.350889
0.352507
0.354242
0.356067
0.357992
0.360074
0.362326
0.364764
0.367402
0.370262
0.373365
5.31769
5.95609
6.5611
7.12982
7.65571
8.12038
8.48769
8.70676
8.72657
8.51607
8.07538
7.43324
6.63747
5.75512
4.90013
4.1404
3.46604
2.88444
2.40209
2.00261
1.66018
1.38673
1.18082
1.01773
0.883056
0.768674
0.67047
0.586375
0.515703
0.459622
0.424264
0.444717
0.737047
2.18705
0.573987
0.700916
0.986137
1.46783
2.11351
2.88179
3.7357
4.64401
5.42606
0.500253
0.449335
0.414254
0.390053
0.373473
0.36223
0.3547
0.349776
0.346691
0.344969
0.344211
0.34398
0.344208
0.344938
0.345803
0.346853
0.348049
0.34941
0.35089
0.352508
0.354198
0.355984
0.357915
0.360005
0.362265
0.364713
0.367363
0.370238
0.373356
6.09284
6.71326
7.30009
7.85495
8.37067
8.82221
9.16408
9.33756
9.29163
9.00335
8.4828
7.76556
6.90261
5.96221
5.05998
4.24723
3.5402
2.95063
2.46085
2.05413
1.70407
1.42341
1.21165
1.04383
0.905301
0.787668
0.686543
0.599643
0.526044
0.466683
0.42813
0.446851
0.750128
2.23507
0.554695
0.668306
0.924684
1.37899
2.0054
2.75984
3.60263
4.4997
5.42539
6.197
0.486914
0.440079
0.407917
0.385844
0.37076
0.360506
0.35363
0.349137
0.346334
0.344809
0.344149
0.343972
0.34429
0.344973
0.345797
0.346852
0.348049
0.34941
0.350891
0.352459
0.354108
0.355899
0.357836
0.359934
0.362203
0.364662
0.367324
0.370212
0.373347
6.84013
7.43546
8.00319
8.54744
9.0563
9.49622
9.81028
9.93312
9.81807
9.45286
8.8569
8.07069
7.14663
6.15336
5.18839
4.33671
3.62036
3.02229
2.52458
2.11018
1.75205
1.46375
1.24573
1.0728
0.930068
0.808886
0.704565
0.614606
0.537805
0.474925
0.432537
0.450555
0.767137
2.28336
0.536325
0.638148
0.865763
1.28997
1.89538
2.63568
3.46807
4.35524
5.26752
6.18766
6.93192
0.47413
0.431317
0.402085
0.382047
0.368311
0.358951
0.352668
0.348565
0.346019
0.344668
0.344106
0.343994
0.344328
0.344957
0.345797
0.346852
0.348049
0.349412
0.350841
0.352362
0.354015
0.355811
0.357756
0.359861
0.362139
0.364609
0.367283
0.370186
0.373337
7.54157
8.11009
8.66288
9.2013
9.70812
10.138
10.4201
10.487
10.3013
9.8625
9.19745
8.34923
7.37033
6.30616
5.29566
4.43322
3.70692
3.09977
2.59363
2.17111
1.80445
1.50806
1.28336
1.10494
0.95766
0.832618
0.724816
0.631513
0.551256
0.484456
0.439166
0.454809
0.786126
2.33155
0.51884
0.610364
0.81005
1.20126
1.7833
2.5086
3.33131
4.21019
5.11194
6.01353
6.90789
7.61153
0.462028
0.423274
0.396828
0.378623
0.366102
0.35755
0.351802
0.348053
0.34574
0.344555
0.344099
0.343992
0.344316
0.344954
0.345797
0.346853
0.348052
0.349359
0.350739
0.352262
0.35392
0.355722
0.357673
0.359786
0.362074
0.364555
0.367242
0.37016
0.373328
8.18333
8.72919
9.26771
9.80334
10.3123
10.7377
10.9868
10.9933
10.7381
10.2315
9.50503
8.60219
7.5478
6.43332
5.41102
4.53717
3.80029
3.18345
2.66834
2.23722
1.8616
1.55665
1.32487
1.14058
0.9884
0.859184
0.747601
0.650688
0.566667
0.497792
0.447999
0.46113
0.807509
2.37892
0.502338
0.584797
0.758214
1.1136
1.66928
2.37806
3.19136
4.06381
4.95766
5.84574
6.71379
7.56519
8.22145
0.450931
0.416045
0.392093
0.375536
0.36411
0.356287
0.351022
0.347592
0.345505
0.344497
0.344082
0.34396
0.344317
0.344954
0.345797
0.346859
0.348
0.349252
0.350635
0.35216
0.353823
0.35563
0.357588
0.359709
0.362006
0.364499
0.367199
0.370133
0.373318
8.75506
9.28167
9.81898
10.3625
10.8713
11.2871
11.5023
11.4469
11.1268
10.5603
9.78089
8.80081
7.69467
6.56945
5.53484
4.64896
3.90084
3.27369
2.74905
2.30885
1.92379
1.60986
1.3706
1.18006
1.02263
0.888921
0.773289
0.672466
0.587713
0.515669
0.459176
0.46788
0.83071
2.42533
0.487205
0.561382
0.71082
1.02793
1.55358
2.24375
3.04729
3.91491
4.80396
5.68242
6.53152
7.34692
8.13948
8.75338
0.440981
0.409549
0.387829
0.372754
0.362313
0.355145
0.350317
0.347197
0.345353
0.344449
0.344042
0.343957
0.344317
0.344957
0.345803
0.346808
0.347893
0.349144
0.350529
0.352056
0.353724
0.355536
0.357501
0.359631
0.361937
0.364442
0.367156
0.370106
0.373309
9.25337
9.76801
10.3151
10.8791
11.3914
11.7844
11.9605
11.8449
11.4672
10.8503
9.99443
8.96389
7.85086
6.7148
5.66747
4.76895
4.00892
3.37083
2.83608
2.38628
1.99131
1.66796
1.42083
1.22369
1.06068
0.922201
0.802222
0.701867
0.615441
0.536507
0.472068
0.476848
0.857618
2.46998
0.47361
0.54038
0.66848
0.945474
1.43673
2.10551
2.8983
3.76219
4.64949
5.52277
6.35822
7.14698
7.89412
8.61393
9.19
0.432072
0.403713
0.38399
0.370246
0.360689
0.354111
0.349704
0.346918
0.34525
0.344395
0.34404
0.343957
0.344315
0.344973
0.345754
0.346701
0.347785
0.349033
0.350421
0.351949
0.353622
0.355439
0.357411
0.35955
0.361866
0.364384
0.367112
0.37008
0.3733
9.66538
10.182
10.7537
11.3476
11.8656
12.2235
12.3554
12.1867
11.7608
11.0703
10.1678
9.13568
8.01632
6.86951
5.80912
4.89742
4.12485
3.47515
2.92968
2.46976
2.06441
1.73122
1.47586
1.27178
1.1029
0.959327
0.840895
0.73992
0.646587
0.560272
0.488202
0.487122
0.886447
2.51273
0.46142
0.52173
0.632044
0.868256
1.3196
1.96337
2.74367
3.60438
4.49264
5.36525
6.19294
6.96187
7.67322
8.33956
8.98298
9.52349
0.424101
0.398469
0.380536
0.367981
0.359218
0.353208
0.349253
0.346744
0.345171
0.344393
0.34404
0.34396
0.344328
0.344937
0.345651
0.346595
0.347677
0.34892
0.35031
0.351839
0.353517
0.355341
0.35732
0.359468
0.361794
0.364326
0.367071
0.370054
0.373291
9.98729
10.5225
11.136
11.7664
12.2844
12.5958
12.6818
12.4725
11.9772
11.2462
10.3481
9.31562
8.19077
7.03353
5.95993
5.03457
4.24884
3.58688
3.03008
2.55949
2.14326
1.79982
1.53588
1.32457
1.14951
1.0084
0.889999
0.781555
0.681186
0.587738
0.507111
0.500071
0.92017
2.55276
0.450515
0.505035
0.60142
0.799561
1.20427
1.81763
2.5828
3.44014
4.33172
5.20804
6.03389
6.79036
7.474
8.09481
8.67257
9.23744
9.74845
0.416971
0.393759
0.377421
0.36593
0.357926
0.352523
0.34898
0.346639
0.345169
0.344393
0.344042
0.343992
0.344289
0.344851
0.345554
0.346488
0.347567
0.348805
0.350197
0.351728
0.353409
0.35524
0.357226
0.359384
0.361722
0.364271
0.36703
0.37003
0.373283
10.2148
10.7906
11.4642
12.1305
12.6356
12.8926
12.9359
12.6736
12.146
11.4255
10.5338
9.50276
8.37365
7.20662
6.11984
5.18049
4.38103
3.70617
3.1374
2.65557
2.22798
1.87387
1.60103
1.38218
1.21036
1.06947
0.942449
0.826558
0.719388
0.6188
0.530161
0.515682
0.956578
2.58978
0.440782
0.490026
0.575466
0.740822
1.09543
1.66994
2.41525
3.26814
4.16481
5.04908
5.87902
6.63026
7.295
7.87927
8.40023
8.8851
9.36647
9.85533
0.410592
0.38952
0.374604
0.364126
0.356929
0.352119
0.348841
0.346639
0.345169
0.344394
0.344082
0.343994
0.344207
0.344772
0.345459
0.346379
0.347456
0.348687
0.350081
0.351614
0.353299
0.355137
0.35713
0.359301
0.361653
0.364216
0.366991
0.370006
0.373274
10.3451
10.9899
11.7375
12.4259
12.9051
13.1112
13.0951
12.8237
12.3129
11.6057
10.7231
9.69574
8.56405
7.38825
6.2886
5.33506
4.5214
3.83304
3.25168
2.75803
2.31856
1.95338
1.6713
1.45642
1.2846
1.13324
0.997681
0.874574
0.760933
0.653881
0.557089
0.534804
0.998799
2.62328
0.432111
0.476525
0.553169
0.691541
0.996471
1.52535
2.24207
3.08705
3.98985
4.88603
5.72604
6.47928
7.13353
7.69136
8.16641
8.5812
8.96991
9.35795
9.83452
0.404872
0.385696
0.372124
0.362713
0.356349
0.351937
0.348842
0.346638
0.34517
0.344449
0.3441
0.343972
0.34414
0.344694
0.345366
0.346267
0.347343
0.348568
0.349962
0.351497
0.353186
0.355032
0.357035
0.35922
0.361585
0.364163
0.366952
0.369982
0.373266
10.3759
11.125
11.9385
12.6332
13.0739
13.2313
13.2001
12.9619
12.4745
11.7838
10.9135
9.89269
8.76064