/*--------------------------------*- C++ -*----------------------------------*\
  =========                 |
  \\      /  F ield         | OpenFOAM: The Open Source CFD Toolbox
   \\    /   O peration     | Website:  https://openfoam.org
    \\  /    A nd           | Version:  8
     \\/     M anipulation  |
\*---------------------------------------------------------------------------*/
FoamFile
{
    version     2.0;
    format      ascii;
    class       volVectorField;
    location    "0.05";
    object      U;
}
// * * * * * * * * * * * * * * * * * * * * * * * * * * * * * * * * * * * * * //

dimensions      [0 1 -1 0 0 0 0];

internalField   nonuniform List<vector> 
15677
(
(-0.0199317 9.66506 0)
(0.0435748 9.92084 0)
(0.00238177 9.37803 0)
(0.0147377 9.97646 0)
(0.0186121 9.78776 0)
(0.00701891 9.14236 0)
(0.0279631 9.99433 0)
(0.0171072 9.9248 0)
(0.0107322 9.65497 0)
(0.00608238 8.96008 0)
(0.02611 10.0015 0)
(0.0215032 9.97855 0)
(0.0163928 9.85342 0)
(0.00901858 9.53033 0)
(0.00490799 8.8168 0)
(0.0249565 10.0047 0)
(0.0223759 10.0027 0)
(0.01918 9.94291 0)
(0.0153695 9.7793 0)
(0.00788278 9.41947 0)
(0.00403751 8.70226 0)
(0.0239794 10.0062 0)
(0.0225524 10.0142 0)
(0.0207908 9.9861 0)
(0.0182791 9.90238 0)
(0.0138972 9.7079 0)
(0.00680926 9.32142 0)
(0.00336907 8.60998 0)
(0.0226395 10.0067 0)
(0.0223894 10.0199 0)
(0.0216176 10.0081 0)
(0.0201781 9.96497 0)
(0.0170435 9.86188 0)
(0.0124648 9.64079 0)
(0.00586056 9.23621 0)
(0.00280865 8.53592 0)
(0.0209548 10.0067 0)
(0.021849 10.0223 0)
(0.0219422 10.0195 0)
(0.0212692 9.99811 0)
(0.0190826 9.94375 0)
(0.0156546 9.82238 0)
(0.0110994 9.57955 0)
(0.00498264 9.16392 0)
(0.00229198 8.47741 0)
(0.0190383 10.0063 0)
(0.021012 10.0226 0)
(0.0218358 10.0255 0)
(0.0217684 10.0162 0)
(0.0202554 9.98822 0)
(0.0177155 9.92293 0)
(0.0141819 9.78538 0)
(0.00970685 9.52561 0)
(0.00411722 9.10431 0)
(0.0017827 8.4329 0)
(0.0169658 10.0057 0)
(0.0199515 10.0218 0)
(0.0213837 10.0284 0)
(0.0217972 10.0263 0)
(0.0208025 10.0132 0)
(0.018865 9.97877 0)
(0.0161664 9.9037 0)
(0.0125563 9.75238 0)
(0.00822444 9.47995 0)
(0.00322335 9.05717 0)
(0.00125011 8.40139 0)
(0.0147606 10.0051 0)
(0.0186552 10.0203 0)
(0.0206244 10.0292 0)
(0.0214772 10.0317 0)
(0.0208527 10.0274 0)
(0.019328 10.0106 0)
(0.0171924 9.97074 0)
(0.0143515 9.88726 0)
(0.0107145 9.72454 0)
(0.00660431 9.44332 0)
(0.00225635 9.02246 0)
(0.000671035 8.38266 0)
(0.0124451 10.0044 0)
(0.0172237 10.0183 0)
(0.0195676 10.0285 0)
(0.0208123 10.0341 0)
(0.020465 10.0355 0)
(0.0192558 10.0291 0)
(0.0174719 10.0093 0)
(0.0151415 9.96515 0)
(0.012192 9.87464 0)
(0.0085971 9.7029 0)
(0.00479511 9.4165 0)
(0.00118119 9.00019 0)
(-3.60547e-06 8.37647 0)
(0.0101688 10.0036 0)
(0.0157272 10.0161 0)
(0.018257 10.0268 0)
(0.0198265 10.0346 0)
(0.0197485 10.0396 0)
(0.0187319 10.0398 0)
(0.0171646 10.032 0)
(0.0151201 10.0104 0)
(0.012618 9.96293 0)
(0.00961092 9.86679 0)
(0.00613941 9.68854 0)
(0.00274923 9.40012 0)
(-2.04792e-06 8.99056 0)
(-0.000639692 8.38274 0)
(0.00821635 10.0029 0)
(0.0141202 10.0136 0)
(0.0167433 10.0245 0)
(0.0185322 10.0335 0)
(0.0186878 10.0412 0)
(0.0178159 10.0458 0)
(0.0163621 10.0454 0)
(0.0144476 10.0372 0)
(0.0121587 10.0147 0)
(0.00952425 9.96491 0)
(0.00652548 9.86474 0)
(0.00327939 9.68241 0)
(0.000420981 9.39479 0)
(-0.00136084 8.99386 0)
(-0.00140925 8.40162 0)
(0.00666173 10.0023 0)
(0.0125666 10.0113 0)
(0.0150558 10.0217 0)
(0.0169424 10.0314 0)
(0.0172904 10.0408 0)
(0.0165193 10.0485 0)
(0.0151096 10.0531 0)
(0.0132166 10.0532 0)
(0.0109701 10.0454 0)
(0.00846904 10.0229 0)
(0.00575392 9.97202 0)
(0.00285528 9.86945 0)
(-7.01334e-05 9.68545 0)
(-0.00222842 9.40118 0)
(-0.00290782 9.01027 0)
(-0.00228521 8.43342 0)
(0.00550463 10.0018 0)
(0.0111618 10.0093 0)
(0.0133988 10.0189 0)
(0.0150843 10.0286 0)
(0.0155611 10.0391 0)
(0.014848 10.0489 0)
(0.0134243 10.057 0)
(0.0114695 10.0625 0)
(0.00914234 10.0639 0)
(0.00659037 10.0574 0)
(0.00391999 10.0359 0)
(0.00121159 9.98516 0)
(-0.00146303 9.88192 0)
(-0.00386418 9.69854 0)
(-0.00521439 9.41982 0)
(-0.0046384 9.04003 0)
(-0.00325933 8.4782 0)
(0.00453694 10.0014 0)
(0.00977924 10.0077 0)
(0.0118945 10.0164 0)
(0.0132028 10.0256 0)
(0.0135139 10.0363 0)
(0.0128046 10.0475 0)
(0.0113093 10.0581 0)
(0.00922065 10.0674 0)
(0.00671396 10.0747 0)
(0.00397208 10.0782 0)
(0.00115158 10.074 0)
(-0.00161461 10.0545 0)
(-0.00422355 10.0053 0)
(-0.00653385 9.90306 0)
(-0.0082299 9.72249 0)
(-0.00857911 9.45111 0)
(-0.0065612 9.08322 0)
(-0.0043278 8.53599 0)
(0.00375076 10.0011 0)
(0.0085397 10.0064 0)
(0.0104676 10.0143 0)
(0.0114641 10.0229 0)
(0.0114044 10.0331 0)
(0.010399 10.0448 0)
(0.00876475 10.0571 0)
(0.00646985 10.0692 0)
(0.00369343 10.0806 0)
(0.000645138 10.0905 0)
(-0.002483 10.0969 0)
(-0.00551575 10.096 0)
(-0.00828074 10.0797 0)
(-0.010639 10.0332 0)
(-0.0123993 9.93375 0)
(-0.0131946 9.75788 0)
(-0.0123373 9.49536 0)
(-0.00868415 9.13995 0)
(-0.00548823 8.60667 0)
(0.00311072 10.0009 0)
(0.00742209 10.0053 0)
(0.00915968 10.0124 0)
(0.00982821 10.0204 0)
(0.00942736 10.03 0)
(0.00792124 10.0414 0)
(0.00579906 10.0544 0)
(0.00321476 10.0684 0)
(7.63723e-05 10.0828 0)
(-0.00338975 10.0971 0)
(-0.00696239 10.1105 0)
(-0.0104247 10.1209 0)
(-0.013563 10.1242 0)
(-0.0161836 10.1122 0)
(-0.0181029 10.0698 0)
(-0.0190933 9.97468 0)
(-0.018763 9.80524 0)
(-0.0164864 9.55272 0)
(-0.010994 9.21 0)
(-0.00672927 8.68989 0)
(0.00258497 10.0008 0)
(0.00641223 10.0045 0)
(0.0079559 10.0108 0)
(0.00831065 10.0182 0)
(0.00755746 10.0271 0)
(0.00560104 10.0379 0)
(0.00276407 10.0507 0)
(-0.000533849 10.0657 0)
(-0.00413901 10.0822 0)
(-0.00814217 10.0997 0)
(-0.0122931 10.1178 0)
(-0.0163414 10.1355 0)
(-0.0200355 10.1509 0)
(-0.0231364 10.1595 0)
(-0.0254181 10.1529 0)
(-0.0266681 10.1158 0)
(-0.0266336 10.0265 0)
(-0.024929 9.86482 0)
(-0.0210117 9.62313 0)
(-0.0134827 9.29317 0)
(-0.00804417 8.78519 0)
(0.00216742 10.0006 0)
(0.00550416 10.0038 0)
(0.00685103 10.0095 0)
(0.00691393 10.0162 0)
(0.00581439 10.0243 0)
(0.0034133 10.0345 0)
(-6.21401e-05 10.0468 0)
(-0.00433575 10.0616 0)
(-0.00893921 10.0793 0)
(-0.0136163 10.0991 0)
(-0.0184952 10.1206 0)
(-0.0232914 10.1433 0)
(-0.0277169 10.1664 0)
(-0.0314938 10.1877 0)
(-0.0343542 10.2026 0)
(-0.0360528 10.2023 0)
(-0.0363587 10.1717 0)
(-0.0350148 10.0895 0)
(-0.0316702 9.93675 0)
(-0.0258837 9.70641 0)
(-0.0161213 9.38884 0)
(-0.00941192 8.89178 0)
(0.00184698 10.0005 0)
(0.00472897 10.0032 0)
(0.00584317 10.0083 0)
(0.00564016 10.0144 0)
(0.0042113 10.0218 0)
(0.00138422 10.0312 0)
(-0.00271005 10.0428 0)
(-0.00785538 10.0571 0)
(-0.0137694 10.0746 0)
(-0.0197947 10.0957 0)
(-0.0255764 10.1198 0)
(-0.0313053 10.1461 0)
(-0.0366528 10.1745 0)
(-0.0412999 10.2039 0)
(-0.0449433 10.232 0)
(-0.0473013 10.2541 0)
(-0.0481191 10.2612 0)
(-0.0471673 10.238 0)
(-0.0442066 10.1639 0)
(-0.0389411 10.0209 0)
(-0.0310596 9.80208 0)
(-0.0188896 9.49642 0)
(-0.0108146 9.00893 0)
(0.00159813 10.0005 0)
(0.00410058 10.0028 0)
(0.00496763 10.0073 0)
(0.00448915 10.0128 0)
(0.00275631 10.0195 0)
(-0.000466294 10.028 0)
(-0.00514556 10.0388 0)
(-0.0111346 10.0523 0)
(-0.0182144 10.0693 0)
(-0.025968 10.0903 0)
(-0.0335141 10.1157 0)
(-0.0403956 10.1449 0)
(-0.0468883 10.1771 0)
(-0.0526258 10.2121 0)
(-0.0572637 10.2487 0)
(-0.0604893 10.2844 0)
(-0.0620193 10.3145 0)
(-0.0616103 10.3298 0)
(-0.0590525 10.315 0)
(-0.0541456 10.2497 0)
(-0.046677 10.1169 0)
(-0.0364862 9.90952 0)
(-0.021729 9.61489 0)
(-0.0122128 9.13502 0)
(0.00140147 10.0004 0)
(0.00359298 10.0025 0)
(0.00424339 10.0065 0)
(0.00350256 10.0113 0)
(0.00145347 10.0173 0)
(-0.00212555 10.0251 0)
(-0.00734338 10.0349 0)
(-0.0141278 10.0474 0)
(-0.0223314 10.0636 0)
(-0.0316188 10.084 0)
(-0.0414014 10.1092 0)
(-0.0505333 10.1399 0)
(-0.0584435 10.1752 0)
(-0.0655372 10.2143 0)
(-0.0714195 10.2567 0)
(-0.0757387 10.3014 0)
(-0.0781873 10.3456 0)
(-0.0785033 10.3844 0)
(-0.076474 10.4085 0)
(-0.0719348 10.4026 0)
(-0.0647452 10.3467 0)
(-0.0547924 10.2243 0)
(-0.0420521 10.0278 0)
(-0.0245298 9.74295 0)
(-0.0131667 9.26836 0)
(0.0012438 10.0004 0)
(0.00318161 10.0022 0)
(0.00364699 10.0058 0)
(0.0027008 10.0102 0)
(0.000353753 10.0154 0)
(-0.00358712 10.0222 0)
(-0.00928541 10.0311 0)
(-0.0168009 10.0426 0)
(-0.0260635 10.0576 0)
(-0.0368264 10.0769 0)
(-0.0485918 10.1015 0)
(-0.060566 10.132 0)
(-0.0712837 10.1689 0)
(-0.0800662 10.2114 0)
(-0.0875035 10.2583 0)
(-0.0931934 10.3091 0)
(-0.0967956 10.3626 0)
(-0.0980345 10.416 0)
(-0.0966935 10.464 0)
(-0.0926183 10.4973 0)
(-0.0857014 10.5006 0)
(-0.0758826 10.4544 0)
(-0.0631452 10.3422 0)
(-0.0477066 10.1559 0)
(-0.0273055 9.88032 0)
(-0.014231 9.40892 0)
(0.00111573 10.0003 0)
(0.00284376 10.002 0)
(0.00315487 10.0053 0)
(0.00205304 10.0092 0)
(-0.000519331 10.0138 0)
(-0.0047925 10.0197 0)
(-0.0109604 10.0275 0)
(-0.019129 10.0378 0)
(-0.0293661 10.0515 0)
(-0.0415203 10.0695 0)
(-0.0551931 10.0929 0)
(-0.0696864 10.1226 0)
(-0.0839578 10.1593 0)
(-0.0961737 10.2036 0)
(-0.105563 10.2542 0)
(-0.112979 10.3098 0)
(-0.118039 10.3698 0)
(-0.120442 10.4328 0)
(-0.119972 10.4957 0)
(-0.116484 10.5533 0)
(-0.1099 10.5961 0)
(-0.100195 10.6088 0)
(-0.0873824 10.5721 0)
(-0.0715824 10.4696 0)
(-0.0525582 10.2928 0)
(-0.0236796 10.0205 0)
(-0.00924339 9.49404 0)
(0.00101044 10.0003 0)
(0.00256481 10.0018 0)
(0.00274612 10.0048 0)
(0.00152761 10.0084 0)
(-0.00120467 10.0124 0)
(-0.00572212 10.0175 0)
(-0.0123014 10.0241 0)
(-0.0210953 10.0331 0)
(-0.0322058 10.0453 0)
(-0.0456436 10.0619 0)
(-0.0611184 10.0837 0)
(-0.0780385 10.1121 0)
(-0.0954595 10.1479 0)
(-0.112047 10.1918 0)
(-0.125556 10.2445 0)
(-0.13517 10.3042 0)
(-0.142091 10.3694 0)
(-0.14598 10.4393 0)
(-0.146613 10.5122 0)
(-0.143867 10.585 0)
(-0.137699 10.6523 0)
(-0.128129 10.7045 0)
(-0.115198 10.7265 0)
(-0.0990304 10.6989 0)
(-0.0795218 10.6055 0)
(-0.057235 10.4356 0)
(-0.019327 10.1915 0)
(-0.00143202 9.55939 0)
(0.00092292 10.0003 0)
(0.00233355 10.0017 0)
(0.00240313 10.0045 0)
(0.00110379 10.0076 0)
(-0.0017422 10.0112 0)
(-0.00642539 10.0156 0)
(-0.0132959 10.0211 0)
(-0.0226209 10.0286 0)
(-0.0345585 10.0393 0)
(-0.0491515 10.0541 0)
(-0.0662952 10.0741 0)
(-0.0855155 10.1007 0)
(-0.105978 10.135 0)
(-0.126441 10.1779 0)
(-0.145251 10.2302 0)
(-0.159729 10.2922 0)
(-0.169051 10.3621 0)
(-0.174866 10.4376 0)
(-0.176935 10.5178 0)
(-0.175153 10.6009 0)
(-0.16952 10.6837 0)
(-0.160113 10.7606 0)
(-0.147044 10.822 0)
(-0.130448 10.8528 0)
(-0.110291 10.8339 0)
(-0.0864852 10.7488 0)
(-0.0609814 10.5921 0)
(-0.0212508 10.3642 0)
(0.00262897 9.61626 0)
(0.000849471 10.0002 0)
(0.00214089 10.0016 0)
(0.00211736 10.0041 0)
(0.000761791 10.007 0)
(-0.00216179 10.0102 0)
(-0.00695109 10.0139 0)
(-0.0140098 10.0185 0)
(-0.0237021 10.0247 0)
(-0.0363297 10.0335 0)
(-0.0520111 10.0462 0)
(-0.0706648 10.0643 0)
(-0.0920251 10.0887 0)
(-0.115382 10.1209 0)
(-0.139603 10.1621 0)
(-0.163117 10.2133 0)
(-0.183929 10.275 0)
(-0.198889 10.3475 0)
(-0.207245 10.4282 0)
(-0.211228 10.5146 0)
(-0.210747 10.6054 0)
(-0.205845 10.6989 0)
(-0.196675 10.7915 0)
(-0.183436 10.8778 0)
(-0.166343 10.948 0)
(-0.145445 10.9871 0)
(-0.120625 10.9764 0)
(-0.0920197 10.9001 0)
(-0.0623881 10.7614 0)
(-0.0245835 10.5338 0)
(0.0035557 9.67273 0)
(0.000787344 10.0002 0)
(0.0019795 10.0015 0)
(0.00187934 10.0039 0)
(0.000482013 10.0065 0)
(-0.00248828 10.0093 0)
(-0.00733822 10.0125 0)
(-0.0145061 10.0163 0)
(-0.0244277 10.0213 0)
(-0.0375272 10.0283 0)
(-0.0541072 10.0388 0)
(-0.0741826 10.0542 0)
(-0.0974912 10.0762 0)
(-0.123555 10.1059 0)
(-0.151369 10.1448 0)
(-0.179462 10.1942 0)
(-0.205899 10.2548 0)
(-0.228318 10.3269 0)
(-0.243113 10.4107 0)
(-0.249697 10.503 0)
(-0.251019 10.6006 0)
(-0.247177 10.7023 0)
(-0.238403 10.806 0)
(-0.225006 10.9082 0)
(-0.207322 11.0032 0)
(-0.185565 11.0816 0)
(-0.15976 11.1287 0)
(-0.130224 11.126 0)
(-0.0971557 11.0596 0)
(-0.064151 10.9381 0)
(-0.0273126 10.6989 0)
(0.00318066 9.74589 0)
(0.000734438 10.0002 0)
(0.00184349 10.0014 0)
(0.0016825 10.0036 0)
(0.000251932 10.006 0)
(-0.00274214 10.0085 0)
(-0.00761809 10.0112 0)
(-0.0148355 10.0143 0)
(-0.0248808 10.0182 0)
(-0.0382699 10.0238 0)
(-0.055462 10.032 0)
(-0.0767062 10.0446 0)
(-0.101854 10.0635 0)
(-0.1304 10.0904 0)
(-0.161594 10.1264 0)
(-0.194089 10.1731 0)
(-0.226031 10.2317 0)
(-0.255084 10.3028 0)
(-0.278548 10.3864 0)
(-0.292369 10.4824 0)
(-0.296245 10.5867 0)
(-0.293976 10.6958 0)
(-0.285897 10.8082 0)
(-0.272455 10.9218 0)
(-0.254127 11.0331 0)
(-0.231333 11.1363 0)
(-0.20433 11.2224 0)
(-0.173549 11.277 0)
(-0.13977 11.282 0)
(-0.103108 11.2263 0)
(-0.0667498 11.1169 0)
(-0.0301415 10.8787 0)
(0.00209988 9.82993 0)
(0.000689096 10.0002 0)
(0.00172825 10.0013 0)
(0.00151669 10.0034 0)
(6.11244e-05 10.0056 0)
(-0.00293909 10.0079 0)
(-0.00781551 10.0101 0)
(-0.0150382 10.0126 0)
(-0.0251281 10.0156 0)
(-0.0386675 10.0197 0)
(-0.0562331 10.026 0)
(-0.0782745 10.0359 0)
(-0.104936 10.0512 0)
(-0.135837 10.0744 0)
(-0.170154 10.1071 0)
(-0.206818 10.1506 0)
(-0.244083 10.2063 0)
(-0.279667 10.2753 0)
(-0.310851 10.358 0)
(-0.334621 10.454 0)
(-0.346501 10.5627 0)
(-0.346603 10.6795 0)
(-0.339732 10.8 0)
(-0.3265 10.9229 0)
(-0.307581 11.0459 0)
(-0.283604 11.1656 0)
(-0.2551 11.2764 0)
(-0.222662 11.3697 0)
(-0.187172 11.4312 0)
(-0.149622 11.4432 0)
(-0.109836 11.3971 0)
(-0.0706018 11.3165 0)
(-0.0331245 11.073 0)
(0.000409294 9.92299 0)
(0.000650046 10.0002 0)
(0.00163007 10.0012 0)
(0.00137624 10.0032 0)
(-9.50612e-05 10.0053 0)
(-0.00309157 10.0073 0)
(-0.00795001 10.0092 0)
(-0.0151459 10.0111 0)
(-0.0252222 10.0132 0)
(-0.0388074 10.0162 0)
(-0.0565642 10.0207 0)
(-0.0790941 10.0281 0)
(-0.106793 10.04 0)
(-0.13964 10.0588 0)
(-0.176943 10.0872 0)
(-0.21749 10.1269 0)
(-0.259833 10.179 0)
(-0.301776 10.245 0)
(-0.340611 10.3256 0)
(-0.373249 10.4209 0)
(-0.396395 10.5299 0)
(-0.40521 10.6519 0)
(-0.400377 10.7812 0)
(-0.387841 10.913 0)
(-0.368523 11.0459 0)
(-0.343328 11.1777 0)
(-0.313059 11.305 0)
(-0.278544 11.4229 0)
(-0.24077 11.5225 0)
(-0.200874 11.5899 0)
(-0.159689 11.6077 0)
(-0.11758 11.5904 0)
(-0.0753606 11.5353 0)
(-0.0362648 11.2627 0)
(-0.00147817 10.0231 0)
(0.000616593 10.0002 0)
(0.00154577 10.0012 0)
(0.00125683 10.0031 0)
(-0.000223507 10.005 0)
(-0.00320894 10.0068 0)
(-0.00803679 10.0083 0)
(-0.0151832 10.0097 0)
(-0.0252042 10.0112 0)
(-0.0387587 10.013 0)
(-0.0565698 10.016 0)
(-0.0793516 10.0212 0)
(-0.107694 10.03 0)
(-0.141888 10.0446 0)
(-0.181675 10.0677 0)
(-0.225967 10.1023 0)
(-0.27308 10.1502 0)
(-0.321137 10.2122 0)
(-0.367476 10.2897 0)
(-0.408961 10.3831 0)
(-0.442162 10.4918 0)
(-0.463576 10.6146 0)
(-0.468079 10.75 0)
(-0.45708 10.8917 0)
(-0.437798 11.0344 0)
(-0.411482 11.1766 0)
(-0.37929 11.3165 0)
(-0.342318 11.4508 0)
(-0.301748 11.5748 0)
(-0.258827 11.6798 0)
(-0.214624 11.7514 0)
(-0.170756 11.7938 0)
(-0.126017 11.8047 0)
(-0.0804391 11.7497 0)
(-0.0393191 11.4472 0)
(-0.00329615 10.128 0)
(0.00147232 10.0012 0)
(0.000576755 10.0002 0)
(0.00115408 10.0029 0)
(-0.000329676 10.0047 0)
(-0.00329864 10.0063 0)
(-0.00808765 10.0076 0)
(-0.0151696 10.0086 0)
(-0.0251064 10.0094 0)
(-0.0385754 10.0103 0)
(-0.0563405 10.0119 0)
(-0.0791963 10.015 0)
(-0.107878 10.0211 0)
(-0.14292 10.0319 0)
(-0.184447 10.0499 0)
(-0.231886 10.0781 0)
(-0.283649 10.1201 0)
(-0.337499 10.1775 0)
(-0.391112 10.2509 0)
(-0.441343 10.3411 0)
(-0.484648 10.4482 0)
(-0.517315 10.5711 0)
(-0.535736 10.708 0)
(-0.534584 10.8569 0)
(-0.516155 11.0107 0)
(-0.489068 11.1637 0)
(-0.454921 11.3145 0)
(-0.415196 11.4616 0)
(-0.371334 11.602 0)
(-0.324767 11.731 0)
(-0.27676 11.8396 0)
(-0.229731 11.9337 0)
(-0.182589 12.0006 0)
(-0.134176 12.0163 0)
(-0.0854948 11.9584 0)
(-0.0421547 11.6259 0)
(-0.00503262 10.2355 0)
(0.00106458 10.0028 0)
(0.00138799 10.0011 0)
(0.000529166 10.0002 0)
(-0.000418721 10.0045 0)
(-0.00336678 10.0059 0)
(-0.00811142 10.007 0)
(-0.0151197 10.0076 0)
(-0.0249534 10.0078 0)
(-0.0382993 10.0078 0)
(-0.0559467 10.0082 0)
(-0.0787457 10.0096 0)
(-0.107537 10.0131 0)
(-0.143042 10.0204 0)
(-0.185685 10.0338 0)
(-0.235358 10.056 0)
(-0.291072 10.0906 0)
(-0.350636 10.1412 0)
(-0.41121 10.2095 0)
(-0.469992 10.2955 0)
(-0.523365 10.3996 0)
(-0.56743 10.5213 0)
(-0.598286 10.6591 0)
(-0.612325 10.8102 0)
(-0.604115 10.9724 0)
(-0.577005 11.1378 0)
(-0.541126 11.3002 0)
(-0.498467 11.4588 0)
(-0.450865 11.6121 0)
(-0.400032 11.7575 0)
(-0.347457 11.8898 0)
(-0.296363 12.0199 0)
(-0.245772 12.1359 0)
(-0.193851 12.2056 0)
(-0.141875 12.2235 0)
(-0.0902926 12.16 0)
(-0.0447043 11.7983 0)
(-0.00664944 10.3439 0)
(-0.000497036 10.0043 0)
(0.000972463 10.0027 0)
(0.00128584 10.001 0)
(0.000483807 10.0001 3.50943e-20)
(-0.00341938 10.0056 0)
(-0.00811518 10.0064 0)
(-0.0150444 10.0067 0)
(-0.024764 10.0064 0)
(-0.0379624 10.0057 0)
(-0.0554427 10.0049 0)
(-0.0780914 10.0047 0)
(-0.106824 10.006 0)
(-0.142498 10.0102 0)
(-0.185773 10.0193 0)
(-0.236909 10.0359 0)
(-0.29547 10.0633 0)
(-0.359956 10.1054 0)
(-0.427482 10.1662 0)
(-0.494528 10.2468 0)
(-0.557835 10.3466 0)
(-0.613352 10.4657 0)
(-0.656904 10.6028 0)
(-0.684509 10.7558 0)
(-0.692683 10.9211 0)
(-0.676003 11.0962 0)
(-0.639024 11.2724 0)
(-0.593497 11.4434 0)
(-0.541811 11.6086 0)
(-0.486101 11.767 0)
(-0.428206 11.9157 0)
(-0.372142 12.0691 0)
(-0.317085 12.2199 0)
(-0.26086 12.3364 0)
(-0.204386 12.407 0)
(-0.14896 12.4244 0)
(-0.0947111 12.3539 0)
(-0.0469393 11.964 0)
(-0.00811422 10.4515 0)
(-0.00346627 10.0053 0)
(-0.000560424 10.004 0)
(0.000868189 10.0025 1.59697e-19)
(0.00118621 10.0009 -1.11262e-19)
(0.000440619 10.0001 -6.88825e-20)
(-0.00810584 10.0059 0)
(-0.014952 10.0059 0)
(-0.024552 10.0051 0)
(-0.037589 10.0038 0)
(-0.0548702 10.0021 0)
(-0.0773037 10.0004 0)
(-0.105856 9.99975 0)
(-0.141483 10.0012 0)
(-0.185021 10.0064 0)
(-0.237018 10.0179 0)
(-0.297485 10.0386 0)
(-0.365571 10.0722 0)
(-0.439173 10.1231 0)
(-0.514587 10.1955 0)
(-0.587594 10.2898 0)
(-0.654515 10.4048 0)
(-0.710935 10.5398 0)
(-0.752505 10.693 0)
(-0.775293 10.8612 0)
(-0.776075 11.0405 0)
(-0.749548 11.2277 0)
(-0.701624 11.4137 0)
(-0.645743 11.5922 0)
(-0.584638 11.763 0)
(-0.520629 11.9248 0)
(-0.458764 12.0944 0)
(-0.398191 12.268 0)
(-0.336469 12.4181 0)
(-0.27485 12.5334 0)
(-0.214046 12.6028 0)
(-0.155359 12.618 0)
(-0.0986932 12.5396 0)
(-0.0488637 12.1226 0)
(-0.00941553 10.5571 0)
(-0.00809876 10.0055 0)
(-0.00346639 10.0049 -3.60755e-19)
(-0.000613484 10.0037 -1.68757e-19)
(0.000769872 10.0023 7.83793e-20)
(0.0010904 10.0009 -7.27773e-20)
(0.000399651 10.0001 0)
(-0.0148502 10.0052 0)
(-0.0243268 10.004 0)
(-0.0371962 10.0021 0)
(-0.0542605 9.99952 0)
(-0.0764367 9.99667 0)
(-0.104724 9.9942 0)
(-0.140148 9.99312 0)
(-0.183672 9.99494 0)
(-0.236069 10.0017 0)
(-0.297702 10.0163 0)
(-0.368254 10.042 0)
(-0.446373 10.0832 0)
(-0.529217 10.1444 0)
(-0.612191 10.2298 0)
(-0.690368 10.3394 0)
(-0.759726 10.4707 0)
(-0.815578 10.6224 0)
(-0.85353 10.7918 0)
(-0.869845 10.9751 0)
(-0.861707 11.1678 0)
(-0.824037 11.3664 0)
(-0.764232 11.5611 0)
(-0.69743 11.7458 0)
(-0.626599 11.9204 0)
(-0.558024 12.1033 0)
(-0.490987 12.2929 0)
(-0.422521 12.4653 0)
(-0.354368 12.6129 0)
(-0.287599 12.7252 0)
(-0.222753 12.7921 0)
(-0.161045 12.8036 0)
(-0.102216 12.7165 0)
(-0.0505008 12.2737 0)
(-0.0105545 10.6596 0)
(-0.0147625 10.0045 0)
(-0.00799749 10.0049 7.62396e-19)
(-0.00340983 10.0045 0)
(-0.000661344 10.0034 1.65587e-19)
(0.000678302 10.0022 3.33887e-23)
(0.000998658 10.0008 0)
(0.00036092 10.0001 0)
(-0.0240972 10.0031 0)
(-0.0367954 10.0006 0)
(-0.0536353 9.99728 0)
(-0.0755308 9.99333 0)
(-0.103497 9.98928 0)
(-0.138608 9.98598 0)
(-0.181919 9.98472 0)
(-0.234368 9.98733 0)
(-0.296596 9.99629 0)
(-0.368714 10.0148 0)
(-0.449996 10.0468 0)
(-0.538457 10.0968 0)
(-0.63043 10.1698 0)
(-0.720353 10.2698 0)
(-0.802619 10.3959 0)
(-0.872973 10.5445 0)
(-0.926582 10.7135 0)
(-0.959157 10.8993 0)
(-0.967307 11.0974 0)
(-0.948757 11.3027 0)
(-0.89876 11.5114 0)
(-0.826289 11.7135 0)
(-0.748107 11.9029 0)
(-0.672034 12.0989 0)
(-0.597469 12.3019 0)
(-0.521071 12.4902 0)
(-0.444961 12.6594 0)
(-0.370656 12.8027 0)
(-0.299049 12.9108 0)
(-0.23048 12.9739 0)
(-0.16603 12.9808 0)
(-0.105288 12.8846 0)
(-0.0518784 12.4172 0)
(-0.011538 10.7584 0)
(-0.0238983 10.0022 0)
(-0.0145126 10.0038 1.18825e-22)
(-0.00776337 10.0043 0)
(-0.0033491 10.004 -1.74965e-19)
(-0.000700151 10.0032 1.98134e-23)
(0.000593256 10.002 0)
(0.000910949 10.0007 0)
(0.000324434 10.0001 0)
(-0.0363964 9.99931 0)
(-0.0530085 9.9953 0)
(-0.0746139 9.99037 0)
(-0.102229 9.98492 0)
(-0.136953 9.97965 0)
(-0.179908 9.97565 0)
(-0.232154 9.9745 0)
(-0.294545 9.97841 0)
(-0.367529 9.99029 0)
(-0.450891 10.0138 0)
(-0.543372 10.0533 0)
(-0.642263 10.1137 0)
(-0.74298 10.2 0)
(-0.83894 10.3162 0)
(-0.92392 10.4601 0)
(-0.993586 10.6268 0)
(-1.04311 10.8134 0)
(-1.06847 11.0153 0)
(-1.06677 11.2276 0)
(-1.0364 11.4443 0)
(-0.973026 11.6619 0)
(-0.887221 11.8698 0)
(-0.803014 12.0811 0)
(-0.719993 12.2978 0)
(-0.634317 12.4995 0)
(-0.548813 12.6843 0)
(-0.465389 12.8487 0)
(-0.385279 12.9865 0)
(-0.309199 13.0894 0)
(-0.237255 13.1477 0)
(-0.170344 13.1492 0)
(-0.107932 13.0437 0)
(-0.0530249 12.553 0)
(-0.0123772 10.8529 0)
(-0.0360505 9.99815 0)
(-0.0234423 10.0012 -4.25665e-19)
(-0.0140138 10.003 0)
(-0.00752774 10.0037 0)
(-0.00327553 10.0036 5.15136e-19)
(-0.00072957 10.0029 0)
(0.000514699 10.0018 0)
(0.00082733 10.0007 1.37596e-19)
(0.00029022 10.0001 0)
(-0.0523909 9.99355 0)
(-0.0737025 9.98776 0)
(-0.100953 9.98107 0)
(-0.135249 9.97405 0)
(-0.177752 9.9676 0)
(-0.229614 9.9631 0)
(-0.291846 9.96248 0)
(-0.36516 9.96835 0)
(-0.449752 9.98407 0)
(-0.544965 10.0138 0)
(-0.648914 10.0622 0)
(-0.758068 10.1345 0)
(-0.866845 10.2359 0)
(-0.967616 10.3696 0)
(-1.05366 10.5324 0)
(-1.12074 10.7178 0)
(-1.16421 10.922 0)
(-1.18049 11.1396 0)
(-1.16731 11.365 0)
(-1.12383 11.5922 0)
(-1.04615 11.8168 0)
(-0.953336 12.0477 0)
(-0.861027 12.2804 0)
(-0.764829 12.496 0)
(-0.668312 12.6943 0)
(-0.574077 12.874 0)
(-0.483749 13.0321 0)
(-0.398257 13.1635 0)
(-0.318093 13.2603 0)
(-0.243127 13.3132 0)
(-0.174033 13.3088 0)
(-0.110183 13.1939 0)
(-0.0539677 12.6811 0)
(-0.013085 10.9428 0)
(-0.0518561 9.99199 0)
(-0.0353175 9.99686 0)
(-0.022569 10.0002 -4.2096e-19)
(-0.0135191 10.0022 -3.90843e-19)
(-0.00727466 10.0031 -7.25805e-19)
(-0.00318749 10.0032 0)
(-0.000749514 10.0026 -3.13039e-19)
(0.000442769 10.0017 -2.90769e-19)
(0.000747841 10.0006 1.35038e-19)
(0.000258233 10.0001 0)
(-0.0728091 9.98544 0)
(-0.0996909 9.97766 0)
(-0.133541 9.96908 0)
(-0.175537 9.96046 0)
(-0.22689 9.95297 0)
(-0.28873 9.94829 0)
(-0.361973 9.94875 0)
(-0.44714 9.9574 0)
(-0.544063 9.97805 0)
(-0.651553 10.0153 0)
(-0.767003 10.0742 0)
(-0.885966 10.1601 0)
(-1.0018 10.278 0)
(-1.10585 10.4307 0)
(-1.19105 10.6132 0)
(-1.25348 10.8177 0)
(-1.28885 11.0392 0)
(-1.29418 11.2718 0)
(-1.26799 11.5092 0)
(-1.21024 11.745 0)
(-1.12576 11.9939 0)
(-1.02336 12.2472 0)
(-0.915332 12.4795 0)
(-0.806224 12.6919 0)
(-0.699297 12.8849 0)
(-0.596811 13.0579 0)
(-0.500063 13.2089 0)
(-0.40965 13.3331 0)
(-0.325806 13.4232 0)
(-0.248162 13.4701 0)
(-0.17715 13.4594 0)
(-0.112075 13.3352 0)
(-0.0547342 12.8016 0)
(-0.0136745 11.0279 0)
(-0.0720375 9.98339 0)
(-0.0507593 9.99031 -4.7636e-19)
(-0.0339306 9.99544 4.44751e-19)
(-0.0217102 9.9991 -2.68633e-22)
(-0.0130009 10.0014 3.83452e-19)
(-0.00700057 10.0026 3.56184e-19)
(-0.00308537 10.0028 6.61542e-19)
(-0.000759907 10.0024 4.60819e-19)
(0.000377307 10.0015 -1.4269e-19)
(0.000672557 10.0006 0)
(0.000228461 10.0001 0)
(-0.0984568 9.97463 0)
(-0.131855 9.96468 0)
(-0.17332 9.95413 0)
(-0.224089 9.94397 0)
(-0.285376 9.93567 0)
(-0.358254 9.93127 0)
(-0.443498 9.93353 0)
(-0.541335 9.94594 0)
(-0.651153 9.97279 0)
(-0.771134 10.019 0)
(-0.897847 10.0901 0)
(-1.02585 10.1913 0)
(-1.14742 10.3273 0)
(-1.25292 10.5001 0)
(-1.33515 10.703 0)
(-1.39073 10.9265 0)
(-1.41593 11.1647 0)
(-1.40853 11.4113 0)
(-1.36788 11.6591 0)
(-1.30467 11.9205 0)
(-1.21039 12.1934 0)
(-1.08913 12.4473 0)
(-0.965573 12.6766 0)
(-0.843985 12.8837 0)
(-0.727209 13.0699 0)
(-0.617044 13.2354 0)
(-0.514408 13.3784 0)
(-0.419553 13.4949 0)
(-0.332425 13.5779 0)
(-0.252432 13.6185 0)
(-0.179749 13.6013 0)
(-0.113649 13.468 0)
(-0.0553481 12.9148 0)
(-0.0141588 11.1082 0)
(-0.0973947 9.97195 0)
(-0.070472 9.9812 -8.52105e-22)
(-0.0486862 9.98848 0)
(-0.032576 9.99408 -4.33052e-22)
(-0.0208207 9.99808 0)
(-0.0124535 10.0007 -3.76332e-19)
(-0.00670554 10.002 -6.99086e-19)
(-0.00296889 10.0024 1.9515e-23)
(-0.000760909 10.0021 3.01494e-19)
(0.00031835 10.0014 -1.40031e-19)
(0.000601456 10.0005 1.30076e-19)
(0.000200877 10.0001 0)
(-0.130209 9.96077 0)
(-0.171132 9.94851 0)
(-0.221283 9.93599 0)
(-0.281918 9.92446 0)
(-0.354223 9.91571 0)
(-0.439176 9.91221 0)
(-0.537317 9.91715 0)
(-0.648505 9.93449 0)
(-0.77159 9.96897 0)
(-0.904025 10.0259 0)
(-1.04146 10.1108 0)
(-1.17741 10.2289 0)
(-1.30308 10.3844 0)
(-1.40795 10.5782 0)
(-1.48489 10.8018 0)
(-1.53137 11.044 0)
(-1.54435 11.2983 0)
(-1.52248 11.5573 0)
(-1.4775 11.8323 0)
(-1.40547 12.1194 0)
(-1.29016 12.3944 0)
(-1.15017 12.6461 0)
(-1.01153 12.8702 0)
(-0.878056 13.0703 0)
(-0.752082 13.2486 0)
(-0.634869 13.4057 0)
(-0.526901 13.5403 0)
(-0.428077 13.6486 0)
(-0.338049 13.7243 0)
(-0.256014 13.7583 0)
(-0.18189 13.7347 0)
(-0.114943 13.5926 0)
(-0.0558307 13.0207 0)
(-0.0145516 11.1838 0)
(-0.128797 9.95731 0)
(-0.095235 9.96913 5.32357e-19)
(-0.0675002 9.97887 -4.98283e-19)
(-0.0466726 9.98673 4.61565e-19)
(-0.0311826 9.99276 0)
(-0.0198901 9.9971 0)
(-0.0118762 9.99994 3.69343e-19)
(-0.00639058 10.0015 -3.42993e-19)
(-0.00283841 10.0021 2.54693e-23)
(-0.000752335 10.0019 1.47972e-19)
(0.000265735 10.0013 -1.37451e-19)
(0.000534452 10.0005 -1.27658e-19)
(0.000175576 10.0001 0)
(-0.168995 9.94353 0)
(-0.218511 9.9289 0)
(-0.278447 9.91449 0)
(-0.350049 9.90187 0)
(-0.434445 9.89321 0)
(-0.532433 9.89139 0)
(-0.64425 9.90008 0)
(-0.7693 9.9237 0)
(-0.905794 9.96739 0)
(-1.05035 10.0367 0)
(-1.19765 10.1372 0)
(-1.34013 10.2738 0)
(-1.46797 10.45 0)
(-1.5699 10.6655 0)
(-1.63913 10.9098 0)
(-1.67421 11.1703 0)
(-1.67297 11.4392 0)
(-1.64817 11.7271 0)
(-1.5951 12.0299 0)
(-1.5009 12.321 0)
(-1.36447 12.5951 0)
(-1.20618 12.8419 0)
(-1.05314 13.059 0)
(-0.908496 13.2509 0)
(-0.774027 13.4203 0)
(-0.650422 13.5684 0)
(-0.537677 13.6942 0)
(-0.435344 13.7943 0)
(-0.34278 13.8625 0)
(-0.258986 13.8899 0)
(-0.183627 13.8597 0)
(-0.115991 13.7091 0)
(-0.0562024 13.1198 0)
(-0.0148667 11.2546 0)
(-0.167173 9.93911 0)
(-0.125896 9.95372 0)
(-0.0911063 9.9662 5.26277e-19)
(-0.0646266 9.97665 -9.78344e-19)
(-0.0446099 9.98506 9.07482e-19)
(-0.029733 9.99151 -8.41966e-19)
(-0.0189185 9.99617 0)
(-0.0112707 9.99926 3.62654e-19)
(-0.00605566 10.001 -3.36622e-19)
(-0.00269549 10.0017 -3.12717e-19)
(-0.000733264 10.0017 0)
(0.000219187 10.0012 1.34901e-19)
(0.000471855 10.0004 0)
(0.000152995 10 0)
(-0.215805 9.92261 0)
(-0.27501 9.90564 0)
(-0.345843 9.88955 0)
(-0.429513 9.87627 0)
(-0.527012 9.86839 0)
(-0.638893 9.86923 0)
(-0.765016 9.88293 0)
(-0.90423 9.91436 0)
(-1.054 9.96897 0)
(-1.21006 10.0525 0)
(-1.36603 10.1703 0)
(-1.51332 10.3268 0)
(-1.64114 10.5247 0)
(-1.73763 10.7624 0)
(-1.79666 11.0272 0)
(-1.81806 11.3046 0)
(-1.81563 11.6043 0)
(-1.78377 11.9223 0)
(-1.70706 12.2315 0)
(-1.59022 12.5234 0)
(-1.43289 12.7936 0)
(-1.25703 13.0335 0)
(-1.09042 13.242 0)
(-0.935439 13.4246 0)
(-0.793209 13.5845 0)
(-0.663864 13.7233 0)
(-0.546887 13.8401 0)
(-0.441479 13.9318 0)
(-0.346719 13.9925 0)
(-0.261422 14.0133 0)
(-0.185015 13.9767 0)
(-0.116827 13.818 0)
(-0.056482 13.2124 0)
(-0.0151152 11.321 0)
(-0.213508 9.91703 0)
(-0.163362 9.93457 0)
(-0.120304 9.95005 0)
(-0.0871335 9.96341 1.03326e-18)
(-0.061694 9.97454 -9.58568e-19)
(-0.0424733 9.98347 8.89424e-19)
(-0.0282284 9.99032 0)
(-0.0179082 9.99529 -3.83135e-19)
(-0.0106376 9.99862 0)
(-0.00570191 10.0006 3.30401e-19)
(-0.00253842 10.0014 0)
(-0.000705435 10.0015 0)
(0.000179024 10.001 0)
(0.000415001 10.0004 1.31139e-19)
(0.000133181 10 6.40486e-20)
(-0.271653 9.89777 0)
(-0.341666 9.8786 0)
(-0.424518 9.8612 0)
(-0.521309 9.84786 0)
(-0.632836 9.84163 0)
(-0.759342 9.84632 0)
(-0.900214 9.86649 0)
(-1.05364 9.9074 0)
(-1.21628 9.97474 0)
(-1.38287 10.0742 0)
(-1.54602 10.211 0)
(-1.6961 10.3887 0)
(-1.82149 10.609 0)
(-1.90996 10.8689 0)
(-1.95623 11.1533 0)
(-1.97859 11.4636 0)
(-1.97052 11.7959 0)
(-1.91369 12.1231 0)
(-1.81248 12.4352 0)
(-1.67294 12.7248 0)
(-1.49525 12.9886 0)
(-1.30272 13.2197 0)
(-1.12351 13.4185 0)
(-0.959078 13.5909 0)
(-0.809835 13.741 0)
(-0.675378 13.8701 0)
(-0.554686 13.9779 0)
(-0.446606 14.0613 0)
(-0.349963 14.1147 0)
(-0.263393 14.129 0)
(-0.186103 14.0862 0)
(-0.11748 13.9197 0)
(-0.056685 13.2987 0)
(-0.0153069 11.3829 0)
(-0.268824 9.89079 0)
(-0.208596 9.91135 0)
(-0.155951 9.93 1.18388e-18)
(-0.114949 9.94657 1.09712e-18)
(-0.0830897 9.96077 1.01696e-18)
(-0.0586665 9.97255 -9.42794e-19)
(-0.0402646 9.98198 0)
(-0.0266721 9.98921 0)
(-0.0168609 9.99447 0)
(-0.00997849 9.99801 6.98744e-19)
(-0.00533136 10.0001 3.24375e-19)
(-0.00236722 10.0011 3.01227e-19)
(-0.000668826 10.0013 0)
(0.000146474 10.001 -1.38566e-19)
(0.000364342 10.0003 -6.76974e-20)
(0.000115742 10 0)
(-0.337584 9.86887 0)
(-0.419536 9.84778 0)
(-0.515492 9.82957 0)
(-0.626386 9.81698 0)
(-0.752759 9.8135 0)
(-0.894455 9.82338 0)
(-1.05029 9.85165 0)
(-1.21772 9.90385 0)
(-1.39247 9.98579 0)
(-1.56833 10.103 0)
(-1.73685 10.2602 0)
(-1.88748 10.4603 0)
(-2.00791 10.7035 0)
(-2.08564 10.9851 0)
(-2.13553 11.3044 0)
(-2.15418 11.6501 0)
(-2.12005 11.9949 0)
(-2.03691 12.3277 0)
(-1.91076 12.6393 0)
(-1.74879 12.9237 0)
(-1.55156 13.1789 0)
(-1.3434 13.3997 0)
(-1.15263 13.5878 0)
(-0.979639 13.7496 0)
(-0.824131 13.8894 0)
(-0.685153 14.009 0)
(-0.561227 14.1078 0)
(-0.450846 14.1831 0)
(-0.3526 14.2292 0)
(-0.264964 14.2371 0)
(-0.186936 14.1883 0)
(-0.117977 14.0145 0)
(-0.0568234 13.3791 0)
(-0.0154523 11.4407 0)
(-0.334169 9.86023 0)
(-0.262591 9.88373 0)
(-0.198952 9.9057 -2.50544e-18)
(-0.148879 9.92569 4.17144e-21)