/*--------------------------------*- C++ -*----------------------------------*\
  =========                 |
  \\      /  F ield         | OpenFOAM: The Open Source CFD Toolbox
   \\    /   O peration     | Website:  https://openfoam.org
    \\  /    A nd           | Version:  8
     \\/     M anipulation  |
\*---------------------------------------------------------------------------*/
FoamFile
{
    version     2.0;
    format      ascii;
    class       surfaceScalarField;
    location    "0.14";
    object      phi;
}
// * * * * * * * * * * * * * * * * * * * * * * * * * * * * * * * * * * * * * //

dimensions      [0 3 -1 0 0 0 0];

internalField   nonuniform List<scalar> 
31053
(
6.27792e-07
1.27522e-05
8.49758e-07
1.5158e-05
3.76465e-07
1.23757e-05
9.32541e-07
1.75572e-05
5.89197e-07
1.49453e-05
2.69817e-07
1.21059e-05
9.56286e-07
2.02163e-05
7.07583e-07
1.74388e-05
4.65245e-07
1.47499e-05
2.16397e-07
1.18895e-05
9.47401e-07
2.32489e-05
7.67338e-07
2.01565e-05
5.91013e-07
1.73131e-05
3.97012e-07
1.45693e-05
1.73094e-07
1.17164e-05
9.17579e-07
2.66898e-05
7.92671e-07
2.32236e-05
6.6646e-07
2.00811e-05
5.25061e-07
1.7185e-05
3.34552e-07
1.44078e-05
1.38656e-07
1.15778e-05
8.72318e-07
3.06653e-05
7.9578e-07
2.66867e-05
7.08929e-07
2.31811e-05
6.06926e-07
1.99992e-05
4.57709e-07
1.70619e-05
2.80102e-07
1.42664e-05
1.11665e-07
1.14661e-05
8.14961e-07
3.51974e-05
7.83573e-07
3.06775e-05
7.29294e-07
2.66663e-05
6.56053e-07
2.3132e-05
5.39828e-07
1.99171e-05
3.94062e-07
1.69479e-05
2.33371e-07
1.41446e-05
8.94098e-08
1.13767e-05
7.48426e-07
4.03865e-05
7.59931e-07
3.5221e-05
7.33887e-07
3.06729e-05
6.82484e-07
2.66399e-05
5.89942e-07
2.30818e-05
4.72414e-07
1.98387e-05
3.35774e-07
1.68455e-05
1.91727e-07
1.40423e-05
6.99703e-08
1.13067e-05
6.744e-07
4.6354e-05
7.26722e-07
4.04197e-05
7.26028e-07
3.52289e-05
6.92208e-07
3.06632e-05
6.17085e-07
2.66128e-05
5.20034e-07
2.30342e-05
4.07612e-07
1.97669e-05
2.80689e-07
1.67565e-05
1.53259e-07
1.3959e-05
5.21994e-08
1.12545e-05
5.9453e-07
5.32199e-05
6.86046e-07
4.63947e-05
7.06858e-07
4.04389e-05
6.88703e-07
3.52324e-05
6.27245e-07
3.0653e-05
5.44572e-07
2.65882e-05
4.50228e-07
2.29916e-05
3.43584e-07
1.9704e-05
2.2727e-07
1.66825e-05
1.16707e-07
1.38945e-05
3.53361e-08
1.12192e-05
5.10777e-07
6.10638e-05
6.39609e-07
5.32663e-05
6.7768e-07
4.64239e-05
6.74411e-07
4.04532e-05
6.23934e-07
3.52357e-05
5.51833e-07
3.06457e-05
4.69718e-07
2.65687e-05
3.78869e-07
2.29563e-05
2.79021e-07
1.96522e-05
1.74486e-07
1.66247e-05
8.11506e-08
1.38487e-05
1.8869e-08
1.12003e-05
4.2574e-07
7.0067e-05
5.88927e-07
6.11144e-05
6.39611e-07
5.33044e-05
6.49983e-07
4.64483e-05
6.09319e-07
4.04678e-05
5.45324e-07
3.52422e-05
4.71478e-07
3.0644e-05
3.90992e-07
2.65566e-05
3.04719e-07
2.29306e-05
2.13021e-07
1.96137e-05
1.2157e-07
1.65843e-05
4.59004e-08
1.38217e-05
2.61176e-09
1.11977e-05
3.43169e-07
8.04146e-05
5.34997e-07
7.0121e-05
5.93868e-07
6.11602e-05
6.15784e-07
5.33386e-05
5.84449e-07
4.64732e-05
5.27022e-07
4.04861e-05
4.58904e-07
3.52548e-05
3.84771e-07
3.06502e-05
3.07196e-07
2.65541e-05
2.26908e-07
2.29167e-05
1.44945e-07
1.95903e-05
6.79002e-08
1.65623e-05
1.05661e-08
1.38137e-05
-1.36431e-08
1.12114e-05
2.8009e-07
7.62531e-05
4.77862e-07
8.04717e-05
5.41808e-07
7.0173e-05
5.72209e-07
6.12038e-05
5.49707e-07
5.33733e-05
4.9792e-07
4.65023e-05
4.3387e-07
4.05112e-05
3.6343e-07
3.52761e-05
2.90576e-07
3.06668e-05
2.17458e-07
2.65636e-05
1.4482e-07
2.29169e-05
7.42681e-08
1.9584e-05
1.31497e-08
1.65597e-05
-2.50234e-08
1.38251e-05
-3.00592e-08
1.12414e-05
2.29712e-07
7.62404e-05
4.26476e-07
7.63045e-05
4.84816e-07
8.05287e-05
5.1988e-07
7.02254e-05
5.05281e-07
6.12482e-05
4.58396e-07
5.34128e-05
3.97268e-07
4.65389e-05
3.28736e-07
4.05459e-05
2.5782e-07
3.53089e-05
1.88011e-07
3.06963e-05
1.21127e-07
2.65873e-05
5.79381e-08
2.29332e-05
7.65666e-10
1.95963e-05
-4.28147e-08
1.65775e-05
-6.10545e-08
1.38561e-05
-4.66453e-08
1.12881e-05
1.89616e-07
7.62301e-05
3.78306e-07
7.62885e-05
4.34008e-07
7.63553e-05
4.59893e-07
8.05887e-05
4.51448e-07
7.02792e-05
4.08605e-07
6.1298e-05
3.49407e-07
5.34607e-05
2.81464e-07
4.65862e-05
2.10535e-07
4.05931e-05
1.4118e-07
3.53557e-05
7.63731e-08
3.0741e-05
1.76869e-08
2.66275e-05
-3.38518e-08
2.29678e-05
-7.5467e-08
1.9629e-05
-9.99489e-08
1.66164e-05
-9.73974e-08
1.39069e-05
-6.32281e-08
1.13513e-05
1.57388e-07
7.62242e-05
3.33703e-07
7.62747e-05
3.86467e-07
7.63361e-05
4.05277e-07
7.64099e-05
3.88868e-07
8.06513e-05
3.48744e-07
7.03391e-05
2.90385e-07
6.1357e-05
2.21826e-07
5.35203e-05
1.49352e-07
4.66473e-05
7.83503e-08
4.0656e-05
1.27487e-08
3.54193e-05
-4.48565e-08
3.08036e-05
-9.29237e-08
2.66866e-05
-1.3032e-07
2.30227e-05
-1.54217e-07
1.96833e-05
-1.57934e-07
1.6677e-05
-1.33792e-07
1.39774e-05
-7.96787e-08
1.1431e-05
1.31226e-07
7.62162e-05
2.92988e-07
7.62649e-05
3.4225e-07
7.63189e-05
3.53606e-07
7.63878e-05
3.30861e-07
7.64679e-05
2.79417e-07
8.07206e-05
2.20346e-07
7.04091e-05
1.49866e-07
6.1429e-05
7.43577e-08
5.35953e-05
-3.94127e-11
4.67257e-05
-6.86451e-08
4.07374e-05
-1.28e-07
3.55025e-05
-1.75716e-07
3.08863e-05
-2.10359e-07
2.67666e-05
-2.31002e-07
2.30994e-05
-2.34834e-07
1.97602e-05
-2.16266e-07
1.67594e-05
-1.6988e-07
1.40676e-05
-9.57402e-08
1.15267e-05
1.09802e-07
7.62114e-05
2.56145e-07
7.6253e-05
3.01375e-07
7.63058e-05
3.05307e-07
7.63672e-05
2.75411e-07
7.64432e-05
2.1523e-07
7.65321e-05
1.39903e-07
8.0801e-05
6.5725e-08
7.04932e-05
-1.44586e-08
6.15178e-05
-9.40612e-08
5.36894e-05
-1.67621e-07
4.68247e-05
-2.31008e-07
4.08404e-05
-2.81088e-07
3.56078e-05
-3.15704e-07
3.09917e-05
-3.33912e-07
2.68696e-05
-3.34954e-07
2.31996e-05
-3.16468e-07
1.98604e-05
-2.74292e-07
1.68638e-05
-2.05179e-07
1.41771e-05
-1.11226e-07
1.16379e-05
9.21451e-08
7.62077e-05
2.23017e-07
7.62446e-05
2.63795e-07
7.62906e-05
2.60644e-07
7.63505e-05
2.23294e-07
7.64193e-05
1.53994e-07
7.65044e-05
6.59095e-08
7.66061e-05
-2.99294e-08
8.08967e-05
-1.16965e-07
7.05957e-05
-2.03813e-07
6.16275e-05
-2.8446e-07
5.38062e-05
-3.53986e-07
4.69477e-05
-4.08713e-07
4.0968e-05
-4.45824e-07
3.57379e-05
-4.63894e-07
3.11217e-05
-4.62346e-07
2.6997e-05
-4.40912e-07
2.3324e-05
-3.98084e-07
1.99842e-05
-3.31216e-07
1.69899e-05
-2.39199e-07
1.4305e-05
-1.25819e-07
1.17638e-05
7.86749e-08
6.95955e-05
1.9343e-07
7.62372e-05
2.29424e-07
7.62789e-05
2.19729e-07
7.63315e-05
1.75001e-07
7.63988e-05
9.66774e-08
7.64766e-05
-4.28064e-09
7.65746e-05
-1.17306e-07
7.66935e-05
-2.32325e-07
8.10121e-05
-3.29126e-07
7.0721e-05
-4.19363e-07
6.17624e-05
-4.97465e-07
5.39497e-05
-5.59066e-07
4.7098e-05
-6.00887e-07
4.11231e-05
-6.21075e-07
3.58951e-05
-6.18744e-07
3.12781e-05
-5.93976e-07
2.715e-05
-5.47423e-07
2.34734e-05
-4.78477e-07
2.01314e-05
-3.86186e-07
1.71369e-05
-2.71333e-07
1.44506e-05
-1.39319e-07
1.19031e-05
6.83357e-08
6.25543e-05
1.69395e-07
6.96195e-05
1.98115e-07
7.62686e-05
1.82565e-07
7.63161e-05
1.30841e-07
7.63757e-05
4.39034e-08
7.64515e-05
-6.95527e-08
7.65419e-05
-1.99688e-07
7.6657e-05
-3.36911e-07
7.6798e-05
-4.68984e-07
8.11519e-05
-5.72162e-07
7.08738e-05
-6.61794e-07
6.19268e-05
-7.32989e-07
5.41236e-05
-7.81799e-07
4.72789e-05
-8.06173e-07
4.13082e-05
-8.04961e-07
3.60813e-05
-7.78131e-07
3.14622e-05
-7.26907e-07
2.73295e-05
-6.52794e-07
2.36477e-05
-5.56357e-07
2.03016e-05
-4.38234e-07
1.73038e-05
-3.01087e-07
1.46123e-05
-1.51343e-07
1.20544e-05
6.02414e-08
5.62261e-05
1.5006e-07
6.25737e-05
1.71995e-07
6.96456e-05
1.49094e-07
7.6302e-05
9.09875e-08
7.63559e-05
-3.90006e-09
7.64235e-05
-1.2909e-07
7.65111e-05
-2.7575e-07
7.6618e-05
-4.34928e-07
7.6755e-05
-5.94994e-07
7.6924e-05
-7.41616e-07
8.13214e-05
-8.4682e-07
7.10589e-05
-9.31023e-07
6.21248e-05
-9.89775e-07
5.43316e-05
-1.02059e-06
4.74934e-05
-1.02233e-06
4.15255e-05
-9.94896e-07
3.62981e-05
-9.3969e-07
3.1675e-05
-8.5892e-07
2.75356e-05
-7.5524e-07
2.38466e-05
-6.30316e-07
2.04937e-05
-4.86509e-07
1.74892e-05
-3.27601e-07
1.47886e-05
-1.61291e-07
1.22157e-05
5.3801e-08
5.05384e-05
1.34373e-07
5.62418e-05
1.50496e-07
6.25952e-05
1.21669e-07
6.96731e-05
5.55188e-08
7.63375e-05
-4.64664e-08
7.63985e-05
-1.82332e-07
7.64767e-05
-3.44519e-07
7.65799e-05
-5.24871e-07
7.67079e-05
-7.12476e-07
7.68725e-05
-8.9355e-07
7.7076e-05
-1.05107e-06
8.15256e-05
-1.15306e-06
7.12809e-05
-1.2256e-06
6.23606e-05
-1.26599e-06
5.4577e-05
-1.27282e-06
4.77439e-05
-1.24626e-06
4.17769e-05
-1.18801e-06
3.65464e-05
-1.10065e-06
3.19167e-05
-9.87706e-07
2.77681e-05
-8.52844e-07
2.40691e-05
-6.99075e-07
2.07062e-05
-5.29689e-07
1.76913e-05
-3.50148e-07
1.49774e-05
-1.66972e-07
1.23827e-05
4.86059e-08
4.54252e-05
1.21542e-07
5.05513e-05
1.32754e-07
5.62595e-05
9.95154e-08
6.26173e-05
2.7004e-08
6.97016e-05
-8.36092e-08
7.63746e-05
-2.28892e-07
7.64451e-05
-4.05272e-07
7.65375e-05
-6.05554e-07
7.66605e-05
-8.19707e-07
7.68152e-05
-1.03464e-06
7.70136e-05
-1.23357e-06
7.72585e-05
-1.3974e-06
8.177e-05
-1.48927e-06
7.15446e-05
-1.54347e-06
6.26381e-05
-1.5586e-06
5.48628e-05
-1.53483e-06
4.80324e-05
-1.47457e-06
4.20635e-05
-1.38095e-06
3.68267e-05
-1.25814e-06
3.21872e-05
-1.11078e-06
2.8026e-05
-9.4383e-07
2.43138e-05
-7.60873e-07
2.09374e-05
-5.66896e-07
1.7908e-05
-3.64574e-07
1.5175e-05
-1.3541e-07
1.25181e-05
4.43655e-08
4.08302e-05
1.10966e-07
4.54358e-05
1.18056e-07
5.0566e-05
8.15813e-08
5.62775e-05
4.52972e-09
6.26398e-05
-1.12707e-07
6.97307e-05
-2.68522e-07
7.64143e-05
-4.57493e-07
7.64973e-05
-6.76067e-07
7.6608e-05
-9.15282e-07
7.67561e-05
-1.16291e-06
7.69434e-05
-1.4026e-06
7.71826e-05
-1.61527e-06
7.74764e-05
-1.77888e-06
8.20596e-05
-1.85317e-06
7.18543e-05
-1.88115e-06
6.29606e-05
-1.86337e-06
5.51913e-05
-1.80268e-06
4.83605e-05
-1.70327e-06
4.23858e-05
-1.57023e-06
3.71388e-05
-1.40904e-06
3.24854e-05
-1.2258e-06
2.8308e-05
-1.02599e-06
2.45789e-05
-8.14348e-07
2.11849e-05
-5.92751e-07
1.81362e-05
-3.57555e-07
1.53972e-05
-8.62936e-08
1.26044e-05
4.08671e-08
3.66995e-05
1.02188e-07
4.0839e-05
1.05823e-07
4.5448e-05
6.70354e-08
5.05805e-05
-1.31407e-08
5.62951e-05
-1.34899e-07
6.2662e-05
-2.98531e-07
6.97607e-05
-5.00823e-07
7.64576e-05
-7.35738e-07
7.6557e-05
-9.9808e-07
7.66908e-05
-1.27671e-06
7.68699e-05
-1.55589e-06
7.70967e-05
-1.81676e-06
7.73841e-05
-2.03687e-06
7.77343e-05
-2.19307e-06
8.23995e-05
-2.24088e-06
7.2214e-05
-2.23385e-06
6.33311e-05
-2.17577e-06
5.55644e-05
-2.07165e-06
4.87289e-05
-1.92816e-06
4.27437e-05
-1.75201e-06
3.74818e-05
-1.55045e-06
3.28101e-05
-1.33012e-06
2.86121e-05
-1.09739e-06
2.4862e-05
-8.54451e-07
2.14466e-05
-6.01788e-07
1.83804e-05
-3.31308e-07
1.56422e-05
-6.27473e-08
1.26671e-05
3.79515e-08
3.29889e-05
9.48612e-08
3.67068e-05
9.56024e-08
4.08492e-05
5.52203e-08
4.54598e-05
-2.69972e-08
5.05944e-05
-1.51644e-07
5.63119e-05
-3.20416e-07
6.26839e-05
-5.32426e-07
6.97923e-05
-7.8408e-07
7.65059e-05
-1.06724e-06
7.66261e-05
-1.37466e-06
7.67887e-05
-1.69147e-06
7.70055e-05
-1.99926e-06
7.72792e-05
-2.27536e-06
7.76226e-05
-2.49585e-06
7.80371e-05
-2.63575e-06
8.27943e-05
-2.64703e-06
7.26272e-05
-2.59633e-06
6.37517e-05
-2.49022e-06
5.59829e-05
-2.33676e-06
4.91375e-05
-2.14469e-06
4.31364e-05
-1.92284e-06
3.78542e-05
-1.67924e-06
3.31592e-05
-1.42132e-06
2.89361e-05
-1.1538e-06
2.51613e-05
-8.77881e-07
2.17227e-05
-5.98228e-07
1.86474e-05
-3.06675e-07
1.58861e-05
-5.75147e-08
1.27246e-05
3.54993e-08
2.96505e-05
8.87159e-08
3.29951e-05
8.704e-08
3.67154e-05
4.56011e-08
4.08589e-05
-3.78337e-08
4.54707e-05
-1.64119e-07
5.06068e-05
-3.35964e-07
5.63274e-05
-5.54253e-07
6.27057e-05
-8.18046e-07
6.98262e-05
-1.12213e-06
7.65608e-05
-1.45569e-06
7.67072e-05
-1.8077e-06
7.6905e-05
-2.16048e-06
7.71667e-05
-2.49137e-06
7.74952e-05
-2.77592e-06
7.79027e-05
-2.98783e-06
7.83892e-05
-3.10087e-06
8.32482e-05
-3.06559e-06
7.30965e-05
-2.96217e-06
6.42236e-05
-2.80101e-06
5.64472e-05
-2.59274e-06
4.95856e-05
-2.3488e-06
4.35623e-05
-2.0791e-06
3.8254e-05
-1.79258e-06
3.35305e-05
-1.49582e-06
2.92781e-05
-1.19267e-06
2.54761e-05
-8.89339e-07
2.20138e-05
-5.89559e-07
1.89302e-05
-2.93191e-07
1.61218e-05
-6.19935e-08
1.27866e-05
3.34202e-08
2.66501e-05
8.35374e-08
2.96556e-05
7.98518e-08
3.30022e-05
3.77384e-08
3.67233e-05
-4.62868e-08
4.08673e-05
-1.73272e-07
4.54798e-05
-3.4662e-07
5.06175e-05
-5.68536e-07
5.63417e-05
-8.40152e-07
6.27278e-05
-1.15941e-06
6.98635e-05
-1.51897e-06
7.66241e-05
-1.90323e-06
7.68027e-05
-2.29842e-06
7.70429e-05
-2.68222e-06
7.73576e-05
-3.02989e-06
7.77492e-05
-3.31397e-06
7.82288e-05
-3.50617e-06
7.87945e-05
-3.58179e-06
8.37644e-05
-3.48939e-06
7.36237e-05
-3.3249e-06
6.47475e-05
-3.10205e-06
5.69565e-05
-2.83486e-06
5.00716e-05
-2.5363e-06
4.40195e-05
-2.21753e-06
3.8679e-05
-1.88729e-06
3.39219e-05
-1.55154e-06
2.9637e-05
-1.21782e-06
2.58046e-05
-8.94359e-07
2.23186e-05
-5.83019e-07
1.92201e-05
-2.8998e-07
1.63498e-05
-8.49665e-08
1.28716e-05
3.16448e-08
2.39558e-05
7.91537e-08
2.66545e-05
7.38027e-08
2.96617e-05
3.12819e-08
3.30087e-05
-5.28663e-08
3.67298e-05
-1.79857e-07
4.08739e-05
-3.53536e-07
4.54867e-05
-5.77072e-07
5.0626e-05
-8.53176e-07
5.63547e-05
-1.18226e-06
6.27507e-05
-1.56074e-06
6.99053e-05
-1.97702e-06
7.66979e-05
-2.41143e-06
7.69157e-05
-2.84553e-06
7.72062e-05
-3.25462e-06
7.75823e-05
-3.6103e-06
7.80455e-05
-3.88248e-06
7.86051e-05
-4.04383e-06
7.92566e-05
-4.07054e-06
8.43455e-05
-3.91109e-06
7.42099e-05
-3.67748e-06
6.5323e-05
-3.38782e-06
5.75095e-05
-3.05824e-06
5.05936e-05
-2.7035e-06
4.45055e-05
-2.33514e-06
3.91268e-05
-1.96158e-06
3.4332e-05
-1.5913e-06
3.00104e-05
-1.23436e-06
2.61446e-05
-8.97855e-07
2.26334e-05
-5.8038e-07
1.95105e-05
-3.58354e-07
1.66232e-05
-9.37033e-08
1.29653e-05
3.01199e-08
2.15335e-05
7.54229e-08
2.39595e-05
6.86954e-08
2.66596e-05
2.59588e-08
2.9667e-05
-5.79784e-08
3.30138e-05
-1.84471e-07
3.67344e-05
-3.57625e-07
4.0878e-05
-5.8129e-07
4.54909e-05
-8.59353e-07
5.06322e-05
-1.19412e-06
5.63666e-05
-1.58498e-06
6.27749e-05
-2.02472e-06
6.9953e-05
-2.49817e-06
7.67846e-05
-2.97925e-06
7.70494e-05
-3.44726e-06
7.73988e-05
-3.87318e-06
7.78452e-05
-4.2254e-06
7.83884e-05
-4.47411e-06
7.90354e-05
-4.59225e-06
7.97783e-05
-4.55888e-06
8.49933e-05
-4.3226e-06
7.4855e-05
-4.0135e-06
6.59486e-05
-3.65268e-06
5.81039e-05
-3.25872e-06
5.11488e-05
-2.84738e-06
4.50177e-05
-2.43025e-06
3.95955e-05
-2.01743e-06
3.47581e-05
-1.61954e-06
3.03956e-05
-1.24624e-06
2.6493e-05
-9.00524e-07
2.29536e-05
-7.14485e-07
1.98666e-05
-3.58287e-07
1.68878e-05
-1.02897e-07
1.30682e-05
2.88036e-08
1.93533e-05
7.22302e-08
2.15367e-05
6.43658e-08
2.39638e-05
2.15532e-08
2.6664e-05
-6.19416e-08
2.9671e-05
-1.87583e-07
3.30169e-05
-3.59604e-07
3.67364e-05
-5.82318e-07
4.0879e-05
-8.60463e-07
4.54921e-05
-1.19776e-06
5.06359e-05
-1.5959e-06
5.63775e-05
-2.0512e-06
6.28014e-05
-2.55354e-06
7.00084e-05
-3.08173e-06
7.68871e-05
-3.60535e-06
7.72075e-05
-4.09929e-06
7.76249e-05
-4.53074e-06
7.81505e-05
-4.86769e-06
7.8782e-05
-5.07982e-06
7.9523e-05
-5.14239e-06
8.03618e-05
-5.03759e-06
8.57083e-05
-4.71656e-06
7.5558e-05
-4.32648e-06
6.66224e-05
-3.89187e-06
5.8737e-05
-3.43303e-06
5.17344e-05
-2.96617e-06
4.55537e-05
-2.50404e-06
4.00821e-05
-2.05837e-06
3.51969e-05
-1.63941e-06
3.07888e-05
-1.25393e-06
2.68464e-05
-1.11255e-06
2.33516e-05
-7.06485e-07
2.02148e-05
-3.58227e-07
1.71431e-05
-1.10079e-07
1.31783e-05
1.73971e-05
2.76641e-08
6.94853e-08
1.93561e-05
6.06792e-08
2.15404e-05
1.78973e-08
2.39675e-05
-6.50058e-08
2.6667e-05
-1.89558e-07
2.96729e-05
-3.60031e-07
3.30174e-05
-5.81035e-07
3.67351e-05
-8.579e-07
4.08765e-05
-1.19538e-06
4.54897e-05
-1.59693e-06
5.06369e-05
-2.06161e-06
5.63879e-05
-2.58341e-06
6.28312e-05
-3.14686e-06
7.00735e-05
-3.72678e-06
7.70085e-05
-4.28565e-06
7.73939e-05
-4.7946e-06
7.78888e-05
-5.21979e-06
7.85026e-05
-5.52776e-06
7.923e-05
-5.68993e-06
8.00705e-05
-5.6841e-06
8.10083e-05
-5.49832e-06
8.649e-05
-5.08552e-06
7.63171e-05
-4.61094e-06
6.73415e-05
-4.10173e-06
5.94057e-05
-3.57911e-06
5.23474e-05
-3.06031e-06
4.61099e-05
-2.55916e-06
4.05829e-05
-2.08688e-06
3.56444e-05
-1.65151e-06
3.11864e-05
-1.55228e-06
2.72861e-05
-1.09982e-06
2.3745e-05
-6.95854e-07
2.05524e-05
-3.56135e-07
1.73891e-05
-1.14768e-07
1.32931e-05
1.73995e-05
6.71084e-08
2.78119e-05
2.57582e-08
5.7527e-08
1.93592e-05
1.48573e-08
2.15434e-05
-6.73662e-08
2.39699e-05
-1.90681e-07
2.66682e-05
-3.59338e-07
2.96722e-05
-5.78123e-07
3.30144e-05
-8.52751e-07
3.673e-05
-1.18872e-06
4.08698e-05
-1.59076e-06
4.54835e-05
-2.06008e-06
5.06354e-05
-2.59393e-06
5.63984e-05
-3.18155e-06
6.28659e-05
-3.80418e-06
7.01509e-05
-4.42966e-06
7.71525e-05
-5.01343e-06
7.76127e-05
-5.52585e-06
7.81949e-05
-5.93068e-06
7.89055e-05
-6.19548e-06
7.97355e-05
-6.29352e-06
8.06799e-05
-6.20818e-06
8.17182e-05
-5.93249e-06
8.7337e-05
-5.42311e-06
7.71292e-05
-4.86256e-06
6.81023e-05
-4.27966e-06
6.01063e-05
-3.6967e-06
5.29838e-05
-3.1316e-06
4.66824e-05
-2.59751e-06
4.10935e-05
-2.10368e-06
3.60966e-05
-2.04568e-06
3.16798e-05
-1.53579e-06
2.77221e-05
-1.08019e-06
2.41293e-05
-6.81549e-07
2.08778e-05
-3.51182e-07
1.76256e-05
-1.17033e-07
1.34101e-05
1.74022e-05
5.48247e-08
2.78159e-05
6.31057e-08
2.85518e-05
2.39382e-08
1.23232e-08
1.93617e-05
-6.91749e-08
2.15453e-05
-1.91171e-07
2.39703e-05
-3.5786e-07
2.66667e-05
-5.74102e-07
2.96682e-05
-8.45852e-07
3.30075e-05
-1.1791e-06
3.67204e-05
-1.57953e-06
4.08585e-05
-2.04993e-06
4.54734e-05
-2.59012e-06
5.06316e-05
-3.19315e-06
5.641e-05
-3.84557e-06
6.29073e-05
-4.52228e-06
7.02435e-05
-5.18403e-06
7.73231e-05
-5.78165e-06
7.78685e-05
-6.28335e-06
7.85475e-05
-6.65303e-06
7.93631e-05
-6.85932e-06
8.03013e-05
-6.88061e-06
8.13524e-05
-6.70502e-06
8.24907e-05
-6.33269e-06
8.82466e-05
-5.72418e-06
7.79909e-05
-5.07809e-06
6.89008e-05
-4.42471e-06
6.08343e-05
-3.78682e-06
5.3639e-05
-3.18144e-06
4.72663e-05
-2.61988e-06
4.16097e-05
-2.6064e-06
3.66573e-05
-2.02449e-06
3.21685e-05
-1.50781e-06
2.81497e-05
-1.05388e-06
2.45016e-05
-6.63183e-07
2.11898e-05
-3.43349e-07
1.78519e-05
-1.17197e-07
1.35273e-05
1.74043e-05
1.02026e-08
2.78198e-05
5.0928e-08
2.85557e-05
5.92264e-08
2.93117e-05
2.22057e-08
-7.05512e-08
1.93631e-05
-1.91199e-07
2.15453e-05
-3.5585e-07
2.39683e-05
-5.69372e-07
2.6662e-05
-8.37839e-07
2.96602e-05
-1.16756e-06
3.2996e-05
-1.56486e-06
3.67057e-05
-2.03374e-06
4.08424e-05
-2.57596e-06
4.54592e-05
-3.18758e-06
5.0626e-05
-3.85954e-06
5.6424e-05
-4.57268e-06
6.29577e-05
-5.2953e-06
7.03548e-05
-5.98332e-06
7.75248e-05
-6.58079e-06
7.81659e-05
-7.05661e-06
7.89511e-05
-7.37483e-06
7.98786e-05
-7.50859e-06
8.09293e-05
-7.44062e-06
8.2088e-05
-7.16617e-06
8.33242e-05
-6.69271e-06
8.92151e-05
-5.9846e-06
7.88974e-05
-5.25579e-06
6.97319e-05
-4.53717e-06
6.15847e-05
-3.8504e-06
5.43079e-05
-3.21068e-06
4.78571e-05
-3.2468e-06
4.22501e-05
-2.57956e-06
3.72123e-05
-1.98723e-06
3.26479e-05
-1.46964e-06
2.85655e-05
-1.02141e-06
2.48598e-05
-6.41076e-07
2.14876e-05
-3.32983e-07
1.80677e-05
-1.15631e-07
1.36429e-05
1.74054e-05
-7.159e-08
2.78219e-05
8.11718e-09
2.85594e-05
4.72649e-08
2.93155e-05
5.54872e-08
3.00896e-05
2.05615e-08
-1.90895e-07
1.93628e-05
-3.53501e-07
2.15429e-05
-5.64231e-07
2.39632e-05
-8.29194e-07
2.66533e-05
-1.15488e-06
2.96475e-05
-1.54803e-06
3.29792e-05
-2.01353e-06
3.66855e-05
-2.55458e-06
4.0821e-05
-3.16962e-06
4.54412e-05
-3.8531e-06
5.06195e-05
-4.59079e-06
5.64421e-05
-5.35753e-06
6.302e-05
-6.11721e-06
7.04887e-05
-6.81835e-06
7.77624e-05
-7.40045e-06
7.85098e-05
-7.83335e-06
7.94096e-05
-8.08488e-06
8.04549e-05
-8.13187e-06
8.16205e-05
-7.96409e-06
8.28859e-05
-7.5844e-06
8.42159e-05
-7.00735e-06
9.02379e-05
-6.20176e-06
7.98433e-05
-5.39527e-06
7.059e-05
-4.61752e-06
6.23518e-05
-3.88828e-06
5.49855e-05
-3.98049e-06
4.85908e-05
-3.2138e-06
4.28844e-05
-2.53172e-06
3.77568e-05
-1.93611e-06
3.31144e-05
-1.42264e-06
2.89667e-05
-9.83754e-07
2.52025e-05
-6.15881e-07
2.17705e-05
-3.20572e-07
1.82726e-05
-1.12722e-07
1.37556e-05
1.74048e-05
-1.9036e-07
2.78206e-05
-7.03489e-08
2.85612e-05
6.29683e-09
2.93189e-05
4.38217e-08
3.00932e-05
5.18901e-08
3.08896e-05
1.90058e-08
-3.50959e-07
1.93603e-05
-5.58901e-07
2.15376e-05
-8.20273e-07
2.39543e-05
-1.14163e-06
2.66401e-05
-1.52999e-06
2.96295e-05
-1.99082e-06
3.29565e-05
-2.52841e-06
3.66593e-05
-3.14302e-06
4.07944e-05
-3.83185e-06
4.542e-05
-4.58474e-06
5.06135e-05
-5.38203e-06
5.64666e-05
-6.19464e-06
6.30974e-05
-6.9793e-06
7.06496e-05
-7.67903e-06
7.8041e-05
-8.22829e-06
7.89047e-05
-8.60205e-06
7.99268e-05
-8.77102e-06
8.1094e-05
-8.71878e-06
8.23752e-05
-8.44279e-06
8.37443e-05
-7.95345e-06
8.5162e-05
-7.27298e-06
9.13091e-05
-6.37455e-06
8.08226e-05
-5.49652e-06
7.1469e-05
-4.66655e-06
6.313e-05
-4.82319e-06
5.58282e-05
-3.94119e-06
4.93182e-05
-3.15427e-06
4.35069e-05
-2.46603e-06
3.82868e-05
-1.87331e-06
3.3565e-05
-1.36854e-06
2.93515e-05
-9.42074e-07
2.55287e-05
-5.88371e-07
2.20383e-05
-3.06636e-07
1.84665e-05
-1.0882e-07
1.38645e-05
1.74022e-05
-3.48329e-07
2.78146e-05
-1.84282e-07
2.85596e-05
-6.87345e-08
2.93205e-05
4.75439e-09
3.00965e-05
4.06047e-08
3.0893e-05
4.84424e-08
3.17095e-05
1.75366e-08
-5.53546e-07
1.93549e-05
-8.11336e-07
2.15287e-05
-1.12825e-06
2.39409e-05
-1.51145e-06
2.66215e-05
-1.96678e-06
2.96054e-05
-2.49932e-06
3.29274e-05
-3.11068e-06
3.6627e-05
-3.80024e-06
4.07628e-05
-4.56109e-06
4.53963e-05
-5.37815e-06
5.06096e-05
-6.22836e-06
5.65004e-05
-7.07587e-06
6.3194e-05
-7.87193e-06
7.08425e-05
-8.55315e-06
7.83658e-05
-9.05263e-06
7.93553e-05
-9.34996e-06
8.05057e-05
-9.42207e-06
8.17973e-05
-9.26011e-06
8.31925e-05
-8.8694e-06
8.46602e-05
-8.26872e-06
8.61577e-05
-7.48764e-06
9.24222e-05
-6.50237e-06
8.18285e-05
-5.5602e-06
7.23626e-05
-5.79288e-06
6.40997e-05
-4.77792e-06
5.6665e-05
-3.86906e-06
5.0033e-05
-3.07233e-06
4.41132e-05
-2.38551e-06
3.8799e-05
-1.80126e-06
3.39977e-05
-1.30911e-06
2.97185e-05
-8.97574e-07
2.58379e-05
-5.593e-07
2.22909e-05
-2.91677e-07
1.86494e-05
-1.0423e-07
1.39687e-05
1.7397e-05
-5.48283e-07
2.78019e-05
-3.35702e-07
2.8553e-05
-1.7771e-07
2.93185e-05
-6.67589e-08
3.00977e-05
3.48906e-09
3.0896e-05
3.76111e-08
3.17128e-05
4.51495e-08
3.25534e-05
1.61567e-08
-8.02572e-07
1.93462e-05
-1.11505e-06
2.15155e-05
-1.49292e-06
2.39224e-05
-1.94227e-06
2.6597e-05
-2.4687e-06
2.95748e-05
-3.07484e-06
3.28915e-05
-3.76174e-06
3.65885e-05
-4.52505e-06
4.07267e-05
-5.35345e-06
4.53716e-05
-6.22896e-06
5.06102e-05
-7.12221e-06
5.65467e-05
-7.99209e-06
6.33141e-05
-8.78322e-06
7.10726e-05
-9.42913e-06
7.87423e-05
-9.86037e-06
7.98657e-05
-1.00652e-05
8.11489e-05
-1.00279e-05
8.25651e-05
-9.7475e-06
8.40706e-05
-9.23836e-06
8.56299e-05
-8.52747e-06
8.71975e-05
-7.65009e-06
9.35699e-05
-6.58564e-06
8.28539e-05
-6.90894e-06
7.34787e-05
-5.74265e-06
6.50645e-05
-4.6925e-06
5.74884e-05
-3.76922e-06
5.07299e-05
-2.97195e-06
4.46997e-05
-2.29337e-06
3.92911e-05
-1.72238e-06
3.4411e-05
-1.24609e-06
3.00671e-05
-8.51338e-07
2.613e-05
-5.29366e-07
2.25286e-05
-2.76145e-07
1.88213e-05
-9.91837e-08
1.40679e-05
1.73885e-05
-7.94112e-07
2.77808e-05
-5.27187e-07
2.85397e-05
-3.22397e-07
2.93114e-05
-1.70607e-07
3.00954e-05
-6.43961e-08
3.0897e-05
2.49949e-09
3.17155e-05
3.48404e-08
3.25565e-05
4.20078e-08
3.34193e-05
1.48614e-08
-1.10226e-06
1.93334e-05
-1.47479e-06
2.14973e-05
-1.91792e-06
2.3898e-05
-2.43761e-06
2.65659e-05
-3.03721e-06
2.95372e-05
-3.71901e-06
3.28488e-05
-4.4807e-06
3.65441e-05
-5.31397e-06
4.06872e-05
-6.20506e-06
4.53477e-05
-7.13019e-06
5.06182e-05
-8.05506e-06
5.66097e-05
-8.93192e-06
6.34628e-05
-9.70187e-06
7.13453e-05
-1.02937e-05
7.91756e-05
-1.06391e-05
8.04396e-05
-1.07369e-05
8.18579e-05
-1.05791e-05
8.33967e-05
-1.01743e-05
8.50066e-05
-9.54601e-06
8.66484e-05
-8.72779e-06
8.82752e-05
-7.76038e-06
9.47447e-05
-8.19367e-06
8.41386e-05
-6.8558e-06
7.45918e-05
-5.64367e-06
6.60156e-05
-4.57317e-06
5.82924e-05
-3.64668e-06
5.14046e-05
-2.85719e-06
4.52635e-05
-2.19271e-06
3.97614e-05
-1.63896e-06
3.48039e-05
-1.18097e-06
3.03967e-05
-8.04333e-07
2.64049e-05
-4.99191e-07
2.27517e-05
-2.60378e-07
1.89825e-05
-9.38865e-08
1.41618e-05
1.73762e-05
-1.09e-06
2.7749e-05
-7.62292e-07
2.85177e-05
-5.05244e-07
2.92974e-05
-3.08466e-07
3.00878e-05
-1.63043e-07
3.08943e-05
-6.16645e-08
3.17162e-05
1.78657e-09
3.25591e-05
3.22907e-08
3.34223e-05
3.9025e-08
3.43052e-05
1.36494e-08
-1.45731e-06
1.93159e-05
-1.89419e-06
2.14736e-05
-2.40681e-06
2.38672e-05
-2.99904e-06
2.65278e-05
-3.67408e-06
2.94923e-05
-4.43119e-06
3.27993e-05
-5.26447e-06
3.64946e-05
-6.16361e-06
4.06458e-05
-7.10954e-06
4.53271e-05
-8.07392e-06
5.0637e-05
-9.01605e-06
5.66938e-05
-9.88444e-06
6.36454e-05
-1.06146e-05
7.16662e-05
-1.11341e-05
7.96706e-05
-1.13772e-05
8.10799e-05
-1.13546e-05
8.26334e-05
-1.10681e-05
8.42905e-05
-1.05361e-05
8.59967e-05
-9.78965e-06
8.77103e-05
-8.86921e-06
8.93841e-05
-9.67224e-06
9.62232e-05
-8.14166e-06
8.54245e-05
-6.74377e-06
7.56919e-05
-5.50336e-06
6.69458e-05
-4.42603e-06
5.90717e-05
-3.50649e-06
5.20539e-05
-2.73193e-06
4.58027e-05
-2.08642e-06
4.02089e-05
-1.55298e-06
3.51759e-05
-1.11506e-06
3.07074e-05
-7.57408e-07
2.66631e-05
-4.69219e-07
2.29605e-05
-2.44687e-07
1.91333e-05
-8.84923e-08
1.42502e-05
1.73596e-05
-1.44065e-06
2.77042e-05
-1.04515e-06
2.84849e-05
-7.29415e-07
2.92746e-05
-4.82422e-07
3.00732e-05
-2.93859e-07
3.08862e-05
-1.54979e-07
3.17131e-05
-5.85687e-08
3.25595e-05
1.34618e-09
3.34246e-05
2.9959e-08
3.4308e-05
3.61992e-08
3.52191e-05
1.25201e-08
-1.87138e-06
1.92931e-05
-2.37684e-06
2.14436e-05
-2.96125e-06
2.38294e-05
-3.62846e-06
2.64821e-05
-4.37893e-06
2.944e-05
-5.20865e-06
3.27435e-05
-6.1101e-06
3.64411e-05
-7.06813e-06
4.06044e-05
-8.05954e-06
4.53127e-05
-9.04989e-06
5.06709e-05
-9.99476e-06
5.68041e-05
-1.08366e-05
6.38674e-05
-1.15087e-05
7.20409e-05
-1.19382e-05
8.02316e-05
-1.20634e-05
8.17887e-05
-1.19097e-05
8.3475e-05
-1.14892e-05
8.52436e-05
-1.0829e-05
8.70361e-05
-9.96817e-06
8.88092e-05
-1.10758e-05
9.07876e-05
-9.62907e-06
9.77106e-05
-8.01894e-06
8.66997e-05
-6.58167e-06
7.67702e-05
-5.32916e-06
6.7849e-05
-4.25728e-06
5.98225e-05
-3.3534e-06
5.26753e-05
-2.59975e-06
4.63161e-05
-1.97698e-06
4.06329e-05
-1.46611e-06
3.55269e-05
-1.04951e-06
3.09995e-05
-7.11144e-07
2.69051e-05
-4.39867e-07
2.31557e-05
-2.29301e-07
1.92741e-05
-8.31113e-08
1.43334e-05
1.73379e-05
-1.84969e-06
2.76434e-05
-1.37985e-06
2.84387e-05
-9.98985e-07
2.92408e-05
-6.95552e-07
3.00496e-05
-4.58784e-07
3.0871e-05
-2.78642e-07
3.17046e-05
-1.46444e-07
3.25561e-05
-5.51239e-08
3.34248e-05
1.17225e-09
3.43102e-05
2.78387e-08
3.52218e-05
3.35273e-08
3.61551e-05
1.14699e-08
-2.34808e-06
1.92643e-05
-2.92449e-06
2.14069e-05
-3.58326e-06
2.37842e-05
-4.32572e-06
2.64289e-05
-5.14933e-06
2.93807e-05
-6.04882e-06
3.26822e-05
-7.01226e-06
3.63853e-05
-8.02077e-06
4.05656e-05
-9.04543e-06
4.53082e-05
-1.00482e-05
5.07244e-05
-1.09786e-05
5.6946e-05
-1.17759e-05
6.41346e-05
-1.23716e-05
7.24743e-05
-1.26941e-05
8.08623e-05
-1.26883e-05
8.25673e-05
-1.23957e-05
8.43815e-05
-1.1838e-05
8.62526e-05
-1.10514e-05
8.81193e-05
-1.2476e-05
9.02094e-05
-1.10496e-05
9.22081e-05
-9.50102e-06
9.91927e-05
-7.83581e-06
8.79538e-05
-6.37837e-06
7.78194e-05
-5.12853e-06
6.87202e-05
-4.07267e-06
6.05418e-05
-3.19176e-06
5.32674e-05
-2.46368e-06
4.68027e-05
-1.86651e-06
4.10333e-05
-1.37983e-06
3.58573e-05
-9.85054e-07
3.12734e-05
-6.66092e-07
2.71313e-05
-4.11432e-07
2.33378e-05
-2.14371e-07
1.94054e-05
-7.78325e-08
1.44112e-05
1.73106e-05
-2.32077e-06
2.75636e-05
-1.76989e-06
2.83762e-05
-1.31733e-06
2.91931e-05
-9.51338e-07
3.00145e-05
-6.60532e-07
3.08465e-05
-4.34324e-07
3.16888e-05
-2.62834e-07
3.25471e-05
-1.37457e-07
3.3421e-05
-5.13378e-08
3.43101e-05
1.26269e-09
3.52237e-05
2.59225e-08
3.61576e-05
3.10077e-08
3.6589e-05
1.05085e-08
-2.88923e-06
1.9229e-05
-3.53927e-06
2.13629e-05
-4.27288e-06
2.37314e-05
-5.08866e-06
2.63683e-05
-5.98308e-06
2.9315e-05
-6.94685e-06
3.26168e-05
-7.96471e-06
3.63292e-05
-9.01248e-06
4.05327e-05
-1.00579e-05
4.53179e-05
-1.10568e-05
5.08026e-05
-1.19551e-05
5.71252e-05
-1.26895e-05
6.44525e-05
-1.31911e-05
7.29713e-05
-1.33914e-05
8.15654e-05
-1.32441e-05
8.34157e-05
-1.28068e-05
8.53503e-05
-1.21116e-05
8.73127e-05
-1.38669e-05
8.95102e-05
-1.24769e-05
9.16367e-05
-1.09248e-05
9.36319e-05
-9.29984e-06
0.000100657
-7.60253e-06
8.9178e-05
-6.14281e-06
7.88337e-05
-4.90841e-06
6.95559e-05
-3.87751e-06
6.12275e-05
-3.02531e-06
5.3829e-05
-2.32633e-06
4.72626e-05
-1.75682e-06
4.14103e-05
-1.29508e-06
3.61673e-05
-9.22429e-07
3.15298e-05
-6.22639e-07
2.73425e-05
-3.84094e-07
2.35075e-05
-2.00021e-07
1.95275e-05
-7.27229e-08
1.44839e-05
1.72771e-05
-2.85576e-06
2.74615e-05
-2.21869e-06
2.82947e-05
-1.68838e-06
2.91291e-05
-1.25334e-06
2.99657e-05
-9.02507e-07
3.08106e-05
-6.24614e-07
3.16636e-05
-4.09106e-07
3.25307e-05
-2.4642e-07
3.34116e-05
-1.2804e-07
3.4306e-05
-4.7228e-08
3.52234e-05
1.6141e-09
3.61593e-05
2.42e-08
3.65913e-05
2.86688e-08
3.55528e-05
9.65998e-09
-3.49704e-06
1.91868e-05
-4.22137e-06
2.13114e-05
-5.0282e-06
2.36709e-05
-5.91539e-06
2.63006e-05
-6.87574e-06
2.92438e-05
-7.897e-06
3.25491e-05
-8.95902e-06
3.62757e-05
-1.00346e-05
4.05093e-05
-1.10854e-05
4.53465e-05
-1.20635e-05
5.09111e-05
-1.29117e-05
5.73475e-05
-1.35651e-05
6.48264e-05
-1.3956e-05
7.3536e-05
-1.40216e-05
8.23429e-05
-1.37243e-05
8.43332e-05
-1.31396e-05
8.63784e-05
-1.52408e-05
8.86866e-05
-1.39068e-05
9.09401e-05
-1.23653e-05
9.30772e-05
-1.07143e-05
9.50464e-05
-9.03739e-06
0.000102092
-7.32954e-06
9.03647e-05
-5.8833e-06
7.98086e-05
-4.67524e-06
7.03537e-05
-3.67632e-06
6.18785e-05
-2.85722e-06
5.43599e-05
-2.18996e-06
4.76957e-05
-1.64912e-06
4.17643e-05
-1.2128e-06
3.64577e-05
-8.62132e-07
3.17692e-05
-5.81005e-07
2.75394e-05
-3.58003e-07
2.36655e-05
-1.86344e-07
1.96412e-05
-6.78252e-08
1.45517e-05
1.7237e-05
-3.45693e-06
2.73344e-05
-2.72868e-06
2.81907e-05
-2.11469e-06
2.90455e-05
-1.60479e-06
2.99002e-05
-1.18785e-06
3.07605e-05
-8.52445e-07
3.16267e-05
-5.8774e-07
3.25048e-05
-3.83237e-07
3.33947e-05
-2.29513e-07
3.42962e-05
-1.18247e-07
3.5219e-05
-4.28185e-08
3.61587e-05
2.21701e-09
3.65928e-05
2.26821e-08
3.55549e-05
2.65862e-08
3.45448e-05
8.90887e-09
-4.17185e-06
1.91373e-05
-4.96909e-06
2.12523e-05
-5.8476e-06
2.36031e-05
-6.80185e-06