# Residuals   
# Time        	p             	Ux            	Uy            	k             	epsilon       	h             
0             	N/A	N/A	N/A	N/A	N/A
1.19904e-05   	2.214413e-02	1.178898e-03	5.406663e-04	4.290647e-04	4.089270e-04	9.583900e-04
2.62999e-05   	2.216639e-02	1.363410e-03	5.605483e-04	5.120772e-04	4.807785e-04	1.215041e-03
4.29227e-05   	1.671230e-02	1.515113e-03	6.579316e-04	5.917565e-04	5.482782e-04	1.439362e-03
6.18525e-05   	1.704203e-02	1.698136e-03	7.923002e-04	6.727330e-04	6.155557e-04	1.643005e-03
8.30879e-05   	1.813824e-02	1.875031e-03	9.353197e-04	7.542453e-04	6.843122e-04	1.849505e-03
0.00010615    	1.864298e-02	2.012331e-03	1.048149e-03	8.185895e-04	7.357947e-04	2.017151e-03
0.000129106   	1.762128e-02	1.989481e-03	1.060644e-03	8.140677e-04	7.249935e-04	2.017451e-03
0.000151955   	1.735558e-02	1.978178e-03	1.058928e-03	8.097119e-04	7.132242e-04	2.017907e-03
0.000174752   	1.679887e-02	1.979858e-03	1.093680e-03	8.075174e-04	7.032232e-04	2.022575e-03
0.000197443   	1.583895e-02	1.986697e-03	1.105764e-03	8.032146e-04	6.921961e-04	2.021128e-03
0.000220082   	1.483070e-02	2.001317e-03	1.131985e-03	8.006364e-04	6.828038e-04	2.019274e-03
0.000242668   	1.427091e-02	2.009950e-03	1.160451e-03	7.980054e-04	6.737785e-04	2.013004e-03
0.000265202   	1.366598e-02	2.005238e-03	1.172180e-03	7.954161e-04	6.656760e-04	2.006702e-03
0.000287736   	1.314057e-02	1.991296e-03	1.177746e-03	7.946011e-04	6.593483e-04	2.005307e-03
0.000310271   	1.284147e-02	1.964851e-03	1.180170e-03	7.936881e-04	6.533969e-04	2.003814e-03
0.000332753   	1.245995e-02	1.924965e-03	1.188997e-03	7.910539e-04	6.463034e-04	1.997360e-03
0.000355235   	1.218880e-02	1.883765e-03	1.200465e-03	7.903438e-04	6.410674e-04	1.995115e-03
0.000377717   	1.199309e-02	1.841344e-03	1.209518e-03	7.896454e-04	6.362536e-04	1.992490e-03
0.000400199   	1.168505e-02	1.802363e-03	1.221556e-03	7.889626e-04	6.314634e-04	1.989520e-03
0.000422681   	1.137532e-02	1.771308e-03	1.230673e-03	7.883722e-04	6.270120e-04	1.986248e-03
0.000445163   	1.104596e-02	1.752405e-03	1.238986e-03	7.878882e-04	6.229363e-04	1.983062e-03
0.000467592   	1.070152e-02	1.743858e-03	1.242592e-03	7.856546e-04	6.180840e-04	1.975255e-03
0.000490021   	1.041273e-02	1.752078e-03	1.243462e-03	7.853503e-04	6.149411e-04	1.972149e-03
0.00051245    	1.011851e-02	1.769539e-03	1.243367e-03	7.850752e-04	6.120219e-04	1.969210e-03
0.000534879   	9.923964e-03	1.792545e-03	1.237724e-03	7.848331e-04	6.091916e-04	1.966344e-03
0.000557309   	9.763983e-03	1.819263e-03	1.231618e-03	7.846386e-04	6.065211e-04	1.964074e-03
0.000579738   	9.653407e-03	1.848306e-03	1.220272e-03	7.844705e-04	6.038581e-04	1.962130e-03
0.000602114   	9.499408e-03	1.873543e-03	1.205990e-03	7.824441e-04	5.999641e-04	1.956044e-03
0.00062449    	9.366840e-03	1.901924e-03	1.191296e-03	7.822782e-04	5.977100e-04	1.954741e-03
0.000646865   	9.231707e-03	1.927384e-03	1.177582e-03	7.821048e-04	5.956702e-04	1.953762e-03
0.000669241   	9.104650e-03	1.949229e-03	1.163579e-03	7.819412e-04	5.937566e-04	1.952929e-03
0.000691617   	8.998281e-03	1.966660e-03	1.150678e-03	7.817911e-04	5.921278e-04	1.952250e-03
0.00071394    	8.867955e-03	1.975118e-03	1.136831e-03	7.797676e-04	5.894838e-04	1.947014e-03
0.000736262   	8.756093e-03	1.984841e-03	1.126349e-03	7.796525e-04	5.885169e-04	1.946386e-03
0.000758584   	8.658534e-03	1.991891e-03	1.117218e-03	7.795814e-04	5.877834e-04	1.945738e-03
0.000780853   	8.532817e-03	1.991974e-03	1.106392e-03	7.776549e-04	5.858845e-04	1.940436e-03
0.000803067   	8.390116e-03	1.990186e-03	1.096525e-03	7.757501e-04	5.842321e-04	1.935046e-03
0.000825282   	8.255771e-03	1.992546e-03	1.090904e-03	7.757282e-04	5.841833e-04	1.934158e-03
0.000847443   	8.074928e-03	1.990885e-03	1.084401e-03	7.738377e-04	5.830177e-04	1.928327e-03
0.000869551   	7.852608e-03	1.991007e-03	1.080223e-03	7.719903e-04	5.821306e-04	1.922192e-03
0.000891605   	7.598753e-03	1.992287e-03	1.078411e-03	7.701672e-04	5.814479e-04	1.915651e-03
0.000913606   	7.301461e-03	1.994133e-03	1.079287e-03	7.684153e-04	5.809012e-04	1.908568e-03
0.000935554   	6.956390e-03	1.996257e-03	1.083670e-03	7.666948e-04	5.804492e-04	1.900930e-03
0.000957396   	6.545998e-03	1.993526e-03	1.089289e-03	7.631120e-04	5.786881e-04	1.888190e-03
0.000979185   	6.110842e-03	1.994439e-03	1.100774e-03	7.613639e-04	5.783607e-04	1.879516e-03
0.00100092    	5.642148e-03	1.993623e-03	1.113977e-03	7.596101e-04	5.780672e-04	1.870059e-03
0.00102261    	5.138425e-03	1.990435e-03	1.127174e-03	7.578344e-04	5.777401e-04	1.859403e-03
0.00104424    	4.605031e-03	1.984043e-03	1.138904e-03	7.560460e-04	5.774222e-04	1.847938e-03
0.00106582    	4.077432e-03	1.974113e-03	1.148077e-03	7.542608e-04	5.770610e-04	1.836397e-03
0.00108735    	3.717435e-03	1.960699e-03	1.153758e-03	7.525078e-04	5.765219e-04	1.825152e-03
0.00110882    	3.559483e-03	1.943806e-03	1.155485e-03	7.507554e-04	5.758571e-04	1.815156e-03
0.0011303     	3.538184e-03	1.928694e-03	1.155975e-03	7.507881e-04	5.764440e-04	1.810544e-03
0.00115172    	3.599185e-03	1.906880e-03	1.149711e-03	7.489781e-04	5.754019e-04	1.802131e-03
0.00117315    	3.787438e-03	1.888606e-03	1.142555e-03	7.489460e-04	5.755453e-04	1.798658e-03
0.00119457    	4.060114e-03	1.870611e-03	1.132153e-03	7.488737e-04	5.755398e-04	1.795826e-03
0.001216      	4.402002e-03	1.855423e-03	1.119169e-03	7.487759e-04	5.754265e-04	1.793410e-03
0.00123742    	4.761774e-03	1.848294e-03	1.104072e-03	7.486755e-04	5.752006e-04	1.791311e-03
0.00125885    	5.130393e-03	1.849026e-03	1.087357e-03	7.485542e-04	5.748582e-04	1.789399e-03
0.00128027    	5.499173e-03	1.855435e-03	1.069834e-03	7.483961e-04	5.744905e-04	1.787563e-03
0.0013017     	5.917485e-03	1.864948e-03	1.051621e-03	7.482250e-04	5.740689e-04	1.785902e-03
0.00132312    	6.332803e-03	1.875142e-03	1.033197e-03	7.480475e-04	5.735779e-04	1.784577e-03
0.00134454    	6.732400e-03	1.884269e-03	1.014536e-03	7.478915e-04	5.730836e-04	1.783233e-03
0.00136597    	7.110346e-03	1.891465e-03	9.960700e-04	7.477604e-04	5.726134e-04	1.781810e-03
0.00138739    	7.462953e-03	1.896498e-03	9.780196e-04	7.476613e-04	5.721694e-04	1.780263e-03
0.00140887    	7.814802e-03	1.904031e-03	9.632771e-04	7.494177e-04	5.732248e-04	1.782979e-03
0.00143035    	8.120387e-03	1.905073e-03	9.473091e-04	7.493300e-04	5.728429e-04	1.781079e-03
0.00145183    	8.405631e-03	1.905540e-03	9.322641e-04	7.492570e-04	5.724200e-04	1.779012e-03
0.0014733     	8.672366e-03	1.905547e-03	9.183314e-04	7.491829e-04	5.719515e-04	1.776743e-03
0.00149478    	8.929786e-03	1.905337e-03	9.053637e-04	7.491172e-04	5.714863e-04	1.774321e-03
0.00151626    	9.186994e-03	1.905480e-03	8.939468e-04	7.490553e-04	5.710571e-04	1.771718e-03
0.00153774    	9.432125e-03	1.906286e-03	8.839975e-04	7.490258e-04	5.706538e-04	1.768944e-03
0.00155922    	9.660154e-03	1.907933e-03	8.752051e-04	7.490034e-04	5.702734e-04	1.766001e-03
0.00158069    	9.883374e-03	1.909745e-03	8.672913e-04	7.489692e-04	5.698751e-04	1.762915e-03
0.00160217    	1.010019e-02	1.911022e-03	8.594156e-04	7.489609e-04	5.694893e-04	1.759717e-03
0.00162365    	1.031625e-02	1.911209e-03	8.518482e-04	7.489663e-04	5.691677e-04	1.756452e-03
0.00164513    	1.052919e-02	1.910186e-03	8.453547e-04	7.489811e-04	5.688318e-04	1.753139e-03
0.0016666     	1.073253e-02	1.907915e-03	8.402265e-04	7.489988e-04	5.686188e-04	1.749744e-03
0.00168808    	1.091851e-02	1.903852e-03	8.361491e-04	7.490254e-04	5.683861e-04	1.746249e-03
0.00170956    	1.109189e-02	1.897866e-03	8.333142e-04	7.490537e-04	5.681621e-04	1.742676e-03
0.00173109    	1.128144e-02	1.895100e-03	8.332615e-04	7.510443e-04	5.693418e-04	1.743530e-03
0.00175263    	1.142861e-02	1.887095e-03	8.317681e-04	7.511170e-04	5.690705e-04	1.739760e-03
0.00177416    	1.155736e-02	1.879624e-03	8.307840e-04	7.511959e-04	5.688018e-04	1.735913e-03
0.00179569    	1.167421e-02	1.873342e-03	8.312382e-04	7.512732e-04	5.685339e-04	1.731998e-03
0.00181723    	1.178632e-02	1.869186e-03	8.313945e-04	7.513650e-04	5.682185e-04	1.727985e-03
0.00183876    	1.188442e-02	1.868869e-03	8.317306e-04	7.514931e-04	5.678184e-04	1.723887e-03
0.00186035    	1.202693e-02	1.875820e-03	8.345912e-04	7.536264e-04	5.688841e-04	1.724243e-03
0.00188194    	1.217754e-02	1.879093e-03	8.350212e-04	7.537996e-04	5.684295e-04	1.719977e-03
0.00190353    	1.233189e-02	1.882859e-03	8.349811e-04	7.539705e-04	5.679917e-04	1.715662e-03
0.00192512    	1.247041e-02	1.886587e-03	8.347825e-04	7.541464e-04	5.675698e-04	1.711287e-03
0.00194677    	1.261160e-02	1.894852e-03	8.362690e-04	7.563616e-04	5.685752e-04	1.711452e-03
0.00196842    	1.269321e-02	1.897104e-03	8.347479e-04	7.565457e-04	5.680785e-04	1.706991e-03
0.00199007    	1.275553e-02	1.898197e-03	8.324171e-04	7.567105e-04	5.677069e-04	1.702548e-03
0.00201172    	1.277429e-02	1.898066e-03	8.292741e-04	7.568640e-04	5.672463e-04	1.698034e-03
0.00203343    	1.282323e-02	1.902117e-03	8.275715e-04	7.590586e-04	5.682685e-04	1.697728e-03
0.00205513    	1.280689e-02	1.900077e-03	8.229319e-04	7.591682e-04	5.677569e-04	1.692477e-03
0.00207684    	1.274095e-02	1.897329e-03	8.175772e-04	7.592741e-04	5.672380e-04	1.687294e-03
0.00209855    	1.266229e-02	1.894241e-03	8.118215e-04	7.593767e-04	5.667244e-04	1.682182e-03
0.00212025    	1.256098e-02	1.891886e-03	8.054105e-04	7.594554e-04	5.661628e-04	1.677152e-03
0.00214202    	1.247520e-02	1.895567e-03	8.002089e-04	7.616300e-04	5.672225e-04	1.676855e-03
0.00216379    	1.233829e-02	1.894717e-03	7.917967e-04	7.616958e-04	5.666971e-04	1.672050e-03
0.00218556    	1.219358e-02	1.894565e-03	7.826235e-04	7.617644e-04	5.662404e-04	1.667355e-03
0.00220732    	1.204165e-02	1.895305e-03	7.735664e-04	7.618320e-04	5.657321e-04	1.662793e-03
0.00222909    	1.190695e-02	1.897000e-03	7.639635e-04	7.618860e-04	5.652130e-04	1.658376e-03
0.00225086    	1.178310e-02	1.898941e-03	7.550314e-04	7.619108e-04	5.647109e-04	1.654154e-03
0.00227263    	1.166598e-02	1.900667e-03	7.478193e-04	7.619198e-04	5.641875e-04	1.650097e-03
0.00229439    	1.153446e-02	1.901827e-03	7.439228e-04	7.619103e-04	5.636079e-04	1.646195e-03
0.00231616    	1.142294e-02	1.902315e-03	7.465300e-04	7.619049e-04	5.630352e-04	1.642500e-03
0.00233793    	1.131189e-02	1.901921e-03	7.528105e-04	7.619039e-04	5.624930e-04	1.638910e-03
0.00235976    	1.122411e-02	1.906396e-03	7.621720e-04	7.640730e-04	5.635523e-04	1.640119e-03
0.00238159    	1.113912e-02	1.904971e-03	7.700879e-04	7.640476e-04	5.630185e-04	1.636829e-03
0.00240341    	1.105787e-02	1.903324e-03	7.782091e-04	7.640062e-04	5.625300e-04	1.633674e-03
0.00242524    	1.098956e-02	1.901431e-03	7.865327e-04	7.639954e-04	5.620283e-04	1.630620e-03
0.00244707    	1.094158e-02	1.899675e-03	7.950387e-04	7.639792e-04	5.615048e-04	1.627644e-03
0.0024689     	1.090416e-02	1.898765e-03	8.036850e-04	7.639702e-04	5.610483e-04	1.624818e-03
0.00249073    	1.088005e-02	1.898850e-03	8.123739e-04	7.639777e-04	5.606047e-04	1.622070e-03
0.00251256    	1.084043e-02	1.899543e-03	8.211492e-04	7.639681e-04	5.602059e-04	1.619413e-03
0.00253439    	1.080866e-02	1.900513e-03	8.298480e-04	7.639539e-04	5.597577e-04	1.616779e-03
0.00255622    	1.077607e-02	1.901387e-03	8.384854e-04	7.639205e-04	5.593188e-04	1.614182e-03
0.00257805    	1.076885e-02	1.901862e-03	8.468963e-04	7.638789e-04	5.589194e-04	1.611476e-03
0.00259988    	1.079127e-02	1.902071e-03	8.551212e-04	7.638242e-04	5.585614e-04	1.609018e-03
0.00262171    	1.078554e-02	1.900647e-03	8.629531e-04	7.637743e-04	5.582396e-04	1.606566e-03
0.00264354    	1.083190e-02	1.898611e-03	8.703798e-04	7.637100e-04	5.578673e-04	1.604097e-03
0.00266537    	1.093098e-02	1.895930e-03	8.772983e-04	7.636402e-04	5.574880e-04	1.601693e-03
0.0026872     	1.106629e-02	1.892686e-03	8.836060e-04	7.635861e-04	5.571089e-04	1.599367e-03
0.00270902    	1.118488e-02	1.888982e-03	8.892427e-04	7.635470e-04	5.567382e-04	1.597073e-03
0.00273085    	1.130798e-02	1.884958e-03	8.941819e-04	7.635065e-04	5.563756e-04	1.594780e-03
0.00275268    	1.140213e-02	1.881295e-03	8.983914e-04	7.634651e-04	5.560009e-04	1.592495e-03
0.00277451    	1.149365e-02	1.878131e-03	9.018880e-04	7.634167e-04	5.556532e-04	1.590280e-03
0.00279634    	1.157956e-02	1.875792e-03	9.046621e-04	7.633754e-04	5.553295e-04	1.588051e-03
0.00281817    	1.166247e-02	1.874089e-03	9.067023e-04	7.633342e-04	5.550156e-04	1.585803e-03
0.00284       	1.175522e-02	1.873329e-03	9.080136e-04	7.632776e-04	5.547207e-04	1.583536e-03
0.00286183    	1.182954e-02	1.874038e-03	9.086489e-04	7.632242e-04	5.544893e-04	1.581267e-03
0.00288366    	1.189556e-02	1.876089e-03	9.086228e-04	7.631696e-04	5.542780e-04	1.579005e-03
0.00290555    	1.199154e-02	1.884793e-03	9.107276e-04	7.654610e-04	5.558538e-04	1.581598e-03
0.00292745    	1.203825e-02	1.888175e-03	9.094240e-04	7.654154e-04	5.557581e-04	1.579314e-03
0.00294935    	1.208394e-02	1.891790e-03	9.075604e-04	7.654091e-04	5.556727e-04	1.576998e-03
0.00297124    	1.213588e-02	1.895377e-03	9.051314e-04	7.654199e-04	5.556019e-04	1.574658e-03
0.00299314    	1.219262e-02	1.898690e-03	9.021539e-04	7.654163e-04	5.555306e-04	1.572281e-03
0.00301504    	1.222808e-02	1.901564e-03	8.986549e-04	7.653958e-04	5.554922e-04	1.569883e-03
0.003037      	1.226050e-02	1.909915e-03	8.975052e-04	7.678024e-04	5.572314e-04	1.572347e-03
0.00305897    	1.228736e-02	1.911727e-03	8.931932e-04	7.678064e-04	5.572533e-04	1.569846e-03
0.00308093    	1.233622e-02	1.913033e-03	8.885488e-04	7.677860e-04	5.572954e-04	1.567307e-03
0.0031029     	1.236900e-02	1.913706e-03	8.836029e-04	7.677545e-04	5.573333e-04	1.564754e-03
0.00312486    	1.239993e-02	1.913668e-03	8.783851e-04	7.677220e-04	5.573571e-04	1.562183e-03
0.0031469     	1.245731e-02	1.919100e-03	8.757284e-04	7.701502e-04	5.591852e-04	1.564275e-03
0.00316893    	1.244661e-02	1.917821e-03	8.701180e-04	7.701109e-04	5.592754e-04	1.561073e-03
0.00319097    	1.241173e-02	1.916283e-03	8.644382e-04	7.700683e-04	5.594027e-04	1.557781e-03
0.00321301    	1.236086e-02	1.914366e-03	8.587942e-04	7.700062e-04	5.595004e-04	1.554464e-03
0.00323504    	1.227343e-02	1.912464e-03	8.532662e-04	7.699489e-04	5.596020e-04	1.551116e-03
0.00325715    	1.220734e-02	1.916863e-03	8.506507e-04	7.723967e-04	5.614838e-04	1.552817e-03
0.00327926    	1.205784e-02	1.915267e-03	8.454445e-04	7.723194e-04	5.615185e-04	1.549411e-03
0.00330137    	1.190813e-02	1.913779e-03	8.404087e-04	7.722341e-04	5.615558e-04	1.546000e-03
0.00332347    	1.175372e-02	1.912342e-03	8.355163e-04	7.721427e-04	5.616566e-04	1.542322e-03
0.00334558    	1.160382e-02	1.911765e-03	8.306846e-04	7.720750e-04	5.617983e-04	1.538829e-03
0.00336776    	1.140760e-02	1.915430e-03	8.288430e-04	7.745849e-04	5.638007e-04	1.540477e-03
0.00338994    	1.119009e-02	1.913262e-03	8.245131e-04	7.745182e-04	5.639022e-04	1.536991e-03
0.00341212    	1.098805e-02	1.911415e-03	8.204171e-04	7.744502e-04	5.640068e-04	1.533512e-03
0.00343431    	1.077953e-02	1.909808e-03	8.164796e-04	7.744031e-04	5.640972e-04	1.529995e-03
0.00345649    	1.056961e-02	1.907929e-03	8.127145e-04	7.743488e-04	5.641992e-04	1.526512e-03
0.00347867    	1.039527e-02	1.905703e-03	8.091091e-04	7.742987e-04	5.643022e-04	1.523053e-03
0.00350085    	1.023358e-02	1.902987e-03	8.055338e-04	7.742531e-04	5.644061e-04	1.519613e-03
0.00352303    	1.007731e-02	1.899866e-03	8.018979e-04	7.742025e-04	5.644776e-04	1.516205e-03
0.00354521    	9.923154e-03	1.896320e-03	7.982072e-04	7.741183e-04	5.644911e-04	1.512801e-03
0.00356739    	9.775705e-03	1.892453e-03	7.943989e-04	7.740276e-04	5.644551e-04	1.509419e-03
0.00358965    	9.659533e-03	1.894825e-03	7.932135e-04	7.765904e-04	5.663133e-04	1.511261e-03
0.00361191    	9.512121e-03	1.890433e-03	7.892614e-04	7.764447e-04	5.661819e-04	1.507966e-03
0.00363417    	9.373070e-03	1.886319e-03	7.854116e-04	7.762904e-04	5.660747e-04	1.504709e-03
0.00365643    	9.247587e-03	1.882679e-03	7.816736e-04	7.761158e-04	5.659733e-04	1.501476e-03
0.00367869    	9.137937e-03	1.879735e-03	7.781375e-04	7.759344e-04	5.658772e-04	1.498261e-03
0.00370094    	9.028393e-03	1.877345e-03	7.748543e-04	7.757623e-04	5.657691e-04	1.495156e-03
0.0037232     	8.923878e-03	1.875811e-03	7.718368e-04	7.755895e-04	5.656486e-04	1.492076e-03
0.00374546    	8.835238e-03	1.874378e-03	7.690081e-04	7.754293e-04	5.655086e-04	1.489014e-03
0.00376772    	8.759852e-03	1.873565e-03	7.664080e-04	7.752490e-04	5.653773e-04	1.485951e-03
0.00378998    	8.710505e-03	1.873230e-03	7.640268e-04	7.750491e-04	5.652236e-04	1.482999e-03
0.00381223    	8.621422e-03	1.873184e-03	7.619624e-04	7.748287e-04	5.650794e-04	1.480071e-03
0.00383449    	8.578840e-03	1.873231e-03	7.601489e-04	7.746095e-04	5.649207e-04	1.477186e-03
0.00385675    	8.512891e-03	1.873353e-03	7.586973e-04	7.743964e-04	5.647282e-04	1.474323e-03
0.00387901    	8.447158e-03	1.873345e-03	7.575104e-04	7.741813e-04	5.645117e-04	1.471495e-03
0.00390127    	8.390777e-03	1.873138e-03	7.565786e-04	7.739808e-04	5.642895e-04	1.468717e-03
0.00392352    	8.341878e-03	1.872682e-03	7.560150e-04	7.737765e-04	5.640376e-04	1.465940e-03
0.00394578    	8.280426e-03	1.871587e-03	7.558142e-04	7.735573e-04	5.638269e-04	1.463217e-03
0.00396804    	8.218168e-03	1.870620e-03	7.560509e-04	7.733370e-04	5.636695e-04	1.460529e-03
0.0039903     	8.156351e-03	1.869280e-03	7.566223e-04	7.730788e-04	5.635083e-04	1.457859e-03
0.00401256    	8.104893e-03	1.867057e-03	7.572975e-04	7.727902e-04	5.633682e-04	1.455172e-03
0.00403473    	8.016846e-03	1.856970e-03	7.550702e-04	7.696556e-04	5.611568e-04	1.447171e-03
0.00405691    	7.942168e-03	1.854052e-03	7.555804e-04	7.693820e-04	5.610367e-04	1.444509e-03
0.00407908    	7.888466e-03	1.850319e-03	7.559202e-04	7.691145e-04	5.608795e-04	1.441920e-03
0.00410126    	7.827569e-03	1.846869e-03	7.562884e-04	7.688468e-04	5.607232e-04	1.439334e-03
0.00412344    	7.750128e-03	1.843313e-03	7.566244e-04	7.685470e-04	5.605211e-04	1.436781e-03
0.00414561    	7.687898e-03	1.839718e-03	7.569509e-04	7.682197e-04	5.603003e-04	1.434245e-03
0.00416779    	7.603045e-03	1.836384e-03	7.573181e-04	7.678885e-04	5.601162e-04	1.431758e-03
0.00418996    	7.525535e-03	1.833236e-03	7.576516e-04	7.675779e-04	5.599695e-04	1.429286e-03
0.00421214    	7.451050e-03	1.830696e-03	7.578865e-04	7.672658e-04	5.598257e-04	1.426797e-03
0.00423431    	7.364521e-03	1.829142e-03	7.579693e-04	7.669442e-04	5.596964e-04	1.424378e-03
0.00425649    	7.260166e-03	1.828328e-03	7.579345e-04	7.666344e-04	5.595655e-04	1.421999e-03
0.00427867    	7.146433e-03	1.828031e-03	7.578072e-04	7.663294e-04	5.594374e-04	1.419585e-03
0.00430084    	7.039692e-03	1.828515e-03	7.575261e-04	7.660086e-04	5.593208e-04	1.417066e-03
0.00432302    	6.930748e-03	1.828851e-03	7.571366e-04	7.656938e-04	5.592146e-04	1.414360e-03
0.00434519    	6.823962e-03	1.829559e-03	7.566448e-04	7.653743e-04	5.590769e-04	1.411616e-03
0.00436737    	6.699081e-03	1.830197e-03	7.560942e-04	7.650519e-04	5.589518e-04	1.408869e-03
0.00438954    	6.565252e-03	1.831068e-03	7.554070e-04	7.647373e-04	5.588180e-04	1.406147e-03
0.00441172    	6.434458e-03	1.831743e-03	7.546186e-04	7.644515e-04	5.586745e-04	1.403445e-03
0.0044339     	6.297103e-03	1.832035e-03	7.538354e-04	7.641540e-04	5.585417e-04	1.400806e-03
0.00445607    	6.157318e-03	1.832047e-03	7.530471e-04	7.638680e-04	5.584289e-04	1.398204e-03
0.00447825    	6.025604e-03	1.831747e-03	7.522661e-04	7.636000e-04	5.582875e-04	1.395573e-03
0.00450042    	5.880945e-03	1.831433e-03	7.514068e-04	7.633395e-04	5.581313e-04	1.392995e-03
0.0045226     	5.746171e-03	1.830557e-03	7.505101e-04	7.630883e-04	5.579764e-04	1.390448e-03
0.00454477    	5.610450e-03	1.829307e-03	7.496136e-04	7.628278e-04	5.578280e-04	1.387878e-03
0.00456695    	5.485059e-03	1.827919e-03	7.487067e-04	7.625823e-04	5.576646e-04	1.385333e-03
0.00458913    	5.354527e-03	1.825860e-03	7.478475e-04	7.623612e-04	5.575318e-04	1.382851e-03
0.0046113     	5.217865e-03	1.823484e-03	7.470449e-04	7.621557e-04	5.573875e-04	1.380353e-03
0.00463348    	5.093033e-03	1.821100e-03	7.462794e-04	7.619394e-04	5.572111e-04	1.377893e-03
0.00465565    	4.978224e-03	1.818402e-03	7.455309e-04	7.617509e-04	5.570256e-04	1.375307e-03
0.00467783    	4.868640e-03	1.816971e-03	7.445675e-04	7.615580e-04	5.568189e-04	1.372862e-03
0.0047        	4.724738e-03	1.813855e-03	7.436672e-04	7.613594e-04	5.566174e-04	1.370442e-03
0.00472218    	4.600494e-03	1.810789e-03	7.428382e-04	7.611635e-04	5.564332e-04	1.368034e-03
0.00474436    	4.484856e-03	1.807671e-03	7.420797e-04	7.609935e-04	5.563274e-04	1.365610e-03
0.00476653    	4.359488e-03	1.805179e-03	7.412411e-04	7.608327e-04	5.561956e-04	1.363150e-03
0.00478871    	4.251185e-03	1.803460e-03	7.402219e-04	7.606810e-04	5.560696e-04	1.360730e-03
0.00481088    	4.125242e-03	1.802078e-03	7.391298e-04	7.605392e-04	5.559303e-04	1.358396e-03
0.00483306    	4.003735e-03	1.800356e-03	7.381121e-04	7.603887e-04	5.557618e-04	1.356004e-03
0.00485523    	3.884235e-03	1.799885e-03	7.369658e-04	7.602267e-04	5.555775e-04	1.353631e-03
0.00487741    	3.774022e-03	1.799830e-03	7.357787e-04	7.600654e-04	5.553867e-04	1.351282e-03
0.00489959    	3.672153e-03	1.799932e-03	7.345828e-04	7.598926e-04	5.552207e-04	1.348953e-03
0.00492176    	3.564047e-03	1.799968e-03	7.334185e-04	7.597424e-04	5.550695e-04	1.346635e-03
0.00494394    	3.458828e-03	1.800196e-03	7.322058e-04	7.596092e-04	5.549148e-04	1.344279e-03
0.00496611    	3.374523e-03	1.800937e-03	7.308876e-04	7.594903e-04	5.547560e-04	1.341993e-03
0.00498829    	3.292600e-03	1.801046e-03	7.296227e-04	7.593494e-04	5.545776e-04	1.339700e-03
0.00501046    	3.197252e-03	1.801400e-03	7.282987e-04	7.591871e-04	5.544325e-04	1.337413e-03
0.00503264    	3.144675e-03	1.801433e-03	7.269877e-04	7.590236e-04	5.543083e-04	1.335129e-03
0.00505482    	3.067209e-03	1.801531e-03	7.256962e-04	7.588613e-04	5.541810e-04	1.332821e-03
0.00507699    	3.006600e-03	1.801753e-03	7.243553e-04	7.587125e-04	5.540240e-04	1.330548e-03
0.00509917    	2.960219e-03	1.801205e-03	7.230729e-04	7.585692e-04	5.538541e-04	1.328323e-03
0.00512134    	2.926411e-03	1.800722e-03	7.218463e-04	7.584308e-04	5.536847e-04	1.326071e-03
0.00514352    	2.893573e-03	1.800436e-03	7.205624e-04	7.582954e-04	5.535255e-04	1.323877e-03
0.00516569    	2.854072e-03	1.799391e-03	7.194098e-04	7.581587e-04	5.534086e-04	1.321708e-03
0.00518787    	2.815630e-03	1.798407e-03	7.183354e-04	7.580083e-04	5.533052e-04	1.319541e-03
0.00521005    	2.793768e-03	1.797590e-03	7.172936e-04	7.578610e-04	5.531963e-04	1.317391e-03
0.00523222    	2.771827e-03	1.796664e-03	7.163154e-04	7.576872e-04	5.530740e-04	1.315259e-03
0.0052544     	2.732144e-03	1.795386e-03	7.154384e-04	7.575441e-04	5.529455e-04	1.313111e-03
0.00527657    	2.716670e-03	1.794112e-03	7.146773e-04	7.574016e-04	5.528140e-04	1.310950e-03
0.00529875    	2.705552e-03	1.793283e-03	7.139650e-04	7.572543e-04	5.526708e-04	1.308833e-03
0.00532092    	2.692156e-03	1.792236e-03	7.134140e-04	7.570892e-04	5.525292e-04	1.306739e-03
0.0053431     	2.674923e-03	1.791700e-03	7.130539e-04	7.569336e-04	5.523827e-04	1.304658e-03
0.00536528    	2.661302e-03	1.791271e-03	7.128873e-04	7.567669e-04	5.522244e-04	1.302579e-03
0.00538745    	2.650794e-03	1.791410e-03	7.128220e-04	7.565976e-04	5.520745e-04	1.300496e-03
0.00540963    	2.654022e-03	1.792189e-03	7.128083e-04	7.564255e-04	5.519242e-04	1.298477e-03
0.0054317     	2.619504e-03	1.784071e-03	7.095390e-04	7.526251e-04	5.491634e-04	1.290239e-03
0.00545377    	2.610068e-03	1.784762e-03	7.098165e-04	7.524652e-04	5.490497e-04	1.288172e-03
0.00547583    	2.613508e-03	1.785713e-03	7.101188e-04	7.523001e-04	5.489470e-04	1.286074e-03
0.0054979     	2.613284e-03	1.786148e-03	7.106069e-04	7.521512e-04	5.488423e-04	1.283842e-03
0.00551997    	2.608003e-03	1.787080e-03	7.111538e-04	7.520320e-04	5.487308e-04	1.281464e-03
0.00554204    	2.621324e-03	1.788763e-03	7.115425e-04	7.518996e-04	5.485934e-04	1.279211e-03
0.00556411    	2.597541e-03	1.788765e-03	7.121875e-04	7.517467e-04	5.484512e-04	1.276983e-03
0.00558618    	2.586870e-03	1.788876e-03	7.130158e-04	7.515979e-04	5.482920e-04	1.274695e-03
0.00560825    	2.594683e-03	1.789565e-03	7.137873e-04	7.514561e-04	5.481189e-04	1.272487e-03
0.00563032    	2.577785e-03	1.789726e-03	7.146177e-04	7.513263e-04	5.479215e-04	1.270319e-03
0.00565239    	2.571329e-03	1.789661e-03	7.154997e-04	7.512031e-04	5.477221e-04	1.268160e-03
0.00567446    	2.574626e-03	1.789728e-03	7.163614e-04	7.510890e-04	5.475225e-04	1.266001e-03
0.00569653    	2.577054e-03	1.789803e-03	7.171629e-04	7.509926e-04	5.473211e-04	1.263882e-03
0.00571859    	2.567066e-03	1.789807e-03	7.179155e-04	7.508903e-04	5.471170e-04	1.261801e-03
0.00574066    	2.544570e-03	1.789185e-03	7.187267e-04	7.507954e-04	5.469243e-04	1.259745e-03
0.00576273    	2.540435e-03	1.788520e-03	7.195557e-04	7.507103e-04	5.467312e-04	1.257609e-03
0.0057848     	2.539940e-03	1.788626e-03	7.201271e-04	7.506456e-04	5.465466e-04	1.255551e-03
0.00580687    	2.530387e-03	1.787916e-03	7.207117e-04	7.505825e-04	5.463754e-04	1.253517e-03
0.00582894    	2.541778e-03	1.787725e-03	7.211300e-04	7.505131e-04	5.462135e-04	1.251432e-03
0.00585101    	2.531747e-03	1.786685e-03	7.215826e-04	7.504251e-04	5.460421e-04	1.249438e-03
0.00587308    	2.514762e-03	1.785829e-03	7.220783e-04	7.503313e-04	5.458697e-04	1.247435e-03
0.00589515    	2.510363e-03	1.785253e-03	7.225880e-04	7.502415e-04	5.456944e-04	1.245478e-03
0.00591722    	2.505529e-03	1.785364e-03	7.229503e-04	7.501557e-04	5.455110e-04	1.243499e-03
0.00593929    	2.497129e-03	1.785096e-03	7.233073e-04	7.500404e-04	5.453078e-04	1.241523e-03
0.00596135    	2.482751e-03	1.783898e-03	7.238254e-04	7.499277e-04	5.451301e-04	1.239614e-03
0.00598342    	2.465408e-03	1.783545e-03	7.243814e-04	7.498004e-04	5.449462e-04	1.237622e-03
0.00600549    	2.466529e-03	1.784065e-03	7.247950e-04	7.496781e-04	5.447694e-04	1.235724e-03
0.00602756    	2.467043e-03	1.785171e-03	7.249110e-04	7.495582e-04	5.446433e-04	1.233830e-03
0.00604963    	2.446335e-03	1.784487e-03	7.252268e-04	7.494504e-04	5.445242e-04	1.231897e-03
0.0060717     	2.431177e-03	1.784871e-03	7.254565e-04	7.493278e-04	5.443985e-04	1.230014e-03
0.00609377    	2.405500e-03	1.785312e-03	7.256646e-04	7.491985e-04	5.442728e-04	1.228120e-03
0.00611584    	2.403808e-03	1.785690e-03	7.259001e-04	7.490429e-04	5.441406e-04	1.226352e-03
0.00613791    	2.406188e-03	1.787439e-03	7.258515e-04	7.488770e-04	5.439817e-04	1.224401e-03
0.00615998    	2.388328e-03	1.788130e-03	7.262125e-04	7.487408e-04	5.438043e-04	1.222671e-03
0.00618205    	2.360335e-03	1.790021e-03	7.268341e-04	7.486039e-04	5.436641e-04	1.220889e-03
0.00620412    	2.337728e-03	1.790254e-03	7.274294e-04	7.484558e-04	5.435266e-04	1.219124e-03
0.00622618    	2.316434e-03	1.790176e-03	7.277319e-04	7.483025e-04	5.434079e-04	1.217353e-03
0.00624825    	2.287451e-03	1.790004e-03	7.277225e-04	7.481425e-04	5.433017e-04	1.215601e-03
0.00627032    	2.263027e-03	1.789948e-03	7.274394e-04	7.479822e-04	5.432019e-04	1.213858e-03
0.00629239    	2.243776e-03	1.789534e-03	7.270531e-04	7.478383e-04	5.430827e-04	1.212137e-03
0.00631446    	2.228915e-03	1.789577e-03	7.265263e-04	7.477259e-04	5.429671e-04	1.210385e-03
0.00633653    	2.218116e-03	1.789515e-03	7.258805e-04	7.476075e-04	5.428588e-04	1.208613e-03
0.0063586     	2.196324e-03	1.789036e-03	7.252102e-04	7.474973e-04	5.427601e-04	1.206853e-03
0.00638067    	2.190272e-03	1.788395e-03	7.245716e-04	7.473702e-04	5.426686e-04	1.205161e-03
0.00640274    	2.168250e-03	1.787211e-03	7.241107e-04	7.472519e-04	5.426153e-04	1.203401e-03
0.00642481    	2.156070e-03	1.786416e-03	7.237142e-04	7.471475e-04	5.425617e-04	1.201639e-03
0.00644688    	2.135607e-03	1.786320e-03	7.233272e-04	7.470520e-04	5.424823e-04	1.199945e-03
0.00646894    	2.115796e-03	1.786275e-03	7.230174e-04	7.469694e-04	5.423831e-04	1.198212e-03
0.00649101    	2.113575e-03	1.786680e-03	7.226815e-04	7.468913e-04	5.422813e-04	1.196578e-03
0.00651308    	2.096801e-03	1.787199e-03	7.223044e-04	7.468072e-04	5.421712e-04	1.194781e-03
0.00653515    	2.078077e-03	1.787509e-03	7.219878e-04	7.467224e-04	5.420395e-04	1.193044e-03
0.00655722    	2.079220e-03	1.788442e-03	7.217342e-04	7.466535e-04	5.419143e-04	1.191373e-03
0.00657929    	2.091418e-03	1.790944e-03	7.212001e-04	7.465913e-04	5.417813e-04	1.189612e-03
0.00660136    	2.061288e-03	1.791733e-03	7.208332e-04	7.465218e-04	5.416431e-04	1.187861e-03
0.00662343    	2.043733e-03	1.792885e-03	7.204575e-04	7.464468e-04	5.415294e-04	1.186146e-03
0.0066455     	2.047701e-03	1.794132e-03	7.201542e-04	7.463862e-04	5.414142e-04	1.184298e-03
0.00666757    	2.036322e-03	1.795694e-03	7.198817e-04	7.463369e-04	5.412960e-04	1.182407e-03
0.00668964    	2.033712e-03	1.797371e-03	7.196628e-04	7.462805e-04	5.411570e-04	1.180489e-03
0.0067117     	2.029188e-03	1.799534e-03	7.193143e-04	7.462082e-04	5.410058e-04	1.178488e-03
0.00673377    	2.015399e-03	1.799961e-03	7.191285e-04	7.461392e-04	5.408536e-04	1.176532e-03
0.00675584    	2.016050e-03	1.800300e-03	7.190059e-04	7.460683e-04	5.406998e-04	1.174635e-03
0.00677791    	2.018431e-03	1.801390e-03	7.188811e-04	7.459855e-04	5.405515e-04	1.172793e-03
0.00679998    	2.020037e-03	1.802709e-03	7.186801e-04	7.459174e-04	5.403843e-04	1.170816e-03
0.00682205    	1.996443e-03	1.803202e-03	7.185502e-04	7.458587e-04	5.402270e-04	1.169046e-03
0.00684412    	2.006990e-03	1.804437e-03	7.183373e-04	7.458125e-04	5.400541e-04	1.167160e-03
0.00686619    	1.977921e-03	1.805135e-03	7.181322e-04	7.457718e-04	5.398927e-04	1.165345e-03
0.00688826    	1.973359e-03	1.805847e-03	7.179117e-04	7.457274e-04	5.397459e-04	1.163505e-03
0.00691033    	1.966332e-03	1.806144e-03	7.177541e-04	7.456817e-04	5.396139e-04	1.161765e-03
0.0069324     	1.941122e-03	1.806931e-03	7.175803e-04	7.456310e-04	5.394878e-04	1.159902e-03
0.00695446    	1.930530e-03	1.807345e-03	7.174762e-04	7.455646e-04	5.393566e-04	1.158112e-03
0.00697653    	1.922817e-03	1.808281e-03	7.173465e-04	7.455210e-04	5.392391e-04	1.156264e-03
0.0069986     	1.890911e-03	1.809318e-03	7.172176e-04	7.455093e-04	5.391351e-04	1.154480e-03
0.00702067    	1.882273e-03	1.810036e-03	7.171058e-04	7.455144e-04	5.390336e-04	1.152722e-03