/*--------------------------------*- C++ -*----------------------------------*\
  =========                 |
  \\      /  F ield         | OpenFOAM: The Open Source CFD Toolbox
   \\    /   O peration     | Website:  https://openfoam.org
    \\  /    A nd           | Version:  8
     \\/     M anipulation  |
\*---------------------------------------------------------------------------*/
FoamFile
{
    version     2.0;
    format      ascii;
    class       volScalarField;
    location    "0.39";
    object      nut;
}
// * * * * * * * * * * * * * * * * * * * * * * * * * * * * * * * * * * * * * //

dimensions      [0 2 -1 0 0 0 0];

internalField   nonuniform List<scalar> 
15677
(
0.000168165
0.000652168
0.000148198
0.0015121
0.00044314
0.000141301
0.00267203
0.000878331
0.00038111
0.000142206
0.00391626
0.00152292
0.000687479
0.000354386
0.000145356
0.00501896
0.00236066
0.00114825
0.000586197
0.000340369
0.000151159
0.00583668
0.00332142
0.00178332
0.000948941
0.000529663
0.000332097
0.000156978
0.00633338
0.00430135
0.00257037
0.00146503
0.000821686
0.00049271
0.000327038
0.000162441
0.00656227
0.00518836
0.00345526
0.00213361
0.00125846
0.000737707
0.000467572
0.000324152
0.000167225
0.0066582
0.00589333
0.00435695
0.00292414
0.00184309
0.00111304
0.000677623
0.000450509
0.000322566
0.000171453
0.0067054
0.00633811
0.00518169
0.00378068
0.00255862
0.0016328
0.00100501
0.000634212
0.00043871
0.000322
0.000175015
0.00671435
0.00655337
0.00584562
0.00462649
0.00336427
0.00228766
0.00147321
0.000924379
0.000602182
0.000430755
0.000321932
0.00017814
0.00670989
0.0066615
0.00629567
0.00537783
0.00419815
0.00304643
0.00207842
0.00134924
0.000862181
0.000578515
0.000425265
0.000322402
0.000180747
0.00670625
0.00669875
0.00652955
0.00596476
0.00498499
0.00385828
0.00279633
0.00191195
0.00125111
0.000813935
0.000560713
0.000421771
0.000323028
0.000183075
0.00670536
0.00670439
0.00664676
0.00635694
0.00565051
0.00465655
0.0035838
0.00259372
0.00177755
0.00117265
0.000776011
0.00054752
0.000419408
0.000323932
0.000185106
0.0067054
0.00670288
0.00668784
0.00656292
0.00614227
0.00536887
0.00438157
0.00335698
0.00242746
0.00166751
0.00110899
0.000746184
0.000537409
0.000418177
0.000324772
0.000186899
0.00670555
0.00670165
0.00669635
0.00665655
0.00644683
0.00593381
0.0051211
0.00414849
0.00316783
0.00228908
0.0015768
0.00105718
0.000722439
0.000530129
0.000417296
0.00032581
0.000188544
0.00670563
0.00670119
0.00669709
0.0066849
0.00660485
0.00632176
0.00573743
0.00490358
0.00395015
0.00300821
0.0021734
0.00150148
0.00101508
0.000703926
0.000524406
0.000417165
0.000326739
0.00018994
0.00670565
0.00670109
0.0066967
0.00669165
0.00666371
0.0065412
0.00618817
0.00555654
0.00471352
0.0037801
0.00287307
0.00207613
0.001439
0.00098093
0.00068902
0.000520533
0.000417094
0.000327807
0.000191357
0.00670565
0.0067011
0.00669641
0.00669272
0.00668228
0.0066345
0.00646773
0.00605755
0.00539292
0.00454716
0.00363418
0.00275823
0.0019944
0.00138729
0.000952993
0.000677637
0.000517415
0.000417601
0.000328779
0.000192458
0.00670563
0.00670112
0.00669627
0.00669267
0.00668726
0.0066691
0.00659797
0.00638908
0.00593416
0.00524556
0.00440206
0.00350884
0.00266075
0.001926
0.00134455
0.00093064
0.000668463
0.000515663
0.000418005
0.000329835
0.000193772
0.00670562
0.00670114
0.00669621
0.00669257
0.00668818
0.00668081
0.00665136
0.00655589
0.00631046
0.00581853
0.00511437
0.00427572
0.00340145
0.00257846
0.00186899
0.00130965
0.00091261
0.000661864
0.000514202
0.000418894
0.000330857
0.000194646
0.00670561
0.00670115
0.00669617
0.00669253
0.00668814
0.00668426
0.00667161
0.0066302
0.00651096
0.0062321
0.00571292
0.00499803
0.00416641
0.00331014
0.00250949
0.0018221
0.00128142
0.000898694
0.000656596
0.000513857
0.000419602
0.000331879
0.000195948
0.00670561
0.00670115
0.00669615
0.00669252
0.00668798
0.00668511
0.0066784
0.00666136
0.00660586
0.00646433
0.00615892
0.00561693
0.00489624
0.00407273
0.00323323
0.00245247
0.00178408
0.00125914
0.000887912
0.000653418
0.00051352
0.000420748
0.000333009
0.000196655
0.00670561
0.00670115
0.00669613
0.00669252
0.00668785
0.00668526
0.00668029
0.00667335
0.00664821
0.00658013
0.00641856
0.0060902
0.00553196
0.00480801
0.00399332
0.00316939
0.00240634
0.00175421
0.00124225
0.000880377
0.000650923
0.000514164
0.000421643
0.00033391
0.000197959
0.00670562
0.00670115
0.00669612
0.00669251
0.00668778
0.00668525
0.00668062
0.00667757
0.00666548
0.00663517
0.00655344
0.00637431
0.0060283
0.00545675
0.00473278
0.00392756
0.00311821
0.00237026
0.00173161
0.00122979
0.000875006
0.00065031
0.000514627
0.000423045
0.000335334
0.000198639
0.00670562
0.00670114
0.00669612
0.0066925
0.00668774
0.00668522
0.00668056
0.0066789
0.00667182
0.00665955
0.00661998
0.0065274
0.00633406
0.00597181
0.00539323
0.00467111
0.00387489
0.0030776
0.0023428
0.00171551
0.00122219
0.000872705
0.000649932
0.000516041
0.00042394
0.000336082
5.3332e-05
0.00670562
0.00670114
0.00669612
0.00669248
0.00668772
0.00668518
0.00668045
0.00667925
0.00667381
0.00666962
0.00665033
0.00660664
0.00650334
0.00629691
0.00592596
0.00534016
0.00462006
0.00383292
0.00304887
0.00232573
0.00170723
0.00121869
0.000871728
0.000651347
0.000517104
0.000426357
0.000283509
6.32796e-05
0.00670563
0.00670113
0.00669612
0.00669247
0.00668771
0.00668514
0.00668037
0.00667927
0.00667428
0.00667346
0.00666307
0.00664518
0.00659253
0.00648092
0.0062665
0.00588393
0.00529774
0.00458542
0.00380863
0.00303263
0.00231648
0.00170355
0.00121773
0.000873398
0.000652886
0.000519188
0.000419861
0.000219403
7.06301e-05
0.00670563
0.00670113
0.00669613
0.00669245
0.0066877
0.0066851
0.00668032
0.00667921
0.00667429
0.00667475
0.00666795
0.00666275
0.00663629
0.00658242
0.00646493
0.00623834
0.00585928
0.00527346
0.004563
0.00379145
0.0030229
0.00231305
0.00170436
0.00122098
0.000876211
0.000655144
0.000520378
0.000399953
0.000177986
7.60435e-05
0.00670564
0.00670112
0.00669613
0.00669244
0.00668771
0.00668506
0.0066803
0.00667912
0.00667422
0.00667504
0.00666959
0.0066702
0.00665632
0.00663519
0.00657318
0.00644858
0.00622959
0.00584266
0.00525491
0.0045483
0.00378335
0.00302145
0.00231678
0.00171101
0.00122706
0.000880537
0.000658252
0.000518174
0.000367178
0.000152524
8.04162e-05
0.00670564
0.00670112
0.00669614
0.00669242
0.00668771
0.00668502
0.00668029
0.00667904
0.00667416
0.00667502
0.00667001
0.00667304
0.0066649
0.00666093
0.00662894
0.00657097
0.00644746
0.00622233
0.0058322
0.0052456
0.00454595
0.00378787
0.00303118
0.00232849
0.00172237
0.00123592
0.000886486
0.000661201
0.000512059
0.000335991
0.000134197
8.37729e-05
0.00670565
0.00670111
0.00669614
0.00669241
0.00668771
0.00668499
0.00668028
0.00667896
0.00667411
0.0066749
0.00667006
0.00667387
0.00666832
0.00667259
0.00665611
0.00663738
0.00657375
0.00644996
0.00622058
0.00583354
0.00525303
0.00455816
0.00380446
0.00304984
0.00234673
0.00173801
0.00124761
0.000893526
0.000663667
0.000500643
0.000305865
0.000121261
8.61447e-05
0.00670565
0.00670111
0.00669615
0.00669239
0.00668772
0.00668495
0.00668028
0.00667888
0.00667408
0.00667476
0.00667002
0.00667396
0.0066695
0.00667733
0.00666878
0.00667133
0.00664291
0.00658207
0.00645818
0.00623322
0.00585081
0.00527377
0.00458304
0.00383173
0.00307705
0.00237131
0.00175756
0.00126164
0.000901623
0.000664762
0.000485213
0.000279821
0.000112779
8.78905e-05
0.00670566
0.0067011
0.00669615
0.00669238
0.00668773
0.00668492
0.00668029
0.00667881
0.00667406
0.00667463
0.00666995
0.00667383
0.00666984
0.00667887
0.00667459
0.00668753
0.00667868
0.00665525
0.00659905
0.00647983
0.00625971
0.0058815
0.00530838
0.00462028
0.00386965
0.00311261
0.00240164
0.00178084
0.00127803
0.000910405
0.000664657
0.000468298
0.000259989
0.000107031
8.92366e-05
0.0067011
0.00670567
0.00669616
0.00669237
0.00668774
0.00668489
0.0066803
0.00667875
0.00667405
0.0066745
0.0066699
0.00667364
0.00666989
0.00667919
0.0066769
0.00669461
0.00669617
0.00669373
0.00667846
0.0066275
0.00651416
0.00629986
0.00592701
0.00535682
0.00467018
0.00391784
0.00315599
0.0024377
0.00180745
0.00129617
0.000920645
0.000663275
0.000453121
0.000244796
0.000102999
9.03229e-05
0.00669616
0.0067011
0.00670568
0.00669236
0.00668775
0.00668486
0.00668031
0.00667869
0.00667406
0.00667439
0.00666986
0.00667344
0.00666984
0.0066791
0.00667773
0.00669743
0.0067042
0.00671305
0.00672111
0.00671177
0.00666845
0.00656265
0.00635546
0.00598726
0.00541955
0.00473221
0.00397613
0.00320714
0.00247875
0.00183734
0.00131898
0.000932925
0.000661384
0.000440205
0.000232931
0.000100138
9.1238e-05
0.00669235
0.00669619
0.00670113
0.0067057
0.00668776
0.00668483
0.00668033
0.00667863
0.00667406
0.00667428
0.00666982
0.00667326
0.00666978
0.00667889
0.00667799
0.00669842
0.00670756
0.00672236
0.00674308
0.0067581
0.00675797
0.00672365
0.00662699
0.0064275
0.00606403
0.00549693
0.00480688
0.00404412
0.00326514
0.00252486
0.00187351
0.001346
0.000945866
0.000659839
0.000429336
0.000223593
9.80532e-05
9.20337e-05
0.00668776
0.00669237
0.00669625
0.00670115
0.00670572
0.00668481
0.00668034
0.00667857
0.00667408
0.00667418
0.0066698
0.0066731
0.00666971
0.00667864
0.00667804
0.00669871
0.0067089
0.00672653
0.00675427
0.00678299
0.00680837
0.00681855
0.00679515
0.00670811
0.00651698
0.00615689
0.00558922
0.00489295
0.00412117
0.00333011
0.00258075
0.00191805
0.00137425
0.000959326
0.000658944
0.000420446
0.000216041
9.65409e-05
9.27455e-05
0.00668479
0.00668782
0.00669242
0.00669631
0.00670117
0.00670574
0.00668036
0.00667852
0.0066741
0.00667409
0.0066698
0.00667295
0.00666964
0.00667841
0.00667802
0.00669873
0.00670943
0.00672841
0.00675971
0.0067963
0.00683629
0.00687284
0.00689551
0.00688369
0.00680748
0.00662372
0.00626631
0.00569623
0.00499146
0.0042072
0.00340868
0.00264893
0.00196591
0.0014037
0.000973495
0.000658854
0.000412932
0.000209929
9.54164e-05
9.33911e-05
0.00668038
0.00668481
0.00668791
0.00669247
0.00669637
0.0067012
0.00670576
0.00667848
0.00667412
0.006674
0.0066698
0.00667282
0.00666959
0.0066782
0.00667798
0.00669864
0.00670963
0.00672934
0.00676252
0.00680346
0.00685262
0.00690533
0.0069563
0.00699105
0.00699045
0.00692413
0.00674775
0.00639154
0.00581703
0.00510101
0.00431132
0.00350449
0.0027219
0.00201643
0.00143402
0.000987973
0.00065955
0.000406823
0.00020482
9.45969e-05
9.39869e-05
0.00667843
0.00668045
0.00668487
0.00668801
0.00669252
0.00669643
0.00670122
0.00670578
0.00667414
0.00667391
0.00666981
0.00667269
0.00666954
0.00667802
0.00667793
0.00669853
0.0067097
0.00672987
0.00676415
0.0068076
0.00686223
0.00692518
0.00699415
0.00705956
0.0071093
0.00711897
0.00705934
0.0068879
0.00653147
0.00594982
0.00523518
0.00443877
0.00360675
0.0027989
0.00206893
0.00146511
0.00100323
0.000661201
0.00040171
0.000200515
9.39795e-05
9.45374e-05
0.00667417
0.00667844
0.00668058
0.00668493
0.00668811
0.00669258
0.0066965
0.00670124
0.0067058
0.00667383
0.00666983
0.00667257
0.00666951
0.00667787
0.00667788
0.00669841
0.00670971
0.00673021
0.00676526
0.00681036
0.00686847
0.00693792
0.00701909
0.00710408
0.00718665
0.0072497
0.00727141
0.00721647
0.00704299
0.00668422
0.00611033
0.0053962
0.00457583
0.0037151
0.00287881
0.00212298
0.00149646
0.00101818
0.000663795
0.000397547
0.000196836
9.35389e-05
9.50521e-05
0.00667376
0.00667426
0.00667849
0.00668072
0.006685
0.00668822
0.00669263
0.00669657
0.00670126
0.00670582
0.00666986
0.00667245
0.00666949
0.00667774
0.00667783
0.0066983
0.00670971
0.00673047
0.0067661
0.00681246
0.00687306
0.00694695
0.00703677
0.00713566
0.00724018
0.00733817
0.00741565
0.00744619
0.0073962
0.00721806
0.00686519
0.00629957
0.00556623
0.00471957
0.00382816
0.00296101
0.0021779
0.00152836
0.00103296
0.000666657
0.000394156
0.000193668
9.32049e-05
9.55303e-05
0.00666989
0.00667372
0.00667441
0.00667854
0.00668086
0.00668507
0.00668833
0.00669269
0.00669664
0.00670129
0.00670584
0.00667234
0.00666949
0.00667763
0.00667776
0.0066982
0.00670971
0.00673069
0.0067668
0.00681422
0.00687676
0.00695411
0.00705042
0.00715977
0.00728115
0.00740321
0.00751851
0.00760704
0.00764491
0.00759602
0.00743402
0.00708672
0.00649837
0.00574277
0.00486685
0.00394335
0.0030445
0.00223327
0.0015604
0.00104759
0.000669941
0.000391381
0.000190922
9.29823e-05
9.59798e-05
0.00667223
0.00666997
0.00667371
0.00667457
0.0066786
0.00668101
0.00668513
0.00668845
0.00669274
0.00669671
0.00670131
0.00670586
0.0066695
0.00667754
0.00667768
0.00669813
0.00670972
0.00673088
0.0067674
0.00681575
0.00687991
0.00696023
0.00706185
0.00717942
0.00731487
0.00745645
0.00759894
0.00772757
0.0078262
0.00786752
0.0078403
0.00769739
0.00732714
0.00670232
0.00592011
0.0050154
0.00405968
0.00312842
0.00228857
0.00159232
0.00106198
0.000673583
0.000389093
0.00018851
9.2813e-05
9.6397e-05
0.00666952
0.00667209
0.00667008
0.00667371
0.00667473
0.00667865
0.00668116
0.00668521
0.00668857
0.0066928
0.00669678
0.00670134
0.00670588
0.00667744
0.0066776
0.0066981
0.00670974
0.00673106
0.00676793
0.00681711
0.00688267
0.00696568
0.00707185
0.00719648
0.00734396
0.0075028
0.00766893
0.00782734
0.00796927
0.00807352
0.00814168
0.00813969
0.00798038
0.00758309
0.00691728
0.00609863
0.00516411
0.00417546
0.00321186
0.0023434
0.00162385
0.00107616
0.00067746
0.000387256
0.000186406
9.272e-05
9.67902e-05
0.00667734
0.00666949
0.00667194
0.0066702
0.00667371
0.00667491
0.00667871
0.00668132
0.00668528
0.00668869
0.00669286
0.00669686
0.00670137
0.0067059
0.0066775
0.00669811
0.00670977
0.00673123
0.0067684
0.00681833
0.00688512
0.00697062
0.0070808
0.00721189
0.00737018
0.00754409
0.00773291
0.00791899
0.00809449
0.00824432
0.00838082
0.00848086
0.00846458
0.00827995
0.00784773
0.00713906
0.00627538
0.00530974
0.00428934
0.00329412
0.00239733
0.0016548
0.00108996
0.000681254
0.00038579
0.000184528
9.26491e-05
9.7154e-05
0.00667741
0.00667706
0.00666937
0.00667178
0.00667035
0.00667371
0.0066751
0.00667878
0.00668149
0.00668536
0.00668881
0.00669292
0.00669693
0.00670139
0.00670592
0.00669817
0.00670981
0.00673137
0.00676881
0.00681943
0.00688734
0.00697512
0.00708887
0.00722606
0.00739423
0.00758186
0.00779203
0.00800661
0.00821508
0.00840116
0.00858978
0.00876581
0.00885324
0.00881187
0.00859291
0.00811845
0.00736511
0.00645355
0.00545171
0.00440048
0.00337449
0.00245004
0.00168498
0.00110361
0.000684972
0.000384593
0.000182884
9.26346e-05
9.74974e-05
0.00669829
0.00667683
0.0066766
0.00666928
0.00667162
0.00667051
0.00667371
0.0066753
0.00667884
0.00668166
0.00668544
0.00668894
0.00669299
0.00669701
0.00670142
0.00670594
0.00670982
0.00673149
0.00676916
0.00682041
0.00688934
0.00697922
0.00709621
0.00723918
0.00741638
0.00761701
0.00784784
0.00808979
0.00833382
0.00855833
0.00879199
0.00902958
0.00919476
0.00925675
0.0091791
0.00891663
0.00839298
0.00759096
0.0066319
0.00558964
0.00450817
0.00345262
0.00250125
0.00171428
0.00111692
0.0006886
0.000383629
0.000181392
9.26231e-05
9.78135e-05
0.00670981
0.00669778
0.00667575
0.0066761
0.00666924
0.00667144
0.0066707
0.00667371
0.00667551
0.00667891
0.00668183
0.00668552
0.00668906
0.00669306
0.00669708
0.00670145
0.00670596
0.00673158
0.00676945
0.0068213
0.00689117
0.00698296
0.0071029
0.00725132
0.00743675
0.00764999
0.00790091
0.00816892
0.00844836
0.00871908
0.00900469
0.00929873
0.00952838
0.00966852
0.00969157
0.00956533
0.00924936
0.0086694
0.0078146
0.00680845
0.00572353
0.00461228
0.003528
0.00255074
0.0017426
0.00112981
0.000692132
0.000382831
0.000180087
9.26561e-05
9.81128e-05
0.00673166
0.00670876
0.0066965
0.00667493
0.00667552
0.00666928
0.00667124
0.00667091
0.00667371
0.00667572
0.00667899
0.00668201
0.00668562
0.00668919
0.00669313
0.00669715
0.00670148
0.00670597
0.0067697
0.00682211
0.00689284
0.00698637
0.00710901
0.00726251
0.00745549
0.00768104
0.00795108
0.00824409
0.00855966
0.00888078
0.00923024
0.00959273
0.00988639
0.0100957
0.0101952
0.0101621
0.00997166
0.00959038
0.00894638
0.00803497
0.00698164
0.00585218
0.00471158
0.0036003
0.00259833
0.00176987
0.00114226
0.000695557
0.000382166
0.000178882
9.26803e-05
9.83869e-05
0.00676993
0.00673006
0.00670659
0.00669481
0.00667442
0.00667482
0.00666941
0.00667102
0.00667115
0.00667372
0.00667594
0.00667908
0.00668218
0.00668571
0.0066893
0.0066932
0.00669721
0.00670151
0.00670598
0.00682286
0.00689438
0.00698948
0.00711461
0.00727281
0.00747273
0.0077102
0.0079981
0.00831555
0.00866891
0.00904319
0.0094581
0.00991223
0.0103007
0.0105898
0.0107598
0.0107918
0.010676
0.0104005
0.00993969
0.0092231
0.00825128
0.00715073
0.00597748
0.00480611
0.00366933
0.00264391
0.00179601
0.00115423
0.000698863
0.000381639
0.000177832
9.27411e-05
9.86469e-05
0.00682359
0.00676726
0.00672666
0.0067044
0.00669281
0.00667424
0.00667402
0.0066696
0.0066708
0.00667138
0.00667374
0.00667615
0.00667918
0.00668234
0.00668582
0.00668941
0.00669327
0.00669727
0.00670154
0.006706
0.00689579
0.00699231
0.00711973
0.00728223
0.00748859
0.00773744
0.00804188
0.00838372
0.00877608
0.00920373
0.00968276
0.0102505
0.0107959
0.0112205
0.0114731
0.011556
0.0114742
0.0112395
0.0108535
0.0102972
0.00949892
0.00846297
0.00731412
0.006099
0.00489603
0.00373503
0.00268739
0.001821
0.0011657
0.000702045
0.000381202
0.000176847
9.27866e-05
9.88548e-05
0.00689712
0.00682024
0.00676144
0.00672338
0.00670229
0.00669037
0.00667434
0.00667313
0.00666984
0.00667059
0.00667162
0.00667379
0.00667635
0.0066793
0.0066825
0.00668592
0.00668952
0.00669334
0.00669733
0.00670157
0.00670601
0.00699488
0.00712439
0.00729083
0.00750318
0.00776273
0.00808253
0.00844885
0.00887991
0.00935908
0.00990506
0.0106223
0.011389
0.0120447
0.0124405
0.0125713
0.0124938
0.0122433
0.0118512
0.0113292
0.0106619
0.00977316
0.00866955
0.00747146
0.00621617
0.00498147
0.00379737
0.00272876
0.00184481
0.00117664
0.000705099
0.00038082
0.000175992
9.28508e-05
9.90287e-05
0.00699724
0.00689237
0.00681239
0.00675567
0.0067203
0.00670069
0.00668755
0.00667464
0.00667222
0.00667009
0.00667042
0.00667184
0.00667386
0.00667654
0.00667942
0.00668264
0.00668602
0.00668961
0.00669341
0.00669738
0.0067016
0.00670602
0.00712863
0.00729865
0.00751656
0.00778606
0.00812023
0.00851085
0.00897884
0.0095079
0.0101319
0.0110452
0.0120912
0.0130394
0.0136815
0.0139224
0.0138385
0.0135385
0.0130779
0.0124999
0.0118225
0.0110314
0.0100449
0.00887062
0.00762266
0.00632861
0.00506254
0.00385641
0.002768
0.00186744
0.00118707
0.000708019
0.00038052
0.000175287
9.28954e-05
9.92159e-05
0.00713252
0.00699078
0.00688082
0.00680457
0.00675015
0.00671738
0.00669953
0.00668458
0.006675
0.00667136
0.00667031
0.0066703
0.00667204
0.00667397
0.00667671
0.00667955
0.00668277
0.00668613
0.00668971
0.00669347
0.00669744
0.00670163
0.00670603
0.00730574
0.00752879
0.00780749
0.00815518
0.00856937
0.00907181
0.00965123
0.0103707
0.0115211
0.0128742
0.0141235
0.0150366
0.0155036
0.0155051
0.0151662
0.0146236
0.0139406
0.0131666
0.0123247
0.0114023
0.0103129
0.00906577
0.00776767
0.00643615
0.00513934
0.0039122
0.00280514
0.0018889
0.00119698
0.000710803
0.000380284
0.000174734
9.29648e-05
9.94187e-05
0.00731215
0.0071238
0.00697427
0.00686926
0.00679693
0.00674483
0.00671463
0.00669855
0.00668167
0.0066753
0.00667063
0.00667046
0.00667026
0.0066722
0.0066741
0.00667686
0.00667969
0.0066829
0.00668623
0.0066898
0.00669354
0.00669749
0.00670165
0.00670604
0.00753993
0.00782707
0.0081875
0.00862406
0.00915863
0.00979114
0.0106239
0.0120332
0.0136796
0.0151878
0.0163314
0.0170287
0.0172548
0.0170165
0.0164431
0.0156799
0.0147909
0.0138297
0.0128254
0.0117703
0.0105757
0.0092546
0.00790648
0.00653869
0.00521199
0.00396485
0.00284022
0.0019092
0.00120637
0.000713103
0.000380115
0.000174113
9.30284e-05
9.96381e-05
0.00755
0.00730087
0.00710052
0.00695772
0.00685797
0.00678938
0.00673973
0.00671204
0.00669762
0.006679
0.00667542
0.00667009
0.00667052
0.0066703
0.00667232
0.00667424
0.006677
0.00667983
0.00668302
0.00668634
0.00668988
0.00669361
0.00669753
0.00670167
0.00670604
0.00784491
0.00821726
0.00867469
0.00923972
0.00992914
0.0108877
0.0125549
0.0144489
0.0161451
0.0174478
0.0183196
0.0187639
0.0187743
0.0183475
0.0175935
0.0166554
0.0155954
0.0144696
0.0133145
0.0121308
0.0108318
0.00943671
0.00803908
0.00663623
0.00528063
0.00401445
0.0028733
0.00192838
0.00121408
0.000715059
0.00037992
0.000173492
9.31258e-05
9.98765e-05
0.00786088
0.00753532
0.00726867
0.00707719
0.00694152
0.00684691
0.00678189
0.00673498
0.00670952
0.00669664
0.00667687
0.00667522
0.00666978
0.00667048
0.0066704
0.00667242
0.0066744
0.00667713
0.00667997
0.00668313
0.00668644
0.00668997
0.00669367
0.00669756
0.00670167
0.00670604
0.00824458
0.00872127
0.00931578
0.0100654
0.0111543
0.0130602
0.0151418
0.0169511
0.0183379
0.019314
0.0199155
0.0201533
0.020008
0.0194565
0.0185824
0.0175214
0.0163318
0.0150711
0.0137833
0.0124797
0.0110797
0.00961174
0.00816552
0.00672881
0.0053454
0.00406113
0.00290444
0.00194408
0.00122062
0.000717224
0.00037976
0.000172813
9.32138e-05
0.000100134
0.00826902
0.00784251
0.00749116
0.00723635
0.00705435
0.00692568
0.00683605
0.00677443
0.00673052
0.00670697
0.00669532
0.00667557
0.0066747
0.00666967
0.00667038
0.00667054
0.00667251
0.00667456
0.00667726
0.0066801
0.00668324
0.00668654
0.00669005
0.00669371
0.00669756
0.00670167
0.00670604
0.00876399
0.00938743
0.0101989
0.011415
0.0135304
0.0157397
0.0175975
0.0190059
0.0200221
0.0207135
0.0211114
0.0212078
0.0209659
0.0203455
0.0194043
0.0182681
0.0169893
0.0156249
0.0142253
0.0128136
0.011318
0.00977937
0.00828581
0.00681652
0.00540643
0.00410498
0.00292985
0.00195737
0.00122779
0.000719598
0.000379525
0.000172107
9.33468e-05
0.000100414
0.00880194
0.00824594
0.00778269
0.00744685
0.00720466
0.00703201
0.00691018
0.00682541
0.00676705
0.00672621
0.00670437
0.00669315
0.00667498
0.00667393
0.00666972
0.00667026
0.0066707
0.0066726
0.00667472
0.00667738
0.00668024
0.00668335
0.00668664
0.00669009
0.00669371
0.00669756
0.00670167
0.00670604
0.00945507
0.0103278
0.0116623
0.0139552
0.01624
0.0180973
0.0194812
0.020488
0.0212114
0.0217022
0.0219666
0.0219772
0.0216847
0.0210375
0.0200706
0.0188981
0.0175653
0.0161265
0.0146365
0.0131299
0.0115457
0.00993932
0.00840004
0.00689949
0.00546399
0.00414062
0.00295133
0.00197189
0.00123564
0.000722245
0.00037935
0.000171366
9.34683e-05
0.000100716
0.00951647
0.00877346
0.00816502
0.00772261
0.00740334
0.00717362
0.00701017
0.00689503
0.00681504
0.0067598
0.00672208
0.00670183
0.00669033
0.0066749
0.00667306
0.00666985
0.00667013
0.00667087
0.00667268
0.00667488
0.0066775
0.00668037
0.00668346
0.00668669
0.00669008
0.00669371
0.00669756
0.00670167
0.00670604
0.0104505
0.0118948
0.0143313
0.0166498
0.0184728
0.0198014
0.020764
0.0214755
0.0220035
0.0223682
0.0225532
0.022518
0.0222073
0.0215628
0.0206002
0.0194212
0.0180628
0.016575
0.0150149
0.0134269
0.0117618
0.0100914
0.0085083
0.00697777
0.00551123
0.00417067
0.00297472
0.00198776
0.00124425
0.000725126
0.00037912
0.000170568
9.36493e-05
0.000101043
0.0105607
0.00948085
0.00866355
0.00808389
0.00766352
0.00736069
0.00714325
0.00698882
0.00688028
0.00680507
0.00675267
0.00671829
0.00669975
0.00668708
0.00667507
0.00667221
0.00666999
0.00667003
0.00667103
0.00667278
0.00667503
0.00667762
0.00668049
0.00668351
0.00668669
0.00669008
0.00669371
0.00669756
0.00670167
0.00670603
0.0121134
0.0146579
0.0169807
0.0187476
0.0200023
0.0208983
0.0215668
0.0220896
0.0224998
0.0227923
0.0229351
0.0228811
0.0225736
0.0219514
0.0210139
0.0198501
0.0184881
0.0169722
0.01536
0.0137038
0.0119661
0.0102356
0.00861067
0.00704173
0.00555129
0.00420335
0.00300023
0.00200512
0.00125369
0.00072838
0.00037892
0.00016976
9.38183e-05
0.000101394
0.0105201
0.0123081
0.00932125
0.00855495
0.0080039
0.00760554
0.00731889
0.00711355
0.00696802
0.00686599
0.00679561
0.00674591
0.00671477
0.00669837
0.0066839
0.00667529
0.00667146
0.0066701
0.00666997
0.00667117
0.00667288
0.00667518
0.00667774
0.00668056
0.0066835
0.00668669
0.00669008
0.00669371
0.00669756
0.00670165
0.00670602
0.0149359
0.0172453
0.0189435
0.0201145
0.0209307
0.0215358
0.0220223
0.0224358
0.0227823
0.0230384
0.023163
0.0231075
0.0228174
0.0222304
0.0213317
0.0201981
0.0188489
0.0173216
0.0156725
0.0139602
0.012158
0.0103718
0.00869453
0.00709584
0.00559512
0.00423892
0.00302804
0.0020241
0.00126406
0.000731872
0.000378689
0.00016887
9.40651e-05
0.000101775
0.0102755
0.0122705
0.0151616
0.00916802
0.00844826
0.00792524
0.00754867
0.00727797
0.00708457
0.0069478
0.00685221
0.00678649
0.00673951
0.00671158
0.00669723
0.00668102
0.0066754
0.00667087
0.00667017
0.00666996
0.00667129
0.00667299
0.00667532
0.0066778
0.00668056
0.0066835
0.00668669
0.00669008
0.00669371
0.00669753
0.00670163
0.00670601
0.0174555
0.0190791
0.0201623
0.0208922
0.0214211
0.02185
0.0222348
0.0225931
0.0229111
0.0231533
0.023275
0.0232298
0.0229665
0.0224227
0.0215714
0.0204781
0.0191533
0.0176273
0.0159541
0.0141966
0.0123377
0.0104831
0.00876561
0.00715491
0.0056431
0.00427768
0.00305837
0.00204488
0.00127547
0.000735841
0.000378478
0.000167988
9.43027e-05
0.00010218
0.0100358
0.01192
0.0150955
0.0176117
0.00902196
0.00834299
0.00784802
0.00749293
0.007238
0.00705636
0.00692822
0.00683892
0.00677768
0.00673359
0.00670876
0.00669618
0.00667865
0.00667531
0.00667045
0.00667018
0.00666999
0.0066714
0.00667311
0.00667539
0.0066778
0.00668056
0.0066835
0.00668669
0.00669009
0.00669367
0.00669749
0.0067016
0.006706
0.0191692
0.0201646
0.0208061
0.0212518
0.0216089
0.0219414
0.0222782
0.0226167
0.0229283
0.0231706
0.0232995
0.0232726
0.0230427
0.0225472
0.0217484
0.0207015
0.0194088
0.0178939
0.0162069
0.0144135
0.0124832
0.0105773
0.00884331
0.00721942
0.00569565
0.00431993
0.00309148
0.00206764
0.00128799
0.000740162
0.000378244
0.000166999
9.46404e-05
0.000102619
0.00981127
0.0115419
0.0147378
0.0175132
0.0192158
0.00888062
0.00823912
0.00777236
0.00743841
0.00719906
0.00702899
0.0069093
0.00682615
0.00676935
0.00672836
0.00670615
0.00669506
0.00667705
0.00667499
0.00667021
0.00667014
0.00667006
0.0066715
0.00667317
0.00667539
0.0066778
0.00668056
0.0066835
0.00668669
0.00669005
0.00669361
0.00669743
0.00670157
0.00670598
0.0201355
0.0206897
0.0210492
0.0213256
0.0215891
0.0218784
0.0222029
0.0225438
0.0228626
0.023114
0.0232572
0.0232551
0.0230634
0.0226191
0.0218753
0.020878
0.0196226
0.0181256
0.0164332
0.0145858
0.0126056
0.0106801
0.00892829
0.00728996
0.00575325
0.00436604
0.00312763
0.00209256
0.00130179
0.000744997
0.000378018
0.000166044
9.49783e-05
0.00010308
0.0096009
0.0111706
0.0142951
0.0172818
0.0190634
0.0200749
0.00874235
0.0081369
0.00769837
0.00738521
0.00716124
0.00700251
0.00689117
0.00681421
0.00676162
0.00672385
0.00670364
0.00669334
0.00667616
0.00667447
0.00667011
0.00667007
0.00667015
0.00667154
0.00667318
0.00667539
0.0066778
0.00668056
0.00668351
0.00668664
0.00668996
0.00669354
0.00669738
0.00670154
0.00670597
0.0205552
0.0208287
0.0210199
0.021203
0.021425
0.0217069
0.0220423
0.0223996
0.0227335
0.023
0.0231636
0.0231919
0.0230423
0.0226508
0.0219626
0.0210164
0.0198011
0.018327
0.0166085
0.014729
0.012738
0.0107922
0.00902127
0.00736712
0.00581641
0.00441641
0.00316712
0.0021199
0.00131694
0.000750341
0.000377789
0.00016495
9.54438e-05
0.000103578
0.00940161
0.0108183
0.0138077
0.0169619
0.0189049
0.0198668
0.0203979
0.00860662
0.00803665
0.00762623
0.00733348
0.00712464
0.00697714
0.00687427
0.00680327
0.00675437
0.00671982
0.00670134
0.00669108
0.00667577
0.00667382
0.00667011
0.00666998
0.00667023
0.00667151
0.00667318
0.00667539
0.00667781
0.00668056
0.00668346
0.00668654
0.00668988
0.00669347
0.00669733
0.00670151
0.00670595
0.0206012
0.020706
0.0208017
0.020942
0.0211584
0.0214576
0.0218188
0.0222002
0.0225541
0.0228407
0.0230306
0.0230945
0.02299
0.0226519
0.0220188
0.0211235
0.0199498
0.0184781
0.0167521
0.0148816
0.012881
0.0109144
0.00912303
0.00745161
0.00588571
0.00447147
0.00321029
0.00214984
0.00133368
0.000756206
0.000377536
0.000163923
9.59298e-05
0.000104093
0.00921096
0.0104889
0.0132963
0.0165801
0.0186752
0.0197412
0.0201339
0.0203562
0.00847357
0.0079387
0.00755614
0.00728337
0.0070896
0.00695354
0.00685886
0.0067933
0.00674767
0.0067163
0.00669944
0.00668845
0.00667569
0.00667312
0.00667018
0.00666986
0.00667027
0.0066715
0.00667319
0.00667539
0.00667781
0.0066805
0.00668335
0.00668644
0.0066898
0.0066934
0.00669727
0.00670148
0.00670593
0.0203937
0.0203991
0.0204481
0.0205812
0.0208178
0.0211508
0.0215463
0.0219558
0.0223331
0.0226451
0.0228674
0.0229719
0.0229151
0.0226302
0.0220509
0.0212055
0.0200562
0.0185999
0.0169025
0.0150439
0.0130352
0.0110475
0.00923439
0.00754416
0.0059618
0.00453174
0.00325751
0.00218272
0.00135204
0.000762761
0.000377317
0.000162725
9.65767e-05
0.000104742
0.00902739
0.0101834
0.0127717
0.0161486
0.0184016
0.0195579
0.0200103
0.0200358
0.0200668
0.00834355
0.00784341
0.00748829
0.00723538
0.00705704
0.00693205
0.00684484
0.00678433
0.00674154
0.00671323
0.00669814
0.00668579
0.00667575
0.00667244
0.00667033
0.00666975
0.0066703
0.00667151
0.00667319
0.00667539
0.00667776
0.00668037
0.00668324
0.00668634
0.00668971
0.00669333
0.00669721
0.00670146
0.00670591
0.0200049
0.0199575
0.0199945
0.0201471
0.0204229
0.0207997
0.0212333
0.0216724
0.0220767
0.0224201
0.0226815
0.0228314
0.022824
0.0225916
0.0220644
0.0212577
0.0201401
0.0187247
0.0170593
0.0152158
0.0132011
0.0111923
0.00935622
0.00764561
0.00604537
0.00459777
0.00330919
0.00221876
0.00137235
0.000769936
0.000377022
0.000161629
9.74178e-05
0.000105488
0.0088503
0.00990116
0.0122422
0.0156683
0.0180965
0.0193461
0.0198375
0.0198943
0.019689
0.0196048
0.00821681
0.00775121
0.00742335
0.00719082
0.00702741
0.0069125
0.00683212
0.00677628
0.006736
0.00671046
0.00669704
0.00668332
0.00667587
0.00667188
0.00667049
0.00666969
0.0066703
0.00667152
0.00667319
0.00667532
0.00667764
0.00668024
0.00668313
0.00668623
0.00668961
0.00669326
0.00669714
0.00670143
0.00670589
0.0194801
0.0194135
0.0194658
0.0196597
0.0199862
0.0204114
0.0208832
0.0213533
0.0217895
0.0221719
0.0224793
0.0226787
0.022722
0.0225411
0.0220618
0.0212967
0.0202231
0.0188515
0.0172218
0.0153969
0.0133789
0.0113494
0.00948944
0.00775682
0.00613721
0.00467018
0.00336579
0.00225835
0.00139463
0.000777907
0.000376808
0.000160104