/*--------------------------------*- C++ -*----------------------------------*\
  =========                 |
  \\      /  F ield         | OpenFOAM: The Open Source CFD Toolbox
   \\    /   O peration     | Website:  https://openfoam.org
    \\  /    A nd           | Version:  8
     \\/     M anipulation  |
\*---------------------------------------------------------------------------*/
FoamFile
{
    version     2.0;
    format      ascii;
    class       volVectorField;
    location    "0.39";
    object      U;
}
// * * * * * * * * * * * * * * * * * * * * * * * * * * * * * * * * * * * * * //

dimensions      [0 1 -1 0 0 0 0];

internalField   nonuniform List<vector> 
15677
(
(-0.0398956 9.66601 0)
(0.0484811 9.92202 0)
(-0.00181995 9.37863 0)
(0.0206319 9.97705 0)
(0.0198721 9.78897 0)
(0.00730433 9.14196 0)
(0.0258137 9.99519 0)
(0.0164998 9.92496 0)
(0.0111568 9.65469 0)
(0.00648212 8.96174 0)
(0.0262953 10.0025 0)
(0.0204984 9.979 0)
(0.0165084 9.85272 0)
(0.00910341 9.53191 0)
(0.0051546 8.81839 0)
(0.0255239 10.0058 0)
(0.0215088 10.0033 0)
(0.0193397 9.9422 0)
(0.0153223 9.78061 0)
(0.00796573 9.42128 0)
(0.00424213 8.70387 0)
(0.0244489 10.0071 0)
(0.0217701 10.0149 0)
(0.0209095 9.98547 0)
(0.0181855 9.90355 0)
(0.0138252 9.70958 0)
(0.00692333 9.32318 0)
(0.00355526 8.61158 0)
(0.0230297 10.0076 0)
(0.0216177 10.0207 0)
(0.0217479 10.0076 0)
(0.0201032 9.96609 0)
(0.0169134 9.86342 0)
(0.0124373 9.64251 0)
(0.00598391 9.23796 0)
(0.00297961 8.53722 0)
(0.0213294 10.0075 0)
(0.0210299 10.0234 0)
(0.0219945 10.0191 0)
(0.0211602 9.99921 0)
(0.0189823 9.94522 0)
(0.0155959 9.82401 0)
(0.0111081 9.58131 0)
(0.0051137 9.16536 0)
(0.00245237 8.47806 0)
(0.019425 10.007 0)
(0.0201382 10.0236 0)
(0.0218982 10.0249 0)
(0.0216121 10.0173 0)
(0.0201188 9.98966 0)
(0.0176977 9.92451 0)
(0.0141811 9.78711 0)
(0.00975613 9.52712 0)
(0.00426063 9.10514 0)
(0.00193583 8.43264 0)
(0.0173906 10.0064 0)
(0.0190363 10.0225 0)
(0.0214093 10.0279 0)
(0.0215957 10.0273 0)
(0.0206184 10.0146 0)
(0.0188255 9.98032 0)
(0.0162199 9.90539 0)
(0.0126196 9.75392 0)
(0.00832276 9.48089 0)
(0.00337977 9.0571 0)
(0.00140147 8.39995 0)
(0.0152685 10.0056 0)
(0.0176759 10.0208 0)
(0.0206082 10.0288 0)
(0.021199 10.0327 0)
(0.0206172 10.0288 0)
(0.0192669 10.0121 0)
(0.0172391 9.97241 0)
(0.0144888 9.88881 0)
(0.010855 9.72558 0)
(0.00675841 9.44341 0)
(0.00243074 9.02116 0)
(0.000826891 8.37968 0)
(0.0131142 10.0048 0)
(0.0161406 10.0187 0)
(0.0194699 10.0281 0)
(0.0204696 10.0352 0)
(0.0201979 10.0369 0)
(0.0191695 10.0306 0)
(0.0175176 10.011 0)
(0.0152934 9.96672 0)
(0.0124312 9.87575 0)
(0.00882687 9.70315 0)
(0.00501375 9.4154 0)
(0.00138098 8.99736 0)
(0.000185935 8.37156 0)
(0.010973 10.0041 0)
(0.0144764 10.0165 0)
(0.0180467 10.0264 0)
(0.0194171 10.0356 0)
(0.0194184 10.0411 0)
(0.0186209 10.0414 0)
(0.0172084 10.0337 0)
(0.0152973 10.012 0)
(0.0129002 9.9641 0)
(0.00996879 9.86718 0)
(0.00647356 9.68767 0)
(0.00304463 9.3975 0)
(0.000203946 8.98582 0)
(-0.000465953 8.37558 0)
(0.00911118 10.0034 0)
(0.0127195 10.0141 0)
(0.0163718 10.0242 0)
(0.0180447 10.0346 0)
(0.0182909 10.0427 0)
(0.0176692 10.0474 0)
(0.0164021 10.0472 0)
(0.0146516 10.0388 0)
(0.0124996 10.0159 0)
(0.00996057 9.96541 0)
(0.00702141 9.86409 0)
(0.00373847 9.68008 0)
(0.00081368 9.3903 0)
(-0.0011024 8.98679 0)
(-0.00122128 8.39175 0)
(0.00752913 10.0029 0)
(0.0110395 10.0121 0)
(0.0144924 10.0215 0)
(0.0163651 10.0324 0)
(0.0168168 10.0424 0)
(0.0163323 10.0501 0)
(0.0151439 10.0548 0)
(0.0134487 10.0548 0)
(0.0113742 10.0467 0)
(0.0090037 10.0235 0)
(0.00637178 9.97156 0)
(0.00351285 9.86743 0)
(0.000568063 9.68132 0)
(-0.00172503 9.39439 0)
(-0.00258934 9.0004 0)
(-0.00206611 8.42028 0)
(0.00620804 10.0024 0)
(0.00958687 10.0104 0)
(0.012641 10.0191 0)
(0.0144075 10.0297 0)
(0.014999 10.0407 0)
(0.0146132 10.0506 0)
(0.0134512 10.0587 0)
(0.0117316 10.0642 0)
(0.00961472 10.0652 0)
(0.00723104 10.0581 0)
(0.00468241 10.0355 0)
(0.0020348 9.98341 0)
(-0.000625782 9.87818 0)
(-0.00308139 9.69219 0)
(-0.00458676 9.41025 0)
(-0.00425232 9.02684 0)
(-0.00299849 8.46117 0)
(0.00508337 10.002 0)
(0.00825383 10.0089 0)
(0.0109706 10.0169 0)
(0.0124241 10.0268 0)
(0.0128534 10.0379 0)
(0.0125115 10.0493 0)
(0.0113268 10.0599 0)
(0.00951497 10.0691 0)
(0.00726078 10.0761 0)
(0.00472846 10.0789 0)
(0.00206859 10.0738 0)
(-0.000588833 10.053 0)
(-0.00314321 10.0019 0)
(-0.00545944 9.89719 0)
(-0.00724866 9.71343 0)
(-0.00779467 9.43824 0)
(-0.00609376 9.0661 0)
(-0.00401328 8.5144 0)
(0.00413708 10.0016 0)
(0.00705304 10.0076 0)
(0.00941761 10.0149 0)
(0.0105855 10.0241 0)
(0.0106504 10.0348 0)
(0.0100353 10.0466 0)
(0.00876987 10.059 0)
(0.00679909 10.0709 0)
(0.00432193 10.082 0)
(0.00152893 10.0913 0)
(-0.0013933 10.0968 0)
(-0.00426561 10.0946 0)
(-0.00692671 10.0766 0)
(-0.00924215 10.0278 0)
(-0.0110344 9.9253 0)
(-0.0119575 9.7456 0)
(-0.0113589 9.47858 0)
(-0.00811582 9.11822 0)
(-0.00510767 8.57976 0)
(0.0033422 10.0013 0)
(0.0059698 10.0064 0)
(0.00798788 10.0131 0)
(0.00885481 10.0216 0)
(0.00859049 10.0317 0)
(0.00748643 10.0433 0)
(0.00578664 10.0564 0)
(0.00358278 10.0703 0)
(0.000794636 10.0843 0)
(-0.00236538 10.098 0)
(-0.00568066 10.1105 0)
(-0.00893412 10.1197 0)
(-0.0119153 10.1214 0)
(-0.0144341 10.1072 0)
(-0.016326 10.0619 0)
(-0.0173793 9.96314 0)
(-0.0172143 9.78914 0)
(-0.0152736 9.53136 0)
(-0.0103039 9.18289 0)
(-0.00626793 8.65681 0)
(0.00267737 10.0011 0)
(0.00499501 10.0055 0)
(0.00667386 10.0116 0)
(0.00724072 10.0194 0)
(0.00664326 10.0288 0)
(0.00510042 10.0398 0)
(0.00273122 10.0528 0)
(-0.00012602 10.0676 0)
(-0.00332343 10.0838 0)
(-0.00696382 10.1007 0)
(-0.0108017 10.1179 0)
(-0.0145863 10.1344 0)
(-0.0180675 10.1482 0)
(-0.021007 10.1548 0)
(-0.0231915 10.1455 0)
(-0.0244332 10.1049 0)
(-0.0245021 10.0113 0)
(-0.023007 9.84426 0)
(-0.0195199 9.59646 0)
(-0.0126472 9.25986 0)
(-0.00748607 8.74509 0)
(0.00214563 10.0009 0)
(0.00411943 10.0046 0)
(0.00547176 10.0102 0)
(0.0057457 10.0173 0)
(0.00482523 10.026 0)
(0.00284681 10.0364 0)
(-0.000119298 10.0489 0)
(-0.00389383 10.0637 0)
(-0.00802062 10.081 0)
(-0.0122706 10.1002 0)
(-0.0167741 10.1208 0)
(-0.0212447 10.1424 0)
(-0.0253951 10.1639 0)
(-0.0289469 10.1832 0)
(-0.0316408 10.1955 0)
(-0.0332494 10.1921 0)
(-0.0335743 10.1574 0)
(-0.0323855 10.0699 0)
(-0.029306 9.911 0)
(-0.024065 9.6736 0)
(-0.0151125 9.34841 0)
(-0.00873799 8.84369 0)
(0.00173638 10.0008 0)
(0.0033673 10.0039 0)
(0.00437644 10.0089 0)
(0.00437089 10.0155 0)
(0.00314556 10.0235 0)
(0.000751292 10.0331 0)
(-0.00279993 10.0449 0)
(-0.00738897 10.0592 0)
(-0.0127532 10.0765 0)
(-0.0182696 10.097 0)
(-0.0236054 10.1202 0)
(-0.0289383 10.1454 0)
(-0.0339398 10.1722 0)
(-0.0382911 10.1996 0)
(-0.0416944 10.2253 0)
(-0.0438813 10.2443 0)
(-0.044623 10.2476 0)
(-0.0437274 10.2196 0)
(-0.0409873 10.1394 0)
(-0.0360601 9.98915 0)
(-0.0288599 9.76223 0)
(-0.0176771 9.44792 0)
(-0.0100045 8.95184 0)
(0.00141835 10.0006 0)
(0.00274981 10.0034 0)
(0.00342557 10.0079 0)
(0.00311602 10.0137 0)
(0.00160988 10.0211 0)
(-0.00117005 10.0299 0)
(-0.0052755 10.0409 0)
(-0.0106562 10.0545 0)
(-0.0171168 10.0713 0)
(-0.0242705 10.0918 0)
(-0.0312739 10.1163 0)
(-0.0376802 10.1443 0)
(-0.0437459 10.1751 0)
(-0.0491063 10.2081 0)
(-0.0534223 10.2423 0)
(-0.0563913 10.2751 0)
(-0.0577504 10.3015 0)
(-0.0572879 10.3122 0)
(-0.0548374 10.2917 0)
(-0.0502364 10.2194 0)
(-0.0431963 10.0783 0)
(-0.033848 9.86169 0)
(-0.0202748 9.55732 0)
(-0.0112192 9.0679 0)
(0.0011672 10.0006 0)
(0.00224331 10.003 0)
(0.00264072 10.0071 0)
(0.00202958 10.0123 0)
(0.000222048 10.0188 0)
(-0.00290639 10.0269 0)
(-0.00752244 10.037 0)
(-0.0136503 10.0497 0)
(-0.0211713 10.0656 0)
(-0.0297742 10.0856 0)
(-0.0389024 10.1101 0)
(-0.0474432 10.1396 0)
(-0.054835 10.1734 0)
(-0.0614572 10.2106 0)
(-0.0669226 10.2507 0)
(-0.0708897 10.2925 0)
(-0.0730684 10.3332 0)
(-0.0732219 10.3676 0)
(-0.0711768 10.3863 0)
(-0.0668123 10.3737 0)
(-0.0600325 10.3098 0)
(-0.0506258 10.1779 0)
(-0.0389105 9.97104 0)
(-0.0227876 9.67525 0)
(-0.0120926 9.18999 0)
(0.000966046 10.0005 0)
(0.00182469 10.0027 0)
(0.00199417 10.0064 0)
(0.00113899 10.011 0)
(-0.000961977 10.0168 0)
(-0.00444995 10.0241 0)
(-0.00952388 10.0332 0)
(-0.0163392 10.0448 0)
(-0.0248604 10.0597 0)
(-0.0348618 10.0788 0)
(-0.04587 10.1027 0)
(-0.0571162 10.1321 0)
(-0.0671749 10.1676 0)
(-0.0753776 10.2081 0)
(-0.0822866 10.2527 0)
(-0.0875137 10.3007 0)
(-0.0907356 10.3506 0)
(-0.0916985 10.3998 0)
(-0.0902166 10.4427 0)
(-0.0861777 10.4698 0)
(-0.0795246 10.4654 0)
(-0.0702536 10.4099 0)
(-0.0581957 10.287 0)
(-0.043993 10.089 0)
(-0.0254073 9.80117 0)
(-0.0141757 9.31811 0)
(0.000802759 10.0004 0)
(0.00147691 10.0024 0)
(0.00146453 10.0058 0)
(0.000413655 10.01 0)
(-0.00191495 10.0151 0)
(-0.0057375 10.0214 0)
(-0.0112675 10.0295 0)
(-0.0186987 10.0401 0)
(-0.0281415 10.0537 0)
(-0.0394636 10.0715 0)
(-0.0522856 10.0943 0)
(-0.0659264 10.1231 0)
(-0.0793696 10.1584 0)
(-0.090833 10.2008 0)
(-0.0995659 10.2491 0)
(-0.106388 10.3018 0)
(-0.110936 10.3584 0)
(-0.112934 10.4172 0)
(-0.112193 10.4752 0)
(-0.108604 10.5269 0)
(-0.102135 10.5624 0)
(-0.0928131 10.5664 0)
(-0.0807024 10.5192 0)
(-0.0657595 10.4046 0)
(-0.04834 10.2148 0)
(-0.0218382 9.92872 0)
(-0.00987289 9.38974 0)
(0.000668527 10.0004 0)
(0.00118678 10.0022 0)
(0.00101609 10.0053 0)
(-0.000180278 10.0092 0)
(-0.00267425 10.0137 0)
(-0.00674509 10.0192 0)
(-0.0126816 10.0261 0)
(-0.0207112 10.0354 0)
(-0.0309822 10.0477 0)
(-0.0435248 10.064 0)
(-0.0580635 10.0854 0)
(-0.0740178 10.1129 0)
(-0.0904582 10.1475 0)
(-0.106085 10.1897 0)
(-0.118726 10.24 0)
(-0.12759 10.2969 0)
(-0.13384 10.3587 0)
(-0.137173 10.4244 0)
(-0.13739 10.4924 0)
(-0.134401 10.5594 0)
(-0.128195 10.6199 0)
(-0.118846 10.6638 0)
(-0.106443 10.6759 0)
(-0.0911936 10.6365 0)
(-0.0728073 10.5297 0)
(-0.0516471 10.3453 0)
(-0.0168123 10.0867 0)
(-0.00136124 9.44066 0)
(0.000557214 10.0004 0)
(0.000943602 10.002 0)
(0.000648005 10.0049 0)
(-0.000659832 10.0084 0)
(-0.00327924 10.0125 0)
(-0.00752132 10.0172 0)
(-0.0137485 10.0231 0)
(-0.0222937 10.0309 0)
(-0.0333575 10.0417 0)
(-0.0470021 10.0564 0)
(-0.0631339 10.0761 0)
(-0.0812851 10.1019 0)
(-0.100629 10.1351 0)
(-0.119946 10.1765 0)
(-0.137628 10.2266 0)
(-0.151092 10.2858 0)
(-0.159559 10.3521 0)
(-0.164635 10.4235 0)
(-0.166115 10.4989 0)
(-0.163925 10.5762 0)
(-0.158097 10.6524 0)
(-0.148748 10.7214 0)
(-0.136038 10.7735 0)
(-0.120167 10.7931 0)
(-0.10118 10.761 0)
(-0.078522 10.661 0)
(-0.0541048 10.4887 0)
(-0.0177669 10.2452 0)
(0.00402283 9.48216 0)
(0.00046402 10.0003 0)
(0.000738236 10.0019 0)
(0.000340709 10.0046 0)
(-0.00106084 10.0078 0)
(-0.00375979 10.0114 0)
(-0.00811463 10.0156 0)
(-0.0145325 10.0205 0)
(-0.0234374 10.027 0)
(-0.0351696 10.036 0)
(-0.0498616 10.0487 0)
(-0.0674402 10.0665 0)
(-0.0876399 10.0903 0)
(-0.109753 10.1216 0)
(-0.132658 10.1614 0)
(-0.154812 10.2106 0)
(-0.174292 10.2696 0)
(-0.188077 10.3387 0)
(-0.195473 10.4152 0)
(-0.198653 10.4967 0)
(-0.197564 10.5818 0)
(-0.192286 10.6687 0)
(-0.183005 10.7537 0)
(-0.169955 10.8309 0)
(-0.153415 10.8906 0)
(-0.133489 10.9172 0)
(-0.110056 10.8919 0)
(-0.0829441 10.7994 0)
(-0.0552592 10.6439 0)
(-0.020094 10.3988 0)
(0.00517192 9.52237 0)
(0.000384272 10.0003 0)
(0.000564694 10.0018 0)
(8.08592e-05 10.0043 0)
(-0.00139006 10.0072 0)
(-0.00414298 10.0105 0)
(-0.00856419 10.0141 0)
(-0.0150958 10.0183 0)
(-0.0242284 10.0236 0)
(-0.0364207 10.0309 0)
(-0.051985 10.0414 0)
(-0.0709366 10.0568 0)
(-0.0930086 10.0783 0)
(-0.117718 10.1072 0)
(-0.144062 10.1448 0)
(-0.170586 10.1923 0)
(-0.195411 10.2505 0)
(-0.216261 10.3194 0)
(-0.229702 10.3991 0)
(-0.23522 10.4864 0)
(-0.235687 10.5783 0)
(-0.231245 10.6733 0)
(-0.222161 10.7694 0)
(-0.208778 10.8628 0)
(-0.191472 10.9478 0)
(-0.17051 11.0144 0)
(-0.145897 11.0476 0)
(-0.118195 11.0289 0)
(-0.0871323 10.945 0)
(-0.0560969 10.8053 0)
(-0.0221736 10.5471 0)
(0.00481205 9.57458 0)
(0.000316612 10.0003 0)
(0.00041747 10.0017 0)
(-0.000138603 10.0041 0)
(-0.00166111 10.0068 0)
(-0.00444827 10.0097 0)
(-0.00890124 10.0128 0)
(-0.0154884 10.0163 0)
(-0.0247475 10.0206 0)
(-0.0372258 10.0264 0)
(-0.0533882 10.0348 0)
(-0.0734775 10.0474 0)
(-0.0973306 10.066 0)
(-0.12443 10.0922 0)
(-0.154018 10.1272 0)
(-0.184756 10.1723 0)
(-0.214829 10.2286 0)
(-0.241968 10.2967 0)
(-0.263597 10.3764 0)
(-0.275873 10.4675 0)
(-0.278585 10.566 0)
(-0.275434 10.6684 0)
(-0.266801 10.7731 0)
(-0.25316 10.878 0)
(-0.235028 10.9794 0)
(-0.212846 11.0713 0)
(-0.186865 11.1443 0)
(-0.15758 11.1837 0)
(-0.126214 11.1713 0)
(-0.0919201 11.0966 0)
(-0.0576544 10.9679 0)
(-0.024357 10.7065 0)
(0.00379218 9.63612 0)
(0.000258915 10.0003 0)
(0.000291072 10.0016 0)
(-0.000323793 10.0039 0)
(-0.00188615 10.0064 0)
(-0.0046916 10.009 0)
(-0.00915095 10.0117 0)
(-0.0157501 10.0146 0)
(-0.0250596 10.0179 0)
(-0.0376906 10.0224 0)
(-0.0542231 10.0289 0)
(-0.0750942 10.0389 0)
(-0.100424 10.0541 0)
(-0.129809 10.0768 0)
(-0.162407 10.1086 0)
(-0.197148 10.1507 0)
(-0.232312 10.2045 0)
(-0.265669 10.2707 0)
(-0.294596 10.3498 0)
(-0.316234 10.4411 0)
(-0.326374 10.544 0)
(-0.325236 10.6539 0)
(-0.317493 10.7667 0)
(-0.303797 10.8808 0)
(-0.284848 10.9939 0)
(-0.2613 11.1025 0)
(-0.233657 11.2008 0)
(-0.202563 11.2797 0)
(-0.168976 11.3247 0)
(-0.134272 11.3178 0)
(-0.0972857 11.2515 0)
(-0.0603277 11.148 0)
(-0.0266508 10.8772 0)
(0.00223722 9.70562 0)
(0.000209003 10.0003 0)
(0.000182441 10.0015 0)
(-0.000481249 10.0037 0)
(-0.00207332 10.006 0)
(-0.00488569 10.0084 0)
(-0.00933307 10.0107 0)
(-0.0159126 10.013 0)
(-0.0252163 10.0156 0)
(-0.0378996 10.0189 0)
(-0.0546274 10.0237 0)
(-0.0759851 10.0313 0)
(-0.102336 10.0432 0)
(-0.133624 10.0618 0)
(-0.169122 10.0895 0)
(-0.207609 10.1281 0)
(-0.247647 10.1785 0)
(-0.287079 10.242 0)
(-0.323273 10.3193 0)
(-0.353268 10.4102 0)
(-0.373966 10.5138 0)
(-0.380851 10.6289 0)
(-0.374734 10.7502 0)
(-0.361383 10.8731 0)
(-0.341749 10.996 0)
(-0.316751 11.1166 0)
(-0.287181 11.2317 0)
(-0.253874 11.3357 0)
(-0.217911 11.4197 0)
(-0.1803 11.4692 0)
(-0.142293 11.4668 0)
(-0.103347 11.4259 0)
(-0.0637699 11.344 0)
(-0.0290687 11.042 0)
(0.000535221 9.78102 0)
(0.000166293 10.0003 0)
(8.84927e-05 10.0015 0)
(-0.000615836 10.0035 0)
(-0.00222938 10.0057 0)
(-0.00504051 10.0079 0)
(-0.00946312 10.0099 0)
(-0.0160007 10.0117 0)
(-0.025258 10.0135 0)
(-0.03792 10.0158 0)
(-0.0547116 10.0191 0)
(-0.0763286 10.0245 0)
(-0.103323 10.0335 0)
(-0.13594 10.0481 0)
(-0.173871 10.0708 0)
(-0.216 10.1045 0)
(-0.26064 10.151 0)
(-0.305935 10.2109 0)
(-0.349286 10.2854 0)
(-0.387662 10.3748 0)
(-0.417799 10.4783 0)
(-0.436434 10.5946 0)
(-0.438834 10.7221 0)
(-0.426549 10.8545 0)
(-0.406568 10.987 0)
(-0.38015 11.1179 0)
(-0.348438 11.2454 0)
(-0.312531 11.3661 0)
(-0.273644 11.475 0)
(-0.233018 11.563 0)
(-0.191528 11.6155 0)
(-0.150979 11.6344 0)
(-0.109807 11.6181 0)
(-0.0674996 11.5347 0)
(-0.0313655 11.2005 0)
(-0.0011121 9.86042 0)
(6.88902e-06 10.0014 0)
(0.000117236 10.0002 0)
(-0.000732105 10.0034 0)
(-0.00235985 10.0054 0)
(-0.00516385 10.0074 0)
(-0.00955328 10.0091 0)
(-0.0160337 10.0105 0)
(-0.0252163 10.0117 0)
(-0.0378042 10.013 0)
(-0.0545628 10.015 0)
(-0.076268 10.0185 0)
(-0.103614 10.0248 0)
(-0.137082 10.0357 0)
(-0.176734 10.0536 0)
(-0.221949 10.0814 0)
(-0.271113 10.1223 0)
(-0.321995 10.1779 0)
(-0.372317 10.2487 0)
(-0.419018 10.3353 0)
(-0.458693 10.4376 0)
(-0.487844 10.5545 0)
(-0.503148 10.6837 0)
(-0.499745 10.8234 0)
(-0.480086 10.9665 0)
(-0.452486 11.1079 0)
(-0.418522 11.2461 0)
(-0.379659 11.3795 0)
(-0.337346 11.505 0)
(-0.29297 11.6176 0)
(-0.24778 11.708 0)
(-0.203686 11.7796 0)
(-0.160103 11.8195 0)
(-0.115921 11.8068 0)
(-0.0711582 11.7186 0)
(-0.0334436 11.3524 0)
(-0.0025789 9.94209 0)
(-0.000835613 10.0033 0)
(-8.51063e-05 10.0013 0)
(5.97123e-05 10.0002 0)
(-0.00247005 10.0052 0)
(-0.00526179 10.007 0)
(-0.00961286 10.0085 0)
(-0.0160267 10.0095 0)
(-0.0251159 10.0101 0)
(-0.037593 10.0106 0)
(-0.0542493 10.0114 0)
(-0.0759161 10.0132 0)
(-0.103392 10.0171 0)
(-0.137341 10.0247 0)
(-0.178115 10.0381 0)
(-0.225543 10.0601 0)
(-0.278588 10.0941 0)
(-0.335032 10.1434 0)
(-0.392063 10.2095 0)
(-0.446946 10.2923 0)
(-0.496182 10.3921 0)
(-0.536049 10.5082 0)
(-0.562907 10.6388 0)
(-0.573494 10.7811 0)
(-0.562928 10.9326 0)
(-0.534717 11.0858 0)
(-0.498594 11.2352 0)
(-0.456507 11.3797 0)
(-0.410267 11.5179 0)
(-0.361531 11.6471 0)
(-0.311711 11.7619 0)
(-0.263581 11.8706 0)
(-0.216328 11.9606 0)
(-0.168602 12.002 0)
(-0.121507 11.9899 0)
(-0.074555 11.8947 0)
(-0.035271 11.4975 0)
(-0.00388567 10.0243 0)
(-0.00256892 10.005 0)
(-0.000943127 10.0031 0)
(-0.000195077 10.0012 0)
(4.80964e-06 10.0002 1.95726e-19)
(-0.00534027 10.0067 0)
(-0.00964872 10.0079 0)
(-0.015991 10.0086 0)
(-0.0249755 10.0087 0)
(-0.0373176 10.0085 0)
(-0.0538235 10.0082 0)
(-0.0753612 10.0085 0)
(-0.102804 10.0102 0)
(-0.13695 10.0148 0)
(-0.178381 10.0242 0)
(-0.227284 10.0408 0)
(-0.283154 10.0679 0)
(-0.344437 10.1092 0)
(-0.408236 10.1683 0)
(-0.471079 10.2463 0)
(-0.529803 10.3424 0)
(-0.580509 10.4563 0)
(-0.619247 10.5868 0)
(-0.642355 10.7314 0)
(-0.64676 10.8865 0)
(-0.627675 11.0493 0)
(-0.589813 11.2117 0)
(-0.544417 11.3681 0)
(-0.493815 11.5178 0)
(-0.440061 11.6598 0)
(-0.38489 11.791 0)
(-0.331684 11.9236 0)
(-0.27991 12.0497 0)
(-0.227912 12.139 0)
(-0.176302 12.1798 0)
(-0.126459 12.1661 0)
(-0.0775842 12.0626 0)
(-0.0368126 11.6357 0)
(-0.00503575 10.1058 0)
(-0.00541283 10.0064 0)
(-0.00265493 10.0047 0)
(-0.00106544 10.0029 8.74136e-19)
(-0.000300257 10.0012 -6.20172e-19)
(-4.91667e-05 10.0002 -3.90363e-19)
(-0.00966743 10.0074 0)
(-0.0159346 10.0078 0)
(-0.0248091 10.0075 0)
(-0.037002 10.0066 0)
(-0.0533259 10.0054 0)
(-0.0746714 10.0043 0)
(-0.101963 10.0041 0)
(-0.136096 10.006 0)
(-0.177827 10.0117 0)
(-0.227624 10.0235 0)
(-0.285418 10.0442 0)
(-0.350281 10.0775 0)
(-0.420059 10.1273 0)
(-0.491052 10.1977 0)
(-0.559108 10.2889 0)
(-0.620681 10.3994 0)
(-0.67155 10.5284 0)
(-0.707649 10.6737 0)
(-0.725434 10.8322 0)
(-0.722162 10.9997 0)
(-0.693256 11.173 0)
(-0.644779 11.3435 0)
(-0.589535 11.5057 0)
(-0.530141 11.6595 0)
(-0.46878 11.8036 0)
(-0.409709 11.9525 0)
(-0.352292 12.1021 0)
(-0.294787 12.2261 0)
(-0.238284 12.3128 0)
(-0.183093 12.3515 0)
(-0.130733 12.3346 0)
(-0.080194 12.2219 0)
(-0.0380673 11.7666 0)
(-0.00602225 10.1853 0)
(-0.00968939 10.0069 0)
(-0.00544211 10.006 -1.86764e-18)
(-0.00273718 10.0044 -9.21981e-19)
(-0.00118276 10.0027 4.3613e-19)
(-0.000401017 10.0011 -4.12194e-19)
(-9.90848e-05 10.0002 0)
(-0.0158646 10.0071 0)
(-0.0246261 10.0064 0)
(-0.0366639 10.0049 0)
(-0.0527873 10.0029 0)
(-0.0738987 10.0006 0)
(-0.100956 9.99872 0)
(-0.134923 9.99825 0)
(-0.176686 10.0007 0)
(-0.226931 10.008 0)
(-0.285937 10.0228 0)
(-0.353293 10.0486 0)
(-0.42757 10.0892 0)
(-0.505883 10.1491 0)
(-0.583645 10.2321 0)
(-0.656029 10.3379 0)
(-0.719189 10.464 0)
(-0.768687 10.6086 0)
(-0.800479 10.769 0)
(-0.811294 10.9411 0)
(-0.798869 11.1202 0)
(-0.758948 11.303 0)
(-0.699054 11.4803 0)
(-0.633524 11.6472 0)
(-0.565148 11.8033 0)
(-0.499249 11.9652 0)
(-0.435281 12.1309 0)
(-0.371022 12.2779 0)
(-0.308067 12.3981 0)
(-0.247354 12.4808 0)
(-0.188939 12.5161 0)
(-0.134327 12.4949 0)
(-0.0823788 12.3726 0)
(-0.0390583 11.8901 0)
(-0.00685038 10.262 0)
(-0.0158115 10.0065 0)
(-0.00962142 10.0064 3.93841e-18)
(-0.00542675 10.0055 0)
(-0.00281492 10.0041 9.19568e-19)
(-0.00129272 10.0025 1.79986e-22)
(-0.000499114 10.001 0)
(-0.000145854 10.0001 0)
(-0.024434 10.0054 0)
(-0.0363141 10.0035 0)
(-0.0522298 10.0007 0)
(-0.0730827 9.99733 0)
(-0.0998499 9.99393 0)
(-0.133544 9.99133 0)
(-0.175143 9.99078 0)
(-0.225498 9.99407 0)
(-0.285162 10.0036 0)
(-0.354144 10.0224 0)
(-0.431624 10.0544 0)
(-0.515541 10.1038 0)
(-0.602179 10.1752 0)
(-0.685996 10.2724 0)
(-0.761527 10.3941 0)
(-0.824749 10.5365 0)
(-0.871142 10.6972 0)
(-0.896847 10.8725 0)
(-0.899024 11.0576 0)
(-0.876033 11.2475 0)
(-0.824043 11.4384 0)
(-0.752092 11.6214 0)
(-0.67596 11.7911 0)
(-0.602293 11.9652 0)
(-0.530635 12.1439 0)
(-0.458485 12.3068 0)
(-0.387722 12.4494 0)
(-0.319675 12.5644 0)
(-0.255118 12.6422 0)
(-0.193857 12.6731 0)
(-0.137267 12.6467 0)
(-0.0841543 12.5144 0)
(-0.039815 12.0064 0)
(-0.00753279 10.3355 0)
(-0.0242781 10.0046 0)
(-0.0155997 10.0057 2.07272e-22)
(-0.00943895 10.0058 0)
(-0.00540947 10.0051 -9.69636e-19)
(-0.00288301 10.0038 1.4709e-22)
(-0.00139644 10.0024 0)
(-0.000592663 10.0009 0)
(-0.000190267 10.0001 0)
(-0.035961 10.0022 0)
(-0.0516668 9.99874 0)
(-0.0722517 9.99444 0)
(-0.0986962 9.9897 0)
(-0.132044 9.9852 0)
(-0.173339 9.98201 0)
(-0.223555 9.98169 0)
(-0.283455 9.98639 0)
(-0.353384 9.99892 0)
(-0.433025 10.0228 0)
(-0.521019 10.0623 0)
(-0.614569 10.1219 0)
(-0.709041 10.2064 0)
(-0.797892 10.3192 0)
(-0.875092 10.4578 0)
(-0.936608 10.6173 0)
(-0.978005 10.7943 0)
(-0.995778 10.9841 0)
(-0.987681 11.1815 0)
(-0.952814 11.3809 0)
(-0.887852 11.5786 0)
(-0.803356 11.7653 0)
(-0.721034 11.9535 0)
(-0.640586 12.1447 0)
(-0.559125 12.3205 0)
(-0.479163 12.4786 0)
(-0.402321 12.6153 0)
(-0.329617 12.7241 0)
(-0.261619 12.7962 0)
(-0.197887 12.822 0)
(-0.139602 12.7898 0)
(-0.085549 12.6475 0)
(-0.0403669 12.1153 0)
(-0.00808535 10.4053 0)
(-0.0356704 10.001 0)
(-0.023866 10.0036 -2.18781e-18)
(-0.0151642 10.0049 0)
(-0.00926092 10.0051 0)
(-0.00537794 10.0046 2.90008e-18)
(-0.00294167 10.0035 0)
(-0.00149358 10.0022 0)
(-0.000681906 10.0008 8.15146e-19)
(-0.000231944 10.0001 0)
(-0.051107 9.99701 0)
(-0.0714219 9.99188 0)
(-0.0975311 9.98594 0)
(-0.130488 9.97976 0)
(-0.171383 9.97422 0)
(-0.22128 9.97068 0)
(-0.281101 9.97104 0)
(-0.351454 9.97782 0)
(-0.43243 9.99429 0)
(-0.523262 10.0244 0)
(-0.621951 10.0728 0)
(-0.724866 10.1442 0)
(-0.826376 10.2434 0)
(-0.918916 10.3732 0)
(-0.996025 10.5298 0)
(-1.05386 10.7068 0)
(-1.08825 10.8998 0)
(-1.09624 11.1035 0)
(-1.07631 11.312 0)
(-1.02841 11.5195 0)
(-0.949718 11.7222 0)
(-0.857908 11.9281 0)
(-0.767567 12.1339 0)
(-0.675376 12.3223 0)
(-0.584532 12.4932 0)
(-0.497255 12.645 0)
(-0.414839 12.7748 0)
(-0.337955 12.8767 0)
(-0.266937 12.9425 0)
(-0.201098 12.9627 0)
(-0.141386 12.9243 0)
(-0.0865984 12.7721 0)
(-0.0407435 12.2171 0)
(-0.00852545 10.4711 0)
(-0.0506451 9.99548 0)
(-0.0349886 9.99974 0)
(-0.0230688 10.0025 -2.27646e-18)
(-0.0147449 10.004 -2.15465e-18)
(-0.0090624 10.0045 -4.07589e-18)
(-0.00533238 10.0042 0)
(-0.0029908 10.0032 -1.82038e-18)
(-0.00158376 10.002 -1.71919e-18)
(-0.000766906 10.0008 8.11282e-19)
(-0.000270857 10.0001 0)
(-0.0706027 9.98961 0)
(-0.0963742 9.98262 0)
(-0.128923 9.97493 0)
(-0.169358 9.96731 0)
(-0.218811 9.9609 0)
(-0.278323 9.95735 0)
(-0.348707 9.95895 0)
(-0.430376 9.96867 0)
(-0.523053 9.9902 0)
(-0.625422 10.0279 0)
(-0.734743 10.0868 0)
(-0.846459 10.1716 0)
(-0.953882 10.287 0)
(-1.04846 10.435 0)
(-1.12345 10.6104 0)
(-1.17546 10.805 0)
(-1.20078 11.0136 0)
(-1.19717 11.2302 0)
(-1.16398 11.4485 0)
(-1.10202 11.6624 0)
(-1.01581 11.8854 0)
(-0.914369 12.1097 0)
(-0.80991 12.313 0)
(-0.706441 12.4964 0)
(-0.606793 12.6607 0)
(-0.512793 12.8051 0)
(-0.425363 12.9273 0)
(-0.344794 13.0218 0)
(-0.271168 13.0808 0)
(-0.203568 13.095 0)
(-0.142681 13.0504 0)
(-0.0873414 12.8885 0)
(-0.0409721 12.312 0)
(-0.0088691 10.533 0)
(-0.0699279 9.9876 0)
(-0.0496093 9.9938 -2.43122e-18)
(-0.0336925 9.99831 2.39805e-18)
(-0.0223079 10.0014 -8.24951e-22)
(-0.0142966 10.0032 2.14768e-18)
(-0.00884358 10.0039 2.03078e-18)
(-0.00527303 10.0038 3.83809e-18)
(-0.00303019 10.003 2.71862e-18)
(-0.00166707 10.0019 -8.55515e-19)
(-0.000847514 10.0007 0)
(-0.00030707 10.0001 0)
(-0.095236 9.97967 0)
(-0.127373 9.97066 0)
(-0.167324 9.96118 0)
(-0.216253 9.9522 0)
(-0.275293 9.94518 0)
(-0.345416 9.94211 0)
(-0.427291 9.9457 0)
(-0.521033 9.95936 0)
(-0.625901 9.98724 0)
(-0.739932 10.0341 0)
(-0.859546 10.1051 0)
(-0.979174 10.205 0)
(-1.09106 10.338 0)
(-1.1857 10.5054 0)
(-1.25635 10.6999 0)
(-1.30029 10.912 0)
(-1.31446 11.1354 0)
(-1.29751 11.3637 0)
(-1.24975 11.5901 0)
(-1.18104 11.8257 0)
(-1.08451 12.0683 0)
(-0.965908 12.2906 0)
(-0.84778 12.4889 0)
(-0.733694 12.6656 0)
(-0.625947 12.8221 0)
(-0.525884 12.9584 0)
(-0.43402 13.0723 0)
(-0.350261 13.1591 0)
(-0.274425 13.2111 0)
(-0.205382 13.2192 0)
(-0.143551 13.1682 0)
(-0.087819 12.9969 0)
(-0.0410774 12.4003 0)
(-0.00913156 10.5909 0)
(-0.094302 9.97706 0)
(-0.0684369 9.98544 -2.81735e-21)
(-0.0476446 9.99198 0)
(-0.032465 9.99692 -1.45486e-21)
(-0.0215064 10.0004 0)
(-0.0138194 10.0024 -2.14001e-18)
(-0.0086059 10.0033 -4.04524e-18)
(-0.0051991 10.0033 -5.47022e-23)
(-0.00305983 10.0027 1.80352e-18)
(-0.00174331 10.0017 -8.50929e-19)
(-0.000923718 10.0007 8.02508e-19)
(-0.000340711 10.0001 0)
(-0.125849 9.96686 0)
(-0.165309 9.95573 0)
(-0.213679 9.94448 0)
(-0.272143 9.93435 0)
(-0.341795 9.92711 0)
(-0.423509 9.92517 0)
(-0.517716 9.93167 0)
(-0.624145 9.95048 0)
(-0.741498 9.98616 0)
(-0.867061 10.0438 0)
(-0.996313 10.1286 0)
(-1.12263 10.2453 0)
(-1.23719 10.3973 0)
(-1.32968 10.5848 0)
(-1.39357 10.7986 0)
(-1.42711 11.0276 0)
(-1.42812 11.2649 0)
(-1.39621 11.5031 0)
(-1.3423 11.7528 0)
(-1.26361 12.0099 0)
(-1.14751 12.2516 0)
(-1.01219 12.4691 0)
(-0.881094 12.6603 0)
(-0.75719 12.8288 0)
(-0.642123 12.9767 0)
(-0.536686 13.1043 0)
(-0.440968 13.2097 0)
(-0.354497 13.2885 0)
(-0.276821 13.3335 0)
(-0.206624 13.3354 0)
(-0.144058 13.278 0)
(-0.0880707 13.0978 0)
(-0.0410808 12.4823 0)
(-0.00932628 10.6449 0)
(-0.124606 9.9635 0)
(-0.0922349 9.97428 2.69566e-18)
(-0.0655954 9.98313 -2.66406e-18)
(-0.045796 9.99022 2.51925e-18)
(-0.0311817 9.99558 0)
(-0.020664 9.99935 0)
(-0.0133148 10.0017 2.13128e-18)
(-0.00834803 10.0028 -2.01337e-18)
(-0.0051121 10.003 -1.85369e-23)
(-0.00307955 10.0024 8.97121e-19)
(-0.00181248 10.0016 -8.46185e-19)
(-0.000995421 10.0006 -7.96881e-19)
(-0.00037157 10.0001 0)
(-0.163331 9.9509 0)
(-0.211129 9.93762 0)
(-0.268967 9.92472 0)
(-0.338009 9.91374 0)
(-0.419293 9.90684 0)
(-0.513508 9.90686 0)
(-0.620767 9.91738 0)
(-0.740326 9.94273 0)
(-0.870224 9.98784 0)
(-1.00689 10.058 0)
(-1.1448 10.1584 0)
(-1.27624 10.2934 0)
(-1.39139 10.4655 0)
(-1.47927 10.6736 0)
(-1.53387 10.9066 0)
(-1.55471 11.1517 0)
(-1.54059 11.4012 0)
(-1.50337 11.6647 0)
(-1.43958 11.9378 0)
(-1.33975 12.1955 0)
(-1.20436 12.4332 0)
(-1.05307 12.6434 0)
(-0.909915 12.8261 0)
(-0.777072 12.9855 0)
(-0.655507 13.124 0)
(-0.545389 13.2425 0)
(-0.446379 13.3392 0)
(-0.357646 13.4101 0)
(-0.278471 13.4481 0)
(-0.207375 13.4439 0)
(-0.144258 13.3803 0)
(-0.0881336 13.1915 0)
(-0.041002 12.5583 0)
(-0.00946552 10.6952 0)
(-0.161727 9.94661 0)
(-0.121822 9.95997 0)
(-0.0882647 9.97138 2.80192e-18)
(-0.0629367 9.98091 -5.3145e-18)
(-0.0438718 9.98853 5.0277e-18)
(-0.0298419 9.9943 -4.75439e-18)
(-0.019784 9.99838 0)
(-0.0127845 10.001 2.12213e-18)
(-0.00807106 10.0023 -2.00336e-18)
(-0.0050109 10.0026 -1.89102e-18)
(-0.00308938 10.0022 0)
(-0.00187462 10.0014 8.40227e-19)
(-0.00106218 10.0005 0)
(-0.000398961 10.0001 0)
(-0.208621 9.93153 0)
(-0.26581 9.91615 0)
(-0.334175 9.90185 0)
(-0.414848 9.8905 0)
(-0.508731 9.88468 0)
(-0.616256 9.88768 0)
(-0.737137 9.90353 0)
(-0.870056 9.93698 0)
(-1.01228 9.99328 0)
(-1.15931 10.0778 0)
(-1.30454 10.1955 0)
(-1.43923 10.3502 0)
(-1.55261 10.5433 0)
(-1.63323 10.7722 0)
(-1.67597 11.0238 0)
(-1.6818 11.2836 0)
(-1.66354 11.5605 0)
(-1.61679 11.8497 0)
(-1.5299 12.1256 0)
(-1.40886 12.3806 0)
(-1.25483 12.6114 0)
(-1.08859 12.8126 0)
(-0.934413 12.9854 0)
(-0.793572 13.1349 0)
(-0.666325 13.2638 0)
(-0.552204 13.3729 0)
(-0.450432 13.4611 0)
(-0.359849 13.5241 0)
(-0.27948 13.5552 0)
(-0.207714 13.545 0)
(-0.144203 13.4755 0)
(-0.0880408 13.2785 0)
(-0.0408575 12.6287 0)
(-0.00955882 10.7418 0)
(-0.206605 9.92612 0)
(-0.158064 9.94217 0)
(-0.116425 9.95635 0)
(-0.0845717 9.96861 5.58903e-18)
(-0.0601791 9.97879 -5.29103e-18)
(-0.0418723 9.98692 5.00449e-18)
(-0.0284519 9.99308 0)
(-0.0188677 9.99746 -2.23511e-18)
(-0.0122271 10.0003 0)
(-0.00777634 10.0017 1.99257e-18)
(-0.00489619 10.0022 0)
(-0.00308941 10.002 0)
(-0.00192956 10.0013 0)
(-0.00112267 10.0005 8.12344e-19)
(-0.000422828 10.0001 3.91308e-19)
(-0.262702 9.90854 0)
(-0.330349 9.89126 0)
(-0.41032 9.87594 0)
(-0.503635 9.86487 0)
(-0.610999 9.86106 0)
(-0.732514 9.86826 0)
(-0.8674 9.89094 0)
(-1.01366 9.93424 0)
(-1.16769 10.0036 0)
(-1.32399 10.1043 0)
(-1.4749 10.241 0)
(-1.61063 10.4165 0)
(-1.71964 10.6312 0)
(-1.79028 10.8809 0)
(-1.81852 11.1499 0)
(-1.82179 11.4394 0)
(-1.79468 11.7447 0)
(-1.72291 12.0394 0)
(-1.61248 12.3142 0)
(-1.47062 12.5634 0)
(-1.2989 12.7852 0)
(-1.11892 12.9758 0)
(-0.954844 13.1378 0)
(-0.80697 13.2768 0)
(-0.674832 13.3957 0)
(-0.557346 13.4957 0)
(-0.453301 13.5753 0)
(-0.361241 13.6306 0)
(-0.27995 13.6551 0)
(-0.207708 13.639 0)
(-0.143941 13.5638 0)
(-0.0878221 13.3591 0)
(-0.0406617 12.6938 0)
(-0.00961407 10.7851 0)
(-0.260228 9.90178 0)
(-0.201883 9.92056 0)
(-0.150895 9.93767 6.22595e-18)
(-0.111433 9.9529 5.89844e-18)
(-0.0807492 9.96597 5.5815e-18)
(-0.0573232 9.97679 -5.27864e-18)
(-0.0398069 9.9854 0)
(-0.0270135 9.99193 0)
(-0.0179163 9.99659 0)
(-0.0116453 9.99961 4.20021e-18)
(-0.00746289 10.0013 1.98118e-18)
(-0.0047683 10.0019 1.86658e-18)
(-0.0030795 10.0018 0)
(-0.00197651 10.0012 -8.56454e-19)
(-0.00117652 10.0004 -4.13297e-19)
(-0.000443596 10 0)
(-0.326574 9.88184 0)
(-0.405774 9.86296 0)
(-0.4984 9.8472 0)
(-0.605302 9.83725 0)
(-0.72692 9.83659 0)
(-0.862941 9.84941 0)
(-1.01198 9.88064 0)
(-1.17127 9.93563 0)
(-1.33626 10.0199 0)
(-1.50041 10.1387 0)
(-1.65501 10.2957 0)
(-1.78933 10.4931 0)
(-1.89126 10.7298 0)
(-1.94904 10.9993 0)
(-1.97682 11.3005 0)
(-1.97241 11.6217 0)
(-1.91849 11.9356 0)
(-1.82077 12.2314 0)
(-1.68687 12.5018 0)
(-1.52495 12.7426 0)
(-1.33674 12.9534 0)
(-1.14434 13.1322 0)
(-0.971523 13.2828 0)
(-0.817571 13.4109 0)
(-0.681289 13.52 0)
(-0.561029 13.6108 0)
(-0.455156 13.6821 0)
(-0.361948 13.73 0)
(-0.279972 13.7481 0)
(-0.207421 13.7264 0)
(-0.143513 13.6457 0)
(-0.0875029 13.4337 0)
(-0.040425 12.754 0)