/*--------------------------------*- C++ -*----------------------------------*\
  =========                 |
  \\      /  F ield         | OpenFOAM: The Open Source CFD Toolbox
   \\    /   O peration     | Website:  https://openfoam.org
    \\  /    A nd           | Version:  8
     \\/     M anipulation  |
\*---------------------------------------------------------------------------*/
FoamFile
{
    version     2.0;
    format      ascii;
    class       volVectorField;
    location    "0.26";
    object      U;
}
// * * * * * * * * * * * * * * * * * * * * * * * * * * * * * * * * * * * * * //

dimensions      [0 1 -1 0 0 0 0];

internalField   nonuniform List<vector> 
15677
(
(-0.0399018 9.66595 0)
(0.0484994 9.92199 0)
(-0.00180738 9.37813 0)
(0.0206597 9.97701 0)
(0.0199057 9.78854 0)
(0.00732413 9.14077 0)
(0.0258472 9.99515 0)
(0.0165632 9.92458 0)
(0.0112019 9.65355 0)
(0.00650882 8.95975 0)
(0.0263415 10.0025 0)
(0.0205871 9.97862 0)
(0.016592 9.85164 0)
(0.00915901 9.52994 0)
(0.00518274 8.81548 0)
(0.0255829 10.0057 0)
(0.0216315 10.0029 0)
(0.0194683 9.94115 0)
(0.0154293 9.77868 0)
(0.00802697 9.41834 0)
(0.00426997 8.70007 0)
(0.0245224 10.0071 0)
(0.021924 10.0146 0)
(0.0210863 9.98444 0)
(0.0183487 9.90165 0)
(0.0139434 9.70666 0)
(0.00698495 9.31929 0)
(0.00358134 8.60696 0)
(0.0231065 10.0075 0)
(0.0218177 10.0205 0)
(0.0219778 10.0065 0)
(0.020331 9.9642 0)
(0.0170945 9.86053 0)
(0.0125563 9.63861 0)
(0.00604372 9.2332 0)
(0.00300451 8.53186 0)
(0.021415 10.0074 0)
(0.021286 10.0234 0)
(0.0222943 10.0181 0)
(0.0214618 9.99732 0)
(0.0192361 9.94234 0)
(0.0157794 9.82012 0)
(0.0112221 9.5765 0)
(0.00517029 9.15983 0)
(0.00247635 8.47205 0)
(0.019517 10.007 0)
(0.020442 10.0235 0)
(0.0223003 10.0237 0)
(0.0220012 10.0154 0)
(0.0204549 9.98678 0)
(0.0179561 9.92062 0)
(0.0143578 9.78228 0)
(0.00986338 9.52149 0)
(0.00431458 9.09892 0)
(0.00195973 8.42602 0)
(0.0175025 10.0063 0)
(0.019411 10.0223 0)
(0.0218962 10.0267 0)
(0.0220718 10.0253 0)
(0.0210504 10.0117 0)
(0.0191694 9.97645 0)
(0.01647 9.90057 0)
(0.0127861 9.74824 0)
(0.00842459 9.47454 0)
(0.00343308 9.05026 0)
(0.00142638 8.39275 0)
(0.0153993 10.0056 0)
(0.01813 10.0206 0)
(0.021222 10.0278 0)
(0.0217913 10.0307 0)
(0.0211542 10.0259 0)
(0.0197083 10.0083 0)
(0.0175741 9.9676 0)
(0.0147254 9.88312 0)
(0.0110126 9.71915 0)
(0.00685845 9.43641 0)
(0.00248572 9.01373 0)
(0.000854024 8.3719 0)
(0.0132674 10.0049 0)
(0.0166743 10.0185 0)
(0.020199 10.0271 0)
(0.0211829 10.0333 0)
(0.0208516 10.034 0)
(0.0197214 10.0268 0)
(0.0179497 10.0062 0)
(0.0156122 9.96102 0)
(0.0126555 9.86928 0)
(0.00898073 9.69604 0)
(0.00511658 9.4078 0)
(0.0014403 8.98934 0)
(0.000219274 8.36319 0)
(0.0111393 10.0041 0)
(0.0151046 10.0163 0)
(0.0189053 10.0255 0)
(0.0202778 10.0338 0)
(0.0202094 10.0382 0)
(0.0192977 10.0375 0)
(0.0177518 10.0289 0)
(0.0157113 10.0063 0)
(0.0132038 9.9576 0)
(0.0101871 9.85999 0)
(0.00663049 9.67993 0)
(0.00315525 9.3893 0)
(0.000270644 8.97718 0)
(-0.000431758 8.36658 0)
(0.0092448 10.0035 0)
(0.0134604 10.014 0)
(0.0173798 10.0232 0)
(0.0190734 10.0327 0)
(0.0192431 10.0399 0)
(0.0184901 10.0435 0)
(0.0170726 10.0424 0)
(0.0151753 10.0332 0)
(0.0128959 10.0094 0)
(0.0102562 9.95819 0)
(0.00724281 9.85624 0)
(0.00390604 9.67173 0)
(0.000935612 9.38149 0)
(-0.00102917 8.9775 0)
(-0.00118381 8.38208 0)
(0.00769737 10.0029 0)
(0.0119378 10.0119 0)
(0.0156724 10.0206 0)
(0.0175844 10.0306 0)
(0.0179535 10.0396 0)
(0.0173192 10.0463 0)
(0.0159598 10.0501 0)
(0.0140983 10.0492 0)
(0.011878 10.0402 0)
(0.00939058 10.0162 0)
(0.0066707 9.96364 0)
(0.00374753 9.85894 0)
(0.000752101 9.67235 0)
(-0.00158745 9.38493 0)
(-0.00250724 8.99041 0)
(-0.00202474 8.4099 0)
(0.00638681 10.0024 0)
(0.0105831 10.0102 0)
(0.0140086 10.0181 0)
(0.0158435 10.0279 0)
(0.0163456 10.0379 0)
(0.0157907 10.0468 0)
(0.0144337 10.054 0)
(0.0125253 10.0586 0)
(0.0102425 10.0587 0)
(0.00772441 10.0509 0)
(0.00507324 10.0276 0)
(0.00234982 9.97483 0)
(-0.000369638 9.86905 0)
(-0.00287433 9.68256 0)
(-0.00443205 9.4001 0)
(-0.0041613 9.01612 0)
(-0.00295379 8.45005 0)
(0.00529614 10.002 0)
(0.0093667 10.0086 0)
(0.0125 10.0159 0)
(0.0140808 10.025 0)
(0.014437 10.0352 0)
(0.0139061 10.0456 0)
(0.0124999 10.0552 0)
(0.0104734 10.0636 0)
(0.00803081 10.0697 0)
(0.0053451 10.0717 0)
(0.00256726 10.0658 0)
(-0.000178279 10.0443 0)
(-0.00279985 9.99263 0)
(-0.00517251 9.88741 0)
(-0.00701648 9.70312 0)
(-0.0076229 9.42737 0)
(-0.00599481 9.05461 0)
(-0.00396631 8.50253 0)
(0.00437496 10.0016 0)
(0.00826947 10.0073 0)
(0.0111083 10.014 0)
(0.0124476 10.0224 0)
(0.012474 10.0321 0)
(0.0116753 10.043 0)
(0.0101601 10.0544 0)
(0.00794562 10.0654 0)
(0.00525475 10.0756 0)
(0.00228751 10.0841 0)
(-0.00076925 10.0889 0)
(-0.00374266 10.086 0)
(-0.00648135 10.0673 0)
(-0.00886075 10.0179 0)
(-0.0107132 9.91482 0)
(-0.0116998 9.73457 0)
(-0.0111719 9.46695 0)
(-0.00801078 9.10595 0)
(-0.00505986 8.56714 0)
(0.00364738 10.0012 0)
(0.00729872 10.0061 0)
(0.00982383 10.0122 0)
(0.0109131 10.02 0)
(0.0106408 10.0291 0)
(0.00937611 10.0397 0)
(0.00742281 10.0518 0)
(0.00494349 10.0648 0)
(0.00191326 10.078 0)
(-0.00144391 10.0909 0)
(-0.00491172 10.1026 0)
(-0.00828011 10.111 0)
(-0.0113496 10.112 0)
(-0.0139413 10.0972 0)
(-0.0159006 10.0513 0)
(-0.0170229 9.95193 0)
(-0.0169334 9.77737 0)
(-0.0150748 9.51896 0)
(-0.0101954 9.16985 0)
(-0.00622104 8.64349 0)
(0.00303104 10.001 0)
(0.00640299 10.005 0)
(0.00865014 10.0106 0)
(0.00948314 10.0178 0)
(0.00891164 10.0263 0)
(0.00722747 10.0364 0)
(0.00461921 10.0483 0)
(0.00147785 10.0623 0)
(-0.00199294 10.0776 0)
(-0.00585596 10.0936 0)
(-0.00986601 10.11 0)
(-0.0137804 10.1258 0)
(-0.0173614 10.1388 0)
(-0.0203831 10.1447 0)
(-0.0226434 10.1347 0)
(-0.0239621 10.0936 0)
(-0.0241134 9.9993 0)
(-0.0227078 9.83172 0)
(-0.0193144 9.58327 0)
(-0.0125385 9.24607 0)
(-0.00744222 8.7311 0)
(0.00254558 10.0008 0)
(0.00561841 10.0042 0)
(0.00756977 10.0093 0)
(0.00816212 10.0158 0)
(0.00730257 10.0236 0)
(0.0052045 10.0331 0)
(0.00200956 10.0446 0)
(-0.00203977 10.0584 0)
(-0.00644893 10.0748 0)
(-0.0109499 10.0932 0)
(-0.0156469 10.113 0)
(-0.0202634 10.1338 0)
(-0.0245258 10.1546 0)
(-0.0281697 10.1731 0)
(-0.0309486 10.1847 0)
(-0.0326433 10.1806 0)
(-0.0330604 10.1452 0)
(-0.0319708 10.0572 0)
(-0.0289958 9.89768 0)
(-0.0238591 9.65966 0)
(-0.0150077 9.33393 0)
(-0.00869955 8.82911 0)
(0.0021735 10.0007 0)
(0.00494926 10.0036 0)
(0.0065947 10.0081 0)
(0.00695026 10.0139 0)
(0.00582255 10.0212 0)
(0.00333263 10.0299 0)
(-0.000434971 10.0407 0)
(-0.00529418 10.0541 0)
(-0.0109324 10.0704 0)
(-0.0167058 10.0901 0)
(-0.0222589 10.1124 0)
(-0.027755 10.1368 0)
(-0.0328815 10.1629 0)
(-0.0373357 10.1896 0)
(-0.0408337 10.2144 0)
(-0.0431168 10.2327 0)
(-0.0439621 10.2353 0)
(-0.0431783 10.2066 0)
(-0.0405562 10.1259 0)
(-0.0357482 9.97508 0)
(-0.0286615 9.74759 0)
(-0.0175809 9.43281 0)
(-0.00997404 8.93678 0)
(0.00188621 10.0006 0)
(0.00441232 10.0031 0)
(0.00575593 10.007 0)
(0.00585112 10.0123 0)
(0.0044779 10.0188 0)
(0.0016273 10.0269 0)
(-0.00267964 10.0369 0)
(-0.00832384 10.0495 0)
(-0.0150553 10.0654 0)
(-0.0224548 10.085 0)
(-0.0296763 10.1087 0)
(-0.0362648 10.1359 0)
(-0.0424695 10.1658 0)
(-0.0479441 10.198 0)
(-0.0523654 10.2314 0)
(-0.0554417 10.2635 0)
(-0.0569171 10.2892 0)
(-0.056581 10.2992 0)
(-0.0542651 10.278 0)
(-0.0498013 10.2051 0)
(-0.0428943 10.0635 0)
(-0.0336661 9.84642 0)
(-0.0201924 9.54168 0)
(-0.0111994 9.05247 0)
(0.00166059 10.0005 0)
(0.00397354 10.0027 0)
(0.00506496 10.0062 0)
(0.0049081 10.0109 0)
(0.00327271 10.0167 0)
(9.92939e-05 10.024 0)
(-0.00470156 10.0331 0)
(-0.011084 10.0449 0)
(-0.0188708 10.0599 0)
(-0.027714 10.079 0)
(-0.0370434 10.1026 0)
(-0.0457609 10.1313 0)
(-0.053307 10.1642 0)
(-0.0600557 10.2006 0)
(-0.0656378 10.2399 0)
(-0.0697244 10.2808 0)
(-0.0720333 10.3207 0)
(-0.0723297 10.3544 0)
(-0.0704383 10.3724 0)
(-0.0662327 10.3592 0)
(-0.0596094 10.2948 0)
(-0.0503471 10.1625 0)
(-0.0387552 9.95522 0)
(-0.0227248 9.6592 0)
(-0.0120871 9.17432 0)
(0.00148103 10.0004 0)
(0.00361469 10.0024 0)
(0.00450303 10.0056 0)
(0.00414139 10.0097 0)
(0.00225586 10.0148 0)
(-0.00124409 10.0212 0)
(-0.00648458 10.0295 0)
(-0.0135432 10.0402 0)
(-0.0223232 10.0542 0)
(-0.0325578 10.0723 0)
(-0.0437564 10.0953 0)
(-0.0551553 10.1239 0)
(-0.0653567 10.1585 0)
(-0.0736993 10.1982 0)
(-0.0807374 10.2419 0)
(-0.0860975 10.289 0)
(-0.0894652 10.3382 0)
(-0.0905892 10.3865 0)
(-0.0892825 10.4287 0)
(-0.0854273 10.4551 0)
(-0.0789579 10.4502 0)
(-0.0698602 10.3943 0)
(-0.0579549 10.271 0)
(-0.0438753 10.0728 0)
(-0.0253701 9.78485 0)
(-0.0141824 9.30237 0)
(0.00133639 10.0004 0)
(0.00331833 10.0021 0)
(0.0040424 10.005 0)
(0.00352421 10.0087 0)
(0.00144836 10.0132 0)
(-0.002348 10.0187 0)
(-0.00801724 10.0259 0)
(-0.0156784 10.0356 0)
(-0.0253706 10.0484 0)
(-0.0369168 10.0652 0)
(-0.0499173 10.0872 0)
(-0.0636931 10.115 0)
(-0.0772473 10.1495 0)
(-0.0888344 10.191 0)
(-0.0977099 10.2384 0)
(-0.10468 10.2903 0)
(-0.109392 10.346 0)
(-0.111571 10.4039 0)
(-0.11103 10.4611 0)
(-0.107652 10.512 0)
(-0.101397 10.5469 0)
(-0.092282 10.5504 0)
(-0.0803594 10.5029 0)
(-0.0655735 10.3882 0)
(-0.0482719 10.1982 0)
(-0.0218292 9.91229 0)
(-0.00989309 9.37404 0)
(0.00121864 10.0004 0)
(0.0030718 10.0019 0)
(0.00366281 10.0046 0)
(0.00302594 10.0079 0)
(0.000815041 10.0118 0)
(-0.00319543 10.0165 0)
(-0.0092371 10.0227 0)
(-0.017473 10.031 0)
(-0.0279816 10.0425 0)
(-0.0407371 10.0579 0)
(-0.0554404 10.0784 0)
(-0.0715109 10.105 0)
(-0.0880376 10.1387 0)
(-0.103749 10.18 0)
(-0.116514 10.2294 0)
(-0.125542 10.2854 0)
(-0.131976 10.3462 0)
(-0.135514 10.4111 0)
(-0.135958 10.4782 0)
(-0.133211 10.5445 0)
(-0.127254 10.6042 0)
(-0.118149 10.6476 0)
(-0.105974 10.6593 0)
(-0.090923 10.6198 0)
(-0.0726931 10.5129 0)
(-0.0516391 10.3286 0)
(-0.0168475 10.0704 0)
(-0.00140805 9.42521 0)
(0.00112186 10.0003 0)
(0.00286531 10.0018 0)
(0.00334823 10.0043 0)
(0.00262309 10.0072 0)
(0.000320022 10.0106 0)
(-0.00383278 10.0147 0)
(-0.0101342 10.0198 0)
(-0.0188541 10.0268 0)
(-0.0301326 10.0367 0)
(-0.0439763 10.0505 0)
(-0.0602567 10.0693 0)
(-0.0785037 10.0942 0)
(-0.0979079 10.1264 0)
(-0.117278 10.1669 0)
(-0.135039 10.2161 0)
(-0.148649 10.2743 0)
(-0.157322 10.3397 0)
(-0.162631 10.4102 0)
(-0.164369 10.4846 0)
(-0.162456 10.5612 0)
(-0.156915 10.6366 0)
(-0.147853 10.705 0)
(-0.135415 10.7566 0)
(-0.119789 10.776 0)
(-0.101006 10.7439 0)
(-0.0784962 10.644 0)
(-0.0541676 10.4721 0)
(-0.0178514 10.229 0)
(0.00396611 9.4672 0)
(0.0010416 10.0003 0)
(0.00269124 10.0016 0)
(0.00308636 10.0039 0)
(0.00229665 10.0066 0)
(-6.55043e-05 10.0097 0)
(-0.00430535 10.0131 0)
(-0.0107709 10.0173 0)
(-0.0198212 10.023 0)
(-0.0317361 10.0312 0)
(-0.0466019 10.043 0)
(-0.0643105 10.0599 0)
(-0.0845834 10.0828 0)
(-0.106729 10.1131 0)
(-0.129654 10.1519 0)
(-0.151852 10.2002 0)
(-0.171429 10.2582 0)
(-0.185404 10.3263 0)
(-0.193063 10.4019 0)
(-0.196537 10.4825 0)
(-0.195767 10.5668 0)
(-0.190821 10.6528 0)
(-0.181873 10.7371 0)
(-0.169145 10.8139 0)
(-0.152902 10.8732 0)
(-0.133233 10.8997 0)
(-0.110003 10.8746 0)
(-0.0830289 10.7824 0)
(-0.0554151 10.6275 0)
(-0.0202474 10.3831 0)
(0.00505907 9.50811 0)
(0.000974495 10.0003 0)
(0.00254355 10.0015 0)
(0.00286801 10.0037 0)
(0.0020313 10.0061 0)
(-0.000364655 10.0088 0)
(-0.00464965 10.0117 0)
(-0.011206 10.0152 0)
(-0.0204587 10.0197 0)
(-0.0328039 10.0262 0)
(-0.0485067 10.0359 0)
(-0.0675575 10.0504 0)
(-0.0896776 10.071 0)
(-0.114389 10.0989 0)
(-0.140719 10.1356 0)
(-0.167248 10.1821 0)
(-0.192131 10.2392 0)
(-0.213121 10.3071 0)
(-0.226815 10.3859 0)
(-0.23267 10.4722 0)
(-0.233503 10.5632 0)
(-0.229444 10.6574 0)
(-0.220749 10.7527 0)
(-0.207744 10.8456 0)
(-0.190792 10.9301 0)
(-0.170146 10.9965 0)
(-0.145796 11.0298 0)
(-0.118291 11.0115 0)
(-0.0873494 10.9282 0)
(-0.0563585 10.7892 0)
(-0.0223949 10.5319 0)
(0.00466858 9.56146 0)
(0.000917964 10.0002 0)
(0.00241794 10.0014 0)
(0.00268346 10.0035 0)
(0.0018152 10.0057 0)
(-0.000595849 10.0081 0)
(-0.00489482 10.0105 0)
(-0.011487 10.0133 0)
(-0.0208441 10.0168 0)
(-0.0334491 10.0219 0)
(-0.0497168 10.0295 0)
(-0.0698638 10.0412 0)
(-0.0937268 10.0589 0)
(-0.120796 10.0842 0)
(-0.150334 10.1181 0)
(-0.181035 10.1622 0)
(-0.211124 10.2175 0)
(-0.238363 10.2845 0)
(-0.260197 10.3632 0)
(-0.272808 10.4533 0)
(-0.275942 10.5508 0)
(-0.273236 10.6524 0)
(-0.265055 10.7564 0)
(-0.251858 10.8606 0)
(-0.234146 10.9615 0)
(-0.212344 11.0531 0)
(-0.186692 11.1261 0)
(-0.15767 11.1658 0)
(-0.126489 11.154 0)
(-0.0922914 11.0801 0)
(-0.0580451 10.9524 0)
(-0.0246671 10.6923 0)
(0.00361685 9.6245 0)
(0.000869974 10.0002 0)
(0.00231069 10.0013 0)
(0.00252776 10.0033 0)
(0.00163964 10.0054 0)
(-0.000773716 10.0074 0)
(-0.00506393 10.0095 0)
(-0.0116514 10.0116 0)
(-0.0210397 10.0143 0)
(-0.0337743 10.018 0)
(-0.0503826 10.0238 0)
(-0.0712723 10.0329 0)
(-0.0965619 10.0472 0)
(-0.12587 10.069 0)
(-0.158378 10.0998 0)
(-0.19304 10.1408 0)
(-0.228175 10.1935 0)
(-0.261588 10.2587 0)
(-0.290682 10.3367 0)
(-0.312612 10.4269 0)
(-0.323184 10.5289 0)
(-0.322563 10.6379 0)
(-0.315348 10.7499 0)
(-0.302172 10.8633 0)
(-0.283719 10.9759 0)
(-0.260627 11.0841 0)
(-0.233385 11.1823 0)
(-0.202626 11.2613 0)
(-0.169296 11.3068 0)
(-0.134755 11.3008 0)
(-0.0978363 11.2355 0)
(-0.0608801 11.1334 0)
(-0.0270636 10.8644 0)
(0.002023 9.69583 0)
(0.000828915 10.0002 0)
(0.00221876 10.0013 0)
(0.00239621 10.0031 0)
(0.00149533 10.005 0)
(-0.000909783 10.0069 0)
(-0.00517519 10.0086 0)
(-0.0117288 10.0102 0)
(-0.0210947 10.0121 0)
(-0.0338615 10.0147 0)
(-0.050639 10.0187 0)
(-0.07198 10.0255 0)
(-0.0982438 10.0366 0)
(-0.129396 10.0542 0)
(-0.164748 10.0809 0)
(-0.203109 10.1184 0)
(-0.243069 10.1677 0)
(-0.282509 10.2301 0)
(-0.318827 10.3062 0)
(-0.349081 10.3961 0)
(-0.370178 10.4986 0)
(-0.377606 10.6127 0)
(-0.372107 10.7332 0)
(-0.359368 10.8554 0)
(-0.34032 10.9777 0)
(-0.315866 11.098 0)
(-0.28678 11.2128 0)
(-0.253888 11.317 0)
(-0.218258 11.4013 0)
(-0.180887 11.4515 0)
(-0.143015 11.4502 0)
(-0.104123 11.4107 0)
(-0.0645147 11.3306 0)
(-0.0295982 11.0309 0)
(0.000277097 9.77334 0)
(0.00079388 10.0002 0)
(0.00213957 10.0012 0)
(0.00228454 10.003 0)
(0.00137665 10.0048 0)
(-0.00101338 10.0064 0)
(-0.00524283 10.0078 0)
(-0.0117423 10.009 0)
(-0.0210475 10.0101 0)
(-0.0337754 10.0117 0)
(-0.0505936 10.0143 0)
(-0.0721627 10.0189 0)
(-0.0990274 10.0271 0)
(-0.131452 10.0407 0)
(-0.169167 10.0624 0)
(-0.211106 10.0951 0)
(-0.255615 10.1404 0)
(-0.300866 10.1992 0)
(-0.344294 10.2725 0)
(-0.38289 10.3606 0)
(-0.4134 10.4631 0)
(-0.432557 10.5784 0)
(-0.435619 10.7049 0)
(-0.424057 10.8367 0)
(-0.404771 10.9685 0)
(-0.379 11.0991 0)
(-0.347871 11.2263 0)
(-0.31247 11.3471 0)
(-0.274002 11.4562 0)
(-0.233697 11.5448 0)
(-0.192421 11.5982 0)
(-0.152004 11.6185 0)
(-0.110857 11.6041 0)
(-0.0684598 11.5229 0)
(-0.0320245 11.1914 0)
(-0.00141869 9.85514 0)
(0.00207074 10.0012 0)
(0.00075165 10.0002 0)
(0.00218882 10.0029 0)
(0.00127885 10.0045 0)
(-0.00109159 10.006 0)
(-0.005278 10.0071 0)
(-0.01171 10.0079 0)
(-0.0209282 10.0084 0)
(-0.0335664 10.0091 0)
(-0.0503313 10.0103 0)
(-0.0719608 10.0131 0)
(-0.0991388 10.0186 0)
(-0.132363 10.0286 0)
(-0.171732 10.0455 0)
(-0.216676 10.0722 0)
(-0.265636 10.1119 0)
(-0.316418 10.1663 0)
(-0.366761 10.2358 0)
(-0.413636 10.3212 0)
(-0.453653 10.4224 0)
(-0.483312 10.5382 0)
(-0.499274 10.6665 0)
(-0.496662 10.8054 0)
(-0.47783 10.9479 0)
(-0.451003 11.0888 0)
(-0.41774 11.2268 0)
(-0.379492 11.3601 0)
(-0.337695 11.4858 0)
(-0.29373 11.5988 0)
(-0.248838 11.6901 0)
(-0.204967 11.7629 0)
(-0.161501 11.8047 0)
(-0.117277 11.7942 0)
(-0.0723549 11.7086 0)
(-0.0342426 11.3457 0)
(-0.00292818 9.93947 0)
(0.00210527 10.0027 0)
(0.00199036 10.0011 0)
(0.000700507 10.0002 0)
(0.0011975 10.0043 0)
(-0.00114987 10.0056 0)
(-0.00528914 10.0065 0)
(-0.0116456 10.0069 0)
(-0.0207596 10.0069 0)
(-0.0332735 10.0068 0)
(-0.0499182 10.0069 0)
(-0.0714848 10.0079 0)
(-0.0987593 10.011 0)
(-0.132418 10.0178 0)
(-0.172849 10.0302 0)
(-0.219928 10.0511 0)
(-0.272676 10.0839 0)
(-0.328938 10.132 0)
(-0.38593 10.1968 0)
(-0.440934 10.2783 0)
(-0.49047 10.3769 0)
(-0.530823 10.4918 0)
(-0.558341 10.6214 0)
(-0.569734 10.7628 0)
(-0.560089 10.9137 0)
(-0.532808 11.0664 0)
(-0.49753 11.2155 0)
(-0.456188 11.36 0)
(-0.410583 11.4984 0)
(-0.362363 11.6279 0)
(-0.312933 11.7434 0)
(-0.265123 11.8531 0)
(-0.218089 11.9449 0)
(-0.170415 11.9886 0)
(-0.123201 11.9791 0)
(-0.076008 11.8868 0)
(-0.036221 11.4934 0)
(-0.00429565 10.0246 0)
(0.00112585 10.0041 0)
(0.00201539 10.0026 0)
(0.00189017 10.001 0)
(0.000652036 10.0001 2.02407e-19)
(-0.00119316 10.0053 0)
(-0.00528236 10.0059 0)
(-0.0115595 10.006 0)
(-0.0205594 10.0056 0)
(-0.0329265 10.0047 0)
(-0.0494051 10.0038 0)
(-0.0708208 10.0034 0)
(-0.0980318 10.0043 0)
(-0.131847 10.0081 0)
(-0.17288 10.0165 0)
(-0.221362 10.0321 0)
(-0.276846 10.058 0)
(-0.337841 10.098 0)
(-0.401513 10.1558 0)
(-0.464415 10.2324 0)
(-0.523389 10.3272 0)
(-0.574548 10.4399 0)
(-0.613937 10.5693 0)
(-0.637873 10.7129 0)
(-0.643239 10.8672 0)
(-0.625208 11.0296 0)
(-0.588372 11.1917 0)
(-0.543883 11.348 0)
(-0.494059 11.4979 0)
(-0.440946 11.6402 0)
(-0.386275 11.772 0)
(-0.333497 11.9056 0)
(-0.282052 12.0332 0)
(-0.230207 12.1245 0)
(-0.178571 12.168 0)
(-0.128519 12.1573 0)
(-0.0793084 12.0571 0)
(-0.0379167 11.6344 0)
(-0.00550749 10.1091 0)
(-0.00123291 10.005 0)
(0.00106435 10.0039 0)
(0.00191207 10.0024 9.04062e-19)
(0.00179459 10.001 -6.41333e-19)
(0.000605912 10.0001 -4.03685e-19)
(-0.00526303 10.0055 0)
(-0.0114587 10.0053 0)
(-0.0203405 10.0044 0)
(-0.0325481 10.0029 0)
(-0.0488308 10.0011 0)
(-0.0700351 9.99931 0)
(-0.0970677 9.9984 0)
(-0.130834 9.9995 0)
(-0.172117 10.0043 0)
(-0.22143 10.015 0)
(-0.278756 10.0346 0)
(-0.343229 10.0666 0)
(-0.412763 10.1151 0)
(-0.483718 10.184 0)
(-0.551963 10.2738 0)
(-0.613944 10.383 0)
(-0.665443 10.5108 0)
(-0.702378 10.655 0)
(-0.721169 10.8126 0)
(-0.71902 10.9795 0)
(-0.691298 11.1525 0)
(-0.643934 11.323 0)
(-0.589648 11.4853 0)
(-0.531051 11.6395 0)
(-0.470322 11.7842 0)
(-0.411805 11.934 0)
(-0.354841 12.0848 0)
(-0.297597 12.2108 0)
(-0.241163 12.2999 0)
(-0.185855 12.3415 0)
(-0.133182 12.328 0)
(-0.0822047 12.2191 0)
(-0.0393308 11.7684 0)
(-0.00655599 10.1919 0)
(-0.00524943 10.0051 0)
(-0.00123115 10.0046 -1.93231e-18)
(0.00100809 10.0036 -9.53644e-19)
(0.00181401 10.0023 4.51034e-19)
(0.00170192 10.0009 -4.26274e-19)
(0.000562156 10.0001 0)
(-0.0113489 10.0046 0)
(-0.0201114 10.0034 0)
(-0.0321549 10.0014 0)
(-0.0482247 9.99869 0)
(-0.0691779 9.99574 0)
(-0.0959525 9.99314 0)
(-0.12952 9.99187 0)
(-0.170791 9.99337 0)
(-0.220494 9.99966 0)
(-0.278958 10.0134 0)
(-0.34583 10.0379 0)
(-0.419747 10.0772 0)
(-0.497894 10.1357 0)
(-0.575743 10.2172 0)
(-0.648476 10.3216 0)
(-0.71223 10.4463 0)
(-0.762556 10.5897 0)
(-0.795385 10.7491 0)
(-0.807396 10.9204 0)
(-0.796258 11.0992 0)
(-0.757646 11.2818 0)
(-0.698942 11.4594 0)
(-0.634407 11.6266 0)
(-0.566828 11.7834 0)
(-0.501634 11.9461 0)
(-0.438265 12.1131 0)
(-0.37439 12.2618 0)
(-0.31161 12.3842 0)
(-0.250865 12.4697 0)
(-0.192227 12.5083 0)
(-0.137185 12.4908 0)
(-0.0846877 12.3725 0)
(-0.0404863 11.8953 0)
(-0.00744598 10.2721 0)
(-0.0112584 10.0041 0)
(-0.00514735 10.0046 4.07506e-18)
(-0.00117886 10.0042 0)
(0.000957198 10.0033 9.51201e-19)
(0.00172214 10.0021 1.42982e-22)
(0.00161243 10.0008 0)
(0.000520726 10.0001 0)
(-0.0198779 10.0025 0)
(-0.0317567 9.99996 0)
(-0.047608 9.99658 0)
(-0.0682874 9.99259 0)
(-0.0947513 9.98849 0)
(-0.128017 9.98511 0)
(-0.169084 9.98368 0)
(-0.218846 9.98598 0)
(-0.2779 9.99439 0)
(-0.346312 10.012 0)
(-0.423326 10.0426 0)
(-0.506947 10.0906 0)
(-0.593531 10.1605 0)
(-0.677592 10.2561 0)
(-0.753664 10.3763 0)
(-0.81769 10.5174 0)
(-0.865131 10.677 0)
(-0.892087 10.8514 0)
(-0.895656 11.036 0)
(-0.874115 11.2256 0)
(-0.823552 11.4167 0)
(-0.752853 11.6001 0)
(-0.677734 11.7705 0)
(-0.604965 11.9456 0)
(-0.53408 12.1255 0)
(-0.462459 12.29 0)
(-0.391991 12.4346 0)
(-0.32401 12.5522 0)
(-0.259302 12.633 0)
(-0.197697 12.6676 0)
(-0.140555 12.6452 0)
(-0.0867724 12.5173 0)
(-0.0414109 12.0149 0)
(-0.0081898 10.3491 0)
(-0.0196824 10.0017 0)
(-0.0110115 10.0034 4.625e-22)
(-0.00491971 10.004 0)
(-0.00112533 10.0038 -1.00309e-18)
(0.000914786 10.003 8.95258e-23)
(0.00163639 10.002 0)
(0.00152623 10.0008 0)
(0.000481834 10.0001 0)
(-0.0313598 9.99873 0)
(-0.046993 9.99471 0)
(-0.0673909 9.9898 0)
(-0.0935134 9.98438 0)
(-0.126407 9.97912 0)
(-0.167136 9.97508 0)
(-0.216711 9.9738 0)
(-0.27594 9.97741 0)
(-0.345222 9.98872 0)
(-0.424298 10.0113 0)
(-0.511877 10.0493 0)
(-0.60523 10.1073 0)
(-0.699793 10.1903 0)
(-0.789077 10.3015 0)
(-0.867037 10.4387 0)
(-0.929591 10.5969 0)
(-0.972272 10.7727 0)
(-0.991522 10.9618 0)
(-0.985017 11.1588 0)
(-0.951763 11.3582 0)
(-0.888334 11.5564 0)
(-0.805135 11.7439 0)
(-0.723959 11.933 0)
(-0.644504 12.1256 0)
(-0.563752 12.303 0)
(-0.484226 12.4631 0)
(-0.407564 12.6021 0)
(-0.334796 12.7138 0)
(-0.266514 12.7893 0)
(-0.202303 12.819 0)
(-0.143329 12.7911 0)
(-0.0884824 12.6536 0)
(-0.0421333 12.1274 0)
(-0.00880302 10.4225 0)
(-0.0310266 9.99765 0)
(-0.0192354 10.0008 -2.26413e-18)
(-0.0105252 10.0026 0)
(-0.00469871 10.0034 0)
(-0.00105825 10.0034 3.00022e-18)
(0.000880846 10.0028 0)
(0.00155672 10.0018 0)
(0.00144312 10.0007 8.4294e-19)
(0.000445335 10.0001 0)
(-0.0463859 9.99307 0)
(-0.0665037 9.98734 0)
(-0.0922739 9.98074 0)
(-0.124753 9.97381 0)
(-0.165051 9.96745 0)
(-0.214267 9.96297 0)
(-0.273363 9.96226 0)
(-0.342998 9.96785 0)
(-0.42332 9.983 0)
(-0.513624 10.0117 0)
(-0.611982 10.0585 0)
(-0.71483 10.1283 0)
(-0.816609 10.2257 0)
(-0.909802 10.3539 0)
(-0.987916 10.5091 0)
(-1.04704 10.6848 0)
(-1.08297 10.8769 0)
(-1.09267 11.0801 0)
(-1.07454 11.2884 0)
(-1.0284 11.4963 0)
(-0.951337 11.6997 0)
(-0.861001 11.9067 0)
(-0.771942 12.1139 0)
(-0.68069 12.3041 0)
(-0.590461 12.4769 0)
(-0.503498 12.6311 0)
(-0.421122 12.7635 0)
(-0.344024 12.8686 0)
(-0.272569 12.938 0)
(-0.206107 12.9624 0)
(-0.145561 12.9285 0)
(-0.0898512 12.7815 0)
(-0.0426816 12.2329 0)
(-0.00930255 10.492 0)
(-0.0458765 9.99161 0)
(-0.0303111 9.99644 0)
(-0.0183836 9.99977 -2.35609e-18)
(-0.0100578 10.0019 -2.22963e-18)
(-0.00445766 10.0029 -4.21699e-18)
(-0.000978749 10.003 0)
(0.000855442 10.0025 -1.88289e-18)
(0.00148321 10.0017 -1.7779e-18)
(0.00136325 10.0006 8.38935e-19)
(0.000411062 10.0001 0)
(-0.0656319 9.98515 0)
(-0.0910519 9.97752 0)
(-0.123102 9.96911 0)
(-0.162913 9.96068 0)
(-0.211647 9.95335 0)
(-0.270386 9.94877 0)
(-0.339988 9.9492 0)
(-0.420922 9.9576 0)
(-0.51297 9.97769 0)
(-0.614881 10.0139 0)
(-0.723986 10.071 0)
(-0.835799 10.1541 0)
(-0.943699 10.2678 0)
(-1.03917 10.4142 0)
(-1.11545 10.5881 0)
(-1.16902 10.7816 0)
(-1.19615 10.9894 0)
(-1.19448 11.2056 0)
(-1.16329 11.4241 0)
(-1.10325 11.6386 0)
(-1.0189 11.8626 0)
(-0.919125 12.0885 0)
(-0.815908 12.2937 0)
(-0.713291 12.4793 0)
(-0.614133 12.6459 0)
(-0.520295 12.793 0)
(-0.432741 12.9181 0)
(-0.351792 13.016 0)
(-0.277563 13.0789 0)
(-0.209183 13.0975 0)
(-0.147311 13.0576 0)
(-0.0909148 12.9012 0)
(-0.0430822 12.3315 0)
(-0.00970417 10.5576 0)
(-0.0649026 9.98322 0)
(-0.044809 9.99003 -2.51709e-18)
(-0.0289591 9.99513 2.48189e-18)
(-0.0175719 9.99879 -1.11829e-21)
(-0.00956292 10.0011 2.22213e-18)
(-0.0041973 10.0024 2.1011e-18)
(-0.000886312 10.0027 3.97038e-18)
(0.000838659 10.0023 2.81186e-18)
(0.00141574 10.0015 -8.84705e-19)
(0.00128675 10.0006 0)
(0.000378956 10.0001 0)
(-0.0898538 9.97466 0)
(-0.121476 9.96495 0)
(-0.160778 9.95468 0)
(-0.208955 9.94481 0)
(-0.267179 9.93677 0)
(-0.336463 9.93256 0)
(-0.417529 9.93486 0)
(-0.510549 9.94709 0)
(-0.614844 9.9734 0)
(-0.728519 10.0186 0)
(-0.848064 10.0877 0)
(-0.967983 10.1859 0)
(-1.08058 10.3171 0)
(-1.1764 10.4828 0)
(-1.24862 10.676 0)
(-1.29441 10.887 0)
(-1.31066 11.1099 0)
(-1.2959 11.3381 0)
(-1.25034 11.5648 0)
(-1.18387 11.8014 0)
(-1.08948 12.0455 0)
(-0.972534 12.2699 0)
(-0.855572 12.4705 0)
(-0.742213 12.6498 0)
(-0.634796 12.809 0)
(-0.534716 12.9483 0)
(-0.442542 13.0654 0)
(-0.358218 13.1558 0)
(-0.281598 13.212 0)
(-0.21161 13.2247 0)
(-0.148639 13.1786 0)
(-0.0917132 13.013 0)
(-0.0433582 12.4236 0)
(-0.0100229 10.6192 0)
(-0.0888559 9.97213 0)
(-0.0633822 9.98117 -3.32205e-21)
(-0.0427896 9.98834 0)
(-0.02768 9.99386 -1.80409e-21)
(-0.0167205 9.99785 0)
(-0.00903922 10.0004 -2.21412e-18)
(-0.00391914 10.0019 -4.18502e-18)
(-0.000781289 10.0023 6.57739e-23)
(0.000830382 10.0021 1.86537e-18)
(0.00135412 10.0014 -8.79982e-19)
(0.00121291 10.0005 8.2984e-19)
(0.000348956 10 0)
(-0.119884 9.96126 0)
(-0.158676 9.94936 0)
(-0.206264 9.93723 0)
(-0.263871 9.9261 0)
(-0.332634 9.91774 0)
(-0.413473 9.91454 0)
(-0.506874 9.91962 0)
(-0.612624 9.93687 0)
(-0.72949 9.97086 0)
(-0.854828 10.0267 0)
(-0.984189 10.1096 0)
(-1.11102 10.2244 0)
(-1.22655 10.3746 0)
(-1.32052 10.5605 0)
(-1.38629 10.773 0)
(-1.42199 11.0011 0)
(-1.42536 11.2381 0)
(-1.3959 11.4765 0)
(-1.34457 11.7268 0)
(-1.26848 11.9851 0)
(-1.1546 12.229 0)
(-1.02088 12.449 0)
(-0.890839 12.6431 0)
(-0.767494 12.8146 0)
(-0.652567 12.9656 0)
(-0.546906 13.0964 0)
(-0.450669 13.2053 0)
(-0.363434 13.2879 0)
(-0.284785 13.3372 0)
(-0.213469 13.3439 0)
(-0.149602 13.2916 0)
(-0.0922837 13.1173 0)
(-0.0435304 12.5094 0)
(-0.010272 10.6769 0)
(-0.118565 9.95799 0)
(-0.0867617 9.96948 2.79137e-18)
(-0.0604895 9.97901 -2.75837e-18)
(-0.0408911 9.98672 2.60759e-18)
(-0.0263466 9.99265 0)
(-0.0158288 9.99695 0)
(-0.0084894 9.99979 2.20501e-18)
(-0.00362236 10.0014 -2.0828e-18)
(-0.000663863 10.002 9.32892e-23)
(0.000830931 10.0018 9.27817e-19)
(0.00129854 10.0013 -8.75031e-19)
(0.00114187 10.0005 -8.2401e-19)
(0.000321209 10 0)
(-0.156615 9.94464 0)
(-0.20361 9.9305 0)
(-0.260556 9.91662 0)
(-0.328663 9.90455 0)
(-0.409013 9.89641 0)
(-0.502346 9.89504 0)
(-0.608829 9.90401 0)
(-0.727781 9.92766 0)
(-0.857308 9.97095 0)
(-0.99391 10.0392 0)
(-1.13213 10.1376 0)
(-1.26434 10.2706 0)
(-1.38075 10.4409 0)
(-1.47042 10.6475 0)
(-1.52724 10.8792 0)
(-1.55056 11.1237 0)
(-1.5391 11.373 0)
(-1.50477 11.6369 0)
(-1.44401 11.911 0)
(-1.34694 12.1706 0)
(-1.2138 12.4109 0)
(-1.06403 12.6243 0)
(-0.921755 12.8102 0)
(-0.789263 12.973 0)
(-0.667614 13.115 0)
(-0.557044 13.237 0)
(-0.457288 13.3374 0)
(-0.367576 13.4123 0)
(-0.287228 13.4547 0)
(-0.214839 13.4554 0)
(-0.150254 13.3971 0)
(-0.0926615 13.2145 0)
(-0.0436175 12.5891 0)
(-0.0104636 10.7308 0)
(-0.154921 9.94045 0)
(-0.115755 9.9546 0)
(-0.0827453 9.96675 2.90121e-18)
(-0.0577845 9.97695 -5.50224e-18)
(-0.0389187 9.98517 5.20432e-18)
(-0.0249571 9.9915 -4.92049e-18)
(-0.0149004 9.9961 0)
(-0.00791388 9.99916 2.19565e-18)
(-0.00330824 10.0009 -2.07238e-18)
(-0.00053508 10.0017 -1.95609e-18)
(0.000840941 10.0016 0)
(0.00124889 10.0012 8.68857e-19)
(0.00107389 10.0004 0)
(0.000296266 10 0)
(-0.201006 9.92453 0)
(-0.257276 9.9082 0)
(-0.324665 9.89282 0)
(-0.40435 9.88025 0)
(-0.497282 9.87306 0)
(-0.603945 9.87453 0)
(-0.72411 9.8887 0)
(-0.856523 9.92032 0)
(-0.998522 9.97467 0)
(-1.14567 10.0572 0)
(-1.29145 10.1728 0)
(-1.42717 10.3254 0)
(-1.54212 10.5167 0)
(-1.62489 10.7441 0)
(-1.67018 10.9947 0)
(-1.67884 11.254 0)
(-1.66373 11.5308 0)
(-1.62039 11.8208 0)
(-1.53677 12.0982 0)
(-1.41862 12.3557 0)
(-1.26683 12.5898 0)
(-1.10197 12.7947 0)
(-0.948473 12.9712 0)
(-0.807738 13.1244 0)
(-0.680151 13.257 0)
(-0.565326 13.37 0)
(-0.462565 13.462 0)
(-0.37078 13.5291 0)
(-0.289031 13.5648 0)
(-0.21579 13.5596 0)
(-0.150646 13.4955 0)
(-0.0928778 13.3049 0)
(-0.0436358 12.6633 0)
(-0.0106071 10.781 0)
(-0.198882 9.91923 0)
(-0.151234 9.93616 0)
(-0.110317 9.95117 0)
(-0.0790107 9.96416 5.78664e-18)
(-0.0549828 9.975 -5.47689e-18)
(-0.0368715 9.98371 5.17939e-18)
(-0.0235182 9.99041 0)
(-0.0139369 9.99529 -2.31255e-18)
(-0.00731347 9.99857 0)
(-0.00297773 10.0005 2.06116e-18)
(-0.000393657 10.0014 0)
(0.000859094 10.0015 0)
(0.00120577 10.0011 0)
(0.00101027 10.0004 8.39975e-19)
(0.000274216 10 4.04606e-19)
(-0.254054 9.90072 0)
(-0.320694 9.88238 0)
(-0.399628 9.86586 0)
(-0.491931 9.85345 0)
(-0.598353 9.84813 0)
(-0.719053 9.85366 0)
(-0.853311 9.87452 0)
(-0.999188 9.91584 0)
(-1.15317 9.9831 0)
(-1.30979 10.0817 0)
(-1.4615 10.2162 0)
(-1.59857 10.3896 0)
(-1.70949 10.6025 0)
(-1.78263 10.8508 0)
(-1.8138 11.1189 0)
(-1.82042 11.408 0)
(-1.79705 11.7136 0)
(-1.72902 12.0094 0)
(-1.62209 12.2864 0)
(-1.48321 12.5387 0)
(-1.31366 12.7643 0)
(-1.13487 12.9592 0)
(-0.971228 13.1254 0)
(-0.823182 13.2685 0)
(-0.690418 13.3914 0)
(-0.571958 13.4953 0)
(-0.466668 13.579 0)
(-0.373172 13.6386 0)
(-0.29029 13.6677 0)
(-0.21639 13.6567 0)
(-0.150822 13.587 0)
(-0.0929614 13.3889 0)
(-0.0435986 12.7321 0)
(-0.0107101 10.8278 0)
(-0.251453 9.89408 0)
(-0.194134 9.91384 0)
(-0.144029 9.93188 6.44979e-18)
(-0.105289 9.94792 6.10873e-18)
(-0.0751497 9.9617 5.77912e-18)
(-0.0520836 9.97316 -5.46434e-18)
(-0.0347595 9.98234 0)
(-0.022032 9.9894 0)
(-0.0129394 9.99454 0)
(-0.00668967 9.99803 4.34537e-18)
(-0.00263249 10.0001 2.04943e-18)
(-0.000240535 10.0011 1.93069e-18)
(0.000885288 10.0013 0)
(0.00116793 10.001 -8.85608e-19)
(0.000951817 10.0004 -4.27344e-19)
(0.000254691 10 0)
(-0.316785 9.8731 0)
(-0.394913 9.85304 0)
(-0.486469 9.83595 0)
(-0.592358 9.82452 0)
(-0.713071 9.82221 0)
(-0.84835 9.83322 0)
(-0.996876 9.86247 0)
(-1.15594 9.91536 0)
(-1.32106 9.99745 0)
(-1.48578 10.1139 0)
(-1.64145 10.2688 0)
(-1.77743 10.464 0)
(-1.88162 10.6989 0)
(-1.94229 10.9671 0)
(-1.97354 11.2675 0)
(-1.97313 11.5884 0)
(-1.92337 11.903 0)
(-1.82971 12.2005 0)
(-1.6995 12.4737 0)
(-1.5406 12.7182 0)
(-1.35444 12.9335 0)
(-1.16299 13.1172 0)
(-0.990315 13.2724 0)
(-0.835882 13.4049 0)
(-0.698663 13.5182 0)
(-0.577141 13.6132 0)
(-0.469756 13.6887 0)
(-0.374872 13.741 0)
(-0.291091 13.7637 0)
(-0.216698 13.7472 0)
(-0.150823 13.6721 0)
(-0.0929366 13.4669 0)
(-0.0435162 12.7959 0)
(-0.0107822 10.8712 0)
(-0.313667 9.86486 0)
(-0.245436 9.88736 0)
(-0.184758 9.90852 -1.35707e-17)
(-0.137394 9.92783 1.70584e-20)
(-0.100095 9.94486 -1.2166e-17)