/*--------------------------------*- C++ -*----------------------------------*\
  =========                 |
  \\      /  F ield         | OpenFOAM: The Open Source CFD Toolbox
   \\    /   O peration     | Website:  https://openfoam.org
    \\  /    A nd           | Version:  8
     \\/     M anipulation  |
\*---------------------------------------------------------------------------*/
FoamFile
{
    version     2.0;
    format      ascii;
    class       volVectorField;
    location    "0.45";
    object      U;
}
// * * * * * * * * * * * * * * * * * * * * * * * * * * * * * * * * * * * * * //

dimensions      [0 1 -1 0 0 0 0];

internalField   nonuniform List<vector> 
15677
(
(-0.0199299 9.66509 0)
(0.0435647 9.92085 0)
(0.00237118 9.37833 0)
(0.0147256 9.97648 0)
(0.0185831 9.78801 0)
(0.00699959 9.14328 0)
(0.0279469 9.99434 0)
(0.0170568 9.92502 0)
(0.0106909 9.65581 0)
(0.00605747 8.96178 0)
(0.0260861 10.0015 0)
(0.0214339 9.97876 0)
(0.0163148 9.8542 0)
(0.00896724 9.53198 0)
(0.00487927 8.81938 0)
(0.0249267 10.0047 0)
(0.0222816 10.0029 0)
(0.0190635 9.94367 0)
(0.0152685 9.78088 0)
(0.00782248 9.42206 0)
(0.00400979 8.70575 0)
(0.0239396 10.0062 0)
(0.0224362 10.0144 0)
(0.0206314 9.98684 0)
(0.0181254 9.90392 0)
(0.0137795 9.71043 0)
(0.00674839 9.32495 0)
(0.0033437 8.61427 0)
(0.0225979 10.0067 0)
(0.0222334 10.0201 0)
(0.0214108 10.0088 0)
(0.0199651 9.96648 0)
(0.0168632 9.86435 0)
(0.0123457 9.6443 0)
(0.0058044 9.24063 0)
(0.00278877 8.5409 0)
(0.020907 10.0067 0)
(0.0216593 10.0224 0)
(0.0216802 10.0202 0)
(0.0209909 9.9996 0)
(0.0188324 9.94618 0)
(0.0154692 9.82584 0)
(0.0109894 9.58399 0)
(0.00493753 9.16906 0)
(0.00228082 8.48282 0)
(0.0189822 10.0063 0)
(0.0207908 10.0227 0)
(0.0215035 10.0263 0)
(0.0214157 10.0177 0)
(0.0199264 9.99064 0)
(0.0174549 9.92635 0)
(0.0140089 9.7898 0)
(0.00961829 9.53083 0)
(0.0040899 9.10996 0)
(0.00178161 8.43851 0)
(0.0168971 10.0057 0)
(0.0196741 10.0219 0)
(0.020978 10.0292 0)
(0.0213555 10.0278 0)
(0.0203775 10.0156 0)
(0.0185188 9.98217 0)
(0.0159205 9.90808 0)
(0.0124146 9.75762 0)
(0.00816811 9.48573 0)
(0.00321609 9.06308 0)
(0.00126263 8.40694 0)
(0.0147096 10.005 0)
(0.0183299 10.0204 0)
(0.0201278 10.0299 0)
(0.0209343 10.0332 0)
(0.0203236 10.0298 0)
(0.0188831 10.014 0)
(0.0168623 9.97509 0)
(0.0141464 9.89249 0)
(0.0106203 9.7304 0)
(0.00658965 9.44942 0)
(0.00227609 9.02831 0)
(0.000701409 8.3878 0)
(0.0123929 10.0043 0)
(0.0168121 10.0184 0)
(0.0189753 10.0292 0)
(0.0201551 10.0356 0)
(0.0198253 10.0379 0)
(0.0186996 10.0325 0)
(0.0170455 10.0137 0)
(0.0148615 9.97036 0)
(0.0120501 9.88052 0)
(0.00856594 9.70914 0)
(0.00483311 9.4226 0)
(0.00123712 9.00568 0)
(6.01324e-05 8.38084 0)
(0.0100973 10.0036 0)
(0.0152294 10.0162 0)
(0.0175496 10.0275 0)
(0.019037 10.036 0)
(0.0189728 10.042 0)
(0.0180501 10.0432 0)
(0.0166279 10.0364 0)
(0.0147531 10.0156 0)
(0.0124177 9.96881 0)
(0.00955489 9.8731 0)
(0.00618821 9.69485 0)
(0.00285279 9.4059 0)
(8.73232e-05 8.99532 0)
(-0.000558 8.38601 0)
(0.00812992 10.0029 0)
(0.0135376 10.0138 0)
(0.0159086 10.0252 0)
(0.0175911 10.035 0)
(0.0177573 10.0435 0)
(0.0169891 10.0491 0)
(0.0156994 10.0497 0)
(0.0139802 10.0424 0)
(0.0118889 10.0205 0)
(0.00943378 9.97126 0)
(0.00657904 9.87119 0)
(0.00342614 9.68847 0)
(0.000604446 9.39991 0)
(-0.00122237 8.9975 0)
(-0.00130256 8.40335 0)
(0.00656454 10.0023 0)
(0.011889 10.0116 0)
(0.0140822 10.0224 0)
(0.0158295 10.0329 0)
(0.0161842 10.0432 0)
(0.0155272 10.0518 0)
(0.0143032 10.0574 0)
(0.0126338 10.0583 0)
(0.0106188 10.0513 0)
(0.00833454 10.0292 0)
(0.00580468 9.97857 0)
(0.00304279 9.87574 0)
(0.000208623 9.69092 0)
(-0.00195267 9.40522 0)
(-0.00270465 9.01234 0)
(-0.00214153 8.4331 0)
(0.00530414 10.0018 0)
(0.0103837 10.0097 0)
(0.012281 10.0197 0)
(0.0137796 10.0301 0)
(0.014255 10.0414 0)
(0.0136677 10.0522 0)
(0.0124535 10.0612 0)
(0.0107546 10.0676 0)
(0.00869612 10.0697 0)
(0.00640184 10.0638 0)
(0.00396037 10.0425 0)
(0.0014344 9.99162 0)
(-0.00111436 9.8877 0)
(-0.00345054 9.70302 0)
(-0.00481766 9.42233 0)
(-0.00435712 9.04003 0)
(-0.003069 8.47525 0)
(0.00431924 10.0015 0)
(0.00897744 10.008 0)
(0.0106335 10.0172 0)
(0.0117043 10.0271 0)
(0.0119814 10.0386 0)
(0.0114099 10.0508 0)
(0.0101505 10.0623 0)
(0.008354 10.0725 0)
(0.00615755 10.0806 0)
(0.00371874 10.0846 0)
(0.00117468 10.0806 0)
(-0.00135886 10.0611 0)
(-0.0037893 10.0113 0)
(-0.00598473 9.90795 0)
(-0.00763979 9.72552 0)
(-0.00803491 9.4516 0)
(-0.00618681 9.08059 0)
(-0.00408129 8.52978 0)
(0.00349854 10.0012 0)
(0.00764865 10.0067 0)
(0.00909287 10.0151 0)
(0.00978143 10.0244 0)
(0.00964092 10.0354 0)
(0.00876 10.0481 0)
(0.00739089 10.0613 0)
(0.00542836 10.0742 0)
(0.00300909 10.0864 0)
(0.000314627 10.0968 0)
(-0.00248458 10.1036 0)
(-0.00522913 10.1026 0)
(-0.00775918 10.0859 0)
(-0.00994194 10.0384 0)
(-0.0116019 9.93731 0)
(-0.0123853 9.75898 0)
(-0.0116146 9.49326 0)
(-0.00819772 9.13405 0)
(-0.00517543 8.5965 0)
(0.0028259 10.001 0)
(0.006449 10.0056 0)
(0.00764914 10.0132 0)
(0.0079695 10.0219 0)
(0.00744312 10.0323 0)
(0.00603026 10.0446 0)
(0.00417824 10.0586 0)
(0.00196798 10.0735 0)
(-0.000756496 10.0886 0)
(-0.00381215 10.1035 0)
(-0.00699728 10.1171 0)
(-0.0101111 10.1276 0)
(-0.0129523 10.1305 0)
(-0.0153337 10.1177 0)
(-0.0170842 10.0738 0)
(-0.0179941 9.97643 0)
(-0.0176879 9.80384 0)
(-0.015549 9.5474 0)
(-0.0103752 9.20012 0)
(-0.00633955 8.67498 0)
(0.00227134 10.0008 0)
(0.00536136 10.0047 0)
(0.00631742 10.0116 0)
(0.00627449 10.0196 0)
(0.00535522 10.0293 0)
(0.00346609 10.0411 0)
(0.00088503 10.0549 0)
(-0.00201421 10.0707 0)
(-0.00514686 10.088 0)
(-0.00867435 10.1061 0)
(-0.0123716 10.1244 0)
(-0.0160044 10.1422 0)
(-0.0193333 10.1573 0)
(-0.0221257 10.1652 0)
(-0.0241661 10.1572 0)
(-0.0252581 10.1181 0)
(-0.0251704 10.0259 0)
(-0.0235344 9.86032 0)
(-0.0198188 9.61391 0)
(-0.0127093 9.27855 0)
(-0.00756508 8.76475 0)
(0.00182877 10.0007 0)
(0.00437523 10.004 0)
(0.0050884 10.0102 0)
(0.0047029 10.0176 0)
(0.00339624 10.0265 0)
(0.00103289 10.0376 0)
(-0.00219251 10.0509 0)
(-0.00606058 10.0666 0)
(-0.0101531 10.085 0)
(-0.0142813 10.1055 0)
(-0.018631 10.1273 0)
(-0.0229356 10.1501 0)
(-0.0269198 10.1729 0)
(-0.0303118 10.1934 0)
(-0.0328529 10.2072 0)
(-0.0343109 10.2051 0)
(-0.0344762 10.1718 0)
(-0.033115 10.0859 0)
(-0.0298952 9.92848 0)
(-0.0243913 9.69252 0)
(-0.015167 9.36864 0)
(-0.00882961 8.86491 0)
(0.00148713 10.0006 0)
(0.00352494 10.0035 0)
(0.00395878 10.009 0)
(0.00325535 10.0158 0)
(0.0015782 10.024 0)
(-0.00123807 10.0343 0)
(-0.00509447 10.0468 0)
(-0.0098271 10.0621 0)
(-0.015206 10.0804 0)
(-0.0206227 10.1021 0)
(-0.0257888 10.1265 0)
(-0.0309391 10.1529 0)
(-0.0357585 10.1811 0)
(-0.0399349 10.2098 0)
(-0.0431728 10.2368 0)
(-0.0452015 10.2572 0)
(-0.0457849 10.2619 0)
(-0.0447175 10.2354 0)
(-0.0417867 10.1567 0)
(-0.0367197 10.0081 0)
(-0.0292184 9.7827 0)
(-0.017726 9.46975 0)
(-0.0101151 8.97468 0)
(0.00121996 10.0005 0)
(0.00282898 10.003 0)
(0.00297011 10.008 0)
(0.00193189 10.0141 0)
(-9.07022e-05 10.0216 0)
(-0.00332887 10.0311 0)
(-0.00778665 10.0428 0)
(-0.0133586 10.0572 0)
(-0.0198788 10.0751 0)
(-0.0269805 10.0967 0)
(-0.0338305 10.1225 0)
(-0.0400333 10.1517 0)
(-0.0458983 10.1838 0)
(-0.0510667 10.2181 0)
(-0.0552017 10.2537 0)
(-0.058 10.2879 0)
(-0.0591949 10.3157 0)
(-0.0585644 10.3279 0)
(-0.0559284 10.3089 0)
(-0.0511151 10.2382 0)
(-0.0439352 10.0988 0)
(-0.0342429 9.88377 0)
(-0.0203271 9.5808 0)
(-0.0113811 9.09242 0)
(0.00100656 10.0004 0)
(0.00226156 10.0027 0)
(0.00214738 10.0072 0)
(0.000782115 10.0127 0)
(-0.0016054 10.0195 0)
(-0.00523123 10.0281 0)
(-0.0102429 10.0389 0)
(-0.0166106 10.0524 0)
(-0.0242341 10.0693 0)
(-0.0328269 10.0904 0)
(-0.0418483 10.1161 0)
(-0.0501989 10.1469 0)
(-0.0573661 10.182 0)
(-0.0637768 10.2205 0)
(-0.0690438 10.2619 0)
(-0.0728248 10.3051 0)
(-0.0748272 10.3472 0)
(-0.0748083 10.3831 0)
(-0.0725834 10.4033 0)
(-0.0680166 10.3924 0)
(-0.0610009 10.3301 0)
(-0.051452 10.2 0)
(-0.0393513 9.99479 0)
(-0.0228576 9.70046 0)
(-0.0121929 9.21639 0)
(0.000833087 10.0004 0)
(0.00179631 10.0024 0)
(0.00146256 10.0065 0)
(-0.000165236 10.0114 0)
(-0.00290516 10.0175 0)
(-0.00693508 10.0252 0)
(-0.0124466 10.0351 0)
(-0.0195487 10.0475 0)
(-0.0282158 10.0633 0)
(-0.0382471 10.0834 0)
(-0.0491892 10.1085 0)
(-0.0602924 10.1392 0)
(-0.0701385 10.1759 0)
(-0.0781045 10.2178 0)
(-0.0847958 10.2638 0)
(-0.0898195 10.3131 0)
(-0.0928494 10.3645 0)
(-0.0936275 10.4151 0)
(-0.0919632 10.4596 0)
(-0.08773 10.4882 0)
(-0.080857 10.4856 0)
(-0.0713199 10.4319 0)
(-0.0591221 10.3108 0)
(-0.0444866 10.1145 0)
(-0.0253353 9.82841 0)
(-0.0130378 9.34657 0)
(0.000693944 10.0003 0)
(0.00141316 10.0022 0)
(0.000896142 10.0059 0)
(-0.000939916 10.0104 0)
(-0.0039583 10.0158 0)
(-0.00837079 10.0226 0)
(-0.014385 10.0314 0)
(-0.0221479 10.0427 0)
(-0.0317799 10.0572 0)
(-0.0431719 10.076 0)
(-0.0559666 10.1 0)
(-0.0695054 10.13 0)
(-0.0827852 10.1666 0)
(-0.094025 10.2103 0)
(-0.102515 10.26 0)
(-0.109114 10.3142 0)
(-0.113453 10.3722 0)
(-0.11525 10.4324 0)
(-0.114315 10.4919 0)
(-0.110532 10.5451 0)
(-0.103851 10.5823 0)
(-0.0942853 10.5881 0)
(-0.0818828 10.5427 0)
(-0.0667901 10.4301 0)
(-0.0487603 10.2422 0)
(-0.0213411 9.95807 0)
(-0.00780212 9.42002 0)
(0.000577781 10.0003 0)
(0.00109186 10.002 0)
(0.00042238 10.0055 0)
(-0.00157878 10.0096 0)
(-0.00480327 10.0144 0)
(-0.00950829 10.0204 0)
(-0.0159793 10.0279 0)
(-0.0243912 10.0379 0)
(-0.0348927 10.0511 0)
(-0.047545 10.0684 0)
(-0.0620953 10.0909 0)
(-0.0779864 10.1196 0)
(-0.0943065 10.1554 0)
(-0.109763 10.199 0)
(-0.122175 10.2507 0)
(-0.13079 10.309 0)
(-0.136814 10.3722 0)
(-0.13993 10.4394 0)
(-0.139938 10.5089 0)
(-0.136741 10.5775 0)
(-0.130324 10.6396 0)
(-0.12074 10.6853 0)
(-0.108073 10.6992 0)
(-0.0924791 10.6618 0)
(-0.0738767 10.557 0)
(-0.0528606 10.3747 0)
(-0.0165926 10.1177 0)
(-0.000249476 9.47281 0)
(0.000479118 10.0003 0)
(0.000826485 10.0019 0)
(2.43532e-05 10.0051 0)
(-0.00210369 10.0088 0)
(-0.00548235 10.0132 0)
(-0.0103973 10.0184 0)
(-0.0172043 10.0249 0)
(-0.026187 10.0334 0)
(-0.0375301 10.045 0)
(-0.051322 10.0607 0)
(-0.0675039 10.0814 0)
(-0.0856308 10.1084 0)
(-0.104895 10.1428 0)
(-0.124089 10.1855 0)
(-0.141601 10.237 0)
(-0.154835 10.2977 0)
(-0.16305 10.3655 0)
(-0.167892 10.4383 0)
(-0.169145 10.5152 0)
(-0.166731 10.5942 0)
(-0.160679 10.6719 0)
(-0.151097 10.7427 0)
(-0.138131 10.7965 0)
(-0.121954 10.8181 0)
(-0.10257 10.7881 0)
(-0.0798908 10.6903 0)
(-0.0559392 10.52 0)
(-0.0179217 10.278 0)
(0.00422162 9.51619 0)
(0.000392231 10.0003 0)
(0.000601905 10.0018 0)
(-0.000311006 10.0047 0)
(-0.00253716 10.0082 0)
(-0.00602751 10.0121 0)
(-0.011089 10.0167 0)
(-0.0181257 10.0223 0)
(-0.027517 10.0295 0)
(-0.0395845 10.0392 0)
(-0.0544701 10.0529 0)
(-0.0721346 10.0717 0)
(-0.0923485 10.0966 0)
(-0.114423 10.129 0)
(-0.137249 10.1701 0)
(-0.159286 10.2207 0)
(-0.178601 10.2812 0)
(-0.192156 10.3517 0)
(-0.199293 10.4298 0)
(-0.202228 10.5128 0)
(-0.200899 10.5996 0)
(-0.19538 10.688 0)
(-0.185851 10.7747 0)
(-0.172547 10.8538 0)
(-0.155709 10.9153 0)
(-0.135427 10.944 0)
(-0.111612 10.921 0)
(-0.0843841 10.8306 0)
(-0.0565762 10.6771 0)
(-0.0209074 10.4339 0)
(0.00530198 9.55832 0)
(0.000319275 10.0003 0)
(0.000414111 10.0017 0)
(-0.000592058 10.0045 0)
(-0.0028962 10.0076 0)
(-0.00646568 10.0112 0)
(-0.0116242 10.0152 0)
(-0.0188087 10.02 0)
(-0.0284691 10.026 0)
(-0.0410472 10.0341 0)
(-0.0568607 10.0455 0)
(-0.0759433 10.0618 0)
(-0.0980648 10.0844 0)
(-0.122776 10.1144 0)
(-0.149085 10.1533 0)
(-0.17554 10.2022 0)
(-0.200259 10.2617 0)
(-0.220953 10.3321 0)
(-0.234161 10.4134 0)
(-0.239411 10.5023 0)
(-0.239619 10.5958 0)
(-0.23492 10.6925 0)
(-0.225573 10.7902 0)
(-0.211918 10.8855 0)
(-0.194317 10.9723 0)
(-0.173012 11.0409 0)
(-0.148061 11.0763 0)
(-0.119814 11.0599 0)
(-0.0884458 10.9781 0)
(-0.0574429 10.8406 0)
(-0.0231401 10.5845 0)
(0.00495955 9.61316 0)
(0.00025699 10.0003 0)
(0.000255422 10.0016 0)
(-0.000829887 10.0042 0)
(-0.00319423 10.0072 0)
(-0.00681827 10.0104 0)
(-0.0120361 10.0139 0)
(-0.0193056 10.018 0)
(-0.0291278 10.0229 0)
(-0.0420348 10.0295 0)
(-0.0584972 10.0387 0)
(-0.0787732 10.0522 0)
(-0.102721 10.0719 0)
(-0.129859 10.0992 0)
(-0.159457 10.1354 0)
(-0.190175 10.1818 0)
(-0.220196 10.2395 0)
(-0.247244 10.3091 0)
(-0.268722 10.3904 0)
(-0.280762 10.4831 0)
(-0.283194 10.5832 0)
(-0.279768 10.6873 0)
(-0.270854 10.7938 0)
(-0.256923 10.9004 0)
(-0.23848 11.0036 0)
(-0.215965 11.0976 0)
(-0.18966 11.1727 0)
(-0.160022 11.2143 0)
(-0.12786 11.2042 0)
(-0.0931977 11.1319 0)
(-0.0590337 11.0054 0)
(-0.0253942 10.7467 0)
(0.00394574 9.67725 0)
(0.000204241 10.0002 0)
(0.000119684 10.0015 0)
(-0.00103312 10.004 0)
(-0.00344275 10.0068 0)
(-0.00710242 10.0097 0)
(-0.012351 10.0128 0)
(-0.0196586 10.0162 0)
(-0.0295612 10.0202 0)
(-0.0426573 10.0254 0)
(-0.0595332 10.0327 0)
(-0.0806423 10.0436 0)
(-0.106123 10.0598 0)
(-0.135594 10.0836 0)
(-0.168242 10.1166 0)
(-0.203013 10.16 0)
(-0.23818 10.2151 0)
(-0.271505 10.2828 0)
(-0.300354 10.3634 0)
(-0.321849 10.4563 0)
(-0.331748 10.5609 0)
(-0.330313 10.6725 0)
(-0.322272 10.7871 0)
(-0.308266 10.903 0)
(-0.28899 11.018 0)
(-0.265094 11.1285 0)
(-0.237123 11.2289 0)
(-0.205681 11.31 0)
(-0.171666 11.3572 0)
(-0.136072 11.3528 0)
(-0.0986264 11.289 0)
(-0.0617689 11.1883 0)
(-0.0278006 10.9204 0)
(0.00242083 9.74925 0)
(0.000159176 10.0002 0)
(5.40802e-06 10.0014 0)
(-0.00120705 10.0038 0)
(-0.00365087 10.0064 0)
(-0.00733183 10.0091 0)
(-0.0125899 10.0118 0)
(-0.0199007 10.0146 0)
(-0.0298235 10.0178 0)
(-0.043003 10.0218 0)
(-0.0601112 10.0274 0)
(-0.0817505 10.0358 0)
(-0.108305 10.0488 0)
(-0.139738 10.0683 0)
(-0.175336 10.0972 0)
(-0.213897 10.137 0)
(-0.253993 10.1887 0)
(-0.293453 10.2537 0)
(-0.329636 10.3325 0)
(-0.359569 10.425 0)
(-0.38013 10.5302 0)
(-0.386766 10.6471 0)
(-0.380329 10.7702 0)
(-0.366651 10.895 0)
(-0.346673 11.0198 0)
(-0.321312 11.1424 0)
(-0.291382 11.2595 0)
(-0.257712 11.3656 0)
(-0.221287 11.4519 0)
(-0.183229 11.5038 0)
(-0.144385 11.5039 0)
(-0.104856 11.466 0)
(-0.0653571 11.3873 0)
(-0.0302896 11.0882 0)
(0.000750759 9.82746 0)
(0.000120039 10.0002 0)
(-9.34459e-05 10.0014 0)
(-0.00135829 10.0036 0)
(-0.00382571 10.0061 0)
(-0.00751729 10.0085 0)
(-0.0127694 10.0109 0)
(-0.0200584 10.0132 0)
(-0.0299572 10.0157 0)
(-0.0431421 10.0186 0)
(-0.0603457 10.0227 0)
(-0.0822816 10.0289 0)
(-0.109524 10.0388 0)
(-0.142342 10.0544 0)
(-0.180436 10.0782 0)
(-0.222693 10.1131 0)
(-0.26744 10.1609 0)
(-0.312824 10.2222 0)
(-0.356232 10.2982 0)
(-0.394619 10.3891 0)
(-0.424708 10.4943 0)
(-0.443211 10.6124 0)
(-0.445349 10.7417 0)
(-0.432717 10.876 0)
(-0.412374 11.0104 0)
(-0.385574 11.1434 0)
(-0.353477 11.2729 0)
(-0.317169 11.3958 0)
(-0.277822 11.5069 0)
(-0.236649 11.5972 0)
(-0.194704 11.6522 0)
(-0.153386 11.6741 0)
(-0.111588 11.6611 0)
(-0.0692171 11.5808 0)
(-0.0326531 11.2499 0)
(-0.00087423 9.90977 0)
(-0.000179668 10.0013 0)
(7.49749e-05 10.0002 0)
(-0.0014893 10.0035 0)
(-0.00397352 10.0058 0)
(-0.00766725 10.008 0)
(-0.0129026 10.0101 0)
(-0.0201524 10.012 0)
(-0.029996 10.0138 0)
(-0.0431295 10.0158 0)
(-0.0603272 10.0185 0)
(-0.0823831 10.0228 0)
(-0.110015 10.03 0)
(-0.14373 10.0418 0)
(-0.183604 10.0607 0)
(-0.229017 10.0897 0)
(-0.278346 10.1318 0)
(-0.329372 10.1888 0)
(-0.379817 10.261 0)
(-0.426603 10.3491 0)
(-0.466313 10.4531 0)
(-0.495429 10.5717 0)
(-0.510604 10.7028 0)
(-0.506923 10.8444 0)
(-0.486885 10.9896 0)
(-0.458884 11.133 0)
(-0.424507 11.2733 0)
(-0.385214 11.4088 0)
(-0.342416 11.5365 0)
(-0.297509 11.6515 0)
(-0.25172 11.7443 0)
(-0.207129 11.819 0)
(-0.162859 11.8622 0)
(-0.117962 11.8527 0)
(-0.0730201 11.7678 0)
(-0.0347891 11.405 0)
(-0.00234877 9.99434 0)
(-0.00160546 10.0034 0)
(-0.000275239 10.0013 0)
(2.14547e-05 10.0002 0)
(-0.00410035 10.0056 0)
(-0.00778891 10.0076 0)
(-0.0129994 10.0095 0)
(-0.0201985 10.011 0)
(-0.029966 10.0122 0)
(-0.0430083 10.0133 0)
(-0.0601268 10.0148 0)
(-0.0821717 10.0173 0)
(-0.109967 10.0221 0)
(-0.144201 10.0306 0)
(-0.185247 10.045 0)
(-0.232936 10.0681 0)
(-0.286222 10.1032 0)
(-0.342873 10.1538 0)
(-0.400087 10.2213 0)
(-0.455129 10.3057 0)
(-0.504479 10.4071 0)
(-0.544403 10.5249 0)
(-0.571241 10.6573 0)
(-0.581699 10.8015 0)
(-0.570836 10.9551 0)
(-0.542208 11.1105 0)
(-0.505645 11.262 0)
(-0.463096 11.4087 0)
(-0.416349 11.5492 0)
(-0.367054 11.6806 0)
(-0.316662 11.7978 0)
(-0.267938 11.9094 0)
(-0.22009 12.0028 0)
(-0.171677 12.0475 0)
(-0.123819 12.0388 0)
(-0.0765616 11.9471 0)
(-0.0366698 11.5534 0)
(-0.00367277 10.0795 0)
(-0.00421414 10.0054 0)
(-0.00172262 10.0032 0)
(-0.000387368 10.0012 0)
(-3.04717e-05 10.0002 4.51837e-20)
(-0.00788969 10.0073 0)
(-0.0130683 10.0089 0)
(-0.0202089 10.01 0)
(-0.029887 10.0107 0)
(-0.0428117 10.0111 0)
(-0.0597997 10.0115 0)
(-0.0817388 10.0125 0)
(-0.109528 10.0151 0)
(-0.143994 10.0205 0)
(-0.185738 10.0308 0)
(-0.234956 10.0485 0)
(-0.291136 10.0767 0)
(-0.352706 10.1192 0)
(-0.416756 10.1797 0)
(-0.479824 10.2591 0)
(-0.538743 10.3568 0)
(-0.589595 10.4725 0)
(-0.628413 10.6048 0)
(-0.651514 10.7512 0)
(-0.655789 10.9084 0)
(-0.636383 11.0734 0)
(-0.598063 11.238 0)
(-0.552175 11.3967 0)
(-0.501037 11.5487 0)
(-0.446699 11.693 0)
(-0.390912 11.8266 0)
(-0.337152 11.9621 0)
(-0.284755 12.0914 0)
(-0.232006 12.184 0)
(-0.179701 12.2283 0)
(-0.129043 12.2181 0)
(-0.0797324 12.1182 0)
(-0.0382674 11.6948 0)
(-0.00486058 10.1639 0)
(-0.00798138 10.007 0)
(-0.00431003 10.0051 0)
(-0.00185207 10.003 2.05614e-19)
(-0.000495352 10.0011 -1.43251e-19)
(-7.87694e-05 10.0002 -8.86868e-20)
(-0.0131178 10.0083 0)
(-0.0201932 10.0092 0)
(-0.029774 10.0094 0)
(-0.042565 10.0092 0)
(-0.0593884 10.0086 0)
(-0.0811552 10.0082 0)
(-0.108817 10.0088 0)
(-0.143299 10.0116 0)
(-0.185378 10.0182 0)
(-0.235535 10.0309 0)
(-0.293697 10.0527 0)
(-0.358923 10.0871 0)
(-0.429039 10.1382 0)
(-0.500327 10.21 0)
(-0.56865 10.3027 0)
(-0.630457 10.4149 0)
(-0.681504 10.5457 0)
(-0.717708 10.6929 0)
(-0.735497 10.8534 0)
(-0.732091 11.023 0)
(-0.702839 11.1986 0)
(-0.65385 11.3715 0)
(-0.598044 11.5361 0)
(-0.538035 11.6923 0)
(-0.476022 11.8388 0)
(-0.416348 11.9906 0)
(-0.358346 12.1433 0)
(-0.300115 12.2706 0)
(-0.242743 12.3608 0)
(-0.186827 12.403 0)
(-0.133586 12.3898 0)
(-0.0824786 12.2808 0)
(-0.0395754 11.829 0)
(-0.00590136 10.2464 0)
(-0.0131652 10.0079 0)
(-0.00802418 10.0066 -4.64431e-19)
(-0.00439676 10.0048 -2.17273e-19)
(-0.00197689 10.0028 1.00914e-19)
(-0.000600156 10.001 -9.37052e-20)
(-0.000124182 10.0002 0)
(-0.0201611 10.0085 0)
(-0.0296379 10.0083 0)
(-0.0422864 10.0074 0)
(-0.0589251 10.006 0)
(-0.0804754 10.0044 0)
(-0.107923 10.0033 0)
(-0.142264 10.0036 0)
(-0.184406 10.0069 0)
(-0.235049 10.0151 0)
(-0.294471 10.031 0)
(-0.362252 10.0578 0)
(-0.436946 10.0997 0)
(-0.515648 10.1609 0)
(-0.593752 10.2454 0)
(-0.666447 10.3528 0)
(-0.729881 10.4806 0)
(-0.779591 10.6271 0)
(-0.811513 10.7894 0)
(-0.822343 10.9636 0)
(-0.809777 11.1451 0)
(-0.769475 11.3302 0)
(-0.709004 11.5101 0)
(-0.642834 11.6794 0)
(-0.573767 11.8381 0)
(-0.507229 12.0028 0)
(-0.442631 12.1717 0)
(-0.377661 12.3219 0)
(-0.313894 12.4455 0)
(-0.252212 12.5318 0)
(-0.193007 12.5707 0)
(-0.137442 12.5532 0)
(-0.0847916 12.4346 0)
(-0.0406153 11.9558 0)
(-0.00679693 10.3261 0)
(-0.0201379 10.0078 0)
(-0.0131176 10.0073 9.81426e-19)
(-0.0080156 10.0061 0)
(-0.00447947 10.0044 2.13186e-19)
(-0.00209445 10.0026 4.11469e-23)
(-0.000701371 10.0009 0)
(-0.000167391 10.0001 0)
(-0.0294899 10.0073 0)
(-0.0419891 10.0059 0)
(-0.0584327 10.0038 0)
(-0.0797406 10.0011 0)
(-0.106916 9.9984 0)
(-0.141005 9.99656 0)
(-0.183008 9.99683 0)
(-0.233794 10.001 0)
(-0.293915 10.0115 0)
(-0.363374 10.0314 0)
(-0.441339 10.0645 0)
(-0.525727 10.1151 0)
(-0.612804 10.1879 0)
(-0.697013 10.2867 0)
(-0.772904 10.41 0)
(-0.836443 10.5542 0)
(-0.883084 10.7169 0)
(-0.908944 10.8942 0)
(-0.911145 11.0816 0)
(-0.888001 11.2739 0)
(-0.835583 11.4674 0)
(-0.762978 11.6529 0)
(-0.686128 11.8253 0)
(-0.611789 12.0024 0)
(-0.53947 12.1843 0)
(-0.466564 12.3504 0)
(-0.394968 12.4963 0)
(-0.32602 12.6148 0)
(-0.260388 12.6962 0)
(-0.198252 12.7308 0)
(-0.14064 12.708 0)
(-0.0866903 12.5796 0)
(-0.0414173 12.0752 0)
(-0.007555 10.4024 0)
(-0.0293663 10.0064 0)
(-0.0199536 10.007 5.91293e-23)
(-0.0129488 10.0066 0)
(-0.0080039 10.0056 -2.25261e-19)
(-0.00455261 10.0041 3.22911e-23)
(-0.00220431 10.0024 0)
(-0.000797749 10.0009 0)
(-0.000208082 10.0001 0)
(-0.0416853 10.0046 0)
(-0.0579265 10.0017 0)
(-0.0789793 9.9981 0)
(-0.105849 9.99405 0)
(-0.13961 9.99029 0)
(-0.181331 9.98789 0)
(-0.232006 9.98841 0)
(-0.292397 9.99401 0)
(-0.362847 10.0075 0)
(-0.443027 10.0325 0)
(-0.531563 10.0731 0)
(-0.625641 10.134 0)
(-0.720605 10.22 0)
(-0.8099 10.3344 0)
(-0.887512 10.4748 0)
(-0.949391 10.6362 0)
(-0.991074 10.8151 0)
(-1.00903 11.0071 0)
(-1.00096 11.2069 0)
(-0.965923 11.4088 0)
(-0.900476 11.6092 0)
(-0.815244 11.7987 0)
(-0.732234 11.99 0)
(-0.651098 12.1845 0)
(-0.568844 12.3636 0)
(-0.488 12.5251 0)
(-0.410201 12.6652 0)
(-0.336488 12.7776 0)
(-0.267307 12.8533 0)
(-0.202602 12.8828 0)
(-0.143225 12.8543 0)
(-0.0882049 12.7159 0)
(-0.0420122 12.1873 0)
(-0.00818719 10.475 0)
(-0.0414276 10.0034 0)
(-0.0289893 10.0054 -5.47823e-19)
(-0.019541 10.0061 0)
(-0.0127788 10.006 0)
(-0.00797876 10.0051 6.63191e-19)
(-0.00461562 10.0038 0)
(-0.00230733 10.0023 0)
(-0.000889448 10.0008 1.77164e-19)
(-0.000246108 10.0001 0)
(-0.0574208 9.99996 0)
(-0.0782101 9.99547 0)
(-0.104758 9.9902 0)
(-0.138146 9.98473 0)
(-0.179487 9.97995 0)
(-0.229865 9.97721 0)
(-0.290207 9.97843 0)
(-0.361119 9.98614 0)
(-0.44268 10.0036 0)
(-0.534111 10.0349 0)
(-0.633399 10.0844 0)
(-0.736898 10.1572 0)
(-0.838957 10.2579 0)
(-0.931999 10.3893 0)
(-1.00957 10.5478 0)
(-1.06782 10.7267 0)
(-1.10254 10.9218 0)
(-1.11074 11.1278 0)
(-1.09084 11.3388 0)
(-1.04274 11.5491 0)
(-0.963503 11.7546 0)
(-0.870993 11.9638 0)
(-0.779957 12.173 0)
(-0.686947 12.3648 0)
(-0.595172 12.5391 0)
(-0.506878 12.6944 0)
(-0.423367 12.8277 0)
(-0.345351 12.9333 0)
(-0.27304 13.0026 0)
(-0.206123 13.0265 0)
(-0.145251 12.9918 0)
(-0.0893717 12.8436 0)
(-0.0424294 12.2922 0)
(-0.00870678 10.5436 0)
(-0.0569899 9.99838 0)
(-0.0407889 10.002 0)
(-0.0282267 10.0042 -5.41617e-19)
(-0.0191322 10.0052 -5.03002e-19)
(-0.0125904 10.0053 -9.34319e-19)
(-0.00793863 10.0047 0)
(-0.00466838 10.0035 -4.03031e-19)
(-0.00240291 10.0021 -3.74381e-19)
(-0.000976575 10.0007 1.73872e-19)
(-0.000281497 10.0001 0)
(-0.0774494 9.99313 0)
(-0.103665 9.98679 0)
(-0.136658 9.97979 0)
(-0.17756 9.97289 0)
(-0.227514 9.96725 0)
(-0.287572 9.96453 0)
(-0.358545 9.96702 0)
(-0.44084 9.97769 0)
(-0.534164 10.0003 0)
(-0.63719 10.0392 0)
(-0.747169 10.0992 0)
(-0.859528 10.1855 0)
(-0.96756 10.3024 0)
(-1.06269 10.4521 0)
(-1.13822 10.6293 0)
(-1.19069 10.826 0)
(-1.21638 11.0369 0)
(-1.213 11.2559 0)
(-1.17985 11.4768 0)
(-1.11766 11.6935 0)
(-1.03098 11.9199 0)
(-0.928842 12.1479 0)
(-0.823546 12.3547 0)
(-0.719112 12.5417 0)
(-0.618383 12.7096 0)
(-0.523216 12.8576 0)
(-0.434542 12.9833 0)
(-0.35271 13.0814 0)
(-0.277682 13.144 0)
(-0.208892 13.1619 0)
(-0.146779 13.1208 0)
(-0.0902304 12.9629 0)
(-0.0426966 12.3901 0)
(-0.00912711 10.6082 0)
(-0.0768012 9.99106 0)
(-0.0560055 9.99662 -6.12397e-19)
(-0.0395415 10.0005 5.7223e-19)
(-0.0274776 10.003 -1.98812e-22)
(-0.018699 10.0044 4.93583e-19)
(-0.0123806 10.0047 4.58481e-19)
(-0.00788332 10.0042 8.51689e-19)
(-0.00471066 10.0032 5.93307e-19)
(-0.00249107 10.0019 -1.83723e-19)
(-0.00105894 10.0007 0)
(-0.000314326 10.0001 0)
(-0.10259 9.98376 0)
(-0.135175 9.97541 0)
(-0.175607 9.96663 0)
(-0.225059 9.9584 0)
(-0.284668 9.95216 0)
(-0.355405 9.94995 0)
(-0.437937 9.95445 0)
(-0.532368 9.96909 0)
(-0.637943 9.99805 0)
(-0.752691 10.0461 0)
(-0.873022 10.1183 0)
(-0.993355 10.2197 0)
(-1.10591 10.3543 0)
(-1.20118 10.5234 0)
(-1.27242 10.7198 0)
(-1.31688 10.934 0)
(-1.33147 11.1599 0)
(-1.31478 11.3907 0)
(-1.26705 11.6198 0)
(-1.19825 11.8588 0)
(-1.1013 12.1052 0)
(-0.981848 12.3313 0)
(-0.862718 12.5333 0)
(-0.747499 12.7138 0)
(-0.638503 12.8739 0)
(-0.537111 13.0138 0)
(-0.443846 13.1313 0)
(-0.35869 13.2217 0)
(-0.28134 13.2773 0)
(-0.210992 13.289 0)
(-0.147871 13.2416 0)
(-0.090821 13.0743 0)
(-0.0428384 12.4813 0)
(-0.0094615 10.6687 0)
(-0.101675 9.98107 0)
(-0.0753701 9.9888 -7.1237e-22)
(-0.0541058 9.99468 0)
(-0.0383244 9.99903 -3.4602e-22)
(-0.0266971 10.0019 0)
(-0.0182359 10.0035 -4.84417e-19)
(-0.012149 10.0041 -8.99924e-19)
(-0.0078129 10.0038 -6.72388e-24)
(-0.00474254 10.0029 3.88173e-19)
(-0.00257156 10.0018 -1.80301e-19)
(-0.00113648 10.0006 1.67486e-19)
(-0.000344641 10.0001 0)
(-0.133719 9.97152 0)
(-0.173662 9.96107 0)
(-0.222572 9.95053 0)
(-0.281627 9.94116 0)
(-0.351918 9.93473 0)
(-0.434315 9.93366 0)
(-0.529244 9.9411 0)
(-0.636422 9.96091 0)
(-0.754542 9.9977 0)
(-0.880882 10.0565 0)
(-1.01091 10.1426 0)
(-1.138 10.2608 0)
(-1.25329 10.4144 0)
(-1.34649 10.6037 0)
(-1.41104 10.8195 0)
(-1.44516 11.0507 0)
(-1.44663 11.2905 0)
(-1.41501 11.5315 0)
(-1.36131 11.7845 0)
(-1.28264 12.0452 0)
(-1.16602 12.2908 0)
(-1.02967 12.5123 0)
(-0.897381 12.7075 0)
(-0.772149 12.8799 0)
(-0.65565 13.0315 0)
(-0.548712 13.1627 0)
(-0.451433 13.2717 0)
(-0.363427 13.3541 0)
(-0.284127 13.4026 0)
(-0.212507 13.4081 0)
(-0.148587 13.3543 0)
(-0.0911834 13.178 0)
(-0.042877 12.5661 0)
(-0.00972202 10.7252 0)
(-0.132486 9.96807 0)
(-0.0996774 9.97819 6.83984e-19)
(-0.0726124 9.98635 -6.40176e-19)
(-0.0522623 9.99281 5.93624e-19)
(-0.0370677 9.9976 0)
(-0.0258754 10.0008 0)
(-0.0177426 10.0027 4.75419e-19)
(-0.011896 10.0035 -4.41562e-19)
(-0.00772739 10.0034 5.80716e-25)
(-0.00476381 10.0027 1.90522e-19)
(-0.00264431 10.0016 -1.76981e-19)
(-0.00120913 10.0006 -1.64376e-19)
(-0.000372347 10.0001 0)
(-0.171756 9.95613 0)
(-0.220094 9.94354 0)
(-0.278541 9.93137 0)
(-0.348248 9.92117 0)
(-0.430241 9.9151 0)
(-0.525204 9.91601 0)
(-0.633246 9.92748 0)
(-0.753613 9.95386 0)
(-0.884337 10.0001 0)
(-1.02184 10.0715 0)
(-1.16059 10.1732 0)
(-1.29287 10.3096 0)
(-1.40883 10.4834 0)
(-1.49749 10.6933 0)
(-1.55283 10.9284 0)
(-1.57432 11.1759 0)
(-1.56073 11.4279 0)
(-1.52401 11.6947 0)
(-1.46059 11.9714 0)
(-1.36072 12.2329 0)
(-1.22467 12.4748 0)
(-1.07215 12.6893 0)
(-0.927582 12.8761 0)
(-0.793194 13.0394 0)
(-0.669999 13.1818 0)
(-0.558203 13.3039 0)
(-0.45747 13.4042 0)
(-0.36706 13.4786 0)
(-0.286152 13.5202 0)
(-0.213519 13.5194 0)
(-0.148982 13.4594 0)
(-0.0913534 13.2745 0)
(-0.0428319 12.6448 0)
(-0.00992039 10.7778 0)
(-0.170149 9.95175 0)
(-0.12978 9.96442 0)
(-0.0958123 9.97512 6.76135e-19)
(-0.0699481 9.984 -1.25687e-18)
(-0.0503691 9.991 1.16651e-18)
(-0.0357555 9.99622 -1.08282e-18)
(-0.0250127 9.9998 0)
(-0.0172201 10.002 4.66712e-19)
(-0.0116223 10.0029 -4.33362e-19)
(-0.00762634 10.003 -4.02592e-19)
(-0.00477443 10.0024 0)
(-0.00270932 10.0015 1.73699e-19)
(-0.00127627 10.0005 0)
(-0.000396993 10.0001 0)
(-0.217666 9.93733 0)
(-0.275459 9.92266 0)
(-0.344507 9.9091 0)
(-0.425918 9.89855 0)
(-0.520576 9.89358 0)
(-0.628911 9.89747 0)
(-0.750634 9.9143 0)
(-0.88442 9.94879 0)
(-1.02753 10.0062 0)
(-1.17545 10.092 0)
(-1.32158 10.211 0)
(-1.45718 10.3671 0)
(-1.57145 10.5619 0)
(-1.65295 10.7927 0)
(-1.69652 11.0465 0)
(-1.70309 11.3088 0)
(-1.68561 11.5887 0)
(-1.63957 11.8815 0)
(-1.55303 12.1611 0)
(-1.43186 12.4203 0)
(-1.27699 12.6556 0)
(-1.1093 12.8613 0)
(-0.953477 13.0383 0)
(-0.810859 13.1918 0)
(-0.68177 13.3245 0)
(-0.565788 13.4373 0)
(-0.46213 13.529 0)
(-0.369729 13.5955 0)
(-0.28752 13.6301 0)
(-0.214104 13.6232 0)
(-0.149109 13.5571 0)
(-0.0913644 13.3641 0)
(-0.0427199 12.7178 0)
(-0.0100659 10.8267 0)
(-0.21563 9.93182 0)
(-0.166576 9.94717 0)
(-0.124512 9.96062 0)
(-0.092096 9.97219 1.32741e-18)
(-0.0672239 9.98174 -1.23219e-18)
(-0.0484032 9.98928 1.14385e-18)
(-0.0343888 9.9949 0)
(-0.0241108 9.9988 -4.93068e-19)
(-0.016669 10.0012 0)
(-0.0113273 10.0024 4.25356e-19)
(-0.00751074 10.0026 0)
(-0.00477442 10.0022 0)
(-0.00276636 10.0013 0)
(-0.0013363 10.0005 1.6886e-19)
(-0.000418543 10.0001 8.24731e-20)
(-0.27244 9.91492 0)
(-0.34076 9.89836 0)
(-0.421485 9.88379 0)
(-0.515609 9.87354 0)
(-0.62381 9.87058 0)
(-0.746193 9.8787 0)
(-0.881978 9.90236 0)
(-1.02915 9.9467 0)
(-1.18413 10.0172 0)
(-1.34137 10.1191 0)
(-1.49325 10.2571 0)
(-1.62997 10.4341 0)
(-1.73998 10.6505 0)
(-1.81159 10.9021 0)
(-1.84076 11.1734 0)
(-1.84507 11.4658 0)
(-1.819 11.7745 0)
(-1.74798 12.0727 0)
(-1.63786 12.3517 0)
(-1.49574 12.6054 0)
(-1.32298 12.8319 0)
(-1.14129 13.0272 0)
(-0.97531 13.1936 0)
(-0.825413 13.3366 0)
(-0.691209 13.4594 0)
(-0.571677 13.563 0)
(-0.465584 13.6461 0)
(-0.371567 13.7048 0)
(-0.28833 13.7326 0)
(-0.214331 13.7199 0)
(-0.149014 13.648 0)
(-0.091245 13.4472 0)
(-0.0425552 12.7854 0)
(-0.0101671 10.8721 0)
(-0.269925 9.90805 0)
(-0.211007 9.92611 0)
(-0.159564 9.94246 1.51687e-18)
(-0.119471 9.95699 1.4071e-18)
(-0.0883075 9.9694 1.30539e-18)
(-0.0644064 9.9796 -1.21109e-18)
(-0.0463664 9.98764 0)
(-0.0329706 9.99365 0)
(-0.0231711 9.99785 0)
(-0.0160908 10.0005 8.99237e-19)
(-0.0110121 10.0019 4.17542e-19)
(-0.00738007 10.0023 3.87805e-19)
(-0.0047641 10.002 0)
(-0.00281457 10.0012 -1.78423e-19)
(-0.00138875 10.0004 -8.71711e-20)
(-0.000437394 10.0001 0)
(-0.337086 9.88879 0)
(-0.417023 9.87065 0)
(-0.51047 9.85565 0)
(-0.618247 9.84653 0)
(-0.740762 9.84673 0)
(-0.877706 9.86048 0)
(-1.0277 9.89269 0)
(-1.18796 9.94872 0)
(-1.35394 10.0341 0)
(-1.5191 10.154 0)
(-1.67473 10.3124 0)
(-1.81014 10.5112 0)
(-1.91316 10.7496 0)
(-1.97205 11.0212 0)
(-2.00109 11.3251 0)
(-1.99802 11.6494 0)
(-1.94523 11.9667 0)
(-1.84827 12.2665 0)
(-1.7146 12.5413 0)
(-1.55226 12.7869 0)
(-1.36276 13.0027 0)
(-1.16837 13.1863 0)
(-0.993382 13.3414 0)
(-0.837151 13.4737 0)
(-0.698574 13.5866 0)
(-0.576078 13.681 0)
(-0.467997 13.7557 0)
(-0.372695 13.807 0)
(-0.288675 13.8283 0)
(-0.214262 13.8098 0)
(-0.14874 13.7324 0)
(-0.0910206 13.5243 0)
(-0.0423486 12.848 0)
(-0.0102324 10.9142 0)
(-0.33405 9.8803 0)
(-0.264047 9.90097 0)
(-0.201854 9.92031 -3.20828e-18)