/*--------------------------------*- C++ -*----------------------------------*\
  =========                 |
  \\      /  F ield         | OpenFOAM: The Open Source CFD Toolbox
   \\    /   O peration     | Website:  https://openfoam.org
    \\  /    A nd           | Version:  8
     \\/     M anipulation  |
\*---------------------------------------------------------------------------*/
FoamFile
{
    version     2.0;
    format      ascii;
    class       volScalarField;
    location    "0.1";
    object      k;
}
// * * * * * * * * * * * * * * * * * * * * * * * * * * * * * * * * * * * * * //

dimensions      [0 2 -2 0 0 0 0];

internalField   nonuniform List<scalar> 
15677
(
0.334161
0.365034
0.294766
0.368733
0.357706
0.281047
0.370694
0.360087
0.366151
0.282772
0.371885
0.361638
0.361489
0.383361
0.288893
0.372611
0.363746
0.357752
0.368365
0.401722
0.300317
0.373039
0.365664
0.357859
0.358179
0.380155
0.41942
0.311819
0.373263
0.367181
0.35947
0.35461
0.361073
0.393349
0.434812
0.322635
0.373348
0.368306
0.361364
0.354791
0.353088
0.366941
0.406221
0.447935
0.332119
0.373349
0.369082
0.363071
0.356354
0.351144
0.353529
0.3736
0.418339
0.458776
0.340513
0.373314
0.369567
0.364446
0.35823
0.351948
0.348813
0.354815
0.380747
0.429157
0.467934
0.347587
0.373275
0.369824
0.365465
0.359966
0.35373
0.348402
0.347171
0.357152
0.387706
0.438893
0.475436
0.353815
0.37325
0.369926
0.36615
0.361399
0.355674
0.349779
0.345374
0.346348
0.359742
0.394505
0.447303
0.481868
0.358999
0.37324
0.36994
0.36655
0.362478
0.357432
0.351731
0.346221
0.342944
0.345912
0.362651
0.400746
0.454787
0.487161
0.363653
0.37324
0.369923
0.366738
0.363209
0.358862
0.353687
0.348083
0.343105
0.340878
0.345927
0.365515
0.406627
0.461127
0.491742
0.367703
0.37324
0.369908
0.366796
0.363634
0.359918
0.355393
0.350164
0.344758
0.340303
0.339206
0.346063
0.368432
0.41181
0.466753
0.49553
0.371297
0.373239
0.369901
0.366796
0.363833
0.360609
0.356738
0.352092
0.346885
0.341706
0.337824
0.337756
0.346398
0.371117
0.41661
0.471421
0.498887
0.374579
0.373239
0.369898
0.366785
0.363891
0.36099
0.357691
0.353692
0.34898
0.343837
0.338924
0.335588
0.336538
0.346799
0.373757
0.420679
0.475542
0.501776
0.377382
0.373238
0.369896
0.366776
0.363899
0.361138
0.358277
0.354889
0.350797
0.346064
0.341015
0.336378
0.333586
0.335469
0.347319
0.376041
0.424366
0.478933
0.504332
0.380209
0.373237
0.369896
0.366769
0.363894
0.361181
0.358546
0.35568
0.352221
0.348071
0.343339
0.338415
0.334054
0.331777
0.334587
0.347766
0.3782
0.427369
0.48191
0.506698
0.382423
0.373236
0.369896
0.366764
0.363888
0.361185
0.358651
0.356079
0.353217
0.349701
0.345511
0.340822
0.336024
0.331942
0.330174
0.333798
0.348255
0.379952
0.430056
0.484358
0.508729
0.385045
0.373236
0.369895
0.366761
0.363883
0.361177
0.358684
0.356251
0.353762
0.350888
0.34733
0.343144
0.338499
0.333853
0.330039
0.32875
0.333139
0.348629
0.381566
0.432133
0.486497
0.510854
0.386806
0.373236
0.369895
0.366758
0.36388
0.361168
0.358688
0.356314
0.354025
0.351569
0.348705
0.34514
0.340956
0.336398
0.331896
0.328361
0.327508
0.332563
0.348998
0.382769
0.434004
0.488273
0.512551
0.3894
0.373236
0.369894
0.366756
0.363877
0.36116
0.358683
0.356328
0.35414
0.351913
0.349537
0.346689
0.343118
0.338995
0.334517
0.330187
0.326898
0.326457
0.332084
0.349263
0.38389
0.435328
0.489862
0.514688
0.390834
0.373236
0.369894
0.366755
0.363874
0.361154
0.358676
0.356322
0.354181
0.352071
0.349987
0.34765
0.34484
0.34133
0.337253
0.332897
0.328719
0.325696
0.325606
0.331737
0.349518
0.384616
0.436605
0.49115
0.516123
0.393427
0.373236
0.369893
0.366754
0.363872
0.361149
0.358668
0.356312
0.354188
0.352131
0.350215
0.348181
0.345954
0.343225
0.339746
0.335787
0.331557
0.327576
0.324761
0.32498
0.33144
0.3497
0.385351
0.437367
0.492531
0.518663
0.394798
0.373237
0.369893
0.366754
0.36387
0.361145
0.358662
0.356301
0.354181
0.352143
0.350317
0.348455
0.346604
0.344462
0.341805
0.338486
0.334645
0.330561
0.326699
0.324095
0.324581
0.331419
0.34996
0.385778
0.4383
0.49341
0.520304
0.504481
0.373237
0.369893
0.366754
0.363868
0.361143
0.358656
0.356291
0.354169
0.352135
0.35035
0.348578
0.346967
0.345185
0.34321
0.340763
0.337513
0.333802
0.329876
0.326282
0.323904
0.324611
0.33151
0.350187
0.386257
0.438736
0.495359
0.529006
0.710313
0.373237
0.369892
0.366754
0.363867
0.361141
0.358652
0.356284
0.354157
0.352121
0.35035
0.34862
0.347147
0.345584
0.344082
0.342295
0.339925
0.33696
0.333554
0.329885
0.326371
0.324052
0.32482
0.331753
0.350502
0.386616
0.439627
0.495955
0.545766
0.88527
0.373237
0.369892
0.366754
0.363866
0.36114
0.358648
0.356278
0.354147
0.352106
0.350336
0.348622
0.347219
0.345782
0.344602
0.343218
0.341671
0.339778
0.337049
0.333766
0.330185
0.326767
0.324503
0.325315
0.33225
0.350946
0.387023
0.440294
0.495675
0.558524
1.02653
0.373237
0.369891
0.366754
0.363865
0.361139
0.358644
0.356273
0.354137
0.352093
0.350316
0.348607
0.347233
0.345864
0.344882
0.343754
0.342824
0.341744
0.340035
0.337501
0.334405
0.330959
0.327646
0.325424
0.326258
0.33307
0.351534
0.387632
0.440043
0.494185
0.567961
1.14859
0.373238
0.369891
0.366754
0.363863
0.361138
0.358642
0.35627
0.35413
0.352082
0.350298
0.348586
0.347217
0.345885
0.345006
0.34404
0.343547
0.342988
0.342171
0.34077
0.338518
0.335711
0.332461
0.329208
0.326933
0.327609
0.334211
0.352379
0.388112
0.439133
0.491037
0.57441
1.24724
0.373238
0.369891
0.366754
0.363863
0.361137
0.358639
0.356267
0.354123
0.352072
0.350282
0.348565
0.34719
0.345874
0.345039
0.344176
0.343965
0.343774
0.343565
0.34316
0.34225
0.340417
0.337854
0.334706
0.331429
0.328985
0.329417
0.33571
0.353417
0.388464
0.437234
0.485645
0.578578
1.31968
0.373238
0.36989
0.366754
0.363862
0.361137
0.358637
0.356264
0.354118
0.352065
0.350269
0.348547
0.347162
0.345848
0.345025
0.344234
0.344179
0.344239
0.344463
0.344786
0.34505
0.344664
0.34319
0.340837
0.337746
0.334336
0.331648
0.331689
0.337583
0.354651
0.388414
0.434004
0.478872
0.581216
1.37457
0.373238
0.36989
0.366754
0.363861
0.361137
0.358635
0.356262
0.354113
0.352058
0.350257
0.34853
0.347137
0.345819
0.344992
0.344239
0.344256
0.344487
0.345012
0.345873
0.34697
0.347895
0.348063
0.346937
0.344759
0.341623
0.338006
0.334923
0.334464
0.33982
0.355998
0.388131
0.429706
0.472105
0.583452
1.4179
0.36989
0.373242
0.366755
0.36386
0.361137
0.358633
0.356261
0.354108
0.352053
0.350247
0.348516
0.347115
0.345791
0.344956
0.344215
0.344272
0.344599
0.345326
0.346569
0.348282
0.350164
0.351831
0.352571
0.351773
0.34968
0.346423
0.342446
0.338865
0.337713
0.3424
0.357613
0.38747
0.425256
0.465747
0.58572
1.45358
0.366755
0.3699
0.37325
0.36386
0.361136
0.358632
0.35626
0.354104
0.352048
0.350238
0.348504
0.347096
0.345766
0.344921
0.344181
0.344253
0.344637
0.345492
0.346997
0.34916
0.351768
0.354541
0.357003
0.358326
0.357781
0.355699
0.352163
0.347719
0.343431
0.341443
0.345646
0.359619
0.386595
0.42087
0.460025
0.588398
1.48414
0.363859
0.366772
0.36992
0.373257
0.361136
0.35863
0.356259
0.354101
0.352045
0.35023
0.348494
0.34708
0.345744
0.344891
0.344147
0.344224
0.344635
0.34557
0.347257
0.34974
0.352891
0.356522
0.360269
0.363573
0.365434
0.365074
0.362842
0.358914
0.353779
0.348642
0.346085
0.349595
0.361783
0.385734
0.416836
0.455021
0.591409
1.51112
0.361136
0.363881
0.366805
0.369942
0.373266
0.358629
0.356258
0.354098
0.352042
0.350223
0.348486
0.347065
0.345725
0.344864
0.344115
0.344192
0.344618
0.345602
0.347412
0.350129
0.353686
0.357976
0.362738
0.367535
0.371674
0.37403
0.373694
0.371193
0.366631
0.360653
0.355095
0.351897
0.353869
0.364129
0.38499
0.413115
0.450715
0.594891
1.53559
0.358628
0.361164
0.363925
0.36684
0.369963
0.373274
0.356258
0.354095
0.352039
0.350217
0.348479
0.347053
0.345708
0.34484
0.344087
0.344163
0.344596
0.345611
0.347505
0.350401
0.354269
0.35907
0.364635
0.370632
0.376501
0.381465
0.384174
0.383741
0.380709
0.37535
0.369134
0.363098
0.358288
0.358435
0.366628
0.384433
0.409794
0.447073
0.598609
1.55806
0.356257
0.358659
0.36122
0.363971
0.366876
0.369986
0.373282
0.354093
0.352038
0.350211
0.348473
0.347042
0.345694
0.34482
0.344062
0.344136
0.344575
0.345612
0.347566
0.3506
0.354724
0.359936
0.366145
0.373113
0.380394
0.387353
0.393029
0.395987
0.395174
0.39144
0.386084
0.379609
0.371853
0.365169
0.363252
0.369318
0.384163
0.406854
0.443997
0.602667
1.57902
0.35409
0.356293
0.358722
0.361277
0.364018
0.366913
0.370009
0.373291
0.352036
0.350206
0.348468
0.347032
0.345682
0.344803
0.344041
0.344114
0.344556
0.345611
0.347613
0.350755
0.355093
0.360666
0.367415
0.375193
0.383646
0.392256
0.400208
0.40652
0.409433
0.408063
0.404641
0.399317
0.391033
0.381251
0.372449
0.368267
0.37212
0.384228
0.404365
0.441374
0.606786
1.59859
0.352035
0.354128
0.356366
0.358788
0.361336
0.364066
0.366951
0.370032
0.3733
0.350202
0.348464
0.347023
0.345672
0.344787
0.344022
0.344094
0.34454
0.345611
0.347653
0.350885
0.355403
0.3613
0.368552
0.377034
0.386494
0.39651
0.40638
0.415269
0.42192
0.424622
0.423915
0.420902
0.413728
0.403269
0.391174
0.38004
0.373456
0.374959
0.384449
0.402239
0.439201
0.611111
1.61707
0.350198
0.352076
0.354207
0.356442
0.358855
0.361396
0.364115
0.366989
0.370057
0.373309
0.348461
0.347014
0.345664
0.344773
0.344006
0.344077
0.344527
0.345611
0.347688
0.351001
0.355675
0.361853
0.369585
0.378758
0.389126
0.400385
0.411919
0.42302
0.432555
0.439396
0.443333
0.443465
0.438604
0.429142
0.416158
0.401499
0.387859
0.378794
0.377837
0.3849
0.400496
0.437372
0.615353
1.63438
0.348458
0.350239
0.352163
0.354288
0.35652
0.358925
0.361458
0.364166
0.367029
0.370082
0.373318
0.347007
0.345657
0.344761
0.343992
0.344062
0.344515
0.345612
0.347721
0.351106
0.35592
0.362351
0.370515
0.380378
0.391678
0.404098
0.417143
0.430201
0.442234
0.452294
0.461049
0.466526
0.46479
0.457534
0.445351
0.429541
0.412112
0.395828
0.38422
0.380743
0.385541
0.399026
0.435883
0.619705
1.6508
0.347
0.348502
0.350326
0.352252
0.354371
0.3566
0.358996
0.361522
0.364219
0.36707
0.370107
0.373328
0.345651
0.34475
0.34398
0.34405
0.344506
0.345614
0.347752
0.351202
0.356144
0.362806
0.371366
0.38187
0.394144
0.407811
0.422308
0.43719
0.451471
0.464346
0.476894
0.48809
0.49198
0.487655
0.477448
0.46216
0.443265
0.422897
0.40387
0.389677
0.383681
0.386362
0.397882
0.43465
0.623875
1.66616
0.345646
0.347038
0.348594
0.350417
0.352344
0.354457
0.356682
0.359069
0.361588
0.364272
0.367112
0.370134
0.373337
0.34474
0.34397
0.344039
0.344498
0.345617
0.347781
0.351291
0.35635
0.363224
0.372151
0.383253
0.396458
0.411485
0.427607
0.444298
0.460725
0.476182
0.492116
0.507889
0.517996
0.519463
0.511817
0.498127
0.47938
0.457181
0.433746
0.411914
0.395122
0.386616
0.387229
0.396981
0.433677
0.628095
1.68075
0.344731
0.345684
0.347124
0.348689
0.35051
0.352439
0.354545
0.356766
0.359145
0.361655
0.364328
0.367155
0.370161
0.373347
0.34396
0.34403
0.344491
0.34562
0.347808
0.351372
0.356538
0.363608
0.372876
0.38454
0.398632
0.414992
0.432955
0.451773
0.470382
0.488369
0.507502
0.527501
0.542517
0.550557
0.54869
0.537021
0.519342
0.496827
0.471148
0.444563
0.419896
0.400512
0.38957
0.388135
0.396305
0.432884
0.632068
1.69433
0.343953
0.344756
0.345767
0.347212
0.348788
0.350606
0.352536
0.354636
0.356853
0.359222
0.361724
0.364384
0.367198
0.370187
0.373356
0.344022
0.344485
0.345623
0.347832
0.351446
0.35671
0.363961
0.373546
0.385738
0.400677
0.418324
0.438136
0.45948
0.480763
0.501405
0.52379
0.547965
0.567542
0.580648
0.585518
0.57938
0.563014
0.540895
0.514337
0.485045
0.455261
0.42776
0.405816
0.392512
0.389079
0.395789
0.432285
0.63606
1.70726
0.344017
0.343964
0.344817
0.345851
0.347304
0.34889
0.350706
0.352637
0.35473
0.356943
0.359302
0.361795
0.364442
0.367242
0.370213
0.373365
0.344479
0.345625
0.347854
0.351514
0.356867
0.364284
0.374162
0.386849
0.402592
0.421482
0.443124
0.467083
0.491654
0.515725
0.541675
0.570323
0.594489
0.612292
0.62213
0.62264
0.611261
0.589538
0.562589
0.531763
0.498764
0.465768
0.435458
0.411005
0.39542
0.39005
0.395431
0.431807
0.639763
1.71922
0.344475
0.344005
0.343995
0.344878
0.345941
0.347399
0.348996
0.350808
0.352741
0.354827
0.357034
0.359384
0.361867
0.3645
0.367284
0.370239
0.373374
0.345626
0.347873
0.351576
0.357011
0.36458
0.374729
0.387876
0.40438
0.424461
0.447908
0.474497
0.50253
0.531085
0.561843
0.59564
0.624894
0.647521
0.661891
0.666896
0.66172
0.644083
0.616365
0.584246
0.548978
0.512218
0.476021
0.442951
0.416056
0.398275
0.39104
0.395175
0.431472
0.643475
1.73063
0.34563
0.344435
0.343979
0.344033
0.344942
0.346037
0.347497
0.349106
0.350914
0.352847
0.354926
0.357129
0.359468
0.361939
0.364556
0.367325
0.370263
0.373382
0.347889
0.351632
0.357141
0.36485
0.375248
0.388824
0.406042
0.427261
0.45247
0.481669
0.513257
0.546803
0.58403
0.62503
0.660519
0.688847
0.707961
0.716784
0.715018
0.70262
0.677635
0.643297
0.605714
0.565878
0.525333
0.485974
0.450208
0.42095
0.401062
0.39204
0.395031
0.431214
0.646872
1.74112
0.347911
0.34555
0.344347
0.343937
0.344085
0.345009
0.346138
0.3476
0.34922
0.351024
0.352957
0.355029
0.357225
0.359551
0.362009
0.364611
0.367365
0.370287
0.373391
0.351681
0.357259
0.365096
0.375723
0.389696
0.407582
0.429879
0.456794
0.488558
0.523786
0.562695
0.607138
0.658288
0.703652
0.739761
0.764859
0.777456
0.777723
0.76668
0.74525
0.711741
0.67017
0.626864
0.58238
0.538054
0.495588
0.457206
0.425673
0.403769
0.39304
0.39495
0.431061
0.650282
1.75116
0.351736
0.347764
0.345363
0.344253
0.343899
0.344148
0.34508
0.346245
0.347707
0.349337
0.351137
0.35307
0.355134
0.35732
0.359633
0.362077
0.364664
0.367403
0.370311
0.373399
0.357365
0.365319
0.376156
0.390497
0.409005
0.432319
0.460869
0.495134
0.53407
0.578604
0.630699
0.694175
0.755517
0.805636
0.839494
0.856772
0.857979
0.8455
0.822059
0.789531
0.746252
0.696847
0.647592
0.598416
0.550339
0.504838
0.463929
0.430213
0.406386
0.394035
0.394957
0.430955
0.653371
1.75919
0.357474
0.351507
0.347406
0.345167
0.344168
0.343868
0.34422
0.345156
0.346355
0.347818
0.349458
0.351254
0.353185
0.355238
0.357413
0.359712
0.362142
0.364715
0.367441
0.370333
0.373406
0.365521
0.37655
0.391229
0.410316
0.434586
0.464694
0.501382
0.544053
0.594329
0.654507
0.732883
0.815952
0.890662
0.941767
0.966041
0.967741
0.950841
0.920506
0.881153
0.835329
0.781021
0.723212
0.667815
0.613932
0.562157
0.513705
0.470364
0.434563
0.408908
0.395013
0.394985
0.430942
0.656053
1.76596
0.36572
0.357137
0.350915
0.347033
0.344988
0.344093
0.343846
0.344299
0.345238
0.346471
0.347934
0.349582
0.351374
0.353299
0.35534
0.357503
0.359789
0.362206
0.364765
0.367477
0.370355
0.373414
0.37691
0.391897
0.41152
0.436685
0.46827
0.507294
0.553674
0.609707
0.678585
0.775002
0.885592
0.993699
1.07685
1.11837
1.12176
1.09827
1.05586
1.0024
0.943656
0.882414
0.815889
0.749162
0.687469
0.628891
0.573488
0.522178
0.476507
0.438719
0.411329
0.395978
0.395041
0.430954
0.658248
1.77325
0.377253
0.365245
0.356214
0.3503
0.346685
0.344824
0.344028
0.343834
0.344383
0.345326
0.34659
0.348055
0.349709
0.351495
0.35341
0.35544
0.35759
0.359863
0.362268
0.364814
0.367512
0.370377
0.373421
0.392513
0.412625
0.438626
0.471605
0.512865
0.562885
0.62465
0.703085
0.820693
0.963642
1.11164
1.23706
1.31526
1.33322
1.30373
1.24584
1.17126
1.09009
1.00894
0.930445
0.850682
0.774605
0.706504
0.643266
0.584319
0.530254
0.482353
0.442678
0.413647
0.396923
0.395119
0.43098
0.660692
1.7812
0.393085
0.376606
0.363859
0.35526
0.349719
0.346361
0.344672
0.343973
0.343832
0.34447
0.345422
0.346712
0.348182
0.349835
0.351612
0.353518
0.355537
0.357675
0.359936
0.362329
0.364861
0.367547
0.370397
0.373425
0.413648
0.440417
0.474707
0.518095
0.571656
0.639136
0.728101
0.86942
1.04768
1.23924
1.41297
1.53967
1.5973
1.57836
1.50567
1.40602
1.29423
1.18194
1.07615
0.978998
0.885206
0.799453
0.724882
0.657041
0.594647
0.53793
0.487906
0.446442
0.415859
0.397721
0.395194
0.431045
0.66331
1.78982
0.41458
0.392231
0.374576
0.362434
0.354353
0.349169
0.346057
0.344532
0.343928
0.343843
0.34456
0.345528
0.346837
0.348309
0.349958
0.351727
0.353623
0.355631
0.357758
0.360007
0.362387
0.364908
0.36758
0.370408
0.373425
0.442083
0.477588
0.522991
0.579977
0.653171
0.753581
0.920141
1.13472
1.37091
1.59572
1.77739
1.88881
1.91161
1.84449
1.72058
1.57392
1.4216
1.27609
1.14429
1.0276
0.919262
0.823627
0.742573
0.670208
0.604472
0.545212
0.493168
0.450013
0.417689
0.398411
0.395296
0.43113
0.666257
1.79926
0.443577
0.413472
0.389311
0.372503
0.361077
0.353489
0.348643
0.345774
0.344404
0.343894
0.34387
0.34465
0.345642
0.346961
0.348434
0.350077
0.351839
0.353725
0.355723
0.357839
0.360076
0.362444
0.364952
0.367597
0.370408
0.373425
0.48028
0.527572
0.587856
0.666764
0.779336
0.971667
1.22208
1.5021
1.77822
2.01788
2.19087
2.27229
2.24789
2.1233
1.94214
1.74505
1.55043
1.37078
1.21239
1.07578
0.952653
0.847058
0.759557
0.682761
0.6138
0.552107
0.498145
0.452947
0.419248
0.399182
0.395419
0.43129
0.669406
1.80949
0.482655
0.442162
0.409326
0.386354
0.370527
0.359777
0.352657
0.348136
0.345511
0.344287
0.343865
0.343923
0.34474
0.34576
0.347083
0.348558
0.350194
0.351949
0.353825
0.355812
0.357917
0.360143
0.3625
0.364974
0.367597
0.370408
0.373425
0.531872
0.595321
0.679931
0.805112
1.02292
1.30774
1.62969
1.95566
2.25352
2.49196
2.64171
2.68004
2.59764
2.40797
2.16523
1.91575
1.67825
1.46446
1.27959
1.1231
0.985201
0.869682
0.775816
0.694707
0.62264
0.558625
0.502226
0.455439
0.420963
0.400042
0.395587
0.43147
0.672962
1.82071
0.535626
0.480878
0.436321
0.405165
0.383532
0.368627
0.358521
0.351855
0.34765
0.345265
0.344179
0.343826
0.343996
0.34483
0.34588
0.347202
0.348679
0.350308
0.352056
0.353921
0.355899
0.357993
0.360208
0.362527
0.364974
0.367597
0.370408
0.373425
0.602413
0.692694
0.830663
1.07303
1.39032
1.75174
2.12505
2.47933
2.78373
3.00699
3.12027
3.10364
2.95386
2.69306
2.38585
2.08321
1.80316
1.55589
1.34516
1.16919
1.01675
0.891446
0.791346
0.706051
0.631005
0.563966
0.505686
0.458169
0.422853
0.401008
0.395787
0.431753
0.676767
1.83285
0.608603
0.533391
0.472671
0.430517
0.401191
0.380814
0.366788
0.357306
0.351082
0.347188
0.345037
0.344084
0.343793
0.34408
0.34492
0.345999
0.347319
0.348797
0.350419
0.352159
0.354016
0.355983
0.358067
0.36024
0.362527
0.364974
0.367597
0.370408
0.373425
0.705054
0.855772
1.12139
1.46895
1.86713
2.28471
2.69231
3.06055
3.35837
3.55367
3.61815
3.53578
3.31067
2.97424
2.60101
2.2454
1.92375
1.64416
1.40853
1.21373
1.04715
0.912313
0.806144
0.716806
0.637866
0.568492
0.509469
0.461162
0.424937
0.402091
0.396053
0.43207
0.681088
1.84619
0.715936
0.605823
0.521764
0.46461
0.424972
0.397354
0.378174
0.365002
0.356131
0.350341
0.346753
0.344829
0.344
0.343772
0.344168
0.345011
0.346116
0.347434
0.348913
0.350527
0.352261
0.354107
0.356065
0.358103
0.36024
0.362527
0.364974
0.367597
0.370408
0.373421
0.880203
1.16758
1.54318
1.97528
2.43382
2.89086
3.31901
3.68895
3.96824
4.1235
4.12764
3.96992
3.66309
3.24812
2.80852
2.40089
2.0391
1.72863
1.46929
1.2565
1.07633
0.932254
0.820213
0.725642
0.643684
0.57344
0.513609
0.464447
0.427238
0.403313
0.396365
0.43253
0.685724
1.86057
0.712585
0.901696
0.588705
0.510568
0.456904
0.41961
0.393622
0.375607
0.363272
0.355
0.349635
0.346347
0.344641
0.34393
0.343765
0.344257
0.345105
0.346231
0.347547
0.349025
0.350633
0.352359
0.354197
0.356106
0.358103
0.36024
0.362527
0.364974
0.367597
0.370397
0.373414
1.21128
1.61279
2.07606
2.57209
3.07433
3.55734
3.99441
4.35507
4.60462
4.70835
4.64144
4.40017
4.00698
3.5121
3.00684
2.54877
2.14862
1.80891
1.52717
1.29735
1.1042
0.951254
0.831802
0.733144
0.650049
0.578855
0.518144
0.468056
0.429784
0.404685
0.396774
0.433044
0.69102
1.87637
0.685721
0.89886
1.2489
0.572737
0.499887
0.44944
0.414388
0.389988
0.373116
0.361601
0.353915
0.348964
0.345972
0.344475
0.343878
0.343771
0.344345
0.345201
0.346343
0.347659
0.349135
0.350736
0.352455
0.354241
0.356106
0.358103
0.36024
0.362527
0.364974
0.36758
0.370376
0.373406
1.67759
2.16951
2.69969
3.24272
3.77498
4.27259
4.70846
5.04987
5.25906
5.3003
5.15266
4.82129
4.3389
3.76423
3.19494
2.68851
2.252
1.88476
1.58202
1.33616
1.13073
0.966925
0.841656
0.741362
0.65702
0.584785
0.523116
0.472025
0.432603
0.40624
0.397249
0.433754
0.696722
1.89331
0.661118
0.855593
1.24696
1.73279
0.55773
0.489524
0.442164
0.409298
0.386457
0.370705
0.359993
0.352878
0.348336
0.345637
0.344334
0.34384
0.343791
0.34443
0.345299
0.346453
0.347769
0.349242
0.350837
0.352502
0.35424
0.356106
0.358103
0.36024
0.362527
0.364952
0.367546
0.370355
0.373398
2.25567
2.81699
3.39654
3.97229
4.52303
5.02562
5.45159
5.76464
5.92323
5.89156
5.65485
5.2287
4.65613
4.00315
3.37226
2.81987
2.34911
1.95612
1.63377
1.37289
1.15256
0.980259
0.852467
0.750373
0.664659
0.591284
0.528571
0.476393
0.435731
0.407992
0.397865
0.434549
0.703277
1.91195
0.638428
0.814926
1.18294
1.73277
2.3287
0.543283
0.479407
0.435073
0.404347
0.383036
0.36838
0.358451
0.351899
0.347764
0.345345
0.344215
0.343813
0.343829
0.344513
0.345399
0.34656
0.347877
0.349347
0.350887
0.352502
0.35424
0.356106
0.358103
0.36024
0.362499
0.364907
0.367511
0.370332
0.37339
2.92427
3.5366
4.15029
4.74657
5.30621
5.80605
6.21481
6.49094
6.58889
6.47466
6.14213
5.6186
4.95668
4.22806
3.53855
2.94283
2.44
2.02302
1.68241
1.40297
1.17111
0.994894
0.864339
0.760263
0.67304
0.598413
0.534562
0.481207
0.439203
0.409988
0.398576
0.435612
0.710357
1.93175
0.617049
0.776869
1.12006
1.65016
2.33179
3.01452
0.529238
0.469539
0.428177
0.399548
0.379733
0.366146
0.356989
0.351001
0.347253
0.345095
0.344113
0.343787
0.343884
0.344592
0.345499
0.346665
0.347985
0.349398
0.350887
0.352502
0.35424
0.356106
0.358103
0.360208
0.362443
0.36486
0.367476
0.37031
0.373382
3.66352
4.31044
4.94504
5.55172
6.11295
6.60446
6.98982
7.22058
7.2479
7.04244
6.60932
5.98797
5.23921
4.43853
3.6938
3.05754
2.52484
2.08556
1.722
1.42843
1.19144
1.01097
0.877386
0.771126
0.682242
0.606241
0.541147
0.486518
0.443068
0.412242
0.399492
0.43681
0.718565
1.95357
0.596684
0.741016
1.05861
1.56717
2.23263
3.02119
3.76895
0.515564
0.459942
0.421495
0.394912
0.376556
0.364024
0.355644
0.350195
0.346793
0.344879
0.344028
0.343761
0.343949
0.34467
0.345601
0.34677
0.348038
0.349396
0.350886
0.352502
0.35424
0.356106
0.358066
0.360142
0.362386
0.364812
0.367439
0.370286
0.373374
4.45382
5.12077
5.76508
6.37465
6.93313
7.41268
7.7689
7.94542
7.89224
7.58829
7.05211
6.33467
5.50294
4.63452
3.83826
3.16427
2.60383
2.13619
1.75537
1.4562
1.2137
1.02863
0.891735
0.78307
0.692356
0.614845
0.548393
0.492383
0.44737
0.414823
0.400546
0.438313
0.727448
1.97644
0.577208
0.707236
0.998426
1.48398
2.13208
2.90698
3.77833
4.57056
0.502277
0.450645
0.415042
0.390452
0.373536
0.362068
0.354432
0.34947
0.346386
0.344693
0.343957
0.343742
0.344019
0.344749
0.345707
0.346819
0.348036
0.349396
0.350886
0.352502
0.354241
0.356065
0.357991
0.360074
0.362327
0.364763
0.367402
0.370262
0.373365
5.27557
5.94988
6.5955
7.20412
7.75851
8.22381
8.54467
8.65726
8.51408
8.10637
7.46719
6.65733
5.74764
4.81627
3.97228
3.26335
2.66756
2.17873
1.7916
1.48647
1.23809
1.04804
0.907526
0.796215
0.703483
0.624312
0.556374
0.498867
0.452175
0.417746
0.401892
0.43987
0.737827
2.00605
0.558561
0.675548
0.939672
1.40027
2.0302
2.79091
3.64957
4.58012
5.39774
0.489408
0.441678
0.408839
0.386212
0.370751
0.360303
0.35334
0.348821
0.346027
0.344534
0.343898
0.343732
0.344094
0.344836
0.345759
0.346813
0.348036
0.349396
0.350887
0.352502
0.354196
0.355982
0.357915
0.360005
0.362266
0.364713
0.367363
0.370238
0.373356
6.10896
6.7808
7.4236
8.03147
8.58303
9.03172
9.30965
9.3477
9.10606
8.59184
7.85225
6.95532
5.97353
4.98426
4.09632
3.34307
2.72097
2.22477
1.83093
1.51946
1.26479
1.06937
0.924914
0.810691
0.715736
0.634738
0.565175
0.506045
0.457538
0.421109
0.403438
0.441841
0.751096
2.0412
0.540703
0.645987
0.882793
1.316
1.92654
2.67281
3.51924
4.43606
5.40304
6.22927
0.476994
0.433071
0.402944
0.382302
0.368235
0.35871
0.352358
0.348242
0.345713
0.344396
0.343851
0.343737
0.344183
0.344872
0.345755
0.346812
0.348036
0.349397
0.350887
0.352455
0.354106
0.355896
0.357836
0.359934
0.362204
0.364662
0.367324
0.370213
0.373347
6.93475
7.59907
8.23977
8.85123
9.40195
9.83055
10.0559
10.0082
9.66157
9.04103
8.20602
7.22876
6.18117
5.13908
4.1958
3.40975
2.77863
2.27455
1.87357
1.55538
1.29401
1.09282
0.944064
0.826646
0.729241
0.646233
0.574891
0.514001
0.463549
0.424931
0.405387
0.444373
0.768389
2.07617
0.523611
0.618531
0.828389
1.23148
1.82077
2.55217
3.38684
4.29167
5.24127
6.22438
7.04502
0.465078
0.424909
0.397512
0.378772
0.365965
0.357274
0.351476
0.347725
0.345435
0.344276
0.343821
0.343768
0.344225
0.344856
0.345756
0.346812
0.348036
0.349399
0.350837
0.352357
0.354013
0.355809
0.357755
0.359861
0.36214
0.364609
0.367283
0.370187
0.373337
7.73657
8.39367
9.0389
9.65972
10.2115
10.6142
10.7747
10.6306
10.175
9.45155
8.52827
7.47827
6.37134
5.26268
4.27882
3.48158
2.84081
2.32832
1.91975
1.59443
1.32596
1.11857
0.965157
0.844237
0.744138
0.658918
0.585628
0.52283
0.470279
0.42935
0.408059
0.448017
0.787639
2.11049
0.50728
0.593084
0.777107
1.14726
1.71281
2.42839
3.25187
4.14603
5.08172
6.04024
7.02278
7.82635
0.453781
0.417407
0.392612
0.375587
0.363916
0.355981
0.350683
0.347262
0.345188
0.344181
0.343824
0.343772
0.344214
0.344853
0.345756
0.346813
0.348038
0.349347
0.350734
0.352258
0.353918
0.355719
0.357672
0.359786
0.362074
0.364555
0.367241
0.37016
0.373328
8.50145
9.15987
9.81689
10.4542
11.0089
11.3747
11.4571
11.207
10.6423
9.82248
8.81963
7.70486
6.52214
5.36548
4.36801
3.55885
2.90779
2.38633
1.96969
1.63684
1.36084
1.14683
0.988382
0.863638
0.760581
0.672931
0.597506
0.532641
0.477853
0.435328
0.41192
0.452162
0.80862
2.14389
0.491827
0.569481
0.729554
1.06414
1.60282
2.30102
3.1135
3.99874
4.92285
5.86271
6.80922
7.77719
8.55874
0.443413
0.410656
0.388196
0.372714
0.362069
0.354816
0.34997
0.346846
0.344984
0.344137
0.343814
0.343741
0.344216
0.344853
0.345755
0.34682
0.347985
0.34924
0.35063
0.352156
0.353821
0.355627
0.357587
0.359709
0.362007
0.364499
0.367198
0.370133
0.373318
9.22172
9.88554
10.5623
11.2243
11.7866
12.1051
12.0928
11.7306
11.0611
10.1542
9.08136
7.88288
6.64692
5.47547
4.46365
3.64185
2.97983
2.44881
2.02362
1.68281
1.39887
1.1778
1.01393
0.88503
0.778734
0.688419
0.610668
0.543566
0.487937
0.443255
0.416359
0.457167
0.831899
2.176
0.477632
0.547698
0.686248
0.983089
1.49114
2.16984
2.97092
3.84881
4.7644
5.68925
6.60899
7.52612
8.46701
9.23687
0.434107
0.404585
0.384217
0.370126
0.360404
0.353765
0.349325
0.34649
0.34486
0.344099
0.343778
0.343739
0.344216
0.344856
0.34576
0.34677
0.347875
0.349132
0.350524
0.352052
0.353721
0.355533
0.3575
0.359631
0.361938
0.364442
0.367154
0.370107
0.373309
9.89437
10.579
11.2897
11.9756
12.537
12.7923
12.6718
12.1968
11.431
10.448
9.28444
8.02914
6.77961
5.59285
4.56601
3.73083
3.05715
2.51598
2.08174
1.73254
1.44022
1.21169
1.04201
0.908602
0.79877
0.705556
0.625261
0.557989
0.500852
0.452069
0.421667
0.462997
0.857233
2.20662
0.464869
0.528047
0.647309
0.905332
1.37837
2.03478
2.82344
3.69508
4.60528
5.51973
6.41812
7.29697
8.17073
9.07297
9.84502
0.425769
0.399126
0.380635
0.367793
0.3589
0.352812
0.348766
0.34624
0.344775
0.344049
0.343776
0.343739
0.344214
0.344872
0.345707
0.346663
0.347766
0.349022
0.350415
0.351945
0.353619
0.355437
0.357411
0.35955
0.361867
0.364384
0.367111
0.370081
0.373299
10.5135
11.2397
12.0043
12.7112
13.2543
13.4239
13.1857
12.603
11.7531
10.6724
9.44971
8.18337
6.92022
5.71776
4.67525
3.826
3.13997
2.58803
2.14421
1.78618
1.48509
1.24866
1.0728
0.934538
0.820881
0.7245
0.644459
0.576183
0.514881
0.461953
0.427774
0.469966
0.885362
2.23537
0.453423
0.510505
0.613802
0.833089
1.26544
1.89592
2.67043
3.53637
4.44403
5.35287
6.23635
7.08455
7.90567
8.72482
9.58941
10.3741
0.418303
0.394219
0.377411
0.365686
0.357537
0.351981
0.348356
0.346082
0.344706
0.344049
0.343777
0.343742
0.344225
0.344836
0.3456
0.346557
0.347655
0.348909
0.350304
0.351836
0.353515
0.355338
0.357319
0.359468
0.361795
0.364327
0.367069
0.370056
0.37329
11.0785
11.8725
12.7081
13.4331
13.9297
13.9869
13.6283
12.9497
11.9938
10.8527
9.622
8.34516
7.06858
5.8502
4.79151
3.92751
3.22846
2.66512
2.21118
1.84387
1.53359
1.28888
1.10646
0.963024
0.845218
0.74934
0.668474
0.595674
0.530139
0.472931
0.434984
0.478188
0.916005
2.26202
0.443183
0.49475
0.585529
0.769111
1.15453
1.75362
2.51135
3.37146
4.27903
5.18698
6.06213
6.88825
7.66676
8.41694
9.1752
10.0075
10.8229
0.41162
0.389811
0.374504
0.363778
0.356342
0.351354
0.348107
0.345983
0.344706
0.344049
0.343778
0.343772
0.344183
0.344748
0.345497
0.34645
0.347543
0.348793
0.35019
0.351724
0.353407
0.355237
0.357224
0.359384
0.361723
0.364271
0.367028
0.370032
0.373282
11.5942
12.4879
13.4043
14.1284
14.5476
14.4687
13.9972
13.2014
12.1839
11.0376
9.80024
8.51383
7.22431
5.99003
4.91478
4.03545
3.32272
2.74735
2.28274
1.90569
1.58582
1.33246
1.14315
0.994182
0.876965
0.78015
0.693936
0.616515
0.546678
0.485205
0.443303
0.487899
0.950002
2.28628
0.434045
0.480568
0.561399
0.714751
1.05021
1.60952
2.34585
3.1991
4.10848
5.02006
5.89344
6.70594
7.45287
8.14648
8.81602
9.51111
10.3137
11.189
0.405637
0.385843
0.371875
0.362102
0.355422
0.350983
0.347977
0.345983
0.344706
0.34405
0.343815
0.343769
0.344093
0.344668
0.345396
0.34634
0.34743
0.348675
0.350074
0.35161
0.353297
0.355134
0.357128
0.359301
0.361653
0.364217
0.366988
0.370008
0.373273
12.07
13.0999
14.093
14.7819
15.0836
14.8614
14.2549
13.3953
12.3746
11.2253
9.98299
8.68839
7.38679
6.13694
5.04493
4.14978
3.42276
2.83475
2.35891
1.97166
1.64182
1.37946
1.18291
1.03451
0.915898
0.812434
0.720791
0.638705
0.564602
0.498824
0.453017
0.499446
0.987137
2.30797
0.425903
0.46781
0.540522
0.669292
0.955742
1.46863
2.17504
3.01803
3.93034
4.84977
5.72794
6.53517
7.26095
7.91173
8.50904
9.09108
9.72111
10.4934
11.4696
0.40027
0.382264
0.369563
0.360792
0.354886
0.350812
0.347978
0.345983
0.344706
0.3441
0.343826
0.343738
0.344017
0.34459
0.345296
0.346227
0.347315
0.348554
0.349955
0.351493
0.353184
0.355029
0.357033
0.35922
0.361586
0.364165
0.366949
0.369985
0.373265
12.5228
13.7183
14.772
15.3836
15.5109
15.1208
14.4461
13.5835
12.5627