/*--------------------------------*- C++ -*----------------------------------*\
  =========                 |
  \\      /  F ield         | OpenFOAM: The Open Source CFD Toolbox
   \\    /   O peration     | Website:  https://openfoam.org
    \\  /    A nd           | Version:  8
     \\/     M anipulation  |
\*---------------------------------------------------------------------------*/
FoamFile
{
    version     2.0;
    format      ascii;
    class       volScalarField;
    location    "0.1";
    object      p;
}
// * * * * * * * * * * * * * * * * * * * * * * * * * * * * * * * * * * * * * //

dimensions      [0 2 -2 0 0 0 0];

internalField   nonuniform List<scalar> 
15677
(
79.6948
79.2888
78.9533
79.4431
78.952
78.8898
79.3629
78.971
78.8994
78.8262
79.3434
78.9711
78.8999
78.8349
78.7313
79.3252
78.9742
78.9004
78.8342
78.7389
78.6329
79.3023
78.9771
78.9006
78.8347
78.7389
78.6396
78.5229
79.2776
78.9788
78.9003
78.8349
78.7397
78.6397
78.5287
78.3906
79.2518
78.9799
78.8997
78.8346
78.7403
78.6404
78.5289
78.3957
78.2295
79.225
78.9805
78.8986
78.834
78.7408
78.6412
78.5296
78.396
78.2339
78.0333
79.1971
78.981
78.8972
78.833
78.7412
78.6418
78.5304
78.3969
78.2344
78.037
77.7944
79.1681
78.9809
78.8956
78.8321
78.7417
78.6425
78.5313
78.3978
78.2354
78.0376
77.7974
77.505
79.1381
78.9799
78.8941
78.8313
78.7425
78.6434
78.5322
78.3989
78.2366
78.0388
77.7981
77.5072
77.157
79.1071
78.978
78.8927
78.8307
78.7435
78.6447
78.5336
78.4003
78.238
78.0403
77.7996
77.5081
77.1585
76.7428
79.0787
78.9755
78.8918
78.8305
78.7451
78.6467
78.5356
78.4024
78.2401
78.0423
77.8015
77.5099
77.1594
76.7433
76.2547
79.0543
78.9725
78.8915
78.8306
78.7476
78.6498
78.5387
78.4054
78.243
78.045
77.8041
77.5123
77.1617
76.7446
76.2543
75.686
79.0334
78.9695
78.892
78.8314
78.7513
78.6543
78.5433
78.4099
78.2473
78.049
77.8077
77.5156
77.1646
76.7471
76.2557
75.6844
75.0304
79.0159
78.9661
78.8929
78.833
78.7563
78.6608
78.55
78.4166
78.2537
78.0549
77.813
77.5204
77.1689
76.7508
76.2587
75.6861
75.0276
74.2832
79.0013
78.962
78.894
78.8352
78.7624
78.6696
78.5595
78.4263
78.263
78.0635
77.8209
77.5274
77.1751
76.7562
76.2632
75.6895
75.0295
74.279
73.4405
78.989
78.9577
78.8952
78.8381
78.7691
78.6804
78.5726
78.44
78.2765
78.0763
77.8325
77.5376
77.184
76.7639
76.2699
75.695
75.0335
74.2811
73.4349
72.5006
78.9786
78.9534
78.8964
78.8415
78.7764
78.6921
78.5886
78.4587
78.2954
78.0945
77.8493
77.5527
77.1972
76.7752
76.2794
75.703
75.0399
74.2856
73.4372
72.4934
71.463
78.9703
78.9494
78.8978
78.8455
78.7844
78.7049
78.606
78.4814
78.3213
78.12
77.8734
77.5746
77.2165
76.7918
76.2934
75.7147
75.0495
74.2931
73.4423
72.4959
71.4541
70.3294
78.9639
78.946
78.8992
78.85
78.793
78.7186
78.625
78.5061
78.3527
78.1549
77.9071
77.6059
77.2444
76.816
76.3138
75.7316
75.0633
74.3042
73.4507
72.5015
71.4568
70.3186
69.1033
78.9589
78.9432
78.9007
78.8549
78.8021
78.7331
78.6454
78.5332
78.387
78.1973
77.9532
77.6496
77.2843
76.851
76.3437
75.7563
75.0835
74.3204
73.4635
72.5109
71.4628
70.3214
69.0906
67.7908
78.955
78.941
78.9021
78.8599
78.8116
78.7483
78.6671
78.5623
78.4245
78.2436
78.0094
77.7094
77.34
76.901
76.3869
75.7925
75.1129
74.344
73.4821
72.5253
71.4731
70.3277
69.0934
67.7761
66.4042
78.9518
78.9393
78.9033
78.8646
78.821
78.764
78.6897
78.5931
78.4648
78.2944
78.0707
77.7824
77.4164
76.9708
76.4484
75.8448
75.156
74.3784
73.5091
72.5462
71.4889
70.3389
69.0999
67.7787
66.3859
64.9719
78.9493
78.938
78.9045
78.8689
78.8297
78.7793
78.7132
78.6254
78.5076
78.349
78.138
77.8622
77.5095
77.0666
76.5345
75.9194
75.2183
74.4288
73.5486
72.5765
71.5119
70.3558
69.1115
67.7848
66.386
64.9129
63.4385
78.9473
78.9369
78.9057
78.8728
78.8377
78.7935
78.7362
78.6589
78.5523
78.4069
78.2104
77.9497
77.6116
77.1837
76.6528
76.0239
75.3073
74.5018
73.6065
72.621
71.5454
70.3806
69.1292
67.7962
66.3906
64.9187
63.3704
61.789
78.9456
78.936
78.9067
78.8764
78.8448
78.8062
78.7573
78.6916
78.5987
78.4675
78.2873
78.0442
77.7237
77.3121
76.7976
76.1676
75.432
74.6061
73.6906
72.6864
71.5946
70.4166
69.155
67.8139
66.4002
64.9203
63.3757
61.7639
60.0917
78.9442
78.9354
78.9076
78.8796
78.8512
78.8177
78.7763
78.7217
78.6441
78.5303
78.3679
78.1445
77.8448
77.4534
76.9567
76.3439
75.6041
74.7528
73.8112
72.7818
71.6672
70.47
69.1929
67.8399
66.4162
64.9267
63.3699
61.7534
60.0832
58.3607
78.943
78.9348
78.9083
78.8825
78.857
78.8279
78.7933
78.7488
78.6857
78.5919
78.4515
78.2499
77.9737
77.6063
77.1321
76.538
75.8155
74.9556
73.9811
72.9188
71.7735
70.5491
69.2494
67.8785
66.4408
64.9399
63.3741
61.7438
60.067
58.3559
56.4131
78.9421
78.9344
78.9089
78.8852
78.8621
78.837
78.8086
78.7731
78.7234
78.6485
78.5335
78.3592
78.1091
77.7692
77.3221
76.7525
76.0489
75.2056
74.2166
73.1126
71.9268
70.6655
69.3339
67.9368
66.4783
64.9618
63.3858
61.7488
60.0579
58.3376
56.4115
54.2316
78.9412
78.934
78.9095
78.8876
78.8667
78.8451
78.8222
78.7949
78.7571
78.6996
78.6089
78.4666
78.2498
77.9406
77.525
76.9854
76.3074
75.4822
74.5078
73.3821
72.1445
70.8344
69.4592
68.025
66.5366
64.997
63.4056
61.7602
60.0639
58.3298
56.3944
54.232
52.049
78.9406
78.9337
78.91
78.8898
78.8707
78.8523
78.8342
78.8142
78.7873
78.7455
78.6771
78.5654
78.3882
78.1191
77.739
77.2345
76.5887
75.7893
74.831
73.7166
72.4484
71.0752
69.6421
68.1573
66.6267
65.0538
63.4386
61.7788
60.0754
58.3353
56.3867
54.2164
52.0507
49.8907
78.94
78.9334
78.9104
78.8917
78.8743
78.8587
78.8449
78.8314
78.8142
78.7865
78.7383
78.6548
78.5158
78.295
77.9622
77.4979
76.8904
76.1245
75.1909
74.0889
72.8272
71.413
69.9047
68.3524
66.764
65.1441
63.4935
61.8102
60.0935
58.3462
56.3896
54.2085
52.0367
49.8924
47.7765
78.9332
78.9393
78.9109
78.8933
78.8775
78.8644
78.8544
78.8467
78.8381
78.8231
78.7931
78.7352
78.6313
78.4572
78.1825
77.7731
77.2101
76.4849
75.5848
74.505
73.2503
71.836
70.2749
68.6343
66.9686
65.2841
63.583
61.8633
60.1235
58.3633
56.3985
54.2087
52.0284
49.8794
47.7778
45.7194
78.9113
78.9329
78.9385
78.8948
78.8803
78.8694
78.8628
78.8602
78.8593
78.8556
78.8419
78.8072
78.7353
78.6045
78.3861
78.0454
77.5451
76.868
76.0099
74.962
73.725
72.3106
70.7409
69.0345
67.267
65.4957
63.7241
61.9512
60.1745
58.3913
56.4132
54.2146
52.0257
49.8701
47.7655
45.7203
43.7289
78.8961
78.912
78.9327
78.9378
78.8828
78.8739
78.8703
78.8722
78.8781
78.8844
78.8853
78.8713
78.8285
78.7371
78.5712
78.2977
77.8774
77.2705
76.4629
75.4567
74.2482
72.8451
71.2662
69.5411
67.6937
65.8073
63.9401
62.0919
60.2598
58.439
56.4373
54.2248
52.0279
49.8642
47.7548
45.7083
43.7292
41.8127
78.885
78.8978
78.9129
78.9324
78.9371
78.8778
78.8769
78.8828
78.8947
78.91
78.9239
78.9285
78.9117
78.8561
78.7382
78.5274
78.1861
77.6711
76.9406
75.9859
74.8168
73.4366
71.8603
70.1149
68.2373
66.2563
64.2613
62.3097
60.3982
58.5201
56.4795
54.2425
52.0327
49.862
47.7454
45.696
43.7173
41.8123
39.9769
78.8812
78.8879
78.8999
78.9138
78.9322
78.9364
78.8827
78.8923
78.9095
78.9327
78.9581
78.9792
78.9857
78.9624
78.8882
78.7351
78.4677
78.0442
77.4176
76.5459
75.4274
74.082
72.5206
70.767
68.8562
66.8322
64.7276
62.6366
60.6147
58.6537
56.5535
54.2759
52.0423
49.8601
47.738
45.6829
43.7032
41.8004
39.9758
38.2256
78.8878
78.8857
78.8912
78.9019
78.9147
78.932
78.9358
78.9006
78.9226
78.9528
78.9884
79.0243
79.0516
79.0572
79.0224
78.9218
78.7229
78.3854
77.8633
77.1073
76.0762
74.7779
73.2442
71.495
69.563
67.4914
65.3301
63.1149
60.9428
58.8655
56.6786
54.3386
52.0647
49.8603
47.7286
45.6697
43.6863
41.7844
39.9636
38.2237
36.561
78.9077
78.8942
78.8906
78.8945
78.9039
78.9156
78.9318
78.9352
78.9342
78.9706
79.0153
79.0642
79.1101
79.1415
79.1421
79.0892
78.9528
78.6953
78.2722
77.6337
76.7292
75.5207
74.028
72.2965
70.3559
68.248
66.0235
63.7371
61.427
59.19
56.881
54.4499
52.1131
49.8699
47.7182
45.6521
43.6671
41.7635
39.9457
38.2113
36.5585
34.9839
78.9441
78.9168
78.9011
78.8955
78.8978
78.9059
78.9165
78.9316
78.9347
78.9864
79.0393
79.0997
79.162
79.2164
79.2487
79.2386
79.1591
78.9751
78.6444
78.1181
77.3439
76.2717
74.8685
73.1688
71.233
69.1008
66.8232
64.4571
62.0612
59.6734
57.1961
54.636
52.2063
49.9014
47.7133
45.6301
43.6407
41.7382
39.9209
38.1914
36.5458
34.9807
33.494
78.9999
78.9565
78.9261
78.9079
78.9003
78.901
78.9078
78.9174
78.9314
78.9342
79.0604
79.1313
79.2081
79.283
79.3436
79.3719
79.3436
79.2267
78.9813
78.5604
77.9117
76.9817
75.7226
74.1091
72.1926
70.0493
67.7295
65.292
62.7993
60.3109
57.6707
54.9328
52.3706
49.9731
47.7256
45.6094
43.6065
41.7029
39.8895
38.1628
36.5238
34.9677
33.4902
32.0898
79.0784
79.0166
78.9688
78.9353
78.9146
78.9049
78.9041
78.9096
78.9183
78.9313
78.9338
79.1592
79.2491
79.3421
79.4279
79.4906
79.5084
79.4521
79.2849
78.9618
78.4318
77.64
76.5337
75.0696
73.2324
71.0925
68.7429
66.2433
63.6598
61.0573
58.3022
55.3865
52.6412
50.1109
47.7731
45.601
43.5692
41.6561
39.8451
38.1253
36.4915
34.9438
33.4769
32.0855
30.7693
79.1829
79.1005
79.0326
78.9808
78.9442
78.9211
78.9094
78.907
78.9114
78.9192
78.9311
78.9334
79.2854
79.3948
79.5029
79.5962
79.6553
79.6537
79.5574
79.3244
78.9052
78.2453
77.2891
75.9863
74.3005
72.2293
69.8637
67.313
64.6459
61.9328
59.047
55.9972
53.0627
50.3482
47.8803
45.622
43.539
41.6017
39.7857
38.0719
36.4481
34.9079
33.4511
32.0719
30.7645
29.5297
79.3161
79.2118
79.1211
79.0482
78.9926
78.9528
78.9273
78.9138
78.9099
78.9132
78.92
78.931
78.933
79.4414
79.5697
79.6902
79.7861
79.8337
79.8016
79.6506
79.3339
78.798
77.9862
76.8438
75.3253
73.4041
71.0925
68.5031
65.7613
62.9421
59.9267
56.7242
53.6381
50.7272
48.0781
45.6953
43.532
41.5491
39.714
37.9999
36.3859
34.8588
33.4118
32.0442
30.7506
29.5245
28.368
79.4808
79.3536
79.238
79.1411
79.0634
79.0039
78.9611
78.9332
78.9179
78.9127
78.9148
78.9209
78.9309
78.9327
79.6287
79.774
79.9027
79.9941
80.0198
79.9434
79.7206
79.3
78.625
77.6386
76.2887
74.5375
72.3701
69.8158
67.0099
64.0906
60.9475
57.59
54.3305
51.2539
48.4059
45.8487
43.5688
41.5132
39.639
37.9113
36.3016
34.7882
33.3572
32.0018
30.7212
29.5103
28.3624
27.2807
79.6786
79.5288
79.3866
79.2633
79.1606
79.0779
79.0146
78.9689
78.9389
78.9219
78.9152
78.9164
78.9216
78.9308
78.9325
79.848
80.0067
80.1372
80.2147
80.2056
80.0685
79.7541
79.2072
78.3696
77.1855
75.6084
73.61
71.1897
68.3959
65.3843
62.1172
58.6026
55.1625
51.8961
48.8723
46.1178
43.674
41.5119
39.5739
37.814
36.1963
34.6919
33.2784
31.9419
30.6757
29.4793
28.348
27.2747
26.2643
79.9104
79.7397
79.5702
79.4186
79.288
79.179
79.0916
79.0246
78.9763
78.9442
78.9256
78.9177
78.9178
78.9223
78.9308
78.9322
80.0986
80.265
80.3888
80.4401
80.3805
80.1634
79.7352
79.0381
78.0139
76.6101
74.7879
72.5313
69.8567
66.8303
63.4444
59.7721
56.1437
52.6751
49.4499
46.514
43.8787
41.5662
39.5334
37.7196
36.0773
34.5705
33.1706
31.8553
30.6109
29.4311
28.3154
27.2601
26.2578
25.315
80.1759
79.9875
79.7912
79.6102
79.4495
79.3112
79.1963
79.1044
79.034
78.9831
78.9491
78.929
78.9199
78.9192
78.923
78.9307
78.9321
80.3779
80.5444
80.6499
80.6601
80.5315
80.2125
79.6464
78.7741
77.5392
75.8951
73.8132
71.2924
68.3649
64.9391
61.1103
57.2864
53.6018
50.1579
47.0141
44.1963
41.7024
39.5352
37.6399
35.9541
34.4305
33.0339
31.7367
30.517
29.3616
28.2646
27.226
26.243
25.3082
24.4293
80.4727
80.2725
80.0513
79.841
79.6488
79.4786
79.3328
79.2123
79.1162
79.0427
78.9895
78.9537
78.9322
78.9219
78.9203
78.9236
78.9307
78.9319
80.6816
80.8376
80.9107
80.8619
80.6427
80.1978
79.4682
78.3952
76.9268
75.0244
72.6724
69.8835
66.5386
62.6314
58.6059
54.6904
51.0076
47.6343
44.6078
41.9347
39.6002
37.5884
35.8354
34.2792
32.8738
31.5854
30.3881
29.2607
28.1908
27.1729
26.2076
25.2932
24.422
23.6034
80.7968
80.5929
80.3512
80.1131
79.889
79.6849
79.5054
79.3527
79.2269
79.127
79.0506
78.9952
78.9578
78.9349
78.9237
78.9213
78.9241
78.9307
78.9318
81.003
81.1352
81.1586
81.0298
80.696
80.0992
79.1795
77.8811
76.1582
73.9832
71.352
68.1342
64.2755
60.1192
55.9576
52.0131
48.3846
45.1248
42.2483
39.7424
37.5807
35.7309
34.1223
32.6954
31.4061
30.2231
29.1221
28.0835
27.095
26.1523
25.2565
24.4068
23.5953
22.8348
81.1415
80.9455
80.6899
80.4276
80.1725
79.9336
79.718
79.5298
79.3707
79.2401
79.1366
79.0577
79.0003
78.9613
78.9373
78.9252
78.9222
78.9245
78.9306
78.9317
81.3327
81.4248
81.3781
81.1453
80.6709
79.8948
78.7588
77.2115
75.2162
72.755
69.6892
65.9311
61.7691
57.4209
53.1902
49.2772
45.7545
42.6486
39.9506
37.6297
35.6502
33.9657
32.5015
31.2018
30.0257
28.9444
27.9358
26.9817
26.0707
25.1994
24.369
23.5799
22.8237
22.2009
81.4979
81.3247
81.0647
80.7841
80.5009
80.2275
79.9743
79.748
79.5518
79.3867
79.2518
79.1451
79.0638
79.0046
78.9642
78.9393
78.9264
78.9229
78.9249
78.9306
78.9317
81.6584
81.691
81.5508
81.1878
80.5446
79.5618
78.1837
76.3666
74.0815
71.1848
67.556
63.4408
59.0254
54.5554
50.3256
46.506
43.1394
40.2238
37.7276
35.6043
33.8127
32.2941
30.9723
29.7967
28.7299
27.7461
26.8257
25.9518
25.1143
24.3102
23.5413
22.8091
22.196
21.6676
81.8536
81.7222
81.4707
81.1807
80.8744
80.5685
80.2774
80.0109
79.7746
79.5711
79.4007
79.2619
79.1523
79.0688
79.0081
78.9666
78.941
78.9275
78.9235
78.9253
78.9306
78.9316
81.9648
81.9153
81.6555
81.1339
80.2935
79.0763
77.4327
75.325
72.6062
69.1253
65.0874
60.6596
56.0621
51.5479
47.3925
43.7272
40.5618
37.8663
35.5892
33.6718
32.0701
30.7161
29.5333
28.4775
27.5157
26.6248
25.788
24.9902
24.2219
23.4811
22.7699
22.1856
21.6705
21.1073
82.1933
82.1271
81.9008
81.6135
81.2918
80.9574
80.6296
80.322
80.0432
79.7978
79.5877
79.4125
79.2702
79.1581
79.0728
79.0108
78.9686
78.9423
78.9283
78.924
78.9256
78.9306
78.9316
82.2333
82.0766
81.6686
80.959
79.892
78.4148
76.4818
73.9432
70.6202
66.6834
62.2817
57.6155
52.9164
48.4379
44.4268
40.9698
38.0427
35.5898
33.5433
31.8359
30.4232
29.2303
28.182
27.2413
26.3795
25.5769
24.8193
24.0932
23.39
22.7086
22.146
21.6618
21.1075
20.5052
82.4982
82.5252
82.3452
82.0763
81.7499
81.3937
81.0322
80.6839
80.361
80.0709
79.8174
79.6014
79.4219
79.2765
79.1623
79.0757
79.0129
78.97
78.9434
78.929
78.9245
78.9258
78.9307
78.9316
82.4423
82.1507
81.5647
80.636
79.3152
77.5507
75.1894
72.0291
68.2128
63.8751
59.1884
54.3617
49.6386
45.27
41.465
38.2608
35.6005
33.4053
31.5955
30.0982
28.8712
27.8346
26.9155
26.0845
25.3176
24.5986
23.9156
23.2569
22.6149
22.0844
21.6225
21.0959
20.5005
19.8492
82.7463
82.8993
82.7909
82.5604
82.2438
81.8749
81.4851
81.0982
80.731
80.3942
80.094
79.8331
79.612
79.4288
79.281
79.1653
79.0778
79.0144
78.9711
78.9442
78.9295
78.9248
78.926
78.9307
78.9316
82.5671
82.1114
81.3156
80.1389
78.533
76.3425
73.3463
69.6677
65.4296
60.7725
55.8707
50.9525
46.2772
42.086
38.5397
35.6234
33.2498
31.3211
29.7492
28.4591
27.4123
26.5262
25.7303
25.0035
24.3264
23.6861
23.0732
22.4779
21.9885
21.5603
21.0563
20.4853
19.8421
19.1359
82.9119
83.2288
83.2219
83.0545
82.7659
82.397
81.9868
81.5657
81.1554
80.7708
80.4213
80.1121
79.8449
79.6192
79.4332
79.2837
79.1671
79.079
79.0153
78.9719
78.9448
78.9299
78.9251
78.9262
78.9307
78.9316
82.5803
81.9297
80.8937
79.4339
77.4032
74.5703
71.0438
66.9369
62.3565
57.4365
52.3759
47.4318
42.8737
38.9217
35.6783
33.0764
31.0019
29.3426
28.0059
26.9174
26.0441
25.3015
24.6227
23.9944
23.4019
22.8356
22.2885
21.8482
21.4625
20.9931
20.4445
19.8251
19.1278
18.3631
82.9666
83.49
83.619
83.5439
83.3061
82.9537
82.5342
82.0853
81.6351
81.2032
80.8029
80.4422
80.125
79.8524
79.6233
79.4354
79.285
79.1679
79.0796
79.0158
78.9723
78.9451
78.9302
78.9253
78.9263
78.9307
78.9316
82.4517
81.5763
80.2625
78.378
75.7025
72.3381
68.3877
63.9244
59.0412
53.8996
48.7364
43.8353
39.464
35.808
32.9037
30.6345
28.8646
27.4726
26.3653
25.471
24.7632
24.1569
23.5889
23.0532
22.5402
22.0434
21.6543
21.3196
20.8932
20.3795
19.783
19.1103
18.3545
17.5274
82.8784
83.6564
83.9596
84.0112
83.8515
83.5362
83.1219
82.6547
82.1698
81.6928
81.2413
80.827
80.4564
80.1326
79.8559
79.6247
79.4357
79.2849
79.1677
79.0795
79.0158
78.9723
78.9453
78.9305
78.9255
78.9264
78.9307
78.9317
82.1491
81.0119
79.2772
76.7503
73.5492
69.772
65.4578
60.6602
55.5002
50.1815
44.98
40.1964
36.0809
32.7715
30.2341
28.308
26.8424
25.712
24.8258
24.117
23.5659
23.0886
22.6247
22.1762
21.7377
21.4032
21.122
20.7474
20.2772
19.7158
19.0672
18.3368
17.5183
16.6237
82.6114
83.699
84.2182
84.4354
84.386
84.133
83.7424
83.2697
82.7581
82.2399
81.7384
81.2694
80.8428
80.4639
80.1352
79.856
79.6237
79.4344
79.2837
79.1668
79.0789
79.0153
78.9722
78.9456
78.9308
78.9257
78.9264
78.9308
78.9317
81.63
80.0888
77.7253
74.6821
71.0816
66.9384
62.2666
57.1466
51.7413
46.3009
41.1354
36.5478
32.7544
29.8345
27.6834
26.1038
24.9375
24.0597
23.3846
22.8516
22.4486
22.0924
21.7264
21.3594
21.0892
20.8658
20.5458
20.1282
19.6108
18.9978
18.2926
17.5001
16.6143
15.6469
82.1181
83.5863
84.3661
84.7924
84.8907
84.7298
84.3858
83.924
83.3965
82.8436
82.2949
81.7715
81.2871
80.8501
80.4653
80.1335
79.853
79.6205
79.4316
79.2815
79.1651
79.0776
79.0146
78.9725
78.9462
78.9311
78.9257
78.9264
78.9309
78.9318
80.7421
78.6088
75.7474
72.3173
68.3513
63.8348
58.8058
53.3821
47.7747
42.2805
37.2339
32.9225
29.5115
27.0148
25.261
24.0257
23.1496
22.5133
22.0383
21.6712
21.407
21.1643
20.8898
20.6994
20.5449
20.2842
19.9222
19.4582
18.89
18.2211
17.4548
16.5956
15.6374
14.592
83.2765
81.2447
84.371
85.0554
85.3432
85.3093
85.0393
84.6088
84.0799
83.5014
82.9106
82.3346
81.7918
81.2943
80.8499
80.4613
80.128
79.8475
79.6156
79.4276
79.2783
79.1626
79.076
79.0149
78.9733
78.9465
78.9311
78.9257
78.9264
78.9309
78.9319
79.3029
76.7179
73.4876
69.6934
65.344
60.4459
55.0668
49.3686
43.6157
38.1485
33.3103
29.3528
26.376
24.3262
22.973
22.0745
21.4767
21.0694
20.7828
20.5712
20.4368
20.3002
20.214
20.1455
19.9558
19.6547
19.2474
18.7334
18.1103
17.3813
16.5491
15.6182
14.5824
13.4537
84.1937
82.6255
79.8141
85.193
85.7185
85.8511
85.6874
85.3132
84.801
84.2092
83.5838
82.9588
82.3584
81.7992
81.2922
80.843
80.4527
80.1194
79.8397
79.6091
79.4223
79.274
79.1597
79.076
79.016
78.9738
78.9466
78.931
78.9256
78.9263
78.931
78.932
77.4675
74.557
70.9724
66.7877
62.0403
56.7583
51.0443
45.1132
39.2863
33.9384
29.4011
25.8693
23.3678
21.7785
20.8221
20.2489
19.9156
19.7239
19.6137
19.5472
19.5339
19.6023
19.6469
19.546
19.3183
18.9737
18.5175
17.9496
17.2673
16.4735
15.5706
14.5627
13.444
12.2268
85.168
83.7122
81.4873
78.0021
85.9871
86.3318
86.3116
86.0234
85.5501
84.9609
84.3111
83.643
82.9874
82.3663
81.795
81.282
80.8305
80.4401
80.108
79.83
79.601
79.4156
79.2693
79.1593
79.0775
79.0166
78.9739
78.9464
78.9307
78.9254
78.9262
78.931
78.9322
75.3726
72.1451
68.1727
63.5784
58.4237
52.7611
46.7376
40.63
34.816
29.689
25.5438
22.4997
20.5028
19.3778
18.8084
18.5458
18.462
18.472
18.5261
18.5949
18.8051
19.0167
19.0333
18.8975
18.6287
18.2371
17.7282
17.1022
16.3563
15.4928
14.5141
13.4239
12.2171
10.9061
86.1147
84.8764
82.7609
79.9854
75.9417
86.7243
86.8904
86.7227
86.3154
85.7484
85.0877
84.3849
83.6785
82.9967
82.3602
81.7811
81.265
80.8133
80.4243
80.0943
79.8184
79.5912
79.4084
79.2683
79.1613
79.0784
79.0167
78.9735
78.9459
78.9305
78.9252
78.926
78.9311
78.9323
73.0312
69.4476
65.0661
60.0479
54.4796
48.4462
42.1509
35.9401
30.2412
25.4422
21.7747
19.2683
17.7926
17.1265
16.9296
16.9611
17.1108
17.3086
17.5156
17.8267
18.1937
18.3833
18.3695
18.196
17.8828
17.4406
16.875
16.1864
15.3721
14.434
13.3742
12.1964
10.8963
9.48658
86.9977
86.0178
84.1544
81.4536
78.2277
73.6424
87.3987
87.3915
87.0819
86.5613
85.9068
85.1806
84.4299
83.6903
82.9889
82.3421
81.7587
81.2421
80.792
80.4056
80.0783
79.8046
79.5808
79.4066
79.271
79.1625
79.0785
79.0162
78.9729
78.9457
78.9303
78.9249
78.9258
78.9312
78.9325
70.4024
66.4425
61.6351
56.1797
50.1948
43.8089
37.2946
31.0729
25.6047
21.2422
18.1278
16.1945
15.2443
15.0245
15.182
15.4894
15.8566
16.2286
16.7011
17.1828
17.5326
17.6983
17.6517
17.4374
17.0764
16.5796
15.9531
15.1973
14.3098
13.2919
12.1457
10.8751
9.47702
7.96352
87.8095
87.0909
85.5349
83.0869
79.8964
76.2396
71.0571
88.0072
87.8321
87.3866
86.7595
86.0243
85.2385
84.4461
83.6814
82.9665
82.3138
81.7293
81.2144
80.7674
80.3842
80.0595
79.7902
79.578
79.4102
79.2726
79.1626
79.0778
79.0152
78.9727
78.9456
78.93
78.9246
78.9255
78.9312
78.9327
67.4646
63.1139
57.8635
51.9575
45.5567
38.8476
32.1863
26.0661
20.9549
17.1329
14.6326
13.2924
12.8613
13.0693
13.5603
14.1248
14.6937
15.3593
16.0189
16.4867
16.818
16.9577
16.8756
16.6174
16.2049
15.6496
14.9576
14.1299
13.1641
12.0613
10.8236
9.45538
7.95448
6.33189
88.5458
88.0864
86.8429
84.7188
81.774
78.1362
73.9779
68.1628
88.5454
88.2087
87.6346
86.9088
86.0998
85.2617
84.4371
83.6548
82.9318
82.277
81.6941
81.1826
80.7394
80.3593
80.04
79.7859
79.5825
79.4122
79.2727
79.1616
79.0764
79.0152
78.9729
78.9454
78.9296
78.9241
78.9252
78.9313
78.933
64.2038
59.4474
53.7343
47.3632
40.5524
33.5642
26.8515
20.9666
16.3441
13.156
11.3134
10.5714
10.6437
11.256
12.0584
12.8613
13.7587
14.6318
15.2818
15.7347
16.0459
16.1574
16.0371
15.7314
15.2636
14.6454
13.8834
12.9788
11.9297
10.7369
9.40298
7.93292
6.32496
4.27773
89.2011
88.9986
88.0686
86.2748
83.6592
80.2811
76.1341
71.4209
64.9464
89.0092
88.5187
87.8246
87.0078
86.1334
85.2543
84.4067
83.6133
82.8868
82.2333
81.654
81.1469
80.7073
80.3337
80.0339
79.7918
79.5852
79.4123
79.2713
79.1597
79.0766
79.016
78.9729
78.9449
78.929
78.9236
78.9248
78.9315
78.9333
60.6077
55.4274
49.2269
42.3755
35.1678
27.9663
21.3274
15.83
11.8259
9.34833
8.18839
8.03619
8.58828
9.57862
10.6696
11.8468
12.9771
13.8464
14.4862
14.9229
15.2121
15.2931
15.1314
14.7748
14.2476
13.5621
12.7253
11.7389
10.6015
9.31413
7.87968
6.30394
4.26846
1.85255
89.77
89.8198
89.2067
87.7442
85.4648
82.4362
78.5761
73.865
68.5619
61.3972
89.3951
88.7599
87.9544
87.0563
86.13
85.2211
84.3584
83.5595
82.8334
82.1838
81.6093
81.1061
80.6742
80.3253
80.0413
79.7951
79.5853
79.4105
79.2688
79.1604
79.0783
79.0166
78.9727
78.9442
78.9283
78.923
78.9244
78.9316
78.9336
56.6621
51.0334
44.3152
36.9662
29.3884
22.0715
15.6637
10.7187
7.45246
5.74125
5.26993
5.6866
6.6895
8.03008
9.55617
10.9997
12.1342
12.9995
13.6282
14.047
14.3123
14.3601
14.1539
13.7427
13.1518
12.3946
11.4782
10.4052
9.1748
7.78852
6.25025
4.24404
1.84114
-0.588943
90.2482
90.5418
90.2483
89.1222
87.1788
84.5052
81.0258
76.6315
71.3235
65.3984
57.5023
89.7005
88.9298
88.0237
87.0602
86.0954
85.1662
84.2952
83.4956
82.7733
82.1287
81.5585
81.0643
80.6631
80.3346
80.0455
79.7952
79.5829
79.4072
79.27
79.1634
79.0798
79.0167
78.972
78.9432
78.9273
78.9222
78.9239
78.9317
78.934
52.347
46.2387
38.9625
31.1007
23.2064
15.9127
9.92445
5.69989
3.27179
2.35874
2.56358
3.51901
4.9402
6.79104
8.62789
10.0873
11.2264
12.0873
12.7036
13.1027
13.3419
13.3538
13.0998
12.6301
11.9713
11.1377
10.137
8.97281
7.64518
6.15689
4.18781
1.81451
-0.597654
-3.01574
90.6324
91.1576
91.1829
90.3991
88.7969
86.4753
83.3819
79.3968
74.4423
68.512
61.929
53.2434
89.9217
89.0273
88.0392
87.0264
86.0347
85.0934
84.2199
83.4236
82.7065
82.0664
81.5064
81.05
80.6746
80.3397
80.0457
79.7922
79.5786
79.4093
79.275
79.1662
79.0806
79.0163
78.9711
78.942
78.9262
78.9213
78.9233
78.9319
78.9344
47.6361
41.0049
33.1211
24.7467
16.629
9.54276
4.18642
0.841385
-0.674666
-0.783675
0.0695621
1.52675
3.5441
5.75988
7.62962
9.10607
10.25
11.1058
11.7082
12.0858
12.2965
12.2697
11.9642
11.432
10.701
9.78651
8.69712
7.43747
6.00951
4.0905
1.75512
-0.621741
-3.02261
-5.4111
90.9178
91.6615
92.0002
91.5633
90.3094
88.3418
85.6323
82.0587
77.5433
72.0145
65.4381
58.1499
48.5953
90.0566
89.0601
88.0093
86.9611
85.9524
85.006
84.135
83.3438
82.6312
82.0025
81.4883
81.0641
80.6809
80.3399
80.0418
79.7867
79.5819
79.4168
79.2795
79.1681
79.0808
79.0155
78.9697
78.9404
78.9248
78.9202
78.9227
78.9321
78.9349
42.4918
35.275
26.73
17.8695
9.67794
3.03684
-1.46268
-3.79175
-4.3553
-3.67823
-2.2168
-0.0582598
2.38519
4.65303
6.55796
8.0525
9.20108
10.0508
10.6379
10.9918
11.1715
11.1028
10.7424
10.1435
9.33608
8.33643
7.1542
5.79603
3.93774
1.65317
-0.680039
-3.04557
-5.41705
-7.76567
91.1011
92.047
92.6909
92.6032
91.7047
90.0946
87.7716
84.6076
80.5267
75.4732
69.3614
62.1119
54.0545
43.5256
90.1139
89.0383
87.9415
86.8698
85.8526
84.9072
84.0408
83.2538
82.5539
81.98
81.5054
81.0717
80.6811
80.3351
80.0347
79.7914
79.5926
79.4237
79.2829
79.1691
79.0804
79.0142
78.9679
78.9386
78.9232
78.919
78.922
78.9323
78.9354
36.8518
28.9643
19.7066
10.4344
2.39865
-3.50662
-6.93006
-8.14327
-7.74854
-6.32477
-4.02894
-1.36994
1.14436
3.46758
5.40976
6.92303
8.07595
8.91851
9.48852
9.8165
9.96262
9.84881
9.42964
8.76016
7.87214
6.78331
5.50519
3.71725
1.49413
-0.78305
-3.10289
-5.4401
-7.77077
-10.0679
91.1918
92.3081
93.2424
93.5069
92.9705
91.7213
89.7884
87.0389
83.3868
78.7938
73.2026
66.5009
58.5436
49.6353
37.9804
90.1058
88.971
87.8425
86.7576
85.7391
84.7974
83.9346
83.1614
82.5263
82.0007
81.5147
81.072
80.6752
80.3262
80.0414
79.8062
79.6027
79.4293
79.2854
79.1694
79.0793
79.0123
78.9657
78.9363
78.9213
78.9177
78.9213
78.9325
78.936
30.6256
21.9616
11.9578
2.43097
-5.12686
-9.96977
-12.1259
-12.1678
-10.844
-8.413
-5.5227
-2.76997
-0.18037
2.20116
4.18204
5.71434
6.87107
7.70525
8.25636
8.55595
8.66555
8.50333
8.02169
7.27774
6.30528
5.12421
3.41749
1.26595
-0.945344
-3.206
-5.49718
-7.79374
-10.0721
-12.3043
91.2042
92.4556
93.6415
94.2575
94.0934
93.2089
91.6689
89.3411
86.1207
81.9756
76.8774
70.7535
63.4526
54.7416
44.8735
31.8763
90.0429
88.866
87.7182
86.6289
85.6126
84.6735
83.8255
83.1281
82.5512
82.0117
81.5149
81.0647
80.6641
80.3352
80.0613
79.8204
79.611
79.4335
79.2868
79.1688
79.0774
79.0097
78.9629
78.9337
78.9191
78.9162
78.9205
78.9327
78.9366
23.6916
14.1214
3.39728
-6.10997
-12.7725
-16.2221
-16.9682
-15.8345
-13.2739
-10.1259
-7.11064
-4.25848
-1.58989
0.851837
2.8723
4.4236
5.58341
6.40779
6.93792
7.20653
7.27663
7.06257
6.51482
5.69275
4.6328
3.02478
0.957023
-1.17841
-3.36986
-5.60081
-7.85023
-10.0946
-12.3075
-14.4615
91.1509
92.5067
93.8967
94.8336
95.0529
94.5444
93.3978
91.5
88.719
85.0188
80.391
74.8018
68.1516
60.2359
50.7133
39.7337
25.0993
89.9347
88.7306
87.5741
86.4849
85.4696
84.5459
83.7859
83.1578
82.5642
82.012
81.5062
81.051
80.6759
80.3614
80.0805
79.8323
79.6178
79.4365
79.287
79.1672
79.0746
79.0064
78.9595
78.9307
78.9168
78.9146
78.9197
78.933
78.9372
15.8654
5.25527
-6.03194
-15.105
-20.369
-22.1285
-21.3874
-18.6956
-15.2544
-11.9371
-8.78981
-5.83386
-3.08432
-0.581535
1.47876
3.04867
4.2105
5.02337
5.5303
5.7652
5.79266
5.5234
4.90607
4.00292
2.51825
0.552988
-1.49352
-3.60548
-5.76604
-7.95399
-10.1499
-12.3293
-14.4636
-16.5267
91.0433
92.4771
94.0273
95.2387
95.8199
95.7048
94.9601
93.4993
91.1691
87.9173
83.748
78.6577
72.5955
65.4232
56.8714
46.4656
34.1705
17.4755
89.7899
88.5714
87.4119
86.3214
85.3219
84.4994
83.821
83.1732
82.5645
82.0015
81.4894
81.0662
80.7096
80.3868
80.0969
79.8423
79.623
79.4381
79.286
79.1645
79.0709
79.0023
78.9556
78.9273
78.9143
78.913
78.9189
78.9332
78.9379
6.86504
-4.87136
-16.3193
-24.4144
-27.7111
-27.5591
-24.8151
-21.0087
-17.3336
-13.8386
-10.5544
-7.49322
-4.66244
-2.0989
0.000720569
1.58826
2.7506
3.55002
4.03136
4.22969
4.21137
3.88363
3.19376
1.86901
0.032412
-1.90521
-3.92379
-6.00312
-8.11987
-10.2529
-12.383
-14.4846
-16.5278
-18.4884
90.8919
92.3806
94.0524
95.4916
96.3938
96.6553
96.3288
95.3212
93.4554
90.6619
86.9468
82.3317
76.8051
70.2888
62.5955
53.3829
42.0021
28.125
8.72991
89.6165
88.3908
87.227
86.1521
85.2678
84.5406
83.839
83.1735
82.552
81.9812
81.5085
81.1089
80.7424
80.4086
80.1109
79.8503
79.6263
79.438
79.2834
79.1604
79.0661
78.9974
78.9511
78.9237
78.9116
78.9113
78.9181
78.9335
78.9386
-3.76585
-16.486
-27.3884
-33.8521
-34.5466
-31.7623
-27.5522
-23.4129
-19.4945
-15.8178
-12.3968
-9.23162
-6.32128
-3.69865
-1.5613
0.0421119
1.20303
1.98672
2.43989
2.59877
2.53156
2.14235
1.03505
-0.634179
-2.43482
-4.33927
-6.32247
-8.35709
-10.4182
-12.4846
-14.5363
-16.5478
-18.4884
-20.3359
90.7058
92.2301
93.9898
95.611
96.7934
97.393
97.462
96.933
95.56
93.2401
89.9834
85.8285
80.7993
74.8647
67.9127
59.698
49.7979
37.3236
21.5213
-1.60015
89.4176
88.1837
87.0347
86.0898
85.3161
84.5615
83.8393
83.1587
82.5276
82.0048
81.5616
81.1503
80.7708
80.4277
80.1226
79.8561
79.6276
79.436
79.2793
79.155
79.0602
78.9918
78.9463
78.9199
78.9089
78.9095
78.9173
78.9337
78.9394
-16.7923
-29.7814
-39.1523
-42.9645
-39.8126
-35.0649
-30.3503
-25.8757
-21.7137
-17.8593
-14.3063
-11.0416
-8.0556
-5.37746
-3.20537
-1.58866
-0.431702
0.33365
0.755937
0.872549
0.753415
-0.0477495
-1.48972
-3.11197
-4.87281
-6.73828
-8.67526
-10.6536
-12.6478
-14.6357
-16.5972
-18.5071
-20.3347
-22.0569
90.4895
92.0364
93.8558
95.6155
97.0374
97.9374
98.3549
98.2816
97.4458
95.6362
92.8503
89.1508
84.5903
79.1821
72.8686
65.4995
56.7616
46.1476
32.43
14.2749
-14.4058
89.1877
87.9672
86.9636
86.146
85.3402
84.5619
83.822
83.1295
82.5564
82.0699
81.6132
81.1866
80.7959
80.4438
80.1315
79.8593
79.6265
79.4318
79.2732
79.148
79.0533
78.9856
78.9411
78.9158
78.906
78.9077
78.9164
78.934
78.9402
-33.7121
-44.2603
-50.8293
-50.0728
-43.8935
-38.3531
-33.1526
-28.3563
-23.9644
-19.9442
-16.2689
-12.9127
-9.85793
-7.13011
-4.92779
-3.30142
-2.15162
-1.40756
-1.01893
-0.947474
-1.47601
-2.59906
-3.98003
-5.55386
-7.27094
-9.08805
-10.968
-12.8796
-14.7957
-16.6936
-18.5538
-20.3515
-22.0565
-23.6473
90.2373
91.8048
93.6651
95.5241
97.1443
98.3082
99.0303
99.3549
99.0478
97.8116
95.5362
92.2973
88.1892
83.2632
77.5123
70.849
63.0811
53.8185
42.478
27.3239
6.32401
-31.7702
88.9461
87.8868
87.0286
86.1737
85.3406
84.5417
83.7874
83.1642
82.6351
82.1332
81.6586
81.2188
80.8175
80.4567
80.1372
79.8595
79.6227
79.4253
79.2652
79.1397
79.0455
78.9788
78.9356
78.9116
78.903
78.9058
78.9156
78.9343
78.941
-54.4925
-57.6156
-61.6206
-55.2222
-47.7905
-41.5293
-35.8943
-30.811
-26.2158
-22.0494
-18.2671
-14.8317
-11.7184
-8.94921
-6.72299
-5.0918
-3.95305
-3.23354
-2.8816
-3.22032
-4.05923
-5.10398
-6.42586
-7.94961
-9.6152
-11.3742
-13.1874
-15.0218
-16.8491
-18.6466
-20.3955
-22.0727
-23.6464
-25.0986
89.9713
91.5311
93.4252
95.3548
97.1323
98.5248
99.5115
100.176
100.344
99.6916
98.0042
95.2635
91.6027
87.1286
81.8786
75.8213
68.8355
60.6901
50.9155
38.8465
22.0328
-2.13995
-54.6519
88.856
87.9618
87.0603
86.1742