/*--------------------------------*- C++ -*----------------------------------*\
  =========                 |
  \\      /  F ield         | OpenFOAM: The Open Source CFD Toolbox
   \\    /   O peration     | Website:  https://openfoam.org
    \\  /    A nd           | Version:  8
     \\/     M anipulation  |
\*---------------------------------------------------------------------------*/
FoamFile
{
    version     2.0;
    format      ascii;
    class       volVectorField;
    location    "0.1";
    object      U;
}
// * * * * * * * * * * * * * * * * * * * * * * * * * * * * * * * * * * * * * //

dimensions      [0 1 -1 0 0 0 0];

internalField   nonuniform List<vector> 
15677
(
(-0.0199314 9.66506 0)
(0.0435755 9.92084 0)
(0.00238309 9.37799 0)
(0.0147395 9.97646 0)
(0.0186157 9.78773 0)
(0.00702197 9.14224 0)
(0.0279646 9.99433 0)
(0.0171132 9.92478 0)
(0.0107386 9.65487 0)
(0.00608776 8.95983 0)
(0.0261125 10.0015 0)
(0.0215114 9.97853 0)
(0.0164044 9.85332 0)
(0.00902894 9.5301 0)
(0.00491609 8.81634 0)
(0.0249596 10.0047 0)
(0.022387 10.0026 0)
(0.019197 9.94282 0)
(0.0153888 9.77908 0)
(0.00789881 9.41905 0)
(0.00404965 8.70152 0)
(0.0239835 10.0062 0)
(0.022566 10.0142 0)
(0.0208136 9.98602 0)
(0.0183078 9.90218 0)
(0.0139281 9.7075 0)
(0.00683377 9.32069 0)
(0.00338631 8.60882 0)
(0.0226434 10.0067 0)
(0.0224075 10.0199 0)
(0.0216468 10.008 0)
(0.0202171 9.96477 0)
(0.0170894 9.86149 0)
(0.012511 9.6401 0)
(0.00589516 9.23508 0)
(0.00283321 8.53424 0)
(0.0209592 10.0067 0)
(0.0218709 10.0223 0)
(0.021979 10.0195 0)
(0.021319 9.99792 0)
(0.0191449 9.94337 0)
(0.0157234 9.82171 0)
(0.0111656 9.57847 0)
(0.00503134 9.16224 0)
(0.00232656 8.47499 0)
(0.0190434 10.0063 0)
(0.0210373 10.0226 0)
(0.0218822 10.0254 0)
(0.0218312 10.0161 0)
(0.0203356 9.98785 0)
(0.0178088 9.92229 0)
(0.0142809 9.78434 0)
(0.00980047 9.52399 0)
(0.0041856 9.10192 0)
(0.00182872 8.42955 0)
(0.0169721 10.0057 0)
(0.019983 10.0218 0)
(0.0214393 10.0283 0)
(0.0218749 10.0261 0)
(0.0209043 10.0128 0)
(0.0189856 9.97815 0)
(0.0163011 9.90269 0)
(0.0126963 9.75083 0)
(0.00835401 9.47762 0)
(0.00331379 9.05385 0)
(0.00131158 8.39688 0)
(0.0147626 10.0051 0)
(0.0186916 10.0203 0)
(0.0206922 10.0291 0)
(0.021572 10.0315 0)
(0.0209777 10.0271 0)
(0.0194795 10.01 0)
(0.0173669 9.96975 0)
(0.0145421 9.88576 0)
(0.0109077 9.72231 0)
(0.0067793 9.44009 0)
(0.00237659 9.01795 0)
(0.000752972 8.37666 0)
(0.0124496 10.0044 0)
(0.0172711 10.0183 0)
(0.0196477 10.0284 0)
(0.0209262 10.034 0)
(0.0206148 10.0351 0)
(0.0194418 10.0285 0)
(0.0176909 10.0084 0)
(0.015388 9.96369 0)
(0.0124547 9.87248 0)
(0.00885855 9.69979 0)
(0.00502819 9.4121 0)
(0.00134183 8.99421 0)
(0.000123664 8.36863 0)
(0.0101742 10.0036 0)
(0.0157816 10.016 0)
(0.0183521 10.0267 0)
(0.019962 10.0344 0)
(0.0199283 10.0393 0)
(0.0189567 10.0392 0)
(0.0174336 10.0311 0)
(0.015429 10.009 0)
(0.0129579 9.96083 0)
(0.009967 9.86379 0)
(0.00648836 9.68429 0)
(0.00305621 9.39425 0)
(0.000195222 8.98275 0)
(-0.00049625 8.37274 0)
(0.00822136 10.0029 0)
(0.0141838 10.0136 0)
(0.0168536 10.0244 0)
(0.0186922 10.0333 0)
(0.0189012 10.0408 0)
(0.018085 10.0452 0)
(0.0166872 10.0445 0)
(0.0148265 10.0358 0)
(0.0125847 10.0126 0)
(0.00998515 9.96199 0)
(0.00700116 9.86065 0)
(0.00373792 9.67674 0)
(0.000815391 9.38714 0)
(-0.00110732 8.98382 0)
(-0.00124162 8.38902 0)
(0.00667799 10.0022 0)
(0.0126413 10.0113 0)
(0.015183 10.0216 0)
(0.0171292 10.0313 0)
(0.0175414 10.0405 0)
(0.016838 10.0479 0)
(0.0154982 10.0522 0)
(0.0136743 10.0518 0)
(0.0114925 10.0434 0)
(0.00904638 10.02 0)
(0.0063699 9.96806 0)
(0.00347985 9.86399 0)
(0.000549864 9.67805 0)
(-0.00172922 9.39133 0)
(-0.00258121 8.99754 0)
(-0.0020777 8.41769 0)
(0.00552146 10.0017 0)
(0.0112376 10.0093 0)
(0.0135435 10.0188 0)
(0.0153002 10.0284 0)
(0.0158538 10.0388 0)
(0.0152223 10.0483 0)
(0.0138841 10.056 0)
(0.0120159 10.0612 0)
(0.00977315 10.0619 0)
(0.00729787 10.0546 0)
(0.00469091 10.032 0)
(0.00201599 9.97989 0)
(-0.000647501 9.87478 0)
(-0.00310189 9.68901 0)
(-0.00457716 9.40731 0)
(-0.00422538 9.02411 0)
(-0.00300186 8.45876 0)
(0.0045558 10.0014 0)
(0.00986305 10.0077 0)
(0.0120514 10.0164 0)
(0.0134466 10.0255 0)
(0.0138519 10.036 0)
(0.0132406 10.047 0)
(0.0118487 10.0572 0)
(0.00986661 10.0661 0)
(0.00746658 10.0728 0)
(0.00482572 10.0755 0)
(0.00209564 10.0702 0)
(-0.000605171 10.0494 0)
(-0.00317892 9.99836 0)
(-0.00549947 9.89387 0)
(-0.0072728 9.71036 0)
(-0.00777864 9.43544 0)
(-0.0060479 9.06355 0)
(-0.00401158 8.51223 0)
(0.00377127 10.0011 0)
(0.00863001 10.0064 0)
(0.0106383 10.0142 0)
(0.0117319 10.0228 0)
(0.0117859 10.0328 0)
(0.0109022 10.0443 0)
(0.0093923 10.0563 0)
(0.00722711 10.0679 0)
(0.0045826 10.0787 0)
(0.00166322 10.0878 0)
(-0.00134426 10.0932 0)
(-0.00427363 10.091 0)
(-0.00696947 10.073 0)
(-0.00929713 10.0243 0)
(-0.011089 9.92206 0)
(-0.0119962 9.74267 0)
(-0.0113444 9.47596 0)
(-0.0080531 9.1159 0)
(-0.00510425 8.57789 0)
(0.00313202 10.0009 0)
(0.00751769 10.0053 0)
(0.00934182 10.0124 0)
(0.0101179 10.0203 0)
(0.00984747 10.0297 0)
(0.00848925 10.0409 0)
(0.00652292 10.0536 0)
(0.00409557 10.0672 0)
(0.00111704 10.081 0)
(-0.00218748 10.0945 0)
(-0.00560537 10.1068 0)
(-0.00892725 10.116 0)
(-0.0119536 10.1177 0)
(-0.014499 10.1036 0)
(-0.0164004 10.0585 0)
(-0.0174504 9.96003 0)
(-0.0172777 9.78639 0)
(-0.0152674 9.52898 0)
(-0.0102268 9.18088 0)
(-0.00626843 8.65537 0)
(0.00260626 10.0008 0)
(0.0065124 10.0045 0)
(0.00814738 10.0108 0)
(0.00861933 10.0181 0)
(0.00801208 10.0268 0)
(0.00622677 10.0375 0)
(0.00358129 10.05 0)
(0.000480414 10.0645 0)
(-0.00293013 10.0805 0)
(-0.0067352 10.0972 0)
(-0.0106917 10.1142 0)
(-0.0145579 10.1307 0)
(-0.0180947 10.1445 0)
(-0.0210719 10.1511 0)
(-0.0232826 10.1419 0)
(-0.0245338 10.1016 0)
(-0.0245976 10.0083 0)
(-0.0231068 9.84174 0)
(-0.0195296 9.59439 0)
(-0.01256 9.25826 0)
(-0.00749578 8.74419 0)
(0.00218816 10.0006 0)
(0.00560804 10.0038 0)
(0.00704991 10.0094 0)
(0.00723857 10.0161 0)
(0.00629915 10.0241 0)
(0.00409078 10.0341 0)
(0.000836972 10.0461 0)
(-0.00319226 10.0606 0)
(-0.00754651 10.0776 0)
(-0.011983 10.0967 0)
(-0.0166217 10.1171 0)
(-0.0211875 10.1386 0)
(-0.0254048 10.1601 0)
(-0.0290052 10.1794 0)
(-0.031738 10.1919 0)
(-0.0333762 10.1886 0)
(-0.0337137 10.1542 0)
(-0.0325179 10.0672 0)
(-0.0294558 9.90878 0)
(-0.0241 9.67194 0)
(-0.0150201 9.34735 0)
(-0.00876431 8.84349 0)
(0.00186701 10.0005 0)
(0.00483518 10.0032 0)
(0.00604745 10.0083 0)
(0.00597755 10.0143 0)
(0.00472157 10.0217 0)
(0.00210736 10.0308 0)
(-0.00173718 10.0422 0)
(-0.00659612 10.0561 0)
(-0.0121996 10.0731 0)
(-0.0179149 10.0934 0)
(-0.0234029 10.1165 0)
(-0.0288449 10.1416 0)
(-0.0339253 10.1684 0)
(-0.0383361 10.1958 0)
(-0.04179 10.2215 0)
(-0.0440222 10.2407 0)
(-0.0448011 10.2442 0)
(-0.0439225 10.2166 0)
(-0.0411728 10.1369 0)
(-0.0362764 9.98732 0)
(-0.0289316 9.7611 0)
(-0.0175857 9.44755 0)
(-0.0100562 8.9525 0)
(0.00161748 10.0005 0)
(0.00420974 10.0028 0)
(0.00517553 10.0073 0)
(0.0048359 10.0127 0)
(0.00328716 10.0194 0)
(0.000294625 10.0278 0)
(-0.00410695 10.0383 0)
(-0.00977207 10.0514 0)
(-0.0164869 10.0679 0)
(-0.0238504 10.0882 0)
(-0.0310144 10.1126 0)
(-0.0375426 10.1405 0)
(-0.0436995 10.1712 0)
(-0.049131 10.2042 0)
(-0.0535091 10.2385 0)
(-0.0565372 10.2714 0)
(-0.0579536 10.298 0)
(-0.0575383 10.309 0)
(-0.0551104 10.2889 0)
(-0.0504947 10.2173 0)
(-0.0434978 10.077 0)
(-0.0339687 9.86124 0)
(-0.0201981 9.55779 0)
(-0.0113311 9.06959 0)
(0.00142022 10.0004 0)
(0.00370672 10.0025 0)
(0.00445277 10.0065 0)
(0.00385503 10.0113 0)
(0.00199974 10.0173 0)
(-0.00133435 10.0249 0)
(-0.00625009 10.0345 0)
(-0.0126748 10.0467 0)
(-0.0204631 10.0623 0)
(-0.02929 10.082 0)
(-0.0385872 10.1064 0)
(-0.0472542 10.1358 0)
(-0.0547473 10.1695 0)
(-0.061453 10.2067 0)
(-0.0669932 10.2468 0)
(-0.0710335 10.2886 0)
(-0.0732868 10.3295 0)
(-0.0735129 10.3642 0)
(-0.0715265 10.3833 0)
(-0.0671885 10.3713 0)
(-0.0603874 10.3082 0)
(-0.0510324 10.1772 0)
(-0.0390987 9.97141 0)
(-0.0227453 9.67675 0)
(-0.0121555 9.19305 0)
(0.00126188 10.0004 0)
(0.00329379 10.0022 0)
(0.00385281 10.0058 0)
(0.00305545 10.0102 0)
(0.000909961 10.0154 0)
(-0.0027724 10.0221 0)
(-0.00814816 10.0308 0)
(-0.0152719 10.042 0)
(-0.0240725 10.0565 0)
(-0.034309 10.0752 0)
(-0.0454988 10.099 0)
(-0.056877 10.1282 0)
(-0.0670378 10.1636 0)
(-0.0753341 10.2041 0)
(-0.0823321 10.2487 0)
(-0.0876482 10.2967 0)
(-0.0909621 10.3469 0)
(-0.0920188 10.3962 0)
(-0.0906274 10.4395 0)
(-0.0866584 10.467 0)
(-0.0800361 10.4634 0)
(-0.070729 10.4089 0)
(-0.0587336 10.2872 0)
(-0.0442661 10.0904 0)
(-0.0252451 9.80414 0)
(-0.0130098 9.32288 0)
(0.00113319 10.0003 0)
(0.00295491 10.002 0)
(0.00335764 10.0053 0)
(0.00240697 10.0092 0)
(4.06812e-05 10.0138 0)
(-0.00396301 10.0196 0)
(-0.00978982 10.0272 0)
(-0.0175388 10.0373 0)
(-0.027272 10.0506 0)
(-0.0388391 10.0681 0)
(-0.0518517 10.0907 0)
(-0.0656347 10.1192 0)
(-0.0791837 10.1545 0)
(-0.0907407 10.1968 0)
(-0.0995743 10.245 0)
(-0.106503 10.2979 0)
(-0.111163 10.3545 0)
(-0.113277 10.4135 0)
(-0.112655 10.4718 0)
(-0.109175 10.5239 0)
(-0.102785 10.5601 0)
(-0.0934915 10.5649 0)
(-0.0813332 10.5189 0)
(-0.0664485 10.4057 0)
(-0.0485839 10.2175 0)
(-0.0212832 9.93341 0)
(-0.00779223 9.39616 0)
(0.00102742 10.0003 0)
(0.00267434 10.0018 0)
(0.00294904 10.0049 0)
(0.00188028 10.0084 0)
(-0.000644993 10.0124 0)
(-0.00488596 10.0174 0)
(-0.0111098 10.0239 0)
(-0.0194591 10.0327 0)
(-0.0300289 10.0447 0)
(-0.0428249 10.0607 0)
(-0.0575619 10.0818 0)
(-0.0736645 10.1091 0)
(-0.0902191 10.1435 0)
(-0.105943 10.1856 0)
(-0.118685 10.2359 0)
(-0.127671 10.2928 0)
(-0.134058 10.3547 0)
(-0.137534 10.4206 0)
(-0.137899 10.4888 0)
(-0.135051 10.5562 0)
(-0.128971 10.6172 0)
(-0.119706 10.662 0)
(-0.10733 10.6751 0)
(-0.0919914 10.6372 0)
(-0.0735987 10.532 0)
(-0.0527414 10.3495 0)
(-0.0165805 10.0928 0)
(-0.000272557 9.449 0)
(0.000939561 10.0003 0)
(0.00244083 10.0017 0)
(0.00260462 10.0045 0)
(0.0014505 10.0077 0)
(-0.00118498 10.0113 0)
(-0.00558848 10.0156 0)
(-0.0120944 10.0211 0)
(-0.0209559 10.0284 0)
(-0.03232 10.0388 0)
(-0.0462231 10.0531 0)
(-0.062559 10.0725 0)
(-0.0808629 10.0981 0)
(-0.100325 10.1311 0)
(-0.119747 10.1723 0)
(-0.137535 10.2224 0)
(-0.151126 10.2816 0)
(-0.159753 10.348 0)
(-0.165004 10.4195 0)
(-0.166665 10.4951 0)
(-0.164652 10.5728 0)
(-0.158989 10.6495 0)
(-0.149779 10.7192 0)
(-0.137157 10.7723 0)
(-0.121289 10.7932 0)
(-0.102166 10.7628 0)
(-0.0796942 10.6648 0)
(-0.0558861 10.4946 0)
(-0.0179582 10.253 0)
(0.00417281 9.49269 0)
(0.000865864 10.0002 0)
(0.00224548 10.0016 0)
(0.00231537 10.0042 0)
(0.00110329 10.0071 0)
(-0.00160972 10.0103 0)
(-0.00611757 10.014 0)
(-0.0128068 10.0186 0)
(-0.0220236 10.0247 0)
(-0.034053 10.0332 0)
(-0.0490018 10.0456 0)
(-0.066786 10.063 0)
(-0.0871408 10.0866 0)
(-0.109374 10.1176 0)
(-0.132386 10.1572 0)
(-0.154657 10.2063 0)
(-0.174274 10.2653 0)
(-0.188231 10.3344 0)
(-0.195833 10.4111 0)
(-0.199233 10.4928 0)
(-0.198364 10.5783 0)
(-0.193296 10.6655 0)
(-0.184198 10.7512 0)
(-0.171298 10.8294 0)
(-0.154828 10.8902 0)
(-0.134869 10.9184 0)
(-0.111319 10.8952 0)
(-0.0842916 10.8048 0)
(-0.0566089 10.6516 0)
(-0.0210069 10.4091 0)
(0.00520174 9.53535 0)
(0.000803515 10.0002 0)
(0.00208134 10.0015 0)
(0.00207323 10.0039 0)
(0.000818816 10.0066 0)
(-0.00194235 10.0094 0)
(-0.00651107 10.0126 0)
(-0.0133076 10.0164 0)
(-0.0227475 10.0213 0)
(-0.0352332 10.0282 0)
(-0.0510484 10.0384 0)
(-0.0701997 10.0534 0)
(-0.0924243 10.0746 0)
(-0.117253 10.1032 0)
(-0.143705 10.1406 0)
(-0.170349 10.188 0)
(-0.195325 10.246 0)
(-0.216363 10.315 0)
(-0.230033 10.3948 0)
(-0.235814 10.4823 0)
(-0.236552 10.5745 0)
(-0.232372 10.67 0)
(-0.223526 10.7667 0)
(-0.210344 10.8609 0)
(-0.193178 10.947 0)
(-0.172262 11.015 0)
(-0.147643 11.0501 0)
(-0.119659 11.0337 0)
(-0.0884787 10.9522 0)
(-0.0575792 10.8152 0)
(-0.0233049 10.5599 0)
(0.00482901 9.59115 0)
(0.000750369 10.0002 0)
(0.00194275 10.0014 0)
(0.00186888 10.0037 0)
(0.00058459 10.0061 0)
(-0.00220289 10.0087 0)
(-0.0067992 10.0114 0)
(-0.0136458 10.0145 0)
(-0.0232073 10.0184 0)
(-0.0359745 10.0238 0)
(-0.0523819 10.0319 0)
(-0.0726608 10.0441 0)
(-0.0966554 10.0624 0)
(-0.123868 10.0883 0)
(-0.153562 10.123 0)
(-0.18442 10.1679 0)
(-0.21465 10.2241 0)
(-0.241998 10.2921 0)
(-0.263883 10.3719 0)
(-0.276459 10.4631 0)
(-0.2795 10.5619 0)
(-0.276675 10.6648 0)
(-0.268342 10.7701 0)
(-0.254964 10.8758 0)
(-0.237034 10.9782 0)
(-0.214982 11.0715 0)
(-0.189081 11.1462 0)
(-0.15978 11.1877 0)
(-0.127873 11.1778 0)
(-0.093377 11.106 0)
(-0.0592949 10.9803 0)
(-0.0256435 10.7228 0)
(0.00378257 9.65655 0)
(0.000704757 10.0002 0)
(0.0018251 10.0013 0)
(0.00169854 10.0035 0)
(0.000391181 10.0057 0)
(-0.00240678 10.008 0)
(-0.00700601 10.0103 0)
(-0.0138601 10.0128 0)
(-0.0234671 10.0158 0)
(-0.0363821 10.0199 0)
(-0.0531529 10.0261 0)
(-0.0742038 10.0357 0)
(-0.0996597 10.0506 0)
(-0.129142 10.0729 0)
(-0.161836 10.1045 0)
(-0.196695 10.1463 0)
(-0.232018 10.1998 0)
(-0.265595 10.266 0)
(-0.294809 10.345 0)
(-0.316791 10.4365 0)
(-0.327315 10.5397 0)
(-0.326576 10.65 0)
(-0.319211 10.7634 0)
(-0.30585 10.8783 0)
(-0.287177 10.9924 0)
(-0.26383 11.1022 0)
(-0.236345 11.2022 0)
(-0.205317 11.283 0)
(-0.171635 11.3304 0)
(-0.136278 11.3264 0)
(-0.0989746 11.2633 0)
(-0.0621887 11.1637 0)
(-0.0281506 10.8975 0)
(0.00221895 9.73019 0)
(0.000665404 10.0002 0)
(0.00172467 10.0013 0)
(0.00155424 10.0033 0)
(0.000229285 10.0054 0)
(-0.00256611 10.0074 0)
(-0.0071505 10.0094 0)
(-0.0139811 10.0114 0)
(-0.0235777 10.0136 0)
(-0.0365401 10.0165 0)
(-0.0534992 10.021 0)
(-0.0750261 10.0282 0)
(-0.101489 10.0398 0)
(-0.132852 10.058 0)
(-0.168425 10.0854 0)
(-0.207018 10.1236 0)
(-0.247214 10.1738 0)
(-0.286871 10.2371 0)
(-0.323372 10.3143 0)
(-0.353755 10.4053 0)
(-0.374899 10.509 0)
(-0.382261 10.6246 0)
(-0.376613 10.7465 0)
(-0.36369 10.8701 0)
(-0.344419 10.994 0)
(-0.319708 11.1159 0)
(-0.290359 11.2325 0)
(-0.257191 11.3384 0)
(-0.221184 11.4246 0)
(-0.183447 11.4768 0)
(-0.144815 11.4777 0)
(-0.105417 11.4409 0)
(-0.0659659 11.3635 0)
(-0.0307521 11.0666 0)
(0.000504944 9.81034 0)
(0.00063163 10.0002 0)
(0.0016383 10.0012 0)
(0.00143089 10.0031 0)
(9.56511e-05 10.0051 0)
(-0.00269057 10.0069 0)
(-0.00724754 10.0086 0)
(-0.0140328 10.0101 0)
(-0.0235788 10.0116 0)
(-0.0365148 10.0135 0)
(-0.0535308 10.0165 0)
(-0.0753063 10.0216 0)
(-0.102397 10.0302 0)
(-0.135069 10.0444 0)
(-0.173048 10.0667 0)
(-0.215257 10.1001 0)
(-0.260042 10.1462 0)
(-0.305564 10.2059 0)
(-0.349235 10.2802 0)
(-0.388029 10.3695 0)
(-0.418673 10.4732 0)
(-0.437871 10.5898 0)
(-0.440845 10.7178 0)
(-0.4291 10.8511 0)
(-0.40959 10.9846 0)
(-0.383559 11.1168 0)
(-0.352153 11.2457 0)
(-0.31645 11.3683 0)
(-0.277614 11.4792 0)
(-0.236852 11.5698 0)
(-0.195207 11.6254 0)
(-0.154101 11.6483 0)
(-0.11241 11.6367 0)
(-0.0700342 11.5583 0)
(-0.0332397 11.23 0)
(-0.00116929 9.89487 0)
(0.00156314 10.0012 0)
(0.000591269 10.0002 0)
(0.00132441 10.003 0)
(-1.54102e-05 10.0049 0)
(-0.00278727 10.0065 0)
(-0.0073086 10.0079 0)
(-0.0140339 10.0089 0)
(-0.0235013 10.0098 0)
(-0.0363584 10.0108 0)
(-0.0533345 10.0125 0)
(-0.0751876 10.0156 0)
(-0.102614 10.0216 0)
(-0.136117 10.0321 0)
(-0.175789 10.0496 0)
(-0.221051 10.077 0)
(-0.27033 10.1175 0)
(-0.321428 10.1728 0)
(-0.372075 10.2433 0)
(-0.419217 10.3298 0)
(-0.459444 10.4321 0)
(-0.489238 10.5492 0)
(-0.505233 10.6789 0)
(-0.502508 10.8194 0)
(-0.483456 10.9636 0)
(-0.456366 11.1062 0)
(-0.422812 11.2459 0)
(-0.384245 11.381 0)
(-0.342068 11.5086 0)
(-0.297671 11.6236 0)
(-0.252275 11.7169 0)
(-0.207995 11.7924 0)
(-0.163928 11.837 0)
(-0.119077 11.8294 0)
(-0.0740644 11.7467 0)
(-0.0355103 11.3871 0)
(-0.00268733 9.98192 0)
(0.00123163 10.0029 0)
(0.00147606 10.0011 0)
(0.000542823 10.0002 0)
(-0.0001091 10.0046 0)
(-0.00286224 10.0061 0)
(-0.00734237 10.0073 0)
(-0.0139988 10.008 0)
(-0.0233693 10.0083 0)
(-0.036111 10.0085 0)
(-0.0529781 10.0089 0)
(-0.0747827 10.0104 0)
(-0.102325 10.0139 0)
(-0.136286 10.0212 0)
(-0.177055 10.0342 0)
(-0.224496 10.0557 0)
(-0.277616 10.0892 0)
(-0.334242 10.1382 0)
(-0.39159 10.2039 0)
(-0.446927 10.2865 0)
(-0.496749 10.3862 0)
(-0.537323 10.5025 0)
(-0.564977 10.6334 0)
(-0.576393 10.7764 0)
(-0.56661 10.9289 0)
(-0.539068 11.0834 0)
(-0.503489 11.2343 0)
(-0.461811 11.3807 0)
(-0.415816 11.5209 0)
(-0.367148 11.6524 0)
(-0.317251 11.7699 0)
(-0.268945 11.8823 0)
(-0.221411 11.9769 0)
(-0.173138 12.0233 0)
(-0.125254 12.0169 0)
(-0.0778525 11.9278 0)
(-0.0375355 11.5378 0)
(-0.00407332 10.0698 0)
(-0.000191538 10.0044 0)
(0.00113483 10.0028 0)
(0.00136908 10.001 0)
(0.000496549 10.0001 4.52039e-20)
(-0.00292087 10.0058 0)
(-0.0073558 10.0067 0)
(-0.013938 10.0071 0)
(-0.023201 10.0069 0)
(-0.0358035 10.0064 0)
(-0.0525139 10.0058 0)
(-0.0741798 10.0057 0)
(-0.101674 10.0071 0)
(-0.135813 10.0114 0)
(-0.177211 10.0203 0)
(-0.226094 10.0365 0)
(-0.281999 10.0631 0)
(-0.343416 10.1039 0)
(-0.407495 10.1626 0)
(-0.470789 10.2402 0)
(-0.530123 10.3361 0)
(-0.581585 10.4501 0)
(-0.621205 10.5809 0)
(-0.645278 10.7259 0)
(-0.650658 10.8819 0)
(-0.632461 11.046 0)
(-0.595323 11.21 0)
(-0.550485 11.3683 0)
(-0.500257 11.5201 0)
(-0.446684 11.6644 0)
(-0.391515 11.7983 0)
(-0.338291 11.9344 0)
(-0.286327 12.0647 0)
(-0.233831 12.1589 0)
(-0.181598 12.2054 0)
(-0.130829 12.1978 0)
(-0.081284 12.101 0)
(-0.0392813 11.6817 0)
(-0.00532503 10.1571 0)
(-0.00297396 10.0055 0)
(-0.000261908 10.0042 0)
(0.00102465 10.0026 2.05719e-19)
(0.00126633 10.001 -1.43317e-19)
(0.000452408 10.0001 -8.87257e-20)
(-0.00735572 10.0062 0)
(-0.0138596 10.0063 0)
(-0.0230095 10.0057 0)
(-0.0354594 10.0046 0)
(-0.051982 10.003 0)
(-0.0734465 10.0016 0)
(-0.100776 10.0011 0)
(-0.134883 10.0027 0)
(-0.176555 10.0079 0)
(-0.226299 10.0192 0)
(-0.284087 10.0394 0)
(-0.349036 10.0721 0)
(-0.419041 10.1215 0)
(-0.490444 10.1914 0)
(-0.559113 10.2823 0)
(-0.621479 10.3927 0)
(-0.673299 10.5218 0)
(-0.710476 10.6675 0)
(-0.729406 10.8267 0)
(-0.72726 10.9953 0)
(-0.699345 11.1702 0)
(-0.65163 11.3427 0)
(-0.596931 11.5071 0)
(-0.537858 11.6633 0)
(-0.476609 11.8101 0)
(-0.41761 11.9624 0)
(-0.360175 12.1161 0)
(-0.302316 12.2447 0)
(-0.245124 12.3369 0)
(-0.189193 12.3816 0)
(-0.135746 12.3713 0)
(-0.0843059 12.2658 0)
(-0.0407426 11.8187 0)
(-0.00643134 10.2427 0)
(-0.00735729 10.0058 0)
(-0.00298398 10.0051 -4.6474e-19)
(-0.000325128 10.0039 -2.17389e-19)
(0.000919717 10.0024 1.00962e-19)
(0.00116654 10.0009 -9.37488e-20)
(0.000410428 10.0001 0)
(-0.0137714 10.0056 0)
(-0.0228042 10.0047 0)
(-0.0350953 10.0029 0)
(-0.0514127 10.0006 0)
(-0.0726347 9.99801 0)
(-0.0997169 9.99579 0)
(-0.133641 9.99493 0)
(-0.17532 9.9969 0)
(-0.225479 10.0037 0)
(-0.284438 10.018 0)
(-0.351831 10.0432 0)
(-0.426278 10.0833 0)
(-0.50494 10.1427 0)
(-0.583274 10.2253 0)
(-0.656464 10.3308 0)
(-0.720628 10.4567 0)
(-0.771295 10.6016 0)
(-0.804378 10.7625 0)
(-0.816529 10.9356 0)
(-0.805384 11.1162 0)
(-0.766547 11.3009 0)
(-0.707432 11.4806 0)
(-0.642413 11.6499 0)
(-0.574293 11.8089 0)
(-0.508595 11.9742 0)
(-0.444722 12.1439 0)
(-0.380261 12.2954 0)
(-0.316789 12.4208 0)
(-0.255195 12.5094 0)
(-0.195878 12.5511 0)
(-0.139998 12.5368 0)
(-0.0869069 12.422 0)
(-0.0419409 11.9484 0)
(-0.00739318 10.3256 0)
(-0.0136959 10.005 0)
(-0.00726929 10.0053 9.82123e-19)
(-0.00294257 10.0047 0)
(-0.000383523 10.0036 2.13309e-19)
(0.000821198 10.0022 3.52373e-23)
(0.00107039 10.0008 0)
(0.000370618 10.0001 0)
(-0.0225939 10.0038 0)
(-0.0347223 10.0015 0)
(-0.050827 9.99845 0)
(-0.0717836 9.99479 0)
(-0.0985646 9.99106 0)
(-0.132199 9.98807 0)
(-0.173691 9.98709 0)
(-0.22393 9.98988 0)
(-0.283506 9.99886 0)
(-0.352476 10.0171 0)
(-0.430067 10.0485 0)
(-0.514267 10.0972 0)
(-0.601408 10.1681 0)
(-0.685991 10.2648 0)
(-0.762551 10.3863 0)
(-0.827015 10.5287 0)
(-0.874818 10.6898 0)
(-0.902043 10.8658 0)
(-0.905756 11.0522 0)
(-0.884196 11.2439 0)
(-0.833365 11.4371 0)
(-0.762189 11.6228 0)
(-0.686518 11.7955 0)
(-0.613227 11.9732 0)
(-0.541821 12.1559 0)
(-0.469583 12.3232 0)
(-0.398419 12.4708 0)
(-0.329669 12.5914 0)
(-0.264017 12.6754 0)
(-0.201654 12.7131 0)
(-0.143611 12.694 0)
(-0.0891038 12.5697 0)
(-0.0429052 12.071 0)
(-0.00821796 10.4053 0)
(-0.0224121 10.0029 0)
(-0.0134661 10.0043 1.03744e-22)
(-0.00705889 10.0047 0)
(-0.00289803 10.0043 -2.25391e-19)
(-0.000433348 10.0033 2.22787e-23)
(0.000729041 10.0021 0)
(0.00097819 10.0008 0)
(0.00033298 10.0001 0)
(-0.0343501 10.0003 0)
(-0.0502382 9.99654 0)
(-0.07092 9.99195 0)
(-0.0973691 9.98687 0)
(-0.130641 9.98199 0)
(-0.171808 9.97837 0)
(-0.221879 9.97756 0)
(-0.281654 9.9817 0)
(-0.351522 9.99361 0)
(-0.431214 10.0168 0)
(-0.519422 10.0556 0)
(-0.613399 10.1145 0)
(-0.70856 10.1985 0)
(-0.798402 10.3108 0)
(-0.876885 10.4493 0)
(-0.939907 10.609 0)
(-0.982977 10.7864 0)
(-1.00252 10.9773 0)
(-0.996158 11.1762 0)
(-0.962868 11.3778 0)
(-0.899123 11.5782 0)
(-0.815375 11.7681 0)
(-0.733678 11.96 0)
(-0.653693 12.1555 0)
(-0.572303 12.3358 0)
(-0.492047 12.4989 0)
(-0.414577 12.641 0)
(-0.340943 12.7558 0)
(-0.271617 12.8344 0)
(-0.206559 12.8673 0)
(-0.146623 12.8427 0)
(-0.0909238 12.7088 0)
(-0.0436653 12.1864 0)
(-0.0089164 10.4814 0)
(-0.034028 9.99915 0)
(-0.0219848 10.002 -5.48284e-19)
(-0.0130024 10.0035 0)
(-0.0068471 10.0041 0)
(-0.00284133 10.0039 6.63588e-19)
(-0.000474333 10.003 0)
(0.000643161 10.0019 0)
(0.000889947 10.0007 1.77238e-19)
(0.000297539 10.0001 0)
(-0.0496573 9.99486 0)
(-0.0700601 9.98944 0)
(-0.0961647 9.98317 0)
(-0.129034 9.97661 0)
(-0.169781 9.97064 0)
(-0.219506 9.9666 0)
(-0.279167 9.96638 0)
(-0.349414 9.97253 0)
(-0.430383 9.98831 0)
(-0.521357 10.0177 0)
(-0.620391 10.0653 0)
(-0.723907 10.136 0)
(-0.826323 10.2346 0)
(-0.920112 10.364 0)
(-0.998787 10.5205 0)
(-1.05842 10.6978 0)
(-1.09477 10.8915 0)
(-1.10478 11.0965 0)
(-1.0868 11.307 0)
(-1.0406 11.5171 0)
(-0.963172 11.7229 0)
(-0.872324 11.9329 0)
(-0.782743 12.1431 0)
(-0.690845 12.3363 0)
(-0.599856 12.5122 0)
(-0.512043 12.6694 0)
(-0.428735 12.805 0)
(-0.35066 12.9132 0)
(-0.278062 12.9858 0)
(-0.210654 13.0134 0)
(-0.149088 12.9829 0)
(-0.0924017 12.8394 0)
(-0.0442495 12.2947 0)
(-0.00950127 10.5535 0)
(-0.0491551 9.99337 0)
(-0.0333354 9.99791 0)
(-0.0211627 10.0009 -5.42111e-19)
(-0.0125427 10.0028 -5.03399e-19)
(-0.0066187 10.0035 -9.3493e-19)
(-0.00277102 10.0035 0)
(-0.00050645 10.0028 -4.03244e-19)
(0.000563665 10.0018 -3.74548e-19)
(0.00080566 10.0006 1.73943e-19)
(0.000264245 10.0001 0)
(-0.0692162 9.98721 0)
(-0.0949711 9.97989 0)
(-0.12742 9.97183 0)
(-0.167692 9.96377 0)
(-0.216949 9.95686 0)
(-0.276267 9.95275 0)
(-0.346502 9.9537 0)
(-0.42811 9.96269 0)
(-0.52086 9.98344 0)
(-0.623489 10.0204 0)
(-0.733315 10.0783 0)
(-0.845837 10.1624 0)
(-0.954414 10.2772 0)
(-1.05053 10.4249 0)
(-1.1274 10.6002 0)
(-1.18153 10.7953 0)
(-1.20911 11.0049 0)
(-1.20778 11.2232 0)
(-1.17674 11.4438 0)
(-1.11662 11.6607 0)
(-1.03199 11.8878 0)
(-0.931705 12.1168 0)
(-0.827844 12.3251 0)
(-0.724454 12.5139 0)
(-0.624402 12.6837 0)
(-0.529582 12.834 0)
(-0.44096 12.9622 0)
(-0.358913 13.0633 0)
(-0.283441 13.1294 0)
(-0.214011 13.1513 0)
(-0.151061 13.1146 0)
(-0.0935735 12.9618 0)
(-0.0446841 12.3961 0)
(-0.00998535 10.6216 0)
(-0.0684884 9.98523 0)
(-0.048114 9.99174 -6.13122e-19)
(-0.0320215 9.99653 5.72753e-19)
(-0.0203544 9.99991 -2.47288e-22)
(-0.0120607 10.002 4.93923e-19)
(-0.00637073 10.003 4.58786e-19)
(-0.00268733 10.0031 8.52164e-19)
(-0.000529625 10.0025 5.93603e-19)
(0.000490397 10.0016 -1.838e-19)
(0.000725404 10.0006 0)
(0.000233084 10.0001 0)
(-0.093803 9.97698 0)
(-0.125824 9.9676 0)
(-0.165597 9.95769 0)
(-0.214311 9.94821 0)
(-0.273128 9.94061 0)
(-0.343061 9.93689 0)
(-0.424822 9.93974 0)
(-0.518572 9.95258 0)
(-0.623618 9.97958 0)
(-0.738055 10.0255 0)
(-0.858362 10.0956 0)
(-0.979031 10.1947 0)
(-1.09235 10.3271 0)
(-1.18886 10.4941 0)
(-1.26173 10.6888 0)
(-1.30811 10.9015 0)
(-1.32487 11.1263 0)
(-1.31048 11.3567 0)
(-1.26508 11.5858 0)
(-1.19865 11.8252 0)
(-1.10403 12.0726 0)
(-0.986447 12.3003 0)
(-0.868699 12.5043 0)
(-0.754417 12.6869 0)
(-0.645958 12.8494 0)
(-0.544749 12.9919 0)
(-0.451364 13.1123 0)
(-0.365819 13.2058 0)
(-0.287856 13.2652 0)
(-0.216708 13.2811 0)
(-0.152602 13.2382 0)
(-0.0944791 13.0763 0)
(-0.044993 12.4908 0)
(-0.0103814 10.6856 0)
(-0.0927988 9.9744 0)
(-0.0669988 9.98312 -8.02622e-22)
(-0.0461431 9.98997 0)
(-0.0307384 9.99521 -4.04123e-22)
(-0.0195168 9.99892 0)
(-0.0115509 10.0013 -4.84741e-19)
(-0.00610283 10.0025 -9.00478e-19)
(-0.00259042 10.0027 1.16267e-23)
(-0.000544007 10.0023 3.88365e-19)
(0.00042343 10.0015 -1.80378e-19)
(0.000649182 10.0005 1.67551e-19)
(0.000204026 10.0001 0)
(-0.124264 9.96384 0)
(-0.163526 9.95229 0)
(-0.211662 9.94054 0)
(-0.269879 9.92982 0)
(-0.339304 9.92192 0)
(-0.420855 9.91923 0)
(-0.515007 9.92489 0)
(-0.621537 9.94278 0)
(-0.739199 9.97749 0)
(-0.86534 10.0341 0)
(-0.995502 10.1179 0)
(-1.12313 10.2338 0)
(-1.23943 10.3851 0)
(-1.33414 10.5724 0)
(-1.40063 10.7865 0)
(-1.43699 11.0164 0)
(-1.44091 11.2554 0)
(-1.41184 11.496 0)
(-1.36084 11.7493 0)
(-1.28491 12.0108 0)
(-1.1707 12.258 0)
(-1.0362 12.4816 0)
(-0.905203 12.6793 0)
(-0.780762 12.8542 0)
(-0.664627 13.0086 0)
(-0.557683 13.1426 0)
(-0.46009 13.2548 0)
(-0.371506 13.3406 0)
(-0.291413 13.393 0)
(-0.218827 13.4029 0)
(-0.153767 13.3539 0)
(-0.0951553 13.1832 0)
(-0.0451973 12.5791 0)
(-0.0107011 10.7457 0)
(-0.122929 9.96052 0)
(-0.0907407 9.97169 6.84893e-19)
(-0.0641672 9.98088 -6.40996e-19)
(-0.0442287 9.98828 5.94214e-19)
(-0.0294181 9.99394 0)
(-0.0186402 9.99797 0)
(-0.0110131 10.0006 4.75727e-19)
(-0.00581604 10.0019 -4.41813e-19)
(-0.00248033 10.0024 1.75683e-23)
(-0.000549547 10.0021 1.90607e-19)
(0.000362614 10.0014 -1.77051e-19)
(0.000576969 10.0005 -1.64437e-19)
(0.000177161 10.0001 0)
(-0.161502 9.94749 0)
(-0.20904 9.93372 0)
(-0.266608 9.92023 0)
(-0.335396 9.90859 0)
(-0.416473 9.90094 0)
(-0.510574 9.9001 0)
(-0.617859 9.90967 0)
(-0.737634 9.93398 0)
(-0.867997 9.97801 0)
(-1.00544 10.0471 0)
(-1.1445 10.1464 0)
(-1.27755 10.2805 0)
(-1.39479 10.452 0)
(-1.48528 10.6599 0)
(-1.54288 10.8934 0)
(-1.56692 11.1397 0)
(-1.55607 11.3912 0)
(-1.52234 11.6578 0)
(-1.46206 11.935 0)
(-1.36511 12.198 0)
(-1.23153 12.442 0)
(-1.0808 12.6593 0)
(-0.937389 12.8489 0)
(-0.803609 13.0152 0)
(-0.680571 13.1606 0)
(-0.568557 13.2859 0)
(-0.467296 13.3896 0)
(-0.376107 13.4676 0)
(-0.294213 13.5132 0)
(-0.220444 13.5169 0)
(-0.154609 13.4619 0)
(-0.0956372 13.2829 0)
(-0.0453158 12.6614 0)
(-0.010956 10.8018 0)
(-0.159777 9.94324 0)
(-0.120161 9.95706 0)
(-0.0868011 9.96886 6.77005e-19)
(-0.0614292 9.97874 -1.25843e-18)
(-0.0422674 9.98667 1.16776e-18)
(-0.0280443 9.99272 -1.08382e-18)
(-0.0177247 9.99707 0)
(-0.0104484 9.9999 4.67034e-19)
(-0.00551075 10.0015 -4.336e-19)
(-0.00235728 10.002 -4.02803e-19)
(-0.000546234 10.0019 0)
(0.000307764 10.0012 1.73765e-19)
(0.000509256 10.0004 0)
(0.000152954 10.0001 0)
(-0.206477 9.92766 0)
(-0.263362 9.91171 0)
(-0.331444 9.89674 0)
(-0.411877 9.88463 0)
(-0.505594 9.87794 0)
(-0.613073 9.87996 0)
(-0.734083 9.89474 0)
(-0.867358 9.92704 0)
(-1.01023 9.98213 0)
(-1.15825 10.0655 0)
(-1.30492 10.182 0)
(-1.44153 10.3357 0)
(-1.55738 10.5282 0)
(-1.64104 10.7571 0)
(-1.68721 11.0094 0)
(-1.69667 11.2707 0)
(-1.68241 11.5502 0)
(-1.63987 11.8431 0)
(-1.55673 12.1238 0)
(-1.43864 12.3849 0)
(-1.28626 12.623 0)
(-1.12025 12.832 0)
(-0.965398 13.0124 0)
(-0.823167 13.1692 0)
(-0.693998 13.3053 0)
(-0.577561 13.4216 0)
(-0.473146 13.5167 0)
(-0.379752 13.587 0)
(-0.296359 13.6258 0)
(-0.221631 13.6236 0)
(-0.155177 13.5626 0)
(-0.0959555 13.3757 0)
(-0.0453646 12.7379 0)
(-0.0111552 10.8542 0)
(-0.204306 9.92229 0)
(-0.15614 9.93887 0)
(-0.11482 9.95351 0)
(-0.0830103 9.96616 1.32906e-18)
(-0.0586345 9.9767 -1.23351e-18)
(-0.0402353 9.98513 1.14491e-18)
(-0.0266182 9.99157 0)
(-0.0167724 9.99621 -4.93411e-19)
(-0.00985783 9.99927 0)
(-0.00518726 10.001 4.25581e-19)
(-0.00222292 10.0017 0)
(-0.00053329 10.0017 0)
(0.000258878 10.0011 0)
(0.000447638 10.0004 1.68919e-19)
(0.000131561 10 8.25e-20)
(-0.260188 9.90414 0)
(-0.327509 9.88619 0)
(-0.407202 9.87009 0)
(-0.500313 9.85815 0)
(-0.60757 9.85335 0)
(-0.729129 9.85945 0)
(-0.864268 9.88093 0)
(-1.01104 9.92294 0)
(-1.16592 9.99095 0)
(-1.32346 10.0903 0)
(-1.4761 10.2258 0)
(-1.61412 10.4003 0)
(-1.72603 10.6144 0)
(-1.80015 10.8642 0)
(-1.8323 11.1342 0)
(-1.84 11.4257 0)
(-1.81772 11.7341 0)
(-1.75054 12.033 0)
(-1.64408 12.3136 0)
(-1.50515 12.5698 0)
(-1.33485 12.7997 0)
(-1.15469 12.9989 0)
(-0.989454 13.1691 0)
(-0.839689 13.3158 0)
(-0.70514 13.4423 0)
(-0.584896 13.5495 0)
(-0.477802 13.6363 0)
(-0.382568 13.699 0)
(-0.297945 13.7311 0)
(-0.222454 13.7231 0)
(-0.155517 13.6565 0)
(-0.096138 13.462 0)
(-0.0453568 12.809 0)
(-0.011307 10.903 0)
(-0.257517 9.89742 0)
(-0.199616 9.91681 0)
(-0.149057 9.93445 1.51956e-18)
(-0.109705 9.95014 1.40926e-18)
(-0.0791507 9.96361 1.30713e-18)
(-0.0557488 9.97477 -1.21248e-18)
(-0.0381345 9.98368 0)
(-0.0251428 9.99049 0)
(-0.0157851 9.99541 0)
(-0.00924267 9.99869 8.99812e-19)
(-0.00484705 10.0006 4.17773e-19)
(-0.00207588 10.0014 3.87993e-19)
(-0.000512592 10.0015 0)
(0.000216484 10.001 -1.78487e-19)
(0.000392454 10.0004 -8.71999e-20)
(0.000112565 10 0)
(-0.323656 9.8768 0)
(-0.402523 9.85715 0)
(-0.494897 9.8405 0)
(-0.601648 9.82956 0)
(-0.723239 9.82777 0)
(-0.859412 9.83936 0)
(-1.00885 9.86924 0)
(-1.16883 9.92281 0)
(-1.33489 10.0056 0)
(-1.50056 10.1229 0)
(-1.65721 10.2787 0)
(-1.79422 10.475 0)
(-1.89949 10.7111 0)
(-1.96127 10.981 0)
(-1.99381 11.2835 0)
(-1.99475 11.607 0)
(-1.94618 11.9244 0)
(-1.85341 12.2255 0)
(-1.72361 12.5025 0)
(-1.56454 12.7513 0)
(-1.37741 12.9712 0)
(-1.18434 13.1592 0)
(-1.00984 13.3185 0)
(-0.853453 13.4549 0)
(-0.714239 13.5717 0)
(-0.590757 13.67 0)
(-0.481422 13.7485 0)
(-0.384672 13.8039 0)
(-0.299057 13.8295 0)
(-0.222973 13.8159 0)
(-0.155669 13.7438 0)
(-0.0962081 13.5422 0)
(-0.0453028 12.875 0)
(-0.01142 10.9484 0)
(-0.320441 9.86847 0)
(-0.251568 9.89059 0)
(-0.190393 9.91133 -3.21428e-18)