/*--------------------------------*- C++ -*----------------------------------*\
  =========                 |
  \\      /  F ield         | OpenFOAM: The Open Source CFD Toolbox
   \\    /   O peration     | Website:  https://openfoam.org
    \\  /    A nd           | Version:  8
     \\/     M anipulation  |
\*---------------------------------------------------------------------------*/
FoamFile
{
    version     2.0;
    format      ascii;
    class       surfaceScalarField;
    location    "0.03";
    object      phi;
}
// * * * * * * * * * * * * * * * * * * * * * * * * * * * * * * * * * * * * * //

dimensions      [0 3 -1 0 0 0 0];

internalField   nonuniform List<scalar> 
31053
(
6.40141e-07
1.27399e-05
8.63153e-07
1.5157e-05
3.57382e-07
1.23825e-05
9.4879e-07
1.75544e-05
5.67561e-07
1.49468e-05
2.7522e-07
1.21073e-05
9.73464e-07
2.02153e-05
6.82315e-07
1.74396e-05
4.71077e-07
1.4751e-05
2.1665e-07
1.18906e-05
9.64843e-07
2.32486e-05
7.41058e-07
2.01566e-05
5.97024e-07
1.73137e-05
3.96936e-07
1.45707e-05
1.72226e-07
1.17184e-05
9.34913e-07
2.66899e-05
7.66139e-07
2.32235e-05
6.72195e-07
2.00814e-05
5.24305e-07
1.71863e-05
3.32823e-07
1.44101e-05
1.37905e-07
1.15805e-05
8.89476e-07
3.06654e-05
7.69344e-07
2.66867e-05
7.14303e-07
2.31814e-05
6.05354e-07
2.00004e-05
4.54987e-07
1.70641e-05
2.78609e-07
1.42694e-05
1.10881e-07
1.14696e-05
8.31624e-07
3.51979e-05
7.57128e-07
3.06777e-05
7.34247e-07
2.66668e-05
6.53617e-07
2.31332e-05
5.36033e-07
1.99193e-05
3.91681e-07
1.69511e-05
2.31653e-07
1.41486e-05
8.83959e-08
1.13812e-05
7.65142e-07
4.03865e-05
7.3367e-07
3.52213e-05
7.38476e-07
3.06734e-05
6.79159e-07
2.66412e-05
5.85043e-07
2.30842e-05
4.69007e-07
1.9842e-05
3.32949e-07
1.68498e-05
1.89501e-07
1.40475e-05
6.86206e-08
1.13126e-05
6.92616e-07
4.63525e-05
7.00124e-07
4.042e-05
7.30866e-07
3.52289e-05
6.87976e-07
3.06646e-05
6.1103e-07
2.66153e-05
5.15481e-07
2.30377e-05
4.03507e-07
1.97714e-05
2.77045e-07
1.67622e-05
1.50346e-07
1.39658e-05
5.03967e-08
1.12622e-05
6.15891e-07
5.32167e-05
6.58017e-07
4.63946e-05
7.11756e-07
4.04391e-05
6.82998e-07
3.52339e-05
6.19907e-07
3.06557e-05
5.38738e-07
2.6592e-05
4.44671e-07
2.29965e-05
3.38318e-07
1.97102e-05
2.22559e-07
1.669e-05
1.1289e-07
1.39033e-05
3.30269e-08
1.12292e-05
5.3693e-07
6.1059e-05
6.09148e-07
5.32656e-05
6.81598e-07
4.64248e-05
6.67106e-07
4.0455e-05
6.15052e-07
3.52388e-05
5.44535e-07
3.06499e-05
4.62524e-07
2.65741e-05
3.71781e-07
2.29631e-05
2.72283e-07
1.96604e-05
1.68414e-07
1.66345e-05
7.6304e-08
1.386e-05
1.6073e-08
1.12131e-05
4.57591e-07
7.00613e-05
5.55088e-07
6.1113e-05
6.41486e-07
5.33057e-05
6.41265e-07
4.64506e-05
5.98704e-07
4.04714e-05
5.36334e-07
3.5247e-05
4.62433e-07
3.065e-05
3.81867e-07
2.65641e-05
2.95727e-07
2.29396e-05
2.04449e-07
1.96244e-05
1.13921e-07
1.65969e-05
3.99532e-08
1.38361e-05
-7.17818e-10
1.12138e-05
3.79572e-07
8.041e-05
4.9725e-07
7.01192e-05
5.9266e-07
6.11618e-05
6.05535e-07
5.33414e-05
5.71968e-07
4.64774e-05
5.16098e-07
4.04916e-05
4.47769e-07
3.52616e-05
3.73362e-07
3.06585e-05
2.95709e-07
2.65641e-05
2.15574e-07
2.29285e-05
1.34214e-07
1.96041e-05
5.8475e-08
1.65783e-05
3.40995e-09
1.3832e-05
-1.76433e-08
1.12314e-05
3.16751e-07
7.62528e-05
4.36933e-07
8.04703e-05
5.36558e-07
7.01753e-05
5.60232e-07
6.12071e-05
5.35117e-07
5.33783e-05
4.84819e-07
4.65086e-05
4.20382e-07
4.0519e-05
3.49456e-07
3.52855e-05
2.76304e-07
3.06779e-05
2.03064e-07
2.65766e-05
1.3069e-07
2.2932e-05
6.10153e-08
1.96016e-05
1.70461e-09
1.658e-05
-3.36744e-08
1.3848e-05
-3.48515e-08
1.12663e-05
2.63448e-07
7.62433e-05
3.85248e-07
7.63045e-05
4.74838e-07
8.05321e-05
5.06073e-07
7.02294e-05
4.88247e-07
6.1254e-05
4.42836e-07
5.34203e-05
3.8114e-07
4.65479e-05
3.11876e-07
4.05566e-05
2.40418e-07
3.53214e-05
1.70199e-07
3.07108e-05
1.0323e-07
2.6604e-05
4.04874e-08
2.29525e-05
-1.5388e-08
1.96187e-05
-5.66789e-08
1.6603e-05
-7.14483e-08
1.38846e-05
-5.22191e-08
1.13185e-05
2.18431e-07
7.6235e-05
3.38531e-07
7.629e-05
4.20199e-07
7.63591e-05
4.44265e-07
8.05939e-05
4.31664e-07
7.0286e-05
3.90229e-07
6.13066e-05
3.3033e-07
5.34711e-05
2.61362e-07
4.65984e-05
1.89609e-07
4.06074e-05
1.19532e-07
3.53721e-05
5.42676e-08
3.07598e-05
-4.40516e-09
2.66489e-05
-5.51997e-08
2.29924e-05
-9.51207e-08
1.96571e-05
-1.16694e-07
1.66483e-05
-1.09727e-07
1.39421e-05
-6.9809e-08
1.13883e-05
1.80603e-07
7.62298e-05
2.9638e-07
7.62772e-05
3.69521e-07
7.63407e-05
3.87919e-07
7.64155e-05
3.66225e-07
8.06593e-05
3.27146e-07
7.03491e-05
2.6802e-07
6.13689e-05
1.98097e-07
5.35343e-05
1.24462e-07
4.66636e-05
5.23854e-08
4.06745e-05
-1.40813e-08
3.54404e-05
-7.21348e-08
3.08275e-05
-1.20005e-07
2.67137e-05
-1.5634e-07
2.30536e-05
-1.78019e-07
1.97184e-05
-1.77983e-07
1.67165e-05
-1.48432e-07
1.40207e-05
-8.75957e-08
1.14759e-05
1.48998e-07
7.62216e-05
2.58415e-07
7.62678e-05
3.22754e-07
7.63239e-05
3.34649e-07
7.6394e-05
3.05932e-07
7.64758e-05
2.54246e-07
8.07322e-05
1.9433e-07
7.04228e-05
1.22108e-07
6.14449e-05
4.50209e-08
5.36138e-05
-3.08641e-08
4.67468e-05
-1.00797e-07
4.07612e-05
-1.61102e-07
3.55294e-05
-2.09181e-07
3.09167e-05
-2.43395e-07
2.68008e-05
-2.62562e-07
2.31381e-05
-2.63472e-07
1.98039e-05
-2.40174e-07
1.68083e-05
-1.87427e-07
1.41206e-05
-1.05207e-07
1.15811e-05
1.22781e-07
7.62162e-05
2.24292e-07
7.62557e-05
2.79781e-07
7.63108e-05
2.8485e-07
7.63737e-05
2.48592e-07
7.64513e-05
1.87006e-07
7.6543e-05
1.0989e-07
8.08166e-05
3.35239e-08
7.05114e-05
-4.87502e-08
6.15387e-05
-1.30342e-07
5.37133e-05
-2.05761e-07
4.68518e-05
-2.70655e-07
4.08708e-05
-3.21699e-07
3.56419e-05
-3.56532e-07
3.10298e-05
-3.73987e-07
2.69122e-05
-3.7299e-07
2.32476e-05
-3.50716e-07
1.99145e-05
-3.02876e-07
1.69237e-05
-2.26036e-07
1.42414e-05
-1.22218e-07
1.17033e-05
1.01149e-07
7.62116e-05
1.93667e-07
7.62468e-05
2.40468e-07
7.6295e-05
2.387e-07
7.63569e-05
1.94898e-07
7.64274e-05
1.23077e-07
7.65152e-05
3.2374e-08
7.66205e-05
-6.69377e-08
8.09171e-05
-1.56704e-07
7.06193e-05
-2.46171e-07
6.16545e-05
-3.29313e-07
5.38368e-05
-4.0099e-07
4.69821e-05
-4.57342e-07
4.10064e-05
-4.9535e-07
3.57807e-05
-5.13379e-07
3.11692e-05
-5.10632e-07
2.70499e-05
-4.86446e-07
2.33834e-05
-4.3893e-07
2.00505e-05
-3.65035e-07
1.70627e-05
-2.63446e-07
1.43826e-05
-1.38435e-07
1.18418e-05
8.46857e-08
6.95985e-05
1.66245e-07
7.62391e-05
2.0466e-07
7.62826e-05
1.96279e-07
7.63375e-05
1.45244e-07
7.64066e-05
6.3399e-08
7.64871e-05
-4.10199e-08
7.65886e-05
-1.58512e-07
7.67121e-05
-2.77961e-07
8.10384e-05
-3.78182e-07
7.07513e-05
-4.71688e-07
6.17969e-05
-5.52709e-07
5.39885e-05
-6.16682e-07
4.71414e-05
-6.60135e-07
4.11712e-05
-6.81014e-07
3.59484e-05
-6.78282e-07
3.13368e-05
-6.51714e-07
2.72151e-05
-6.0156e-07
2.3546e-05
-5.26596e-07
2.02121e-05
-4.25458e-07
1.72247e-05
-2.99166e-07
1.45434e-05
-1.53705e-07
1.19955e-05
7.21028e-08
6.25566e-05
1.438e-07
6.96209e-05
1.7223e-07
7.62715e-05
1.57617e-07
7.63213e-05
9.98665e-08
7.63828e-05
8.5702e-09
7.64614e-05
-1.09143e-07
7.65552e-05
-2.44714e-07
7.66748e-05
-3.87716e-07
7.68219e-05
-5.25292e-07
8.11855e-05
-6.32709e-07
7.09124e-05
-7.26194e-07
6.19704e-05
-8.00642e-07
5.41725e-05
-8.51908e-07
4.73332e-05
-8.77761e-07
4.1368e-05
-8.76929e-07
3.6147e-05
-8.49156e-07
3.15343e-05
-7.95306e-07
2.74089e-05
-7.1632e-07
2.37357e-05
-6.1214e-07
2.03988e-05
-4.83319e-07
1.74089e-05
-3.32783e-07
1.47224e-05
-1.67754e-07
1.21632e-05
6.23115e-08
5.62278e-05
1.25612e-07
6.25748e-05
1.45482e-07
6.96477e-05
1.22724e-07
7.63064e-05
5.89115e-08
7.63623e-05
-4.10199e-08
7.64324e-05
-1.71202e-07
7.65235e-05
-3.24203e-07
7.66347e-05
-4.90432e-07
7.67775e-05
-6.5765e-07
7.69542e-05
-8.11049e-07
8.13638e-05
-9.21273e-07
7.11074e-05
-1.00979e-06
6.21795e-05
-1.07197e-06
5.43926e-05
-1.10516e-06
4.75606e-05
-1.10809e-06
4.15991e-05
-1.08051e-06
3.63784e-05
-1.02352e-06
3.17625e-05
-9.38898e-07
2.76315e-05
-8.28738e-07
2.39523e-05
-6.94281e-07
2.06097e-05
-5.37773e-07
1.76139e-05
-3.63668e-07
1.49183e-05
-1.8031e-07
1.23435e-05
5.45759e-08
5.05397e-05
1.10766e-07
5.62426e-05
1.23702e-07
6.25966e-05
9.41503e-08
6.96762e-05
2.24759e-08
7.63428e-05
-8.51128e-08
7.64064e-05
-2.26646e-07
7.64879e-05
-3.95986e-07
7.65952e-05
-5.84566e-07
7.67288e-05
-7.80902e-07
7.69008e-05
-9.70759e-07
7.71139e-05
-1.13636e-06
8.15789e-05
-1.244e-06
7.13416e-05
-1.32114e-06
6.24287e-05
-1.36496e-06
5.46524e-05
-1.37388e-06
4.78264e-05
-1.34799e-06
4.18666e-05
-1.28871e-06
3.66436e-05
-1.19835e-06
3.20219e-05
-1.08002e-06
2.78827e-05
-9.36947e-07
2.4195e-05
-7.71684e-07
2.08436e-05
-5.87805e-07
1.7838e-05
-3.91316e-07
1.51294e-05
-1.91219e-07
1.25348e-05
4.83831e-08
4.54262e-05
9.85563e-08
5.05519e-05
1.0588e-07
5.62605e-05
7.11341e-08
6.26196e-05
-6.80421e-09
6.97055e-05
-1.23532e-07
7.63812e-05
-2.75093e-07
7.64548e-05
-4.59336e-07
7.65512e-05
-6.68913e-07
7.66796e-05
-8.93275e-07
7.68412e-05
-1.11891e-06
7.7049e-05
-1.32832e-06
7.73059e-05
-1.50141e-06
8.18363e-05
-1.59935e-06
7.16199e-05
-1.65827e-06
6.2722e-05
-1.67659e-06
5.49551e-05
-1.65438e-06
4.81328e-05
-1.59385e-06
4.21718e-05
-1.49795e-06
3.69432e-05
-1.37063e-06
3.23126e-05
-1.21617e-06
2.8162e-05
-1.03911e-06
2.44624e-05
-8.42925e-07
2.10987e-05
-6.32712e-07
1.80794e-05
-4.15391e-07
1.53535e-05
-2.00334e-07
1.27351e-05
4.33641e-08
4.0831e-05
8.84468e-08
4.54363e-05
9.12207e-08
5.05666e-05
5.25764e-08
5.6279e-05
-2.98551e-08
6.26426e-05
-1.53564e-07
6.97355e-05
-3.16276e-07
7.64224e-05
-5.13732e-07
7.65092e-05
-7.42549e-07
7.66249e-05
-9.93327e-07
7.67796e-05
-1.25346e-06
7.69758e-05
-1.50592e-06
7.72265e-05
-1.73066e-06
7.75351e-05
-1.90452e-06
8.21415e-05
-1.98517e-06
7.19468e-05
-2.0177e-06
6.30631e-05
-2.00256e-06
5.53033e-05
-1.94247e-06
4.84814e-05
-1.84149e-06
4.25153e-05
-1.70464e-06
3.72772e-05
-1.53718e-06
3.26336e-05
-1.34499e-06
2.84678e-05
-1.1334e-06
2.47529e-05
-9.07004e-07
2.1373e-05
-6.71915e-07
1.83359e-05
-4.3556e-07
1.55888e-05
-2.07158e-07
1.29423e-05
3.92481e-08
3.67001e-05
8.00361e-08
4.08394e-05
7.91052e-08
4.54484e-05
3.75982e-08
5.05816e-05
-4.79397e-08
5.62971e-05
-1.76403e-07
6.26655e-05
-3.4739e-07
6.97667e-05
-5.58801e-07
7.64675e-05
-8.04788e-07
7.65714e-05
-1.07991e-06
7.67114e-05
-1.3727e-06
7.68989e-05
-1.66679e-06
7.71367e-05
-1.9424e-06
7.74383e-05
-2.17598e-06
7.78066e-05
-2.34337e-06
8.24997e-05
-2.39751e-06
7.23266e-05
-2.39451e-06
6.34551e-05
-2.33811e-06
5.56989e-05
-2.23323e-06
4.88732e-05
-2.0866e-06
4.28972e-05
-1.90482e-06
3.76448e-05
-1.69512e-06
3.29837e-05
-1.46419e-06
2.87986e-05
-1.21839e-06
2.50643e-05
-9.63072e-07
2.16642e-05
-7.04848e-07
1.86052e-05
-4.51314e-07
1.58329e-05
-2.11137e-07
1.31534e-05
3.58362e-08
3.29894e-05
7.3016e-08
3.67071e-05
6.90612e-08
4.08495e-05
2.54923e-08
4.54605e-05
-6.20804e-08
5.05957e-05
-1.93569e-07
5.63143e-05
-3.69998e-07
6.26881e-05
-5.91593e-07
6.97994e-05
-8.55129e-07
7.65178e-05
-1.15215e-06
7.66437e-05
-1.47522e-06
7.6814e-05
-1.80892e-06
7.7041e-05
-2.13394e-06
7.73282e-05
-2.42658e-06
7.76889e-05
-2.66192e-06
7.81252e-05
-2.81363e-06
8.29158e-05
-2.83079e-06
7.27629e-05
-2.78323e-06
6.39002e-05
-2.67746e-06
5.61431e-05
-2.52162e-06
4.93082e-05
-2.3245e-06
4.33169e-05
-2.09509e-06
3.80448e-05
-1.84163e-06
3.33611e-05
-1.57189e-06
2.91521e-05
-1.29291e-06
2.53941e-05
-1.01032e-06
2.19697e-05
-7.30923e-07
1.88848e-05
-4.6064e-07
1.60824e-05
-1.89956e-07
1.33433e-05
3.29827e-08
2.96509e-05
6.71311e-08
3.29953e-05
6.07205e-08
3.67155e-05
1.56717e-08
4.08593e-05
-7.31027e-08
4.54715e-05
-2.06295e-07
5.06084e-05
-3.85976e-07
5.63302e-05
-6.14156e-07
6.27106e-05
-8.90406e-07
6.98347e-05
-1.20938e-06
7.65751e-05
-1.55992e-06
7.67284e-05
-1.9306e-06
7.69356e-05
-2.3029e-06
7.721e-05
-2.6532e-06
7.75548e-05
-2.95607e-06
7.7983e-05
-3.18389e-06
7.84954e-05
-3.30897e-06
8.3394e-05
-3.27885e-06
7.32585e-05
-3.17731e-06
6.44e-05
-3.01483e-06
5.66363e-05
-2.80222e-06
4.97859e-05
-2.55118e-06
4.3773e-05
-2.27205e-06
3.84752e-05
-1.97436e-06
3.37636e-05
-1.66657e-06
2.95258e-05
-1.35594e-06
2.57397e-05
-1.04802e-06
2.22868e-05
-7.48077e-07
1.91723e-05
-4.58602e-07
1.63511e-05
-1.69998e-07
1.35133e-05
3.05781e-08
2.66504e-05
6.21701e-08
2.96558e-05
5.37761e-08
3.30022e-05
7.66376e-09
3.67235e-05
-8.16744e-08
4.08679e-05
-2.15572e-07
4.54808e-05
-3.9684e-07
5.06193e-05
-6.28823e-07
5.63449e-05
-9.13262e-07
6.27335e-05
-1.24813e-06
6.98735e-05
-1.62593e-06
7.66411e-05
-2.03045e-06
7.68282e-05
-2.44721e-06
7.708e-05
-2.85306e-06
7.74098e-05
-3.22227e-06
7.7821e-05
-3.52612e-06
7.83253e-05
-3.73496e-06
7.89214e-05
-3.82265e-06
8.39378e-05
-3.73434e-06
7.38155e-05
-3.57013e-06
6.49553e-05
-3.34397e-06
5.71781e-05
-3.07028e-06
5.0305e-05
-2.76258e-06
4.42636e-05
-2.43284e-06
3.89337e-05
-2.0914e-06
3.41884e-05
-1.74697e-06
2.99168e-05
-1.40659e-06
2.60983e-05
-1.07459e-06
2.26133e-05
-7.55411e-07
1.94691e-05
-4.52569e-07
1.66336e-05
-1.98075e-07
1.37114e-05
2.85386e-08
2.3956e-05
5.79639e-08
2.66546e-05
4.79706e-08
2.96616e-05
1.10813e-09
3.30088e-05
-8.83282e-08
3.67301e-05
-2.22189e-07
4.08745e-05
-4.038e-07
4.54878e-05
-6.3748e-07
5.0628e-05
-9.26609e-07
5.63583e-05
-1.27176e-06
6.27571e-05
-1.66936e-06
6.99169e-05
-2.10738e-06
7.6718e-05
-2.56519e-06
7.69462e-05
-3.0237e-06
7.72506e-05
-3.45728e-06
7.76448e-05
-3.83629e-06
7.81312e-05
-4.12943e-06
7.87197e-05
-4.308e-06
7.94068e-05
-4.34654e-06
8.455e-05
-4.18978e-06
7.44352e-05
-3.9545e-06
6.55659e-05
-3.65931e-06
5.77671e-05
-3.321e-06
5.08634e-05
-2.95524e-06
4.4786e-05
-2.57508e-06
3.94173e-05
-2.19118e-06
3.46326e-05
-1.81202e-06
3.03222e-05
-1.44372e-06
2.64674e-05
-1.08967e-06
2.29475e-05
-7.58314e-07
1.97748e-05
-5.41832e-07
1.69774e-05
-1.80317e-07
1.38917e-05
2.67989e-08
2.15337e-05
5.4379e-08
2.39596e-05
4.30922e-08
2.66595e-05
-4.26881e-09
2.9667e-05
-9.34814e-08
3.30139e-05
-2.26767e-07
3.67347e-05
-4.07815e-07
4.08785e-05
-6.41625e-07
4.54919e-05
-9.32793e-07
5.06342e-05
-1.28387e-06
5.63704e-05
-1.69439e-06
6.27821e-05
-2.1569e-06
6.99664e-05
-2.65546e-06
7.68083e-05
-3.16304e-06
7.70855e-05
-3.65816e-06
7.74515e-05
-4.11066e-06
7.79192e-05
-4.48779e-06
7.84895e-05
-4.75854e-06
7.91703e-05
-4.89427e-06
7.99545e-05
-4.87223e-06
8.52324e-05
-4.63689e-06
7.51175e-05
-4.32394e-06
6.62305e-05
-3.95519e-06
5.84013e-05
-3.55024e-06
5.14584e-05
-3.12631e-06
4.53372e-05
-2.69687e-06
3.9923e-05
-2.27249e-06
3.50931e-05
-1.86091e-06
3.07394e-05
-1.46712e-06
2.68449e-05
-1.09761e-06
2.32868e-05
-9.27631e-07
2.01606e-05
-5.15721e-07
1.73128e-05
-1.72549e-07
1.40643e-05
2.53077e-08
1.93535e-05
5.13095e-08
2.15368e-05
3.89714e-08
2.39637e-05
-8.68682e-09
2.66639e-05
-9.74574e-08
2.9671e-05
-2.29794e-07
3.3017e-05
-4.09636e-07
3.67365e-05
-6.42443e-07
4.08793e-05
-9.33679e-07
4.54928e-05
-1.28738e-06
5.06377e-05
-1.70548e-06
5.63815e-05
-2.18418e-06
6.28094e-05
-2.71278e-06
7.00237e-05
-3.26936e-06
7.69146e-05
-3.82241e-06
7.72498e-05
-4.34581e-06
7.76866e-05
-4.80574e-06
7.82372e-05
-5.16914e-06
7.89001e-05
-5.40422e-06
7.96802e-05
-5.48456e-06
8.05668e-05
-5.39032e-06
8.59859e-05
-5.06825e-06
7.58618e-05
-4.67184e-06
6.69471e-05
-4.22673e-06
5.90778e-05
-3.75461e-06
5.20867e-05
-3.27347e-06
4.59138e-05
-2.79685e-06
4.04474e-05
-2.33469e-06
3.55669e-05
-1.89353e-06
3.11658e-05
-1.48009e-06
2.72273e-05
-1.35281e-06
2.3712e-05
-9.02837e-07
2.05478e-05
-4.97054e-07
1.76373e-05
-1.67165e-07
1.42314e-05
1.73973e-05
2.4024e-08
4.86705e-08
1.93561e-05
3.54733e-08
2.15403e-05
-1.23263e-08
2.39674e-05
-1.00509e-07
2.6667e-05
-2.31652e-07
2.96728e-05
-4.0985e-07
3.30172e-05
-6.40855e-07
3.67349e-05
-9.30731e-07
4.08764e-05
-1.2846e-06
4.549e-05
-1.7062e-06
5.06384e-05
-2.1946e-06
5.63919e-05
-2.74335e-06
6.284e-05
-3.33645e-06
7.00908e-05
-3.94787e-06
7.70401e-05
-4.53869e-06
7.74427e-05
-5.07927e-06
7.79602e-05
-5.53485e-06
7.86029e-05
-5.87071e-06
7.93666e-05
-6.05666e-06
8.02523e-05
-6.06858e-06
8.12451e-05
-5.89238e-06
8.681e-05
-5.47619e-06
7.66662e-05
-4.99249e-06
6.77129e-05
-4.46991e-06
5.97931e-05
-3.93135e-06
5.27446e-05
-3.39515e-06
4.65121e-05
-2.87442e-06
4.09871e-05
-2.37775e-06
3.60511e-05
-1.91234e-06
3.15981e-05
-1.83026e-06
2.77048e-05
-1.32901e-06
2.41382e-05
-8.78402e-07
2.09291e-05
-4.79489e-07
1.79496e-05
-1.61884e-07
1.43933e-05
1.73996e-05
4.63898e-08
2.78121e-05
2.19473e-08
3.24906e-08
1.93591e-05
-1.53332e-08
2.15433e-05
-1.02836e-07
2.39697e-05
-2.32634e-07
2.66679e-05
-4.0891e-07
2.96719e-05
-6.37575e-07
3.30139e-05
-9.25089e-07
3.67293e-05
-1.27734e-06
4.08691e-05
-1.6994e-06
4.54832e-05
-2.19254e-06
5.06363e-05
-2.75367e-06
5.64022e-05
-3.37165e-06
6.28752e-05
-4.02707e-06
7.017e-05
-4.68669e-06
7.7188e-05
-5.30478e-06
7.76682e-05
-5.85104e-06
7.82764e-05
-6.28816e-06
7.90203e-05
-6.58226e-06
7.98922e-05
-6.70481e-06
8.08885e-05
-6.63705e-06
8.19898e-05
-6.36962e-06
8.77034e-05
-5.85407e-06
7.75278e-05
-5.28114e-06
6.85241e-05
-4.6814e-06
6.05432e-05
-4.07855e-06
5.3428e-05
-3.49072e-06
4.71284e-05
-2.92955e-06
4.15389e-05
-2.40349e-06
3.65423e-05
-2.3695e-06
3.21373e-05
-1.80567e-06
2.81815e-05
-1.29976e-06
2.45596e-05
-8.51068e-07
2.13007e-05
-4.60927e-07
1.82487e-05
-1.56502e-07
1.45498e-05
1.74021e-05
2.99381e-08
2.78157e-05
4.27371e-08
2.8552e-05
1.99712e-08
-1.78253e-08
1.93616e-05
-1.04597e-07
2.15451e-05
-2.32969e-07
2.397e-05
-4.07163e-07
2.66662e-05
-6.33151e-07
2.96675e-05
-9.1763e-07
3.30065e-05
-1.267e-06
3.6719e-05
-1.68731e-06
4.0857e-05
-2.18146e-06
4.54722e-05
-2.749e-06
5.06317e-05
-3.38268e-06
5.64132e-05
-4.06859e-06
6.29167e-05
-4.78073e-06
7.02641e-05
-5.47906e-06
7.73623e-05
-6.11344e-06
7.79306e-05
-6.65124e-06
7.86394e-05
-7.05516e-06
7.94932e-05
-7.29216e-06
8.04796e-05
-7.33862e-06
8.15901e-05
-7.18015e-06
8.28003e-05
-6.81429e-06
8.86636e-05
-6.19625e-06
7.84429e-05
-5.53377e-06
6.93765e-05
-4.85893e-06
6.13235e-05
-4.19547e-06
5.41328e-05
-3.56008e-06
4.77589e-05
-2.96363e-06
4.20991e-05
-2.98233e-06
3.71551e-05
-2.34344e-06
3.26751e-05
-1.77022e-06
2.86519e-05
-1.26375e-06
2.49722e-05
-8.20212e-07
2.166e-05
-4.41874e-07
1.8534e-05
-1.51027e-07
1.47009e-05
1.74042e-05
-1.98993e-08
2.78192e-05
2.64182e-08
2.85555e-05
3.92312e-08
2.93119e-05
1.80981e-08
-1.05915e-07
1.93629e-05
-2.32835e-07
2.15449e-05
-4.04875e-07
2.39678e-05
-6.27999e-07
2.6661e-05
-9.0902e-07
2.96589e-05
-1.25466e-06
3.29941e-05
-1.67165e-06
3.67033e-05
-2.16409e-06
4.08396e-05
-2.73354e-06
4.54567e-05
-3.37581e-06
5.06248e-05
-4.08147e-06
5.64261e-05
-4.83064e-06
6.29666e-05
-5.59109e-06
7.03761e-05
-6.31819e-06
7.75671e-05
-6.95495e-06
7.82343e-05
-7.46927e-06
7.90535e-05
-7.82377e-06
8.00248e-05
-7.98973e-06
8.11307e-05
-7.94736e-06
8.23573e-05
-7.68914e-06
8.36752e-05
-7.21974e-06
8.96871e-05
-6.4979e-06
7.9407e-05
-5.74759e-06
7.02652e-05
-5.00147e-06
6.21295e-05
-4.28186e-06
5.48545e-05
-3.60431e-06
4.83996e-05
-3.68165e-06
4.27984e-05
-2.95472e-06
3.77664e-05
-2.30087e-06
3.32058e-05
-1.72436e-06
2.91125e-05
-1.22131e-06
2.53733e-05
-7.87241e-07
2.20053e-05
-4.22606e-07
1.88056e-05
-1.45271e-07
1.48461e-05
1.74052e-05
-1.06888e-07
2.7821e-05
-2.16594e-08
2.85588e-05
2.31277e-08
2.93152e-05
3.58777e-08
3.00898e-05
1.63292e-08
-2.32367e-07
1.93625e-05
-4.02247e-07
2.15423e-05
-6.22431e-07
2.39622e-05
-8.99764e-07
2.66518e-05
-1.24115e-06
2.96453e-05
-1.65374e-06
3.29762e-05
-2.14253e-06
3.66817e-05
-2.71057e-06
4.08167e-05
-3.35604e-06
4.54369e-05
-4.0731e-06
5.06164e-05
-4.8469e-06
5.64424e-05
-5.65193e-06
6.30274e-05
-6.45187e-06
7.05098e-05
-7.19468e-06
7.78068e-05
-7.81882e-06
7.85838e-05
-8.29283e-06
7.95226e-05
-8.58288e-06
8.0618e-05
-8.66341e-06
8.18467e-05
-8.52133e-06
8.31895e-05
-8.15638e-06
8.46118e-05
-7.58014e-06
9.07694e-05
-6.75554e-06
8.04149e-05
-5.92122e-06
7.11849e-05
-5.10857e-06
6.29562e-05
-4.33858e-06
5.55888e-05
-4.48219e-06
4.92001e-05
-3.65262e-06
4.34963e-05
-2.90453e-06
3.837e-05
-2.24382e-06
3.37252e-05
-1.66918e-06
2.95604e-05
-1.17444e-06
2.57605e-05
-7.52948e-07
2.23357e-05
-4.03494e-07
1.90638e-05
-1.39302e-07
1.49854e-05
1.74045e-05
-2.3167e-07
2.78193e-05
-1.05204e-07
2.85602e-05
-2.31273e-08
2.93183e-05
2.00667e-08
3.0093e-05
3.26791e-08
3.08897e-05
1.46648e-08
-3.9943e-07
1.93596e-05
-6.16681e-07
2.15366e-05
-8.90235e-07
2.39527e-05
-1.22706e-06
2.66377e-05
-1.63458e-06
2.96262e-05
-2.1184e-06
3.29521e-05
-2.68263e-06
3.66538e-05
-3.3273e-06
4.07879e-05
-4.04937e-06
4.54132e-05
-4.83809e-06
5.06076e-05
-5.67357e-06
5.6464e-05
-6.52671e-06
6.31023e-05
-7.35411e-06
7.06692e-05
-8.09834e-06
7.80863e-05
-8.69272e-06
7.89837e-05
-9.11051e-06
8.00502e-05
-9.32025e-06
8.12748e-05
-9.30268e-06
8.26281e-05
-9.05195e-06
8.40851e-05
-8.57505e-06
8.56067e-05
-7.89113e-06
9.1905e-05
-6.96723e-06
8.1461e-05
-6.05386e-06
7.21302e-05
-5.18088e-06
6.37985e-05
-5.40078e-06
5.65074e-05
-4.45222e-06
4.99997e-05
-3.59447e-06
4.41862e-05
-2.83518e-06
3.89614e-05
-2.17424e-06
3.42303e-05
-1.6071e-06
2.99931e-05
-1.1245e-06
2.61321e-05
-7.17929e-07
2.26501e-05
-3.84007e-07
1.93085e-05
-1.33144e-07
1.51186e-05
1.74016e-05
-3.96534e-07
2.78126e-05
-2.24903e-07
2.85581e-05
-1.0311e-07
2.93194e-05
-2.42892e-08
3.00958e-05
1.7239e-08
3.08927e-05
2.96398e-08
3.17096e-05
1.3104e-08
-6.10918e-07
1.93539e-05
-8.80704e-07
2.1527e-05
-1.21286e-06
2.39385e-05
-1.61493e-06
2.6618e-05
-2.0929e-06
2.96007e-05
-2.65168e-06
3.29211e-05
-3.29266e-06
3.66192e-05
-4.01494e-06
4.07535e-05
-4.8111e-06
4.53862e-05
-5.66584e-06
5.05999e-05
-6.55624e-06
5.64935e-05
-7.44655e-06
6.31947e-05
-8.28807e-06
7.08589e-05
-9.01704e-06
7.84107e-05
-9.56515e-06
7.94384e-05
-9.90959e-06
8.06396e-05
-1.00246e-05
8.19968e-05
-9.89806e-06
8.34742e-05
-9.53146e-06
8.50415e-05
-8.93995e-06
8.66555e-05
-8.15006e-06
9.30878e-05
-7.13172e-06
8.25388e-05
-6.14583e-06
7.30952e-05
-6.45618e-06
6.48539e-05
-5.37085e-06
5.7426e-05
-4.38587e-06
5.07911e-05
-3.51178e-06
4.48628e-05
-2.74963e-06
3.95368e-05
-2.09511e-06
3.47183e-05
-1.54004e-06
3.04086e-05
-1.07252e-06
2.64867e-05
-6.82165e-07
2.29483e-05
-3.63726e-07
1.95391e-05
-1.26636e-07
1.52452e-05
1.73959e-05
-6.05263e-07
2.77989e-05
-3.82908e-07
2.85509e-05
-2.1761e-07
2.9317e-05
-1.00625e-07
3.00966e-05
-2.51435e-08
3.08953e-05
1.4643e-08
3.17124e-05
2.67633e-08
3.25535e-05
1.16482e-08
-8.71369e-07
1.93445e-05
-1.19886e-06
2.1513e-05
-1.59531e-06
2.39188e-05
-2.06694e-06
2.65921e-05
-2.61919e-06
2.95682e-05
-3.25443e-06
3.28829e-05
-3.97345e-06
3.65777e-05
-4.77139e-06
4.07138e-05
-5.6367e-06
4.53571e-05
-6.55163e-06
5.05953e-05
-7.48707e-06
5.65341e-05
-8.40225e-06
6.33089e-05
-9.242e-06
7.10839e-05
-9.93941e-06
7.87849e-05
-1.04231e-05
7.99518e-05
-1.06782e-05
8.12932e-05
-1.06857e-05
8.27844e-05
-1.04408e-05
8.43836e-05
-9.95376e-06
8.60553e-05
-9.24777e-06
8.77532e-05
-8.35511e-06
9.43112e-05
-7.24897e-06
8.3642e-05
-7.66768e-06
7.43067e-05
-6.42795e-06
6.5911e-05
-5.2963e-06
5.83365e-05
-4.2888e-06
5.15681e-05
-3.40857e-06
4.55217e-05
-2.65149e-06
4.00932e-05
-2.00896e-06
3.51872e-05
-1.46957e-06
3.08056e-05
-1.01908e-06
2.68236e-05
-6.45652e-07
2.32302e-05
-3.43264e-07
1.97557e-05
-1.19891e-07
1.53651e-05
1.73869e-05
-8.62365e-07
2.77764e-05
-5.82758e-07
2.85365e-05
-3.68562e-07
2.93091e-05
-2.09735e-07
3.00937e-05
-9.77143e-08
3.08958e-05
-2.56905e-08
3.17148e-05
1.22786e-08
3.25562e-05
2.40472e-08
3.34194e-05
1.02945e-08
-1.18529e-06
1.9331e-05
-1.57612e-06
2.14938e-05
-2.04118e-06
2.38931e-05
-2.58625e-06
2.65591e-05
-3.21441e-06
2.95282e-05
-3.92768e-06
3.28371e-05
-4.72321e-06
3.65295e-05
-5.59248e-06
4.06696e-05
-6.52196e-06
4.53274e-05
-7.4882e-06
5.05964e-05
-8.45744e-06
5.65893e-05
-9.38254e-06
6.34495e-05
-1.02048e-05
7.13493e-05
-1.08523e-05
7.92141e-05
-1.12542e-05
8.05279e-05
-1.14054e-05
8.20128e-05
-1.12939e-05
8.36375e-05
-1.0924e-05
8.53538e-05
-1.03147e-05
8.71222e-05
-9.49598e-06
8.88941e-05
-8.50582e-06
9.5568e-05
-9.05671e-06
8.5031e-05
-7.64402e-06
7.55227e-05
-6.34561e-06
6.69603e-05
-5.18384e-06
5.92315e-05
-4.16611e-06
5.23257e-05
-3.28923e-06
4.61595e-05
-2.54396e-06
4.06282e-05
-1.91794e-06
3.56356e-05
-1.39685e-06
3.11834e-05
-9.64734e-07
2.71427e-05
-6.09085e-07
2.3496e-05
-3.23009e-07
1.99589e-05
-1.13078e-07
1.54782e-05
1.73739e-05
-1.17231e-06
2.77427e-05
-8.28603e-07
2.85131e-05
-5.59363e-07
2.92941e-05
-3.53541e-07
3.00854e-05
-2.01365e-07
3.08925e-05
-9.4406e-08
3.1715e-05
-2.5927e-08
3.25583e-05
1.01455e-08
3.34219e-05
2.14948e-08
3.43053e-05
9.04139e-09
-1.55763e-06
1.93125e-05
-2.01609e-06
2.14687e-05
-2.55366e-06
2.38605e-05
-3.1739e-06
2.65186e-05
-3.87973e-06
2.94802e-05
-4.66986e-06
3.27838e-05
-5.53814e-06
3.64752e-05
-6.47447e-06
4.06221e-05
-7.46016e-06
4.52993e-05
-8.46751e-06
5.06065e-05
-9.45663e-06
5.66633e-05
-1.03768e-05
6.36214e-05
-1.11635e-05
7.16605e-05
-1.17432e-05
7.97031e-05
-1.2047e-05
8.11695e-05
-1.20805e-05
8.27994e-05
-1.18411e-05
8.45546e-05
-1.13424e-05
8.63814e-05
-1.06109e-05
8.82372e-05
-9.68352e-06
9.00718e-05
-1.06462e-05
9.71575e-05
-9.04286e-06
8.64298e-05
-7.55537e-06
7.67325e-05
-6.217e-06
6.79935e-05
-5.03971e-06
6.01051e-05
-4.0231e-06
5.30596e-05
-3.15774e-06
4.67733e-05
-2.42989e-06
4.11401e-05
-1.82378e-06
3.60625e-05
-1.32293e-06
3.15416e-05
-9.10395e-07
2.7444e-05
-5.73015e-07
2.3746e-05
-3.03229e-07
2.0149e-05
-1.06321e-07
1.55845e-05
1.73563e-05
-1.54002e-06
2.76952e-05
-1.12486e-06
2.84782e-05
-7.93738e-07
2.92697e-05
-5.35024e-07
3.00696e-05
-3.37788e-07
3.08836e-05
-1.9245e-07
3.17113e-05
-9.06898e-08
3.25582e-05
-2.58605e-08
3.34238e-05
8.23729e-09
3.43076e-05
1.91042e-08
3.52192e-05
7.88758e-09
-1.99199e-06
1.92884e-05
-2.52197e-06
2.14371e-05
-3.13385e-06
2.38204e-05
-3.83118e-06
2.64701e-05
-4.61383e-06
2.94242e-05
-5.4775e-06
3.27231e-05
-6.41489e-06
3.64156e-05
-7.41118e-06
4.05731e-05
-8.44386e-06
4.52757e-05
-9.47946e-06
5.06293e-05
-1.04746e-05
5.67611e-05
-1.13723e-05
6.38301e-05
-1.21056e-05
7.20229e-05
-1.26001e-05
8.02562e-05
-1.279e-05
8.18789e-05
-1.26947e-05
8.3653e-05
-1.23214e-05
8.55336e-05
-1.16919e-05
8.74624e-05
-1.08408e-05
8.93944e-05
-1.21432e-05
9.15689e-05
-1.06509e-05
9.87655e-05
-8.95158e-06
8.7826e-05
-7.41084e-06
7.79263e-05
-6.04964e-06
6.90034e-05
-4.87032e-06
6.09523e-05
-3.86468e-06
5.37665e-05
-3.01771e-06
4.73611e-05
-2.31163e-06
4.1628e-05
-1.72807e-06
3.64676e-05
-1.24904e-06
3.18803e-05
-8.5679e-07
2.77278e-05
-5.37879e-07
2.39807e-05
-2.84093e-07
2.03268e-05
-9.97044e-08
1.56842e-05
1.73334e-05
-1.9691e-06
2.7631e-05
-1.47581e-06
2.84294e-05
-1.07606e-06
2.92338e-05
-7.57819e-07
3.00444e-05
-5.09817e-07
3.08672e-05
-3.21375e-07
3.17019e-05
-1.8303e-07
3.25541e-05
-8.65821e-08
3.34234e-05
-2.54876e-08
3.43093e-05
6.55176e-09
3.52214e-05
1.68715e-08
3.61551e-05
6.82967e-09
-2.49159e-06
1.9258e-05
-3.09494e-06
2.13982e-05
-3.78317e-06
2.37724e-05
-4.55698e-06
2.64132e-05
-5.41352e-06
2.93602e-05
-6.34766e-06
3.26559e-05
-7.34781e-06
3.63522e-05
-8.39575e-06
4.0525e-05
-9.46359e-06
4.52598e-05
-1.05145e-05
5.06692e-05
-1.14989e-05
5.68877e-05
-1.23565e-05
6.40811e-05
-1.30186e-05
7.24415e-05
-1.34109e-05
8.08772e-05
-1.34735e-05
8.26578e-05
-1.32411e-05
8.45728e-05
-1.27297e-05
8.65714e-05
-1.197e-05
8.85917e-05
-1.36233e-05
9.08745e-05
-1.2174e-05
9.3092e-05
-1.05635e-05
0.000100377
-8.79305e-06
8.92083e-05
-7.2193e-06
7.9096e-05
-5.85119e-06
6.99843e-05
-4.68163e-06
6.17693e-05
-3.69532e-06
5.44441e-05
-2.87221e-06
4.79217e-05
-2.19131e-06
4.20912e-05
-1.63236e-06
3.68509e-05
-1.17608e-06
3.21996e-05
-8.04544e-07
2.79944e-05
-5.03952e-07
2.42005e-05
-2.65695e-07
2.04928e-05
-9.32968e-08
1.57775e-05
1.73046e-05
-2.46275e-06
2.75468e-05
-1.88494e-06
2.83635e-05
-1.40983e-06
2.91834e-05
-1.02566e-06
3.00073e-05
-7.20672e-07
3.08411e-05
-4.83738e-07
3.16849e-05
-3.04333e-07
3.25442e-05
-1.7312e-07
3.3419e-05
-8.20914e-08
3.43087e-05
-2.48118e-08
3.52229e-05
5.08226e-09
3.61571e-05
1.47913e-08
3.6589e-05
5.87752e-09
-3.05766e-06
1.92207e-05
-3.73652e-06
2.13515e-05
-4.50068e-06
2.37161e-05
-5.34838e-06
2.63481e-05
-6.2762e-06
2.92887e-05
-7.27512e-06
3.25832e-05
-8.33055e-06
3.6287e-05
-9.41929e-06
4.04807e-05
-1.05104e-05
4.52557e-05
-1.15608e-05
5.07312e-05
-1.25174e-05
5.70485e-05
-1.33173e-05
6.43798e-05
-1.38904e-05
7.29209e-05
-1.41653e-05
8.15689e-05
-1.40898e-05
8.35065e-05
-1.37137e-05
8.55568e-05
-1.30627e-05
8.7664e-05
-1.50782e-05
9.00466e-05
-1.36899e-05
9.23904e-05
-1.20987e-05
9.46273e-05
-1.03954e-05
0.00010198
-8.57739e-06
9.05664e-05
-6.9897e-06
8.02345e-05
-5.62886e-06
7.09315e-05
-4.47914e-06
6.25531e-05
-3.51888e-06
5.50908e-05
-2.72395e-06
4.84543e-05
-2.0709e-06
4.25298e-05
-1.53777e-06
3.72126e-05
-1.1049e-06
3.24999e-05
-7.54068e-07
2.82445e-05
-4.71383e-07
2.44062e-05
-2.48117e-07
2.06476e-05
-8.71509e-08
1.58647e-05
1.72692e-05
-3.02229e-06
2.74393e-05
-2.35522e-06
2.82775e-05
-1.79903e-06
2.91159e-05
-1.34229e-06
2.99556e-05
-9.74022e-07
3.0803e-05
-6.82575e-07
3.1658e-05
-4.56842e-07
3.25265e-05
-2.86641e-07
3.34086e-05
-1.62742e-07
3.43038e-05
-7.72384e-08
3.52219e-05
-2.38331e-08
3.61584e-05
3.82626e-09
3.65909e-05
1.28784e-08
3.55528e-05
5.05418e-09
-3.69179e-06
1.9176e-05
-4.44591e-06
2.12967e-05
-5.2837e-06
2.36514e-05
-6.20307e-06
2.6275e-05
-7.19708e-06
2.92107e-05
-8.25406e-06
3.25067e-05
-9.35482e-06
3.62225e-05
-1.04734e-05
4.04438e-05
-1.15729e-05
4.52678e-05
-1.26066e-05
5.08204e-05
-1.35179e-05
5.72492e-05
-1.42419e-05
6.47313e-05
-1.47097e-05
7.34653e-05
-1.48545e-05
8.23336e-05
-1.46319e-05
8.44247e-05
-1.41082e-05
8.66024e-05
-1.6498e-05
8.90838e-05
-1.5192e-05
9.15486e-05
-1.36368e-05
9.39284e-05
-1.19298e-05
9.61617e-05
-1.0158e-05
0.00010356
-8.31505e-06
9.18917e-05
-6.73045e-06
8.13361e-05
-5.38927e-06
7.18417e-05
-4.2676e-06
6.33018e-05
-3.33877e-06
5.57056e-05
-2.5754e-06
4.89588e-05
-1.95178e-06
4.29438e-05
-1.44537e-06
3.75531e-05
-1.03605e-06
3.27819e-05
-7.05587e-07
2.84787e-05
-4.403e-07
2.45984e-05
-2.31422e-07
2.07919e-05
-8.1296e-08
1.59459e-05
1.72268e-05
-3.64934e-06
2.73056e-05
-2.88858e-06
2.81681e-05
-2.24575e-06
2.90278e-05
-1.71091e-06
2.98865e-05
-1.27316e-06
3.07501e-05
-9.21083e-07
3.16189e-05
-6.43462e-07
3.24989e-05
-4.2925e-07
3.33904e-05
-2.68419e-07
3.4293e-05
-1.51955e-07
3.52167e-05
-7.20507e-08
3.61571e-05
-2.25812e-08
3.65919e-05
2.79228e-09
3.55545e-05
1.1181e-08
3.45447e-05
4.33955e-09
-4.39334e-06
1.91234e-05
-5.22064e-06
2.12337e-05
-6.13018e-06
2.35786e-05