/*--------------------------------*- C++ -*----------------------------------*\
  =========                 |
  \\      /  F ield         | OpenFOAM: The Open Source CFD Toolbox
   \\    /   O peration     | Website:  https://openfoam.org
    \\  /    A nd           | Version:  8
     \\/     M anipulation  |
\*---------------------------------------------------------------------------*/
FoamFile
{
    version     2.0;
    format      ascii;
    class       volScalarField;
    location    "0.21";
    object      epsilon;
}
// * * * * * * * * * * * * * * * * * * * * * * * * * * * * * * * * * * * * * //

dimensions      [0 2 -3 0 0 0 0];

internalField   nonuniform List<scalar> 
15677
(
1.03519e+06
200524
125574
99917.9
83584.6
71221.9
62399.8
57730.4
57076.6
61106
70309.7
83830.6
97059.3
103161
101166
96830.3
94335
91591.3
87079.5
81535.8
75926.9
71449.6
68135.5
65848.8
64430.5
63760.6
63816.9
64287.7
65125.5
66029.5
66818
67373.3
67691.7
67840.6
67890.7
5.5188e+06
1.61298e+06
944268
695307
563820
481721
428600
400534
393197
410995
463466
500656
456823
330836
241560
186475
149446
127416
112378
104947
100888
98090.6
98983.4
102306
107142
111523
114812
116987
117941
117714
116570
114560
112127
109830
107764
2.99525e+06
1.24902e+06
853316
693431
621773
600419
621803
691839
802702
925532
1.0128e+06
963063
757786
513635
350646
246272
169373
114565
81774.8
70857.2
69449.4
74661.8
83091.2
92575.3
101889
110844
119098
126230
131680
134723
135223
132958
128605
123626
119049
616827
430509
412700
414364
418270
426033
438720
456170
474528
479929
466516
418446
352662
282528
221663
172055
132787
103420
82593.4
69890.3
65902.3
68660.4
76570.4
85931.7
93362.1
98867.9
102530
104338
104319
102856
100197
96890.3
93296.7
89679.9
86211.8
333487
130094
98155.4
82589.7
75504.6
73457
72480.3
71166.9
68335.7
63543.3
57909.3
50884.4
43599.9
37519.9
33729.6
31800
31553.2
33061.8
36715.4
42490.2
50788
60448.3
69868.7
77622.1
81418.9
81312.4
77523.6
71699
66167.5
61736.2
58262.2
55498.5
53258.5
51420.4
49903.7
552381
185356
127006
110407
107222
111253
114930
109991
89765.6
61772.1
39081.8
26465.7
20743.4
18828.1
19106
20432.3
22563.7
25396.4
28913.4
32849
36500.4
39026.8
40474
41114.2
41269.9
40962
40270.2
39374.5
38400.2
37441.4
36551.1
35756.6
35068.7
34487.5
34006.2
222586
123728
109626
114425
128545
132776
121562
92501.5
56726.5
31393.2
20533.7
16758.6
15521.5
15509.7
16372.8
17792.8
19674.7
21910.2
24397
27021.3
29673.3
31916.4
33272.3
33753.1
33577
32890
32006.1
31175.7
30469.4
29888.6
29412.4
29017.3
28685.2
28401.6
28154.6
21333
16480.1
17055
17155
15794.4
11967.4
9828.68
8698.44
8173.81
8084.41
8225.59
8453.59
8854.22
9598.1
10790.4
12368.7
14215.9
16194.6
18147.4
19898.4
21275.4
22222.7
22880.1
23354.9
23674.8
23864.2
23953.3
23975.2
23948.7
23889.9
23816.9
23739.7
23664.7
23593.7
23528.9
52790
16481
10003.4
7575.93
6306.18
5572.14
5147.11
4928.76
4866.68
4940.67
5157.35
5546.89
6159.55
7057.76
8164.54
9355.87
10633.1
11967.6
13324
14664.3
15939.9
17014.6
17803.5
18346.9
18694.6
18892.5
18991.5
19054
19102.4
19143.8
19180.2
19211.7
19238.1
19259
19269.6
34715.9
12966.2
8557.87
6722.16
5716
5095.74
4697.86
4450.96
4325.43
4307.76
4402.12
4626.04
5006.09
5587.08
6342.28
7194.22
8135.76
9131.03
10129.6
11069.3
11921.3
12672.6
13297.3
13798.9
14186.3
14480.4
14704.1
14878.3
15016
15126.4
15215.6
15288.2
15346.9
15395.1
15435
41843.8
14499.2
9276.1
7136.4
5947.53
5187.49
4669.72
4313.66
4083.39
3964.45
3950
4048.43
4274.19
4647.75
5144.67
5708.83
6335.64
7008.12
7711.13
8421.25
9109.37
9722.81
10227.3
10631.2
10948.5
11192.8
11376.8
11521.8
11642
11744.1
11831.6
11906.6
11971
12026.2
12073.3
27912.1
10498.1
6944.31
5450.03
4620.4
4096.92
3747.09
3512.25
3365.72
3296.9
3299.57
3381.2
3554.37
3834.52
4204.27
4623.85
5087.49
5572.8
6061.19
6547.61
7018.88
7450.32
7818.99
8127.25
8382.32
8592.14
8764.56
8906.88
9025.18
9124.26
9207.94
9279.25
9340.62
9394.01
9440.9
27542.2
10173.2
6712.06
5249.31
4419.38
3880.42
3508.19
3247.62
3072.09
2969.52
2933.73
2963.61
3064.69
3245.04
3490.67
3772.26
4089.17
4431.65
4789.89
5152.63
5512.74
5842.53
6126.19
6365.54
6565.7
6731.76
6868.43
6979.95
7073.23
7152.99
7222.06
7282.36
7335.33
7382.09
7423.5
21484.5
8196.34
5441.15
4268.1
3611.15
3193.63
2912.31
2720.58
2595.11
2525.3
2505.17
2535.01
2619.54
2764.34
2956.17
3169.63
3401.43
3645.64
3900.75
4164.49
4428.63
4675.55
4891.52
5076.72
5234.3
5367.79
5480.74
5576.48
5658.06
5728.02
5788.45
5841.02
5887.09
5927.78
5963.98
19084.9
7321.27
4906.86
3871.58
3281.64
2899.15
2636.11
2452.73
2328.92
2254.51
2224.22
2235.48
2290.48
2393.11
2534.25
2694.77
2871.77
3059.93
3255.14
3455.57
3657.64
3847.95
4015.94
4161.59
4287.02
4394.53
4486.39
4564.67
4631.24
4688.29
4737.97
4781.67
4820.38
4854.86
4885.68
16716.6
6454.9
4298.97
3372.68
2851.05
2518.52
2293.92
2139.97
2037.55
1977.23
1953.92
1965.12
2011.78
2095.65
2208.17
2334.8
2472.41
2618.27
2770.82
2927.84
3086.07
3236.59
3370.5
3487.56
3589.27
3677.33
3753.46
3819.3
3876.39
3926.06
3969.49
4007.64
4041.32
4071.19
4098.01
14264.4
5611.19
3795.05
3007.53
2557.29
2265.89
2066.37
1927.94
1834.71
1778.23
1753.97
1759.26
1794.39
1860.39
1949.99
2050.96
2161.85
2279.89
2402.94
2529.31
2657.11
2779.16
2888.39
2984.57
3068.83
3142.42
3206.58
3262.47
3311.16
3353.6
3390.6
3423.15
3452.02
3477.76
3500.81
13695.1
5227.45
3461.29
2708.61
2287.59
2020.87
1841.76
1719.54
1638.38
1590.07
1570.06
1575.3
1605.96
1662.46
1737.9
1821.79
1913.58
2011.23
2113.07
2217.65
2323.66
2425.22
2516.45
2597.15
2668.19
2730.55
2785.21
2833.11
2875.12
2912.01
2944.47
2973.11
2998.45
3020.95
3041.07
11241.5
4479.78
3041.68
2416.86
2060.82
1831.62
1675.49
1567.56
1494.88
1450.5
1430.65
1432.84
1456.87
1503.03
1565.76
1636.23
1713.55
1795.86
1881.74
1969.97
2059.5
2145.44
2222.89
2291.66
2352.46
2406.09
2453.32
2494.9
2531.51
2563.77
2592.22
2617.33
2639.55
2659.3
2676.82
11173.7
4288.23
2849.88
2236.7
1893.54
1676.1
1530.01
1430.16
1363.56
1323.26
1305.33
1307.07
1328.05
1368.16
1422.09
1482.55
1548.83
1619.38
1692.98
1768.64
1845.48
1919.35
1986.05
2045.41
2098.03
2144.55
2185.61
2221.85
2253.81
2282.02
2306.94
2328.96
2348.46
2365.73
2381.05
9774.71
3856.86
2601
2057.87
1749.86
1552.34
1418.13
1325.46
1262.92
1224.25
1205.99
1205.68
1222.6
1256.31
1302.62
1354.84
1412.21
1473.33
1537.11
1602.71
1669.38
1733.56
1791.59
1843.34
1889.3
1930.01
1966.03
1997.86
2025.99
2050.84
2072.81
2092.24
2109.44
2124.67
2138.16
9645.21
3710.9
2468.11
1937.31
1639.54
1450.4
1323.02
1235.59
1176.68
1139.93
1121.71
1119.61
1132.96
1161.59
1201.71
1247.25
1297.39
1350.87
1406.72
1464.17
1522.6
1578.89
1629.85
1675.35
1715.81
1751.71
1783.5
1811.63
1836.51
1858.51
1877.97
1895.19
1910.44
1923.95
1935.93
8887.77
3458.86
2314.05
1821.49
1543.26
1365.4
1244.85
1161.63
1105.01
1068.93
1050.11
1046.35
1056.77
1081.15
1116.11
1156.09
1200.27
1247.45
1296.74
1347.48
1399.11
1448.89
1494
1534.33
1570.24
1602.14
1630.42
1655.48
1677.66
1697.3
1714.69
1730.08
1743.72
1755.81
1766.53
8637.78
3319.5
2206.69
1731.41
1464.34
1294.09
1178.56
1098.39
1043.4
1007.88
988.634
983.509
991.504
1012.37
1043.04
1078.4
1117.61
1159.55
1203.41
1248.58
1294.57
1338.94
1379.2
1415.23
1447.36
1475.93
1501.31
1523.82
1543.77
1561.45
1577.12
1591.01
1603.32
1614.25
1623.95
8163.51
3151.87
2099.38
1648.32
1394.06
1231.37
1120.62
1043.41
990.088
955.192
935.65
929.428
935.422
953.349
980.418
1011.91
1046.97
1084.53
1123.86
1164.39
1205.68
1245.57
1281.8
1314.27
1343.27
1369.11
1392.09
1412.51
1430.64
1446.73
1461.02
1473.69
1484.95
1494.95
1503.83
7912.19
3035.61
2015.29
1579.33
1333.93
1177.02
1070.15
995.485
943.675
909.413
889.717
882.637
886.994
902.484
926.551
954.809
986.392
1020.31
1055.85
1092.52
1129.91
1166.08
1198.99
1228.53
1254.97
1278.58
1299.63
1318.37
1335.04
1349.88
1363.07
1374.8
1385.23
1394.51
1402.78
7601.69
2916.75
1936
1516.69
1280.43
1129.16
1025.95
953.635
903.22
869.58
849.807
842.043
845.051
858.512
880.073
905.628
934.315
965.188
997.595
1031.06
1065.24
1098.35
1128.54
1155.71
1180.09
1201.92
1221.43
1238.86
1254.41
1268.29
1280.66
1291.69
1301.53
1310.3
1318.12
7382.5
2822.05
1869.35
1462.74
1233.84
1087.3
987.227
916.989
867.833
834.786
815.003
806.703
808.605
820.384
839.859
863.167
889.45
917.807
947.624
978.464
1010.01
1040.64
1068.65
1093.93
1116.68
1137.13
1155.48
1171.93
1186.66
1199.85
1211.66
1222.22
1231.66
1240.11
1247.66
7164.19
2734.44
1809.48
1414.89
1192.73
1050.45
953.196
884.809
836.79
804.301
784.551
775.834
776.833
787.222
804.97
826.421
850.723
877.016
904.719
933.429
962.863
991.521
1017.8
1041.62
1063.15
1082.58
1100.09
1115.86
1130.05
1142.81
1154.27
1164.57
1173.83
1182.13
1189.59
6989
2660.11
1757.52
1372.94
1156.56
1017.98
923.195
856.453
809.461
777.493
757.814
748.776
749.042
758.289
774.618
794.545
817.23
841.85
867.854
894.868
922.638
949.769
974.749
997.483
1018.13
1036.86
1053.83
1069.19
1083.08
1095.64
1106.99
1117.23
1126.47
1134.8
1142.32
67808.7
67419.8
66664.8
65498.2
63889.2
61693.6
58747.7
54962.4
50374.2
45161.8
39611.9
34073.3
28922.5
24374.8
20473.7
17237.9
14680
12833.3
11497.5
10511
9808.34
9303.99
105117
101857
98618.8
95384.1
92129.4
88848.5
85530.6
82163.4
78745.9
75303
71904
68714.6
66098.8
64532.1
64492.8
65927.1
69444.7
74842.4
81304.3
87726.2
92759.5
95113.2
113962
107753
100929
94391.7
88619.5
83743.7
79739.9
76513.6
73956.6
71984.1
70551.7
69733.5
69517.7
69885.7
70944.1
72749
75292.9
78474.6
82124.5
86058.6
89998.9
93817.6
82097.2
77191.8
72498.6
68236.9
64609.9
61766.8
59746.7
58540.3
58080.3
58266.8
59025.9
60202.4
61604.5
63156.8
64869.6
66751.6
68784.1
70905.6
73102.1
75405.3
77971.3
80838.5
48437.7
46963.8
45625.4
44476.1
43565.3
42937.3
42632.3
42642.7
42994.9
43684
44691.8
45985.6
47496.6
49156.8
50898.2
52656
54399.5
56139.8
57896.5
59638.5
61325.6
62925.5
33598.8
33255.5
32969.8
32762.5
32657.3
32666.5
32814.1
33114.9
33578.6
34207.9
34992.9
35898.3
36859.4
37820.6
38754
39659.6
40529.4
41356.3
42134.3
42861
43537
44154.8
27943.4
27771.2
27624.7
27511.6
27437.4
27408.6
27431.6
27515
27664.7
27884.4
28176.4
28536.4
28944.2
29374.6
29811.5
30242.7
30659.3
31051.9
31411.5
31733.3
32022
32279.4
23527.2
23587.6
23646.1
23704.7
23766.6
23835
23912.3
24001.1
24102.9
24218.1
24348.6
24493.1
24644.7
24797.6
24949.1
25096.6
25238.2
25372.2
25497.1
25612.5
25719.1
25816.8
19362.1
19537.9
19705.9
19866.3
20019.3
20165.7
20306.2
20441.9
20573.5
20702
20828.3
20952.6
21071.8
21182.9
21285.6
21379.4
21464.1
21539.8
21606.5
21664.2
21714.5
21758.4
15570.6
15805.6
16036.9
16262.7
16482
16693.7
16896.6
17091.6
17279
17458.2
17628.7
17788.1
17932.2
18059.8
18172.6
18272.3
18360.3
18438
18506.6
18567.4
18621.4
18669.4
12215.1
12457.5
12700.2
12942.2
13182.4
13419.9
13653.7
13883
14106.9
14324.7
14535.7
14737.8
14925.4
15095.6
15249.7
15388.8
15514.4
15627.5
15729.4
15821.3
15904.2
15978.7
9572.98
9797.36
10025
10254.8
10485.6
10716.3
10946.3
11175.3
11402.8
11627.9
11849.6
12065.4
12268.9
12456.8
12630.3
12790.3
12937.8
13073.9
13199.4
13315.4
13422.6
13521.6
7537.54
7731.39
7929.96
8132.73
8339.23
8548.95
8761.3
8975.63
9191.32
9407.67
9623.97
9837.92
10043.2
10235.9
10416.7
10586.2
10745
10894
11033.6
11164.7
11287.7
11403
6059.89
6222.3
6390.01
6562.56
6739.52
6920.58
7105.69
7294.64
7487.08
7682.5
7880.26
8078.23
8270.53
8453.31
8626.89
8791.64
8947.95
9096.25
9236.96
9370.41
9497
9616.95
4965.83
5101.32
5241.85
5387.35
5537.82
5693.23
5853.52
6018.64
6188.5
6362.99
6541.7
6722.76
6900.62
7071.36
7234.95
7391.47
7541.11
7684.07
7820.6
7950.97
8075.43
8194.21
4165.43
4278.75
4396.81
4519.55
4646.95
4779.1
4916.17
5058.32
5205.67
5357.87
5514.44
5674.05
5832.05
5985.01
6132.85
6275.55
6413.14
6545.69
6673.32
6796.15
6914.33
7027.93
3558.24
3654.76
3755.44
3860.43
3969.96
4084.08
4202.64
4325.61
4453.14
4585.3
4722.07
4862.36
5002.11
5138.28
5270.74
5399.42
5524.29
5645.35
5762.62
5876.16
5986.03
6092.28
3090.44
3173.17
3259.66
3350.03
3444.41
3542.9
3645.62
3752.6
3863.9
3979.58
4099.71
4223.4
4347.16
4468.29
4586.66
4702.2
4814.84
4924.55
5031.31
5135.13
5236.02
5334
2719.86
2792
2867.43
2946.3
3028.73
3114.86
3204.82
3298.71
3396.63
3498.68
3604.94
3714.68
3824.84
3933.01
4039.07
4142.95
4244.58
4343.89
4440.87
4535.48
4627.72
4717.6
2419.03
2482.81
2549.53
2619.3
2692.27
2768.55
2848.29
2931.6
3018.63
3109.47
3204.24
3302.33
3401.02
3498.16
3593.64
3687.4
3779.34
3869.43
3957.6
4043.85
4128.13
4210.45
2171.94
2228.82
2288.36
2350.68
2415.88
2484.1
2555.47
2630.1
2708.13
2789.68
2874.88
2963.2
3052.22
3139.99
3226.43
3311.46
3395.01
3477.03
3557.46
3636.27
3713.44
3788.94
1966.22
2017.38
2070.95
2127.05
2185.79
2247.29
2311.67
2379.05
2449.56
2523.32
2600.46
2680.52
2761.32
2841.11
2919.79
2997.3
3073.57
3148.55
3222.19
3294.45
3365.31
3434.74
1793.86
1840.1
1888.57
1939.37
1992.6
2048.37
2106.8
2168
2232.1
2299.21
2369.46
2442.45
2516.19
2589.09
2661.07
2732.05
2801.98
2870.81
2938.49
3004.99
3070.27
3134.3
1648.74
1690.74
1734.8
1781
1829.46
1880.27
1933.54
1989.39
2047.93
2109.27
2173.55
2240.39
2307.99
2374.88
2440.99
2506.26
2570.63
2634.04
2696.46
2757.85
2818.18
2877.42
1526.44
1564.72
1604.89
1647.06
1691.32
1737.77
1786.51
1837.65
1891.3
1947.57
2006.57
2067.99
2130.17
2191.76
2252.68
2312.89
2372.31
2430.92
2488.66
2545.5
2601.41
2656.36
1423.51
1458.5
1495.24
1533.83
1574.37
1616.94
1661.64
1708.58
1757.86
1809.6
1863.9
1920.47
1977.8
2034.64
2090.92
2146.59
2201.59
2255.88
2309.41
2362.16
2414.09
2465.17
1337.25
1369.31
1402.99
1438.4
1475.6
1514.69
1555.77
1598.93
1644.28
1691.92
1741.96
1794.15
1847.09
1899.62
1951.69
2003.24
2054.23
2104.6
2154.31
2203.34
2251.65
2299.21
1265.44
1294.9
1325.86
1358.42
1392.63
1428.6
1466.41
1506.14
1547.91
1591.82
1637.97
1686.14
1735.04
1783.63
1831.83
1879.61
1926.91
1973.68
2019.9
2065.51
2110.5
2154.83
1206.23
1233.4
1261.96
1291.97
1323.52
1356.68
1391.53
1428.15
1466.65
1507.13
1549.7
1594.15
1639.31
1684.22
1728.83
1773.1
1816.97
1860.41
1903.38
1945.84
1987.75
2029.08
1158.05
1183.22
1209.66
1237.44
1266.62
1297.27
1329.46
1363.27
1398.79
1436.11
1475.36
1516.34
1558
1599.46
1640.68
1681.63
1722.27
1762.57
1802.5
1842.01
1881.06
1919.61
8953.03
8516.13
8035.83
7584.94
7212.51
6943.1
94818
89881.3
81024.3
70120.6
59287.7
50254.5
98108.4
103337
109373
116293
123835
131397
84033.8
87223
90124.4
92651.4
94712.3
96266.5
64286.8
65184.6
65720.5
65824.2
65483.2
64738.1
44482.9
44436.7
44223.4
43881.8
43451.5
42965
32332.4
32161.5
31951.2
31707.6
31441.2
31164.4
25779.9
25603.5
25408.2
25204.5
24998.3
24794.1
21694.7
21522.1
21348.7
21174.9
21002
20831.9
18619.3
18473.4
18325.4
18176.2
18025.2
17872.5
15954.4
15833.4
15710.9
15587.1
15462.9
15339.6
13524.9
13435.8
13345.2
13253.4
13160.7
13067.2
11428.9
11368.3
11306.4
11243
11178.3
11112.4
9656.78
9619
9579.68
9538.91
9496.74
9453.18
8242.45
8221.35
8198.22
8173.21
8146.38
8117.74
7079.48
7069.86
7058.31
7044.93
7029.76
7012.78
6144.4
6142.67
6138.99
6133.43
6126
6116.69
5384.46
5387.37
5388.48
5387.83
5385.43
5381.27
4765.5
4771.1
4775.02
4777.25
4777.81
4776.68
4255.28
4262.14
4267.44
4271.18
4273.36
4273.95
3830.62
3837.89
3843.7
3848.05
3850.94
3852.35
3473.35
3480.48
3486.26
3490.69
3493.75
3495.43
3170.02
3176.73
3182.19
3186.38
3189.3
3190.93
2910.47
2916.62
2921.61
2925.41
2928.02
2929.43
2686.96
2692.52
2696.98
2700.34
2702.57
2703.68
2493.54
2498.52
2502.47
2505.37
2507.22
2508.02
2325.55
2330
2333.46
2335.95
2337.44
2337.93
2179.3
2183.27
2186.31
2188.42
2189.59
2189.81
2051.83
2055.39
2058.06
2059.84
2060.72
2060.71
1940.75
1943.94
1946.29
1947.79
1948.44
1948.24
6823.55
6839.84
6956.34
7181
7506.57
7919.49
8381.96
8854.63
9302.68
9696.08
10008.9
10230
10365.4
10441.1
10489.9
10540
10613
10722.6
10874.7
11068.5
11304.8
11592
44863.4
41601.1
39296.8
37892.6
37176.9
36855.7
36675.6
36481.7
36209.5
35704.9
34822.6
33710.1
32548.5
31453.4
30369.3
29263.2
28185.1
27204.5
26444
25922.9
25614.3
25492
138298
144405
147949
147421
142630
133877
121953
108251
94609.1
82760
73579.6
67022.2
62153.8
58408.6
55576.1
53435.9
51818.1
50614.7
49753.7
49180
48874.1
48814.5
96919
96714.6
95850.2
94183.5
91830.5
89021.7
86096.1
83341.9
80906.9
78790
77222.3
76338.2
76187.9
75979.9
74914.7
73123.8
70766.3
68020.4
65486.4
63659.1
62680.7
62425.8
63502.2
61982.7
60468.4
59030.3
57733
56629.2
55762.4
55168.6
54879.3
54924
55042.4
55036.6
54858.8
54453.1
53868
53146.6
52338.1
51500.2
50687.5
49929.2
49220.8
48534.1
42256.4
41382.7
40544.7
39758.7
39039.2
38397
37838.4
37364.7
36967.8
36626.2
36308.1
35984.1
35640
35273.9
34880
34461.5
34023.3
33568.4
33115.5
32676.9
32257.2
31857.8
30750.9
30227.7
29730.5
29261.6
28823.2
28416.2
28040.1
27692.3
27368.9
27064.8
26774.8
26497
26236.5
25996.2
25774.7
25570.5
25381.7
25204.2
25029.7
24860
24697.3
24541.4
24506.5
24140.3
23783.1
23435.8
23098.7
22771.9
22454.9
22147
21846.8
21552.9
21263.6
20979.2
20705.5
20445.9
20197.9
19959.2
19727.8
19500.9
19275.2
19046.3
18811.9
18570.6
20593.5
20288
19984
19680.8
19378.5
19077.1
18776.3
18475.9
18175.4
17874.3
17571.9
17269.3
16974
16690.3
16416.5
16151.1
15892.7
15640.4
15393
15149.8
14910.2
14674.1
17654.5
17372.4
17087.6
16800.5
16511.7
16221.7
15930.4
15637.7
15343
15046
14745.9
14443.9
14147.5
13861.6
13584.9
13316.4
13055.1
12800.1
12550.6
12305.9
12065.6
11829.3
15148.6
14889.9
14627.9
14362.5
14093.9
13822.3
13547.5
13269.4
12988.1
12703.7
12416.3
12128
11846.1
11575.4
11314.9
11063.7
10821.2
10586.6
10359.5
10139.4
9926
9719.13
12903.7
12671.8
12437.9
12202
11964.3
11724.6
11482.6
11238
10990.6
10740.1
10486.2
10230.4
9979.5
9737.96
9505.1
9280.25
9062.89
8852.57
8648.98
8452.26
8262.37
8079.18
10976.7
10773.6
10569.1
10363
10155.1
9945.37
9733.54
9519.46
9302.95
9083.78
8861.71
8638.08
8418.59
8207.92
8005.79
7811.7
7625.28
7446.22
7274.26
7109.15
6950.59
6798.33
9343.81
9170.53
8995.98
8820.04
8642.62
8463.62
8282.94
8100.49
7916.17
7729.86
7541.4
7351.83
7165.75
6986.73
6814.6
6649.17
6490.22
6337.49
6190.73
6049.7
5914.15
5784.05
8027.86
7878.95
7728.75
7577.1
7423.95
7269.22
7112.87
6954.82
6795.06
6633.59
6470.49
6306.66
6146.37
5992.56
5844.84
5702.83
5566.37
5435.33
5309.47
5188.54
5072.26
4960.43
6939.7
6812.36
6683.84
6554.05
6422.89
6290.27
6156.09
6020.21
5882.49
5742.99
5601.82
5460.25
5321.87
5189.06
5061.37
4938.43
4819.92
4705.61
4595.37
4489.07
4386.69
4288.2
6056.35
5946.63
5835.76
5723.63
5610.16
5495.25
5378.82
5260.78
5141.09
5019.7
4896.57
4772.46
4650.52
4532.89
4419.21
4309.53
4203.9
4102.24
4004.33
3909.95
3818.92
3731.15
5330.78
5235.24
5138.48
5040.41
4940.95
4840.02
4737.54
4633.42
4527.59
4419.95
4310.39
4199.61
4090.53
3985.24
3883.64
3785.64
3691.14
3600
3512.09
3427.29
3345.51
3266.7
4733.4
4649
4563.31
4476.25
4387.75
4297.71
4206.08
4112.75
4017.67
3920.74
3821.9
3721.82
3623.22
3528.05
3436.2
3347.56
3262.05
3179.57
3100.02
3023.32
2949.39
2878.15
4236.05
4160.4
4083.39
4004.97
3925.07
3843.6
3760.52
3675.75
3589.24
3500.94
3410.81
3319.51
3229.54
3142.7
3058.9
2978.08
2900.14
2825.04
2752.69
2683.04
2616.02
2551.59
3818.42
3749.68
3679.57
3608.03
3535.01
3460.45
3384.3
3306.53
3227.1
3145.99
3063.19
2979.33
2896.74
2817.07
2740.28
2666.29
2595.05
2526.51
2460.6
2397.28
2336.47
2278.13
3464.49
3401.34
3336.84
3270.93
3203.58
3134.75
3064.42
2992.56
2919.16
2844.23
2767.79
2690.42
2614.31
2540.99
2470.41
2402.53
2337.28
2274.62
2214.48
2156.81
2101.53
2048.58
3162.33
3103.82
3044
2982.83
2920.3
2856.39
2791.07
2724.36
2656.27
2586.8
2516.01
2444.46
2374.17
2306.58
2241.63
2179.28
2119.48
2062.15
2007.25
1954.71
1904.46
1856.43
2902.73
2848.18
2792.39
2735.34
2677.03
2617.45
2556.59
2494.49
2431.16
2366.63
2300.96
2234.7
2169.73
2107.37
2047.57
1990.28
1935.43
1882.97
1832.84
1784.95
1739.24
1695.64
2678.6
2627.53
2575.31
2521.93
2467.4
2411.73
2354.93
2297.02
2238.05
2178.06
2117.11
2055.72
1995.64
1938.1
1883.03
1830.38
1780.08
1732.06
1686.26
1642.59
1600.99
1561.37
2484.35
2436.42
2387.43
2337.41
2286.35
2234.27
2181.21
2127.19
2072.26
2016.48
1959.91
1903.05
1847.51
1794.43
1743.72
1695.34
1649.2
1605.23
1563.36
1523.51
1485.6
1449.55
2315.56
2270.51
2224.53
2177.61
2129.78
2081.06
2031.5
1981.12
1929.98
1878.15
1825.68
1773.04
1721.73
1672.78
1626.11
1581.64
1539.31
1499.03
1460.72
1424.31
1389.71
1356.84
2168.65
2126.31
2083.14
2039.14
1994.36
1948.82
1902.56
1855.62
1808.07
1759.96
1711.35
1662.68
1615.32
1570.21
1527.26
1486.4
1447.54
1410.6
1375.5
1342.16
1310.51
1280.46
2040.72
2000.95
1960.45
1919.24
1877.35
1834.84
1791.73
1748.08
1703.95
1659.37
1614.43
1569.49
1525.83
1484.29
1444.77
1407.2
1371.5
1337.57
1305.34
1274.74
1245.69
1218.11
1929.4
1892.07
1854.11
1815.57
1776.47
1736.88
1696.82
1656.34
1615.49
1574.31
1532.84
1491.42
1451.22
1412.99
1376.63
1342.05
1309.18
1277.94
1248.25
1220.05
1193.27
1167.85
11866.5
12099.6
12390.9
12745.6
13162.5
13633
14144.7
14687.9
15262.8
15886.9
16593.3
17427.4
18590.3
20373.7
23173.6
27228.3
32662.2
39933.1
49604.1
62194.9
78055.3
97484
116362
130712
145352
159313
167647
169956
169246
168652
170784
179795
208866
338456
1.55743e+06
25485.4
25484.7
25551.2
25706
25971.5
26371.9
26931.1
27674.4
28631.6
29841.4
31363.1
33280.5
35726.9
38904.2
43151.4
48876.9
56609.6
67094.6
82053.7
107238
146535
195235
238955
300947
434776
655212
855379
921555
874333
836106
844125
922047
1.16574e+06
1.93246e+06
6.44758e+06
48901.6
48970
49153.8
49492.9
50032.4
50830.7
51953.2
53452.6
55335.6
57617.9
60334.7
63466.5
66995.6
71061.8
75726.9
80818
85969.1
90898.4
96347.1
103131
117335
147993
215074
360241
659858
1.19314e+06
1.79545e+06
2.27147e+06
2.48998e+06
2.49627e+06
2.41162e+06
2.33658e+06
2.36307e+06
2.78957e+06
6.16392e+06
62710.1
63173.1
63951.5
65125.4
66785.4
69021.7
71867.3
74892.4
76113.7
75494.1
73180.8
70030
67237.6
66010.7
67140.8
71814.8
81070.2
100238
136405
198342
277140
341895
367706
432526
547091
682485
816161
940838
1.03307e+06
1.09052e+06
1.12488e+06
1.15844e+06
1.23039e+06
1.47189e+06
2.75819e+06
48103.1
47902
47698
47465
47146.8
46659.2
45910.7
44887.7
43633.2
42208
40728.5
39432.3
38844.4
39914.9
44825.4
56682.8
76289.7
107652
155308
220456
302443
351964
348073
324127
311481
308665
305683
298741
290682
283340
277002
273125
276234
307075
558591
31649.2
31604.2
31557.7
31509.7
31457.7
31394.4
31298
31133.9
30856.2
30390.4
29654.2
28608
27403
26629.5
27028.1
29858.5
35605.7
45191.9
59611.1
79974.6
104820
132290
147561
143961
137355
129485
121239
113234
106199
100269
95591.7
92914.9
94641.5
111770
248691
24488.1
24520.7
24550.8
24593
24659
24752.4
24855.3
24900.1
24743.7
24152.5
23100.1
21727.8
20209.7
18749.4
17600.5
17054.4
17200.1
18058.6
19814.2
23184.5
30256.3
43642.5
59012.7
67389.8
68370
64488.6
58853.7
54396.8
50772.9
47764.9
45383.2
44024.1
44402
50407.3
93464.2
18423.6
18369.4
18297.8
18203.5
18079.4
17918.2
17714.2
17459.7
17148
16767
16304.7
15752.3
15118.7
14475
14009.1
14074.5
14717
15597.9
15880.5
15430.6
15401.6
16945
18694.4
19275.5
18948.1
18365.7
17527.5
16518.1
15413
14257.3
13196.1
12327.2
11915
12517.2
19745
14529.8
14468.7
14396.9
14312.9
14214.6
14099.8
13962.8
13793.7
13568.7
13249.9
12825.7
12295.3
11675.1
11004
10339.4
9765.88
9341.16
9064.02
8831.64
8549.04
8389.43
8316.83
8087.22
7598.71
7144.9
6833.21
6671.99
6642.9
6748.75
7046.69
7638.93
8756.6
11083.5
17709.6
57338.6
11676.6
11599.7
11511.2
11409.2
11291.4
11154.6
10994.4
10805.1
10580
10311.4
9991.72
9615.73
9182.4
8693.61
8161.75
7629.42
7132.79
6676.63
6259.02
5879.97
5546.97
5261.24
5051.49
4935.37
4927.56
5026.62
5223.03
5507.48
5879.72
6354.55
6983.25
7906.81
9534.79
13514.1
32944.1
9588.14
9522.99
9448.53
9363.55
9266.67
9156.17
9029.89
8884.71
8716.45
8518.14
8279.64
7988.81
7642.26
7239.05
6787.77
6326.78
5892.76
5496.57
5152.44
4869.72
4646.37
4477.02
4398.16
4439.79
4600.96
4887.54
5300.34
5843.56
6532.71
7404.88
8549.17
10193.9
13018.2
19879.4
58072.6
7962.97
7905
7839.35
7764.99
7680.63
7584.7
7475.22
7349.78
7205.37
7038.28
6844.02
6617.9
6356
6055.61
5719.2
5369.07
5030.65
4712.24
4420.23
4161.76
3944.62
3773.83
3681.35
3684.62
3781.57
3984.92
4304.09
4751.16
5348.42
6131
7166.73
8612.51
10925.8
15988.1
41658.5
6704.14
6659.87
6609.53
6552.37
6487.5
6413.8
6329.62
6233.32
6122.76
5994.13
5842.35
5664.57
5457.3
5217.72
4947.07
4663.17
4384.94
4118.75
3871.4
3650.62
3465.51
3324.33
3259.94
3285.71
3402.23
3613.71
3923.07
4336.77
4867.04
5539.06
6409.99
7623.46
9603.35
14127.4
37658.9
5704.32
5668.39
5627.56
5581.09
5528.12
5467.54
5398.13
5318.3
5226.19
5119.53
4995.73
4851.99
4685.48
4493.81
4277.16
4048.08
3820.2
3599.27
3391.36
3202.42
3038.8
2906.06
2829.61
2821.95
2881.17
3016.12
3237.21
3559.36
4006
4612.13
5439.58
6622.66
8544.94
12783.6
33386.2
4892.95
4864.3
4831.6
4794.22
4751.5
4702.66
4646.71
4582.32
4507.56
4420.09
4318.08
4199.53
4062.19
3904.79
3726.35
3537.3
3349.07
3165.68
2991.35
2830.68
2689.38
2572.28
2501.84
2489.37
2534.62
2640.03
2809.34
3048.89
3369.87
3792.09
4357.26
5163.57
6488.76
9465.73
24001
4229.13
4204.85
4177.17
4145.55
4109.37
4067.86
4020.1
3965
3901.24
3827.28
3741.45
3641.91
3526.7
3394.5
3245.06
3087.04
2929.81
2775.69
2627.1
2487.9
2363.17
2256.13
2184.05
2156.51
2172.54
2233.43
2345.42
2515.86
2759.36
3102.57
3596.93
4355.79
5685.18
8755.39
23554.2
3678.85
3658.12
3634.53
3607.66
3576.99
3541.89
3501.51
3454.68
3400.31
3337.28
3264.29
3179.91
3082.61
2970.93
2844.62
2711.34
2578.31
2447.81
2322.27
2204.66
2098.66
2006.69
1942.95
1914.96
1921.66
1963.39
2042.59
2164.45
2337.91
2579.37
2921.5
3436.71
4320.1
6335.7
15723.4
3219.89
3201.74
3181.16
3157.74
3130.92
3100.17
3064.84
3024.13
2977.16
2922.92
2860.26
2787.96
2704.73
2609.32
2501.54
2387.57
2274.33
2163.12
2055.77
1954.41
1861.32
1778.68
1718.44
1687.51
1685.26
1711.12
1768.52
1862.46
2002.28
2205.96
2508.47
2986.28
3843.85
5872.43
15731.8
2836.04
2820.04
2801.85
2781.19
2757.69
2730.82
2699.92
2664.36
2623.42
2576.27
2522
2459.6
2388.02
2306.23
2214.15
2116.9
2019.98
1924.76
1832.82
1746.02
1666.65
1596.01
1544.19
1517.19
1514.45
1536.16
1584.77
1664.37
1782.38
1952.62
2201.37
2585.33
3254.54
4785.01
11865.3
2513.72
2499.61
2483.56
2465.28
2444.44
2420.62
2393.37
2362.12
2326.27
2285.11
2237.85
2183.67
2121.68
2051.04
1971.69
1888.03
1804.71
1722.88
1643.88
1569.22
1500.76
1439.26
1393.52
1369.25
1366.23
1384.66
1427.13
1497.72
1603.79
1759.27
1991.17
2358.22
3016.92
4572.23
12088.5
2243.95
2231.37
2217.07
2200.79
2182.24
2161.08
2136.91
2109.27
2077.65
2041.45
2000.04
1952.71
1898.72
1837.37
1768.64
1696.35
1624.45
1553.92
1485.88
1421.64
1362.89
1310.55
1272.26
1252.79
1252.12
1270.71
1310.92
1376.33
1473.47
1614.2
1821.26
2143.59
2710.41
4017.64
10149
2017.64
2006.32
1993.49
1978.93
1962.36
1943.5
1922.01
1897.48
1869.48
1837.52
1801.03
1759.44
1712.14
1658.52
1598.61
1535.73
1473.32
1412.18
1353.28
1297.76
1247.12
1202.21
1169.63
1153.58
1154.28
1172.33
1210.2
1271.37
1362.18
1494.25
1690.05
1998.31
2548.67
3842
10051.7
1828.4
1818.16
1806.56
1793.43
1778.51
1761.57
1742.31
1720.37
1695.4
1666.97
1634.6
1597.81
1556.07
1508.91
1456.34
1401.29
1346.77
1293.45
1242.17
1193.96
1150.16
1111.67
1084.44
1072.12
1074.82
1093.61
1130.65
1189.24
1275.25
1399.32
1581.82
1866.78
2370.79
3542.68
9105.27
1670.18
1660.82
1650.24
1638.29
1624.75
1609.41
1592
1572.24
1549.79
1524.29
1495.36
1462.56
1425.46
1383.65
1337.17
1288.61
1240.62
1193.77
1148.8
1106.65
1068.53
1035.35
1012.52
1003.26
1007.77
1026.95
1062.84
1118.57
1199.93
1317.27
1490.38
1762.02
2245.75
3380.73
8826.69
1538.18
1529.53
1519.78
1508.78
1496.35
1482.3
1466.4
1448.4
1428.02
1404.94
1378.83
1349.32
1316.04
1278.65
1237.2
1194.01
1151.4
1109.89
1070.13
1032.96
999.527
970.723
951.492
944.721
950.638
970.241
1005.48
1059.41
1137.46
1249.46
1414.11
1671.44
2127.58
3192.74
8274.51
1428.34
1420.23
1411.12
1400.85
1389.29
1376.26
1361.56
1344.96
1326.24
1305.11
1281.28
1254.45
1224.3
1190.53
1153.2
1114.41
1076.23
1039.11
1003.63
970.563
940.972
915.755
899.457
894.68
901.683
921.544
956.142
1008.43
1083.69
1191.3
1349.14
1595.87
2034.23
3062.2
7996.12
1337.34
1329.61
1320.94
1311.21
1300.28
1288.01
1274.21
1258.69
1241.25
1221.65
1199.64
1174.95
1147.32
1116.47
1082.5
1047.29
1012.72
979.19
947.216
917.509
891.066
868.781
854.868
851.693
859.536
879.544
913.517
964.343
1037.12
1140.86
1292.73
1529.81
1950.61
2936.15
7654.83
1262.41
1254.9
1246.5
1237.1
1226.59
1214.83
1201.67
1186.93
1170.44
1152
1131.38
1108.36
1082.7
1054.19
1022.9
990.585
958.94
928.319
899.197
872.229
848.356
828.461
816.482
814.588
823.071
843.132
876.497
925.99
996.556
1096.92
1243.73
1472.9
1880.06
2835.46
7420.57
1201.26
1193.81
1185.51
1176.26
1165.96
1154.49
1141.7
1127.47
1111.63
1093.99
1074.39
1052.62
1028.48
1001.77
972.595
942.579
913.275
884.997
858.178
833.43
811.642
793.687
783.272
782.399
791.366
811.416
844.21
892.514
961.138
1058.55
1200.87
1422.93
1817.39
2743.17
7186.87
1151.96
1144.41
1136.05
1126.77
1116.48
1105.08
1092.46
1078.47
1063
1045.88
1026.95
1006.06
983.02
957.671
930.108
901.876
874.413
847.994
823.016
800.052
779.947
763.56
754.403
754.338
763.666
783.656
815.911
863.145
930.048
1024.87
1163.31
1379.3
1763.19
2665.23
7001.26
6808.81
2585.7
1706.05
1331.57
1120.95
986.037
893.701
828.593
782.63
751.205
731.632
722.317
721.937
730.149
745.19
763.743
784.983
808.121
832.639
858.192
884.556
910.428
934.368
956.276
976.292
994.559
1011.22
1026.39
1040.21
1052.78
1064.21
1074.59
1084.01
1092.55
1100.29
6639.94
2514.86
1656.72
1291.82
1086.7
955.314
865.349
801.834
756.89
726.022
706.601
697.072
696.161
703.492
717.438
734.835
754.876
776.811
800.153
824.585
849.917
874.917
898.196
919.641
939.373
957.514
974.181
989.484
1003.52
1016.39
1028.17
1038.94
1048.79
1057.77
1065.96
6492.77
2453.15
1613.76
1257.22
1056.91
928.611
840.725
778.617
734.586
704.234
684.987
675.33
674.032
680.702
693.831
710.379
729.563
750.668
773.237
796.981
821.738
846.326
869.374
890.754
910.567
928.916
945.899
961.607
976.123
989.524
1001.88
1013.26
1023.73
1033.34
1042.16
6364.6
2399.08
1576.08
1226.87
1030.78
905.208
819.164
758.311
715.102
685.234
666.177
656.457
654.887
661.073
673.607
689.555
708.161
728.744
750.877
774.3
798.875
823.451
846.648
868.316
888.532
907.382
924.947
941.304
956.52
970.66
983.783
995.945
1007.2
1017.59
1027.18