/*--------------------------------*- C++ -*----------------------------------*\
  =========                 |
  \\      /  F ield         | OpenFOAM: The Open Source CFD Toolbox
   \\    /   O peration     | Website:  https://openfoam.org
    \\  /    A nd           | Version:  8
     \\/     M anipulation  |
\*---------------------------------------------------------------------------*/
FoamFile
{
    version     2.0;
    format      ascii;
    class       volScalarField;
    location    "0.21";
    object      nut;
}
// * * * * * * * * * * * * * * * * * * * * * * * * * * * * * * * * * * * * * //

dimensions      [0 2 -1 0 0 0 0];

internalField   nonuniform List<scalar> 
15677
(
0.000716023
0.00239271
0.00731723
0.0126197
0.0180805
0.0237747
0.0296823
0.0354687
0.041135
0.0462269
0.0506551
0.0547779
0.0588588
0.062815
0.0664634
0.070242
0.0731629
0.0751387
0.0773839
0.0791204
0.080405
0.0812774
0.0818235
0.0822263
0.0825729
0.0829126
0.0831601
0.0834443
0.0835438
0.0834879
0.0832891
0.0829818
0.0826116
0.0822442
0.0818685
0.00125084
0.0103021
0.0258014
0.0427829
0.0590411
0.0729679
0.0832107
0.0882037
0.0891191
0.0871237
0.0851095
0.0850692
0.0815315
0.0760546
0.0703309
0.0683562
0.0720633
0.078292
0.0851383
0.0918027
0.0976434
0.101726
0.104697
0.107897
0.110062
0.11152
0.112304
0.112548
0.112347
0.111897
0.111097
0.110208
0.109292
0.108427
0.10763
0.00102036
0.008075
0.0191668
0.031268
0.0430243
0.0538302
0.0637682
0.0727577
0.0801714
0.0857665
0.0887643
0.0875978
0.0817265
0.0728011
0.0645196
0.0575438
0.0510848
0.0491068
0.0545621
0.0650489
0.0772295
0.0887294
0.0973746
0.103191
0.107229
0.110031
0.112095
0.113631
0.114728
0.115424
0.11566
0.115497
0.115008
0.114338
0.113611
0.000602777
0.00308448
0.00748146
0.0126652
0.0188365
0.0258474
0.0330085
0.0395004
0.044883
0.0487923
0.0494118
0.0491826
0.0472202
0.0442251
0.0411457
0.0387538
0.0377223
0.0385074
0.0429593
0.051621
0.0615564
0.0759184
0.0893304
0.0978143
0.103437
0.10718
0.109466
0.110654
0.111036
0.110876
0.110391
0.109711
0.108957
0.108204
0.107495
0.000490964
0.00325187
0.00661257
0.00957515
0.0124189
0.015243
0.0181434
0.0211085
0.024047
0.0269871
0.0300442
0.0341061
0.0400214
0.0481436
0.0579294
0.0679783
0.0776913
0.0868697
0.0950498
0.1005
0.103289
0.105656
0.108067
0.11006
0.111193
0.111237
0.11041
0.108941
0.107284
0.105737
0.1044
0.103288
0.102382
0.101653
0.10107
0.000580607
0.00467708
0.0105927
0.0160905
0.0207754
0.0245006
0.0271604
0.0290585
0.0303891
0.03222
0.037555
0.0470117
0.0581342
0.0702322
0.0808166
0.0892548
0.096002
0.101165
0.104896
0.107642
0.109357
0.1098
0.109454
0.108701
0.10773
0.106684
0.10565
0.104774
0.104045
0.103415
0.102862
0.102374
0.101944
0.101563
0.101227
0.00042896
0.00335668
0.00715555
0.0104657
0.0129076
0.0142755
0.0143679
0.0136967
0.0129089
0.0166076
0.0275583
0.0431793
0.0597309
0.0744103
0.0850829
0.0924447
0.0977532
0.101725
0.10481
0.107252
0.109188
0.110554
0.111277
0.111455
0.111168
0.110569
0.109811
0.109032
0.108298
0.107633
0.107042
0.106517
0.10605
0.105632
0.105257
0.000196336
0.000780403
0.00159522
0.00237378
0.00309933
0.00454959
0.00758026
0.0133895
0.0220859
0.0328156
0.0444395
0.0559748
0.0667815
0.0766048
0.0844831
0.0904327
0.095192
0.099098
0.102294
0.1048
0.106583
0.107628
0.108137
0.108337
0.108352
0.108257
0.108103
0.107907
0.107673
0.10742
0.107161
0.106905
0.106658
0.106422
0.106194
0.000265553
0.00232357
0.00602397
0.0104617
0.0154098
0.0208336
0.0267062
0.0330279
0.0398084
0.0469837
0.0544871
0.0622099
0.0699112
0.0771528
0.0831281
0.0878892
0.0918442
0.0951673
0.0979741
0.100342
0.102314
0.103813
0.104823
0.105445
0.105781
0.105912
0.105907
0.10583
0.105719
0.105592
0.105463
0.105335
0.105211
0.105093
0.104978
0.000230936
0.00254808
0.00631648
0.0108583
0.016028
0.0217657
0.0280166
0.0346973
0.0416709
0.0488065
0.0559326
0.0628831
0.0695074
0.0756985
0.0808851
0.0850934
0.0886706
0.0917449
0.0943749
0.096568
0.0983304
0.0996601
0.100624
0.101313
0.101791
0.102107
0.102305
0.10242
0.102479
0.102499
0.102495
0.102475
0.102445
0.10241
0.102372
0.000245751
0.0023676
0.00594968
0.0102679
0.0151675
0.0206002
0.0265353
0.0329293
0.0396945
0.0466896
0.0537882
0.0607663
0.0674122
0.0735644
0.0786182
0.0826139
0.0859195
0.0886996
0.0910681
0.0930958
0.094809
0.0961526
0.0971404
0.0978532
0.0983592
0.0987093
0.0989418
0.099094
0.0991941
0.0992605
0.0993048
0.0993344
0.0993542
0.0993674
0.0993759
0.000214731
0.00243417
0.00597067
0.0101872
0.0149599
0.020245
0.026003
0.0321779
0.0386757
0.0453584
0.0521318
0.058803
0.0652096
0.071206
0.076183
0.0801399
0.0834133
0.0861398
0.0884074
0.0902936
0.0918572
0.0930885
0.0940151
0.0947102
0.0952319
0.0956232
0.0959161
0.0961353
0.0962997
0.0964239
0.096519
0.096593
0.0966516
0.0966991
0.0967385
0.000213769
0.00219847
0.00540849
0.00924778
0.0136211
0.0185115
0.023906
0.029773
0.0360464
0.0426066
0.0493158
0.0560177
0.0625057
0.0686026
0.073653
0.0776345
0.0808919
0.0835882
0.0858386
0.0877212
0.0892985
0.0905489
0.0914971
0.0922165
0.0927655
0.0931859
0.0935083
0.0937553
0.0939476
0.0941005
0.0942243
0.0943265
0.0944123
0.0944852
0.0945481
0.000196786
0.00225116
0.00547273
0.00929526
0.0136163
0.0184004
0.023619
0.0292319
0.0351821
0.0413747
0.0477232
0.0541065
0.0603567
0.0663182
0.071337
0.0753389
0.078624
0.0813294
0.083573
0.0854512
0.0870296
0.0882957
0.0892712
0.0900254
0.0906143
0.0910782
0.0914466
0.0917417
0.0919802
0.0921748
0.0923354
0.0924693
0.0925823
0.0926785
0.0927613
0.000189166
0.00207007
0.00503793
0.00857078
0.0125934
0.0170917
0.0220527
0.0274472
0.0332214
0.039286
0.0455285
0.0518336
0.0580339
0.0639751
0.0690033
0.0730366
0.0763702
0.0791347
0.0814356
0.0833623
0.0849846
0.0862921
0.0873069
0.0880997
0.0887266
0.0892277
0.0896317
0.0899599
0.0902284
0.09045
0.0906355
0.0907924
0.0909265
0.091042
0.0911422
0.000180993
0.00207428
0.00502396
0.00852813
0.0125015
0.0169157
0.0217469
0.0269621
0.0325127
0.0383193
0.0442943
0.0503487
0.056334
0.0621113
0.0670423
0.071029
0.0743456
0.0771146
0.0794376
0.0813965
0.0830546
0.0844014
0.0854554
0.0862862
0.0869497
0.0874856
0.0879228
0.0882828
0.0885816
0.0888318
0.0890428
0.089222
0.0893754
0.0895074
0.089622
0.000171671
0.0019639
0.00475278
0.00806876
0.0118474
0.0160732
0.0207297
0.0257869
0.0311949
0.0368783
0.0427412
0.0486876
0.0545799
0.0602851
0.0651735
0.0691408
0.0724579
0.0752417
0.0775874
0.0795735
0.0812625
0.0826416
0.0837267
0.0845874
0.0852794
0.0858422
0.0863046
0.0866879
0.0870079
0.087277
0.0875045
0.0876985
0.0878651
0.0880092
0.0881344
0.000169356
0.00196053
0.00477357
0.00811681
0.0118992
0.0160882
0.020658
0.0255769
0.0308016
0.0362659
0.0418931
0.0476114
0.0532964
0.0588303
0.0636036
0.0675018
0.0707813
0.07355
0.0758965
0.0778937
0.079601
0.0810023
0.0821104
0.0829935
0.0837068
0.0842897
0.0847709
0.0851716
0.0855078
0.085792
0.0860337
0.0862404
0.0864182
0.0865719
0.0867056
0.00015857
0.00190349
0.00459851
0.00779665
0.0114325
0.015485
0.0199329
0.0247443
0.0298716
0.0352472
0.040787
0.0464117
0.0520043
0.0574521
0.0621594
0.0660141
0.0692668
0.0720218
0.0743649
0.0763661
0.0780827
0.079497
0.0806195
0.0815173
0.0822452
0.0828422
0.0833368
0.08375
0.0840979
0.0843928
0.0846442
0.0848597
0.0850453
0.0852061
0.0853458
0.000158251
0.00185331
0.00452215
0.00770223
0.0113084
0.015309
0.0196782
0.0243843
0.0293842
0.0346167
0.0400063
0.0454867
0.0509464
0.0562799
0.0609039
0.0647035
0.0679206
0.0706542
0.0729863
0.0749841
0.0767029
0.0781234
0.079254
0.0801608
0.080898
0.0815041
0.0820074
0.082429
0.0827847
0.0830867
0.0833448
0.0835663
0.0837575
0.0839231
0.0840672
0.000151351
0.001817
0.00440581
0.00748454
0.0109848
0.0148829
0.0191564
0.0237738
0.0286902
0.0338433
0.0391549
0.0445547
0.0499366
0.0551973
0.0597648
0.0635239
0.066712
0.0694261
0.0717457
0.0737366
0.0754528
0.0768741
0.0780077
0.0789187
0.0796608
0.0802722
0.080781
0.0812079
0.0815687
0.0818757
0.0821384
0.0823642
0.0825592
0.0827283
0.0828755
0.000150679
0.00176337
0.0043079
0.00734677
0.0108011
0.0146419
0.0188442
0.0233767
0.0281973
0.0332489
0.0384582
0.0437593
0.0490535
0.0542392
0.0587505
0.0624698
0.0656292
0.0683226
0.0706277
0.0726085
0.0743181
0.0757357
0.0768678
0.0777788
0.0785218
0.0791349
0.0796456
0.0800748
0.080438
0.0807474
0.0810123
0.0812404
0.0814375
0.0816085
0.0817574
0.000146627
0.00172622
0.00420686
0.00717013
0.0105459
0.014309
0.0184361
0.022896
0.0276455
0.032628
0.0377709
0.0430047
0.0482369
0.0533664
0.057833
0.0615188
0.0646524
0.0673256
0.0696147
0.0715827
0.0732818
0.0746912
0.0758171
0.0767235
0.0774631
0.0780737
0.0785827
0.0790107
0.0793732
0.0796822
0.0799469
0.0801749
0.080372
0.0805431
0.0806921
0.000145239
0.00168648
0.00412562
0.00704399
0.010367
0.0140682
0.0181257
0.022511
0.0271847
0.0320935
0.0371664
0.0423327
0.047505
0.0525813
0.0570057
0.0606595
0.0637673
0.0664192
0.0686899
0.0706415
0.0723255
0.0737213
0.0748355
0.0757317
0.0764626
0.0770656
0.0775681
0.0779905
0.078348
0.0786527
0.0789138
0.0791385
0.0793328
0.0795013
0.079648
0.000142531
0.0016537
0.00404268
0.00690376
0.0101665
0.0138063
0.017802
0.0221258
0.0267386
0.0315884
0.0366049
0.0417156
0.0468372
0.0518672
0.0562533
0.0598765
0.0629583
0.0655869
0.067836
0.0697665
0.0714296
0.0728053
0.0739008
0.0747801
0.0754954
0.0760843
0.076574
0.0769847
0.0773319
0.0776272
0.0778798
0.0780969
0.0782843
0.0784466
0.0785878
0.000141053
0.00162236
0.00397342
0.00679195
0.0100069
0.0135941
0.0175335
0.0217984
0.0263516
0.031143
0.0361037
0.0411601
0.0462327
0.0512177
0.0555659
0.0591578
0.0622114
0.0648135
0.0670363
0.0689401
0.0705751
0.0719224
0.0729907
0.0738442
0.0745354
0.0751018
0.0755706
0.0759621
0.0762916
0.0765706
0.0768084
0.077012
0.0771871
0.0773383
0.0774693
0.000139183
0.00159499
0.00390813
0.00668396
0.00985305
0.013392
0.0172812
0.0214947
0.025996
0.0307359
0.0356467
0.0406537
0.0456803
0.0506219
0.054932
0.0584908
0.0615133
0.0640845
0.0662754
0.0681453
0.0697437
0.0710527
0.0720836
0.0729009
0.0735574
0.074091
0.0745289
0.0748915
0.0751941
0.0754483
0.0756631
0.0758456
0.0760013
0.0761349
0.0762497
0.000137832
0.0015697
0.00385101
0.0065913
0.00972109
0.0132172
0.0170607
0.0212265
0.0256789
0.0303697
0.0352328
0.040192
0.0451736
0.0500714
0.0543418
0.0578647
0.060852
0.0633871
0.0655394
0.0673671
0.0689189
0.0701785
0.0711599
0.0719288
0.0725385
0.0730271
0.0734223
0.0737445
0.0740092
0.074228
0.0744099
0.074562
0.0746898
0.0747975
0.0748888
0.00013646
0.00154705
0.00379845
0.00650539
0.00959897
0.0130563
0.0168586
0.0209814
0.0253894
0.0300351
0.0348533
0.0397669
0.0447041
0.0495575
0.0537859
0.0572696
0.060217
0.0627098
0.0648161
0.0665927
0.0680871
0.0692848
0.0702037
0.0709107
0.0714599
0.0718899
0.0722289
0.0724977
0.0727119
0.0728833
0.073021
0.073132
0.0732216
0.0732942
0.073353
0.000135339
0.00152637
0.00375139
0.00642889
0.00949004
0.012912
0.0166765
0.0207592
0.0251255
0.0297284
0.0345035
0.0393725
0.0442652
0.0490728
0.0532565
0.0566969
0.0595994
0.0620436
0.064096
0.0658119
0.0672375
0.0683603
0.0692028
0.0698336
0.0703078
0.0706647
0.0709331
0.0711345
0.0712847
0.0713957
0.0714767
0.0715347
0.0715751
0.0716021
0.0716189
0.0812881
0.0803469
0.0791934
0.0778035
0.0761493
0.0741944
0.0719092
0.0692845
0.06634
0.0631258
0.0597145
0.0562086
0.0527683
0.0495053
0.0463999
0.0433405
0.0400915
0.0362552
0.032251
0.0287571
0.0261589
0.0244293
0.106581
0.105211
0.103784
0.102314
0.100801
0.0992102
0.0975404
0.0957978
0.0939932
0.092134
0.0902733
0.088591
0.0873546
0.0866869
0.086559
0.0869193
0.0876211
0.0885572
0.0895877
0.0905948
0.0914771
0.0922211
0.112646
0.111192
0.109437
0.10748
0.105446
0.103508
0.10176
0.100283
0.0991577
0.098473
0.098214
0.0982013
0.0982713
0.0984709
0.0988299
0.0993964
0.100208
0.10129
0.102645
0.104257
0.106247
0.1086
0.106685
0.105689
0.104692
0.103732
0.102809
0.101871
0.100935
0.100011
0.0991825
0.0984555
0.0978596
0.0975642
0.0976547
0.098045
0.0986764
0.0994968
0.100491
0.101667
0.103047
0.104588
0.106102
0.107497
0.100444
0.0997721
0.0991633
0.0985955
0.0980509
0.0975099
0.0969762
0.0965192
0.0961192
0.0958396
0.0957289
0.0958368
0.0961907
0.0967525
0.097483
0.0983589
0.0993345
0.100358
0.101372
0.102404
0.103453
0.104491
0.100773
0.10019
0.0996175
0.0990492
0.0984768
0.0979461
0.0974242
0.0969342
0.0964965
0.0961329
0.0958658
0.0957135
0.0956836
0.0957653
0.0959426
0.0962045
0.0965375
0.0969268
0.097358
0.0978226
0.0983151
0.0988286
0.104754
0.104096
0.103431
0.102762
0.102085
0.101408
0.100742
0.100095
0.0994684
0.0988747
0.0983323
0.0978625
0.0974903
0.0972245
0.0970598
0.0969884
0.0970015
0.0970894
0.0972417
0.0974499
0.0977089
0.0980153
0.105913
0.105538
0.105135
0.104705
0.104253
0.103782
0.103296
0.102802
0.102305
0.101811
0.101328
0.100872
0.100461
0.10011
0.09982
0.0995909
0.0994219
0.0993113
0.0992561
0.099253
0.0992982
0.0993871
0.104866
0.104737
0.104581
0.104398
0.104188
0.103953
0.103695
0.103417
0.103123
0.102819
0.10251
0.102206
0.101923
0.101672
0.101454
0.101273
0.101127
0.101018
0.100944
0.100903
0.100895
0.100918
0.102391
0.102451
0.102493
0.102515
0.102517
0.102498
0.102458
0.102398
0.102321
0.102228
0.102123
0.10201
0.101896
0.101789
0.101692
0.101609
0.101541
0.101489
0.101455
0.10144
0.101441
0.10146
0.0994654
0.0996231
0.0997711
0.0999084
0.100034
0.100148
0.10025
0.100339
0.100416
0.100482
0.100537
0.100584
0.100624
0.100659
0.100692
0.100726
0.100763
0.100803
0.100848
0.100898
0.100955
0.101018
0.0968626
0.0970636
0.0972602
0.0974515
0.0976372
0.0978163
0.0979887
0.0981545
0.0983138
0.0984671
0.0986146
0.0987559
0.0988885
0.0990118
0.0991282
0.0992392
0.0993465
0.0994512
0.0995544
0.0996568
0.0997588
0.0998613
0.0946931
0.0949143
0.0951322
0.0953468
0.0955581
0.0957663
0.0959716
0.0961739
0.0963733
0.0965698
0.0967638
0.0969541
0.0971364
0.0973085
0.0974719
0.097628
0.0977777
0.097922
0.0980617
0.0981974
0.0983296
0.0984593
0.0929268
0.0931699
0.093409
0.0936441
0.0938753
0.0941028
0.0943272
0.094549
0.0947687
0.0949867
0.095203
0.0954163
0.0956211
0.0958145
0.0959978
0.0961721
0.0963384
0.0964974
0.0966499
0.0967963
0.0969371
0.0970732
0.0913303
0.0916022
0.0918688
0.0921303
0.092387
0.0926392
0.0928874
0.0931321
0.0933737
0.0936128
0.0938498
0.0940829
0.0943062
0.0945164
0.0947146
0.0949019
0.0950793
0.0952477
0.0954077
0.0955601
0.0957055
0.0958449
0.0898323
0.0901353
0.0904327
0.0907244
0.0910101
0.09129
0.0915643
0.0918334
0.092098
0.092358
0.0926132
0.0928621
0.0930985
0.0933194
0.0935265
0.0937212
0.0939045
0.0940776
0.0942412
0.0943963
0.0945433
0.0946833
0.0883635
0.088695
0.0890213
0.0893422
0.0896577
0.0899676
0.0902712
0.0905683
0.0908587
0.0911428
0.0914205
0.0916902
0.0919449
0.0921817
0.0924022
0.0926083
0.0928012
0.0929821
0.0931521
0.0933122
0.0934632
0.093606
0.0869489
0.0873019
0.0876505
0.0879943
0.0883331
0.0886665
0.0889942
0.0893159
0.0896311
0.0899397
0.0902414
0.0905339
0.0908096
0.0910651
0.0913022
0.0915228
0.0917283
0.0919202
0.0920995
0.0922675
0.092425
0.0925728
0.0855997
0.0859691
0.086335
0.0866969
0.0870545
0.0874073
0.0877549
0.088097
0.0884331
0.0887628
0.0890858
0.0893994
0.0896952
0.0899692
0.0902234
0.0904595
0.090679
0.0908834
0.091074
0.0912519
0.0914182
0.0915737
0.0843284
0.0847094
0.0850879
0.0854633
0.0858352
0.0862031
0.0865666
0.0869251
0.0872782
0.0876254
0.0879663
0.0882978
0.0886111
0.0889015
0.0891712
0.0894216
0.0896546
0.0898713
0.0900733
0.0902615
0.0904372
0.0906012
0.0831421
0.0835317
0.0839196
0.0843051
0.0846879
0.0850674
0.0854431
0.0858145
0.086181
0.0865421
0.0868973
0.0872434
0.087571
0.0878752
0.088158
0.0884208
0.0886655
0.0888932
0.0891054
0.0893033
0.0894878
0.0896601
0.0820285
0.0824263
0.0828227
0.0832174
0.0836098
0.0839994
0.0843857
0.0847681
0.085146
0.0855189
0.0858861
0.0862444
0.086584
0.0868997
0.0871934
0.0874666
0.0877211
0.0879582
0.0881792
0.0883853
0.0885776
0.0887572
0.0809675
0.0813747
0.0817809
0.0821858
0.0825886
0.082989
0.0833862
0.0837798
0.0841691
0.0845534
0.0849321
0.0853018
0.0856524
0.0859784
0.0862818
0.0865642
0.0868272
0.0870724
0.0873009
0.0875141
0.087713
0.0878988
0.0799281
0.080348
0.0807673
0.0811854
0.0816018
0.0820157
0.0824267
0.0828339
0.0832367
0.0836343
0.0840261
0.0844085
0.0847709
0.0851078
0.0854211
0.0857126
0.085984
0.0862367
0.0864723
0.0866919
0.0868968
0.0870881
0.0788731
0.0793104
0.0797475
0.0801839
0.0806187
0.0810513
0.0814808
0.0819064
0.0823273
0.0827426
0.0831514
0.08355
0.0839273
0.0842775
0.0846028
0.0849049
0.0851858
0.0854471
0.0856902
0.0859166
0.0861276
0.0863243
0.0777601
0.0782205
0.0786816
0.0791426
0.0796025
0.0800606
0.0805156
0.0809666
0.0814125
0.0818521
0.0822845
0.0827053
0.083103
0.0834713
0.0838126
0.0841289
0.0844222
0.0846943
0.0849469
0.0851817
0.0853999
0.085603
0.0765456
0.077035
0.0775265
0.0780193
0.0785122
0.0790039
0.079493
0.0799783
0.0804582
0.0809313
0.0813961
0.0818479
0.0822739
0.0826675
0.0830312
0.0833671
0.0836776
0.0839648
0.0842304
0.0844764
0.0847044
0.084916
0.075188
0.0757117
0.0762399
0.0767714
0.0773051
0.0778391
0.0783719
0.0789017
0.0794263
0.0799439
0.0804524
0.0809463
0.0814113
0.0818399
0.0822346
0.0825981
0.0829328
0.0832411
0.0835251
0.083787
0.0840287
0.084252
0.0736524
0.0742138
0.0747832
0.0753593
0.0759407
0.0765254
0.0771113
0.077696
0.0782769
0.0788515
0.0794167
0.079966
0.0804829
0.0809585
0.0813956
0.0817968
0.0821649
0.0825025
0.0828123
0.0830965
0.0833575
0.0835974
0.0719136
0.0725135
0.0731261
0.0737502
0.0743842
0.0750259
0.075673
0.0763224
0.076971
0.0776152
0.0782511
0.0788706
0.0794542
0.0799911
0.0804839
0.0809353
0.0813482
0.0817256
0.0820705
0.0823855
0.0826734
0.0829366
0.0234285
0.0234149
0.0243404
0.0260486
0.0283965
0.0312329
0.0931853
0.0944405
0.0956637
0.096729
0.0973109
0.0968196
0.111446
0.114667
0.117873
0.121011
0.124044
0.126952
0.108996
0.110611
0.112137
0.113521
0.11475
0.115844
0.105553
0.106587
0.107547
0.108433
0.109252
0.110041
0.0993742
0.099944
0.100542
0.101221
0.101972
0.1028
0.0984264
0.0989421
0.0995142
0.100139
0.100815
0.101538
0.0995797
0.0998806
0.100235
0.100638
0.101089
0.10158
0.101015
0.101187
0.101396
0.10164
0.101916
0.10222
0.101507
0.101587
0.101692
0.101821
0.101972
0.102141
0.101069
0.101111
0.101167
0.101236
0.101319
0.101412
0.0999254
0.0999537
0.09999
0.100034
0.100084
0.100139
0.0985375
0.0985646
0.0985941
0.0986252
0.0986575
0.09869
0.0971548
0.097181
0.0972057
0.0972284
0.0972488
0.0972663
0.0959276
0.0959505
0.095969
0.0959829
0.0959919
0.0959956
0.0947641
0.0947825
0.0947954
0.0948025
0.0948037
0.0947987
0.0936862
0.0937005
0.0937083
0.0937094
0.0937037
0.0936911
0.0926535
0.0926637
0.0926669
0.092663
0.0926519
0.0926335
0.0916566
0.0916642
0.0916642
0.0916565
0.0916413
0.0916183
0.0906873
0.0906933
0.0906913
0.0906813
0.0906633
0.0906372
0.0897501
0.0897556
0.0897529
0.0897417
0.0897222
0.0896943
0.0888509
0.0888571
0.0888545
0.0888432
0.0888233
0.0887947
0.0879962
0.0880036
0.088002
0.0879915
0.0879719
0.0879435
0.0871891
0.0871983
0.0871983
0.0871889
0.0871704
0.0871427
0.0864292
0.0864405
0.0864423
0.0864346
0.0864175
0.086391
0.085712
0.0857257
0.0857296
0.0857239
0.0857084
0.0856833
0.0850301
0.0850462
0.0850523
0.0850485
0.0850349
0.0850114
0.0843728
0.0843912
0.0843995
0.0843978
0.0843861
0.0843643
0.083727
0.0837476
0.083758
0.0837583
0.0837485
0.0837286
0.0830777
0.0831001
0.0831124
0.0831146
0.0831069
0.0830891
0.0340992
0.0367497
0.0392408
0.0414682
0.0433736
0.0449287
0.0462292
0.0473476
0.0483139
0.0491311
0.0497852
0.0502507
0.0505108
0.05059
0.0505283
0.0503673
0.0501478
0.0499088
0.0496844
0.049501
0.0493789
0.0493344
0.0949453
0.0931344
0.0918235
0.0916424
0.0923572
0.0935451
0.0950988
0.0965379
0.0977334
0.0986797
0.099302
0.0995278
0.0993289
0.098758
0.0980083
0.097126
0.0961514
0.0951371
0.0941515
0.0932389
0.0924147
0.0916806
0.129617
0.131839
0.133526
0.134371
0.134459
0.133861
0.132745
0.131424
0.130247
0.129434
0.128968
0.128679
0.128352
0.127931
0.127375
0.126705
0.125962
0.125183
0.1244
0.123637
0.122883
0.122227
0.11668
0.117261
0.117857
0.118566
0.119404
0.120465
0.121782
0.123331
0.125036
0.126801
0.128459
0.129909
0.131043
0.13181
0.132164
0.132174
0.131899
0.131395
0.130758
0.130065
0.129317
0.128648
0.110704
0.111292
0.111972
0.112759
0.113651
0.114633
0.115672
0.116726
0.117733
0.118635
0.119496
0.120238
0.120791
0.121217
0.121525
0.121745
0.1219
0.121997
0.122036
0.122017
0.121943
0.121823
0.103593
0.10432
0.105113
0.105958
0.106836
0.107723
0.108598
0.109437
0.110222
0.110946
0.111609
0.112215
0.112759
0.113248
0.11369
0.114093
0.114459
0.114788
0.11508
0.115331
0.115535
0.115681
0.102244
0.102903
0.103581
0.104272
0.104966
0.105655
0.106331
0.106988
0.107621
0.108229
0.108812
0.109366
0.10988
0.110347
0.110771
0.111154
0.111494
0.111791
0.112039
0.112237
0.112383
0.112476
0.10208
0.102556
0.103042
0.103534
0.104028
0.104518
0.104998
0.105465
0.105915
0.106343
0.106745
0.107115
0.107439
0.107712
0.107935
0.108107
0.108229
0.108302
0.108325
0.108298
0.108221
0.108097
0.102532
0.102825
0.103119
0.103412
0.1037
0.103981
0.104252
0.104507
0.104744
0.104958
0.105143
0.105294
0.105401
0.105463
0.105481
0.105457
0.105392
0.105289
0.105149
0.104976
0.10477
0.104534
0.1023
0.10243
0.102556
0.102677
0.102791
0.102894
0.102984
0.103057
0.10311
0.103138
0.103138
0.103104
0.103036
0.102934
0.102801
0.102638
0.102448
0.102231
0.101991
0.101729
0.101447
0.101147
0.101475
0.101492
0.101502
0.101504
0.101497
0.101477
0.101442
0.101391
0.101319
0.101226
0.101107
0.100961
0.100788
0.100595
0.100381
0.100149
0.0998992
0.0996348
0.0993569
0.0990672
0.098767
0.0984579
0.100144
0.10009
0.10003
0.09996
0.0998801
0.099788
0.0996816
0.0995586
0.0994168
0.0992538
0.0990672
0.0988558
0.0986243
0.0983786
0.0981199
0.0978497
0.0975694
0.0972806
0.0969845
0.0966828
0.0963769
0.0960677
0.0986617
0.0985677
0.0984656
0.098354
0.0982316
0.0980969
0.0979484
0.0977845
0.0976037
0.0974041
0.0971839
0.0969431
0.0966871
0.0964228
0.0961514
0.0958737
0.0955905
0.0953028
0.095011
0.0947158
0.0944174
0.0941161
0.0972201
0.0971074
0.0969851
0.0968524
0.0967081
0.0965512
0.0963805
0.0961949
0.095993
0.0957735
0.095535
0.0952775
0.095007
0.0947297
0.0944467
0.0941586
0.093866
0.0935695
0.0932695
0.0929663
0.0926603
0.0923519
0.0959332
0.0958041
0.0956648
0.0955143
0.0953517
0.095176
0.0949862
0.0947813
0.0945601
0.0943216
0.0940646
0.0937895
0.0935028
0.0932109
0.0929141
0.0926126
0.0923071
0.091998
0.0916855
0.0913699
0.0910513
0.09073
0.094726
0.094586
0.0944352
0.0942726
0.0940974
0.0939085
0.0937049
0.0934855
0.0932491
0.0929946
0.0927208
0.0924286
0.0921247
0.0918157
0.0915017
0.091183
0.0908601
0.0905335
0.0902036
0.089871
0.0895363
0.0892
0.0936083
0.0934566
0.0932933
0.0931178
0.0929289
0.0927259
0.0925076
0.092273
0.092021
0.0917502
0.0914591
0.0911482
0.0908249
0.0904964
0.0901632
0.0898264
0.0894868
0.089145
0.0888013
0.0884559
0.088109
0.087761
0.0925416
0.0923778
0.0922018
0.0920128
0.09181
0.0915924
0.091359
0.0911088
0.0908406
0.0905531
0.0902449
0.0899169
0.0895773
0.0892339
0.0888874
0.0885384
0.0881873
0.0878346
0.0874807
0.0871259
0.0867706
0.0864152
0.0915178
0.0913419
0.0911535
0.0909518
0.0907359
0.0905051
0.0902582
0.0899944
0.0897125
0.0894114
0.08909
0.0887492
0.0883979
0.0880438
0.0876876
0.0873298
0.0869708
0.0866109
0.0862506
0.0858901
0.0855297
0.0851697
0.0905297
0.0903434
0.0901444
0.0899319
0.0897054
0.0894638
0.0892064
0.0889322
0.0886403
0.0883294
0.0879987
0.0876491
0.0872897
0.0869284
0.0865658
0.0862022
0.0858382
0.0854739
0.0851097
0.0847459
0.0843827
0.0840202
0.0895815
0.0893869
0.0891798
0.0889594
0.0887251
0.088476
0.0882113
0.0879302
0.0876316
0.0873145
0.0869779
0.0866229
0.0862585
0.0858929
0.0855263
0.0851592
0.0847919
0.0844246
0.0840576
0.0836909
0.0833249
0.0829594
0.0886784
0.0884781
0.0882655
0.0880399
0.0878005
0.0875466
0.0872774
0.086992
0.0866893
0.0863684
0.086028
0.0856693
0.0853014
0.0849322
0.0845621
0.0841914
0.0838204
0.0834491
0.0830778
0.0827066
0.0823357
0.0819652
0.0878252
0.0876214
0.0874054
0.0871766
0.0869341
0.0866773
0.0864052
0.0861169
0.0858113
0.0854872
0.0851434
0.0847808
0.0844086
0.0840348
0.0836595
0.0832832
0.0829059
0.0825279
0.0821495
0.0817706
0.0813917
0.0810128
0.0870236
0.0868176
0.0865995
0.0863685
0.0861238
0.0858646
0.0855899
0.0852985
0.0849893
0.0846609
0.0843119
0.0839431
0.0835637
0.0831817
0.0827974
0.0824112
0.0820233
0.0816339
0.0812435
0.0808521
0.0804602
0.080068
0.0862715
0.0860637
0.0858436
0.0856103
0.0853629
0.0851003
0.0848215
0.084525
0.0842096
0.0838737
0.0835154
0.0831358
0.0827438
0.082348
0.0819487
0.0815464
0.0811415
0.0807344
0.0803255
0.0799154
0.0795046
0.0790933
0.0855632
0.085353
0.0851297
0.0848925
0.0846403
0.0843717
0.0840854
0.0837799
0.0834536
0.0831045
0.0827308
0.0823331
0.0819209
0.0815033
0.0810809
0.0806543
0.0802243
0.0797915
0.0793567
0.0789207
0.078484
0.0780474
0.08489
0.0846751
0.0844462
0.0842019
0.0839409
0.0836618
0.0833628
0.0830422
0.082698
0.082328
0.08193
0.0815047
0.0810623
0.0806128
0.0801572
0.0796966
0.0792321
0.0787648
0.0782957
0.077826
0.0773567
0.0768885
0.0842401
0.0840171
0.0837782
0.083522
0.0832466
0.0829504
0.0826313
0.0822872
0.0819157
0.0815146
0.0810812
0.0806163
0.0801317
0.0796384
0.0791383
0.0786328
0.0781237
0.0776127
0.0771012
0.0765906
0.0760823
0.0755774
0.0835993
0.0833631
0.0831084
0.0828334
0.082536
0.082214
0.0818652
0.0814869
0.0810767
0.0806318
0.0801496
0.0796314
0.0790907
0.0785407
0.0779838
0.0774225
0.0768592
0.076296
0.0757349
0.0751777
0.074626
0.0740811
0.0829519
0.0826955
0.0824171
0.0821145
0.0817853
0.0814268
0.0810364
0.0806112
0.0801484
0.0796452
0.0790992
0.0785124
0.0779011
0.0772811
0.0766559
0.0760288
0.075403
0.0747811
0.0741656
0.0735585
0.0729615
0.0723759
0.0493302
0.0493254
0.049386
0.0495211
0.0497334
0.0500151
0.0503454
0.0506893
0.0509993
0.0512188
0.0512862
0.0511422
0.0507828
0.0502849
0.0498305
0.0496233
0.0497752
0.0503616
0.0514219
0.0528342
0.0542922
0.0553724
0.0548652
0.0524192
0.0478692
0.0429343
0.0387747
0.0350057
0.0308655
0.0261031
0.0207368
0.0148502
0.00861119
0.00293264
0.000820273
0.0911381
0.0906096
0.090073
0.0895088
0.088953
0.088432
0.0879732
0.0876054
0.0873505
0.0872175
0.0871997
0.0872703
0.0873796
0.0875097
0.087651
0.0878298
0.0881552
0.0886536
0.0893569
0.0906769
0.0928594
0.0938734
0.0905306
0.084163
0.0795892
0.0791888
0.080832
0.0808445
0.0777695
0.0711139
0.0606735
0.0465604
0.0290393
0.0116936
0.00131737
0.12169
0.121196
0.120683
0.120168
0.119675
0.119232
0.118871
0.11862
0.118499
0.118508
0.118617
0.118723
0.118656
0.118205
0.117148
0.115298
0.112605
0.108931
0.104882
0.100941
0.0970962
0.0932625
0.0850607
0.0742928
0.0680813
0.0675359
0.0691405
0.0690449
0.0660362
0.0599884
0.0512819
0.0403024
0.0274194
0.0130065
0.00129742
0.128116
0.127708
0.127302
0.126931
0.126641
0.126493
0.126549
0.126805
0.126858
0.126237
0.124618
0.121618
0.116718
0.109736
0.10122
0.091439
0.0817296
0.074295
0.0717003
0.0750499
0.0796332
0.0810338
0.0749279
0.0649732
0.0558565
0.0494026
0.0449258
0.0408787
0.037227
0.0327977
0.0273972
0.0210527
0.0139109
0.00631325
0.000992028
0.121749
0.121737
0.121704
0.121637
0.121511
0.121298
0.120954
0.120419
0.119613
0.118461
0.116875
0.114653
0.111201
0.105714
0.095969
0.0818619
0.0687702
0.0616799
0.0614869
0.0651917
0.0700047
0.0723405
0.0684524
0.0603283
0.0518594
0.0445962
0.0382797
0.0326856
0.0276307
0.0229278
0.0184201
0.0139632
0.00943669
0.00469949
0.000582593
0.115768
0.115839
0.115872
0.115841
0.115712
0.115431
0.114922
0.114073
0.11273
0.110669
0.10761
0.103185
0.0969608
0.0880365
0.0769657
0.0650758
0.053786
0.0456747
0.0418441
0.0415317
0.0430548
0.0444357
0.044484
0.04222
0.0378678
0.03346
0.0292042
0.0251573
0.0213078
0.0176209
0.0140477
0.0105121
0.00692969
0.00325435
0.00044494
0.112539
0.112621
0.112683
0.112716
0.112704
0.112617
0.112404
0.111993
0.111236
0.109928
0.108092
0.1056
0.102258
0.0976209
0.0908251
0.0814293
0.0704246
0.0588221
0.0472487
0.037048
0.0306736
0.0293517
0.0305527
0.0304228
0.0291713
0.0268622
0.0240358
0.0210354
0.0180028
0.0149929
0.0120094
0.00899793
0.00595388
0.0028154
0.000321023
0.107996
0.10795
0.107869
0.107743
0.107554
0.10728
0.106894
0.106357
0.105611
0.104567
0.103088
0.100958
0.0978572
0.093315
0.0866765
0.0779073
0.0675031
0.0561102
0.0440208
0.0315227
0.0224173
0.0175195
0.0154624
0.0148587
0.0136481
0.0123884
0.0110601
0.00966025
0.0082257
0.00679456
0.00537573
0.0039602
0.00251954
0.00112014
0.000191226
0.104361
0.104267
0.104146
0.103988
0.103785
0.103518
0.103167
0.102697
0.102055
0.101166
0.0999465
0.0982821
0.0960136
0.0929049
0.0886381
0.0830858
0.07642
0.0689227
0.0609718
0.0530388
0.045786
0.0397302
0.0354323
0.0324307
0.0297909
0.0271582
0.024449
0.0216213
0.0186996
0.015599
0.0123128
0.00888026
0.00538789
0.00217612
0.000272858
0.10093
0.100804
0.100649
0.100459
0.100223
0.0999319
0.0995688
0.0991143
0.0985426
0.097819
0.0968944
0.0957008
0.0941435
0.0920872
0.0893685
0.0859541
0.0819486
0.0773806
0.0723397
0.0669657
0.0613913
0.0555391
0.0496855
0.0441215
0.0386596
0.0333125
0.0281865
0.0233796
0.0189329
0.014851
0.0111145
0.00769831
0.00459865
0.00190495
0.000226805
0.0982393
0.0981127
0.0979628
0.0977846
0.0975715
0.0973153
0.0970047
0.0966247
0.0961546
0.095565
0.0948157
0.0938531
0.0926157
0.0910206
0.0889757
0.08649
0.083641
0.0804179
0.0768154
0.072816
0.0683473
0.0631216
0.0572
0.0511445
0.045027
0.0389474
0.0331042
0.0276089
0.0225018
0.0177809
0.0134179
0.00937432
0.00563555
0.00232813
0.000274038
0.095851
0.095725
0.0955768
0.0954018
0.0951942
0.0949464
0.0946488
0.0942889
0.0938505
0.0933127
0.0926482
0.091822
0.0907882
0.0894856
0.0878439
0.0858661
0.0835978
0.0809961
0.0779971
0.0745101
0.0703992
0.0653351
0.0593282
0.0529897
0.0465271
0.0400355
0.0337402
0.0278139
0.0223562
0.017406
0.0129535
0.00896491
0.00540139
0.00228863
0.000245281
0.0939051
0.0937825
0.0936395
0.0934721
0.0932753
0.0930423
0.0927647
0.0924315
0.0920284
0.0915357
0.0909276
0.0901738
0.0892331
0.08805
0.0865595
0.0847594
0.0826773
0.0802556
0.077413
0.0740371
0.069973
0.0648797
0.0587733
0.0523178
0.0457167
0.0391651
0.0328899
0.0270439
0.0217047
0.0168857
0.0125573
0.00867233
0.00519388
0.00217275
0.000237189
0.0921363