/*--------------------------------*- C++ -*----------------------------------*\
  =========                 |
  \\      /  F ield         | OpenFOAM: The Open Source CFD Toolbox
   \\    /   O peration     | Website:  https://openfoam.org
    \\  /    A nd           | Version:  8
     \\/     M anipulation  |
\*---------------------------------------------------------------------------*/
FoamFile
{
    version     2.0;
    format      ascii;
    class       volScalarField;
    location    "0.14";
    object      epsilon;
}
// * * * * * * * * * * * * * * * * * * * * * * * * * * * * * * * * * * * * * //

dimensions      [0 2 -3 0 0 0 0];

internalField   nonuniform List<scalar> 
15677
(
59.7003
18.3535
52.6122
8.08764
25.8887
50.162
4.62722
13.2619
31.5741
50.4817
3.17784
7.72265
17.0788
37.2617
51.5979
2.48949
5.04242
10.0235
20.8056
42.6337
53.6525
2.14571
3.62249
6.4605
12.1575
24.5334
47.6444
55.7176
1.97986
2.8208
4.52362
7.72126
14.2696
28.241
52.0027
57.6516
1.91169
2.35296
3.40097
5.3082
8.91189
16.4156
31.7406
55.6817
59.3511
1.88416
2.08028
2.72279
3.90785
6.01908
10.1005
18.5253
34.9357
58.6988
60.8497
1.87055
1.9394
2.30686
3.05465
4.3561
6.70383
11.267
20.5551
37.7531
61.1708
62.1161
1.86765
1.87831
2.05634
2.52061
3.34679
4.77413
7.35932
12.4096
22.4442
40.2112
63.1605
63.2273
1.86862
1.84885
1.91652
2.18582
2.7117
3.61374
5.16293
7.99621
13.4957
24.1851
42.3024
64.7821
64.1534
1.86953
1.8387
1.85192
1.98254
2.3064
2.88548
3.85657
5.53303
8.59946
14.5248
25.744
44.0864
66.0822
64.9868
1.86976
1.83698
1.82112
1.86771
2.05113
2.41761
3.04181
4.08288
5.87816
9.17357
15.4717
27.1386
45.5728
67.1356
65.713
1.86976
1.83725
1.81049
1.81333
1.89808
2.1172
2.51798
3.18533
4.29025
6.20356
9.70416
16.3439
28.3516
46.8225
67.9946
66.3554
1.86971
1.83752
1.80818
1.78977
1.81537
1.93019
2.1783
2.6097
3.31506
4.48288
6.50179
10.197
17.1219
29.4075
47.8571
68.6928
66.9436
1.86969
1.83763
1.80788
1.78275
1.77568
1.82145
1.96212
2.23475
2.6921
3.43391
4.65725
6.77726
10.6395
17.8175
30.3022
48.7024
69.2901
67.4445
1.86967
1.83765
1.80789
1.78104
1.76143
1.76613
1.83163
1.99286
2.2857
2.7669
3.54025
4.81656
7.02308
11.0395
18.4171
31.0552
49.3973
69.7611
67.9525
1.86966
1.83765
1.80791
1.78072
1.75695
1.74392
1.76033
1.84301
2.02124
2.33192
2.83334
3.6363
4.95719
7.2445
11.3855
18.9347
31.6722
49.938
70.2055
68.3475
1.86966
1.83764
1.8079
1.78069
1.75567
1.7359
1.72948
1.75736
1.85434
2.04736
2.37297
2.89284
3.72031
5.08256
7.43481
11.687
19.3596
32.1671
50.3849
70.5316
68.8207
1.86966
1.83764
1.80788
1.78068
1.75535
1.7332
1.71726
1.718
1.75579
1.86548
2.07083
2.4096
2.94461
3.79442
5.18932
7.60008
11.9337
19.7101
32.5527
50.7024
70.8985
69.1346
1.86966
1.83763
1.80786
1.78067
1.75526
1.73237
1.71264
1.70132
1.70843
1.7557
1.87588
2.09188
2.44152
2.98999
3.85718
5.28116
7.73438
12.1386
19.975
32.8381
50.9728
71.1382
69.6049
1.86966
1.83763
1.80785
1.78064
1.75522
1.73213
1.711
1.69452
1.68722
1.70085
1.75602
1.88548
2.11045
2.46955
3.02852
3.91082
5.35534
7.84497
12.2907
20.1794
33.0406
51.1378
71.4823
69.8611
1.86966
1.83762
1.80784
1.78062
1.75518
1.73204
1.71045
1.69192
1.67797
1.67535
1.69458
1.7568
1.89435
2.12703
2.49364
3.06153
3.95437
5.41598
7.92697
12.4087
20.3086
33.1645
51.2825
71.679
70.3325
1.86967
1.83762
1.80784
1.7806
1.75515
1.73198
1.71025
1.69097
1.67416
1.66375
1.66488
1.68957
1.7583
1.90264
2.1417
2.51474
3.08909
3.99049
5.4616
7.98925
12.4784
20.3945
33.235
51.3683
72.0602
70.5814
1.86967
1.83761
1.80783
1.78059
1.75513
1.73193
1.71015
1.6906
1.67266
1.65872
1.65073
1.65639
1.68597
1.76019
1.91061
2.15529
2.5333
3.11274
4.01865
5.49604
8.02688
12.5258
20.4186
33.2371
51.4184
72.3517
430.217
1.86967
1.83761
1.80783
1.78057
1.75511
1.73189
1.71007
1.69042
1.67206
1.65661
1.64432
1.64019
1.64916
1.68332
1.76318
1.91891
2.16815
2.55025
3.13283
4.04164
5.51959
8.05156
12.5312
20.4078
33.22
51.5172
88.5863
722.507
1.86967
1.8376
1.80783
1.78056
1.75509
1.73185
1.71002
1.69031
1.67178
1.65571
1.64153
1.63256
1.63059
1.64422
1.68332
1.76748
1.92788
2.18131
2.56656
3.15144
4.06045
5.53631
8.05787
12.522
20.3781
33.1831
52.3978
121.8
1010.42
1.86968
1.8376
1.80783
1.78055
1.75508
1.73182
1.70997
1.69022
1.67162
1.65529
1.64032
1.62906
1.62166
1.62425
1.64081
1.6847
1.77353
1.93853
2.19562
2.58364
3.16943
4.07715
5.54699
8.05531
12.5002
20.3218
33.19
54.8779
157.551
1267.52
1.86968
1.8376
1.80783
1.78054
1.75507
1.7318
1.70993
1.69015
1.67151
1.65505
1.63975
1.62745
1.61751
1.61424
1.6186
1.64129
1.68839
1.78224
1.95161
2.21228
2.60235
3.1885
4.09304
5.55445
8.04882
12.4629
20.2625
33.26
59.3717
190.564
1507.52
1.86968
1.83759
1.80784
1.78053
1.75507
1.73177
1.7099
1.6901
1.67141
1.65489
1.63943
1.62666
1.61558
1.60936
1.60766
1.61827
1.64385
1.69566
1.79445
1.96828
2.23222
2.62433
3.20983
4.11049
5.56188
8.03742
12.4241
20.1999
33.4753
64.0382
222.03
1714.49
1.86968
1.83759
1.80784
1.78052
1.75506
1.73175
1.70988
1.69005
1.67134
1.65476
1.63921
1.62623
1.61462
1.60698
1.60237
1.60625
1.62022
1.64978
1.70739
1.81131
1.98956
2.25703
2.65066
3.23551
4.13087
5.5714
8.02843
12.3837
20.1302
33.8952
68.7783
249.961
1874.76
1.86968
1.83759
1.80784
1.78052
1.75506
1.73173
1.70986
1.69
1.67127
1.65466
1.63904
1.62595
1.61408
1.60578
1.59978
1.60024
1.60799
1.62563
1.66111
1.7246
1.83388
2.01695
2.28773
2.68314
3.26643
4.15673
5.58575
8.02137
12.3441
20.0689
34.4097
73.0959
271.802
2001.69
1.86969
1.83758
1.80784
1.78051
1.75506
1.73172
1.70985
1.68996
1.67122
1.65457
1.63891
1.62574
1.61372
1.60512
1.59844
1.59727
1.60188
1.61323
1.63645
1.67866
1.74835
1.86365
2.0515
2.326
2.72266
3.30485
4.18902
5.60643
8.0217
12.3046
20.0138
34.9125
76.4259
289.206
2105.81
1.83758
1.86972
1.80785
1.7805
1.75506
1.7317
1.70984
1.68993
1.67118
1.6545
1.63879
1.62557
1.61345
1.60469
1.59768
1.59575
1.59888
1.6071
1.62393
1.65442
1.70345
1.78025
1.90177
2.09494
2.37283
2.77116
3.3513
4.22989
5.63434
8.02521
12.264
19.9574
35.2802
78.982
303.37
2194.42
1.80785
1.83768
1.8698
1.7805
1.75506
1.73169
1.70983
1.68989
1.67115
1.65443
1.63869
1.62543
1.61322
1.60438
1.59718
1.59492
1.59736
1.60414
1.61786
1.6424
1.68026
1.73712
1.82143
1.94995
2.14818
2.42988
2.8292
3.40788
4.27907
5.67019
8.0351
12.2237
19.8947
35.536
80.9142
315.404
2272.6
1.78049
1.80801
1.83787
1.86987
1.75506
1.73168
1.70982
1.68986
1.67112
1.65436
1.63861
1.6253
1.61303
1.60413
1.5968
1.5944
1.59656
1.60273
1.61508
1.63689
1.66926
1.71571
1.78105
1.87378
2.00926
2.21294
2.49803
2.89867
3.47408
4.33797
5.7189
8.05599
12.1923
19.8257
35.6733
82.4328
325.846
2343.35
1.75506
1.7807
1.80833
1.83808
1.86995
1.73166
1.70982
1.68984
1.6711
1.65431
1.63855
1.62519
1.61287
1.60393
1.59649
1.59403
1.59608
1.60206
1.6139
1.63473
1.66479
1.70646
1.76236
1.83742
1.93867
2.08177
2.28993
2.57864
2.97916
3.55156
4.41369
5.78485
8.08841
12.1664
19.749
35.748
83.6214
335.295
2408.92
1.73165
1.75532
1.78111
1.80866
1.83828
1.87003
1.70982
1.68981
1.67109
1.65425
1.6385
1.62509
1.61274
1.60375
1.59624
1.59374
1.59575
1.6017
1.6135
1.63421
1.66372
1.70387
1.75599
1.8228
1.90782
2.0186
2.16845
2.38111
2.67176
3.07237
3.64915
4.51196
5.86366
8.13015
12.1503
19.6714
35.7447
84.6168
343.898
2470.2
1.70981
1.73194
1.75584
1.78154
1.809
1.8385
1.87011
1.68979
1.67107
1.6542
1.63846
1.625
1.61263
1.6036
1.59602
1.59351
1.5955
1.60149
1.61341
1.63441
1.66419
1.70439
1.75568
1.82006
1.89877
1.9954
2.11494
2.27176
2.48706
2.77848
3.18886
3.77405
4.62401
5.95348
8.18164
12.1397
19.5929
35.7245
85.4417
351.985
2528.37
1.68977
1.71015
1.73253
1.75637
1.78199
1.80934
1.83872
1.87019
1.67106
1.65416
1.63842
1.62491
1.61254
1.60346
1.59583
1.59331
1.5953
1.60135
1.61345
1.63489
1.66542
1.70664
1.75878
1.8234
1.90062
1.99264
2.10097
2.23107
2.39258
2.6097
2.91287
3.33561
3.91318
4.74869
6.05317
8.24136
12.1404
19.5197
35.6808
86.181
359.532
2583.37
1.67105
1.69012
1.71083
1.73314
1.75692
1.78244
1.8097
1.83895
1.87028
1.65412
1.6384
1.62483
1.61247
1.60334
1.59566
1.59315
1.59514
1.60126
1.61355
1.63546
1.66687
1.70963
1.76369
1.8304
1.90927
2.00147
2.10642
2.22724
2.36652
2.5339
2.76517
3.08429
3.5005
4.0664
4.88416
6.16164
8.30889
12.1451
19.4515
35.6228
86.8248
366.751
2636.06
1.65409
1.67144
1.69084
1.71152
1.73377
1.75749
1.78291
1.81007
1.83918
1.87036
1.63838
1.62476
1.61241
1.60322
1.59553
1.59301
1.59501
1.60119
1.61367
1.63604
1.66834
1.71272
1.76931
1.8394
1.92181
2.01758
2.1247
2.24438
2.37554
2.52387
2.71299
2.96546
3.27852
3.68338
4.23261
5.02919
6.27752
8.3829
12.1558
19.3913
35.5591
87.4336
373.551
2685.91
1.63836
1.65446
1.67224
1.69159
1.71224
1.73441
1.75807
1.78339
1.81044
1.83942
1.87045
1.62469
1.61237
1.60311
1.59542
1.59289
1.59489
1.60114
1.61381
1.6366
1.66976
1.71572
1.7749
1.84918
1.93666
2.03811
2.15094
2.2754
2.40781
2.55043
2.72368
2.94144
3.19413
3.49586
3.88275
4.41076
5.18246
6.3996
8.46202
12.1746
19.3382
35.5002
87.9847
380.099
2733.81
1.62463
1.63877
1.65527
1.67306
1.69236
1.71298
1.73508
1.75866
1.78388
1.81083
1.83966
1.87054
1.61234
1.603
1.59533
1.59278
1.5948
1.60111
1.61395
1.63712
1.67111
1.71855
1.78026
1.85878
1.9524
2.06161
2.18248
2.31562
2.45541
2.60236
2.77491
2.98354
3.20075
3.44608
3.73494
4.09839
4.59989
5.3427
6.52637
8.54543
12.1988
19.2932
35.445
88.523
386.275
2778.93
1.61232
1.62499
1.63963
1.6561
1.67391
1.69315
1.71374
1.73576
1.75927
1.78439
1.81122
1.83992
1.87063
1.60289
1.59527
1.59269
1.59471
1.60108
1.61408
1.63762
1.67238
1.72118
1.78533
1.86794
1.96778
2.08642
2.21806
2.36273
2.5142
2.67217
2.85443
3.07008
3.28356
3.49252
3.72061
3.99129
4.32859
4.79808
5.50815
6.6566
8.63205
12.2278
19.2551
35.3979
89.0208
392.235
2822.32
1.6028
1.6127
1.62578
1.64052
1.65695
1.67478
1.69397
1.71452
1.73647
1.7599
1.78491
1.81163
1.84018
1.87073
1.59522
1.5926
1.59463
1.60106
1.61421
1.63807
1.67355
1.72361
1.79007
1.87656
1.9825
2.11084
2.25561
2.41578
2.58237
2.75646
2.95596
3.19039
3.41536
3.62498
3.81616
4.01763
4.26138
4.57053
5.00371
5.67796
6.78909
8.72093
12.2607
19.2246
35.3584
89.5139
397.837
2862.93
1.59521
1.60305
1.61352
1.6266
1.64143
1.65784
1.67567
1.69481
1.71532
1.73719
1.76054
1.78545
1.81204
1.84044
1.87081
1.5925
1.59456
1.60104
1.61433
1.6385
1.67463
1.72585
1.79449
1.8846
1.99649
2.13437
2.29271
2.47234
2.65957
2.85431
3.07744
3.34031
3.58959
3.81414
4.00884
4.17093
4.33611
4.54367
4.82128
5.21602
5.85071
6.92287
8.81116
12.2968
19.1998
35.3266
89.9756
403.255
2902.02
1.59241
1.59548
1.60364
1.61436
1.62745
1.64238
1.65876
1.67659
1.69568
1.71614
1.73794
1.7612
1.786
1.81245
1.84069
1.8709
1.59448
1.60101
1.61443
1.63888
1.67561
1.72791
1.79858
1.89207
2.00969
2.1568
2.3287
2.52909
2.74276
2.96627
3.21951
3.5205
3.80578
4.05924
4.27029
4.4363
4.55585
4.67387
4.83658
5.07581
5.43232
6.02499
7.05677
8.90191
12.3353
19.1818
35.3024
90.4342
408.313
2938.34
1.59443
1.59236
1.59604
1.60423
1.61524
1.62834
1.64335
1.65971
1.67753
1.69658
1.71698
1.7387
1.76188
1.78654
1.81285
1.84093
1.87098
1.60098
1.61453
1.63924
1.67651
1.72979
1.80235
1.89898
2.02208
2.17801
2.36338
2.585
2.82692
3.08874
3.38489
3.73527
4.06979
4.3666
4.609
4.78902
4.90875
4.96987
5.02875
5.13902
5.33293
5.65021
6.19913
7.1899
8.99245
12.3759
19.1678
35.284
90.8669
413.22
2973.35
1.601
1.59425
1.59225
1.59661
1.60487
1.61615
1.62927
1.64435
1.66069
1.6785
1.6975
1.71785
1.73949
1.76254
1.78707
1.81323
1.84116
1.87106
1.6146
1.63956
1.67733
1.73151
1.8058
1.90535
2.03365
2.19791
2.39661
2.63948
2.91038
3.21528
3.57036
3.99229
4.39349
4.75275
5.04437
5.25316
5.3775
5.42823
5.4121
5.39878
5.44868
5.59133
5.86838
6.37255
7.32169
9.08219
12.4176
19.1597
35.2733
91.2942
417.761
3005.64
1.61475
1.60057
1.5938
1.5921
1.59726
1.60557
1.61709
1.63025
1.64537
1.66171
1.6795
1.69845
1.71873
1.74027
1.76319
1.78758
1.81361
1.84139
1.87114
1.63982
1.67806
1.73308
1.80896
1.9112
2.04439
2.21651
2.42828
2.69199
2.99245
3.3442
3.76687
4.28944
4.79578
5.24693
5.61488
5.87195
6.0111
6.04472
5.99727
5.88171
5.78205
5.76348
5.84951
6.08416
6.54463
7.45147
9.17061
12.4602
19.1539
35.2657
91.6991
422.191
3036.8
1.64018
1.61392
1.59945
1.59329
1.59206
1.59794
1.60633
1.61806
1.63127
1.64643
1.66277
1.68052
1.69943
1.71961
1.74103
1.76382
1.78809
1.81397
1.84162
1.87122
1.6787
1.73449
1.81183
1.91658
2.05432
2.23382
2.45829
2.74216
3.07278
3.47454
3.97043
4.61366
5.28393
5.89631
6.38539
6.72253
6.8906
6.90453
6.79976
6.61804
6.37773
6.17668
6.0815
6.10659
6.29533
6.71395
7.57859
9.25728
12.503
19.1535
35.2658
92.0961
426.257
3061.89
1.67942
1.63873
1.61165
1.59822
1.5929
1.59211
1.59864
1.60716
1.61906
1.63234
1.64751
1.66386
1.68156
1.7004
1.72046
1.74176
1.76444
1.78857
1.81433
1.84184
1.87129
1.73574
1.81443
1.92151
2.06348
2.2499
2.48658
2.78978
3.15114
3.60486
4.17803
4.96192
5.84893
6.73447
7.45307
7.92406
8.14754
8.13938
7.95149
7.64897
7.29126
6.89865
6.5807
6.40101
6.36167
6.50147
6.87947
7.70247
9.34181
12.5459
19.1547
35.2678
92.4709
429.711
3083.08
1.73707
1.67722
1.63467
1.60925
1.59717
1.59261
1.5923
1.59934
1.60808
1.62007
1.63346
1.64862
1.66498
1.6826
1.70134
1.72129
1.74248
1.76504
1.78905
1.81467
1.84205
1.87137
1.81676
1.926
2.0719
2.26483
2.51313
2.83481
3.22725
3.73353
4.38772
5.33548
6.49441
7.75388
8.88254
9.63583
9.96586
9.94467
9.64325
9.16082
8.59365
8.01531
7.44215
6.99203
6.7204
6.61344
6.70212
7.04045
7.82267
9.4239
12.5885
19.1577
35.2724
92.7874
432.557
3106
1.81912
1.7339
1.67072
1.63036
1.60713
1.59622
1.59237
1.59269
1.60004
1.60907
1.62112
1.63462
1.64976
1.6661
1.68361
1.70226
1.7221
1.74318
1.76562
1.78951
1.81501
1.84225
1.87144
1.93009
2.07961
2.27866
2.53796
2.87729
3.30084
3.85915
4.59902
5.73599
7.22232
8.95045
10.644
11.9462
12.5735
12.5753
12.1394
11.4076
10.5299
9.62911
8.78588
8.00501
7.40843
7.03813
6.86078
6.89688
7.19632
7.9388
9.5033
12.6304
19.1632
35.2795
93.0525
435.668
3131.13
1.93405
1.81472
1.72391
1.66392
1.62642
1.60516
1.59534
1.59206
1.59325
1.60074
1.61012
1.6222
1.63582
1.6509
1.66718
1.6846
1.70316
1.72289
1.74386
1.76618
1.78995
1.81533
1.84245
1.87147
2.08669
2.29143
2.56112
2.91732
3.3716
3.98088
4.81252
6.16352
8.02738
10.3106
12.7093
14.7848
16.0864
16.3446
15.7774
14.7291
13.4202
12.0458
10.7454
9.59633
8.58322
7.82746
7.35275
7.10279
7.08538
7.34668
8.0506
9.57984
12.6713
19.1693
35.2866
93.3487
439.039
3158.47
2.09332
1.92811
1.79981
1.71358
1.65766
1.62272
1.60331
1.59454
1.59175
1.59393
1.60148
1.61124
1.62332
1.63701
1.65202
1.66824
1.68556
1.70402
1.72365
1.74451
1.76673
1.79039
1.81565
1.84255
1.87147
2.3033
2.58266
2.955
3.43928
4.09839
5.02911
6.6159
8.89893
11.8111
15.0424
18.0958
20.389
21.4161
20.9867
19.5664
17.6906
15.6557
13.6884
11.9288
10.4383
9.17214
8.24663
7.66289
7.33866
7.2673
7.49126
8.1579
9.65332
12.706
19.1754
35.2959
93.6709
442.755
3188.62
2.31415
2.08555
1.90613
1.78454
1.70403
1.65172
1.61922
1.6016
1.59381
1.59152
1.59469
1.60228
1.61239
1.62446
1.63818
1.65311
1.66926
1.6865
1.70487
1.7244
1.74516
1.76726
1.79081
1.81581
1.84255
1.87147
2.60281
2.99042
3.50373
4.2118
5.2495
7.08915
9.8237
13.4246
17.5982
21.818
25.3964
27.6288
28.0083
26.5046
23.9139
20.987
18.0816
15.4336
13.1636
11.3026
9.76688
8.66348
7.96728
7.5677
7.44241
7.62993
8.26061
9.71449
12.736
19.183
35.3079
94.036
446.778
3221.46
2.62077
2.30394
2.05348
1.88393
1.77039
1.69493
1.64603
1.61591
1.60002
1.59316
1.59138
1.59552
1.60314
1.61354
1.62559
1.63931
1.65418
1.67026
1.68742
1.70569
1.72513
1.74578
1.76778
1.79102
1.81581
1.84255
1.87147
3.02391
3.56496
4.32156
5.47385
7.57801
10.7877
15.1237
20.3291
25.8773
31.0127
34.8605
36.6317
35.8941
32.8724
28.7731
24.5724
20.6615
17.2562
14.4338
12.1797
10.3626
9.07559
8.26471
7.78939
7.61056
7.7624
8.34609
9.76687
12.7694
19.1925
35.324
94.4341
451.23
3257.79
3.05333
2.60758
2.25727
2.02154
1.86333
1.75685
1.68617
1.6406
1.61281
1.59856
1.59262
1.59135
1.59638
1.60407
1.61465
1.62671
1.64041
1.65523
1.67123
1.68831
1.70649
1.72583
1.74638
1.76804
1.79102
1.81581
1.84255
1.87147
3.62337
4.42834
5.70178
8.07637
11.7771
16.8816
23.1878
30.1948
37.1188
42.9633
46.6843
47.4697
45.0595
40.0355
34.0833
28.3959
23.3584
19.131
15.7239
13.061
10.9547
9.48073
8.5542
8.0033
7.77169
7.87156
8.41924
9.82478
12.8068
19.2046
35.3446
94.8884
456.062
3297.32
3.67422
3.03593
2.53954
2.2115
1.99189
1.84359
1.74378
1.67774
1.63541
1.60989
1.59722
1.5922
1.59145
1.59723
1.60503
1.61574
1.62782
1.64148
1.65626
1.67218
1.68918
1.70726
1.72652
1.74668
1.76804
1.79102
1.81581
1.84255
1.87147
4.53287
5.93057
8.578
12.7785
18.6731
26.1287
34.6916
43.5856
51.7482
57.9427
60.9934
60.1511
55.4443
47.9136
39.7735
32.4044
26.1358
21.0351
17.0197
13.9381
11.539
9.87694
8.83487
8.20908
7.90561
7.96445
8.50001
9.88892
12.8489
19.2196
35.3715
95.3846
461.447
3341.17
4.62499
3.65172
2.93516
2.47391
2.169
1.96343
1.82449
1.73116
1.66964
1.63047
1.60718
1.59603
1.59189
1.59172
1.59802
1.60603
1.61679
1.62891
1.64252
1.65726
1.6731
1.69003
1.70802
1.72686
1.74668
1.76804
1.79102
1.81581
1.84255
1.87143
6.15779
9.07871
13.7796
20.4741
29.109
39.2927
50.2845
61.0083
70.1134
76.1362
77.8287
74.616
66.9447
56.406
45.766
36.5448
28.9601
22.9476
18.309
14.8041
12.1118
10.2625
9.10599
8.38049
8.02016
8.06651
8.58929
9.9601
12.8962
19.2383
35.4053
95.9381
467.306
3388.8
4.59503
6.3588
3.49731
2.84027
2.41298
2.1282
1.93589
1.80602
1.719
1.66187
1.62577
1.6047
1.59497
1.59167
1.59223
1.59878
1.60705
1.61782
1.62998
1.64353
1.65824
1.67399
1.69085
1.70839
1.72686
1.74668
1.76804
1.79102
1.81581
1.84245
1.87136
9.57417
14.7699
22.2633
32.0889
43.9286
57.0957
70.5401
82.8747
92.4583
97.6258
97.1394
90.7371
79.4193
65.397
51.9805
40.7661
31.8004
24.8503
19.5809
15.6531
12.6701
10.6361
9.3326
8.52735
8.14665
8.17881
8.68808
10.0392
12.9496
19.2615
35.4486
96.53
473.88
3441.76
4.34092
6.33021
10.012
3.35699
2.7523
2.3545
2.08873
1.90924
1.78819
1.7073
1.65445
1.62129
1.60247
1.59405
1.59136
1.59288
1.59953
1.60807
1.61882
1.63104
1.64453
1.65919
1.67487
1.69126
1.70839
1.72686
1.74668
1.76804
1.79102
1.81565
1.84225
1.87129
15.7394
24.0224
35.0338
48.5373
63.9125
80.1593
95.9149
109.476
118.908
122.381
118.782
108.327
92.698
74.7622
58.3379
45.0214
34.6295
26.7275
20.8269
16.4801
13.2115
10.949
9.52715
8.68981
8.28655
8.30261
8.79754
10.1274
13.0101
19.2903
35.5016
97.1987
481.044
3499.03
4.11804
5.88215
10.0029
16.5972
3.2282
2.66796
2.29799
2.05054
1.88349
1.77102
1.69609
1.64738
1.61711
1.60049
1.59328
1.59113
1.59359
1.60027
1.60909
1.61982
1.63207
1.64549
1.66012
1.67529
1.69126
1.70838
1.72686
1.74668
1.76804
1.7908
1.81533
1.84204
1.87122
25.7348
37.9155
53.0673
70.644
89.7095
108.96
126.726
140.972
149.458
150.253
142.525
127.149
106.591
84.3761
64.7634
49.2681
37.4237
28.5665
22.0399
17.2814
13.665
11.2179
9.74281
8.86984
8.44152
8.43934
8.91898
10.2257
13.0788
19.3259
35.5683
97.9172
489.151
3562.95
3.91753
5.4913
9.18726
16.6521
27.2588
3.10544
2.5866
2.2434
2.01366
1.85869
1.75454
1.68538
1.64072
1.61335
1.59882
1.59265
1.591
1.59434
1.60104
1.61009
1.6208
1.63307
1.64645
1.66058
1.67529
1.69126
1.70838
1.72686
1.74668
1.76778
1.79038
1.815
1.84183
1.87114
40.7089
57.4785
77.2188
99.0651
121.79
143.813
163.148
177.387
183.976
180.982
168.061
146.928
120.902
94.1177
71.1884
53.4686
40.1635
30.3571
23.2143
17.9522
14.0549
11.5164
9.98225
9.06965
8.61346
8.59062
9.0539
10.3357
13.1569
19.3697
35.6494
98.7424
497.984
3631.57
3.72993
5.14044
8.45918
15.2858
27.4773
43.2032
2.98754
2.50816
2.19077
1.97817
1.83488
1.73877
1.67527
1.63467
1.61008
1.59738
1.59214
1.59098
1.59508
1.60182
1.61106
1.62176
1.63407
1.64691
1.66058
1.67528
1.69126
1.70839
1.72686
1.74638
1.76726
1.78994
1.81466
1.84161
1.87106
61.736
83.5849
108.134
134.239
160.434
184.877
205.222
218.613
222.195
214.204
195.022
167.372
135.436
103.874
77.5516
57.5916
42.8329
32.0909
24.1969
18.5285
14.4875
11.8481
10.2485
9.29181
8.80454
8.75835
9.20402
10.459
13.2463
19.4237
35.75
99.635
508.093
3708.46
3.55277
4.81485
7.79746
14.0202
25.3842
43.7278
65.5402
2.8743
2.43272
2.14018
1.94411
1.81211
1.72387
1.66603
1.62929
1.60721
1.59616
1.59177
1.59106
1.59582
1.60262
1.61202
1.62273
1.63456
1.64689
1.66058
1.67528
1.69126
1.70839
1.72651
1.74577
1.76672
1.78949
1.81432
1.84139
1.87098
89.6983
116.855
146.196
176.379
205.75
232.186
252.87
264.411
263.725
249.461
222.999
188.185
150.01
113.543
83.8016
61.6115
45.419
33.5416
25.0407
19.1674
14.968
12.2171
10.545
9.53922
9.01726
8.94471
9.37136
10.5974
13.3486
19.4899
35.8723
100.679
519.05
3790.16
3.38535
4.51057
7.17997
12.834
23.4111
40.7309
66.5471
95.1506
2.7657
2.36042
2.09173
1.91157
1.79058
1.71021
1.65775
1.62452
1.60471
1.59512
1.59152
1.59127
1.59653
1.60345
1.613
1.6232
1.63454
1.64689
1.66058
1.67529
1.69126
1.70801
1.72582
1.74514
1.76616
1.78903
1.81396
1.84116
1.8709
125.179
157.601
191.525
225.506
257.726
285.673
305.901
314.414
308.056
286.228
251.569
209.082
164.458
123.04
89.8955
65.507
47.5836
34.7873
25.9759
19.8765
15.5024
12.6282
10.8757
9.81519
9.25449
9.15221
9.55817
10.753
13.4662
19.5714
36.0231
101.819
531.805
3897.73
3.22726
4.22701
6.6002
11.7062
21.5237
37.8786
62.4804
96.8255
132.568
2.66185
2.29142
2.04552
1.88084
1.77083
1.69795
1.65035
1.62027
1.60253
1.59425
1.59136
1.59162
1.59723
1.60434
1.61346
1.62316
1.63455
1.64689
1.66058
1.67529
1.69085
1.70725
1.72511
1.74449
1.7656
1.78855
1.8136
1.84092
1.87081
168.407
205.828
244.023
281.521
316.277
345.205
364.025
368.124
354.577
323.941
280.314
229.802
178.638
132.293
95.7988
68.7675
49.4426
36.168
27.0134
20.6644
16.0972
13.0867
11.245
10.1235
9.51949
9.38376
9.76726
10.9287
13.6016
19.6711
36.2073
103.169
547.874
4029.19
3.07811
3.96432
6.05841
10.6304
19.6924
35.1123
58.604
91.5326
135.071
177.921
2.56292
2.22585
2.00195
1.85269
1.75309
1.68695
1.64372
1.61648
1.60069
1.59352
1.59116
1.5921
1.59799
1.60475
1.6134
1.62316
1.63455
1.64689
1.66058
1.67486
1.69001
1.70646
1.72438
1.74383
1.76501
1.78807
1.81322
1.84068
1.87072
219.258
261.294
303.465
344.279
381.301
410.603
426.846
424.923
402.602
362.022
308.841
250.121
192.433
141.244
100.736
71.5674
51.5031
37.6997
28.1655
21.5404
16.7599
13.5985
11.6578
10.4684
9.81598
9.6427
10.0013
11.1267
13.7583
19.7935
36.4332
104.952
569.174
4163.29
2.93716
3.72307
5.5563
9.61024
17.9065
32.3904
54.816
86.5205
128.39
181.339
230.937
2.46921
2.16427
1.96212
1.82742
1.73716
1.67707
1.63779
1.6131
1.59911
1.59291
1.59101
1.59277
1.5983
1.60468
1.6134
1.62316
1.63454
1.64691
1.66012
1.67398
1.68916
1.70566
1.72363
1.74315
1.76442
1.78757
1.81284
1.84043
1.87063
277.331
323.621
369.597
413.668
452.748
481.668
493.868
484.079
451.394
399.912
336.808
269.853
205.748
148.717
104.972
74.6696
53.7888
39.4006
29.4461
22.5153
17.4986
14.1703
12.1197
10.8548
10.1482
9.93286
10.2649
11.3526
13.9402
19.9436
36.7631
107.32
592.427
4298.79
2.80389
3.50567
5.09484
8.655
16.1672
29.6931
51.0563
81.6166
122.157
173.072
235.246
291.029
2.3816
2.10815
1.92645
1.80475
1.72285
1.66822
1.63249
1.61011
1.59775
1.59242
1.59113
1.59306
1.59815
1.60469
1.6134
1.62316
1.63456
1.64644
1.65917
1.67307
1.68828
1.70484
1.72286
1.74246
1.76381
1.78706
1.81244
1.84018
1.87054
342.076
392.421
442.281
489.793
530.727
558.21
564.483
544.761
500.206
437.111
363.932
288.849
216.833
155.119
109.661
78.1091
56.3265
41.2908
30.8704
23.6009
18.3226
14.8093
12.6368
11.2878
10.5208
10.2584
10.5591
11.6102
14.153
20.1622
37.2363
110.105
617.998
4434.15
2.67928
3.3078
4.67355
7.76722
14.482
27.0176
47.2891
76.735
116.093
165.54
225.122
296.056
357.444
2.30221
2.05804
1.89451
1.7844
1.71001
1.66028
1.62776
1.60748
1.59662
1.59229
1.59105
1.59293
1.59814
1.60469
1.6134
1.6232
1.63406
1.64548
1.65821
1.67215
1.68739
1.70399
1.72207
1.74174
1.76318
1.78653
1.81204
1.83992
1.87045
412.956
467.472
521.687
573.078
615.554
640.027
637.944
606.062
548.339
473.194
389.985
304.612
226.308
162.191
114.853
81.9246
59.1455
43.3925
32.4555
24.8102
19.2417
15.5235
13.2158
11.7734
10.939
10.625
10.8881
11.9041
14.4473
20.4788
37.833
113.286
645.758
4568.57
2.56634
3.12769
4.29419
6.94858
12.8683
24.3726
43.4998
71.8154
110.079
158.305
216.183
283.682
362.845
429.452
2.23177
2.0133
1.86591
1.76615
1.69849
1.65317
1.62353
1.60522
1.59601
1.59205
1.59074
1.59297
1.59814
1.60468
1.61346
1.62273
1.63306
1.6445
1.65723
1.6712
1.68647
1.70312
1.72127
1.74101
1.76253
1.78599
1.81162
1.83966
1.87036
489.623
548.911
608.414
664.309
707.669
726.772
713.33
667.071
595.174
507.819
411.536
318.051
236.747
170.003
120.601
86.1582
62.2781
45.7305
34.2201
26.1574
20.2671
16.3217
13.864
12.3179
11.4084
11.0381
11.2577
12.3008
14.8461
20.8673
38.557
116.991
676.379
4700.28
2.46622
2.96712
3.95831
6.20506
11.3445
21.7753
39.689
66.8213
104.02
151.212
207.772
273.165
347.645
434.734
506.562
2.16924
1.97335
1.8403
1.74978
1.68816
1.64678
1.61982
1.60375
1.59548
1.59167
1.59076
1.59297
1.59815
1.60475
1.61299
1.62174
1.63204
1.6435
1.65622
1.67023
1.68553
1.70223
1.72044
1.74026
1.76187
1.78544
1.81121
1.83941
1.87027
572.165
637.493
703.78
764.806
807.549
817.857
789.602
726.934
640.202
536.406
429.864
332.808
248.238
178.626
126.965
90.8553
65.7596
48.3318
36.1846
27.6582
21.4104
17.2129
14.5891
12.9277
11.9353
11.5028
11.7506
12.8167
15.3028
21.3378
39.4507
121.272
709.563
4828.28
2.37772
2.82509
3.67158
5.54553
9.92959
19.2494
35.8686
61.734
97.8489
144.121
199.688
263.539
335.283
415.863
511.136
588.813
2.11369
1.93768
1.81738
1.73511
1.67886
1.64113
1.6172
1.60269
1.59496
1.59171
1.59076
1.59293
1.5983
1.60433
1.61201
1.62077
1.631
1.64248
1.65519
1.66923
1.68457
1.70132
1.71959
1.73948
1.7612
1.7849
1.81082
1.83917
1.87019
661.452
734.994
810.2
876.502
915.633
912.468
865.72
784.905
677.408
560.676
449.927
348.987
260.87
188.137
134.005
96.0649
69.628
51.2253
38.3712
29.3293
22.6841
18.207
15.3988
13.61
12.5253
12.1221
12.3802
13.3839
15.8238
21.9047
40.5488
126.234
746.331
4950.5
2.29963
2.69853
3.43551
4.98339
8.65461
16.8215
32.061
56.5474
91.5139
136.926
191.741
254.555
324.344
401.269
487.369
592.05
677.194
2.06429
1.90584
1.79687
1.72191
1.6706
1.63696
1.61547
1.60196
1.59504
1.59171
1.59074
1.59306
1.59799
1.60343
1.61104
1.61978
1.62994
1.64144
1.65415
1.6682
1.68359
1.70038
1.71873
1.7387
1.76053
1.78437
1.81043
1.83894
1.87011
759.604
844.885
931.549
1001.97
1032.15
1009.83
940.683
833.099
709.002
587.183
471.839
366.69
274.732
198.611
141.785
101.838
73.9233
54.4421
40.8033
31.1881
24.1013
19.3137
16.3013
14.3707
13.3079
12.906
13.0601
14.0043
16.4134
22.5904
41.8904
132.039
786.201
5066
2.23076
2.58584
3.2369
4.51561
7.54984
14.5357
28.2983
51.2681
84.9751
129.532
183.779
245.957
314.513
388.83
470.038
561.65
678.643
774.387
2.02036
1.87744
1.77844
1.71018
1.66434
1.63433
1.6145
1.60207
1.59504
1.59167
1.59105
1.59277
1.59721
1.6026
1.61005
1.61879
1.62887
1.64037
1.65308
1.66715
1.68258
1.69942
1.71784
1.73792
1.75988
1.78386
1.81005
1.83871
1.87002
871.012
973.284
1073.98
1143.97
1158.25
1108.91
1003.95
874.175
743.51
616.056
495.706
386.008
289.906
210.122
150.367
108.226
78.687
58.0143
43.5054
33.2531
25.6751
20.543
17.3035
15.3748
14.2892
13.7413
13.7887
14.6765
17.0813
23.4066
43.5531
138.764
830.598
5172.67
2.16999
2.48587
3.06645
4.12965
6.62029
12.4844
24.6481
45.9185
78.2035
121.85
175.66
237.55
305.458
378.147
455.818
541.008
639.055
774.263
886.067
1.98128
1.85199
1.76205
1.70113
1.66047
1.63306
1.61465
1.60207
1.59496
1.59205
1.59113
1.59209
1.59651
1.60179
1.60905
1.61778
1.62778
1.63927
1.65199
1.66608
1.68156
1.69845
1.71697
1.73717
1.75925
1.78337
1.80969
1.83849
1.86995
1003.84
1131.34
1245.13
1310.88
1294.03
1194.71
1058.38
919.224
781.104
647.412
521.613
407.015
306.464
222.737
159.811
115.281
83.9608
61.9746
46.5023
35.5425
27.4189
21.9037
18.6206
16.6235
15.3241
14.622
14.5618
15.4029
17.8293
24.3902
45.5657
146.752
878.814
5269.99
2.11631
2.39764
2.91759
3.81228
5.8483
10.7116
21.2539
40.5761
71.1862
113.794
167.235
229.139
296.936
368.781
444.205
524.638
614.53
721.581
886.092
1024.55
1.94639
1.82943
1.74921
1.69566
1.65882
1.63328
1.61465
1.60196
1.59548
1.59229
1.59101
1.59161
1.5958
1.60101
1.60803
1.61675
1.62667
1.63815
1.65088
1.66497
1.68051
1.69748
1.71612
1.73644
1.75864
1.78289
1.80933
1.83828
1.86987
1174.66
1335.88
1473.61
1507.82
1415.59
1269.55
1118.71
968.58
821.968
681.353
549.628
429.768
324.463
236.513
170.173
123.05
89.7845
66.3547
49.8181
38.0741
29.3441
23.6856
20.2477
17.9294
16.4031
15.5405
15.3754
16.1774
18.6716
25.5443
48.0641
156.028
932.69
5356.1
2.06867
2.3201
2.78584
3.55401
5.21372
9.20835
18.2074
35.4422
63.983
105.286
158.347
220.519
288.705
360.438
434.606
511.948
595.591
692.563
814.828
1031.39
1214.36
1.9155
1.81157
1.74152
1.69354
1.65911
1.63328
1.6145
1.6027
1.59602
1.59243
1.59116
1.59126
1.59506
1.60025
1.60701
1.6157
1.62556
1.63699
1.64976
1.66386
1.67948
1.69655
1.71529
1.73574
1.75805
1.78242
1.80898
1.83807
1.86979
1419.05
1658.11
1775.32
1687.97
1523
1353.8
1185.83
1022.76
866.347
717.991
579.803
454.3
343.934
251.491
181.495
131.574
96.1938
71.1835
53.4753
40.8632
31.859
25.8764
21.9393
19.2802
17.5158
16.4888
16.2237
17.0041
19.6039
26.9251
51.0447
167.218
991.285
5431.52
2.02667
2.2519
2.66866
3.34167
4.69476
7.9523
15.5152
30.6735
56.8353
96.3296
148.829
211.456
280.509
352.828
426.669
502.122
581.599
670.622
780.221
931.779
1256.93
1525.96
1.89075
1.80107
1.73881
1.69395
1.65911
1.63306
1.61547
1.60377
1.59664
1.59292
1.59136
1.59106
1.59431
1.5995
1.606
1.61463
1.62444
1.63581
1.64862
1.66275
1.67848
1.69565
1.71449
1.73505
1.75747
1.78197
1.80865
1.83787
1.86972
1867.36
2110.55
2043.34
1847.66
1646.94
1450.01
1261.59
1082.7
914.665
757.485
612.181
480.617
364.887
267.688
193.804
140.884
103.217
76.4854
57.4917
44.4974
34.9394
28.1444
23.6794
20.6625
18.6512
17.4587
17.1032
17.8795
20.6503
28.5219
54.7187
180.239
1056.65
5494.81
1.99279
2.19242
2.56441
3.16279
4.27328
6.91263
13.1791
26.3134
49.9623
87.1585
138.582
201.687
272.055
345.664
420.05
494.725
571.483
655.006
754.898
889.7
1105.41
1712.13
2186.96
1.8763
1.79769
1.73936
1.69395
1.65881
1.63433
1.61723
1.60526
1.59779
1.59354
1.59153
1.59098
1.59357
1.59876
1.60501
1.61352
1.62332
1.63462
1.64749
1.66169
1.6775
1.69478
1.71371
1.73439
1.75691
1.78153
1.80832
1.83767
1.86969
2551.25
2537.47
2302.86
2049.82
1796.97
1566.86
1349.14
1150.28