/*--------------------------------*- C++ -*----------------------------------*\
  =========                 |
  \\      /  F ield         | OpenFOAM: The Open Source CFD Toolbox
   \\    /   O peration     | Website:  https://openfoam.org
    \\  /    A nd           | Version:  8
     \\/     M anipulation  |
\*---------------------------------------------------------------------------*/
FoamFile
{
    version     2.0;
    format      ascii;
    class       surfaceScalarField;
    location    "0.14";
    object      phi;
}
// * * * * * * * * * * * * * * * * * * * * * * * * * * * * * * * * * * * * * //

dimensions      [0 3 -1 0 0 0 0];

internalField   nonuniform List<scalar> 
31053
(
6.40145e-07
1.27399e-05
8.6316e-07
1.5157e-05
3.57382e-07
1.23825e-05
9.488e-07
1.75544e-05
5.67565e-07
1.49468e-05
2.75238e-07
1.21072e-05
9.73476e-07
2.02153e-05
6.82324e-07
1.74396e-05
4.71109e-07
1.47509e-05
2.16687e-07
1.18905e-05
9.64857e-07
2.32486e-05
7.41075e-07
2.01566e-05
5.9707e-07
1.73136e-05
3.96998e-07
1.45706e-05
1.72249e-07
1.17183e-05
9.34928e-07
2.66899e-05
7.66165e-07
2.32235e-05
6.72253e-07
2.00814e-05
5.24387e-07
1.71863e-05
3.32872e-07
1.441e-05
1.37926e-07
1.15804e-05
8.89492e-07
3.06654e-05
7.6938e-07
2.66867e-05
7.14374e-07
2.31814e-05
6.05455e-07
2.00003e-05
4.55065e-07
1.70641e-05
2.78657e-07
1.42693e-05
1.10875e-07
1.14695e-05
8.31639e-07
3.51979e-05
7.57175e-07
3.06776e-05
7.34332e-07
2.66668e-05
6.53737e-07
2.31331e-05
5.36142e-07
1.99192e-05
3.91762e-07
1.6951e-05
2.31674e-07
1.41485e-05
8.84042e-08
1.13811e-05
7.65156e-07
4.03865e-05
7.33731e-07
3.52213e-05
7.3858e-07
3.06734e-05
6.79298e-07
2.66412e-05
5.85185e-07
2.30841e-05
4.69128e-07
1.98419e-05
3.33018e-07
1.68496e-05
1.89562e-07
1.40473e-05
6.87012e-08
1.13124e-05
6.92632e-07
4.63525e-05
7.002e-07
4.042e-05
7.30993e-07
3.52289e-05
6.88139e-07
3.06646e-05
6.11209e-07
2.66152e-05
5.1565e-07
2.30376e-05
4.03642e-07
1.97713e-05
2.77185e-07
1.6762e-05
1.50541e-07
1.39655e-05
5.06192e-08
1.12618e-05
6.1591e-07
5.32167e-05
6.58106e-07
4.63946e-05
7.11909e-07
4.04391e-05
6.83189e-07
3.52338e-05
6.20129e-07
3.06556e-05
5.38965e-07
2.65919e-05
4.44887e-07
2.29963e-05
3.3856e-07
1.97099e-05
2.22889e-07
1.66896e-05
1.13315e-07
1.39028e-05
3.33772e-08
1.12284e-05
5.36952e-07
6.1059e-05
6.09252e-07
5.32656e-05
6.81778e-07
4.64247e-05
6.6733e-07
4.0455e-05
6.15322e-07
3.52386e-05
5.44831e-07
3.06498e-05
4.62833e-07
2.65739e-05
3.72139e-07
2.29627e-05
2.72761e-07
1.966e-05
1.69028e-07
1.66339e-05
7.69397e-08
1.38592e-05
1.6465e-08
1.12119e-05
4.57614e-07
7.00613e-05
5.55207e-07
6.1113e-05
6.41695e-07
5.33057e-05
6.41529e-07
4.64505e-05
5.99029e-07
4.04712e-05
5.36707e-07
3.52468e-05
4.62846e-07
3.06498e-05
3.82351e-07
2.65637e-05
2.96353e-07
2.29391e-05
2.05235e-07
1.96238e-05
1.14797e-07
1.65961e-05
4.07195e-08
1.3835e-05
-2.89275e-10
1.12122e-05
3.79589e-07
8.041e-05
4.97387e-07
7.01192e-05
5.929e-07
6.11618e-05
6.05846e-07
5.33413e-05
5.72356e-07
4.64772e-05
5.16559e-07
4.04914e-05
4.48295e-07
3.52613e-05
3.7398e-07
3.06581e-05
2.96479e-07
2.65636e-05
2.1652e-07
2.29279e-05
1.35292e-07
1.96033e-05
5.95736e-08
1.65772e-05
4.28074e-09
1.38304e-05
-1.71191e-08
1.12293e-05
3.16764e-07
7.62528e-05
4.37091e-07
8.04703e-05
5.36833e-07
7.01752e-05
5.60597e-07
6.1207e-05
5.35578e-07
5.33781e-05
4.85376e-07
4.65084e-05
4.21031e-07
4.05187e-05
3.50215e-07
3.52851e-05
2.7722e-07
3.06774e-05
2.04169e-07
2.65759e-05
1.31954e-07
2.29312e-05
6.24015e-08
1.96005e-05
3.01338e-09
1.65785e-05
-3.25935e-08
1.38459e-05
-3.42159e-08
1.12636e-05
2.63459e-07
7.62433e-05
3.85423e-07
7.63045e-05
4.75152e-07
8.0532e-05
5.06498e-07
7.02293e-05
4.88789e-07
6.12538e-05
4.435e-07
5.342e-05
3.81922e-07
4.65475e-05
3.12787e-07
4.05561e-05
2.41493e-07
3.53208e-05
1.71473e-07
3.07101e-05
1.0469e-07
2.66032e-05
4.21387e-08
2.29515e-05
-1.36581e-08
1.96172e-05
-5.50145e-08
1.66009e-05
-7.00616e-08
1.38817e-05
-5.15493e-08
1.13151e-05
2.18444e-07
7.6235e-05
3.38722e-07
7.629e-05
4.20548e-07
7.63591e-05
4.44757e-07
8.05937e-05
4.32296e-07
7.02858e-05
3.9101e-07
6.13063e-05
3.31256e-07
5.34707e-05
2.62438e-07
4.65979e-05
1.90859e-07
4.06067e-05
1.20989e-07
3.53713e-05
5.59427e-08
3.07588e-05
-2.48433e-09
2.66478e-05
-5.30616e-08
2.29909e-05
-9.28602e-08
1.9655e-05
-1.14474e-07
1.66453e-05
-1.08023e-07
1.39382e-05
-6.89568e-08
1.13841e-05
1.8062e-07
7.62298e-05
2.96585e-07
7.62772e-05
3.69901e-07
7.63407e-05
3.88469e-07
7.64154e-05
3.66956e-07
8.06591e-05
3.28052e-07
7.03488e-05
2.69101e-07
6.13685e-05
1.99351e-07
5.35337e-05
1.25906e-07
4.66628e-05
5.40499e-08
4.06737e-05
-1.21664e-08
3.54394e-05
-6.99162e-08
3.08263e-05
-1.17449e-07
2.67122e-05
-1.53471e-07
2.30515e-05
-1.74924e-07
1.97154e-05
-1.75063e-07
1.67124e-05
-1.462e-07
1.40154e-05
-8.63042e-08
1.14704e-05
1.49022e-07
7.62216e-05
2.58633e-07
7.62678e-05
3.2316e-07
7.63239e-05
3.35251e-07
7.63939e-05
3.06748e-07
7.64756e-05
2.55287e-07
8.07318e-05
1.95575e-07
7.04223e-05
1.23555e-07
6.14443e-05
4.6681e-08
5.3613e-05
-2.89631e-08
4.67458e-05
-9.86087e-08
4.07601e-05
-1.58543e-07
3.5528e-05
-2.06171e-07
3.0915e-05
-2.39895e-07
2.67986e-05
-2.58575e-07
2.31351e-05
-2.59257e-07
1.97996e-05
-2.36262e-07
1.68024e-05
-1.84226e-07
1.41133e-05
-1.03331e-07
1.15737e-05
1.22817e-07
7.62162e-05
2.2452e-07
7.62557e-05
2.8021e-07
7.63107e-05
2.85497e-07
7.63736e-05
2.49484e-07
7.64511e-05
1.88162e-07
7.65427e-05
1.11308e-07
8.08161e-05
3.51781e-08
7.05107e-05
-4.68499e-08
6.15378e-05
-1.28171e-07
5.37122e-05
-2.03257e-07
4.68505e-05
-2.67706e-07
4.08693e-05
-3.18181e-07
3.564e-05
-3.52357e-07
3.10274e-05
-3.69093e-07
2.69091e-05
-3.67475e-07
2.32433e-05
-3.44973e-07
1.99084e-05
-2.97409e-07
1.69156e-05
-2.21618e-07
1.42316e-05
-1.1985e-07
1.16935e-05
1.01197e-07
7.62116e-05
1.93903e-07
7.62468e-05
2.40914e-07
7.6295e-05
2.39384e-07
7.63568e-05
1.95857e-07
7.64273e-05
1.24336e-07
7.6515e-05
3.39409e-08
7.66201e-05
-6.50646e-08
8.09164e-05
-1.54539e-07
7.06184e-05
-2.43692e-07
6.16533e-05
-3.26446e-07
5.38354e-05
-3.97593e-07
4.69804e-05
-4.53255e-07
4.10043e-05
-4.90444e-07
3.57781e-05
-5.07547e-07
3.11659e-05
-5.03836e-07
2.70455e-05
-4.78874e-07
2.33772e-05
-4.31042e-07
2.0042e-05
-3.57702e-07
1.70517e-05
-2.57865e-07
1.43696e-05
-1.35525e-07
1.18291e-05
8.47411e-08
6.95985e-05
1.66486e-07
7.6239e-05
2.05118e-07
7.62826e-05
1.96992e-07
7.63374e-05
1.46258e-07
7.64064e-05
6.47482e-08
7.64869e-05
-3.93204e-08
7.65882e-05
-1.5645e-07
7.67115e-05
-2.75512e-07
8.10373e-05
-3.75359e-07
7.075e-05
-4.68406e-07
6.17953e-05
-5.48801e-07
5.39866e-05
-6.11962e-07
4.71391e-05
-6.54438e-07
4.11683e-05
-6.742e-07
3.59448e-05
-6.70218e-07
3.13323e-05
-6.42414e-07
2.7209e-05
-5.91323e-07
2.35375e-05
-5.16231e-07
2.02005e-05
-4.16253e-07
1.72101e-05
-2.92348e-07
1.45265e-05
-1.50166e-07
1.19792e-05
7.21627e-08
6.25566e-05
1.44045e-07
6.96209e-05
1.72696e-07
7.62715e-05
1.5835e-07
7.63213e-05
1.00923e-07
7.63827e-05
9.99497e-09
7.64612e-05
-1.07328e-07
7.65549e-05
-2.42482e-07
7.66743e-05
-3.85019e-07
7.6821e-05
-5.22092e-07
8.11841e-05
-6.2896e-07
7.09106e-05
-7.2171e-07
6.19682e-05
-7.95223e-07
5.41698e-05
-8.4536e-07
4.733e-05
-8.69912e-07
4.1364e-05
-8.67595e-07
3.61422e-05
-8.38227e-07
3.15281e-05
-7.82927e-07
2.74006e-05
-7.03081e-07
2.37244e-05
-5.99223e-07
2.03835e-05
-4.72088e-07
1.73898e-05
-3.24558e-07
1.47009e-05
-1.63303e-07
1.21425e-05
6.23742e-08
5.62278e-05
1.25859e-07
6.25748e-05
1.45953e-07
6.96476e-05
1.2347e-07
7.63063e-05
5.99999e-08
7.63622e-05
-3.95347e-08
7.64323e-05
-1.69288e-07
7.65232e-05
-3.21819e-07
7.66342e-05
-4.8751e-07
7.67767e-05
-6.54116e-07
7.6953e-05
-8.06786e-07
8.13619e-05
-9.16149e-07
7.1105e-05
-1.00361e-06
6.21766e-05
-1.06452e-06
5.4389e-05
-1.09622e-06
4.75563e-05
-1.09746e-06
4.15939e-05
-1.06801e-06
3.63719e-05
-1.0092e-06
3.17544e-05
-9.23103e-07
2.76207e-05
-8.12352e-07
2.39375e-05
-6.78574e-07
2.059e-05
-5.24306e-07
1.75896e-05
-3.53537e-07
1.48911e-05
-1.74175e-07
1.23167e-05
5.464e-08
5.05397e-05
1.11013e-07
5.62426e-05
1.24174e-07
6.25965e-05
9.49022e-08
6.96762e-05
2.35843e-08
7.63428e-05
-8.35825e-08
7.64062e-05
-2.2465e-07
7.64876e-05
-3.93471e-07
7.65948e-05
-5.81444e-07
7.67281e-05
-7.77063e-07
7.68997e-05
-9.66038e-07
7.71123e-05
-1.13054e-06
8.15763e-05
-1.23699e-06
7.13384e-05
-1.31272e-06
6.24248e-05
-1.35488e-06
5.46477e-05
-1.36194e-06
4.78208e-05
-1.33396e-06
4.18599e-05
-1.27259e-06
3.66353e-05
-1.18031e-06
3.20116e-05
-1.06062e-06
2.78689e-05
-9.17145e-07
2.41761e-05
-7.52963e-07
2.08186e-05
-5.71514e-07
1.78075e-05
-3.78635e-07
1.50956e-05
-1.82755e-07
1.24995e-05
4.8448e-08
4.54262e-05
9.88033e-08
5.05519e-05
1.06351e-07
5.62605e-05
7.18863e-08
6.26196e-05
-5.68727e-09
6.97055e-05
-1.21972e-07
7.63811e-05
-2.73034e-07
7.64546e-05
-4.56712e-07
7.65509e-05
-6.65617e-07
7.6679e-05
-8.89165e-07
7.68402e-05
-1.11377e-06
7.70474e-05
-1.32191e-06
7.73036e-05
-1.49354e-06
8.18328e-05
-1.58994e-06
7.16156e-05
-1.64703e-06
6.27169e-05
-1.66331e-06
5.4949e-05
-1.63885e-06
4.81257e-05
-1.57602e-06
4.21633e-05
-1.4779e-06
3.69329e-05
-1.34866e-06
3.22996e-05
-1.19288e-06
2.81447e-05
-1.01565e-06
2.44388e-05
-8.20537e-07
2.10676e-05
-6.12905e-07
1.80418e-05
-3.96357e-07
1.53092e-05
-1.50585e-07
1.26501e-05
4.34297e-08
4.0831e-05
8.86923e-08
4.54363e-05
9.16891e-08
5.05666e-05
5.33247e-08
5.6279e-05
-2.87383e-08
6.26426e-05
-1.51991e-07
6.97355e-05
-3.14175e-07
7.64223e-05
-5.11021e-07
7.65089e-05
-7.39105e-07
7.66244e-05
-9.88982e-07
7.67788e-05
-1.24795e-06
7.69744e-05
-1.49896e-06
7.72245e-05
-1.72205e-06
7.75321e-05
-1.89409e-06
8.2137e-05
-1.97276e-06
7.19414e-05
-2.0031e-06
6.30567e-05
-1.98559e-06
5.52958e-05
-1.92301e-06
4.84727e-05
-1.81958e-06
4.2505e-05
-1.6804e-06
3.72647e-05
-1.51099e-06
3.26177e-05
-1.31754e-06
2.84466e-05
-1.10554e-06
2.47238e-05
-8.80013e-07
2.13348e-05
-6.43471e-07
1.82889e-05
-3.91186e-07
1.55498e-05
-1.01769e-07
1.27518e-05
3.93145e-08
3.67001e-05
8.02787e-08
4.08394e-05
7.95688e-08
4.54484e-05
3.83388e-08
5.05816e-05
-4.68295e-08
5.62971e-05
-1.74828e-07
6.26654e-05
-3.45266e-07
6.97666e-05
-5.56027e-07
7.64673e-05
-8.01226e-07
7.6571e-05
-1.07537e-06
7.67107e-05
-1.36687e-06
7.68977e-05
-1.65936e-06
7.71348e-05
-1.93315e-06
7.74356e-05
-2.16472e-06
7.78028e-05
-2.32985e-06
8.24941e-05
-2.38167e-06
7.23199e-05
-2.37616e-06
6.34473e-05
-2.31711e-06
5.56899e-05
-2.20958e-06
4.88627e-05
-2.06034e-06
4.28849e-05
-1.87615e-06
3.76298e-05
-1.6644e-06
3.29646e-05
-1.43178e-06
2.87728e-05
-1.18498e-06
2.50287e-05
-9.26569e-07
2.16179e-05
-6.56214e-07
1.85539e-05
-3.67112e-07
1.58151e-05
-8.16766e-08
1.28335e-05
3.59033e-08
3.29894e-05
7.32545e-08
3.67071e-05
6.95175e-08
4.08495e-05
2.62238e-08
4.54605e-05
-6.09812e-08
5.05957e-05
-1.92003e-07
5.63143e-05
-3.6787e-07
6.26881e-05
-5.88784e-07
6.97993e-05
-8.5148e-07
7.65175e-05
-1.14745e-06
7.66431e-05
-1.46913e-06
7.6813e-05
-1.8011e-06
7.70394e-05
-2.12416e-06
7.73258e-05
-2.41462e-06
7.76855e-05
-2.64756e-06
7.81205e-05
-2.79665e-06
8.29091e-05
-2.8112e-06
7.2755e-05
-2.76084e-06
6.3891e-05
-2.65223e-06
5.61325e-05
-2.49355e-06
4.92959e-05
-2.29368e-06
4.33024e-05
-2.06165e-06
3.80271e-05
-1.80557e-06
3.33384e-05
-1.53327e-06
2.91211e-05
-1.24971e-06
2.53519e-05
-9.55428e-07
2.19171e-05
-6.55833e-07
1.88427e-05
-3.45585e-07
1.6079e-05
-7.66968e-08
1.29102e-05
3.30503e-08
2.96509e-05
6.73657e-08
3.29953e-05
6.11676e-08
3.67155e-05
1.63942e-08
4.08593e-05
-7.2017e-08
4.54716e-05
-2.04743e-07
5.06085e-05
-3.83855e-07
5.63303e-05
-6.11335e-07
6.27106e-05
-8.86707e-07
6.98346e-05
-1.20456e-06
7.65747e-05
-1.55362e-06
7.67276e-05
-1.92246e-06
7.69344e-05
-2.29268e-06
7.7208e-05
-2.64068e-06
7.75519e-05
-2.94105e-06
7.7979e-05
-3.16613e-06
7.84899e-05
-3.28836e-06
8.33862e-05
-3.25532e-06
7.32494e-05
-3.15074e-06
6.43895e-05
-2.98521e-06
5.66242e-05
-2.76954e-06
4.97717e-05
-2.51547e-06
4.37562e-05
-2.23307e-06
3.84546e-05
-1.93171e-06
3.37368e-05
-1.61822e-06
2.94896e-05
-1.29594e-06
2.56924e-05
-9.71729e-07
2.2233e-05
-6.5168e-07
1.91488e-05
-3.34824e-07
1.63371e-05
-8.22585e-08
1.29925e-05
3.0646e-08
2.66504e-05
6.24015e-08
2.96558e-05
5.42135e-08
3.30023e-05
8.37769e-09
3.67235e-05
-8.0603e-08
4.08679e-05
-2.14038e-07
4.54809e-05
-3.94735e-07
5.06194e-05
-6.26007e-07
5.63449e-05
-9.09543e-07
6.27334e-05
-1.24325e-06
6.98733e-05
-1.61948e-06
7.66405e-05
-2.02207e-06
7.68272e-05
-2.43667e-06
7.70783e-05
-2.84013e-06
7.74074e-05
-3.20677e-06
7.78176e-05
-3.50787e-06
7.83207e-05
-3.71379e-06
7.89154e-05
-3.79837e-06
8.39293e-05
-3.70682e-06
7.38055e-05
-3.53932e-06
6.49436e-05
-3.30981e-06
5.71644e-05
-3.0327e-06
5.0289e-05
-2.72126e-06
4.42444e-05
-2.38712e-06
3.891e-05
-2.03933e-06
3.41579e-05
-1.68358e-06
2.98772e-05
-1.32809e-06
2.60487e-05
-9.82772e-07
2.25641e-05
-6.49364e-07
1.94633e-05
-3.33793e-07
1.65887e-05
-1.11477e-07
1.31039e-05
2.86065e-08
2.3956e-05
5.81923e-08
2.66546e-05
4.83988e-08
2.96616e-05
1.81285e-09
3.30088e-05
-8.72715e-08
3.67302e-05
-2.20675e-07
4.08745e-05
-4.01717e-07
4.54879e-05
-6.34682e-07
5.0628e-05
-9.22894e-07
5.63583e-05
-1.26685e-06
6.2757e-05
-1.66283e-06
6.99166e-05
-2.09884e-06
7.67173e-05
-2.55443e-06
7.6945e-05
-3.01051e-06
7.72487e-05
-3.44149e-06
7.76421e-05
-3.8178e-06
7.81276e-05
-4.10806e-06
7.8715e-05
-4.28352e-06
7.94005e-05
-4.31865e-06
8.45411e-05
-4.15829e-06
7.44245e-05
-3.91934e-06
6.55532e-05
-3.62035e-06
5.77521e-05
-3.27788e-06
5.08456e-05
-2.90726e-06
4.47646e-05
-2.52046e-06
3.93911e-05
-2.12589e-06
3.46002e-05
-1.73275e-06
3.02819e-05
-1.35246e-06
2.64184e-05
-9.91961e-07
2.29067e-05
-6.50295e-07
1.97798e-05
-4.1566e-07
1.68929e-05
-1.203e-07
1.32242e-05
2.68668e-08
2.15337e-05
5.46047e-08
2.39596e-05
4.35121e-08
2.66595e-05
-3.57418e-09
2.9667e-05
-9.24395e-08
3.3014e-05
-2.25274e-07
3.67348e-05
-4.05758e-07
4.08786e-05
-6.38854e-07
4.5492e-05
-9.29098e-07
5.06342e-05
-1.27896e-06
5.63704e-05
-1.68785e-06
6.27821e-05
-2.14831e-06
6.99661e-05
-2.6446e-06
7.68075e-05
-3.14973e-06
7.70842e-05
-3.64228e-06
7.74495e-05
-4.09218e-06
7.79165e-05
-4.46658e-06
7.84861e-05
-4.73431e-06
7.91658e-05
-4.86666e-06
7.99485e-05
-4.84084e-06
8.52237e-05
-4.60142e-06
7.51066e-05
-4.28424e-06
6.62171e-05
-3.91094e-06
5.83851e-05
-3.50076e-06
5.14391e-05
-3.07011e-06
4.53142e-05
-2.63083e-06
3.9896e-05
-2.19378e-06
3.50612e-05
-1.77083e-06
3.07003e-05
-1.37176e-06
2.67982e-05
-9.99715e-07
2.32561e-05
-8.05575e-07
2.01697e-05
-4.17152e-07
1.71897e-05
-1.30336e-07
1.33546e-05
2.53754e-08
1.93535e-05
5.15327e-08
2.15368e-05
3.93838e-08
2.39638e-05
-8.00246e-09
2.66639e-05
-9.64303e-08
2.9671e-05
-2.28324e-07
3.3017e-05
-4.07607e-07
3.67366e-05
-6.39704e-07
4.08794e-05
-9.30015e-07
4.54929e-05
-1.2825e-06
5.06378e-05
-1.69895e-06
5.63815e-05
-2.17559e-06
6.28093e-05
-2.70192e-06
7.00234e-05
-3.25609e-06
7.69138e-05
-3.80661e-06
7.72485e-05
-4.32756e-06
7.76849e-05
-4.785e-06
7.82349e-05
-5.1456e-06
7.88974e-05
-5.37748e-06
7.96766e-05
-5.45407e-06
8.05618e-05
-5.35554e-06
8.59778e-05
-5.02871e-06
7.58511e-05
-4.62728e-06
6.69334e-05
-4.17659e-06
5.9061e-05
-3.69774e-06
5.20667e-05
-3.20755e-06
4.5891e-05
-2.71963e-06
4.04219e-05
-2.24693e-06
3.55373e-05
-1.80012e-06
3.11286e-05
-1.38617e-06
2.71847e-05
-1.24146e-06
2.3692e-05
-8.00798e-07
2.05534e-05
-4.1903e-07
1.74784e-05
-1.3813e-07
1.34927e-05
1.73973e-05
2.40915e-08
4.88914e-08
1.93561e-05
3.5879e-08
2.15403e-05
-1.1652e-08
2.39674e-05
-9.94969e-08
2.6667e-05
-2.30203e-07
2.96729e-05
-4.0785e-07
3.30173e-05
-6.38151e-07
3.67351e-05
-9.27107e-07
4.08765e-05
-1.27976e-06
4.54902e-05
-1.69972e-06
5.06385e-05
-2.18606e-06
5.6392e-05
-2.73256e-06
6.284e-05
-3.32332e-06
7.00906e-05
-3.93235e-06
7.70396e-05
-4.52092e-06
7.74419e-05
-5.05931e-06
7.79592e-05
-5.51243e-06
7.86018e-05
-5.84536e-06
7.93652e-05
-6.02776e-06
8.02503e-05
-6.03541e-06
8.12416e-05
-5.85424e-06
8.68033e-05
-5.43241e-06
7.66562e-05
-4.9427e-06
6.76995e-05
-4.41329e-06
5.97765e-05
-3.86632e-06
5.27255e-05
-3.32008e-06
4.64914e-05
-2.78973e-06
4.09647e-05
-2.28717e-06
3.60244e-05
-1.8208e-06
3.15633e-05
-1.72397e-06
2.76672e-05
-1.23369e-06
2.41248e-05
-7.93258e-07
2.09276e-05
-4.18347e-07
1.77586e-05
-1.43166e-07
1.36359e-05
1.73996e-05
4.66084e-08
2.78121e-05
2.20134e-08
3.28901e-08
1.93591e-05
-1.46685e-08
2.15433e-05
-1.01839e-07
2.39697e-05
-2.31206e-07
2.6668e-05
-4.06938e-07
2.9672e-05
-6.34908e-07
3.3014e-05
-9.2151e-07
3.67295e-05
-1.27255e-06
4.08693e-05
-1.69298e-06
4.54835e-05
-2.18409e-06
5.06366e-05
-2.74301e-06
5.64024e-05
-3.35875e-06
6.28754e-05
-4.01196e-06
7.01702e-05
-4.66961e-06
7.71883e-05
-5.28586e-06
7.76685e-05
-5.8301e-06
7.82769e-05
-6.26471e-06
7.90211e-05
-6.5556e-06
7.98931e-05
-6.67406e-06
8.08889e-05
-6.60131e-06
8.19887e-05
-6.32807e-06
8.7699e-05
-5.80587e-06
7.75194e-05
-5.22583e-06
6.85121e-05
-4.61806e-06
6.05283e-05
-4.00615e-06
5.34116e-05
-3.40958e-06
4.71113e-05
-2.84249e-06
4.152e-05
-2.31477e-06
3.65184e-05
-2.2656e-06
3.21049e-05
-1.71427e-06
2.81478e-05
-1.21835e-06
2.45499e-05
-7.81205e-07
2.12905e-05
-4.14212e-07
1.80297e-05
-1.45559e-07
1.37814e-05
1.74021e-05
3.03321e-08
2.78157e-05
4.29498e-08
2.8552e-05
2.00357e-08
-1.71695e-08
1.93616e-05
-1.03613e-07
2.15451e-05
-2.31563e-07
2.39701e-05
-4.0522e-07
2.66663e-05
-6.30522e-07
2.96676e-05
-9.14098e-07
3.30066e-05
-1.26227e-06
3.67192e-05
-1.68097e-06
4.08573e-05
-2.17312e-06
4.54725e-05
-2.73851e-06
5.06321e-05
-3.37005e-06
5.64137e-05
-4.05395e-06
6.29174e-05
-4.76447e-06
7.02651e-05
-5.46145e-06
7.73638e-05
-6.09431e-06
7.79327e-05
-6.63012e-06
7.86423e-05
-7.03131e-06
7.94968e-05
-7.26458e-06
8.04836e-05
-7.30622e-06
8.15938e-05
-7.14189e-06
8.28025e-05
-6.76928e-06
8.86624e-05
-6.14356e-06
7.84371e-05
-5.47303e-06
6.9367e-05
-4.78971e-06
6.13118e-05
-4.11819e-06
5.41202e-05
-3.47694e-06
4.77457e-05
-2.87823e-06
4.20835e-05
-2.88084e-06
3.71336e-05
-2.25333e-06
3.2644e-05
-1.69194e-06
2.86214e-05
-1.19518e-06
2.49639e-05
-7.64148e-07
2.16404e-05
-4.06681e-07
1.82908e-05
-1.45596e-07
1.3927e-05
1.74042e-05
-1.9252e-08
2.78193e-05
2.67987e-08
2.85555e-05
3.94375e-08
2.93119e-05
1.81608e-08
-1.04944e-07
1.9363e-05
-2.31448e-07
2.1545e-05
-4.0296e-07
2.39678e-05
-6.25408e-07
2.66612e-05
-9.05538e-07
2.9659e-05
-1.25e-06
3.29944e-05
-1.66539e-06
3.67036e-05
-2.15587e-06
4.084e-05
-2.72323e-06
4.54572e-05
-3.36349e-06
5.06255e-05
-4.06735e-06
5.64271e-05
-4.81524e-06
6.29682e-05
-5.57488e-06
7.03785e-05
-6.30116e-06
7.75707e-05
-6.93657e-06
7.82391e-05
-7.44875e-06
7.90597e-05
-7.80003e-06
8.00323e-05
-7.96149e-06
8.11389e-05
-7.91339e-06
8.23653e-05
-7.64836e-06
8.36816e-05
-7.17133e-06
8.96901e-05
-6.44095e-06
7.9405e-05
-5.68225e-06
7.02596e-05
-4.92838e-06
6.2122e-05
-4.2029e-06
5.48462e-05
-3.52252e-06
4.839e-05
-3.583e-06
4.27856e-05
-2.86546e-06
3.77457e-05
-2.22335e-06
3.31754e-05
-1.65789e-06
2.90841e-05
-1.16455e-06
2.53643e-05
-7.42516e-07
2.19762e-05
-3.96096e-07
1.85413e-05
-1.43698e-07
1.40707e-05
1.74052e-05
-1.05929e-07
2.78211e-05
-2.10339e-08
2.85588e-05
2.34944e-08
2.93152e-05
3.60772e-08
3.00898e-05
1.63898e-08
-2.30999e-07
1.93625e-05
-4.00358e-07
2.15424e-05
-6.19877e-07
2.39623e-05
-8.9633e-07
2.6652e-05
-1.23655e-06
2.96456e-05
-1.64757e-06
3.29765e-05
-2.13444e-06
3.66822e-05
-2.70045e-06
4.08173e-05
-3.34403e-06
4.54378e-05
-4.0595e-06
5.06177e-05
-4.83238e-06
5.64443e-05
-5.63713e-06
6.30304e-05
-6.43698e-06
7.05143e-05
-7.17936e-06
7.78135e-05
-7.80208e-06
7.85924e-05
-8.2735e-06
7.95332e-05
-8.55954e-06
8.06303e-05
-8.63463e-06
8.18601e-05
-8.48582e-06
8.32028e-05
-8.11316e-06
8.46234e-05
-7.52857e-06
9.07778e-05
-6.69505e-06
8.04178e-05
-5.8528e-06
7.1184e-05
-5.03403e-06
6.29531e-05
-4.26062e-06
5.55843e-05
-4.38675e-06
4.91937e-05
-3.56449e-06
4.34847e-05
-2.82689e-06
3.83493e-05
-2.17755e-06
3.3695e-05
-1.61333e-06
2.95329e-05
-1.12755e-06
2.57493e-05
-7.16995e-07
2.22971e-05
-3.83004e-07
1.87806e-05
-1.40276e-07
1.4211e-05
1.74045e-05
-2.30319e-07
2.78194e-05
-1.04279e-07
2.85603e-05
-2.25245e-08
2.93183e-05
2.04193e-08
3.0093e-05
3.28712e-08
3.08897e-05
1.47231e-08
-3.97566e-07
1.93597e-05
-6.14162e-07
2.15367e-05
-8.86847e-07
2.39528e-05
-1.22253e-06
2.66379e-05
-1.62851e-06
2.96265e-05
-2.11044e-06
3.29525e-05
-2.67271e-06
3.66545e-05
-3.31561e-06
4.07888e-05
-4.03629e-06
4.54146e-05
-4.82442e-06
5.06097e-05
-5.66012e-06
5.64673e-05
-6.51391e-06
6.31073e-05
-7.34182e-06
7.06768e-05
-8.08575e-06
7.80972e-05
-8.67829e-06
7.89972e-05
-9.0927e-06
8.00664e-05
-9.29743e-06
8.12931e-05
-9.27335e-06
8.26476e-05
-9.01492e-06
8.41046e-05
-8.52957e-06
8.56244e-05
-7.83694e-06
9.19197e-05
-6.90432e-06
8.14693e-05
-5.98416e-06
7.21341e-05
-5.10698e-06
6.37995e-05
-5.30882e-06
5.65063e-05
-4.36555e-06
4.99948e-05
-3.51667e-06
4.41744e-05
-2.76801e-06
3.89397e-05
-2.11793e-06
3.41996e-05
-1.56009e-06
2.99654e-05
-1.08541e-06
2.61178e-05
-6.88435e-07
2.26026e-05
-3.67986e-07
1.90083e-05
-1.35704e-07
1.43467e-05
1.74016e-05
-3.94694e-07
2.78127e-05
-2.23601e-07
2.85582e-05
-1.0222e-07
2.93195e-05
-2.371e-08
3.00958e-05
1.75771e-08
3.08927e-05
2.98242e-08
3.17096e-05
1.31595e-08
-6.08432e-07
1.9354e-05
-8.77362e-07
2.15272e-05
-1.20839e-06
2.39387e-05
-1.60894e-06
2.66184e-05
-2.08507e-06
2.96011e-05
-2.64196e-06
3.29218e-05
-3.28127e-06
3.66201e-05
-4.00237e-06
4.07549e-05
-4.79823e-06
4.53884e-05
-5.65367e-06
5.06032e-05
-6.5454e-06
5.64988e-05
-7.43714e-06
6.32027e-05
-8.27951e-06
7.08706e-05
-9.00791e-06
7.84268e-05
-9.55339e-06
7.94579e-05
-9.8934e-06
8.06623e-05
-1.00023e-05
8.20221e-05
-9.86813e-06
8.35009e-05
-9.493e-06
8.5068e-05
-8.89258e-06
8.66801e-05
-8.09401e-06
9.31094e-05
-7.06768e-06
8.25528e-05
-6.07644e-06
7.31036e-05
-6.36808e-06
6.48587e-05
-5.28597e-06
5.74267e-05
-4.30808e-06
5.07862e-05
-3.44339e-06
4.48498e-05
-2.69168e-06
3.95135e-05
-2.04707e-06
3.46866e-05
-1.50007e-06
3.03801e-05
-1.03944e-06
2.64688e-05
-6.57679e-07
2.28922e-05
-3.516e-07
1.92242e-05
-1.30313e-07
1.4477e-05
1.7396e-05
-6.02809e-07
2.77991e-05
-3.81136e-07
2.8551e-05
-2.16358e-07
2.9317e-05
-9.97701e-08
3.00967e-05
-2.4589e-08
3.08953e-05
1.49664e-08
3.17124e-05
2.69397e-08
3.25535e-05
1.1701e-08
-8.6807e-07
1.93447e-05
-1.19445e-06
2.15132e-05
-1.58941e-06
2.39192e-05
-2.05924e-06
2.65925e-05
-2.60965e-06
2.95688e-05
-3.24334e-06
3.28838e-05
-3.96135e-06
3.65791e-05
-4.75927e-06
4.0716e-05
-5.62572e-06
4.53604e-05
-6.54261e-06
5.06005e-05
-7.48034e-06
5.6542e-05
-8.39746e-06
6.33206e-05
-9.23795e-06
7.11006e-05
-9.9341e-06
7.88075e-05
-1.0414e-05
7.99785e-05
-1.06635e-05
8.13235e-05
-1.06637e-05
8.28176e-05
-1.04103e-05
8.44181e-05
-9.91403e-06
8.60895e-05
-9.19896e-06
8.7785e-05
-8.29804e-06
9.43397e-05
-7.18491e-06
8.36613e-05
-7.58411e-06
7.43196e-05
-6.34535e-06
6.59181e-05
-5.21879e-06
5.83375e-05
-4.21922e-06
5.1562e-05
-3.34851e-06
4.55067e-05
-2.60124e-06
4.00677e-05
-1.96753e-06
3.51541e-05
-1.43512e-06
3.07757e-05
-9.90836e-07
2.68019e-05
-6.25515e-07
2.31662e-05
-3.3436e-07
1.94282e-05
-1.24364e-07
1.46014e-05
1.73871e-05
-8.59107e-07
2.77767e-05
-5.80399e-07
2.85367e-05
-3.66861e-07
2.93092e-05
-2.08536e-07
3.00938e-05
-9.68972e-08
3.08959e-05
-2.51616e-08
3.17148e-05
1.25868e-08
3.25562e-05
2.42151e-08
3.34194e-05
1.03441e-08
-1.18094e-06
1.93312e-05
-1.57031e-06
2.14941e-05
-2.0336e-06
2.38935e-05
-2.5769e-06
2.65598e-05
-3.20359e-06
2.95291e-05
-3.91602e-06
3.28385e-05
-4.71179e-06
3.65316e-05
-5.58258e-06
4.06728e-05
-6.51459e-06
4.53324e-05
-7.4839e-06
5.0604e-05
-8.4561e-06
5.66006e-05
-9.38319e-06
6.34658e-05
-1.02056e-05
7.13722e-05
-1.08508e-05
7.92443e-05
-1.12477e-05
8.05627e-05
-1.13918e-05
8.20517e-05
-1.12719e-05
8.36792e-05
-1.08927e-05
8.53968e-05
-1.02739e-05
8.71644e-05
-9.44626e-06
8.89332e-05
-8.44846e-06
9.56033e-05
-8.97879e-06
8.5056e-05
-7.56447e-06
7.55387e-05
-6.26888e-06
6.69682e-05
-5.11327e-06
5.92315e-05
-4.10384e-06
5.23174e-05
-3.2362e-06
4.61416e-05
-2.49996e-06
4.06001e-05
-1.88175e-06
3.56007e-05
-1.36688e-06
3.11518e-05
-9.40688e-07
2.71171e-05
-5.92661e-07
2.34245e-05
-3.16656e-07
1.96205e-05
-1.18089e-07
1.47195e-05
1.73741e-05
-1.16801e-06
2.77431e-05
-8.25476e-07
2.85134e-05
-5.57102e-07
2.92943e-05
-3.51913e-07
3.00855e-05
-2.0022e-07
3.08926e-05
-9.36271e-08
3.17151e-05
-2.54249e-08
3.25583e-05
1.04384e-08
3.34219e-05
2.1654e-08
3.43053e-05
9.08772e-09
-1.5519e-06
1.93128e-05
-2.00863e-06
2.14692e-05
-2.54447e-06
2.38611e-05
-3.16334e-06
2.65195e-05
-3.86848e-06
2.94816e-05
-4.65907e-06
3.27858e-05
-5.52921e-06
3.64782e-05
-6.46859e-06
4.06268e-05
-7.45805e-06
4.53065e-05
-8.46927e-06
5.06172e-05
-9.46154e-06
5.66789e-05
-1.03832e-05
6.36434e-05
-1.11691e-05
7.16905e-05
-1.17451e-05
7.97417e-05
-1.20424e-05
8.12133e-05
-1.20678e-05
8.28475e-05
-1.1819e-05
8.46055e-05
-1.13104e-05
8.64333e-05
-1.05694e-05
8.82876e-05
-9.63336e-06
9.01181e-05
-1.05757e-05
9.72002e-05
-8.96759e-06
8.64591e-05
-7.48024e-06
7.67501e-05
-6.14592e-06
6.80009e-05
-4.9754e-06
6.01031e-05
-3.96711e-06
5.30483e-05
-3.11051e-06
4.67522e-05
-2.39092e-06
4.11093e-05
-1.79188e-06
3.60257e-05
-1.29683e-06
3.15079e-05
-8.8998e-07
2.74144e-05
-5.59639e-07
2.36674e-05
-2.98858e-07
1.98013e-05
-1.11666e-07
1.48311e-05
1.73566e-05
-1.53436e-06
2.76958e-05
-1.12074e-06
2.84787e-05
-7.90746e-07
2.927e-05
-5.32865e-07
3.00698e-05
-3.36236e-07
3.08838e-05
-1.91361e-07
3.17114e-05
-8.9951e-08
3.25583e-05
-2.53864e-08
3.34238e-05
8.51455e-09
3.43077e-05
1.92543e-08
3.52192e-05
7.93038e-09
-1.98464e-06
1.92888e-05
-2.51294e-06
2.14376e-05
-3.12353e-06
2.38213e-05
-3.8203e-06
2.64714e-05
-4.60361e-06
2.94261e-05
-5.46946e-06
3.2726e-05
-6.41033e-06
3.642e-05
-7.41102e-06
4.05798e-05
-8.44839e-06
4.52857e-05
-9.48815e-06
5.06438e-05
-1.0486e-05
5.67817e-05
-1.13842e-05
6.38585e-05
-1.21154e-05
7.20607e-05
-1.26048e-05
8.03041e-05
-1.27869e-05
8.19324e-05
-1.26824e-05
8.37109e-05
-1.2299e-05
8.55941e-05
-1.16594e-05
8.75232e-05
-1.07987e-05
8.94529e-05
-1.20812e-05
9.16236e-05
-1.0582e-05
9.88145e-05
-8.87939e-06
8.78582e-05
-7.34005e-06
7.79442e-05
-5.98373e-06
6.90092e-05
-4.81147e-06
6.09474e-05
-3.81395e-06
5.37517e-05
-2.97524e-06
4.73365e-05
-2.2768e-06
4.15942e-05
-1.69981e-06
3.64287e-05
-1.22629e-06
3.18442e-05
-8.39407e-07
2.76942e-05
-5.26955e-07
2.38955e-05
-2.81242e-07
1.99709e-05
-1.05223e-07
1.49364e-05
1.73338e-05
-1.96184e-06
2.76319e-05
-1.47041e-06
2.84301e-05
-1.07212e-06
2.92343e-05
-7.54965e-07
3.00447e-05
-5.07762e-07
3.08674e-05
-3.19902e-07
3.17021e-05
-1.81999e-07
3.25542e-05
-8.58852e-08
3.34235e-05
-2.50431e-08
3.43094e-05
6.81289e-09
3.52214e-05
1.70124e-08
3.61551e-05
6.86874e-09
-2.48271e-06
1.92585e-05
-3.08485e-06
2.1399e-05
-3.77263e-06
2.37736e-05
-4.54728e-06
2.6415e-05
-5.40626e-06
2.93629e-05
-6.34427e-06
3.266e-05
-7.34935e-06
3.63583e-05
-8.40271e-06
4.05341e-05
-9.47563e-06
4.52731e-05
-1.05304e-05
5.06882e-05
-1.15165e-05
5.6914e-05
-1.23735e-05
6.41166e-05
-1.30319e-05
7.24878e-05
-1.34177e-05
8.09349e-05
-1.34713e-05
8.27214e-05
-1.32288e-05
8.46408e-05
-1.27069e-05
8.66416e-05
-1.19371e-05
8.86616e-05
-1.3571e-05
9.09427e-05
-1.21127e-05
9.31543e-05
-1.04965e-05
0.000100432
-8.72402e-06
8.92422e-05
-7.15259e-06
7.91131e-05
-5.78987e-06
6.99876e-05
-4.62745e-06
6.17609e-05
-3.649e-06
5.44255e-05
-2.8337e-06
4.78934e-05
-2.15999e-06
4.20544e-05
-1.60723e-06
3.68096e-05
-1.15615e-06
3.2161e-05
-7.89651e-07
2.79569e-05
-4.94986e-07
2.41093e-05
-2.64002e-07
2.01297e-05
-9.88674e-08
1.50352e-05
1.73051e-05
-2.45401e-06
2.7548e-05
-1.878e-06
2.83643e-05
-1.40468e-06
2.91841e-05
-1.02192e-06
3.00077e-05
-7.1796e-07
3.08415e-05
-4.81788e-07
3.16851e-05
-3.0294e-07
3.25444e-05
-1.72148e-07
3.34191e-05
-8.14378e-08
3.43087e-05
-2.43989e-08
3.52229e-05
5.32642e-09
3.61572e-05
1.49235e-08
3.6589e-05
5.9127e-09
-3.04777e-06
1.92215e-05
-3.72629e-06
2.13526e-05
-4.49145e-06
2.37178e-05
-5.34181e-06
2.63506e-05
-6.27384e-06
2.92925e-05
-7.27816e-06
3.25888e-05
-8.33963e-06
3.62952e-05
-9.43424e-06
4.04927e-05
-1.05301e-05
4.52729e-05
-1.15835e-05
5.07552e-05
-1.25406e-05
5.70811e-05
-1.33382e-05
6.44229e-05
-1.39062e-05
7.29763e-05
-1.41734e-05
8.1637e-05
-1.4088e-05
8.35806e-05
-1.37012e-05
8.56351e-05
-1.30395e-05
8.77441e-05
-1.50369e-05
9.01275e-05
-1.36378e-05
9.24678e-05
-1.20386e-05
9.46965e-05
-1.03305e-05
0.000102038
-8.51146e-06
9.06011e-05
-6.92674e-06
8.025e-05
-5.57155e-06
7.09317e-05
-4.42895e-06
6.25409e-05
-3.47629e-06
5.50681e-05
-2.6888e-06
4.84222e-05
-2.04257e-06
4.24897e-05
-1.51529e-06
3.71687e-05
-1.08731e-06
3.24586e-05
-7.4121e-07
2.82031e-05
-4.63978e-07
2.43093e-05
-2.473e-07
2.02781e-05
-9.268e-08
1.51279e-05
1.72699e-05
-3.01258e-06
2.74409e-05
-2.34686e-06
2.82788e-05
-1.79242e-06
2.91168e-05
-1.3374e-06
2.99563e-05
-9.70474e-07
3.08035e-05
-6.8001e-07
3.16583e-05
-4.55002e-07
3.25268e-05
-2.8533e-07
3.34087e-05
-1.6183e-07
3.43039e-05
-7.66289e-08
3.52219e-05
-2.3453e-08
3.61584e-05
4.05216e-09
3.65909e-05
1.30033e-08
3.55528e-05
5.08568e-09
-3.68184e-06
1.9177e-05
-4.43709e-06
2.12983e-05
-5.27774e-06
2.36537e-05
-6.20162e-06
2.62784e-05
-7.20142e-06
2.92157e-05
-8.26498e-06
3.25141e-05
-9.37229e-06
3.62333e-05
-1.04965e-05
4.04591e-05
-1.15999e-05
4.52893e-05
-1.26352e-05
5.08498e-05
-1.35454e-05
5.72884e-05
-1.42657e-05
6.47823e-05
-1.47271e-05
7.353e-05
-1.48633e-05
8.24123e-05
-1.46301e-05
8.45095e-05
-1.40955e-05
8.66911e-05
-1.64688e-05
8.9176e-05
-1.51506e-05
9.16403e-05
-1.35854e-05
9.40147e-05
-1.18712e-05
9.62371e-05
-1.00955e-05
0.000103622
-8.25213e-06
9.19265e-05
-6.67093e-06
8.13493e-05
-5.3355e-06
7.18382e-05
-4.22086e-06
6.32854e-05
-3.29939e-06
5.56787e-05
-2.54314e-06
4.89228e-05
-1.926e-06
4.29004e-05
-1.42512e-06
3.75065e-05
-1.02042e-06
3.27379e-05
-6.94394e-07
2.84335e-05
-4.34139e-07
2.44961e-05
-2.31261e-07
2.04167e-05
-8.67166e-08
1.52146e-05
1.72277e-05
-3.63965e-06
2.73076e-05
-2.8793e-06
2.81697e-05
-2.23778e-06
2.9029e-05
-1.70464e-06
2.98874e-05
-1.26853e-06
3.07508e-05
-9.17732e-07
3.16193e-05
-6.41046e-07
3.24993e-05
-4.27522e-07
3.33906e-05
-2.67192e-07
3.42932e-05
-1.51103e-07
3.52168e-05
-7.14865e-08
3.61572e-05
-2.22335e-08
3.65919e-05
2.99812e-09
3.55545e-05
1.12983e-08
3.45447e-05
4.3677e-09
-4.38489e-06
1.91248e-05
-5.21522e-06
2.12357e-05
-6.12951e-06
2.35816e-05
-7.12213e-06