/*--------------------------------*- C++ -*----------------------------------*\
  =========                 |
  \\      /  F ield         | OpenFOAM: The Open Source CFD Toolbox
   \\    /   O peration     | Website:  https://openfoam.org
    \\  /    A nd           | Version:  8
     \\/     M anipulation  |
\*---------------------------------------------------------------------------*/
FoamFile
{
    version     2.0;
    format      ascii;
    class       volScalarField;
    location    "0.01";
    object      epsilon;
}
// * * * * * * * * * * * * * * * * * * * * * * * * * * * * * * * * * * * * * //

dimensions      [0 2 -3 0 0 0 0];

internalField   nonuniform List<scalar> 
15677
(
59.7813
18.4099
52.6764
8.1201
25.9546
49.902
4.64627
13.2952
31.5269
49.9707
3.18933
7.74183
17.0974
36.7963
50.5473
2.49642
5.05462
10.0553
20.5762
41.088
51.7152
2.14959
3.63034
6.49042
12.062
23.5506
44.2942
52.813
1.98149
2.8258
4.54817
7.68867
13.7578
25.8386
46.3913
53.5679
1.91235
2.3563
3.41981
5.30436
8.65966
15.0631
27.381
47.5882
54.0115
1.88445
2.08205
2.7364
3.91612
5.89727
9.38833
15.9567
28.2778
48.1874
54.244
1.87053
1.94032
2.31574
3.06704
4.30068
6.32813
9.87923
16.4844
28.721
48.4405
54.355
1.86757
1.87841
2.06096
2.53318
3.32585
4.57358
6.60978
10.1686
16.7445
28.8887
48.5183
54.4148
1.86901
1.8478
1.9183
2.19669
2.70896
3.5083
4.74758
6.77239
10.3087
16.8345
28.914
48.5241
54.4565
1.87052
1.83569
1.85212
1.99111
2.31325
2.83466
3.62306
4.84511
6.84829
10.3522
16.84
28.8954
48.5027
54.5061
1.87116
1.83296
1.81907
1.87401
2.06287
2.40012
2.91394
3.68599
4.88866
6.86878
10.352
16.8211
28.8353
48.4605
54.5495
1.87138
1.83293
1.80526
1.82018
1.91202
2.12134
2.45636
2.95721
3.71319
4.89884
6.86731
10.3374
16.7673
28.7556
48.41
54.6233
1.87144
1.83315
1.80121
1.79468
1.82987
1.94903
2.1616
2.48761
2.97586
3.71903
4.89735
6.85653
10.299
16.702
28.669
48.3796
54.6823
1.87145
1.83327
1.80013
1.78539
1.79512
1.8503
1.97786
2.18502
2.50154
2.98006
3.71793
4.88979
6.83055
10.2551
16.633
28.5898
48.3307
54.7917
1.87146
1.8333
1.79985
1.78238
1.78229
1.8011
1.87118
1.99606
2.19621
2.50535
2.97946
3.71294
4.8726
6.80235
10.2094
16.5669
28.4941
48.3062
54.8735
1.87145
1.8333
1.79977
1.78142
1.77781
1.78433
1.81576
1.88608
2.0056
2.20012
2.50527
2.97649
3.70186
4.85461
6.77337
10.1655
16.4906
28.4049
48.2628
55.029
1.87145
1.83329
1.79974
1.78114
1.77634
1.77885
1.7935
1.82918
1.89473
2.00973
2.20073
2.50385
2.96973
3.69055
4.83661
6.74586
10.1162
16.4162
28.2992
48.2482
55.1358
1.87144
1.83329
1.79973
1.78106
1.7759
1.77711
1.78582
1.80648
1.83751
1.89914
2.0112
2.20035
2.5002
2.96293
3.67976
4.81994
6.71616
10.0684
16.3325
28.2046
48.2195
55.3466
1.87144
1.83328
1.79972
1.78104
1.77578
1.77659
1.78336
1.79838
1.81481
1.8422
1.9013
2.01162
2.19898
2.49662
2.95699
3.67026
4.80304
6.68793
10.0167
16.2544
28.0912
48.2246
55.4855
1.87144
1.83326
1.79972
1.78104
1.77576
1.77646
1.78266
1.79569
1.80671
1.81968
1.84486
1.90253
2.0118
2.1978
2.49404
2.95249
3.6617
4.78769
6.65931
9.96858
16.1648
28.0032
48.2301
55.7582
1.87144
1.83324
1.79972
1.78106
1.77577
1.77645
1.78251
1.79491
1.80403
1.81167
1.82262
1.8467
1.90369
2.01234
2.19788
2.49329
2.94941
3.65507
4.77391
6.63347
9.9166
16.0915
27.8961
48.2615
55.9296
1.87144
1.83322
1.79972
1.7811
1.7758
1.77646
1.78252
1.79475
1.80324
1.809
1.81471
1.82477
1.84856
1.90545
2.01386
2.19911
2.49403
2.94918
3.65076
4.76319
6.60843
9.87481
16.0074
27.8227
48.2946
56.2696
1.87144
1.83318
1.79972
1.78115
1.77586
1.7765
1.78255
1.79476
1.80307
1.8082
1.81206
1.81699
1.82698
1.85113
1.90839
2.01709
2.2024
2.49703
2.95096
3.65074
4.7552
6.59093
9.83069
15.9448
27.7298
48.3773
56.4785
1.87144
1.83315
1.79971
1.78122
1.77596
1.77657
1.78261
1.79479
1.80304
1.80797
1.81122
1.81436
1.81935
1.82995
1.85502
1.91323
2.02289
2.20896
2.50363
2.9565
3.6536
4.75458
6.57549
9.80044
15.8751
27.6828
48.4426
56.8825
1.87144
1.83312
1.7997
1.78129
1.77609
1.7767
1.78273
1.79485
1.80304
1.80789
1.81095
1.8135
1.81677
1.8225
1.83431
1.86092
1.92071
2.03193
2.21937
2.51502
2.96775
3.66199
4.7578
6.57067
9.7725
15.8302
27.6208
48.583
57.1461
1.87144
1.8331
1.79969
1.78137
1.77625
1.77687
1.78293
1.79497
1.80305
1.80782
1.8108
1.81317
1.8159
1.81999
1.82708
1.84076
1.86959
1.93165
2.04508
2.23458
2.53183
2.98521
3.67848
4.76788
6.57278
9.75704
15.788
27.602
48.6816
57.5754
1.87145
1.83309
1.79969
1.78144
1.7764
1.77706
1.78321
1.79518
1.80311
1.80775
1.81065
1.81296
1.81554
1.81915
1.82468
1.83381
1.85007
1.88189
1.94696
2.06336
2.25561
2.55529
3.00996
3.70255
4.7885
6.58208
9.75484
15.765
27.5862
48.9193
57.9919
1.87145
1.83308
1.79969
1.7815
1.77655
1.77727
1.78354
1.79548
1.80326
1.80774
1.8105
1.81275
1.8153
1.81879
1.8239
1.83157
1.84347
1.86315
1.89878
1.96771
2.08784
2.28366
2.58638
3.04311
3.73565
4.81855
6.60321
9.76067
15.7557
27.5993
48.9446
58.4497
1.87145
1.83308
1.79969
1.78155
1.77668
1.77746
1.78389
1.79584
1.80349
1.8078
1.81042
1.81255
1.81506
1.81855
1.82359
1.83089
1.84144
1.857
1.88098
1.92138
1.99499
2.11973
2.31974
2.62631
3.08548
3.77871
4.85864
6.63724
9.77695
15.7596
27.6051
49.0491
58.9298
1.87145
1.83309
1.79969
1.78159
1.77678
1.77762
1.78423
1.79622
1.80379
1.80796
1.81042
1.81242
1.81484
1.81832
1.82339
1.83068
1.84094
1.8553
1.87543
1.90476
1.95081
2.03006
2.16008
2.36508
2.67587
3.13815
3.83199
4.90996
6.68106
9.80938
15.7749
27.6251
49.256
59.4464
1.87145
1.83311
1.7997
1.78161
1.77686
1.77775
1.78451
1.79656
1.8041
1.80817
1.81052
1.81239
1.81471
1.81813
1.82322
1.83059
1.8409
1.85507
1.8742
1.90007
1.93568
1.98845
2.07402
2.21017
2.42045
2.73612
3.20133
3.89638
4.97175
6.73669
9.85716
15.813
27.6695
49.5462
59.9837
1.83313
1.87149
1.79971
1.78162
1.77691
1.77785
1.78474
1.79686
1.8044
1.80842
1.81068
1.81246
1.81468
1.81803
1.82311
1.83055
1.84098
1.8553
1.87437
1.89946
1.9321
1.97524
2.03547
2.12825
2.27085
2.48696
2.80723
3.27588
3.97141
5.04462
6.80993
9.92955
15.8731
27.7537
49.8696
60.5493
1.79972
1.83329
1.87157
1.78162
1.77693
1.77792
1.7849
1.7971
1.80466
1.80866
1.81088
1.8126
1.81476
1.81805
1.82309
1.83056
1.84113
1.85568
1.87503
1.90028
1.93239
1.97306
2.02476
2.09341
2.19371
2.34327
2.56506
2.89011
3.36137
4.0575
5.13684
6.90816
10.0186
15.9518
27.8642
50.2303
61.1199
1.78161
1.79987
1.83358
1.87164
1.77693
1.77795
1.78501
1.79728
1.80487
1.80887
1.81109
1.8128
1.81494
1.81819
1.8232
1.83068
1.84135
1.85615
1.87587
1.90163
1.9342
1.97475
2.0243
2.08561
2.16335
2.27168
2.42802
2.65572
2.9844
3.45823
4.16462
5.25459
7.02114
10.1219
16.0456
28.0051
50.5975
61.7094
1.77691
1.78167
1.80019
1.8339
1.87172
1.77796
1.78506
1.79739
1.80501
1.80904
1.81128
1.813
1.81516
1.81843
1.82343
1.83092
1.84168
1.8567
1.87683
1.90321
1.93658
1.97803
2.02802
2.08776
2.159
2.24691
2.36305
2.52618
2.75848
3.09057
3.57776
4.2984
5.38607
7.14633
10.2365
16.1565
28.1616
50.9896
62.2891
1.77794
1.77688
1.7818
1.80052
1.83424
1.8718
1.78506
1.79745
1.8051
1.80916
1.81143
1.81319
1.81541
1.81872
1.82376
1.83129
1.84212
1.85735
1.8779
1.90497
1.93928
1.98199
2.0334
2.0943
2.16476
2.24668
2.34417
2.46884
2.63743
2.8741
3.22097
3.72536
4.44556
5.52878
7.28093
10.3616
16.2786
28.3404
51.3728
62.8804
1.78501
1.77785
1.77682
1.78194
1.80087
1.83459
1.87188
1.79745
1.80515
1.80924
1.81154
1.81336
1.81564
1.81902
1.82414
1.83174
1.84269
1.85812
1.87905
1.90686
1.94224
1.98641
2.03966
2.10273
2.17513
2.2574
2.34973
2.45678
2.58916
2.76288
3.01625
3.38213
3.88656
4.60358
5.68012
7.42325
10.494
16.413
28.5252
51.7741
63.4503
1.79742
1.78475
1.77767
1.77674
1.78208
1.80124
1.83495
1.87196
1.80515
1.80927
1.81162
1.81349
1.81584
1.81931
1.82452
1.83224
1.84332
1.85897
1.8803
1.9088
1.94537
1.99124
2.04658
2.11235
2.18779
2.27307
2.36678
2.47005
2.58471
2.72459
2.91747
3.1918
3.55798
4.05867
4.76956
5.83796
7.57064
10.6325
16.5533
28.7254
52.1555
64.0256
1.80511
1.79714
1.78424
1.77747
1.77665
1.78222
1.80163
1.83533
1.87205
1.80927
1.81166
1.81359
1.816
1.81956
1.82488
1.83273
1.84398
1.85988
1.88161
1.9108
1.94852
1.99631
2.05416
2.12301
2.20212
2.29164
2.38946
2.49539
2.6078
2.72966
2.89071
3.10881
3.38365
3.74619
4.23974
4.94119
5.99947
7.72113
10.7742
16.7009
28.9244
52.5509
64.5725
1.80924
1.80489
1.79659
1.78369
1.77725
1.77655
1.78237
1.80203
1.83571
1.87213
1.81167
1.81365
1.81613
1.81978
1.8252
1.83318
1.84462
1.86078
1.88294
1.91282
1.95167
2.00134
2.06208
2.1347
2.21805
2.31267
2.41599
2.52747
2.64368
2.7651
2.90939
3.09629
3.31841
3.58983
3.94416
4.42697
5.11646
6.1626
7.87253
10.9179
16.85
29.1332
52.9183
65.1184
1.81166
1.80909
1.80447
1.79596
1.7831
1.77703
1.77645
1.78253
1.80245
1.83611
1.87221
1.81368
1.81622
1.81994
1.82547
1.83357
1.8452
1.86163
1.88423
1.91479
1.95477
2.00629
2.06992
2.14695
2.23558
2.33616
2.44612
2.56486
2.68791
2.81457
2.96142
3.13435
3.32202
3.54207
3.80705
4.14907
4.61788
5.29298
6.32535
8.02324
11.0612
17.0021
29.3357
53.2976
65.6328
1.81368
1.81154
1.80879
1.80399
1.79528
1.78251
1.77681
1.77636
1.78271
1.80289
1.83651
1.8723
1.81628
1.82006
1.82568
1.8339
1.8457
1.86239
1.88542
1.91666
1.95776
2.01109
2.07756
2.15906
2.25402
2.36221
2.47999
2.6076
2.73952
2.87477
3.02974
3.20971
3.38399
3.56622
3.77761
4.03264
4.35853
4.81018
5.46862
6.48598
8.17158
11.2033
17.1522
29.5438
53.6426
66.1418
1.8163
1.81359
1.81132
1.80844
1.80346
1.79454
1.78192
1.77659
1.77628
1.78292
1.80334
1.83691
1.87238
1.82014
1.82583
1.83416
1.84611
1.86305
1.88648
1.91836
1.96055
2.01564
2.08492
2.17083
2.27229
2.38977
2.51781
2.65607
2.79894
2.9454
3.11244
3.30525
3.48852
3.65645
3.82618
4.02244
4.26293
4.57006
5.00153
5.64144
6.64297
8.3164
11.3423
17.3021
29.742
54.0003
66.6158
1.82019
1.8162
1.81338
1.81105
1.80806
1.80291
1.79379
1.78135
1.7764
1.77621
1.78315
1.8038
1.83731
1.87247
1.82594
1.83435
1.84645
1.8636
1.8874
1.91988
1.96311
2.01986
2.09188
2.18212
2.29007
2.41722
2.55814
2.7107
2.86694
3.02754
3.21026
3.42122
3.61896
3.79681
3.94955
4.09913
4.274
4.49428
4.78078
5.18981
5.80991
6.79507
8.45655
11.4778
17.4477
29.9431
54.3162
67.0864
1.82601
1.82005
1.81594
1.81313
1.81077
1.80766
1.80234
1.79302
1.7808
1.77622
1.77618
1.78341
1.80429
1.8377
1.87254
1.83448
1.8467
1.86405
1.88817
1.9212
1.96539
2.02371
2.09836
2.19277
2.30712
2.44404
2.59857
2.76951
2.94435
3.12264
3.32535
3.56007
3.77854
3.97119
4.1332
4.26086
4.38203
4.52965
4.72454
4.98835
5.37327
5.97257
6.94129
8.59133
11.6086
17.5908
30.1316
54.6511
67.513
1.83459
1.82579
1.81966
1.81563
1.81287
1.81047
1.80726
1.80177
1.79226
1.7803
1.77607
1.77617
1.78369
1.80477
1.83808
1.87262
1.84688
1.8644
1.88881
1.92233
1.96739
2.02716
2.10428
2.20266
2.32326
2.46987
2.63824
2.82899
3.02858
3.23232
3.46034
3.72595
3.97243
4.18703
4.36205
4.49605
4.58761
4.67186
4.78642
4.95158
5.19075
5.55036
6.12863
7.08096
8.72011
11.7345
17.7283
30.3217
54.9327
67.9477
1.84703
1.83423
1.82518
1.81921
1.81532
1.8126
1.81018
1.80688
1.80123
1.79152
1.77985
1.77594
1.7762
1.784
1.80524
1.83843
1.87269
1.86465
1.88933
1.92329
1.96913
2.03021
2.10962
2.21171
2.33834
2.4944
2.67662
2.88789
3.11472
3.35332
3.61822
3.92397
4.20828
4.45394
4.64961
4.79157
4.88335
4.92686
4.96566
5.0417
5.17354
5.38666
5.72059
6.27737
7.21361
8.84256
11.8547
17.8619
30.4972
55.2471
68.322
1.86488
1.84648
1.83327
1.82449
1.81877
1.815
1.81235
1.80992
1.80653
1.80073
1.79082
1.77944
1.77584
1.77626
1.78433
1.8057
1.83877
1.87276
1.88972
1.92407
1.97062
2.03289
2.11439
2.21991
2.35225
2.51737
2.71326
2.94542
3.20079
3.47854
3.79506
4.16045
4.496
4.78577
5.01281
5.16991
5.25975
5.29299
5.27575
5.2607
5.29322
5.38878
5.57378
5.88286
6.4183
7.33894
8.95844
11.9693
17.9891
30.674
55.4896
68.7247
1.89009
1.86404
1.84498
1.8322
1.82381
1.81832
1.8147
1.81213
1.80971
1.80625
1.80029
1.79015
1.77908
1.77577
1.77635
1.78466
1.80615
1.8391
1.87283
1.9247
1.97188
2.03523
2.11864
2.22729
2.36499
2.53865
2.74787
3.0009
3.28544
3.60508
3.98128
4.43203
4.84881
5.20194
5.47718
5.6607
5.75303
5.76713
5.72314
5.63165
5.55455
5.53908
5.59641
5.75163
6.03652
6.55112
7.45685
9.06771
12.0779
18.1115
30.8347
55.7904
69.0483
1.92532
1.88886
1.86173
1.84332
1.83115
1.82313
1.81789
1.81444
1.81197
1.80957
1.80605
1.79991
1.78952
1.77877
1.77573
1.77647
1.785
1.80659
1.83941
1.87289
1.97292
2.03725
2.1224
2.23392
2.37659
2.55821
2.78031
3.05377
3.36754
3.73136
4.1734
4.7255
5.26639
5.73041
6.08189
6.31187
6.41496
6.40659
6.31522
6.17239
5.9923
5.84516
5.77779
5.79533
5.91991
6.18124
6.67574
7.56737
9.17039
12.1807
18.2275
30.9972
55.9935
69.3586
1.97396
1.92355
1.88537
1.8592
1.84172
1.83012
1.82248
1.8175
1.81425
1.8119
1.80953
1.80593
1.79959
1.78891
1.7785
1.7757
1.77659
1.78534
1.80702
1.83971
1.87295
2.03897
2.12569
2.23985
2.38711
2.57612
2.81054
3.10364
3.44639
3.85627
4.36897
5.03466
5.73169
6.3838
6.88837
7.20216
7.3337
7.29949
7.1407
6.90637
6.63969
6.35575
6.13086
6.00822
5.98483
6.07843
6.31692
6.79221
7.67062
9.26661
12.2776
18.3384
31.1425
56.2408
69.6059
2.04066
1.97151
1.91835
1.88159
1.85679
1.84016
1.82911
1.82187
1.81718
1.81414
1.81193
1.8096
1.80591
1.79932
1.78833
1.77827
1.77569
1.77674
1.78569
1.80744
1.84
1.87301
2.12858
2.24512
2.39663
2.59248
2.83861
3.15035
3.52169
3.97885
4.56492
5.35471
6.23983
7.15104
7.94495
8.45667
8.65512
8.59733
8.34171
7.96622
7.54305
7.12419
6.72037
6.41031
6.22954
6.16448
6.2272
6.44365
6.90072
7.7668
9.35657
12.3688
18.4429
31.2707
56.3795
69.8318
2.13135
2.03732
1.96386
1.91277
1.878
1.85444
1.83863
1.82815
1.82132
1.81694
1.81414
1.81209
1.8098
1.80598
1.79908
1.78776
1.77805
1.77569
1.77689
1.78603
1.80784
1.84027
1.87307
2.24984
2.40521
2.60744
2.86462
3.1939
3.59344
4.09815
4.75833
5.68252
6.79186
8.03827
9.25291
10.1789
10.5964
10.5391
10.1558
9.5661
8.89203
8.22687
7.62485
7.08472
6.68247
6.44122
6.33412
6.36636
6.56165
7.00151
7.85622
9.44049
12.4544
18.5291
31.3695
56.601
70.2785
2.25428
2.12691
2.02619
1.95575
1.90751
1.87451
1.85214
1.83715
1.82726
1.82086
1.81683
1.81428
1.81239
1.81011
1.8061
1.79885
1.7872
1.77786
1.7757
1.77704
1.78636
1.80823
1.84053
1.8731
2.41298
2.62107
2.88866
3.23445
3.6617
4.21327
4.9473
6.01765
7.39043
9.05115
10.8173
12.3616
13.3166
13.451
12.9329
12.0471
10.9882
9.92256
8.95766
8.14023
7.4475
6.94656
6.64292
6.49375
6.49616
6.67121
7.09494
7.93916
9.51865
12.5241
18.6011
31.4903
56.7564
70.3799
2.42014
2.24845
2.11088
2.01453
1.94813
1.90241
1.87111
1.84992
1.83576
1.82647
1.82052
1.81684
1.81457
1.81281
1.81049
1.80625
1.7986
1.78662
1.77769
1.77572
1.7772
1.78669
1.8086
1.84067
1.87309
2.6336
2.91084
3.27218
3.72656
4.32349
5.13126
6.36119
8.03619
10.1849
12.6263
14.9826
16.7695
17.5436
17.1214
15.8827
14.2881
12.6115
11.0565
9.7331
8.66833
7.80742
7.20198
6.83454
6.64353
6.61691
6.77273
7.18135
8.01602
9.58172
12.5827
18.6803
31.6068
57.0275
322.368
2.64491
2.41277
2.22548
2.09429
2.0036
1.94076
1.89743
1.8678
1.84779
1.83447
1.82579
1.82033
1.81702
1.815
1.81334
1.81093
1.80639
1.79832
1.78604
1.77753
1.77573
1.77735
1.787
1.8088
1.84068
1.87309
2.93145
3.30731
3.78808
4.42835
5.31064
6.71421
8.72586
11.4249
14.6489
17.9965
20.8931
22.7175
22.9961
21.6664
19.4034
16.8754
14.4283
12.2873
10.5487
9.20651
8.1632
7.44829
7.01609
6.78371
6.72902
6.86659
7.2612
8.07767
9.63452
12.6463
18.7662
31.7577
57.2516
360.972
2.94963
2.63549
2.38005
2.20204
2.07877
1.99304
1.93356
1.89259
1.86462
1.84578
1.8333
1.82526
1.82029
1.81734
1.81554
1.81394
1.81138
1.80651
1.79801
1.78547
1.77738
1.77575
1.7775
1.78717
1.80883
1.84069
1.87309
3.34026
3.84629
4.52771
5.48632
7.0767
9.45282
12.7512
16.8451
21.3376
25.6008
28.8659
30.4015
29.7666
27.1091
23.4846
19.7895
16.4217
13.6037
11.3982
9.75167
8.51359
7.68515
7.18765
6.91462
6.83291
6.95327
7.32497
8.12909
9.69152
12.7153
18.8613
31.8995
60.2279
415.787
3.3689
2.93798
2.5889
2.34713
2.18015
2.06377
1.98274
1.92656
1.88791
1.86158
1.84391
1.83229
1.82489
1.82041
1.81779
1.81617
1.81457
1.81183
1.80658
1.79765
1.7849
1.77724
1.77576
1.77759
1.7872
1.80884
1.84069
1.87309
3.90154
4.62183
5.65934
7.44741
10.2084
14.1422
19.1729
24.9336
30.7814
35.8485
39.1768
39.9693
37.9036
33.4401
28.0958
22.9997
18.569
14.9918
12.2741
10.3004
8.85733
7.91229
7.34944
7.03663
6.92901
7.02234
7.37799
8.18437
9.75305
12.7904
18.9673
32.0779
66.7082
490.422
3.94888
3.35421
2.87168
2.54276
2.31643
2.159
2.04916
1.97271
1.91978
1.88341
1.85871
1.84221
1.83145
1.8247
1.82066
1.81834
1.81685
1.81521
1.81223
1.8066
1.79725
1.78436
1.7771
1.77578
1.77761
1.78722
1.80884
1.84068
1.8731
4.71139
5.83081
7.82418
10.9828
15.5762
21.592
28.713
36.3153
43.4859
49.1038
52.042
51.508
47.407
40.6188
33.1901
26.4676
20.8438
16.4359
13.1686
10.8492
9.19316
8.12954
7.50165
7.15004
7.00561
7.07972
7.43487
8.24375
9.81942
12.8724
19.0783
32.482
73.5797
581.639
4.78738
3.93168
3.25877
2.80707
2.49976
2.28676
2.13841
2.03493
1.96299
1.91324
1.87913
1.85604
1.8407
1.83081
1.82467
1.82104
1.81896
1.81755
1.81582
1.81257
1.80654
1.79682
1.78384
1.77704
1.77579
1.77762
1.78722
1.80883
1.84067
1.87307
6.00147
8.20453
11.7663
17.0328
24.0646
32.609
42.0862
51.586
59.9016
65.6563
67.5961
65.0323
58.2247
48.5763
38.7076
30.1499
23.2184
17.9204
14.0735
11.3943
9.51991
8.3367
7.64437
7.24085
7.06932
7.14126
7.49586
8.30747
9.89102
12.9608
19.2122
33.0503
81.5098
680.308
4.76428
6.15124
3.79275
3.16767
2.74684
2.45821
2.25787
2.11836
2.02113
1.9536
1.90697
1.87508
1.85359
1.83943
1.83036
1.82477
1.82149
1.81961
1.81823
1.81637
1.81282
1.8064
1.79635
1.78355
1.77704
1.7758
1.77762
1.7872
1.8088
1.84053
1.87301
8.58509
12.5504
18.4933
26.5561
36.5605
47.9867
59.9631
71.2682
80.3846
85.6906
85.8733
80.4765
70.2546
57.2187
44.5791
34.0013
25.6656
19.4295
14.9808
11.9324
9.83641
8.53341
7.75963
7.31668
7.13783
7.2072
7.56122
8.37577
9.96806
13.058
19.3656
33.8447
90.0516
797.097
4.55261
6.1325
8.92043
3.66313
3.0828
2.68863
2.41778
2.22975
2.09889
2.00778
1.94457
1.901
1.87131
1.85143
1.83839
1.83006
1.82496
1.82199
1.82026
1.81887
1.81684
1.81299
1.8062
1.79613
1.78349
1.77704
1.7758
1.77761
1.78717
1.8086
1.84027
1.87295
13.3258
19.9417
29.0358
40.5124
53.9217
68.4502
82.9157
95.7682
105.166
109.265
106.796
97.6968
83.3507
66.4334
50.7303
37.9763
28.1586
20.9487
15.8832
12.4601
10.1412
8.69428
7.85654
7.39862
7.21151
7.27772
7.63116
8.44884
10.051
13.1637
19.5575
34.7878
100.112
929.695
4.36226
5.78273
8.93039
14.0137
3.54252
3.00087
2.63203
2.37845
2.20246
2.08006
1.99491
1.93593
1.89539
1.86791
1.84957
1.83755
1.82989
1.82523
1.82251
1.82088
1.81944
1.81721
1.81306
1.80619
1.79616
1.78346
1.77703
1.77579
1.77759
1.787
1.80823
1.83999
1.87289
21.3625
31.4785
44.4181
59.8089
76.9055
94.5936
111.375
125.348
134.328
136.298
130.177
116.478
97.3319
76.0964
57.0854
42.031
30.6726
22.4647
16.7739
12.974
10.394
8.83078
7.96208
7.48725
7.29076
7.35304
7.70581
8.52688
10.1401
13.2814
19.7786
36.0034
111.663
1087.88
4.18681
5.47919
8.30329
14.0918
22.6303
3.42627
2.92129
2.57701
2.34029
2.17605
2.0619
1.98257
1.92776
1.89027
1.86491
1.84797
1.83687
1.82982
1.82553
1.82302
1.82144
1.81992
1.81749
1.81325
1.80635
1.79617
1.78346
1.77703
1.77577
1.7775
1.78668
1.80783
1.8397
1.87282
33.8601
48.241
65.5825
85.2137
106.1
126.841
145.611
160.112
167.796
166.565
155.725
136.549
111.996
86.0799
63.5703
46.1238
33.1855
23.9654
17.6462
13.405
10.6106
8.9809
8.07723
7.58317
7.37591
7.43332
7.78526
8.60999
10.236
13.4094
20.055
37.4682
125.125
1272.37
4.01874
5.20421
7.75525
13.0022
22.8581
35.9908
3.31361
2.84404
2.52369
2.30338
2.15058
2.04446
1.97087
1.92026
1.8857
1.86227
1.8466
1.83632
1.82981
1.82584
1.82349
1.82192
1.82031
1.81783
1.81351
1.80643
1.79616
1.78348
1.77703
1.77575
1.77734
1.78635
1.80743
1.8394
1.87276
51.9471
71.1942
93.2891
117.282
141.888
165.436
185.729
199.995
205.329
199.709
183.063
157.6
127.133
96.2584
70.115
50.2178
35.6774
25.4398
18.3823
13.7768
10.8512
9.14641
8.20303
7.68694
7.46722
7.51866
7.8695
8.69823
10.3383
13.5532
20.3828
39.2763
140.655
1489.32
3.85674
4.94488
7.25615
12.0223
21.1247
36.4902
55.2613
3.20454
2.76928
2.47217
2.26781
2.12613
2.02791
1.9601
1.91352
1.88161
1.85993
1.8454
1.83588
1.82983
1.82613
1.82389
1.82234
1.82072
1.81816
1.81366
1.80643
1.79615
1.78353
1.77709
1.77573
1.77718
1.78602
1.80701
1.83909
1.87269
76.6004
101.075
128.038
156.325
184.454
210.464
231.681
244.771
246.531
235.251
211.755
179.308
142.536
106.514
76.6575
54.2803
38.1306
26.6888
19.0199
14.1926
11.1191
9.32929
8.34057
7.79912
7.56492
7.60903
7.9584
8.79139
10.448
13.7114
20.79
41.4321
158.681
1732.76
3.70072
4.69836
6.78631
11.1155
19.5315
33.922
56.1848
81.4191
3.09923
2.69717
2.42258
2.23368
2.10291
2.01265
1.95039
1.90746
1.87795
1.85786
1.84436
1.8355
1.82985
1.82637
1.82426
1.82276
1.82107
1.81834
1.81366
1.80635
1.79611
1.78382
1.77722
1.77572
1.77703
1.78568
1.80658
1.83876
1.87262
108.523
138.313
170.043
202.43
233.82
261.869
283.268
294.048
290.857
272.626
241.335
201.351
158.011
116.742
83.1438
58.2826
40.2138
27.7726
19.7349
14.6588
11.4183
9.53166
8.49098
7.92024
7.66912
7.70432
8.05165
8.8893
10.5645
13.8918
21.274
44.0302
178.873
2065.48
3.55079
4.4642
6.3413
10.2555
18.0259
31.5327
52.5891
82.9259
115.12
2.99791
2.62791
2.37506
2.20128
2.0815
1.99886
1.94162
1.90199
1.87467
1.856
1.84343
1.83515
1.82986
1.82664
1.82464
1.8231
1.82127
1.81834
1.81352
1.80619
1.79634
1.78433
1.77736
1.7757
1.77687
1.78533
1.80614
1.83842
1.87254
148.06
183.003
219.262
255.521
289.899
319.491
340.158
347.277
337.639
311.213
271.335
223.429
173.389
126.854
89.5271
61.6845
42.0226
28.9892
20.5389
15.1828
11.7529
9.75587
8.65546
8.05078
7.77983
7.80423
8.1488
8.99127
10.689
14.0919
21.8775
46.9528
206.74
2449.34
3.40712
4.24223
5.92136
9.43631
16.5724
29.2428
49.2353
78.108
117.342
156.608
2.90085
2.56168
2.33004
2.17146
2.06216
1.9864
1.93369
1.89705
1.8717
1.85433
1.84258
1.83482
1.82994
1.82693
1.82494
1.8233
1.82127
1.81816
1.81325
1.8062
1.79681
1.78488
1.77751
1.77569
1.77672
1.78499
1.80569
1.83807
1.87246
195.177
234.954
275.487
315.434
352.542
383.09
401.886
403.768
386.121
350.372
301.312
245.278
188.526
136.775
94.9462
64.6361
44.0521
30.3579
21.4447
15.7729
12.128
10.0046
8.8353
8.19118
7.89694
7.90829
8.24906
9.09696
10.82
14.3266
22.561
51.1037
239.443
2840.88
3.27
4.03205
5.52765
8.66139
15.1591
27.0035
45.9974
73.6422
111.096
159.609
205.7
2.8083
2.4991
2.28865
2.14454
2.04469
1.97512
1.9265
1.89258
1.86901
1.85279
1.8418
1.83465
1.8301
1.82717
1.82513
1.8233
1.82107
1.81783
1.81306
1.80641
1.79724
1.78545
1.77767
1.77568
1.77658
1.78465
1.80523
1.8377
1.87238
249.52
293.798
338.436
382.004
421.63
452.383
467.865
462.704
435.494
389.485
330.88
266.682
203.305
145.168
99.6382
67.942
46.3333
31.9005
22.4673
16.4386
12.5489
10.2807
9.03186
8.34181
8.02016
8.01573
8.35154
9.20482
10.9609
14.5833
23.5677
56.007
276.589
3216.26
3.13974
3.83307
5.1625
7.93243
13.7868
24.7938
42.807
69.3283
105.391
151.698
209.434
261.855
2.72111
2.44173
2.25138
2.12025
2.02888
1.96491
1.91999
1.88852
1.86654
1.85138
1.84127
1.83465
1.83027
1.82735
1.82513
1.82309
1.82072
1.81749
1.81299
1.80654
1.79764
1.78603
1.77785
1.77568
1.77646
1.78432
1.80476
1.83731
1.8723
310.544
359.113
407.909
455.257
497.174
527.07
537.386
523.167
484.943
428
359.715
287.463
215.744
152.411
104.877
71.6494
48.9014
33.6421
23.6234
17.1908
13.022
10.5874
9.24658
8.50295
8.14898
8.1256
8.45467
9.31467
11.1071
14.9477
24.7987
61.4663
315.996
3556.45
3.01752
3.64495
4.82737
7.25092
12.4657
22.6108
39.627
65.0707
99.9143
144.633
199.56
266.134
324.325
2.64149
2.39023
2.21781
2.09832
2.01457
1.95565
1.91407
1.88478
1.86429
1.85038
1.84105
1.83473
1.83045
1.82735
1.82493
1.82275
1.82031
1.81721
1.81282
1.8066
1.798
1.78661
1.77804
1.77569
1.77635
1.784
1.80428
1.8369
1.87221
377.673
430.61
483.983
535.482
579.339
606.82
609.594
584.177
533.717
465.455
387.565
304.851
226.435
160.465
110.732
75.8118
51.7961
35.6111
24.9325
18.0419
13.5545
10.9285
9.48099
8.67474
8.28265
8.2364
8.55716
9.42375
11.2954
15.3904
26.1696
67.1991
356.11
3846.79
2.90637
3.4689
4.52006
6.61997
11.2081
20.4629
36.4433
60.8076
94.5361
137.941
190.998
253.897
328.797
392.342
2.57025
2.34398
2.18756
2.07849
2.00162
1.94724
1.90865
1.8814
1.86264
1.84985
1.84101
1.83491
1.83044
1.82715
1.82462
1.82233
1.81991
1.81683
1.81256
1.80658
1.79832
1.78718
1.77826
1.77572
1.77626
1.78369
1.8038
1.8365
1.87213
450.487
508.323
567.099
623.267
668.388
691.143
683.471
644.764
581.164
501.491
410.73
319.727
238.262
169.421
117.276
80.4886
55.0627
37.8401
26.417
19.0062
14.1544
11.3081
9.73663
8.85718
8.42001
8.34664
8.65647
9.55214
11.5087
15.8728
27.647
73.3156
395.276
4099.74
2.80742
3.30893
4.24074
6.04309
10.0268
18.364
33.2569
56.5046
89.1602
131.45
183.05
243.654
313.636
396.511
465.342
2.50655
2.30245
2.1603
2.06058
1.98987
1.93955
1.90373
1.87887
1.8617
1.84968
1.84119
1.8349
1.83026
1.8269
1.82424
1.8219
1.81942
1.81635
1.81222
1.80651
1.7986
1.78775
1.77849
1.77577
1.7762
1.78341
1.80333
1.8361
1.87204
528.978
592.842
658.339
719.743
764.618
779.317
757.916
704.053
626.775
531.326
430.467
336.101
251.337
179.376
124.594
85.7462
58.752
40.366
28.1019
20.1
14.8309
11.7304
10.0151
9.04992
8.55981
8.45381
8.7678
9.68405
11.723
16.3885
29.1977
79.6721
434.831
4288.22
2.71939
3.16659
3.99334
5.52495
8.93835
16.3318
30.0774
52.145
83.7224
125.021
175.498
234.395
301.45
377.619
468.618
543.266
2.44958
2.26514
2.13574
2.04438
1.97915
1.93259
1.90001
1.87739
1.86135
1.84988
1.84119
1.83471
1.83008
1.8266
1.82385
1.8214
1.81884
1.81579
1.81182
1.80639
1.79885
1.78833
1.77877
1.77584
1.77618
1.78315
1.80288
1.8357
1.87196
613.831
685.616
759.919
826.631
868.253
870.433
831.885
761.331
664.477
556.664
452.086
354.094
265.776
190.436
132.774
91.6581
62.9208
43.2304
30.0161
21.3413
15.5942
12.2005
10.3179
9.25263
8.69986
8.57424
8.87419
9.79979
11.935
16.9258
30.7895
86.4963
471.441
4406.87
2.64105
3.04022
3.77656
5.07747
7.95358
14.3864
26.9226
47.7227
78.1762
118.55
168.148
225.847
290.779
363.128
444.827
545.018
626.992
2.39861
2.23162
2.11358
2.02964
1.96948
1.92728
1.8978
1.87681
1.86157
1.84988
1.841
1.83463
1.82991
1.82633
1.82344
1.82084
1.8182
1.81518
1.81137
1.80625
1.79908
1.7889
1.77908
1.77594
1.77618
1.78292
1.80244
1.83531
1.87188
706.688
789.98
875.495
946.136
979.324
963.662
904.433
808.873
696.464
584.32
475.714
373.83
281.697
202.709
141.914
98.304
67.6317
46.4798
32.1915
22.7507
16.4555
12.7233
10.6465
9.464
8.86372
8.69014
8.95632
9.8964
12.1432
17.46
32.5646
93.3732
504.904
4435.34
2.57131
2.92826
3.58501
4.70414
7.09787
12.5716
23.8181
43.242
72.4848
111.952
160.855
217.753
281.285
350.876
427.569
514.644
626.795
718.991
2.35304
2.2015
2.0935
2.01639
1.96203
1.92411
1.89692
1.87707
1.86157
1.84968
1.84103
1.83463
1.82982
1.82608
1.82297
1.82021
1.81751
1.81455
1.81092
1.8061
1.79932
1.78951
1.77944
1.77608
1.77622
1.78272
1.80202
1.83493
1.8718
812.011
911.891
1010.57
1080.7
1098.79
1057.97
965.502
849.334
731.351
614.43
501.472
395.424
299.213
216.306
152.111
105.769
72.9528
50.1649
34.6635
24.3506
17.427
13.3043
11.0018
9.72388
9.03354
8.77937
9.01183
9.97512
12.3418
18.0552
34.4378
100.316
534.279
4415.97
2.50922
2.82918
3.41517
4.39004
6.37522
10.9559
20.822
38.7201
66.6208
105.143
153.483
209.92
272.628
340.44
413.486
494.102
587.275
717.158
824.298
2.31227
2.17432
2.07548
2.0061
1.95756
1.92288
1.89723
1.87707
1.86135
1.84985
1.84127
1.8348
1.8298
1.82579
1.82246
1.81956
1.81681
1.81392
1.81049
1.80598
1.7996
1.79015
1.77986
1.77624
1.77629
1.78253
1.80162
1.83457
1.87172
937.946
1061.33
1172.27
1238.06
1226.45
1139.42
1017.99
893.655
769.321
647.123
529.466
418.979
318.434
231.336
163.468
114.14
78.9561
54.3406
37.4704
26.1652
18.5216
13.9485
11.4566
10.016
9.17853
8.8405
9.04124
10.0401
12.5562
18.6945
36.4277
106.973
565.807
4359.92
2.45394
2.74155
3.26451
4.1228
5.77051
9.57152
18.05
34.2222
60.5703
98.0452
145.895
202.162
264.566
331.371
402.056
477.865
562.933
664.543
822.258
954.363
2.27564
2.15001
2.06136
1.99996
1.95587
1.92326
1.89723
1.87681
1.86171
1.85039
1.84179
1.83513
1.82978
1.82548
1.82194
1.81891
1.81614
1.81333
1.8101
1.80592
1.79992
1.79084
1.78032
1.77642
1.77637
1.78237
1.80123
1.83422
1.87164
1099.03
1254.36
1387.62
1421.63
1340.91
1210.53
1076.22
942.246
810.599
682.534
559.792
444.586
339.453
247.897
176.083
123.508
85.7156
59.0638
40.6524
28.22
19.752
14.7948
11.9992
10.2917
9.29784
8.87379
9.05271
10.1045
12.7868
19.3945
38.3964
114.61
600.183
4248.46
2.40454
2.664
3.13112
3.8926
5.26808
8.40087
15.5732
29.9165
54.3824
90.5862
137.944
194.285
256.864
323.375
392.675
465.328
544.167
635.792
751.637
957.95
1133.21
2.24299
2.13085
2.05293
1.99773
1.95634
1.92327
1.89693
1.8774
1.86267
1.85141
1.84259
1.83548
1.82977
1.82518
1.82144
1.81831
1.81552
1.81281
1.8098
1.80594
1.80031
1.79155
1.78083
1.77662
1.77647
1.78222
1.80086
1.83389
1.87156
1330.03
1558.32
1666.2
1591.88
1442.73
1291.03
1141.3
995.777
855.518
720.825
592.541
472.313
362.344
266.074
190.043
133.955
93.3039
64.3919
44.2507
30.5401
21.3899
15.8402
12.5444
10.5494
9.39208
8.88664
9.05716
10.1723
13.0476
20.1104
40.6594
123.314
640.499
4078.19
2.36073
2.59509
3.01334
3.69172
4.85507
7.4213
13.4018
25.9324
48.262
82.7633
129.479
186.071
249.277
316.163
384.986
455.672
530.34
614.099
717.388
860.458
1169.35
1428.2
2.21702
2.11953
2.05001
1.99833
1.95634
1.92289
1.89782
1.87892
1.86434
1.85283
1.84345
1.83586
1.82978
1.82492
1.821
1.81777
1.81499
1.81239
1.8096
1.80606
1.80077
1.7923
1.78139
1.77684
1.77657
1.78208
1.80052
1.83357
1.87149
1752.41
1973.82
1926.07
1745.76
1562.36
1384.37
1215.54
1055.42
904.689
762.252
627.822
502.214
387.155
285.928
205.421
145.555
101.787
70.379
48.3035
33.6395
23.4462
16.9264
13.0881
10.7885
9.46589
8.89008
9.06144
10.2561
13.3295
20.9345
43.2432
134.145
678.415
3833.52
2.32571
2.53431
2.9093
3.51486
4.51625
6.61023
11.5361
22.307
42.3946
74.7775
120.404
177.276
241.528
309.456
378.642
448.453
520.381
598.702
692.393
819.04
1022.02
1599.06
2056.84
2.20169
2.11583
2.05077
1.99833
1.95587
1.92414
1.90008
1.88148
1.86662
1.85439
1.84439
1.83632
1.82987
1.82473
1.82063
1.81733
1.81456
1.81209
1.80953
1.80626
1.80127
1.79307
1.78197
1.77706
1.77667
1.78195
1.80019
1.83328
1.87145
2406.53
2423.64
2188.41
1950.21
1712.6
1501.21
1302.61
1123.65
959.154
807.268
665.786
534.333