# Residuals   
# Time        	p             	Ux            	Uy            	k             	epsilon       
0             	N/A	N/A	N/A	N/A
0.000119048   	1.000000e+00	0.000000e+00	1.000000e+00	1.000000e+00	4.289430e-02
0.000260204   	2.876028e-02	2.053754e-01	8.683763e-01	2.580140e-02	1.708469e-02
0.000428132   	3.273050e-01	2.747738e-02	2.647155e-02	1.162342e-02	9.399024e-03
0.000627546   	1.959798e-01	2.014094e-02	1.936758e-02	9.157051e-03	7.934874e-03
0.000861857   	1.503754e-01	1.740676e-02	1.680677e-02	7.798561e-03	7.325338e-03
0.00113063    	1.345170e-01	1.569184e-02	1.475127e-02	6.908245e-03	6.873724e-03
0.00143647    	1.312663e-01	1.442210e-02	1.305130e-02	6.361413e-03	6.574824e-03
0.00177901    	1.319850e-01	1.324062e-02	1.156444e-02	5.985026e-03	6.318425e-03
0.00215269    	1.323066e-01	1.209403e-02	1.023839e-02	5.639316e-03	6.019434e-03
0.00256571    	1.335814e-01	1.114098e-02	9.208737e-03	5.369898e-03	5.726005e-03
0.00303035    	1.348671e-01	1.032394e-02	8.381010e-03	5.144000e-03	5.450080e-03
0.00352818    	1.320600e-01	9.431813e-03	7.537786e-03	4.839693e-03	5.083249e-03
0.0040675     	1.307215e-01	8.706093e-03	6.868551e-03	4.596842e-03	4.748030e-03
0.00460682    	1.240548e-01	7.893832e-03	6.153215e-03	4.256518e-03	4.297080e-03
0.00514614    	1.188063e-01	7.223937e-03	5.583478e-03	3.977924e-03	3.921512e-03
0.00568545    	1.143778e-01	6.658731e-03	5.116577e-03	3.739445e-03	3.597764e-03
0.00622477    	1.098838e-01	6.176613e-03	4.725065e-03	3.530291e-03	3.322726e-03
0.00676409    	1.062267e-01	5.755283e-03	4.391614e-03	3.339424e-03	3.091129e-03
0.00730341    	1.032001e-01	5.382112e-03	4.101284e-03	3.162297e-03	2.872578e-03
0.00784273    	1.003229e-01	5.048653e-03	3.844385e-03	2.991223e-03	2.671875e-03
0.00838205    	9.765558e-02	4.744178e-03	3.614647e-03	2.836667e-03	2.489594e-03
0.00892136    	9.525586e-02	4.474610e-03	3.407275e-03	2.686913e-03	2.314390e-03
0.00946068    	9.115664e-02	4.230157e-03	3.222842e-03	2.546360e-03	2.149957e-03
0.01          	8.710167e-02	4.013918e-03	3.056944e-03	2.417254e-03	1.995872e-03
0.0105556     	8.477758e-02	3.847920e-03	2.936599e-03	2.318080e-03	1.875193e-03
0.0111111     	8.111295e-02	3.670593e-03	2.800733e-03	2.206528e-03	1.737289e-03
0.0116667     	7.792632e-02	3.508993e-03	2.679779e-03	2.103155e-03	1.609212e-03
0.0122222     	7.524207e-02	3.365721e-03	2.572695e-03	2.010139e-03	1.493734e-03
0.0127778     	7.267929e-02	3.235855e-03	2.475452e-03	1.920306e-03	1.389601e-03
0.0133333     	7.046995e-02	3.120192e-03	2.389569e-03	1.839125e-03	1.300418e-03
0.0138889     	6.838952e-02	3.015367e-03	2.311271e-03	1.763790e-03	1.228396e-03
0.0144444     	6.658237e-02	2.921742e-03	2.241055e-03	1.692149e-03	1.174746e-03
0.015         	6.491597e-02	2.837321e-03	2.175441e-03	1.625498e-03	1.132859e-03
0.0155556     	6.338381e-02	2.762172e-03	2.116402e-03	1.565143e-03	1.103826e-03
0.0161111     	6.200144e-02	2.694224e-03	2.060519e-03	1.507984e-03	1.081758e-03
0.0166667     	6.073498e-02	2.634134e-03	2.009418e-03	1.455905e-03	1.067615e-03
0.0172222     	5.962051e-02	2.579642e-03	1.961450e-03	1.407538e-03	1.059737e-03
0.0177778     	5.857747e-02	2.531674e-03	1.916722e-03	1.363446e-03	1.055844e-03
0.0183333     	5.767674e-02	2.488127e-03	1.874168e-03	1.322148e-03	1.053946e-03
0.0188889     	5.679451e-02	2.449494e-03	1.834836e-03	1.283538e-03	1.051438e-03
0.0194444     	5.606785e-02	2.414563e-03	1.797083e-03	1.247335e-03	1.050808e-03
0.02          	5.539203e-02	2.382944e-03	1.761797e-03	1.215841e-03	1.048621e-03
0.0205882     	5.655478e-02	2.386589e-03	1.756035e-03	1.205051e-03	1.066617e-03
0.0211765     	5.538886e-02	2.359622e-03	1.721131e-03	1.177093e-03	1.062152e-03
0.0217647     	5.475968e-02	2.335345e-03	1.688422e-03	1.153437e-03	1.058993e-03
0.0223529     	5.422360e-02	2.313612e-03	1.656812e-03	1.131599e-03	1.054139e-03
0.0229412     	5.380753e-02	2.294095e-03	1.627189e-03	1.111801e-03	1.049921e-03
0.0235294     	5.340895e-02	2.275140e-03	1.598537e-03	1.093308e-03	1.043560e-03
0.0241176     	5.306806e-02	2.259904e-03	1.571108e-03	1.076035e-03	1.037862e-03
0.0247059     	5.264767e-02	2.245637e-03	1.544675e-03	1.059973e-03	1.029857e-03
0.0252941     	5.237466e-02	2.232478e-03	1.519007e-03	1.044726e-03	1.022929e-03
0.0258824     	5.199769e-02	2.219932e-03	1.494376e-03	1.030471e-03	1.014240e-03
0.0264706     	5.168682e-02	2.208593e-03	1.470645e-03	1.016876e-03	1.005915e-03
0.0270588     	5.139406e-02	2.197446e-03	1.447483e-03	1.004352e-03	9.978730e-04
0.0276471     	5.108842e-02	2.186667e-03	1.425295e-03	9.919780e-04	9.886191e-04
0.0282353     	5.065199e-02	2.176162e-03	1.403122e-03	9.803346e-04	9.790781e-04
0.0288235     	5.034562e-02	2.165648e-03	1.381971e-03	9.682064e-04	9.697024e-04
0.0294118     	4.994492e-02	2.156031e-03	1.361147e-03	9.576132e-04	9.604049e-04
0.03          	4.962749e-02	2.145475e-03	1.340834e-03	9.460433e-04	9.501756e-04
0.0305556     	4.874515e-02	2.107049e-03	1.300603e-03	9.238103e-04	9.251852e-04
0.0311111     	4.793542e-02	2.098247e-03	1.282248e-03	9.138366e-04	9.153666e-04
0.0316667     	4.742482e-02	2.090973e-03	1.264414e-03	9.041792e-04	9.062196e-04
0.0322222     	4.704175e-02	2.081606e-03	1.246412e-03	8.950046e-04	8.960789e-04
0.0327778     	4.670430e-02	2.074541e-03	1.229279e-03	8.854294e-04	8.862846e-04
0.0333333     	4.621911e-02	2.064617e-03	1.211822e-03	8.764719e-04	8.763935e-04
0.0338889     	4.596280e-02	2.057296e-03	1.194985e-03	8.669022e-04	8.660441e-04
0.0344444     	4.555117e-02	2.048215e-03	1.178091e-03	8.578451e-04	8.562562e-04
0.035         	4.534441e-02	2.039483e-03	1.161448e-03	8.478394e-04	8.454394e-04
0.0355556     	4.494204e-02	2.029285e-03	1.144886e-03	8.381779e-04	8.356279e-04
0.0361111     	4.477020e-02	2.021161e-03	1.128345e-03	8.283846e-04	8.250592e-04
0.0366667     	4.452134e-02	2.010145e-03	1.112180e-03	8.179287e-04	8.142471e-04
0.0372222     	4.441410e-02	1.996996e-03	1.096244e-03	8.074461e-04	8.039731e-04
0.0377778     	4.416672e-02	1.983262e-03	1.080270e-03	7.964500e-04	7.927588e-04
0.0383333     	4.396922e-02	1.969242e-03	1.064328e-03	7.853472e-04	7.818849e-04
0.0388889     	4.381908e-02	1.954336e-03	1.048271e-03	7.735960e-04	7.703120e-04
0.0394444     	4.357445e-02	1.938327e-03	1.032356e-03	7.617488e-04	7.588970e-04
0.04          	4.346782e-02	1.921558e-03	1.016265e-03	7.496218e-04	7.477855e-04
0.0405556     	4.314655e-02	1.902618e-03	1.000312e-03	7.369977e-04	7.359894e-04
0.0411111     	4.298650e-02	1.884317e-03	9.843014e-04	7.244165e-04	7.246638e-04
0.0416667     	4.274483e-02	1.864755e-03	9.682903e-04	7.113817e-04	7.130392e-04
0.0422222     	4.255933e-02	1.847879e-03	9.519920e-04	6.987171e-04	7.019015e-04
0.0427778     	4.231514e-02	1.828469e-03	9.360360e-04	6.853747e-04	6.907127e-04
0.0433333     	4.208802e-02	1.806974e-03	9.201996e-04	6.725084e-04	6.802841e-04
0.0438889     	4.186982e-02	1.787655e-03	9.042481e-04	6.597881e-04	6.694324e-04
0.0444444     	4.151375e-02	1.765601e-03	8.886415e-04	6.471825e-04	6.585900e-04
0.045         	4.134049e-02	1.747132e-03	8.730024e-04	6.348507e-04	6.480507e-04
0.0455556     	4.101983e-02	1.727503e-03	8.576543e-04	6.230791e-04	6.377085e-04
0.0461111     	4.071854e-02	1.708824e-03	8.423497e-04	6.116111e-04	6.284995e-04
0.0466667     	4.042619e-02	1.692959e-03	8.269670e-04	6.005492e-04	6.185139e-04
0.0472222     	4.016618e-02	1.674721e-03	8.121013e-04	5.899799e-04	6.088434e-04
0.0477778     	3.994454e-02	1.656631e-03	7.973386e-04	5.793882e-04	5.997402e-04
0.0483333     	3.958035e-02	1.638308e-03	7.828602e-04	5.695146e-04	5.909712e-04
0.0488889     	3.937565e-02	1.621866e-03	7.682662e-04	5.600534e-04	5.818139e-04
0.0494444     	3.900499e-02	1.605235e-03	7.539762e-04	5.509286e-04	5.730679e-04
0.05          	3.878215e-02	1.589578e-03	7.397069e-04	5.420999e-04	5.646284e-04
0.0505556     	3.845906e-02	1.573399e-03	7.256107e-04	5.335610e-04	5.562880e-04
0.0511111     	3.801418e-02	1.557234e-03	7.116779e-04	5.255526e-04	5.483941e-04
0.0516667     	3.773465e-02	1.541794e-03	6.976234e-04	5.175838e-04	5.399933e-04
0.0522222     	3.728417e-02	1.525645e-03	6.839086e-04	5.100962e-04	5.319607e-04
0.0527778     	3.695548e-02	1.509404e-03	6.699850e-04	5.028146e-04	5.238964e-04
0.0533333     	3.649201e-02	1.493275e-03	6.562598e-04	4.956659e-04	5.159729e-04
0.0538889     	3.607135e-02	1.474834e-03	6.426889e-04	4.888028e-04	5.077386e-04
0.0544444     	3.565160e-02	1.456779e-03	6.289016e-04	4.817349e-04	4.999973e-04
0.055         	3.507944e-02	1.438717e-03	6.152268e-04	4.749655e-04	4.917522e-04
0.0555556     	3.459391e-02	1.419551e-03	6.012539e-04	4.683501e-04	4.834129e-04
0.0561111     	3.402663e-02	1.400108e-03	5.874190e-04	4.616830e-04	4.752861e-04
0.0566667     	3.342214e-02	1.378321e-03	5.735253e-04	4.551472e-04	4.665693e-04
0.0572222     	3.289010e-02	1.356628e-03	5.594485e-04	4.483695e-04	4.582267e-04
0.0577778     	3.218447e-02	1.333082e-03	5.454737e-04	4.417600e-04	4.503019e-04
0.0583333     	3.163315e-02	1.308279e-03	5.313839e-04	4.348367e-04	4.409505e-04
0.0588889     	3.095537e-02	1.283088e-03	5.170763e-04	4.278874e-04	4.325363e-04
0.0594444     	3.012031e-02	1.257615e-03	5.025309e-04	4.209459e-04	4.236409e-04
0.06          	2.950465e-02	1.231903e-03	4.878654e-04	4.138338e-04	4.146842e-04
0.0605556     	2.876203e-02	1.202414e-03	4.734541e-04	4.068147e-04	4.053105e-04
0.0611111     	2.806865e-02	1.174513e-03	4.587180e-04	3.999200e-04	3.965732e-04
0.0616667     	2.745069e-02	1.148176e-03	4.437254e-04	3.927854e-04	3.880860e-04
0.0622222     	2.669273e-02	1.118152e-03	4.289852e-04	3.856387e-04	3.787853e-04
0.0627778     	2.623215e-02	1.094003e-03	4.139549e-04	3.783655e-04	3.698651e-04
0.0633333     	2.581491e-02	1.070788e-03	3.986722e-04	3.709146e-04	3.607269e-04
0.0638889     	2.540847e-02	1.048553e-03	3.835633e-04	3.632224e-04	3.511013e-04
0.0644444     	2.514740e-02	1.026224e-03	3.685272e-04	3.553682e-04	3.423540e-04
0.065         	2.487112e-02	1.007165e-03	3.537554e-04	3.471331e-04	3.330667e-04
0.0655556     	2.456603e-02	9.898520e-04	3.393783e-04	3.386147e-04	3.234329e-04
0.0661111     	2.439751e-02	9.780746e-04	3.247532e-04	3.297124e-04	3.135091e-04
0.0666667     	2.426319e-02	9.692728e-04	3.106087e-04	3.205586e-04	3.032973e-04
0.0672222     	2.408605e-02	9.580216e-04	2.968119e-04	3.112748e-04	2.937104e-04
0.0677778     	2.386994e-02	9.497793e-04	2.827465e-04	3.018635e-04	2.833723e-04
0.0683333     	2.366041e-02	9.437178e-04	2.689281e-04	2.924878e-04	2.735043e-04
0.0688889     	2.335680e-02	9.327206e-04	2.554969e-04	2.829744e-04	2.635899e-04
0.0694444     	2.298260e-02	9.167415e-04	2.424327e-04	2.734568e-04	2.533449e-04
0.07          	2.260087e-02	9.006852e-04	2.299250e-04	2.639362e-04	2.435761e-04
0.0705556     	2.203042e-02	8.798008e-04	2.176495e-04	2.543224e-04	2.335097e-04
0.0711111     	2.144971e-02	8.565705e-04	2.057694e-04	2.448041e-04	2.234323e-04
0.0716667     	2.069074e-02	8.291255e-04	1.947979e-04	2.353986e-04	2.143344e-04
0.0722222     	2.000288e-02	8.008168e-04	1.841155e-04	2.260967e-04	2.052637e-04
0.0727778     	1.926840e-02	7.695664e-04	1.744350e-04	2.170416e-04	1.957762e-04
0.0733333     	1.842481e-02	7.347689e-04	1.654212e-04	2.081790e-04	1.868100e-04
0.0738889     	1.764611e-02	7.002133e-04	1.569005e-04	1.994516e-04	1.784168e-04
0.0744444     	1.676620e-02	6.631989e-04	1.488161e-04	1.909875e-04	1.707974e-04
0.075         	1.589254e-02	6.263975e-04	1.417627e-04	1.826975e-04	1.629233e-04
0.0755556     	1.505234e-02	5.905881e-04	1.355845e-04	1.745562e-04	1.558010e-04
0.0761111     	1.419536e-02	5.541539e-04	1.304536e-04	1.667880e-04	1.489783e-04
0.0766667     	1.340141e-02	5.222326e-04	1.256768e-04	1.593398e-04	1.422809e-04
0.0772222     	1.268376e-02	4.888656e-04	1.215350e-04	1.521694e-04	1.358283e-04
0.0777778     	1.187896e-02	4.560055e-04	1.174892e-04	1.455235e-04	1.297154e-04
0.0783333     	1.115099e-02	4.262559e-04	1.137589e-04	1.392505e-04	1.251431e-04
0.0788889     	1.053807e-02	3.981165e-04	1.109108e-04	1.332351e-04	1.202606e-04
0.0794444     	9.846172e-03	3.719384e-04	1.081958e-04	1.275648e-04	1.150764e-04
0.08          	9.320293e-03	3.486548e-04	1.057028e-04	1.222189e-04	1.116804e-04
0.0805556     	8.834770e-03	3.269889e-04	1.033216e-04	1.172529e-04	1.074922e-04
0.0811111     	8.384575e-03	3.077718e-04	1.010852e-04	1.126250e-04	1.048949e-04
0.0816667     	8.007697e-03	2.914244e-04	9.868219e-05	1.084375e-04	1.022007e-04
0.0822222     	7.549154e-03	2.727661e-04	9.642241e-05	1.047882e-04	9.910726e-05
0.0827778     	7.226366e-03	2.598279e-04	9.393846e-05	1.013627e-04	9.687042e-05
0.0833333     	6.891345e-03	2.484803e-04	9.133370e-05	9.813373e-05	9.474713e-05
0.0838889     	6.513554e-03	2.338325e-04	8.885570e-05	9.517695e-05	9.290650e-05
0.0844444     	6.255451e-03	2.233351e-04	8.621551e-05	9.252708e-05	9.130518e-05
0.085         	5.983968e-03	2.163621e-04	8.331220e-05	8.999038e-05	8.969719e-05
0.0855556     	5.801801e-03	2.073364e-04	8.060301e-05	8.755802e-05	8.808758e-05
0.0861111     	5.582472e-03	2.005999e-04	7.792521e-05	8.516681e-05	8.664661e-05
0.0866667     	5.422544e-03	1.950447e-04	7.534993e-05	8.276920e-05	8.448103e-05
0.0872222     	5.286743e-03	1.896890e-04	7.278537e-05	8.040277e-05	8.231624e-05
0.0877778     	5.172178e-03	1.848391e-04	7.025755e-05	7.802778e-05	8.071265e-05
0.0883333     	5.073225e-03	1.807128e-04	6.781883e-05	7.568511e-05	7.892779e-05
0.0888889     	4.904580e-03	1.772636e-04	6.536046e-05	7.342095e-05	7.686662e-05
0.0894444     	4.776847e-03	1.738402e-04	6.298738e-05	7.113453e-05	7.478178e-05
0.09          	4.645896e-03	1.670767e-04	6.091656e-05	6.889146e-05	7.354437e-05
0.0905556     	4.475529e-03	1.652259e-04	5.849165e-05	6.665686e-05	7.078487e-05
0.0911111     	4.354569e-03	1.610877e-04	5.635185e-05	6.443783e-05	6.921062e-05
0.0916667     	4.205374e-03	1.540633e-04	5.456171e-05	6.220089e-05	6.655172e-05
0.0922222     	4.051972e-03	1.515244e-04	5.247411e-05	6.000077e-05	6.473829e-05
0.0927778     	3.817652e-03	1.436026e-04	5.090894e-05	5.791783e-05	6.279732e-05
0.0933333     	3.676445e-03	1.380602e-04	4.932740e-05	5.586682e-05	6.214607e-05
0.0938889     	3.480537e-03	1.330500e-04	4.779608e-05	5.386646e-05	5.939809e-05
0.0944444     	3.389092e-03	1.292679e-04	4.633859e-05	5.185325e-05	5.851590e-05
0.095         	3.218486e-03	1.221357e-04	4.521035e-05	4.992928e-05	5.658534e-05
0.0955556     	2.978252e-03	1.169636e-04	4.405676e-05	4.814411e-05	5.459973e-05
0.0961111     	2.841170e-03	1.117183e-04	4.303897e-05	4.639789e-05	5.309562e-05
0.0966667     	2.702379e-03	1.064388e-04	4.212956e-05	4.473192e-05	5.186213e-05
0.0972222     	2.603962e-03	1.004719e-04	4.139982e-05	4.310169e-05	5.087155e-05
0.0977778     	2.385061e-03	9.628846e-05	4.054446e-05	4.155884e-05	4.973385e-05
0.0983333     	2.297816e-03	9.075411e-05	3.992414e-05	4.015070e-05	4.874622e-05
0.0988889     	2.169553e-03	8.614060e-05	3.927587e-05	3.873293e-05	4.684036e-05
0.0994444     	1.979534e-03	8.079469e-05	3.872228e-05	3.745975e-05	4.613644e-05
0.1           	1.887534e-03	7.769072e-05	3.819974e-05	3.630895e-05	4.565569e-05
0.100556      	1.789077e-03	7.394785e-05	3.775289e-05	3.519023e-05	4.467861e-05
0.101111      	1.695937e-03	6.995985e-05	3.733561e-05	3.415229e-05	4.417501e-05
0.101667      	1.641253e-03	6.535225e-05	3.694733e-05	3.312153e-05	4.298915e-05
0.102222      	1.545007e-03	6.178453e-05	3.652546e-05	3.220514e-05	4.145145e-05
0.102778      	1.378208e-03	6.100149e-05	3.601344e-05	3.137452e-05	4.032786e-05
0.103333      	1.305692e-03	5.782270e-05	3.563166e-05	3.063559e-05	4.106668e-05
0.103889      	1.241124e-03	5.478634e-05	3.526528e-05	2.991191e-05	4.043498e-05
0.104444      	1.176274e-03	5.195523e-05	3.487467e-05	2.927508e-05	3.945987e-05
0.105         	1.132853e-03	4.719695e-05	3.445277e-05	2.867296e-05	3.981526e-05
0.105556      	1.069792e-03	4.480251e-05	3.403200e-05	2.812198e-05	3.830999e-05
0.106111      	9.806781e-04	4.354738e-05	3.353840e-05	2.764224e-05	3.883894e-05
0.106667      	9.270838e-04	4.011274e-05	3.308766e-05	2.721102e-05	3.830549e-05
0.107222      	8.873664e-04	3.826837e-05	3.262550e-05	2.681033e-05	3.794261e-05
0.107778      	8.583644e-04	3.656024e-05	3.214699e-05	2.643901e-05	3.727202e-05
0.108333      	8.147916e-04	3.354107e-05	3.166587e-05	2.612258e-05	3.691876e-05
0.108889      	7.937705e-04	3.218500e-05	3.117252e-05	2.586829e-05	3.757412e-05
0.109444      	7.211900e-04	3.330490e-05	3.062247e-05	2.561358e-05	3.659833e-05
0.11          	7.096402e-04	3.161421e-05	3.012488e-05	2.543765e-05	3.735566e-05
0.110556      	6.774300e-04	3.052710e-05	2.961957e-05	2.523187e-05	3.574817e-05
0.111111      	6.721462e-04	2.949665e-05	2.911185e-05	2.512682e-05	3.715761e-05
0.111667      	6.386794e-04	2.856349e-05	2.859915e-05	2.498938e-05	3.601239e-05
0.112222      	6.584544e-04	2.568881e-05	2.812611e-05	2.485844e-05	3.561871e-05
0.112778      	6.448991e-04	2.819600e-05	2.758027e-05	2.474053e-05	3.513860e-05
0.113333      	6.308173e-04	2.694707e-05	2.710465e-05	2.466172e-05	3.564181e-05
0.113889      	6.184467e-04	2.631868e-05	2.662052e-05	2.456210e-05	3.466686e-05
0.114444      	5.848292e-04	2.521690e-05	2.612993e-05	2.437079e-05	3.438693e-05
0.115         	5.700194e-04	2.243422e-05	2.568780e-05	2.425383e-05	3.409420e-05
0.115556      	5.645603e-04	2.223551e-05	2.519390e-05	2.408368e-05	3.403585e-05
0.116111      	5.827975e-04	2.066620e-05	2.473790e-05	2.390783e-05	3.350503e-05
0.116667      	5.800234e-04	2.201191e-05	2.422983e-05	2.376149e-05	3.361994e-05
0.117222      	5.641898e-04	2.140640e-05	2.379327e-05	2.358612e-05	3.340535e-05
0.117778      	5.638210e-04	2.114874e-05	2.336295e-05	2.340599e-05	3.309560e-05
0.118333      	5.475350e-04	2.088998e-05	2.293914e-05	2.320951e-05	3.236763e-05
0.118889      	5.488570e-04	2.065475e-05	2.252282e-05	2.306066e-05	3.301356e-05
0.119444      	5.296339e-04	2.039967e-05	2.211208e-05	2.283472e-05	3.172304e-05
0.12          	5.324178e-04	2.016686e-05	2.170889e-05	2.267415e-05	3.225594e-05
0.120556      	5.145929e-04	1.990841e-05	2.131185e-05	2.247073e-05	3.156163e-05
0.121111      	5.165384e-04	1.966683e-05	2.092670e-05	2.227278e-05	3.145448e-05
0.121667      	4.649788e-04	2.089896e-05	2.046346e-05	2.204975e-05	3.042344e-05
0.122222      	4.937267e-04	1.946477e-05	2.014213e-05	2.188104e-05	3.103334e-05
0.122778      	4.782229e-04	1.927761e-05	1.980201e-05	2.164018e-05	2.956884e-05
0.123333      	4.807133e-04	1.904256e-05	1.947279e-05	2.146653e-05	3.031522e-05
0.123889      	4.643679e-04	1.875248e-05	1.914628e-05	2.124635e-05	2.955147e-05
0.124444      	4.580772e-04	1.847813e-05	1.882993e-05	2.106538e-05	2.881387e-05
0.125         	4.538091e-04	1.817187e-05	1.851950e-05	2.085224e-05	2.910809e-05
0.125556      	3.814027e-04	1.881979e-05	1.812980e-05	2.062427e-05	2.897839e-05
0.126111      	3.606987e-04	1.839002e-05	1.787598e-05	2.042829e-05	2.768711e-05
0.126667      	3.607221e-04	1.807450e-05	1.761566e-05	2.022410e-05	2.759088e-05
0.127222      	3.570890e-04	1.779188e-05	1.735838e-05	2.003310e-05	2.789056e-05
0.127778      	3.743933e-04	1.709985e-05	1.711754e-05	1.984206e-05	2.721160e-05
0.128333      	3.417008e-04	1.736423e-05	1.686260e-05	1.963749e-05	2.690989e-05
0.128889      	3.713347e-04	1.602805e-05	1.665822e-05	1.944840e-05	2.643713e-05
0.129444      	3.348742e-04	1.680024e-05	1.640184e-05	1.926291e-05	2.621733e-05
0.13          	3.604985e-04	1.552278e-05	1.620776e-05	1.909812e-05	2.603199e-05
0.130556      	3.002059e-04	1.618437e-05	1.595595e-05	1.888357e-05	2.608698e-05
0.131111      	2.851033e-04	1.590669e-05	1.576845e-05	1.871329e-05	2.490600e-05
0.131667      	2.795475e-04	1.563971e-05	1.558134e-05	1.851016e-05	2.526567e-05
0.132222      	2.780269e-04	1.540091e-05	1.539768e-05	1.834440e-05	2.552865e-05
0.132778      	2.712695e-04	1.514932e-05	1.521669e-05	1.814131e-05	2.401177e-05
0.133333      	2.676171e-04	1.490766e-05	1.504050e-05	1.799529e-05	2.485157e-05
0.133889      	3.029983e-04	1.471174e-05	1.486773e-05	1.782401e-05	2.549127e-05
0.134444      	2.607115e-04	1.445128e-05	1.469761e-05	1.764651e-05	2.390884e-05
0.135         	2.694774e-04	1.378782e-05	1.453161e-05	1.744691e-05	2.318533e-05
0.135556      	2.431240e-04	1.475151e-05	1.436689e-05	1.728359e-05	2.136278e-05
0.136111      	2.654434e-04	1.374419e-05	1.424418e-05	1.710767e-05	2.137479e-05
0.136667      	2.451270e-04	1.357146e-05	1.407684e-05	1.690900e-05	2.091754e-05
0.137222      	2.422092e-04	1.337243e-05	1.393254e-05	1.673310e-05	2.066963e-05
0.137778      	2.445538e-04	1.317230e-05	1.379174e-05	1.655361e-05	2.016196e-05
0.138333      	2.193835e-04	1.297685e-05	1.363703e-05	1.633327e-05	2.008892e-05
0.138889      	2.291503e-04	1.280843e-05	1.352253e-05	1.618940e-05	1.966956e-05
0.139444      	2.376330e-04	1.263828e-05	1.338634e-05	1.603070e-05	1.956667e-05
0.14          	1.269956e-04	1.207380e-05	1.299813e-05	1.590983e-05	2.089816e-05
0.140556      	1.192762e-04	1.249773e-05	1.296848e-05	1.583861e-05	2.026730e-05
0.141111      	9.241296e-05	1.195650e-05	1.285584e-05	1.578209e-05	2.092928e-05
0.141667      	8.466534e-05	1.207521e-05	1.274599e-05	1.571805e-05	2.023172e-05
0.142222      	7.909605e-05	1.204029e-05	1.268071e-05	1.569225e-05	2.128302e-05
0.142778      	7.690446e-05	1.192178e-05	1.262520e-05	1.563657e-05	2.022850e-05
0.143333      	7.571696e-05	1.188888e-05	1.255703e-05	1.558741e-05	2.085942e-05
0.143889      	7.344734e-05	1.183813e-05	1.248969e-05	1.555142e-05	2.039949e-05
0.144444      	9.518546e-05	1.404151e-05	1.235436e-05	1.552621e-05	2.109162e-05
0.145         	9.368435e-05	1.256720e-05	1.233283e-05	1.546854e-05	2.016381e-05
0.145556      	8.706809e-05	1.283132e-05	1.225767e-05	1.545546e-05	2.124095e-05
0.146111      	7.610178e-05	1.229595e-05	1.221545e-05	1.541688e-05	2.025490e-05
0.146667      	7.792051e-05	1.316381e-05	1.212200e-05	1.536817e-05	2.079404e-05
0.147222      	8.038438e-05	1.222360e-05	1.208909e-05	1.534925e-05	2.055736e-05
0.147778      	8.381985e-05	1.288991e-05	1.199893e-05	1.530754e-05	2.092229e-05
0.148333      	7.401270e-05	1.217017e-05	1.196338e-05	1.526549e-05	2.008576e-05
0.148889      	7.823417e-05	1.289016e-05	1.187442e-05	1.525993e-05	2.123429e-05
0.149444      	9.754371e-05	1.041289e-05	1.192290e-05	1.521882e-05	2.016618e-05
0.15          	1.128179e-04	1.157475e-05	1.179707e-05	1.517304e-05	2.078962e-05
0.150556      	1.438822e-04	1.088543e-05	1.187117e-05	1.508812e-05	1.972620e-05
0.151111      	8.673481e-05	1.207950e-05	1.165803e-05	1.503909e-05	2.052911e-05
0.151667      	8.502921e-05	1.108057e-05	1.164253e-05	1.500986e-05	2.052225e-05
0.152222      	7.968429e-05	1.097789e-05	1.158829e-05	1.495058e-05	2.032411e-05
0.152778      	6.273313e-05	1.127720e-05	1.153096e-05	1.492244e-05	1.974561e-05
0.153333      	9.177402e-05	1.135688e-05	1.149320e-05	1.489102e-05	2.118315e-05
0.153889      	7.130096e-05	1.117738e-05	1.146910e-05	1.484845e-05	1.993262e-05
0.154444      	5.846106e-05	1.111469e-05	1.142785e-05	1.482571e-05	1.960677e-05
0.155         	7.476233e-05	1.110730e-05	1.139067e-05	1.480006e-05	2.103098e-05
0.155556      	6.478840e-05	1.108088e-05	1.135222e-05	1.473980e-05	1.925037e-05
0.156111      	6.232544e-05	1.105093e-05	1.131093e-05	1.470968e-05	2.008023e-05
0.156667      	5.454413e-05	1.099823e-05	1.127036e-05	1.470742e-05	2.050468e-05
0.157222      	5.730743e-05	1.099135e-05	1.123324e-05	1.465989e-05	1.915516e-05
0.157778      	5.962003e-05	1.094251e-05	1.119586e-05	1.460846e-05	2.005495e-05
0.158333      	5.709774e-05	1.089679e-05	1.116003e-05	1.459447e-05	1.983400e-05
0.158889      	6.447812e-05	1.089843e-05	1.112287e-05	1.454191e-05	1.953510e-05
0.159444      	5.807553e-05	1.084600e-05	1.108319e-05	1.450476e-05	1.946791e-05
0.16          	8.561983e-05	1.083921e-05	1.104538e-05	1.448914e-05	2.026064e-05
0.160556      	6.532984e-05	1.078983e-05	1.100751e-05	1.443547e-05	1.957555e-05
0.161111      	5.646183e-05	1.073776e-05	1.097046e-05	1.438840e-05	1.887520e-05
0.161667      	8.947948e-05	1.074039e-05	1.093455e-05	1.438147e-05	2.071909e-05
0.162222      	6.167169e-05	1.068105e-05	1.089520e-05	1.433280e-05	1.895805e-05
0.162778      	5.504954e-05	1.065331e-05	1.085745e-05	1.429763e-05	1.885422e-05
0.163333      	8.890637e-05	1.064423e-05	1.082274e-05	1.428230e-05	2.058694e-05
0.163889      	6.255628e-05	1.059123e-05	1.078461e-05	1.422228e-05	1.844556e-05
0.164444      	5.792740e-05	1.056005e-05	1.074712e-05	1.419668e-05	1.949484e-05
0.165         	8.889253e-05	1.055212e-05	1.071134e-05	1.417957e-05	2.010000e-05
0.165556      	6.554341e-05	1.051062e-05	1.067431e-05	1.413122e-05	1.843402e-05
0.166111      	5.507511e-05	1.047444e-05	1.063824e-05	1.411796e-05	1.962975e-05
0.166667      	9.021780e-05	1.046325e-05	1.060521e-05	1.407208e-05	1.956174e-05
0.167222      	6.391680e-05	1.042966e-05	1.056840e-05	1.403342e-05	1.903721e-05
0.167778      	5.254927e-05	1.038792e-05	1.053172e-05	1.399987e-05	1.871783e-05
0.168333      	8.594549e-05	1.038803e-05	1.049924e-05	1.400338e-05	1.992471e-05
0.168889      	6.081957e-05	1.034959e-05	1.046019e-05	1.393879e-05	1.879805e-05
0.169444      	5.589442e-05	1.030098e-05	1.042475e-05	1.389183e-05	1.823802e-05
0.17          	8.811097e-05	1.031002e-05	1.039330e-05	1.388696e-05	2.008298e-05
0.170556      	6.004444e-05	1.026256e-05	1.035724e-05	1.384932e-05	1.851199e-05
0.171111      	5.334866e-05	1.022545e-05	1.032477e-05	1.380743e-05	1.829870e-05
0.171667      	8.510863e-05	1.022088e-05	1.028854e-05	1.379554e-05	1.987277e-05
0.172222      	6.087367e-05	1.016842e-05	1.025400e-05	1.373252e-05	1.776112e-05
0.172778      	5.643715e-05	1.015453e-05	1.022072e-05	1.371003e-05	1.887069e-05
0.173333      	8.609855e-05	1.014581e-05	1.018756e-05	1.369382e-05	1.951898e-05
0.173889      	6.365056e-05	1.010731e-05	1.015200e-05	1.364856e-05	1.789588e-05
0.174444      	5.179092e-05	1.006619e-05	1.011886e-05	1.361921e-05	1.865166e-05
0.175         	8.719771e-05	1.005284e-05	1.008741e-05	1.359104e-05	1.894922e-05
0.175556      	6.109194e-05	1.001223e-05	1.005349e-05	1.355431e-05	1.838007e-05
0.176111      	1.316965e-04	9.969564e-06	1.001980e-05	1.353280e-05	1.833664e-05
0.176667      	1.772885e-04	8.500103e-06	1.012792e-05	1.347243e-05	1.857623e-05
0.177222      	1.425610e-04	9.195084e-06	1.000427e-05	1.342035e-05	1.898808e-05
0.177778      	6.517498e-05	8.530315e-06	9.969077e-06	1.336097e-05	1.877523e-05
0.178333      	8.077796e-05	9.133177e-06	9.889394e-06	1.332672e-05	1.769617e-05
0.178889      	6.459788e-05	9.997041e-06	9.798977e-06	1.328478e-05	1.752297e-05
0.179444      	1.788953e-04	1.022869e-05	9.765422e-06	1.324877e-05	1.863152e-05
0.18          	8.540333e-05	7.969847e-06	9.873434e-06	1.320083e-05	1.749812e-05
0.180556      	9.026781e-05	9.886236e-06	9.794131e-06	1.317881e-05	1.817536e-05
0.181111      	1.547519e-04	1.074652e-05	9.752714e-06	1.313774e-05	1.703403e-05
0.181667      	8.327260e-05	7.863029e-06	9.830167e-06	1.306551e-05	1.766370e-05
0.182222      	1.143212e-04	9.720531e-06	9.748051e-06	1.304856e-05	1.807700e-05
0.182778      	1.633033e-04	1.048285e-05	9.698522e-06	1.297455e-05	1.645669e-05
0.183333      	9.035497e-05	7.627328e-06	9.794877e-06	1.296192e-05	1.727235e-05
0.183889      	9.315884e-05	9.589565e-06	9.712490e-06	1.288915e-05	1.621550e-05
0.184444      	1.779442e-04	1.060202e-05	9.664209e-06	1.285630e-05	1.803047e-05
0.185         	7.666500e-05	7.661373e-06	9.727253e-06	1.279346e-05	1.643790e-05
0.185556      	8.066314e-05	9.517590e-06	9.653091e-06	1.279529e-05	1.753672e-05
0.186111      	1.580908e-04	1.036683e-05	9.615965e-06	1.274552e-05	1.644904e-05
0.186667      	7.587151e-05	7.032460e-06	9.703325e-06	1.269411e-05	1.625795e-05
0.187222      	1.049270e-04	8.591648e-06	9.633101e-06	1.266814e-05	1.775449e-05
0.187778      	1.677552e-04	1.020470e-05	9.576274e-06	1.260112e-05	1.695990e-05
0.188333      	1.034338e-04	6.931120e-06	9.682687e-06	1.257506e-05	1.732459e-05
0.188889      	7.395479e-05	9.361058e-06	9.587119e-06	1.252882e-05	1.643253e-05
0.189444      	1.436037e-04	1.008417e-05	9.554569e-06	1.250544e-05	1.622547e-05
0.19          	7.700596e-05	6.932890e-06	9.629337e-06	1.247133e-05	1.587565e-05
0.190556      	8.539097e-05	8.481905e-06	9.558597e-06	1.243416e-05	1.699125e-05
0.191111      	9.698506e-05	9.881133e-06	9.504543e-06	1.239288e-05	1.740929e-05
0.191667      	5.942788e-05	9.985991e-06	9.484123e-06	1.235812e-05	1.538174e-05
0.192222      	5.088414e-05	9.444785e-06	9.482720e-06	1.230818e-05	1.629982e-05
0.192778      	8.180506e-05	9.024615e-06	9.482495e-06	1.229343e-05	1.703763e-05
0.193333      	4.812867e-05	8.911524e-06	9.477233e-06	1.226042e-05	1.551038e-05
0.193889      	4.169396e-05	9.026097e-06	9.469601e-06	1.221134e-05	1.584779e-05
0.194444      	7.847204e-05	9.142826e-06	9.470287e-06	1.220064e-05	1.703080e-05
0.195         	4.540606e-05	9.148446e-06	9.462202e-06	1.216659e-05	1.526434e-05
0.195556      	4.244261e-05	9.090276e-06	9.453685e-06	1.211957e-05	1.603670e-05
0.196111      	7.268486e-05	9.053650e-06	9.445165e-06	1.210911e-05	1.652501e-05
0.196667      	4.649657e-05	9.027973e-06	9.435060e-06	1.207392e-05	1.507500e-05
0.197222      	4.145170e-05	9.018760e-06	9.426135e-06	1.202560e-05	1.572690e-05
0.197778      	7.566200e-05	9.026451e-06	9.417624e-06	1.201370e-05	1.673673e-05
0.198333      	4.163384e-05	8.994216e-06	9.407377e-06	1.198435e-05	1.475399e-05
0.198889      	4.011314e-05	8.967087e-06	9.395860e-06	1.193672e-05	1.563924e-05
0.199444      	7.363795e-05	8.958403e-06	9.386641e-06	1.192393e-05	1.637631e-05
0.2           	4.445607e-05	8.932966e-06	9.379902e-06	1.189215e-05	1.486135e-05
0.200556      	3.913983e-05	8.920822e-06	9.369099e-06	1.184455e-05	1.519953e-05
0.201111      	7.539604e-05	8.920530e-06	9.360991e-06	1.183515e-05	1.638165e-05
0.201667      	4.418190e-05	8.896086e-06	9.352915e-06	1.180222e-05	1.463323e-05
0.202222      	4.077543e-05	8.878335e-06	9.345710e-06	1.175594e-05	1.540589e-05
0.202778      	7.060199e-05	8.881638e-06	9.339963e-06	1.174685e-05	1.589826e-05
0.203333      	4.354014e-05	8.847590e-06	9.329772e-06	1.171443e-05	1.449369e-05
0.203889      	3.968741e-05	8.826982e-06	9.320100e-06	1.171136e-05	1.598700e-05
0.204444      	4.356970e-05	8.820026e-06	9.312233e-06	1.167990e-05	1.529092e-05