/*--------------------------------*- C++ -*----------------------------------*\
  =========                 |
  \\      /  F ield         | OpenFOAM: The Open Source CFD Toolbox
   \\    /   O peration     | Website:  https://openfoam.org
    \\  /    A nd           | Version:  8
     \\/     M anipulation  |
\*---------------------------------------------------------------------------*/
FoamFile
{
    version     2.0;
    format      ascii;
    class       surfaceScalarField;
    location    "0.05";
    object      phi;
}
// * * * * * * * * * * * * * * * * * * * * * * * * * * * * * * * * * * * * * //

dimensions      [0 3 -1 0 0 0 0];

internalField   nonuniform List<scalar> 
31053
(
6.40144e-07
1.27399e-05
8.63159e-07
1.5157e-05
3.57385e-07
1.23825e-05
9.48799e-07
1.75544e-05
5.67571e-07
1.49468e-05
2.75241e-07
1.21072e-05
9.73476e-07
2.02153e-05
6.82333e-07
1.74396e-05
4.71114e-07
1.47509e-05
2.16689e-07
1.18905e-05
9.64859e-07
2.32486e-05
7.41087e-07
2.01566e-05
5.97078e-07
1.73136e-05
3.97008e-07
1.45706e-05
1.72267e-07
1.17183e-05
9.34932e-07
2.66899e-05
7.66179e-07
2.32235e-05
6.72265e-07
2.00814e-05
5.24405e-07
1.71862e-05
3.32897e-07
1.441e-05
1.37933e-07
1.15803e-05
8.89497e-07
3.06654e-05
7.69396e-07
2.66867e-05
7.14392e-07
2.31814e-05
6.05482e-07
2.00003e-05
4.55098e-07
1.7064e-05
2.78677e-07
1.42692e-05
1.10896e-07
1.14694e-05
8.31645e-07
3.51979e-05
7.57194e-07
3.06776e-05
7.34357e-07
2.66667e-05
6.53772e-07
2.31331e-05
5.36182e-07
1.99192e-05
3.91798e-07
1.69509e-05
2.31712e-07
1.41484e-05
8.84212e-08
1.1381e-05
7.65163e-07
4.03865e-05
7.33753e-07
3.52213e-05
7.38612e-07
3.06734e-05
6.79342e-07
2.66412e-05
5.85236e-07
2.30841e-05
4.69182e-07
1.98418e-05
3.33074e-07
1.68496e-05
1.89599e-07
1.40472e-05
6.87135e-08
1.13123e-05
6.9264e-07
4.63525e-05
7.00226e-07
4.042e-05
7.31033e-07
3.52289e-05
6.88193e-07
3.06645e-05
6.11274e-07
2.66151e-05
5.15723e-07
2.30375e-05
4.03718e-07
1.97712e-05
2.77246e-07
1.67619e-05
1.50583e-07
1.39654e-05
5.06635e-08
1.12616e-05
6.15919e-07
5.32167e-05
6.58137e-07
4.63946e-05
7.1196e-07
4.04391e-05
6.83254e-07
3.52338e-05
6.20209e-07
3.06556e-05
5.39057e-07
2.65918e-05
4.44985e-07
2.29962e-05
3.38647e-07
1.97098e-05
2.2297e-07
1.66895e-05
1.13391e-07
1.39026e-05
3.34083e-08
1.12282e-05
5.36961e-07
6.1059e-05
6.09288e-07
5.32656e-05
6.81839e-07
4.64247e-05
6.67409e-07
4.04549e-05
6.15419e-07
3.52386e-05
5.44943e-07
3.06497e-05
4.62956e-07
2.65738e-05
3.72256e-07
2.29626e-05
2.72883e-07
1.96599e-05
1.69139e-07
1.66338e-05
7.70148e-08
1.3859e-05
1.64985e-08
1.12117e-05
4.57623e-07
7.00613e-05
5.55249e-07
6.1113e-05
6.41766e-07
5.33056e-05
6.41624e-07
4.64505e-05
5.99146e-07
4.04712e-05
5.36843e-07
3.52467e-05
4.62997e-07
3.06497e-05
3.82503e-07
2.65636e-05
2.96518e-07
2.2939e-05
2.05385e-07
1.96236e-05
1.14921e-07
1.65959e-05
4.08105e-08
1.38347e-05
-2.16513e-10
1.1212e-05
3.79597e-07
8.041e-05
4.97436e-07
7.01192e-05
5.92982e-07
6.11618e-05
6.05957e-07
5.33413e-05
5.72495e-07
4.64772e-05
5.16721e-07
4.04913e-05
4.48479e-07
3.52612e-05
3.74171e-07
3.0658e-05
2.96687e-07
2.65634e-05
2.16718e-07
2.29277e-05
1.35471e-07
1.96031e-05
5.9734e-08
1.65769e-05
4.42347e-09
1.38301e-05
-1.70327e-08
1.1229e-05
3.16769e-07
7.62528e-05
4.37148e-07
8.04703e-05
5.36929e-07
7.01752e-05
5.60728e-07
6.1207e-05
5.35742e-07
5.33781e-05
4.85569e-07
4.65083e-05
4.2125e-07
4.05186e-05
3.5045e-07
3.52849e-05
2.77476e-07
3.06772e-05
2.04425e-07
2.65757e-05
1.32196e-07
2.29309e-05
6.26395e-08
1.96002e-05
3.23384e-09
1.65781e-05
-3.24212e-08
1.38455e-05
-3.41316e-08
1.12631e-05
2.63464e-07
7.62433e-05
3.85487e-07
7.63045e-05
4.75263e-07
8.0532e-05
5.0665e-07
7.02293e-05
4.88981e-07
6.12538e-05
4.43728e-07
5.34199e-05
3.82182e-07
4.65474e-05
3.13072e-07
4.05559e-05
2.41803e-07
3.53206e-05
1.71793e-07
3.07098e-05
1.05003e-07
2.66029e-05
4.24592e-08
2.29511e-05
-1.33513e-08
1.96168e-05
-5.47517e-08
1.66005e-05
-6.9877e-08
1.38812e-05
-5.14547e-08
1.13146e-05
2.18449e-07
7.6235e-05
3.38792e-07
7.629e-05
4.20672e-07
7.63591e-05
4.44933e-07
8.05937e-05
4.32519e-07
7.02857e-05
3.91277e-07
6.13062e-05
3.31562e-07
5.34705e-05
2.62778e-07
4.65977e-05
1.91231e-07
4.06065e-05
1.21381e-07
3.5371e-05
5.63362e-08
3.07585e-05
-2.078e-09
2.66474e-05
-5.2661e-08
2.29904e-05
-9.24998e-08
1.96545e-05
-1.1418e-07
1.66448e-05
-1.07814e-07
1.39376e-05
-6.88452e-08
1.13834e-05
1.80627e-07
7.62298e-05
2.96661e-07
7.62771e-05
3.70037e-07
7.63406e-05
3.88665e-07
7.64153e-05
3.67212e-07
8.0659e-05
3.28362e-07
7.03487e-05
2.6946e-07
6.13683e-05
1.99753e-07
5.35335e-05
1.26347e-07
4.66626e-05
5.45207e-08
4.06734e-05
-1.16835e-08
3.5439e-05
-6.94167e-08
3.08259e-05
-1.16947e-07
2.67117e-05
-1.53003e-07
2.30509e-05
-1.7451e-07
1.97148e-05
-1.74724e-07
1.67117e-05
-1.45957e-07
1.40147e-05
-8.6174e-08
1.14696e-05
1.49032e-07
7.62216e-05
2.58714e-07
7.62678e-05
3.23307e-07
7.63239e-05
3.35466e-07
7.63938e-05
3.07035e-07
7.64755e-05
2.55643e-07
8.07317e-05
1.95991e-07
7.04221e-05
1.24026e-07
6.14441e-05
4.72005e-08
5.36127e-05
-2.84043e-08
4.67455e-05
-9.80267e-08
4.07597e-05
-1.57939e-07
3.55276e-05
-2.05558e-07
3.09145e-05
-2.39306e-07
2.6798e-05
-2.58031e-07
2.31345e-05
-2.58773e-07
1.97989e-05
-2.35868e-07
1.68016e-05
-1.83943e-07
1.41125e-05
-1.03178e-07
1.15728e-05
1.22832e-07
7.62162e-05
2.24606e-07
7.62557e-05
2.80366e-07
7.63107e-05
2.85729e-07
7.63736e-05
2.49798e-07
7.64511e-05
1.8856e-07
7.65426e-05
1.11787e-07
8.08159e-05
3.57233e-08
7.05104e-05
-4.62434e-08
6.15375e-05
-1.27514e-07
5.37118e-05
-2.02565e-07
4.685e-05
-2.66985e-07
4.08688e-05
-3.17443e-07
3.56395e-05
-3.51633e-07
3.10268e-05
-3.68402e-07
2.69084e-05
-3.66833e-07
2.32425e-05
-3.44408e-07
1.99074e-05
-2.9695e-07
1.69146e-05
-2.21288e-07
1.42306e-05
-1.19672e-07
1.16924e-05
1.01216e-07
7.62116e-05
1.93993e-07
7.62468e-05
2.41078e-07
7.6295e-05
2.39631e-07
7.63568e-05
1.96195e-07
7.64272e-05
1.24771e-07
7.65149e-05
3.44742e-08
7.66199e-05
-6.44382e-08
8.09161e-05
-1.53837e-07
7.0618e-05
-2.42926e-07
6.16529e-05
-3.25632e-07
5.38349e-05
-3.96741e-07
4.69798e-05
-4.52377e-07
4.10037e-05
-4.89567e-07
3.57774e-05
-5.06692e-07
3.11651e-05
-5.03018e-07
2.70446e-05
-4.78119e-07
2.33762e-05
-4.30385e-07
2.00409e-05
-3.5717e-07
1.70505e-05
-2.57483e-07
1.43684e-05
-1.35323e-07
1.18278e-05
8.47636e-08
6.95985e-05
1.66579e-07
7.6239e-05
2.05289e-07
7.62826e-05
1.97251e-07
7.63374e-05
1.46617e-07
7.64064e-05
6.52171e-08
7.64868e-05
-3.87372e-08
7.65881e-05
-1.55752e-07
7.67112e-05
-2.74707e-07
8.1037e-05
-3.74474e-07
7.07496e-05
-4.67458e-07
6.17947e-05
-5.47802e-07
5.39859e-05
-6.10926e-07
4.71383e-05
-6.5339e-07
4.11675e-05
-6.73161e-07
3.59439e-05
-6.69204e-07
3.13313e-05
-6.41451e-07
2.72079e-05
-5.90444e-07
2.35363e-05
-5.15471e-07
2.01992e-05
-4.1564e-07
1.72086e-05
-2.91912e-07
1.4525e-05
-1.49939e-07
1.19777e-05
7.21872e-08
6.25566e-05
1.4414e-07
6.96209e-05
1.72872e-07
7.62714e-05
1.58619e-07
7.63212e-05
1.01301e-07
7.63827e-05
1.04929e-08
7.64611e-05
-1.067e-07
7.65547e-05
-2.41719e-07
7.6674e-05
-3.84124e-07
7.68207e-05
-5.21079e-07
8.11836e-05
-6.27864e-07
7.091e-05
-7.20548e-07
6.19675e-05
-7.9401e-07
5.4169e-05
-8.44121e-07
4.73291e-05
-8.68666e-07
4.1363e-05
-8.66362e-07
3.6141e-05
-8.37032e-07
3.15268e-05
-7.81803e-07
2.73993e-05
-7.02064e-07
2.37229e-05
-5.98348e-07
2.03819e-05
-4.71387e-07
1.73881e-05
-3.24066e-07
1.46991e-05
-1.63049e-07
1.21408e-05
6.23999e-08
5.62278e-05
1.25956e-07
6.25748e-05
1.46132e-07
6.96476e-05
1.23747e-07
7.63063e-05
6.03917e-08
7.63621e-05
-3.90125e-08
7.64322e-05
-1.68622e-07
7.6523e-05
-3.21e-07
7.6634e-05
-4.86535e-07
7.67764e-05
-6.52991e-07
7.69526e-05
-8.05533e-07
8.13612e-05
-9.14809e-07
7.11042e-05
-1.0022e-06
6.21757e-05
-1.06306e-06
5.4388e-05
-1.09474e-06
4.75551e-05
-1.09598e-06
4.15926e-05
-1.06656e-06
3.63705e-05
-1.0078e-06
3.17528e-05
-9.21801e-07
2.7619e-05
-8.11183e-07
2.39357e-05
-6.77575e-07
2.05881e-05
-5.23513e-07
1.75876e-05
-3.52985e-07
1.4889e-05
-1.73892e-07
1.23146e-05
5.46666e-08
5.05397e-05
1.11111e-07
5.62426e-05
1.24355e-07
6.25965e-05
9.51846e-08
6.96762e-05
2.3987e-08
7.63427e-05
-8.30409e-08
7.64062e-05
-2.23952e-07
7.64875e-05
-3.92602e-07
7.65946e-05
-5.80396e-07
7.67279e-05
-7.75838e-07
7.68993e-05
-9.64649e-07
7.71117e-05
-1.12901e-06
8.15754e-05
-1.23537e-06
7.13374e-05
-1.31103e-06
6.24236e-05
-1.35315e-06
5.46464e-05
-1.36018e-06
4.78193e-05
-1.33222e-06
4.18583e-05
-1.27089e-06
3.66336e-05
-1.17869e-06
3.20097e-05
-1.05912e-06
2.7867e-05
-9.15811e-07
2.4174e-05
-7.51831e-07
2.08164e-05
-5.70622e-07
1.78052e-05
-3.78017e-07
1.50932e-05
-1.82438e-07
1.24971e-05
4.84751e-08
4.54262e-05
9.8903e-08
5.05519e-05
1.06534e-07
5.62605e-05
7.21718e-08
6.26196e-05
-5.27753e-09
6.97055e-05
-1.21416e-07
7.63811e-05
-2.7231e-07
7.64545e-05
-4.55802e-07
7.65507e-05
-6.64507e-07
7.66787e-05
-8.87851e-07
7.68399e-05
-1.11226e-06
7.70469e-05
-1.32021e-06
7.73029e-05
-1.49169e-06
8.18318e-05
-1.58799e-06
7.16144e-05
-1.64501e-06
6.27155e-05
-1.66125e-06
5.49474e-05
-1.63679e-06
4.81239e-05
-1.57399e-06
4.21614e-05
-1.47593e-06
3.69309e-05
-1.3468e-06
3.22974e-05
-1.19118e-06
2.81423e-05
-1.01414e-06
2.44363e-05
-8.1926e-07
2.1065e-05
-6.11905e-07
1.80391e-05
-3.95667e-07
1.53064e-05
-1.50225e-07
1.26473e-05
4.34573e-08
4.0831e-05
8.87925e-08
4.54363e-05
9.18731e-08
5.05666e-05
5.36115e-08
5.6279e-05
-2.83248e-08
6.26426e-05
-1.51426e-07
6.97355e-05
-3.13432e-07
7.64222e-05
-5.10078e-07
7.65088e-05
-7.37945e-07
7.66242e-05
-9.87592e-07
7.67785e-05
-1.24633e-06
7.6974e-05
-1.49711e-06
7.72238e-05
-1.72e-06
7.75312e-05
-1.89187e-06
8.21356e-05
-1.97044e-06
7.19398e-05
-2.00071e-06
6.3055e-05
-1.98317e-06
5.52938e-05
-1.9206e-06
4.84705e-05
-1.81721e-06
4.25027e-05
-1.67814e-06
3.72622e-05
-1.50887e-06
3.26151e-05
-1.3156e-06
2.84438e-05
-1.10383e-06
2.47208e-05
-8.78583e-07
2.13317e-05
-6.42355e-07
1.82858e-05
-3.90417e-07
1.55466e-05
-1.01367e-07
1.27487e-05
3.93426e-08
3.67001e-05
8.03786e-08
4.08394e-05
7.97527e-08
4.54484e-05
3.86255e-08
5.05816e-05
-4.64147e-08
5.62971e-05
-1.74259e-07
6.26654e-05
-3.44512e-07
6.97665e-05
-5.5506e-07
7.64672e-05
-8.00025e-07
7.65709e-05
-1.07392e-06
7.67105e-05
-1.36516e-06
7.68973e-05
-1.65739e-06
7.71342e-05
-1.93092e-06
7.74347e-05
-2.16226e-06
7.78016e-05
-2.32719e-06
8.24924e-05
-2.37891e-06
7.2318e-05
-2.37334e-06
6.34451e-05
-2.31428e-06
5.56875e-05
-2.20678e-06
4.88601e-05
-2.05762e-06
4.28822e-05
-1.87356e-06
3.76269e-05
-1.66199e-06
3.29615e-05
-1.42959e-06
2.87695e-05
-1.18307e-06
2.50253e-05
-9.24973e-07
2.16143e-05
-6.54976e-07
1.85503e-05
-3.66258e-07
1.58115e-05
-8.12434e-08
1.28299e-05
3.59319e-08
3.29894e-05
7.33537e-08
3.67071e-05
6.97e-08
4.08495e-05
2.65095e-08
4.54605e-05
-6.05669e-08
5.05957e-05
-1.91432e-07
5.63143e-05
-3.6711e-07
6.2688e-05
-5.87804e-07
6.97993e-05
-8.5025e-07
7.65174e-05
-1.14595e-06
7.66429e-05
-1.46734e-06
7.68127e-05
-1.79901e-06
7.70389e-05
-2.12177e-06
7.73251e-05
-2.41194e-06
7.76844e-05
-2.64462e-06
7.8119e-05
-2.79351e-06
8.2907e-05
-2.80796e-06
7.27526e-05
-2.75755e-06
6.38884e-05
-2.64895e-06
5.61297e-05
-2.49034e-06
4.92928e-05
-2.29057e-06
4.32992e-05
-2.05872e-06
3.80236e-05
-1.80285e-06
3.33347e-05
-1.53083e-06
2.91173e-05
-1.24758e-06
2.53479e-05
-9.53661e-07
2.1913e-05
-6.5447e-07
1.88385e-05
-3.44651e-07
1.60749e-05
-7.62219e-08
1.29061e-05
3.30793e-08
2.96509e-05
6.7464e-08
3.29953e-05
6.13479e-08
3.67155e-05
1.66787e-08
4.08593e-05
-7.16044e-08
4.54716e-05
-2.04173e-07
5.06085e-05
-3.83095e-07
5.63303e-05
-6.10348e-07
6.27106e-05
-8.85461e-07
6.98345e-05
-1.20303e-06
7.65745e-05
-1.55177e-06
7.67273e-05
-1.92028e-06
7.69339e-05
-2.29016e-06
7.72073e-05
-2.63782e-06
7.7551e-05
-2.93786e-06
7.79777e-05
-3.16266e-06
7.84882e-05
-3.28468e-06
8.33837e-05
-3.25154e-06
7.32466e-05
-3.14693e-06
6.43864e-05
-2.98144e-06
5.66208e-05
-2.76587e-06
4.97681e-05
-2.51194e-06
4.37524e-05
-2.22976e-06
3.84505e-05
-1.92867e-06
3.37326e-05
-1.6155e-06
2.94852e-05
-1.29358e-06
2.56878e-05
-9.69787e-07
2.22283e-05
-6.50189e-07
1.91441e-05
-3.33801e-07
1.63325e-05
-8.1733e-08
1.29879e-05
3.06753e-08
2.66504e-05
6.24993e-08
2.96558e-05
5.43913e-08
3.30023e-05
8.661e-09
3.67235e-05
-8.01927e-08
4.08679e-05
-2.13471e-07
4.54809e-05
-3.93976e-07
5.06194e-05
-6.25021e-07
5.63449e-05
-9.08291e-07
6.27334e-05
-1.24169e-06
6.98732e-05
-1.6176e-06
7.66403e-05
-2.01982e-06
7.68269e-05
-2.43404e-06
7.70778e-05
-2.83711e-06
7.74066e-05
-3.20337e-06
7.78165e-05
-3.5041e-06
7.83191e-05
-3.70973e-06
7.89132e-05
-3.79407e-06
8.39262e-05
-3.70245e-06
7.38021e-05
-3.53494e-06
6.49399e-05
-3.3055e-06
5.71604e-05
-3.02852e-06
5.02847e-05
-2.71729e-06
4.42399e-05
-2.38341e-06
3.89053e-05
-2.03594e-06
3.4153e-05
-1.68057e-06
2.98722e-05
-1.3255e-06
2.60436e-05
-9.80654e-07
2.25588e-05
-6.47738e-07
1.9458e-05
-3.32676e-07
1.65834e-05
-1.10776e-07
1.30987e-05
2.86361e-08
2.3956e-05
5.82896e-08
2.66546e-05
4.85742e-08
2.96616e-05
2.09454e-09
3.30088e-05
-8.68639e-08
3.67302e-05
-2.20112e-07
4.08745e-05
-4.00963e-07
4.54879e-05
-6.33698e-07
5.0628e-05
-9.21642e-07
5.63583e-05
-1.26529e-06
6.2757e-05
-1.66093e-06
6.99165e-05
-2.09655e-06
7.67171e-05
-2.55173e-06
7.69446e-05
-3.00736e-06
7.72481e-05
-3.4379e-06
7.76412e-05
-3.81379e-06
7.81262e-05
-4.10367e-06
7.8713e-05
-4.27879e-06
7.93979e-05
-4.31369e-06
8.45375e-05
-4.15327e-06
7.44204e-05
-3.91434e-06
6.55487e-05
-3.61546e-06
5.77473e-05
-3.27318e-06
5.08406e-05
-2.90281e-06
4.47593e-05
-2.51634e-06
3.93857e-05
-2.12215e-06
3.45946e-05
-1.72944e-06
3.02762e-05
-1.34963e-06
2.64125e-05
-9.89658e-07
2.29007e-05
-6.48528e-07
1.97739e-05
-4.14161e-07
1.68868e-05
-1.19564e-07
1.32182e-05
2.68965e-08
2.15337e-05
5.47016e-08
2.39596e-05
4.36855e-08
2.66595e-05
-3.29461e-09
2.9667e-05
-9.20349e-08
3.3014e-05
-2.24715e-07
3.67348e-05
-4.0501e-07
4.08786e-05
-6.37877e-07
4.5492e-05
-9.27852e-07
5.06343e-05
-1.27741e-06
5.63704e-05
-1.68593e-06
6.2782e-05
-2.14599e-06
6.99659e-05
-2.64184e-06
7.68072e-05
-3.1465e-06
7.70837e-05
-3.63855e-06
7.74487e-05
-4.08796e-06
7.79153e-05
-4.4619e-06
7.84844e-05
-4.72921e-06
7.91635e-05
-4.8612e-06
7.99454e-05
-4.83515e-06
8.52194e-05
-4.59569e-06
7.51018e-05
-4.27857e-06
6.62119e-05
-3.90543e-06
5.83796e-05
-3.4955e-06
5.14333e-05
-3.06517e-06
4.53082e-05
-2.62627e-06
3.98898e-05
-2.18967e-06
3.50548e-05
-1.76723e-06
3.06937e-05
-1.3687e-06
2.67916e-05
-9.97223e-07
2.32494e-05
-8.03206e-07
2.01629e-05
-4.15552e-07
1.71828e-05
-1.29552e-07
1.33478e-05
2.54052e-08
1.93535e-05
5.16291e-08
2.15368e-05
3.95552e-08
2.39638e-05
-7.72524e-09
2.66639e-05
-9.60289e-08
2.9671e-05
-2.2777e-07
3.3017e-05
-4.06866e-07
3.67366e-05
-6.38736e-07
4.08794e-05
-9.28778e-07
4.5493e-05
-1.28095e-06
5.06378e-05
-1.69704e-06
5.63815e-05
-2.17327e-06
6.28093e-05
-2.69913e-06
7.00232e-05
-3.25279e-06
7.69135e-05
-3.80278e-06
7.72479e-05
-4.32319e-06
7.76839e-05
-4.78009e-06
7.82335e-05
-5.14018e-06
7.88954e-05
-5.37159e-06
7.96738e-05
-5.44781e-06
8.05581e-05
-5.34905e-06
8.59727e-05
-5.02222e-06
7.58454e-05
-4.6209e-06
6.69273e-05
-4.17043e-06
5.90545e-05
-3.69188e-06
5.206e-05
-3.20208e-06
4.5884e-05
-2.71463e-06
4.04148e-05
-2.24244e-06
3.55301e-05
-1.7962e-06
3.11212e-05
-1.38286e-06
2.71772e-05
-1.23812e-06
2.36843e-05
-7.98258e-07
2.05456e-05
-4.17322e-07
1.74705e-05
-1.37299e-07
1.34851e-05
1.73973e-05
2.41213e-08
4.89874e-08
1.93561e-05
3.60487e-08
2.15403e-05
-1.13771e-08
2.39674e-05
-9.90989e-08
2.6667e-05
-2.29654e-07
2.96729e-05
-4.07116e-07
3.30173e-05
-6.37193e-07
3.67351e-05
-9.25883e-07
4.08766e-05
-1.27822e-06
4.54902e-05
-1.69782e-06
5.06386e-05
-2.18375e-06
5.6392e-05
-2.72977e-06
6.28399e-05
-3.32e-06
7.00904e-05
-3.92846e-06
7.70392e-05
-4.51644e-06
7.74412e-05
-5.05422e-06
7.79581e-05
-5.50675e-06
7.86001e-05
-5.83912e-06
7.93629e-05
-6.02103e-06
8.02471e-05
-6.02829e-06
8.12373e-05
-5.84689e-06
8.67974e-05
-5.4251e-06
7.66496e-05
-4.93555e-06
6.76924e-05
-4.40643e-06
5.9769e-05
-3.85985e-06
5.27177e-05
-3.31408e-06
4.64834e-05
-2.78427e-06
4.09566e-05
-2.28231e-06
3.60162e-05
-1.81659e-06
3.1555e-05
-1.71955e-06
2.76586e-05
-1.23011e-06
2.41162e-05
-7.90549e-07
2.09188e-05
-4.16538e-07
1.77498e-05
-1.42292e-07
1.36274e-05
1.73996e-05
4.6704e-08
2.78121e-05
2.2043e-08
3.30583e-08
1.93591e-05
-1.4396e-08
2.15433e-05
-1.01444e-07
2.39698e-05
-2.30663e-07
2.6668e-05
-4.06212e-07
2.9672e-05
-6.33961e-07
3.30141e-05
-9.20299e-07
3.67295e-05
-1.27103e-06
4.08694e-05
-1.6911e-06
4.54835e-05
-2.18179e-06
5.06366e-05
-2.74024e-06
5.64025e-05
-3.35543e-06
6.28753e-05
-4.00805e-06
7.017e-05
-4.66506e-06
7.71878e-05
-5.28066e-06
7.76676e-05
-5.82423e-06
7.82756e-05
-6.2582e-06
7.90192e-05
-6.54848e-06
7.98903e-05
-6.66642e-06
8.08852e-05
-6.59327e-06
8.19837e-05
-6.31981e-06
8.76921e-05
-5.79769e-06
7.75118e-05
-5.21789e-06
6.85039e-05
-4.61048e-06
6.05197e-05
-3.99904e-06
5.34027e-05
-3.40303e-06
4.71022e-05
-2.83657e-06
4.15108e-05
-2.30953e-06
3.65091e-05
-2.25996e-06
3.20954e-05
-1.70952e-06
2.81381e-05
-1.21453e-06
2.45401e-05
-7.78338e-07
2.12806e-05
-4.12311e-07
1.80198e-05
-1.44647e-07
1.3772e-05
1.74021e-05
3.04989e-08
2.78157e-05
4.30437e-08
2.8552e-05
2.00648e-08
-1.68993e-08
1.93616e-05
-1.03222e-07
2.15451e-05
-2.31025e-07
2.39701e-05
-4.04502e-07
2.66663e-05
-6.29585e-07
2.96676e-05
-9.12901e-07
3.30067e-05
-1.26077e-06
3.67193e-05
-1.67911e-06
4.08574e-05
-2.17085e-06
4.54726e-05
-2.73576e-06
5.06321e-05
-3.36676e-06
5.64138e-05
-4.05005e-06
6.29173e-05
-4.75991e-06
7.02649e-05
-5.45619e-06
7.73633e-05
-6.08833e-06
7.79317e-05
-6.62341e-06
7.86408e-05
-7.0239e-06
7.94946e-05
-7.25652e-06
8.04804e-05
-7.2976e-06
8.15895e-05
-7.13285e-06
8.27968e-05
-6.76005e-06
8.86545e-05
-6.13447e-06
7.84283e-05
-5.46425e-06
6.93577e-05
-4.78139e-06
6.1302e-05
-4.11043e-06
5.41101e-05
-3.46983e-06
4.77354e-05
-2.87184e-06
4.20731e-05
-2.87384e-06
3.7123e-05
-2.24727e-06
3.26331e-05
-1.68688e-06
2.86104e-05
-1.19114e-06
2.49529e-05
-7.61137e-07
2.16295e-05
-4.04699e-07
1.82799e-05
-1.44653e-07
1.39167e-05
1.74042e-05
-1.89838e-08
2.78193e-05
2.69614e-08
2.85555e-05
3.95295e-08
2.93119e-05
1.81894e-08
-1.04556e-07
1.9363e-05
-2.30915e-07
2.1545e-05
-4.02249e-07
2.39679e-05
-6.24482e-07
2.66612e-05
-9.04354e-07
2.96591e-05
-1.24852e-06
3.29944e-05
-1.66356e-06
3.67037e-05
-2.15363e-06
4.08401e-05
-2.72051e-06
4.54573e-05
-3.36022e-06
5.06256e-05
-4.06348e-06
5.64272e-05
-4.8107e-06
6.29681e-05
-5.56961e-06
7.03783e-05
-6.29513e-06
7.75701e-05
-6.92974e-06
7.8238e-05
-7.44113e-06
7.9058e-05
-7.79165e-06
8.00297e-05
-7.95241e-06
8.11353e-05
-7.90372e-06
8.23604e-05
-7.63828e-06
8.3675e-05
-7.16108e-06
8.96811e-05
-6.43091e-06
7.9395e-05
-5.67261e-06
7.02489e-05
-4.91928e-06
6.21109e-05
-4.19447e-06
5.48348e-05
-3.51486e-06
4.83785e-05
-3.57447e-06
4.27738e-05
-2.85793e-06
3.77337e-05
-2.21689e-06
3.31631e-05
-1.65254e-06
2.90718e-05
-1.16031e-06
2.53521e-05
-7.3938e-07
2.19642e-05
-3.94048e-07
1.85292e-05
-1.4273e-07
1.40594e-05
1.74052e-05
-1.05544e-07
2.78211e-05
-2.07725e-08
2.85588e-05
2.3653e-08
2.93152e-05
3.61673e-08
3.00898e-05
1.64177e-08
-2.30471e-07
1.93625e-05
-3.99655e-07
2.15424e-05
-6.18961e-07
2.39623e-05
-8.95161e-07
2.6652e-05
-1.23508e-06
2.96456e-05
-1.64576e-06
3.29766e-05
-2.13223e-06
3.66823e-05
-2.69777e-06
4.08174e-05
-3.34081e-06
4.54379e-05
-4.05567e-06
5.06178e-05
-4.82787e-06
5.64444e-05
-5.63189e-06
6.30304e-05
-6.43095e-06
7.05141e-05
-7.17249e-06
7.78129e-05
-7.79435e-06
7.85912e-05
-8.26491e-06
7.95313e-05
-8.55013e-06
8.06274e-05
-8.62447e-06
8.1856e-05
-8.47505e-06
8.31972e-05
-8.10198e-06
8.46159e-05
-7.51726e-06
9.07674e-05
-6.68402e-06
8.04064e-05
-5.84227e-06
7.11719e-05
-5.02416e-06
6.29405e-05
-4.25153e-06
5.55714e-05
-4.3765e-06
4.91805e-05
-3.55531e-06
4.34712e-05
-2.81887e-06
3.83356e-05
-2.17072e-06
3.36813e-05
-1.60772e-06
2.95192e-05
-1.12314e-06
2.57359e-05
-7.13754e-07
2.22839e-05
-3.80901e-07
1.87674e-05
-1.39289e-07
1.41987e-05
1.74045e-05
-2.29796e-07
2.78194e-05
-1.03904e-07
2.85603e-05
-2.227e-08
2.93183e-05
2.05736e-08
3.0093e-05
3.29592e-08
3.08897e-05
1.47503e-08
-3.96869e-07
1.93597e-05
-6.13256e-07
2.15367e-05
-8.85692e-07
2.39529e-05
-1.22108e-06
2.6638e-05
-1.62672e-06
2.96266e-05
-2.10825e-06
3.29526e-05
-2.67007e-06
3.66546e-05
-3.31243e-06
4.0789e-05
-4.03252e-06
4.54148e-05
-4.81997e-06
5.06099e-05
-5.65494e-06
5.64674e-05
-6.50793e-06
6.31074e-05
-7.33498e-06
7.06766e-05
-8.07799e-06
7.80965e-05
-8.6696e-06
7.89959e-05
-9.08309e-06
8.00642e-05
-9.28694e-06
8.12899e-05
-9.26206e-06
8.2643e-05
-9.003e-06
8.40982e-05
-8.51725e-06
8.56159e-05
-7.82452e-06
9.19079e-05
-6.89228e-06
8.14564e-05
-5.97272e-06
7.21204e-05
-5.09632e-06
6.37853e-05
-5.29666e-06
5.64916e-05
-4.35451e-06
4.99797e-05
-3.50687e-06
4.41592e-05
-2.75952e-06
3.89244e-05
-2.11077e-06
3.41844e-05
-1.55425e-06
2.99503e-05
-1.08085e-06
2.6103e-05
-6.8511e-07
2.25881e-05
-3.65843e-07
1.8994e-05
-1.34705e-07
1.43334e-05
1.74017e-05
-3.94004e-07
2.78127e-05
-2.23092e-07
2.85583e-05
-1.01856e-07
2.93195e-05
-2.34628e-08
3.00958e-05
1.7727e-08
3.08927e-05
2.99099e-08
3.17096e-05
1.3186e-08
-6.07535e-07
1.9354e-05
-8.7622e-07
2.15272e-05
-1.20696e-06
2.39387e-05
-1.60718e-06
2.66185e-05
-2.08291e-06
2.96013e-05
-2.63935e-06
3.29219e-05
-3.27814e-06
3.66203e-05
-3.99865e-06
4.07552e-05
-4.79385e-06
4.53886e-05
-5.64856e-06
5.06035e-05
-6.5395e-06
5.6499e-05
-7.43038e-06
6.32028e-05
-8.27181e-06
7.08704e-05
-8.99923e-06
7.84261e-05
-9.5437e-06
7.94566e-05
-9.88271e-06
8.066e-05
-9.99064e-06
8.20185e-05
-9.85566e-06
8.34957e-05
-9.47988e-06
8.50608e-05
-8.87906e-06
8.66704e-05
-8.08045e-06
9.30961e-05
-7.05459e-06
8.25383e-05
-6.06408e-06
7.30882e-05
-6.3538e-06
6.48425e-05
-5.27286e-06
5.74099e-05
-4.29629e-06
5.07691e-05
-3.43303e-06
4.48327e-05
-2.68277e-06
3.94964e-05
-2.03962e-06
3.46698e-05
-1.49404e-06
3.03635e-05
-1.03476e-06
2.64526e-05
-6.5429e-07
2.28765e-05
-3.4943e-07
1.92087e-05
-1.29308e-07
1.44627e-05
1.7396e-05
-6.01921e-07
2.77992e-05
-3.80467e-07
2.8551e-05
-2.15865e-07
2.93171e-05
-9.94172e-08
3.00967e-05
-2.43494e-08
3.08953e-05
1.51118e-08
3.17125e-05
2.70229e-08
3.25535e-05
1.17266e-08
-8.66941e-07
1.93447e-05
-1.19303e-06
2.15133e-05
-1.58767e-06
2.39192e-05
-2.05712e-06
2.65927e-05
-2.60708e-06
2.9569e-05
-3.24026e-06
3.2884e-05
-3.95769e-06
3.65793e-05
-4.75496e-06
4.07163e-05
-5.62069e-06
4.53608e-05
-6.5368e-06
5.06008e-05
-7.47368e-06
5.65423e-05
-8.38987e-06
6.33208e-05
-9.22937e-06
7.11006e-05
-9.92446e-06
7.88069e-05
-1.04033e-05
7.99771e-05
-1.06517e-05
8.1321e-05
-1.06508e-05
8.28137e-05
-1.03965e-05
8.44123e-05
-9.89966e-06
8.60814e-05
-9.18421e-06
8.77742e-05
-8.28331e-06
9.43248e-05
-7.17078e-06
8.3645e-05
-7.56756e-06
7.4302e-05
-6.32995e-06
6.58996e-05
-5.20478e-06
5.83184e-05
-4.20673e-06
5.15428e-05
-3.33763e-06
4.54875e-05
-2.59197e-06
4.00488e-05
-1.95983e-06
3.51355e-05
-1.42893e-06
3.07577e-05
-9.86073e-07
2.67844e-05
-6.22083e-07
2.31492e-05
-3.32175e-07
1.94116e-05
-1.23359e-07
1.45861e-05
1.73871e-05
-8.5799e-07
2.77768e-05
-5.79539e-07
2.85368e-05
-3.66213e-07
2.93093e-05
-2.08059e-07
3.00939e-05
-9.65558e-08
3.08959e-05
-2.493e-08
3.17148e-05
1.27277e-08
3.25562e-05
2.42958e-08
3.34194e-05
1.03687e-08
-1.17954e-06
1.93312e-05
-1.56859e-06
2.14942e-05
-2.03151e-06
2.38936e-05
-2.57436e-06
2.65599e-05
-3.20056e-06
2.95293e-05
-3.91241e-06
3.28388e-05
-4.70755e-06
3.65319e-05
-5.57765e-06
4.06732e-05
-6.50889e-06
4.53329e-05
-7.47736e-06
5.06045e-05
-8.44865e-06
5.66011e-05
-9.37475e-06
6.34662e-05
-1.01961e-05
7.13723e-05
-1.08402e-05
7.92437e-05
-1.12358e-05
8.05613e-05
-1.13788e-05
8.2049e-05
-1.12579e-05
8.3675e-05
-1.08777e-05
8.53904e-05
-1.02582e-05
8.71554e-05
-9.43025e-06
8.89211e-05
-8.43255e-06
9.55866e-05
-8.95985e-06
8.50373e-05
-7.54661e-06
7.55186e-05
-6.25242e-06
6.69472e-05
-5.09842e-06
5.92101e-05
-4.09073e-06
5.22959e-05
-3.22486e-06
4.61204e-05
-2.49038e-06
4.05793e-05
-1.87385e-06
3.55805e-05
-1.36058e-06
3.11322e-05
-9.35867e-07
2.70982e-05
-5.89208e-07
2.34062e-05
-3.1447e-07
1.96027e-05
-1.17089e-07
1.47031e-05
1.73742e-05
-1.16663e-06
2.77432e-05
-8.24397e-07
2.85135e-05
-5.56272e-07
2.92943e-05
-3.51288e-07
3.00856e-05
-1.9976e-07
3.08927e-05
-9.32976e-08
3.17151e-05
-2.52016e-08
3.25583e-05
1.05746e-08
3.34219e-05
2.1732e-08
3.43053e-05
9.11119e-09
-1.5502e-06
1.93129e-05
-2.00656e-06
2.14693e-05
-2.54198e-06
2.38612e-05
-3.16035e-06
2.65197e-05
-3.86493e-06
2.94818e-05
-4.65491e-06
3.27861e-05
-5.52437e-06
3.64787e-05
-6.463e-06
4.06273e-05
-7.45164e-06
4.53071e-05
-8.46198e-06
5.06178e-05
-9.45328e-06
5.66796e-05
-1.03739e-05
6.3644e-05
-1.11587e-05
7.16908e-05
-1.17335e-05
7.97414e-05
-1.20295e-05
8.12119e-05
-1.20536e-05
8.28448e-05
-1.18037e-05
8.46009e-05
-1.12941e-05
8.64263e-05
-1.05524e-05
8.82776e-05
-9.61607e-06
9.01046e-05
-1.05544e-05
9.71811e-05
-8.94714e-06
8.64378e-05
-7.46113e-06
7.67273e-05
-6.12847e-06
6.79773e-05
-4.9598e-06
6.00792e-05
-3.95344e-06
5.30245e-05
-3.09878e-06
4.67288e-05
-2.38108e-06
4.10865e-05
-1.78383e-06
3.60037e-05
-1.29045e-06
3.14868e-05
-8.85129e-07
2.73941e-05
-5.56184e-07
2.36479e-05
-2.96682e-07
1.97823e-05
-1.10676e-07
1.48138e-05
1.73567e-05
-1.53268e-06
2.7696e-05
-1.11941e-06
2.84788e-05
-7.89706e-07
2.92701e-05
-5.32066e-07
3.00699e-05
-3.35635e-07
3.08838e-05
-1.90919e-07
3.17114e-05
-8.96341e-08
3.25583e-05
-2.51718e-08
3.34239e-05
8.6461e-09
3.43077e-05
1.93296e-08
3.52192e-05
7.95268e-09
-1.98259e-06
1.92889e-05
-2.51048e-06
2.14378e-05
-3.12059e-06
2.38215e-05
-3.81681e-06
2.64716e-05
-4.59952e-06
2.94264e-05
-5.46471e-06
3.27265e-05
-6.40486e-06
3.64205e-05
-7.40475e-06
4.05804e-05
-8.44127e-06
4.52864e-05
-9.4801e-06
5.06447e-05
-1.04769e-05
5.67826e-05
-1.13741e-05
6.38594e-05
-1.2104e-05
7.20613e-05
-1.25921e-05
8.0304e-05
-1.27728e-05
8.19312e-05
-1.2667e-05
8.37081e-05
-1.22823e-05
8.55891e-05
-1.16417e-05
8.75156e-05
-1.07804e-05
8.94419e-05
-1.2058e-05
9.16082e-05
-1.05589e-05
9.87929e-05
-8.85749e-06
8.78342e-05
-7.31977e-06
7.79186e-05
-5.96537e-06
6.89828e-05
-4.79519e-06
6.09209e-05
-3.79981e-06
5.37255e-05
-2.96319e-06
4.73109e-05
-2.26677e-06
4.15695e-05
-1.69166e-06
3.64049e-05
-1.21987e-06
3.18215e-05
-8.34555e-07
2.76725e-05
-5.23516e-07
2.38747e-05
-2.79087e-07
1.99507e-05
-1.04248e-07
1.49181e-05
1.73339e-05
-1.95982e-06
2.76321e-05
-1.46879e-06
2.84302e-05
-1.07084e-06
2.92344e-05
-7.53966e-07
3.00448e-05
-5.06995e-07
3.08675e-05
-3.19325e-07
3.17021e-05
-1.81575e-07
3.25543e-05
-8.55813e-08
3.34235e-05
-2.48378e-08
3.43094e-05
6.93967e-09
3.52214e-05
1.7085e-08
3.61551e-05
6.88981e-09
-2.48028e-06
1.92587e-05
-3.08195e-06
2.13991e-05
-3.7692e-06
2.37739e-05
-4.54326e-06
2.64154e-05
-5.4016e-06
2.93633e-05
-6.33891e-06
3.26605e-05
-7.34322e-06
3.6359e-05
-8.39576e-06
4.05349e-05
-9.46778e-06
4.52741e-05
-1.05216e-05
5.06893e-05
-1.15066e-05
5.69152e-05
-1.23624e-05
6.41178e-05
-1.30195e-05
7.24888e-05
-1.3404e-05
8.09351e-05
-1.34561e-05
8.27203e-05
-1.32122e-05
8.46379e-05
-1.26889e-05
8.66363e-05
-1.1918e-05
8.86532e-05
-1.35464e-05
9.09303e-05
-1.20877e-05
9.3137e-05
-1.04718e-05
0.000100407
-8.70076e-06
8.92152e-05
-7.13123e-06
7.90845e-05
-5.7707e-06
6.99583e-05
-4.61059e-06
6.17317e-05
-3.63447e-06
5.43968e-05
-2.82141e-06
4.78656e-05
-2.14983e-06
4.20277e-05
-1.59902e-06
3.67841e-05
-1.14973e-06
3.21367e-05
-7.84822e-07
2.79338e-05
-4.9158e-07
2.40872e-05
-2.61877e-07
2.01083e-05
-9.79104e-08
1.5016e-05
1.73052e-05
-2.45161e-06
2.75483e-05
-1.87607e-06
2.83646e-05
-1.40313e-06
2.91842e-05
-1.02069e-06
3.00079e-05
-7.17002e-07
3.08416e-05
-4.81054e-07
3.16852e-05
-3.02389e-07
3.25444e-05
-1.71741e-07
3.34191e-05
-8.11476e-08
3.43087e-05
-2.42036e-08
3.52229e-05
5.44815e-09
3.61572e-05
1.49933e-08
3.6589e-05
5.93247e-09
-3.04491e-06
1.92216e-05
-3.72291e-06
2.13529e-05
-4.4875e-06
2.37181e-05
-5.33723e-06
2.6351e-05
-6.26858e-06
2.9293e-05
-7.27217e-06
3.25895e-05
-8.33284e-06
3.62961e-05
-9.4266e-06
4.04937e-05
-1.05216e-05
4.52741e-05
-1.15739e-05
5.07566e-05
-1.25299e-05
5.70827e-05
-1.33262e-05
6.44245e-05
-1.38929e-05
7.29777e-05
-1.41585e-05
8.16376e-05
-1.40716e-05
8.35797e-05
-1.36832e-05
8.56322e-05
-1.30201e-05
8.77384e-05
-1.50114e-05
9.01182e-05
-1.36113e-05
9.24539e-05
-1.20118e-05
9.4677e-05
-1.03042e-05
0.000102011
-8.48695e-06
9.05709e-05
-6.90442e-06
8.02182e-05
-5.55169e-06
7.08994e-05
-4.41162e-06
6.25089e-05
-3.46146e-06
5.50369e-05
-2.67636e-06
4.83921e-05
-2.03234e-06
4.2461e-05
-1.50708e-06
3.71414e-05
-1.08092e-06
3.24328e-05
-7.36428e-07
2.81787e-05
-4.6062e-07
2.4286e-05
-2.45214e-07
2.02556e-05
-9.17449e-08
1.51077e-05
1.72701e-05
-3.00976e-06
2.74413e-05
-2.34456e-06
2.82791e-05
-1.79057e-06
2.9117e-05
-1.33591e-06
2.99565e-05
-9.69299e-07
3.08037e-05
-6.79094e-07
3.16584e-05
-4.54301e-07
3.25268e-05
-2.84804e-07
3.34088e-05
-1.61443e-07
3.43039e-05
-7.63527e-08
3.5222e-05
-2.32679e-08
3.61584e-05
4.1684e-09
3.65909e-05
1.30708e-08
3.55528e-05
5.10425e-09
-3.67851e-06
1.91772e-05
-4.4332e-06
2.12986e-05
-5.27324e-06
2.36541e-05
-6.19645e-06
2.62789e-05
-7.19555e-06
2.92164e-05
-8.25835e-06
3.2515e-05
-9.36485e-06
3.62343e-05
-1.04882e-05
4.04604e-05
-1.15907e-05
4.52909e-05
-1.26249e-05
5.08516e-05
-1.35339e-05
5.72904e-05
-1.42529e-05
6.47845e-05
-1.47128e-05
7.35319e-05
-1.48473e-05
8.24133e-05
-1.46124e-05
8.45089e-05
-1.40762e-05
8.66882e-05
-1.64429e-05
8.917e-05
-1.51231e-05
9.163e-05
-1.3557e-05
9.39992e-05
-1.18426e-05
9.62154e-05
-1.00678e-05
0.000103592
-8.22649e-06
9.18929e-05
-6.64777e-06
8.13143e-05
-5.31506e-06
7.18029e-05
-4.20317e-06
6.32506e-05
-3.28435e-06
5.56449e-05
-2.53061e-06
4.88904e-05
-1.91576e-06
4.28696e-05
-1.41695e-06
3.74775e-05
-1.01409e-06
3.27104e-05
-6.89681e-07
2.84077e-05
-4.30845e-07
2.44716e-05
-2.29222e-07
2.03931e-05
-8.58061e-08
1.51935e-05
1.72279e-05
-3.63636e-06
2.73081e-05
-2.87659e-06
2.81701e-05
-2.23558e-06
2.90293e-05
-1.70287e-06
2.98877e-05
-1.26711e-06
3.0751e-05
-9.16612e-07
3.16195e-05
-6.40174e-07
3.24994e-05
-4.26856e-07
3.33907e-05
-2.66692e-07
3.42932e-05
-1.50735e-07
3.52168e-05
-7.12247e-08
3.61572e-05
-2.20586e-08
3.65919e-05
3.10829e-09
3.55545e-05
1.13633e-08
3.45447e-05
4.38514e-09
-4.38105e-06
1.91251e-05
-5.21079e-06
2.12361e-05