/*--------------------------------*- C++ -*----------------------------------*\
  =========                 |
  \\      /  F ield         | OpenFOAM: The Open Source CFD Toolbox
   \\    /   O peration     | Website:  https://openfoam.org
    \\  /    A nd           | Version:  8
     \\/     M anipulation  |
\*---------------------------------------------------------------------------*/
FoamFile
{
    version     2.0;
    format      ascii;
    class       volScalarField;
    location    "0.49";
    object      epsilon;
}
// * * * * * * * * * * * * * * * * * * * * * * * * * * * * * * * * * * * * * //

dimensions      [0 2 -3 0 0 0 0];

internalField   nonuniform List<scalar> 
15677
(
59.6992
18.3521
52.6108
8.08724
25.8856
50.1623
4.62706
13.2604
31.572
50.4834
3.17777
7.72189
17.0771
37.2629
51.6017
2.48947
5.04198
10.0225
20.8057
42.6396
53.662
2.1457
3.62221
6.45989
12.1573
24.5359
47.6595
55.7278
1.97985
2.8206
4.52326
7.72093
14.2704
28.2499
52.0248
57.6673
1.91169
2.35285
3.40076
5.30789
8.91214
16.42
31.7555
55.713
59.3658
1.88416
2.08022
2.72267
3.90757
6.01914
10.1025
18.5334
34.9596
58.7351
60.8669
1.87055
1.93937
2.3068
3.05442
4.35611
6.70473
11.2713
20.5694
37.7847
61.2123
62.1315
1.86765
1.8783
2.05631
2.52042
3.34678
4.77451
7.36169
12.4173
22.4647
40.251
63.2046
63.2412
1.86863
1.84885
1.91651
2.18568
2.7117
3.61389
5.16436
8.00043
13.5079
24.2128
42.35
64.8274
64.1667
1.86953
1.8387
1.85191
1.98246
2.3064
2.88551
3.85747
5.53541
8.60661
14.5416
25.7799
44.1404
66.1289
64.9934
1.86977
1.83698
1.82113
1.86769
2.05113
2.4176
3.04239
4.08428
5.88254
9.18334
15.4949
27.1818
45.6358
67.1837
65.7146
1.86977
1.83724
1.81051
1.81332
1.89807
2.11717
2.51836
3.18618
4.29303
6.20933
9.71837
16.3727
28.405
46.8905
68.0431
66.3513
1.86973
1.8375
1.80821
1.78977
1.81537
1.93016
2.17853
2.61022
3.31687
4.48642
6.51053
10.2145
17.1593
29.4694
47.9336
68.7408
66.9352
1.86971
1.83761
1.80791
1.78275
1.7757
1.82142
1.96224
2.23506
2.69327
3.43615
4.66277
6.78779
10.6631
17.862
30.3766
48.787
69.3387
67.431
1.8697
1.83762
1.80793
1.78103
1.76146
1.7661
1.83168
1.99303
2.28643
2.76834
3.54381
4.82304
7.03767
11.0674
18.473
31.1407
49.493
69.8122
67.9339
1.8697
1.83762
1.80795
1.7807
1.75698
1.74389
1.76034
1.84308
2.02166
2.33284
2.83563
3.64041
4.96627
7.26139
11.4217
18.9996
31.7741
50.0462
70.2582
68.325
1.8697
1.83761
1.80794
1.78066
1.75572
1.73586
1.72948
1.75735
1.85453
2.0479
2.37439
2.89547
3.72603
5.09286
7.45707
11.7288
19.44
32.2838
50.5073
70.5909
68.7915
1.8697
1.8376
1.80793
1.78064
1.75541
1.73315
1.71727
1.71794
1.75583
1.86574
2.07164
2.41125
2.9482
3.80082
5.20289
7.62529
11.9866
19.8016
32.6901
50.8439
70.9607
69.1019
1.8697
1.83759
1.80792
1.78062
1.75533
1.7323
1.71266
1.70122
1.70839
1.75575
1.87625
2.09283
2.44369
2.99397
3.86543
5.29621
7.76649
12.1982
20.0873
32.996
51.1304
71.2098
69.5643
1.8697
1.83758
1.80791
1.78059
1.7553
1.73204
1.71106
1.69438
1.68717
1.70075
1.75607
1.88592
2.11163
2.47191
3.03344
3.91986
5.37435
7.88066
12.365
20.3042
33.2214
51.3227
71.5605
69.8153
1.8697
1.83758
1.8079
1.78056
1.75526
1.73194
1.71052
1.69174
1.67794
1.67513
1.69443
1.75685
1.8948
2.12825
2.49643
3.06687
3.9654
5.4367
7.97107
12.4896
20.4602
33.3753
51.4854
71.7646
70.2784
1.8697
1.83757
1.80789
1.78054
1.75524
1.73187
1.71033
1.69076
1.67417
1.66343
1.66467
1.68938
1.75819
1.90305
2.14302
2.5176
3.09515
4.00221
5.48656
8.03708
12.5788
20.5587
33.4641
51.6031
72.1596
70.5201
1.8697
1.83757
1.80789
1.78053
1.75521
1.73182
1.71024
1.69038
1.67269
1.65834
1.65056
1.65597
1.68549
1.76002
1.91085
2.15638
2.53621
3.11902
4.03221
5.52296
8.08474
12.6307
20.6169
33.5164
51.681
72.4554
428.821
1.86971
1.83757
1.80788
1.78052
1.75519
1.73178
1.71017
1.69019
1.67211
1.65619
1.6442
1.63956
1.64857
1.68283
1.76259
1.91875
2.16896
2.55291
3.13935
4.05567
5.55021
8.11193
12.6606
20.6246
33.5153
51.805
88.7843
716.357
1.86971
1.83756
1.80788
1.78051
1.75517
1.73174
1.71012
1.69008
1.67185
1.65528
1.64144
1.6318
1.63008
1.64336
1.68198
1.76636
1.92713
2.1814
2.56857
3.15744
4.07508
5.56842
8.12914
12.6586
20.6133
33.5205
52.7294
122.112
996.171
1.86971
1.83756
1.80788
1.7805
1.75516
1.73171
1.71007
1.69
1.6717
1.65486
1.64025
1.62825
1.6212
1.62294
1.63923
1.68294
1.77163
1.93678
2.19458
2.58445
3.17454
4.09154
5.58142
8.12983
12.6481
20.5873
33.5499
55.2899
157.643
1243.29
1.86971
1.83756
1.80788
1.78049
1.75515
1.73169
1.71003
1.68994
1.67159
1.65463
1.6397
1.62663
1.61708
1.61273
1.61734
1.63908
1.68582
1.77913
1.94839
2.20954
2.60135
3.19189
4.10651
5.58982
8.12717
12.6264
20.5534
33.6542
59.8636
190.203
1470.41
1.86971
1.83756
1.80788
1.78048
1.75514
1.73167
1.71
1.68989
1.6715
1.65448
1.63939
1.62586
1.61518
1.60778
1.60645
1.61539
1.64075
1.69167
1.78962
1.96296
2.22702
2.62057
3.21053
4.12182
5.59666
8.12111
12.5993
20.5133
33.9149
64.593
221.061
1662.41
1.86971
1.83756
1.80788
1.78048
1.75514
1.73166
1.70997
1.68984
1.67142
1.65436
1.63919
1.62544
1.61424
1.60541
1.60115
1.6032
1.61667
1.64533
1.70147
1.80406
1.9813
2.24834
2.64303
3.23214
4.13878
5.6046
8.11384
12.5702
20.4695
34.3891
69.4002
248.174
1807.72
1.86971
1.83755
1.80788
1.78047
1.75513
1.73164
1.70995
1.68981
1.67136
1.65427
1.63903
1.62519
1.61372
1.60424
1.59857
1.59714
1.60425
1.6208
1.65439
1.71599
1.82329
2.00463
2.27431
2.67018
3.25757
4.15935
5.61531
8.1084
12.5395
20.4286
34.9554
73.7674
269.209
1919.93
1.86971
1.83755
1.80788
1.78047
1.75512
1.73163
1.70993
1.68977
1.6713
1.6542
1.6389
1.625
1.61339
1.60361
1.59726
1.59418
1.59808
1.60818
1.62934
1.66912
1.73613
1.84856
2.0338
2.30629
2.70267
3.2884
4.18461
5.63042
8.10554
12.507
20.3976
35.5032
77.1532
285.827
2009.56
1.83755
1.86975
1.80788
1.78047
1.75512
1.73162
1.70992
1.68975
1.67126
1.65413
1.63879
1.62485
1.61313
1.60322
1.59654
1.59269
1.59507
1.60195
1.61655
1.64435
1.69014
1.76316
1.88071
2.0701
2.34488
2.74199
3.3253
4.21575
5.65029
8.10631
12.4721
20.3614
35.9245
79.7545
299.303
2083.9
1.80788
1.83765
1.86982
1.78046
1.75512
1.73161
1.70991
1.68972
1.67122
1.65407
1.63869
1.62472
1.61292
1.60295
1.59607
1.59192
1.5936
1.59899
1.61038
1.632
1.66624
1.71869
1.79801
1.92115
2.11426
2.39152
2.78846
3.36933
4.25297
5.67534
8.11006
12.4336
20.3178
36.2144
81.7533
310.663
2147.93
1.78046
1.80804
1.83785
1.86989
1.75511
1.73161
1.70989
1.6897
1.67119
1.65402
1.63861
1.62461
1.61275
1.60273
1.59573
1.59146
1.59285
1.59762
1.60764
1.62633
1.65479
1.69637
1.75594
1.84199
1.97044
2.16738
2.4463
2.84327
3.42052
4.29651
5.70926
8.11878
12.399
20.2602
36.404
83.3285
320.54
2204.67
1.75511
1.78067
1.80835
1.83805
1.86997
1.7316
1.70988
1.68968
1.67116
1.65398
1.63855
1.62452
1.6126
1.60255
1.59545
1.59114
1.59243
1.59701
1.60655
1.6241
1.65008
1.68653
1.73606
1.80347
1.89616
2.03012
2.22984
2.51075
2.90615
3.47905
4.35206
5.75417
8.13474
12.3663
20.1945
36.5039
84.5991
329.415
2256.27
1.73159
1.75537
1.78109
1.80868
1.83827
1.87004
1.70988
1.68967
1.67114
1.65394
1.63849
1.62444
1.61247
1.60239
1.59522
1.59089
1.59216
1.59672
1.60623
1.62359
1.64891
1.6836
1.72883
1.78721
1.86248
1.96219
2.1007
2.30277
2.58382
2.9775
3.55232
4.42234
5.80677
8.15585
12.3378
20.1199
36.5587
85.6677
337.536
2303.76
1.70987
1.73188
1.75588
1.78152
1.80902
1.83848
1.87012
1.68965
1.67112
1.6539
1.63844
1.62436
1.61237
1.60226
1.59502
1.5907
1.59196
1.59657
1.60623
1.62386
1.64937
1.68394
1.7281
1.7835
1.85141
1.93518
2.04102
2.18371
2.38612
2.66666
3.06597
3.64335
4.50118
5.86592
8.18227
12.3123
20.0441
36.5578
86.5879
345.129
2348.17
1.68964
1.7102
1.73248
1.75641
1.78196
1.80936
1.83871
1.8702
1.6711
1.65387
1.6384
1.62429
1.61228
1.60215
1.59485
1.59054
1.5918
1.59649
1.60635
1.62442
1.65065
1.68612
1.73089
1.78611
1.85183
1.93011
2.0225
2.13464
2.27929
2.48129
2.76836
3.17493
3.74396
4.58693
5.93047
8.21289
12.2915
19.9668
36.5463
87.4167
352.249
2389.71
1.67109
1.69
1.71087
1.7331
1.75696
1.78242
1.80972
1.83893
1.87028
1.65385
1.63836
1.62424
1.6122
1.60204
1.5947
1.5904
1.59168
1.59644
1.60652
1.62506
1.65217
1.68912
1.73564
1.79261
1.8594
1.93677
2.02447
2.12565
2.24349
2.38921
2.59929
2.89536
3.29392
3.85158
4.67846
5.99911
8.24746
12.2745
19.893
36.5219
88.1663
359.04
2429
1.65383
1.67147
1.69074
1.71156
1.73373
1.75752
1.78289
1.81008
1.83917
1.87037
1.63833
1.62418
1.61214
1.60195
1.59458
1.59029
1.59157
1.59641
1.6067
1.62571
1.6537
1.69226
1.7412
1.80128
1.87114
1.95124
2.03974
2.13762
2.24491
2.36779
2.52745
2.74841
3.03576
3.42193
3.96465
4.77402
6.07086
8.28497
12.2617
19.824
36.4867
88.875
365.452
2465.88
1.63831
1.65422
1.67226
1.69149
1.71228
1.73438
1.75809
1.78337
1.81045
1.83941
1.87046
1.62414
1.61209
1.60186
1.59447
1.59019
1.59149
1.5964
1.60688
1.62633
1.65519
1.69531
1.74678
1.81086
1.8854
1.97046
2.06349
2.16428
2.27013
2.38344
2.52269
2.70043
2.9144
3.18781
3.558
4.08288
4.87242
6.14461
8.32482
12.2526
19.7603
36.453
89.5336
371.626
2500.89
1.6241
1.63871
1.65505
1.67307
1.69228
1.71301
1.73505
1.75868
1.78387
1.81083
1.83966
1.87055
1.61204
1.60177
1.59439
1.5901
1.59141
1.5964
1.60706
1.62691
1.6566
1.69819
1.75214
1.82033
1.90071
1.99289
2.09294
2.20073
2.31146
2.42549
2.55863
2.71948
2.8919
3.09614
3.35147
3.7008
4.20442
4.97242
6.21947
8.36622
12.2469
19.7026
36.4197
90.1753
377.443
2533.68
1.61201
1.62449
1.63956
1.6559
1.67391
1.69308
1.71376
1.73574
1.75929
1.78438
1.81123
1.83991
1.87064
1.6017
1.59433
1.59002
1.59135
1.5964
1.60723
1.62745
1.65791
1.70087
1.75721
1.8294
1.91576
2.01682
2.12671
2.24446
2.36454
2.4861
2.62387
2.78408
2.94146
3.10045
3.28821
3.52367
3.84818
4.32826
5.07308
6.29452
8.4086
12.2444
19.6511
36.393
90.7765
383.072
2564.84
1.60163
1.61238
1.62532
1.64043
1.65678
1.67477
1.69391
1.71453
1.73645
1.75991
1.78491
1.81163
1.84018
1.87073
1.59427
1.58994
1.59129
1.5964
1.60739
1.62794
1.65912
1.70334
1.76196
1.83795
1.93021
2.0405
2.16271
2.29442
2.42737
2.56164
2.71163
2.88288
3.04167
3.1876
3.32574
3.48942
3.7031
3.99975
4.4533
5.17333
6.36907
8.45134
12.2451
19.6057
36.37
91.3722
388.341
2593.9
1.59425
1.60193
1.61319
1.62618
1.64134
1.65769
1.67565
1.69476
1.71533
1.73718
1.76055
1.78545
1.81204
1.84043
1.87082
1.58986
1.59123
1.5964
1.60754
1.6284
1.66023
1.70562
1.76638
1.84594
1.94394
2.06342
2.19848
2.34811
2.49942
2.65094
2.81944
3.01103
3.18358
3.33158
3.45679
3.56586
3.69775
3.88506
4.15347
4.57825
5.27252
6.44247
8.49407
12.2472
19.5656
36.3552
91.9292
393.461
2621.53
1.58979
1.59452
1.60259
1.61402
1.62707
1.64227
1.65863
1.67656
1.69564
1.71614
1.73793
1.76121
1.786
1.81245
1.84069
1.8709
1.59117
1.5964
1.60767
1.62882
1.66125
1.7077
1.77047
1.85336
1.95691
2.08532
2.23327
2.40223
2.57776
2.75437
2.94755
3.16843
3.36541
3.52827
3.65395
3.74778
3.81867
3.9122
4.06764
4.30747
4.70209
5.36968
6.51418
8.53629
12.2513
19.5309
36.3443
92.486
398.213
2647.14
1.59116
1.58981
1.5951
1.60327
1.61489
1.62801
1.64323
1.6596
1.6775
1.69655
1.71698
1.7387
1.76188
1.78654
1.81285
1.84093
1.87098
1.59639
1.60779
1.6292
1.66218
1.7096
1.77423
1.86021
1.96909
2.10606
2.26683
2.45577
2.65759
2.86845
3.09819
3.35856
3.59138
3.78112
3.91989
4.00913
4.05922
4.08209
4.13088
4.2496
4.45994
4.82346
5.46442
6.5838
8.5777
12.2573
19.5007
36.3409
93.0029
402.848
2671.54
1.59643
1.59105
1.58985
1.59568
1.604
1.61579
1.62898
1.64422
1.66061
1.67846
1.69748
1.71784
1.73949
1.76255
1.78707
1.81323
1.84117
1.87106
1.60789
1.62953
1.66302
1.71134
1.77768
1.86651
1.98047
2.12553
2.29901
2.50812
2.73709
2.98674
3.2682
3.58815
3.87129
4.10258
4.26751
4.36312
4.39805
4.3899
4.35418
4.35187
4.42981
4.61028
4.94252
5.55634
6.65105
8.61805
12.2646
19.475
36.3424
93.5224
407.11
2694.02
1.60805
1.5961
1.59076
1.58986
1.59632
1.6048
1.61672
1.63
1.64524
1.66164
1.67946
1.69844
1.71873
1.74027
1.76319
1.78759
1.81361
1.8414
1.87114
1.62982
1.66376
1.71292
1.78083
1.87231
1.99103
2.14371
2.32969
2.55874
2.81537
3.10741
3.44938
3.85567
4.22144
4.51619
4.72568
4.83954
4.86494
4.82243
4.73896
4.63323
4.57349
4.60704
4.75581
5.05838
5.64507
6.71569
8.65715
12.2728
19.4529
36.3472
93.9999
411.288
2715.45
1.63018
1.60738
1.5952
1.59042
1.59001
1.59697
1.60566
1.61767
1.63106
1.64628
1.66271
1.68048
1.69942
1.7196
1.74103
1.76383
1.78809
1.81397
1.84162
1.87122
1.66441
1.71434
1.7837
1.87764
2.0008
2.16063
2.35881
2.60717
2.89192
3.22967
3.63848
4.14936
4.64801
5.06169
5.34716
5.49781
5.51781
5.43423
5.28456
5.10574
4.91772
4.79431
4.78095
4.896
5.17028
5.7303
6.77758
8.69485
12.2817
19.4345
36.3547
94.4814
415.097
2732.68
1.66514
1.62893
1.60548
1.59419
1.59017
1.59033
1.59763
1.60658
1.61865
1.63216
1.64737
1.66381
1.68152
1.70039
1.72046
1.74177
1.76444
1.78858
1.81433
1.84184
1.87129
1.7156
1.78629
1.88251
2.0098
2.17635
2.38628
2.65314
2.96655
3.35244
3.8325
4.46527
5.14281
5.77123
6.21926
6.44142
6.46413
6.32445
6.07955
5.78628
5.48947
5.20626
5.01314
4.95072
5.03064
5.27773
5.8118
6.83661
8.73104
12.2912
19.4187
36.3688
94.9194
418.348
2747.14
1.71692
1.66324
1.62536
1.60344
1.59332
1.58989
1.59082
1.59829
1.60757
1.61967
1.6333
1.64849
1.66494
1.68256
1.70134
1.72129
1.74249
1.76504
1.78905
1.81467
1.84205
1.87136
1.78862
1.88695
2.01808
2.19094
2.41208
2.69656
3.03909
3.47421
4.0287
4.80315
5.71048
6.64795
7.41701
7.82751
7.87716
7.6643
7.27637
6.80622
6.32797
5.88892
5.49747
5.22897
5.11562
5.15957
5.38042
5.88946
6.89275
8.76564
12.3009
19.4058
36.3816
95.3034
421.006
2762.77
1.79094
1.71418
1.6575
1.62159
1.60163
1.59254
1.58959
1.59144
1.59898
1.60862
1.62073
1.63447
1.64964
1.66605
1.68358
1.70226
1.7221
1.74318
1.76562
1.78951
1.81501
1.84225
1.87143
1.89101
2.02567
2.20446
2.4362
2.7375
3.10934
3.59342
4.22566
5.16444
6.35635
7.69882
8.94075
9.77592
9.99714
9.70913
9.12073
8.38009
7.61433
6.90782
6.30218
5.78997
5.44094
5.27514
5.2827
5.47821
5.96319
6.94596
8.79862
12.3109
19.395
36.3982
95.6114
423.96
2779.77
1.89489
1.78716
1.70532
1.6515
1.61817
1.59997
1.59183
1.58934
1.59214
1.59971
1.60971
1.62184
1.63568
1.65079
1.66714
1.68457
1.70315
1.72288
1.74386
1.76618
1.78996
1.81533
1.84245
1.87147
2.03265
2.21696
2.45869
2.77607
3.17703
3.70889
4.42346
5.55034
7.07943
8.91936
10.7816
12.2649
12.9917
12.7966
11.9607
10.8356
9.63075
8.49844
7.52173
6.72667
6.08228
5.64828
5.42887
5.39998
5.57103
6.03299
6.99629
8.82996
12.3209
19.3874
36.41
95.9734
427.115
2798.23
2.03911
1.88982
1.7739
1.69617
1.64599
1.61498
1.59844
1.59118
1.58918
1.5929
1.60051
1.61084
1.62299
1.63687
1.65192
1.6682
1.68554
1.70402
1.72365
1.74452
1.76673
1.79039
1.81565
1.84255
1.87147
2.22859
2.47962
2.81238
3.24183
3.82003
4.62304
5.9603
7.87238
10.2918
12.9151
15.2657
16.8155
17.1637
16.2579
14.6289
12.7944
11.0143
9.44859
8.16381
7.15924
6.37289
5.85033
5.57658
5.51144
5.65889
6.09892
7.04377
8.85967
12.3295
19.3815
36.4289
96.346
430.649
2818.38
2.2391
2.03249
1.87028
1.76034
1.6877
1.64076
1.61197
1.59701
1.59063
1.5891
1.59371
1.60139
1.61199
1.62417
1.63803
1.65302
1.66923
1.68648
1.70487
1.7244
1.74516
1.76726
1.79081
1.8158
1.84255
1.87147
2.49921
2.84658
3.30353
3.92678
4.82558
6.39177
8.72378
11.7915
15.3018
18.7332
21.4259
22.7536
22.3576
20.3854
17.6923
14.9719
12.5108
10.4521
8.82698
7.59635
6.66027
6.04652
5.71809
5.61714
5.74187
6.16104
7.0885
8.88406
12.337
19.3759
36.4459
96.7926
434.419
2840.27
2.51648
2.23045
2.00405
1.85055
1.74775
1.67962
1.63577
1.60914
1.59568
1.59017
1.58914
1.59455
1.60235
1.61314
1.62533
1.63916
1.65411
1.67023
1.6874
1.70569
1.72512
1.74578
1.76778
1.79102
1.8158
1.84255
1.87147
2.87893
3.36209
4.0296
5.03183
6.84052
9.6204
13.3912
17.8952
22.6011
26.7541
29.5146
30.2073
28.6061
25.1598
21.1159
17.3361
14.0974
11.4949
9.50368
8.03442
6.94299
6.23635
5.85329
5.71721
5.82013
6.21955
7.12503
8.90475
12.3456
19.3707
36.4741
97.2497
438.658
2864.18
2.90706
2.5055
2.18916
1.9757
1.83219
1.73568
1.67184
1.63098
1.60647
1.59448
1.58982
1.5893
1.59539
1.60338
1.61425
1.62648
1.64027
1.65516
1.6712
1.68829
1.70649
1.72583
1.74639
1.76804
1.79102
1.8158
1.84255
1.87147
3.41782
4.12938
5.24203
7.30106
10.5485
15.0637
20.6469
26.7906
32.6926
37.3441
39.7486
39.2612
35.9066
30.5405
24.855
19.8519
15.7508
12.5632
10.1865
8.46998
7.21967
6.41939
5.98216
5.81177
5.89366
6.26741
7.15591
8.92739
12.3552
19.3659
36.4993
97.8048
443.193
2890.1
3.46573
2.89291
2.44549
2.14863
1.94926
1.81454
1.724
1.66433
1.6264
1.60399
1.59339
1.58956
1.58969
1.5962
1.60443
1.61533
1.62761
1.64134
1.65619
1.67215
1.68916
1.70726
1.72651
1.74669
1.76804
1.79102
1.8158
1.84255
1.87147
4.22696
5.45435
7.76752
11.4945
16.7825
23.5085
31.2182
39.1096
46.0698
50.83
52.2883
49.9462
44.2182
36.4674
28.8581
22.4832
17.4482
13.6438
10.8687
8.89982
7.48908
6.59534
6.10473
5.90105
5.95338
6.30789
7.18958
8.95218
12.3662
19.3624
36.5413
98.3718
448.313
2918.42
4.31222
3.44793
2.80447
2.38754
2.11078
1.9238
1.79743
1.7127
1.65711
1.62202
1.60173
1.59241
1.5893
1.59029
1.59697
1.60549
1.61639
1.62872
1.64239
1.6572
1.67307
1.69001
1.70802
1.72685
1.74669
1.76804
1.79102
1.8158
1.84255
1.87143
5.66586
8.23574
12.4459
18.5225
26.4336
35.8008
45.8633
55.4745
63.1815
67.4697
67.2198
62.232
53.4625
42.8642
33.0697
25.1944
19.1686
14.7251
11.5441
9.3211
7.75021
6.76397
6.22106
5.97413
6.00368
6.35206
7.22633
8.97937
12.3786
19.3594
36.579
99.0673
453.811
2949
4.28939
5.85181
3.31349
2.72097
2.33337
2.07429
1.89909
1.78084
1.70179
1.65017
1.61783
1.59964
1.59154
1.58901
1.591
1.59775
1.60656
1.61744
1.6298
1.64342
1.65818
1.67397
1.69083
1.70839
1.72685
1.74669
1.76804
1.79102
1.8158
1.84245
1.87136
8.70168
13.3922
20.2612
29.3789
40.4596
52.8146
65.3247
76.4563
84.3971
87.4278
84.5415
76.0249
63.528
49.6429
37.4324
27.9518
20.8932
15.7969
12.2074
9.73144
8.0022
6.92506
6.31665
6.03601
6.05836
6.40023
7.26644
9.00916
12.393
19.3594
36.6408
99.78
460.043
2982.39
4.06951
5.83451
9.11536
3.19087
2.64291
2.28113
2.03886
1.87511
1.76479
1.69129
1.64353
1.61389
1.59776
1.5908
1.58881
1.59176
1.59854
1.6076
1.61847
1.63086
1.64442
1.65913
1.67485
1.69124
1.70839
1.72685
1.74669
1.76804
1.79102
1.81565
1.84225
1.87129
14.3225
21.9797
32.3063
45.1232
59.8353
75.3947
90.282
102.538
109.979
110.757
104.157
91.1721
74.2766
56.7087
41.8903
30.7248
22.6056
16.8506
12.8545
10.1289
8.24431
7.05822
6.39784
6.10362
6.1178
6.45278
7.31023
9.04191
12.4092
19.3607
36.6974
100.659
466.767
3018.21
3.87678
5.44457
9.12862
15.1505
3.07711
2.56767
2.23045
2.00448
1.8519
1.74931
1.6812
1.63722
1.61025
1.59611
1.59019
1.58873
1.59253
1.59935
1.60863
1.6195
1.63189
1.6454
1.66006
1.67528
1.69124
1.70839
1.72685
1.74669
1.76804
1.79081
1.81533
1.84204
1.87122
23.6596
35.185
49.7316
66.8138
85.4843
104.306
121.318
134.088
140.063
137.383
125.877
107.47
85.552
63.9651
46.3908
33.4858
24.2917
17.8792
13.4819
10.5119
8.44539
7.17174
6.48684
6.17755
6.18248
6.5101
7.35807
9.07784
12.4282
19.3642
36.7875
101.568
474.416
3057.29
3.70163
5.10574
8.41386
15.2366
25.1635
2.96786
2.49477
2.18131
1.97119
1.82948
1.73442
1.67157
1.6313
1.60701
1.5947
1.58973
1.58876
1.5933
1.60019
1.60963
1.62051
1.63289
1.64637
1.66052
1.67528
1.69124
1.70839
1.72685
1.74669
1.76778
1.79038
1.815
1.84183
1.87114
37.9857
54.2381
73.661
95.4273
118.224
140.201
158.901
171.346
174.634
167.104
149.427
124.675
97.1899
71.3192
50.8855
36.2105
25.9399
18.877
14.0867
10.8306
8.61735
7.29671
6.5845
6.25843
6.25288
6.57262
7.41033
9.11742
12.4494
19.3731
36.8729
102.69
482.712
3098.76
3.53634
4.79932
7.77861
13.9981
25.431
40.4987
2.86232
2.4242
2.13378
1.93905
1.80792
1.72017
1.66248
1.62593
1.60417
1.59351
1.5894
1.58892
1.59405
1.60106
1.61061
1.6215
1.63388
1.64684
1.66051
1.67528
1.69124
1.70839
1.72685
1.74638
1.76725
1.78994
1.81466
1.84161
1.87106
58.6
80.3124
105.099
131.799
158.741
183.622
203.381
214.402
213.523
199.588
174.458
142.524
109.027
78.6841
55.3315
38.8791
27.5407
19.8395
14.5903
11.1036
8.80727
7.43445
6.6918
6.34699
6.32954
6.64081
7.46743
9.16086
12.4747
19.3828
37.003
103.867
492.187
3143.92
3.37912
4.51315
7.19643
12.8616
23.4966
41.0975
62.5095
2.76044
2.35609
2.08795
1.90816
1.78727
1.7067
1.65418
1.62116
1.6017
1.5925
1.58918
1.58922
1.59476
1.60194
1.61156
1.6225
1.63436
1.64683
1.66051
1.67528
1.69124
1.7084
1.72651
1.74577
1.76671
1.78949
1.81431
1.84139
1.87098
86.7105
114.418
144.866
176.604
207.604
235.013
254.983
263.183
256.393
234.387
200.576
160.745
120.909
85.9816
59.6928
41.475
29.0867
20.6415
15.0218
11.4055
9.01725
7.58644
6.80977
6.44399
6.41306
6.71515
7.5298
9.20885
12.5027
19.4039
37.1328
105.315
502.501
3191.1
3.22955
4.2443
6.64997
11.7965
21.684
38.264
63.6258
92.4197
2.66231
2.29061
2.04395
1.87858
1.76771
1.69434
1.64674
1.61691
1.59959
1.59165
1.589
1.58969
1.59545
1.60284
1.61252
1.62299
1.63434
1.64684
1.66051
1.67528
1.69124
1.70802
1.72581
1.74514
1.76616
1.78903
1.81396
1.84116
1.8709
123.315
157.332
193.582
230.387
265.313
294.743
313.8
317.432
302.737
270.96
227.36
179.077
132.695
93.1458
63.9396
43.9847
30.3762
21.3289
15.4992
11.7397
9.24967
7.75431
6.93959
6.55032
6.50409
6.79619
7.59794
9.26151
12.5364
19.4256
37.3197
106.866
514.354
3251.26
3.08745
3.99256
6.13508
10.782
19.9472
35.5819
59.677
94.2477
131.188
2.56813
2.22793
2.00188
1.8506
1.74976
1.68324
1.64009
1.61312
1.59778
1.59094
1.58878
1.59025
1.59614
1.60379
1.61297
1.62297
1.63434
1.64684
1.66052
1.67529
1.69083
1.70725
1.7251
1.7445
1.76559
1.78856
1.81359
1.84092
1.87081
169.121
209.581
251.71
293.639
332.35
363.116
379.767
376.688
351.899
308.705
254.391
197.277
144.266
100.122
68.0474
46.0801
31.4822
22.0897
16.0278
12.11
9.50711
7.93987
7.08258
6.66691
6.60334
6.8845
7.67234
9.31978
12.5738
19.4632
37.5176
108.755
529.609
3321.25
2.95253
3.75842
5.65241
9.8138
18.2588
32.9751
55.9352
88.9435
133.885
179.419
2.47815
2.1682
1.96213
1.82493
1.73362
1.67327
1.63412
1.60974
1.59623
1.59036
1.58863
1.59088
1.5969
1.60425
1.61291
1.62298
1.63435
1.64684
1.66052
1.67485
1.69
1.70647
1.72437
1.74384
1.76501
1.78807
1.81322
1.84068
1.87073
224.535
271.502
319.667
366.893
409.23
440.364
452.632
440.283
403.097
346.993
281.272
215.138
155.522
106.866
71.4774
47.8778
32.7068
22.9325
16.6137
12.5206
9.79248
8.14515
7.24016
6.79482
6.7116
6.98069
7.75354
9.38377
12.6189
19.5048
37.7856
111.199
549.373
3389.04
2.82426
3.54313
5.20338
8.89792
16.6085
30.4065
52.2713
83.9554
126.935
183.048
237.348
2.39272
2.11196
1.92573
1.80187
1.71912
1.66433
1.62879
1.60678
1.59493
1.58988
1.58859
1.59163
1.5972
1.6042
1.6129
1.62298
1.63435
1.64685
1.66006
1.67397
1.68915
1.70567
1.72362
1.74316
1.76441
1.78757
1.81284
1.84043
1.87064
289.728
343.371
397.95
450.821
496.541
526.64
531.929
507.349
455.465
385.208
307.659
232.488
166.384
112.49
74.4191
49.8685
34.0638
23.8668
17.2634
12.9761
10.109
8.37236
7.41393
6.93518
6.82969
7.0854
7.84211
9.45461
12.6694
19.5668
38.1425
114.467
570.959
3453.31
2.70245
3.34795
4.78928
8.03646
14.9974
27.8584
48.6332
79.0678
120.504
174.065
241.811
304.907
2.31266
2.0606
1.89308
1.78115
1.70609
1.6563
1.62405
1.60419
1.59379
1.58952
1.58881
1.59198
1.59704
1.60422
1.61291
1.62298
1.63437
1.64637
1.65912
1.67306
1.68827
1.70484
1.72286
1.74246
1.7638
1.78706
1.81244
1.84017
1.87055
364.783
425.572
487.306
546.352
595.019
621.996
616.936
576.83
508.107
422.798
333.264
249.19
175.422
117.308
77.6743
52.0742
35.5686
24.9032
17.9843
13.4815
10.46
8.62392
7.6056
7.08924
6.95853
7.19932
7.93861
9.5325
12.7299
19.6535
38.6705
118.102
594.275
3513.17
2.58822
3.16891
4.41063
7.23195
13.4392
25.3294
44.9884
74.2077
114.244
165.952
230.25
309.881
381.888
2.23998
2.01465
1.86382
1.76255
1.6944
1.64913
1.61984
1.60192
1.59285
1.58949
1.58878
1.59186
1.59703
1.60422
1.61291
1.623
1.63389
1.6454
1.65816
1.67213
1.68738
1.704
1.72207
1.74174
1.76318
1.78653
1.81204
1.83991
1.87046
449.917
518.862
588.953
654.925
705.611
726.298
706.632
647.539
560.173
459.288
357.857
263.045
183.147
122.63
81.2772
54.5194
37.2382
26.0534
18.7843
14.0425
10.8495
8.90246
7.81705
7.2583
7.0991
7.32316
8.04383
9.61875
12.8115
19.7909
39.2927
122.175
619.648
3567.54
2.48448
3.00478
4.06885
6.48946
11.9501
22.8305
41.325
69.3191
108.054
158.165
220.126
294.955
386.76
468.189
2.17536
1.97357
1.8376
1.74586
1.68392
1.64272
1.61609
1.59997
1.59239
1.58933
1.58849
1.5919
1.59704
1.6042
1.61298
1.62251
1.63289
1.64441
1.65718
1.67118
1.68646
1.70313
1.72126
1.74101
1.76253
1.78599
1.81163
1.83965
1.87037
545.774
624.505
704.938
778.715
829.421
839.081
799.7
718.262
610.907
494.304
378.193
274.854
191.655
128.506
85.2654
57.2304
39.0909
27.3302
19.6723
14.6651
11.2815
9.21077
8.05023
7.4438
7.25234
7.45757
8.15804
9.73127
12.9224
19.9635
40.0106
126.87
646.883
3615.93
2.39241
2.85747
3.76539
5.81515
10.5471
20.3801
37.6464
64.3694
101.846
150.573
210.614
282.346
367.328
472.017
564.154
2.11791
1.93685
1.81411
1.73089
1.67453
1.63696
1.6128
1.59873
1.59195
1.58898
1.58851
1.5919
1.59705
1.60425
1.61253
1.6215
1.63187
1.64341
1.65618
1.67021
1.68552
1.70224
1.72044
1.74026
1.76187
1.78544
1.81122
1.8394
1.87029
653.393
744.858
838.686
920.705
967.431
959.424
894.635
787.842
659.684
523.192
395.477
287.815
201.017
134.992
89.6784
60.2358
41.1469
28.7473
20.6577
15.3556
11.7602
9.5518
8.30722
7.64709
7.41949
7.60378
8.30613
9.87225
13.0499
20.1676
40.8882
132.093
676.315
3656.62
2.31097
2.72643
3.50605
5.21636
9.25112
18
33.9662
59.3433
95.5542
143.04
201.551
270.825
351.56
446.396
565.681
671.035
2.06678
1.90404
1.79308
1.71748
1.66608
1.63189
1.6105
1.59781
1.59148
1.58902
1.58851
1.59186
1.5972
1.60379
1.61155
1.6205
1.63084
1.64238
1.65515
1.66921
1.68456
1.70133
1.71959
1.73948
1.7612
1.78489
1.81082
1.83915
1.8702
775.249
884.62
995.594
1084.44
1120.24
1086.05
989.871
855.245
699.932
547.689
414.376
302.014
211.305
142.142
94.5579
63.5659
43.4276
30.3197
21.7506
16.121
12.2901
9.92854
8.59004
7.86981
7.60123
7.78995
8.48708
10.0225
13.192
20.4279
41.862
138.229
708.199
3688.46
2.23906
2.6093
3.29189
4.70556
8.0811
15.714
30.3072
54.2378
89.1317
135.459
192.735
260.185
337.613
426.549
531.295
668.861
791.448
2.02126
1.87474
1.77426
1.70542
1.65859
1.62817
1.60894
1.59716
1.59155
1.58902
1.58849
1.59197
1.5969
1.60283
1.61059
1.61948
1.62978
1.64133
1.6541
1.66819
1.68358
1.70039
1.71873
1.7387
1.76054
1.78436
1.81044
1.83892
1.87012
916.857
1051.94
1183.03
1273.97
1288.34
1217.6
1083.79
911.127
734.034
574.39
434.985
317.535
222.587
150.013
99.9469
67.2524
45.9556
32.0631
22.9618
16.9682
12.8759
10.344
8.90087
8.11298
7.83612
8.01338
8.67417
10.1814
13.3584
20.7198
43.0691
145.111
743.571
3711.51
2.17558
2.50488
3.11036
4.28033
7.06632
13.5714
26.7006
49.0614
82.5416
127.736
184.009
250.14
325.219
409.589
506.177
621.616
783.879
931.029
1.98075
1.8486
1.75735
1.69472
1.65294
1.62578
1.60803
1.59727
1.59154
1.58898
1.58878
1.59162
1.59613
1.60192
1.60961
1.61846
1.6287
1.64026
1.65302
1.66714
1.68257
1.69943
1.71785
1.73792
1.75989
1.78385
1.81007
1.83869
1.87005
1087.38
1258.73
1411.14
1494.98
1473.45
1352.21
1162.6
958.552
771.13
603.381
457.383
334.446
234.927
158.658
105.888
71.3274
48.7542
33.9937
24.3021
17.9045
13.522
10.801
9.24118
8.42762
8.12137
8.2414
8.86681
10.3522
13.5414
21.09
44.4098
153.17
781.338
3725.82
2.11953
2.41228
2.95349
3.92919
6.21377
11.6564
23.2135
43.8371
75.7576
119.785
175.222
240.469
313.965
395.165
485.43
589.742
717.775
914.975
1100.14
1.94468
1.82519
1.74233
1.68649
1.6494
1.6246
1.60818
1.59727
1.59148
1.58933
1.5888
1.59085
1.59544
1.60104
1.6086
1.61743
1.6276
1.63916
1.65193
1.66607
1.68155
1.69845
1.71697
1.73716
1.75926
1.78335
1.8097
1.83846
1.86997
1302.95
1524.09
1697.7
1761.24
1677.16
1467.59
1229.79
1010.14
811.277
634.713
481.618
352.801
248.377
168.126
112.421
75.8224
51.8466
36.1278
25.7824
18.9368
14.2328
11.3019
9.68241
8.80981
8.41388
8.47405
9.06599
10.5332
13.7571
21.5037
46.0363
162.548
820.973
3732.7
2.06995
2.33064
2.81562
3.64004
5.50689
10.009
19.9818
38.6416
68.7692
111.519
166.221
230.953
303.556
382.654
468.599
564.227
677.449
821.747
1071.77
1315.52
1.91249
1.80444
1.73058
1.68146
1.64786
1.62481
1.60818
1.59716
1.59195
1.58949
1.58857
1.59022
1.59474
1.60017
1.60758
1.61639
1.62647
1.63804
1.65082
1.66496
1.6805
1.69749
1.71613
1.73643
1.75866
1.78286
1.80935
1.83824
1.8699
1596.95
1893.47
2089.59
2096.69
1856.05
1566.41
1302.92
1065.83
854.448
668.377
507.7
372.627
262.975
178.456
119.583
80.7667
55.2548
38.4809
27.4132
20.0719
15.0116
11.9516
10.2185
9.20149
8.71232
8.71157
9.2713
10.7298
13.9961
22.0112
47.907
173.293
862.717
3731.28
2.02592
2.25894
2.69306
3.40497
4.92616
8.6189
17.0893
33.6695
61.6367
102.865
156.844
221.369
293.691
371.68
454.703
544.536
645.981
771.151
939.537
1278.27
1620.63
1.884
1.78803
1.72349
1.6795
1.64815
1.62481
1.60804
1.59782
1.59238
1.58951
1.58862
1.58966
1.59402
1.59934
1.60653
1.61533
1.62534
1.63689
1.64968
1.66384
1.67947
1.69655
1.71531
1.73572
1.75806
1.78239
1.80901
1.83803
1.86983
2078.3
2489.97
2700.81
2392.18
2008.12
1673.36
1381.51
1125.39
900.507
704.294
535.592
393.915
278.734
189.673
127.401
86.1848
58.9981
41.0669
29.2038
21.3147
16.0212
12.7403
10.7673
9.60024
9.01544
8.95374
9.48458
10.9405
14.2749
22.594
50.0999
185.371
905.39
3726.49
1.9871
2.19592
2.58387
3.21059
4.45139
7.45658
14.5411
29.0686
54.5977
93.8254
146.923
211.466
284.075
361.832
443.269
529.045
622.929
732.366
875.997
1084.61
1590.03
2184.04
1.8612
1.77832
1.72097
1.67991
1.64816
1.62461
1.60895
1.59873
1.59284
1.58987
1.58878
1.58919
1.59327
1.59853
1.60547
1.61426
1.62419
1.63571
1.64854
1.66274
1.67847
1.69565
1.71451
1.73503
1.75749
1.78193
1.80868
1.83783
1.86976
2962.82
3687.37
3195.94
2632.1
2168.28
1786.48
1464.67
1188.38
949.186
742.296
565.19
416.611
295.636
201.784
135.89
92.0941
63.0914
43.8972
31.161
22.9244
17.2449
13.5466
11.3247
10.0036
9.32201
9.201
9.70621
11.1711
14.5903
23.281
52.7243
198.639
949.578
3716.86
1.9558
2.14097
2.48676
3.0457
4.06615
6.49621
12.3422
24.8772
47.8625
84.6378
136.362
200.973
274.379
352.745
433.742
517.175
605.57
705.401
828.41
1004.34
1291.19
2205.18
3404.27
1.8478
1.77518
1.72152
1.67992
1.64788
1.6258
1.61051
1.59997
1.5938
1.59036
1.58899
1.58889
1.59249
1.59775
1.60442
1.61315
1.62305
1.63451
1.64741
1.66167
1.67751
1.69477
1.71374
1.73436
1.75693
1.78149
1.80835
1.83763
1.86972
5159.79
4427.96
3543.06
2864.61
2331.02
1903.45
1551.25
1254.15
1000.09
782.117
596.319