/*--------------------------------*- C++ -*----------------------------------*\
  =========                 |
  \\      /  F ield         | OpenFOAM: The Open Source CFD Toolbox
   \\    /   O peration     | Website:  https://openfoam.org
    \\  /    A nd           | Version:  8
     \\/     M anipulation  |
\*---------------------------------------------------------------------------*/
FoamFile
{
    version     2.0;
    format      ascii;
    class       volScalarField;
    location    "0.12";
    object      k;
}
// * * * * * * * * * * * * * * * * * * * * * * * * * * * * * * * * * * * * * //

dimensions      [0 2 -2 0 0 0 0];

internalField   nonuniform List<scalar> 
15677
(
0.333994
0.364682
0.29434
0.368614
0.357021
0.280632
0.370641
0.359745
0.365645
0.282421
0.371857
0.361481
0.361176
0.383035
0.288665
0.372596
0.363665
0.35759
0.368114
0.401533
0.30016
0.373032
0.365622
0.357771
0.358023
0.379975
0.419284
0.311713
0.37326
0.367161
0.359419
0.354513
0.36094
0.39321
0.434704
0.322533
0.373348
0.368293
0.361331
0.354727
0.353002
0.366836
0.406109
0.447824
0.332041
0.373349
0.369076
0.363049
0.356311
0.351084
0.353453
0.373515
0.418218
0.458684
0.340425
0.373314
0.369565
0.364432
0.358201
0.351905
0.34876
0.354755
0.380653
0.429048
0.467826
0.347509
0.373274
0.369824
0.365456
0.359949
0.353699
0.348365
0.347129
0.35709
0.387619
0.43876
0.475339
0.353726
0.373248
0.369927
0.366144
0.36139
0.355652
0.349753
0.345342
0.34631
0.359684
0.394394
0.447171
0.481751
0.358907
0.373237
0.36994
0.366545
0.362474
0.357416
0.351714
0.346196
0.342919
0.345875
0.362579
0.40063
0.45462
0.487049
0.36357
0.373237
0.369922
0.366733
0.363208
0.358852
0.353677
0.348063
0.343089
0.340854
0.345888
0.365437
0.406474
0.46095
0.491601
0.367632
0.373238
0.369907
0.366791
0.363634
0.359911
0.355388
0.350149
0.344748
0.340285
0.339188
0.346019
0.368328
0.411638
0.466532
0.495381
0.371226
0.373239
0.369899
0.366792
0.363832
0.360604
0.356736
0.352082
0.34688
0.341693
0.337818
0.337733
0.346345
0.370994
0.416387
0.471168
0.498719
0.374517
0.37324
0.369896
0.366782
0.363889
0.360986
0.357691
0.353684
0.348979
0.343828
0.338925
0.335576
0.33652
0.34673
0.373595
0.420416
0.475238
0.501597
0.377319
0.37324
0.369894
0.366775
0.363897
0.361135
0.358278
0.354884
0.350799
0.346059
0.341021
0.336373
0.333591
0.33544
0.347236
0.375845
0.424036
0.478583
0.504135
0.380161
0.37324
0.369893
0.36677
0.363892
0.361179
0.358547
0.355677
0.352225
0.348069
0.343349
0.338417
0.334073
0.331774
0.334567
0.347658
0.377948
0.426982
0.481502
0.506486
0.382371
0.37324
0.369892
0.366767
0.363885
0.361185
0.358651
0.356077
0.353223
0.349701
0.345524
0.34083
0.336052
0.331954
0.330197
0.333761
0.348127
0.379654
0.42959
0.483892
0.508496
0.385018
0.37324
0.369891
0.366764
0.363879
0.361179
0.358683
0.356251
0.353769
0.35089
0.347347
0.343157
0.338532
0.333878
0.330089
0.328765
0.33312
0.348469
0.381197
0.431591
0.485966
0.510612
0.386774
0.37324
0.36989
0.366763
0.363875
0.361172
0.358686
0.356316
0.354031
0.351572
0.348725
0.345158
0.340994
0.336436
0.331965
0.32841
0.327566
0.332523
0.348815
0.38235
0.433378
0.487676
0.512282
0.389405
0.37324
0.369889
0.366762
0.363871
0.361166
0.35868
0.356333
0.354145
0.351918
0.349559
0.346707
0.343162
0.339046
0.334601
0.330262
0.327005
0.326515
0.332087
0.349054
0.383389
0.43461
0.489189
0.514419
0.390838
0.37324
0.369888
0.366761
0.363868
0.361161
0.358671
0.35633
0.354183
0.35208
0.350008
0.347668
0.344892
0.341391
0.337346
0.332996
0.328871
0.32583
0.325745
0.331717
0.349281
0.384062
0.435805
0.490421
0.515835
0.393476
0.37324
0.369888
0.36676
0.363865
0.361157
0.358662
0.356322
0.354188
0.352144
0.350234
0.348202
0.346013
0.343287
0.339847
0.335919
0.331754
0.327766
0.324978
0.325119
0.331501
0.349473
0.384728
0.436473
0.491706
0.518352
0.394868
0.373241
0.369888
0.36676
0.363863
0.361154
0.358655
0.356313
0.354178
0.352161
0.350331
0.348482
0.346666
0.34452
0.341927
0.338651
0.334861
0.330775
0.326986
0.324389
0.324906
0.331531
0.349726
0.385103
0.437316
0.492548
0.520009
0.505192
0.373241
0.369888
0.366759
0.363862
0.361151
0.358648
0.356304
0.354165
0.352157
0.350359
0.348613
0.347022
0.345244
0.343356
0.340929
0.337723
0.334078
0.330314
0.326767
0.324402
0.325005
0.331684
0.349973
0.385541
0.437695
0.494462
0.528709
0.713769
0.373241
0.369887
0.366759
0.36386
0.361149
0.358644
0.356297
0.354151
0.352145
0.350355
0.348663
0.347192
0.345654
0.344237
0.342442
0.340186
0.337369
0.334078
0.330424
0.326962
0.324652
0.325342
0.332038
0.350348
0.38586
0.438516
0.494975
0.545569
0.892616
0.373241
0.369887
0.366759
0.363859
0.361147
0.35864
0.356291
0.354139
0.35213
0.350338
0.348671
0.347255
0.345871
0.344748
0.343363
0.342006
0.340216
0.337562
0.334398
0.330901
0.327549
0.325293
0.326045
0.332725
0.350867
0.386264
0.439114
0.49469
0.558651
1.03824
0.373241
0.369887
0.366758
0.363859
0.361146
0.358637
0.356286
0.35413
0.352117
0.350317
0.348658
0.347262
0.345968
0.345002
0.343917
0.343182
0.342168
0.340593
0.338197
0.335247
0.33195
0.32875
0.326537
0.327257
0.333756
0.351584
0.38689
0.43886
0.493226
0.568507
1.16547
0.373241
0.369887
0.366758
0.363858
0.361145
0.358634
0.356282
0.354122
0.352106
0.350298
0.348637
0.347242
0.345996
0.345106
0.344253
0.343911
0.343432
0.342754
0.341536
0.339524
0.336914
0.333847
0.330691
0.32842
0.328934
0.335183
0.352603
0.387409
0.437975
0.49015
0.575331
1.26984
0.373241
0.369887
0.366758
0.363857
0.361144
0.358632
0.356278
0.354116
0.352096
0.350281
0.348616
0.347213
0.345987
0.345131
0.344422
0.344298
0.344225
0.344172
0.344004
0.343372
0.341804
0.339494
0.336556
0.333395
0.330935
0.331159
0.337038
0.353871
0.387865
0.436151
0.484833
0.579902
1.34779
0.373241
0.369887
0.366758
0.363857
0.361143
0.35863
0.356275
0.35411
0.352087
0.350267
0.348596
0.347184
0.345961
0.345114
0.344486
0.344493
0.344685
0.345083
0.345677
0.346256
0.346212
0.345077
0.343035
0.34019
0.336903
0.334177
0.333942
0.339359
0.355394
0.388002
0.433061
0.478208
0.582823
1.40795
0.373241
0.369887
0.366758
0.363856
0.361142
0.358629
0.356273
0.354106
0.35208
0.350255
0.348579
0.347158
0.34593
0.34508
0.344491
0.344573
0.344928
0.345641
0.346792
0.348228
0.349561
0.35017
0.349466
0.347666
0.344807
0.341321
0.33816
0.337347
0.342132
0.357114
0.387906
0.428989
0.471568
0.585327
1.45636
0.369887
0.373245
0.366758
0.363856
0.361142
0.358627
0.35627
0.354102
0.352073
0.350245
0.348564
0.347135
0.345901
0.345041
0.344465
0.344588
0.34504
0.345958
0.347511
0.34958
0.351909
0.354101
0.355398
0.355121
0.353472
0.350531
0.346673
0.342963
0.34134
0.345359
0.359309
0.387617
0.424806
0.465353
0.587739
1.49693
0.366758
0.369897
0.373252
0.363856
0.361141
0.358626
0.356268
0.354098
0.352068
0.350236
0.34855
0.347116
0.345874
0.345005
0.344429
0.344568
0.345078
0.346125
0.347953
0.350488
0.353571
0.356925
0.360056
0.362072
0.362154
0.360594
0.357396
0.353053
0.348553
0.345958
0.349341
0.362018
0.387261
0.42076
0.459753
0.590573
1.53227
0.363856
0.366774
0.369918
0.37326
0.361141
0.358625
0.356267
0.354096
0.352063
0.350229
0.348539
0.347099
0.34585
0.344973
0.344392
0.344536
0.345075
0.346204
0.348216
0.351088
0.354737
0.35899
0.363482
0.367625
0.370336
0.370725
0.369081
0.365515
0.360429
0.354972
0.351776
0.354296
0.365101
0.386947
0.416981
0.454862
0.593613
1.56391
0.36114
0.363877
0.366808
0.369939
0.373267
0.358624
0.356265
0.354093
0.352059
0.350223
0.348529
0.347084
0.34583
0.344945
0.344358
0.344502
0.345054
0.346234
0.348372
0.351486
0.355561
0.360504
0.366069
0.371809
0.376987
0.380374
0.380908
0.37907
0.374858
0.368859
0.362987
0.359125
0.359782
0.368391
0.387004
0.413638
0.45067
0.597167
1.59294
0.358624
0.361167
0.363922
0.366843
0.369961
0.373275
0.356264
0.354091
0.352055
0.350217
0.34852
0.347072
0.345812
0.34492
0.344327
0.34447
0.34503
0.346241
0.348466
0.351763
0.35616
0.36164
0.368051
0.37507
0.382116
0.388354
0.392287
0.392862
0.390536
0.385508
0.379346
0.373047
0.3673
0.365755
0.372128
0.387298
0.410653
0.44711
0.600837
1.61984
0.356263
0.358655
0.361223
0.363968
0.366878
0.369984
0.373284
0.354089
0.352052
0.350212
0.348513
0.347061
0.345796
0.344898
0.344301
0.344442
0.345006
0.346239
0.348525
0.351963
0.356625
0.362533
0.369624
0.377673
0.386237
0.394649
0.401861
0.406262
0.40657
0.403591
0.398728
0.392465
0.384205
0.376223
0.372134
0.37598
0.387926
0.408214
0.444029
0.604888
1.64517
0.354087
0.356299
0.358719
0.36128
0.364015
0.366915
0.370007
0.373292
0.35205
0.350208
0.348506
0.347052
0.345782
0.34488
0.344278
0.344417
0.344985
0.346236
0.34857
0.352117
0.357
0.363282
0.370939
0.379846
0.389665
0.399869
0.409587
0.41773
0.422301
0.422174
0.419783
0.415251
0.406985
0.39635
0.385792
0.378969
0.379973
0.38897
0.406226
0.441487
0.60891
1.66894
0.352048
0.354125
0.356371
0.358785
0.361338
0.364064
0.366952
0.370031
0.373301
0.350204
0.3485
0.347044
0.345769
0.344865
0.344258
0.344395
0.344967
0.346233
0.348607
0.352246
0.357312
0.363926
0.372108
0.381757
0.39265
0.404373
0.416196
0.427216
0.436003
0.440589
0.44153
0.440011
0.433513
0.422758
0.409358
0.395928
0.386173
0.384141
0.390295
0.404683
0.439318
0.613174
1.69155
0.350201
0.352088
0.354205
0.356446
0.358853
0.361398
0.364114
0.36699
0.370056
0.37331
0.348495
0.347038
0.345758
0.344851
0.344241
0.344376
0.344951
0.34623
0.34864
0.35236
0.357585
0.364487
0.373163
0.383534
0.395389
0.408449
0.42209
0.435566
0.447619
0.456947
0.463336
0.46575
0.462358
0.45332
0.439618
0.423103
0.406538
0.39367
0.388472
0.391887
0.403565
0.437597
0.617295
1.71281
0.348491
0.350243
0.352174
0.354286
0.356523
0.358923
0.36146
0.364165
0.36703
0.370081
0.373319
0.347031
0.345748
0.34484
0.344225
0.34436
0.344938
0.34623
0.34867
0.352463
0.357831
0.36499
0.374111
0.385194
0.398028
0.412327
0.427609
0.443248
0.458116
0.471142
0.48314
0.491953
0.49257
0.48661
0.47447
0.457399
0.437449
0.417521
0.40139
0.39294
0.393574
0.402836
0.436153
0.621557
1.73311
0.347026
0.348533
0.350331
0.352261
0.35437
0.356602
0.358995
0.361523
0.364218
0.36707
0.370107
0.373328
0.34574
0.344831
0.344211
0.344346
0.344927
0.34623
0.348699
0.352558
0.358055
0.365449
0.374975
0.386716
0.400564
0.416181
0.433026
0.450669
0.46806
0.484313
0.500734
0.516334
0.52387
0.521803
0.512537
0.496755
0.475915
0.452252
0.428774
0.409263
0.397558
0.395363
0.402384
0.435056
0.6256
1.75212
0.345733
0.347066
0.348622
0.350423
0.352352
0.354457
0.356684
0.359068
0.361588
0.364272
0.367112
0.370133
0.373338
0.344823
0.344199
0.344333
0.344917
0.346231
0.348727
0.352646
0.35826
0.36587
0.375771
0.388124
0.402937
0.419972
0.438546
0.458162
0.477945
0.497148
0.517515
0.538572
0.553636
0.558877
0.553225
0.539925
0.519961
0.494986
0.467372
0.440197
0.41723
0.402276
0.397245
0.402205
0.434151
0.629717
1.77031
0.344817
0.345766
0.347152
0.348714
0.350517
0.352445
0.354546
0.356768
0.359144
0.361655
0.364327
0.367155
0.37016
0.373347
0.344186
0.344322
0.344909
0.346232
0.348752
0.352726
0.358448
0.366258
0.376506
0.389433
0.405162
0.423576
0.444085
0.465989
0.488185
0.51026
0.534344
0.560444
0.581528
0.594922
0.596753
0.586589
0.568542
0.543874
0.514431
0.482673
0.451697
0.425232
0.407048
0.399203
0.402252
0.433515
0.633568
1.78725
0.344176
0.344845
0.345841
0.347241
0.34881
0.350614
0.352542
0.354637
0.356854
0.359222
0.361724
0.364384
0.367199
0.370187
0.373356
0.344312
0.344902
0.346234
0.348775
0.3528
0.35862
0.366613
0.377183
0.390649
0.407248
0.426989
0.449435
0.474017
0.499113
0.524179
0.552024
0.5831
0.609814
0.629639
0.640066
0.637272
0.621617
0.59814
0.568286
0.534087
0.49803
0.463187
0.433214
0.411837
0.401226
0.402389
0.433017
0.637458
1.80348
0.344306
0.344178
0.344906
0.345918
0.347334
0.348909
0.350714
0.352641
0.354732
0.356943
0.359302
0.361795
0.364442
0.367242
0.370213
0.373365
0.344894
0.346236
0.348797
0.352867
0.358777
0.366939
0.377806
0.391777
0.4092
0.430216
0.454573
0.481899
0.510503
0.539366
0.571303
0.60768
0.640084
0.665985
0.683018
0.688986
0.680211
0.658043
0.628475
0.593013
0.553805
0.513333
0.474589
0.441126
0.416608
0.403289
0.402649
0.432746
0.641053
1.81849
0.344892
0.34429
0.344186
0.344969
0.346
0.34743
0.349013
0.350817
0.352744
0.354828
0.357035
0.359384
0.361867
0.3645
0.367284
0.370239
0.373374
0.346237
0.348816
0.352928
0.358921
0.367236
0.378378
0.39282
0.41102
0.433259
0.459491
0.489551
0.521824
0.555577
0.592907
0.635325
0.67406
0.706336
0.729652
0.741985
0.741683
0.725381
0.695627
0.659317
0.617878
0.573452
0.528484
0.485836
0.448923
0.421331
0.405393
0.402994
0.432548
0.644673
1.8329
0.346243
0.344846
0.344258
0.344197
0.345037
0.346089
0.347529
0.349121
0.350923
0.35285
0.354928
0.357129
0.359468
0.361939
0.364556
0.367325
0.370263
0.373382
0.348831
0.352983
0.359051
0.367508
0.378901
0.393781
0.412709
0.436115
0.46417
0.496928
0.532964
0.572112
0.616515
0.667214
0.713735
0.753679
0.783873
0.802092
0.807116
0.79826
0.772646
0.734157
0.690463
0.642719
0.592912
0.543401
0.496871
0.456568
0.425982
0.407514
0.403402
0.432519
0.647978
1.84615
0.348854
0.346153
0.344742
0.344221
0.344224
0.345107
0.346184
0.347632
0.349232
0.351033
0.352959
0.355031
0.357225
0.359552
0.362009
0.364611
0.367364
0.370287
0.37339
0.35303
0.359168
0.367755
0.37938
0.394664
0.414272
0.438785
0.468595
0.504
0.543891
0.588764
0.640926
0.703156
0.761789
0.812198
0.851217
0.875816
0.884987
0.879105
0.858858
0.821887
0.773448
0.72174
0.667398
0.612086
0.558013
0.507644
0.464028
0.430538
0.409635
0.40386
0.432551
0.651311
1.85888
0.353086
0.348687
0.345934
0.344629
0.344184
0.344269
0.345178
0.346285
0.347738
0.349348
0.351145
0.353072
0.355136
0.35732
0.359633
0.362076
0.364664
0.367403
0.370311
0.373398
0.359271
0.367978
0.379817
0.395474
0.415715
0.44127
0.472759
0.510748
0.554553
0.605344
0.665705
0.742019
0.819765
0.888009
0.939568
0.97236
0.985255
0.979747
0.958431
0.92351
0.87296
0.813324
0.75299
0.691791
0.630895
0.572264
0.518118
0.471278
0.434983
0.411738
0.40436
0.432632
0.654322
1.8691
0.359382
0.35283
0.348276
0.345704
0.34453
0.344145
0.344329
0.345252
0.346393
0.347848
0.349468
0.351262
0.353187
0.35524
0.357413
0.359712
0.362142
0.364715
0.36744
0.370333
0.373406
0.368177
0.380212
0.396215
0.417043
0.443576
0.476662
0.517156
0.56488
0.621655
0.69079
0.784179
0.887199
0.984767
1.05864
1.10308
1.12058
1.11355
1.08672
1.04502
0.992008
0.925648
0.853598
0.784071
0.715793
0.649268
0.586108
0.528261
0.478297
0.439301
0.413811
0.404885
0.432784
0.65695
1.87772
0.368379
0.359006
0.352162
0.347848
0.345498
0.344441
0.34411
0.344399
0.345329
0.346506
0.347962
0.349592
0.351382
0.353301
0.355342
0.357503
0.359789
0.362206
0.364765
0.367477
0.370355
0.373414
0.380568
0.396889
0.418263
0.44571
0.480308
0.523216
0.574804
0.637572
0.716332
0.83013
0.963881
1.09892
1.21039
1.27841
1.30349
1.295
1.25948
1.20484
1.13811
1.06384
0.979634
0.894068
0.81485
0.739314
0.667148
0.599513
0.538053
0.485069
0.44348
0.415844
0.405434
0.432945
0.659093
1.88701
0.380917
0.36785
0.357976
0.351471
0.347455
0.345308
0.344359
0.344082
0.344478
0.345412
0.346624
0.348081
0.349719
0.351501
0.353412
0.355441
0.35759
0.359864
0.362268
0.364814
0.367512
0.370377
0.373421
0.397501
0.419378
0.447681
0.483704
0.528921
0.584281
0.653056
0.742499
0.879678
1.04805
1.22549
1.38312
1.49429
1.54206
1.53532
1.49103
1.41963
1.33184
1.23632
1.13824
1.03451
0.934515
0.845199
0.762277
0.684487
0.612449
0.547474
0.491582
0.447512
0.417825
0.405918
0.433109
0.661472
1.89717
0.398084
0.380194
0.36631
0.356913
0.350828
0.347087
0.345132
0.344286
0.344065
0.344563
0.345501
0.346746
0.348205
0.349845
0.351618
0.35352
0.355538
0.357675
0.359937
0.362328
0.364862
0.367546
0.370398
0.373424
0.420399
0.449494
0.48686
0.534271
0.593293
0.668118
0.769313
0.931917
1.13672
1.35862
1.5663
1.73004
1.8253
1.83948
1.79031
1.70238
1.5896
1.46487
1.33794
1.21425
1.08981
0.974701
0.874997
0.784618
0.70125
0.624896
0.556514
0.49783
0.451389
0.419495
0.40635
0.433307
0.664031
1.9082
0.421346
0.397124
0.377946
0.364732
0.355918
0.350217
0.34674
0.344968
0.344223
0.344058
0.344653
0.345598
0.346871
0.34833
0.349968
0.351733
0.353625
0.355632
0.357758
0.360007
0.362387
0.364908
0.36758
0.370408
0.373424
0.451167
0.489781
0.539274
0.601841
0.682779
0.796607
0.985587
1.22686
1.49297
1.7516
1.97175
2.12554
2.19099
2.16022
2.06015
1.92279
1.76496
1.60099
1.44117
1.29087
1.14502
1.01439
0.904131
0.806281
0.717407
0.636842
0.565168
0.503806
0.454617
0.420937
0.406843
0.433569
0.666898
1.92032
0.452687
0.420102
0.393896
0.375659
0.363249
0.354966
0.349632
0.346412
0.344816
0.344172
0.344064
0.344745
0.345704
0.346996
0.348453
0.350087
0.351844
0.353727
0.355724
0.357838
0.360076
0.362444
0.364953
0.367596
0.370408
0.373424
0.492495
0.543938
0.60994
0.697041
0.824098
1.03944
1.316
1.62466
1.93306
2.21029
2.42703
2.55688
2.58052
2.49528
2.3377
2.14688
1.94179
1.73755
1.54436
1.36714
1.19966
1.05336
0.932496
0.827216
0.732938
0.648281
0.573432
0.508759
0.457381
0.422544
0.407418
0.433885
0.669968
1.93348
0.494916
0.451088
0.415519
0.390639
0.373503
0.361824
0.354049
0.349072
0.346106
0.344677
0.344132
0.344085
0.344838
0.345815
0.347117
0.348575
0.350204
0.351954
0.353826
0.355813
0.357916
0.360143
0.362499
0.364975
0.367596
0.370408
0.373424
0.548302
0.61761
0.710893
0.851459
1.09246
1.40245
1.75123
2.10697
2.43967
2.72015
2.91985
3.01351
2.98488
2.83728
2.61717
2.37028
2.11698
1.87239
1.64607
1.44222
1.25328
1.09139
0.959997
0.847388
0.74783
0.659208
0.58027
0.512989
0.460438
0.424341
0.408078
0.434288
0.673422
1.94798
0.55215
0.49288
0.444634
0.410937
0.387565
0.371427
0.360446
0.353165
0.348535
0.345822
0.344551
0.3441
0.344132
0.344929
0.345929
0.347235
0.348695
0.350317
0.35206
0.353923
0.3559
0.357992
0.360208
0.362526
0.364975
0.367596
0.370408
0.373424
0.624903
0.724322
0.878388
1.14384
1.48511
1.87128
2.27127
2.65638
2.9986
3.26928
3.4399
3.48648
3.39652
3.18019
2.89401
2.58967
2.28813
2.00381
1.74519
1.51539
1.30552
1.12831
0.986557
0.866769
0.762074
0.668253
0.586104
0.517651
0.463825
0.426353
0.408855
0.434766
0.677126
1.96371
0.63134
0.549545
0.483803
0.438245
0.406608
0.384598
0.369414
0.359113
0.352314
0.348019
0.34556
0.344435
0.344064
0.344199
0.345016
0.346044
0.34735
0.348812
0.350427
0.352164
0.354017
0.355984
0.358066
0.360241
0.362526
0.364975
0.367596
0.370408
0.373424
0.737329
0.904646
1.19307
1.56335
1.9841
2.42498
2.85861
3.25871
3.59802
3.84741
3.97814
3.96792
3.80901
3.51909
3.16468
2.80257
2.45349
2.1306
1.84087
1.58613
1.35605
1.16396
1.01212
0.885337
0.773875
0.675971
0.592527
0.522797
0.467583
0.428615
0.409749
0.435367
0.681328
1.98107
0.748857
0.628035
0.536651
0.474927
0.432201
0.402423
0.381716
0.367462
0.357826
0.351496
0.347528
0.345317
0.344334
0.344029
0.344277
0.345103
0.346159
0.347463
0.348927
0.350535
0.352265
0.354108
0.356067
0.358103
0.360241
0.362526
0.364975
0.367596
0.370408
0.373421
0.930039
1.23979
1.63683
2.08939
2.56778
3.0457
3.49869
3.90176
4.22735
4.44522
4.5263
4.45081
4.21681
3.85004
3.42652
3.0072
2.61187
2.25193
1.93252
1.65401
1.40464
1.19824
1.03662
0.90074
0.783951
0.684472
0.59961
0.528487
0.471764
0.431161
0.410806
0.436021
0.685839
1.99985
0.744798
0.95238
0.608914
0.524308
0.466518
0.426354
0.398355
0.378918
0.365573
0.356586
0.350714
0.347068
0.345097
0.344247
0.344006
0.344361
0.345191
0.346273
0.347575
0.34904
0.35064
0.352364
0.354197
0.356107
0.358103
0.360241
0.362526
0.364975
0.367596
0.370398
0.373413
1.28382
1.70546
2.18716
2.69972
3.21765
3.71806
4.17848
4.57433
4.87682
5.05398
5.07672
4.92883
4.61523
4.1699
3.67757
3.20237
2.76252
2.36727
2.01975
1.71879
1.45112
1.23104
1.05695
0.913899
0.795056
0.69385
0.607435
0.53479
0.476423
0.434037
0.412027
0.436796
0.690995
2.02062
0.714763
0.948317
1.32176
0.591177
0.512643
0.458373
0.420665
0.394401
0.376206
0.36375
0.355395
0.34997
0.346642
0.344904
0.344176
0.343995
0.344446
0.34528
0.346385
0.347684
0.34915
0.350742
0.35246
0.354241
0.356107
0.358103
0.360241
0.362526
0.364975
0.36758
0.370377
0.373406
1.76922
2.27757
2.82111
3.37489
3.9172
4.42788
4.88586
5.26601
5.53728
5.6655
5.62228
5.39638
5.00038
4.47625
3.91646
3.38733
2.905
2.47632
2.10236
1.7803
1.49538
1.2582
1.07432
0.928411
0.807312
0.704212
0.616092
0.541783
0.481627
0.437291
0.413475
0.437653
0.696531
2.04297
0.687226
0.90061
1.31787
1.8236
0.57468
0.501339
0.45045
0.415134
0.390564
0.373584
0.361995
0.354256
0.349272
0.346261
0.344739
0.344121
0.343996
0.344532
0.345371
0.346494
0.347792
0.349257
0.350843
0.352507
0.354241
0.356107
0.358103
0.360241
0.362526
0.364952
0.367546
0.370355
0.373398
2.36087
2.93246
3.51815
4.09704
4.65084
5.16181
5.60957
5.96718
6.20013
6.27203
6.15648
5.8486
5.36912
4.76737
4.14236
3.56171
3.03912
2.57901
2.18027
1.83846
1.53183
1.28136
1.09347
0.944435
0.82086
0.715679
0.625688
0.54956
0.487454
0.44099
0.415153
0.438685
0.702921
2.06777
0.661989
0.855567
1.24877
1.82086
2.43123
0.558867
0.49033
0.442746
0.409764
0.386852
0.371056
0.360312
0.35318
0.348637
0.345926
0.344597
0.34408
0.34401
0.344616
0.345464
0.346601
0.347898
0.349362
0.350892
0.352507
0.354241
0.356107
0.358103
0.360241
0.362499
0.364907
0.367511
0.370333
0.37339
3.03428
3.64837
4.25891
4.849
5.40371
5.9075
6.33941
6.66897
6.85727
6.86636
6.67347
6.28142
5.71908
5.04213
4.35481
3.72537
3.16492
2.67537
2.2535
1.88604
1.5628
1.30683
1.11459
0.96215
0.835856
0.72839
0.636345
0.558224
0.493995
0.4452
0.417152
0.439848
0.709778
2.09423
0.638306
0.813421
1.18086
1.73285
2.43057
3.11956
0.543567
0.47962
0.435274
0.404567
0.383271
0.368629
0.358717
0.352195
0.348071
0.345634
0.344476
0.344052
0.344039
0.344697
0.345558
0.346706
0.348003
0.349414
0.350891
0.352507
0.354241
0.356107
0.358103
0.360208
0.362443
0.36486
0.367476
0.37031
0.373382
3.76646
4.40438
5.02452
5.61421
6.16218
6.65399
7.06631
7.36328
7.50115
7.4418
7.16814
6.6916
6.04862
5.29989
4.5537
3.87843
3.28256
2.76555
2.31309
1.92629
1.59672
1.33485
1.13792
0.981758
0.85248
0.742506
0.648204
0.567902
0.501356
0.450018
0.419482
0.441266
0.717789
2.12367
0.615883
0.773678
1.1146
1.64461
2.32621
3.12148
3.86417
0.528737
0.469229
0.428047
0.399553
0.379831
0.366324
0.35725
0.35131
0.347565
0.345382
0.344374
0.34403
0.344085
0.344776
0.345654
0.346811
0.348054
0.349412
0.350891
0.352507
0.354241
0.356107
0.358066
0.360142
0.362385
0.364813
0.367439
0.370286
0.373374
4.53487
5.17986
5.7966
6.37754
6.91428
7.39194
7.78234
8.0426
8.12462
7.9923
7.63627
7.07682
6.35675
5.54042
4.73918
4.02117
3.39229
2.83864
2.36332
1.97017
1.63387
1.36569
1.16369
1.00348
0.870935
0.758208
0.661429
0.578737
0.509666
0.455537
0.422273
0.442899
0.726352
2.15474
0.59458
0.73626
1.04969
1.55651
2.22059
3.00282
3.86796
4.64079
0.514376
0.459183
0.421081
0.394735
0.376563
0.364201
0.355929
0.350515
0.347111
0.345165
0.344287
0.344005
0.344143
0.344853
0.345754
0.346861
0.348052
0.349412
0.350891
0.352507
0.354241
0.356066
0.357991
0.360074
0.362326
0.364764
0.367402
0.370263
0.373365
5.31717
5.9545
6.55839
7.1258
7.65021
8.11366
8.48045
8.69991
8.72103
8.51261
8.07459
7.43554
6.64306
5.7639
4.91162
4.15394
3.48097
2.90008
2.41788
2.01798
1.67455
1.39963
1.19218
1.02757
0.891451
0.775708
0.676211
0.590902
0.519074
0.461902
0.425553
0.444917
0.73652
2.19529
0.57431
0.701226
0.986288
1.46806
2.11402
2.8825
3.73634
4.64423
5.42546
0.500503
0.449512
0.414394
0.390159
0.373551
0.362286
0.354739
0.349801
0.346706
0.344977
0.344216
0.343984
0.344208
0.344937
0.345802
0.346856
0.348052
0.349412
0.350891
0.352507
0.354197
0.355983
0.357914
0.360005
0.362266
0.364713
0.367363
0.370238
0.373356
6.09106
6.70994
7.29526
7.84845
8.36241
8.8127
9.15427
9.32848
9.28424
8.99839
8.48084
7.76702
6.90769
5.97078
5.07149
4.26096
3.55538
2.96664
2.4771
2.07005
1.71906
1.43697
1.22367
1.0543
0.914285
0.795243
0.692769
0.604594
0.529767
0.469251
0.429514
0.447269
0.749245
2.24436
0.555005
0.668634
0.924837
1.37918
2.0059
2.76062
3.60342
4.50011
5.42487
6.19516
0.487147
0.440245
0.408049
0.385944
0.370833
0.360559
0.353667
0.349161
0.346349
0.344818
0.344156
0.343974
0.344286
0.344971
0.345797
0.346856
0.348052
0.349412
0.350892
0.352459
0.354107
0.355898
0.357836
0.359934
0.362203
0.364662
0.367324
0.370213
0.373347
6.83661
7.42991
7.99572
8.53797
9.0449
9.48374
9.7978
9.92183
9.80883
9.44638
8.85374
8.07127
7.15116
6.16169
5.1999
4.35057
3.6358
3.03868
2.54132
2.1267
1.76772
1.47803
1.25847
1.08398
0.939726
0.817086
0.711356
0.620053
0.541955
0.4778
0.434208
0.450829
0.766283
2.29385
0.536618
0.638488
0.865928
1.29011
1.89582
2.63647
3.46898
4.35593
5.26737
6.18596
6.92837
0.474345
0.431473
0.40221
0.382141
0.36838
0.359001
0.352702
0.348588
0.346035
0.344679
0.344109
0.343989
0.344322
0.344958
0.345799
0.346856
0.348052
0.349414
0.350842
0.352362
0.354014
0.35581
0.357755
0.359861
0.36214
0.364609
0.367283
0.370187
0.373338
7.53585
8.10179
8.65225
9.18847
9.69318
10.1222
10.4051
10.4736
10.2902
9.85447
9.19306
8.34891
7.37428
6.31424
5.30715
4.4472
3.72264
3.11657
2.6109
2.18827
1.82086
1.52314
1.29692
1.11692
0.968085
0.841537
0.732267
0.637551
0.555905
0.487761
0.441015
0.455451
0.785034
2.34332
0.519114
0.610706
0.810236
1.20135
1.78368
2.50936
3.33228
4.21107
5.11224
6.01243
6.90459
7.60583
0.462226
0.423423
0.396947
0.378712
0.366168
0.357597
0.351835
0.348077
0.345758
0.344562
0.344094
0.343985
0.344313
0.344956
0.345799
0.346856
0.348054
0.349361
0.350741
0.352262
0.35392
0.35572
0.357672
0.359786
0.362074
0.364555
0.367241
0.37016
0.373328
8.1749
8.7177
9.25347
9.78661
10.2936
10.7186
10.9691
10.9777
10.7252
10.2219
9.49941
8.60096
7.55125
6.44118
5.42246
4.55128
3.81629
3.20068
2.68618
2.25508
1.87881
1.57261
1.33934
1.15347
0.999702
0.868936
0.755825
0.657423
0.571935
0.501635
0.450454
0.461735
0.806097
2.39221
0.502592
0.585134
0.758428
1.11365
1.66957
2.37877
3.19234
4.06483
4.95827
5.84532
6.71136
7.55989
8.21314
0.451116
0.416188
0.392206
0.375621
0.364172
0.356332
0.351057
0.34762
0.345517
0.344491
0.344073
0.343958
0.344317
0.344956
0.345797
0.346861
0.348003
0.349255
0.350637
0.35216
0.353823
0.355628
0.357587
0.359709
0.362007
0.364499
0.367198
0.370133
0.373319
8.7435
9.26652
9.80096
10.3421
10.849
11.2648
11.4823
11.4293
11.1121
10.5492
9.77405
8.79881
7.69767
6.57704
5.54622
4.66319
3.91713
3.29138
2.76751
2.32747
1.94188
1.62678
1.38607
1.19396
1.03493
0.899632
0.782417
0.680036
0.59384
0.520422
0.462042
0.468821
0.829371
2.44027
0.487439
0.561707
0.711062
1.02796
1.55378
2.24438
3.04825
3.91601
4.80484
5.68246
6.53004
7.34283
8.13188
8.74213
0.441156
0.409688
0.387936
0.372834
0.362374
0.355193
0.350356
0.347216
0.345348
0.344438
0.34404
0.343959
0.344317
0.344958
0.345802
0.34681
0.347896
0.349147
0.350531
0.352056
0.353723
0.355534
0.3575
0.359631
0.361938
0.364442
0.367155
0.370106
0.373309
9.23828
9.74871
10.2928
10.8548
11.3662
11.7596
11.9384
11.8255
11.4509
10.8378
9.98657
8.96121
7.85334
6.72208
5.67874
4.78327
4.02551
3.38899
2.85518
2.4057
2.01036
1.68595
1.43743
1.23874
1.07412
0.934014
0.812406
0.710606
0.622829
0.542247
0.475826
0.477927
0.855667
2.48689
0.473827
0.54069
0.668751
0.945496
1.43684
2.10604
2.89921
3.76334
4.65056
5.52324
6.3574
7.14416
7.88809
8.60371
9.17549
0.43224
0.403847
0.384093
0.370325
0.360753
0.354165
0.349731
0.346913
0.345236
0.344393
0.344043
0.343959
0.344313
0.344971
0.345753
0.346704
0.347789
0.349036
0.350423
0.351949
0.353621
0.355438
0.35741
0.35955
0.361867
0.364384
0.367111
0.37008
0.3733
9.64637
10.1582
10.7269
11.3195
11.8379
12.1967
12.3314
12.1656
11.7428
11.0566
10.1591
9.13224
8.01821
6.87642
5.82025
4.91183
4.14173
3.4938
2.94947
2.49006
2.0845
1.75037
1.4937
1.28811
1.11762
0.972408
0.852543
0.750276
0.655426
0.567341
0.49282
0.488525
0.884664
2.53178
0.461623
0.522022
0.63236
0.868298
1.31962
1.96379
2.74451
3.60551
4.49385
5.36607
6.19275
6.95993
7.66883
8.33138
8.96987
9.5054
0.424264
0.398598
0.380635
0.368064
0.359288
0.353246
0.349249
0.346728
0.345171
0.344398
0.344043
0.343958
0.344322
0.344936
0.345652
0.346598
0.347681
0.348923
0.350313
0.35184
0.353516
0.355339
0.357318
0.359468
0.361795
0.364326
0.367069
0.370055
0.373292
9.96403
10.494
11.105
11.7351
12.255
12.5675
12.656
12.4497
11.9579
11.2315
10.3384
9.31132
8.19199
7.04002
5.97088
5.04905
4.26601
3.60605
3.0506
2.58072
2.16448
1.82024
1.5551
1.34233
1.16568
1.0232
0.903589
0.793739
0.691744
0.596304
0.513017
0.502037
0.917645
2.57424
0.450707
0.505307
0.601764
0.799636
1.20423
1.81793
2.58353
3.44122
4.33299
5.20911
6.0342
6.78926
7.47073
8.08873
8.66212
9.22127
9.72656
0.41713
0.393884
0.377525
0.366021
0.357977
0.35252
0.348961
0.346642
0.345178
0.344398
0.34404
0.343985
0.344285
0.344852
0.345556
0.346491
0.347571
0.348808
0.350199
0.351729
0.353409
0.355238
0.357224
0.359384
0.361723
0.36427
0.367029
0.37003
0.373283
10.1871
10.7577
11.4289
12.0973
12.605
12.8633
12.9085
12.6494
12.1257
11.4096
10.523
9.49751
8.37412
7.2126
6.13055
5.19499
4.39848
3.72587
3.1587
2.6778
2.25042
1.89568
1.62176
1.40153
1.22848
1.08649
0.958174
0.840786
0.731882
0.629199
0.53755
0.518091
0.954044
2.61405
0.440965
0.490279
0.575825
0.74096
1.09534
1.67012
2.41584
3.26912
4.16608
5.05033
5.87973
6.62984
7.29283
7.8746
8.39243
8.87231
9.34712
9.82941
0.410749
0.389651
0.374719
0.364192
0.356927
0.352097
0.348848
0.346654
0.345178
0.344393
0.344073
0.34399
0.344207
0.344774
0.345461
0.346381
0.347459
0.34869
0.350083
0.351615
0.353299
0.355135
0.357128
0.359301
0.361654
0.364216
0.366989
0.370006
0.373275
10.3137
10.9527
11.6998
12.3914
12.8741
13.0813
13.0667
12.7984
12.2913
11.5886
10.7111
9.68944
8.56367
7.39364
6.29902
5.34956
4.53913
3.85329
3.27379
2.78132
2.3423
1.9767
1.69368
1.47786
1.30515
1.15263
1.01571
0.891036
0.77558
0.666338
0.566277
0.538295
0.995704
2.6505
0.43229
0.476759
0.553529
0.691749
0.996368
1.52541
2.24253
3.08791
3.99106
4.88738
5.72706
6.47942
7.13222
7.68803
8.16034
8.57175
8.95483
9.33564
9.80577
0.405037
0.385839
0.372208
0.362711
0.356321
0.351948
0.348865
0.346654
0.345171
0.344438
0.344095
0.343974
0.344141
0.344695
0.345367
0.346268
0.347346
0.348571
0.349965
0.351499
0.353186
0.35503
0.357033
0.35922
0.361586
0.364163
0.366951
0.369983
0.373267
10.3413
11.0861
11.8984
12.5995
13.043
13.2009
13.1708
12.9355
12.4517
11.7654
10.9003
9.88522
8.75931
7.58226
6.47574