/*--------------------------------*- C++ -*----------------------------------*\
  =========                 |
  \\      /  F ield         | OpenFOAM: The Open Source CFD Toolbox
   \\    /   O peration     | Website:  https://openfoam.org
    \\  /    A nd           | Version:  8
     \\/     M anipulation  |
\*---------------------------------------------------------------------------*/
FoamFile
{
    version     2.0;
    format      ascii;
    class       volScalarField;
    location    "0.03";
    object      alphat;
}
// * * * * * * * * * * * * * * * * * * * * * * * * * * * * * * * * * * * * * //

dimensions      [1 -1 -1 0 0 0 0];

internalField   nonuniform List<scalar> 
15677
(
0.000125606
0.000634952
0.00010742
0.00159055
0.000416845
0.000110627
0.00296494
0.000834054
0.000385368
0.000119658
0.00448779
0.0015277
0.000648351
0.000367303
0.000132361
0.00585839
0.00249218
0.00112079
0.000545735
0.000348728
0.000145705
0.00688622
0.00364715
0.0018546
0.000882741
0.000476254
0.000342099
0.000156635
0.0075194
0.00485713
0.00281588
0.00145277
0.000716029
0.000443212
0.000343133
0.000164664
0.00782468
0.00597614
0.00392677
0.00226185
0.00116009
0.000616722
0.000433072
0.000346542
0.000170317
0.00795348
0.00688351
0.0050689
0.00325851
0.00184082
0.000958629
0.000567567
0.000432099
0.000349838
0.00017469
0.00800188
0.00748801
0.00611111
0.00435315
0.00272968
0.00152974
0.000837462
0.000543738
0.000433551
0.000352853
0.000178477
0.00802153
0.0078136
0.00694256
0.0054332
0.00375949
0.00231768
0.00131316
0.000765522
0.000530798
0.000435598
0.00035631
0.000181482
0.0080274
0.00795009
0.00750938
0.00638354
0.00483533
0.00327601
0.00201882
0.0011754
0.000718977
0.0005225
0.000438972
0.000359713
0.000183983
0.00802761
0.00800117
0.00783047
0.00711464
0.00585115
0.00432431
0.00291072
0.00180663
0.00107883
0.000685078
0.000518126
0.000443045
0.000363197
0.000186127
0.00802771
0.00801596
0.00797664
0.00759066
0.00670818
0.00536645
0.00392394
0.00264089
0.00165404
0.00100554
0.000659881
0.000516849
0.00044782
0.000366918
0.00018783
0.00802794
0.00801886
0.00802603
0.0078585
0.00733904
0.00630318
0.00497008
0.00361772
0.00243814
0.0015359
0.00094638
0.000642121
0.00051808
0.000453417
0.000369855
0.00018931
0.00802822
0.00801941
0.00803614
0.00799001
0.0077141
0.00705317
0.00595144
0.00465602
0.00338023
0.00227657
0.00143726
0.000900244
0.00063023
0.000521693
0.000458526
0.00037269
0.000190365
0.00802848
0.00801965
0.00803707
0.00803172
0.00791918
0.00757255
0.00677792
0.00566143
0.00440526
0.00318582
0.00213932
0.00135611
0.000864059
0.000623969
0.000526105
0.000463197
0.000375077
0.00019117
0.00802872
0.00801991
0.0080367
0.00804281
0.00800725
0.00785195
0.00739048
0.00653985
0.00542242
0.00419479
0.0030186
0.00202395
0.00128923
0.000837125
0.000621549
0.000530642
0.000467737
0.000376761
0.000192056
0.00802894
0.0080202
0.00803642
0.00804512
0.00803853
0.00797914
0.00777611
0.00722036
0.00633627
0.00521628
0.00401076
0.00287483
0.00192554
0.0012338
0.000818989
0.000621043
0.000535926
0.000470607
0.000378452
0.000193073
0.00802915
0.00802048
0.00803634
0.00804533
0.00804887
0.00803156
0.00794941
0.00767571
0.00706885
0.00615513
0.00503268
0.00384965
0.00274981
0.00184267
0.001193
0.000806003
0.000623689
0.000538971
0.00047348
0.000380066
0.00019392
0.00802931
0.00802075
0.00803638
0.00804523
0.00805193
0.00805094
0.0080213
0.00790559
0.00758173
0.00692873
0.00599086
0.00486942
0.00370696
0.00264294
0.00177853
0.00116226
0.000799707
0.00062491
0.000543429
0.000476177
0.000381459
0.000194749
0.00802943
0.00802103
0.00803648
0.00804516
0.00805272
0.00805757
0.00804977
0.00800602
0.00785967
0.0074895
0.00679961
0.00584302
0.00472184
0.00358286
0.00255722
0.001728
0.0011416
0.00079528
0.000627812
0.000546638
0.000478419
0.000382519
0.000195375
0.00802952
0.00802129
0.00803658
0.00804517
0.00805287
0.00805963
0.00806018
0.00804824
0.00799203
0.00780552
0.00740278
0.0066833
0.00570627
0.00459093
0.00348097
0.00248939
0.00169077
0.00112802
0.000792977
0.000632377
0.000548886
0.000480212
0.000383464
0.000196132
0.0080296
0.0080215
0.00803668
0.00804522
0.00805289
0.00806018
0.00806377
0.00806499
0.00805376
0.00796988
0.00775392
0.00732736
0.00657309
0.00558188
0.00448123
0.00339998
0.00243847
0.00166673
0.00111814
0.000796046
0.000634144
0.000551665
0.000481694
0.000384182
0.00019664
0.00802967
0.00802167
0.00803677
0.00804528
0.0080529
0.00806029
0.00806494
0.00807109
0.00807995
0.00805046
0.00794558
0.00771381
0.00725531
0.00646916
0.00547507
0.00439337
0.00333863
0.00240438
0.00164946
0.00111782
0.0007977
0.000637298
0.000554212
0.000482824
0.000384834
0.000197409
0.00802973
0.00802182
0.00803686
0.00804534
0.00805293
0.00806028
0.00806531
0.00807315
0.00809028
0.00808751
0.00804421
0.00792562
0.0076794
0.00718409
0.00637818
0.00538966
0.00432725
0.00329725
0.00238215
0.00164583
0.0011196
0.000801006
0.000641668
0.000556061
0.000483839
0.00038556
0.000197866
0.00802978
0.00802195
0.00803694
0.00804541
0.00805297
0.00806027
0.00806543
0.00807383
0.00809414
0.00810345
0.00809235
0.0080412
0.00791148
0.0076425
0.00711636
0.00630139
0.00532366
0.00428203
0.00327226
0.00237518
0.00164827
0.00112392
0.000807066
0.000645366
0.000557989
0.000484753
0.000386007
0.000198622
0.00802983
0.00802207
0.00803703
0.00804549
0.00805301
0.00806027
0.0080655
0.00807409
0.00809559
0.00810985
0.0081146
0.00810031
0.00803907
0.00790036
0.00759615
0.00705472
0.00624197
0.00527812
0.004255
0.0032625
0.00237874
0.00165488
0.00113274
0.000814213
0.000649502
0.000559749
0.000485452
0.000386736
0.000199095
0.00802988
0.00802218
0.00803711
0.00804558
0.00805306
0.0080603
0.00806555
0.00807423
0.00809623
0.00811223
0.00812429
0.00812932
0.00810708
0.00803805
0.00787861
0.00755415
0.00701156
0.00620545
0.00525456
0.00424571
0.00326636
0.00238858
0.00166865
0.00114595
0.00082273
0.000653849
0.000561452
0.000486133
0.000387081
0.000199858
0.00802992
0.00802227
0.0080372
0.00804567
0.00805312
0.00806034
0.00806562
0.00807434
0.00809664
0.00811302
0.0081282
0.00814308
0.00814148
0.00810998
0.00803484
0.00785486
0.00753198
0.006991
0.00619004
0.00524955
0.00425282
0.00328256
0.00240834
0.00168961
0.00116223
0.000832426
0.000658529
0.00056307
0.000486664
0.000387766
0.000200511
0.00802996
0.00802236
0.00803727
0.00804578
0.00805317
0.0080604
0.00806569
0.00807443
0.00809699
0.00811329
0.00812952
0.00814947
0.00815816
0.00814637
0.00811578
0.00803175
0.00785108
0.00752626
0.00698593
0.00619089
0.00526075
0.00427433
0.00331035
0.00243862
0.00171686
0.00118134
0.000843476
0.000663394
0.000564759
0.000487257
0.000387981
0.00020113
0.00803
0.00802243
0.00803734
0.00804587
0.00805323
0.00806047
0.00806578
0.00807452
0.00809733
0.00811341
0.00812987
0.00815235
0.00816598
0.0081642
0.00815684
0.00812931
0.00804101
0.00785772
0.00753274
0.0069954
0.00620805
0.00528802
0.00431056
0.00335029
0.00247742
0.00175001
0.00120354
0.000855792
0.000668732
0.000566473
0.000487805
0.000388503
0.000201791
0.00803003
0.00802249
0.00803738
0.00804596
0.00805328
0.00806055
0.00806588
0.00807459
0.00809766
0.00811352
0.00812989
0.00815372
0.00816943
0.00817278
0.00817725
0.00817997
0.00814849
0.00805769
0.00787451
0.00755167
0.00702048
0.00624201
0.00533216
0.00436106
0.00340209
0.00252463
0.00178865
0.00122934
0.000869486
0.000674574
0.000568526
0.000488431
0.000389154
0.000202496
0.00803006
0.00802254
0.0080374
0.00804604
0.00805332
0.00806063
0.00806599
0.00807464
0.00809799
0.00811366
0.00812983
0.00815449
0.00817101
0.0081768
0.00818736
0.00820552
0.00820689
0.00817285
0.00808307
0.00790205
0.00758512
0.00706231
0.00629417
0.00539225
0.00442506
0.00346554
0.0025794
0.00183144
0.00125787
0.00088528
0.00068152
0.000570968
0.000489085
0.00038982
0.000203204
0.00802258
0.0080301
0.00803739
0.00804609
0.00805336
0.00806071
0.00806611
0.00807468
0.00809831
0.00811383
0.00812977
0.00815501
0.00817184
0.00817881
0.0081923
0.00821844
0.00823758
0.00823655
0.00820481
0.00811798
0.00794312
0.00763486
0.00712289
0.00636325
0.00546764
0.00450207
0.00353821
0.00263944
0.00187775
0.00128946
0.000903857
0.000689568
0.000573503
0.000489776
0.000390521
0.000203965
0.00803736
0.0080226
0.00803016
0.00804613
0.00805339
0.00806078
0.00806624
0.0080747
0.00809859
0.00811403
0.00812974
0.00815543
0.00817237
0.00817999
0.00819491
0.00822493
0.00825335
0.00827076
0.00827332
0.00824541
0.00816561
0.00800045
0.00770381
0.00720125
0.00644951
0.00555764
0.00459102
0.00361875
0.00270609
0.0019288
0.00132805
0.000925324
0.000697797
0.000576161
0.000490556
0.000391287
0.000204716
0.00804615
0.00803723
0.00802263
0.00803021
0.0080534
0.00806084
0.00806637
0.00807471
0.00809885
0.00811426
0.00812973
0.0081558
0.00817275
0.0081808
0.00819654
0.00822847
0.00826124
0.00828886
0.00831096
0.00831828
0.00829846
0.0082291
0.00807672
0.00779145
0.00729801
0.00655205
0.00566184
0.00469099
0.0037081
0.0027818
0.00199147
0.00137369
0.000948592
0.000706188
0.000579335
0.000491552
0.000392113
0.000205511
0.0080534
0.00804611
0.00803698
0.00802268
0.00803028
0.00806088
0.00806649
0.00807471
0.00809906
0.00811452
0.00812975
0.00815613
0.00817306
0.00818144
0.00819773
0.00823074
0.00826548
0.00829834
0.00833156
0.00835905
0.00837561
0.00836718
0.0083117
0.0081718
0.00789819
0.00741203
0.00667142
0.00577957
0.00480222
0.00380712
0.0028732
0.00206457
0.00142252
0.000973825
0.000716199
0.000582792
0.000492612
0.000392923
0.000206261
0.00806091
0.0080533
0.00804598
0.00803671
0.00802276
0.00803033
0.0080666
0.0080747
0.00809924
0.00811481
0.00812978
0.00815643
0.00817331
0.00818197
0.00819871
0.00823244
0.00826809
0.00830362
0.00834294
0.00838241
0.0084201
0.00844847
0.00845496
0.00841331
0.00828649
0.00802318
0.00754434
0.00680669
0.00591146
0.00492468
0.00392684
0.00298168
0.00214149
0.00147554
0.00100155
0.000727311
0.000586198
0.00049356
0.000393721
0.000207051
0.00806669
0.00806085
0.0080531
0.00804584
0.00803645
0.00802286
0.00803039
0.00807468
0.00809937
0.00811511
0.00812983
0.0081567
0.00817353
0.00818243
0.00819957
0.00823385
0.00826997
0.00830702
0.00834959
0.00839577
0.00844681
0.00849795
0.00854267
0.00856286
0.00853419
0.00841979
0.00816691
0.00769354
0.00695743
0.00605762
0.0050726
0.00407122
0.00309709
0.00222625
0.00153083
0.00103147
0.000738508
0.000589607
0.000494528
0.000394523
0.000207793
0.00807464
0.00806667
0.0080607
0.00805289
0.00804567
0.00803619
0.00802298
0.00803044
0.00809945
0.0081154
0.00812989
0.00815694
0.00817372
0.00818283
0.00820033
0.0082351
0.0082715
0.00830957
0.0083541
0.00840403
0.00846298
0.00852859
0.00859766
0.00865844
0.00869457
0.00867716
0.0085714
0.00832746
0.00785931
0.00712322
0.00623419
0.00525417
0.00422654
0.0032211
0.00231754
0.00158858
0.00106252
0.000750316
0.000593015
0.000495613
0.000395372
0.000208581
0.00809947
0.00807427
0.00806656
0.00806055
0.00805267
0.00804548
0.00803593
0.00802312
0.00803048
0.00811568
0.00812995
0.00815714
0.0081739
0.0081832
0.00820102
0.00823622
0.0082728
0.0083117
0.00835759
0.00840993
0.0084737
0.00854841
0.00863368
0.00872015
0.00879877
0.00884937
0.00884533
0.00874535
0.00850449
0.00804034
0.00732237
0.00644846
0.00544892
0.00439249
0.00335314
0.00241221
0.00164702
0.0010946
0.00076325
0.000596889
0.000496806
0.000396209
0.000209303
0.00811594
0.00809895
0.00807354
0.00806647
0.0080604
0.00805245
0.0080453
0.00803566
0.00802328
0.00803051
0.00813001
0.00815729
0.00817407
0.00818355
0.00820166
0.00823724
0.00827397
0.00831356
0.00836051
0.00841468
0.00848179
0.00856244
0.00865872
0.00876309
0.00886939
0.00896428
0.00903021
0.0090364
0.00894429
0.00870166
0.00825612
0.00756178
0.00667682
0.00565571
0.00456776
0.00349138
0.00251045
0.00170686
0.00112801
0.000776745
0.000600937
0.000498004
0.000397069
0.000210073
0.00813006
0.00811587
0.00809775
0.00807281
0.00806642
0.00806027
0.00805223
0.00804512
0.00803538
0.00802345
0.00803053
0.00815737
0.00817423
0.0081839
0.00820227
0.00823818
0.00827502
0.00831524
0.00836308
0.00841879
0.00848851
0.00857357
0.00867762
0.008795
0.00892175
0.00904623
0.00915881
0.00923665
0.00925297
0.00916599
0.00894647
0.00851776
0.00781544
0.00691703
0.00587164
0.00475014
0.00363466
0.00261176
0.00176983
0.00116249
0.000790653
0.000604848
0.000499163
0.000397906
0.000210764
0.00815739
0.00812948
0.00811542
0.00809644
0.00807211
0.0080664
0.00806014
0.00805202
0.00804495
0.00803511
0.00802364
0.00803054
0.00817436
0.00818423
0.00820286
0.00823907
0.00827601
0.00831677
0.00836537
0.00842246
0.00849437
0.00858309
0.00869327
0.00882043
0.00896328
0.00911076
0.00925567
0.0093821
0.00947229
0.00949483
0.00943732
0.00925033
0.00880778
0.0080801
0.00716498
0.00609397
0.00493824
0.00378187
0.00271605
0.00183453
0.00119786
0.0008048
0.000608868
0.000500476
0.000398777
0.000211506
0.00817452
0.0081565
0.00812819
0.00811501
0.00809504
0.00807147
0.00806641
0.00806001
0.00805182
0.00804478
0.00803486
0.00802386
0.00803055
0.00818454
0.00820342
0.00823989
0.00827694
0.00831818
0.00836744
0.00842578
0.0084996
0.00859157
0.00870694
0.00884221
0.00899802
0.00916485
0.00933659
0.00949765
0.00963906
0.00973695
0.00979318
0.00977259
0.00958053
0.00912292
0.0083613
0.0074194
0.00632119
0.00513011
0.00393197
0.0028225
0.00189943
0.00123386
0.000819516
0.000613151
0.000501796
0.000399618
0.000212157
0.00818485
0.00817423
0.0081544
0.00812697
0.00811461
0.00809353
0.00807091
0.00806645
0.00805989
0.00805163
0.00804458
0.00803461
0.00802409
0.00803055
0.00820394
0.00824063
0.00827782
0.00831951
0.00836936
0.00842882
0.00850433
0.00859924
0.00871921
0.00886169
0.00902866
0.00921185
0.00940807
0.00959946
0.00977871
0.0099298
0.0100661
0.0101646
0.0101404
0.00993565
0.00945695
0.00866021
0.00767852
0.00655105
0.00532368
0.00408368
0.00293013
0.00196503
0.00126956
0.000834544
0.00061757
0.000503144
0.000400479
0.000212861
0.00820447
0.00818446
0.00817343
0.00815217
0.00812584
0.00811419
0.00809192
0.00807043
0.0080665
0.00805975
0.00805144
0.00804437
0.00803435
0.00802434
0.00803056
0.00824129
0.00827864
0.00832076
0.00837115
0.00843163
0.00850865
0.00860624
0.00873034
0.00887943
0.00905645
0.00925435
0.00947253
0.00969329
0.00990787
0.0100998
0.0102953
0.0104803
0.0105762
0.0105396
0.0103142
0.00980619
0.00897328
0.00794414
0.00678118
0.00551768
0.00423611
0.00303833
0.00203164
0.00130476
0.000849668
0.000622052
0.000504534
0.00040131
0.000213466
0.00824191
0.00820373
0.00818305
0.00817267
0.00814985
0.0081248
0.00811372
0.00809023
0.00807001
0.00806656
0.00805961
0.00805126
0.00804415
0.00803408
0.00802459
0.00803057
0.00827938
0.00832189
0.00837282
0.00843425
0.00851262
0.00861266
0.0087405
0.0088957
0.00908195
0.00929363
0.00953219
0.0097801
0.0100317
0.010265
0.0105087
0.0107608
0.0109452
0.0110294
0.0109711
0.0107161
0.0101702
0.00929669
0.00821948
0.00701201
0.00571132
0.00438844
0.00314657
0.00209865
0.00133919
0.000864824
0.000626586
0.000505903
0.000402138
0.000214125
0.00828016
0.00824057
0.00820131
0.0081818
0.00817182
0.00814748
0.00812387
0.00811316
0.00808848
0.00806968
0.00806662
0.00805945
0.00805108
0.00804393
0.00803383
0.00802483
0.00803059
0.00832292
0.00837434
0.00843668
0.0085163
0.00861857
0.00874981
0.00891066
0.00910544
0.00933024
0.00958802
0.00986179
0.0101502
0.0104308
0.0107255
0.0110364
0.0112938
0.0114702
0.0115322
0.0114401
0.0111434
0.0105492
0.00962711
0.00850141
0.00724273
0.00590403
0.00453949
0.00325428
0.00216546
0.00137375
0.000879955
0.000631119
0.000507305
0.000402948
0.000214682
0.00832401
0.00827865
0.00823678
0.00819911
0.00818062
0.00817077
0.0081451
0.00812302
0.00811249
0.00808669
0.00806941
0.00806668
0.00805929
0.00805091
0.00804371
0.00803359
0.00802506
0.0080306
0.00837573
0.00843887
0.0085197
0.00862402
0.00875838
0.00892444
0.00912712
0.00936441
0.00964037
0.00993952
0.0102652
0.0105941
0.0109482
0.0113309
0.0116629
0.0119226
0.0120778
0.0120988
0.0119537
0.0115989
0.0109436
0.00996436
0.00878797
0.00747304
0.0060937
0.0046886
0.00336091
0.00223184
0.00140813
0.000894955
0.000635644
0.000508673
0.000403725
0.000215291
0.00837719
0.00832217
0.00827429
0.00823308
0.00819701
0.00817953
0.00816949
0.00814272
0.00812226
0.00811167
0.0080849
0.00806921
0.00806673
0.00805912
0.00805075
0.00804348
0.00803337
0.00802529
0.00803062
0.00844086
0.00852276
0.00862903
0.00876626
0.00893714
0.00914718
0.00939628
0.00968944
0.0100139
0.0103771
0.0107542
0.0111701
0.0116548
0.0120977
0.0124522
0.0126918
0.0127932
0.0127414
0.0125169
0.0120843
0.0113534
0.0103082
0.00907756
0.00770626
0.00628063
0.00483531
0.00346602
0.00229751
0.00144179
0.000909762
0.000640114
0.000510055
0.000404512
0.000215797
0.00844294
0.00837481
0.0083167
0.00827019
0.00822936
0.00819501
0.00817858
0.00816796
0.00814036
0.00812158
0.00811067
0.00808313
0.00806907
0.00806677
0.00805896
0.00805059
0.00804324
0.00803318
0.00802552
0.00803063
0.00852555
0.00863353
0.00877347
0.0089488
0.0091657
0.00942593
0.00973542
0.010085
0.0104852
0.0109103
0.0113948
0.0120145
0.012634
0.0131337
0.013462
0.013624
0.0136216
0.0134588
0.0131276
0.0125978
0.0117777
0.0106579
0.00936742
0.00794057
0.0064648
0.00497926
0.00356927
0.00236215
0.00147485
0.00092432
0.000644531
0.000511388
0.000405233
0.000216271
0.00852842
0.0084398
0.00836773
0.00831151
0.00826617
0.00822563
0.00819306
0.00817768
0.00816618
0.00813806
0.00812096
0.00810945
0.00808143
0.008069
0.00806678
0.0080588
0.0080504
0.00804299
0.00803299
0.00802574
0.00803064
0.0086376
0.00877995
0.00895943
0.00918275
0.00945342
0.00977848
0.0101527
0.0105887
0.0110628
0.0116303
0.0124244
0.0132727
0.013995
0.0144564
0.0146672
0.014685
0.0145347
0.0142323
0.0137748
0.0131337
0.0122135
0.0110119
0.00965694
0.0081744
0.00664597
0.00512017
0.00367038
0.00242551
0.00150725
0.000938588
0.000648857
0.00051273
0.000405873
0.000216634
0.00864166
0.00852397
0.0084304
0.00836101
0.00830638
0.00826217
0.00822187
0.00819118
0.00817681
0.00816415
0.00813584
0.00812042
0.0081079
0.00807986
0.00806899
0.00806676
0.00805865
0.00805021
0.00804275
0.00803281
0.00802593
0.00803065
0.00878581
0.008969
0.00919833
0.00947878
0.00981865
0.0102166
0.0106871
0.0112134
0.0118826
0.012886
0.0139909
0.0149592
0.0156231
0.0159279
0.0159539
0.0157938
0.0154801
0.0150302
0.0144407
0.0136828
0.0126567
0.0113681
0.00994527
0.00840648
0.00682376
0.00525784
0.00376901
0.00248739
0.00153893
0.000952526
0.000653092
0.00051383
0.000406408
0.000217107
0.00879152
0.00863535
0.00851091
0.00842148
0.00835439
0.00830127
0.00825817
0.00821808
0.00818935
0.00817593
0.00816188
0.00813374
0.00812003
0.00810612
0.00807844
0.00806904
0.00806671
0.0080585
0.00805
0.00804253
0.00803263
0.00802609
0.00803066
0.00897762
0.00921241
0.00950201
0.00985594
0.0102766
0.0107805
0.0113637
0.0121526
0.0133832
0.0147382
0.0159261
0.0167784
0.0172474
0.0173491
0.0171875
0.0168625
0.0164016
0.0158179
0.0151052
0.0142338
0.013102
0.0117242
0.0102313
0.00863575
0.00699777
0.00539176
0.00386486
0.00254763
0.0015698
0.000966093
0.000656663
0.000514802
0.000406979
0.000217544
0.00898581
0.00878291
0.00861703
0.00849849
0.00841274
0.0083478
0.00829616
0.00825414
0.00821429
0.00818758
0.00817502
0.00815938
0.0081318
0.00811973
0.00810422
0.00807717
0.00806914
0.00806664
0.00805835
0.00804978
0.00804231
0.00803247
0.00802621
0.00803067
0.00922516
0.00952312
0.0098903
0.0103324
0.0108693
0.0115146
0.0124352
0.01389
0.0154579
0.0168065
0.017789
0.018394
0.0186475
0.0185784
0.0182748
0.0178277
0.0172561
0.0165665
0.0157497
0.0147762
0.0135438
0.0120773
0.0105137
0.00886128
0.00716841
0.00552136
0.00395773
0.00260609
0.00159978
0.000977528
0.000659776
0.000515839
0.000407632
0.000218132
0.00923708
0.00897491
0.00875751
0.00859944
0.00848638
0.0084041
0.00834121
0.00829102
0.00825006
0.00821053
0.00818584
0.00817409
0.00815669
0.00813009
0.00811943
0.00810225
0.00807604
0.00806928
0.00806654
0.00805819
0.00804955
0.00804211
0.00803233
0.0080263
0.00803067
0.0095423
0.00992173
0.0103839
0.0109538
0.0116654
0.0127218
0.0143801
0.0161068
0.0175458
0.0185895
0.0192716
0.0196456
0.0197396
0.019564
0.0191779
0.0186594
0.0180189
0.0172567
0.0163604
0.0153008
0.0139768
0.0124249
0.0107913
0.00908196
0.00733621
0.00564677
0.00404752
0.00266265
0.001625
0.000987418
0.000663282
0.000517035
0.000408328
0.000218643
0.00955993
0.00922301
0.0089403
0.00873295
0.0085823
0.00847448
0.00839551
0.00833462
0.00828585
0.00824591
0.00820688
0.00818415
0.00817314
0.0081539
0.00812862
0.00811908
0.00810026
0.00807507
0.00806944
0.00806642
0.00805803
0.0080493
0.00804191
0.00803225
0.00802636
0.00803068
0.00995042
0.0104314
0.0110343
0.0118143
0.0130031
0.0148339
0.0166617
0.0181266
0.0191706
0.0198732
0.020315
0.020536
0.0205404
0.0203174
0.0199001
0.0193541
0.0186825
0.0178794
0.0169287
0.0158009
0.0143969
0.0127647
0.0110629
0.0092968
0.00750032
0.00576801
0.0041341
0.00271007
0.00164679
0.000998469
0.000667264
0.000518313
0.000409098
0.000219372
0.00997649
0.00954238
0.00917652
0.00890658
0.00870895
0.0085655
0.00846275
0.00838693
0.008328
0.00828066
0.00824164
0.00820344
0.00818248
0.00817216
0.00815115
0.00812738
0.00811866
0.00809828
0.00807427
0.0080696
0.00806628
0.00805784
0.00804904
0.00804179
0.00803224
0.00802638
0.00803068
0.0104751
0.0111108
0.0119593
0.0132712
0.0152394
0.0171167
0.0185568
0.0195561
0.0202356
0.0206991
0.0209975
0.0211389
0.0211069
0.0208777
0.0204649
0.0199238
0.0192506
0.0184333
0.0174509
0.0162727
0.0148014
0.0130952
0.0113276
0.0095056
0.00766018
0.00588509
0.00420662
0.00275092
0.00167109
0.00101087
0.000671763
0.000519802
0.000409936
0.000219961
0.0105147
0.00995352
0.00948059
0.00913086
0.00887359
0.00868537
0.00854903
0.00845116
0.00837836
0.00832137
0.00827544
0.00823716
0.00820022
0.00818087
0.00817111
0.0081485
0.00812633
0.00811813
0.0080963
0.00807361
0.00806975
0.00806613
0.00805763
0.0080489
0.00804176
0.00803223
0.00802638
0.00803067
0.0111835
0.0120984
0.0135205
0.015592
0.0174774
0.0188574
0.0197826
0.0204101
0.0208612
0.0211958
0.0214257
0.0215357
0.0214994
0.021288
0.0209019
0.020387
0.0197333
0.0189223
0.0179275
0.0167151
0.0151885
0.0134152
0.0115849
0.00970841
0.00781569
0.00598355
0.00426903
0.00279637
0.00169828
0.00102479
0.000676889
0.000521433
0.000410842
0.000220862
0.01125
0.0104858
0.00987178
0.00941938
0.00908609
0.00884114
0.00866219
0.00853284
0.00843969
0.00836978
0.00831472
0.0082702
0.00823256
0.00819725
0.00817938
0.00816983
0.00814597
0.00812545
0.0081175
0.0080944
0.00807304
0.00806989
0.00806593
0.00805752
0.00804887
0.00804174
0.00803223
0.00802636
0.00803067
0.0122302
0.0137481
0.0158922
0.0177549
0.019053
0.019888
0.020446
0.0208617
0.0212014
0.0214808
0.0216859
0.0217906
0.0217668
0.021586
0.0212391
0.0207635
0.0201434
0.0193537
0.0183617
0.017129
0.0155583
0.0137248
0.0118351
0.00990579
0.00794751
0.00606843
0.00433834
0.00284704
0.00172876
0.00104043
0.000682827
0.000523358
0.000411885
0.000221536
0.0123484
0.011215
0.0103739
0.00979069
0.00935913
0.00904202
0.00880921
0.0086394
0.00851694
0.00842832
0.0083612
0.00830807
0.00826495
0.00822802
0.00819457
0.00817808
0.00816833
0.0081436
0.00812469
0.00811675
0.00809259
0.00807254
0.00807
0.00806584
0.00805753
0.00804886
0.00804174
0.00803223
0.0080263
0.00803066
0.0139526
0.0161439
0.0179627
0.019167
0.0199051
0.020385
0.0207503
0.0210722
0.0213707
0.021634
0.0218356
0.0219476
0.0219448
0.0218011
0.0215001
0.0210714
0.020494
0.0197362
0.0187585
0.0175168
0.015912
0.0140247
0.0120792
0.0100734
0.00806142
0.00616272
0.00441548
0.00290368
0.00176312
0.001058
0.000689614
0.000525507
0.000412975
0.000222646
0.0123103
0.014128
0.0110498
0.0102651
0.00971058
0.00929975
0.00899861
0.0087778
0.00861705
0.00850131
0.00841706
0.00835264
0.00830147
0.00825983
0.00822365
0.00819215
0.00817701
0.00816666
0.00814139
0.00812401
0.00811589
0.00809089
0.00807199
0.00807015
0.00806587
0.00805753
0.00804885
0.00804176
0.00803225
0.00802621
0.00803065
0.0163525
0.0181142
0.0192202
0.0198602
0.0202591
0.0205648
0.0208522
0.0211456
0.0214374
0.0217022
0.02191
0.0220352
0.0220581
0.0219553
0.021704
0.0213269
0.020798
0.0200793
0.0191242
0.0178823
0.0162515
0.0143164
0.0122867
0.010218
0.00818794
0.00626763
0.00450154
0.00296718
0.00180206
0.00107772
0.00069754
0.000528056
0.000414327
0.000223423
0.0120658
0.0140831
0.0165233
0.0108908
0.0101591
0.00963125
0.00924123
0.00895586
0.00874695
0.00859515
0.00848597
0.0084059
0.00834416
0.00829508
0.00825497
0.00821939
0.00818995
0.00817608
0.00816488
0.00813936
0.00812338
0.00811494
0.00808919
0.0080717
0.0080703
0.0080659
0.00805753
0.00804887
0.00804179
0.00803233
0.00802609
0.00803064
0.0182215
0.0192292
0.0197738
0.020092
0.0203332
0.0205738
0.0208426
0.0211378
0.0214378
0.0217114
0.0219294
0.0220718
0.0221239
0.0220649
0.0218661
0.0215437
0.0210668
0.0203918
0.0194652
0.0182297
0.0165793
0.0145631
0.0124647
0.0103777
0.00832858
0.00638461
0.00459781
0.00303862
0.00184638
0.00109997
0.000706594
0.000530954
0.00041568
0.000224785
0.0118188
0.0137688
0.0164582
0.0182922
0.0107402
0.0100547
0.00955278
0.0091836
0.00891383
0.00871672
0.00857374
0.00847089
0.00839489
0.00833598
0.00828901
0.00825042
0.00821527
0.00818799
0.00817525
0.00816301
0.00813748
0.00812277
0.00811379
0.00808815
0.00807168
0.00807036
0.0080659
0.00805752
0.00804889
0.00804191
0.00803247
0.00802592
0.00803063
0.0192074
0.0196614
0.0199012
0.0200756
0.0202607
0.0204891
0.0207658
0.0210757
0.0213898
0.0216751
0.0219063
0.0220693
0.0221546
0.0221425
0.0219987
0.0217331
0.0213106
0.0206821
0.0197873
0.018562
0.0168535
0.0147729
0.0126599
0.0105542
0.00848511
0.00651536
0.00470587
0.00311934
0.00189692
0.00112542
0.0007172
0.00053441
0.000417499
0.000225712
0.0115823
0.0134154
0.016198
0.0181824
0.0191594
0.0105958
0.00995135
0.00947534
0.00912695
0.00887261
0.00868716
0.00855286
0.00845619
0.00838432
0.00832825
0.00828326
0.00824615
0.00821135
0.00818626
0.00817448
0.0081611
0.00813574
0.00812197
0.00811318
0.00808783
0.0080717
0.00807036
0.00806587
0.00805752
0.00804904
0.00804211
0.00803264
0.00802573
0.00803062
0.019534
0.0196993
0.0198063
0.0199302
0.020106
0.0203453
0.0206415
0.0209716
0.0213023
0.0216013
0.0218485
0.0220363
0.0221592
0.0221978
0.0221118
0.021905
0.0215381
0.0209568
0.0200944
0.0188368
0.0170837
0.0149999
0.0128735
0.0107493
0.00865961
0.00666195
0.00482765
0.00321083
0.00195491
0.00115452
0.000729417
0.000538402
0.000419252
0.000227376
0.0113587
0.0130547
0.0158502
0.0180557
0.0189903
0.0193909
0.0104561
0.00984904
0.00939915
0.00907136
0.00883228
0.00865829
0.00853266
0.00844222
0.00837436
0.00832097
0.00827784
0.00824211
0.00820772
0.00818472
0.00817373
0.00815913
0.00813385
0.00812158
0.00811313
0.00808771
0.0080717
0.0080703
0.00806583
0.00805763
0.0080493
0.00804231
0.00803281
0.00802551
0.0080306
0.0194949
0.0195358
0.0195948
0.019709
0.0198956
0.0201562
0.0204779
0.0208314
0.0211802
0.0214948
0.0217617
0.0219795
0.0221452
0.0222387
0.0222134
0.022067
0.0217557
0.0212199
0.0203467
0.0190646
0.0173285
0.0152449
0.0131071
0.0109651
0.00885446
0.00682674
0.00496498
0.00331494
0.00202156
0.00118838
0.000744066
0.00054326
0.000421778
0.000228551
0.0111468
0.0127008
0.0154491
0.0178454
0.0189411
0.0191646
0.0192789
0.0103198
0.00974798
0.0093244
0.00901697
0.00879294
0.00863037
0.00851365
0.0084292
0.008365
0.00831412
0.00827274
0.00823826
0.00820438
0.00818336
0.00817303
0.00815672
0.0081328
0.00812162
0.00811313
0.00808771
0.00807168
0.00807015
0.00806592
0.00805785
0.00804955
0.00804253
0.00803299
0.00802528
0.00803059
0.0192709
0.0192642
0.0193106
0.0194323
0.0196386
0.0199274
0.0202793
0.0206585
0.0210266
0.0213593
0.0216507
0.0219042
0.0221184
0.0222715
0.0223102
0.0222249
0.0219669
0.021436
0.0205535
0.0193019
0.0175877
0.0155086
0.0133625
0.011204
0.0090723
0.00701333
0.00512025
0.00343382
0.00209881
0.00122765
0.000761155
0.000548844
0.000424144
0.000230575
0.0109452
0.0123598
0.0150156
0.0175781
0.0188263
0.0191261
0.0190014
0.018994
0.0101866
0.00964847
0.00925132
0.00896391
0.00875494
0.00860417
0.0084961
0.00841706
0.00835623
0.0083077
0.00826797
0.00823458
0.0082014
0.00818212
0.00817202
0.00815546
0.00813266
0.00812168
0.00811313
0.00808783
0.0080717
0.00806999
0.00806613
0.00805803
0.00804979
0.00804276
0.00803318
0.00802506
0.00803057
0.0189443
0.0189202
0.0189685
0.0191048
0.0193386
0.0196629
0.0200493
0.0204554
0.0208441
0.0211982
0.0215195
0.0218153
0.022084
0.0223017
0.0224068
0.0223815
0.0221415
0.0216119
0.0207652
0.019548
0.0178612
0.0157921
0.0136414
0.0114684
0.00931568
0.00722542
0.00529662
0.00357027
0.00218843
0.00127425
0.000781575
0.000555981
0.000427603
0.000232538
0.010753
0.0120341
0.0145602
0.017264
0.0186756
0.0190369
0.0189361
0.0186703
0.0186093
0.0100564
0.00955082
0.00918012
0.00891268
0.00871932
0.00858008
0.0084799
0.00840577
0.00834806
0.00830171
0.0082635
0.00823099
0.00819873
0.00818025
0.00817153
0.00815558
0.00813259
0.00812167
0.00811313
0.00808815
0.00807199
0.00806989
0.00806628
0.0080582
0.00805001
0.008043
0.00803338
0.00802483
0.00803056
0.0185441
0.0185148
0.0185691
0.0187286
0.019
0.0193673
0.0197908
0.020224
0.0206346
0.0210145
0.0213722
0.0217171
0.0220466
0.0223333
0.0225055
0.0225122
0.022283
0.0217889
0.0209805
0.019802
0.0181488
0.0160961
0.0139455
0.0117607
0.00958746
0.00746635
0.00549775
0.00372743
0.0022936
0.00132909
0.000806303
0.00056402
0.000431966
0.000235804
0.0105698
0.0117222
0.0140896
0.0169054
0.0185006
0.0189306
0.0188268
0.0185645
0.0182411
0.0181487
0.00992917
0.00945545
0.00911153
0.00886469
0.00868663
0.00855799
0.00846496
0.00839528
0.00834045
0.00829611
0.0082593
0.00822744
0.00819548
0.0081795
0.00817151
0.00815554
0.00813259
0.00812162
0.00811318
0.0080892
0.00807255
0.00806974
0.00806642
0.00805835
0.00805022
0.00804325
0.0080336
0.00802458
0.00803055
0.0180783
0.0180437
0.0181133
0.0183089
0.0186295
0.0190446
0.0195055
0.0199656
0.0204001
0.0208112
0.0212124
0.0216133
0.0220096
0.0223683
0.0225891
0.0226178
0.0224227
0.0219654
0.0211982
0.0200631
0.0184504
0.0164212
0.0142764
0.0120835
0.00989105
0.00773985
0.00572776
0.00390949
0.0024169
0.00139551
0.000836091
0.000576882
0.000437928
0.00023841
0.0103958
0.0114249
0.0136121
0.0165002
0.0183034
0.018822
0.018711
0.0184162
0.0180932
0.0177348