/*--------------------------------*- C++ -*----------------------------------*\
  =========                 |
  \\      /  F ield         | OpenFOAM: The Open Source CFD Toolbox
   \\    /   O peration     | Website:  https://openfoam.org
    \\  /    A nd           | Version:  8
     \\/     M anipulation  |
\*---------------------------------------------------------------------------*/
FoamFile
{
    version     2.0;
    format      ascii;
    class       volScalarField;
    location    "0.03";
    object      T;
}
// * * * * * * * * * * * * * * * * * * * * * * * * * * * * * * * * * * * * * //

dimensions      [0 0 0 1 0 0 0];

internalField   nonuniform List<scalar> 
15677
(
301.023
301.009
302.255
301.005
302.245
302.21
301.004
302.24
302.234
301.554
301.005
302.236
302.249
301.629
301.192
301.007
302.232
302.257
301.682
301.2
301.246
301.009
302.228
302.259
301.715
301.203
301.22
301.559
301.011
302.224
302.259
301.736
301.204
301.197
301.495
301.727
301.013
302.22
302.258
301.748
301.207
301.178
301.43
301.714
301.714
301.014
302.217
302.255
301.755
301.21
301.165
301.374
301.696
301.719
301.577
301.015
302.214
302.253
301.76
301.215
301.159
301.335
301.677
301.727
301.623
301.39
301.016
302.212
302.25
301.764
301.219
301.158
301.313
301.66
301.736
301.663
301.423
301.323
301.016
302.211
302.248
301.766
301.224
301.159
301.302
301.645
301.741
301.695
301.47
301.329
301.325
301.016
302.21
302.247
301.767
301.229
301.161
301.296
301.634
301.743
301.715
301.523
301.34
301.318
301.37
301.016
302.21
302.246
301.768
301.233
301.164
301.293
301.625
301.743
301.726
301.57
301.358
301.309
301.344
301.425
301.016
302.21
302.245
301.768
301.236
301.167
301.292
301.618
301.74
301.73
301.602
301.378
301.299
301.321
301.406
301.43
301.017
302.21
302.245
301.768
301.238
301.17
301.292
301.612
301.737
301.731
301.621
301.396
301.293
301.3
301.375
301.426
301.412
301.017
302.21
302.244
301.768
301.24
301.172
301.292
301.607
301.733
301.729
301.63
301.41
301.292
301.281
301.334
301.417
301.417
301.338
301.017
302.21
302.244
301.767
301.241
301.174
301.293
301.604
301.729
301.727
301.635
301.421
301.294
301.268
301.3
301.4
301.419
301.37
301.151
301.017
302.21
302.244
301.767
301.241
301.175
301.294
301.601
301.726
301.724
301.638
301.429
301.298
301.26
301.278
301.369
301.421
301.396
301.236
300.907
301.017
302.21
302.244
301.766
301.241
301.176
301.295
301.599
301.723
301.721
301.638
301.435
301.302
301.258
301.266
301.336
301.419
301.414
301.319
301.015
300.685
301.017
302.21
302.243
301.766
301.241
301.176
301.296
301.598
301.721
301.719
301.638
301.44
301.307
301.258
301.261
301.312
301.409
301.425
301.377
301.147
300.796
300.502
301.017
302.209
302.243
301.766
301.241
301.177
301.296
301.598
301.719
301.717
301.637
301.444
301.311
301.26
301.259
301.299
301.397
301.432
301.412
301.278
300.939
300.603
300.361
301.017
302.209
302.243
301.765
301.241
301.177
301.297
301.599
301.718
301.715
301.637
301.447
301.316
301.263
301.26
301.292
301.385
301.433
301.429
301.365
301.1
300.739
300.445
300.257
301.017
302.209
302.243
301.765
301.241
301.177
301.298
301.599
301.718
301.714
301.636
301.45
301.32
301.266
301.261
301.289
301.375
301.429
301.436
301.408
301.251
300.903
300.564
300.323
300.185
301.017
302.209
302.242
301.764
301.241
301.177
301.298
301.599
301.718
301.714
301.635
301.45
301.323
301.269
301.264
301.287
301.367
301.423
301.436
301.425
301.346
301.069
300.714
300.421
300.234
300.136
301.016
302.208
302.242
301.764
301.241
301.177
301.298
301.6
301.717
301.713
301.634
301.451
301.325
301.272
301.266
301.288
301.362
301.417
301.433
301.429
301.386
301.205
300.874
300.548
300.309
300.17
300.109
301.016
302.208
302.241
301.763
301.241
301.177
301.299
301.6
301.717
301.713
301.633
301.45
301.326
301.274
301.269
301.289
301.357
301.411
301.428
301.427
301.401
301.288
301.014
300.692
300.412
300.225
300.128
300.098
301.016
302.207
302.241
301.762
301.24
301.177
301.299
301.6
301.717
301.712
301.632
301.45
301.326
301.276
301.271
301.29
301.354
301.405
301.422
301.423
301.403
301.325
301.11
300.822
300.532
300.303
300.164
300.104
300.099
301.016
302.207
302.24
301.761
301.239
301.176
301.299
301.6
301.716
301.712
301.632
301.449
301.327
301.277
301.272
301.291
301.353
301.4
301.415
301.417
301.4
301.336
301.164
300.917
300.647
300.4
300.221
300.123
300.095
300.109
301.015
302.207
302.24
301.76
301.238
301.176
301.299
301.6
301.716
301.711
301.631
301.448
301.327
301.278
301.273
301.292
301.352
301.395
301.409
301.411
301.394
301.337
301.189
300.975
300.734
300.495
300.294
300.16
300.098
300.096
300.141
301.015
302.206
302.239
301.759
301.236
301.174
301.298
301.6
301.715
301.711
301.629
301.447
301.326
301.278
301.274
301.294
301.351
301.392
301.404
301.404
301.387
301.333
301.198
301.006
300.791
300.572
300.371
300.212
300.117
300.087
300.109
300.191
301.014
302.207
302.239
301.758
301.234
301.173
301.297
301.6
301.715
301.71
301.628
301.446
301.326
301.278
301.275
301.295
301.352
301.39
301.399
301.398
301.38
301.325
301.197
301.021
300.824
300.624
300.435
300.271
300.151
300.088
300.086
300.142
300.242
301.014
302.207
302.239
301.757
301.232
301.171
301.296
301.599
301.714
301.709
301.627
301.444
301.325
301.279
301.276
301.296
301.353
301.389
301.396
301.393
301.373
301.316
301.192
301.026
300.843
300.657
300.481
300.323
300.194
300.106
300.07
300.095
300.183
300.294
301.013
302.208
302.24
301.756
301.23
301.169
301.295
301.599
301.714
301.709
301.626
301.443
301.324
301.278
301.276
301.297
301.354
301.388
301.394
301.39
301.366
301.306
301.183
301.025
300.853
300.678
300.512
300.362
300.234
300.135
300.071
300.064
300.118
300.226
300.344
302.21
301.01
302.24
301.756
301.229
301.168
301.293
301.598
301.713
301.708
301.624
301.441
301.323
301.278
301.276
301.298
301.355
301.388
301.393
301.387
301.361
301.296
301.172
301.02
300.856
300.69
300.533
300.39
300.267
300.165
300.086
300.047
300.066
300.148
300.27
300.391
302.241
302.21
301.005
301.757
301.227
301.166
301.292
301.598
301.713
301.707
301.623
301.439
301.321
301.277
301.276
301.299
301.356
301.387
301.392
301.385
301.356
301.288
301.161
301.012
300.854
300.697
300.547
300.411
300.292
300.192
300.107
300.049
300.035
300.075
300.182
300.313
300.435
301.757
302.244
302.209
300.999
301.225
301.164
301.291
301.598
301.713
301.707
301.621
301.437
301.319
301.276
301.275
301.299
301.356
301.387
301.391
301.383
301.353
301.28
301.15
301.002
300.849
300.698
300.556
300.425
300.311
300.213
300.127
300.06
300.025
300.032
300.095
300.217
300.353
300.475
301.224
301.763
302.249
302.209
300.993
301.163
301.29
301.598
301.713
301.706
301.62
301.435
301.317
301.274
301.274
301.299
301.357
301.387
301.39
301.381
301.349
301.272
301.14
300.991
300.841
300.696
300.559
300.435
300.325
300.23
300.145
300.075
300.029
300.011
300.034
300.118
300.251
300.391
300.512
301.162
301.225
301.775
302.254
302.209
300.986
301.289
301.598
301.713
301.706
301.619
301.432
301.315
301.272
301.273
301.299
301.357
301.387
301.389
301.38
301.345
301.264
301.129
300.98
300.831
300.689
300.559
300.441
300.336
300.244
300.16
300.09
300.039
300.008
300.006
300.042
300.145
300.285
300.427
300.546
301.288
301.16
301.229
301.787
302.26
302.209
300.979
301.599
301.714
301.706
301.618
301.43
301.312
301.27
301.272
301.298
301.358
301.387
301.389
301.378
301.342
301.257
301.118
300.968
300.819
300.68
300.554
300.442
300.342
300.255
300.173
300.103
300.05
300.014
299.997
300.006
300.057
300.173
300.318
300.46
300.576
301.599
301.284
301.158
301.233
301.8
302.267
302.209
300.972
301.715
301.707
301.618
301.428
301.31
301.268
301.27
301.297
301.358
301.387
301.389
301.377
301.339
301.249
301.107
300.955
300.807
300.669
300.547
300.439
300.345
300.263
300.184
300.115
300.062
300.023
299.999
299.993
300.009
300.077
300.2
300.349
300.49
300.604
301.717
301.596
301.276
301.155
301.236
301.814
302.273
302.209
300.964
301.707
301.618
301.427
301.307
301.266
301.268
301.296
301.358
301.387
301.388
301.376
301.336
301.241
301.095
300.942
300.793
300.657
300.537
300.433
300.344
300.266
300.192
300.126
300.073
300.034
300.006
299.992
299.993
300.019
300.099
300.228
300.378
300.518
300.629
301.708
301.718
301.589
301.268
301.151
301.24
301.828
302.28
302.209
300.956
301.618
301.426
301.305
301.264
301.266
301.295
301.358
301.387
301.388
301.375
301.333
301.234
301.084
300.928
300.778
300.643
300.526
300.425
300.339
300.266
300.197
300.134
300.084
300.045
300.016
299.997
299.99
299.997
300.036
300.123
300.255
300.405
300.543
300.651
301.618
301.711
301.719
301.581
301.26
301.148
301.244
301.843
302.287
302.208
300.948
301.425
301.304
301.262
301.264
301.294
301.358
301.387
301.388
301.375
301.33
301.227
301.073
300.914
300.763
300.629
300.513
300.415
300.333
300.264
300.198
300.14
300.093
300.055
300.026
300.006
299.994
299.992
300.006
300.055
300.146
300.28
300.43
300.566
300.671
301.424
301.624
301.715
301.72
301.573
301.251
301.144
301.247
301.859
302.294
302.208
300.94
301.302
301.26
301.262
301.293
301.357
301.387
301.388
301.374
301.328
301.221
301.063
300.9
300.748
300.613
300.499
300.403
300.324
300.259
300.197
300.143
300.1
300.064
300.036
300.016
300.002
299.995
299.998
300.023
300.076
300.17
300.304
300.453
300.587
300.689
301.301
301.429
301.634
301.72
301.722
301.564
301.242
301.14
301.252
301.875
302.301
302.207
300.931
301.259
301.261
301.292
301.358
301.388
301.388
301.374
301.326
301.216
301.055
300.888
300.733
300.598
300.484
300.391
300.315
300.252
300.194
300.144
300.105
300.073
300.047
300.026
300.012
300.002
299.999
300.011
300.041
300.098
300.193
300.327
300.475
300.606
300.706
301.258
301.303
301.44
301.644
301.725
301.723
301.554
301.232
301.135
301.256
301.891
302.308
302.207
300.922
301.26
301.291
301.358
301.388
301.388
301.373
301.325
301.211
301.046
300.877
300.72
300.583
300.469
300.377
300.304
300.244
300.19
300.143
300.107
300.079
300.056
300.037
300.022
300.012
300.006
300.01
300.028
300.061
300.12
300.215
300.348
300.494
300.623
300.721
301.26
301.257
301.308
301.452
301.654
301.73
301.724
301.543
301.222
301.13
301.26
301.909
302.315
302.205
300.913
301.291
301.359
301.389
301.389
301.373
301.323
301.206
301.039
300.867
300.707
300.569
300.455
300.364
300.292
300.235
300.184
300.141
300.109
300.084
300.064
300.048
300.034
300.023
300.015
300.015
300.026
300.046
300.081
300.141
300.236
300.368
300.512
300.639
300.734
301.291
301.259
301.258
301.314
301.465
301.665
301.735
301.725
301.531
301.212
301.125
301.266
301.926
302.323
302.204
300.905
301.359
301.391
301.39
301.374
301.322
301.203
301.032
300.858
300.696
300.556
300.441
300.351
300.28
300.226
300.178
300.138
300.109
300.088
300.071
300.058
300.046
300.035
300.027
300.025
300.03
300.043
300.065
300.102
300.161
300.256
300.386
300.529
300.653
300.746
301.36
301.289
301.257
301.258
301.32
301.479
301.675
301.741
301.725
301.518
301.201
301.12
301.271
301.944
302.33
302.203
300.896
301.392
301.392
301.375
301.322
301.199
301.026
300.849
300.686
300.544
300.429
300.338
300.269
300.216
300.171
300.135
300.11
300.091
300.078
300.067
300.057
300.048
300.04
300.037
300.039
300.046
300.061
300.085
300.122
300.181
300.275
300.403
300.544
300.666
300.757
301.394
301.359
301.284
301.255
301.259
301.326
301.494
301.686
301.747
301.725
301.504
301.19
301.115
301.277
301.962
302.337
302.201
300.888
301.393
301.376
301.321
301.197
301.021
300.842
300.676
300.533
300.417
300.326
300.258
300.207
300.164
300.132
300.111
300.096
300.085
300.076
300.068
300.061
300.054
300.051
300.051
300.055
300.064
300.08
300.104
300.141
300.2
300.292
300.419
300.557
300.678
300.767
301.395
301.396
301.354
301.28
301.253
301.259
301.334
301.509
301.697
301.752
301.724
301.488
301.179
301.109
301.284
301.978
302.343
302.199
300.88
301.377
301.321
301.194
301.017
300.835
300.667
300.523
300.406
300.315
300.247
300.198
300.157
300.129
300.112
300.101
300.093
300.086
300.079
300.074
300.07
300.067
300.065
300.067
300.072
300.082
300.098
300.122
300.159
300.218
300.309
300.433
300.57
300.688
300.776
301.379
301.398
301.397
301.349
301.275
301.251
301.26
301.341
301.525
301.707
301.758
301.722
301.472
301.168
301.104
301.29
301.994
302.349
302.197
300.873
301.322
301.193
301.013
300.829
300.66
300.514
300.396
300.305
300.238
300.189
300.151
300.127
300.115
300.108
300.102
300.096
300.092
300.089
300.087
300.086
300.083
300.082
300.084
300.089
300.1
300.116
300.14
300.177
300.234
300.324
300.447
300.581
300.698
300.783
301.322
301.383
301.403
301.398
301.342
301.27
301.248
301.261
301.35
301.542
301.718
301.764
301.72
301.455
301.157
301.1
301.298
302.01
302.354
302.195
300.866
301.192
301.01
300.825
300.653
300.506
300.387
300.296
300.228
300.181
300.146
300.126
300.118
300.115
300.111
300.109
300.108
300.108
300.107
300.105
300.103
300.101
300.099
300.101
300.107
300.117
300.134
300.158
300.194
300.25
300.338
300.459
300.592
300.706
300.789
301.191
301.33
301.391
301.408
301.398
301.335
301.265
301.246
301.263
301.36
301.56
301.728
301.769
301.716
301.437
301.147
301.096
301.306
302.025
302.359
302.192
300.859
301.008
300.821
300.647
300.499
300.379
300.287
300.22
300.173
300.141
300.125
300.121
300.121
300.123
300.125
300.128
300.13
300.129
300.128
300.125
300.122
300.119
300.117
300.118
300.124
300.134
300.151
300.174
300.209
300.265
300.351
300.47
300.6
300.712
300.795
301.006
301.204
301.346
301.399
301.413
301.397
301.327
301.26
301.243
301.265
301.371
301.578
301.738
301.774
301.711
301.419
301.138
301.092
301.315
302.038
302.364
302.189
300.853
300.817
300.643
300.493
300.372
300.28
300.212
300.167
300.136
300.125
300.124
300.128
300.135
300.145
300.152
300.155
300.155
300.154
300.151
300.146
300.142
300.137
300.134
300.135
300.141
300.151
300.167
300.189
300.224
300.278
300.363
300.479
300.607
300.719
300.802
300.815
301.02
301.231
301.36
301.407
301.418
301.395
301.318
301.254
301.24
301.267
301.382
301.597
301.748
301.779
301.706
301.402
301.129
301.089
301.324
302.052
302.369
302.186
300.85
300.639
300.488
300.366
300.273
300.206
300.161
300.133
300.125
300.127
300.135
300.149
300.165
300.178
300.184
300.185
300.183
300.179
300.174
300.168
300.162
300.155
300.151
300.152
300.157
300.166
300.182
300.204
300.238
300.291
300.373
300.487
300.614
300.726
300.809
300.636
300.829
301.054
301.259
301.374
301.414
301.422
301.392
301.309
301.249
301.237
301.271
301.396
301.617
301.757
301.783
301.7
301.384
301.121
301.087
301.334
302.064
302.372
302.185
300.849
300.484
300.361
300.268
300.2
300.156
300.13
300.125
300.129
300.142
300.163
300.185
300.202
300.213
300.216
300.215
300.211
300.204
300.197
300.189
300.181
300.173
300.168
300.168
300.172
300.181
300.196
300.218
300.251
300.301
300.381
300.495
300.622
300.734
300.816
300.48
300.648
300.864
301.088
301.286
301.388
301.421
301.425
301.387
301.298
301.244
301.234
301.275
301.409
301.635
301.765
301.786
301.693
301.367
301.114
301.085
301.345
302.075
302.375
302.186
300.848
300.357
300.263
300.196
300.152
300.129
300.126
300.132
300.15
300.177
300.204
300.225
300.241
300.249
300.249
300.245
300.238
300.229
300.219
300.209
300.199
300.19
300.184
300.183
300.186
300.195
300.209
300.23
300.261
300.31
300.39
300.503
300.631
300.742
300.824
300.354
300.491
300.681
300.9
301.123
301.311
301.4
301.427
301.428
301.38
301.287
301.238
301.231
301.28
301.424
301.653
301.772
301.789
301.685
301.35
301.108
301.084
301.356
302.082
302.377
302.187
300.848
300.259
300.192
300.149
300.128
300.127
300.136
300.158
300.19
300.221
300.247
300.267
300.279
300.284
300.281
300.274
300.264
300.252
300.24
300.228
300.217
300.206
300.199
300.197
300.2
300.208
300.222
300.241
300.27
300.319
300.399
300.512
300.639
300.75
300.832
300.256
300.362
300.52
300.716
300.937
301.158
301.335
301.412
301.434
301.429
301.372
301.276
301.233
301.229
301.286
301.439
301.67
301.779
301.791
301.676
301.333
301.102
301.084
301.361
302.084
302.377
302.187
300.849
300.189
300.147
300.127
300.128
300.14
300.167
300.203
300.238
300.268
300.292
300.308
300.317
300.318
300.312
300.301
300.289
300.275
300.261
300.247
300.234
300.222
300.213
300.21
300.213
300.22
300.232
300.249
300.279
300.329
300.409
300.522
300.649
300.759
300.84
300.186
300.262
300.386
300.552
300.753
300.976
301.195
301.357
301.422
301.44
301.428
301.362
301.265
301.228
301.228
301.293
301.456
301.685
301.784
301.792
301.667
301.318
301.097
301.084
301.36
302.084
302.377
302.186
300.85
300.145
300.128
300.13
300.145
300.176
300.216
300.254
300.288
300.315
300.335
300.347
300.352
300.35
300.34
300.327
300.312
300.296
300.279
300.264
300.249
300.236
300.226
300.223
300.225
300.23
300.24
300.259
300.29
300.34
300.42
300.533
300.659
300.768
300.849
300.144
300.191
300.281
300.413
300.585
300.792
301.016
301.231
301.377
301.432
301.446
301.426
301.349
301.255
301.223
301.227
301.301
301.473
301.699
301.789
301.793
301.658
301.303
301.094
301.082
301.36
302.084
302.377
302.185
300.853
300.128
300.132
300.15
300.186
300.229
300.27
300.307
300.337
300.36
300.376
300.384
300.385
300.379
300.367
300.351
300.333
300.315
300.297
300.279
300.263
300.249
300.239
300.234
300.234
300.238
300.249
300.269
300.301
300.351
300.431
300.544
300.669
300.778
300.858
300.147
300.129
300.204
300.302
300.441
300.621
300.832
301.058
301.266
301.396
301.441
301.451
301.421
301.335
301.246
301.218
301.227
301.31
301.49
301.712
301.794
301.793
301.648
301.295
301.093
301.081
301.36
302.084
302.375
302.186
300.859
300.134
300.155
300.195
300.241
300.286
300.326
300.359
300.385
300.403
300.414
300.418
300.415
300.406
300.391
300.373
300.353
300.333
300.312
300.293
300.276
300.261
300.25
300.243
300.242
300.247
300.259
300.28
300.312
300.364
300.444
300.555
300.68
300.789
300.867
300.155
300.13
300.136
300.219
300.325
300.472
300.659
300.875
301.1
301.301
301.413
301.449
301.454
301.415
301.321
301.237
301.214
301.228
301.32
301.508
301.724
301.797
301.792
301.643
301.293
301.092
301.081
301.361
302.082
302.372
302.189
300.866
300.161
300.204
300.253
300.3
300.344
300.38
300.409
300.43
300.443
300.449
300.449
300.443
300.431
300.414
300.393
300.371
300.349
300.327
300.306
300.288
300.271
300.258
300.251
300.25
300.256
300.27
300.291
300.325
300.377
300.457
300.568
300.692
300.799
300.877
300.165
300.132
300.138
300.166
300.237
300.351
300.506
300.699
300.919
301.143
301.333
301.428
301.457
301.456
301.406
301.306
301.229
301.21
301.23
301.33
301.527
301.735
301.801
301.792
301.644
301.293
301.092
301.082
301.361
302.075
302.369
302.192
300.873
300.213
300.264
300.315
300.361
300.401
300.432
300.456
300.471
300.479
300.481
300.477
300.468
300.454
300.434
300.411
300.387
300.363
300.339
300.318
300.298
300.28
300.266
300.259
300.259
300.267
300.281
300.304
300.339
300.392
300.471
300.581
300.704
300.81
300.887
300.176
300.135
300.136
300.167
300.22
300.256
300.378
300.542
300.742
300.965
301.186
301.363
301.442
301.463
301.456
301.396
301.291
301.222
301.207
301.234
301.342
301.544
301.745
301.803
301.794
301.645
301.293
301.093
301.084
301.356
302.064
302.364
302.195
300.881
300.275
300.328
300.377
300.42
300.455
300.481
300.499
300.509
300.512
300.51
300.503
300.491
300.474
300.452
300.427
300.401
300.376
300.351
300.327
300.306
300.286
300.273
300.268
300.269
300.278
300.293
300.318
300.354
300.407
300.486
300.595
300.716
300.822
300.897
300.189
300.139
300.135
300.162
300.222
300.284
300.278
300.409
300.581
300.788
301.013
301.229
301.389
301.453
301.469
301.453
301.385
301.277
301.216
301.205
301.238
301.354
301.562
301.75
301.805
301.795
301.645
301.293
301.094
301.084
301.345
302.051
302.359
302.197
300.888
300.341
300.393
300.439
300.476
300.505
300.526
300.538
300.543
300.541
300.536
300.525
300.511
300.492
300.469
300.442
300.414
300.387
300.36
300.335
300.312
300.293
300.281
300.277
300.28
300.29
300.306
300.332
300.369
300.423
300.502
300.61
300.729
300.833
300.908
300.204
300.145
300.135
300.157
300.214
300.287
300.352
300.302
300.443
300.624
300.836
301.062
301.272
301.412
301.462
301.473
301.449
301.373
301.265
301.211
301.203
301.243
301.367
301.571
301.751
301.805
301.795
301.644
301.295
301.097
301.084
301.334
302.038
302.354
302.199
300.897
300.408
300.456
300.497
300.528
300.551
300.566
300.573
300.573
300.568
300.558
300.546
300.529
300.509
300.483
300.454
300.425
300.396
300.368
300.341
300.319
300.301
300.29
300.287
300.291
300.302
300.321
300.348
300.386
300.441
300.519
300.625
300.743
300.845
300.919
300.222
300.152
300.134
300.152
300.205
300.278
300.356
300.42
300.33
300.48
300.669
300.887
301.111
301.312
301.431
301.47
301.476
301.443
301.36
301.253
301.207
301.203
301.249
301.373
301.572
301.752
301.805
301.794
301.643
301.303
301.102
301.085
301.324
302.024
302.348
302.201
300.905
300.472
300.516
300.55
300.576
300.593
300.602
300.603
300.599
300.591
300.579
300.564
300.546
300.523
300.496
300.466
300.435
300.403
300.373
300.347
300.326
300.309
300.299
300.297
300.303
300.316
300.336
300.364
300.404
300.459
300.537
300.641
300.757
300.858
300.931
300.243
300.162
300.135
300.148
300.196
300.268
300.347
300.426
300.487
300.361
300.521
300.718
300.939
301.16
301.347
301.446
301.476
301.477
301.436
301.346
301.243
301.204
301.203
301.252
301.372
301.572
301.752
301.805
301.792
301.648
301.318
301.108
301.087
301.315
302.009
302.343
302.203
300.913
300.533
300.571
300.6
300.619
300.631
300.634
300.631
300.623
300.611
300.597
300.58
300.56
300.536
300.507
300.475
300.442
300.409
300.379
300.354
300.333
300.317
300.308
300.308
300.315
300.33
300.351
300.382
300.423
300.478
300.555
300.657
300.771
300.872
300.945
300.267
300.174
300.136
300.144
300.186
300.257
300.337
300.417
300.494
300.549
300.395
300.565
300.769
300.991
301.205
301.378
301.459
301.481
301.477
301.427
301.331
301.234
301.201
301.203
301.251
301.372
301.572
301.751
301.803
301.792
301.658
301.334
301.114
301.089
301.306
301.994
302.336
302.204
300.922
300.59
300.622
300.644
300.658
300.664
300.662
300.654
300.643
300.629
300.613
300.594
300.573
300.547
300.517
300.482
300.447
300.415
300.385
300.36
300.34
300.325
300.318
300.32
300.329
300.345
300.368
300.4
300.443
300.499
300.575
300.674
300.789
300.889
300.958
300.294
300.189
300.139
300.14
300.176
300.245
300.325
300.408
300.487
300.558
300.608
300.433
300.613
300.822
301.042
301.248
301.404
301.469
301.485
301.475
301.418
301.317
301.226
301.2
301.202
301.25
301.372
301.572
301.75
301.801
301.793
301.668
301.35
301.122
301.092
301.298
301.978
302.33
302.205
300.931
300.642
300.668
300.684
300.692
300.692
300.686
300.675
300.661
300.645
300.627
300.607
300.584
300.557
300.524
300.488
300.453
300.421
300.392
300.367
300.348
300.334
300.329
300.332
300.343
300.361
300.386
300.42
300.463
300.52
300.595
300.695
300.808
300.904
300.97
300.325
300.207
300.144
300.138
300.167
300.232
300.312
300.396
300.478
300.553
300.618
300.661
300.475
300.662
300.874
301.091
301.288
301.425
301.477
301.489
301.471
301.407
301.303
301.222
301.199
301.201
301.25
301.372
301.571
301.745
301.797
301.793
301.677
301.367
301.13
301.096
301.29
301.961
302.323
302.207
300.94
300.689
300.709
300.719
300.722
300.717
300.707
300.693
300.677
300.659
300.639
300.618
300.594
300.564
300.529
300.493
300.459
300.427
300.398
300.374
300.356
300.344
300.34
300.345
300.357
300.378
300.405
300.441
300.485
300.542
300.619
300.719
300.826
300.917
300.981
300.361
300.229
300.151
300.136
300.158
300.218
300.298
300.383
300.468
300.546
300.615
300.673
300.709
300.52
300.713
300.925
301.137
301.325
301.443
301.484
301.491
301.466
301.396
301.296
301.221
301.198
301.201
301.251
301.373
301.562
301.735
301.794
301.793
301.685
301.385
301.138
301.1
301.283
301.944
302.315
302.207
300.948
300.731
300.745
300.75
300.748
300.739
300.725
300.709
300.69
300.671
300.65
300.628
300.601
300.57
300.535
300.499
300.465
300.433
300.405
300.382
300.364
300.353
300.351
300.358
300.373
300.395
300.425
300.462
300.508
300.569
300.647
300.741
300.843
300.93
300.991
300.399
300.255
300.162
300.135
300.15
300.204
300.282
300.369
300.455
300.537
300.61
300.672
300.723
300.752
300.567
300.764
300.975
301.182
301.357
301.457
301.489
301.491
301.46
301.39
301.296
301.221
301.198
301.202
301.252
301.367
301.544
301.724
301.789
301.791
301.693
301.402
301.148
301.104
301.277
301.926
302.308
302.208
300.957
300.769
300.777
300.777
300.77
300.757
300.741
300.722
300.703
300.682
300.66
300.635
300.607
300.576
300.541
300.505
300.471
300.439
300.412
300.389
300.373
300.363
300.363
300.372
300.389
300.414
300.446
300.485
300.536
300.6
300.674
300.762
300.858
300.942
300.999
300.44
300.285
300.176
300.136
300.144
300.19
300.265
300.352
300.441
300.526
300.602
300.669
300.723
300.768
300.79
300.614
300.814
301.024
301.224
301.386
301.469
301.492
301.491
301.458
301.391
301.296
301.221
301.199
301.203
301.249
301.354
301.526
301.712
301.784
301.789
301.7
301.42
301.158
301.109
301.271
301.909
302.301
302.208
300.964
300.802
300.805
300.8
300.789
300.773
300.754
300.734
300.713
300.692
300.667
300.641
300.613
300.582
300.547
300.511
300.477
300.446
300.419
300.397
300.382
300.374
300.376
300.388
300.407
300.434
300.468
300.513
300.568
300.63
300.7
300.782
300.873
300.952
301.007
300.483
300.317
300.194
300.139
300.139
300.176
300.247
300.334
300.424
300.512
300.593
300.664
300.723
300.771
300.808
300.824
300.663
300.864
301.071
301.263
301.411
301.478
301.495
301.491
301.459
301.391
301.296
301.221
301.2
301.203
301.243
301.341
301.508
301.699
301.778
301.786
301.706
301.437
301.168
301.115
301.266
301.891
302.293
302.209
300.972
300.83
300.828
300.819
300.804
300.786
300.766
300.745
300.723
300.699
300.673
300.647
300.619
300.588
300.553
300.518
300.484
300.453
300.426
300.405
300.392
300.386
300.39
300.404
300.426
300.455
300.495
300.545
300.599
300.659
300.725
300.801
300.886
300.962
301.014
300.527
300.352
300.215
300.145
300.135
300.163
300.229
300.314
300.406
300.497
300.581
300.656
300.72
300.772
300.813
300.844
300.854
300.712
300.914
301.116
301.299
301.432
301.485
301.497
301.493
301.459
301.391
301.296
301.222
301.201
301.203
301.238
301.33
301.49
301.685
301.772
301.783
301.711
301.455
301.179
301.12
301.26
301.874
302.286
302.209
300.979
300.855
300.848
300.835
300.817
300.797
300.777
300.756
300.731
300.706
300.68
300.654
300.626
300.594
300.56
300.524
300.49
300.46
300.434
300.414
300.402
300.398
300.405
300.421
300.445
300.481
300.527
300.577
300.63
300.687
300.749
300.82
300.899
300.971
301.02
300.573
300.39
300.24
300.155
300.133
300.152
300.211
300.293
300.385
300.478
300.566
300.646
300.714
300.771
300.817
300.852
300.876
300.88
300.761
300.962
301.159
301.332
301.448
301.489
301.498
301.493
301.459
301.391
301.296
301.226
301.204
301.203
301.233
301.319
301.472
301.669
301.764
301.779
301.716
301.472
301.19
301.125
301.256
301.858
302.28
302.209
300.986
300.876
300.864
300.847
300.828
300.809
300.789
300.765
300.738
300.712
300.687
300.661
300.633
300.601
300.567
300.531
300.497
300.467
300.442
300.424
300.413
300.411
300.421
300.44
300.471
300.513
300.559
300.609
300.66
300.714
300.773
300.838
300.911
300.978
301.024
300.619
300.429
300.267
300.168
300.133
300.143
300.192
300.271
300.363
300.458
300.549
300.633
300.706
300.768
300.818
300.857
300.886
300.904
300.902
300.809
301.009
301.2
301.362
301.457
301.49
301.499
301.493
301.459
301.39
301.304
301.234
301.207
301.205
301.23
301.309
301.455
301.653
301.756
301.774
301.72
301.489
301.201
301.13
301.251
301.843
302.273
302.209
300.993
300.893
300.877
300.858
300.841
300.823
300.8
300.773
300.746
300.72
300.694
300.668
300.64
300.609
300.574
300.538
300.505
300.475
300.451
300.434
300.425
300.426
300.438
300.464
300.502
300.545
300.591
300.64
300.689
300.741
300.795
300.856
300.923
300.986
301.031
300.666
300.47
300.297
300.185
300.136
300.137
300.175
300.248
300.338
300.435
300.529
300.617
300.694
300.761
300.816
300.86
300.894
300.917
300.929
300.92
300.857
301.054
301.237
301.378
301.458
301.491
301.499
301.493
301.458
301.396
301.317
301.243
301.211
301.207
301.228
301.301
301.439
301.635
301.748
301.769
301.722
301.504
301.212
301.135
301.247
301.828
302.266
302.209
300.999
300.905
300.886
300.873
300.86
300.841
300.813
300.783
300.755
300.729
300.703
300.676
300.648
300.616
300.582
300.546
300.513
300.484
300.461
300.446
300.439
300.443
300.462
300.494
300.533
300.577
300.623
300.67
300.718
300.766
300.817
300.873
300.935
300.991
301.038
300.713
300.512
300.33
300.205
300.141
300.133
300.161
300.226
300.313
300.409
300.506
300.598
300.68
300.752
300.812
300.861
300.899
300.927
300.945
300.951
300.933
300.905
301.097
301.257
301.379
301.459
301.491
301.498
301.491
301.46
301.407
301.332
301.253
301.217
301.21
301.227
301.293
301.424
301.616
301.738
301.764
301.724
301.518
301.222
301.14
301.243
301.813
302.26
302.209
301.005
300.912
300.905
300.907
300.894
300.863
300.829
300.797
300.767
300.739
300.712
300.685
300.657
300.625
300.59
300.555
300.522
300.494
300.473
300.459
300.455
300.465
300.491
300.525
300.566
300.61
300.655
300.7
300.745
300.791
300.838
300.889
300.945
300.998
301.044
300.761
300.556
300.364
300.227
300.15
300.131
300.149
300.206
300.287
300.382
300.481
300.576
300.663
300.739
300.805
300.859
300.901
300.934
300.958
300.97
300.971
300.94
300.95
301.118
301.257
301.38
301.459
301.49
301.497
301.491
301.466
301.418
301.346
301.265
301.223
301.214
301.227
301.286
301.409
301.597
301.728
301.758
301.725
301.531
301.232
301.144
301.24
301.8
302.254
302.209
301.01
300.931
300.973
300.984
300.944
300.898
300.854
300.814
300.78
300.75
300.723
300.696
300.667
300.635
300.6
300.565
300.533
300.506
300.486
300.475
300.477
300.494
300.522
300.558
300.599
300.642
300.686
300.729
300.771
300.814
300.857
300.904
300.955
301.004
301.052
300.807
300.6
300.401
300.253
300.162
300.131
300.141
300.187
300.263
300.354
300.453
300.551
300.642
300.724
300.794
300.853
300.901
300.938
300.967
300.985
300.993
300.988
300.947
300.973
301.119
301.258
301.38
301.458
301.489
301.495
301.491
301.471
301.428
301.36
301.278
301.23
301.218
301.228
301.28
301.395
301.578
301.717
301.752
301.725
301.543
301.242
301.148
301.236
301.787
302.249
302.21
301.013
301.069
301.219
301.126
301.035
300.954
300.889