/*--------------------------------*- C++ -*----------------------------------*\
  =========                 |
  \\      /  F ield         | OpenFOAM: The Open Source CFD Toolbox
   \\    /   O peration     | Website:  https://openfoam.org
    \\  /    A nd           | Version:  8
     \\/     M anipulation  |
\*---------------------------------------------------------------------------*/
FoamFile
{
    version     2.0;
    format      ascii;
    class       volScalarField;
    location    "0.02";
    object      k;
}
// * * * * * * * * * * * * * * * * * * * * * * * * * * * * * * * * * * * * * //

dimensions      [0 2 -2 0 0 0 0];

internalField   nonuniform List<scalar> 
15677
(
0.334178
0.365055
0.294765
0.368756
0.357702
0.281009
0.370718
0.360089
0.36612
0.282715
0.37191
0.36165
0.361448
0.383266
0.288856
0.372637
0.363763
0.357688
0.368249
0.401671
0.300538
0.373065
0.365684
0.357794
0.358066
0.38011
0.419588
0.312287
0.37329
0.367203
0.359403
0.354441
0.361046
0.393557
0.43523
0.322822
0.373375
0.368329
0.361293
0.3546
0.353128
0.367148
0.406746
0.448128
0.331663
0.373375
0.369107
0.362996
0.356157
0.35117
0.353736
0.37418
0.418624
0.458388
0.33876
0.373339
0.369593
0.364367
0.358035
0.351962
0.349071
0.3554
0.381094
0.428778
0.466292
0.344293
0.373299
0.369849
0.365384
0.35978
0.353736
0.348692
0.347747
0.357527
0.387369
0.437109
0.472222
0.348681
0.373272
0.36995
0.366068
0.361225
0.355676
0.35008
0.345928
0.346729
0.359459
0.392798
0.443718
0.476804
0.352168
0.37326
0.369963
0.366469
0.362319
0.357433
0.35203
0.346748
0.343321
0.345679
0.361129
0.397357
0.449024
0.480212
0.354717
0.373258
0.369943
0.366661
0.363064
0.358864
0.353974
0.34858
0.343474
0.340685
0.34459
0.362594
0.401259
0.453106
0.48244
0.356563
0.373258
0.369926
0.366725
0.363504
0.359922
0.355662
0.350628
0.345114
0.340142
0.338071
0.343613
0.36404
0.404471
0.455752
0.483831
0.358339
0.373257
0.369916
0.366733
0.363715
0.360613
0.356986
0.35252
0.347223
0.341573
0.336844
0.33569
0.342974
0.365411
0.406576
0.457268
0.485167
0.359664
0.373256
0.369911
0.366729
0.363782
0.360995
0.357915
0.354082
0.349295
0.343727
0.338066
0.333818
0.333797
0.342656
0.366277
0.40772
0.458551
0.486108
0.360815
0.373255
0.369907
0.366726
0.363797
0.361143
0.358476
0.355243
0.351087
0.345971
0.340258
0.334839
0.331325
0.332403
0.342315
0.366677
0.408739
0.459288
0.486762
0.361572
0.373255
0.369905
0.366723
0.363796
0.361185
0.358724
0.356
0.352485
0.34799
0.342667
0.337062
0.33214
0.32939
0.331265
0.342011
0.367166
0.4092
0.459419
0.487172
0.362485
0.373254
0.369904
0.366721
0.363792
0.36119
0.358811
0.356373
0.353457
0.349631
0.344908
0.339623
0.334377
0.329995
0.32783
0.330439
0.34199
0.36738
0.409156
0.45935
0.487701
0.363032
0.373254
0.369902
0.36672
0.363788
0.361183
0.35883
0.356526
0.353982
0.350829
0.346785
0.342073
0.337068
0.332216
0.328255
0.326727
0.330131
0.342031
0.367335
0.40895
0.459181
0.488004
0.363964
0.373254
0.369902
0.366719
0.363785
0.361175
0.358824
0.356576
0.35423
0.351524
0.348207
0.344178
0.339705
0.334994
0.330448
0.327045
0.326307
0.330121
0.342045
0.367192
0.408537
0.458795
0.488575
0.36455
0.373254
0.369901
0.366717
0.363782
0.361168
0.358812
0.356581
0.354334
0.351882
0.349071
0.345819
0.342018
0.337766
0.333283
0.329263
0.326625
0.326306
0.330184
0.342074
0.366944
0.40795
0.458442
0.489016
0.365668
0.373254
0.369901
0.366716
0.36378
0.361162
0.358801
0.35657
0.354365
0.352053
0.34954
0.346852
0.343859
0.340226
0.33616
0.332213
0.328932
0.32665
0.326435
0.33038
0.342171
0.366643
0.407381
0.458116
0.48988
0.366351
0.373254
0.3699
0.366715
0.363778
0.361157
0.358792
0.356556
0.354365
0.352121
0.34978
0.347441
0.345046
0.342203
0.338755
0.335273
0.332017
0.329005
0.326859
0.326787
0.330818
0.342392
0.366462
0.406921
0.457917
0.490508
0.367666
0.373254
0.3699
0.366715
0.363777
0.361154
0.358785
0.356543
0.354353
0.352139
0.349887
0.347759
0.345738
0.34349
0.340889
0.338094
0.335211
0.332149
0.329321
0.327371
0.327527
0.331562
0.342835
0.366469
0.406518
0.457725
0.491712
0.368457
0.373254
0.3699
0.366714
0.363776
0.361151
0.35878
0.356532
0.354337
0.352134
0.349923
0.347914
0.346121
0.344243
0.342327
0.340455
0.338123
0.335415
0.332593
0.330029
0.328411
0.328695
0.332627
0.343527
0.366572
0.406142
0.457756
0.492557
0.369974
0.373254
0.3699
0.366714
0.363775
0.361149
0.358776
0.356524
0.354321
0.35212
0.349925
0.347975
0.346312
0.344665
0.343211
0.342073
0.340553
0.338429
0.336008
0.333546
0.331399
0.329977
0.330277
0.334028
0.344481
0.36683
0.406019
0.45786
0.494152
0.370925
0.373254
0.3699
0.366714
0.363774
0.361147
0.358773
0.356517
0.354308
0.352104
0.349911
0.347988
0.346392
0.344878
0.343742
0.343079
0.342225
0.340973
0.339191
0.337239
0.335243
0.333359
0.332064
0.332288
0.335815
0.34569
0.367356
0.406064
0.458161
0.495182
0.372543
0.373254
0.3699
0.366714
0.363774
0.361145
0.35877
0.356511
0.354296
0.352089
0.349893
0.347977
0.346413
0.34497
0.344042
0.343686
0.343273
0.342741
0.34191
0.340707
0.339257
0.337607
0.335948
0.334697
0.334786
0.338007
0.347272
0.368184
0.406232
0.458485
0.497364
0.374088
0.373254
0.3699
0.366714
0.363773
0.361144
0.358767
0.356507
0.354286
0.352076
0.349876
0.347957
0.346406
0.344999
0.344202
0.34403
0.343916
0.343868
0.343846
0.343695
0.34303
0.342023
0.340703
0.339204
0.337938
0.33778
0.34061
0.349215
0.369276
0.406578
0.459174
0.498031
0.375579
0.373253
0.3699
0.366714
0.363773
0.361143
0.358765
0.356502
0.354277
0.352065
0.349862
0.347936
0.346388
0.344997
0.344278
0.344212
0.344294
0.344581
0.345116
0.345833
0.346299
0.346182
0.345621
0.344584
0.343193
0.341806
0.341338
0.343616
0.35155
0.370632
0.407184
0.459883
0.499519
0.377144
0.373253
0.369901
0.366714
0.363773
0.361142
0.358762
0.356498
0.35427
0.352055
0.349851
0.347917
0.346371
0.344985
0.344308
0.344304
0.344511
0.345021
0.345953
0.347258
0.348674
0.349807
0.350257
0.350117
0.349325
0.347943
0.346366
0.34545
0.347097
0.354251
0.372275
0.408069
0.460756
0.501648
0.378849
0.373253
0.369901
0.366715
0.363773
0.361141
0.35876
0.356495
0.354263
0.352046
0.349842
0.347901
0.346356
0.344972
0.344314
0.344346
0.344631
0.345289
0.346496
0.348221
0.350283
0.35247
0.354321
0.355338
0.355597
0.354965
0.353523
0.351609
0.350166
0.351015
0.357307
0.374402
0.409359
0.461915
0.50413
0.380632
0.369901
0.373256
0.366716
0.363773
0.36114
0.358758
0.356491
0.354257
0.352039
0.349835
0.347888
0.346343
0.344961
0.344308
0.34436
0.344694
0.345451
0.346849
0.34887
0.351398
0.354305
0.357337
0.359938
0.361523
0.362114
0.361577
0.35993
0.357589
0.355442
0.355389
0.36115
0.377265
0.410943
0.463342
0.506793
0.382587
0.366716
0.369911
0.373263
0.363774
0.361139
0.358755
0.356488
0.354252
0.352033
0.349831
0.347877
0.346333
0.344952
0.344293
0.344356
0.344721
0.345548
0.347082
0.349315
0.352177
0.355608
0.359453
0.363391
0.366771
0.368879
0.369749
0.369167
0.36722
0.364263
0.3613
0.360721
0.365865
0.380552
0.41282
0.464937
0.509659
0.384525
0.363774
0.366734
0.369933
0.37327
0.361138
0.358753
0.356485
0.354248
0.352028
0.349827
0.347869
0.346324
0.344944
0.344273
0.344342
0.344725
0.345598
0.347237
0.349627
0.352737
0.356552
0.360996
0.365859
0.370762
0.374906
0.377498
0.378516
0.377795
0.375344
0.371654
0.368409
0.367309
0.370973
0.384178
0.414966
0.46677
0.512548
0.386409
0.361137
0.363796
0.366769
0.369955
0.373277
0.358751
0.356482
0.354244
0.352024
0.349826
0.347862
0.346317
0.344938
0.34425
0.34432
0.344713
0.345616
0.347329
0.34985
0.353152
0.357263
0.362156
0.367711
0.373673
0.379553
0.384449
0.387404
0.38848
0.387406
0.38433
0.380608
0.37708
0.374471
0.376441
0.388091
0.417388
0.468726
0.515396
0.388521
0.358748
0.361162
0.363842
0.366806
0.369977
0.373285
0.356479
0.354241
0.35202
0.349825
0.347858
0.34631
0.344932
0.344223
0.344292
0.344689
0.34561
0.347372
0.349995
0.353465
0.357817
0.36307
0.369161
0.375929
0.383024
0.389896
0.395441
0.398673
0.399588
0.398037
0.395208
0.391481
0.386439
0.382105
0.382215
0.39227
0.420006
0.470787
0.518472
0.3905
0.356476
0.358776
0.361214
0.363889
0.366844
0.37
0.373292
0.354238
0.352017
0.349824
0.347855
0.346305
0.344927
0.344196
0.34426
0.344656
0.345587
0.347381
0.350077
0.353686
0.358261
0.363822
0.370359
0.377773
0.385811
0.394073
0.401851
0.407975
0.411251
0.41188
0.410903
0.408396
0.403173
0.396366
0.390107
0.388238
0.396619
0.422751
0.473017
0.521352
0.392151
0.354235
0.356509
0.358834
0.361267
0.363937
0.366883
0.370024
0.3733
0.352015
0.349825
0.347853
0.346299
0.344924
0.344168
0.344226
0.344617
0.34555
0.347361
0.35011
0.353829
0.358601
0.364461
0.371399
0.379371
0.388188
0.397555
0.406915
0.415546
0.422005
0.425194
0.426762
0.426494
0.422552
0.415539
0.406728
0.398388
0.394442
0.401147
0.425681
0.475226
0.523833
0.394638
0.352013
0.354275
0.356578
0.358894
0.361322
0.363987
0.366923
0.370048
0.373307
0.349826
0.347852
0.346294
0.344921
0.34414
0.344191
0.344575
0.345505
0.347321
0.350109
0.353912
0.358847
0.364989
0.372334
0.38083
0.390346
0.400651
0.41129
0.421716
0.430957
0.437613
0.4421
0.444802
0.443216
0.437497
0.428409
0.4174
0.406856
0.400748
0.405695
0.428711
0.477579
0.52777
0.396053
0.349827
0.352061
0.354357
0.356648
0.358955
0.361378
0.364039
0.366964
0.370073
0.373315
0.347853
0.34629
0.344919
0.344114
0.344157
0.344531
0.345454
0.347267
0.350082
0.35395
0.359022
0.365409
0.37316
0.382213
0.392408
0.403584
0.415338
0.427237
0.438474
0.448214
0.456618
0.462648
0.464162
0.46085
0.453022
0.441627
0.428264
0.415418
0.407138
0.410233
0.431829
0.480071
0.529973
0.44572
0.347853
0.349883
0.352159
0.354442
0.35672
0.359018
0.361436
0.364092
0.367006
0.370098
0.373324
0.346286
0.344918
0.344089
0.344124
0.344487
0.345401
0.347206
0.350037
0.353958
0.359146
0.365748
0.373869
0.383502
0.394451
0.406502
0.419323
0.432539
0.445429
0.457375
0.469349
0.47986
0.484766
0.484595
0.479155
0.468932
0.455038
0.439201
0.423995
0.413542
0.414747
0.435004
0.482489
0.534621
0.539495
0.346282
0.347907
0.349995
0.352259
0.354529
0.356793
0.359082
0.361496
0.364147
0.36705
0.370124
0.373332
0.344917
0.344066
0.344093
0.344444
0.345348
0.347141
0.349983
0.353947
0.359233
0.366026
0.374485
0.384666
0.396434
0.409497
0.423424
0.437939
0.452335
0.466132
0.480689
0.495397
0.505044
0.508207
0.505837
0.497904
0.48504
0.468496
0.450105
0.432514
0.4199
0.41923
0.43813
0.484666
0.542252
0.645861
0.344917
0.346326
0.348017
0.350111
0.352362
0.354617
0.356868
0.359148
0.361558
0.364204
0.367094
0.370151
0.373341
0.344044
0.344062
0.344404
0.345297
0.347076
0.349925
0.353924
0.359297
0.366262
0.375031
0.385726
0.398291
0.412503
0.427757
0.443659
0.45958
0.475105
0.491894
0.509709
0.523854
0.531895
0.53268
0.527629
0.516878
0.50117
0.481867
0.460881
0.440911
0.426168
0.423627
0.4412
0.486995
0.549647
0.731044
0.344026
0.34496
0.346422
0.348132
0.350231
0.352468
0.354708
0.356944
0.359215
0.361622
0.364263
0.36714
0.370178
0.37335
0.344033
0.344366
0.345248
0.347014
0.349867
0.353896
0.359346
0.366468
0.375525
0.386702
0.400035
0.415397
0.432215
0.44985
0.467447
0.484776
0.503727
0.524347
0.541753
0.554472
0.560104
0.557902
0.549735
0.535878
0.517167
0.495037
0.471449
0.449132
0.4323
0.427925
0.444249
0.488928
0.555927
0.789611
0.344005
0.344024
0.345051
0.34652
0.348253
0.350355
0.352577
0.3548
0.357022
0.359285
0.361688
0.364323
0.367186
0.370204
0.373358
0.34433
0.345203
0.346956
0.349811
0.353868
0.359388
0.366655
0.37598
0.387612
0.401681
0.418168
0.436586
0.456357
0.476147
0.495518
0.516814
0.5403
0.560656
0.576628
0.586954
0.589366
0.583587
0.571924
0.554723
0.532896
0.50791
0.481744
0.457129
0.438262
0.43213
0.447134
0.490494
0.561479
0.834755
0.344299
0.343964
0.344046
0.345145
0.346624
0.348379
0.350482
0.352688
0.354894
0.357102
0.359356
0.361756
0.364385
0.367232
0.37023
0.373367
0.345161
0.346901
0.34976
0.353842
0.359428
0.366829
0.376404
0.388465
0.40324
0.420819
0.440832
0.462859
0.485464
0.507629
0.531669
0.558435
0.581873
0.600747
0.614089
0.621001
0.61938
0.609468
0.593982
0.573256
0.548246
0.52041
0.491713
0.464863
0.444034
0.436211
0.44984
0.492052
0.566749
0.881368
0.345126
0.344237
0.343908
0.344077
0.345246
0.346734
0.348512
0.350612
0.352801
0.35499
0.357183
0.35943
0.361827
0.364447
0.367277
0.370255
0.373375
0.346851
0.349713
0.35382
0.359467
0.366995
0.376804
0.38927
0.404718
0.423351
0.444946
0.469276
0.4949
0.520813
0.548764
0.579553
0.606646
0.628603
0.644518
0.653907
0.656324
0.649858
0.635304
0.615727
0.591351
0.563128
0.532474
0.501312
0.472306
0.449599
0.440144
0.452456
0.493781
0.572309
0.936017
0.34681
0.345022
0.344141
0.343847
0.344121
0.345353
0.346851
0.34865
0.350746
0.352917
0.355088
0.357266
0.359505
0.361897
0.364507
0.36732
0.370279
0.373383
0.349671
0.353802
0.359508
0.367156
0.377183
0.390031
0.406119
0.425764
0.448917
0.475557
0.504284
0.534383
0.567797
0.604479
0.636246
0.662049
0.680733
0.691958
0.695896
0.692663
0.680546
0.660887
0.637003
0.608907
0.577474
0.54406
0.510514
0.479443
0.454943
0.443927
0.455032
0.495602
0.577846
0.996201
0.349642
0.346638
0.344846
0.344039
0.343793
0.344181
0.345464
0.346974
0.348793
0.350883
0.353035
0.355188
0.357351
0.359581
0.361966
0.364565
0.367361
0.370302
0.37339
0.353787
0.359549
0.36731
0.377545
0.390753
0.407445
0.428058
0.452731
0.481652
0.513533
0.548146
0.587824
0.632891
0.672141
0.703314
0.725757
0.738871
0.743235
0.739952
0.729804
0.711226
0.686047
0.657689
0.625842
0.591237
0.555136
0.519299
0.486262
0.46006
0.447562
0.457527
0.497289
0.583089
1.05756
0.353788
0.3494
0.34632
0.344663
0.343945
0.343747
0.344254
0.345581
0.347105
0.348942
0.351023
0.353155
0.355288
0.357435
0.359655
0.362033
0.364621
0.367402
0.370325
0.373398
0.359591
0.367459
0.377889
0.391435
0.408697
0.430232
0.456375
0.48752
0.522597
0.562009
0.608426
0.663319
0.714434
0.7556
0.783969
0.799878
0.804068
0.798682
0.786039
0.767583
0.741726
0.710648
0.67769
0.642098
0.604381
0.565684
0.527659
0.492756
0.464941
0.451031
0.459868
0.498677
0.587822
1.1076
0.359649
0.353471
0.348914
0.345993
0.344494
0.34386
0.343711
0.344342
0.345703
0.347243
0.349096
0.351165
0.353277
0.355388
0.357517
0.359728
0.362099
0.364676
0.367441
0.370347
0.373406
0.367603
0.378214
0.392079
0.409878
0.432286
0.459838
0.493139
0.531439
0.575828
0.62923
0.695259
0.76203
0.821237
0.862374
0.8832
0.887126
0.87751
0.858648
0.834137
0.805861
0.771903
0.734586
0.696941
0.657637
0.616889
0.575697
0.53559
0.498922
0.469577
0.454317
0.462001
0.499716
0.591509
1.14776
0.367758
0.359247
0.35277
0.348412
0.34569
0.344337
0.343785
0.343688
0.344442
0.345831
0.347389
0.349255
0.35131
0.353396
0.355484
0.357597
0.359799
0.362163
0.364729
0.367478
0.370369
0.373413
0.378523
0.392683
0.410986
0.43422
0.463116
0.498495
0.54002
0.589428
0.649945
0.728794
0.815599
0.900449
0.966779
1.00098
1.00552
0.989545
0.959933
0.923269
0.884155
0.844497
0.801639
0.757784
0.715397
0.672436
0.628752
0.585173
0.543091
0.504754
0.473963
0.457407
0.463909
0.500402
0.59439
1.1897
0.378832
0.367256
0.358257
0.352046
0.347936
0.345413
0.344193
0.343721
0.34368
0.344554
0.345965
0.347543
0.349416
0.351451
0.353511
0.355577
0.357675
0.359869
0.362225
0.364781
0.367515
0.37039
0.37342
0.393255
0.412023
0.436035
0.466204
0.503581
0.548295
0.602654
0.670485
0.764291
0.875875
0.993554
1.09557
1.1601
1.1753
1.15218
1.1073
1.05114
0.992282
0.935866
0.883327
0.830831
0.780183
0.733032
0.686487
0.639974
0.594118
0.550166
0.510255
0.478098
0.460298
0.465404
0.500878
0.597503
1.23067
0.3938
0.378211
0.365871
0.357238
0.351359
0.347485
0.345159
0.34406
0.343665
0.343692
0.344676
0.346106
0.347704
0.349577
0.351588
0.353622
0.355667
0.357752
0.359937
0.362286
0.364831
0.36755
0.37041
0.373423
0.413002
0.437733
0.469105
0.508391
0.556221
0.615403
0.690926
0.801981
0.942416
1.09841
1.24387
1.35136
1.3998
1.38242
1.32051
1.23843
1.1499
1.06499
0.988894
0.922155
0.859384
0.801743
0.749833
0.699793
0.650562
0.602542
0.556824
0.515431
0.481989
0.462648
0.466635
0.50138
0.600565
1.27048
0.413905
0.393036
0.376275
0.364451
0.356271
0.350708
0.347057
0.344925
0.343941
0.34361
0.343727
0.344808
0.346254
0.347866
0.349732
0.351719
0.353729
0.355754
0.357827
0.360004
0.362346
0.364879
0.367584
0.37042
0.373423
0.439333
0.471824
0.512925
0.563765
0.627634
0.711375
0.841666
1.01358
1.21082
1.40419
1.56271
1.65961
1.67726
1.61518
1.50531
1.37959
1.25427
1.14037
1.04274
0.960757
0.887208
0.822436
0.7658
0.712364
0.660532
0.610459
0.563077
0.520295
0.485163
0.464629
0.467958
0.501857
0.604072
1.30948
0.440776
0.412957
0.390334
0.374303
0.363105
0.355353
0.350087
0.346653
0.344709
0.343838
0.34356
0.343783
0.344948
0.346404
0.348025
0.349882
0.351845
0.353833
0.35584
0.3579
0.36007
0.362403
0.364925
0.367601
0.37042
0.373423
0.474385
0.517192
0.570913
0.639342
0.731874
0.882764
1.08719
1.32628
1.56902
1.7828
1.93739
2.00832
1.98216
1.86541
1.70072
1.52693
1.362
1.21723
1.09685
0.99889
0.914219
0.842244
0.780943
0.724216
0.669903
0.617888
0.568941
0.524256
0.487846
0.46679
0.469393
0.502504
0.607728
1.34725
0.476649
0.439608
0.409193
0.387604
0.372436
0.361825
0.354476
0.349495
0.346275
0.344514
0.343746
0.34352
0.343859
0.345092
0.346553
0.348181
0.350026
0.351967
0.353933
0.355923
0.357972
0.360134
0.362459
0.364949
0.367601
0.37042
0.373423
0.521218
0.577675
0.650555
0.752381
0.924504
1.16118
1.44112
1.7325
2.00261
2.21981
2.35508
2.38636
2.30517
2.12573
1.90135
1.67684
1.47087
1.29437
1.15064
1.03632
0.940344
0.861159
0.795272
0.735372
0.678698
0.624849
0.57371
0.527601
0.490774
0.469149
0.470987
0.503329
0.611721
1.39084
0.524723
0.475227
0.43437
0.405422
0.385018
0.370656
0.360597
0.353635
0.348933
0.345923
0.344339
0.343666
0.343492
0.343952
0.345236
0.346701
0.348333
0.350165
0.352084
0.354029
0.356004
0.358042
0.360197
0.362487
0.36495
0.367601
0.37042
0.373423
0.584077
0.661317
0.772812
0.966126
1.23394
1.55276
1.89071
2.21592
2.497
2.70281
2.805
2.78439
2.63849
2.39005
2.10275
1.82629
1.57899
1.37072
1.20357
1.07282
0.965517
0.879176
0.808811
0.745858
0.686942
0.630507
0.577732
0.531244
0.493972
0.471744
0.47277
0.504449
0.616563
1.44106
0.5896
0.522997
0.467934
0.429172
0.401846
0.382546
0.368945
0.359419
0.352832
0.348401
0.345599
0.344182
0.343599
0.343478
0.344057
0.345379
0.346847
0.348481
0.350298
0.352196
0.354123
0.356083
0.358112
0.360227
0.362488
0.36495
0.367601
0.37042
0.373423
0.67166
0.793063
1.00702
1.30428
1.65955
2.04129
2.41888
2.7623
3.04042
3.22155
3.278
3.19446
2.97566
2.65347
2.30146
1.97292
1.68482
1.44538
1.2552
1.1082
0.989684
0.896301
0.821583
0.755701
0.693643
0.635276
0.582104
0.535212
0.497471
0.474608
0.474797
0.505993
0.62121
1.50219
0.680637
0.587529
0.512803
0.460774
0.424237
0.398417
0.380164
0.367298
0.35829
0.352067
0.347899
0.345304
0.344043
0.343547
0.343478
0.34417
0.34552
0.34699
0.348623
0.350426
0.352305
0.354214
0.356161
0.358145
0.360227
0.362488
0.36495
0.367601
0.37042
0.37342
0.812974
1.0467
1.3715
1.76056
2.18293
2.60934
3.01159
3.3602
3.62296
3.76704
3.76597
3.60964
3.31129
2.91218
2.49485
2.11495
1.78722
1.51765
1.30515
1.14231
1.01281
0.912546
0.833615
0.763716
0.699293
0.640456
0.586858
0.539539
0.501304
0.477776
0.477127
0.507622
0.6263
1.57437
0.678127
0.830491
0.572998
0.502938
0.453966
0.419489
0.395103
0.377865
0.365716
0.357209
0.351339
0.347426
0.345042
0.343922
0.343509
0.343492
0.34429
0.345659
0.34713
0.348761
0.35055
0.352409
0.354303
0.356198
0.358143
0.360227
0.362488
0.36495
0.367601
0.37041
0.373413
1.08474
1.43514
1.85535
2.31505
2.78625
3.24267
3.65729
3.99973
4.23564
4.33093
4.26138
4.02377
3.64089
3.1632
2.68105
2.25118
1.88538
1.58702
1.35314
1.17501
1.03486
0.927924
0.843442
0.77048
0.705431
0.646084
0.59203
0.544258
0.505504
0.481282
0.479697
0.50931
0.630736
1.64074
0.656201
0.828775
1.1175
0.559282
0.493543
0.447398
0.414888
0.391898
0.375651
0.364199
0.356176
0.350646
0.346979
0.344812
0.34382
0.343483
0.343522
0.344415
0.345796
0.347266
0.348893
0.350668
0.352511
0.354346
0.356196
0.358142
0.360226
0.362488
0.364949
0.367584
0.370389
0.373405
1.49484
1.94377
2.43756
2.94936
3.45467
3.92916
4.34567
4.67166
4.86985
4.90515
4.75717
4.43138
3.96077
3.4043
2.85874
2.38082
1.97879
1.65314
1.39897
1.20623
1.05582
0.940541
0.851753
0.777836
0.712101
0.6522
0.597656
0.549404
0.510104
0.485133
0.482433
0.510587
0.632813
1.69968
0.636112
0.793622
1.11756
1.54584
0.546289
0.484448
0.441018
0.410426
0.388803
0.373524
0.362746
0.35519
0.34999
0.346571
0.344613
0.343735
0.343459
0.343567
0.344542
0.345931
0.347399
0.349021
0.350782
0.352561
0.354344
0.356195
0.358142
0.360227
0.362487
0.364925
0.367549
0.370368
0.373398
2.02567
2.55066
3.09897
3.64766
4.17502
4.65766
5.06703
5.3672
5.51721
5.48187
5.24677
4.82772
4.268
3.63389
3.0271
2.50339
2.06714
1.71583
1.44253
1.23592
1.07308
0.95124
0.860815
0.78584
0.71935
0.658846
0.603777
0.555014
0.515131
0.489317
0.485276
0.511142
0.636088
1.76459
0.617425
0.761235
1.06295
1.54835
2.09527
0.533713
0.475594
0.43482
0.40611
0.385824
0.371482
0.361354
0.354252
0.349384
0.346207
0.344439
0.343667
0.343438
0.343625
0.34467
0.346062
0.347527
0.349144
0.35084
0.352561
0.354343
0.356195
0.358143
0.360227
0.362459
0.364878
0.367514
0.370346
0.37339
2.65446
3.2357
3.82245
4.39539
4.93495
5.41765
5.81229
6.07786
6.16943
6.05349
5.72413
5.20876
4.56034
3.85093
3.1857
2.61869
2.15032
1.77499
1.48374
1.26033
1.08775
0.962941
0.870701
0.794553
0.727229
0.666066
0.610432
0.561123
0.520604
0.493848
0.48795
0.511792
0.641449
1.83525
0.599588
0.731208
1.0103
1.47445
2.10123
2.74201
0.521454
0.46698
0.428816
0.401947
0.382962
0.369527
0.360031
0.353382
0.348832
0.345879
0.344288
0.34361
0.343423
0.343694
0.344797
0.34619
0.347653
0.349208
0.350842
0.352561
0.354343
0.356196
0.358145
0.360196
0.362402
0.364829
0.367477
0.370324
0.373382
3.35997
3.98026
4.59183
5.17871
5.72276
6.19957
6.57305
6.7954
6.81833
6.61277
6.18391
5.57131
4.83625
4.05483
3.33434
2.72671
2.22833
1.8306
1.51747
1.28106
1.10382
0.975748
0.881492
0.804038
0.735793
0.67391
0.617663
0.567764
0.526554
0.498674
0.49086
0.513526
0.645805
1.90476
0.582379
0.702927
0.95957
1.40109
2.01029
2.75187
3.46351
0.509511
0.458625
0.423016
0.397944
0.380219
0.367666
0.358801
0.352586
0.348327
0.345585
0.344157
0.343563
0.343414
0.343771
0.344924
0.346317
0.347717
0.349212
0.350843
0.352561
0.354344
0.356198
0.358111
0.360132
0.362344
0.364779
0.367439
0.370301
0.373374
4.12198
4.7664
5.39153
5.9843
6.52809
6.99512
7.34156
7.51164
7.45577
7.1529
6.62157
5.91297
5.09477
4.24533
3.4731
2.82758
2.30127
1.87585
1.546
1.30374
1.12144
0.989771
0.893275
0.814366
0.745101
0.682427
0.625515
0.574977
0.533009
0.503943
0.494513
0.515396
0.649152
1.97329
0.565743
0.676142
0.910437
1.32819
1.91883
2.6456
3.47653
4.23779
0.497909
0.450551
0.417433
0.394104
0.37761
0.36594
0.357675
0.351852
0.347862
0.34532
0.344042
0.343523
0.343413
0.343856
0.345054
0.346382
0.34772
0.349214
0.350843
0.352561
0.354346
0.35616
0.358041
0.360068
0.362284
0.364728
0.3674
0.370278
0.373366
4.92066
5.5767
6.20625
6.80067
7.3425
7.7973
8.11035
8.2183
8.07377
7.66783
7.03355
6.23214
5.33544
4.42255
3.60223
2.92152
2.36033
1.91399
1.57713
1.32857
1.14076
1.00513
0.906147
0.825615
0.755216
0.69167
0.634032
0.582809
0.540049
0.509877
0.498541
0.51662
0.653395
2.05524
0.549673
0.650791
0.86296
1.25536
1.82662
2.53823
3.35557
4.25157
5.043
0.486682
0.44278
0.412078
0.390457
0.375194
0.364362
0.356637
0.351172
0.347434
0.345083
0.343941
0.34349
0.343421
0.343952
0.345121
0.346383
0.347723
0.349214
0.350842
0.352561
0.354302
0.356082
0.35797
0.360002
0.362223
0.364674
0.36736
0.370254
0.373358
5.73677
6.39355
7.02303
7.61879
8.15977
8.5999
8.87187
8.90682
8.66474
8.15245
7.41726
6.52798
5.55831
4.58681
3.72206
2.99731
2.40995
1.9554
1.61105
1.35575
1.16196
1.02197
0.920212
0.837867
0.766204
0.701695
0.643267
0.591324
0.547786
0.516384
0.502646
0.518253
0.658779
2.14289
0.534173
0.626849
0.817431
1.18258
1.7331
2.42935
3.2337
4.11529
5.05322
5.85787
0.475867
0.435331
0.406994
0.387085
0.372992
0.36291
0.355674
0.350538
0.347038
0.344872
0.34385
0.343469
0.343448
0.343999
0.34512
0.346385
0.347723
0.349212
0.35084
0.35251
0.354212
0.356002
0.357897
0.359934
0.36216
0.36462
0.367319
0.370229
0.37335
6.55007
7.20229
7.83172
8.43305
8.97504
9.39697
9.6181
9.5685
9.22178
8.60274
7.77115
6.80036
5.76378
4.73859
3.8184
3.06081
2.46365
2.00035
1.648
1.38546
1.1852
1.04042
0.935584
0.851211
0.778137
0.712564
0.653282
0.600597
0.556218
0.523377
0.507173
0.520475
0.664871
2.21958
0.519258
0.604265
0.774235
1.11019
1.63796
2.31831
3.11021
3.97923
4.89941
5.85836
6.66238
0.465501
0.428269
0.402303
0.384021
0.370974
0.361568
0.354776
0.349947
0.346668
0.344683
0.343775
0.343469
0.343456
0.343991
0.345122
0.346385
0.347721
0.349208
0.350782
0.352408
0.35412
0.35592
0.357823
0.359866
0.362096
0.364563
0.367276
0.370204
0.373341
7.34412
7.99109
8.62711
9.23951
9.78442
10.1823
10.3401
10.1948
9.73896
9.01598
8.09471
7.04969
5.95248
4.86005
3.89892
3.12936
2.52171
2.04907
1.68821
1.41794
1.21067
1.06063
0.952384
0.865742
0.791091
0.72434
0.664141
0.610658
0.565345
0.530974
0.513204
0.52325
0.671324
2.28634
0.504954
0.582961
0.733743
1.03879
1.54117
2.2045
2.98444
3.84228
4.74817
5.68268
6.64632
7.43751
0.455684
0.421766
0.398052
0.381225
0.369116
0.360319
0.353935
0.349391
0.346321
0.344522
0.343733
0.343464
0.343437
0.343991
0.345122
0.346383
0.347717
0.349144
0.350666
0.352302
0.354026
0.355836
0.357748
0.359796
0.362031
0.364505
0.367232
0.370177
0.373332
8.10476
8.75524
9.40538
10.036
10.5852
10.9478
11.0284
10.7774
10.2117
9.39088
8.38829
7.27682
6.1025
4.96122
3.98558
3.20325
2.58443
2.10183
1.73191
1.45338
1.23857
1.08278
0.970741
0.881561
0.805145
0.737093
0.675888
0.621541
0.575222
0.540864
0.520541
0.525729
0.678943
2.3422
0.491392
0.562837
0.696248
0.96914
1.44298
2.08758
2.85555
3.70388
4.59782
5.51367
6.44141
7.39581
8.16688
0.446671
0.415892
0.394191
0.378664
0.367396
0.359153
0.353142
0.348867
0.346011
0.34441
0.343706
0.343443
0.343434
0.343991
0.34512
0.346382
0.347652
0.349019
0.350547
0.352193
0.353929
0.355751
0.357672
0.359725
0.361964
0.364446
0.367186
0.370151
0.373324
8.82526
9.48374
10.1548
10.8119
11.3696
11.6857
11.6727
11.3092
10.6373
9.72744
8.6529
7.45576
6.22684
5.06966
4.07868
3.28279
2.65205
2.15886
1.77932
1.49202
1.26909
1.10703
0.990787
0.898771
0.820381
0.750882
0.688578
0.633285
0.587942
0.552812
0.527987
0.529248
0.68812
2.38752
0.478927
0.543928
0.661914
0.902166
1.34385
1.96738
2.72279
3.56299
4.44799
5.34872
6.24997
7.15332
8.08604
8.84664
0.438562
0.410577
0.390672
0.376309
0.365798
0.358056
0.352392
0.348391
0.345777
0.344348
0.343677
0.343442
0.343434
0.343991
0.345121
0.346317
0.347525
0.34889
0.350423
0.35208
0.353829
0.355663
0.357594
0.359653
0.361896
0.364385
0.36714
0.370124
0.373315
9.50043
10.1804
10.8863
11.5708
12.1303
12.3837
12.2624
11.7849
11.0148
10.0268
8.8589
7.60306
6.35932
5.18561
4.1785
3.36825
2.72485
2.22041
1.83068
1.53404
1.30242
1.13353
1.01266
0.917477
0.836876
0.765774
0.702247
0.648322
0.603228
0.564981
0.535967
0.532053
0.700487
2.42209
0.46772
0.526593
0.630941
0.838931
1.24451
1.84392
2.58555
3.4185
4.29749
5.18759
6.06769
6.93317
7.7979
8.6951
9.46061
0.43126
0.405756
0.387455
0.374133
0.364302
0.357019
0.351707
0.348014
0.345651
0.344309
0.343678
0.343442
0.343436
0.343999
0.345053
0.346188
0.347396
0.348757
0.350294
0.351963
0.353726
0.355573
0.357515
0.359579
0.361826
0.364323
0.367094
0.370098
0.373307
10.1259
10.8484
11.6088
12.3161
12.8602
13.0282
12.7884
12.2015
11.3451
10.2562
9.02691
7.75872
6.49999
5.30924
4.28527
3.45986
2.80305
2.28669
1.88616
1.57964
1.33875
1.16246
1.03649
0.937782
0.854714
0.781811
0.719696
0.666323
0.618755
0.577478
0.543917
0.535234
0.715447
2.44815
0.457659
0.510962
0.60378
0.780907
1.14601
1.71736
2.44329
3.26934
4.14492
5.02899
5.89421
6.72951
7.54192
8.35585
9.21716
9.99746
0.424673
0.401373
0.384502
0.372109
0.362894
0.356069
0.351156
0.347815
0.345596
0.344314
0.343678
0.343443
0.343455
0.343951
0.344922
0.346059
0.347262
0.348619
0.35016
0.351841
0.353619
0.355481
0.357433
0.359504
0.361756
0.364262
0.367049
0.370072
0.373299
10.6996
11.4906
12.3236
13.0488
13.5498
13.6053
13.2439
12.5589
11.593
10.441
9.20249
7.92239
6.64873
5.44059
4.39913
3.55781
2.88683
2.35786
1.94593
1.62899
1.37824
1.19396
1.0624
0.959786
0.873943
0.802268
0.740532
0.684559
0.634512
0.590013
0.55251
0.53788
0.733242
2.46436
0.44863
0.496852
0.580217
0.730166
1.05048
1.58812
2.29557
3.11438
3.98876
4.87123
5.72792
6.54149
7.31194
8.05737
8.81312
9.64395
10.4561
0.41872
0.397377
0.381776
0.370216
0.361608
0.355302
0.350867
0.347746
0.345604
0.344313
0.343677
0.343464
0.343448
0.343854
0.344794
0.345927
0.347125
0.348476
0.350022
0.351716
0.353509
0.355386
0.35735
0.359429
0.361687
0.364203
0.367005
0.370047
0.373292
11.2257
12.1176
13.0335
13.7584
14.1829
14.1021
13.6258
12.8199
11.7894
10.6312
9.38465
8.09346
6.80523
5.5796
4.52013
3.66222
2.97634
2.43407
2.01013
1.68218
1.42099
1.22814
1.09049
0.983542
0.898493
0.826668
0.761589
0.702966
0.650329
0.602931
0.560816
0.54141
0.755714
2.47472
0.440523
0.484131
0.559517
0.687294
0.962034
1.45789
2.1421
2.95245
3.8273
4.7124
5.56686
6.36692
7.1064
7.7961
8.464
9.15853
9.96095
10.8335
0.413325
0.393714
0.379245
0.368495
0.360566
0.3549
0.350778
0.347762
0.345604
0.344308
0.343706
0.343469
0.343421
0.343768
0.344665
0.345792
0.346985
0.348328
0.349878
0.351585
0.353395
0.355287
0.357265
0.359354
0.36162
0.364146
0.366963
0.370023
0.373284
11.7137
12.7432
13.7375
14.4286
14.7343
14.5098
13.8946
13.0217
11.9872
10.8249
9.57197
8.27097
6.96893
5.72598
4.64819
3.77308
3.07161
2.51537
2.0788
1.73929
1.46709
1.26509
1.12081
1.0139
0.927767
0.851282
0.782774
0.721431
0.666316
0.615701
0.569681
0.545492
0.781682
2.4744
0.433235
0.472691
0.54111
0.651333
0.883438
1.33147
1.98403
2.78242
3.65863
4.5503
5.40876
6.20336
6.92211
7.56985
8.16664
8.7493
9.38022
10.153
11.1268
0.408415
0.390338
0.376954
0.367101
0.360017
0.354786
0.350805
0.347762
0.345595
0.344348
0.343733
0.343469
0.343412
0.343691
0.344537
0.345654
0.346842
0.348177
0.349729
0.35145
0.353276
0.355187
0.357181
0.359282
0.361556
0.36409
0.366921
0.37
0.373277
12.1802
13.3768
14.4322
15.0496
15.1783