/*--------------------------------*- C++ -*----------------------------------*\
  =========                 |
  \\      /  F ield         | OpenFOAM: The Open Source CFD Toolbox
   \\    /   O peration     | Website:  https://openfoam.org
    \\  /    A nd           | Version:  8
     \\/     M anipulation  |
\*---------------------------------------------------------------------------*/
FoamFile
{
    version     2.0;
    format      ascii;
    class       volScalarField;
    location    "0.14";
    object      k;
}
// * * * * * * * * * * * * * * * * * * * * * * * * * * * * * * * * * * * * * //

dimensions      [0 2 -2 0 0 0 0];

internalField   nonuniform List<scalar> 
15677
(
0.334162
0.365036
0.294768
0.368733
0.35771
0.281047
0.370694
0.360089
0.366153
0.282772
0.371885
0.361638
0.36149
0.38336
0.28889
0.372611
0.363747
0.357752
0.368366
0.401717
0.300311
0.373039
0.365665
0.357859
0.358179
0.380153
0.41941
0.311811
0.373263
0.367182
0.35947
0.35461
0.361072
0.393343
0.434799
0.322625
0.373348
0.368306
0.361364
0.354791
0.353087
0.366938
0.406213
0.447919
0.332109
0.373349
0.369082
0.36307
0.356354
0.351143
0.353528
0.373596
0.418328
0.45876
0.340505
0.373314
0.369567
0.364445
0.358229
0.351947
0.348812
0.354813
0.380742
0.429145
0.467918
0.34758
0.373275
0.369824
0.365465
0.359966
0.35373
0.348402
0.34717
0.357149
0.387699
0.438881
0.475421
0.353811
0.37325
0.369925
0.36615
0.361399
0.355673
0.349778
0.345374
0.346347
0.359739
0.394498
0.447291
0.481856
0.358998
0.37324
0.36994
0.366549
0.362478
0.357431
0.35173
0.346221
0.342944
0.345911
0.362648
0.400738
0.454777
0.487151
0.363654
0.37324
0.369923
0.366737
0.363208
0.358862
0.353687
0.348083
0.343105
0.340878
0.345926
0.365511
0.40662
0.461118
0.491735
0.367707
0.37324
0.369908
0.366795
0.363634
0.359918
0.355393
0.350164
0.344758
0.340303
0.339207
0.346062
0.368428
0.411804
0.466747
0.495526
0.371304
0.37324
0.3699
0.366796
0.363832
0.360608
0.356738
0.352092
0.346885
0.341707
0.337826
0.337757
0.346398
0.371114
0.416605
0.471418
0.498886
0.374589
0.373239
0.369897
0.366785
0.36389
0.36099
0.35769
0.353692
0.34898
0.343838
0.338925
0.33559
0.33654
0.346798
0.373755
0.420674
0.475542
0.501778
0.377395
0.373238
0.369896
0.366776
0.363899
0.361138
0.358276
0.354889
0.350797
0.346065
0.341017
0.33638
0.333589
0.33547
0.34732
0.376038
0.424363
0.478934
0.504336
0.380225
0.373237
0.369896
0.366769
0.363894
0.361181
0.358546
0.35568
0.352221
0.348072
0.343341
0.338418
0.334058
0.33178
0.334589
0.347766
0.378197
0.427368
0.481914
0.506703
0.38244
0.373236
0.369896
0.366764
0.363888
0.361184
0.358651
0.356079
0.353217
0.349702
0.345513
0.340825
0.336028
0.331946
0.330179
0.3338
0.348255
0.37995
0.430057
0.484364
0.508736
0.385065
0.373236
0.369895
0.36676
0.363883
0.361177
0.358684
0.356251
0.353762
0.350888
0.347332
0.343146
0.338502
0.333857
0.330044
0.328754
0.333142
0.34863
0.381565
0.432134
0.486504
0.510862
0.386827
0.373236
0.369895
0.366758
0.36388
0.361168
0.358688
0.356314
0.354025
0.351569
0.348707
0.345143
0.340959
0.336402
0.331901
0.328366
0.327513
0.332566
0.348998
0.382768
0.434005
0.488282
0.512559
0.389423
0.373236
0.369894
0.366756
0.363877
0.36116
0.358683
0.356328
0.354141
0.351913
0.349538
0.346691
0.343121
0.339
0.334523
0.330192
0.326904
0.326462
0.332088
0.349264
0.383889
0.435331
0.489871
0.514697
0.390858
0.373236
0.369894
0.366755
0.363874
0.361153
0.358675
0.356323
0.354182
0.352072
0.349988
0.347652
0.344843
0.341334
0.337258
0.332902
0.328726
0.325702
0.325613
0.331741
0.349518
0.384615
0.436607
0.49116
0.516131
0.393453
0.373236
0.369893
0.366754
0.363872
0.361149
0.358668
0.356312
0.354188
0.352132
0.350217
0.348183
0.345957
0.343229
0.33975
0.335792
0.331564
0.327583
0.324768
0.324986
0.331444
0.349701
0.385349
0.43737
0.492541
0.518673
0.394825
0.373236
0.369893
0.366754
0.36387
0.361145
0.358661
0.356301
0.354181
0.352144
0.350318
0.348457
0.346608
0.344465
0.34181
0.338491
0.334651
0.330567
0.326707
0.324102
0.324589
0.331424
0.349961
0.385778
0.438302
0.49342
0.520312
0.504488
0.373237
0.369893
0.366753
0.363868
0.361143
0.358656
0.356292
0.354169
0.352137
0.350351
0.34858
0.34697
0.345187
0.343215
0.340769
0.337518
0.333808
0.329884
0.326291
0.323913
0.324618
0.331516
0.350189
0.386255
0.438738
0.49537
0.529015
0.710238
0.373237
0.369892
0.366753
0.363867
0.361141
0.358651
0.356284
0.354157
0.352122
0.350351
0.348622
0.34715
0.345586
0.344087
0.342299
0.33993
0.336967
0.333562
0.329894
0.32638
0.324061
0.324828
0.331759
0.350503
0.386615
0.43963
0.495964
0.54577
0.885101
0.373237
0.369892
0.366753
0.363866
0.36114
0.358648
0.356278
0.354146
0.352107
0.350336
0.348625
0.347221
0.345784
0.344606
0.34322
0.341676
0.339784
0.337056
0.333774
0.330194
0.326777
0.324514
0.325324
0.332257
0.350949
0.387021
0.440296
0.495684
0.558523
1.02628
0.373237
0.369891
0.366753
0.363864
0.361139
0.358644
0.356274
0.354137
0.352094
0.350316
0.34861
0.347234
0.345867
0.344885
0.343756
0.342829
0.341749
0.340041
0.337508
0.334413
0.330968
0.327658
0.325436
0.326269
0.33308
0.351537
0.387632
0.440044
0.494192
0.567954
1.14826
0.373238
0.369891
0.366753
0.363863
0.361138
0.358641
0.35627
0.35413
0.352083
0.350298
0.348588
0.347217
0.345888
0.345008
0.344042
0.343551
0.342992
0.342176
0.340776
0.338526
0.33572
0.332472
0.329221
0.326947
0.327623
0.334222
0.352385
0.38811
0.439133
0.491039
0.574397
1.24685
0.373238
0.369891
0.366754
0.363863
0.361137
0.358639
0.356267
0.354123
0.352074
0.350282
0.348568
0.34719
0.345877
0.34504
0.344179
0.343969
0.343778
0.34357
0.343166
0.342257
0.340426
0.337865
0.33472
0.331445
0.329003
0.329434
0.335726
0.353425
0.388465
0.437231
0.485647
0.578566
1.31924
0.373238
0.36989
0.366754
0.363862
0.361137
0.358637
0.356265
0.354117
0.352066
0.350269
0.348549
0.347162
0.34585
0.345026
0.344236
0.344181
0.344242
0.344467
0.34479
0.345056
0.344672
0.3432
0.340851
0.337763
0.334356
0.33167
0.331711
0.337602
0.354663
0.388415
0.434004
0.478874
0.581201
1.37411
0.373238
0.36989
0.366754
0.363861
0.361137
0.358635
0.356263
0.354113
0.352059
0.350257
0.348532
0.347137
0.345821
0.344992
0.344241
0.344258
0.344489
0.345015
0.345876
0.346974
0.347902
0.348073
0.346949
0.344776
0.341645
0.338032
0.334952
0.334492
0.339845
0.356013
0.388133
0.4297
0.472105
0.583439
1.41742
0.36989
0.373242
0.366754
0.36386
0.361137
0.358633
0.356261
0.354108
0.352054
0.350247
0.348518
0.347115
0.345793
0.344956
0.344216
0.344273
0.3446
0.345327
0.346571
0.348285
0.35017
0.351839
0.352584
0.35179
0.349702
0.346451
0.342479
0.338901
0.337749
0.342432
0.357636
0.387472
0.425255
0.46575
0.585707
1.45309
0.366755
0.3699
0.37325
0.36386
0.361136
0.358631
0.35626
0.354104
0.35205
0.350238
0.348506
0.347096
0.345767
0.344921
0.344181
0.344254
0.344637
0.345492
0.346998
0.349162
0.351772
0.354548
0.357014
0.358342
0.357803
0.355728
0.352199
0.347761
0.343477
0.341488
0.345688
0.359647
0.386608
0.420868
0.460025
0.588386
1.48365
0.363859
0.366771
0.36992
0.373257
0.361136
0.35863
0.356259
0.354101
0.352046
0.35023
0.348496
0.34708
0.345745
0.34489
0.344146
0.344223
0.344635
0.34557
0.347256
0.349741
0.352894
0.356527
0.360279
0.363588
0.365456
0.365104
0.36288
0.35896
0.353832
0.3487
0.346143
0.349647
0.361824
0.385745
0.416839
0.455027
0.591397
1.51064
0.361136
0.363881
0.366805
0.369942
0.373265
0.358629
0.356258
0.354098
0.352043
0.350223
0.348487
0.347065
0.345726
0.344863
0.344114
0.344191
0.344617
0.3456
0.34741
0.350128
0.353687
0.35798
0.362746
0.367548
0.371694
0.374059
0.373733
0.371242
0.36669
0.36072
0.355169
0.351972
0.353936
0.36418
0.385017
0.413122
0.450719
0.594879
1.53511
0.358628
0.361164
0.363925
0.36684
0.369963
0.373274
0.356258
0.354095
0.35204
0.350217
0.34848
0.347052
0.345709
0.34484
0.344086
0.344162
0.344594
0.345608
0.347502
0.350399
0.354268
0.359072
0.36464
0.370643
0.376519
0.381493
0.384213
0.383793
0.380773
0.375426
0.369221
0.363193
0.358384
0.358519
0.366694
0.384459
0.409801
0.447082
0.598596
1.55759
0.356257
0.358659
0.36122
0.363971
0.366876
0.369986
0.373282
0.354093
0.352038
0.350211
0.348474
0.347041
0.345695
0.344819
0.344061
0.344135
0.344573
0.345609
0.347562
0.350596
0.354722
0.359936
0.366148
0.373122
0.38041
0.387379
0.393067
0.396039
0.395242
0.391523
0.386182
0.379722
0.371974
0.36529
0.363357
0.3694
0.384214
0.406872
0.444004
0.602653
1.57857
0.35409
0.356293
0.358722
0.361277
0.364018
0.366913
0.370009
0.373291
0.352037
0.350206
0.348469
0.347031
0.345683
0.344801
0.344039
0.344112
0.344554
0.345608
0.347608
0.35075
0.355089
0.360664
0.367417
0.375199
0.38366
0.392279
0.400244
0.406571
0.409502
0.408151
0.404748
0.399446
0.391178
0.381405
0.372599
0.368395
0.372219
0.384287
0.404384
0.441384
0.606769
1.59816
0.352035
0.354128
0.356367
0.358788
0.361336
0.364066
0.36695
0.370032
0.3733
0.350202
0.348465
0.347022
0.345673
0.344786
0.344021
0.344092
0.344537
0.345607
0.347647
0.350879
0.355398
0.361296
0.368551
0.377038
0.386505
0.396531
0.406413
0.415318
0.421988
0.424713
0.42403
0.421045
0.413895
0.403452
0.391364
0.380222
0.373612
0.375078
0.38452
0.402273
0.439211
0.611092
1.61666
0.350198
0.352077
0.354207
0.356442
0.358855
0.361396
0.364115
0.366989
0.370057
0.373309
0.348462
0.347014
0.345664
0.344772
0.344005
0.344075
0.344524
0.345607
0.347682
0.350994
0.355668
0.361848
0.369581
0.378759
0.389133
0.400402
0.411949
0.423066
0.432622
0.439486
0.443453
0.443618
0.43879
0.429353
0.416387
0.401732
0.388078
0.378981
0.377976
0.384991
0.400531
0.437384
0.615329
1.634
0.348459
0.350239
0.352164
0.354288
0.35652
0.358925
0.361458
0.364166
0.367029
0.370082
0.373318
0.347006
0.345657
0.34476
0.343991
0.34406
0.344512
0.345608
0.347715
0.351098
0.355913
0.362344
0.37051
0.380377
0.391683
0.404111
0.417169
0.430243
0.442297
0.452382
0.461169
0.466686
0.46499
0.457769
0.445615
0.429821
0.412392
0.396088
0.38444
0.380907
0.38565
0.399078
0.435896
0.619679
1.65045
0.347
0.348503
0.350327
0.352253
0.354371
0.3566
0.358996
0.361522
0.364219
0.36707
0.370107
0.373328
0.345651
0.344749
0.343979
0.344048
0.344502
0.345609
0.347746
0.351194
0.356136
0.362798
0.371359
0.381866
0.394145
0.407821
0.422329
0.437228
0.451529
0.46443
0.477011
0.488251
0.492189
0.48791
0.477744
0.462484
0.443603
0.423229
0.404176
0.389933
0.383869
0.386488
0.39794
0.434665
0.623842
1.66583
0.345646
0.347038
0.348595
0.350417
0.352344
0.354457
0.356682
0.359069
0.361588
0.364272
0.367112
0.370134
0.373337
0.344739
0.343968
0.344037
0.344494
0.345612
0.347774
0.351283
0.356341
0.363215
0.372143
0.383247
0.396456
0.411491
0.427624
0.44433
0.460776
0.476259
0.492228
0.508046
0.518207
0.519731
0.512138
0.49849
0.479771
0.457583
0.434136
0.412269
0.395417
0.386833
0.38737
0.397058
0.433695
0.628059
1.68045
0.34473
0.345684
0.347124
0.34869
0.35051
0.352439
0.354546
0.356766
0.359145
0.361655
0.364328
0.367155
0.370161
0.373347
0.343958
0.344028
0.344488
0.345615
0.347801
0.351364
0.356528
0.363598
0.372867
0.384533
0.398628
0.414994
0.432966
0.451798
0.470427
0.488439
0.507606
0.527651
0.542723
0.550827
0.549026
0.537416
0.519782
0.497294
0.47162
0.445015
0.420303
0.400848
0.389817
0.388295
0.396386
0.432903
0.632024
1.69406
0.343951
0.344755
0.345766
0.347212
0.348788
0.350607
0.352537
0.354637
0.356853
0.359222
0.361724
0.364384
0.367198
0.370187
0.373356
0.344019
0.344482
0.345618
0.347825
0.351438
0.3567
0.36395
0.373536
0.385729
0.400671
0.418323
0.438144
0.4595
0.4808
0.501466
0.523884
0.548104
0.567739
0.580912
0.585858
0.579795
0.563493
0.54142
0.514885
0.485591
0.455779
0.428222
0.406195
0.39279
0.389257
0.39589
0.432307
0.636013
1.70702
0.344014
0.343962
0.344816
0.345851
0.347304
0.348891
0.350706
0.352637
0.35473
0.356943
0.359302
0.361795
0.364442
0.367242
0.370213
0.373365
0.344475
0.34562
0.347847
0.351506
0.356857
0.364273
0.374151
0.386838
0.402585
0.421478
0.443128
0.467098
0.491684
0.515777
0.541758
0.57045
0.594672
0.612544
0.622462
0.623059
0.611764
0.59011
0.563207
0.5324
0.499391
0.466355
0.435977
0.411428
0.39573
0.390248
0.395535
0.431828
0.639708
1.71901
0.344471
0.344002
0.343993
0.344877
0.345941
0.347399
0.348997
0.350809
0.352741
0.354827
0.357034
0.359384
0.361867
0.3645
0.367284
0.370239
0.373374
0.34562
0.347866
0.351567
0.357
0.364568
0.374717
0.387865
0.404371
0.424455
0.447909
0.474507
0.502554
0.531128
0.561915
0.595753
0.62506
0.647755
0.662207
0.667305
0.662228
0.644685
0.617039
0.584964
0.549708
0.512929
0.476681
0.443529
0.416525
0.398617
0.391257
0.395301
0.431498
0.643415
1.73045
0.345625
0.344431
0.343976
0.344031
0.344941
0.346037
0.347498
0.349106
0.350915
0.352847
0.354927
0.357129
0.359468
0.361939
0.364556
0.367325
0.370263
0.373382
0.347882
0.351623
0.357131
0.364839
0.375236
0.388812
0.406032
0.427253
0.452468
0.481675
0.513275
0.546838
0.58409
0.625127
0.660666
0.689059
0.708255
0.717173
0.715514
0.703227
0.678344
0.644081
0.606539
0.566708
0.526132
0.486709
0.450848
0.421466
0.401437
0.392277
0.395159
0.431238
0.646805
1.74097
0.347903
0.345545
0.344343
0.343935
0.344083
0.345009
0.346138
0.3476
0.34922
0.351024
0.352957
0.355029
0.357225
0.359551
0.362009
0.36461
0.367365
0.370287
0.373391
0.351672
0.357249
0.365084
0.37571
0.389684
0.407571
0.42987
0.456789
0.48856
0.523799
0.562724
0.607187
0.65837
0.703781
0.739951
0.765127
0.777818
0.778195
0.767273
0.745966
0.712567
0.671071
0.627802
0.583313
0.538944
0.4964
0.457908
0.426236
0.404177
0.393297
0.395101
0.431092
0.65021
1.75104
0.351727
0.347757
0.345358
0.34425
0.343896
0.344146
0.34508
0.346244
0.347707
0.349337
0.351137
0.35307
0.355134
0.35732
0.359633
0.362076
0.364663
0.367403
0.370311
0.373399
0.357355
0.365307
0.376143
0.390483
0.408992
0.432309
0.460862
0.495133
0.53408
0.578627
0.630739
0.694246
0.755632
0.805805
0.839732
0.857098
0.858414
0.846062
0.822758
0.790365
0.747202
0.697872
0.648648
0.599456
0.551323
0.505728
0.464693
0.430823
0.406827
0.394312
0.395113
0.430986
0.653291
1.7591
0.357463
0.351498
0.347399
0.345163
0.344165
0.343865
0.344219
0.345156
0.346355
0.347818
0.349458
0.351254
0.353185
0.355239
0.357413
0.359712
0.362142
0.364715
0.367441
0.370333
0.373406
0.365509
0.376536
0.391215
0.410302
0.434574
0.464685
0.501379
0.54406
0.594347
0.65454
0.732949
0.816059
0.890811
0.941967
0.966315
0.968116
0.951345
0.921159
0.881963
0.836288
0.782102
0.724367
0.668993
0.615083
0.563236
0.514674
0.471191
0.435221
0.409382
0.395311
0.395148
0.430978
0.655969
1.76588
0.365707
0.357126
0.350906
0.347026
0.344983
0.34409
0.343843
0.344297
0.345237
0.34647
0.347934
0.349582
0.351375
0.353299
0.35534
0.357503
0.359789
0.362206
0.364765
0.367477
0.370355
0.373414
0.376896
0.391883
0.411506
0.436672
0.468261
0.507289
0.553678
0.60972
0.678616
0.775068
0.885693
0.993824
1.07699
1.11856
1.12204
1.09867
1.05642
1.00314
0.944578
0.883503
0.817107
0.750451
0.688772
0.630154
0.574662
0.523226
0.477396
0.439424
0.411836
0.396297
0.395217
0.430991
0.658158
1.7732
0.377239
0.365232
0.356204
0.350292
0.346678
0.344819
0.344025
0.343831
0.344381
0.345325
0.346589
0.348056
0.349709
0.351495
0.35341
0.35544
0.35759
0.359863
0.362268
0.364814
0.367512
0.370377
0.373421
0.392498
0.41261
0.438612
0.471594
0.512858
0.562886
0.62466
0.703115
0.820762
0.963739
1.11174
1.23714
1.31535
1.33334
1.30395
1.24622
1.17185
1.0909
1.00997
0.931666
0.852041
0.776032
0.707935
0.644642
0.58559
0.53138
0.483305
0.44343
0.414186
0.397262
0.395302
0.431019
0.660598
1.78118
0.39307
0.376591
0.363847
0.35525
0.349711
0.346354
0.344668
0.34397
0.343829
0.344468
0.345422
0.346712
0.348182
0.349835
0.351612
0.353518
0.355537
0.357675
0.359936
0.362329
0.364861
0.367547
0.370397
0.373425
0.413632
0.440402
0.474694
0.518086
0.571655
0.639144
0.728133
0.869493
1.04777
1.23932
1.413
1.53965
1.59725
1.57834
1.50579
1.40635
1.29482
1.18281
1.07728
0.98035
0.886708
0.80102
0.726441
0.658531
0.596013
0.539135
0.488919
0.44724
0.41643
0.398077
0.395385
0.431086
0.663208
1.78983
0.414564
0.392215
0.374562
0.362422
0.354343
0.349161
0.346051
0.344528
0.343925
0.34384
0.344558
0.345527
0.346837
0.348309
0.349958
0.351727
0.353623
0.355631
0.357758
0.360007
0.362387
0.364908
0.36758
0.370408
0.373425
0.442067
0.477574
0.522981
0.579974
0.653177
0.753616
0.920219
1.13481
1.37097
1.59571
1.77729
1.8886
1.91135
1.84428
1.72054
1.57415
1.42216
1.27701
1.14551
1.02908
0.920908
0.825336
0.744262
0.67181
0.605933
0.546494
0.494241
0.450855
0.418287
0.398782
0.395494
0.431175
0.666148
1.7993
0.44356
0.413455
0.389296
0.37249
0.361065
0.353479
0.348635
0.345768
0.3444
0.343891
0.343868
0.344649
0.345641
0.346961
0.348434
0.350078
0.35184
0.353725
0.355723
0.357839
0.360076
0.362444
0.364952
0.367597
0.370408
0.373425
0.480265
0.52756
0.587851
0.66677
0.779376
0.971751
1.22217
1.50216
1.7782
2.01773
2.19057
2.27184
2.24737
2.12284
1.9419
1.74514
1.55094
1.37171
1.21371
1.07739
0.954442
0.848908
0.761375
0.684476
0.615355
0.553465
0.499278
0.453828
0.419869
0.399569
0.395627
0.431334
0.669289
1.80958
0.48264
0.442144
0.40931
0.386339
0.370513
0.359765
0.352647
0.348128
0.345505
0.344283
0.343862
0.343921
0.344739
0.34576
0.347083
0.348558
0.350194
0.351949
0.353825
0.355812
0.357917
0.360143
0.3625
0.364974
0.367597
0.370408
0.373425
0.531859
0.595315
0.679937
0.805156
1.02301
1.30784
1.62976
1.95564
2.25336
2.49161
2.64113
2.67928
2.59678
2.4072
2.16474
1.91567
1.67868
1.4654
1.28098
1.12483
0.987131
0.871672
0.777762
0.696532
0.624289
0.560057
0.503409
0.456352
0.421611
0.400448
0.395804
0.431521
0.672834
1.82085
0.535612
0.480862
0.436304
0.405148
0.383517
0.368614
0.35851
0.351845
0.347643
0.34526
0.344176
0.343823
0.343994
0.344829
0.345879
0.347202
0.348679
0.350308
0.352056
0.353921
0.355899
0.357993
0.360208
0.362527
0.364974
0.367597
0.370408
0.373425
0.602406
0.692701
0.830711
1.07312
1.39043
1.75182
2.12505
2.47919
2.78337
3.00636
3.11935
3.10249
2.9526
2.69193
2.38507
2.08295
1.80349
1.55682
1.34661
1.17102
1.01881
0.893575
0.793418
0.707986
0.632744
0.565461
0.506911
0.459119
0.423529
0.401435
0.396017
0.431803
0.676628
1.83305
0.608596
0.533375
0.472655
0.430499
0.401174
0.380798
0.366774
0.357295
0.351073
0.347181
0.345032
0.344081
0.343791
0.344078
0.344919
0.345998
0.347319
0.348797
0.350419
0.352159
0.354016
0.355983
0.358067
0.36024
0.362527
0.364974
0.367597
0.370408
0.373425
0.705062
0.855824
1.12149
1.46908
1.86723
2.28475
2.69221
3.06023
3.35775
3.55269
3.61681
3.53416
3.30896
2.9727
2.59992
2.24492
1.92397
1.64507
1.41004
1.21568
1.04936
0.914578
0.80834
0.718847
0.639682
0.570041
0.510742
0.462153
0.425646
0.402542
0.396294
0.432128
0.680934
1.84645
0.715948
0.605813
0.521748
0.464592
0.424954
0.397337
0.378159
0.364989
0.356121
0.350332
0.346746
0.344825
0.343997
0.34377
0.344166
0.34501
0.346116
0.347434
0.348913
0.350527
0.352261
0.354107
0.356065
0.358103
0.36024
0.362527
0.364974
0.367597
0.370408
0.373421
0.880259
1.1677
1.54332
1.97542
2.43389
2.89081
3.31875
3.68838
3.96726
4.12208
4.12579
3.96777
3.66087
3.24614
2.80708
2.40018
2.03919
1.72951
1.47085
1.25855
1.07866
0.934652
0.822531
0.727775
0.645566
0.575051
0.514937
0.465485
0.427985
0.40379
0.396625
0.432587
0.685557
1.86091
0.712594
0.901761
0.588693
0.51055
0.456885
0.419591
0.393605
0.375592
0.36326
0.35499
0.349626
0.346341
0.344637
0.343928
0.343763
0.344255
0.345104
0.346231
0.347547
0.349025
0.350633
0.352359
0.354197
0.356106
0.358103
0.36024
0.362527
0.364974
0.367597
0.370397
0.373414
1.2114
1.61294
2.07622
2.57222
3.07434
3.55715
3.99391
4.35416
4.60321
4.70641
4.63901
4.39742
4.00419
3.50964
3.00503
2.54781
2.14858
1.80975
1.52877
1.29949
1.10666
0.953781
0.834223
0.735355
0.652006
0.580534
0.519533
0.469146
0.430573
0.405194
0.397046
0.433111
0.69083
1.8768
0.685724
0.898919
1.24904
0.572721
0.499867
0.449419
0.414369
0.389971
0.373101
0.361589
0.353905
0.348957
0.345967
0.344471
0.343875
0.343769
0.344344
0.3452
0.346343
0.347659
0.349135
0.350736
0.352455
0.354241
0.356106
0.358103
0.36024
0.362527
0.364974
0.36758
0.370376
0.373406
1.67777
2.1697
2.69986
3.24279
3.77487
4.27218
4.70764
5.04854
5.25712
5.29774
5.14957
4.81787
4.3355
3.76126
3.19275
2.68729
2.25181
1.88556
1.58365
1.3384
1.13331
0.969563
0.844166
0.743661
0.65906
0.58654
0.524574
0.473174
0.433441
0.406784
0.397547
0.433818
0.696513
1.89385
0.661111
0.855643
1.24709
1.73299
0.55771
0.489502
0.442143
0.409278
0.38644
0.370691
0.359981
0.352869
0.348329
0.345632
0.344331
0.343837
0.343789
0.344429
0.345298
0.346453
0.347769
0.349242
0.350838
0.352502
0.35424
0.356106
0.358103
0.36024
0.362527
0.364952
0.367546
0.370355
0.373398
2.25589
2.81721
3.39668
3.97226
4.52273
5.02492
5.45037
5.76279
5.92069
5.88833
5.65104
5.22458
4.6521
3.99966
3.36968
2.81839
2.34878
1.95688
1.63544
1.37522
1.15525
0.982992
0.855077
0.75277
0.666793
0.593126
0.530107
0.477611
0.436624
0.408579
0.398178
0.434628
0.703035
1.91262
0.638414
0.81496
1.18307
1.73297
2.32897
0.543261
0.479385
0.435051
0.404328
0.383019
0.368366
0.35844
0.35189
0.347758
0.34534
0.344212
0.343811
0.343828
0.344512
0.345398
0.346559
0.347877
0.349347
0.350887
0.352502
0.35424
0.356106
0.358103
0.36024
0.362499
0.364907
0.367511
0.370332
0.37339
2.92453
3.53681
4.15035
4.74637
5.30563
5.80498
6.21312
6.48852
6.58568
6.47069
6.13756
5.61374
4.95199
4.22403
3.53558
2.94109
2.43954
2.02374
1.68411
1.40538
1.17389
0.997733
0.86706
0.76277
0.67528
0.600354
0.536186
0.482502
0.44016
0.410619
0.398928
0.435685
0.710088
1.93258
0.617029
0.776887
1.12018
1.65037
2.33208
3.01484
0.529214
0.469516
0.428156
0.399529
0.379717
0.366133
0.356978
0.350993
0.347247
0.345091
0.34411
0.343785
0.343882
0.344591
0.345499
0.346664
0.347985
0.349398
0.350887
0.352502
0.35424
0.356106
0.358103
0.360208
0.362443
0.36486
0.367476
0.37031
0.373382
3.66378
4.31058
4.94494
5.55127
6.11204
6.60295
6.98759
7.21754
7.24398
7.0377
6.60397
5.98236
5.23385
4.43397
3.69044
3.05554
2.52423
2.08623
1.72373
1.43089
1.19431
1.01392
0.880231
0.773758
0.684601
0.608293
0.542872
0.487901
0.444098
0.412932
0.399861
0.436903
0.718251
1.95459
0.59666
0.74102
1.05871
1.56738
2.23293
3.02155
3.76929
0.515539
0.459919
0.421473
0.394893
0.376541
0.364011
0.355634
0.350187
0.346788
0.344875
0.344026
0.343759
0.343947
0.344669
0.345601
0.34677
0.348038
0.349396
0.350886
0.352502
0.35424
0.356106
0.358066
0.360142
0.362386
0.364812
0.367439
0.370286
0.373374
4.45403
5.12076
5.76475
6.37389
6.93182
7.41069
7.76612
7.94173
7.8876
7.58278
7.04597
6.32831
5.49692
4.62942
3.83451
3.16202
2.60309
2.13683
1.75712
1.45873
1.21668
1.03171
0.89472
0.785842
0.694851
0.617024
0.550234
0.493867
0.448486
0.415571
0.40097
0.438367
0.727088
1.97768
0.577182
0.707228
0.998504
1.48418
2.1324
2.90738
3.77873
4.57086
0.502252
0.450621
0.415021
0.390434
0.373521
0.362056
0.354423
0.349463
0.346381
0.34469
0.343955
0.34374
0.344017
0.344749
0.345707
0.346819
0.348036
0.349396
0.350886
0.352502
0.354241
0.356065
0.357991
0.360074
0.362327
0.364763
0.367402
0.370262
0.373365
5.27565
5.94967
6.59489
7.20301
7.75678
8.22133
8.54132
8.65293
8.50873
8.10009
7.46027
6.65022
5.74096
4.81066
3.96815
3.26086
2.66671
2.17934
1.79338
1.48908
1.24118
1.05127
0.910667
0.799145
0.706132
0.626636
0.558348
0.500469
0.453388
0.418576
0.402338
0.439951
0.737403
2.00761
0.558534
0.675529
0.939729
1.40045
2.03052
2.79134
3.65005
4.5805
5.39792
0.489383
0.441654
0.408818
0.386195
0.370737
0.360292
0.353332
0.348815
0.346023
0.344531
0.343896
0.34373
0.344093
0.344835
0.345759
0.346813
0.348036
0.349396
0.350887
0.352502
0.354196
0.355982
0.357915
0.360005
0.362266
0.364713
0.367363
0.370238
0.373356
6.10886
6.78033
7.42266
8.02999
8.58087
9.02878
9.30577
9.34277
9.10003
8.58483
7.84457
6.94749
5.96621
4.97813
4.09183
3.34038
2.72003
2.22534
1.83273
1.52215
1.26801
1.07276
0.928231
0.813802
0.718562
0.637229
0.567302
0.507783
0.458869
0.422018
0.403962
0.441871
0.750578
2.04323
0.540675
0.64596
0.88283
1.31616
1.92684
2.67326
3.51978
4.43656
5.40333
6.22927
0.476968
0.433048
0.402924
0.382285
0.368222
0.3587
0.35235
0.348236
0.345708
0.344393
0.343849
0.343735
0.344182
0.344871
0.345755
0.346812
0.348036
0.349396
0.350887
0.352454
0.354106
0.355896
0.357836
0.359934
0.362204
0.364662
0.367324
0.370213
0.373347
6.9344
7.5983
8.23851
8.84939
9.39942
9.8272
10.0516
10.0028
9.65492
9.03332
8.19761
7.22023
6.17323
5.13246
4.19101
3.40689
2.77758
2.27508
1.87539
1.55814
1.29737
1.09639
0.94758
0.829961
0.732269
0.648916
0.577194
0.515898
0.465012
0.425956
0.40594
0.444448
0.767737
2.07876
0.523583
0.618499
0.828406
1.23161
1.82105
2.55263
3.38742
4.29227
5.24174
6.22449
7.04479
0.465051
0.424886
0.397493
0.378756
0.365952
0.357265
0.351468
0.347719
0.345431
0.344273
0.343819
0.343766
0.344224
0.344856
0.345756
0.346812
0.348036
0.349398
0.350837
0.352357
0.354013
0.355809
0.357755
0.359861
0.36214
0.364609
0.367283
0.370187
0.373337
7.73596
8.39261
9.03735
9.65759
10.2086
10.6105
10.7701
10.6247
10.1678
9.4432
8.51918
7.46906
6.36282
5.25566
4.27377
3.47853
2.83964
2.3288
1.92159
1.59729
1.32948
1.12234
0.968898
0.847786
0.747398
0.661822
0.588138
0.524913
0.471905
0.430486
0.408744
0.447999
0.786804
2.11375
0.507252
0.59305
0.777104
1.14737
1.71308
2.42883
3.25248
4.14671
5.08233
6.04059
7.02267
7.82586
0.453755
0.417385
0.392594
0.375572
0.363904
0.355972
0.350676
0.347257
0.345185
0.344179
0.343823
0.34377
0.344214
0.344853
0.345756
0.346813
0.348038
0.349347
0.350734
0.352258
0.353918
0.355719
0.357672
0.359786
0.362074
0.364555
0.367241
0.37016
0.373328
8.50056
9.15856
9.81515
10.452
11.0059
11.3709
11.4522
11.2008
10.6347
9.81355
8.80989
7.69503
6.51313
5.35811
4.36267
3.55558
2.90647
2.38675
1.97155
1.6398
1.36454
1.15082
0.992378
0.867454
0.764107
0.676093
0.600257
0.534943
0.479665
0.436662
0.412666
0.452201
0.807628
2.14793
0.491799
0.569445
0.729537
1.06421
1.60306
2.30145
3.11412
3.99948
4.92357
5.86325
6.80939
7.77684
8.55798
0.443387
0.410635
0.388178
0.372701
0.362058
0.354808
0.349963
0.346841
0.344981
0.344135
0.343813
0.34374
0.344216
0.344853
0.345755
0.346819
0.347985
0.34924
0.35063
0.352156
0.353821
0.355627
0.357587
0.359709
0.362007
0.364499
0.367198
0.370133
0.373318
9.22063
9.88411
10.5605
11.222
11.7837
12.1014
12.0878
11.7242
11.0531
10.1447
9.07103
7.87253
6.63749
5.46771
4.45799
3.63833
2.97834
2.44915
2.0255
1.68588
1.40275
1.18205
1.01822
0.889151
0.782568
0.691881
0.613702
0.546124
0.490024
0.44481
0.417321
0.45711
0.830596
2.181
0.477604
0.547663
0.686221
0.983134
1.49134
2.17025
2.97155
3.8496
4.76523
5.68995
6.6094
7.52608
8.46646
9.23592
0.434082
0.404564
0.3842
0.370113
0.360394
0.353757
0.349319
0.346486
0.344856
0.344097
0.343777
0.343738
0.344216
0.344856
0.345759
0.346769
0.347875
0.349132
0.350523
0.352052
0.353721
0.355533
0.3575
0.359631
0.361938
0.364442
0.367155
0.370107
0.373309
9.89314
10.5775
11.288
11.9736
12.5345
12.7888
12.6669
12.1902
11.4226
10.4381
9.27363
8.01835
6.76974
5.58467
4.55997
3.72703
3.05548
2.51624
2.08363
1.73572
1.44432
1.21622
1.04663
0.913074
0.802961
0.709368
0.628626
0.560914
0.503301
0.453953
0.422734
0.462982
0.855779
2.2127
0.464841
0.528013
0.647275
0.905347
1.37853
2.03514
2.82405
3.69589
4.60619
5.52057
6.41873
7.29719
8.17048
9.07225
9.844
0.425745
0.399106
0.380619
0.36778
0.35889
0.352805
0.348761
0.346236
0.344772
0.344048
0.343775
0.343738
0.344214
0.344872
0.345707
0.346663
0.347766
0.349022
0.350415
0.351945
0.353619
0.355437
0.35741
0.35955
0.361867
0.364384
0.367111
0.370081
0.373299
10.5123
11.2384
12.0028
12.7096
13.2524
13.4209
13.181
12.5964
11.7445
10.6621
9.4385
8.17211
6.90985
5.7091
4.66882
3.82188
3.1381
2.58819
2.14612
1.78949
1.48942
1.25352
1.07779
0.939414
0.825485
0.728721
0.648291
0.579603
0.517781
0.464156
0.429139
0.469878
0.883383
2.24273
0.453396
0.510472
0.613761
0.833079
1.26556
1.89624
2.671
3.53719
4.445
5.35383
6.23713
7.085
7.90569
8.72438
9.58858
10.3731
0.41828
0.394201
0.377396
0.365674
0.357528
0.351974
0.348351
0.346078
0.344704
0.344047
0.343775
0.343741
0.344225
0.344836
0.3456
0.346557
0.347655
0.348909
0.350304
0.351836
0.353514
0.355338
0.357319
0.359468
0.361795
0.364327
0.367069
0.370056
0.37329
11.0775
11.8716
12.7073
13.4322
13.9287
13.9844
13.624
12.9431
11.985
10.8421
9.61037
8.3334
7.05766
5.84102
4.78462
3.92305
3.22635
2.66517
2.21311
1.84733
1.53819
1.2941
1.11188
0.968366
0.850303
0.754131
0.672939
0.599682
0.533543
0.475595
0.436529
0.478077
0.913943
2.27084
0.443157
0.494719
0.585487
0.769084
1.15461
1.75388
2.51188
3.37227
4.28005
5.18805
6.06307
6.88891
7.66701
8.41676
9.17462
10.0067
10.8221
0.411598
0.389793
0.37449
0.363767
0.356333
0.351348
0.348103
0.34598
0.344704
0.344047
0.343777
0.343772
0.344183
0.344748
0.345497
0.34645
0.347543
0.348793
0.35019
0.351724
0.353407
0.355237
0.357224
0.359384
0.361723
0.364271
0.367028
0.370031
0.373282
11.5937
12.4877
13.4044
14.1286
14.5476
14.467
13.9933
13.1949
12.175
11.0268
9.78818
8.50152
7.21279
5.98027
4.90739
4.03059
3.32035
2.74728
2.28469
1.90932
1.59073
1.3381
1.14906
1.00006
0.882714
0.785707
0.699133
0.621194
0.550698
0.488327
0.445249
0.487794
0.947135
2.29679
0.43402
0.480537
0.561356
0.714713
1.05024
1.60973
2.34632
3.19987
4.10951
5.02121
5.89452
6.70678
7.45335
8.14653
8.81568
9.51046
10.313
11.1886
0.405616
0.385826
0.371862
0.362091
0.355414
0.350977
0.347973
0.34598
0.344704
0.344048
0.343814
0.343769
0.344093
0.344668
0.345396
0.34634
0.34743
0.348675
0.350074
0.351609
0.353297
0.355133
0.357128
0.359301
0.361653
0.364217
0.366988
0.370008
0.373273
12.0702
13.1008
14.0946
14.7836
15.0848
14.8605
14.2514
13.3889
12.3656
11.2141
9.97046
8.67548
7.37462
6.12654
5.03698
4.14449
3.4201
2.83455
2.3609
1.97548
1.64707
1.38556
1.18938
1.04113
0.922529
0.818862
0.72682
0.644164
0.569307
0.502574
0.455272
0.499183
0.984279
2.32036
0.425878
0.467781
0.540481
0.669246
0.955741
1.46878
2.17544
3.01875
3.93137
4.85098
5.72915
6.53619
7.26163
7.912
8.50891
9.09061
9.72047
10.493
11.4699
0.40025
0.382248
0.369549
0.360782
0.354879
0.350807
0.347975
0.34598
0.344704
0.344099
0.343826
0.343737
0.344017
0.34459
0.345296
0.346227
0.347315
0.348554
0.349955
0.351493
0.353184
0.355028
0.357033
0.35922
0.361586
0.364165
0.366949
0.369985
0.373265
12.524
13.7208
14.7754
15.3874
15.5133
15.1207
14.4429
13.5772