/*--------------------------------*- C++ -*----------------------------------*\
  =========                 |
  \\      /  F ield         | OpenFOAM: The Open Source CFD Toolbox
   \\    /   O peration     | Website:  https://openfoam.org
    \\  /    A nd           | Version:  8
     \\/     M anipulation  |
\*---------------------------------------------------------------------------*/
FoamFile
{
    version     2.0;
    format      ascii;
    class       volScalarField;
    location    "0.14";
    object      nut;
}
// * * * * * * * * * * * * * * * * * * * * * * * * * * * * * * * * * * * * * //

dimensions      [0 2 -1 0 0 0 0];

internalField   nonuniform List<scalar> 
15677
(
0.000168253
0.000653022
0.000148417
0.00151374
0.000442444
0.000141509
0.00267553
0.000875756
0.00038113
0.000142377
0.00392135
0.00151881
0.000686574
0.000354226
0.000145458
0.00502436
0.00235596
0.00114625
0.000585561
0.000340236
0.000151208
0.00584087
0.00331716
0.00178053
0.000947586
0.00052924
0.000332
0.000156999
0.00633517
0.00429845
0.00256728
0.00146299
0.000820768
0.000492442
0.000326976
0.000162444
0.00656294
0.00518753
0.00345248
0.00213112
0.0012569
0.000737114
0.000467419
0.000324108
0.000167219
0.00665852
0.00589337
0.00435494
0.00292154
0.00184102
0.00111202
0.00067728
0.000450425
0.00032254
0.000171446
0.00670554
0.00633823
0.00518054
0.00377835
0.00255628
0.0016313
0.00100437
0.000634033
0.000438681
0.000321986
0.000175009
0.00671442
0.00655345
0.00584514
0.00462471
0.00336196
0.00228581
0.00147224
0.000924032
0.000602129
0.000430757
0.000321929
0.000178146
0.00670993
0.00666151
0.00629556
0.00537668
0.00419616
0.00304445
0.00207715
0.00134867
0.000862068
0.000578534
0.000425292
0.000322412
0.000180758
0.00670629
0.00669875
0.00652956
0.00596416
0.00498351
0.00385644
0.0027949
0.00191118
0.0012509
0.000813973
0.000560791
0.000421815
0.000323044
0.000183102
0.00670539
0.00670439
0.0066468
0.00635672
0.00564957
0.00465506
0.00358241
0.00259282
0.00177727
0.00117271
0.00077618
0.000547634
0.000419459
0.000323963
0.000185143
0.00670542
0.00670289
0.00668787
0.00656281
0.00614179
0.00536783
0.00438041
0.0033561
0.00242715
0.0016676
0.00110929
0.00074643
0.00053754
0.000418244
0.000324806
0.000186954
0.00670556
0.00670168
0.00669637
0.00665651
0.00644667
0.00593322
0.00512027
0.00414777
0.00316757
0.00228923
0.00157726
0.00105762
0.000722735
0.000530282
0.00041736
0.000325858
0.000188608
0.00670562
0.00670123
0.0066971
0.00668489
0.0066048
0.00632149
0.00573695
0.00490312
0.00395003
0.00300847
0.00217404
0.00150218
0.00101565
0.000704267
0.000524558
0.000417241
0.000326788
0.00019002
0.00670563
0.00670114
0.00669669
0.00669166
0.00666369
0.00654111
0.00618796
0.00555635
0.00471358
0.00378052
0.00287392
0.00207711
0.00143992
0.000981593
0.000689379
0.000520697
0.000417164
0.00032787
0.000191445
0.00670562
0.00670116
0.00669639
0.00669274
0.00668228
0.00663448
0.00646768
0.00605757
0.00539314
0.00454775
0.00363525
0.0027595
0.00199573
0.00138839
0.000953717
0.000678024
0.000517574
0.000417685
0.000328842
0.000192561
0.0067056
0.0067012
0.00669624
0.00669269
0.00668726
0.0066691
0.00659798
0.00638922
0.00593448
0.00524629
0.00440331
0.00351037
0.00266249
0.00192759
0.00134578
0.000931442
0.000668867
0.000515839
0.000418083
0.000329911
0.000193882
0.00670558
0.00670123
0.00669616
0.00669259
0.00668818
0.00668079
0.0066514
0.00655605
0.00631076
0.00581932
0.00511569
0.00427744
0.00340356
0.00258053
0.00187083
0.00131104
0.000913471
0.000662293
0.000514372
0.000418991
0.000330935
0.00019477
0.00670558
0.00670124
0.00669612
0.00669256
0.00668815
0.00668422
0.00667168
0.00663032
0.00651119
0.00623285
0.00571415
0.0049998
0.00416877
0.00331262
0.00251194
0.00182418
0.00128292
0.000899619
0.000657056
0.000514062
0.000419695
0.000331967
0.000196077
0.00670557
0.00670125
0.00669609
0.00669255
0.00668799
0.00668505
0.00667851
0.00666141
0.00660605
0.00646497
0.00615989
0.00561864
0.0048987
0.00407547
0.0032362
0.00245522
0.00178637
0.00126084
0.000888956
0.000653926
0.000513714
0.000420864
0.000333106
0.0001968
0.00670557
0.00670125
0.00669607
0.00669255
0.00668787
0.00668517
0.00668044
0.00667331
0.00664842
0.00658061
0.00641921
0.00609176
0.00553427
0.00481078
0.00399664
0.00317272
0.00240946
0.00175684
0.00124411
0.000881465
0.000651467
0.000514423
0.000421765
0.000334012
0.000198106
0.00670558
0.00670124
0.00669607
0.00669254
0.0066878
0.00668515
0.0066808
0.00667745
0.00666576
0.00663544
0.00655392
0.00637569
0.00603011
0.00545932
0.00473629
0.00393134
0.00312208
0.00237373
0.00173438
0.00123182
0.00087631
0.000650958
0.000514872
0.000423188
0.000335458
0.000198797
0.00670558
0.00670123
0.00669607
0.00669253
0.00668777
0.0066851
0.00668076
0.0066787
0.00667217
0.00665962
0.00662042
0.00652847
0.00633523
0.00597417
0.00539674
0.00467497
0.0038791
0.0030817
0.00234661
0.00171889
0.00122463
0.000874097
0.000650624
0.000516392
0.000424111
0.000336207
5.33538e-05
0.00670559
0.00670122
0.00669607
0.00669251
0.00668775
0.00668505
0.00668067
0.00667898
0.00667424
0.00666951
0.00665082
0.00660735
0.00650417
0.00629921
0.0059289
0.0053435
0.00462438
0.0038378
0.00305403
0.00233039
0.00171095
0.00122131
0.000873442
0.000652224
0.000517511
0.000426499
0.000283587
6.33055e-05
0.0067056
0.00670121
0.00669608
0.00669249
0.00668774
0.00668501
0.00668061
0.00667897
0.00667477
0.00667319
0.00666367
0.00664553
0.00659326
0.00648278
0.0062682
0.00588684
0.00530262
0.00459104
0.00381448
0.00303814
0.0023215
0.00170769
0.00122078
0.000875255
0.000653875
0.0005196
0.00042006
0.00021945
7.06701e-05
0.0067056
0.0067012
0.00669608
0.00669247
0.00668774
0.00668497
0.00668057
0.00667888
0.00667481
0.00667436
0.00666866
0.00666277
0.00663703
0.00658374
0.00646619
0.00624155
0.00586387
0.00527856
0.00456888
0.00379768
0.00302901
0.00231864
0.00170906
0.00122451
0.000878361
0.00065623
0.000520823
0.000400169
0.000178012
7.60978e-05
0.00670561
0.00670119
0.00669609
0.00669246
0.00668774
0.00668493
0.00668054
0.00667879
0.00667476
0.00667458
0.00667039
0.00666994
0.0066572
0.00663603
0.00657433
0.00645124
0.00623304
0.00584729
0.00526052
0.00455477
0.00379031
0.00302857
0.00232329
0.00171653
0.00123109
0.000883067
0.00065958
0.000518721
0.000367395
0.000152548
8.04931e-05
0.00670562
0.00670118
0.0066961
0.00669244
0.00668774
0.0066849
0.00668052
0.00667871
0.00667469
0.00667451
0.00667085
0.00667258
0.00666596
0.00666125
0.00662996
0.006573
0.0064503
0.00622612
0.00583725
0.00525213
0.0045536
0.00379614
0.0030394
0.00233605
0.00172869
0.00124067
0.000889443
0.000662665
0.000512742
0.000336221
0.000134216
8.38775e-05
0.00670562
0.00670117
0.0066961
0.00669242
0.00668775
0.00668487
0.00668051
0.00667864
0.00667464
0.00667438
0.00667091
0.00667329
0.00666948
0.00667242
0.00665729
0.00663905
0.00657604
0.00645321
0.00622497
0.0058397
0.00526081
0.0045671
0.00381406
0.00305939
0.00235552
0.00174535
0.0012531
0.000896969
0.000665493
0.000501418
0.00030613
0.000121261
8.62781e-05
0.00670563
0.00670116
0.00669611
0.00669241
0.00668775
0.00668484
0.0066805
0.00667858
0.00667459
0.00667425
0.00667085
0.00667335
0.00667066
0.0066769
0.00667036
0.00667257
0.0066448
0.00658479
0.00646214
0.00623891
0.00585819
0.00528294
0.00459353
0.00384296
0.00308821
0.00238155
0.00176606
0.00126812
0.000905642
0.000666813
0.000486167
0.000280081
0.000112768
8.80539e-05
0.00670563
0.00670116
0.00669612
0.00669239
0.00668776
0.00668482
0.00668049
0.00667853
0.00667455
0.00667413
0.00667077
0.0066732
0.00667097
0.00667835
0.00667614
0.00668817
0.00668016
0.00665754
0.00660253
0.00648475
0.00626659
0.00589038
0.00531928
0.0046327
0.00388286
0.00312568
0.00241361
0.00179073
0.00128548
0.000915064
0.000667055
0.000469355
0.000260314
0.000107001
8.9431e-05
0.00670115
0.00670564
0.00669613
0.00669238
0.00668777
0.00668479
0.00668049
0.00667848
0.00667452
0.00667402
0.00667069
0.00667301
0.00667098
0.00667864
0.00667833
0.00669518
0.00669728
0.00669563
0.00668151
0.00663187
0.00652031
0.00630822
0.00593774
0.00536983
0.00468489
0.00393341
0.00317134
0.00245167
0.00181896
0.00130496
0.000926189
0.000666151
0.000454479
0.000245129
0.000102954
9.05491e-05
0.00669613
0.00670115
0.00670566
0.00669237
0.00668777
0.00668477
0.00668049
0.00667844
0.00667449
0.00667394
0.00667061
0.00667283
0.00667089
0.00667855
0.00667905
0.00669792
0.00670514
0.00671467
0.00672388
0.00671569
0.00667402
0.00657031
0.00636574
0.00600031
0.00543518
0.00474975
0.00399453
0.00322515
0.00249508
0.00185064
0.00132916
0.000939642
0.000664832
0.00044168
0.000233347
0.000100074
9.14963e-05
0.00669236
0.00669617
0.00670117
0.00670568
0.00668778
0.00668475
0.00668049
0.0066784
0.00667447
0.00667386
0.00667054
0.00667267
0.00667079
0.00667834
0.00667922
0.00669886
0.00670841
0.00672374
0.00674574
0.00676167
0.00676307
0.00673073
0.00663663
0.00644014
0.0060799
0.00551577
0.00482771
0.00406584
0.00328629
0.00254388
0.00188928
0.00135803
0.00095382
0.000663902
0.000431217
0.000224036
9.79708e-05
9.23248e-05
0.00668779
0.00669238
0.00669623
0.00670119
0.0067057
0.00668473
0.0066805
0.00667837
0.00667446
0.00667379
0.00667048
0.00667253
0.00667068
0.0066781
0.00667921
0.0066991
0.00670966
0.00672778
0.00675664
0.0067863
0.00681313
0.00682518
0.00680422
0.00672016
0.0065326
0.0061762
0.00561186
0.00491784
0.00414684
0.00335486
0.00260326
0.00193691
0.00138842
0.000968824
0.000663742
0.00042245
0.000216573
9.64386e-05
9.30695e-05
0.00668471
0.00668784
0.00669243
0.00669629
0.00670121
0.00670572
0.0066805
0.00667834
0.00667445
0.00667373
0.00667043
0.00667242
0.00667057
0.00667787
0.00667913
0.00669909
0.00671012
0.00672955
0.00676187
0.0067993
0.0068407
0.00687905
0.00690412
0.00689519
0.00682259
0.00664289
0.00628973
0.00572345
0.00502104
0.00423736
0.00343811
0.00267589
0.00198837
0.00142028
0.000984477
0.000664391
0.000415326
0.000210498
9.52901e-05
9.37485e-05
0.00668051
0.00668474
0.00668793
0.00669248
0.00669635
0.00670123
0.00670574
0.00667831
0.00667444
0.00667368
0.00667039
0.00667232
0.00667047
0.00667767
0.00667904
0.00669898
0.00671028
0.0067304
0.00676451
0.00680624
0.00685674
0.00691118
0.00696445
0.00700209
0.00700506
0.00694283
0.00677126
0.00641992
0.00584941
0.00513614
0.00434747
0.00353989
0.00275405
0.00204287
0.00145339
0.001001
0.000666206
0.000409499
0.00020547
9.44482e-05
9.43777e-05
0.00667828
0.00668057
0.00668481
0.00668803
0.00669253
0.00669642
0.00670125
0.00670576
0.00667444
0.00667363
0.00667035
0.00667224
0.00667038
0.00667751
0.00667896
0.00669884
0.0067103
0.00673086
0.00676603
0.00681019
0.0068661
0.0069307
0.00700192
0.00707013
0.00712343
0.00713737
0.00708264
0.00691633
0.00656531
0.00598836
0.00527732
0.00448263
0.00364914
0.00283688
0.00209996
0.00148743
0.00101786
0.000669135
0.000404747
0.000201201
9.38027e-05
9.49614e-05
0.00667444
0.0066783
0.00668069
0.00668488
0.00668813
0.00669258
0.00669649
0.00670126
0.00670579
0.00667358
0.00667033
0.00667216
0.00667029
0.00667738
0.00667887
0.0066987
0.00671029
0.00673116
0.00676704
0.00681282
0.00687214
0.00694318
0.00702653
0.00711423
0.00720031
0.00726758
0.00729439
0.00724526
0.00707774
0.00672474
0.00615664
0.00544716
0.00462842
0.00376562
0.00292348
0.00215902
0.00152232
0.00103475
0.000672503
0.000400981
0.000197606
9.33368e-05
9.55095e-05
0.00667353
0.0066745
0.00667837
0.00668081
0.00668495
0.00668824
0.00669263
0.00669656
0.00670128
0.00670581
0.00667031
0.00667209
0.00667021
0.00667729
0.00667879
0.00669858
0.00671026
0.00673137
0.0067678
0.00681482
0.00687657
0.00695198
0.00704391
0.00714544
0.00725341
0.00735557
0.00743815
0.00747463
0.00743129
0.00726013
0.00691388
0.00635564
0.00562726
0.00478182
0.00388743
0.00301298
0.00221949
0.00155801
0.00105155
0.000676571
0.000398034
0.000194484
9.29726e-05
9.60202e-05
0.0066703
0.00667353
0.00667462
0.00667845
0.00668094
0.00668503
0.00668835
0.00669269
0.00669663
0.0067013
0.00670583
0.00667203
0.00667014
0.00667722
0.00667869
0.00669847
0.00671024
0.00673155
0.00676843
0.00681649
0.00688015
0.00695895
0.00705731
0.00716922
0.00729399
0.00742015
0.00754053
0.00763502
0.00767977
0.00763854
0.00748577
0.00714697
0.00656481
0.00581436
0.00493962
0.00401219
0.00310448
0.00228084
0.00159408
0.00106839
0.000681124
0.000395665
0.00019182
9.27219e-05
9.65023e-05
0.00667196
0.00667033
0.00667357
0.00667474
0.00667852
0.00668107
0.0066851
0.00668846
0.00669274
0.00669671
0.00670133
0.00670585
0.00667009
0.00667717
0.00667858
0.00669838
0.00671022
0.00673172
0.00676898
0.00681796
0.0068832
0.00696493
0.00706853
0.00718858
0.00732736
0.00747296
0.00762048
0.00775507
0.00786067
0.00790998
0.00789254
0.0077609
0.00740085
0.00678255
0.00600375
0.00509972
0.0041389
0.00319695
0.00234258
0.00163027
0.00108504
0.000686113
0.000393899
0.000189467
9.25221e-05
9.69509e-05
0.00667006
0.00667189
0.00667038
0.00667361
0.00667488
0.0066786
0.00668122
0.00668518
0.00668858
0.0066928
0.00669678
0.00670135
0.00670588
0.00667713
0.00667844
0.00669833
0.00671022
0.00673187
0.00676947
0.00681927
0.00688587
0.00697026
0.00707837
0.0072054
0.00735616
0.0075189
0.00769
0.00785435
0.00800326
0.00811565
0.00819404
0.00820423
0.00805745
0.00767124
0.00701262
0.00619532
0.00526049
0.00426552
0.0032895
0.00240418
0.00166626
0.00110166
0.000691076
0.00039258
0.000187449
9.23992e-05
9.73755e-05
0.0066771
0.00666995
0.0066718
0.00667044
0.00667365
0.00667503
0.00667868
0.00668136
0.00668526
0.0066887
0.00669286
0.00669686
0.00670137
0.0067059
0.00667829
0.00669832
0.00671024
0.00673202
0.00676991
0.00682045
0.00688826
0.00697509
0.00708718
0.00722061
0.00738211
0.0075598
0.00775356
0.00794551
0.00812794
0.00828597
0.00843295
0.00854576
0.0085432
0.00837243
0.00795193
0.0072509
0.00638675
0.00541862
0.00439077
0.00338119
0.00246521
0.00170184
0.00111825
0.000696006
0.000391617
0.000185635
9.22985e-05
9.7769e-05
0.00667814
0.00667689
0.00666973
0.00667171
0.00667052
0.00667368
0.00667519
0.00667876
0.00668152
0.00668534
0.00668882
0.00669292
0.00669693
0.0067014
0.00670592
0.00669837
0.00671028
0.00673216
0.00677031
0.00682151
0.00689042
0.00697951
0.00709514
0.00723462
0.00740594
0.00759726
0.00781234
0.00803263
0.00824793
0.00844224
0.00864152
0.00883063
0.00893252
0.00890654
0.00870252
0.0082402
0.00749443
0.00658187
0.00557388
0.00451366
0.00347146
0.00252526
0.00173684
0.00113459
0.00070089
0.000390926
0.000184075
9.22535e-05
9.81422e-05
0.0066985
0.00667744
0.00667655
0.00666954
0.00667161
0.00667064
0.00667371
0.00667536
0.00667884
0.00668168
0.00668543
0.00668894
0.00669299
0.00669701
0.00670143
0.00670594
0.0067103
0.00673229
0.00677065
0.00682248
0.00689238
0.00698355
0.00710237
0.0072476
0.0074279
0.00763214
0.00786785
0.00811529
0.00836606
0.00859885
0.00884327
0.00909407
0.00927415
0.00935252
0.00929171
0.00904506
0.00853374
0.00773836
0.00677791
0.00572619
0.00463378
0.00355963
0.00258399
0.00177106
0.00115064
0.00070571
0.000390449
0.000182649
9.22136e-05
9.84862e-05
0.0067103
0.00669802
0.00667616
0.00667616
0.00666941
0.00667149
0.00667078
0.00667374
0.00667555
0.00667892
0.00668185
0.00668552
0.00668907
0.00669306
0.00669708
0.00670145
0.00670595
0.00673238
0.00677093
0.00682334
0.00689417
0.00698724
0.00710898
0.00725962
0.00744811
0.0076649
0.00792064
0.00819393
0.00848014
0.00875918
0.00905543
0.00936264
0.00960753
0.00976484
0.00980608
0.00969792
0.00939836
0.00883055
0.0079812
0.00697268
0.00587419
0.00474974
0.00364512
0.00264111
0.00180439
0.00116633
0.000710445
0.000390143
0.000181422
9.22161e-05
9.88134e-05
0.00673247
0.00670926
0.00669689
0.00667516
0.00667568
0.00666936
0.00667134
0.00667095
0.00667376
0.00667574
0.00667901
0.00668201
0.00668562
0.00668919
0.00669313
0.00669714
0.00670148
0.00670597
0.00677117
0.00682413
0.00689581
0.00699061
0.00711503
0.00727073
0.00746672
0.00769577
0.00797057
0.0082687
0.00859122
0.00892052
0.00928012
0.00965577
0.00996526
0.0101927
0.0103115
0.0102981
0.0101266
0.00976181
0.00912925
0.00822173
0.00716492
0.00601946
0.00486117
0.00372758
0.00269639
0.00183669
0.00118157
0.000715078
0.000389963
0.000180281
9.22137e-05
9.91133e-05
0.00677138
0.00673084
0.00670709
0.00669528
0.00667451
0.00667507
0.00666942
0.00667116
0.00667116
0.00667378
0.00667595
0.0066791
0.00668218
0.00668572
0.0066893
0.0066932
0.00669721
0.00670151
0.00670598
0.00682486
0.00689732
0.00699368
0.00712057
0.00728095
0.00748386
0.00772478
0.00801739
0.00833987
0.00870039
0.0090824
0.00950679
0.00997461
0.0103802
0.0106885
0.010879
0.0109317
0.0108366
0.0105802
0.0101354
0.00942893
0.00845906
0.00735262
0.00616188
0.00496816
0.0038068
0.00274966
0.00186787
0.00119634
0.000719588
0.000389896
0.000179303
9.22448e-05
9.93994e-05
0.00682557
0.00676863
0.00672739
0.00670492
0.00669335
0.0066742
0.00667432
0.00666956
0.00667095
0.00667138
0.00667381
0.00667615
0.0066792
0.00668234
0.00668582
0.00668941
0.00669327
0.00669727
0.00670154
0.006706
0.0068987
0.00699648
0.00712563
0.00729031
0.00749963
0.00775191
0.00806101
0.00840786
0.00880747
0.00924218
0.00973058
0.0103139
0.0108782
0.0113229
0.0115964
0.0117008
0.0116408
0.0114271
0.01106
0.0105188
0.00972883
0.00869244
0.00753489
0.0063005
0.00507073
0.00388266
0.00280079
0.00189788
0.00121057
0.000723963
0.000389912
0.000178383
9.22657e-05
9.9628e-05
0.00690001
0.00682212
0.00676271
0.00672406
0.00670277
0.00669101
0.00667422
0.00667346
0.00666978
0.00667075
0.00667161
0.00667385
0.00667635
0.00667932
0.0066825
0.00668592
0.00668951
0.00669334
0.00669733
0.00670157
0.00670601
0.00699903
0.00713026
0.00729887
0.00751415
0.00777711
0.00810155
0.00847288
0.00891117
0.00939673
0.00995315
0.0106889
0.011476
0.0121513
0.0125667
0.0127188
0.0126641
0.0124371
0.012067
0.011564
0.0109106
0.0100281
0.00892124
0.00771143
0.00643471
0.00516888
0.00395511
0.00284972
0.00192665
0.00122426
0.00072819
0.000389951
0.000177606
9.23052e-05
9.98199e-05
0.00700137
0.00689513
0.00681415
0.00675683
0.00672091
0.00670099
0.00668823
0.00667448
0.00667255
0.00667003
0.00667056
0.00667184
0.00667392
0.00667654
0.00667944
0.00668264
0.00668603
0.00668961
0.00669341
0.00669738
0.0067016
0.00670602
0.00713447
0.00730666
0.00752746
0.00780039
0.00813919
0.0085348
0.00900994
0.00954501
0.0101817
0.0111163
0.0121821
0.013146
0.0138033
0.0140631
0.0140029
0.0137296
0.0132962
0.012743
0.0120857
0.0113079
0.0103254
0.00914487
0.007882
0.00656407
0.00526261
0.00402412
0.00289641
0.00195417
0.00123738
0.000732273
0.000390028
0.000176967
9.23336e-05
0.000100027
0.00713833
0.00699474
0.00688341
0.00680621
0.00675121
0.00671794
0.00669975
0.00668525
0.00667486
0.00667165
0.00667027
0.00667042
0.00667204
0.00667401
0.00667671
0.00667957
0.00668277
0.00668613
0.0066897
0.00669348
0.00669743
0.00670163
0.00670603
0.00731374
0.00753965
0.00782178
0.00817408
0.00859326
0.00910277
0.00968821
0.0104233
0.0115965
0.0129655
0.0142235
0.015144
0.0156238
0.0156471
0.0153376
0.0148284
0.0141789
0.0134347
0.0126154
0.0117064
0.0106192
0.00936273
0.00804641
0.00668833
0.00535197
0.00408975
0.00294086
0.00198042
0.00124991
0.000736217
0.00039011
0.000176456
9.23781e-05
0.000100251
0.00732015
0.00712939
0.00697801
0.00687169
0.00679844
0.0067458
0.00671511
0.00669874
0.00668227
0.00667521
0.00667086
0.00667045
0.00667035
0.00667221
0.00667413
0.00667687
0.0066797
0.0066829
0.00668624
0.00668979
0.00669354
0.00669748
0.00670166
0.00670604
0.00755078
0.00784135
0.00820635
0.00864789
0.00918949
0.00982842
0.0106799
0.0121114
0.0137678
0.0152763
0.0164189
0.0171203
0.0173606
0.0171494
0.0166129
0.0158914
0.0150441
0.0141193
0.0131418
0.0121014
0.0109077
0.00957422
0.00820452
0.00680733
0.00543693
0.00415194
0.00298304
0.00200539
0.00126187
0.000739495
0.000390198
0.00017591
9.2422e-05
0.000100494
0.00756082
0.00730856
0.00710578
0.00696122
0.00686022
0.0067908
0.0067406
0.00671248
0.0066978
0.00667949
0.00667541
0.00667025
0.00667055
0.00667036
0.00667235
0.00667427
0.00667701
0.00667984
0.00668301
0.00668634
0.00668988
0.00669361
0.00669753
0.00670167
0.00670604
0.00785922
0.00823608
0.0086985
0.00927055
0.0099671
0.0109471
0.0126341
0.0145313
0.0162204
0.0175145
0.0183824
0.0188315
0.0188594
0.0184654
0.017756
0.0168683
0.0158587
0.0147771
0.0136543
0.0124878
0.011189
0.00977874
0.0083562
0.00692102
0.00551785
0.00421064
0.003023
0.00202911
0.00127175
0.000742315
0.000390304
0.000175343
9.24877e-05
0.00010076
0.00787521
0.00754577
0.00727591
0.00708211
0.00694475
0.00684899
0.00678323
0.00673575
0.00670994
0.00669684
0.00667716
0.00667531
0.00666986
0.00667055
0.00667044
0.00667246
0.00667442
0.00667714
0.00667997
0.00668313
0.00668645
0.00668996
0.00669368
0.00669756
0.00670167
0.00670604
0.00826342
0.0087451
0.00934666
0.0101043
0.0112169
0.013139
0.0152174
0.0170135
0.0183864
0.0193523
0.0199506
0.0201952
0.0200708
0.0195572
0.0187348
0.0177322
0.0166016
0.0153932
0.014144
0.0128611
0.0114613
0.00997577
0.00850138
0.00702926
0.00559513
0.00426603
0.00306078
0.00204862
0.00128016
0.000745421
0.000390447
0.000174746
9.25519e-05
0.000101047
0.00828787
0.00785638
0.00750096
0.00724312
0.00705888
0.00692866
0.00683799
0.0067757
0.00673123
0.0067074
0.00669567
0.00667571
0.00667487
0.00666971
0.00667047
0.00667056
0.00667255
0.00667458
0.00667727
0.00668011
0.00668324
0.00668655
0.00669004
0.00669371
0.00669756
0.00670167
0.00670604
0.00878789
0.00941846
0.010239
0.0114803
0.0136077
0.0158083
0.0176488
0.0190399
0.0200418
0.0207239
0.0211197
0.0212247
0.0210067
0.0204288
0.0195454
0.0184748
0.0172629
0.0159587
0.0146046
0.0132176
0.0117231
0.0101648
0.00863998
0.00713198
0.0056687
0.00431826
0.00309173
0.0020652
0.00128942
0.000748881
0.000390616
0.000174121
9.26441e-05
0.000101362
0.00882593
0.00826418
0.0077957
0.00745598
0.00721089
0.00703619
0.00691294
0.0068272
0.00676824
0.00672687
0.00670479
0.00669358
0.00667499
0.00667416
0.00666972
0.00667035
0.00667071
0.00667263
0.00667473
0.00667739
0.00668024
0.00668334
0.00668665
0.00669008
0.00669371
0.00669756
0.00670167
0.00670604
0.00948636
0.0103694
0.0117299
0.0140304
0.0163022
0.0181398
0.0195045
0.0204946
0.0212047
0.0216868
0.0219499
0.0219706
0.0217046
0.021104
0.0202003
0.0190998
0.0178409
0.0164697
0.015032
0.0135547
0.0119732
0.0103455
0.00877198
0.00722932
0.00573857
0.004361
0.00311797
0.00208339
0.00129961
0.000752696
0.000390836
0.000173465
9.27355e-05
0.000101701
0.00954809
0.00879669
0.0081821
0.00773472
0.00741174
0.00717936
0.00701401
0.00689757
0.00681669
0.00676093
0.00672267
0.00670224
0.00669087
0.00667484
0.00667331
0.00666983
0.00667023
0.00667088
0.00667271
0.00667489
0.00667751
0.00668037
0.00668345
0.0066867
0.00669008
0.00669371
0.00669756
0.00670167
0.00670604
0.0104936
0.0119641
0.0144042
0.0167065
0.0185083
0.0198172
0.020762
0.0214578
0.0219726
0.0223286
0.0225128
0.0224892
0.0222075
0.0216133
0.0207189
0.0196175
0.0183394
0.0169259
0.0154245
0.0138708
0.0122105
0.0105175
0.00889743
0.00732145
0.00579604
0.0043972
0.00314666
0.00210334
0.00131084
0.00075697
0.000391094
0.000172779
9.28638e-05
0.000102072
0.0106053
0.00951151
0.00868522
0.00809978
0.00767466
0.00736841
0.00714853
0.00699236
0.00688261
0.00680655
0.00675369
0.00671882
0.00670001
0.00668766
0.006675
0.00667244
0.00666998
0.00667012
0.00667104
0.0066728
0.00667505
0.00667762
0.0066805
0.0066835
0.0066867
0.00669008
0.00669371
0.00669756
0.00670167
0.00670603
0.0121838
0.0147285
0.0170328
0.018778
0.0200131
0.0208911
0.0215428
0.0220496
0.0224461
0.0227294
0.0228717
0.0228308
0.022555
0.0219868
0.0211221
0.020041
0.0187649
0.0173296
0.0157821
0.0141651
0.0124346
0.0106807
0.00901636
0.00739705
0.00584487
0.00443675
0.00317805
0.00212526
0.00132325
0.000761676
0.000391419
0.000172063
9.29935e-05
0.00010247
0.010564
0.012379
0.00934935
0.00857508
0.00801853
0.00761577
0.00732599
0.0071184
0.00697126
0.00686812
0.00679696
0.00674682
0.00671525
0.00669857
0.00668444
0.00667523
0.00667166
0.00667011
0.00667004
0.00667119
0.0066729
0.00667519
0.00667774
0.00668057
0.00668349
0.0066867
0.00669008
0.00669371
0.00669756
0.00670166
0.00670602
0.0150045
0.0172937
0.0189703
0.020122
0.0209207
0.0215086
0.0219779
0.0223744
0.022706
0.0229523
0.023077
0.0230364
0.0227809
0.0222516
0.02143
0.0203838
0.0191257
0.0176844
0.0161058
0.0144375
0.0126453
0.0108351
0.00911404
0.00746118
0.0058984
0.00448002
0.00321244
0.00214936
0.00133695
0.000766943
0.000391801
0.000171317
9.31716e-05
0.000102907
0.0103158
0.0123398
0.0152294
0.00919361
0.00846682
0.00793869
0.00755806
0.00728449
0.00708901
0.00695077
0.00685416
0.00678773
0.00674036
0.00671201
0.00669741
0.00668151
0.00667539
0.00667103
0.00667019
0.00667001
0.00667132
0.006673
0.00667533
0.00667779
0.00668057
0.00668349
0.0066867
0.00669008
0.00669371
0.00669753
0.00670163
0.00670601
0.0175008
0.0191034
0.020168
0.0208809
0.0213928
0.021804
0.0221701
0.0225099
0.0228116
0.0230438
0.0231665
0.0231384
0.0229128
0.0224305
0.0216605
0.0206589
0.0194297
0.0179949
0.0163975
0.0146886
0.0128426
0.0109615
0.00919696
0.00753138
0.00595712
0.0045274
0.00325014
0.0021759
0.00135212
0.000772849
0.000392273
0.000170542
9.33559e-05
0.000103373
0.0100719
0.011986
0.0151636
0.0176548
0.00904522
0.00836012
0.00786037
0.00750154
0.00724397
0.00706043
0.00693094
0.00684071
0.00677885
0.00673436
0.00670915
0.00669636
0.00667904
0.00667536
0.00667057
0.00667023
0.00667002
0.00667144
0.00667311
0.00667541
0.00667779
0.00668057
0.00668349
0.0066867
0.00669008
0.00669368
0.00669748
0.0067016
0.00670599
0.0191915
0.0201694
0.0207946
0.0212238
0.0215632
0.0218765
0.0221927
0.0225106
0.0228049
0.0230374
0.0231686
0.0231614
0.0229725
0.0225422
0.0218288
0.0208777
0.019685
0.0182658
0.0166595
0.0149191
0.0130024
0.0110686
0.00928771
0.00760827
0.0060216
0.00457934
0.00329151
0.00220514
0.00136894
0.000779434
0.000392827
0.000169737
9.36041e-05
0.000103884
0.00984317
0.0116027
0.0148099
0.0175562
0.0192371
0.00890188
0.0082549
0.00778366
0.00744629
0.00720452
0.00703271
0.00691179
0.00682781
0.00677045
0.00672904
0.00670653
0.00669527
0.0066773
0.0066751
0.00667028
0.00667021
0.00667007
0.00667155
0.00667317
0.00667541
0.00667778
0.00668057
0.00668349
0.0066867
0.00669004
0.00669361
0.00669743
0.00670157
0.00670598
0.0201399
0.0206787
0.0210222
0.0212814
0.0215258
0.0217937
0.0220953
0.022414
0.0227146
0.0229567
0.0231043
0.0231246
0.0229775
0.0226022
0.0219476
0.0210501
0.0198987
0.0185017
0.0168942
0.0151022
0.0131367
0.0111853
0.0093871
0.00769259
0.00609246
0.00463635
0.00333697
0.00223741
0.00138761
0.000786787
0.000393504
0.000168907
9.38674e-05
0.000104425
0.00962911
0.0112249
0.0143688
0.0173267
0.019086
0.0200794
0.00876187
0.00815139
0.00770871
0.00739241
0.00716623
0.0070059
0.00689345
0.00681575
0.00676267
0.00672447
0.00670404
0.0066937
0.00667628
0.00667463
0.00667013
0.00667016
0.00667015
0.00667159
0.00667316
0.00667541
0.00667778
0.00668057
0.0066835
0.00668665
0.00668996
0.00669354
0.00669738
0.00670154
0.00670597
0.0205448
0.0208033
0.0209777
0.0211424
0.0213431
0.0216013
0.0219115
0.022245
0.0225605
0.0228189
0.0229892
0.0230429
0.0229413
0.0226225
0.0220273
0.0211847
0.0200772
0.0187068
0.0170761
0.0152543
0.0132819
0.0113127
0.00949599
0.00778513
0.0061704
0.00469901
0.00338698
0.00227306
0.00140835
0.000795052
0.000394298
0.00016805
9.4216e-05
0.000105018
0.00942671
0.0108657
0.0138806
0.0170105
0.0189298
0.0198737
0.0203887
0.00862458
0.00804993
0.00763566
0.00734005
0.0071292
0.00698024
0.00687638
0.0068047
0.00675536
0.00672039
0.0067017
0.00669156
0.00667581
0.00667402
0.0066701
0.00667009
0.00667022
0.00667157
0.00667316
0.00667541
0.00667779
0.00668057
0.00668345
0.00668655
0.00668988
0.00669347
0.00669732
0.00670151
0.00670595
0.0205773
0.0206663
0.0207445
0.0208642
0.0210569
0.0213298
0.0216637
0.0220202
0.0223561
0.0226363
0.0228354
0.0229278
0.0228746
0.0226129
0.0220766
0.0212885
0.020226
0.0188609
0.017225
0.0154163
0.0134387
0.0114515
0.00961531
0.00788676
0.00625623
0.00476797
0.00344206
0.00231249
0.00143146
0.000804311
0.000395259
0.000167154
9.4594e-05
0.000105636
0.00923348
0.0105297
0.0133671
0.0166324
0.0187032
0.0197507
0.0201281
0.0203342
0.00849006
0.00795083
0.00756472
0.00728936
0.00709375
0.00695639
0.00686081
0.00679461
0.00674862
0.00671681
0.0066997
0.00668897
0.00667567
0.00667335
0.00667016
0.00666998
0.00667024
0.00667156
0.00667316
0.00667541
0.00667779
0.0066805
0.00668334
0.00668644
0.00668979
0.0066934
0.00669727
0.00670148
0.00670594
0.0203562
0.0203457
0.0203749
0.0204851
0.0206955
0.0209998
0.0213662
0.0217502
0.0221105
0.0224182
0.0226524
0.0227884
0.0227861
0.0225811
0.0221022
0.0213674
0.0203324
0.018985
0.017381
0.0155885
0.0136077
0.0116027
0.00974606
0.00799846
0.00635082
0.00484398
0.00350283
0.00235617
0.00145722
0.000814758
0.000396387
0.000166212
9.50828e-05
0.000106433
0.00904777
0.010218
0.0128391
0.0162045
0.0184328
0.0195706
0.020008
0.0200184
0.0200316
0.00835867
0.00785445
0.00749608
0.00724083
0.00706083
0.00693467
0.00684663
0.00678552
0.00674241
0.0067137
0.00669836
0.00668632
0.0066757
0.0066727
0.00667029
0.00666988
0.00667026
0.00667156
0.00667316
0.00667541
0.00667774
0.00668037
0.00668323
0.00668634
0.0066897
0.00669334
0.00669721
0.00670145
0.00670592
0.0199549
0.0198893
0.0199046
0.0200318
0.020279
0.0206245
0.0210277
0.0214418
0.0218307
0.0221721
0.022448
0.0226321
0.0226823
0.0225331
0.0221096
0.021417
0.0204162
0.0191122
0.0175436
0.0157708
0.0137893
0.0117671
0.00988929
0.0081213
0.00645516
0.00492785
0.00356995
0.00240464
0.00148602
0.000826499
0.000397754
0.000165235
9.57322e-05
0.000107372
0.0088688
0.00993038
0.012305
0.015728
0.0181309
0.0193619
0.0198391
0.0198817
0.0196595
0.0195558
0.00823064
0.00776123
0.00743041
0.00719578
0.00703088
0.00691491
0.00683377
0.00677739
0.00673682
0.00671088
0.00669726
0.00668386
0.00667582
0.00667216
0.00667044
0.00666982
0.00667026
0.00667157
0.00667317
0.00667533
0.00667762
0.00668024
0.00668312
0.00668623
0.00668961
0.00669327
0.00669714
0.00670143
0.0067059
0.0194165
0.0193302
0.0193583
0.0195247
0.0198196
0.0202114
0.0206528
0.0210989
0.0215216
0.0219042
0.0222284
0.0224646
0.0225684
0.0224737
0.0221021
0.0214537
0.0204989
0.0192414
0.0177122
0.0159629
0.0139839
0.0119456
0.0100461
0.00825642
0.00657035
0.00502061
0.00364429
0.00245851
0.00151822