/*--------------------------------*- C++ -*----------------------------------*\
  =========                 |
  \\      /  F ield         | OpenFOAM: The Open Source CFD Toolbox
   \\    /   O peration     | Website:  https://openfoam.org
    \\  /    A nd           | Version:  8
     \\/     M anipulation  |
\*---------------------------------------------------------------------------*/
FoamFile
{
    version     2.0;
    format      ascii;
    class       volScalarField;
    location    "0.46";
    object      p;
}
// * * * * * * * * * * * * * * * * * * * * * * * * * * * * * * * * * * * * * //

dimensions      [1 -1 -2 0 0 0 0];

internalField   nonuniform List<scalar> 
15677
(
111491
111498
111493
111495
111492
111490
111487
111482
111477
111469
111454
111429
111389
111329
111259
111199
111148
111107
111076
111049
111033
111023
111013
110998
110983
110970
110958
110948
110939
110932
110925
110920
110915
110912
110905
93722.8
93687.4
93624.7
93551.4
93484.5
93430.3
93389.7
93360.1
93337.5
93326.3
93353.5
93460.5
93637.6
93839.7
93974.9
94019.8
93968.5
93853.3
93729.8
93637.5
93584.9
93550.2
93509.1
93475
93444.6
93418.1
93395.8
93377
93361
93347.6
93336.4
93327.3
93319.7
93314.3
93308.5
105803
105801
105793
105776
105742
105687
105606
105500
105377
105255
105171
105124
105127
105187
105259
105293
105290
105273
105280
105341
105459
105617
105791
105953
106100
106227
106332
106417
106486
106542
106589
106626
106657
106683
106705
97684
97691.5
97701.4
97710.5
97717.1
97721.3
97721.3
97714.1
97695.1
97664
97633.6
97623.4
97639.2
97644.1
97628.6
97619.4
97619.7
97626.6
97614.8
97610.4
97644.6
97698.9
97743.8
97773.9
97786.3
97783.6
97770.8
97752.3
97729.7
97703.9
97676.8
97649.4
97622.3
97595.6
97569.2
103348
103360
103369
103374
103378
103384
103392
103400
103408
103413
103413
103414
103407
103401
103408
103420
103429
103413
103387
103357
103336
103332
103354
103380
103396
103407
103412
103414
103413
103412
103411
103410
103408
103405
103402
99919.7
99919.9
99915.4
99905
99887.8
99865.8
99837.7
99802.5
99761.7
99716.2
99671.9
99628.5
99585.7
99545
99511.1
99487.3
99470.7
99458.8
99448.5
99440.2
99433.6
99427.4
99422.6
99418.2
99413.4
99407.4
99400
99392.6
99386.2
99381
99377.7
99375.8
99374.9
99373
99369.1
102360
102356
102351
102346
102342
102341
102342
102346
102354
102366
102381
102398
102419
102441
102462
102477
102490
102497
102498
102498
102497
102498
102502
102508
102514
102524
102534
102544
102553
102561
102570
102578
102586
102593
102599
100216
100214
100212
100211
100213
100218
100226
100237
100251
100268
100283
100296
100303
100305
100299
100291
100281
100271
100260
100246
100234
100223
100214
100208
100204
100206
100210
100214
100220
100225
100231
100237
100243
100247
100251
101796
101797
101796
101795
101793
101788
101784
101778
101772
101765
101760
101754
101749
101745
101744
101745
101748
101754
101762
101772
101784
101798
101811
101824
101839
101848
101852
101857
101862
101866
101867
101867
101865
101863
101861
100805
100806
100805
100804
100802
100797
100793
100788
100784
100780
100778
100775
100772
100768
100763
100758
100752
100745
100738
100730
100723
100716
100710
100705
100702
100705
100712
100716
100720
100724
100727
100731
100735
100739
100743
101394
101394
101395
101395
101394
101394
101392
101390
101388
101384
101380
101377
101373
101370
101367
101366
101366
101367
101369
101373
101378
101384
101389
101394
101399
101397
101396
101395
101395
101394
101393
101392
101390
101389
101387
100990
100991
100991
100991
100991
100991
100991
100991
100991
100991
100991
100990
100988
100986
100981
100976
100971
100965
100959
100952
100946
100939
100934
100929
100924
100926
100927
100928
100929
100930
100931
100932
100934
100935
100937
101217
101217
101217
101218
101218
101218
101218
101217
101217
101215
101213
101210
101207
101203
101200
101197
101194
101192
101191
101189
101188
101187
101187
101186
101187
101184
101181
101179
101177
101175
101173
101171
101169
101167
101164
101080
101080
101080
101080
101080
101080
101080
101080
101079
101079
101078
101077
101075
101072
101069
101064
101059
101054
101048
101042
101036
101029
101023
101018
101014
101011
101009
101007
101006
101005
101004
101003
101003
101002
101001
101165
101165
101165
101165
101165
101165
101164
101163
101162
101161
101158
101156
101152
101148
101144
101140
101136
101132
101128
101124
101120
101117
101113
101110
101108
101105
101102
101099
101097
101095
101093
101091
101089
101087
101084
101128
101128
101128
101128
101127
101127
101126
101125
101124
101123
101122
101120
101118
101115
101111
101106
101102
101097
101091
101086
101080
101074
101069
101064
101060
101056
101054
101051
101049
101047
101046
101045
101044
101043
101041
101165
101165
101165
101164
101164
101163
101162
101161
101160
101158
101156
101153
101150
101146
101142
101138
101133
101129
101124
101120
101115
101111
101107
101104
101101
101098
101096
101094
101092
101090
101089
101087
101086
101085
101083
101164
101164
101163
101163
101162
101161
101160
101159
101158
101157
101155
101153
101150
101146
101142
101138
101134
101130
101125
101120
101116
101111
101107
101103
101100
101098
101096
101094
101093
101092
101091
101090
101090
101089
101087
101187
101186
101186
101185
101184
101183
101182
101181
101179
101177
101175
101173
101169
101166
101162
101158
101154
101150
101146
101142
101138
101135
101132
101129
101127
101126
101124
101123
101122
101122
101121
101121
101120
101120
101119
101197
101197
101196
101196
101195
101194
101192
101191
101190
101188
101186
101183
101180
101177
101173
101169
101166
101162
101158
101155
101151
101148
101146
101144
101143
101141
101141
101140
101140
101140
101139
101140
101140
101140
101139
101215
101215
101214
101213
101212
101211
101210
101208
101207
101204
101202
101199
101196
101193
101189
101186
101182
101179
101176
101173
101170
101168
101166
101165
101164
101164
101164
101164
101164
101164
101164
101165
101165
101166
101166
101230
101229
101228
101227
101226
101225
101224
101222
101220
101218
101216
101213
101210
101207
101203
101200
101197
101194
101191
101188
101186
101184
101183
101183
101182
101182
101182
101183
101184
101184
101185
101186
101187
101187
101188
101246
101245
101244
101243
101242
101241
101239
101237
101235
101233
101231
101228
101225
101222
101218
101215
101212
101209
101207
101204
101203
101201
101201
101200
101200
101201
101201
101202
101203
101204
101205
101206
101207
101208
101209
101260
101260
101259
101258
101256
101255
101253
101251
101249
101247
101244
101242
101239
101235
101232
101229
101226
101223
101221
101219
101217
101216
101216
101216
101217
101217
101218
101219
101221
101222
101223
101224
101226
101227
101228
101275
101274
101273
101272
101271
101269
101267
101265
101263
101261
101258
101255
101252
101249
101245
101242
101239
101237
101235
101233
101232
101231
101231
101231
101232
101233
101234
101235
101236
101238
101239
101241
101242
101243
101244
101289
101288
101287
101285
101284
101282
101280
101278
101276
101273
101271
101268
101265
101261
101258
101255
101252
101250
101247
101246
101245
101244
101244
101244
101245
101246
101247
101249
101250
101252
101254
101255
101257
101258
101259
101302
101301
101300
101298
101297
101295
101293
101291
101288
101286
101283
101280
101277
101273
101270
101267
101264
101262
101259
101258
101256
101256
101256
101256
101257
101258
101260
101261
101263
101265
101266
101268
101270
101271
101272
101314
101313
101312
101310
101309
101307
101305
101302
101300
101297
101294
101291
101288
101285
101281
101278
101275
101273
101270
101269
101267
101267
101267
101267
101268
101269
101271
101272
101274
101276
101278
101279
101281
101283
101284
101326
101325
101323
101322
101320
101318
101316
101313
101311
101308
101305
101302
101299
101295
101292
101288
101285
101283
101281
101279
101277
101277
101277
101277
101278
101279
101281
101282
101284
101286
101288
101289
101291
101293
101293
101336
101335
101334
101332
101330
101328
101326
101323
101321
101318
101315
101312
101308
101305
101301
101298
101295
101292
101290
101288
101287
101286
101286
101286
101287
101288
101290
101291
101293
101295
101296
101298
101300
101302
101302
110913
110956
110984
111023
111059
111096
111137
111180
111222
111267
111310
111355
111400
111445
111489
111532
111575
111620
111668
111718
111773
111837
93300.8
93272.7
93239.9
93209
93178.9
93149.3
93121.1
93094.1
93066.1
93033
92993.4
92949.6
92902.7
92852.9
92802.5
92758.5
92719.9
92682.2
92646.2
92609.3
92562.3
92503.4
106717
106733
106751
106767
106780
106792
106800
106806
106810
106813
106818
106827
106843
106859
106874
106887
106892
106896
106907
106932
106962
106971
97547.2
97514
97470.5
97423.1
97374.1
97321.1
97264.5
97203.3
97137.7
97076.7
97015.1
96958.5
96913.5
96888.5
96890.7
96919.9
96974
97037.9
97103
97160.4
97203.8
97236.2
103391
103371
103350
103323
103293
103259
103226
103194
103167
103142
103135
103162
103220
103302
103402
103520
103642
103760
103869
103959
104024
104063
99371.5
99369.5
99365.3
99359
99349.3
99335.5
99317.4
99296.1
99273.6
99254.4
99243.7
99241.2
99247.9
99261.8
99283.2
99310.9
99343.9
99381.7
99423.1
99466.8
99514.2
99567
102600
102600
102601
102599
102592
102581
102568
102548
102522
102490
102451
102409
102365
102321
102276
102232
102188
102144
102101
102060
102023
101988
100263
100282
100301
100321
100344
100368
100395
100423
100452
100482
100513
100544
100576
100608
100636
100662
100685
100705
100722
100736
100748
100757
101847
101834
101821
101806
101790
101773
101755
101736
101716
101694
101670
101644
101618
101591
101564
101537
101511
101486
101464
101443
101422
101399
100757
100776
100795
100815
100836
100857
100879
100902
100925
100947
100969
100990
101009
101024
101038
101049
101059
101067
101072
101076
101077
101076
101378
101368
101358
101347
101337
101327
101316
101306
101296
101286
101277
101267
101259
101251
101244
101237
101231
101224
101218
101213
101208
101201
100947
100957
100967
100978
100989
101000
101011
101023
101034
101046
101057
101068
101078
101087
101094
101101
101106
101111
101114
101116
101118
101119
101162
101156
101151
101146
101141
101136
101132
101128
101124
101121
101118
101116
101115
101115
101114
101115
101115
101116
101117
101117
101118
101119
101006
101009
101013
101017
101021
101026
101030
101035
101039
101044
101049
101054
101058
101063
101067
101071
101075
101079
101083
101086
101090
101094
101084
101078
101074
101071
101068
101065
101063
101061
101059
101058
101058
101058
101059
101060
101062
101064
101066
101069
101072
101075
101078
101083
101045
101042
101042
101041
101041
101041
101041
101041
101042
101042
101043
101045
101046
101048
101050
101053
101056
101059
101062
101066
101069
101075
101083
101078
101074
101070
101067
101064
101061
101058
101056
101055
101053
101053
101052
101053
101054
101055
101057
101060
101062
101065
101068
101074
101089
101085
101082
101080
101077
101075
101072
101070
101068
101066
101064
101063
101063
101062
101063
101064
101065
101067
101069
101071
101074
101079
101119
101114
101110
101107
101103
101100
101096
101093
101090
101087
101084
101082
101081
101079
101079
101079
101079
101080
101081
101083
101085
101090
101140
101136
101133
101130
101127
101123
101120
101117
101114
101110
101107
101105
101102
101101
101099
101098
101098
101098
101099
101099
101101
101105
101166
101162
101159
101156
101153
101149
101146
101143
101139
101136
101133
101130
101127
101125
101123
101121
101120
101119
101119
101119
101120
101123
101188
101185
101182
101180
101177
101174
101171
101168
101165
101162
101159
101155
101152
101150
101147
101145
101144
101142
101141
101141
101140
101142
101210
101207
101204
101202
101200
101197
101195
101192
101189
101186
101183
101180
101177
101175
101172
101170
101168
101166
101164
101163
101162
101163
101228
101226
101224
101222
101220
101218
101216
101214
101211
101209
101206
101204
101201
101198
101195
101193
101190
101188
101187
101185
101183
101183
101245
101243
101242
101240
101239
101237
101235
101233
101231
101229
101227
101225
101222
101220
101217
101215
101212
101210
101208
101206
101204
101202
101260
101258
101257
101256
101255
101254
101253
101251
101250
101248
101246
101244
101242
101239
101237
101235
101232
101230
101228
101226
101223
101221
101274
101272
101271
101270
101270
101269
101268
101267
101266
101264
101263
101261
101259
101257
101255
101253
101251
101248
101246
101244
101241
101238
101285
101284
101283
101283
101283
101282
101281
101281
101280
101279
101278
101277
101275
101274
101272
101270
101268
101265
101263
101261
101258
101254
101296
101294
101294
101294
101294
101294
101294
101293
101293
101293
101292
101291
101290
101288
101287
101285
101283
101281
101278
101276
101273
101269
101305
101304
101304
101304
101304
101304
101305
101305
101305
101305
101304
101304
101303
101302
101301
101299
101297
101295
101293
101290
101288
101283
111883
111912
111952
111988
112013
112042
92439.9
92375.4
92329.9
92313.8
92346.7
92419.2
106960
106969
106996
107048
107129
107238
97243.9
97226.2
97206.2
97195.8
97189.9
97190
104079
104079
104045
103997
103949
103905
99607.7
99640.2
99673.6
99701.4
99726.1
99750.2
101966
101951
101940
101933
101927
101924
100765
100760
100755
100749
100740
100729
101385
101367
101353
101341
101331
101318
101075
101064
101054
101045
101034
101021
101197
101189
101182
101175
101168
101159
101118
101115
101111
101108
101104
101101
101118
101118
101117
101117
101117
101117
101094
101097
101099
101101
101103
101107
101083
101087
101091
101095
101099
101105
101074
101081
101086
101091
101096
101104
101073
101081
101087
101093
101099
101108
101078
101087
101093
101100
101106
101116
101089
101098
101104
101111
101117
101127
101103
101112
101119
101125
101132
101141
101121
101130
101136
101142
101148
101156
101141
101149
101154
101160
101165
101173
101162
101169
101174
101179
101183
101189
101183
101188
101193
101197
101201
101205
101203
101207
101211
101215
101218
101221
101222
101225
101229
101232
101234
101236
101240
101242
101245
101248
101250
101250
101256
101258
101260
101263
101264
101263
101272
101273
101275
101277
101278
101276
101286
101287
101289
101290
101291
101289
112034
111988
111958
111908
111870
111824
111781
111732
111684
111636
111589
111541
111494
111449
111406
111365
111326
111286
111250
111211
111179
111136
92508
92611
92714.4
92785.2
92804.3
92782.5
92738.4
92692
92656.3
92635.8
92645.2
92680.9
92731.3
92802.7
92896.5
92992
93080.8
93161.1
93232.8
93296.5
93352.9
93394.2
107351
107454
107514
107514
107474
107415
107337
107249
107161
107081
107009
106952
106914
106893
106876
106858
106842
106827
106811
106794
106778
106765
97195.8
97220.3
97257.6
97303.7
97348.9
97368.4
97362.2
97333.5
97311
97294.2
97276.6
97260.3
97235.5
97188.7
97126.8
97070.4
97028.1
96997.2
96976
96964.1
96959.4
96960.2
103879
103866
103859
103862
103869
103882
103902
103929
103961
104000
104047
104101
104148
104172
104169
104149
104125
104102
104086
104073
104064
104057
99753.9
99742.2
99730.6
99715.3
99694.8
99669.8
99640.9
99608.2
99572.1
99533
99491.4
99446.6
99403.5
99368.3
99340.8
99317.4
99295.5
99274.1
99249.9
99222.2
99191.3
99158
101937
101957
101978
101999
102023
102048
102076
102106
102139
102174
102211
102250
102290
102330
102370
102408
102445
102478
102506
102525
102534
102540
100714
100687
100661
100634
100605
100575
100543
100509
100475
100440
100406
100371
100335
100298
100260
100222
100184
100148
100115
100085
100061
100040
101317
101316
101318
101321
101327
101335
101345
101358
101372
101390
101411
101434
101458
101481
101505
101529
101554
101578
101602
101626
101649
101674
101013
100997
100982
100968
100952
100937
100921
100904
100887
100870
100853
100834
100814
100795
100776
100757
100739
100721
100704
100687
100672
100657
101157
101154
101152
101152
101153
101156
101160
101166
101173
101181
101191
101201
101212
101224
101236
101249
101262
101276
101290
101304
101317
101332
101098
101094
101092
101088
101085
101081
101078
101074
101070
101066
101060
101055
101048
101041
101034
101026
101019
101011
101003
100995
100988
100980
101115
101116
101117
101119
101121
101124
101128
101132
101136
101142
101147
101154
101161
101168
101175
101183
101190
101198
101206
101213
101221
101228
101107
101110
101112
101115
101118
101121
101125
101129
101132
101136
101139
101142
101144
101146
101146
101146
101146
101145
101143
101141
101138
101134
101105
101111
101116
101121
101126
101132
101138
101144
101151
101157
101164
101170
101176
101182
101187
101192
101196
101200
101204
101208
101211
101214
101106
101113
101120
101126
101133
101140
101147
101154
101161
101168
101174
101180
101185
101189
101193
101195
101197
101198
101199
101199
101199
101197
101110
101119
101127
101134
101142
101150
101158
101165
101173
101180
101187
101193
101199
101203
101207
101211
101213
101215
101217
101219
101220
101221
101118
101128
101136
101144
101153
101161
101169
101177
101184
101191
101198
101203
101208
101212
101215
101217
101219
101220
101221
101222
101222
101221
101130
101140
101149
101157
101165
101173
101181
101189
101196
101202
101208
101213
101217
101221
101223
101225
101227
101228
101229
101230
101230
101231
101144
101155
101163
101171
101179
101187
101194
101201
101207
101213
101218
101222
101225
101228
101230
101232
101233
101234
101235
101235
101235
101236
101159
101170
101178
101185
101193
101200
101207
101213
101218
101223
101227
101231
101234
101236
101238
101239
101240
101241
101241
101242
101242
101244
101176
101186
101193
101200
101207
101213
101219
101224
101229
101233
101237
101240
101242
101244
101246
101247
101247
101248
101249
101249
101250
101251
101193
101202
101208
101215
101221
101226
101232
101236
101240
101244
101247
101249
101251
101253
101254
101255
101256
101257
101257
101258
101258
101260
101210
101217
101223
101229
101234
101239
101244
101248
101251
101254
101257
101259
101261
101262
101263
101264
101265
101266
101266
101267
101268
101270
101226
101232
101238
101243
101248
101252
101256
101260
101263
101265
101268
101270
101271
101272
101273
101274
101275
101276
101276
101277
101278
101280
101241
101246
101252
101256
101261
101265
101268
101271
101274
101277
101279
101280
101282
101283
101284
101285
101286
101286
101287
101287
101288
101291
101256
101260
101265
101269
101273
101277
101280
101283
101286
101288
101290
101292
101293
101294
101295
101296
101296
101297
101297
101298
101299
101301
101270
101274
101278
101282
101286
101289
101292
101295
101298
101300
101301
101303
101304
101305
101306
101307
101307
101308
101308
101308
101309
101311
101283
101286
101291
101295
101298
101301
101304
101307
101309
101311
101313
101314
101315
101316
101317
101317
101318
101318
101318
101318
101319
101321
101296
101299
101303
101307
101310
101313
101316
101319
101321
101323
101324
101325
101326
101327
101327
101327
101327
101327
101327
101327
101328
101330
111127
111131
111133
111135
111138
111141
111144
111147
111150
111153
111156
111159
111161
111163
111166
111175
111191
111211
111237
111269
111306
111354
111406
111440
111463
111477
111485
111491
111495
111499
111501
111503
111502
111506
111500
93411.9
93425.4
93436.8
93448.3
93460.2
93472.2
93484.1
93496.4
93509.5
93523.6
93537.5
93550.7
93563.6
93587
93616.4
93649.4
93685.8
93723.1
93761.2
93797
93789
93698.5
93524.9
93367.3
93275.5
93255.6
93270
93294.4
93325
93362.1
93407.8
93463.9
93526.7
93580.7
93610.8
106755
106736
106719
106703
106684
106664
106640
106615
106592
106571
106549
106518
106464
106378
106258
106104
105953
105835
105748
105701
105698
105666
105615
105615
105659
105735
105844
105954
106050
106125
106177
106209
106226
106234
106237
96962
96975.3
96991.7
97011
97033.3
97059.2
97089.9
97125.1
97163.7
97202.8
97240.2
97279
97325.7
97372.5
97413.6
97434
97419.9
97379.7
97346.1
97327.7
97331.7
97325.8
97310.9
97299.7
97320.4
97357.7
97395.9
97422.5
97434.9
97438.2
97436.4
97431.2
97423.1
97413.8
97406.4
104050
104038
104025
104011
103993
103973
103949
103922
103890
103853
103814
103774
103733
103687
103641
103586
103524
103479
103465
103494
103516
103522
103509
103500
103484
103463
103443
103421
103400
103384
103370
103358
103348
103340
103334
99135.1
99124.9
99114.8
99104.6
99094.7
99084.6
99079.1
99079.3
99084
99092.5
99103.6
99116.4
99131.8
99150.5
99171.9
99192.4
99214.9
99242
99273.3
99311.8
99354.9
99399.1
99450.3
99497.5
99546.8
99599.7
99647.6
99687.8
99719.9
99743.7
99760.2
99770.5
99776
99778.2
99777.3
102539
102536
102528
102521
102515
102513
102510
102507
102504
102501
102497
102493
102488
102483
102481
102481
102484
102488
102493
102497
102500
102499
102496
102493
102489
102487
102486
102485
102485
102484
102484
102483
102483
102482
102482
100022
100020
100020
100018
100014
100008
100001
99997.3
99995.6
99995.2
99995.6
100004
100018
100036
100060
100084
100107
100129
100151
100171
100189
100206
100222
100233
100242
100248
100254
100257
100259
100259
100259
100259
100258
100258
100257
101689
101696
101703
101710
101717
101722
101724
101724
101723
101720
101722
101720
101715
101712
101708
101706
101704
101704
101706
101709
101715
101721
101729
101737
101743
101748
101752
101755
101757
101757
101758
101757
101756
101756
101756
100641
100637
100633
100628
100623
100620
100617
100614
100612
100610
100607
100604
100608
100616
100629
100643
100658
100673
100687
100700
100711
100721
100728
100732
100735
100736
100737
100737
100737
100736
100736
100736
100736
100736
100736
101342
101345
101348
101350
101353
101355
101358
101361
101363
101366
101367
101367
101368
101367
101360
101356
101352
101350
101348
101348
101349
101352
101356
101360
101364
101366
101369
101371
101372
101373
101373
101373
101372
101372
101372
100972
100970
100967
100963
100960
100956
100953
100950
100947
100944
100941
100938
100935
100933
100939
100945
100951
100958
100964
100970
100975
100979
100982
100984
100985
100986
100986
100986
100986
100986
100987
100987
100987
100987
100987
101235
101235
101235
101236
101236
101236
101237
101237
101236
101236
101236
101236
101235
101235
101233
101228
101226
101224
101223
101222
101222
101223
101226
101228
101231
101233
101234
101235
101236
101237
101237
101237
101237
101237
101237
101133
101131
101129
101127
101125
101122
101119
101117
101114
101111
101108
101104
101101
101098
101095
101097
101097
101099
101100
101102
101103
101104
101105
101106
101106
101106
101106
101107
101108
101108
101109
101109
101109
101110
101110
101218
101217
101217
101217
101217
101216
101215
101214
101212
101211
101209
101207
101205
101204
101203
101200
101198
101197
101196
101196
101196
101197
101198
101200
101201
101203
101204
101205
101206
101206
101207
101207
101208
101208
101208
101198
101196
101195
101194
101193
101191
101190
101188
101186
101183
101181
101178
101175
101173
101170
101169
101168
101168
101168
101168
101168
101168
101169
101169
101170
101170
101170
101171
101172
101173
101174
101174
101175
101175
101175
101223
101222
101222
101221
101220
101220
101219
101218
101216
101215
101213
101211
101210
101208
101207
101206
101205
101204
101204
101204
101205
101205
101207
101208
101209
101210
101211
101212
101213
101214
101215
101215
101216
101216
101216
101222
101221
101220
101220
101219
101218
101217
101216
101214
101213
101211
101210
101208
101207
101205
101204
101204
101204
101204
101204
101205
101206
101206
101207
101208
101209
101209
101210
101211
101212
101212
101213
101214
101214
101215
101231
101231
101230
101230
101229
101228
101227
101227
101226
101225
101223
101222
101221
101221
101220
101220
101220
101220
101221
101222
101223
101224
101225
101227
101228
101229
101231
101232
101233
101234
101235
101235
101236
101237
101237
101235
101235
101234
101234
101233
101232
101232
101231
101230
101229
101228
101227
101227
101226
101226
101226
101227
101227
101228
101229
101231
101232
101233
101234
101236
101237
101238
101239
101240
101241
101242
101243
101244
101244
101245
101242
101242
101242
101241
101240
101240
101239
101238
101237
101237
101236
101236
101235
101235
101235
101236
101237
101238
101239
101241
101242
101244
101246
101248
101249
101251
101252
101253
101255
101256
101257
101258
101259
101259
101260
101249
101249
101249
101248
101247
101247
101246
101245
101244
101244
101243
101243
101243
101243
101243
101244
101245
101247
101248
101250
101252
101254
101255
101257
101259
101260
101262
101263
101264
101266
101267
101268
101269
101269
101270
101258
101258
101257
101256
101256
101255
101254
101253
101252
101252
101251
101251
101251
101251
101252
101253
101254
101256
101258
101260
101262
101264
101266
101268
101270
101271
101273
101274
101276
101277
101278
101280
101281
101281
101282
101267
101267
101267
101266
101265
101264
101263
101262
101261
101260
101260
101259
101259
101260
101260
101262
101263
101265
101267
101269
101271
101273
101275
101277
101279
101281
101283
101284
101286
101287
101288
101290
101291
101291
101292
101277
101277
101276
101275
101274
101273
101272
101271
101270
101269
101268
101268
101268
101268
101269
101270
101272
101274
101276
101278
101280
101282
101284
101287
101289
101291
101292
101294
101296
101297
101299
101300
101301
101302
101302
101287
101287
101286
101285
101284
101283
101281
101280
101279
101278
101277
101277
101277
101277
101278
101279
101281
101282
101284
101286
101288
101291
101293
101295
101297
101299
101301
101303
101305
101306
101308
101309
101310
101311
101312
101297
101298
101296
101295
101294
101292
101291
101289
101288
101287
101286
101286
101285
101285
101286
101287
101289
101291
101293
101295
101297
101299
101301
101304
101306
101308
101310
101312
101314
101315
101317
101318
101319
101320
101321
101307
101307
101306
101305
101303
101302
101300
101298
101297
101296
101295
101294
101294
101294
101294
101295
101297
101299
101300
101302
101304
101307
101309
101311
101314
101316
101318
101320
101322
101323
101325
101326
101328
101329
101329
101317
101317
101315
101314
101312
101310
101309
101307
101306
101304
101303
101302
101302
101302
101302
101303
101304
101306
101308
101310
101312
101314
101316
101319
101321
101323
101325
101327
101329
101331
101333
101334
101336
101337
101337
101325
101325
101324
101322
101320
101319
101317
101315
101313
101312
101311
101310
101309
101309
101309
101310
101312
101313
101315
101317
101319
101321
101323
101326
101328
101330
101332
101334
101336
101338
101340
101341
101343
101344
101345
101348
101347
101345
101343
101341
101339
101336
101334
101331
101328
101325
101322
101318
101315
101311
101308
101305
101302
101300
101298
101296
101295
101295
101295
101296
101297
101298
101300
101302
101303
101305
101307
101309
101310
101311
101359
101358
101356
101354
101352
101350
101347
101344
101341
101338
101335
101332
101329
101325
101321
101318
101315
101312
101309
101307
101306
101304
101304
101304
101305
101306
101307
101308
101310
101312
101313
101315
101317
101318
101319
101369
101367
101366
101364
101362
101359
101356
101354
101351
101348
101345
101341
101338
101334
101330
101327
101324
101321
101318
101316
101314
101313
101312
101312
101312
101313
101314
101315
101317
101318
101320
101322
101323
101325
101325
101377
101376
101375
101372
101370
101368
101365
101362
101359
101356
101353
101349
101346
101342
101338
101335
101332
101329
101326
101323
101321
101320
101319
101319
101319
101319
101320
101321
101323
101324
101326
101327
101329
101330
101330
101385
101384
101382
101380
101378
101375
101372
101369
101366
101363
101360
101357
101353
101349
101346
101342
101339
101336
101333
101330
101328
101326
101325
101324
101324
101325
101325
101326
101327
101329
101330
101332
101333
101334
101334
101392
101391
101389
101387
101384
101382
101379
101376
101373
101370
101366
101363
101359
101356
101352
101349
101345
101342
101339
101336
101334
101332
101330
101329
101329
101329
101330
101330
101331
101332
101334
101335
101337
101338
101337
101398
101397
101395
101393
101390
101387
101384
101381
101378
101375
101372
101369
101365
101361
101358
101354
101351
101348
101345
101342
101339
101337
101335
101334
101333
101333
101333
101333
101334
101335
101336
101337
101339
101340
101339
101403
101402
101400
101398
101395
101392
101389
101386
101383
101380
101377
101373
101370
101366
101363
101359
101356
101353
101349
101346
101343
101341
101339
101337
101336
101336
101335
101336
101336
101337
101338
101339
101340
101341
101340
101408
101406
101404
101402
101399
101397
101394
101391
101388
101384
101381
101378
101374
101371
101367
101364
101360
101357
101354
101350
101347
101344
101342
101340
101339
101338
101337
101337
101338
101338
101339
101340
101341
101342
101341
101411
101410
101408
101406
101403
101400
101397
101394
101391
101388
101385
101381
101378
101374
101371
101367
101364
101361
101357
101354
101351
101347
101345
101342
101341
101339
101339
101338
101338
101339
101339
101340
101341
101341
101340
101415
101413
101411
101409
101406
101403
101401
101397
101394
101391
101388
101385
101381
101378
101374
101371
101367
101364
101360
101357
101353
101350
101347
101344
101342
101341
101339
101339
101338
101338
101339
101339
101340
101341
101339
101417
101416
101414
101412
101409
101406
101403
101400
101397
101394
101391
101387
101384
101380
101377
101374
101370
101367
101363
101360
101356
101352
101349
101346
101343
101341
101340
101338
101338
101337
101337
101338
101339
101339
101338
101420
101418
101416
101414
101411
101408
101406
101403
101399
101396
101393
101390
101386
101383
101379
101376
101373
101369
101366
101362
101358
101354
101350
101347
101344
101342
101339
101338
101337
101336
101336
101336
101336
101337
101335
101422
101420
101418
101416
101413
101410
101408
101405
101401
101398
101395
101392
101388
101385
101382
101378
101375
101371
101368
101364
101360
101356
101352
101348
101344
101341
101339
101337
101335
101334
101333
101333
101334
101334
101332
101423
101422
101420
101417
101415
101412
101409
101406
101403
101400
101397
101394
101390
101387
101383
101380
101377
101373
101369
101366
101361
101357
101353
101348
101345
101341
101338
101335
101333
101332
101331
101330
101330
101330
101329
101425
101423
101421
101419
101416
101414
101411
101408
101405
101402
101398
101395
101392
101388
101385
101382
101378
101375
101371
101367
101363