/*--------------------------------*- C++ -*----------------------------------*\
  =========                 |
  \\      /  F ield         | OpenFOAM: The Open Source CFD Toolbox
   \\    /   O peration     | Website:  https://openfoam.org
    \\  /    A nd           | Version:  8
     \\/     M anipulation  |
\*---------------------------------------------------------------------------*/
FoamFile
{
    version     2.0;
    format      ascii;
    class       surfaceScalarField;
    location    "0.46";
    object      phi;
}
// * * * * * * * * * * * * * * * * * * * * * * * * * * * * * * * * * * * * * //

dimensions      [1 0 -1 0 0 0 0];

internalField   nonuniform List<scalar> 
31053
(
-6.92354e-06
1.35644e-05
-9.5369e-06
1.04571e-05
-1.2481e-05
1.2298e-05
-1.64479e-05
1.49929e-05
-2.20738e-05
1.83734e-05
-2.95124e-05
2.20304e-05
-3.8213e-05
2.53351e-05
-4.6743e-05
2.747e-05
-5.2436e-05
2.72653e-05
-5.02662e-05
2.24175e-05
-3.03808e-05
8.13688e-06
1.76538e-05
-1.6036e-05
0.000100919
-4.65059e-05
0.000215569
-7.21469e-05
0.000324707
-6.79549e-05
0.000420369
-5.39465e-05
0.000493622
-3.12102e-05
0.00053764
-1.82619e-06
0.000546348
3.35201e-05
0.000520366
6.81515e-05
0.000470845
9.14855e-05
0.000416571
9.25626e-05
0.000367894
8.30895e-05
0.000326197
7.26584e-05
0.000290487
6.35885e-05
0.000259639
5.59566e-05
0.000232732
4.95253e-05
0.000208991
4.41195e-05
0.000187859
3.94964e-05
0.000168989
3.54271e-05
0.000152154
3.17737e-05
0.00013719
2.84535e-05
0.000123981
2.54037e-05
0.000112479
2.25376e-05
1.99677e-05
0.000102434
-6.7562e-05
8.11209e-05
-0.000151957
9.48469e-05
-0.000245901
0.00010624
-0.000347425
0.000116516
-0.000454405
0.000125357
-0.000564139
0.000131773
-0.000672748
0.000133956
-0.000774479
0.000129212
-0.000860601
0.000113395
-0.000918527
8.03453e-05
-0.000934359
2.39632e-05
-0.00088737
-6.3031e-05
-0.000775449
-0.000158433
-0.000606268
-0.000241344
-0.000431786
-0.000242457
-0.000255876
-0.000229897
-8.86677e-05
-0.000198535
5.91607e-05
-0.000149782
0.000185764
-9.31874e-05
0.000290441
-3.66048e-05
0.000374697
7.16303e-06
0.000441595
2.55644e-05
0.000492263
3.23218e-05
0.000530069
3.47493e-05
0.000558034
3.55126e-05
0.000578327
3.5553e-05
0.000592501
3.52403e-05
0.00060181
3.47021e-05
0.000607235
3.39654e-05
0.000609519
3.30412e-05
0.000609264
3.19318e-05
0.000606958
3.06696e-05
0.000603109
2.91692e-05
0.000598132
2.7441e-05
2.51349e-05
0.000592897
1.06374e-07
8.10314e-05
5.13736e-06
8.98326e-05
1.37781e-05
9.76175e-05
2.46827e-05
0.000105632
3.69102e-05
0.000113154
4.97173e-05
0.000118996
6.21882e-05
0.000121522
7.30281e-05
0.000118418
8.00297e-05
0.00010645
7.89497e-05
8.14988e-05
6.33027e-05
3.97058e-05
6.27631e-06
-5.87876e-06
-0.000109034
-4.28299e-05
-0.000277553
-7.26103e-05
-0.000446327
-7.3477e-05
-0.000613945
-6.21288e-05
-0.000765783
-4.63911e-05
-0.000880687
-3.48053e-05
-0.000946102
-2.76999e-05
-0.000945046
-3.75088e-05
-0.00087844
-5.92457e-05
-0.000779534
-7.30435e-05
-0.000668152
-7.87349e-05
-0.000555869
-7.72125e-05
-0.000449547
-7.05086e-05
-0.000352659
-6.1063e-05
-0.000265929
-5.12538e-05
-0.000188574
-4.24501e-05
-0.000119503
-3.49348e-05
-5.75197e-05
-2.87967e-05
-1.5522e-06
-2.39106e-05
4.92889e-05
-2.0065e-05
9.56263e-05
-1.70741e-05
0.000137874
-1.47225e-05
-1.25762e-05
0.00017566
4.00567e-05
4.09201e-05
7.93855e-05
5.04432e-05
0.0001206
5.63355e-05
0.000165351
6.08059e-05
0.000214433
6.39855e-05
0.000267924
6.54054e-05
0.000325024
6.43068e-05
0.00038367
5.96398e-05
0.000439726
5.02423e-05
0.000485212
3.58356e-05
0.000504586
2.01186e-05
0.000491211
7.24439e-06
0.000463064
-1.51022e-05
0.000431218
-4.11004e-05
0.000397423
-3.99464e-05
0.000354692
-1.9692e-05
0.000301552
6.21585e-06
0.000251513
1.48332e-05
0.000214753
8.57309e-06
0.000203031
-2.62156e-05
0.000219647
-7.6241e-05
0.000253842
-0.000107566
0.000294664
-0.000119834
0.000336951
-0.000119743
0.000378246
-0.00011203
0.000417481
-0.000100511
0.000454256
-8.82323e-05
0.000488507
-7.68925e-05
0.000520349
-6.69608e-05
0.000549991
-5.86124e-05
0.000577572
-5.16577e-05
0.000603114
-4.57656e-05
0.000626565
-4.06756e-05
0.000647891
-3.61943e-05
-3.24708e-05
0.000667642
2.49665e-05
1.59886e-05
5.4613e-05
2.08337e-05
8.68317e-05
2.41553e-05
0.00011999
2.76891e-05
0.000153312
3.07133e-05
0.000186099
3.26757e-05
0.000217384
3.30869e-05
0.000246221
3.08772e-05
0.000271874
2.4673e-05
0.000295629
1.21745e-05
0.000319083
-3.23026e-06
0.000345468
-1.90229e-05
0.000365516
-3.50158e-05
0.000377651
-5.30796e-05
0.000393902
-5.6056e-05
0.000430518
-5.61455e-05
0.000489709
-5.28899e-05
0.000555729
-5.11391e-05
0.000620029
-5.5676e-05
0.000658118
-6.43155e-05
0.000654486
-7.26437e-05
0.000619896
-7.29992e-05
0.000570202
-7.01338e-05
0.000516162
-6.56946e-05
0.00046453
-6.0389e-05
0.00041873
-5.47065e-05
0.000379518
-4.90213e-05
0.00034611
-4.34949e-05
0.000317369
-3.82344e-05
0.000292094
-3.3352e-05
0.000269367
-2.89517e-05
0.000248728
-2.51499e-05
0.000230028
-2.20033e-05
0.000213258
-1.94532e-05
-1.7089e-05
0.000197846
3.84443e-05
-2.24993e-05
8.24716e-05
-2.32413e-05
0.000129669
-2.30955e-05
0.000179688
-2.23889e-05
0.000232094
-2.17601e-05
0.000286221
-2.1526e-05
0.0003417
-2.24793e-05
0.000397457
-2.49785e-05
0.000450884
-2.8865e-05
0.000496015
-3.30824e-05
0.000529706
-3.70582e-05
0.000551544
-4.10101e-05
0.000560482
-4.41098e-05
0.000555625
-4.83831e-05
0.000542985
-4.35474e-05
0.000527399
-4.06671e-05
0.000512272
-3.78459e-05
0.000498091
-3.70331e-05
0.000481658
-3.93065e-05
0.000461323
-4.40325e-05
0.000438296
-4.96542e-05
0.000415068
-4.97856e-05
0.000392252
-4.7309e-05
0.000370214
-4.36304e-05
0.000349178
-3.93091e-05
0.000329083
-3.45531e-05
0.000309659
-2.95274e-05
0.000290535
-2.42943e-05
0.000271276
-1.88952e-05
0.000251454
-1.34491e-05
0.000230803
-8.22039e-06
0.000209136
-3.40633e-06
0.000186707
5.01498e-07
0.000164305
3.02185e-06
4.93156e-06
0.000142352
-2.57699e-05
3.28498e-06
-5.23496e-05
3.3534e-06
-7.82567e-05
2.82749e-06
-0.000101966
1.33802e-06
-0.000121765
-1.94148e-06
-0.000135728
-7.53936e-06
-0.000141536
-1.66447e-05
-0.000137917
-2.85651e-05
-0.000125172
-4.15732e-05
-0.000104258
-5.39514e-05
-7.5941e-05
-6.53226e-05
-4.0823e-05
-7.60648e-05
1.13485e-06
-8.59926e-05
4.74586e-05
-9.46196e-05
8.88407e-05
-8.48477e-05
0.000127742
-7.94889e-05
0.000163613
-7.36457e-05
0.0001949
-6.82587e-05
0.000219172
-6.35265e-05
0.000233615
-5.84307e-05
0.000236387
-5.23936e-05
0.000228351
-4.17285e-05
0.000212704
-3.16499e-05
0.000192295
-2.32141e-05
0.000169485
-1.64983e-05
0.000146277
-1.13468e-05
0.000124143
-7.3983e-06
0.000104236
-4.39343e-06
8.68532e-05
-1.51837e-06
7.25406e-05
8.58118e-07
6.14647e-05
2.85267e-06
5.31617e-05
4.89538e-06
4.73754e-05
6.28803e-06
4.3119e-05
7.27991e-06
8.05563e-06
3.99986e-05
-1.09632e-05
1.42264e-05
-2.05561e-05
1.29222e-05
-2.78308e-05
1.00753e-05
-3.17164e-05
5.19309e-06
-3.08595e-05
-2.83336e-06
-2.26809e-05
-1.57582e-05
-8.85554e-06
-3.05165e-05
8.87938e-06
-4.63536e-05
2.87932e-05
-6.15483e-05
4.97054e-05
-7.49331e-05
7.09592e-05
-8.66545e-05
9.21022e-05
-9.7295e-05
0.000112857
-0.000106843
0.000132964
-0.00011483
0.000148362
-0.000100338
0.000160637
-9.18497e-05
0.000170069
-8.31562e-05
0.000176789
-7.50449e-05
0.000180834
-6.76308e-05
0.000182256
-5.99014e-05
0.000181037
-5.12092e-05
0.000177007
-3.77192e-05
0.000170202
-2.48546e-05
0.000160383
-1.34003e-05
0.000146747
-2.86318e-06
0.000131359
4.04603e-06
0.0001148
9.16787e-06
9.69377e-05
1.34777e-05
7.89223e-05
1.65066e-05
6.14508e-05
1.83383e-05
4.50989e-05
1.92142e-05
3.06022e-05
1.94003e-05
1.77647e-05
1.9134e-05
6.48728e-06
1.85652e-05
1.76834e-05
-3.1322e-06
1.7433e-05
-3.20509e-06
3.84109e-05
-8.05488e-06
6.18109e-05
-1.33247e-05
8.68634e-05
-1.98602e-05
0.000111728
-2.76997e-05
0.000131731
-3.57644e-05
0.000145241
-4.40306e-05
0.000151374
-5.24913e-05
0.000151024
-6.12058e-05
0.000146436
-7.03551e-05
0.00013972
-7.99509e-05
0.000132107
-8.96988e-05
0.000124408
-9.91666e-05
0.000117459
-0.000107909
0.000113074
-9.59835e-05
0.000110107
-8.89153e-05
0.000107874
-8.0961e-05
0.000105245
-7.24588e-05
0.00010148
-6.39132e-05
9.66807e-05
-5.51522e-05
9.11528e-05
-4.57371e-05
8.61948e-05
-3.28156e-05
8.26909e-05
-2.14045e-05
8.13305e-05
-1.20936e-05
8.32887e-05
-4.87361e-06
8.59463e-05
1.3405e-06
8.74057e-05
7.66161e-06
8.90096e-05
1.18281e-05
9.10114e-05
1.44607e-05
9.32931e-05
1.60144e-05
9.56874e-05
1.67804e-05
9.80765e-05
1.69735e-05
0.000100403
1.67735e-05
0.000102639
1.62984e-05
1.57156e-05
0.000104579
1.34558e-05
-1.66779e-05
2.70676e-05
-2.16859e-05
3.95299e-05
-2.58088e-05
4.98128e-05
-3.01677e-05
5.71535e-05
-3.50686e-05
6.1993e-05
-4.06362e-05
6.491e-05
-4.69847e-05
6.65771e-05
-5.42008e-05
6.76406e-05
-6.2318e-05
6.85764e-05
-7.13465e-05
6.97827e-05
-8.12201e-05
7.16805e-05
-9.16673e-05
7.47128e-05
-0.000102278
7.90526e-05
-0.000112339
8.31637e-05
-0.000100179
8.72125e-05
-9.30469e-05
9.10754e-05
-8.49041e-05
9.444e-05
-7.59017e-05
9.68476e-05
-6.63983e-05
9.79665e-05
-5.6347e-05
9.75957e-05
-4.54394e-05
9.55065e-05
-3.07916e-05
9.17738e-05
-1.77282e-05
8.61322e-05
-6.50011e-06
7.86878e-05
2.5237e-06
7.19144e-05
8.07125e-06
6.71617e-05
1.23758e-05
6.35653e-05
1.53901e-05
6.06107e-05
1.73843e-05
5.80327e-05
1.8564e-05
5.56858e-05
1.91017e-05
5.34888e-05
1.91471e-05
5.14169e-05
1.88246e-05
4.94643e-05
1.82336e-05
1.74056e-05
4.77601e-05
3.87792e-06
-2.05631e-05
7.84539e-06
-2.56618e-05
1.20872e-05
-3.00604e-05
1.66537e-05
-3.47455e-05
2.14847e-05
-3.99127e-05
2.64989e-05
-4.56655e-05
3.15754e-05
-5.20786e-05
3.65551e-05
-5.92005e-05
4.12645e-05
-6.70507e-05
4.5491e-05
-7.56001e-05
4.89862e-05
-8.4747e-05
5.15582e-05
-9.42765e-05
5.30751e-05
-0.000103839
5.352e-05
-0.000112836
5.34163e-05
-0.000100125
5.29849e-05
-9.26671e-05
5.24608e-05
-8.44336e-05
5.19484e-05
-7.54448e-05
5.13179e-05
-6.5826e-05
5.05819e-05
-5.56729e-05
5.00726e-05
-4.49963e-05
5.04896e-05
-3.12725e-05
5.22052e-05
-1.9504e-05
5.55455e-05
-9.89883e-06
6.0394e-05
-2.37625e-06
6.40457e-05
4.37324e-06
6.70907e-05
9.28668e-06
6.98705e-05
1.25695e-05
7.24754e-05
1.47415e-05
7.49326e-05
1.60716e-05
7.72548e-05
1.67471e-05
7.94563e-05
1.69163e-05
8.1545e-05
1.67094e-05
8.35229e-05
1.62315e-05
1.55973e-05
8.53092e-05
1.71263e-06
-2.22851e-05
3.41676e-06
-2.73767e-05
5.12767e-06
-3.17836e-05
6.89257e-06
-3.65244e-05
8.77222e-06
-4.18085e-05
1.08112e-05
-4.7723e-05
1.3042e-05
-5.43306e-05
1.54884e-05
-6.16712e-05
1.81606e-05
-6.97508e-05
2.10451e-05
-7.85165e-05
2.40852e-05
-8.78236e-05
2.72194e-05
-9.74524e-05
3.03883e-05
-0.000107056
3.35188e-05
-0.000116021
3.59407e-05
-0.000102599
3.80432e-05
-9.48217e-05
3.9992e-05
-8.64352e-05
4.18498e-05
-7.73562e-05
4.35518e-05
-6.75831e-05
4.49708e-05
-5.71497e-05
4.5915e-05
-4.60017e-05
4.60655e-05
-3.14821e-05
4.55133e-05
-1.90073e-05
4.44561e-05
-8.89261e-06
4.24199e-05
-3.86368e-07
4.18145e-05
4.93278e-06
4.18997e-05
9.16008e-06
4.21765e-05
1.22549e-05
4.24887e-05
1.43948e-05
4.27644e-05
1.57647e-05
4.29899e-05
1.64932e-05
4.318e-05
1.67006e-05
4.33515e-05
1.65147e-05
4.35209e-05
1.60411e-05
1.53509e-05
4.37483e-05
9.71567e-07
-2.32609e-05
1.98675e-06
-2.83966e-05
3.18928e-06
-3.29915e-05
4.56667e-06
-3.7908e-05
6.08214e-06
-4.33311e-05
7.70393e-06
-4.9353e-05
9.3893e-06
-5.60255e-05
1.10833e-05
-6.33762e-05
1.27182e-05
-7.13986e-05
1.42246e-05
-8.00379e-05
1.55455e-05
-8.91623e-05
1.66371e-05
-9.8565e-05
1.74321e-05
-0.000107876
1.78718e-05
-0.00011649
1.80623e-05
-0.000102819
1.80499e-05
-9.48405e-05
1.79004e-05
-8.63185e-05
1.77348e-05
-7.72251e-05
1.76479e-05
-6.7532e-05
1.76651e-05
-5.72035e-05
1.78256e-05
-4.61995e-05
1.8285e-05
-3.19763e-05
1.91624e-05
-1.99171e-05
2.06214e-05
-1.03824e-05
2.32359e-05
-3.02991e-06
2.53628e-05
2.78014e-06
2.72687e-05
7.22953e-06
2.91372e-05
1.03633e-05
3.09991e-05
1.25114e-05
3.28577e-05
1.38865e-05
3.46912e-05
1.46416e-05
3.6464e-05
1.49115e-05
3.81441e-05
1.48194e-05
3.97066e-05
1.44642e-05
1.39433e-05
4.11003e-05
4.42437e-07
-2.37064e-05
8.32586e-07
-2.87903e-05
1.19015e-06
-3.33531e-05
1.535e-06
-3.82575e-05
1.89158e-06
-4.3693e-05
2.2635e-06
-4.9731e-05
2.65117e-06
-5.64203e-05
3.05594e-06
-6.37893e-05
3.48126e-06
-7.18335e-05
3.93816e-06
-8.0506e-05
4.45562e-06
-8.9693e-05
5.0421e-06
-9.91671e-05
5.68302e-06
-0.000108535
6.31805e-06
-0.000117148
6.69576e-06
-0.000103219
6.89478e-06
-9.50625e-05
6.95398e-06
-8.64018e-05
6.90677e-06
-7.7203e-05
6.78161e-06
-6.74332e-05
6.60555e-06
-5.70551e-05
6.39548e-06
-4.60186e-05
6.12798e-06
-3.1737e-05
5.8148e-06
-1.96309e-05
5.46995e-06
-1.00633e-05
4.99006e-06
-2.57397e-06
4.75763e-06
2.98869e-06
4.88453e-06
7.08084e-06
5.17472e-06
1.0053e-05
5.56829e-06
1.20993e-05
6.03095e-06
1.34071e-05
6.52222e-06
1.41348e-05
7.00405e-06
1.44157e-05
7.45092e-06
1.43591e-05
7.849e-06
1.40534e-05
1.3561e-05
8.21896e-06
1.07513e-07
-2.38145e-05
1.95787e-07
-2.88793e-05
2.93711e-07
-3.3452e-05
4.13011e-07
-3.83779e-05
5.33066e-07
-4.38145e-05
6.28878e-07
-4.98286e-05
6.79399e-07
-5.6473e-05
6.62312e-07
-6.37748e-05
5.53977e-07
-7.17284e-05
3.25482e-07
-8.02816e-05
-6.31975e-08
-8.93093e-05
-6.59821e-07
-9.85769e-05
-1.52052e-06
-0.000107683
-2.69923e-06
-0.000115979
-3.91858e-06
-0.000102011
-5.23905e-06
-9.37544e-05
-6.65176e-06
-8.50027e-05
-8.13486e-06
-7.57347e-05
-9.65842e-06
-6.59255e-05
-1.11827e-05
-5.55478e-05
-1.2644e-05
-4.45752e-05
-1.38049e-05
-3.05933e-05
-1.46113e-05
-1.88406e-05
-1.50654e-05
-9.62424e-06
-1.51237e-05
-2.52981e-06
-1.50565e-05
2.90879e-06
-1.49415e-05
6.95416e-06
-1.47415e-05
9.84223e-06
-1.44704e-05
1.18184e-05
-1.41482e-05
1.30762e-05
-1.37962e-05
1.37746e-05
-1.34312e-05
1.40435e-05
-1.30678e-05
1.39883e-05
-1.2715e-05
1.36935e-05
1.32313e-05
-1.23925e-05
-1.02738e-07
-2.3712e-05
-3.14266e-07
-2.86681e-05
-6.05808e-07
-3.3161e-05
-9.91486e-07
-3.79929e-05
-1.48223e-06
-4.33246e-05
-2.06415e-06
-4.92477e-05
-2.7289e-06
-5.58096e-05
-3.47449e-06
-6.30308e-05
-4.30533e-06
-7.08997e-05
-5.23399e-06
-7.93555e-05
-6.28262e-06
-8.8264e-05
-7.48445e-06
-9.73792e-05
-8.88652e-06
-0.000106286
-1.05613e-05
-0.000114311
-1.22694e-05
-0.00010031
-1.40895e-05
-9.19425e-05
-1.60153e-05
-8.30857e-05
-1.80392e-05
-7.37204e-05
-2.01491e-05
-6.38259e-05
-2.23272e-05
-5.33803e-05
-2.45548e-05
-4.23589e-05
-2.66352e-05
-2.85235e-05
-2.85369e-05
-1.69488e-05
-3.02659e-05
-7.90439e-06
-3.18889e-05
-9.1512e-07
-3.3257e-05
4.269e-06
-3.44097e-05
8.09978e-06
-3.53953e-05
1.08214e-05
-3.6242e-05
1.26595e-05
-3.69723e-05
1.38017e-05
-3.7605e-05
1.44026e-05
-3.81539e-05
1.45884e-05
-3.86311e-05
1.44612e-05
-3.90454e-05
1.41034e-05
1.35776e-05
-3.93963e-05
-2.97994e-07
-2.34139e-05
-6.95498e-07
-2.82705e-05
-1.16268e-06
-3.26938e-05
-1.71984e-06
-3.74358e-05
-2.36982e-06
-4.26748e-05
-3.12814e-06
-4.84897e-05
-4.01621e-06
-5.49219e-05
-5.05858e-06
-6.1989e-05
-6.28334e-06
-6.96757e-05
-7.7228e-06
-7.79172e-05
-9.41502e-06
-8.65733e-05
-1.14062e-05
-9.53901e-05
-1.37549e-05
-0.00010394
-1.65331e-05
-0.000111537
-1.92365e-05
-9.76105e-05
-2.20218e-05
-8.91618e-05
-2.48993e-05
-8.0213e-05
-2.78741e-05
-7.07506e-05
-3.09451e-05
-6.07599e-05
-3.41041e-05
-5.02264e-05
-3.73307e-05
-3.91371e-05
-4.02939e-05
-2.55642e-05
-4.29349e-05
-1.4311e-05
-4.52601e-05
-5.58179e-06
-4.72441e-05
1.06697e-06
-4.90352e-05
6.0586e-06
-5.06119e-05
9.67541e-06
-5.19923e-05
1.22012e-05
-5.31965e-05
1.38633e-05
-5.42441e-05
1.48493e-05
-5.51544e-05
1.53129e-05
-5.59446e-05
1.53788e-05
-5.66317e-05
1.51479e-05
-5.72296e-05
1.47006e-05
1.41023e-05
-5.77555e-05
-4.26444e-07
-2.29877e-05
-1.02442e-06
-2.76728e-05
-1.75962e-06
-3.1959e-05
-2.61387e-06
-3.6582e-05
-3.5912e-06
-4.1698e-05
-4.7064e-06
-4.73752e-05
-5.9766e-06
-5.36526e-05
-7.42208e-06
-6.05446e-05
-9.06724e-06
-6.80318e-05
-1.0942e-05
-7.60439e-05
-1.30841e-05
-8.44331e-05
-1.55416e-05
-9.29349e-05
-1.83766e-05
-0.000101108
-2.16738e-05
-0.000108243
-2.48747e-05
-9.4413e-05
-2.81591e-05
-8.58807e-05
-3.15386e-05
-7.68367e-05
-3.5023e-05
-6.72692e-05
-3.8618e-05
-5.71673e-05
-4.23251e-05
-4.65211e-05
-4.61413e-05
-3.5322e-05
-4.97215e-05
-2.19841e-05
-5.30111e-05
-1.10208e-05
-5.60202e-05
-2.57143e-06
-5.87607e-05
3.80914e-06
-6.12142e-05
8.51409e-06
-6.34114e-05
1.18749e-05
-6.53743e-05
1.41664e-05
-6.71246e-05
1.5616e-05
-6.86831e-05
1.64103e-05
-7.00695e-05
1.67016e-05
-7.13013e-05
1.6613e-05
-7.23955e-05
1.62437e-05
-7.33664e-05
1.56728e-05
1.49613e-05
-7.42246e-05
-5.35496e-07
-2.24526e-05
-1.21819e-06
-2.69907e-05
-2.03113e-06
-3.11466e-05
-2.97815e-06
-3.56357e-05
-4.07616e-06
-4.06009e-05
-5.34575e-06
-4.61066e-05
-6.81074e-06
-5.21888e-05
-8.49839e-06
-5.88583e-05
-1.04398e-05
-6.6092e-05
-1.26707e-05
-7.38149e-05
-1.52332e-05
-8.18728e-05
-1.81784e-05
-8.99923e-05
-2.15702e-05
-9.77189e-05
-2.54912e-05
-0.000104325
-2.92499e-05
-9.0657e-05
-3.30676e-05
-8.20655e-05
-3.69621e-05
-7.29442e-05
-4.09476e-05
-6.32849e-05
-4.50352e-05
-5.30802e-05
-4.92314e-05
-4.23244e-05
-5.3536e-05
-3.10156e-05
-5.75501e-05
-1.79673e-05
-6.12116e-05
-7.35563e-06
-6.45284e-05
7.49557e-07
-6.75292e-05
6.81451e-06
-7.0233e-05
1.12227e-05
-7.26597e-05
1.43064e-05
-7.48299e-05
1.63415e-05
-7.6765e-05
1.75559e-05
-7.84864e-05
1.81365e-05
-8.00153e-05
1.82348e-05
-8.13714e-05
1.79733e-05
-8.25738e-05
1.74497e-05
-8.36395e-05
1.67416e-05
1.59096e-05
-8.45851e-05
-6.25149e-07
-2.18282e-05
-1.44021e-06
-2.61764e-05
-2.39756e-06
-3.01902e-05
-3.50658e-06
-3.45277e-05
-4.78301e-06
-3.93257e-05
-6.24687e-06
-4.46442e-05
-7.92179e-06
-5.05155e-05
-9.8352e-06
-5.69469e-05
-1.20189e-05
-6.39106e-05
-1.45098e-05
-7.13264e-05
-1.73518e-05
-7.90336e-05
-2.0598e-05
-8.67492e-05
-2.43141e-05
-9.40062e-05
-2.85845e-05
-0.000100058
-3.26621e-05
-8.65822e-05
-3.67828e-05
-7.7947e-05
-4.09618e-05
-6.87666e-05
-4.52131e-05
-5.90341e-05
-4.95483e-05
-4.87445e-05
-5.39749e-05
-3.7896e-05
-5.84955e-05
-2.64918e-05
-6.27046e-05
-1.37539e-05
-6.65471e-05
-3.50812e-06
-7.00409e-05
4.249e-06
-7.31973e-05
9.97676e-06
-7.60387e-05
1.40701e-05
-7.85879e-05
1.68616e-05
-8.08685e-05
1.86279e-05
-8.29039e-05
1.9597e-05
-8.47171e-05
1.99551e-05
-8.63298e-05
1.98526e-05
-8.77624e-05
1.94107e-05
-8.90341e-05
1.87256e-05
-9.0162e-05
1.78733e-05
1.69121e-05
-9.1161e-05
-6.87782e-07
-2.11412e-05
-1.55554e-06
-2.53096e-05
-2.57696e-06
-2.91699e-05
-3.76166e-06
-3.33443e-05
-5.12837e-06
-3.79605e-05
-6.70035e-06
-4.30739e-05
-8.50451e-06
-4.87133e-05
-1.05714e-05
-5.48822e-05
-1.29354e-05
-6.15491e-05
-1.56354e-05
-6.86292e-05
-1.8716e-05
-7.59561e-05
-2.22292e-05
-8.32394e-05
-2.62381e-05
-9.00007e-05
-3.08214e-05
-9.54784e-05
-3.5166e-05
-8.22402e-05
-3.95247e-05
-7.35902e-05
-4.39127e-05
-6.43796e-05
-4.83433e-05
-5.46036e-05
-5.28261e-05
-4.42605e-05
-5.73669e-05
-3.33528e-05
-6.19652e-05
-2.18895e-05
-6.62073e-05
-9.50692e-06
-7.00435e-05
3.33819e-07
-7.35002e-05
7.71185e-06
-7.66033e-05
1.30863e-05
-7.93789e-05
1.68522e-05
-8.18531e-05
1.93422e-05
-8.40523e-05
2.08332e-05
-8.6002e-05
2.15527e-05
-8.77273e-05
2.16859e-05
-8.92517e-05
2.13822e-05
-9.0597e-05
2.07609e-05
-9.17836e-05
1.99167e-05
-9.28299e-05
1.89237e-05
1.78387e-05
-9.37526e-05
-7.41063e-07
-2.04011e-05
-1.67495e-06
-2.43768e-05
-2.77209e-06
-2.8074e-05
-4.04182e-06
-3.20759e-05
-5.50274e-06
-3.65011e-05
-7.17819e-06
-4.14002e-05
-9.09536e-06
-4.67981e-05
-1.12853e-05
-5.26946e-05
-1.37829e-05
-5.90539e-05
-1.66279e-05
-6.57871e-05
-1.98649e-05
-7.27221e-05
-2.35457e-05
-7.95619e-05
-2.77311e-05
-8.58187e-05
-3.24953e-05
-9.07175e-05
-3.69892e-05
-7.77488e-05
-4.14719e-05
-6.91091e-05
-4.5955e-05
-5.98971e-05
-5.04481e-05
-5.01103e-05
-5.4957e-05
-3.97501e-05
-5.94833e-05
-2.88238e-05
-6.40228e-05
-1.7346e-05
-6.81702e-05
-5.35444e-06
-7.18868e-05
4.05615e-06
-7.52033e-05
1.10345e-05
-7.81517e-05
1.6041e-05
-8.07635e-05
1.94703e-05
-8.307e-05
2.16548e-05
-8.51014e-05
2.28704e-05
-8.68865e-05
2.33433e-05
-8.84523e-05
2.32569e-05
-8.98239e-05
2.27586e-05
-9.10242e-05
2.19658e-05
-9.2074e-05
2.09707e-05
-9.2992e-05
1.98456e-05
1.86451e-05
-9.37945e-05
-7.80001e-07
-1.96219e-05
-1.75166e-06
-2.34061e-05
-2.88968e-06
-2.6937e-05
-4.20567e-06
-3.07612e-05
-5.71998e-06
-3.49882e-05
-7.45751e-06
-3.96643e-05
-9.44679e-06
-4.48107e-05
-1.17199e-05
-5.04235e-05
-1.43127e-05
-5.64635e-05
-1.72647e-05
-6.28376e-05
-2.062e-05
-6.93697e-05
-2.44277e-05
-7.57571e-05
-2.87447e-05
-8.15047e-05
-3.36376e-05
-8.58276e-05
-3.82271e-05
-7.31613e-05
-4.27773e-05
-6.45601e-05
-4.7297e-05
-5.53779e-05
-5.17916e-05
-4.56151e-05
-5.62629e-05
-3.52773e-05
-6.07074e-05
-2.43765e-05
-6.51154e-05
-1.29339e-05
-6.90936e-05
-1.37141e-06
-7.26135e-05
7.58149e-06
-7.57158e-05
1.41424e-05
-7.84389e-05
1.87698e-05
-8.08199e-05
2.18571e-05
-8.28946e-05
2.37351e-05
-8.46969e-05
2.4678e-05
-8.62584e-05
2.49098e-05
-8.76087e-05
2.46117e-05
-8.87742e-05
2.39285e-05
-8.97792e-05
2.29748e-05
-9.06451e-05
2.18404e-05
-9.13911e-05
2.05951e-05
1.92914e-05
-9.20338e-05
-8.10531e-07
-1.88121e-05
-1.81548e-06
-2.2402e-05
-2.9904e-06
-2.57631e-05
-4.3472e-06
-2.94055e-05
-5.90636e-06
-3.34303e-05
-7.69294e-06
-3.78792e-05
-9.73564e-06
-4.27696e-05
-1.20667e-05
-4.80942e-05
-1.4722e-05
-5.38103e-05
-1.7741e-05
-5.98209e-05
-2.1167e-05
-6.59462e-05
-2.50476e-05
-7.1879e-05
-2.94357e-05
-7.71191e-05
-3.43912e-05
-8.08744e-05
-3.90186e-05
-6.85354e-05
-4.35823e-05
-5.99973e-05
-4.80871e-05
-5.08732e-05
-5.25346e-05
-4.1167e-05
-5.69217e-05
-3.08885e-05
-6.124e-05
-2.00556e-05
-6.5474e-05
-8.69613e-06
-6.9247e-05
2.40596e-06
-7.25406e-05
1.088e-05
-7.54024e-05
1.70093e-05
-7.78773e-05
2.12499e-05
-8.0008e-05
2.39928e-05
-8.18348e-05
2.55667e-05
-8.33951e-05
2.62429e-05
-8.47234e-05
2.62425e-05
-8.5851e-05
2.57433e-05
-8.68058e-05
2.4887e-05
-8.76127e-05
2.37851e-05
-8.82935e-05
2.25245e-05
-8.88672e-05
2.1172e-05
1.97777e-05
-8.93504e-05
-8.31274e-07
-1.79814e-05
-1.85527e-06
-2.13786e-05
-3.05015e-06
-2.45689e-05
-4.42887e-06
-2.80277e-05
-6.01256e-06
-3.18476e-05
-7.82674e-06
-3.60662e-05
-9.90043e-06
-4.06972e-05
-1.2266e-05
-4.57301e-05
-1.49591e-05
-5.11187e-05
-1.80186e-05
-5.67631e-05
-2.14866e-05
-6.248e-05
-2.54085e-05
-6.79591e-05
-2.98328e-05
-7.26966e-05
-3.48128e-05
-7.5896e-05
-3.94437e-05
-6.39055e-05
-4.39887e-05
-5.54528e-05
-4.84494e-05
-4.64122e-05
-5.28241e-05
-3.67914e-05
-5.71058e-05
-2.66052e-05
-6.12811e-05
-1.58777e-05
-6.53298e-05
-4.64408e-06
-6.88914e-05
5.97158e-06
-7.19575e-05
1.39504e-05
-7.45819e-05
1.9638e-05
-7.68149e-05
2.34873e-05
-7.87039e-05
2.58862e-05
-8.02929e-05
2.71599e-05
-8.16224e-05
2.75763e-05
-8.27291e-05
2.73528e-05
-8.3646e-05
2.66634e-05
-8.44019e-05
2.5646e-05
-8.50225e-05
2.44085e-05
-8.55296e-05
2.30344e-05
-8.59424e-05
2.15874e-05
2.01151e-05
-8.62771e-05
-8.45825e-07
-1.7136e-05
-1.88301e-06
-2.03419e-05
-3.09122e-06
-2.33613e-05
-4.48378e-06
-2.66358e-05
-6.08191e-06
-3.02502e-05
-7.91111e-06
-3.42378e-05
-1.00003e-05
-3.86089e-05
-1.23818e-05
-4.33497e-05
-1.50907e-05
-4.84109e-05
-1.81653e-05
-5.36897e-05
-2.16466e-05
-5.90001e-05
-2.55778e-05
-6.40292e-05
-3.00045e-05
-6.82711e-05
-3.49738e-05
-7.09277e-05
-3.95788e-05
-5.9301e-05
-4.40799e-05
-5.09516e-05
-4.84765e-05
-4.20152e-05
-5.27635e-05
-3.25033e-05
-5.69305e-05
-2.24365e-05
-6.09606e-05
-1.18453e-05
-6.48291e-05
-7.72457e-07
-6.8192e-05
9.33803e-06
-7.10487e-05
1.68108e-05
-7.34578e-05
2.20509e-05
-7.54741e-05
2.55074e-05
-7.71487e-05
2.75645e-05
-7.85286e-05
2.85433e-05
-7.96566e-05
2.87076e-05
-8.0571e-05
2.82703e-05
-8.1306e-05
2.74011e-05
-8.18912e-05
2.62338e-05
-8.23525e-05
2.48721e-05
-8.27118e-05
2.3396e-05
-8.2988e-05
2.18658e-05
2.03263e-05
-8.31969e-05
-8.54159e-07
-1.62821e-05
-1.89607e-06
-1.93003e-05
-3.10768e-06
-2.215e-05
-4.50295e-06
-2.52409e-05
-6.10332e-06
-2.86503e-05
-7.93431e-06
-3.24073e-05
-1.00247e-05
-3.65191e-05
-1.24064e-05
-4.09686e-05
-1.51141e-05
-4.57039e-05
-1.81851e-05
-5.06194e-05
-2.1659e-05
-5.55269e-05
-2.55771e-05
-6.01118e-05
-2.9982e-05
-6.38668e-05
-3.49158e-05
-6.59943e-05
-3.94746e-05
-5.47422e-05
-4.39157e-05
-4.65101e-05
-4.82363e-05
-3.76938e-05
-5.24291e-05
-2.83093e-05
-5.64812e-05
-1.83827e-05
-6.0373e-05
-7.9513e-06
-6.40768e-05
2.93409e-06
-6.72634e-05
1.25277e-05
-6.99384e-05
1.94891e-05
-7.2164e-05
2.42799e-05
-7.39983e-05
2.73449e-05
-7.54948e-05
2.9064e-05
-7.67025e-05
2.9754e-05
-7.7666e-05
2.96738e-05
-7.84246e-05
2.90314e-05
-7.9013e-05
2.79919e-05
-7.94614e-05
2.66843e-05
-7.97957e-05
2.52082e-05
-8.00376e-05
2.36397e-05
-8.02057e-05
2.20358e-05
2.0438e-05
-8.03156e-05
-8.58406e-07
-1.54237e-05
-1.89899e-06
-1.82599e-05
-3.10701e-06
-2.09421e-05
-4.49715e-06
-2.38509e-05
-6.09092e-06
-2.70567e-05
-7.9136e-06
-3.05848e-05
-9.99362e-06
-3.44393e-05
-1.23623e-05
-3.86002e-05
-1.50536e-05
-4.30129e-05
-1.8104e-05
-4.75693e-05
-2.15518e-05
-5.20794e-05
-2.54366e-05
-5.62272e-05
-2.97982e-05
-5.95052e-05
-3.46754e-05
-6.1117e-05
-3.9172e-05
-5.02451e-05
-4.35412e-05
-4.21402e-05
-4.77783e-05
-3.34556e-05
-5.18746e-05
-2.42117e-05
-5.58156e-05
-1.44399e-05
-5.958e-05
-4.1848e-06
-6.31382e-05
6.4948e-06
-6.61742e-05
1.55665e-05
-6.86982e-05
2.2016e-05
-7.07748e-05
2.63592e-05
-7.24636e-05
2.90365e-05
-7.382e-05
3.04231e-05
-7.48943e-05
3.08308e-05
-7.57316e-05
3.05134e-05
-7.6372e-05
2.96738e-05
-7.68504e-05
2.84721e-05
-7.71969e-05
2.70325e-05
-7.74374e-05
2.54502e-05
-7.75932e-05
2.37972e-05
-7.76827e-05
2.21268e-05
2.04777e-05
-7.77209e-05
-8.59924e-07
-1.45638e-05
-1.89177e-06
-1.7228e-05
-3.0887e-06
-1.97452e-05
-4.46604e-06
-2.24736e-05
-6.045e-06
-2.54777e-05
-7.85036e-06
-2.87795e-05
-9.90991e-06
-3.23797e-05
-1.22542e-05
-3.62559e-05
-1.49166e-05
-4.03505e-05
-1.79324e-05
-4.45534e-05
-2.13388e-05
-4.86728e-05
-2.51738e-05
-5.23919e-05
-2.94751e-05
-5.52034e-05
-3.42786e-05
-5.63128e-05
-3.87004e-05
-4.58224e-05
-4.29887e-05
-3.78509e-05
-4.71376e-05
-2.93055e-05
-5.11373e-05
-2.02105e-05
-5.49728e-05
-1.06027e-05
-5.86218e-05
-5.33828e-07
-6.20538e-05
9.92912e-06
-6.49644e-05
1.84795e-05
-6.7367e-05
2.4421e-05
-6.9327e-05
2.83215e-05
-7.09051e-05
3.06169e-05
-7.21571e-05
3.16773e-05
-7.31338e-05
3.18096e-05
-7.38806e-05
3.12621e-05
-7.44375e-05
3.02325e-05
-7.48394e-05
2.88756e-05
-7.51161e-05
2.73107e-05
-7.52931e-05
2.56285e-05
-7.53915e-05
2.38968e-05
-7.5429e-05
2.21656e-05
2.04702e-05
-7.54203e-05
-8.33702e-07
-1.373e-05
-1.85266e-06
-1.62089e-05
-3.03748e-06
-1.85602e-05
-4.40068e-06
-2.11102e-05
-5.96218e-06
-2.39161e-05
-7.74582e-06
-2.69956e-05
-9.77859e-06
-3.03467e-05
-1.20904e-05
-3.39438e-05
-1.47136e-05
-3.7727e-05
-1.76829e-05
-4.15837e-05
-2.10346e-05
-4.53205e-05
-2.48057e-05
-4.86202e-05
-2.90321e-05
-5.09762e-05
-3.37473e-05
-5.15966e-05
-3.80835e-05
-4.14851e-05
-4.22836e-05
-3.36495e-05
-4.63408e-05
-2.52469e-05
-5.02447e-05
-1.6305e-05
-5.398e-05
-6.86576e-06
-5.75245e-05
3.01263e-06
-6.08479e-05
1.32547e-05
-6.36558e-05
2.12896e-05
-6.59632e-05
2.67306e-05
-6.78356e-05
3.0196e-05
-6.93334e-05
3.21167e-05
-7.05124e-05
3.28582e-05
-7.1423e-05
3.27219e-05
-7.21102e-05
3.19509e-05
-7.26137e-05
3.07374e-05
-7.29678e-05
2.9231e-05
-7.32021e-05
2.75461e-05
-7.33413e-05
2.57688e-05
-7.34064e-05
2.39629e-05
-7.34144e-05
2.21747e-05
-7.33797e-05
2.04365e-05
8.2982e-05
3.46103e-05
6.48066e-05
3.3442e-05
4.73438e-05
3.2916e-05
3.0808e-05
3.21847e-05
1.48377e-05
3.17857e-05
-1.00822e-06
3.18315e-05
-1.76862e-05
3.28664e-05
-3.63801e-05
3.51187e-05
-5.82714e-05
3.85764e-05
-8.41282e-05
4.28328e-05
-0.000113904
4.70748e-05
-0.00014633
4.9834e-05
-0.000178302
4.88532e-05
-0.000208267
4.63792e-05
-0.000234564
4.22692e-05
-0.00025601
3.70248e-05
-0.000269738
2.89421e-05
-0.000274202
1.93211e-05
-0.000269907
1.02009e-05
-0.000258262
2.48361e-06
-0.000241019
-3.49021e-06
-7.95438e-06
-0.000219782
0.00058756
3.98339e-05
0.000580095
4.07872e-05
0.000569972
4.29155e-05
0.000556105
4.59231e-05
0.000537767
4.99911e-05
0.000514311
5.51505e-05
0.000485956
6.10807e-05
0.000453786
6.71441e-05
0.000420338
7.18677e-05
0.000389196
7.37995e-05
0.000363548
7.25284e-05
0.000345902
6.72621e-05
0.000337541
5.69771e-05
0.000339484
4.4178e-05
0.000352923
2.85713e-05
0.000378719
1.09844e-05
0.000415536
-8.10407e-06
0.000460653
-2.60169e-05
0.000511631
-4.09927e-05
0.000565841
-5.19478e-05
0.000619867
-5.77462e-05
-5.83035e-05
0.000669989
0.000227333
-1.17229e-05
0.000277479
-9.24943e-06
0.000326573
-6.07226e-06
0.000374558
-1.96617e-06
0.000421401
3.23607e-06
0.000466977
9.64981e-06
0.000509641
1.84861e-05
0.000547512
2.93398e-05
0.000579381
4.00707e-05
0.000603867
4.93919e-05
0.000620639
5.58583e-05
0.000629732
5.83093e-05
0.000633459
5.34209e-05
0.000633227
4.45774e-05
0.000629275
3.26721e-05
0.000620892
1.94761e-05
0.000602013
1.07797e-05
0.000571098
4.82076e-06
0.000528859
1.1476e-06
0.000477486
-6.85736e-07
0.000420084
-5.32284e-07
1.03835e-06
0.000360478
0.00070232
-4.66378e-05
0.000740343
-4.75462e-05
0.000781056
-4.70962e-05
0.000824058
-4.53045e-05
0.000868996
-4.20581e-05
0.00091541
-3.71494e-05
0.000963629
-3.01385e-05
0.00101281
-2.0256e-05
0.00105731
-4.83361e-06
0.00109501
1.12973e-05
0.00112059
2.99022e-05
0.00112865
4.99191e-05
0.00111583
6.59678e-05
0.00108082
7.94172e-05
0.00102214
9.12612e-05
0.0009395
0.000102068
0.000838606
0.000111627
0.0007238
0.000119551
0.000599434
0.000125377
0.000470031
0.000128502
0.000340791
0.000128458
0.000125004
0.000216556
0.000172437
-2.12825e-05
0.00014592
-2.10928e-05
0.000119539
-2.07899e-05
9.42577e-05
-2.01079e-05
7.10411e-05
-1.89357e-05
5.08452e-05
-1.70562e-05
3.47047e-05
-1.41087e-05
2.40858e-05
-9.75595e-06
2.13646e-05
-2.24764e-06
2.16368e-05
1.08657e-05
2.14179e-05
2.99771e-05
2.08714e-05
5.03731e-05
1.83813e-05
6.84073e-05
1.31917e-05
8.46074e-05
5.93919e-06
9.8656e-05
-2.15371e-06
0.000110459
-1.00362e-05
0.000119774
-1.6663e-05
0.0001264
-2.13727e-05
0.000130254
-2.41923e-05
0.000131415
-2.58386e-05
0.000130137
0.000127266
-2.81228e-05
0.000108173
1.30024e-05
6.96441e-05
1.75506e-05
2.6925e-05
2.20562e-05
-1.92476e-05
2.62029e-05
-6.80313e-05
2.99993e-05
-0.000118394
3.3469e-05
-0.000169133
3.68055e-05
-0.000219057
4.03569e-05
-0.000265521
4.442e-05
-0.000303735
4.93114e-05
-0.000329853
5.63351e-05
-0.000344839
6.56147e-05
-0.000350626
7.44594e-05
-0.000349632
8.38875e-05
-0.000343507
9.28111e-05
-0.000333323
0.000100553
-0.000319972