/*--------------------------------*- C++ -*----------------------------------*\
  =========                 |
  \\      /  F ield         | OpenFOAM: The Open Source CFD Toolbox
   \\    /   O peration     | Website:  https://openfoam.org
    \\  /    A nd           | Version:  8
     \\/     M anipulation  |
\*---------------------------------------------------------------------------*/
FoamFile
{
    version     2.0;
    format      ascii;
    class       volScalarField;
    location    "900";
    object      p;
}
// * * * * * * * * * * * * * * * * * * * * * * * * * * * * * * * * * * * * * //

dimensions      [0 2 -2 0 0 0 0];

internalField   nonuniform List<scalar> 
15677
(
87.2613
84.244
84.3332
84.2227
83.3748
83.7956
84.4486
83.8944
83.6093
83.6457
84.4122
83.9478
83.8115
83.6279
83.5025
84.3504
83.8907
83.7389
83.669
83.5092
83.3803
84.3094
83.8897
83.7252
83.6293
83.5122
83.3865
83.255
84.2713
83.8965
83.7374
83.6418
83.5042
83.3858
83.2589
83.1071
84.2308
83.8976
83.7399
83.6455
83.5151
83.3877
83.2599
83.1097
82.9302
84.1889
83.8968
83.7398
83.6436
83.5153
83.3927
83.2629
83.112
82.932
82.7168
84.146
83.8955
83.7402
83.6428
83.5162
83.3935
83.2655
83.1148
82.9348
82.7183
82.4589
84.1023
83.8932
83.7408
83.6426
83.5181
83.3958
83.2674
83.117
82.9375
82.7211
82.4602
82.1485
84.0587
83.8891
83.7412
83.6424
83.5202
83.3983
83.2701
83.1198
82.94
82.7241
82.463
82.1496
81.7769
84.0157
83.8827
83.7416
83.6425
83.5228
83.4013
83.2729
83.1228
82.9434
82.7272
82.4664
82.1523
81.7777
81.335
83.9778
83.8738
83.7418
83.6433
83.5262
83.405
83.2764
83.1263
82.947
82.731
82.4701
82.1562
81.7803
81.3354
80.815
83.9463
83.8634
83.7416
83.6446
83.5307
83.4101
83.2811
83.1308
82.9514
82.7355
82.4746
82.1606
81.7848
81.3381
80.8152
80.2096
83.9193
83.8529
83.7411
83.6467
83.5366
83.4168
83.2876
83.137
82.9574
82.7412
82.4802
82.166
81.7899
81.3431
80.8179
80.2096
79.5123
83.8962
83.8426
83.7403
83.6495
83.5441
83.4259
83.2965
83.1456
82.9656
82.749
82.4875
82.1729
81.7965
81.3493
80.8235
80.2123
79.512
78.7173
83.8763
83.8327
83.7396
83.6526
83.5526
83.4376
83.3086
83.1575
82.977
82.7597
82.4975
82.1821
81.8049
81.3572
80.8309
80.2186
79.5148
78.7167
77.82
83.8592
83.8234
83.7388
83.6561
83.5614
83.4512
83.3247
83.1738
82.9928
82.7747
82.5114
82.1948
81.8163
81.3675
80.8404
80.2273
79.5217
78.7195
77.8191
76.8175
83.8445
83.8148
83.7381
83.6601
83.5707
83.4655
83.3438
83.1957
83.0145
82.7955
82.5309
82.2126
81.8323
81.3816
80.8528
80.2385
79.5317
78.727
77.8219
76.8162
75.7083
83.8323
83.8071
83.7375
83.6644
83.5805
83.4808
83.3642
83.2219
83.0439
82.8241
82.558
82.2376
81.8548
81.4014
80.8698
80.2532
79.5448
78.7385
77.8301
76.8191
75.7067
74.4927
83.8228
83.8004
83.7372
83.6691
83.5907
83.4969
83.3861
83.2501
83.0791
82.863
82.5953
82.2724
81.8863
81.4294
80.8941
80.2737
79.5621
78.7536
77.8431
76.828
75.7096
74.4907
73.1725
83.8152
83.7951
83.7371
83.674
83.6012
83.5137
83.4094
83.2806
83.1173
82.9098
82.646
82.3203
81.9304
81.4688
80.9284
80.3027
79.5861
78.7735
77.8601
76.8423
75.719
74.4936
73.1701
71.7514
83.8091
83.7908
83.7371
83.6791
83.612
83.531
83.4339
83.3131
83.1589
82.9606
82.7073
82.3856
81.9912
81.5238
80.9768
80.3442
79.6205
78.8013
77.8828
76.8613
75.7346
74.5035
73.1729
71.7486
70.2345
83.8042
83.7873
83.7373
83.6838
83.6226
83.5488
83.4593
83.3474
83.2033
83.0161
82.7739
82.4645
82.0739
81.5997
81.0445
80.4027
79.6697
78.8412
77.9144
76.8866
75.7556
74.5203
73.1833
71.7512
70.2313
68.6286
83.8002
83.7844
83.7377
83.6881
83.6323
83.566
83.4854
83.3831
83.2501
83.0755
82.8468
82.5507
82.1742
81.7032
81.1379
80.4846
79.7393
78.8986
77.96
76.9219
75.7832
74.5428
73.2011
71.7619
70.2337
68.625
66.9418
83.7969
83.7821
83.738
83.6921
83.641
83.5818
83.5109
83.4198
83.2989
83.1383
82.925
82.645
82.2839
81.8288
81.2654
80.598
79.837
78.9803
78.026
76.9733
75.8221
74.5726
73.2249
71.7805
70.2446
68.6272
66.9379
65.183
83.7941
83.7801
83.7385
83.6956
83.6488
83.596
83.5341
83.4556
83.3493
83.2039
83.0079
82.7464
82.4042
81.9665
81.4206
80.7528
79.9724
79.095
78.1201
77.0478
75.8789
74.6147
73.2565
71.8053
70.2637
68.6381
66.9397
65.1787
63.3629
83.7918
83.7785
83.7389
83.6988
83.6558
83.6086
83.555
83.4884
83.3986
83.2717
83.0945
82.854
82.5338
82.1177
81.5908
80.9417
80.1577
79.2543
78.2529
77.1549
75.962
74.6765
73.3012
71.8381
70.2891
68.6573
66.9504
65.1802
63.3583
61.4906
83.7899
83.7772
83.7393
83.7017
83.6621
83.6199
83.5737
83.518
83.4437
83.338
83.1842
82.9667
82.6715
82.2809
81.7782
81.1492
80.3843
79.4731
78.4379
77.3064
76.0819
74.7677
73.3674
71.8847
70.3224
68.6827
66.9695
65.1905
63.3594
61.4856
59.368
83.7883
83.7761
83.7398
83.7043
83.6676
83.63
83.5904
83.5444
83.4843
83.3988
83.2719
83.0834
82.8159
82.4545
81.9809
81.3782
80.6339
79.7412
78.6924
77.518
76.2522
74.8999
73.4658
71.9545
70.3702
68.716
66.9944
65.2091
63.3691
61.4861
59.3631
56.9811
83.7869
83.7751
83.7402
83.7066
83.6725
83.6389
83.6053
83.568
83.5208
83.4537
83.3525
83.1979
82.9657
82.637
82.1968
81.6263
80.9099
80.0373
79.0054
77.8102
76.491
75.0887
73.6096
72.0591
70.4424
68.7639
67.0268
65.2329
63.3867
61.495
59.363
56.9758
54.5693
83.7857
83.7743
83.7406
83.7086
83.6769
83.6468
83.6185
83.589
83.5533
83.5029
83.4253
83.3031
83.1128
82.8266
82.4242
81.8913
81.2097
80.3655
79.352
78.1706
76.8218
75.3545
73.8159
72.2131
70.5519
68.8373
67.0738
65.2636
63.4089
61.5112
59.371
56.975
54.5635
52.1625
83.7847
83.7736
83.7409
83.7104
83.6808
83.6538
83.6302
83.6077
83.5822
83.5468
83.4907
83.3982
83.2482
83.0131
82.6609
82.1709
81.5306
80.7229
79.7371
78.5709
77.2314
75.7241
74.1078
72.4355
70.7144
68.95
67.1469
65.3086
63.437
61.531
59.3856
56.9817
54.5617
52.1564
49.7863
83.773
83.7835
83.7412
83.7121
83.6842
83.66
83.6405
83.6242
83.608
83.586
83.549
83.4836
83.3707
83.185
82.8942
82.4626
81.8699
81.1065
80.1578
79.0171
77.6878
76.1837
74.5154
72.7517
70.9509
69.1191
67.261
65.3799
63.4787
61.5557
59.4024
56.9939
54.5666
52.1537
49.78
47.4552
83.7415
83.7724
83.7821
83.7135
83.6873
83.6656
83.6497
83.6389
83.6308
83.6207
83.6011
83.5601
83.4809
83.3407
83.1096
82.7507
82.2248
81.5132
80.6105
79.5059
78.1983
76.6975
75.0245
73.1956
71.289
69.367
67.4343
65.4933
63.5467
61.5929
59.4227
57.0065
54.5757
52.1566
49.7763
47.4487
45.181
83.7147
83.7421
83.7717
83.7808
83.69
83.6705
83.6578
83.6519
83.651
83.6516
83.6474
83.6282
83.5796
83.481
83.305
83.0172
82.5762
81.9397
81.0919
80.0337
78.7594
77.2743
75.5959
73.7525
71.7661
69.7239
67.6906
65.6681
63.6573
61.6558
59.4539
57.0202
54.5829
52.1623
49.7771
47.4439
45.1743
42.975
83.6923
83.7166
83.7429
83.7711
83.7795
83.6748
83.665
83.6634
83.669
83.679
83.6884
83.6889
83.6677
83.6067
83.4813
83.2595
82.902
82.3631
81.5983
80.5967
79.3673
77.9106
76.2398
74.3802
72.3678
70.2303
68.0623
65.9294
63.8307
61.7614
59.5095
57.0427
54.5887
52.1637
49.7791
47.4425
45.1685
42.9682
40.8464
83.6784
83.6956
83.7188
83.7437
83.7704
83.7783
83.6714
83.6737
83.6849
83.7033
83.7249
83.7427
83.746
83.7189
83.6394
83.4783
83.1988
82.7567
82.1026
81.191
80.018
78.6025
76.9528
75.0904
73.0492
70.8726
68.5931
66.3114
64.0931
61.9304
59.6072
57.0877
54.6006
52.1609
49.7742
47.4404
45.1647
42.9613
40.8395
38.8016
83.6768
83.6836
83.6994
83.721
83.7445
83.7699
83.7772
83.6827
83.699
83.7248
83.7572
83.7906
83.8157
83.819
83.7808
83.675
83.4674
83.1161
82.5728
81.7848
80.7073
79.3459
77.7311
75.88
73.8234
71.6035
69.2706
66.8609
64.4805
62.1899
59.768
57.1733
54.6326
52.161
49.7619
47.4287
45.1584
42.9552
40.8315
38.7946
36.8452
83.6903
83.6843
83.6891
83.7032
83.7232
83.7453
83.7693
83.7761
83.7116
83.744
83.7859
83.833
83.8776
83.908
83.907
83.851
83.7091
83.442
83.0032
82.3402
81.3988
80.1365
78.5707
76.7456
74.6878
72.4377
70.0454
67.5671
65.0424
62.5775
60.0197
57.3206
54.7025
52.178
49.7491
47.4062
45.1396
42.9445
40.823
38.7856
36.8381
34.98
83.722
83.7008
83.6919
83.6948
83.7069
83.7253
83.7461
83.7688
83.7751
83.761
83.8114
83.8707
83.9326
83.9871
84.0193
84.0082
83.9258
83.7359
83.3944
82.8501
82.0476
80.9328
79.4674
77.6832
75.6394
73.3731
70.9338
68.3788
65.7695
63.1449
60.4015
57.558
54.8315
52.2296
49.7495
47.3794
45.1064
42.9184
40.8078
38.7747
36.828
34.9729
33.2074
83.775
83.7363
83.7108
83.6996
83.7003
83.7106
83.7274
83.7469
83.7683
83.7742
83.8341
83.9042
83.9813
84.0573
84.1191
84.1483
84.1196
83.9999
83.748
83.3148
82.6454
81.6828
80.3744
78.689
76.675
74.4077
71.9347
69.314
66.6099
63.8843
60.9669
57.9257
55.0486
52.3367
49.7804
47.3617
45.0648
42.8742
40.7744
38.7551
36.8149
34.9618
33.2003
31.5275
83.8528
83.7942
83.7492
83.7211
83.7072
83.7056
83.7141
83.7295
83.7476
83.7679
83.7733
83.9339
84.0248
84.1197
84.2079
84.273
84.2925
84.2362
84.0661
83.7357
83.1917
82.3762
81.2324
79.7114
77.7912
75.5389
73.0471
70.373
67.5832
64.7441
61.7101
58.4776
55.3934
52.5279
49.8624
47.37
45.0281
42.8173
40.719
38.7143
36.7908
34.9464
33.1881
31.5203
29.9392
83.9583
83.8781
83.8107
83.7626
83.7311
83.7145
83.7108
83.7176
83.7315
83.7484
83.7675
83.7725
84.0634
84.1753
84.2868
84.3839
84.4465
84.4474
84.3515
84.1153
83.6879
83.012
82.0286
80.6826
78.9312
76.7643
74.2695
71.556
68.6913
65.7455
62.5806
59.2112
55.9196
52.8419
50.0231
47.4244
45.0126
42.761
40.6467
38.6477
36.7427
34.9179
33.1706
31.5071
29.932
28.4408
84.0948
83.9916
83.8989
83.8279
83.7757
83.7408
83.7216
83.7159
83.7209
83.7334
83.7492
83.7671
83.7718
84.2247
84.3571
84.4826
84.5837
84.6358
84.6068
84.4565
84.1364
83.5911
82.761
81.5874
80.0193
78.0224
75.6005
72.8626
69.9355
66.8918
63.6012
60.0782
56.628
53.331
50.2992
47.5502
45.0371
42.721
40.5706
38.5599
36.665
34.8627
33.1379
31.4876
29.9179
28.4336
27.0299
84.2648
84.1379
84.0176
83.9209
83.8447
83.7882
83.7501
83.7284
83.7207
83.7242
83.7353
83.7499
83.7668
83.7712
84.4197
84.5706
84.7058
84.8037
84.835
84.7624
84.5405
84.116
83.4304
82.423
81.0374
79.229
76.9745
74.293
71.3171
68.1859
64.7766
61.1025
57.474
54.0004
50.7414
47.7825
45.1247
42.7139
40.5053
38.464
36.5619
34.774
33.0757
31.4508
29.8965
28.4186
27.0228
25.7035
84.4701
84.32
84.1701
84.0453
83.9421
83.8606
83.8001
83.759
83.7349
83.7253
83.7272
83.7371
83.7506
83.7665
83.7706
84.6489
84.8149
84.9533
85.0385
85.0361
84.9034
84.59
84.0388
83.1891
81.9811
80.363
78.2988
75.7779
72.8381
69.6309
66.1117
62.2904
58.4816
54.809
51.3589
48.1694
45.3081
42.7608
40.4656
38.3733
36.4465
34.656
32.9764
31.3817
29.8557
28.3954
27.0069
25.6964
24.4583
84.7116
84.5403
84.3599
84.2049
84.072
83.9622
83.8757
83.8114
83.7673
83.7411
83.7297
83.7301
83.7387
83.7512
83.7663
83.7702
84.9118
85.0871
85.2201
85.2806
85.2287
85.0166
84.5896
83.8877
82.8496
81.4186
79.5493
77.2168
74.4264
71.2311
67.6119
63.6493
59.659
55.7802
52.1143
48.7228
45.6324
42.8915
40.4699
38.3003
36.3305
34.5215
32.8438
31.2721
29.7801
28.3508
26.9819
25.6797
24.4513
23.291
84.989
84.8003
84.5894
84.4032
84.2382
84.097
83.981
83.8898
83.8219
83.7752
83.7468
83.7338
83.7329
83.7403
83.7518
83.7662
83.7698
85.206
85.3828
85.499
85.5197
85.3997
85.0866
84.5218
83.6441
82.3936
80.7183
78.5821
75.9741
72.9119
69.284
65.1875
61.016
56.924
53.0297
49.41
46.1111
43.1471
40.5454
38.2611
36.2241
34.3804
32.6908
31.1257
29.6606
28.2689
26.9337
25.6531
24.4338
23.2841
22.1978
85.3001
85.1001
84.8603
84.643
84.4446
84.2693
84.1204
83.9985
83.9029
83.8317
83.7825
83.7522
83.7376
83.7353
83.7417
83.7524
83.766
83.7695
85.5272
85.695
85.7801
85.7431
85.5338
85.0954
84.3674
83.2885
81.8023
79.8641
77.45
74.5587
71.0527
66.9154
62.5638
58.2517
54.1157
50.2503
46.7162
43.5417
40.7274
38.2794
36.1409
34.241
32.5252
30.9549
29.5009
28.1399
26.8459
25.6014
24.4057
23.2657
22.1909
21.1749
85.6407
85.4383
85.1734
84.9267
84.6942
84.4829
84.298
84.1419
84.0146
83.9149
83.8407
83.7892
83.7571
83.741
83.7375
83.7429
83.7529
83.7659
83.7693
85.8688
86.0142
86.0508
85.9354
85.6128
85.0235
84.1057
82.8008
81.0576
78.8419
76.1371
72.7979
68.7582
64.315
59.7755
55.3833
51.2532
47.4626
44.0523
41.0302
38.3842
36.1011
34.114
32.3534
30.7654
29.3128
27.9676
26.7078
25.5079
24.3508
23.2363
22.1719
21.1681
20.2187
86.0043
85.8116
85.5277
85.2552
84.9897
84.7413
84.5182
84.3243
84.1615
84.0292
83.9258
83.8488
83.7951
83.7613
83.7439
83.7394
83.744
83.7533
83.7659
83.7691
86.2216
86.3281
86.2959
86.0783
85.6167
84.849
83.7156
82.1609
80.1428
77.6328
74.4815
70.5895
66.1939
61.5072
56.8436
52.4279
48.3576
44.6877
41.4355
38.5892
36.1262
34.0158
32.1832
30.5619
29.1004
27.7632
26.5236
25.3612
24.2519
23.1782
22.1411
21.1483
20.2121
19.4434
86.3818
86.2146
85.9206
85.6284
85.3326
85.0475
84.7844
84.5502
84.348
84.179
84.0422
83.9355
83.856
83.8003
83.765
83.7464
83.741
83.7449
83.7538
83.7659
83.769
86.5734
86.6216
86.4971
86.1515
85.5229
84.55
83.1749
81.3497
79.0371
76.0853
72.3637
68.0671
63.372
58.508
53.7852
49.4092
45.4534
41.9458
38.881
36.2293
33.9598
32.0268
30.3497
28.8664
27.5287
26.3035
25.1658
24.097
23.0743
22.0801
21.1164
20.1915
19.4368
18.7905
86.7608
86.639
86.3471
86.0442
85.7232
85.4033
85.0999
84.8232
84.5787
84.369
84.1944
84.0535
83.9437
83.8619
83.8045
83.768
83.7485
83.7424
83.7458
83.7541
83.7659
83.7689
86.9092
86.8764
86.6337
86.1318
85.3085
84.1025
82.4627
80.345
77.5962
74.0565
69.8846
65.239
60.3129
55.3422
50.6316
46.3578
42.5658
39.2562
36.4023
33.959
31.8896
30.1359
28.6134
27.2654
26.048
24.9309
23.891
22.9117
21.9713
21.0525
20.1586
19.4154
18.7838
18.0823
87.126
87.0741
86.8003
86.4987
86.1603
85.8095
85.4671
85.1469
84.8575
84.6037
84.3871
84.2075
84.0629
83.9505
83.8667
83.808
83.7705
83.7503
83.7437
83.7465
83.7545
83.7659
83.7688
87.2106
87.0718
86.6821
85.9952
84.9478
83.4841
81.5548
79.0057
75.652
71.6243
67.0661
62.1438
57.0574
52.0531
47.422
43.3059
39.7192
36.636
34.0104
31.7848
29.9185
28.3435
26.973
25.7567
24.6554
23.642
22.6958
21.8015
20.9393
20.092
19.3817
18.762
18.0754
17.3142
87.4586
87.506
87.27
86.9859
86.6407
86.2656
85.8872
85.524
85.1882
84.8872
84.6248
84.4022
84.2182
84.0704
83.9556
83.8704
83.8107
83.7725
83.7518
83.7447
83.7471
83.7548
83.766
83.7688
87.4566
87.1837
86.6175
85.7151
84.4172
82.6676
80.3104
77.1422
73.2748
68.8398
63.9712
58.8378
53.6578
48.6868
44.1944
40.2829
36.9352
34.0998
31.7143
29.7109
28.0477
26.6489
25.4266
24.3374
23.3476
22.4334
21.5762
20.7626
19.9745
19.3127
18.7271
18.0534
17.3073
16.481
87.7366
87.9175
87.7434
87.497
87.1593
86.7692
86.3602
85.9561
85.5736
85.2233
84.9119
84.642
84.414
84.2261
84.0757
83.9594
83.8732
83.8128
83.7741
83.753
83.7455
83.7477
83.7551
83.766
83.7688
87.6227
87.1867
86.412
85.2659
83.686
81.5109
78.5256
74.8317
70.5515
65.7845
60.6611
55.3726
50.1598
45.2832
40.9821
37.3147
34.2322
31.6594
29.5202
27.7401
26.2773
25.0503
23.9713
23.0044
22.1212
21.3013
20.5285
19.7914
19.1917
18.6562
18.0173
17.2849
16.4741
15.5771
87.9344
88.2887
88.2046
88.0206
87.7086
87.3162
86.8845
86.4438
86.0157
85.6154
85.2522
84.9315
84.655
84.4223
84.2315
84.0793
83.962
83.8751
83.8143
83.7753
83.7539
83.7462
83.7482
83.7553
83.7661
83.7689
87.6826
87.0524
86.0386
84.6134
82.61
79.8043
76.2935
72.1932
67.5689
62.5116
57.1767
51.7858
46.6
41.8767
37.8141
34.4231
31.6246
29.3232
27.4323
25.8732
24.6061
23.5453
22.6041
21.7541
20.9722
20.2417
19.5491
19.0031
18.532
17.9444
17.2477
16.4512
15.5701
14.5966
88.0236
88.5962
88.6343
88.5421
88.2784
87.9
87.4567
86.986
86.5157
86.0657
85.6492
85.2745
84.9457
84.6636
84.4274
84.2345
84.0813
83.9634
83.8762
83.8153
83.7762
83.7546
83.7468
83.7485
83.7555
83.7662
83.7691
87.6067
86.7517
85.4597
83.6114
80.9819
77.6602
73.7567
69.3068
64.365
59.0477
53.5441
48.107
43.0105
38.4973
34.7146
31.6255
29.1235
27.0971
25.4526
24.1098
23.0319
22.1307
21.3214
20.5826
19.8968
19.2512
18.7538
18.3389
17.8168
17.1727
16.4128
15.5469
14.5897
13.5333
87.9718
88.8145
89.01
89.0441
88.8557
88.5119
88.0715
87.5804
87.0732
86.5756
86.1056
85.6748
85.2901
84.9543
84.668
84.4295
84.2355
84.0819
83.9638
83.8767
83.8158
83.7767
83.7551
83.7473
83.7489
83.7557
83.7663
83.7692
87.3636
86.2446
84.5276
82.0612
78.9317
75.2347
70.9807
66.1941
60.9532
55.4076
49.7846
44.3637
39.4206
35.1712
31.7039
28.9354
26.7366
24.9845
23.5815
22.4482
21.552
20.8034
20.1193
19.486
18.8913
18.4466
18.0836
17.619
17.0415
16.3357
15.5072
14.5659
13.5264
12.3802
87.7415
88.9161
89.3062
89.5058
89.4245
89.1401
88.7213
88.2224
87.6863
87.1454
86.623
86.1351
85.6918
85.2985
84.9577
84.6688
84.4291
84.2348
84.0812
83.9634
83.8766
83.8158
83.7769
83.7557
83.7478
83.7491
83.7558
83.7665
83.7695
86.9107
85.3818
83.0561
80.1069
76.6209
72.5762
67.9734
62.8583
57.3391
51.6049
45.9203
40.5833
35.8579
31.9212
28.798
26.3626
24.4687
22.9865
21.8177
20.8858
20.1631
19.5593
18.994
18.4606
18.0742
17.7682
17.3573
16.8386
16.2006
15.4277
14.525
13.5021
12.3733
11.1303
87.2828
88.8701
89.4944
89.9034
89.9659
89.7705
89.3957
88.9056
88.3516
87.7738
87.2021
86.6575
86.1539
85.7
85.3006
84.9566
84.6664
84.4265
84.2325
84.0794
83.9622
83.8758
83.8155
83.7774
83.7565
83.7482
83.7493
83.756
83.7667
83.7697
86.0944
83.9941
81.1988
77.9093
74.0816
69.682
64.7308
59.2981
53.529
47.6556
41.9756
36.7938
32.3481
28.7667
26.0093
23.9136
22.3221
21.1026
20.1591
19.4195
18.8614
18.3946
17.9416
17.627
17.3851
17.0331
16.5701
15.9922
15.2884
14.4429
13.4597
12.3485
11.1234
9.77583
88.6361
86.4408
89.5409
90.2104
90.4574
90.3856
90.0822
89.6212
89.0637
88.4584
87.8424
87.243
86.6787
86.1619
85.7003
85.2971
84.9516
84.6613
84.422
84.2289
84.0767
83.9602
83.8745
83.8159
83.7785
83.757
83.7483
83.7494
83.7561
83.7669
83.77
84.7673
82.2379
79.1114
75.4865
71.3033
66.5438
61.2467
55.5139
49.5331
43.5799
37.9779
33.0239
28.9151
25.7239
23.3469
21.5922
20.2969
19.3308
18.6026
18.0453
17.6429
17.3054
17.0857
16.9236
16.6385
16.2367
15.7164
15.0742
14.2992
13.3749
12.3046
11.0979
9.76893
8.30887
89.4085
88.067
85.0697
90.394
90.8748
90.9648
90.765
90.3579
89.8151
89.1946
88.5421
87.8916
87.2675
86.6866
86.1601
85.6938
85.2888
84.9432
84.6538
84.4158
84.2241
84.073
83.9575
83.8746
83.8174
83.7792
83.7572
83.7484
83.7494
83.7561
83.7671
83.7703
83.0872
80.2619
76.8022
72.8227
68.2756
63.1523
57.5171
51.51
45.3659
39.4025
33.9572
29.3018
25.5801
22.8057
20.8168
19.3996
18.3915
17.6682
17.1442
16.7593
16.5035
16.4194
16.3633
16.1618
15.8298
15.3731
14.7906
14.0786
13.2264
12.2169
11.0526
9.74284
8.302
6.72123
90.4195
88.973
87.0595
83.3619
91.1869
91.4856
91.4252
91.1019
90.5959
89.9762
89.2975
88.602
87.9207
87.2757
86.6826
86.1501
85.6814
85.2763
84.932
84.6443
84.4082
84.2179
84.0683
83.9572
83.8767
83.8183
83.7794
83.7571
83.7482
83.7493
83.7561
83.7673
83.7707
81.1957
78.068
74.2506
69.9063
64.9876
59.5009
53.5417
47.2948
41.0472
35.1524
29.9451
25.6543
22.3614
20.0216
18.4221
17.335
16.6034
16.1109
15.7799
15.5571
15.5767
15.6714
15.581
15.3368
14.9531
14.4366
13.7867
12.9991
12.0632
10.9616
9.69584
8.27525
6.7144
5.00448
91.3631
90.1772
88.0912
85.7295
81.4579
91.9188
92.0423
91.8359
91.394
90.7946
90.1035
89.3716
88.6376
87.93
87.2695
86.6685
86.1329
85.664
85.2604
84.9183
84.6331
84.3988
84.2105
84.0673
83.96
83.8778
83.8186
83.7793
83.7568
83.7481
83.7491
83.756
83.7675
83.7711
79.0908
75.6318
71.4454
66.7266
61.4317
55.5857
49.3225
42.8813
36.602
30.8622
25.9737
22.1065
19.2742
17.378
16.1635
15.3963
14.9285
14.6544
14.5049
14.5795
14.7944
14.8616
14.7341
14.4427
14.0027
13.4214
12.6982
11.8287
10.8023
9.6015
8.22651
6.68696
4.99769
3.15033
92.2377
91.3135
89.5315
86.8885
84.1878
79.3509
92.589
92.5413
92.1939
91.6394
90.9528
90.1961
89.4163
88.6492
87.9217
87.251
86.6458
86.1096
85.6424
85.2415
84.9025
84.6197
84.388
84.2085
84.071
83.9614
83.8781
83.8183
83.7787
83.7566
83.7478
83.7488
83.7559
83.7678
83.7716
76.743
72.943
68.3764
63.2762
57.6023
51.4038
44.8651
38.2873
32.06
26.5669
22.0744
18.6799
16.3295
14.8784
14.0402
13.5798
13.3623
13.2939
13.4689
13.7546
13.9476
13.9852
13.8165
13.4736
12.9724
12.3207
11.5181
10.5601
9.4362
8.12848
6.63636
4.96954
3.14357
1.15036
93.0427
92.3741
90.9003
88.5723
85.4814
82.4431
77.0038
93.1928
92.979
92.4969
91.8365
91.0695
90.2533
89.4318
88.6394
87.8986
87.222
86.6157
86.0813
85.6173
85.2202
84.8841
84.6044
84.3847
84.2134
84.0728
83.9618
83.8776
83.8173
83.7785
83.7564
83.7474
83.7485
83.7558
83.7681
83.7722
74.1437
69.9934
65.038
59.5492
53.4932
46.9538
40.1779
33.5358
27.456
22.3034
18.2765
15.3926
13.5354
12.5241
12.0493
11.8811
11.8999
12.189
12.595
12.8618
13.0315
13.0361
12.8223
12.4234
11.8557
11.1276
10.2392
9.1856
7.95676
6.53435
4.91697
3.11471
1.14364
-1.00192
93.7718
93.3597
92.1863
90.1815
87.4083
83.9035
80.4579
74.4076
93.726
93.3522
92.7428
91.9842
91.1437
90.2752
89.4216
88.6117
87.8628
87.1842
86.5795
86.0488
85.5893
85.1956
84.8633
84.5995
84.3909
84.2157
84.0732
83.961
83.8762
83.8173
83.7787
83.7561
83.7469
83.748
83.7557
83.7684
83.7728
71.2872
66.7798
61.4251
55.5384
49.0979
42.2342
35.2733
28.6562
22.8292
18.1084
14.6061
12.2587
10.8968
10.3137
10.1867
10.2951
10.7128
11.2577
11.6494
11.8963
12.0398
12.0081
11.7452
11.2852
10.6454
9.83479
8.85368
7.69722
6.35575
4.81068
3.06005
1.11404
-1.00865
-3.74699
94.4192
94.2627
93.3936
91.703
89.2539
86.0961
82.1144
78.2262
71.5567
94.1845
93.6585
92.9301
92.081
91.1754
90.2662
89.3897
88.5688
87.8165
87.1391
86.5384
86.0128
85.5573
85.1681
84.8563
84.6074
84.3938
84.2161
84.0721
83.959
83.8766
83.8182
83.7787
83.7555
83.7462
83.7475
83.7555
83.7688
83.7735
68.1728
63.2996
57.5312
51.2345
44.4064
37.244
30.1696
23.6847
18.2217
14.0168
11.0856
9.28847
8.41497
8.24427
8.44755
9.00839
9.71298
10.2502
10.6273
10.8518
10.9664
10.8949
10.5784
10.0522
9.33426
8.43442
7.35346
6.08665
4.62473
2.94914
1.0572
-1.03906
-3.75402
-7.02033
94.9798
95.0746
94.5146
93.1429
91.0078
88.1931
84.596
80.1031
75.7489
68.451
94.5649
93.8956
93.0568
92.127
91.1698
90.2309
89.3395
88.5132
87.7614
87.0882
86.4932
85.9721
85.5218
85.1586
84.8663
84.611
84.3943
84.2147
84.0693
83.9599
83.8785
83.8187
83.7783
83.7547
83.7454
83.7469
83.7553
83.7693
83.7743
64.8004
59.5486
53.3469
46.6217
39.4048
31.9863
24.8931
18.6642
13.6766
10.0609
7.73261
6.48756
6.08896
6.31137
7.03718
7.92547
8.63177
9.16165
9.52212
9.72186
9.80467
9.68969
9.3148
8.71678
7.91438
6.91842
5.73028
4.34543
2.75535
0.94138
-1.09836
-3.78478
-7.0269
-10.3151
95.4497
95.7874
95.5395
94.4935
92.6762
90.1935
86.9618
82.8933
77.87
73.0331
65.0919
94.8647
94.0611
93.1228
92.128
91.1327
90.1737
89.2741
88.4471
87.6994
87.0324
86.4424
85.9271
85.5091
85.171
84.8707
84.6116
84.3924
84.2108
84.071
83.9633
83.8799
83.8187
83.7775
83.7537
83.7443
83.7461
83.755
83.7697
83.7752
61.1689
55.5198
48.8549
41.6794
34.0851
26.4765
19.4817
13.6429
9.23708
6.26886
4.55968
3.85837
3.91562
4.74446
5.85122
6.7548
7.46383
7.98519
8.32735
8.49989
8.54785
8.38535
7.94704
7.27122
6.37775
5.27852
3.97567
2.46522
0.739266
-1.2195
-3.84736
-7.05835
-10.3214
-13.6201
95.8256
96.3938
96.4589
95.7441
94.2517
92.1022
89.2281
85.5402
80.9893
75.4236
70.0893
61.4793
95.0802
94.1543
93.1347
92.0912
91.0692
90.0983
89.1963
88.3728
87.6317
86.9701
86.3863
85.9106
85.5245
85.1763
84.8713
84.6091
84.3872
84.2135
84.0765
83.966
83.8806
83.8182
83.7764
83.7523
83.743
83.7452
83.7548
83.7703
83.7762
57.2742
51.2007
44.0315
36.3839
28.4395
20.7391
13.9853
8.67411
4.94398
2.66266
1.57459
1.40014
2.15429
3.42796
4.56953
5.49045
6.20216
6.71418
7.03633
7.17903
7.18882
6.97451
6.46739
5.70756
4.71619
3.50634
2.08131
0.437741
-1.43043
-3.97487
-7.12331
-10.3538
-13.6262
-16.921
96.1032
96.8882
97.2626
96.8837
95.7235
93.9106
91.3981
88.0845
83.9287
78.8938
72.7796
66.9278
57.6106
95.2097
94.1828
93.1012
92.0226
90.9838
90.0079
89.1085
88.2918
87.5562
86.9011
86.3654
85.9295
85.5309
85.177
84.8681
84.6023
84.3914
84.2219
84.0811
83.9679
83.8807
83.8172
83.7748
83.7506
83.7416
83.7442
83.7544
83.7709
83.7773
53.1074
46.563
38.8343
30.6961
22.4578
14.8052
8.46295
3.81317
0.832747
-0.741222
-1.21929
-0.591754
0.676047
2.00565
3.18559
4.12524
4.83994
5.34187
5.64215
5.75222
5.72029
5.44961
4.86803
4.01775
2.92148
1.59373
0.0390441
-1.74385
-4.1964
-7.25807
-10.4214
-13.6592
-16.9268
-20.1973
96.2795
97.2641
97.9411
97.9013
97.0808
95.6072
93.4622
90.5272
86.7606
82.1368
76.6251
69.9563
63.5586
53.4829
95.2619
94.1567
93.0296
91.9279
90.8806
89.9058
89.0129
88.2017
87.4729
86.8752
86.3883
85.9371
85.5316
85.173
84.8594
84.6082
84.4033
84.229
84.0846
83.969
83.8802
83.8157
83.7728
83.7485
83.7398
83.7431
83.754
83.7715
83.7784
48.6452
41.5622
33.2057
24.5747
16.1419
8.72278
2.9797
-0.886746
-3.06727
-3.93232
-3.48328
-2.26188
-0.920203
0.470394
1.69203
2.65223
3.37037
3.86131
4.13782
4.21231
4.13488
3.80302
3.14117
2.19382
0.985689
-0.46725
-2.15782
-4.52411
-7.49253
-10.5636
-13.7294
-16.9603
-20.2028
-23.4272
96.364
97.5163
98.482
98.7852
98.3117
97.1807
95.4079
92.8601
89.4831
85.2653
80.1839
74.2059
66.9727
59.9947
49.0841
95.2488
94.085
92.9267
91.8118
90.7632
89.7943
88.9067
88.1021
87.4412
86.9028
86.3973
85.9379
85.5267
85.1619
84.8676
84.6248
84.4138
84.2347
84.0871
83.9692
83.8789
83.8136
83.7703
83.7461
83.7378
83.7417
83.7536
83.7722
83.7796
43.8542
36.1432
27.0839
17.985
9.51892
2.55784
-2.39365
-5.37667
-6.7336
-6.51915
-5.37946
-4.06417
-2.64201
-1.18518
0.0819193
1.0646
1.78654
2.26566
2.51638
2.55218
2.42528
2.02731
1.27919
0.228208
-1.09874
-2.68292
-4.95654
-7.83673
-10.81
-13.8787
-17.0325
-20.2364
-23.4324
-26.5898
96.3708
97.6557
98.8721
99.519
99.404
98.6185
97.2219
95.0705
92.0903
88.272
83.6175
78.0944
71.6604
63.8473
56.2426
44.3887
95.181
93.9757
92.7981
91.6787
90.6349
89.6706
88.789
88.0639
87.4742
86.9134
86.3982
85.9318
85.5128
85.1728
84.8898
84.6393
84.4224
84.2392
84.0885
83.9685
83.8768
83.8107
83.7672
83.7432
83.7355
83.7403
83.7532
83.7729
83.7808
38.6836
30.2256
20.3901
10.9146
2.63476
-3.60141
-7.58792
-9.61313
-9.70836
-8.68331
-7.42378
-6.00621
-4.49647
-2.96781
-1.6514
-0.644371
0.0818029
0.548184
0.771011
0.764942
0.584504
0.115325
-0.724981
-1.88614
-3.33759
-5.5037
-8.2885
-11.1685
-14.1362
-17.1884
-20.3103
-23.4659
-26.5946
-29.6637
96.3123
97.6996
99.1191
100.082
100.337
99.9086
98.889
97.1452
94.5714
91.1553
86.9109
81.8424
75.8957
69.0125
60.6001
52.3001
39.359
95.0681
93.8357
92.6492
91.5326
90.4922
89.5331
88.7435
88.1031
87.4865
86.9144
86.3909
85.9146
85.527
85.202
84.9096
84.6517
84.4296
84.2424
84.0888
83.9667
83.8738
83.8071
83.7636
83.7399
83.7329
83.7388
83.7527
83.7737
83.7822
33.0541
23.6874
13.052
3.34797
-4.41437
-9.6669
-12.5283
-13.0538
-12.1937
-11.0138
-9.62334
-8.09425
-6.48962
-4.88361
-3.5142
-2.48089
-1.75012
-1.29746
-1.10465
-1.15579
-1.39395
-1.93936
-2.87773
-4.15427
-6.18516
-8.85779
-11.636
-14.5068
-17.4555
-20.4719
-23.541
-26.6277
-29.668
-32.6274
96.1998
97.6636
99.2421
100.478
101.083
101.029
100.394
99.0679
96.9148
93.9074
90.0693
85.4248
79.9686
73.6153
66.2862
57.2542
48.1654
33.9437
94.9183
93.6714
92.4848
91.3699
90.3333
89.4795
88.7899
88.1174
87.4875
86.9056
86.3697
85.9328
85.5644
85.2281
84.9266
84.6623
84.4351
84.2441
84.0876
83.9638
83.8697
83.8026
83.7592
83.7363
83.7302
83.7371
83.7522
83.7744
83.7835
26.8414
16.3765
4.93888
-4.62728
-11.5587
-15.4964
-16.5593
-15.9223
-14.8642
-13.5161
-11.9826
-10.3328
-8.62636
-6.93787
-5.51186
-4.45051
-3.71489
-3.27695
-3.11626
-3.21569
-3.51567
-4.14229
-5.18323
-7.03539
-9.56537
-12.2219
-14.9862
-17.8351
-20.7464
-23.7072
-26.7034
-29.7004
-32.6311
-35.4598
96.0432
97.5615
99.2603
100.723
101.64
101.946
101.711
100.821
99.1046
96.5197
93.0883
88.8555
83.842
78.0254
71.2812
63.5079
53.8337
43.8309
28.0642
94.7394
93.4885
92.301
91.188
90.2708
89.534
88.8062
88.1185
87.4772
86.8799
86.3925
85.98
85.5981
85.2509
84.9416
84.671
84.4387
84.244
84.085
83.9594
83.8646
83.7973
83.7544
83.7323
83.7274
83.7355
83.7517
83.7752
83.7849
19.8565
7.95651
-3.83935
-13.0923
-18.5043
-20.2842
-19.9186
-18.9955
-17.7211
-16.1914
-14.5034
-12.7245
-10.91
-9.13441
-7.64864
-6.55778
-5.81716
-5.39496
-5.2685
-5.41927
-5.78512
-6.49659
-8.10691
-10.4479
-12.9482
-15.5833
-18.3216
-21.1312
-23.9865
-26.8727
-29.776
-32.6625
-35.463
-38.1411
95.8516
97.4053
99.1912
100.837
102.028
102.657
102.8
102.371
101.123
98.979
95.964
92.1344
87.5417
82.1922
76.0418
68.9233
60.7038
50.3613
39.287
21.6378
94.5381
93.2832
92.0946
91.1159
90.3345
89.5527
88.8074
88.1063
87.4461
86.9079
86.4511
86.0226
85.6278
85.2711
84.9541
84.6772
84.4402
84.2419
84.0805
83.9536
83.8582
83.7912
83.7491
83.7281
83.7244
83.7337
83.7512
83.776
83.7864
11.6678
-1.55387
-13.8004
-21.362
-24.3051
-24.2641
-23.5041
-22.2724
-20.7583
-19.0362
-17.1845
-15.2694
-13.3418
-11.4753
-9.92728
-8.80576
-8.06018
-7.65484
-7.5646
-7.76966
-8.20419
-9.47567
-11.5605
-13.8535
-16.3212
-18.9239
-21.6195
-24.3723
-27.1539
-29.9467
-32.7372
-35.4929
-38.1436
-40.6525
95.633
97.2062
99.0509
100.837
102.264
103.182
103.655
103.667
102.933
101.269
98.6873
95.2637
91.0723
86.1573
80.5049
74.0477
66.5685
57.901
46.8738
34.5688
14.5322
94.3109
93.0512
92.0122
91.1899
90.3557
89.554
88.7933
88.0692
87.4802
86.9796
86.5041
86.0604
85.6544
85.2885
84.9637
84.6808
84.4392
84.2376
84.0742
83.9462
83.8508
83.7845
83.7435
83.7237
83.7213
83.7319
83.7507
83.7769
83.7879
2.01068
-13.9878
-23.2525
-28.6409
-29.103
-28.4705
-27.3005
-25.7408
-23.9654
-22.0421
-20.0209
-17.9642
-15.9199
-13.9602
-12.3484
-11.1956
-10.4454
-10.0581
-10.0061
-10.267
-11.2567
-12.9827
-14.9951
-17.2405
-19.6662
-22.2206
-24.857
-27.5362
-30.2261
-32.907
-35.5658
-38.1717
-40.6543
-42.9765
95.3844
96.9733
98.854
100.741
102.366
103.538
104.3
104.696
104.472
103.352
101.246
98.2397
94.4432
89.9308
84.7314
78.8098
72.0684
64.2457
55.1431
43.4211
29.7392
6.63939
94.0525
92.9577
92.0978
91.2138
90.357
89.5377
88.7492
88.11
87.5667
87.0444
86.5513
86.0946
85.6775
85.3023
84.97
84.6812
84.4353
84.2308
84.0657
83.9373
83.8424
83.7772
83.7375
83.7191
83.7181
83.7301
83.7501
83.7777
83.7895
-12.6476
-25.1688
-33.2132
-34.6154
-34.0965
-32.8739
-31.2703
-29.3759
-27.3271
-25.1948
-23.0024
-20.8018
-18.6395
-16.586
-14.9101
-13.7262
-12.9721
-12.6041
-12.591
-13.4076
-14.8344
-16.4559
-18.4004
-20.5909
-22.96
-25.4508
-28.0121
-30.6005
-33.181
-35.7324
-38.2419
-40.6799
-42.9778
-45.0974
95.1005
96.7035
98.6128
100.566
102.351
103.745
104.757
105.48
105.716
105.154
103.603
101.056
97.6569
93.5302
88.739
83.2931
77.1306
70.1304
61.9969
52.475
40.0753