/*--------------------------------*- C++ -*----------------------------------*\
  =========                 |
  \\      /  F ield         | OpenFOAM: The Open Source CFD Toolbox
   \\    /   O peration     | Website:  https://openfoam.org
    \\  /    A nd           | Version:  8
     \\/     M anipulation  |
\*---------------------------------------------------------------------------*/
FoamFile
{
    version     2.0;
    format      ascii;
    class       volScalarField;
    location    "0.09";
    object      k;
}
// * * * * * * * * * * * * * * * * * * * * * * * * * * * * * * * * * * * * * //

dimensions      [0 2 -2 0 0 0 0];

internalField   nonuniform List<scalar> 
15677
(
197.762
229.121
301.99
352.905
391.226
420.719
443.411
460.728
473.468
486.168
499.697
506.94
497.429
476.447
462.614
456.732
450.164
440.755
427.934
415.174
402.596
390.874
381.442
375.549
373.356
373.766
375.236
376.478
376.397
375.257
373.043
370.114
366.799
363.385
360.103
500.234
818.324
989.453
1088.23
1142.7
1163.51
1162.1
1146.97
1136.29
1136.27
1132.78
979.627
769.533
614.295
528.564
491.446
469.144
460.001
457.1
455.868
452.419
448.721
441.987
434.47
428.689
424.791
422.232
420.253
418.073
415.129
411.425
407.756
404.382
401.215
398.145
345.546
641.966
821.702
956.672
1081.99
1220.21
1383.02
1539.11
1669.12
1722.66
1621.48
1342.09
1011.23
725.746
518.281
385.825
310.517
286.921
282.247
292.298
310.118
329.199
344.111
353.422
357.974
359.513
359.317
358.082
356.26
354.034
351.396
348.227
344.702
341.092
337.653
118.623
237.223
356.631
464.008
567.093
662.517
744.068
806.926
838.485
827.591
775.583
691.676
596.219
500.46
418.503
355.24
307.729
271.61
250.476
249.944
260.31
287.829
324.424
356.605
379.519
395.001
404.724
409.767
410.896
409.021
404.645
398.56
391.481
383.921
376.234
57.6277
85.8835
110.502
127.06
141.589
156.456
170.73
183.085
192.059
195.78
194.74
191.21
187.997
187.574
191.202
199.024
211.069
226.941
246.446
267.418
290.924
316.314
341.036
362.421
376.894
381.512
376.419
363.945
351.115
340.04
330.81
323.05
316.403
310.621
305.543
90.4068
150.189
186.625
213.351
236.716
259.529
277.495
276.453
250.052
211.072
179.728
163.569
158.751
161.875
170.351
180.949
193.429
208.048
224.331
241.129
256.184
266.6
272.125
274.524
274.97
274.234
272.524
270.139
267.572
265.005
262.531
260.205
258.06
256.11
254.354
50.6662
104.633
143.027
176.659
210.045
230.765
228.019
201.372
153.652
115.89
113.27
126.002
138.67
149.068
158.422
167.961
178.447
189.704
201.301
212.809
223.839
233.497
240.181
243.303
243.62
242.142
240.177
238.275
236.611
235.192
233.971
232.896
231.921
231.01
230.14
10.031
18.2699
27.7825
34.9321
39.0146
39.1235
39.4895
42.4519
52.3026
67.9777
84.0274
97.234
106.901
115.23
124.039
133.951
144.969
156.298
167.19
176.804
184.445
189.601
192.895
195.107
196.657
197.724
198.442
198.906
199.189
199.34
199.397
199.388
199.331
199.241
199.13
16.1552
26.2556
32.7665
37.4284
41.3187
44.8251
48.3383
52.2046
56.6559
61.8624
67.8934
74.8857
83.0885
92.7588
102.735
112.114
121.091
129.648
137.759
145.345
152.31
158.2
162.578
165.545
167.386
168.506
169.284
169.882
170.366
170.762
171.086
171.345
171.547
171.699
171.805
11.578
22.5654
28.9053
33.6502
37.7498
41.5641
45.2954
49.0692
52.9709
57.1061
61.6008
66.6082
72.3451
79.0237
86.1819
93.3493
100.568
107.677
114.44
120.662
126.091
130.488
134.026
136.827
139.021
140.72
142.035
143.049
143.833
144.44
144.918
145.302
145.619
145.883
146.104
13.1245
23.513
29.7336
34.1187
37.6525
40.7205
43.5424
46.2792
49.0744
52.07
55.4141
59.2609
63.7677
69.079
74.7327
80.2905
85.8255
91.2492
96.482
101.461
106.114
110.15
113.328
115.772
117.617
119.01
120.097
120.977
121.702
122.31
122.824
123.262
123.633
123.941
124.19
9.9156
19.5901
24.8826
28.682
31.8493
34.6898
37.36
39.9681
42.6079
45.3737
48.3663
51.6971
55.4926
59.9021
64.5933
69.2251
73.8625
78.4024
82.7064
86.6779
90.3298
93.5294
96.1653
98.3014
100.02
101.396
102.487
103.354
104.048
104.608
105.063
105.436
105.746
106.005
106.227
9.02547
17.3228
22.081
25.4996
28.3133
30.8033
33.1232
35.3817
37.6699
40.071
42.6665
45.538
48.7685
52.4456
56.2674
59.9873
63.6957
67.3573
70.9209
74.3355
77.5098
80.2736
82.5394
84.3681
85.8309
86.9879
87.917
88.6769
89.306
89.831
90.2718
90.6439
90.9594
91.228
91.4572
8.06802
16.1795
20.4473
23.3843
25.7175
27.7428
29.6243
31.4752
33.3822
35.4148
37.634
40.1002
42.8783
46.0458
49.3216
52.4823
55.5905
58.6217
61.5676
64.402
67.0582
69.3931
71.3317
72.9226
74.2253
75.292
76.168
76.8908
77.4906
77.9915
78.4128
78.7699
79.0751
79.3385
79.5677
6.29658
12.7723
16.4282
19.1035
21.35
23.3743
25.2866
27.1613
29.0572
31.0264
33.1183
35.3827
37.8735
40.6506
43.4826
46.1955
48.8541
51.4375
53.9328
56.3277
58.6023
60.6194
62.3117
63.7151
64.8762
65.8347
66.6253
67.2872
67.8467
68.3228
68.7303
69.0807
69.3835
69.6462
69.875
6.09496
12.3177
15.5643
17.8492
19.7275
21.3999
22.9758
24.5308
26.1239
27.8034
29.6109
31.5848
33.7635
36.191
38.6548
41.0029
43.2998
45.5289
47.6784
49.7456
51.7003
53.458
54.9486
56.1994
57.2482
58.1284
58.869
59.4948
60.0261
60.4793
60.8679
61.2028
61.4928
61.7459
61.9688
4.63124
9.83198
12.6733
14.7759
16.5756
18.2301
19.8174
21.3879
22.9805
24.6276
26.362
28.2167
30.2262
32.4262
34.6261
36.701
38.713
40.6577
42.5339
44.3401
46.0539
47.6032
48.9267
50.0467
50.9944
51.7965
52.4758
53.0525
53.5463
53.9717
54.34
54.6602
54.9398
55.1847
55.3999
4.50368
9.28859
11.8139
13.6473
15.2026
16.6298
18.0044
19.3741
20.7739
22.2333
23.7794
25.4391
27.2398
29.2122
31.1812
33.0347
34.8253
36.5509
38.2166
39.8116
41.3341
42.7164
43.9035
44.914
45.7748
46.5088
47.1362
47.6739
48.1364
48.5356
48.8815
49.1827
49.4466
49.6791
49.8845
3.64745
7.98057
10.2674
11.9589
13.4133
14.7593
16.061
17.3583
18.6805
20.0518
21.4952
23.0332
24.6891
26.487
28.2682
29.9347
31.5397
33.0845
34.5728
35.9997
37.3639
38.6059
39.6766
40.5923
41.3763
42.0483
42.6254
43.1219
43.5505
43.9228
44.2476
44.5321
44.7821
45.0023
45.1966
3.58322
7.49557
9.55815
11.069
12.362
13.5583
14.718
15.8781
17.0657
18.3027
19.6095
21.0057
22.5113
24.1465
25.7645
27.2753
28.7252
30.1194
31.4599
32.7467
33.9785
35.1023
36.0737
36.907
37.623
38.2391
38.7705
39.2299
39.6282
39.9746
40.2771
40.5425
40.7759
40.9814
41.1627
3.07657
6.71296
8.61594
10.0191
11.2252
12.343
13.4263
14.5085
15.6137
16.762
17.9714
19.2593
20.643
22.1399
23.6151
24.9885
26.306
27.5719
28.7883
29.9558
31.0741
32.0955
32.9801
33.7409
34.3963
34.9621
35.4516
35.8761
36.2452
36.567
36.8483
37.0947
37.3111
37.5016
37.6695
2.98888
6.29245
8.03546
9.31563
10.4135
11.4308
12.4178
13.4056
14.4162
15.4681
16.5776
17.7604
19.0316
20.4054
21.757
23.0132
24.2164
25.3712
26.4803
27.5447
28.5645
29.4967
30.305
31.0011
31.6019
32.1214
32.5716
32.9626
33.3031
33.6002
33.86
34.0879
34.2882
34.4646
34.6204
2.69626
5.78262
7.4056
8.60134
9.62815
10.5793
11.501
12.4217
13.3621
14.3391
15.3678
16.4625
17.6369
18.9036
20.1468
21.3
22.4036
23.462
24.4777
25.4522
26.3856
27.2392
27.9798
28.6184
29.17
29.6475
30.0618
30.422
30.7359
31.01
31.2501
31.4607
31.6459
31.8092
31.9534
2.58041
5.43039
6.9396
8.04924
9.00101
9.88245
10.7369
11.5911
12.464
13.3711
14.3258
15.3406
16.4273
17.5977
18.7451
19.8084
20.8247
21.7985
22.7324
23.6277
24.4852
25.2692
25.9496
26.5365
27.0438
27.4833
27.8647
28.1966
28.486
28.739
28.9606
29.1551
29.3264
29.4775
29.6111
2.39173
5.07034
6.48756
7.53092
8.42587
9.25401
10.0559
10.8564
11.6734
12.5211
13.4117
14.3569
15.3678
16.4549
17.5189
18.5035
19.4436
20.3432
21.2051
22.0307
22.821
23.5433
24.17
24.7107
25.1782
25.5832
25.935
26.2412
26.5083
26.7419
26.9467
27.1266
27.2851
27.425
27.5488
2.28302
4.7875
6.11954
7.09935
7.9394
8.71668
9.46915
10.2199
10.9852
11.7786
12.6115
13.4948
14.4384
15.4519
16.4425
17.3579
18.2307
19.0651
19.8635
20.6276
21.3582
22.0256
22.6045
23.1037
23.5353
23.9094
24.2343
24.5171
24.764
24.98
25.1694
25.3359
25.4826
25.6123
25.7271
2.15153
4.51746
5.77713
6.70434
7.49908
8.23402
8.94477
9.65304
10.3743
11.1211
11.9041
12.7334
13.6182
14.5671
15.4931
16.3476
17.1612
17.938
18.6804
19.39
20.0678
20.6863
21.2224
21.6845
22.0839
22.4299
22.7304
22.9921
23.2205
23.4204
23.5958
23.75
23.886
24.0062
24.1128
2.05648
4.29027
5.48407
6.36256
7.11518
7.81069
8.48296
9.15256
9.83402
10.539
11.2775
12.0588
12.8914
13.7831
14.652
15.4528
16.2142
16.9401
17.633
18.2943
18.9252
19.5002
19.998
20.4267
20.797
21.1176
21.396
21.6384
21.8499
22.0351
22.1975
22.3404
22.4665
22.578
22.6769
1.95891
4.08027
5.21623
6.05245
6.76867
7.43016
8.06907
8.70489
9.35137
10.0195
10.7186
11.4575
12.2439
13.085
13.9035
14.6568
15.3721
16.0531
16.7021
17.3206
17.9098
18.4459
18.9094
19.308
19.6519
19.9495
20.2077
20.4323
20.6283
20.7997
20.9502
21.0825
21.1993
21.3026
21.3943
1.87919
3.89646
4.97978
5.7772
6.45999
7.09035
7.69891
8.30416
8.91913
9.55414
10.2181
10.919
11.6643
12.4605
13.2343
13.9455
14.6199
15.2611
15.8713
16.452
17.004
17.5054
17.938
18.3095
18.6294
18.9058
19.1454
19.3535
19.535
19.6936
19.8327
19.9551
20.063
20.1585
20.2432
355.548
348.934
341.236
332.17
321.507
309.113
294.995
279.305
262.394
244.775
226.936
209.422
193.003
178.161
164.945
153.352
143.345
134.867
127.843
122.19
117.821
114.641
394.055
388.731
383.088
377.107
370.76
364.023
356.88
349.335
341.413
333.196
324.855
316.798
309.826
304.784
302.437
303.255
307.118
314.497
323.886
332.88
339.916
344.336
333.462
328.275
322.915
317.687
312.814
308.443
304.634
301.393
298.671
296.345
294.222
292.079
289.819
287.71
286.276
285.852
286.512
288.184
290.631
293.5
296.472
299.337
366.137
352.841
339.18
325.569
312.31
299.721
288.003
277.349
268.099
260.559
254.834
250.892
248.713
247.961
248.176
249.164
250.824
253.071
255.756
258.815
262.273
266.061
300.006
293.5
286.774
279.931
273.07
266.289
259.812
253.879
248.564
243.983
240.22
237.346
235.43
234.44
234.227
234.696
235.766
237.35
239.338
241.552
243.917
246.371
252.672
250.834
248.829
246.68
244.426
242.111
239.786
237.507
235.336
233.335
231.559
230.059
228.894
228.074
227.572
227.353
227.384
227.644
228.11
228.755
229.566
230.519
229.451
228.873
228.229
227.52
226.748
225.918
225.042
224.137
223.225
222.334
221.496
220.749
220.137
219.666
219.325
219.1
218.976
218.948
219.012
219.163
219.392
219.694
199.483
200.286
201.023
201.699
202.318
202.881
203.385
203.818
204.158
204.413
204.588
204.687
204.72
204.708
204.671
204.626
204.588
204.568
204.575
204.618
204.705
204.837
172.478
173.734
174.956
176.141
177.278
178.363
179.385
180.336
181.215
182.026
182.776
183.465
184.085
184.632
185.116
185.548
185.937
186.292
186.621
186.931
187.227
187.509
146.958
148.459
149.938
151.387
152.802
154.177
155.509
156.793
158.022
159.214
160.357
161.428
162.403
163.276
164.064
164.78
165.436
166.04
166.603
167.133
167.637
168.119
125.044
126.53
128.013
129.487
130.951
132.398
133.827
135.233
136.613
137.966
139.304
140.614
141.856
143.002
144.061
145.044
145.957
146.81
147.608
148.359
149.069
149.739
107.023
108.424
109.839
111.262
112.69
114.118
115.544
116.962
118.372
119.771
121.157
122.515
123.807
125.021
126.171
127.26
128.292
129.27
130.198
131.082
131.924
132.726
92.2166
93.535
94.8692
96.2171
97.5772
98.9481
100.328
101.714
103.103
104.495
105.887
107.266
108.595
109.853
111.051
112.195
113.287
114.329
115.324
116.274
117.181
118.046
80.2837
81.5164
82.7692
84.039
85.3236
86.6228
87.9364
89.2637
90.6035
91.9543
93.3143
94.6721
95.9904
97.2457
98.4423
99.5841
100.675
101.717
102.716
103.672
104.59
105.47
70.549
71.6978
72.8688
74.0607
75.2727
76.5041
77.7539
79.0214
80.3058
81.6061
82.9217
84.2422
85.5316
86.7658
87.9477
89.0793
90.1627
91.2002
92.1944
93.1477
94.0629
94.9419
62.6012
63.6715
64.7657
65.8831
67.0232
68.1857
69.3698
70.5749
71.8002
73.0447
74.3078
75.5799
76.8264
78.0234
79.1726
80.2755
81.3339
82.3496
83.3243
84.2601
85.159
86.0228
55.9933
56.9946
58.021
59.0721
60.148
61.2487
62.3742
63.5235
64.6957
65.8898
67.1047
68.3304
69.5326
70.6876
71.7979
72.8656
73.8925
74.8803
75.8305
76.7449
77.625
78.4726
50.442
51.3801
52.3437
53.3329
54.348
55.3892
56.4552
57.5451
58.6587
59.7958
60.9557
62.1294
63.2841
64.3966
65.4684
66.5008
67.4955
68.4539
69.3773
70.2672
71.125
71.9519
45.7199
46.6011
47.5081
48.4403
49.3976
50.3803
51.3885
52.4222
53.4809
54.5644
55.6724
56.7962
57.9046
58.9751
60.0086
61.0061
61.9688
62.8978
63.7943
64.6594
65.4942
66.3001
41.653
42.4802
43.3328
44.211
45.1149
46.0446
47.0003
47.9819
48.9894
50.0228
51.0817
52.1582
53.2221
54.2518
55.2478
56.211
57.1421
58.042
58.9115
59.7517
60.5633
61.3476
38.1288
38.9064
39.7092
40.5374
41.3915
42.2716
43.1779
44.1107
45.0698
46.0555
47.0676
48.0986
49.1197
50.1098
51.0693
51.9988
52.8988
53.7699
54.6128
55.4282
56.2169
56.9798
35.0518
35.7846
36.542
37.3246
38.1328
38.9669
39.8272
40.7141
41.6277
42.5683
43.5358
44.5233
45.503
46.4548
47.3788
48.2753
49.1447
49.9874
50.804
51.5949
52.3608
53.1024
32.3585
33.0492
33.7643
34.5043
35.2696
36.0606
36.8779
37.7216
38.5923
39.49
40.4151
41.3608
42.3008
43.2155
44.1049
44.9692
45.8085
46.6233
47.4139
48.1806
48.9239
49.6445
29.992
30.6438
31.3196
32.0199
32.7452
33.496
34.2728
35.076
35.906
36.7632
37.6479
38.5537
39.4556
40.3344
41.1903
42.0232
42.8333
43.6207
44.3856
45.1284
45.8494
46.549
27.9071
28.523
29.1623
29.8256
30.5136
31.2267
31.9656
32.7307
33.5224
34.3412
35.1876
36.0554
36.9207
37.7652
38.5888
39.3913
40.1728
40.9334
41.6732
42.3924
43.0914
43.7703
26.0648
26.6475
27.2531
27.8823
28.5356
29.2137
29.9172
30.6466
31.4024
32.1851
32.9951
33.827
34.6575
35.4691
36.2616
37.0348
37.7887
38.5233
39.2386
39.9347
40.612
41.2705
24.4316
24.9839
25.5586
26.1563
26.7777
27.4234
28.094
28.7902
29.5125
30.2613
31.0373
31.8352
32.6328
33.4132
34.1761
34.9212
35.6486
36.358
37.0496
37.7233
38.3793
39.0179
22.9783
23.5029
24.0494
24.6183
25.2105
25.8264
26.4669
27.1324
27.8236
28.541
29.2852
30.0512
30.8179
31.5688
32.3037
33.0222
33.7243
34.4097
35.0785
35.7306
36.3661
36.9851
21.6797
22.1792
22.6999
23.2427
23.8083
24.3972
25.01
25.6475
26.3102
26.9987
27.7135
28.4499
29.1877
29.911
30.6195
31.313
31.9912
32.6539
33.3011
33.9326
34.5484
35.1486
20.514
20.9905
21.4879
22.0071
22.5485
23.1129
23.7008
24.3129
24.9497
25.6118
26.2997
27.009
27.72
28.4177
29.1016
29.7715
30.4273
31.0686
31.6955
32.3078
32.9054
33.488
112.526
111.936
112.601
114.011
116.107
119.001
347.632
350.127
350.132
347.249
341.331
332.597
302.09
304.829
307.583
310.506
313.882
318.119
270.185
274.424
278.451
282.398
286.295
289.939
248.912
251.529
254.164
256.735
259.317
261.907
231.484
232.4
233.362
234.409
235.582
236.922
219.84
219.828
219.946
220.195
220.588
221.147
204.638
204.112
203.659
203.299
203.05
202.922
187.286
186.56
185.893
185.287
184.749
184.29
168.011
167.327
166.668
166.04
165.448
164.896
149.778
149.197
148.627
148.07
147.528
147.005
132.897
132.45
132.001
131.555
131.112
130.673
118.309
117.979
117.643
117.303
116.958
116.61
105.787
105.551
105.306
105.054
104.795
104.53
95.2984
95.1403
94.9709
94.7909
94.6003
94.3998
86.4004
86.2999
86.1868
86.0618
85.925
85.7765
78.8666
78.8132
78.7454
78.6637
78.5681
78.4588
72.3513
72.3289
72.2922
72.2418
72.1776
72.0998
66.7011
66.702
66.6885
66.6609
66.6191
66.5632
61.7457
61.7621
61.7642
61.7524
61.7265
61.6867
57.3727
57.3995
57.4123
57.4113
57.3964
57.3678
53.488
53.5213
53.5409
53.547
53.5396
53.5188
50.0215
50.0585
50.0823
50.093
50.0905
50.075
46.9165
46.9554
46.9815
46.9949
46.9956
46.9837
44.1279
44.1673
44.1944
44.2093
44.2119
44.2024
41.6179
41.657
41.6843
41.6998
41.7036
41.6956
39.355
39.3932
39.4201
39.4357
39.44
39.4329
37.312
37.349
37.3752
37.3905
37.3948
37.3883
35.4653
35.501
35.5262
35.5409
35.5452
35.5389
33.7947
33.8287
33.8526
33.8666
33.8706
33.8647
122.166
125.564
129.369
133.453
137.692
141.975
146.166
150.101
153.582
156.364
158.245
159.169
159.199
158.555
157.433
155.997
154.371
152.967
152.027
151.585
151.691
152.409
323.008
312.656
299.998
286.299
272.972
261.179
251.805
246.241
244.475
245.148
247.446
250.622
254.177
257.733
261.194
264.769
268.478
271.02
271.653
269.832
265.308
260.286
323.137
329.289
337.39
348.039
361.742
378.513
397.28
415.087
426.364
429.396
423.875
411.255
395.41
380.569
369.632
362.017
356.431
352.019
348.6
346.222
344.973
344.671
292.749
295.094
297.739
300.754
304.217
308.198
312.796
318.15
324.495
332.522
343.243
357.445
374.04
391.239
408.001
422.896
434.69
442.435
445.592
443.985
441.17
438.07
263.981
265.6
267.339
269.237
271.406
274.03
277.348
281.633
287.075
293.783
301.78
310.972
320.898
330.874
340.142
348.405
355.429
361.508
366.241
369.721
372.361
374.538
238.117
239.062
240.232
241.665
243.403
245.48
247.901
250.623
253.55
256.657
259.969
263.49
267.07
270.524
273.741
276.647
279.195
281.356
283.12
284.503
285.549
286.309
221.517
221.616
221.834
222.161
222.575
223.037
223.558
224.148
224.807
225.587
226.47
227.408
228.345
229.222
230.004
230.663
231.182
231.538
231.719
231.717
231.541
231.177
202.526
201.772
201.038
200.325
199.629
198.945
198.271
197.605
196.944
196.276
195.584
194.848
194.06
193.215
192.296
191.287
190.176
188.955
187.624
186.184
184.638
182.992
183.47
182.222
180.965
179.69
178.396
177.081
175.741
174.374
172.975
171.536
170.048
168.511
166.955
165.399
163.83
162.241
160.625
158.978
157.298
155.583
153.836
152.07
163.899
162.415
160.916
159.4
157.865
156.307
154.721
153.101
151.441
149.732
147.961
146.129
144.273
142.427
140.585
138.747
136.911
135.075
133.242
131.411
129.584
127.767
145.985
144.447
142.888
141.305
139.694
138.053
136.38
134.669
132.916
131.115
129.261
127.362
125.465
123.605
121.777
119.98
118.211
116.473
114.767
113.094
111.456
109.857
129.722
128.246
126.749
125.23
123.688
122.119
120.52
118.889
117.221
115.512
113.755
111.958
110.167
108.416
106.704
105.029
103.391
101.788
100.22
98.686
97.1861
95.7228
115.752
114.381
112.991
111.578
110.142
108.679
107.189
105.667
104.111
102.519
100.888
99.227
97.5806
95.9804
94.4244
92.9108
91.4385
90.0065
88.6141
87.2604
85.945
84.6682
103.774
102.526
101.26
99.9736
98.6649
97.3324
95.974
94.588
93.1725
91.7254
90.2445
88.7382
87.2459
85.7962
84.3873
83.017
81.6842
80.3882
79.1283
77.9035
76.7132
75.557
93.7307
92.596
91.4416
90.2663
89.0687
87.8473
86.6013
85.3295
84.0312
82.7041
81.3463
79.9655
78.5983
77.2712
75.9823
74.7306
73.5149
72.3342
71.1876
70.0739
68.9921
67.9413
85.1833
84.1487
83.0939
82.0181
80.9201
79.7989
78.6535
77.4831
76.2866
75.0629
73.81
72.5347
71.2706
70.0425
68.8492
67.6898
66.5631
65.468
64.4032
63.3674
62.3596
61.3797
77.9239
76.9693
75.9952
75.0005
73.9841
72.9448
71.8813
70.7923
69.676
68.5304
67.3534
66.1531
64.9624
63.8055
62.6819
61.591
60.5313
59.5017
58.5009
57.528
56.5822
55.6628
71.6138
70.7248
69.8158
68.886
67.9342
66.9592
65.9598
64.9347
63.8825
62.8021
61.6923
60.5606
59.4377
58.3459
57.2843
56.2518
55.249
54.2747
53.3279
52.4075
51.5129
50.6436
66.1141
65.2772
64.42
63.5418
62.6415
61.718
60.7703
59.7973
58.7981
57.7715
56.7169
55.6412
54.5735
53.5353
52.5259
51.5445
50.5904
49.6628
48.761
47.8854
47.0359
46.2119
61.267
60.4723
59.6571
58.821
57.9628
57.0817
56.1769
55.2474
54.2925
53.3113
52.3032
51.2749
50.2544
49.2624
48.2983
47.3616
46.4518
45.5685
44.7115
43.8805
43.075
42.2946
56.9711
56.2111
55.4307
54.6296
53.8069
52.9619
52.0937
51.2018
50.2855
49.3441
48.3771
47.3912
46.4136
45.4639
44.5419
43.6472
42.7793
41.938
41.1228
40.3334
39.5693
38.83
53.141
52.4104
51.6599
50.889
50.0972
49.2838
48.4482
47.5899
46.7084
45.8032
44.874
43.9274
42.9896
42.0797
41.1974
40.3423
39.5139
38.712
37.936
37.1856
36.4601
35.7591
49.7129
49.008
48.2839
47.5401
46.7761
45.9914
45.1856
44.3583
43.5091
42.6378
41.7442
40.8348
39.9349
39.0629
38.2184
37.401
36.6103
35.8459
35.1073
34.3941
33.7056
33.0413
46.6351
45.9536
45.2534
44.5344
43.7961
43.0382
42.2603
41.4622
40.6436
39.8045
38.9447
38.0708
37.207
36.3711
35.5626
34.7812
34.0263
33.2975
32.5943
31.9162
31.2625
30.6327
43.8658
43.2058
42.528
41.8322
41.1182
40.3855
39.6341
38.8638
38.0744
37.2659
36.4385
35.5984
34.7691
33.9675
33.1933
32.4459
31.7249
31.0298
30.3599
29.7148
29.0939
28.4964
41.3699
40.7302
40.0735
39.3997
38.7087
38.0001
37.274
36.5301
35.7685
34.9893
34.1926
33.3846
32.588
31.8189
31.0769
30.3616
29.6724
29.0088
28.3701
27.7558
27.1653
26.5978
39.1174
38.4969
37.8603
37.2076
36.5384
35.8528
35.1507
34.4319
33.6967
32.9452
32.1776
31.3999
30.6339
29.8954
29.1836
28.4982
27.8386
27.2042
26.5944
26.0086
25.4461
24.9062
37.0823
36.4802
35.8628
35.23
34.5816
33.9177
33.2382
32.5432
31.8329
31.1073
30.367
29.6176
28.8803
28.17
27.4862
26.8285
26.1961
25.5886
25.0054
24.4457
23.9089
23.3944
35.2419
34.6573
34.058
33.4439
32.815
32.1714
31.5132
30.8404
30.1533
29.4521
28.737
28.0139
27.3029
26.6186
25.9605
25.328
24.7205
24.1376
23.5785
23.0427
22.5295
22.0382
33.5765
33.008
32.4252
31.8283
31.2176
30.5929
29.9545
29.3025
28.6369
27.9581
27.2663
26.5671
25.8801
25.2194
24.5845
23.9748
23.3899
22.8292
22.2922
21.7781
21.2864
20.8164
153.418
154.414
155.908
157.956
160.594
163.873
167.934
173.113
180.028
189.581
202.794
220.415
242.351
268.302
298.605
332.851
369.942
409.684
451.086
491.193
527.691
558.098
584.233
606.445
622.296
631.099
628.802
607.728
570.767
523.446
469.371
408.855
338.957
253.607
206.443
256.75
254.238
252.298
251.282
251.46
253.403
257.78
265.462
277.505
295.064
319.166
350.383
388.74
434.231
487.061
546.21
611.651
686.886
756.948
795.659
799.762
782.873
777.642
802.193
885.906
1062.53
1316.67
1555.48
1666.95
1621.9
1482.32
1319.74
1137.66
900.506
511.602
344.513
344.209
344.2
344.574
345.501
347.112
349.603
353.296
358.716
366.635
377.961
393.124
413.827
440.617
472.501
504.304
525.23
526.961
521.388
513.985
519.63
545.84
608.361
662.767
693.774
735.812
862.017
1091.84
1255.19
1300.2
1219.71
1040.15
837.062
607.889
275.705
435.752
434.043
432.485
431.293
430.773
431.303
433.457
437.815
444.884
454.969
467.988
482.314
493.53
499.538
498.469
483.705
457.611
427.488
405.957
420.1
497.571
634.8
753.882
758.422
668.621
591.762
553.364
554.976
565.084
523.908
447.014
353.48
265.172
177.252
82.9002
376.684
379.069
381.813
385.094
389.222
394.707
402.273
412.767
426.694
442.832
455.312
455.436
442.762
415.786
380.398
343.893
312.481
286.73
269.379
270.357
319.763
433.779
569.644
645.166
637.483
605.558
596.012
613.513
623.771
608.217
568.205
507.291
436.306
345.426
192.006
287.357
288.946
290.684
292.558
294.52
296.455
298.194
299.487
299.945
299.012
296.012
290.75
283.514
272.63
255.907
232.49
206.828
184.002
166.562
156.407
154.721
165.665
194.961
239.971
286.033
319.794
339.232
347.231
343.392
331.22
314.511
293.714
265.087
218.411
127.51
231.24
231.872
232.487
233.062
233.596
234.093
234.564
235.029
235.493
235.888
235.9
234.699
229.877
219.618
204.855
188.12
172.551
159.272
148.529
138.971
126.398
103.844
86.0211
85.627
106.019
140.155
176.693
200.962
208.544
199.419
178.819
155.744
130.241
98.1056
48.8608
182.036
181.831
181.568
181.22
180.749
180.106
179.224
178.021
176.395
174.217
171.324
167.523
162.601
156.238
147.936
137.985
127.958
119.337
112.4
104.472
91.6109
74.5787
59.6369
50.2912
45.2634
41.3561
38.3612
36.3385
35.6487
35.7217
34.7282
31.4812
26.4508
18.7044
10.1751
150.979
150.546
150.017
149.378
148.613
147.706
146.638
145.381
143.895
142.108
139.874
136.906
132.661
126.933
119.8
112.078
104.473
97.0338
89.8384
83.0646
76.7904
70.544
64.4265
59.3692
55.2319
51.7349
48.633
45.714
42.9011
40.0749
37.0899
33.7507
29.6985
24.0075
15.2921
126.615
126.093
125.499
124.817
124.028
123.105
122.012
120.706
119.135
117.241
114.948
112.161
108.787
104.721
99.9001
94.4901
88.8608
83.1743
77.6301
72.3242
67.2788
62.3436
57.7907
53.8792
50.4354
47.2835
44.2969
41.3754
38.4348
35.3937
32.1567
28.5812
24.3837
18.788
9.54178
108.858
108.401
107.871
107.252
106.53
105.69
104.714
103.581
102.263
100.729
98.9319
96.8083
94.2087
91.0243
87.2096
83.0033
78.7088
74.4387
70.2861
66.3018
62.5259
58.8586
55.5164
52.7106
50.2992
48.1487
46.1431
44.1674
42.103
39.8286
37.1999
34.0111
29.8854
23.8504
13.9908
94.8027
94.3732
93.886
93.3316
92.6974
91.968
91.1252
90.1471
89.0064
87.6705
86.1033
84.2624
82.0933
79.5495
76.5969
73.3886
70.0869
66.6872
63.2477
59.8248
56.4606
53.0777
49.8833
47.1141
44.6546
42.402
40.2721
38.1889
36.0721
33.8206
31.3108
28.3719
24.6969
19.4393
9.95231
83.8762
83.5159
83.1013
82.625
82.0779
81.4494
80.7273
79.8973
78.9424
77.8421
76.5698
75.0778
73.2931
71.1715
68.6854
65.9504
63.124
60.2427
57.3257
54.4082
51.5088
48.5591
45.7489
43.2964
41.118
39.131
37.2535
35.4025
33.4903
31.4219
29.086
26.3282
22.866
17.963
9.7966
74.8432
74.5271
74.1676
73.7572
73.2873
72.7475
72.127
71.4113
70.5834
69.6223
68.5025
67.1936
65.6591
63.8589
61.7664
59.4736
57.095
54.6408
52.102
49.4984
46.8641
44.145
41.5165
39.2054
37.1487
35.2824
33.548
31.8867
30.2305
28.4948
26.5683
24.2883
21.3622
16.9793
8.45972
67.2994
67.025
66.7104
66.3498
65.9364
65.462
64.9171
64.2905
63.5683
62.7348
61.7618
60.6153
59.2646
57.6803
55.8386
53.8113
51.6912
49.4932
47.2385
44.944
42.6167
40.1837
37.7859
35.6248
33.6519
31.8183
30.0756
28.373
26.6548
24.8559
22.8945
20.6503
17.8941
14.0279
7.17053
60.7848
60.5391
60.2593
59.9391
59.5721
59.1504
58.6649
58.1042
57.4554
56.7021
55.8249
54.8005
53.602
52.1992
50.5733
48.792
46.9384
45.017
43.0268
40.9717
38.8478
36.5998
34.3731
32.3696
30.5515
28.8776
27.3099
25.8097
24.3325
22.821
21.194
19.3231
16.957
13.4808
6.61746
55.1104
54.8906
54.6395
54.3524
54.0238
53.647
53.2141
52.7151
52.1373
51.4633
50.6773
49.7602
48.689
47.4365
45.9816
44.3887
42.7246
40.9904
39.1879
37.3212
35.3941
33.3498
31.3042
29.4332
27.7028
26.0793
24.5305
23.023
21.5194
19.9742
18.3256
16.4783
14.248
11.1415
5.43822
50.1245
49.9241
49.6962
49.4362
49.1384
48.7963
48.4027
47.9486
47.4232
46.8136
46.105
45.2794
44.3163
43.1914
41.8864
40.4548
38.9625
37.4063
35.7803
34.0911
32.3407
30.4736
28.5939
26.8718
25.2825
23.8004
22.4002
21.0549
19.7324
18.3914
16.9735
15.3859
13.4455
10.6614
5.18942
45.724
45.5417
45.3342
45.0977
44.8274
44.5177
44.1615
43.7498
43.2731
42.7206
42.0793
41.3335
40.465
39.4521
38.2789
36.9907
35.6421
34.2333
32.7638
31.2335
29.6395
27.9271
26.1874
24.5753
23.0688
21.6453
20.2818
18.9545
17.6366
16.2957
14.8864
13.3359
11.4995
8.97562
4.21792
41.8352
41.6681
41.4783
41.2622
41.0151
40.7317
40.4061
40.031
39.5979
39.0967
38.5156
37.8404
37.0547
36.1388
35.0782
33.9134
32.6926
31.4153
30.0789
28.6811
27.2208
25.6484
24.048
22.5655
21.1822
19.8791
18.637
17.4355
16.2514
15.0555
13.8063
12.4354
10.8046
8.52929
4.10475
38.3976
38.2447
38.0706
37.8723
37.6461
37.3871
37.0897
36.7474
36.3526
35.8964
35.3681
34.755
34.0421
33.2115
32.2498
31.193
30.0847
28.9241
27.7093
26.4374
25.1032
23.6579
22.1782
20.7983
19.503
18.2758
17.0992
15.9534
14.818
13.6678
12.467
11.1562
9.61452
7.5033
3.4245
35.3517
35.2116
35.0524
34.8711
34.664
34.4271
34.1555
33.8432
33.4834
33.0679
32.587
32.0291
31.3806
30.6252
29.7503
28.7886
27.7794
26.7216
25.613
24.4498
23.2257
21.896
20.53
19.2536
18.0552
16.9219
15.8381
14.7872
13.7504
12.7043
11.6154
10.4279
9.02761
7.09656
3.37963
32.6575
32.5289
32.3828
32.2165
32.0268
31.8099
31.5613
31.2758
30.9471
30.5678
30.1289
29.6201
29.0288
28.3398
27.5418
26.6639
25.7418
24.774
23.7582
22.6907
21.5654
20.3405
19.0774
17.8918
16.7744
15.7143
14.6972
13.7082
12.7301
11.7413
10.7109
9.58809
8.26933
6.46459
2.98544
30.2707
30.1523
30.0179
29.8653
29.6913
29.4925
29.2649
29.0037
28.703
28.3561
27.9549
27.4898
26.9492
26.3193
25.5891
24.7852
23.9398
23.0514
22.1176
21.1345
20.0966
18.965
17.7967
16.6991
15.662
14.6754
13.7285
12.8087
11.9009
10.9851
10.0323
8.99482
7.77486
6.10016
2.89775
28.1548
28.0455
27.9218
27.7813
27.6214
27.4389
27.23
26.9904
26.7147
26.3968
26.0293
25.6031
25.1077
24.5301
23.8601
23.1215
22.3436
21.5249
20.6629
19.7538
18.7921
17.7416
16.6549
15.6322
14.6649
13.7432
12.8562
11.9924
11.1384
10.2755
9.37707
8.39846
7.24876
5.67459
2.66503
26.2748
26.1739
26.0598
25.9303
25.7831
25.6153
25.4233
25.2032
24.9501
24.6582
24.3208
23.9294
23.4743
22.9432
22.3264
21.6455
20.9273
20.1699
19.371
18.527
17.6325
16.6538
15.6397
14.6843
13.7799
12.9179
12.0885
11.2805
10.4805
9.67181
8.82993
7.91331
6.83632
5.36057
2.55694
24.6005
24.5073
24.4019
24.2825
24.1468
23.9923
23.8156
23.6131
23.3803
23.112
22.8016
22.4414
22.0222
21.5325
20.963
20.3331
19.6674
18.9641
18.2207
17.4338
16.5984
15.6827
14.7322
13.8353
12.9852
12.1739
11.3925
10.6305
9.87556
9.1116
8.31537
7.44808
6.42954
5.03622
2.39555
23.1046
23.0184
22.9211
22.811
22.686
22.5437
22.381
22.1946
21.9804
21.7333
21.4473
21.1153
20.7283
20.2756
19.748
19.1632
18.5439
17.8882
17.1938
16.4573
15.6739
14.8139
13.9197
13.0749
12.2734
11.508
10.7703
10.0508
9.33792
8.61658
7.86488
7.04588
6.08358
4.76737
2.28777
21.7631
21.6836
21.5939
21.4926
21.3775
21.2465
21.0969
20.9254
20.7282
20.5005
20.2368
19.9302
19.5722
19.1525
18.6623
18.1176
17.5392
16.9255
16.2742
15.5821
14.8447
14.0338
13.1895
12.3908
11.6323
10.9074
10.2081
9.52569
8.84914
8.16427
7.45036
6.67247
5.75889
4.5109
2.16725
20.5549
20.4819
20.3996
20.3066
20.2011
20.0809
19.9436
19.786
19.6047
19.395
19.1517
18.8682
18.5364
18.1463
17.6894
17.1802
16.6381
16.0615
15.4482
14.7953
14.0985
13.3313
12.5314
11.774
11.0541
10.3657
9.70142
9.05289
8.40987
7.75895
7.0805
6.34139
5.47355
4.28858
2.07206
1.79448
3.70924
4.74046
5.49966
6.1495
6.74912
7.3276
7.90251
8.48616
9.08828
9.71725
10.3806
11.085
11.8368
12.5664
13.2361
13.8704
14.4725
15.0445
15.5877
16.103
16.5698
16.9716
17.3156
17.6112
17.866
18.0862
18.2772
18.4434
18.5885
18.7155
18.827
18.9253
19.0122
19.0893
1.7141
3.52697
4.5065
5.22766
5.84471
6.41379
6.9625
7.50745
8.06029
8.63018
9.22496
9.85165
10.5166
11.2254
11.9124
12.5423
13.1381
13.7027
14.238
14.7454
15.2253
15.6586
16.0301
16.347
16.6181
16.8508
17.0512
17.2243
17.3743
17.5047
17.6185
17.7182
17.8059
17.8832
17.9516
1.64128
3.36398
4.29761
4.98504
5.57304
6.11509
6.63745
7.15593
7.68158
8.22306
8.78781
9.3824
10.0128
10.6842
11.3343
11.9298
12.4923
13.0247
13.5286
14.005
14.4544
14.8585
15.2033
15.496
15.7449
15.9573
16.1391
16.295
16.4294
16.5455
16.6462
16.7339
16.8106
16.8779
16.9372
1.57678
3.21818
4.11054
4.76766
5.32957
5.84736
6.34614
6.84099
7.34244
7.85872
8.39689
8.9632
9.56325
10.202
10.82