/*--------------------------------*- C++ -*----------------------------------*\
  =========                 |
  \\      /  F ield         | OpenFOAM: The Open Source CFD Toolbox
   \\    /   O peration     | Website:  https://openfoam.org
    \\  /    A nd           | Version:  8
     \\/     M anipulation  |
\*---------------------------------------------------------------------------*/
FoamFile
{
    version     2.0;
    format      ascii;
    class       volScalarField;
    location    "0.09";
    object      rho;
}
// * * * * * * * * * * * * * * * * * * * * * * * * * * * * * * * * * * * * * //

dimensions      [1 -3 0 0 0 0 0];

internalField   nonuniform List<scalar> 
15677
(
1.44821
1.44855
1.44868
1.44864
1.44846
1.44816
1.44771
1.4471
1.44626
1.44514
1.4437
1.44168
1.43833
1.43474
1.43239
1.43131
1.43047
1.42995
1.42969
1.42964
1.42957
1.42944
1.42932
1.42924
1.42926
1.42931
1.42939
1.4295
1.42963
1.42981
1.43
1.43018
1.43037
1.43056
1.43079
0.997065
0.996386
0.994581
0.992223
0.989752
0.987303
0.984949
0.982654
0.98021
0.978032
0.97673
0.976433
0.979
0.984656
0.989403
0.992251
0.994323
0.995315
0.994947
0.993715
0.991998
0.990239
0.988685
0.987302
0.986049
0.984902
0.983858
0.982898
0.981951
0.981106
0.980351
0.979664
0.979043
0.978447
0.977935
1.25667
1.25758
1.25776
1.25736
1.25635
1.2547
1.25237
1.24937
1.24619
1.24379
1.2434
1.24469
1.24833
1.25455
1.26154
1.26737
1.27139
1.27409
1.27704
1.28018
1.28351
1.28672
1.28946
1.29161
1.29328
1.29459
1.29552
1.29619
1.29674
1.29713
1.29743
1.29771
1.29798
1.29828
1.29863
1.11709
1.11825
1.11862
1.11869
1.11844
1.1179
1.11697
1.11558
1.11375
1.11136
1.109
1.10741
1.10587
1.10456
1.10328
1.10178
1.10001
1.09788
1.09536
1.09257
1.08962
1.08679
1.08435
1.08252
1.08136
1.08076
1.08023
1.07967
1.07912
1.07861
1.07817
1.07779
1.07745
1.07712
1.07686
1.21898
1.21873
1.21861
1.21859
1.21868
1.21886
1.21908
1.21928
1.21935
1.21936
1.21934
1.21919
1.21889
1.2185
1.21822
1.21811
1.21815
1.21826
1.21849
1.21885
1.2194
1.22024
1.22129
1.22241
1.22354
1.22449
1.2254
1.22629
1.22712
1.22789
1.22858
1.22917
1.22967
1.23011
1.23047
1.13632
1.13614
1.13588
1.13562
1.13539
1.13519
1.135
1.13489
1.13492
1.13507
1.13528
1.13549
1.13572
1.13587
1.13575
1.13544
1.135
1.13445
1.13377
1.13298
1.13215
1.13137
1.13075
1.13036
1.13007
1.12976
1.12951
1.12922
1.12895
1.1287
1.12848
1.12829
1.12811
1.12793
1.12783
1.18829
1.18861
1.18887
1.18911
1.18931
1.18947
1.18959
1.18973
1.18994
1.19013
1.19014
1.19006
1.18998
1.18994
1.19006
1.19025
1.19047
1.19072
1.19105
1.19147
1.19202
1.19273
1.19336
1.19377
1.194
1.19419
1.19437
1.19457
1.19477
1.19497
1.19516
1.19534
1.1955
1.19565
1.19575
1.15687
1.15696
1.15704
1.15711
1.15716
1.15723
1.1573
1.15735
1.15729
1.15713
1.15694
1.15676
1.1566
1.15648
1.15633
1.15609
1.15573
1.15532
1.15488
1.15442
1.15394
1.1535
1.1532
1.153
1.15285
1.15268
1.1525
1.15234
1.1522
1.15206
1.15195
1.15185
1.15177
1.15169
1.15164
1.18001
1.17994
1.1799
1.17987
1.17986
1.17987
1.17993
1.18
1.18003
1.18002
1.17995
1.17983
1.17965
1.17943
1.17929
1.17921
1.17922
1.1793
1.17944
1.17963
1.17992
1.18017
1.1803
1.18038
1.18047
1.18055
1.18063
1.18072
1.18082
1.18091
1.18099
1.18106
1.18113
1.1812
1.18123
1.16428
1.16427
1.16425
1.16423
1.1642
1.16417
1.16414
1.16411
1.16408
1.16406
1.16406
1.16406
1.16406
1.16406
1.16402
1.16392
1.16379
1.16363
1.16345
1.16323
1.16304
1.16295
1.1629
1.16284
1.16275
1.16267
1.16259
1.16251
1.16244
1.16238
1.16232
1.16228
1.16224
1.16221
1.1622
1.17521
1.17517
1.17515
1.17512
1.1751
1.17507
1.17504
1.175
1.17495
1.17489
1.17482
1.17473
1.17462
1.17451
1.17443
1.17438
1.17435
1.17436
1.1744
1.17447
1.17448
1.17445
1.17446
1.17447
1.17449
1.17452
1.17455
1.17458
1.17462
1.17465
1.17468
1.17472
1.17475
1.17479
1.17481
1.168
1.16798
1.16795
1.16792
1.16789
1.16786
1.16783
1.1678
1.16777
1.16775
1.16773
1.16772
1.16771
1.16769
1.16764
1.16758
1.1675
1.16741
1.16733
1.16729
1.16728
1.16726
1.16723
1.16719
1.16714
1.16709
1.16705
1.16701
1.16697
1.16694
1.16691
1.16689
1.16687
1.16685
1.16685
1.17317
1.17314
1.17313
1.17311
1.17309
1.17306
1.17303
1.17299
1.17295
1.17289
1.17282
1.17273
1.17264
1.17254
1.17246
1.17239
1.17233
1.17227
1.17219
1.17211
1.17204
1.17199
1.17195
1.17194
1.17194
1.17194
1.17194
1.17194
1.17195
1.17196
1.17197
1.17197
1.17198
1.17199
1.172
1.16971
1.1697
1.16968
1.16966
1.16964
1.16962
1.16959
1.16957
1.16955
1.16953
1.16952
1.16951
1.1695
1.16947
1.16943
1.16939
1.16936
1.16935
1.16934
1.16932
1.1693
1.16927
1.16924
1.1692
1.16917
1.16913
1.16909
1.16906
1.16903
1.16901
1.16898
1.16897
1.16895
1.16894
1.16894
1.17245
1.17243
1.17242
1.1724
1.17238
1.17236
1.17233
1.17229
1.17225
1.17219
1.17212
1.17204
1.17195
1.17184
1.17174
1.17163
1.17153
1.17143
1.17134
1.17125
1.17117
1.17111
1.17107
1.17105
1.17103
1.17102
1.171
1.171
1.17099
1.17099
1.17098
1.17098
1.17097
1.17097
1.17097
1.17068
1.17066
1.17064
1.17062
1.17061
1.17059
1.17057
1.17055
1.17054
1.17052
1.17051
1.1705
1.1705
1.17049
1.17047
1.17045
1.17043
1.1704
1.17038
1.17035
1.17032
1.17028
1.17024
1.1702
1.17016
1.17013
1.1701
1.17007
1.17005
1.17003
1.17001
1.17
1.16999
1.16998
1.16998
1.17217
1.17216
1.17215
1.17214
1.17212
1.1721
1.17208
1.17204
1.172
1.17195
1.17189
1.17181
1.17172
1.17162
1.17152
1.17143
1.17134
1.17126
1.17118
1.17111
1.17104
1.17099
1.17095
1.17092
1.17089
1.17087
1.17086
1.17084
1.17083
1.17082
1.17081
1.1708
1.17079
1.17078
1.17078
1.17137
1.17135
1.17133
1.17132
1.1713
1.17129
1.17127
1.17126
1.17124
1.17123
1.17122
1.1712
1.17119
1.17116
1.17113
1.17109
1.17105
1.17102
1.17098
1.17093
1.17089
1.17085
1.17081
1.17077
1.17074
1.17071
1.17068
1.17066
1.17064
1.17062
1.17061
1.17059
1.17058
1.17057
1.17057
1.17215
1.17213
1.17212
1.1721
1.17209
1.17207
1.17204
1.17201
1.17198
1.17193
1.17188
1.17182
1.17175
1.17167
1.1716
1.17152
1.17145
1.17139
1.17133
1.17127
1.17121
1.17116
1.17113
1.17109
1.17107
1.17104
1.17102
1.17101
1.17099
1.17098
1.17097
1.17095
1.17095
1.17094
1.17094
1.17186
1.17184
1.17182
1.17181
1.17179
1.17178
1.17176
1.17175
1.17173
1.17171
1.17169
1.17167
1.17164
1.1716
1.17156
1.17151
1.17147
1.17142
1.17138
1.17133
1.17128
1.17124
1.1712
1.17117
1.17114
1.17111
1.17109
1.17107
1.17105
1.17104
1.17102
1.17101
1.171
1.171
1.171
1.17226
1.17224
1.17223
1.17221
1.1722
1.17218
1.17216
1.17213
1.1721
1.17206
1.17202
1.17197
1.17192
1.17186
1.1718
1.17174
1.17168
1.17163
1.17157
1.17152
1.17148
1.17143
1.17139
1.17136
1.17134
1.17131
1.17129
1.17128
1.17126
1.17125
1.17124
1.17123
1.17122
1.17121
1.17121
1.17221
1.17219
1.17217
1.17216
1.17214
1.17213
1.17211
1.1721
1.17208
1.17205
1.17203
1.172
1.17196
1.17192
1.17187
1.17183
1.17178
1.17174
1.17169
1.17164
1.1716
1.17156
1.17152
1.17149
1.17147
1.17144
1.17142
1.17141
1.17139
1.17138
1.17137
1.17136
1.17135
1.17134
1.17133
1.17243
1.17241
1.1724
1.17238
1.17237
1.17235
1.17233
1.17231
1.17228
1.17225
1.17222
1.17218
1.17213
1.17208
1.17203
1.17198
1.17193
1.17188
1.17184
1.17179
1.17175
1.17171
1.17167
1.17164
1.17162
1.1716
1.17158
1.17156
1.17155
1.17154
1.17153
1.17152
1.17151
1.1715
1.1715
1.17248
1.17246
1.17244
1.17243
1.17241
1.1724
1.17238
1.17236
1.17234
1.17232
1.17229
1.17226
1.17222
1.17218
1.17214
1.17209
1.17205
1.172
1.17196
1.17192
1.17188
1.17184
1.1718
1.17178
1.17175
1.17173
1.17171
1.1717
1.17169
1.17167
1.17166
1.17165
1.17165
1.17164
1.17163
1.17262
1.1726
1.17259
1.17257
1.17256
1.17254
1.17252
1.1725
1.17248
1.17245
1.17242
1.17239
1.17235
1.1723
1.17226
1.17221
1.17217
1.17212
1.17208
1.17204
1.172
1.17197
1.17193
1.17191
1.17188
1.17187
1.17185
1.17183
1.17182
1.17181
1.1718
1.17179
1.17178
1.17178
1.17177
1.17269
1.17267
1.17266
1.17265
1.17263
1.17262
1.1726
1.17258
1.17256
1.17254
1.17251
1.17248
1.17244
1.1724
1.17236
1.17232
1.17228
1.17223
1.17219
1.17216
1.17212
1.17208
1.17205
1.17203
1.17201
1.17199
1.17197
1.17196
1.17195
1.17194
1.17193
1.17192
1.17191
1.1719
1.1719
1.1728
1.17278
1.17277
1.17275
1.17274
1.17272
1.1727
1.17269
1.17266
1.17264
1.17261
1.17258
1.17254
1.1725
1.17246
1.17242
1.17238
1.17234
1.1723
1.17226
1.17223
1.1722
1.17217
1.17214
1.17212
1.1721
1.17209
1.17208
1.17206
1.17205
1.17205
1.17204
1.17203
1.17202
1.17202
1.17287
1.17286
1.17284
1.17283
1.17281
1.1728
1.17278
1.17277
1.17275
1.17272
1.1727
1.17267
1.17263
1.17259
1.17255
1.17251
1.17248
1.17244
1.1724
1.17237
1.17233
1.1723
1.17227
1.17225
1.17223
1.17221
1.1722
1.17219
1.17217
1.17216
1.17216
1.17215
1.17214
1.17214
1.17213
1.17296
1.17294
1.17293
1.17291
1.1729
1.17289
1.17287
1.17285
1.17283
1.17281
1.17278
1.17275
1.17272
1.17268
1.17264
1.1726
1.17257
1.17253
1.17249
1.17246
1.17243
1.1724
1.17237
1.17235
1.17233
1.17231
1.1723
1.17229
1.17228
1.17227
1.17226
1.17225
1.17225
1.17224
1.17223
1.17303
1.17301
1.173
1.17299
1.17297
1.17296
1.17294
1.17292
1.17291
1.17288
1.17286
1.17283
1.1728
1.17276
1.17272
1.17269
1.17265
1.17262
1.17258
1.17255
1.17252
1.17249
1.17246
1.17244
1.17242
1.17241
1.17239
1.17238
1.17237
1.17236
1.17236
1.17235
1.17234
1.17234
1.17233
1.43107
1.43203
1.43334
1.43472
1.43615
1.43764
1.43916
1.44072
1.4423
1.44388
1.44544
1.44697
1.44845
1.44984
1.45116
1.45243
1.45365
1.45485
1.45604
1.45723
1.45845
1.45954
0.977715
0.97674
0.975478
0.974215
0.972947
0.971651
0.970336
0.969009
0.967677
0.96635
0.965037
0.963741
0.962475
0.961302
0.960215
0.959188
0.958198
0.957229
0.956293
0.955391
0.954516
0.953881
1.29887
1.29926
1.2998
1.30039
1.30105
1.30176
1.30255
1.30343
1.30439
1.30543
1.30653
1.30771
1.30896
1.31022
1.31147
1.3127
1.31388
1.31502
1.31609
1.31712
1.31809
1.31878
1.07693
1.07678
1.07649
1.07621
1.07598
1.07585
1.07579
1.07579
1.07588
1.07604
1.07624
1.07647
1.07669
1.0769
1.07708
1.07724
1.07736
1.07746
1.07753
1.07742
1.07742
1.0775
1.23055
1.23056
1.23059
1.23056
1.23047
1.23034
1.23013
1.22985
1.22951
1.22915
1.22879
1.22845
1.22817
1.22795
1.22776
1.2276
1.22749
1.22743
1.22742
1.22745
1.2275
1.22748
1.12811
1.12836
1.12852
1.12869
1.12888
1.12907
1.12928
1.1295
1.12973
1.12997
1.13023
1.13049
1.1307
1.13088
1.13106
1.13124
1.13135
1.13149
1.1316
1.1317
1.13179
1.13196
1.19554
1.19535
1.1952
1.19504
1.19487
1.19469
1.19451
1.19432
1.19412
1.19393
1.19374
1.19357
1.19345
1.19335
1.19327
1.19321
1.19316
1.19313
1.19311
1.19309
1.19306
1.19299
1.15177
1.15197
1.15213
1.1523
1.15248
1.15267
1.15287
1.15308
1.15328
1.15348
1.15368
1.15388
1.15404
1.15419
1.15434
1.15447
1.1546
1.15473
1.15487
1.155
1.15515
1.15534
1.18106
1.18091
1.18079
1.18065
1.18051
1.18036
1.18021
1.18006
1.1799
1.17973
1.17958
1.17944
1.17932
1.17923
1.17914
1.17906
1.17899
1.17893
1.17887
1.17881
1.17875
1.17868
1.16231
1.16245
1.16257
1.16269
1.16282
1.16295
1.16308
1.16322
1.16335
1.16349
1.16363
1.16376
1.16387
1.16397
1.16407
1.16417
1.16426
1.16435
1.16444
1.16454
1.16464
1.16475
1.17469
1.17459
1.17449
1.17439
1.17428
1.17418
1.17407
1.17396
1.17385
1.17374
1.17364
1.17355
1.17348
1.17341
1.17334
1.17328
1.17323
1.17318
1.17313
1.17309
1.17304
1.17299
1.16691
1.167
1.16707
1.16714
1.16721
1.16729
1.16737
1.16745
1.16752
1.1676
1.16768
1.16775
1.16781
1.16785
1.1679
1.16795
1.168
1.16805
1.16809
1.16814
1.1682
1.16826
1.17191
1.17185
1.17178
1.17171
1.17164
1.17157
1.1715
1.17143
1.17137
1.17131
1.17125
1.17119
1.17114
1.1711
1.17106
1.17103
1.17101
1.17099
1.17097
1.17095
1.17093
1.1709
1.16896
1.169
1.16903
1.16906
1.16909
1.16912
1.16915
1.16917
1.1692
1.16923
1.16925
1.16928
1.16929
1.16931
1.16933
1.16935
1.16937
1.16938
1.1694
1.16941
1.16943
1.16944
1.17091
1.17087
1.17082
1.17077
1.17072
1.17067
1.17062
1.17058
1.17053
1.17049
1.17045
1.17041
1.17038
1.17036
1.17034
1.17032
1.1703
1.17029
1.17027
1.17026
1.17025
1.17023
1.16997
1.16998
1.16998
1.16997
1.16997
1.16996
1.16996
1.16996
1.16995
1.16995
1.16994
1.16993
1.16992
1.16992
1.16991
1.16991
1.16991
1.1699
1.1699
1.1699
1.1699
1.16989
1.17074
1.1707
1.17066
1.17062
1.17058
1.17054
1.1705
1.17047
1.17043
1.1704
1.17037
1.17034
1.17032
1.17029
1.17027
1.17025
1.17023
1.17021
1.17019
1.17018
1.17017
1.17015
1.17056
1.17054
1.17052
1.1705
1.17048
1.17046
1.17044
1.17041
1.17039
1.17037
1.17034
1.17032
1.1703
1.17027
1.17025
1.17024
1.17022
1.1702
1.17019
1.17018
1.17016
1.17015
1.17091
1.17087
1.17084
1.1708
1.17076
1.17073
1.17069
1.17065
1.17062
1.17058
1.17055
1.17051
1.17048
1.17045
1.17042
1.1704
1.17038
1.17036
1.17034
1.17032
1.1703
1.17028
1.17097
1.17095
1.17092
1.17088
1.17085
1.17082
1.17079
1.17075
1.17072
1.17068
1.17065
1.17062
1.17058
1.17055
1.17053
1.1705
1.17047
1.17045
1.17043
1.17041
1.17039
1.17037
1.17118
1.17115
1.17111
1.17107
1.17103
1.17099
1.17096
1.17092
1.17088
1.17084
1.1708
1.17076
1.17073
1.17069
1.17066
1.17063
1.1706
1.17058
1.17055
1.17053
1.17051
1.17049
1.17131
1.17128
1.17124
1.17121
1.17117
1.17113
1.17109
1.17105
1.17101
1.17097
1.17093
1.1709
1.17086
1.17082
1.17079
1.17076
1.17073
1.1707
1.17067
1.17065
1.17062
1.1706
1.17147
1.17144
1.1714
1.17136
1.17132
1.17128
1.17124
1.1712
1.17116
1.17111
1.17107
1.17103
1.17099
1.17095
1.17092
1.17088
1.17085
1.17082
1.17079
1.17076
1.17074
1.17071
1.17161
1.17157
1.17154
1.1715
1.17146
1.17142
1.17138
1.17133
1.17129
1.17125
1.17121
1.17116
1.17112
1.17108
1.17104
1.17101
1.17097
1.17094
1.17091
1.17088
1.17085
1.17083
1.17175
1.17171
1.17167
1.17163
1.17159
1.17155
1.17151
1.17147
1.17142
1.17138
1.17133
1.17129
1.17125
1.17121
1.17117
1.17113
1.17109
1.17106
1.17103
1.171
1.17097
1.17094
1.17188
1.17184
1.1718
1.17176
1.17172
1.17168
1.17163
1.17159
1.17155
1.1715
1.17146
1.17141
1.17137
1.17132
1.17128
1.17125
1.17121
1.17117
1.17114
1.17111
1.17108
1.17105
1.172
1.17196
1.17192
1.17188
1.17184
1.1718
1.17175
1.17171
1.17167
1.17162
1.17157
1.17153
1.17148
1.17144
1.1714
1.17136
1.17132
1.17129
1.17125
1.17122
1.17119
1.17116
1.17211
1.17207
1.17203
1.17199
1.17195
1.17191
1.17187
1.17182
1.17178
1.17173
1.17169
1.17164
1.17159
1.17155
1.17151
1.17147
1.17143
1.17139
1.17136
1.17132
1.17129
1.17126
1.17222
1.17218
1.17214
1.1721
1.17206
1.17201
1.17197
1.17193
1.17188
1.17184
1.17179
1.17174
1.1717
1.17165
1.17161
1.17157
1.17153
1.17149
1.17146
1.17142
1.17139
1.17136
1.17231
1.17227
1.17224
1.1722
1.17215
1.17211
1.17207
1.17203
1.17198
1.17194
1.17189
1.17184
1.17179
1.17175
1.17171
1.17167
1.17163
1.17159
1.17155
1.17152
1.17148
1.17145
1.45998
1.46001
1.45997
1.46003
1.46013
1.4601
0.953555
0.95325
0.953063
0.952916
0.952796
0.952779
1.31933
1.32015
1.32085
1.32145
1.32196
1.32235
1.07742
1.07678
1.07605
1.07524
1.07435
1.07333
1.2276
1.22809
1.22861
1.22916
1.22973
1.23034
1.132
1.13179
1.13155
1.13133
1.13111
1.13088
1.19299
1.19324
1.19349
1.19372
1.19395
1.19417
1.15544
1.1554
1.15536
1.15533
1.15531
1.15531
1.17866
1.17877
1.17887
1.17896
1.17903
1.1791
1.16482
1.16481
1.16481
1.16482
1.16483
1.16485
1.17299
1.17303
1.17307
1.1731
1.17312
1.17314
1.16829
1.16828
1.16828
1.16829
1.1683
1.16832
1.1709
1.17091
1.17093
1.17094
1.17094
1.17095
1.16946
1.16945
1.16945
1.16946
1.16947
1.16948
1.17024
1.17024
1.17024
1.17025
1.17025
1.17025
1.1699
1.16989
1.16989
1.1699
1.1699
1.16991
1.17015
1.17015
1.17015
1.17016
1.17016
1.17016
1.17015
1.17015
1.17015
1.17015
1.17015
1.17016
1.17028
1.17028
1.17028
1.17028
1.17029
1.17029
1.17037
1.17037
1.17037
1.17037
1.17037
1.17037
1.17048
1.17048
1.17048
1.17048
1.17048
1.17049
1.17059
1.17059
1.17059
1.17059
1.17059
1.17059
1.1707
1.1707
1.1707
1.1707
1.17071
1.17071
1.17082
1.17081
1.17082
1.17082
1.17082
1.17082
1.17093
1.17093
1.17093
1.17093
1.17093
1.17093
1.17104
1.17103
1.17104
1.17104
1.17104
1.17104
1.17114
1.17114
1.17114
1.17114
1.17114
1.17114
1.17124
1.17124
1.17124
1.17124
1.17124
1.17125
1.17134
1.17134
1.17134
1.17134
1.17134
1.17134
1.17143
1.17143
1.17143
1.17143
1.17143
1.17144
1.45969
1.45864
1.45735
1.45606
1.45473
1.45337
1.45197
1.45055
1.4491
1.44763
1.44613
1.44465
1.44324
1.44187
1.44056
1.4393
1.4381
1.43698
1.43592
1.43491
1.43392
1.43314
0.95279
0.95321
0.953874
0.954549
0.955239
0.955969
0.956763
0.957615
0.958515
0.959493
0.960592
0.961659
0.962665
0.96367
0.964639
0.96553
0.966343
0.967092
0.967754
0.968352
0.968921
0.969266
1.32299
1.32315
1.32302
1.32283
1.32264
1.32243
1.32225
1.32206
1.32182
1.32143
1.32103
1.32083
1.32072
1.32056
1.32041
1.32028
1.32015
1.32003
1.31998
1.31996
1.3199
1.31989
1.07199
1.0707
1.06957
1.06843
1.06731
1.06622
1.06516
1.0642
1.06335
1.06266
1.062
1.0614
1.0609
1.06055
1.06028
1.06008
1.05996
1.05992
1.06005
1.06043
1.06083
1.0611
1.23114
1.23208
1.23292
1.23375
1.23456
1.23535
1.23613
1.23693
1.23781
1.23878
1.23981
1.24087
1.24188
1.24272
1.24337
1.24381
1.24408
1.24426
1.24426
1.24403
1.24367
1.24336
1.13041
1.12992
1.12951
1.12911
1.12871
1.12831
1.12794
1.12762
1.12736
1.12718
1.12705
1.12693
1.12677
1.12662
1.12649
1.1264
1.12633
1.12629
1.12625
1.12622
1.12618
1.12603
1.19448
1.19498
1.19545
1.19591
1.19635
1.19675
1.19712
1.19747
1.19779
1.19811
1.19843
1.19873
1.19902
1.19927
1.1995
1.19969
1.19987
1.20004
1.20018
1.20029
1.20039
1.20052
1.15516
1.15495
1.15476
1.15458
1.15441
1.15423
1.15405
1.15387
1.1537
1.15354
1.15339
1.15322
1.15303
1.15284
1.15267
1.1525
1.15233
1.15217
1.15201
1.15185
1.1517
1.1515
1.17925
1.17951
1.17973
1.17994
1.18014
1.18035
1.18054
1.18074
1.18094
1.18113
1.18134
1.18155
1.18178
1.182
1.18221
1.18241
1.1826
1.18278
1.18295
1.18311
1.18324
1.1834
1.1648
1.16468
1.16458
1.16448
1.16438
1.16427
1.16416
1.16405
1.16393
1.1638
1.16366
1.16351
1.16334
1.16317
1.163
1.16283
1.16267
1.16251
1.16235
1.1622
1.16206
1.16188
1.1732
1.17332
1.17342
1.17352
1.17361
1.17371
1.17381
1.17392
1.17403
1.17414
1.17426
1.17439
1.17453
1.17468
1.17482
1.17496
1.1751
1.17523
1.17536
1.17549
1.17561
1.17573
1.16831
1.16825
1.1682
1.16815
1.1681
1.16805
1.168
1.16794
1.16787
1.1678
1.16773
1.16764
1.16754
1.16744
1.16734
1.16723
1.16713
1.16703
1.16693
1.16683
1.16672
1.16661
1.17097
1.17102
1.17106
1.1711
1.17114
1.17119
1.17123
1.17128
1.17134
1.1714
1.17147
1.17154
1.17162
1.17171
1.1718
1.17189
1.17198
1.17207
1.17216
1.17225
1.17234
1.17243
1.16948
1.16947
1.16945
1.16944
1.16942
1.16941
1.16939
1.16938
1.16936
1.16934
1.16931
1.16928
1.16925
1.16921
1.16917
1.16913
1.16909
1.16905
1.169
1.16896
1.16892
1.16887
1.17027
1.17029
1.17031
1.17033
1.17035
1.17038
1.1704
1.17043
1.17046
1.1705
1.17054
1.17058
1.17064
1.17069
1.17075
1.1708
1.17087
1.17093
1.17099
1.17105
1.17112
1.17118
1.16992
1.16992
1.16993
1.16993
1.16994
1.16994
1.16995
1.16995
1.16996
1.16997
1.16998
1.16999
1.16999
1.17
1.17
1.17
1.17
1.17
1.17
1.17
1.16999
1.16998
1.17018
1.17019
1.17021
1.17023
1.17025
1.17027
1.1703
1.17032
1.17035
1.17038
1.17041
1.17044
1.17048
1.17052
1.17056
1.1706
1.17065
1.17069
1.17074
1.17079
1.17084
1.17088
1.17017
1.17018
1.1702
1.17022
1.17023
1.17025
1.17027
1.17029
1.17032
1.17034
1.17036
1.17039
1.17041
1.17044
1.17046
1.17048
1.1705
1.17053
1.17055
1.17057
1.17059
1.1706
1.1703
1.17032
1.17034
1.17036
1.17038
1.17041
1.17044
1.17046
1.17049
1.17052
1.17056
1.1706
1.17063
1.17067
1.17071
1.17075
1.17079
1.17083
1.17087
1.17091
1.17095
1.17099
1.17039
1.17041
1.17043
1.17045
1.17048
1.1705
1.17053
1.17056
1.17059
1.17062
1.17065
1.17069
1.17073
1.17076
1.1708
1.17083
1.17086
1.1709
1.17093
1.17096
1.17099
1.17102
1.1705
1.17052
1.17055
1.17057
1.1706
1.17063
1.17066
1.17069
1.17072
1.17076
1.1708
1.17084
1.17088
1.17092
1.17096
1.171
1.17104
1.17108
1.17112
1.17116
1.1712
1.17124
1.17061
1.17063
1.17066
1.17069
1.17072
1.17075
1.17078
1.17081
1.17085
1.17089
1.17093
1.17097
1.17101
1.17105
1.17109
1.17113
1.17117
1.17121
1.17125
1.17128
1.17132
1.17135
1.17072
1.17075
1.17078
1.17081
1.17084
1.17087
1.1709
1.17094
1.17098
1.17102
1.17106
1.1711
1.17114
1.17119
1.17123
1.17127
1.17131
1.17135
1.17139
1.17143
1.17147
1.17151
1.17084
1.17086
1.17089
1.17092
1.17096
1.17099
1.17103
1.17106
1.1711
1.17114
1.17118
1.17123
1.17127
1.17132
1.17136
1.1714
1.17145
1.17149
1.17153
1.17157
1.1716
1.17164
1.17095
1.17098
1.17101
1.17104
1.17107
1.17111
1.17115
1.17118
1.17122
1.17127
1.17131
1.17135
1.1714
1.17145
1.17149
1.17153
1.17158
1.17162
1.17166
1.1717
1.17174
1.17178
1.17106
1.17109
1.17112
1.17115
1.17119
1.17122
1.17126
1.1713
1.17134
1.17138
1.17143
1.17147
1.17152
1.17157
1.17161
1.17166
1.1717
1.17174
1.17178
1.17182
1.17186
1.1719
1.17116
1.17119
1.17123
1.17126
1.1713
1.17133
1.17137
1.17141
1.17145
1.1715
1.17154
1.17159
1.17164
1.17168
1.17173
1.17177
1.17181
1.17186
1.1719
1.17194
1.17198
1.17201
1.17126
1.1713
1.17133
1.17136
1.1714
1.17144
1.17148
1.17152
1.17156
1.1716
1.17165
1.1717
1.17174
1.17179
1.17184
1.17188
1.17192
1.17197
1.17201
1.17205
1.17209
1.17212
1.17136
1.17139
1.17143
1.17146
1.1715
1.17154
1.17158
1.17162
1.17166
1.17171
1.17175
1.1718
1.17185
1.17189
1.17194
1.17198
1.17203
1.17207
1.17211
1.17215
1.17219
1.17222
1.17145
1.17149
1.17152
1.17156
1.17159
1.17163
1.17167
1.17171
1.17176
1.1718
1.17185
1.1719
1.17194
1.17199
1.17203
1.17208
1.17212
1.17216
1.1722
1.17224
1.17228
1.17232
1.43297
1.43292
1.43295
1.43299
1.43306
1.43319
1.43339
1.43369
1.43411
1.43465
1.43537
1.4362
1.43706
1.43783
1.43829
1.43839
1.43809
1.43748
1.4368
1.43621
1.43564
1.43489
1.43441
1.43463
1.43544
1.43644
1.43753
1.4384
1.43899
1.43935
1.43955
1.43958
1.4395
1.4393
1.43895
0.969156
0.969258
0.969353
0.969437
0.969498
0.969575
0.969681
0.969835
0.970071
0.970424
0.970935
0.971584
0.972446
0.973609
0.975059
0.976552
0.97807
0.979526
0.980747
0.982361
0.984583
0.987414
0.989916
0.991722
0.992293
0.992034
0.991394
0.991264
0.991557
0.991942
0.99247
0.993121
0.993878
0.994568
0.994764
1.32007
1.3199
1.31963
1.31928
1.31892
1.31848
1.31794
1.31727
1.31646
1.31551
1.31434
1.31292
1.31144
1.30999
1.30844
1.30668
1.30413
1.30117
1.29819
1.29475
1.29136
1.28855
1.28807
1.28945
1.29102
1.2914
1.29052
1.28934
1.28822
1.2872
1.28614
1.28475
1.28299
1.28085
1.27825
1.06099
1.06134
1.06177
1.06223
1.06278
1.06346
1.06429
1.06529
1.06649
1.06787
1.06943
1.07113
1.07308
1.0752
1.0773
1.07922
1.08116
1.08271
1.08388
1.08481
1.08545
1.08573
1.08556
1.08583
1.08651
1.08743
1.08821
1.0884
1.08782
1.08676
1.0856
1.08456
1.08358
1.08254
1.08156
1.24304
1.24238
1.24158
1.24067
1.23965
1.23852
1.23729
1.23601
1.23474
1.23352
1.23238
1.2313
1.23017
1.22874
1.22713
1.22567
1.22451
1.22362
1.22305
1.22259
1.2219
1.22126
1.22125
1.22119
1.22054
1.21948
1.21864
1.2181
1.21778
1.21756
1.21754
1.21772
1.21805
1.21845
1.21883
1.12589
1.12612
1.12643
1.12675
1.1271
1.1275
1.12793
1.12839
1.12888
1.12938
1.12981
1.13024
1.13055
1.13101
1.13172
1.13243
1.13312
1.13369
1.13404
1.13414
1.13402
1.13383
1.13369
1.1335
1.13333
1.13316
1.13282
1.13252
1.13238
1.13247
1.13268
1.13293
1.13324
1.13356
1.13373
1.20069
1.20053
1.2003
1.20006
1.1998
1.19951
1.1992
1.19888
1.19855
1.19823
1.19793
1.19762
1.19714
1.19644
1.19539
1.19446
1.19366
1.19291
1.19226
1.19174
1.1914
1.19127
1.19128
1.19117
1.19099
1.19078
1.19061
1.19047
1.19042
1.19045
1.19048
1.19048
1.19041
1.19026
1.19
1.15141
1.15149
1.1516
1.15172
1.15184
1.15198
1.15214
1.15231
1.15247
1.15264
1.15279
1.15289
1.15302
1.15315
1.15343
1.1538
1.15412
1.15431
1.15433
1.15433
1.15439
1.15449
1.15458
1.15469
1.15485
1.15504
1.15521
1.15537
1.15549
1.15559
1.15568
1.15573
1.15575
1.15571
1.15565
1.18357
1.18354
1.18347
1.1834
1.18333
1.18325
1.18316
1.18307
1.18299
1.18292
1.18285
1.18278
1.1827
1.18259
1.18238
1.1821
1.18189
1.18177
1.18173
1.18172
1.18173
1.18174
1.18161
1.18144
1.18132
1.18126
1.18122
1.18122
1.18125
1.18128
1.18133
1.18139
1.18146
1.18152
1.18159
1.16175
1.16175
1.16179
1.16182
1.16186
1.1619
1.16194
1.162
1.16205
1.1621
1.16215
1.16218
1.16218
1.16214
1.16215
1.16218
1.16226
1.16236
1.16245
1.16251
1.16257
1.16265
1.16273
1.16281
1.1629
1.16296
1.16302
1.16307
1.1631
1.16313
1.16314
1.16315
1.16314
1.16313
1.16311
1.17587
1.17587
1.17586
1.17585
1.17583
1.17581
1.1758
1.17578
1.17576
1.17576
1.17576
1.17579
1.17583
1.17588
1.17595
1.17601
1.17602
1.17602
1.176
1.17601
1.17603
1.17606
1.17608
1.17611
1.17614
1.17617
1.1762
1.17624
1.17627
1.17631
1.17635
1.17639
1.17644
1.17648
1.17654
1.16652
1.16653
1.16655
1.16656
1.16658
1.1666
1.16663
1.16666
1.16669
1.16673
1.16676
1.16678
1.16679
1.16679
1.16677
1.16674
1.16675
1.1668
1.16689
1.16697
1.16704
1.16712
1.16718
1.16722
1.16725
1.16727
1.1673
1.16733
1.16735
1.16738
1.1674
1.16742
1.16744
1.16745
1.16745
1.17252
1.17253
1.17253
1.17253
1.17254
1.17254
1.17254
1.17254
1.17255
1.17256
1.17259
1.17263
1.17267
1.17273
1.17282
1.17293
1.17306
1.17313
1.17318
1.17323
1.17329
1.17336
1.17345
1.17354
1.17362
1.17369
1.17375
1.1738
1.17385
1.17388
1.17392
1.17394
1.17397
1.174
1.17403
1.16882
1.16882
1.16884
1.16885
1.16887
1.16889
1.16891
1.16894
1.16897
1.169
1.16903
1.16906
1.16909
1.16911
1.16913
1.16913
1.16912
1.16914
1.16918
1.16925
1.16931
1.16936
1.1694
1.16942
1.16944
1.16945
1.16946
1.16948
1.16951
1.16953
1.16955
1.16958
1.1696
1.16962
1.16964
1.17124
1.17125
1.17126
1.17126
1.17127
1.17128
1.17129
1.17131
1.17132
1.17135
1.17137
1.1714
1.17145
1.17151
1.17159
1.17169
1.1718
1.17191
1.17202
1.1721
1.17218
1.17228
1.17238
1.17247
1.17256
1.17264
1.1727
1.17275
1.1728
1.17283
1.17286
1.17288
1.1729
1.17292
1.17295
1.16997
1.16997
1.16999
1.17
1.17001
1.17003
1.17005
1.17008
1.1701
1.17013
1.17017
1.17021
1.17025
1.17028
1.17032
1.17035
1.17037
1.17039
1.17041
1.17044
1.17048
1.17053
1.17057
1.17059
1.17061
1.17062
1.17064
1.17066
1.17068
1.1707
1.17073
1.17075
1.17077
1.17079
1.17082
1.17092
1.17093
1.17094
1.17096
1.17097
1.17098
1.171
1.17101
1.17103
1.17106
1.17108
1.17111
1.17115
1.17121
1.17127
1.17135
1.17144
1.17153
1.17163
1.17173
1.17184
1.17193
1.17204
1.17213
1.1722
1.17227
1.17233
1.17238
1.17242
1.17245
1.17247
1.1725
1.17252
1.17253
1.17255
1.17061
1.17061
1.17062
1.17064
1.17065
1.17067
1.17068
1.17071
1.17073
1.17076
1.17079
1.17083
1.17087
1.17091
1.17096
1.171
1.17105
1.17109
1.17112
1.17116
1.1712
1.17123
1.17125
1.17128
1.17129
1.17131
1.17133
1.17135
1.17137
1.17139
1.17141
1.17143
1.17145
1.17147
1.1715
1.17102
1.17103
1.17104
1.17105
1.17106
1.17108
1.17109
1.17111
1.17113
1.17115
1.17118
1.17121
1.17125
1.1713
1.17135
1.17142
1.17148
1.17156
1.17163
1.17171
1.1718
1.17189
1.17198
1.17206
1.17213
1.17219
1.17225
1.17229
1.17232
1.17235
1.17238
1.17239
1.17241
1.17243
1.17245
1.17104
1.17104
1.17105
1.17106
1.17107
1.17109
1.17111
1.17112
1.17115
1.17117
1.1712
1.17124
1.17127
1.17132
1.17137
1.17142
1.17146
1.17151
1.17156
1.17161
1.17165
1.1717
1.17173
1.17176
1.17178
1.1718
1.17182
1.17184
1.17186
1.17187
1.17189
1.17191
1.17193
1.17195
1.17197
1.17126
1.17127
1.17128
1.17129
1.1713
1.17131
1.17133
1.17135
1.17136
1.17139
1.17141
1.17144
1.17148
1.17152
1.17157
1.17162
1.17168
1.17174
1.1718
1.17187
1.17193
1.17201
1.17208
1.17214
1.1722
1.17225
1.17229
1.17233
1.17236
1.17239
1.17241
1.17243
1.17244
1.17246
1.17248
1.17137
1.17138
1.17139
1.1714
1.17141
1.17142
1.17144
1.17146
1.17147
1.1715
1.17152
1.17155
1.17159
1.17163
1.17167
1.17172
1.17177
1.17182
1.17187
1.17192
1.17197
1.17202
1.17206
1.1721
1.17213
1.17215
1.17217
1.17219
1.17221
1.17223
1.17225
1.17226
1.17228
1.1723
1.17232
1.17154
1.17154
1.17155
1.17156
1.17157
1.17158
1.1716
1.17161
1.17163
1.17165
1.17168
1.1717
1.17174
1.17178
1.17182
1.17187
1.17192
1.17197
1.17202
1.17208
1.17213
1.17219
1.17225
1.1723
1.17235
1.17239
1.17242
1.17245
1.17248
1.1725
1.17252
1.17254
1.17256
1.17257
1.17259
1.17167
1.17167
1.17168
1.17169
1.1717
1.17171
1.17172
1.17174
1.17176
1.17178
1.1718
1.17183
1.17186
1.1719
1.17194
1.17198
1.17203
1.17208
1.17213
1.17217
1.17222
1.17227
1.17231
1.17235
1.17238
1.17241
1.17244
1.17246
1.17248
1.1725
1.17251
1.17253
1.17254
1.17256
1.17258
1.1718
1.17181
1.17181
1.17182
1.17183
1.17184
1.17186
1.17187
1.17189
1.17191
1.17193
1.17195
1.17198
1.17202
1.17206
1.1721
1.17215
1.17219
1.17224
1.17229
1.17234
1.17239
1.17244
1.17248
1.17252
1.17255
1.17258
1.17261
1.17263
1.17265
1.17267
1.17269
1.1727
1.17272
1.17274
1.17192
1.17193
1.17193
1.17194
1.17195
1.17196
1.17198
1.17199
1.172
1.17202
1.17204
1.17207
1.1721
1.17213
1.17217
1.17221
1.17225
1.1723
1.17234
1.17239
1.17243
1.17248
1.17252
1.17256
1.17259
1.17262
1.17264
1.17266
1.17268
1.1727
1.17272
1.17273
1.17275
1.17276
1.17278
1.17204
1.17204
1.17205
1.17206
1.17207
1.17208
1.17209
1.1721
1.17212
1.17213
1.17216
1.17218
1.17221
1.17224
1.17227
1.17231
1.17236
1.1724
1.17244
1.17248
1.17253
1.17257
1.17262
1.17266
1.17269
1.17272
1.17275
1.17277
1.17279
1.17281
1.17283
1.17284
1.17286
1.17287
1.17289
1.17214
1.17215
1.17216
1.17217
1.17217
1.17218
1.1722
1.17221
1.17222
1.17224
1.17226
1.17228
1.17231
1.17234
1.17237
1.17241
1.17245
1.17249
1.17253
1.17257
1.17261
1.17266
1.1727
1.17273
1.17277
1.17279
1.17282
1.17284
1.17286
1.17287
1.17289
1.1729
1.17292
1.17293
1.17295
1.17225
1.17225
1.17226
1.17227
1.17227
1.17228
1.17229
1.17231
1.17232
1.17234
1.17235
1.17238
1.1724
1.17243
1.17246
1.1725
1.17254
1.17258
1.17262
1.17266
1.1727
1.17274
1.17278
1.17282
1.17285
1.17287
1.1729
1.17292
1.17294
1.17296
1.17297
1.17299
1.173
1.17301
1.17303
1.17234
1.17235
1.17235
1.17236
1.17237
1.17238
1.17239
1.1724
1.17241
1.17243
1.17244
1.17246
1.17249
1.17252
1.17255
1.17258
1.17262
1.17266
1.1727
1.17274
1.17277
1.17281
1.17285
1.17289
1.17292
1.17294
1.17297
1.17299
1.173
1.17302
1.17303
1.17305
1.17306
1.17308
1.17309
1.17311
1.17309
1.17308
1.17306
1.17305
1.17304
1.17302
1.173
1.17299
1.17296
1.17294
1.17291
1.17288
1.17284
1.17281
1.17277
1.17274
1.1727
1.17267
1.17264
1.17261
1.17258
1.17256
1.17254
1.17252
1.1725
1.17249
1.17248
1.17247
1.17246
1.17245
1.17245
1.17244
1.17244
1.17243
1.17319
1.17317
1.17315
1.17314
1.17313
1.17312
1.1731
1.17308
1.17307
1.17304
1.17302
1.17299
1.17296
1.17293
1.17289
1.17286
1.17283
1.17279
1.17276
1.17273
1.1727
1.17267
1.17265
1.17263
1.17262
1.1726
1.17259
1.17258
1.17257
1.17256
1.17255
1.17255
1.17254
1.17254
1.17253
1.17326
1.17324
1.17323
1.17321
1.1732
1.17319
1.17317
1.17316
1.17314
1.17312
1.1731
1.17307
1.17304
1.17301
1.17297
1.17294
1.17291
1.17288
1.17284
1.17281
1.17279
1.17276
1.17274
1.17272
1.1727
1.17269
1.17268
1.17267
1.17266
1.17265
1.17265
1.17264
1.17263
1.17263