/*--------------------------------*- C++ -*----------------------------------*\
  =========                 |
  \\      /  F ield         | OpenFOAM: The Open Source CFD Toolbox
   \\    /   O peration     | Website:  https://openfoam.org
    \\  /    A nd           | Version:  8
     \\/     M anipulation  |
\*---------------------------------------------------------------------------*/
FoamFile
{
    version     2.0;
    format      ascii;
    class       volScalarField;
    location    "0.09";
    object      T;
}
// * * * * * * * * * * * * * * * * * * * * * * * * * * * * * * * * * * * * * //

dimensions      [0 0 0 1 0 0 0];

internalField   nonuniform List<scalar> 
15677
(
296.977
296.899
296.874
296.885
296.92
296.979
297.064
297.178
297.325
297.515
297.76
298.073
298.468
298.768
298.885
298.833
298.747
298.646
298.546
298.461
298.407
298.398
298.42
298.465
298.5
298.521
298.529
298.525
298.512
298.491
298.464
298.432
298.399
298.366
298.333
295.772
295.602
295.529
295.521
295.571
295.682
295.857
296.109
296.464
296.984
297.759
298.83
299.965
300.625
300.878
300.935
300.811
300.604
300.347
300.046
299.721
299.412
299.158
298.957
298.793
298.655
298.538
298.441
298.37
298.326
298.305
298.302
298.309
298.322
298.337
301.541
301.335
301.216
301.129
301.052
300.965
300.846
300.667
300.386
299.967
299.473
299.105
298.814
298.558
298.352
298.268
298.322
298.454
298.583
298.687
298.779
298.869
298.966
299.07
299.171
299.258
299.336
299.409
299.484
299.563
299.646
299.732
299.817
299.897
299.971
301.442
301.172
301.073
300.991
300.923
300.827
300.713
300.583
300.458
300.374
300.377
300.485
300.574
300.657
300.728
300.774
300.788
300.782
300.757
300.703
300.621
300.496
300.365
300.237
300.132
300.07
300.051
300.062
300.094
300.137
300.183
300.227
300.268
300.306
300.341
300.776
300.828
300.867
300.886
300.882
300.857
300.816
300.77
300.729
300.698
300.674
300.662
300.663
300.676
300.697
300.71
300.717
300.721
300.726
300.736
300.749
300.765
300.783
300.808
300.845
300.898
300.962
301.032
301.1
301.165
301.224
301.277
301.321
301.358
301.388
300.722
300.714
300.714
300.725
300.747
300.783
300.838
300.927
301.045
301.155
301.214
301.229
301.219
301.198
301.177
301.158
301.143
301.131
301.122
301.115
301.111
301.112
301.118
301.128
301.142
301.158
301.173
301.188
301.204
301.219
301.233
301.245
301.256
301.266
301.274
301.657
301.591
301.527
301.458
301.377
301.287
301.204
301.136
301.087
301.063
301.068
301.074
301.085
301.1
301.116
301.133
301.151
301.169
301.188
301.206
301.225
301.246
301.269
301.293
301.318
301.343
301.366
301.386
301.403
301.418
301.43
301.441
301.45
301.458
301.464
301.525
301.503
301.472
301.441
301.41
301.376
301.342
301.32
301.316
301.305
301.293
301.284
301.279
301.277
301.278
301.282
301.286
301.291
301.298
301.306
301.315
301.326
301.338
301.349
301.36
301.369
301.378
301.385
301.392
301.397
301.402
301.406
301.409
301.412
301.415
301.216
301.227
301.236
301.243
301.25
301.257
301.264
301.271
301.278
301.285
301.291
301.297
301.302
301.309
301.315
301.322
301.33
301.337
301.345
301.354
301.364
301.374
301.384
301.394
301.404
301.412
301.419
301.426
301.431
301.436
301.439
301.443
301.445
301.448
301.449
301.257
301.26
301.262
301.264
301.266
301.269
301.272
301.276
301.281
301.286
301.292
301.299
301.307
301.315
301.325
301.334
301.342
301.351
301.36
301.369
301.378
301.386
301.394
301.401
301.407
301.412
301.416
301.42
301.423
301.426
301.428
301.43
301.432
301.433
301.435
301.226
301.234
301.24
301.245
301.251
301.256
301.262
301.268
301.274
301.281
301.289
301.297
301.307
301.317
301.328
301.339
301.349
301.36
301.37
301.38
301.39
301.399
301.407
301.414
301.42
301.425
301.429
301.433
301.436
301.439
301.441
301.443
301.445
301.446
301.448
301.213
301.217
301.221
301.224
301.228
301.232
301.237
301.243
301.249
301.256
301.265
301.274
301.285
301.298
301.311
301.323
301.336
301.348
301.36
301.371
301.382
301.392
301.4
301.407
301.413
301.419
301.423
301.427
301.43
301.433
301.436
301.438
301.44
301.441
301.443
301.189
301.195
301.199
301.203
301.207
301.212
301.217
301.222
301.229
301.236
301.244
301.254
301.265
301.278
301.292
301.305
301.319
301.332
301.345
301.358
301.37
301.381
301.39
301.398
301.405
301.411
301.416
301.42
301.424
301.427
301.43
301.432
301.435
301.436
301.438
301.168
301.17
301.172
301.174
301.177
301.18
301.185
301.19
301.196
301.204
301.212
301.222
301.234
301.248
301.263
301.277
301.291
301.305
301.319
301.332
301.345
301.357
301.367
301.376
301.384
301.39
301.396
301.4
301.404
301.408
301.411
301.414
301.416
301.418
301.42
301.124
301.129
301.134
301.138
301.142
301.146
301.152
301.157
301.164
301.172
301.18
301.191
301.203
301.217
301.231
301.246
301.261
301.275
301.29
301.304
301.317
301.329
301.34
301.349
301.357
301.364
301.37
301.375
301.379
301.383
301.386
301.389
301.391
301.393
301.395
301.099
301.102
301.104
301.107
301.11
301.114
301.118
301.124
301.13
301.137
301.146
301.156
301.168
301.182
301.196
301.211
301.226
301.24
301.255
301.269
301.283
301.295
301.306
301.315
301.323
301.33
301.336
301.341
301.346
301.35
301.353
301.356
301.359
301.361
301.363
301.061
301.065
301.068
301.071
301.075
301.079
301.083
301.089
301.095
301.102
301.111
301.121
301.132
301.146
301.161
301.175
301.19
301.204
301.219
301.233
301.246
301.259
301.27
301.279
301.287
301.294
301.3
301.305
301.31
301.314
301.317
301.32
301.323
301.325
301.327
301.029
301.032
301.035
301.038
301.041
301.045
301.049
301.054
301.06
301.067
301.075
301.085
301.096
301.11
301.124
301.138
301.153
301.167
301.181
301.195
301.208
301.22
301.231
301.24
301.248
301.255
301.261
301.266
301.271
301.274
301.278
301.281
301.283
301.286
301.288
300.991
300.995
300.999
301.002
301.006
301.01
301.014
301.019
301.025
301.032
301.04
301.05
301.061
301.074
301.088
301.102
301.115
301.129
301.143
301.156
301.169
301.181
301.192
301.201
301.209
301.215
301.221
301.226
301.231
301.234
301.238
301.241
301.243
301.246
301.248
300.958
300.962
300.965
300.969
300.972
300.976
300.98
300.985
300.991
300.998
301.006
301.015
301.026
301.039
301.052
301.065
301.079
301.092
301.105
301.118
301.131
301.143
301.153
301.161
301.169
301.175
301.181
301.186
301.19
301.194
301.197
301.2
301.203
301.205
301.207
300.924
300.928
300.932
300.935
300.939
300.943
300.947
300.952
300.958
300.965
300.972
300.981
300.992
301.004
301.017
301.03
301.043
301.056
301.068
301.081
301.093
301.104
301.114
301.123
301.13
301.136
301.142
301.146
301.15
301.154
301.157
301.16
301.162
301.164
301.166
300.892
300.897
300.9
300.904
300.907
300.911
300.916
300.921
300.926
300.933
300.94
300.949
300.959
300.971
300.984
300.996
301.008
301.021
301.033
301.045
301.056
301.067
301.077
301.085
301.092
301.098
301.103
301.107
301.111
301.115
301.118
301.121
301.123
301.125
301.127
300.861
300.866
300.87
300.873
300.877
300.881
300.885
300.89
300.896
300.902
300.909
300.918
300.928
300.939
300.951
300.963
300.975
300.987
300.999
301.01
301.021
301.032
301.041
301.048
301.055
301.061
301.066
301.07
301.074
301.077
301.08
301.083
301.085
301.087
301.089
300.833
300.837
300.841
300.845
300.848
300.852
300.856
300.861
300.866
300.873
300.88
300.888
300.898
300.909
300.92
300.932
300.943
300.955
300.966
300.977
300.988
300.997
301.006
301.013
301.02
301.025
301.03
301.034
301.038
301.041
301.044
301.046
301.048
301.05
301.052
300.805
300.81
300.814
300.817
300.821
300.824
300.829
300.833
300.839
300.845
300.852
300.86
300.869
300.88
300.891
300.902
300.913
300.924
300.935
300.945
300.956
300.965
300.973
300.98
300.986
300.992
300.996
301
301.004
301.007
301.009
301.012
301.014
301.016
301.017
300.78
300.784
300.788
300.791
300.795
300.799
300.803
300.807
300.813
300.819
300.825
300.833
300.842
300.853
300.863
300.874
300.885
300.895
300.905
300.915
300.925
300.934
300.942
300.949
300.955
300.96
300.964
300.968
300.971
300.974
300.977
300.979
300.981
300.983
300.985
300.756
300.76
300.764
300.767
300.771
300.774
300.778
300.783
300.788
300.794
300.8
300.808
300.817
300.827
300.837
300.847
300.858
300.868
300.878
300.887
300.897
300.905
300.913
300.919
300.925
300.93
300.934
300.938
300.941
300.944
300.946
300.948
300.95
300.952
300.954
300.733
300.738
300.741
300.744
300.748
300.751
300.755
300.76
300.765
300.77
300.777
300.784
300.793
300.803
300.813
300.823
300.832
300.842
300.852
300.861
300.87
300.878
300.886
300.892
300.897
300.902
300.906
300.909
300.912
300.915
300.917
300.92
300.921
300.923
300.925
300.712
300.717
300.72
300.723
300.726
300.73
300.734
300.738
300.743
300.749
300.755
300.762
300.77
300.78
300.79
300.799
300.809
300.818
300.827
300.836
300.845
300.853
300.86
300.866
300.871
300.876
300.879
300.883
300.886
300.888
300.891
300.893
300.895
300.896
300.898
300.692
300.697
300.7
300.703
300.707
300.71
300.714
300.718
300.723
300.728
300.734
300.741
300.749
300.758
300.768
300.777
300.786
300.795
300.804
300.813
300.821
300.829
300.836
300.842
300.847
300.851
300.855
300.858
300.861
300.863
300.866
300.868
300.87
300.871
300.873
298.292
298.239
298.183
298.122
298.058
297.993
297.932
297.876
297.829
297.793
297.772
297.767
297.777
297.801
297.832
297.868
297.903
297.937
297.966
297.991
298.012
298.03
298.35
298.356
298.357
298.354
298.347
298.335
298.318
298.296
298.273
298.249
298.227
298.21
298.201
298.202
298.214
298.238
298.271
298.311
298.357
298.406
298.454
298.498
300.057
300.163
300.272
300.38
300.488
300.592
300.692
300.79
300.884
300.977
301.068
301.158
301.244
301.323
301.395
301.459
301.514
301.558
301.589
301.608
301.614
301.607
300.378
300.423
300.47
300.518
300.564
300.606
300.644
300.674
300.699
300.717
300.729
300.736
300.738
300.738
300.735
300.73
300.724
300.716
300.707
300.696
300.684
300.671
301.416
301.441
301.461
301.479
301.494
301.506
301.518
301.528
301.537
301.544
301.55
301.553
301.556
301.557
301.556
301.553
301.548
301.54
301.53
301.517
301.5
301.481
301.282
301.292
301.301
301.309
301.317
301.324
301.33
301.335
301.34
301.343
301.345
301.346
301.345
301.343
301.339
301.334
301.328
301.321
301.312
301.303
301.293
301.282
301.471
301.478
301.485
301.491
301.496
301.501
301.505
301.508
301.509
301.51
301.508
301.506
301.502
301.497
301.491
301.484
301.476
301.467
301.458
301.448
301.437
301.426
301.418
301.421
301.424
301.427
301.43
301.432
301.434
301.435
301.436
301.436
301.435
301.433
301.43
301.427
301.423
301.418
301.412
301.406
301.4
301.393
301.386
301.378
301.451
301.453
301.455
301.457
301.459
301.46
301.461
301.461
301.461
301.46
301.459
301.457
301.454
301.451
301.447
301.443
301.438
301.433
301.428
301.422
301.416
301.41
301.436
301.438
301.439
301.441
301.442
301.443
301.443
301.444
301.444
301.444
301.443
301.442
301.44
301.438
301.435
301.433
301.429
301.426
301.422
301.418
301.414
301.41
301.449
301.45
301.451
301.453
301.454
301.454
301.455
301.455
301.456
301.455
301.455
301.454
301.453
301.451
301.45
301.448
301.445
301.443
301.44
301.438
301.435
301.432
301.444
301.447
301.449
301.45
301.452
301.454
301.455
301.456
301.457
301.458
301.458
301.459
301.458
301.458
301.457
301.457
301.455
301.454
301.453
301.451
301.449
301.447
301.44
301.443
301.446
301.449
301.451
301.454
301.456
301.458
301.46
301.462
301.463
301.464
301.465
301.466
301.466
301.466
301.466
301.466
301.465
301.464
301.463
301.462
301.423
301.427
301.431
301.435
301.439
301.443
301.446
301.45
301.453
301.456
301.458
301.461
301.463
301.464
301.466
301.467
301.468
301.468
301.469
301.469
301.469
301.469
301.399
301.404
301.41
301.415
301.42
301.425
301.429
301.434
301.438
301.442
301.446
301.45
301.454
301.457
301.459
301.461
301.463
301.465
301.466
301.467
301.468
301.469
301.367
301.373
301.38
301.386
301.392
301.398
301.404
301.41
301.416
301.421
301.426
301.431
301.436
301.44
301.444
301.448
301.451
301.453
301.456
301.458
301.46
301.462
301.332
301.339
301.346
301.353
301.36
301.367
301.374
301.381
301.388
301.394
301.401
301.407
301.413
301.418
301.423
301.428
301.432
301.435
301.439
301.442
301.445
301.447
301.293
301.301
301.309
301.316
301.324
301.332
301.34
301.348
301.356
301.363
301.371
301.378
301.385
301.391
301.397
301.403
301.408
301.413
301.417
301.421
301.424
301.428
301.253
301.261
301.27
301.278
301.287
301.295
301.304
301.313
301.321
301.33
301.338
301.346
301.354
301.362
301.368
301.375
301.381
301.386
301.391
301.396
301.4
301.404
301.212
301.221
301.23
301.239
301.248
301.258
301.267
301.276
301.285
301.295
301.304
301.313
301.322
301.33
301.337
301.344
301.351
301.357
301.363
301.369
301.374
301.378
301.172
301.181
301.19
301.2
301.21
301.219
301.229
301.239
301.249
301.259
301.269
301.279
301.288
301.297
301.305
301.313
301.32
301.327
301.334
301.34
301.345
301.351
301.132
301.142
301.152
301.162
301.172
301.182
301.192
301.202
301.213
301.223
301.233
301.244
301.254
301.263
301.272
301.281
301.289
301.296
301.303
301.31
301.316
301.322
301.094
301.104
301.114
301.124
301.134
301.145
301.155
301.166
301.177
301.188
301.199
301.21
301.22
301.23
301.239
301.248
301.257
301.265
301.272
301.28
301.286
301.293
301.058
301.068
301.078
301.088
301.099
301.109
301.12
301.131
301.142
301.153
301.165
301.176
301.187
301.197
301.207
301.217
301.225
301.234
301.242
301.25
301.257
301.264
301.023
301.033
301.043
301.054
301.064
301.075
301.086
301.097
301.109
301.12
301.132
301.143
301.155
301.165
301.176
301.185
301.195
301.204
301.212
301.22
301.228
301.235
300.99
301
301.01
301.021
301.032
301.043
301.054
301.065
301.077
301.088
301.1
301.112
301.124
301.135
301.145
301.155
301.165
301.174
301.183
301.191
301.199
301.207
300.959
300.969
300.98
300.99
301.001
301.012
301.023
301.035
301.046
301.058
301.07
301.082
301.094
301.105
301.116
301.126
301.136
301.146
301.155
301.163
301.171
301.179
300.93
300.94
300.951
300.961
300.972
300.983
300.994
301.006
301.017
301.029
301.041
301.054
301.066
301.077
301.088
301.099
301.109
301.118
301.128
301.136
301.145
301.153
300.903
300.913
300.923
300.934
300.945
300.956
300.967
300.979
300.99
301.002
301.015
301.027
301.039
301.051
301.062
301.072
301.082
301.092
301.102
301.111
301.119
301.128
300.878
300.888
300.898
300.909
300.919
300.93
300.942
300.953
300.965
300.977
300.989
301.002
301.014
301.025
301.037
301.047
301.058
301.068
301.077
301.086
301.095
301.104
298.045
298.053
298.054
298.052
298.046
298.04
298.546
298.592
298.624
298.642
298.649
298.65
301.594
301.571
301.534
301.485
301.427
301.359
300.654
300.634
300.613
300.59
300.566
300.542
301.459
301.435
301.405
301.372
301.335
301.295
301.269
301.253
301.238
301.223
301.207
301.192
301.413
301.4
301.386
301.371
301.356
301.341
301.37
301.36
301.351
301.341
301.332
301.323
301.404
301.397
301.389
301.382
301.374
301.367
301.406
301.401
301.396
301.392
301.387
301.383
301.429
301.427
301.424
301.422
301.419
301.416
301.445
301.444
301.443
301.442
301.44
301.439
301.461
301.461
301.46
301.46
301.459
301.458
301.469
301.469
301.469
301.468
301.468
301.467
301.469
301.469
301.469
301.469
301.469
301.468
301.462
301.463
301.463
301.463
301.462
301.462
301.449
301.449
301.449
301.449
301.449
301.448
301.429
301.43
301.43
301.43
301.429
301.429
301.407
301.407
301.407
301.407
301.407
301.406
301.381
301.381
301.381
301.381
301.381
301.38
301.354
301.354
301.354
301.354
301.353
301.353
301.325
301.325
301.325
301.325
301.325
301.325
301.296
301.296
301.296
301.296
301.296
301.296
301.267
301.267
301.267
301.267
301.267
301.267
301.239
301.239
301.239
301.239
301.238
301.238
301.21
301.211
301.211
301.211
301.21
301.21
301.183
301.183
301.184
301.183
301.183
301.183
301.157
301.157
301.157
301.157
301.157
301.157
301.132
301.132
301.132
301.132
301.132
301.131
301.108
301.108
301.108
301.108
301.108
301.107
298.035
298.032
298.034
298.04
298.048
298.059
298.07
298.082
298.095
298.108
298.123
298.139
298.156
298.174
298.194
298.214
298.235
298.254
298.271
298.284
298.293
298.298
298.652
298.661
298.672
298.687
298.705
298.727
298.752
298.78
298.81
298.841
298.877
298.917
298.963
299.013
299.065
299.11
299.145
299.17
299.183
299.188
299.186
299.179
301.294
301.231
301.157
301.072
300.977
300.873
300.761
300.645
300.529
300.417
300.315
300.226
300.156
300.104
300.065
300.039
300.022
300.015
300.016
300.024
300.04
300.062
300.521
300.502
300.483
300.464
300.444
300.425
300.408
300.394
300.384
300.381
300.383
300.394
300.412
300.435
300.458
300.479
300.494
300.501
300.498
300.485
300.464
300.435
301.26
301.231
301.204
301.177
301.153
301.133
301.118
301.108
301.105
301.108
301.114
301.123
301.131
301.137
301.141
301.143
301.143
301.141
301.138
301.134
301.128
301.118
301.18
301.169
301.159
301.15
301.141
301.132
301.123
301.114
301.105
301.095
301.083
301.07
301.056
301.042
301.027
301.013
301
300.987
300.975
300.965
300.954
300.944
301.328
301.318
301.308
301.299
301.289
301.28
301.272
301.263
301.254
301.246
301.237
301.229
301.221
301.213
301.205
301.197
301.19
301.182
301.175
301.168
301.162
301.155
301.315
301.309
301.302
301.296
301.289
301.283
301.277
301.271
301.266
301.26
301.255
301.249
301.245
301.241
301.237
301.234
301.232
301.231
301.23
301.229
301.229
301.23
301.361
301.356
301.352
301.348
301.344
301.34
301.337
301.333
301.331
301.328
301.326
301.324
301.323
301.322
301.322
301.321
301.321
301.322
301.322
301.322
301.323
301.324
301.38
301.378
301.377
301.375
301.374
301.374
301.373
301.373
301.372
301.373
301.373
301.374
301.375
301.376
301.377
301.379
301.38
301.382
301.383
301.385
301.386
301.387
301.415
301.415
301.414
301.414
301.414
301.414
301.415
301.415
301.415
301.416
301.416
301.417
301.417
301.417
301.418
301.418
301.418
301.418
301.418
301.418
301.417
301.416
301.439
301.439
301.44
301.44
301.441
301.441
301.442
301.442
301.443
301.443
301.444
301.444
301.444
301.444
301.443
301.443
301.442
301.441
301.44
301.439
301.437
301.436
301.458
301.458
301.459
301.459
301.459
301.459
301.459
301.459
301.458
301.457
301.456
301.455
301.454
301.452
301.45
301.448
301.445
301.442
301.439
301.436
301.433
301.43
301.467
301.467
301.467
301.466
301.466
301.465
301.464
301.463
301.461
301.459
301.457
301.455
301.452
301.449
301.446
301.442
301.438
301.434
301.43
301.426
301.422
301.417
301.468
301.467
301.466
301.465
301.463
301.462
301.46
301.457
301.454
301.451
301.448
301.444
301.439
301.435
301.43
301.425
301.419
301.414
301.408
301.402
301.396
301.39
301.461
301.459
301.457
301.455
301.453
301.45
301.446
301.443
301.439
301.434
301.429
301.424
301.418
301.412
301.406
301.4
301.393
301.387
301.38
301.373
301.366
301.36
301.447
301.444
301.441
301.438
301.434
301.43
301.426
301.421
301.416
301.411
301.404
301.398
301.391
301.383
301.376
301.369
301.361
301.354
301.346
301.338
301.331
301.323
301.427
301.424
301.42
301.416
301.411
301.406
301.401
301.395
301.389
301.382
301.375
301.367
301.359
301.351
301.343
301.335
301.326
301.318
301.31
301.301
301.293
301.285
301.404
301.4
301.395
301.39
301.385
301.379
301.373
301.366
301.359
301.351
301.343
301.335
301.326
301.317
301.308
301.298
301.289
301.28
301.271
301.262
301.254
301.245
301.378
301.373
301.367
301.362
301.356
301.349
301.342
301.335
301.327
301.318
301.31
301.3
301.29
301.281
301.271
301.261
301.252
301.242
301.232
301.223
301.214
301.205
301.35
301.344
301.338
301.332
301.325
301.318
301.31
301.302
301.294
301.285
301.275
301.265
301.255
301.244
301.234
301.224
301.214
301.204
301.194
301.184
301.174
301.165
301.321
301.315
301.308
301.301
301.294
301.286
301.278
301.27
301.26
301.251
301.241
301.23
301.219
301.208
301.197
301.187
301.176
301.166
301.155
301.145
301.135
301.126
301.292
301.285
301.278
301.271
301.263
301.255
301.246
301.237
301.227
301.217
301.206
301.195
301.184
301.173
301.161
301.15
301.14
301.129
301.118
301.108
301.098
301.088
301.263
301.256
301.248
301.24
301.232
301.223
301.214
301.205
301.194
301.184
301.173
301.161
301.15
301.138
301.127
301.115
301.104
301.093
301.083
301.072
301.062
301.052
301.234
301.226
301.219
301.21
301.202
301.193
301.183
301.173
301.163
301.152
301.14
301.129
301.117
301.105
301.093
301.082
301.07
301.059
301.049
301.038
301.028
301.017
301.206
301.198
301.19
301.181
301.172
301.163
301.153
301.143
301.132
301.121
301.109
301.097
301.085
301.073
301.061
301.05
301.038
301.027
301.016
301.005
300.995
300.985
301.178
301.17
301.162
301.153
301.144
301.134
301.124
301.114
301.103
301.091
301.079
301.067
301.055
301.043
301.031
301.019
301.008
300.996
300.986
300.975
300.964
300.954
301.152
301.144
301.135
301.126
301.117
301.107
301.097
301.086
301.075
301.063
301.051
301.039
301.026
301.014
301.002
300.99
300.979
300.968
300.957
300.946
300.936
300.926
301.127
301.118
301.11
301.1
301.091
301.081
301.07
301.06
301.048
301.037
301.025
301.012
301
300.987
300.975
300.964
300.952
300.941
300.93
300.919
300.909
300.899
301.103
301.094
301.085
301.076
301.066
301.056
301.046
301.035
301.023
301.012
301
300.987
300.975
300.962
300.95
300.938
300.927
300.916
300.905
300.894
300.884
300.874
298.299
298.301
298.301
298.296
298.282
298.255
298.21
298.14
298.042
297.914
297.748
297.567
297.394
297.24
297.147
297.122
297.162
297.256
297.38
297.532
297.725
297.958
298.189
298.31
298.353
298.343
298.294
298.237
298.195
298.171
298.147
298.129
298.126
298.149
298.218
299.168
299.155
299.139
299.122
299.104
299.084
299.06
299.028
298.978
298.901
298.781
298.631
298.458
298.285
298.145
298.078
298.071
298.174
298.417
298.818
299.336
299.902
300.393
300.734
300.901
300.816
300.441
299.857
299.349
299.012
298.86
298.843
298.9
299.022
299.223
300.083
300.102
300.128
300.16
300.199
300.242
300.287
300.328
300.361
300.377
300.363
300.31
300.203
300.031
299.798
299.513
299.202
298.921
298.708
298.559
298.468
298.403
298.35
298.372
298.48
298.693
298.938
299.207
299.558
299.982
300.434
300.88
301.316
301.766
302.292
300.405
300.377
300.347
300.314
300.28
300.246
300.213
300.183
300.156
300.138
300.131
300.143
300.185
300.271
300.401
300.554
300.701
300.831
300.932
300.979
300.924
300.742
300.534
300.472
300.518
300.477
300.33
300.255
300.408
300.74
301.125
301.487
301.807
302.106
302.352
301.105
301.09
301.069
301.04
301.002
300.953
300.892
300.818
300.732
300.638
300.541
300.453
300.384
300.335
300.307
300.299
300.307
300.329
300.366
300.422
300.504
300.611
300.752
300.903
301.047
301.119
301.091
300.992
300.88
300.796
300.741
300.706
300.686
300.677
300.682
300.936
300.929
300.921
300.913
300.904
300.893
300.882
300.87
300.858
300.847
300.837
300.83
300.829
300.841
300.872
300.924
300.993
301.078
301.178
301.284
301.381
301.438
301.431
301.361
301.259
301.152
301.057
300.983
300.93
300.898
300.883
300.883
300.892
300.913
300.957
301.149
301.142
301.133
301.123
301.112
301.1
301.086
301.072
301.056
301.039
301.022
301.007
300.998
300.996
301
301.011
301.027
301.048
301.075
301.107
301.143
301.172
301.155
301.127
301.128
301.171
301.234
301.304
301.376
301.439
301.488
301.526
301.564
301.608
301.658
301.229
301.227
301.226
301.224
301.222
301.22
301.219
301.217
301.217
301.216
301.217
301.219
301.221
301.226
301.234
301.247
301.266
301.292
301.328
301.371
301.418
301.445
301.439
301.418
301.409
301.41
301.42
301.434
301.451
301.468
301.488
301.509
301.53
301.552
301.566
301.323
301.321
301.319
301.316
301.313
301.31
301.306
301.301
301.297
301.292
301.288
301.284
301.28
301.278
301.277
301.276
301.276
301.275
301.274
301.272
301.267
301.259
301.247
301.235
301.222
301.209
301.197
301.185
301.174
301.163
301.153
301.144
301.134
301.124
301.111
301.388
301.387
301.386
301.385
301.383
301.382
301.38
301.378
301.376
301.373
301.37
301.367
301.363
301.359
301.353
301.346
301.339
301.332
301.324
301.316
301.307
301.295
301.283
301.272
301.263
301.255
301.249
301.245
301.243
301.242
301.243
301.244
301.247
301.251
301.256
301.415
301.414
301.412
301.409
301.407
301.404
301.401
301.397
301.392
301.387
301.381
301.374
301.366
301.357
301.346
301.334
301.322
301.309
301.295
301.281
301.266
301.249
301.233
301.217
301.203
301.19
301.177
301.166
301.155
301.144
301.134
301.125
301.116
301.107
301.096
301.434
301.432
301.43
301.428
301.426
301.423
301.419
301.416
301.411
301.406
301.399
301.392
301.383
301.373
301.361
301.348
301.334
301.319
301.304
301.289
301.273
301.258
301.243
301.23
301.219
301.21
301.203
301.197
301.193
301.19
301.187
301.186
301.185
301.185
301.186
301.427
301.425
301.423
301.42
301.417
301.414
301.41
301.405
301.399
301.393
301.385
301.377
301.366
301.354
301.34
301.325
301.309
301.293
301.277
301.26
301.243
301.226
301.209
301.195
301.182
301.171
301.161
301.151
301.143
301.135
301.128
301.121
301.115
301.108
301.1
301.414
301.411
301.409
301.406
301.403
301.4
301.395
301.391
301.385
301.378
301.371
301.362
301.351
301.339
301.325
301.31
301.294
301.277
301.261
301.244
301.228
301.211
301.196
301.183
301.172
301.163
301.155
301.149
301.144
301.14
301.136
301.133
301.13
301.128
301.125
301.386
301.384
301.381
301.379
301.375
301.371
301.367
301.362
301.356
301.349
301.341
301.332
301.321
301.308
301.294
301.278
301.261
301.245
301.228
301.211
301.195
301.178
301.161
301.147
301.135
301.125
301.115
301.107
301.1
301.093
301.087
301.082
301.077
301.071
301.065
301.355
301.353
301.35
301.347
301.344
301.34
301.336
301.331
301.325
301.318
301.31
301.301
301.29
301.277
301.263
301.248
301.232
301.215
301.199
301.183
301.166
301.15
301.134
301.121
301.11
301.101
301.093
301.087
301.081
301.076
301.072
301.068
301.064
301.061
301.057
301.318
301.316
301.313
301.31
301.307
301.303
301.299
301.294
301.288
301.281
301.273
301.264
301.253
301.241
301.227
301.211
301.195
301.179
301.163
301.147
301.131
301.115
301.099
301.086
301.075
301.065
301.056
301.049
301.042
301.037
301.031
301.026
301.022
301.017
301.011
301.28
301.277
301.275
301.272
301.268
301.265
301.26
301.255
301.25
301.243
301.235
301.226
301.216
301.204
301.19
301.175
301.16
301.144
301.129
301.113
301.098
301.082
301.068
301.055
301.045
301.035
301.028
301.021
301.015
301.011
301.006
301.002
300.999
300.995
300.99
301.239
301.237
301.234
301.232
301.228
301.225
301.22
301.216
301.21
301.203
301.196
301.187
301.177
301.165
301.152
301.138
301.123
301.108
301.092
301.077
301.062
301.047
301.033
301.02
301.01
301.001
300.993
300.986
300.98
300.975
300.97
300.966
300.962
300.957
300.952
301.199
301.197
301.194
301.191
301.188
301.185
301.181
301.176
301.17
301.164
301.157
301.148
301.139
301.127
301.115
301.101
301.086
301.072
301.057
301.043
301.028
301.014
301
300.988
300.978
300.97
300.963
300.956
300.951
300.946
300.941
300.938
300.934
300.93
300.924
301.159
301.157
301.154
301.152
301.149
301.145
301.141
301.137
301.131
301.125
301.118
301.11
301.101
301.09
301.078
301.064
301.05
301.037
301.023
301.009
300.995
300.981
300.967
300.956
300.946
300.938
300.93
300.924
300.919
300.914
300.909
300.905
300.902
300.898
300.893
301.12
301.118
301.115
301.113
301.11
301.107
301.103
301.098
301.093
301.087
301.081
301.073
301.064
301.054
301.042
301.029
301.016
301.002
300.989
300.976
300.962
300.949
300.936
300.925
300.916
300.908
300.901
300.895
300.889
300.885
300.881
300.877
300.873
300.869
300.864
301.082
301.08
301.078
301.075
301.072
301.069
301.066
301.061
301.057
301.051
301.045
301.037
301.028
301.018
301.007
300.995
300.982
300.969
300.957
300.944
300.931
300.918
300.906
300.895
300.886
300.878
300.871
300.866
300.86
300.856
300.852
300.848
300.844
300.841
300.836
301.046
301.044
301.042
301.039
301.037
301.034
301.03
301.026
301.021
301.016
301.01
301.003
300.994
300.985
300.974
300.962
300.95
300.938
300.926
300.913
300.901
300.889
300.877
300.867
300.858
300.85
300.844
300.838
300.833
300.829
300.825
300.821
300.817
300.813
300.808
301.012
301.01
301.008
301.005
301.003
301
300.996
300.992
300.988
300.983
300.977
300.97
300.962
300.953
300.943
300.931
300.92
300.908
300.896
300.884
300.873
300.861
300.849
300.84
300.831
300.824
300.817
300.812
300.807
300.803
300.799
300.795
300.792
300.788
300.783
300.979
300.977
300.975
300.973
300.97
300.967
300.964
300.961
300.956
300.951
300.946
300.939
300.932
300.923
300.913
300.902
300.891
300.88
300.868
300.857
300.846
300.834
300.823
300.814
300.806
300.799
300.792
300.787
300.782
300.778
300.774
300.771
300.767
300.764
300.759
300.948
300.947
300.945
300.942
300.94
300.937
300.934
300.931
300.926
300.922
300.916
300.91
300.903
300.894
300.885
300.874
300.864
300.853
300.842
300.831
300.82
300.809
300.799
300.789
300.781
300.775
300.769
300.763
300.759
300.755
300.751
300.748
300.744
300.741
300.736
300.92
300.918
300.916
300.914
300.912
300.909
300.906
300.902
300.898
300.894
300.889
300.883
300.876
300.868
300.858
300.848
300.838
300.828
300.817
300.807
300.796
300.785
300.775
300.766
300.759
300.752
300.746
300.741
300.737
300.733
300.729
300.726
300.723
300.719
300.714
300.893
300.891
300.889
300.887
300.885
300.882
300.88
300.876
300.872
300.868
300.863
300.857
300.85
300.842
300.834
300.824
300.814
300.804
300.794
300.784
300.774
300.763
300.753
300.745
300.737
300.731
300.725
300.72
300.716
300.712
300.709
300.705
300.702
300.699
300.694
300.868
300.866
300.865
300.863
300.86
300.858
300.855
300.852
300.848
300.844
300.839
300.833
300.827
300.819
300.81
300.801
300.792
300.782
300.772
300.762
300.752
300.742
300.733
300.725
300.717
300.711
300.706
300.701
300.697
300.693
300.689
300.686
300.683
300.68
300.675
300.672
300.676
300.68
300.683
300.686
300.689
300.693
300.697
300.702
300.707
300.713
300.72
300.727
300.736
300.746
300.755
300.763
300.772
300.781
300.789
300.797
300.805
300.811
300.817
300.822
300.826
300.829
300.833
300.835
300.838
300.84
300.842
300.844
300.845
300.847
300.651
300.656
300.659
300.662
300.665
300.668
300.672
300.676
300.68
300.685
300.691
300.698
300.705
300.714
300.723
300.731
300.74
300.748
300.757
300.765
300.773
300.78
300.786
300.792
300.796
300.8
300.804
300.807
300.809
300.812
300.814
300.816
300.818
300.819
300.821
300.632
300.636
300.64
300.643
300.646
300.649
300.652
300.656
300.661
300.665
300.671
300.677
300.685
300.693
300.702
300.71
300.718
300.727
300.735
300.743
300.75
300.757
300.763
300.769
300.773
300.777
300.78
300.783
300.786
300.788
300.79
300.792
300.794
300.795
300.797
300.615
300.619
300.622
300.625
300.628
300.631
300.635
300.638
300.643
300.647
300.653