/*--------------------------------*- C++ -*----------------------------------*\
  =========                 |
  \\      /  F ield         | OpenFOAM: The Open Source CFD Toolbox
   \\    /   O peration     | Website:  https://openfoam.org
    \\  /    A nd           | Version:  8
     \\/     M anipulation  |
\*---------------------------------------------------------------------------*/
FoamFile
{
    version     2.0;
    format      ascii;
    class       volVectorField;
    location    "0.09";
    object      U;
}
// * * * * * * * * * * * * * * * * * * * * * * * * * * * * * * * * * * * * * //

dimensions      [0 1 -1 0 0 0 0];

internalField   nonuniform List<vector> 
15677
(
(-0.266763 -134.422 0)
(-0.543886 -133.105 0)
(-0.860139 -128.19 0)
(-1.16093 -123.316 0)
(-1.47435 -118.479 0)
(-1.82774 -113.667 0)
(-2.22722 -108.879 0)
(-2.67454 -104.082 0)
(-3.14539 -99.1688 0)
(-3.5563 -93.8941 0)
(-3.69216 -87.7148 0)
(-3.24216 -79.8345 0)
(-2.11236 -71.688 0)
(0.00847125 -67.9835 0)
(2.64849 -68.4607 0)
(5.38587 -71.3004 0)
(8.17322 -73.0778 0)
(10.572 -74.8933 0)
(12.6687 -76.8122 0)
(14.3572 -78.724 0)
(15.5772 -80.5246 0)
(16.3269 -81.8509 0)
(16.7125 -82.3127 0)
(16.8234 -81.8234 0)
(16.7579 -80.8706 0)
(16.594 -79.7094 0)
(16.3719 -78.5384 0)
(16.1217 -77.4826 0)
(15.8628 -76.5104 0)
(15.607 -75.5953 0)
(15.3695 -74.7801 0)
(15.1648 -74.0901 0)
(14.9984 -73.538 0)
(14.8709 -73.1268 0)
(14.7954 -72.8519 0)
(-1.91686 130.594 0)
(-5.31111 129.334 0)
(-9.45139 125.416 0)
(-14.0788 121.174 0)
(-19.1655 116.561 0)
(-24.5578 111.484 0)
(-30.0914 105.801 0)
(-35.5295 99.2305 0)
(-40.5799 91.2318 0)
(-44.3416 80.5922 0)
(-46.2709 65.5606 0)
(-45.4069 46.5996 0)
(-40.86 29.6128 0)
(-33.8578 19.3244 0)
(-25.6572 16.9079 0)
(-18.1885 18.1163 0)
(-11.0323 22.5978 0)
(-4.95987 28.4077 0)
(0.711205 34.5179 0)
(5.744 41.2018 0)
(10.3052 48.2783 0)
(14.1609 54.8338 0)
(17.2378 60.2589 0)
(19.8185 64.2213 0)
(22.0546 67.1748 0)
(24.0196 69.5891 0)
(25.7376 71.7421 0)
(27.2316 73.7521 0)
(28.4831 75.6509 0)
(29.4731 77.2971 0)
(30.2067 78.5321 0)
(30.7262 79.4105 0)
(31.0637 79.9898 0)
(31.2402 80.3276 0)
(31.2797 80.4483 0)
(0.693331 68.4226 0)
(1.16441 67.4625 0)
(1.9393 62.729 0)
(2.80305 57.4879 0)
(3.73631 51.2209 0)
(4.76461 43.408 0)
(5.82343 33.3749 0)
(6.90547 20.1253 0)
(7.99237 2.92249 0)
(8.91648 -18.8478 0)
(9.77204 -44.2883 0)
(9.43538 -65.9692 0)
(7.39915 -81.2875 0)
(3.60043 -89.6095 0)
(-0.950085 -91.5194 0)
(-4.7455 -89.8555 0)
(-8.62847 -86.4582 0)
(-11.1507 -82.7463 0)
(-13.2033 -79.8895 0)
(-14.4653 -77.4899 0)
(-15.0136 -75.4068 0)
(-14.9388 -73.6644 0)
(-14.4946 -72.3948 0)
(-13.9882 -71.5078 0)
(-13.5583 -70.7771 0)
(-13.2187 -69.9437 0)
(-12.9583 -68.9209 0)
(-12.7599 -67.667 0)
(-12.5849 -66.1024 0)
(-12.3841 -64.2107 0)
(-12.1427 -62.0367 0)
(-11.885 -59.8294 0)
(-11.61 -57.7249 0)
(-11.3151 -55.8351 0)
(-10.9908 -54.2002 0)
(1.9289 37.3486 0)
(5.20002 57.9214 0)
(8.89284 61.1964 0)
(12.8572 60.6625 0)
(17.0691 58.6143 0)
(21.5341 55.5217 0)
(26.25 51.6468 0)
(31.0146 47.3519 0)
(35.5884 42.7727 0)
(39.4391 38.6923 0)
(42.1805 35.9449 0)
(42.3424 31.8077 0)
(41.4252 26.8061 0)
(39.3594 22.0835 0)
(36.7082 18.6514 0)
(34.2449 16.3929 0)
(32.1742 14.8506 0)
(30.5701 13.7528 0)
(29.3472 13.3247 0)
(28.3767 13.9259 0)
(27.5219 15.7861 0)
(26.6671 19.0552 0)
(25.6146 23.5154 0)
(24.3263 28.772 0)
(22.7003 34.1147 0)
(20.7329 38.6254 0)
(18.687 42.3026 0)
(16.6203 45.3004 0)
(14.5927 47.7036 0)
(12.6579 49.5662 0)
(10.8599 50.9385 0)
(9.22099 51.873 0)
(7.73906 52.4297 0)
(6.40335 52.7301 0)
(5.20182 52.854 0)
(-0.69556 -52.1714 0)
(-0.813 -50.088 0)
(-0.893479 -46.3694 0)
(-0.846299 -43.3933 0)
(-0.718348 -41.3738 0)
(-0.531876 -40.1728 0)
(-0.303395 -39.3991 0)
(0.0775893 -38.8094 0)
(0.630318 -38.4805 0)
(1.25397 -38.7305 0)
(2.03708 -39.4525 0)
(2.8002 -40.0646 0)
(3.23823 -40.3862 0)
(3.07615 -40.3506 0)
(2.3877 -40.1117 0)
(1.34211 -39.9547 0)
(-0.0608561 -39.9343 0)
(-1.71025 -39.8649 0)
(-3.58594 -39.5817 0)
(-5.67551 -38.9432 0)
(-7.88996 -37.8256 0)
(-9.95832 -36.1468 0)
(-11.5483 -33.9004 0)
(-12.5559 -31.0815 0)
(-12.9915 -27.65 0)
(-12.9779 -23.6324 0)
(-12.812 -19.6759 0)
(-12.522 -16.2328 0)
(-12.1019 -13.3927 0)
(-11.6033 -11.1315 0)
(-11.0615 -9.383 0)
(-10.5067 -8.06438 0)
(-9.96128 -7.09244 0)
(-9.43274 -6.39118 0)
(-8.92743 -5.89679 0)
(-0.716827 50.3108 0)
(-1.815 48.1725 0)
(-3.03192 45.4158 0)
(-4.18507 42.5856 0)
(-5.25081 39.4632 0)
(-6.13752 35.7345 0)
(-6.73786 30.8125 0)
(-6.92164 24.437 0)
(-6.53182 17.4046 0)
(-5.58226 11.3431 0)
(-4.48212 7.31479 0)
(-3.37832 5.20687 0)
(-2.43045 4.21716 0)
(-1.63171 3.76101 0)
(-1.0784 3.89454 0)
(-0.759233 4.54391 0)
(-0.625792 5.33142 0)
(-0.701309 6.26961 0)
(-0.958131 7.7522 0)
(-1.3891 9.93856 0)
(-1.97689 12.7571 0)
(-2.74715 15.8111 0)
(-3.67763 18.5104 0)
(-4.60161 20.54 0)
(-5.33324 22.0111 0)
(-5.84337 22.9969 0)
(-6.1018 23.8035 0)
(-6.14668 24.5895 0)
(-6.09567 25.3385 0)
(-6.00901 26.0181 0)
(-5.91798 26.6207 0)
(-5.83892 27.1408 0)
(-5.78092 27.5796 0)
(-5.75484 27.9419 0)
(-5.74854 28.2289 0)
(0.521965 11.9452 0)
(1.17177 8.76663 0)
(2.01355 4.53565 0)
(2.87619 -0.125053 0)
(3.72618 -5.63366 0)
(4.52527 -12.3678 0)
(5.22568 -19.9725 0)
(5.45163 -27.1213 0)
(5.04297 -32.373 0)
(4.01467 -34.7792 0)
(2.537 -33.8197 0)
(0.924053 -31.7385 0)
(-0.744513 -29.6174 0)
(-2.41265 -27.6865 0)
(-3.91755 -26.0787 0)
(-5.20112 -24.754 0)
(-6.37375 -23.5409 0)
(-7.50569 -22.3286 0)
(-8.59682 -21.0392 0)
(-9.58837 -19.5913 0)
(-10.382 -17.925 0)
(-10.7968 -16.1171 0)
(-10.8171 -14.1918 0)
(-10.6241 -12.0388 0)
(-10.4485 -9.98312 0)
(-10.2955 -8.19187 0)
(-10.1276 -6.66219 0)
(-9.92935 -5.36601 0)
(-9.69502 -4.26993 0)
(-9.43044 -3.34733 0)
(-9.14449 -2.57541 0)
(-8.84701 -1.93322 0)
(-8.54559 -1.40148 0)
(-8.24247 -0.962731 0)
(-7.94682 -0.6014 0)
(0.62647 4.40656 0)
(1.7366 7.72101 0)
(2.92435 8.40321 0)
(4.02163 8.93902 0)
(5.09205 9.78501 0)
(5.87301 11.3478 0)
(6.30014 13.5498 0)
(6.29916 15.0356 0)
(5.78725 14.2951 0)
(4.86617 12.2203 0)
(3.76397 9.43212 0)
(2.62303 6.51043 0)
(1.51787 3.94594 0)
(0.472725 2.08174 0)
(-0.45948 1.21387 0)
(-1.29601 1.149 0)
(-2.03651 1.65477 0)
(-2.69785 2.56555 0)
(-3.30795 3.7959 0)
(-3.86919 5.29736 0)
(-4.41957 6.97803 0)
(-4.99533 8.58641 0)
(-5.51261 9.86787 0)
(-5.86386 10.853 0)
(-6.01538 11.6518 0)
(-6.02103 12.3612 0)
(-5.96365 12.9883 0)
(-5.88467 13.5378 0)
(-5.80339 14.0208 0)
(-5.72989 14.4418 0)
(-5.66859 14.8041 0)
(-5.62015 15.1118 0)
(-5.58434 15.3699 0)
(-5.56444 15.5834 0)
(-5.55435 15.7541 0)
(-0.249395 -20.6396 0)
(-0.491965 -20.3335 0)
(-0.745083 -19.6262 0)
(-0.963358 -18.9057 0)
(-1.14957 -18.1738 0)
(-1.26447 -17.4388 0)
(-1.21957 -16.7007 0)
(-0.949996 -15.9525 0)
(-0.547621 -15.2335 0)
(-0.173115 -14.5367 0)
(0.0331287 -13.8093 0)
(-0.0323324 -13.1305 0)
(-0.443345 -12.5458 0)
(-1.21922 -11.9899 0)
(-2.20309 -11.4595 0)
(-3.19251 -10.9586 0)
(-4.15882 -10.439 0)
(-5.04984 -9.84778 0)
(-5.82841 -9.14907 0)
(-6.45816 -8.32038 0)
(-6.84886 -7.35975 0)
(-6.97475 -6.29079 0)
(-6.99031 -5.13825 0)
(-7.0025 -4.03603 0)
(-7.00503 -3.03483 0)
(-6.97179 -2.16431 0)
(-6.90167 -1.42061 0)
(-6.80036 -0.78787 0)
(-6.67224 -0.250569 0)
(-6.52385 0.205051 0)
(-6.362 0.591516 0)
(-6.19267 0.920096 0)
(-6.0198 1.20046 0)
(-5.84332 1.44039 0)
(-5.66818 1.64686 0)
(0.00598246 9.01515 0)
(-0.0124432 8.58835 0)
(-0.0592692 7.97119 0)
(-0.130964 7.3175 0)
(-0.231044 6.64 0)
(-0.356 5.9462 0)
(-0.505457 5.24225 0)
(-0.67825 4.54269 0)
(-0.873598 3.86672 0)
(-1.09247 3.23398 0)
(-1.32972 2.6531 0)
(-1.5815 2.128 0)
(-1.85275 1.68804 0)
(-2.1466 1.39114 0)
(-2.47278 1.31723 0)
(-2.80268 1.44801 0)
(-3.13109 1.75539 0)
(-3.46421 2.21429 0)
(-3.79502 2.82157 0)
(-4.15011 3.56221 0)
(-4.53795 4.36341 0)
(-4.85537 5.10537 0)
(-5.01075 5.692 0)
(-5.02494 6.19195 0)
(-4.96081 6.67013 0)
(-4.86325 7.13525 0)
(-4.76096 7.56553 0)
(-4.66714 7.94698 0)
(-4.5861 8.28276 0)
(-4.51932 8.57571 0)
(-4.46687 8.82299 0)
(-4.42735 9.0201 0)
(-4.399 9.16957 0)
(-4.38171 9.27771 0)
(-4.36619 9.35173 0)
(-0.0657893 -14.5143 0)
(-0.150256 -13.846 0)
(-0.229785 -12.9929 0)
(-0.298456 -12.1691 0)
(-0.363241 -11.368 0)
(-0.428264 -10.589 0)
(-0.499729 -9.83732 0)
(-0.585201 -9.11917 0)
(-0.693637 -8.44147 0)
(-0.835595 -7.81069 0)
(-1.02333 -7.22936 0)
(-1.27267 -6.69544 0)
(-1.60258 -6.19962 0)
(-2.0306 -5.7159 0)
(-2.49847 -5.26765 0)
(-2.94838 -4.86138 0)
(-3.37899 -4.4556 0)
(-3.77133 -4.02916 0)
(-4.087 -3.56858 0)
(-4.28476 -3.04803 0)
(-4.41029 -2.4264 0)
(-4.5297 -1.79564 0)
(-4.63364 -1.23315 0)
(-4.70823 -0.712888 0)
(-4.75025 -0.21762 0)
(-4.75587 0.256383 0)
(-4.72598 0.698556 0)
(-4.6674 1.08818 0)
(-4.58641 1.42057 0)
(-4.4893 1.70728 0)
(-4.3813 1.95725 0)
(-4.26767 2.17159 0)
(-4.15335 2.34799 0)
(-4.0399 2.49151 0)
(-3.92652 2.61524 0)
(-0.0389093 7.61659 0)
(-0.117201 6.70534 0)
(-0.219405 5.85121 0)
(-0.338605 5.07006 0)
(-0.475233 4.3357 0)
(-0.626284 3.64594 0)
(-0.790074 3.00752 0)
(-0.964369 2.43043 0)
(-1.14668 1.92538 0)
(-1.33473 1.50201 0)
(-1.52698 1.16825 0)
(-1.72218 0.930845 0)
(-1.9229 0.797633 0)
(-2.13387 0.78015 0)
(-2.34128 0.886889 0)
(-2.54115 1.08346 0)
(-2.74703 1.36092 0)
(-2.97223 1.70926 0)
(-3.21906 2.11011 0)
(-3.44976 2.53254 0)
(-3.59819 2.93409 0)
(-3.64799 3.31051 0)
(-3.64533 3.66129 0)
(-3.61674 3.98687 0)
(-3.57243 4.28727 0)
(-3.51781 4.5615 0)
(-3.45763 4.80815 0)
(-3.39661 5.02831 0)
(-3.33923 5.2221 0)
(-3.2878 5.38861 0)
(-3.24284 5.53031 0)
(-3.20414 5.65042 0)
(-3.17218 5.75035 0)
(-3.14794 5.83126 0)
(-3.12428 5.89493 0)
(-0.0189483 -8.92092 0)
(-0.0495817 -8.22438 0)
(-0.0832044 -7.51336 0)
(-0.118421 -6.85881 0)
(-0.158679 -6.24418 0)
(-0.207652 -5.66701 0)
(-0.269662 -5.12969 0)
(-0.349703 -4.63517 0)
(-0.453179 -4.18491 0)
(-0.585537 -3.77762 0)
(-0.751807 -3.40849 0)
(-0.955774 -3.06899 0)
(-1.19932 -2.74724 0)
(-1.48019 -2.42998 0)
(-1.75535 -2.13677 0)
(-1.99077 -1.86351 0)
(-2.18052 -1.58653 0)
(-2.32961 -1.2784 0)
(-2.47368 -0.908685 0)
(-2.62499 -0.506029 0)
(-2.76716 -0.104239 0)
(-2.88551 0.281655 0)
(-2.97058 0.635167 0)
(-3.02306 0.95329 0)
(-3.04797 1.23741 0)
(-3.04863 1.48864 0)
(-3.02779 1.71044 0)
(-2.99059 1.9065 0)
(-2.94117 2.08004 0)
(-2.88306 2.23396 0)
(-2.81961 2.37098 0)
(-2.75361 2.49357 0)
(-2.68705 2.6039 0)
(-2.6201 2.70384 0)
(-2.5503 2.795 0)
(-0.0449052 6.05677 0)
(-0.121751 5.19591 0)
(-0.214345 4.43557 0)
(-0.315317 3.75714 0)
(-0.424213 3.13852 0)
(-0.538921 2.57986 0)
(-0.65951 2.08581 0)
(-0.785285 1.66141 0)
(-0.915319 1.31041 0)
(-1.04882 1.0348 0)
(-1.18557 0.834929 0)
(-1.32442 0.710373 0)
(-1.47078 0.661096 0)
(-1.62782 0.69 0)
(-1.79024 0.796621 0)
(-1.95467 0.96061 0)
(-2.11337 1.17658 0)
(-2.24545 1.43405 0)
(-2.33651 1.70448 0)
(-2.39099 1.95023 0)
(-2.41259 2.19172 0)
(-2.40506 2.43953 0)
(-2.37889 2.6746 0)
(-2.34153 2.89158 0)
(-2.29884 3.0884 0)
(-2.25383 3.26475 0)
(-2.21067 3.42185 0)
(-2.17034 3.5605 0)
(-2.13381 3.68159 0)
(-2.10141 3.78621 0)
(-2.07302 3.87558 0)
(-2.04835 3.95101 0)
(-2.02736 4.01387 0)
(-2.01016 4.06547 0)
(-1.99106 4.10704 0)
(0.0143008 -5.12025 0)
(0.0324268 -4.57545 0)
(0.0458963 -4.05319 0)
(0.0520939 -3.57866 0)
(0.0459461 -3.14048 0)
(0.0245537 -2.73837 0)
(-0.0134882 -2.37446 0)
(-0.070346 -2.05052 0)
(-0.147711 -1.76645 0)
(-0.24778 -1.51949 0)
(-0.371978 -1.30365 0)
(-0.519438 -1.11024 0)
(-0.685732 -0.92979 0)
(-0.871132 -0.751882 0)
(-1.04745 -0.566175 0)
(-1.20119 -0.366251 0)
(-1.34907 -0.139206 0)
(-1.48829 0.121386 0)
(-1.61159 0.40802 0)
(-1.72037 0.698654 0)
(-1.81223 0.964694 0)
(-1.87732 1.20459 0)
(-1.91661 1.42556 0)
(-1.93348 1.62334 0)
(-1.9327 1.79852 0)
(-1.91927 1.95293 0)
(-1.89519 2.08831 0)
(-1.86271 2.20753 0)
(-1.82503 2.31314 0)
(-1.78389 2.40722 0)
(-1.74093 2.49159 0)
(-1.6976 2.56778 0)
(-1.65499 2.63709 0)
(-1.6131 2.70052 0)
(-1.56877 2.7589 0)
(-0.0470173 4.38972 0)
(-0.121214 3.78541 0)
(-0.203527 3.27916 0)
(-0.287104 2.83877 0)
(-0.372887 2.44256 0)
(-0.45957 2.08741 0)
(-0.547306 1.77536 0)
(-0.636284 1.50908 0)
(-0.72705 1.2902 0)
(-0.81944 1.11878 0)
(-0.913916 0.994624 0)
(-1.01131 0.916623 0)
(-1.11729 0.883676 0)
(-1.22411 0.894363 0)
(-1.31666 0.947939 0)
(-1.39915 1.03309 0)
(-1.46943 1.15495 0)
(-1.52445 1.31718 0)
(-1.56458 1.50882 0)
(-1.58635 1.68838 0)
(-1.58716 1.85168 0)
(-1.57458 2.02044 0)
(-1.55322 2.18154 0)
(-1.52547 2.33023 0)
(-1.49397 2.46502 0)
(-1.46108 2.58543 0)
(-1.42795 2.69212 0)
(-1.39681 2.78645 0)
(-1.3677 2.8692 0)
(-1.34099 2.94111 0)
(-1.31667 3.00304 0)
(-1.29469 3.05584 0)
(-1.27532 3.1003 0)
(-1.25806 3.13722 0)
(-1.23904 3.16753 0)
(0.0184684 -2.18208 0)
(0.0415157 -1.8933 0)
(0.0598552 -1.63602 0)
(0.0719397 -1.40112 0)
(0.0753814 -1.17963 0)
(0.0674468 -0.972395 0)
(0.0461909 -0.782487 0)
(0.00959202 -0.611716 0)
(-0.043745 -0.460265 0)
(-0.115136 -0.324338 0)
(-0.205747 -0.197524 0)
(-0.315534 -0.073528 0)
(-0.444254 0.0550456 0)
(-0.590395 0.198128 0)
(-0.733767 0.347823 0)
(-0.861138 0.500359 0)
(-0.974316 0.662156 0)
(-1.07243 0.842348 0)
(-1.15041 1.04109 0)
(-1.20537 1.22772 0)
(-1.24427 1.39844 0)
(-1.26911 1.56197 0)
(-1.27813 1.70937 0)
(-1.27493 1.84008 0)
(-1.26244 1.95539 0)
(-1.24301 2.05687 0)
(-1.21911 2.14618 0)
(-1.1916 2.22474 0)
(-1.16154 2.29419 0)
(-1.13043 2.356 0)
(-1.0991 2.41136 0)
(-1.06832 2.46116 0)
(-1.03854 2.5061 0)
(-1.00974 2.5469 0)
(-0.979656 2.58424 0)
(-0.0241556 2.79934 0)
(-0.0676845 2.49485 0)
(-0.119214 2.23406 0)
(-0.174314 2.0073 0)
(-0.232781 1.8048 0)
(-0.293039 1.62473 0)
(-0.354298 1.46709 0)
(-0.415917 1.33231 0)
(-0.477662 1.2207 0)
(-0.539859 1.1329 0)
(-0.603256 1.06915 0)
(-0.667921 1.02966 0)
(-0.736953 1.01514 0)
(-0.808725 1.02731 0)
(-0.876275 1.06729 0)
(-0.937299 1.12764 0)
(-0.989321 1.21449 0)
(-1.03352 1.33187 0)
(-1.06454 1.45661 0)
(-1.07855 1.57596 0)
(-1.08185 1.70143 0)
(-1.07528 1.82707 0)
(-1.06081 1.94391 0)
(-1.04088 2.05 0)
(-1.01744 2.14516 0)
(-0.992136 2.22967 0)
(-0.966241 2.30411 0)
(-0.940531 2.36941 0)
(-0.915977 2.42666 0)
(-0.892735 2.47656 0)
(-0.871062 2.51967 0)
(-0.850821 2.55661 0)
(-0.832189 2.58814 0)
(-0.815032 2.61505 0)
(-0.796944 2.63803 0)
(0.0109255 -0.53047 0)
(0.0233719 -0.313866 0)
(0.0321974 -0.159482 0)
(0.0365356 -0.0291171 0)
(0.034239 0.0877514 0)
(0.0236948 0.192604 0)
(0.00342373 0.285623 0)
(-0.027989 0.367363 0)
(-0.071614 0.439642 0)
(-0.128395 0.506344 0)
(-0.198558 0.571718 0)
(-0.281468 0.639957 0)
(-0.375889 0.715144 0)
(-0.479664 0.799763 0)
(-0.578378 0.890683 0)
(-0.664075 0.985469 0)
(-0.740094 1.08932 0)
(-0.800994 1.20594 0)
(-0.845033 1.32594 0)
(-0.875454 1.44382 0)
(-0.895211 1.5625 0)
(-0.902891 1.67609 0)
(-0.90023 1.77818 0)
(-0.889968 1.86857 0)
(-0.874314 1.94818 0)
(-0.854883 2.01807 0)
(-0.833079 2.07933 0)
(-0.810004 2.13301 0)
(-0.786002 2.1801 0)
(-0.761842 2.22158 0)
(-0.738159 2.25819 0)
(-0.715191 2.29067 0)
(-0.693434 2.31988 0)
(-0.672929 2.34651 0)
(-0.652089 2.37101 0)
(-0.0154706 1.91388 0)
(-0.044444 1.78855 0)
(-0.0759802 1.67177 0)
(-0.110053 1.57024 0)
(-0.145965 1.48045 0)
(-0.183027 1.40114 0)
(-0.221009 1.33187 0)
(-0.259933 1.2727 0)
(-0.300276 1.22422 0)
(-0.342818 1.18709 0)
(-0.388127 1.1618 0)
(-0.437613 1.14917 0)
(-0.492012 1.15024 0)
(-0.549835 1.16742 0)
(-0.606168 1.20257 0)
(-0.655773 1.25206 0)
(-0.699427 1.31613 0)
(-0.735674 1.39255 0)
(-0.761226 1.47601 0)
(-0.777563 1.56434 0)
(-0.784747 1.65685 0)
(-0.782447 1.74812 0)
(-0.772803 1.832 0)
(-0.758023 1.90745 0)
(-0.739885 1.97464 0)
(-0.719809 2.03399 0)
(-0.698932 2.08601 0)
(-0.677948 2.13133 0)
(-0.657599 2.17076 0)
(-0.638387 2.20519 0)
(-0.620168 2.23546 0)
(-0.603153 2.26231 0)
(-0.587622 2.28623 0)
(-0.573391 2.30743 0)
(-0.558969 2.32602 0)
(0.00510663 0.42129 0)
(0.00781625 0.567783 0)
(0.00757421 0.656149 0)
(0.00346207 0.725233 0)
(-0.00514767 0.783481 0)
(-0.0192137 0.833359 0)
(-0.039615 0.876358 0)
(-0.0673177 0.914262 0)
(-0.103003 0.948828 0)
(-0.147047 0.981892 0)
(-0.199412 1.01574 0)
(-0.259598 1.05278 0)
(-0.326603 1.09382 0)
(-0.399434 1.14043 0)
(-0.46825 1.19258 0)
(-0.527681 1.24995 0)
(-0.578282 1.31533 0)
(-0.61933 1.38749 0)
(-0.650261 1.46401 0)
(-0.671715 1.54334 0)
(-0.683838 1.62457 0)
(-0.686443 1.70302 0)
(-0.681314 1.77395 0)
(-0.670696 1.83701 0)
(-0.656358 1.89272 0)
(-0.639659 1.9418 0)
(-0.621642 1.98499 0)
(-0.603097 2.02307 0)
(-0.584636 2.05677 0)
(-0.566547 2.08668 0)
(-0.549148 2.1134 0)
(-0.532664 2.13744 0)
(-0.517125 2.15904 0)
(-0.502437 2.17837 0)
(-0.487664 2.19563 0)
(-0.00858631 1.51969 0)
(-0.0275675 1.51041 0)
(-0.046993 1.47273 0)
(-0.0683462 1.43573 0)
(-0.0913118 1.40158 0)
(-0.115674 1.37095 0)
(-0.141675 1.34431 0)
(-0.169766 1.32196 0)
(-0.200407 1.30425 0)
(-0.234176 1.2916 0)
(-0.272085 1.28442 0)
(-0.314228 1.28349 0)
(-0.359351 1.29065 0)
(-0.407959 1.30782 0)
(-0.455768 1.33546 0)
(-0.498422 1.37154 0)
(-0.536025 1.41654 0)
(-0.567611 1.46906 0)
(-0.591922 1.5272 0)
(-0.608708 1.58951 0)
(-0.617597 1.65479 0)
(-0.61838 1.71898 0)
(-0.612684 1.77781 0)
(-0.602431 1.83063 0)
(-0.589158 1.87771 0)
(-0.574062 1.91948 0)
(-0.558042 1.95643 0)
(-0.541752 1.9891 0)
(-0.525644 2.01799 0)
(-0.510013 2.04356 0)
(-0.495035 2.06617 0)
(-0.480816 2.08612 0)
(-0.467445 2.10362 0)
(-0.454943 2.11893 0)
(-0.442533 2.13228 0)
(0.000738878 0.91794 0)
(-0.00232011 1.03029 0)
(-0.00715608 1.08602 0)
(-0.0150425 1.12518 0)
(-0.02603 1.15632 0)
(-0.0408616 1.18233 0)
(-0.0599238 1.20478 0)
(-0.0838433 1.225 0)
(-0.113269 1.24415 0)
(-0.148365 1.2626 0)
(-0.189135 1.28053 0)
(-0.235646 1.29811 0)
(-0.286962 1.31703 0)
(-0.341392 1.34159 0)
(-0.393128 1.37254 0)
(-0.438551 1.40818 0)
(-0.477844 1.44971 0)
(-0.510594 1.49622 0)
(-0.536206 1.5465 0)
(-0.554484 1.59961 0)
(-0.56524 1.65465 0)
(-0.568217 1.70832 0)
(-0.564818 1.7572 0)
(-0.55686 1.80093 0)
(-0.545781 1.83979 0)
(-0.532682 1.87422 0)
(-0.518392 1.90465 0)
(-0.503521 1.93155 0)
(-0.488515 1.95531 0)
(-0.473692 1.97632 0)
(-0.45928 1.9949 0)
(-0.445451 2.01132 0)
(-0.432338 2.02586 0)
(-0.419975 2.03875 0)
(-0.407867 2.05019 0)
(-0.00721235 1.40347 0)
(-0.0180621 1.44883 0)
(-0.0328632 1.44941 0)
(-0.0480991 1.44281 0)
(-0.0651956 1.43474 0)
(-0.0842162 1.4268 0)
(-0.105128 1.41985 0)
(-0.12863 1.41448 0)
(-0.154495 1.41107 0)
(-0.182475 1.4098 0)
(-0.213576 1.41035 0)
(-0.247862 1.41307 0)
(-0.286869 1.41922 0)
(-0.331037 1.43161 0)
(-0.37464 1.45166 0)
(-0.414022 1.47709 0)
(-0.449103 1.50794 0)
(-0.478922 1.54354 0)
(-0.502784 1.58293 0)
(-0.52024 1.62519 0)
(-0.530938 1.66948 0)
(-0.534486 1.713 0)
(-0.53206 1.75284 0)
(-0.525286 1.78858 0)
(-0.515482 1.82042 0)
(-0.503683 1.84863 0)
(-0.490682 1.87355 0)
(-0.47708 1.89551 0)
(-0.463319 1.91485 0)
(-0.449723 1.93184 0)
(-0.43652 1.94677 0)
(-0.423871 1.95988 0)
(-0.411888 1.97138 0)
(-0.400627 1.98148 0)
(-0.389819 1.99034 0)
(-0.00196195 1.18951 0)
(-0.00734449 1.28805 0)
(-0.0152536 1.32929 0)
(-0.0250675 1.35624 0)
(-0.0373358 1.37704 0)
(-0.0524264 1.39411 0)
(-0.0707417 1.4082 0)
(-0.0927174 1.41962 0)
(-0.118612 1.42857 0)
(-0.147876 1.43623 0)
(-0.180892 1.44403 0)
(-0.218156 1.45294 0)
(-0.259591 1.46416 0)
(-0.305278 1.47916 0)
(-0.349612 1.49839 0)
(-0.38897 1.52084 0)
(-0.423932 1.54697 0)
(-0.453834 1.57645 0)
(-0.478146 1.60867 0)
(-0.496455 1.64299 0)
(-0.508428 1.67873 0)
(-0.513564 1.71365 0)
(-0.512829 1.74544 0)
(-0.507736 1.7738 0)
(-0.499535 1.79892 0)
(-0.489212 1.82105 0)
(-0.477537 1.84049 0)
(-0.4651 1.85754 0)
(-0.45235 1.87249 0)
(-0.439622 1.88559 0)
(-0.427161 1.89708 0)
(-0.415143 1.90717 0)
(-0.403688 1.91604 0)
(-0.392866 1.92385 0)
(-0.382693 1.93076 0)
(-0.00566245 1.41356 0)
(-0.0150843 1.48522 0)
(-0.0272647 1.5037 0)
(-0.0405139 1.51087 0)
(-0.055525 1.51394 0)
(-0.0716616 1.51576 0)
(-0.0896927 1.51714 0)
(-0.109492 1.51813 0)
(-0.131837 1.51877 0)
(-0.157431 1.51937 0)
(-0.186564 1.52092 0)
(-0.219755 1.52419 0)
(-0.257208 1.52995 0)
(-0.29901 1.53945 0)
(-0.340299 1.55308 0)
(-0.377589 1.56975 0)
(-0.411237 1.58963 0)
(-0.440537 1.61232 0)
(-0.464903 1.6373 0)
(-0.483843 1.66398 0)
(-0.496946 1.69175 0)
(-0.50356 1.71879 0)
(-0.50443 1.74326 0)
(-0.500942 1.76494 0)
(-0.494279 1.78399 0)
(-0.485394 1.80063 0)
(-0.475045 1.81511 0)
(-0.463824 1.82771 0)
(-0.452185 1.83864 0)
(-0.440471 1.84814 0)
(-0.428936 1.85639 0)
(-0.417756 1.86357 0)
(-0.407047 1.86983 0)
(-0.396901 1.8753 0)
(-0.387621 1.88009 0)
(-0.00303749 1.36121 0)
(-0.00963039 1.45683 0)
(-0.0186801 1.49153 0)
(-0.0289409 1.51216 0)
(-0.0417341 1.52666 0)
(-0.0568896 1.5371 0)
(-0.0743096 1.54514 0)
(-0.0946742 1.55161 0)
(-0.118108 1.55699 0)
(-0.144949 1.56165 0)
(-0.175531 1.56613 0)
(-0.21003 1.57115 0)
(-0.248508 1.57753 0)
(-0.29091 1.58631 0)
(-0.332416 1.59774 0)
(-0.369816 1.61117 0)
(-0.40371 1.62684 0)
(-0.433547 1.64449 0)
(-0.458823 1.66372 0)
(-0.479072 1.68405 0)
(-0.493872 1.70495 0)
(-0.502439 1.72499 0)
(-0.505298 1.7428 0)
(-0.503732 1.75828 0)
(-0.498867 1.7716 0)
(-0.491628 1.783 0)
(-0.482758 1.79271 0)
(-0.472849 1.80097 0)
(-0.462361 1.808 0)
(-0.45165 1.81399 0)
(-0.440984 1.8191 0)
(-0.430551 1.82348 0)
(-0.420471 1.82724 0)
(-0.410859 1.8305 0)
(-0.402333 1.83334 0)
(-0.00448241 1.47077 0)
(-0.0131724 1.55678 0)
(-0.0239489 1.58298 0)
(-0.0358185 1.59621 0)
(-0.0491919 1.60443 0)
(-0.0644672 1.61004 0)
(-0.0817136 1.61393 0)
(-0.101368 1.61677 0)
(-0.12375 1.61897 0)
(-0.149268 1.62082 0)
(-0.178352 1.62272 0)
(-0.211363 1.6252 0)
(-0.24852 1.62888 0)
(-0.289856 1.63461 0)
(-0.330734 1.64263 0)
(-0.367961 1.65234 0)
(-0.402108 1.6638 0)
(-0.432643 1.67674 0)
(-0.459069 1.69075 0)
(-0.480907 1.70537 0)
(-0.497707 1.72011 0)
(-0.508528 1.73382 0)
(-0.513658 1.74558 0)
(-0.514268 1.75537 0)
(-0.511432 1.76339 0)
(-0.506042 1.7699 0)
(-0.498836 1.77512 0)
(-0.490407 1.77928 0)
(-0.481226 1.78258 0)
(-0.471663 1.78519 0)
(-0.462001 1.78726 0)
(-0.452441 1.78888 0)
(-0.443105 1.79017 0)
(-0.434135 1.79119 0)
(-0.426481 1.79202 0)
(-0.00349526 1.47972 0)
(-0.0110248 1.57738 0)
(-0.0207146 1.60995 0)
(-0.0318627 1.62775 0)
(-0.0449469 1.63955 0)
(-0.0600831 1.64804 0)
(-0.077547 1.65434 0)
(-0.0976375 1.65912 0)
(-0.120646 1.6628 0)
(-0.146884 1.66572 0)
(-0.176675 1.66823 0)
(-0.210306 1.67076 0)
(-0.247983 1.67384 0)
(-0.289768 1.67816 0)
(-0.331114 1.68398 0)
(-0.368943 1.69095 0)
(-0.40395 1.69909 0)
(-0.435687 1.70817 0)
(-0.463709 1.71779 0)
(-0.487557 1.72751 0)
(-0.506771 1.73684 0)
(-0.520252 1.74491 0)
(-0.528035 1.75117 0)
(-0.531177 1.75571 0)
(-0.530694 1.75878 0)
(-0.52745 1.76064 0)
(-0.522168 1.76156 0)
(-0.515444 1.76176 0)
(-0.507761 1.76143 0)
(-0.499504 1.76074 0)
(-0.490977 1.75979 0)
(-0.482395 1.7587 0)
(-0.473885 1.75753 0)
(-0.46562 1.75634 0)
(-0.458901 1.75519 0)
(-0.00422402 1.54414 0)
(-0.0126956 1.63972 0)
(-0.0230478 1.66983 0)
(-0.0347237 1.6854 0)
(-0.0481602 1.69521 0)
(-0.0634721 1.70195 0)
(-0.080956 1.70673 0)
(-0.100919 1.71013 0)
(-0.123703 1.71254 0)
(-0.14967 1.71424 0)
(-0.179193 1.71553 0)
(-0.21262 1.71673 0)
(-0.250219 1.71827 0)
(-0.292124 1.72069 0)
(-0.333875 1.72424 0)
(-0.372402 1.72866 0)
(-0.408454 1.73388 0)
(-0.441633 1.73961 0)
(-0.471527 1.74546 0)
(-0.497695 1.75094 0)
(-0.519671 1.75554 0)
(-0.536188 1.75861 0)
(-0.546999 1.75991 0)
(-0.55304 1.75966 0)
(-0.55526 1.75813 0)
(-0.554487 1.75565 0)
(-0.55143 1.75249 0)
(-0.546686 1.74889 0)
(-0.540749 1.74504 0)
(-0.534022 1.74111 0)
(-0.526828 1.73721 0)
(-0.519403 1.73342 0)
(-0.511879 1.7298 0)
(-0.504457 1.72639 0)
(-0.498813 1.72322 0)
(14.7572 -72.6368 0)
(14.3523 -72.5235 0)
(13.8493 -72.5626 0)
(13.3192 -72.7697 -3.05211e-17)
(12.7548 -73.1656 0)
(12.1506 -73.7756 0)
(11.509 -74.628 0)
(10.8342 -75.732 0)
(10.1289 -77.0599 3.24411e-17)
(9.39292 -78.5807 0)
(8.6227 -80.2641 0)
(7.82211 -82.0392 -3.34303e-17)
(7.03053 -83.7793 0)
(6.28212 -85.395 -3.52502e-17)
(5.57528 -86.8442 0)
(4.90367 -88.0972 0)
(4.26334 -89.1406 0)
(3.65197 -89.9806 3.78061e-17)
(3.06654 -90.6419 0)
(2.50785 -91.1593 1.93078e-17)
(2.00528 -91.5673 0)
(1.53997 -91.8946 0)
(31.3146 80.3732 0)
(31.7157 80.2828 0)
(32.1256 80.2128 0)
(32.4419 80.1712 4.14662e-17)
(32.6758 80.171 0)
(32.8263 80.2224 0)
(32.8747 80.3368 -8.17899e-17)
(32.7951 80.5348 0)
(32.5588 80.8385 -1.26883e-16)
(32.1356 81.2631 8.41295e-17)
(31.4953 81.8241 8.4778e-17)
(30.6076 82.5389 4.46726e-17)
(29.4448 83.3968 0)
(28.0017 84.3414 4.65798e-17)
(26.3028 85.322 0)
(24.3856 86.2932 0)
(22.2863 87.2171 0)
(20.0407 88.0652 -1.43171e-16)
(17.6929 88.8175 0)
(15.2594 89.4352 -2.49141e-17)
(12.7484 89.863 0)
(10.2649 90.0435 -4.96958e-17)
(-10.5905 -52.2885 0)
(-10.2203 -50.0684 0)
(-9.88639 -47.9598 0)
(-9.53292 -45.9297 0)
(-9.16708 -43.9278 0)
(-8.80458 -41.9018 7.30453e-17)
(-8.45925 -39.7959 7.05805e-17)
(-8.13212 -37.5558 0)
(-7.82565 -35.1355 7.12733e-17)
(-7.54656 -32.5031 -7.14712e-17)
(-7.30692 -29.6486 -7.14756e-17)
(-7.11221 -26.6167 0)
(-6.93743 -23.5584 0)
(-6.75518 -20.6441 0)
(-6.55924 -17.9625 7.76681e-17)
(-6.3504 -15.5823 0)
(-6.12797 -13.5468 0)
(-5.89196 -11.8767 7.54255e-17)
(-5.64258 -10.5736 0)
(-5.37189 -9.62412 0)
(-5.07393 -9.01223 0)
(-4.8233 -8.70993 3.87794e-17)
(3.81982 52.863 0)
(2.38034 52.747 0)
(1.06034 52.559 0)
(-0.191924 52.3231 -8.82763e-17)
(-1.3677 52.0535 0)
(-2.42841 51.7526 8.77545e-17)
(-3.33874 51.4535 0)
(-4.08388 51.1789 0)
(-4.64329 50.9551 0)
(-4.9972 50.8198 0)
(-5.12077 50.7955 -1.83929e-16)
(-4.9921 50.8862 0)
(-4.65201 51.0913 0)
(-4.16754 51.3876 0)
(-3.56409 51.7613 9.28225e-17)
(-2.86535 52.1878 1.93368e-16)
(-2.09975 52.631 0)
(-1.28455 53.0571 0)
(-0.4208 53.438 0)
(0.418779 53.752 0)
(1.22308 53.9752 9.79392e-17)
(2.09207 54.0868 0)
(-8.36038 -5.42313 -1.47189e-16)
(-7.76762 -5.0134 0)
(-7.25653 -4.75403 -1.59382e-16)
(-6.78701 -4.61677 7.87554e-17)
(-6.36267 -4.55917 0)
(-5.98763 -4.54365 -1.59922e-16)
(-5.66571 -4.55306 -1.64453e-16)
(-5.39343 -4.57424 -1.65497e-16)
(-5.16645 -4.55751 0)
(-4.97682 -4.43619 0)
(-4.82625 -4.18324 1.63883e-16)
(-4.70269 -3.79264 0)
(-4.56471 -3.2658 0)
(-4.38998 -2.67369 0)
(-4.17318 -2.09153 -3.42789e-16)
(-3.90967 -1.56432 -1.70754e-16)
(-3.59906 -1.13125 0)
(-3.2413 -0.828698 -1.7614e-16)
(-2.8411 -0.682829 0)
(-2.39745 -0.694955 1.77027e-16)
(-1.91413 -0.85843 -8.67129e-17)
(-1.44565 -1.18555 0)
(-5.66226 28.5195 1.68131e-16)
(-5.4465 28.8017 -1.77668e-16)
(-5.17917 29.0387 3.60687e-16)
(-4.90079 29.2297 1.80543e-16)
(-4.61175 29.3749 0)
(-4.31088 29.4754 0)
(-3.99702 29.5301 1.86444e-16)
(-3.67072 29.5418 1.87387e-16)
(-3.32934 29.5153 0)
(-2.96594 29.4624 0)
(-2.56809 29.3965 0)
(-2.13326 29.3291 0)
(-1.68388 29.2706 0)
(-1.23724 29.2229 1.91584e-16)
(-0.790883 29.1824 1.95611e-16)
(-0.336753 29.1449 -1.94399e-16)
(0.105417 29.1064 0)
(0.531985 29.0626 1.98205e-16)
(0.952081 29.0083 0)
(1.35181 28.9378 -2.54552e-18)
(1.72714 28.8547 1.95506e-16)
(2.1067 28.7663 -2.01439e-16)
(-7.64347 -0.187362 -1.64214e-16)
(-7.33309 0.299932 1.74249e-16)
(-7.03399 0.754889 -1.75726e-16)
(-6.72662 1.17087 1.59889e-18)
(-6.41623 1.54619 1.79995e-16)
(-6.10593 1.88073 0)
(-5.7977 2.17615 0)
(-5.49359 2.43605 0)
(-5.19629 2.66505 0)
(-4.9085 2.86622 3.69684e-16)
(-4.63262 3.04277 0)
(-4.36665 3.19662 0)
(-4.10065 3.32531 0)
(-3.82569 3.4254 -1.88023e-16)
(-3.53969 3.49552 0)
(-3.24218 3.53373 3.82921e-16)
(-2.933 3.53597 0)
(-2.61256 3.50052 0)
(-2.28165 3.42369 0)
(-1.94016 3.30279 -1.93463e-16)
(-1.59126 3.13611 -1.93688e-16)
(-1.25658 2.921 2.00149e-16)
(-5.5019 15.9271 1.84156e-16)
(-5.39154 16.0996 0)
(-5.24086 16.2504 0)
(-5.06767 16.3815 -3.96674e-16)
(-4.87255 16.4929 -1.06918e-18)
(-4.65428 16.5844 -1.99746e-16)
(-4.41284 16.6561 -4.01168e-16)
(-4.15028 16.7094 0)
(-3.86528 16.7499 -4.03993e-16)
(-3.55575 16.7824 -2.17491e-18)
(-3.22288 16.8065 -4.05502e-16)
(-2.87157 16.8226 4.06007e-16)
(-2.52412 16.8307 0)
(-2.19756 16.8293 0)
(-1.89193 16.8171 0)
(-1.60637 16.7936 2.09082e-16)
(-1.34044 16.7596 0)
(-1.0941 16.7173 0)
(-0.867893 16.6699 0)
(-0.663149 16.6217 0)
(-0.478276 16.5776 0)
(-0.294535 16.5433 0)
(-5.50409 1.89995 0)
(-5.34852 2.21582 0)
(-5.19368 2.52617 2.07817e-16)
(-5.03077 2.82442 -8.15761e-19)
(-4.86382 3.10834 2.10462e-16)
(-4.69392 3.37687 6.3045e-16)
(-4.52276 3.62821 4.20579e-16)
(-4.35103 3.86262 0)
(-4.17894 4.08103 4.22736e-16)
(-4.00769 4.28199 -4.23524e-16)
(-3.83755 4.46527 4.23481e-16)
(-3.66624 4.63042 1.59122e-18)
(-3.48876 4.77266 0)
(-3.30214 4.88959 0)
(-3.10693 4.98239 0)
(-2.90473 5.05216 1.62474e-18)
(-2.69684 5.09986 0)
(-2.48438 5.12626 0)
(-2.26764 5.13226 0)
(-2.04761 5.11972 0)
(-1.82644 5.08888 0)
(-1.6128 5.03825 0)
(-4.33486 9.42108 0)
(-4.28157 9.50566 2.27803e-16)
(-4.19885 9.59446 -4.57738e-16)
(-4.10281 9.68658 2.29845e-16)
(-3.99208 9.77971 -4.60922e-16)
(-3.86554 9.87144 -1.06682e-18)
(-3.72299 9.95945 -4.61777e-16)
(-3.56662 10.0417 0)
(-3.39345 10.1231 0)
(-3.20363 10.201 0)
(-3.00283 10.2624 0)
(-2.79252 10.3093 -4.63714e-16)
(-2.58365 10.3453 0)
(-2.38691 10.3715 0)
(-2.20191 10.3886 0)
(-2.02797 10.3974 -4.79878e-16)
(-1.86478 10.3995 0)
(-1.71229 10.3967 -4.83294e-16)
(-1.57061 10.3909 -4.84832e-16)
(-1.43971 10.384 2.42951e-16)
(-1.31773 10.3782 0)
(-1.19568 10.377 2.51201e-16)
(-3.83506 2.77493 0)
(-3.76523 2.97541 -4.89141e-16)
(-3.69336 3.17412 2.45058e-16)
(-3.6175 3.36895 0)
(-3.53884 3.55982 0)
(-3.45696 3.74643 -4.93022e-16)
(-3.37116 3.92812 4.93571e-16)
(-3.28106 4.104 -4.94716e-16)
(-3.18858 4.27373 4.94848e-16)
(-3.08883 4.4497 0)
(-2.98198 4.62877 0)
(-2.87246 4.79091 0)
(-2.75708 4.92892 0)
(-2.63643 5.04361 0)
(-2.51066 5.13977 -5.07883e-16)
(-2.38142 5.2194 0)
(-2.24877 5.28375 0)
(-2.11301 5.33365 5.15577e-16)
(-1.97451 5.36932 5.17466e-16)
(-1.8337 5.3904 -2.59441e-16)
(-1.69155 5.39626 -2.60281e-16)
(-1.55471 5.38804 -2.6842e-16)
(-3.0982 5.96233 0)
(-3.0713 6.0455 2.66374e-16)
(-3.0258 6.12938 0)
(-2.97395 6.21309 5.34032e-16)
(-2.91507 6.29592 0)
(-2.84813 6.37732 0)
(-2.77295 6.45674 0)
(-2.68925 6.53271 5.35526e-16)
(-2.59681 6.60371 -5.35228e-16)
(-2.49451 6.66995 5.34239e-16)
(-2.38027 6.73369 0)
(-2.25664 6.79347 5.32215e-16)
(-2.13057 6.85239 0)
(-2.00628 6.91068 -5.44209e-16)
(-1.88808 6.95956 5.48906e-16)