/*--------------------------------*- C++ -*----------------------------------*\
  =========                 |
  \\      /  F ield         | OpenFOAM: The Open Source CFD Toolbox
   \\    /   O peration     | Website:  https://openfoam.org
    \\  /    A nd           | Version:  8
     \\/     M anipulation  |
\*---------------------------------------------------------------------------*/
FoamFile
{
    version     2.0;
    format      ascii;
    class       volVectorField;
    location    "0.08";
    object      U;
}
// * * * * * * * * * * * * * * * * * * * * * * * * * * * * * * * * * * * * * //

dimensions      [0 1 -1 0 0 0 0];

internalField   nonuniform List<vector> 
15677
(
(-0.0199315 9.66506 0)
(0.0435756 9.92084 0)
(0.0023829 9.37799 0)
(0.0147396 9.97646 0)
(0.0186153 9.78773 0)
(0.00702156 9.14226 0)
(0.0279648 9.99433 0)
(0.0171126 9.92478 0)
(0.0107378 9.65488 0)
(0.00608712 8.95985 0)
(0.0261128 10.0015 0)
(0.0215106 9.97853 0)
(0.0164029 9.85333 0)
(0.0090277 9.53013 0)
(0.00491519 8.81639 0)
(0.0249599 10.0047 0)
(0.0223859 10.0026 0)
(0.0191949 9.94283 0)
(0.0153864 9.7791 0)
(0.00789703 9.4191 0)
(0.00404856 8.7016 0)
(0.0239839 10.0062 0)
(0.0225648 10.0142 0)
(0.0208108 9.98602 0)
(0.0183042 9.9022 0)
(0.0139246 9.70755 0)
(0.00683156 9.32077 0)
(0.00338505 8.60894 0)
(0.022644 10.0067 0)
(0.0224058 10.0199 0)
(0.0216432 10.008 0)
(0.0202122 9.96479 0)
(0.0170842 9.86153 0)
(0.0125067 9.64018 0)
(0.00589258 9.2352 0)
(0.00283177 8.53439 0)
(0.0209601 10.0067 0)
(0.0218689 10.0223 0)
(0.0219744 10.0195 0)
(0.0213128 9.99794 0)
(0.0191378 9.94341 0)
(0.0157168 9.82179 0)
(0.0111605 9.57858 0)
(0.00502843 9.1624 0)
(0.00232496 8.47518 0)
(0.0190445 10.0063 0)
(0.0210351 10.0226 0)
(0.0218764 10.0254 0)
(0.0218233 10.0161 0)
(0.0203264 9.9879 0)
(0.0177998 9.92236 0)
(0.0142732 9.78445 0)
(0.00979474 9.52414 0)
(0.00418241 9.10211 0)
(0.001827 8.42978 0)
(0.0169734 10.0057 0)
(0.0199802 10.0218 0)
(0.0214324 10.0284 0)
(0.0218651 10.0261 0)
(0.0208926 10.0128 0)
(0.0189738 9.97822 0)
(0.0162904 9.9028 0)
(0.0126875 9.75097 0)
(0.00834774 9.47781 0)
(0.00331037 9.05409 0)
(0.00130973 8.39715 0)
(0.014765 10.0051 0)
(0.0186884 10.0203 0)
(0.0206837 10.0291 0)
(0.02156 10.0315 0)
(0.0209632 10.0271 0)
(0.0194646 10.01 0)
(0.0173529 9.96986 0)
(0.0145299 9.8859 0)
(0.0108981 9.72249 0)
(0.00677255 9.44033 0)
(0.00237294 9.01822 0)
(0.000750967 8.37697 0)
(0.012452 10.0044 0)
(0.0172666 10.0183 0)
(0.0196376 10.0284 0)
(0.0209117 10.034 0)
(0.0205975 10.0351 0)
(0.0194234 10.0285 0)
(0.0176731 10.0085 0)
(0.0153721 9.96383 0)
(0.0124413 9.87267 0)
(0.00884822 9.70002 0)
(0.00502098 9.41238 0)
(0.00133799 8.99452 0)
(0.000121464 8.36898 0)
(0.0101769 10.0036 0)
(0.0157764 10.016 0)
(0.01834 10.0268 0)
(0.0199447 10.0344 0)
(0.0199074 10.0393 0)
(0.0189344 10.0393 0)
(0.0174115 10.0312 0)
(0.0154088 10.0091 0)
(0.0129404 9.96101 0)
(0.00995261 9.86401 0)
(0.00647733 9.68456 0)
(0.0030485 9.39457 0)
(0.000191084 8.9831 0)
(-0.00049865 8.37313 0)
(0.0082246 10.0029 0)
(0.0141775 10.0136 0)
(0.0168395 10.0244 0)
(0.0186716 10.0334 0)
(0.0188763 10.0409 0)
(0.0180581 10.0452 0)
(0.0166604 10.0446 0)
(0.0148014 10.0359 0)
(0.0125623 10.0128 0)
(0.00996615 9.96222 0)
(0.00698576 9.86091 0)
(0.00372623 9.67706 0)
(0.000807803 9.3875 0)
(-0.00111174 8.98422 0)
(-0.00124404 8.38945 0)
(0.00667918 10.0022 0)
(0.0126334 10.0113 0)
(0.0151666 10.0216 0)
(0.017105 10.0313 0)
(0.0175119 10.0405 0)
(0.016806 10.048 0)
(0.0154659 10.0523 0)
(0.0136436 10.052 0)
(0.0114647 10.0436 0)
(0.00902217 10.0202 0)
(0.00634954 9.96832 0)
(0.00346358 9.8643 0)
(0.000535902 9.67841 0)
(-0.00173753 9.39173 0)
(-0.0025859 8.99798 0)
(-0.00208033 8.41816 0)
(0.00552285 10.0017 0)
(0.01123 10.0093 0)
(0.0135244 10.0188 0)
(0.0152719 10.0285 0)
(0.0158191 10.0388 0)
(0.0151843 10.0484 0)
(0.0138456 10.0561 0)
(0.0119791 10.0613 0)
(0.00973924 10.0621 0)
(0.00726777 10.0548 0)
(0.00466495 10.0323 0)
(0.00199437 9.98019 0)
(-0.000667051 9.87514 0)
(-0.00311557 9.68941 0)
(-0.0045864 9.40776 0)
(-0.0042305 9.0246 0)
(-0.00300473 8.45927 0)
(0.00455705 10.0014 0)
(0.00985415 10.0077 0)
(0.0120306 10.0164 0)
(0.0134142 10.0255 0)
(0.0138113 10.036 0)
(0.0131959 10.0471 0)
(0.0118032 10.0573 0)
(0.00982264 10.0662 0)
(0.00742571 10.073 0)
(0.00478893 10.0757 0)
(0.00206345 10.0705 0)
(-0.000632791 10.0497 0)
(-0.00320194 9.99871 0)
(-0.00551863 9.89426 0)
(-0.00728706 9.71081 0)
(-0.00778877 9.43594 0)
(-0.00605346 9.06408 0)
(-0.00401467 8.51279 0)
(0.00377242 10.0011 0)
(0.00861987 10.0064 0)
(0.010615 10.0142 0)
(0.0116958 10.0228 0)
(0.0117395 10.0328 0)
(0.01085 10.0444 0)
(0.00933883 10.0563 0)
(0.00717506 10.068 0)
(0.00453382 10.0788 0)
(0.0016188 10.088 0)
(-0.00138368 10.0935 0)
(-0.00430809 10.0913 0)
(-0.00699872 10.0733 0)
(-0.00932155 10.0247 0)
(-0.0111089 9.92251 0)
(-0.0120115 9.74317 0)
(-0.0113554 9.4765 0)
(-0.00805911 9.11648 0)
(-0.00510754 8.5785 0)
(0.0031332 10.0009 0)
(0.00750632 10.0053 0)
(0.00931632 10.0124 0)
(0.0100781 10.0203 0)
(0.00979547 10.0298 0)
(0.0084295 10.041 0)
(0.00646042 10.0537 0)
(0.00403436 10.0673 0)
(0.00105938 10.0811 0)
(-0.00224055 10.0947 0)
(-0.00565312 10.1071 0)
(-0.00896947 10.1163 0)
(-0.0119902 10.118 0)
(-0.0145305 10.104 0)
(-0.0164267 10.0589 0)
(-0.0174718 9.96051 0)
(-0.0172943 9.78693 0)
(-0.0152792 9.52957 0)
(-0.0102332 9.18151 0)
(-0.0062719 8.65603 0)
(0.00260758 10.0008 0)
(0.00649971 10.0045 0)
(0.00811975 10.0108 0)
(0.00857584 10.0181 0)
(0.00795468 10.0269 0)
(0.00615977 10.0375 0)
(0.00350959 10.0501 0)
(0.000408938 10.0647 0)
(-0.00299798 10.0806 0)
(-0.00679802 10.0974 0)
(-0.0107488 10.1145 0)
(-0.014609 10.131 0)
(-0.0181398 10.1448 0)
(-0.0211113 10.1515 0)
(-0.0233164 10.1423 0)
(-0.0245622 10.1021 0)
(-0.0246207 10.0088 0)
(-0.0231246 9.84232 0)
(-0.0195423 9.59502 0)
(-0.0125667 9.25893 0)
(-0.00749941 8.74489 0)
(0.00218961 10.0006 0)
(0.00559407 10.0038 0)
(0.00702021 10.0094 0)
(0.00719153 10.0161 0)
(0.00623646 10.0242 0)
(0.00401673 10.0341 0)
(0.000756692 10.0462 0)
(-0.00327429 10.0607 0)
(-0.00762595 10.0778 0)
(-0.012057 10.0969 0)
(-0.0166894 10.1174 0)
(-0.0212486 10.1389 0)
(-0.0254593 10.1605 0)
(-0.0290534 10.1798 0)
(-0.0317802 10.1923 0)
(-0.0334125 10.1891 0)
(-0.0337442 10.1547 0)
(-0.0325426 10.0678 0)
(-0.0294749 9.90941 0)
(-0.0241135 9.67261 0)
(-0.0150272 9.34807 0)
(-0.00876813 8.84423 0)
(0.00186859 10.0005 0)
(0.00481984 10.0032 0)
(0.00601572 10.0083 0)
(0.00592705 10.0143 0)
(0.00465373 10.0217 0)
(0.00202642 10.0309 0)
(-0.00182596 10.0423 0)
(-0.00668824 10.0563 0)
(-0.0122908 10.0733 0)
(-0.0180015 10.0936 0)
(-0.0234826 10.1167 0)
(-0.0289175 10.1419 0)
(-0.0339907 10.1687 0)
(-0.0383945 10.1962 0)
(-0.0418417 10.2219 0)
(-0.0440675 10.2411 0)
(-0.0448401 10.2447 0)
(-0.0439552 10.2171 0)
(-0.0411993 10.1375 0)
(-0.0362967 9.988 0)
(-0.0289458 9.76183 0)
(-0.0175932 9.44832 0)
(-0.0100602 8.95328 0)
(0.00161905 10.0005 0)
(0.00419184 10.0028 0)
(0.00514177 10.0073 0)
(0.00478202 10.0127 0)
(0.00321432 10.0194 0)
(0.000207111 10.0278 0)
(-0.00420421 10.0384 0)
(-0.00987404 10.0516 0)
(-0.0165894 10.0681 0)
(-0.02395 10.0884 0)
(-0.0311078 10.1129 0)
(-0.0376282 10.1408 0)
(-0.0437771 10.1715 0)
(-0.049201 10.2046 0)
(-0.0535717 10.2389 0)
(-0.0565927 10.2718 0)
(-0.0580022 10.2985 0)
(-0.0575801 10.3096 0)
(-0.0551454 10.2896 0)
(-0.050523 10.218 0)
(-0.0435193 10.0777 0)
(-0.0339837 9.86201 0)
(-0.0202061 9.5586 0)
(-0.0113354 9.07042 0)
(0.00142178 10.0004 0)
(0.00368796 10.0025 0)
(0.00441839 10.0065 0)
(0.00379794 10.0113 0)
(0.00192209 10.0173 0)
(-0.00142827 10.0249 0)
(-0.00635539 10.0346 0)
(-0.0127864 10.0468 0)
(-0.0205767 10.0625 0)
(-0.0294019 10.0822 0)
(-0.0386948 10.1066 0)
(-0.0473546 10.1361 0)
(-0.054839 10.1698 0)
(-0.0615362 10.2071 0)
(-0.0670683 10.2472 0)
(-0.0711007 10.2891 0)
(-0.0733464 10.33 0)
(-0.073565 10.3647 0)
(-0.0715712 10.3839 0)
(-0.0672259 10.372 0)
(-0.0604174 10.3089 0)
(-0.0510553 10.178 0)
(-0.0391145 9.97223 0)
(-0.0227537 9.67761 0)
(-0.0121599 9.19393 0)
(0.0012634 10.0004 0)
(0.00327439 10.0022 0)
(0.00381724 10.0058 0)
(0.00299606 10.0102 0)
(0.000827869 10.0154 0)
(-0.0028726 10.0222 0)
(-0.00826125 10.0309 0)
(-0.0153928 10.0421 0)
(-0.0241969 10.0567 0)
(-0.0344332 10.0754 0)
(-0.0456198 10.0992 0)
(-0.0569926 10.1285 0)
(-0.0671454 10.164 0)
(-0.0754323 10.2045 0)
(-0.0824214 10.2491 0)
(-0.0877287 10.2972 0)
(-0.0910342 10.3474 0)
(-0.0920827 10.3968 0)
(-0.0906832 10.4401 0)
(-0.0867062 10.4677 0)
(-0.0800759 10.4642 0)
(-0.0707609 10.4097 0)
(-0.0587576 10.288 0)
(-0.0442829 10.0913 0)
(-0.025254 9.80505 0)
(-0.0130148 9.3238 0)
(0.00113464 10.0003 0)
(0.00293488 10.002 0)
(0.00332084 10.0053 0)
(0.00234521 10.0092 0)
(-4.50944e-05 10.0138 0)
(-0.00406892 10.0197 0)
(-0.00991049 10.0273 0)
(-0.0176688 10.0374 0)
(-0.0274069 10.0507 0)
(-0.0389751 10.0682 0)
(-0.0519859 10.0909 0)
(-0.0657648 10.1195 0)
(-0.0793076 10.1548 0)
(-0.0908561 10.1972 0)
(-0.0996797 10.2454 0)
(-0.106599 10.2983 0)
(-0.11125 10.355 0)
(-0.113355 10.414 0)
(-0.112723 10.4724 0)
(-0.109235 10.5245 0)
(-0.102836 10.5608 0)
(-0.0935338 10.5657 0)
(-0.0813669 10.5197 0)
(-0.0664739 10.4066 0)
(-0.0486014 10.2184 0)
(-0.0212923 9.93436 0)
(-0.00779721 9.39712 0)
(0.00102877 10.0003 0)
(0.00265384 10.0018 0)
(0.00291179 10.0049 0)
(0.00181643 10.0084 0)
(-0.000734028 10.0125 0)
(-0.00499681 10.0175 0)
(-0.0112375 10.024 0)
(-0.019598 10.0328 0)
(-0.030174 10.0448 0)
(-0.0429725 10.0608 0)
(-0.0577091 10.082 0)
(-0.073809 10.1094 0)
(-0.0903588 10.1438 0)
(-0.106076 10.186 0)
(-0.118809 10.2363 0)
(-0.127784 10.2933 0)
(-0.134161 10.3552 0)
(-0.137627 10.4211 0)
(-0.137982 10.4894 0)
(-0.135124 10.5569 0)
(-0.129035 10.6179 0)
(-0.11976 10.6627 0)
(-0.107375 10.6759 0)
(-0.0920269 10.638 0)
(-0.0736253 10.5329 0)
(-0.0527596 10.3505 0)
(-0.0165897 10.0938 0)
(-0.000276964 9.45 0)
(0.000940781 10.0003 0)
(0.00242004 10.0017 0)
(0.00256596 10.0045 0)
(0.00138477 10.0077 0)
(-0.00127691 10.0113 0)
(-0.00570364 10.0156 0)
(-0.0122282 10.0212 0)
(-0.0211028 10.0285 0)
(-0.032475 10.0389 0)
(-0.046382 10.0533 0)
(-0.0627188 10.0727 0)
(-0.0810214 10.0984 0)
(-0.10048 10.1314 0)
(-0.119897 10.1727 0)
(-0.137678 10.2228 0)
(-0.15126 10.282 0)
(-0.159875 10.3485 0)
(-0.165115 10.4201 0)
(-0.166764 10.4957 0)
(-0.164741 10.5735 0)
(-0.159068 10.6502 0)
(-0.149846 10.72 0)
(-0.137214 10.7731 0)
(-0.121336 10.7941 0)
(-0.102204 10.7637 0)
(-0.079722 10.6658 0)
(-0.0559049 10.4956 0)
(-0.0179677 10.254 0)
(0.0041694 9.49373 0)
(0.000866933 10.0002 0)
(0.00222455 10.0016 0)
(0.00227606 10.0042 0)
(0.00103676 10.0071 0)
(-0.0017042 10.0103 0)
(-0.0062365 10.014 0)
(-0.0129458 10.0186 0)
(-0.0221777 10.0248 0)
(-0.0342171 10.0333 0)
(-0.0491716 10.0458 0)
(-0.0669582 10.0632 0)
(-0.0873129 10.0868 0)
(-0.109544 10.1179 0)
(-0.132553 10.1575 0)
(-0.154818 10.2067 0)
(-0.174428 10.2657 0)
(-0.188374 10.3349 0)
(-0.195963 10.4116 0)
(-0.199352 10.4933 0)
(-0.198471 10.5789 0)
(-0.19339 10.6662 0)
(-0.184281 10.7519 0)
(-0.17137 10.8302 0)
(-0.154889 10.8911 0)
(-0.134918 10.9193 0)
(-0.111358 10.8961 0)
(-0.0843205 10.8058 0)
(-0.0566286 10.6527 0)
(-0.0210169 10.4102 0)
(0.00519891 9.53643 0)
(0.000804428 10.0002 0)
(0.00206035 10.0015 0)
(0.00203313 10.0039 0)
(0.000750943 10.0066 0)
(-0.00203891 10.0094 0)
(-0.0066333 10.0126 0)
(-0.0134513 10.0165 0)
(-0.0229077 10.0214 0)
(-0.0354054 10.0284 0)
(-0.0512284 10.0385 0)
(-0.0703838 10.0536 0)
(-0.0926098 10.0748 0)
(-0.117438 10.1035 0)
(-0.143888 10.141 0)
(-0.170528 10.1884 0)
(-0.195498 10.2465 0)
(-0.216528 10.3154 0)
(-0.230187 10.3953 0)
(-0.235955 10.4829 0)
(-0.236679 10.5751 0)
(-0.232486 10.6707 0)
(-0.223627 10.7674 0)
(-0.210432 10.8617 0)
(-0.193254 10.9478 0)
(-0.172326 11.0159 0)
(-0.147695 11.0511 0)
(-0.1197 11.0347 0)
(-0.0885084 10.9533 0)
(-0.0575995 10.8163 0)
(-0.0233153 10.5611 0)
(0.00482672 9.59226 0)
(0.000751136 10.0002 0)
(0.00192172 10.0014 0)
(0.0018293 10.0037 0)
(0.000515643 10.0061 0)
(-0.00230141 10.0087 0)
(-0.00692435 10.0114 0)
(-0.0137935 10.0146 0)
(-0.0233729 10.0185 0)
(-0.0361537 10.024 0)
(-0.0525708 10.032 0)
(-0.0728561 10.0443 0)
(-0.0968539 10.0626 0)
(-0.124068 10.0886 0)
(-0.153761 10.1233 0)
(-0.184617 10.1682 0)
(-0.214843 10.2245 0)
(-0.242185 10.2926 0)
(-0.264061 10.3724 0)
(-0.276625 10.4637 0)
(-0.279651 10.5625 0)
(-0.276811 10.6654 0)
(-0.268464 10.7709 0)
(-0.255071 10.8766 0)
(-0.237127 10.979 0)
(-0.215062 11.0724 0)
(-0.189148 11.1471 0)
(-0.159833 11.1887 0)
(-0.127914 11.1789 0)
(-0.0934076 11.1071 0)
(-0.059316 10.9814 0)
(-0.0256543 10.724 0)
(0.00378066 9.6577 0)
(0.000705392 10.0002 0)
(0.00180403 10.0013 0)
(0.00165885 10.0035 0)
(0.000320501 10.0058 0)
(-0.00250702 10.008 0)
(-0.00713374 10.0104 0)
(-0.0140114 10.0129 0)
(-0.0236375 10.0159 0)
(-0.0365674 10.0201 0)
(-0.0533496 10.0263 0)
(-0.0744088 10.0359 0)
(-0.0998703 10.0508 0)
(-0.129355 10.0732 0)
(-0.162051 10.1048 0)
(-0.196909 10.1467 0)
(-0.23223 10.2002 0)
(-0.265803 10.2664 0)
(-0.29501 10.3456 0)
(-0.316982 10.437 0)
(-0.327492 10.5403 0)
(-0.326736 10.6507 0)
(-0.319355 10.7641 0)
(-0.305978 10.8791 0)
(-0.28729 10.9932 0)
(-0.263928 11.1031 0)
(-0.236428 11.2031 0)
(-0.205387 11.284 0)
(-0.171691 11.3314 0)
(-0.136322 11.3275 0)
(-0.0990061 11.2645 0)
(-0.0622103 11.1649 0)
(-0.0281614 10.8988 0)
(0.00221714 9.73138 0)
(0.000665924 10.0002 0)
(0.00170359 10.0013 0)
(0.00151429 10.0033 0)
(0.000157887 10.0054 0)
(-0.00266799 10.0075 0)
(-0.00728052 10.0094 0)
(-0.0141356 10.0114 0)
(-0.0237523 10.0136 0)
(-0.0367307 10.0166 0)
(-0.0537026 10.0212 0)
(-0.0752395 10.0284 0)
(-0.10171 10.0401 0)
(-0.133079 10.0583 0)
(-0.168655 10.0857 0)
(-0.20725 10.124 0)
(-0.247445 10.1742 0)
(-0.2871 10.2376 0)
(-0.323595 10.3148 0)
(-0.353971 10.4058 0)
(-0.375104 10.5096 0)
(-0.382451 10.6252 0)
(-0.376784 10.7472 0)
(-0.363844 10.8709 0)
(-0.344555 10.9949 0)
(-0.319827 11.1168 0)
(-0.290462 11.2334 0)
(-0.257278 11.3394 0)
(-0.221256 11.4256 0)
(-0.183505 11.4779 0)
(-0.14486 11.4788 0)
(-0.10545 11.4421 0)
(-0.065988 11.3648 0)
(-0.0307632 11.0679 0)
(0.000503087 9.81156 0)
(0.000632052 10.0002 0)
(0.00161722 10.0012 0)
(0.0013908 10.0031 0)
(2.35541e-05 10.0051 0)
(-0.00279382 10.007 0)
(-0.0073796 10.0086 0)
(-0.0141901 10.0101 0)
(-0.023757 10.0117 0)
(-0.0367102 10.0136 0)
(-0.0537401 10.0166 0)
(-0.0755272 10.0217 0)
(-0.102627 10.0304 0)
(-0.135308 10.0446 0)
(-0.173292 10.067 0)
(-0.215505 10.1004 0)
(-0.260292 10.1466 0)
(-0.305813 10.2063 0)
(-0.349481 10.2807 0)
(-0.38827 10.3701 0)
(-0.418904 10.4738 0)
(-0.43809 10.5905 0)
(-0.441047 10.7186 0)
(-0.429282 10.8519 0)
(-0.409753 10.9854 0)
(-0.383703 11.1177 0)
(-0.352278 11.2467 0)
(-0.316558 11.3692 0)
(-0.277705 11.4803 0)
(-0.236927 11.5709 0)
(-0.195267 11.6265 0)
(-0.154147 11.6495 0)
(-0.112444 11.638 0)
(-0.0700569 11.5596 0)
(-0.0332512 11.2313 0)
(-0.00117126 9.89613 0)
(0.001542 10.0012 0)
(0.000591598 10.0002 0)
(0.00128422 10.003 0)
(-8.81421e-05 10.0049 0)
(-0.00289173 10.0065 0)
(-0.00744247 10.0079 0)
(-0.0141937 10.009 0)
(-0.0236828 10.0099 0)
(-0.0365579 10.0109 0)
(-0.053549 10.0126 0)
(-0.0754149 10.0158 0)
(-0.102852 10.0218 0)
(-0.136365 10.0324 0)
(-0.176046 10.0499 0)
(-0.221315 10.0773 0)
(-0.270597 10.1179 0)
(-0.321697 10.1732 0)
(-0.372343 10.2438 0)
(-0.419481 10.3303 0)
(-0.459702 10.4327 0)
(-0.489485 10.5499 0)
(-0.505466 10.6796 0)
(-0.502722 10.8201 0)
(-0.483649 10.9644 0)
(-0.456537 11.1071 0)
(-0.422963 11.2469 0)
(-0.384376 11.382 0)
(-0.342181 11.5096 0)
(-0.297766 11.6247 0)
(-0.252353 11.7181 0)
(-0.208058 11.7936 0)
(-0.163976 11.8383 0)
(-0.119112 11.8307 0)
(-0.0740877 11.7481 0)
(-0.0355222 11.3885 0)
(-0.00268941 9.9832 0)
(0.0011913 10.0029 0)
(0.0014549 10.0011 0)
(0.000543081 10.0002 0)
(-0.000182415 10.0046 0)
(-0.00296775 10.0061 0)
(-0.00747786 10.0073 0)
(-0.0141607 10.008 0)
(-0.0235536 10.0084 0)
(-0.0363141 10.0086 0)
(-0.0531972 10.0091 0)
(-0.0750158 10.0106 0)
(-0.10257 10.0141 0)
(-0.136544 10.0214 0)
(-0.177322 10.0344 0)
(-0.224773 10.0561 0)
(-0.277901 10.0896 0)
(-0.33453 10.1386 0)
(-0.39188 10.2044 0)
(-0.447216 10.287 0)
(-0.497032 10.3868 0)
(-0.537598 10.5031 0)
(-0.565241 10.6341 0)
(-0.576641 10.7771 0)
(-0.566837 10.9297 0)
(-0.539272 11.0843 0)
(-0.50367 11.2352 0)
(-0.461969 11.3816 0)
(-0.415953 11.5219 0)
(-0.367265 11.6535 0)
(-0.317349 11.7711 0)
(-0.269025 11.8834 0)
(-0.221475 11.9781 0)
(-0.173188 12.0246 0)
(-0.125291 12.0182 0)
(-0.0778763 11.9292 0)
(-0.0375476 11.5392 0)
(-0.0040756 10.0711 0)
(-0.000265415 10.0044 0)
(0.00109454 10.0028 0)
(0.00134838 10.001 0)
(0.000496744 10.0001 4.50569e-20)
(-0.00302747 10.0058 0)
(-0.00749273 10.0067 0)
(-0.0141018 10.0071 0)
(-0.0233878 10.007 0)
(-0.0360098 10.0065 0)
(-0.0527369 10.0059 0)
(-0.0744177 10.0059 0)
(-0.101926 10.0073 0)
(-0.136078 10.0116 0)
(-0.177489 10.0206 0)
(-0.226383 10.0368 0)
(-0.282298 10.0635 0)
(-0.343723 10.1043 0)
(-0.407806 10.163 0)
(-0.471101 10.2407 0)
(-0.530432 10.3367 0)
(-0.581889 10.4507 0)
(-0.621499 10.5815 0)
(-0.645559 10.7267 0)
(-0.650921 10.8827 0)
(-0.632701 11.0469 0)
(-0.595537 11.2109 0)
(-0.550675 11.3692 0)
(-0.500423 11.5211 0)
(-0.446827 11.6655 0)
(-0.391636 11.7994 0)
(-0.338393 11.9356 0)
(-0.286411 12.066 0)
(-0.233898 12.1602 0)
(-0.181649 12.2067 0)
(-0.130866 12.1992 0)
(-0.0813084 12.1024 0)
(-0.0392936 11.6832 0)
(-0.00532749 10.1584 0)
(-0.00308138 10.0055 0)
(-0.000335956 10.0042 0)
(0.00098446 10.0026 2.0505e-19)
(0.00124592 10.001 -1.42851e-19)
(0.000452534 10.0001 -8.84369e-20)
(-0.00749395 10.0063 0)
(-0.0140251 10.0064 0)
(-0.0231985 10.0058 0)
(-0.0356685 10.0047 0)
(-0.0522086 10.0032 0)
(-0.0736888 10.0018 0)
(-0.101033 10.0013 0)
(-0.135155 10.0029 0)
(-0.176841 10.0082 0)
(-0.226598 10.0195 0)
(-0.284399 10.0398 0)
(-0.349359 10.0725 0)
(-0.419372 10.122 0)
(-0.490778 10.1919 0)
(-0.559447 10.2829 0)
(-0.62181 10.3933 0)
(-0.673623 10.5225 0)
(-0.710789 10.6682 0)
(-0.729703 10.8275 0)
(-0.727537 10.9962 0)
(-0.699597 11.1711 0)
(-0.651855 11.3436 0)
(-0.597129 11.5081 0)
(-0.538031 11.6644 0)
(-0.476758 11.8112 0)
(-0.417737 11.9636 0)
(-0.360281 12.1173 0)
(-0.302404 12.246 0)
(-0.245193 12.3382 0)
(-0.189247 12.383 0)
(-0.135784 12.3728 0)
(-0.0843307 12.2672 0)
(-0.0407552 11.8202 0)
(-0.00643393 10.244 0)
(-0.00749664 10.0058 0)
(-0.00309196 10.0051 -4.63228e-19)
(-0.000399312 10.0039 -2.16682e-19)
(0.000879491 10.0024 1.00633e-19)
(0.00114609 10.0009 -9.34437e-20)
(0.000410478 10.0001 0)
(-0.0139384 10.0057 0)
(-0.0229951 10.0048 0)
(-0.0353068 10.003 0)
(-0.0516423 10.0007 0)
(-0.0728809 9.99816 0)
(-0.0999788 9.99597 0)
(-0.133919 9.99515 0)
(-0.175613 9.99715 0)
(-0.225788 10.004 0)
(-0.284761 10.0184 0)
(-0.352167 10.0436 0)
(-0.426626 10.0838 0)
(-0.505296 10.1432 0)
(-0.583633 10.2258 0)
(-0.656822 10.3314 0)
(-0.720981 10.4574 0)
(-0.771639 10.6023 0)
(-0.804709 10.7633 0)
(-0.816844 10.9364 0)
(-0.805677 11.1171 0)
(-0.766812 11.3018 0)
(-0.707668 11.4816 0)
(-0.64262 11.651 0)
(-0.574473 11.81 0)
(-0.50875 11.9754 0)
(-0.444854 12.1451 0)
(-0.380372 12.2966 0)
(-0.316879 12.4221 0)
(-0.255267 12.5108 0)
(-0.195933 12.5525 0)
(-0.140037 12.5383 0)
(-0.0869322 12.4236 0)
(-0.0419535 11.95 0)
(-0.00739587 10.327 0)
(-0.0138643 10.0051 0)
(-0.00740977 10.0053 9.78927e-19)
(-0.00305113 10.0047 0)
(-0.000457867 10.0036 2.12614e-19)
(0.00078113 10.0022 3.51888e-23)
(0.00105019 10.0008 0)
(0.000370588 10.0001 0)
(-0.0227865 10.0038 0)
(-0.034936 10.0016 0)
(-0.0510593 9.99857 0)
(-0.0720331 9.99494 0)
(-0.0988307 9.99124 0)
(-0.132481 9.98828 0)
(-0.17399 9.98733 0)
(-0.224246 9.99016 0)
(-0.283839 9.99918 0)
(-0.352825 10.0175 0)
(-0.43043 10.0489 0)
(-0.514641 10.0977 0)
(-0.60179 10.1686 0)
(-0.686375 10.2654 0)
(-0.762933 10.3869 0)
(-0.82739 10.5294 0)
(-0.875183 10.6905 0)
(-0.902393 10.8666 0)
(-0.906087 11.0531 0)
(-0.884503 11.2448 0)
(-0.833643 11.4381 0)
(-0.762434 11.6239 0)
(-0.686734 11.7966 0)
(-0.613415 11.9744 0)
(-0.541983 12.1571 0)
(-0.469721 12.3245 0)
(-0.398533 12.4721 0)
(-0.329763 12.5928 0)
(-0.264091 12.6768 0)
(-0.20171 12.7146 0)
(-0.143651 12.6955 0)
(-0.0891294 12.5713 0)
(-0.042918 12.0726 0)
(-0.00822072 10.4067 0)
(-0.0226063 10.003 0)
(-0.0136357 10.0044 1.0377e-22)
(-0.00720005 10.0047 0)
(-0.00300698 10.0043 -2.24657e-19)
(-0.000507782 10.0033 2.23222e-23)
(0.000689121 10.0021 0)
(0.000958221 10.0008 0)
(0.00033287 10.0001 0)
(-0.0345657 10.0004 0)
(-0.0504729 9.99666 0)
(-0.0711724 9.9921 0)
(-0.0976388 9.98705 0)
(-0.130928 9.9822 0)
(-0.172113 9.97861 0)
(-0.222202 9.97783 0)
(-0.281996 9.98201 0)
(-0.351882 9.99396 0)
(-0.431591 10.0172 0)
(-0.519813 10.056 0)
(-0.613802 10.1151 0)
(-0.70897 10.199 0)
(-0.798812 10.3115 0)
(-0.877292 10.45 0)
(-0.940306 10.6097 0)
(-0.983363 10.7872 0)
(-1.00288 10.9781 0)
(-0.996506 11.1771 0)
(-0.96319 11.3788 0)
(-0.899413 11.5793 0)
(-0.81563 11.7692 0)
(-0.733903 11.9612 0)
(-0.653889 12.1567 0)
(-0.572471 12.337 0)
(-0.492189 12.5002 0)
(-0.414696 12.6424 0)
(-0.341039 12.7572 0)
(-0.271693 12.8358 0)
(-0.206616 12.8688 0)
(-0.146664 12.8443 0)
(-0.0909496 12.7104 0)
(-0.0436781 12.188 0)
(-0.00891919 10.4828 0)
(-0.0342453 9.99924 0)
(-0.0221804 10.0021 -5.46501e-19)
(-0.013173 10.0036 0)
(-0.00698899 10.0041 0)
(-0.00295065 10.0039 6.61428e-19)
(-0.00054883 10.0031 0)
(0.000603376 10.0019 0)
(0.000870189 10.0007 1.76661e-19)
(0.000297347 10.0001 0)
(-0.0498941 9.99497 0)
(-0.0703151 9.98958 0)
(-0.0964376 9.98334 0)
(-0.129325 9.97681 0)
(-0.170091 9.97087 0)
(-0.219835 9.96687 0)
(-0.279516 9.96669 0)
(-0.349783 9.97288 0)
(-0.430772 9.9887 0)
(-0.521763 10.0181 0)
(-0.620812 10.0658 0)
(-0.724338 10.1366 0)
(-0.82676 10.2352 0)
(-0.920549 10.3646 0)
(-0.999219 10.5212 0)
(-1.05884 10.6986 0)
(-1.09517 10.8924 0)
(-1.10517 11.0974 0)
(-1.08716 11.3079 0)
(-1.04094 11.5181 0)
(-0.963474 11.724 0)
(-0.872591 11.934 0)
(-0.782978 12.1443 0)
(-0.691049 12.3375 0)
(-0.600031 12.5135 0)
(-0.512191 12.6708 0)
(-0.428857 12.8064 0)
(-0.350759 12.9147 0)
(-0.278139 12.9873 0)
(-0.210712 13.015 0)
(-0.149129 12.9845 0)
(-0.0924275 12.8411 0)
(-0.0442622 12.2963 0)
(-0.00950406 10.555 0)
(-0.0493938 9.99348 0)
(-0.0335543 9.998 0)
(-0.0213594 10.001 -5.40348e-19)
(-0.0127142 10.0028 -5.01761e-19)
(-0.00676114 10.0036 -9.31887e-19)
(-0.00288079 10.0035 0)
(-0.000580975 10.0028 -4.01931e-19)
(0.000524019 10.0018 -3.73329e-19)
(0.000786107 10.0007 1.73377e-19)
(0.000263971 10.0001 0)
(-0.0694735 9.98735 0)
(-0.0952468 9.98006 0)
(-0.127715 9.97203 0)
(-0.168007 9.964 0)
(-0.217283 9.95712 0)
(-0.276623 9.95304 0)
(-0.346879 9.95404 0)
(-0.428509 9.96307 0)
(-0.521279 9.98386 0)
(-0.623926 10.0208 0)
(-0.733766 10.0789 0)
(-0.846298 10.163 0)
(-0.95488 10.2778 0)
(-1.05099 10.4256 0)
(-1.12786 10.601 0)
(-1.18197 10.7961 0)
(-1.20953 11.0058 0)
(-1.20819 11.2241 0)
(-1.17712 11.4449 0)
(-1.11697 11.6618 0)
(-1.0323 11.8889 0)
(-0.931984 12.118 0)
(-0.828089 12.3263 0)
(-0.724666 12.5152 0)
(-0.624583 12.6851 0)
(-0.529734 12.8354 0)
(-0.441085 12.9637 0)
(-0.359014 13.0648 0)
(-0.28352 13.131 0)
(-0.21407 13.1529 0)
(-0.151102 13.1163 0)
(-0.0935993 12.9635 0)
(-0.0446968 12.3977 0)
(-0.00998812 10.6231 0)
(-0.0687477 9.98537 0)
(-0.0483545 9.99185 -6.11131e-19)
(-0.0322417 9.99662 5.7089e-19)
(-0.0205523 9.99997 -2.47267e-22)
(-0.0122331 10.002 4.92315e-19)
(-0.00651395 10.003 4.57293e-19)
(-0.00279724 10.0031 8.49389e-19)
(-0.000604131 10.0025 5.9167e-19)
(0.0004509 10.0016 -1.83202e-19)
(0.000706063 10.0006 0)
(0.000232727 10.0001 0)
(-0.0940811 9.97714 0)
(-0.126122 9.96779 0)
(-0.165915 9.95791 0)
(-0.21465 9.94847 0)
(-0.27349 9.9409 0)
(-0.343445 9.93722 0)
(-0.42523 9.94011 0)
(-0.519002 9.953 0)
(-0.624069 9.98005 0)
(-0.738524 10.0261 0)
(-0.858845 10.0962 0)
(-0.979523 10.1954 0)
(-1.09284 10.3278 0)
(-1.18935 10.4949 0)
(-1.26221 10.6896 0)
(-1.30858 10.9024 0)
(-1.32531 11.1273 0)
(-1.3109 11.3577 0)
(-1.26547 11.5868 0)
(-1.19902 11.8263 0)
(-1.10436 12.0738 0)
(-0.986738 12.3016 0)
(-0.868953 12.5056 0)
(-0.754636 12.6883 0)
(-0.646144 12.8508 0)
(-0.544905 12.9934 0)
(-0.451492 13.1138 0)
(-0.365922 13.2074 0)
(-0.287937 13.2668 0)
(-0.216768 13.2827 0)
(-0.152644 13.2399 0)
(-0.0945048 13.078 0)
(-0.0450055 12.4925 0)
(-0.0103841 10.6872 0)
(-0.0930792 9.97456 0)
(-0.0672601 9.98326 -8.02867e-22)
(-0.046385 9.99008 0)
(-0.03096 9.99529 -4.04159e-22)
(-0.0197159 9.99898 0)
(-0.011724 10.0013 -4.83163e-19)
(-0.0062466 10.0025 -8.97546e-19)
(-0.0027006 10.0027 1.15341e-23)
(-0.000618447 10.0023 3.871e-19)
(0.00038409 10.0015 -1.79791e-19)
(0.000630061 10.0005 1.67005e-19)
(0.000203584 10.0001 0)
(-0.124564 9.96403 0)
(-0.163847 9.95251 0)
(-0.212005 9.94079 0)
(-0.270246 9.93011 0)
(-0.339696 9.92224 0)
(-0.421271 9.9196 0)
(-0.515447 9.9253 0)
(-0.622 9.94323 0)
(-0.739683 9.97799 0)
(-0.865842 10.0347 0)
(-0.996017 10.1186 0)
(-1.12365 10.2344 0)
(-1.23996 10.3859 0)
(-1.33466 10.5732 0)
(-1.40114 10.7873 0)
(-1.43747 11.0173 0)
(-1.44137 11.2564 0)
(-1.41228 11.4971 0)
(-1.36125 11.7504 0)
(-1.28529 12.012 0)
(-1.17104 12.2592 0)
(-1.0365 12.483 0)
(-0.905466 12.6806 0)
(-0.780988 12.8557 0)
(-0.664818 13.01 0)
(-0.557843 13.1442 0)
(-0.460221 13.2563 0)
(-0.371611 13.3422 0)
(-0.291494 13.3947 0)
(-0.218887 13.4046 0)
(-0.153809 13.3556 0)
(-0.0951808 13.185 0)
(-0.0452096 12.5808 0)
(-0.0107038 10.7472 0)
(-0.123231 9.9607 0)
(-0.0910232 9.97184 6.82672e-19)
(-0.06443 9.98101 -6.38917e-19)
(-0.0444721 9.98839 5.92283e-19)
(-0.0296411 9.99402 0)
(-0.0188404 9.99803 0)
(-0.0111871 10.0006 4.74178e-19)
(-0.00596006 10.002 -4.40374e-19)
(-0.00259065 10.0024 1.74735e-23)
(-0.000623878 10.0021 1.89986e-19)
(0.000323434 10.0014 -1.76475e-19)
(0.000558079 10.0005 -1.63901e-19)
(0.000176637 10.0001 0)
(-0.161826 9.94771 0)
(-0.209387 9.93396 0)
(-0.266979 9.92051 0)
(-0.335793 9.90891 0)
(-0.416896 9.90129 0)
(-0.511023 9.9005 0)
(-0.618333 9.91011 0)
(-0.738131 9.93447 0)
(-0.868515 9.97855 0)
(-1.00597 10.0477 0)
(-1.14505 10.1471 0)
(-1.2781 10.2812 0)
(-1.39534 10.4527 0)
(-1.48582 10.6608 0)
(-1.54341 10.8943 0)
(-1.56743 11.1407 0)
(-1.55656 11.3922 0)
(-1.5228 11.6589 0)
(-1.46249 11.9362 0)
(-1.36551 12.1992 0)
(-1.23189 12.4433 0)
(-1.08112 12.6606 0)
(-0.93766 12.8503 0)
(-0.803841 13.0167 0)
(-0.680767 13.1622 0)
(-0.56872 13.2875 0)
(-0.467429 13.3912 0)
(-0.376212 13.4693 0)
(-0.294294 13.5149 0)
(-0.220504 13.5187 0)
(-0.15465 13.4636 0)
(-0.0956624 13.2846 0)
(-0.0453279 12.6631 0)
(-0.0109586 10.8034 0)
(-0.160104 9.94346 0)
(-0.120466 9.95724 0)
(-0.0870852 9.96901 6.7481e-19)
(-0.0616937 9.97886 -1.25435e-18)
(-0.0425123 9.98676 1.16397e-18)
(-0.0282685 9.9928 -1.0803e-18)
(-0.0179258 9.99712 0)
(-0.010623 9.99994 4.65514e-19)
(-0.00565524 10.0015 -4.32187e-19)
(-0.00246758 10.002 -4.01491e-19)
(-0.000620476 10.0019 0)
(0.000268749 10.0012 1.732e-19)
(0.000490604 10.0004 0)
(0.000152362 10.0001 0)
(-0.206827 9.92791 0)
(-0.263738 9.91199 0)
(-0.331846 9.89704 0)
(-0.412307 9.88497 0)
(-0.50605 9.87832 0)
(-0.613557 9.88039 0)
(-0.734592 9.89522 0)
(-0.867891 9.92756 0)
(-1.01078 9.98271 0)
(-1.15882 10.0661 0)
(-1.30549 10.1827 0)
(-1.44211 10.3365 0)
(-1.55796 10.529 0)
(-1.64161 10.758 0)
(-1.68776 11.0104 0)
(-1.6972 11.2717 0)
(-1.68292 11.5513 0)
(-1.64035 11.8443 0)
(-1.55718 12.125 0)
(-1.43905 12.3862 0)
(-1.28663 12.6244 0)
(-1.12057 12.8334 0)
(-0.965677 13.0138 0)
(-0.823404 13.1707 0)
(-0.694198 13.3069 0)
(-0.577727 13.4232 0)
(-0.473281 13.5184 0)
(-0.379859 13.5887 0)
(-0.296441 13.6275 0)
(-0.221691 13.6253 0)
(-0.155218 13.5644 0)
(-0.0959802 13.3774 0)
(-0.0453764 12.7397 0)
(-0.0111577 10.8557 0)
(-0.204659 9.92253 0)
(-0.15647 9.93908 0)
(-0.115127 9.95368 0)
(-0.0832959 9.96631 1.32475e-18)
(-0.0589005 9.97682 -1.2295e-18)
(-0.0404817 9.98522 1.14119e-18)
(-0.0268436 9.99165 0)
(-0.0169744 9.99627 -4.91804e-19)
(-0.0100331 9.99931 0)
(-0.00533198 10.001 4.24194e-19)
(-0.00233316 10.0017 0)
(-0.000607364 10.0017 0)
(0.000220057 10.0011 0)
(0.00042921 10.0004 1.68369e-19)
(0.000130849 10 8.22313e-20)
(-0.260567 9.90441 0)
(-0.327915 9.88649 0)
(-0.407637 9.87043 0)
(-0.500776 9.85853 0)
(-0.608062 9.85377 0)
(-0.729649 9.85991 0)
(-0.864813 9.88145 0)
(-1.01161 9.92351 0)
(-1.16651 9.99157 0)
(-1.32406 10.091 0)
(-1.47671 10.2265 0)
(-1.61473 10.4011 0)
(-1.72663 10.6153 0)
(-1.80075 10.8652 0)
(-1.83288 11.1352 0)
(-1.84055 11.4268 0)
(-1.81825 11.7352 0)
(-1.75105 12.0342 0)
(-1.64454 12.3148 0)
(-1.50558 12.5712 0)
(-1.33523 12.8012 0)
(-1.15502 13.0003 0)
(-0.989739 13.1706 0)
(-0.839932 13.3174 0)
(-0.705343 13.4439 0)
(-0.585064 13.5512 0)
(-0.477938 13.638 0)
(-0.382675 13.7008 0)
(-0.298027 13.7329 0)
(-0.222514 13.7249 0)
(-0.155558 13.6583 0)
(-0.0961622 13.4638 0)
(-0.0453682 12.8108 0)
(-0.0113094 10.9045 0)
(-0.2579 9.89768 0)
(-0.199972 9.91704 0)
(-0.149387 9.93465 1.51466e-18)
(-0.110013 9.95031 1.40471e-18)
(-0.0794381 9.96375 1.3029e-18)
(-0.0560163 9.97489 -1.20855e-18)
(-0.0383822 9.98377 0)
(-0.0253693 9.99056 0)
(-0.0159879 9.99546 0)
(-0.00941841 9.99872 8.96882e-19)
(-0.00499179 10.0006 4.16413e-19)
(-0.00218616 10.0014 3.86729e-19)
(-0.000586377 10.0015 0)
(0.000177862 10.001 -1.77906e-19)
(0.000374318 10.0004 -8.69159e-20)
(0.000111742 10 0)
(-0.324067 9.8771 0)
(-0.402963 9.85749 0)
(-0.495366 9.84087 0)
(-0.602148 9.82997 0)
(-0.723768 9.82823 0)
(-0.859969 9.83987 0)
(-1.00943 9.86979 0)
(-1.16943 9.92342 0)
(-1.33551 10.0063 0)
(-1.5012 10.1236 0)
(-1.65785 10.2794 0)
(-1.79486 10.4758 0)
(-1.90012 10.712 0)
(-1.96189 10.9819 0)
(-1.99441 11.2846 0)
(-1.99533 11.6081 0)
(-1.94674 11.9256 0)
(-1.85394 12.2267 0)
(-1.72409 12.5039 0)
(-1.56498 12.7527 0)
(-1.37781 12.9726 0)
(-1.18468 13.1607 0)
(-1.01013 13.3201 0)
(-0.8537 13.4565 0)
(-0.714445 13.5734 0)
(-0.590927 13.6716 0)
(-0.481558 13.7503 0)
(-0.384779 13.8056 0)
(-0.299139 13.8313 0)
(-0.223032 13.8177 0)
(-0.155709 13.7457 0)
(-0.0962317 13.544 0)
(-0.0453139 12.8768 0)
(-0.0114223 10.9499 0)
(-0.320855 9.86877 0)
(-0.251953 9.89085 0)
(-0.19075 9.91156 -3.20394e-18)