/*--------------------------------*- C++ -*----------------------------------*\
  =========                 |
  \\      /  F ield         | OpenFOAM: The Open Source CFD Toolbox
   \\    /   O peration     | Website:  https://openfoam.org
    \\  /    A nd           | Version:  8
     \\/     M anipulation  |
\*---------------------------------------------------------------------------*/
FoamFile
{
    version     2.0;
    format      ascii;
    class       volScalarField;
    location    "0.38";
    object      epsilon;
}
// * * * * * * * * * * * * * * * * * * * * * * * * * * * * * * * * * * * * * //

dimensions      [0 2 -3 0 0 0 0];

internalField   nonuniform List<scalar> 
15677
(
59.7001
18.3534
52.6148
8.08725
25.8939
50.1646
4.62697
13.2643
31.5817
50.4839
3.17768
7.72376
17.0833
37.2709
51.5982
2.4894
5.04297
10.026
20.8122
42.6417
53.6511
2.14566
3.62276
6.46193
12.1615
24.5405
47.6497
55.7116
1.97984
2.82093
4.52449
7.72358
14.2744
28.2484
52.0022
57.6446
1.91169
2.353
3.40151
5.30958
8.915
16.4213
31.7467
55.677
59.3408
1.88416
2.08029
2.72314
3.90869
6.02111
10.1042
18.5311
34.9411
58.6895
60.8403
1.87055
1.93941
2.30708
3.05517
4.35748
6.7062
11.2714
20.5614
37.7578
61.1599
62.106
1.86766
1.87832
2.05646
2.52092
3.34774
4.77565
7.36233
12.4144
22.4513
40.2172
63.1492
63.2193
1.86864
1.84884
1.91658
2.18599
2.71236
3.61473
5.16503
7.9994
13.5017
24.1939
42.3116
64.7728
64.149
1.86955
1.83869
1.85193
1.98262
2.30684
2.88613
3.85803
5.5351
8.60369
14.5319
25.7564
44.1006
66.0768
64.9801
1.86979
1.83696
1.82111
1.86775
2.0514
2.41803
3.04283
4.08423
5.88105
9.17831
15.4819
27.1556
45.5967
67.1372
65.7065
1.86979
1.83722
1.81048
1.81333
1.89821
2.11745
2.51868
3.18622
4.2922
6.20654
9.71116
16.3571
28.3773
46.8538
68.0022
66.35
1.86976
1.83748
1.80818
1.78973
1.8154
1.93032
2.17875
2.61028
3.31638
4.48475
6.50633
10.2055
17.1417
29.4418
47.9012
68.7064
66.9398
1.86974
1.83758
1.80789
1.78269
1.77567
1.82149
1.96238
2.23512
2.69297
3.43509
4.66015
6.7824
10.6525
17.8432
30.3505
48.76
69.3108
67.4418
1.86973
1.8376
1.80792
1.78097
1.76141
1.7661
1.83175
1.99307
2.28626
2.76765
3.5421
4.81964
7.03113
11.0556
18.454
31.1169
49.4724
69.79
67.9505
1.86972
1.83759
1.80794
1.78064
1.75692
1.74385
1.76035
1.8431
2.02156
2.33239
2.83449
3.63817
4.96207
7.25399
11.4091
18.9808
31.7537
50.0312
70.2417
68.3462
1.86972
1.83757
1.80794
1.7806
1.75566
1.73581
1.72945
1.75736
1.85449
2.04762
2.37364
2.89396
3.72323
5.08809
7.44899
11.7157
19.4221
32.2664
50.4986
70.5778
68.818
1.86972
1.83756
1.80793
1.78059
1.75535
1.73309
1.71721
1.71793
1.75581
1.86558
2.07117
2.41023
2.94629
3.79763
5.19757
7.61669
11.9735
19.7844
32.6766
50.8393
70.9515
69.1315
1.86972
1.83755
1.80792
1.78057
1.75528
1.73225
1.71259
1.70121
1.70838
1.75567
1.87599
2.09218
2.44241
2.99179
3.86183
5.29055
7.7576
12.1849
20.0714
32.9845
51.1307
71.2016
69.5985
1.86972
1.83754
1.80791
1.78054
1.75525
1.732
1.71098
1.69438
1.68714
1.70074
1.75596
1.88553
2.1108
2.47043
3.03098
3.91604
5.36836
7.87144
12.3518
20.2887
33.2133
51.325
71.5537
69.8515
1.86972
1.83754
1.8079
1.78052
1.75522
1.7319
1.71044
1.69176
1.6779
1.67518
1.6944
1.75666
1.89431
2.12728
2.49476
3.06423
3.9613
5.43049
7.9617
12.4764
20.4458
33.3675
51.4902
71.7572
70.3184
1.86972
1.83754
1.8079
1.7805
1.7552
1.73185
1.71025
1.69079
1.6741
1.66352
1.66466
1.68934
1.75798
1.90246
2.14192
2.51578
3.09233
3.99799
5.48014
8.02743
12.5652
20.5436
33.4582
51.6083
72.1512
70.5617
1.86972
1.83754
1.8079
1.78049
1.75517
1.7318
1.71016
1.69041
1.67262
1.65845
1.65054
1.65604
1.68543
1.75973
1.91019
2.15519
2.53429
3.11609
4.02779
5.5163
8.07473
12.617
20.6022
33.5089
51.6854
72.4451
428.882
1.86972
1.83754
1.80789
1.78048
1.75516
1.73176
1.7101
1.69024
1.67203
1.65632
1.64416
1.63971
1.64856
1.68273
1.76225
1.91802
2.16768
2.55088
3.13629
4.0511
5.54333
8.10158
12.6457
20.6076
33.5065
51.8083
88.8165
715.182
1.86972
1.83754
1.80789
1.78047
1.75514
1.73173
1.71005
1.69013
1.67177
1.65541
1.6414
1.63199
1.63008
1.64342
1.68186
1.76598
1.92634
2.18004
2.56646
3.15429
4.07037
5.56126
8.11829
12.643
20.5954
33.5107
52.7358
122.181
993.296
1.86972
1.83754
1.80789
1.78046
1.75513
1.73171
1.71001
1.69005
1.67162
1.65499
1.64021
1.62845
1.6212
1.62311
1.6392
1.6828
1.7712
1.93592
2.19316
2.58228
3.1713
4.08668
5.57402
8.11819
12.6316
20.5675
33.5382
55.3059
157.647
1238.62
1.86972
1.83754
1.80789
1.78046
1.75512
1.73169
1.70997
1.68999
1.67152
1.65476
1.63965
1.62683
1.61708
1.61293
1.61735
1.63909
1.68564
1.77866
1.9475
2.20808
2.59914
3.18859
4.10152
5.58204
8.11513
12.6082
20.531
33.6406
59.8873
190.097
1463.95
1.86972
1.83754
1.80789
1.78046
1.75511
1.73167
1.70995
1.68994
1.67143
1.65461
1.63934
1.62604
1.61517
1.60798
1.60648
1.61547
1.64074
1.69145
1.78911
1.96203
2.22554
2.61834
3.20719
4.11673
5.58864
8.10829
12.5796
20.4884
33.8992
64.6109
220.84
1654.45
1.86972
1.83754
1.80788
1.78045
1.75511
1.73165
1.70992
1.6899
1.67136
1.65449
1.63914
1.62562
1.61422
1.6056
1.60118
1.60329
1.61673
1.64526
1.7012
1.80351
1.98035
2.24686
2.64082
3.22883
4.13363
5.59633
8.10029
12.5489
20.441
34.3702
69.4109
247.829
1798.77
1.86972
1.83754
1.80788
1.78045
1.7551
1.73164
1.7099
1.68986
1.6713
1.6544
1.63898
1.62535
1.61369
1.60439
1.59859
1.59722
1.60432
1.62081
1.65425
1.71568
1.82273
2.00371
2.2729
2.66807
3.25435
4.15427
5.60689
8.09424
12.5162
20.3974
34.9319
73.7613
268.781
1910.4
1.86972
1.83754
1.80788
1.78045
1.7551
1.73163
1.70989
1.68983
1.67125
1.65432
1.63885
1.62515
1.61335
1.60374
1.59726
1.59422
1.59813
1.6082
1.62929
1.66895
1.73582
1.84804
2.03296
2.30502
2.70076
3.28544
4.1797
5.62205
8.0906
12.4822
20.3624
35.4739
77.133
285.334
1999.78
1.83754
1.86976
1.80788
1.78044
1.7551
1.73162
1.70988
1.6898
1.67121
1.65425
1.63874
1.62499
1.61309
1.60333
1.59651
1.59269
1.59508
1.60195
1.61649
1.64424
1.68995
1.76288
1.88027
2.06944
2.34388
2.74045
3.32273
4.21126
5.64204
8.09121
12.4452
20.3228
35.8859
79.7178
298.762
2074.14
1.80788
1.83764
1.86983
1.78044
1.75509
1.73161
1.70987
1.68977
1.67118
1.65419
1.63865
1.62486
1.61288
1.60303
1.59602
1.59186
1.59355
1.59893
1.61029
1.63187
1.66609
1.71853
1.79781
1.92091
2.1139
2.39095
2.78745
3.36743
4.24909
5.66759
8.09479
12.4053
20.2739
36.1701
81.7
310.093
2138.39
1.78044
1.80804
1.83784
1.8699
1.75509
1.7316
1.70986
1.68975
1.67115
1.65413
1.63857
1.62474
1.6127
1.60279
1.59566
1.59136
1.59275
1.59749
1.60748
1.62612
1.65461
1.69623
1.75586
1.84199
1.97053
2.16751
2.44639
2.8431
3.41952
4.2936
5.7023
8.10357
12.3687
20.213
36.347
83.258
319.933
2195.52
1.75509
1.78065
1.80836
1.83804
1.86997
1.73159
1.70985
1.68973
1.67113
1.65408
1.63851
1.62464
1.61254
1.6026
1.59536
1.591
1.59228
1.59681
1.6063
1.62379
1.64979
1.68633
1.73598
1.80357
1.89649
2.03074
2.23069
2.51177
2.90708
3.47935
4.35056
5.74871
8.11998
12.3353
20.1422
36.4436
84.5105
328.791
2247.65
1.73159
1.75534
1.78107
1.80868
1.83825
1.87005
1.70984
1.68971
1.67111
1.65404
1.63846
1.62455
1.61242
1.60243
1.59512
1.59072
1.59196
1.59646
1.6059
1.62318
1.64851
1.68328
1.72864
1.78726
1.86289
1.96305
2.10208
2.30464
2.5861
2.97998
3.55447
4.42311
5.80328
8.14246
12.306
20.0648
36.4816
85.5576
336.878
2295.8
1.70984
1.73188
1.75586
1.7815
1.80902
1.83847
1.87013
1.68969
1.67109
1.654
1.63841
1.62447
1.61231
1.60229
1.59491
1.5905
1.59173
1.59626
1.60583
1.62333
1.64884
1.68347
1.72779
1.78345
1.85176
1.93608
2.04263
2.18616
2.38939
2.67064
3.0706
3.64831
4.5049
5.86523
8.17069
12.2806
19.9849
36.4755
86.4581
344.451
2340.99
1.68968
1.71017
1.73248
1.75639
1.78195
1.80936
1.8387
1.87021
1.67108
1.65396
1.63837
1.6244
1.61222
1.60216
1.59473
1.59032
1.59154
1.59614
1.60588
1.6238
1.64999
1.68549
1.7304
1.7859
1.85203
1.93093
2.02415
2.13735
2.2832
2.48642
2.77478
3.18275
3.75249
4.59442
5.9332
8.20379
12.2604
19.9048
36.4564
87.2608
351.541
2383.37
1.67107
1.69003
1.71084
1.73309
1.75694
1.78241
1.80972
1.83893
1.87029
1.65393
1.63834
1.62433
1.61215
1.60205
1.59458
1.59017
1.59139
1.59605
1.606
1.62436
1.65138
1.68833
1.73495
1.79217
1.85939
1.9374
2.026
2.12835
2.24766
2.39507
2.60707
2.90538
3.30586
3.86453
4.69047
6.00599
8.2415
12.2443
19.8289
36.4193
87.9878
358.299
2423.61
1.65391
1.67145
1.69077
1.71154
1.73372
1.7575
1.78288
1.81008
1.83916
1.87037
1.63832
1.62427
1.61209
1.60195
1.59445
1.59004
1.59127
1.596
1.60614
1.62494
1.65282
1.69132
1.74031
1.8006
1.87085
1.9516
2.04102
2.14017
2.24907
2.37392
2.53609
2.76007
3.0504
3.43904
3.98305
4.79148
6.08266
8.28269
12.2334
19.7575
36.376
88.6652
364.685
2461.47
1.63829
1.6543
1.67225
1.69152
1.71225
1.73438
1.75808
1.78336
1.81045
1.83941
1.87046
1.62422
1.61203
1.60185
1.59434
1.58993
1.59117
1.59597
1.60629
1.6255
1.65422
1.69424
1.7457
1.80992
1.88479
1.97047
2.06442
2.16651
2.27407
2.38955
2.53159
2.71311
2.93115
3.20828
3.58143
4.10783
4.89617
6.16206
8.3269
12.2259
19.692
36.3311
89.2997
370.811
2497.57
1.62417
1.6387
1.65511
1.67306
1.6923
1.71299
1.73505
1.75867
1.78386
1.81083
1.83966
1.87055
1.61199
1.60176
1.59425
1.58984
1.59108
1.59594
1.60644
1.62604
1.65556
1.69702
1.75091
1.81916
1.89979
1.9925
2.09342
2.2025
2.31498
2.43131
2.5675
2.73252
2.90972
3.11898
3.37903
3.73171
4.23682
5.00335
6.24326
8.37315
12.223
19.6331
36.2894
89.9054
376.605
2531.43
1.61196
1.62455
1.63956
1.65596
1.6739
1.6931
1.71374
1.73573
1.75928
1.78437
1.81123
1.83991
1.87064
1.60168
1.59419
1.58975
1.59101
1.59593
1.60659
1.62654
1.65681
1.69961
1.75584
1.82803
1.91456
2.01604
2.12669
2.24567
2.36747
2.49138
2.63236
2.79706
2.95982
3.12477
3.31844
3.55947
3.88768
4.36923
5.11197
6.32531
8.42087
12.2239
19.5806
36.2524
90.482
382.175
2563.76
1.60161
1.61234
1.62538
1.64044
1.65683
1.67477
1.69392
1.71452
1.73644
1.7599
1.7849
1.81163
1.84017
1.87073
1.59413
1.58967
1.59095
1.59592
1.60673
1.62701
1.65798
1.70202
1.76049
1.83642
1.92875
2.03936
2.16219
2.29499
2.42958
2.56617
2.71941
2.89533
3.05993
3.21262
3.35798
3.52845
3.74867
4.04926
4.50384
5.22105
6.40746
8.46951
12.2267
19.534
36.2213
91.0384
387.424
2593.93
1.5941
1.6019
1.61316
1.62623
1.64135
1.65773
1.67566
1.69477
1.71531
1.73717
1.76054
1.78544
1.81204
1.84043
1.87082
1.58958
1.59088
1.59592
1.60687
1.62745
1.65906
1.70424
1.76482
1.84427
1.94227
2.06195
2.1975
2.34805
2.50083
2.65455
2.82623
3.02253
3.20115
3.35648
3.48994
3.60752
3.74693
3.94117
4.21407
4.63935
5.32973
6.48898
8.51842
12.2323
19.4933
36.1968
91.571
392.477
2622.77
1.58951
1.59438
1.60256
1.614
1.62711
1.64229
1.65867
1.67657
1.69565
1.71613
1.73792
1.7612
1.78599
1.81245
1.84069
1.8709
1.59082
1.59591
1.60699
1.62785
1.66006
1.70628
1.76884
1.85158
1.95507
2.08359
2.23189
2.40158
2.57835
2.75694
2.95314
3.17862
3.38172
3.55226
3.68697
3.79065
3.87129
3.97314
4.13555
4.38008
4.77446
5.43704
6.56927
8.56715
12.2405
19.458
36.1779
92.0864
397.21
2649.52
1.5908
1.58953
1.59497
1.60323
1.61488
1.62804
1.64325
1.65963
1.67751
1.69655
1.71697
1.73869
1.76187
1.78654
1.81285
1.84093
1.87098
1.5959
1.6071
1.62822
1.66096
1.70815
1.77255
1.85834
1.96711
2.10409
2.2651
2.45459
2.6574
2.86995
3.10242
3.36712
3.60593
3.80349
3.95181
4.05191
4.11346
4.14725
4.20498
4.33051
4.54568
4.90812
5.54255
6.64786
8.61535
12.2504
19.4275
36.1658
92.5801
401.775
2675.13
1.59593
1.59069
1.58958
1.59557
1.60396
1.61578
1.62901
1.64424
1.66063
1.67848
1.69748
1.71784
1.73948
1.76254
1.78707
1.81323
1.84117
1.87106
1.60719
1.62855
1.66179
1.70986
1.77596
1.86458
1.97837
2.12338
2.29698
2.50649
2.73621
2.98726
3.27104
3.59485
3.88365
4.12264
4.29738
4.40461
4.45235
4.45726
4.43347
4.44045
4.52477
4.70951
5.04019
5.64572
6.72437
8.66269
12.2617
19.4015
36.1575
93.0566
406.016
2698.72
1.60735
1.59561
1.59042
1.58961
1.59621
1.60475
1.61672
1.63002
1.64526
1.66166
1.67947
1.69844
1.71872
1.74026
1.76319
1.78759
1.81361
1.8414
1.87114
1.62883
1.66252
1.71142
1.77907
1.87032
1.98884
2.14141
2.32743
2.55672
2.8139
3.10709
3.45093
3.86041
4.23123
4.53331
4.75255
4.87848
4.91779
4.89011
4.82121
4.7282
4.67782
4.7172
4.86899
5.16948
5.74606
6.7985
8.70892
12.2741
19.3795
36.1559
93.5128
410.126
2721.35
1.62917
1.60669
1.59472
1.59009
1.58977
1.59688
1.60561
1.61768
1.63107
1.64631
1.66273
1.68049
1.69942
1.7196
1.74102
1.76382
1.78809
1.81397
1.84162
1.87122
1.66317
1.71283
1.78191
1.8756
1.99853
2.15821
2.35634
2.60481
2.88997
3.22863
3.63881
4.15219
4.65503
5.07517
5.36985
5.53258
5.56728
5.50018
5.36746
5.20461
5.02986
4.91553
4.90726
5.02379
5.29514
5.84314
6.87002
8.75381
12.2873
19.361
36.1574
93.951
413.914
2739.53
1.66388
1.62794
1.60483
1.59373
1.58985
1.59012
1.59754
1.60653
1.61867
1.63217
1.6474
1.66383
1.68153
1.70039
1.72045
1.74176
1.76443
1.78857
1.81433
1.84184
1.87129
1.71408
1.78448
1.88044
2.00747
2.17382
2.38364
2.65051
2.9642
3.35075
3.83171
4.46637
5.14715
5.78043
6.23592
6.46921
6.50689
6.38528
6.16001
5.88607
5.6066
5.33695
5.1523
5.09388
5.17355
5.41659
5.93664
6.93875
8.79722
12.301
19.3456
36.1614
94.3695
417.109
2754.85
1.71538
1.662
1.62443
1.60281
1.59288
1.58956
1.59063
1.59821
1.60753
1.61968
1.63331
1.64851
1.66495
1.68257
1.70134
1.72128
1.74248
1.76503
1.78905
1.81467
1.84205
1.87136
1.7868
1.88485
2.0157
2.18833
2.40929
2.69372
3.03642
3.47194
4.02694
4.80286
5.71241
6.6524
7.42531
7.84365
7.907
7.71331
7.34825
6.90198
6.44603
6.02576
5.64795
5.38698
5.27622
5.31798
5.53344
6.02633
7.00457
8.83901
12.315
19.3328
36.169
94.7166
419.751
2771.41
1.7891
1.71266
1.65632
1.62069
1.60103
1.59212
1.58927
1.59126
1.59891
1.60858
1.62074
1.63448
1.64966
1.66606
1.68359
1.70226
1.72209
1.74318
1.76561
1.78951
1.81501
1.84225
1.87143
1.88888
2.02324
2.20178
2.4333
2.73448
3.1064
3.59066
4.22316
5.16318
6.3563
7.69856
8.93925
9.77536
10.0049
9.73476
9.1721
8.4614
7.72545
7.04508
6.45993
5.96128
5.61855
5.45362
5.45686
5.64544
6.11208
7.06741
8.87911
12.3292
19.3223
36.1773
95.0116
422.646
2789.48
1.89274
1.78534
1.70388
1.65037
1.61732
1.59941
1.59143
1.58904
1.59198
1.59965
1.60967
1.62185
1.63568
1.65081
1.66715
1.68458
1.70315
1.72288
1.74386
1.76618
1.78996
1.81533
1.84245
1.87147
2.03018
2.21421
2.4557
2.77291
3.17384
3.70573
4.42046
5.54853
7.07801
8.91518
10.7708
12.2458
12.9693
12.784
11.973
10.8834
9.71864
8.62419
7.67868
6.90625
6.27527
5.84608
5.62556
5.59003
5.75244
6.19379
7.12722
8.91745
12.3433
19.315
36.1858
95.3356
425.775
2809.13
2.03662
1.88768
1.77218
1.69478
1.64491
1.61418
1.59791
1.59081
1.58889
1.59276
1.60045
1.61081
1.623
1.63688
1.65194
1.66821
1.68554
1.70402
1.72365
1.74452
1.76673
1.79039
1.81565
1.84255
1.87147
2.22578
2.47654
2.80911
3.23845
3.81655
4.6198
5.95836
7.87039
10.2853
12.897
15.2298
16.7612
17.1013
16.2092
14.6162
12.8315
11.1049
9.58763
8.3405
7.36124
6.5882
6.06874
5.79165
5.71742
5.85439
6.27145
7.18406
8.95402
12.3555
19.3094
36.1959
95.6937
429.234
2830.68
2.23628
2.03001
1.86825
1.75866
1.68637
1.63974
1.61122
1.59651
1.59028
1.58884
1.59359
1.60133
1.61197
1.62417
1.63804
1.65304
1.66923
1.68649
1.70486
1.72439
1.74516
1.76726
1.79081
1.8158
1.84255
1.87147
2.49604
2.84319
3.29997
3.92308
4.82232
6.39009
8.72213
11.7845
15.2799
18.685
21.3431
22.639
22.2309
20.2808
17.6409
14.9897
12.5998
10.6026
9.02308
7.8211
6.89833
6.2858
5.95161
5.83898
5.95126
6.3454
7.23797
8.98423
12.3661
19.304
36.2093
96.0907
432.961
2854.11
2.51331
2.22762
2.0017
1.84857
1.74613
1.67835
1.6348
1.60844
1.59522
1.58985
1.5889
1.59444
1.6023
1.61312
1.62533
1.63918
1.65412
1.67023
1.6874
1.70569
1.72512
1.74578
1.76778
1.79102
1.8158
1.84255
1.87147
2.87542
3.35837
4.02575
5.02879
6.83947
9.62004
13.3859
17.8735
22.5465
26.6498
29.3523
29.9978
28.3842
24.9759
21.0103
17.3255
14.18
11.6549
9.71862
8.28199
7.20402
6.49662
6.10522
5.95477
6.04267
6.41558
7.2823
9.00996
12.3781
19.2992
36.2258
96.5304
437.106
2879.85
2.90358
2.5023
2.18648
1.97338
1.83027
1.73413
1.67063
1.63008
1.60582
1.59405
1.58953
1.58909
1.59529
1.60333
1.61423
1.62648
1.64028
1.65517
1.67121
1.6883
1.70649
1.72582
1.74639
1.76804
1.79102
1.81581
1.84255
1.87147
3.41396
4.12544
5.23938
7.30093
10.5503
15.062
20.6291
26.7361
32.5758
37.1438
39.4609
38.9116
35.5515
30.2506
24.6786
19.8037
15.8223
12.7305
10.4196
8.74027
7.50375
6.70065
6.25236
6.06501
6.12885
6.47327
7.31995
9.03825
12.3916
19.295
36.2473
97.0211
441.568
2907.82
3.46195
2.88937
2.44246
2.14596
1.94701
1.8127
1.72253
1.6632
1.62556
1.60341
1.593
1.58929
1.58951
1.59611
1.60438
1.61532
1.62761
1.64135
1.6562
1.67215
1.68917
1.70726
1.72651
1.74669
1.76804
1.79102
1.81581
1.84255
1.87147
4.22298
5.45208
7.76853
11.4992
16.7862
23.4981
31.1699
38.99
45.8443
50.4764
51.8142
49.4005
43.6861
36.0419
28.5937
22.3882
17.5041
13.8164
11.1191
9.19261
7.79613
6.89748
6.393
6.16974
6.19938
6.52224
7.3612
9.06938
12.407
19.2918
36.2737
97.5652
446.575
2938.58
4.30857
3.44403
2.80111
2.38449
2.10817
1.92163
1.79568
1.71132
1.65606
1.62123
1.6012
1.59205
1.58903
1.59014
1.5969
1.60545
1.61639
1.62872
1.6424
1.6572
1.67308
1.69001
1.70802
1.72685
1.74669
1.76804
1.79102
1.8158
1.84255
1.87143
5.66401
8.23813
12.4542
18.5331
26.4336
35.7639
45.7501
55.2377
62.7795
66.886
66.4831
61.4248
52.7049
42.2726
32.7001
25.0439
19.2048
14.9013
11.8111
9.63608
8.08008
7.08678
6.52715
6.25603
6.25911
6.57586
7.40644
9.1037
12.4245
19.2899
36.3072
98.1781
451.953
2971.93
4.28558
5.85092
3.30975
2.71754
2.33037
2.07177
1.89702
1.77919
1.70051
1.64919
1.61711
1.59917
1.59122
1.58877
1.59087
1.59769
1.60652
1.61744
1.6298
1.64343
1.65818
1.67398
1.69083
1.70839
1.72685
1.74669
1.76804
1.79102
1.8158
1.84245
1.87136
8.70561
13.4044
20.2797
29.3915
40.4387
52.7156
65.0899
76.026
83.7278
86.5179
83.4529
74.8836
62.4942
48.8547
36.9416
27.7382
20.9064
15.9752
12.4905
10.0684
8.35472
7.26839
6.63814
6.32941
6.32437
6.63461
7.45611
9.14155
12.4444
19.2904
36.3487
98.8573
458.052
3008.64
4.0657
5.83345
9.1217
3.187
2.63952
2.27823
2.03645
1.87316
1.76325
1.69009
1.64263
1.61324
1.59734
1.59051
1.5886
1.59165
1.59848
1.60757
1.61847
1.63086
1.64443
1.65913
1.67485
1.69124
1.70839
1.72685
1.74669
1.76804
1.79102
1.81565
1.84225
1.87129
14.339
22.0068
32.3331
45.1215
59.7568
75.1736
89.8428
101.811
108.929
109.408
102.617
89.6206
72.916
55.6949
41.2636
30.4413
22.5931
17.0301
13.1532
10.4876
8.61943
7.41942
6.73279
6.40992
6.39573
6.699
7.51066
9.18339
12.4672
19.2924
36.3997
99.6313
464.578
3048.27
3.87258
5.44327
9.13519
15.1725
3.07326
2.56437
2.22767
2.0022
1.85007
1.74788
1.6801
1.6364
1.60967
1.59574
1.58994
1.58855
1.59244
1.5993
1.60861
1.61949
1.63189
1.64541
1.66006
1.67529
1.69124
1.70839
1.72685
1.74669
1.76804
1.79081
1.81533
1.84204
1.87122
23.6956
35.2268
49.7512
66.7606
85.2861
103.875
120.563
132.939
138.498
135.47
123.782
105.432
83.8165
62.6994
45.6156
33.1272
24.2517
18.0593
13.7962
10.8926
8.84042
7.54859
6.83688
6.49829
6.47382
6.76962
7.57065
9.22966
12.4934
19.2972
36.4637
100.487
472.079
3091.93
3.69728
5.10351
8.42017
15.2605
25.2104
2.96412
2.49159
2.17867
1.96905
1.82778
1.73311
1.67057
1.63057
1.6065
1.59438
1.58951
1.5886
1.59322
1.60015
1.60961
1.6205
1.63289
1.64637
1.66052
1.67528
1.69124
1.70839
1.72685
1.74669
1.76778
1.79038
1.815
1.84183
1.87114
38.043
54.2802
73.6362
95.259
117.816
139.445
157.695
169.625
172.408
164.496
146.673
122.08
95.0359
69.7789
49.9517
35.7733
25.8716
19.0582
14.4174
11.231
9.02979
7.69105
6.95147
6.5954
6.55935
6.84711
7.63665
9.28097
12.5232
19.3068
36.5407
101.476
480.052
3138.74
3.53203
4.79645
7.78327
14.0221
25.4839
40.5744
2.85872
2.42117
2.13129
1.93706
1.80636
1.71898
1.66159
1.62529
1.60373
1.59322
1.58921
1.58878
1.59398
1.60102
1.61059
1.6215
1.63388
1.64685
1.66051
1.67528
1.69124
1.70839
1.72685
1.74639
1.76725
1.78995
1.81466
1.84161
1.87106
58.6653
80.3179
104.966
131.424
158.004
182.4
201.567
211.949
210.484
196.157
170.95
139.307
106.418
76.8509
54.2318
38.3613
27.4446
20.0229
14.9363
11.5212
9.23904
7.84833
7.07773
6.7022
6.65312
6.93221
7.70935
9.33784
12.5579
19.3201
36.6384
102.565
489.373
3190.37
3.37493
4.50987
7.19954
12.8833
23.5536
41.1866
62.6029
2.75702
2.35323
2.08564
1.90632
1.78584
1.70562
1.65338
1.62059
1.60132
1.59225
1.58901
1.58911
1.59471
1.60191
1.61155
1.6225
1.63436
1.64684
1.66051
1.67528
1.69124
1.7084
1.72651
1.74577
1.76672
1.7895
1.81431
1.84139
1.87098
86.7472
114.322
144.531
175.903
206.398
233.167
252.395
259.833
252.394
230.014
196.228
156.852
117.814
83.842
58.4228
40.8766
28.9645
20.8287
15.3811
11.8419
9.47045
8.02214
7.21703
6.81978
6.75605
7.02572
7.78947
9.40115
12.5974
19.3412
36.7532
103.847
499.169
3245.16
3.22555
4.24074
6.65173
11.8155
21.7405
38.3671
63.7441
92.4957
2.65909
2.28793
2.04181
1.87691
1.76643
1.69338
1.64604
1.61641
1.59926
1.59144
1.58884
1.5896
1.5954
1.60281
1.61252
1.62299
1.63434
1.64684
1.66051
1.67528
1.69124
1.70802
1.72582
1.74515
1.76616
1.78903
1.81396
1.84116
1.8709
123.257
157.041
192.926
229.221
263.483
292.109
310.271
313.029
297.646
265.544
222.103
174.466
129.093
90.691
62.4979
43.3079
30.2342
21.5193
15.8726
12.1967
9.72661
8.21443
7.37088
6.94938
6.86917
7.12855
7.87788
9.47144
12.6438
19.3675
36.9012
105.208
510.88
3316.07
3.08369
3.98881
6.13564
10.7981
20.0012
35.6909
59.8288
94.3648
131.182
2.56511
2.22545
1.99992
1.84909
1.74862
1.68239
1.63947
1.61268
1.5975
1.59076
1.58865
1.59018
1.5961
1.60377
1.61297
1.62297
1.63434
1.64684
1.66051
1.67529
1.69083
1.70725
1.7251
1.7445
1.7656
1.78856
1.8136
1.84092
1.87081
168.876
208.978
250.6
291.861
329.741
359.535
375.145
371.097
345.606
302.167
248.172
191.918
140.142
97.3482
66.436
45.3387
31.3223
22.2823
16.416
12.5894
10.0104
8.42741
7.54103
7.09239
6.99362
7.24172
7.97544
9.55005
12.6964
19.4067
37.0709
106.801
525.115
3401.95
2.94906
3.75451
5.6519
9.82697
18.3088
33.0856
56.1073
89.1268
133.941
179.24
2.47534
2.16594
1.96037
1.82358
1.73261
1.67252
1.63359
1.60936
1.596
1.5902
1.58852
1.59082
1.59687
1.60423
1.6129
1.62298
1.63434
1.64684
1.66052
1.67485
1.69
1.70647
1.72437
1.74384
1.76502
1.78807
1.81322
1.84068
1.87073
223.987
270.457
317.964
364.363
405.701
435.702
446.796
433.404
395.526
339.278
274.058
209.012
150.869
103.774
69.7228
47.0792
32.5249
23.126
17.0174
13.0245
10.3251
8.66355
7.72942
7.25039
7.13072
7.36639
8.08333
9.63738
12.7592
19.4525
37.2903
108.806
544.555
3487.69
2.82111
3.53896
5.20188
8.90853
16.6535
30.515
52.456
84.1846
127.106
182.956
236.883
2.39012
2.10991
1.92415
1.80067
1.71823
1.66368
1.62833
1.60646
1.59473
1.58974
1.58849
1.59159
1.59718
1.60419
1.6129
1.62298
1.63435
1.64685
1.66006
1.67396
1.68915
1.70567
1.72363
1.74316
1.76442
1.78757
1.81284
1.84043
1.87064
288.752
341.755
395.53
447.419
491.986
520.803
524.799
499.122
446.572
376.287
299.431
225.586
161.203
109.127
72.5383
49.0027
33.8549
24.0596
17.6834
13.5068
10.6744
8.92561
7.93823
7.42513
7.28194
7.5038
8.20249
9.7356
12.8296
19.5199
37.579
111.547
564.505
3573.95
2.6996
3.34391
4.78709
8.04428
15.0361
27.9618
48.8238
79.3308
120.759
174.151
241.465
304.039
2.3103
2.05876
1.89168
1.7801
1.70531
1.65574
1.62365
1.60393
1.59363
1.58941
1.58873
1.59195
1.59703
1.60422
1.6129
1.62297
1.63437
1.64637
1.65912
1.67305
1.68827
1.70484
1.72286
1.74246
1.76381
1.78706
1.81245
1.84017
1.87055
363.261
423.275
484.069
542.001
589.377
614.941
608.491
567.24
497.882
412.662
324.017
241.515
169.788
113.707
75.648
51.1298
35.3267
25.0934
18.4214
14.0419
11.0622
9.21666
8.16989
7.6186
7.44895
7.65555
8.33473
9.84475
12.9154
19.6087
38.025
114.406
587.555
3658.27
2.58564
3.16521
4.40784
7.23711
13.4713
25.4248
45.1789
74.4939
114.566
166.175
230.158
309.167
380.506
2.23785
2.01302
1.86258
1.76163
1.69372
1.64865
1.61951
1.6017
1.59271
1.58941
1.58874
1.59184
1.59703
1.60422
1.61291
1.623
1.63388
1.64539
1.65816
1.67213
1.68738
1.704
1.72207
1.74175
1.76318
1.78653
1.81204
1.83991
1.87046
447.748
515.801
584.85
649.595
698.886
718.058
696.909
636.617
548.633
447.947
347.599
254.706
177.118
118.758
79.0834
53.4828
36.9563
26.2387
19.2396
14.6356
11.493
9.54009
8.4271
7.83299
7.63357
7.8229
8.48179
9.96901
13.028
19.7638
38.5003
117.849
610.624
3742.28
2.48215
3.00149
4.06568
6.49217
11.9756
22.9158
41.5096
69.6187
108.429
158.5
220.233
294.582
385.57
466.205
2.17346
1.97213
1.83652
1.74506
1.68334
1.64231
1.6158
1.59977
1.59228
1.58928
1.58847
1.59189
1.59703
1.6042
1.61298
1.62251
1.63288
1.64441
1.65717
1.67117
1.68646
1.70313
1.72127
1.74102
1.76254
1.78599
1.81163
1.83965
1.87037
542.892
620.674
699.98
772.454
821.707
829.772
788.802
706.076
598.089
481.776
367.069
265.94
185.181
124.326
82.8786
56.0861
38.7611
27.508
20.1468
15.2946
11.9716
9.89957
8.7128
8.07072
7.838
8.0065
8.64595
10.1323
13.1902
19.9306
39.1321
121.369
637.705
3822.95
2.3903
2.85464
3.76201
5.81579
10.5662
20.4535
37.8198
64.6727
102.259
151.002
210.89
282.24
366.573
470.264
561.509
2.11622
1.93559
1.81317
1.7302
1.67403
1.63662
1.61256
1.59858
1.59189
1.58895
1.5885
1.5919
1.59705
1.60426
1.61253
1.6215
1.63187
1.6434
1.65617
1.6702
1.68552
1.70224
1.72044
1.74026
1.76188
1.78544
1.81122
1.8394
1.87028
649.839
740.302
832.973
913.691
958.956
949.262
882.715
774.479
645.63
509.657
383.61
278.26
194.042
130.461
87.0697
58.9662
40.7603
28.915
21.153
16.0259
12.5033
10.2991
9.03021
8.33443
8.06494
8.20873
8.86137
10.3457
13.364
20.1682
39.7733
125.791
664.242
3902.58
2.30907
2.72401
3.50244
5.21536
9.26474
18.0602
34.1237
59.641
95.9921
143.545
201.971
270.949
351.142
445.177
563.302
667.715
2.06531
1.90294
1.79227
1.7169
1.66566
1.63159
1.61032
1.59774
1.59144
1.58901
1.58852
1.59187
1.59722
1.6038
1.61156
1.6205
1.63084
1.64237
1.65514
1.6692
1.68455
1.70133
1.7196
1.73949
1.76121
1.7849
1.81083
1.83916
1.8702
771.071
879.448
989.386
1077.04
1111.39
1075.33
977.105
840.787
684.842
533.298
401.691
291.748
203.767
137.213
91.6947
62.1512
42.9741
30.4743
22.2688
16.8373
13.0937
10.743
9.38271
8.62711
8.31667
8.47287
9.13323
10.5731
13.5775
20.4116
40.6541
130.213
695.915
3977.53
2.23737
2.6072
3.28852
4.70357
8.08964
15.7605
30.4448
54.5207
89.5803
136.022
193.279
260.511
337.487
425.732
529.557
665.806
787.548
2.01998
1.87379
1.77356
1.70492
1.65822
1.62794
1.60884
1.59712
1.59153
1.58902
1.58851
1.59199
1.59692
1.60285
1.6106
1.61948
1.62978
1.64132
1.65408
1.66818
1.68357
1.70039
1.71873
1.73871
1.76055
1.78437
1.81044
1.83892
1.87012
912.176
1046.47
1176.81
1266.77
1279.64
1206.66
1070.32
895.772
718.077
559.072
421.405
306.478
214.418
144.632
96.7929
65.6705
45.4242
32.2016
23.5054
17.737
13.7486
11.2356
9.77406
8.95164
8.64771
8.80231
9.42111
10.8268
13.8021
20.7559
41.5236
135.943
726.693
4050.81
2.1741
2.50304
3.10741
4.27771
7.07085
13.6053
26.8156
49.3211
82.9864
128.34
184.657
250.643
325.351
409.119
504.896
619.329
780.249
926.617
1.97963
1.84778
1.75675
1.69428
1.65266
1.62566
1.60798
1.59725
1.59155
1.589
1.58882
1.59166
1.59616
1.60195
1.60962
1.61846
1.6287
1.64025
1.65301
1.66713
1.68256
1.69943
1.71785
1.73793
1.7599
1.78386
1.81007
1.83869
1.87004
1082.51
1253.53
1405.72
1488.89
1465.51
1341.3
1148.6
942.466
754.257
587.067
442.825
322.516
226.051
152.768
102.403
69.5541
48.1332
34.1135
24.8747
18.7335
14.4743
11.7819
10.2077
9.37841
9.06089
9.15044
9.73
11.0953
14.0804
21.1027
42.7398
141.645
763.432
4118.46
2.11824
2.41064
2.95098
3.92632
6.21532
11.6795
23.3048
44.0661
76.1842
120.409
175.952
241.127
314.327
395.003
484.541
587.958
714.952
910.98
1095.55
1.94372
1.82448
1.7418
1.68615
1.64926
1.62454
1.60816
1.59728
1.5915
1.58937
1.58887
1.59091
1.59548
1.60107
1.60862
1.61743
1.62759
1.63915
1.65191
1.66606
1.68154
1.69845
1.71698
1.73717
1.75928
1.78336
1.80971
1.83847
1.86996
1298.45
1520.2
1694.41
1757.36
1670.46
1456.79
1215.38
993.305
793.44
617.331
465.995
339.909
238.716
161.663
108.562
73.8317
51.1239
36.227
26.3893
19.8358
15.2773
12.3862
10.7774
9.90983
9.49733
9.51952
10.0559
11.397
14.371
21.5869
43.9408
149.089
799.896
4183.56
2.06884
2.32917
2.81353
3.63715
5.50638
10.024
20.0505
38.8347
69.1636
112.144
167.011
231.745
304.127
382.772
468.059
562.868
675.146
818.453
1067.48
1311.24
1.91165
1.8038
1.73019
1.6813
1.64778
1.62478
1.60819
1.5972
1.592
1.58957
1.58866
1.59029
1.59479
1.60021
1.6076
1.61639
1.62647
1.63803
1.6508
1.66495
1.68049
1.69748
1.71614
1.73644
1.75867
1.78287
1.80935
1.83826
1.86989
1593.81
1892.77
2090.36
2095.86
1850.48
1555.73
1288.11
1048.23
835.601
649.854
490.925
358.68
252.443
171.353
115.304
78.5316
54.4186
38.5591
28.0618
21.0534
16.1639
13.1785
11.4844
10.4696
9.9571
9.90813
10.4057
11.7149
14.7311
22.08
45.606
156.704
842.114
4243.05
2.02495
2.25763
2.69131
3.40212
4.92441
8.62752
17.1379
33.825
61.9865
103.469
157.67
222.272
294.45
372.053
454.479
543.553
644.12
768.338
935.839
1273.82
1617.49
1.88325
1.78756
1.72331
1.67941
1.64811
1.62482
1.60808
1.59788
1.59248
1.58962
1.58873
1.58974
1.59408
1.59938
1.60656
1.61534
1.62534
1.63688
1.64966
1.66383
1.67946
1.69655
1.71532
1.73573
1.75808
1.7824
1.80901
1.83805
1.86981
2079.43
2495.77
2707.81
2394
2003.42
1662.82
1366.3
1107
880.597
684.557
517.575
378.818
267.245
181.862
122.654
83.6787
58.0385
41.1264
29.9048
22.3948
17.3236
14.1584
12.2266
11.0567
10.439
10.3188
10.7737
12.0739
15.1101
22.7475
47.3165
166.422
886.12
4298.13
1.98622
2.19475
2.58237
3.20805
4.44907
7.46058
14.5736
29.1879
54.8948
94.387
147.757
212.456
285.002
362.442
443.337
528.401
621.459
729.989
872.685
1080.46
1585.59
2183.42
1.86065
1.77812
1.72087
1.67986
1.64816
1.62466
1.60904
1.59886
1.59298
1.59
1.5889
1.58929
1.59334
1.59858
1.60551
1.61426
1.62419
1.6357
1.64851
1.66272
1.67846
1.69564
1.71452
1.73504
1.75751
1.78195
1.80868
1.83784
1.86974
2971.76
3705.18
3208
2635.68
2164.16
1775.93
1448.99
1169.14
928.153
721.268
545.843
400.273
283.106
193.198
130.632
89.293
62.0019
43.9445
31.9299
24.1457
18.7532
15.1837
13.0019
11.6694
10.943
10.7488
11.1678
12.4538
15.5729
23.4567
49.5832
176.96
934.848
4348.6
1.95516
2.13988
2.48543
3.04356
4.06359
6.4972
12.3624
24.9644
48.104
85.1387
137.174
202.018
275.45
353.576
434.085
516.843
604.448
703.414
825.493
1000.49
1286.36
2200.51
3408.26
1.84758
1.77507
1.72146
1.67992
1.64793
1.62589
1.61067
1.60015
1.59396
1.59051
1.58914
1.58902
1.59258
1.59781
1.60446
1.61317
1.62304
1.6345
1.64738
1.66165
1.6775
1.69476
1.71375
1.73437
1.75695
1.78151
1.80835
1.83765
1.86971
5186.19
4452.77
3556.71
2868.55
2326.82
1892.55
1534.88
1233.95
977.851