/*--------------------------------*- C++ -*----------------------------------*\
  =========                 |
  \\      /  F ield         | OpenFOAM: The Open Source CFD Toolbox
   \\    /   O peration     | Website:  https://openfoam.org
    \\  /    A nd           | Version:  8
     \\/     M anipulation  |
\*---------------------------------------------------------------------------*/
FoamFile
{
    version     2.0;
    format      ascii;
    class       surfaceScalarField;
    location    "0.38";
    object      phi;
}
// * * * * * * * * * * * * * * * * * * * * * * * * * * * * * * * * * * * * * //

dimensions      [0 3 -1 0 0 0 0];

internalField   nonuniform List<scalar> 
31053
(
6.40465e-07
1.27395e-05
8.63777e-07
1.51567e-05
3.5817e-07
1.23814e-05
9.49722e-07
1.75541e-05
5.69208e-07
1.49456e-05
2.76314e-07
1.21051e-05
9.74736e-07
2.0215e-05
6.84884e-07
1.74384e-05
4.7344e-07
1.47485e-05
2.18064e-07
1.1887e-05
9.66482e-07
2.32483e-05
7.44647e-07
2.01552e-05
6.00823e-07
1.7311e-05
3.99999e-07
1.45666e-05
1.73857e-07
1.17131e-05
9.36921e-07
2.66896e-05
7.70866e-07
2.3222e-05
6.77602e-07
2.00784e-05
5.2925e-07
1.71817e-05
3.36392e-07
1.44041e-05
1.39706e-07
1.15734e-05
8.91818e-07
3.06651e-05
7.75353e-07
2.66851e-05
7.21554e-07
2.31781e-05
6.12436e-07
1.99953e-05
4.60794e-07
1.70573e-05
2.82557e-07
1.42612e-05
1.12823e-07
1.14606e-05
8.3418e-07
3.51976e-05
7.64616e-07
3.06758e-05
7.43659e-07
2.6663e-05
6.6314e-07
2.31274e-05
5.44393e-07
1.99117e-05
3.98121e-07
1.69418e-05
2.35929e-07
1.41381e-05
9.05521e-08
1.137e-05
7.67817e-07
4.03864e-05
7.42947e-07
3.52193e-05
7.50482e-07
3.0669e-05
6.9148e-07
2.66346e-05
5.96308e-07
2.30755e-05
4.78298e-07
1.98315e-05
3.39953e-07
1.68378e-05
1.9424e-07
1.40344e-05
7.11081e-08
1.12989e-05
6.95677e-07
4.63521e-05
7.11541e-07
4.04178e-05
7.46055e-07
3.52237e-05
7.03505e-07
3.0657e-05
6.25597e-07
2.66053e-05
5.28015e-07
2.30257e-05
4.13645e-07
1.97578e-05
2.84791e-07
1.67472e-05
1.55768e-07
1.39497e-05
5.33688e-08
1.12456e-05
6.19447e-07
5.32162e-05
6.71656e-07
4.6392e-05
7.30705e-07
4.04331e-05
7.02138e-07
3.52251e-05
6.38214e-07
3.06444e-05
5.54949e-07
2.65784e-05
4.58378e-07
2.2981e-05
3.49519e-07
1.96931e-05
2.31369e-07
1.66716e-05
1.19274e-07
1.38838e-05
3.65648e-08
1.1209e-05
5.40905e-07
6.10585e-05
6.25315e-07
5.32626e-05
7.0447e-07
4.64183e-05
6.90311e-07
4.04449e-05
6.37562e-07
3.52258e-05
5.64913e-07
3.06344e-05
4.80277e-07
2.65565e-05
3.86913e-07
2.29436e-05
2.84957e-07
1.96395e-05
1.7867e-07
1.66122e-05
8.38362e-08
1.38366e-05
2.01888e-08
1.11888e-05
4.61621e-07
7.00613e-05
5.74213e-07
6.11096e-05
6.68617e-07
5.32984e-05
6.69319e-07
4.64393e-05
6.25973e-07
4.04565e-05
5.61432e-07
3.52292e-05
4.84775e-07
3.06299e-05
4.01452e-07
2.6542e-05
3.12777e-07
2.29158e-05
2.19072e-07
1.95991e-05
1.25935e-07
1.65701e-05
4.87745e-08
1.3808e-05
4.03534e-09
1.11848e-05
3.83485e-07
8.04101e-05
5.19955e-07
7.01155e-05
6.24605e-07
6.11537e-05
6.39138e-07
5.33286e-05
6.04751e-07
4.64605e-05
5.46565e-07
4.04714e-05
4.75318e-07
3.52387e-05
3.97997e-07
3.06334e-05
3.17697e-07
2.6537e-05
2.35117e-07
2.28998e-05
1.51244e-07
1.95738e-05
7.25654e-08
1.65463e-05
1.36936e-08
1.37983e-05
-1.2078e-08
1.11969e-05
3.20957e-07
7.62525e-05
4.63771e-07
8.04663e-05
5.74087e-07
7.01661e-05
6.00129e-07
6.11927e-05
5.74249e-07
5.33591e-05
5.21418e-07
4.64856e-05
4.53846e-07
4.04929e-05
3.79818e-07
3.52569e-05
3.03884e-07
3.06472e-05
2.28157e-07
2.6544e-05
1.53349e-07
2.28976e-05
8.09709e-08
1.95654e-05
1.82036e-08
1.65418e-05
-2.16058e-08
1.38079e-05
-2.83253e-08
1.12252e-05
2.68341e-07
7.62426e-05
4.15741e-07
7.63006e-05
5.18721e-07
8.05217e-05
5.53108e-07
7.02131e-05
5.34606e-07
6.12323e-05
4.86444e-07
5.33941e-05
4.2133e-07
4.65181e-05
3.48739e-07
4.0524e-05
2.74343e-07
3.52864e-05
2.01576e-07
3.06738e-05
1.32231e-07
2.65651e-05
6.69949e-08
2.29116e-05
8.03799e-09
1.95755e-05
-3.72644e-08
1.65575e-05
-5.7264e-08
1.38368e-05
-4.47234e-08
1.12699e-05
2.24432e-07
7.62339e-05
3.72489e-07
7.62859e-05
4.69824e-07
7.63495e-05
4.99315e-07
8.05755e-05
4.86183e-07
7.02615e-05
4.41802e-07
6.12769e-05
3.78165e-07
5.34372e-05
3.056e-07
4.65613e-05
2.30731e-07
4.05676e-05
1.58033e-07
3.533e-05
9.04443e-08
3.07155e-05
2.94544e-08
2.66027e-05
-2.40586e-08
2.29437e-05
-6.75111e-08
1.96058e-05
-9.38142e-08
1.6594e-05
-9.32125e-08
1.38853e-05
-6.11111e-08
1.1331e-05
1.88223e-07
7.62282e-05
3.33613e-07
7.62728e-05
4.24575e-07
7.63311e-05
4.50259e-07
7.63985e-05
4.2988e-07
8.06318e-05
3.877e-07
7.03156e-05
3.24509e-07
6.13306e-05
2.50689e-07
5.34922e-05
1.73741e-07
4.66183e-05
9.8964e-08
4.06266e-05
3.02259e-08
3.53902e-05
-2.99725e-08
3.0775e-05
-8.02361e-08
2.66588e-05
-1.19616e-07
2.29958e-05
-1.45429e-07
1.96574e-05
-1.51165e-07
1.6652e-05
-1.29188e-07
1.39534e-05
-7.73612e-08
1.14084e-05
1.5863e-07
7.62196e-05
2.98661e-07
7.62632e-05
3.82889e-07
7.63145e-05
4.03892e-07
7.63775e-05
3.77949e-07
7.64504e-05
3.24839e-07
8.06946e-05
2.60551e-07
7.03796e-05
1.84121e-07
6.13972e-05
1.03523e-07
5.35624e-05
2.48645e-08
4.66924e-05
-4.72776e-08
4.07041e-05
-1.0954e-07
3.54697e-05
-1.59696e-07
3.08544e-05
-1.96514e-07
2.67357e-05
-2.19207e-07
2.30696e-05
-2.25145e-07
1.97314e-05
-2.08822e-07
1.67316e-05
-1.64841e-07
1.40408e-05
-9.32181e-08
1.15016e-05
1.34402e-07
7.62142e-05
2.67297e-07
7.6251e-05
3.44604e-07
7.63014e-05
3.60553e-07
7.63578e-05
3.28598e-07
7.64268e-05
2.66791e-07
7.65085e-05
1.86962e-07
8.07682e-05
1.06098e-07
7.04576e-05
2.01296e-08
6.14806e-05
-6.42776e-08
5.36515e-05
-1.41815e-07
4.67869e-05
-2.08453e-07
4.0803e-05
-2.61246e-07
3.55713e-05
-2.98256e-07
3.09562e-05
-3.18693e-07
2.68352e-05
-3.21961e-07
2.31664e-05
-3.05816e-07
1.98284e-05
-2.66148e-07
1.68329e-05
-1.99702e-07
1.41473e-05
-1.085e-07
1.16101e-05
1.1447e-07
7.62099e-05
2.39341e-07
7.62422e-05
3.09623e-07
7.62859e-05
3.20382e-07
7.63416e-05
2.8246e-07
7.64039e-05
2.11669e-07
7.6482e-05
1.19364e-07
7.65761e-05
1.73721e-08
8.0857e-05
-7.6224e-08
7.05539e-05
-1.68495e-07
6.15848e-05
-2.53601e-07
5.37633e-05
-3.26758e-07
4.69052e-05
-3.84502e-07
4.09263e-05
-4.24254e-07
3.56973e-05
-4.44759e-07
3.10822e-05
-4.45605e-07
2.69589e-05
-4.26639e-07
2.32872e-05
-3.86433e-07
1.99486e-05
-3.22364e-07
1.69556e-05
-2.33279e-07
1.42721e-05
-1.22885e-07
1.1733e-05
9.93174e-08
6.95972e-05
2.14571e-07
7.62347e-05
2.77946e-07
7.62739e-05
2.83467e-07
7.63229e-05
2.39884e-07
7.63842e-05
1.60355e-07
7.64553e-05
5.5466e-08
7.65459e-05
-6.3516e-08
7.6657e-05
-1.84639e-07
8.09654e-05
-2.8756e-07
7.0673e-05
-3.82779e-07
6.1714e-05
-4.64921e-07
5.39015e-05
-5.29869e-07
4.70506e-05
-5.74606e-07
4.10767e-05
-5.97463e-07
3.585e-05
-5.97728e-07
3.12344e-05
-5.75604e-07
2.71078e-05
-5.31817e-07
2.34326e-05
-4.65813e-07
2.00921e-05
-3.7662e-07
1.70989e-05
-2.64972e-07
1.44142e-05
-1.36189e-07
1.18692e-05
8.77645e-08
6.25556e-05
1.94493e-07
6.96172e-05
2.49535e-07
7.62631e-05
2.49892e-07
7.63074e-05
2.01085e-07
7.63617e-05
1.134e-07
7.64311e-05
-3.63344e-09
7.65144e-05
-1.39517e-07
7.66219e-05
-2.82751e-07
7.67551e-05
-4.20383e-07
8.10982e-05
-5.29113e-07
7.08193e-05
-6.23226e-07
6.18723e-05
-6.9812e-07
5.40697e-05
-7.50143e-07
4.72261e-05
-7.77449e-07
4.12566e-05
-7.79068e-07
3.60313e-05
-7.55095e-07
3.14139e-05
-7.06834e-07
2.72829e-05
-6.35831e-07
2.36026e-05
-5.42673e-07
2.02581e-05
-4.27957e-07
1.72619e-05
-2.94297e-07
1.45723e-05
-1.47963e-07
1.20171e-05
7.88011e-08
5.6227e-05
1.7835e-07
6.25717e-05
2.26332e-07
6.96404e-05
2.19715e-07
7.62933e-05
1.66205e-07
7.63423e-05
7.11532e-08
7.64039e-05
-5.7188e-08
7.64847e-05
-2.09341e-07
7.65842e-05
-3.74406e-07
7.67135e-05
-5.39842e-07
7.68745e-05
-6.91297e-07
8.12604e-05
-8.01452e-07
7.09976e-05
-8.89725e-07
6.20639e-05
-9.52004e-07
5.42716e-05
-9.86041e-07
4.74347e-05
-9.90872e-07
4.14684e-05
-9.66548e-07
3.62428e-05
-9.14543e-07
3.16216e-05
-8.37107e-07
2.74841e-05
-7.36912e-07
2.37969e-05
-6.15613e-07
2.04458e-05
-4.75539e-07
1.74431e-05
-3.20331e-07
1.47447e-05
-1.57446e-07
1.21746e-05
7.17397e-08
5.05391e-05
1.65257e-07
5.62401e-05
2.07624e-07
6.25904e-05
1.95114e-07
6.9665e-05
1.35354e-07
7.63241e-05
3.38437e-08
7.63796e-05
-1.04689e-07
7.64514e-05
-2.72039e-07
7.65474e-05
-4.58114e-07
7.66679e-05
-6.50904e-07
7.68246e-05
-8.3648e-07
7.70197e-05
-9.9806e-07
8.1457e-05
-1.10451e-06
7.12124e-05
-1.1809e-06
6.22928e-05
-1.22481e-06
5.45103e-05
-1.23502e-06
4.76789e-05
-1.21186e-06
4.17138e-05
-1.15709e-06
3.64853e-05
-1.07334e-06
3.18578e-05
-9.64142e-07
2.77114e-05
-8.33152e-07
2.40144e-05
-6.83384e-07
2.06536e-05
-5.17995e-07
1.76408e-05
-3.4242e-07
1.49296e-05
-1.64663e-07
1.23392e-05
6.61015e-08
4.54256e-05
1.54555e-07
5.05498e-05
1.92469e-07
5.62552e-05
1.75422e-07
6.26101e-05
1.10782e-07
6.96896e-05
1.63409e-09
7.63564e-05
-1.45794e-07
7.64207e-05
-3.26931e-07
7.65063e-05
-5.3272e-07
7.6622e-05
-7.51862e-07
7.67688e-05
-9.70972e-07
7.69591e-05
-1.17349e-06
7.71952e-05
-1.34071e-06
8.16932e-05
-1.43675e-06
7.14682e-05
-1.49477e-06
6.25627e-05
-1.51359e-06
5.47889e-05
-1.49354e-06
4.79605e-05
-1.43708e-06
4.19938e-05
-1.34739e-06
3.67594e-05
-1.22865e-06
3.21223e-05
-1.08546e-06
2.79637e-05
-9.22816e-07
2.42539e-05
-7.44169e-07
2.08798e-05
-5.54553e-07
1.78529e-05
-3.57172e-07
1.51222e-05
-1.30911e-07
1.24702e-05
6.15453e-08
4.08306e-05
1.45748e-07
4.54344e-05
1.80112e-07
5.05621e-05
1.59687e-07
5.62709e-05
9.16031e-08
6.26293e-05
-2.32227e-08
6.97145e-05
-1.80265e-07
7.63908e-05
-3.73535e-07
7.64673e-05
-5.97348e-07
7.65709e-05
-8.41332e-07
7.67115e-05
-1.09282e-06
7.68907e-05
-1.33561e-06
7.71212e-05
-1.55105e-06
7.74055e-05
-1.71759e-06
8.1974e-05
-1.796e-06
7.17694e-05
-1.82798e-06
6.28771e-05
-1.81425e-06
5.51096e-05
-1.75772e-06
4.82812e-05
-1.66261e-06
4.2309e-05
-1.534e-06
3.70647e-05
-1.37737e-06
3.24142e-05
-1.19879e-06
2.82396e-05
-1.00364e-06
2.45133e-05
-7.96781e-07
2.11221e-05
-5.80313e-07
1.80761e-05
-3.4899e-07
1.53402e-05
-8.06667e-08
1.25508e-05
5.78239e-08
3.66997e-05
1.38452e-07
4.08379e-05
1.69971e-07
4.54446e-05
1.47086e-07
5.05747e-05
7.66748e-08
5.62859e-05
-4.18229e-08
6.26479e-05
-2.05815e-07
6.974e-05
-4.11517e-07
7.64288e-05
-6.51356e-07
7.65213e-05
-9.1822e-07
7.66478e-05
-1.20037e-06
7.6819e-05
-1.48219e-06
7.70373e-05
-1.74521e-06
7.73154e-05
-1.96748e-06
7.76554e-05
-2.1264e-06
8.23044e-05
-2.17852e-06
7.212e-05
-2.17587e-06
6.32387e-05
-2.12232e-06
5.54742e-05
-2.02291e-06
4.86415e-05
-1.88429e-06
4.26593e-05
-1.71312e-06
3.74005e-05
-1.51665e-06
3.27321e-05
-1.30142e-06
2.85374e-05
-1.07392e-06
2.47905e-05
-8.36476e-07
2.13782e-05
-5.88361e-07
1.83154e-05
-3.21951e-07
1.55815e-05
-5.95429e-08
1.26104e-05
5.47547e-08
3.29891e-05
1.32371e-07
3.67058e-05
1.61604e-07
4.08462e-05
1.36965e-07
4.54547e-05
6.51274e-08
5.05863e-05
-5.55212e-08
5.62996e-05
-2.23891e-07
6.26659e-05
-4.38481e-07
6.9767e-05
-6.94284e-07
7.64717e-05
-9.81695e-07
7.65848e-05
-1.2923e-06
7.67397e-05
-1.61129e-06
7.69481e-05
-1.92062e-06
7.72127e-05
-2.19812e-06
7.7546e-05
-2.42044e-06
7.79494e-05
-2.56309e-06
8.2689e-05
-2.57906e-06
7.25232e-05
-2.53328e-06
6.36497e-05
-2.43231e-06
5.58836e-05
-2.2842e-06
4.90414e-05
-2.09761e-06
4.30437e-05
-1.88135e-06
3.77652e-05
-1.64334e-06
3.3074e-05
-1.39115e-06
2.88547e-05
-1.12948e-06
2.50835e-05
-8.5861e-07
2.16485e-05
-5.8348e-07
1.8577e-05
-2.97658e-07
1.58196e-05
-5.3543e-08
1.26639e-05
5.22015e-08
2.96506e-05
1.27271e-07
3.29942e-05
1.54662e-07
3.67127e-05
1.28814e-07
4.08544e-05
5.62568e-08
4.54636e-05
-6.53956e-08
5.05961e-05
-2.36174e-07
5.63119e-05
-4.56342e-07
6.26838e-05
-7.23539e-07
6.97962e-05
-1.03114e-06
7.65212e-05
-1.36754e-06
7.66601e-05
-1.72128e-06
7.68497e-05
-2.075e-06
7.71025e-05
-2.40655e-06
7.74211e-05
-2.69205e-06
7.78176e-05
-2.9057e-06
7.8292e-05
-3.02175e-06
8.31317e-05
-2.99175e-06
7.29816e-05
-2.89393e-06
6.41113e-05
-2.73861e-06
5.6338e-05
-2.53637e-06
4.94801e-05
-2.29857e-06
4.3461e-05
-2.03504e-06
3.81569e-05
-1.75478e-06
3.34376e-05
-1.46432e-06
2.91895e-05
-1.16667e-06
2.53915e-05
-8.68484e-07
2.19335e-05
-5.74919e-07
1.88542e-05
-2.84181e-07
1.60503e-05
-5.7344e-08
1.27213e-05
5.00607e-08
2.66501e-05
1.22972e-07
2.96549e-05
1.48874e-07
3.3e-05
1.22232e-07
3.67193e-05
4.94894e-08
4.08611e-05
-7.23119e-08
4.54705e-05
-2.44021e-07
5.0604e-05
-4.67223e-07
5.63227e-05
-7.41609e-07
6.27019e-05
-1.06367e-06
6.98288e-05
-1.42529e-06
7.65789e-05
-1.81084e-06
7.67496e-05
-2.20638e-06
7.69811e-05
-2.59012e-06
7.72861e-05
-2.93787e-06
7.76669e-05
-3.22271e-06
7.81346e-05
-3.41683e-06
7.86871e-05
-3.49592e-06
8.36358e-05
-3.40953e-06
7.34972e-05
-3.2514e-06
6.46241e-05
-3.03515e-06
5.68368e-05
-2.77472e-06
4.99563e-05
-2.48297e-06
4.39089e-05
-2.17107e-06
3.85732e-05
-1.84765e-06
3.3821e-05
-1.51805e-06
2.95409e-05
-1.19013e-06
2.57132e-05
-8.7331e-07
2.22319e-05
-5.68234e-07
1.91383e-05
-2.80006e-07
1.62729e-05
-7.93946e-08
1.28006e-05
4.82528e-08
2.39558e-05
1.19328e-07
2.66538e-05
1.44025e-07
2.96597e-05
1.16905e-07
3.30053e-05
4.4367e-08
3.67244e-05
-7.69626e-08
4.08658e-05
-2.48514e-07
4.5475e-05
-4.72836e-07
5.06096e-05
-7.51171e-07
5.63323e-05
-1.08245e-06
6.27207e-05
-1.46225e-06
6.98657e-05
-1.87894e-06
7.6647e-05
-2.31314e-06
7.68564e-05
-2.74647e-06
7.71375e-05
-3.1548e-06
7.7503e-05
-3.51027e-06
7.79545e-05
-3.7833e-06
7.85011e-05
-3.94696e-06
7.91382e-05
-3.97774e-06
8.42041e-05
-3.82513e-06
7.4071e-05
-3.59871e-06
6.51877e-05
-3.31646e-06
5.73785e-05
-2.99439e-06
5.04677e-05
-2.6472e-06
4.4385e-05
-2.28631e-06
3.90118e-05
-1.91964e-06
3.42225e-05
-1.55593e-06
2.99067e-05
-1.20611e-06
2.6046e-05
-8.76427e-07
2.25401e-05
-5.64596e-07
1.94229e-05
-3.4592e-07
1.65395e-05
-8.79709e-08
1.28886e-05
4.6716e-08
2.15335e-05
1.16225e-07
2.39589e-05
1.39944e-07
2.66579e-05
1.12584e-07
2.9664e-05
4.05251e-08
3.30091e-05
-7.98949e-08
3.67274e-05
-2.50506e-07
4.08678e-05
-4.74539e-07
4.54767e-05
-7.54377e-07
5.06128e-05
-1.09082e-06
5.63407e-05
-1.48237e-06
6.27408e-05
-1.92171e-06
6.99085e-05
-2.39395e-06
7.67278e-05
-2.8736e-06
7.69835e-05
-3.34002e-06
7.73227e-05
-3.7648e-06
7.77575e-05
-4.11681e-06
7.8288e-05
-4.36667e-06
7.89208e-05
-4.48765e-06
7.96481e-05
-4.45907e-06
8.4838e-05
-4.23053e-06
7.47028e-05
-3.92951e-06
6.58007e-05
-3.57692e-06
5.79611e-05
-3.19126e-06
5.10118e-05
-2.78814e-06
4.48869e-05
-2.37873e-06
3.94709e-05
-1.97331e-06
3.46399e-05
-1.58315e-06
3.02837e-05
-1.21736e-06
2.63869e-05
-8.78152e-07
2.28536e-05
-6.94385e-07
1.97713e-05
-3.45451e-07
1.67969e-05
-9.71244e-08
1.29857e-05
4.54026e-08
1.93533e-05
1.1357e-07
2.15362e-05
1.36494e-07
2.39624e-05
1.09069e-07
2.66614e-05
3.76767e-08
2.96669e-05
-8.1539e-08
3.30108e-05
-2.50668e-07
3.67275e-05
-4.73398e-07
4.08666e-05
-7.52931e-07
4.54752e-05
-1.09147e-06
5.06135e-05
-1.48977e-06
5.63481e-05
-1.94398e-06
6.27631e-05
-2.44421e-06
6.99588e-05
-2.96985e-06
7.68241e-05
-3.49111e-06
7.71346e-05
-3.98299e-06
7.75409e-05
-4.4132e-06
7.80539e-05
-4.75017e-06
7.86715e-05
-4.96391e-06
7.93971e-05
-5.02999e-06
8.0219e-05
-4.93078e-06
8.55383e-05
-4.61844e-06
7.53917e-05
-4.23734e-06
6.64611e-05
-3.81182e-06
5.85816e-05
-3.36201e-06
5.15857e-05
-2.90379e-06
4.54119e-05
-2.44998e-06
3.99476e-05
-2.01274e-06
3.50695e-05
-1.60203e-06
3.06684e-05
-1.22402e-06
2.67328e-05
-1.08388e-06
2.32431e-05
-6.8581e-07
2.01117e-05
-3.45289e-07
1.70451e-05
-1.0421e-07
1.309e-05
1.73971e-05
4.42744e-08
1.11289e-07
1.93556e-05
1.33565e-07
2.15391e-05
1.06202e-07
2.39652e-05
3.55955e-08
2.66635e-05
-8.2229e-08
2.96676e-05
-2.49516e-07
3.30096e-05
-4.7024e-07
3.67244e-05
-7.48167e-07
4.08619e-05
-1.08651e-06
4.54703e-05
-1.48778e-06
5.06115e-05
-1.95079e-06
5.63549e-05
-2.46973e-06
6.27886e-05
-3.02963e-06
7.00185e-05
-3.60597e-06
7.6939e-05
-4.1619e-06
7.73135e-05
-4.66862e-06
7.77963e-05
-5.09272e-06
7.83965e-05
-5.40111e-06
7.91087e-05
-5.56551e-06
7.99326e-05
-5.56393e-06
8.08521e-05
-5.38458e-06
8.63044e-05
-4.98143e-06
7.61358e-05
-4.51674e-06
6.7166e-05
-4.01743e-06
5.92371e-05
-3.50445e-06
5.21863e-05
-2.99496e-06
4.59569e-05
-2.50309e-06
4.0438e-05
-2.03988e-06
3.55074e-05
-1.61289e-06
3.10573e-05
-1.51392e-06
2.71628e-05
-1.07041e-06
2.36277e-05
-6.74952e-07
2.04414e-05
-3.43046e-07
1.72839e-05
-1.08866e-07
1.31988e-05
1.73991e-05
1.09319e-07
2.7812e-05
4.2255e-08
1.31068e-07
1.93581e-05
1.03858e-07
2.15415e-05
3.41044e-08
2.39667e-05
-8.22243e-08
2.66635e-05
-2.4745e-07
2.96655e-05
-4.65704e-07
3.30051e-05
-7.41118e-07
3.67173e-05
-1.07763e-06
4.0853e-05
-1.47901e-06
4.54615e-05
-1.9462e-06
5.06069e-05
-2.47657e-06
5.63617e-05
-3.05981e-06
6.28188e-05
-3.67775e-06
7.00903e-05
-4.29895e-06
7.7076e-05
-4.87954e-06
7.75244e-05
-5.3898e-06
7.80934e-05
-5.79391e-06
7.87893e-05
-6.05968e-06
7.96029e-05
-6.16064e-06
8.05293e-05
-6.08032e-06
8.15479e-05
-5.81193e-06
8.71349e-05
-5.31316e-06
7.69322e-05
-4.76339e-06
6.7912e-05
-4.19114e-06
5.99237e-05
-3.61856e-06
5.28099e-05
-3.06372e-06
4.65175e-05
-2.53963e-06
4.09377e-05
-2.0552e-06
3.59497e-05
-1.99628e-06
3.15396e-05
-1.49642e-06
2.75888e-05
-1.05039e-06
2.40031e-05
-6.60434e-07
2.07588e-05
-3.38018e-07
1.75131e-05
-1.11134e-07
1.331e-05
1.74012e-05
1.28933e-07
2.78157e-05
1.05608e-07
2.85519e-05
4.032e-08
1.01936e-07
1.936e-05
3.3065e-08
2.15425e-05
-8.17238e-08
2.39662e-05
-2.44775e-07
2.66608e-05
-4.60274e-07
2.96601e-05
-7.32575e-07
3.29965e-05
-1.0661e-06
3.67058e-05
-1.46554e-06
4.08395e-05
-1.93342e-06
4.54487e-05
-2.46961e-06
5.05999e-05
-3.06758e-06
5.63695e-05
-3.71441e-06
6.28554e-05
-4.38565e-06
7.0177e-05
-5.04278e-06
7.72393e-05
-5.63723e-06
7.77718e-05
-6.13709e-06
7.84365e-05
-6.50654e-06
7.92361e-05
-6.71444e-06
8.01567e-05
-6.73937e-06
8.11883e-05
-6.5696e-06
8.23055e-05
-6.20542e-06
8.80271e-05
-5.60848e-06
7.77773e-05
-4.97403e-06
6.86949e-05
-4.33212e-06
6.06373e-05
-3.70557e-06
5.34518e-05
-3.11126e-06
4.70891e-05
-2.56018e-06
4.14427e-05
-2.54446e-06
3.64979e-05
-1.97381e-06
3.2017e-05
-1.46788e-06
2.80063e-05
-1.02379e-06
2.43665e-05
-6.4195e-07
2.10627e-05
-3.30197e-07
1.77322e-05
-1.11325e-07
1.34213e-05
1.74028e-05
1.00353e-07
2.78194e-05
1.25269e-07
2.85555e-05
1.02014e-07
2.93118e-05
3.84731e-08
3.23696e-08
1.93607e-05
-8.088e-08
2.15417e-05
-2.41719e-07
2.39632e-05
-4.54319e-07
2.66548e-05
-7.23138e-07
2.96506e-05
-1.05291e-06
3.29833e-05
-1.44896e-06
3.66892e-05
-1.91497e-06
4.08211e-05
-2.45277e-06
4.54319e-05
-3.05877e-06
5.05911e-05
-3.7244e-06
5.63795e-05
-4.4311e-06
6.29009e-05
-5.14783e-06
7.02821e-05
-5.83116e-06
7.74332e-05
-6.42572e-06
7.80605e-05
-6.90016e-06
7.88302e-05
-7.21874e-06
7.97404e-05
-7.35479e-06
8.07721e-05
-7.29119e-06
8.19099e-05
-7.02336e-06
8.31235e-05
-6.55889e-06
8.89776e-05
-5.86329e-06
7.86666e-05
-5.14702e-06
6.95098e-05
-4.44086e-06
6.13726e-05
-3.76629e-06
5.41068e-05
-3.13825e-06
4.76672e-05
-3.17059e-06
4.20688e-05
-2.51601e-06
3.70401e-05
-1.93578e-06
3.24849e-05
-1.42933e-06
2.84119e-05
-9.91168e-07
2.47157e-05
-6.19868e-07
2.13524e-05
-3.1992e-07
1.79407e-05
-1.09833e-07
1.35311e-05
1.74033e-05
3.19348e-08
2.78213e-05
9.84161e-08
2.8559e-05
1.21785e-07
2.93153e-05
9.85363e-08
3.00898e-05
3.67143e-08
-7.98084e-08
1.93596e-05
-2.38455e-07
2.15384e-05
-4.48109e-07
2.3957e-05
-7.13255e-07
2.66449e-05
-1.03879e-06
2.96365e-05
-1.43047e-06
3.29649e-05
-1.89282e-06
3.66671e-05
-2.42909e-06
4.07974e-05
-3.03805e-06
4.54112e-05
-3.71459e-06
5.05813e-05
-4.44505e-06
5.63934e-05
-5.20487e-06
6.29579e-05
-5.95853e-06
7.04094e-05
-6.65518e-06
7.76626e-05
-7.2348e-06
7.83951e-05
-7.66688e-06
7.92783e-05
-7.9194e-06
8.0305e-05
-7.96936e-06
8.14503e-05
-7.80669e-06
8.26933e-05
-7.43438e-06
8.3999e-05
-6.86715e-06
8.99814e-05
-6.07504e-06
7.95946e-05
-5.28209e-06
7.0351e-05
-4.51773e-06
6.2124e-05
-3.80145e-06
5.477e-05
-3.88806e-06
4.83847e-05
-3.13562e-06
4.26884e-05
-2.46716e-06
3.75714e-05
-1.88417e-06
3.29397e-05
-1.38214e-06
2.88028e-05
-9.53545e-07
2.50494e-05
-5.94829e-07
2.16273e-05
-3.07685e-07
1.81386e-05
-1.07042e-07
1.36382e-05
1.7402e-05
-7.85967e-08
2.78199e-05
3.33658e-08
2.85607e-05
9.67086e-08
2.93186e-05
1.18471e-07
3.00931e-05
9.51717e-08
3.08897e-05
3.50431e-08
-2.3511e-07
1.93563e-05
-4.41846e-07
2.15321e-05
-7.03255e-07
2.3947e-05
-1.02431e-06
2.66305e-05
-1.411e-06
2.9617e-05
-1.86844e-06
3.29405e-05
-2.40096e-06
3.66389e-05
-3.0091e-06
4.07685e-05
-3.69049e-06
4.53871e-05
-4.43549e-06
5.05717e-05
-5.22503e-06
5.64136e-05
-6.03054e-06
6.30299e-05
-6.80934e-06
7.05636e-05
-7.50495e-06
7.79328e-05
-8.05227e-06
7.87805e-05
-8.42581e-06
7.97847e-05
-8.59643e-06
8.09321e-05
-8.54782e-06
8.21914e-05
-8.27763e-06
8.35365e-05
-7.79643e-06
8.49282e-05
-7.12663e-06
9.1033e-05
-6.24269e-06
8.05552e-05
-5.37921e-06
7.12125e-05
-4.56348e-06
6.28861e-05
-4.71235e-06
5.55943e-05
-3.84639e-06
4.90954e-05
-3.07477e-06
4.3296e-05
-2.40082e-06
3.80881e-05
-1.82113e-06
3.33787e-05
-1.3281e-06
2.91774e-05
-9.12096e-07
2.53667e-05
-5.67608e-07
2.18872e-05
-2.94006e-07
1.83256e-05
-1.03289e-07
1.37414e-05
1.73987e-05
-2.31776e-07
2.78136e-05
-7.22585e-08
2.8559e-05
3.51298e-08
2.93201e-05
9.52472e-08
3.00963e-05
1.15338e-07
3.08929e-05
9.1929e-08
3.17096e-05
3.34556e-08
-4.35673e-07
1.93501e-05
-6.93377e-07
2.15223e-05
-1.00985e-06
2.39325e-05
-1.39122e-06
2.66107e-05
-1.84297e-06
2.95916e-05
-2.37018e-06
3.29097e-05
-2.97476e-06
3.66046e-05
-3.65646e-06
4.07344e-05
-4.40889e-06
4.53605e-05
-5.21751e-06
5.05642e-05
-6.05975e-06
5.64428e-05
-6.90029e-06
6.31209e-05
-7.69082e-06
7.07495e-05
-8.36845e-06
7.8249e-05
-8.86659e-06
7.92213e-05
-9.16432e-06
8.03526e-05
-9.23868e-06
8.1623e-05
-9.08098e-06
8.29948e-05
-8.69673e-06
8.44368e-05
-8.10494e-06
8.59065e-05
-7.33541e-06
9.21257e-05
-6.36566e-06
8.15417e-05
-5.43898e-06
7.2088e-05
-5.66129e-06
6.3835e-05
-4.66425e-06
5.64122e-05
-3.77258e-06
4.97933e-05
-2.99198e-06
4.38872e-05
-2.31999e-06
3.85869e-05
-1.74916e-06
3.37998e-05
-1.26899e-06
2.95343e-05
-8.68015e-07
2.56671e-05
-5.3895e-07
2.21321e-05
-2.79367e-07
1.85016e-05
-9.88699e-08
1.38403e-05
1.73927e-05
-4.29693e-07
2.78006e-05
-2.18849e-07
2.85522e-05
-6.54695e-08
2.9318e-05
3.72344e-08
3.00975e-05
9.4025e-08
3.08959e-05
1.12381e-07
3.17127e-05
8.88138e-08
3.25535e-05
3.1958e-08
-6.83791e-07
1.93405e-05
-9.95711e-07
2.15081e-05
-1.37161e-06
2.39129e-05
-1.81722e-06
2.65849e-05
-2.33812e-06
2.95595e-05
-2.93721e-06
3.28722e-05
-3.6159e-06
3.6564e-05
-4.37035e-06
4.06959e-05
-5.18974e-06
4.53327e-05
-6.05657e-06
5.0561e-05
-6.94197e-06
5.64845e-05
-7.80522e-06
6.32353e-05
-8.59134e-06
7.09723e-05
-9.23423e-06
7.86166e-05
-9.66472e-06
7.97217e-05
-9.87056e-06
8.09845e-05
-9.83604e-06
8.2378e-05
-9.56048e-06
8.38585e-05
-9.05844e-06
8.53903e-05
-8.35719e-06
8.69283e-05
-7.49227e-06
9.32523e-05
-6.44436e-06
8.2547e-05
-6.75412e-06
7.31808e-05
-5.60768e-06
6.47784e-05
-4.57675e-06
5.72163e-05
-3.67163e-06
5.04729e-05
-2.89119e-06
4.44584e-05
-2.22793e-06
3.90657e-05
-1.67069e-06
3.42015e-05
-1.20653e-06
2.98728e-05
-8.22364e-07
2.59505e-05
-5.09529e-07
2.23623e-05
-2.64208e-07
1.8667e-05
-9.40161e-08
1.39343e-05
1.73835e-05
-6.74609e-07
2.77792e-05
-4.08278e-07
2.85386e-05
-2.05305e-07
2.93107e-05
-5.82091e-08
3.0095e-05
3.96763e-08
3.08969e-05
9.30393e-08
3.17155e-05
1.09597e-07
3.25565e-05
8.58129e-08
3.34194e-05
3.05421e-08
-9.82091e-07
1.93269e-05
-1.35255e-06
2.1489e-05
-1.7918e-06
2.38875e-05
-2.30579e-06
2.65526e-05
-2.89811e-06
2.95204e-05
-3.57142e-06
3.28277e-05
-4.32388e-06
3.65176e-05
-5.14768e-06
4.06538e-05
-6.02952e-06
4.53057e-05
-6.94607e-06
5.05651e-05
-7.86341e-06
5.65427e-05
-8.73416e-06
6.33781e-05
-9.49968e-06
7.12378e-05
-1.00891e-05
7.9041e-05
-1.04343e-05
8.02855e-05
-1.05336e-05
8.1682e-05
-1.03791e-05
8.31967e-05
-9.97973e-06
8.47798e-05
-9.35913e-06
8.63923e-05
-8.55134e-06
8.79874e-05
-7.59728e-06
9.44053e-05
-8.01316e-06
8.38061e-05
-6.69696e-06
7.42701e-05
-5.50612e-06
6.57078e-05
-4.456e-06
5.80007e-05
-3.54855e-06
5.11303e-05
-2.77651e-06
4.5007e-05
-2.12777e-06
3.95228e-05
-1.58799e-06
3.4583e-05
-1.14218e-06
3.01926e-05
-7.76085e-07
2.6217e-05
-4.79952e-07
2.2578e-05
-2.48859e-07
1.88218e-05
-8.89271e-08
1.40233e-05
1.73706e-05
-9.69122e-07
2.77471e-05
-6.42521e-07
2.85164e-05
-3.86072e-07
2.92966e-05
-1.91165e-07
3.00873e-05
-5.0512e-08
3.08941e-05
4.24463e-08
3.17162e-05
9.22825e-08
3.25591e-05
1.06973e-07
3.34223e-05
8.29369e-08
3.43053e-05
2.92071e-08
-1.33425e-06
1.93086e-05
-1.76714e-06
2.14644e-05
-2.27391e-06
2.38556e-05
-2.85868e-06
2.65132e-05
-3.52499e-06
2.9474e-05
-4.27257e-06
3.27764e-05
-5.09599e-06
3.64659e-05
-5.9854e-06
4.06097e-05
-6.92217e-06
4.52818e-05
-7.87832e-06
5.058e-05
-8.81346e-06
5.6622e-05
-9.67635e-06
6.35548e-05
-1.04027e-05
7.15515e-05
-1.09204e-05
7.9527e-05
-1.11638e-05
8.09156e-05
-1.11431e-05
8.2446e-05
-1.08603e-05
8.40773e-05
-1.03341e-05
8.57548e-05
-9.59611e-06
8.7437e-05
-8.68688e-06
8.9077e-05
-9.46383e-06
9.58559e-05
-7.95638e-06
8.50655e-05
-6.58178e-06
7.53458e-05
-5.36402e-06
6.66158e-05
-4.30813e-06
5.87603e-05
-3.40841e-06
5.17622e-05
-2.65183e-06
4.55311e-05
-2.02236e-06
3.99572e-05
-1.50299e-06
3.49438e-05
-1.07725e-06
3.04938e-05
-7.30005e-07
2.64671e-05
-4.50648e-07
2.27798e-05
-2.3362e-07
1.89665e-05
-8.37517e-08
1.4107e-05
1.73532e-05
-1.31688e-06
2.77021e-05
-9.24105e-07
2.84833e-05
-6.09436e-07
2.92736e-05
-3.63036e-07
3.00726e-05
-1.7641e-07
3.08859e-05
-4.23753e-08
3.17132e-05
4.55384e-08
3.25596e-05
9.17715e-08
3.34248e-05
1.04514e-07
3.43081e-05
8.01749e-08
3.52193e-05
2.79551e-08
-1.74352e-06
1.9285e-05
-2.24302e-06
2.14335e-05
-2.81981e-06
2.38167e-05
-3.47809e-06
2.64663e-05
-4.21877e-06
2.94202e-05
-5.03831e-06
3.27187e-05
-5.92965e-06
3.64101e-05
-6.87804e-06
4.05656e-05
-7.86064e-06
4.52641e-05
-8.84332e-06
5.06099e-05
-9.78186e-06
5.67275e-05
-1.06189e-05
6.37709e-05
-1.12878e-05
7.19189e-05
-1.1716e-05
8.00792e-05
-1.18419e-05
8.16144e-05
-1.16904e-05
8.32761e-05
-1.1274e-05
8.50171e-05
-1.06201e-05
8.67789e-05
-9.76827e-06
8.85184e-05
-1.08428e-05
9.0456e-05
-9.41504e-06
9.73146e-05
-7.82982e-06
8.63135e-05
-6.41739e-06
7.63991e-05
-5.18882e-06
6.74965e-05
-4.13936e-06
5.94912e-05
-3.25596e-06
5.23663e-05
-2.52069e-06
4.60294e-05
-1.91414e-06
4.03683e-05
-1.41736e-06
3.52839e-05
-1.01281e-06
3.07766e-05
-6.84686e-07
2.67011e-05
-4.22017e-07
2.29682e-05
-2.18711e-07
1.91015e-05
-7.85973e-08
1.41856e-05
1.73308e-05
-1.72114e-06
2.76414e-05
-1.25612e-06
2.84371e-05
-8.77847e-07
2.92395e-05
-5.7539e-07
3.00488e-05
-3.39235e-07
3.08706e-05
-1.61089e-07
3.17046e-05
-3.3824e-08
3.25562e-05
4.89329e-08
3.3425e-05
9.14895e-08
3.43104e-05
1.022e-07
3.52219e-05
7.75133e-08
3.61552e-05
2.67823e-08
-2.21345e-06
1.92554e-05
-2.78212e-06
2.13958e-05
-3.43179e-06
2.37704e-05
-4.16424e-06
2.64117e-05
-4.97742e-06
2.93593e-05
-5.86646e-06
3.26555e-05
-6.81987e-06
3.6352e-05
-7.8191e-06
4.0524e-05
-8.83555e-06
4.52563e-05
-9.83139e-06
5.06594e-05
-1.07561e-05
5.68647e-05
-1.15493e-05
6.40324e-05
-1.21425e-05
7.23454e-05
-1.2464e-05
8.07013e-05
-1.2459e-05
8.23831e-05
-1.21689e-05
8.4171e-05
-1.16156e-05
8.60125e-05
-1.08358e-05
8.78464e-05
-1.22206e-05
8.98962e-05
-1.08103e-05
9.18512e-05
-9.28236e-06
9.87671e-05
-7.64383e-06
8.754e-05
-6.21276e-06
7.74231e-05
-4.98804e-06
6.83452e-05
-3.95544e-06
6.01907e-05
-3.09553e-06
5.29411e-05
-2.38608e-06
4.65013e-05
-1.80519e-06
4.07561e-05
-1.3325e-06
3.56036e-05
-9.49618e-07
3.10415e-05
-6.40656e-07
2.69198e-05
-3.94344e-07
2.31439e-05
-2.04275e-07
1.92272e-05
-7.35482e-08
1.42592e-05
1.73028e-05
-2.18545e-06
2.75619e-05
-1.64164e-06
2.83747e-05
-1.19373e-06
2.91918e-05
-8.3016e-07
3.00137e-05
-5.4026e-07
3.08461e-05
-3.14678e-07
3.16887e-05
-1.45234e-07
3.25473e-05
-2.48883e-08
3.34214e-05
5.26104e-08
3.43105e-05
9.14448e-08
3.52241e-05
1.0003e-07
3.61577e-05
7.49382e-08
3.65891e-05
2.57031e-08
-2.74605e-06
1.92194e-05
-3.38685e-06
2.13509e-05
-4.11028e-06
2.37165e-05
-4.9154e-06
2.63497e-05
-5.7991e-06
2.92919e-05
-6.75251e-06
3.25881e-05
-7.76073e-06
3.62936e-05
-8.79984e-06
4.04883e-05
-9.83779e-06
4.52627e-05
-1.08305e-05
5.07338e-05
-1.1724e-05
5.70394e-05
-1.24549e-05
6.43449e-05
-1.29543e-05
7.28358e-05
-1.31539e-05
8.13961e-05
-1.30076e-05
8.32218e-05
-1.2573e-05
8.51284e-05
-1.18823e-05
8.70591e-05
-1.35917e-05
8.92174e-05
-1.22145e-05
9.13005e-05
-1.06801e-05
9.3249e-05
-9.07759e-06
0.000100201
-7.40873e-06
8.87359e-05
-5.97682e-06
7.84119e-05
-4.76861e-06
6.91584e-05
-3.76163e-06
6.08568e-05
-2.9308e-06
5.34858e-05
-2.25058e-06
4.69467e-05
-1.69727e-06
4.11209e-05
-1.24937e-06
3.59033e-05
-8.88352e-07
3.12892e-05
-5.98281e-07
2.71237e-05
-3.67795e-07
2.33074e-05
-1.90428e-07
1.9344e-05
-6.86686e-08
1.43278e-05
1.72686e-05
-2.71188e-06
2.74604e-05
-2.08398e-06
2.82936e-05
-1.56052e-06
2.9128e-05
-1.1299e-06
2.99648e-05
-7.8133e-07
3.08101e-05
-5.04276e-07
3.16635e-05
-2.89424e-07
3.25309e-05
-1.2885e-07
3.34121e-05
-1.56043e-08
3.43065e-05
5.65548e-08
3.52239e-05
9.16119e-08
3.61598e-05
9.79932e-08
3.65916e-05
7.24535e-08
3.5553e-05
2.4747e-08
-3.3438e-06
1.91763e-05
-4.0578e-06
2.12984e-05
-4.85378e-06
2.36548e-05
-5.73002e-06
2.62806e-05
-6.67975e-06
2.92192e-05
-7.69105e-06
3.25185e-05
-8.74405e-06
3.62378e-05
-9.81173e-06
4.04623e-05
-1.08559e-05
4.52881e-05
-1.18288e-05
5.08386e-05
-1.26729e-05
5.72573e-05
-1.33233e-05
6.47138e-05
-1.37124e-05
7.33943e-05
-1.37773e-05
8.21658e-05
-1.3481e-05
8.41299e-05
-1.28989e-05
8.6145e-05
-1.49485e-05
8.84159e-05
-1.36241e-05
9.0627e-05
-1.2097e-05
9.27174e-05
-1.04653e-05
9.46367e-05
-8.81269e-06
0.000101605
-7.13502e-06
8.98941e-05
-5.71789e-06
7.93611e-05
-4.5369e-06
6.99336e-05
-3.56241e-06
6.14884e-05
-2.76489e-06
5.40002e-05
-2.11637e-06
4.73658e-05
-1.59158e-06
4.14631e-05
-1.16883e-06
3.61838e-05
-8.29489e-07
3.15204e-05
-5.57764e-07
2.73137e-05
-3.42508e-07
2.34595e-05
-1.77255e-07
1.94526e-05
-6.39981e-08
1.43918e-05
1.72278e-05
-3.30298e-06
2.73342e-05
-2.58572e-06
2.81903e-05
-1.98069e-06
2.90448e-05
-1.47736e-06
2.98995e-05
-1.06461e-06
3.07601e-05
-7.31337e-07
3.16266e-05
-4.67404e-07
3.25051e-05
-2.63565e-07
3.33952e-05
-1.12017e-07
3.42969e-05
-6.00371e-09
3.52197e-05
6.07477e-08
3.61594e-05
9.19908e-08
3.65934e-05
9.61284e-08
3.55553e-05
7.01563e-08
3.45449e-05
2.38948e-08
-4.00744e-06
1.9126e-05
-4.79368e-06
2.12383e-05
-5.66105e-06
2.35859e-05
-6.60445e-06
2.62053e-05
-7.61442e-06
2.91425e-05