/*--------------------------------*- C++ -*----------------------------------*\
  =========                 |
  \\      /  F ield         | OpenFOAM: The Open Source CFD Toolbox
   \\    /   O peration     | Website:  https://openfoam.org
    \\  /    A nd           | Version:  8
     \\/     M anipulation  |
\*---------------------------------------------------------------------------*/
FoamFile
{
    version     2.0;
    format      ascii;
    class       volScalarField;
    location    "400";
    object      p;
}
// * * * * * * * * * * * * * * * * * * * * * * * * * * * * * * * * * * * * * //

dimensions      [0 2 -2 0 0 0 0];

internalField   nonuniform List<scalar> 
15677
(
49.2425
46.2253
46.3145
46.204
45.3561
45.7772
46.4298
45.8757
45.5908
45.6275
46.3934
45.9291
45.793
45.6096
45.4845
46.3317
45.872
45.7204
45.6508
45.4912
45.3626
46.2906
45.871
45.7067
45.6111
45.4943
45.3689
45.2376
46.2525
45.8779
45.7189
45.6235
45.4863
45.3682
45.2415
45.09
46.212
45.8789
45.7214
45.6273
45.4971
45.37
45.2425
45.0925
44.913
46.1701
45.8781
45.7213
45.6253
45.4974
45.375
45.2455
45.0949
44.9149
44.6995
46.1272
45.8768
45.7217
45.6246
45.4983
45.3758
45.2481
45.0976
44.9176
44.7009
44.441
46.0836
45.8745
45.7223
45.6243
45.5002
45.3781
45.2501
45.0998
44.9203
44.7037
44.4423
44.1298
46.0399
45.8704
45.7228
45.6242
45.5023
45.3807
45.2527
45.1026
44.9229
44.7067
44.4451
44.1308
43.7567
45.9968
45.864
45.7231
45.6243
45.5049
45.3836
45.2555
45.1056
44.9262
44.7098
44.4486
44.1335
43.7574
43.3127
45.9589
45.855
45.7233
45.625
45.5083
45.3874
45.2591
45.1091
44.9298
44.7137
44.4522
44.1375
43.76
43.3132
42.7898
45.9274
45.8446
45.7231
45.6264
45.5128
45.3925
45.2638
45.1137
44.9343
44.7182
44.4568
44.1418
43.7645
43.3158
42.79
42.1808
45.9004
45.8341
45.7225
45.6285
45.5187
45.3993
45.2703
45.1199
44.9403
44.724
44.4624
44.1473
43.7697
43.3209
42.7927
42.1807
41.4786
45.8772
45.8237
45.7218
45.6312
45.5262
45.4083
45.2792
45.1286
44.9485
44.7318
44.4698
44.1543
43.7764
43.3271
42.7984
42.1835
41.4783
40.6775
45.8573
45.8138
45.7209
45.6343
45.5347
45.42
45.2913
45.1405
44.96
44.7426
44.4798
44.1635
43.7848
43.3351
42.8059
42.1898
41.4811
40.6769
39.7727
45.8401
45.8044
45.7201
45.6378
45.5435
45.4336
45.3075
45.1569
44.9759
44.7576
44.4939
44.1763
43.7963
43.3455
42.8154
42.1985
41.4881
40.6797
39.7718
38.761
45.8253
45.7958
45.7194
45.6417
45.5528
45.448
45.3266
45.1788
44.9977
44.7785
44.5135
44.1942
43.8124
43.3596
42.8279
42.2099
41.4982
40.6874
39.7746
38.7598
37.6407
45.8132
45.788
45.7188
45.646
45.5625
45.4633
45.347
45.2051
45.0272
44.8074
44.5407
44.2194
43.8351
43.3796
42.8452
42.2248
41.5115
40.6989
39.7829
38.7627
37.6391
36.412
45.8035
45.7813
45.7184
45.6506
45.5727
45.4794
45.369
45.2333
45.0626
44.8464
44.5783
44.2544
43.867
43.4079
42.8696
42.2454
41.5289
40.7142
39.796
38.7717
37.642
36.41
35.0762
45.7959
45.7759
45.7182
45.6555
45.5832
45.4961
45.3924
45.264
45.101
44.8934
44.6293
44.3027
43.9114
43.4476
42.9043
42.2748
41.5532
40.7344
39.8133
38.7862
37.6516
36.4129
35.0738
33.6369
45.7898
45.7715
45.7182
45.6605
45.594
45.5135
45.4169
45.2966
45.1427
44.9446
44.6909
44.3684
43.9726
43.5031
42.9532
42.3166
41.588
40.7625
39.8362
38.8055
37.6675
36.423
35.0766
33.6341
32.099
45.7848
45.768
45.7183
45.6651
45.6045
45.5312
45.4423
45.331
45.1872
45.0003
44.758
44.4479
44.056
43.5797
43.0215
42.3758
41.6377
40.8029
39.8683
38.8311
37.6887
36.44
35.0872
33.6368
32.0958
30.4691
45.7807
45.7651
45.7186
45.6694
45.6141
45.5484
45.4685
45.3667
45.2343
45.06
44.8312
44.5346
44.157
43.684
43.1157
42.4585
41.7081
40.861
39.9146
38.8669
37.7168
36.4629
35.1053
33.6478
32.0984
30.4655
28.7549
45.7774
45.7627
45.7189
45.6733
45.6228
45.5642
45.4939
45.4035
45.2833
45.1231
44.9099
44.6295
44.2675
43.8106
43.2444
42.573
41.8069
40.9437
39.9814
38.919
37.7563
36.4933
35.1296
33.6667
32.1095
30.4678
28.751
26.9653
45.7746
45.7607
45.7193
45.6768
45.6306
45.5783
45.5171
45.4394
45.3338
45.189
44.9932
44.7316
44.3886
43.9493
43.4009
42.7293
41.9437
41.0598
40.0768
38.9947
37.8141
36.5361
35.1618
33.6921
32.129
30.4789
28.753
26.961
25.1108
45.7723
45.7591
45.7197
45.68
45.6375
45.5909
45.5381
45.4723
45.3832
45.257
45.0803
44.8398
44.5191
44.1017
43.5726
42.9199
42.131
41.2209
40.2112
39.1032
37.8985
36.5991
35.2074
33.7256
32.155
30.4987
28.764
26.9627
25.1062
23.2003
45.7703
45.7577
45.7201
45.6829
45.6437
45.6022
45.5568
45.5018
45.4284
45.3236
45.1703
44.9531
44.6577
44.2661
43.7615
43.1294
42.3598
41.4421
40.3985
39.2569
38.0203
36.6919
35.2751
33.7733
32.1892
30.5248
28.7836
26.9734
25.1074
23.1953
21.031
45.7687
45.7566
45.7205
45.6854
45.6492
45.6122
45.5735
45.5283
45.4692
45.3846
45.2585
45.0705
44.803
44.441
43.9657
43.3603
42.6119
41.7132
40.6562
39.4715
38.1932
36.8264
35.3754
33.8447
32.2383
30.5591
28.8094
26.9926
25.1176
23.196
21.0261
18.5869
45.7673
45.7556
45.7209
45.6877
45.6541
45.6211
45.5883
45.5519
45.5057
45.4396
45.3395
45.1856
44.9537
44.6247
44.1834
43.6106
42.8905
42.0124
40.9729
39.7675
38.4356
37.0184
35.5219
33.9516
32.3124
30.6085
28.8429
27.0173
25.136
23.2054
21.0263
18.5816
16.1119
45.766
45.7548
45.7213
45.6897
45.6585
45.629
45.6015
45.573
45.5383
45.489
45.4125
45.2913
45.1017
44.8155
44.4124
43.8778
43.193
42.3439
41.3234
40.1325
38.7712
37.2886
35.7322
34.1089
32.4246
30.684
28.8916
27.0493
25.1591
23.2225
21.0348
18.581
16.1061
13.6367
45.765
45.754
45.7216
45.6915
45.6623
45.636
45.6131
45.5916
45.5673
45.533
45.4781
45.3868
45.2378
45.0032
44.6508
44.1596
43.5167
42.7048
41.7128
40.5377
39.1866
37.6641
36.0293
34.336
32.5911
30.7999
28.9672
27.0961
25.1887
23.2434
21.0503
18.5884
16.1046
13.6307
11.1877
45.7534
45.7638
45.7219
45.6931
45.6658
45.6422
45.6235
45.6082
45.593
45.5723
45.5367
45.4727
45.361
45.1761
44.8856
44.4534
43.8588
43.092
42.1378
40.9892
39.6491
38.1307
36.4442
34.6587
32.8331
30.9737
29.085
27.1703
25.2325
23.2696
21.0684
18.6016
16.1102
13.6283
11.1815
8.77974
45.7222
45.7528
45.7624
45.6945
45.6688
45.6477
45.6327
45.6228
45.6159
45.6072
45.5889
45.5494
45.4718
45.3328
45.1024
44.7436
44.2166
43.5023
42.595
41.4835
40.1661
38.6521
36.9618
35.1112
33.1789
31.2281
29.2637
27.288
25.3037
23.3092
21.0904
18.6155
16.1204
13.632
11.1782
8.7733
6.42521
45.6958
45.7228
45.7521
45.761
45.6715
45.6526
45.6408
45.6359
45.6362
45.6381
45.6354
45.6179
45.5709
45.4738
45.2991
45.0119
44.5706
43.9323
43.081
42.017
40.734
39.2369
37.5424
35.6784
33.6663
31.594
29.5277
27.469
25.4192
23.3756
21.1241
18.631
16.129
13.6388
11.1798
8.76898
6.4186
4.1361
45.6738
45.6976
45.7236
45.7514
45.7598
45.6569
45.648
45.6474
45.6541
45.6656
45.6766
45.6787
45.6593
45.6001
45.4763
45.2558
44.8987
44.3591
43.5919
42.5856
41.3488
39.8815
38.196
36.3171
34.2805
32.1127
29.9099
27.7391
25.5996
23.4866
21.1837
18.6563
16.1368
13.6417
11.183
8.76843
6.41324
4.12935
1.92221
45.6606
45.6771
45.6998
45.7243
45.7508
45.7585
45.6544
45.6576
45.6701
45.6899
45.7131
45.7328
45.738
45.7129
45.6353
45.4759
45.1975
44.7557
44.1004
43.1854
42.0065
40.5819
38.9191
37.0391
34.975
32.7698
30.4551
28.1334
25.8721
23.6636
21.2875
18.7057
16.1516
13.6409
11.1796
8.76758
6.41039
4.12295
1.91534
-0.209232
45.6598
45.6658
45.6809
45.702
45.7251
45.7502
45.7573
45.6667
45.6843
45.7115
45.7456
45.7808
45.808
45.8134
45.7775
45.6737
45.4678
45.1176
44.5742
43.7844
42.7027
41.3338
39.7078
37.841
35.7634
33.5164
31.15
28.6998
26.2736
23.9346
21.4573
18.7981
16.1883
13.6441
11.1693
8.75734
6.40528
4.11776
1.9079
-0.216188
-2.25309
45.6743
45.6673
45.6713
45.6846
45.7041
45.7258
45.7496
45.7562
45.6968
45.7307
45.7743
45.8233
45.8701
45.9028
45.9042
45.8507
45.7109
45.4456
45.0077
44.3443
43.4004
42.1327
40.5577
38.719
36.6425
34.3674
31.9434
29.4262
26.855
24.3383
21.7221
18.9556
16.2658
13.6662
11.1596
8.73677
6.38788
4.10824
1.90035
-0.224671
-2.2601
-4.20587
45.7073
45.6848
45.6748
45.6768
45.6883
45.7062
45.7266
45.749
45.7552
45.7477
45.7999
45.8611
45.9253
45.9822
46.0171
46.0087
45.9289
45.7413
45.4015
44.858
44.0548
42.9367
41.4645
39.669
37.609
35.3203
32.8517
30.2597
27.6057
24.9281
22.1225
19.208
16.4062
13.7259
11.1653
8.71297
6.35646
4.08346
1.88631
-0.234587
-2.26962
-4.21291
-6.06559
45.7618
45.7216
45.6947
45.6825
45.6823
45.6919
45.7083
45.7273
45.7485
45.7542
45.8227
45.8948
45.9742
46.0527
46.1174
46.1495
46.1237
46.0068
45.7573
45.3259
44.6571
43.6933
42.3808
40.687
38.6594
36.3727
33.8733
31.2183
28.4714
25.6946
22.7136
19.597
16.6401
13.8455
11.2048
8.70071
6.31773
4.04079
1.85401
-0.253181
-2.28184
-4.22346
-6.07265
-7.83168
45.8414
45.781
45.7344
45.705
45.69
45.6876
45.6954
45.7103
45.728
45.748
45.7533
45.9246
46.0178
46.1154
46.2065
46.2747
46.2974
46.2444
46.0773
45.7495
45.2073
44.3923
43.2467
41.7204
39.7901
37.5216
35.0068
32.3016
29.4719
26.5836
23.4882
20.1787
17.0091
14.0555
11.3005
8.71822
6.28645
3.98659
1.79984
-0.293075
-2.30499
-4.23792
-6.0842
-7.83873
-9.50462
45.9491
45.8668
45.7974
45.7478
45.715
45.6973
45.6928
45.6988
45.7122
45.7288
45.7475
45.7524
46.0565
46.1712
46.2857
46.3861
46.4522
46.4566
46.3642
46.1314
45.7067
45.0326
44.0494
42.7011
40.9433
38.7642
36.25
33.5094
30.6084
27.6165
24.3927
20.9487
17.5693
14.3966
11.4817
8.78722
6.28054
3.93565
1.72982
-0.358877
-2.35249
-4.26558
-6.10082
-7.85127
-9.51164
-11.0857
46.0881
45.9823
45.8875
45.8146
45.7608
45.7246
45.7043
45.6977
45.7021
45.7141
45.7294
45.7471
45.7517
46.2207
46.3563
46.4851
46.5899
46.6459
46.6209
46.4745
46.158
45.6156
44.7873
43.6137
42.0425
40.0378
37.6013
34.8405
31.8815
28.7957
25.45
21.8555
18.3198
14.9241
11.7878
8.93527
6.32044
3.90533
1.65888
-0.444841
-2.4299
-4.32059
-6.13288
-7.86995
-9.52513
-11.0927
-12.5771
46.2609
46.1312
46.0082
45.9093
45.8313
45.7732
45.7338
45.7111
45.7025
45.7053
45.7159
45.7301
45.7468
45.751
46.419
46.5735
46.7125
46.8145
46.8501
46.7819
46.5642
46.1437
45.4612
44.4557
43.0697
41.2575
38.9936
36.2947
33.2917
30.1234
26.6639
22.9229
19.2118
15.6415
12.273
9.20027
6.43181
3.91422
1.60341
-0.535848
-2.53171
-4.40949
-6.1953
-7.90628
-9.54577
-11.1071
-12.5841
-13.9815
46.4696
46.3162
46.1633
46.0359
45.9305
45.8471
45.785
45.7426
45.7175
45.707
45.7083
45.7176
45.7308
45.7464
45.7504
46.652
46.822
46.9647
47.0545
47.0568
46.9289
46.6202
46.0733
45.227
44.021
42.4022
40.3332
37.801
34.8406
31.6018
28.0383
24.1562
20.2696
16.5028
12.9444
9.63459
6.65063
3.98615
1.58001
-0.616899
-2.64263
-4.52685
-6.29548
-7.97593
-9.58625
-11.1296
-12.5993
-13.9884
-15.3019
46.7149
46.5399
46.356
46.198
46.0625
45.9505
45.8621
45.7962
45.7508
45.7235
45.7113
45.7111
45.7192
45.7313
45.7462
45.7499
46.9192
47.099
47.2368
47.3023
47.2557
47.0489
46.6271
45.9298
44.8955
43.4665
41.5962
39.2578
36.4539
33.2343
29.5776
25.5616
21.5001
17.5317
13.7595
10.248
7.02667
4.15487
1.61047
-0.67335
-2.74943
-4.6574
-6.42795
-8.0871
-9.66288
-11.1741
-12.6236
-14.0045
-15.3087
-16.5415
46.9967
46.8038
46.5888
46.3992
46.2312
46.0874
45.9691
45.876
45.8066
45.7586
45.7292
45.7153
45.7137
45.7207
45.7319
45.7459
45.7495
47.2183
47.4001
47.5215
47.5479
47.4337
47.1264
46.5673
45.6948
44.4484
42.7752
40.6375
38.0224
34.9441
31.2876
27.1462
22.9116
18.7368
14.7405
11.0019
7.57125
4.46631
1.72618
-0.685645
-2.83924
-4.78981
-6.5777
-8.23416
-9.78469
-11.2574
-12.6718
-14.0304
-15.3256
-16.5483
-17.7041
47.3126
47.1079
46.8636
46.6424
46.4405
46.2621
46.1106
45.9865
45.889
45.8163
45.7657
45.7344
45.719
45.7161
45.722
45.7324
45.7458
45.7492
47.5449
47.7182
47.8092
47.7784
47.5755
47.1436
46.422
45.3488
43.8671
41.9311
39.5149
36.6148
33.0904
28.9191
24.5139
20.1277
15.8964
11.9158
8.25003
4.93254
1.96776
-0.625073
-2.89487
-4.91292
-6.73534
-8.40257
-9.94576
-11.3895
-12.7616
-14.0822
-15.353
-16.5659
-17.7107
-18.793
47.6586
47.451
47.181
46.9298
46.6934
46.4787
46.2907
46.1319
46.0024
45.9009
45.8251
45.7723
45.7392
45.7223
45.7182
45.7231
45.7328
45.7456
45.7489
47.8925
48.044
48.0871
47.9786
47.6631
47.081
46.1703
44.8718
43.1337
40.92
38.2124
34.8638
30.8024
26.3179
21.7145
17.2361
12.9974
9.07813
5.5235
2.34758
-0.457452
-2.89086
-5.0119
-6.89134
-8.58486
-10.1322
-11.5639
-12.9034
-14.1781
-15.4082
-16.5946
-17.729
-18.7996
-19.8125
48.0283
47.8298
47.5402
47.2627
46.9927
46.7404
46.5137
46.3168
46.1514
46.0169
45.9116
45.8331
45.7781
45.7433
45.7251
45.72
45.7241
45.7332
45.7455
45.7486
48.252
48.3652
48.3403
48.1302
47.6765
46.917
45.7914
44.2439
42.2312
39.7234
36.5698
32.6664
28.2435
23.507
18.7683
14.2535
10.0608
6.24861
2.83982
-0.170387
-2.80013
-5.06523
-7.03327
-8.77304
-10.3384
-11.7677
-13.0905
-14.3292
-15.51
-16.653
-17.759
-18.8186
-19.8189
-20.6386
48.4124
48.2388
47.9384
47.6406
47.3399
47.0503
46.7832
46.5455
46.3404
46.1687
46.0297
45.9211
45.8401
45.7831
45.7468
45.7275
45.7216
45.725
45.7336
45.7455
45.7485
48.6111
48.6668
48.5502
48.2131
47.5933
46.6295
45.2632
43.4459
41.1394
38.1909
34.4659
30.154
25.4255
20.5025
15.6926
11.2038
7.11127
3.44789
0.214662
-2.61024
-5.05311
-7.14406
-8.95721
-10.5578
-11.9969
-13.311
-14.5284
-15.6698
-16.7603
-17.8204
-18.8496
-19.8386
-20.6448
-21.3334
48.7987
48.6699
48.3709
48.0618
47.7353
47.4103
47.1025
46.8218
46.5738
46.3611
46.1839
46.0408
45.9292
45.8459
45.7873
45.7497
45.7295
45.7229
45.7258
45.7339
45.7454
45.7483
48.9549
48.9304
48.6965
48.204
47.3905
46.1947
44.5648
42.4561
39.7147
36.1777
32.0004
27.3361
22.3704
17.3306
12.5196
8.11823
4.17457
0.6956
-2.33802
-4.96281
-7.2111
-9.12496
-10.7832
-12.2465
-13.5622
-14.7647
-15.8803
-16.9284
-17.9328
-18.9138
-19.8705
-20.6652
-21.3395
-22.0887
49.1719
49.1123
48.8306
48.5222
48.1776
47.8213
47.4739
47.1492
46.8559
46.5985
46.3789
46.1967
46.05
45.9357
45.8505
45.7906
45.7521
45.7312
45.724
45.7265
45.7342
45.7454
45.7482
49.2651
49.1354
48.7555
48.0792
47.0428
45.5904
43.6723
41.1335
37.7871
33.7622
29.1982
24.2542
19.1211
14.0357
9.28904
5.0292
1.27553
-1.99038
-4.8063
-7.22086
-9.27055
-11.0069
-12.5118
-13.8407
-15.0368
-16.1316
-17.1495
-18.1087
-19.031
-19.9373
-20.6977
-21.3599
-22.0947
-22.9107
49.5132
49.5522
49.3074
49.0158
48.6638
48.2826
47.8987
47.5305
47.1901
46.8852
46.6194
46.3937
46.2071
46.0572
45.9407
45.854
45.7932
45.7541
45.7326
45.725
45.7271
45.7345
45.7454
45.7482
49.5208
49.2579
48.7026
47.8119
46.5264
44.7895
42.4445
39.2873
35.4299
30.9999
26.1252
20.9658
15.73
10.6639
6.03901
1.96669
-1.56366
-4.59478
-7.18055
-9.37922
-11.2294
-12.7898
-14.1445
-15.3429
-16.4237
-17.415
-18.3397
-19.2141
-20.059
-20.7666
-21.3933
-22.1152
-22.9167
-23.8051
49.8007
49.9723
49.7885
49.5338
49.1887
48.7919
48.3768
47.9672
47.5796
47.2249
46.9096
46.6362
46.4052
46.2148
46.0623
45.9443
45.8566
45.7951
45.7555
45.7337
45.7258
45.7275
45.7347
45.7454
45.7481
49.6973
49.2726
48.51
47.3769
45.8107
43.649
40.6777
36.9997
32.7336
27.9733
22.8423
17.5222
12.2426
7.25507
2.80306
-1.04314
-4.32425
-7.10529
-9.45373
-11.4345
-13.0868
-14.4748
-15.6836
-16.7559
-17.7258
-18.6185
-19.4544
-20.2489
-20.8915
-21.4638
-22.1495
-22.9373
-23.8111
-24.7783
50.0087
50.3529
50.258
50.0649
49.7448
49.345
48.9066
48.4598
48.0263
47.621
47.2534
46.9288
46.6489
46.4132
46.2199
46.0656
45.9466
45.8584
45.7965
45.7566
45.7346
45.7264
45.728
45.7349
45.7454
45.7482
49.7686
49.1509
48.1506
46.7395
44.7505
41.9613
38.4712
34.392
29.7847
24.735
19.3902
13.9606
8.69542
3.84335
-0.390033
-3.97839
-6.99116
-9.51279
-11.6211
-13.3852
-14.8433
-16.0639
-17.1317
-18.0829
-18.947
-19.7457
-20.4977
-21.0865
-21.5914
-22.2217
-22.9725
-23.832
-24.7843
-25.8375
50.109
50.6705
50.6966
50.5944
50.3218
49.9355
49.4849
49.0076
48.5313
48.0758
47.6544
47.2753
46.9426
46.657
46.418
46.2226
46.0674
45.9478
45.8593
45.7973
45.7574
45.7352
45.7269
45.7283
45.735
45.7454
45.7482
49.7052
48.8639
47.5862
45.753
43.142
39.8448
35.9677
31.5426
26.6205
21.3114
15.7947
10.3105
5.12
0.458351
-3.51597
-6.8213
-9.553
-11.8108
-13.6798
-15.231
-16.5005
-17.5594
-18.4917
-19.3272
-20.0907
-20.8007
-21.3417
-21.79
-22.3523
-23.0467
-23.8683
-24.8056
-25.8435
-26.9906
50.0691
50.8999
51.0818
51.105
50.9069
50.5544
50.1062
49.6078
49.0941
48.5905
48.1151
47.6794
47.2903
46.9507
46.6611
46.4198
46.2234
46.0677
45.9481
45.8596
45.7977
45.7578
45.7356
45.7273
45.7285
45.7351
45.7455
45.7484
49.4755
48.3708
46.6692
44.223
41.1208
37.454
33.2306
28.4729
23.2547
17.7179
12.0775
6.59899
1.54518
-2.8741
-6.55468
-9.55827
-12.0016
-13.9955
-15.629
-16.973
-18.0605
-18.9642
-19.7673
-20.4927
-21.1611
-21.6533
-22.05
-22.555
-23.1808
-23.9446
-24.8431
-25.8652
-26.9965
-28.2458
49.8515
51.0133
51.3883
51.5758
51.4839
51.1901
50.7628
50.2562
49.713
49.1656
48.6373
48.144
47.6958
47.2982
46.9537
46.6615
46.419
46.2224
46.0668
45.9475
45.8594
45.7976
45.7579
45.7361
45.7278
45.7287
45.7352
45.7456
45.7485
49.0358
47.5228
45.2183
42.2985
38.8454
34.8353
30.2681
25.187
19.694
13.9683
8.26049
2.85305
-2.00208
-6.13152
-9.49024
-12.1793
-14.3317
-16.0649
-17.4692
-18.6133
-19.526
-20.2817
-20.9619
-21.5832
-22.0253
-22.3683
-22.8205
-23.3885
-24.0828
-24.9219
-25.904
-27.0188
-28.2517
-29.6123
49.4048
50.9799
51.5873
51.983
52.0339
51.8283
51.4444
50.946
50.3845
49.7997
49.2215
48.671
48.1621
47.7035
47.2998
46.9521
46.6587
46.4161
46.2198
46.0648
45.9461
45.8584
45.7972
45.7584
45.7368
45.728
45.7288
45.7352
45.7458
45.7487
48.2338
46.1559
43.3912
40.1364
36.346
31.9868
27.0776
21.6848
15.9455
10.0792
4.3678
-0.8998
-5.49653
-9.29494
-12.3103
-14.6776
-16.5407
-18.0193
-19.2022
-20.1544
-20.9005
-21.5157
-22.0796
-22.4628
-22.7491
-23.1464
-23.6604
-24.2962
-25.0647
-25.9857
-27.0591
-28.2746
-29.6183
-31.0999
50.758
48.5763
51.6452
52.3001
52.5345
52.4517
52.1384
51.6686
51.103
50.4902
49.8673
49.2615
48.6914
48.1694
47.7031
47.2957
46.9466
46.6531
46.4112
46.2159
46.0619
45.9439
45.857
45.7975
45.7594
45.7372
45.7281
45.7288
45.7353
45.7459
45.749
46.9276
44.4297
41.3391
37.7532
33.6135
28.9017
23.6544
17.968
12.0198
6.07058
0.426337
-4.63173
-8.9151
-12.3485
-15.0057
-17.0493
-18.6281
-19.8602
-20.8305
-21.5998
-22.1878
-22.67
-22.9804
-23.199
-23.5372
-23.9952
-24.5756
-25.2845
-26.1337
-27.144
-28.3166
-29.6418
-31.1059
-32.719
51.5236
50.2028
47.2263
52.4944
52.9614
53.0394
52.829
52.4124
51.861
51.2327
50.5728
49.9155
49.2851
48.6985
48.1669
47.6959
47.2868
46.9378
46.6453
46.4047
46.2108
46.0579
45.941
45.857
45.7989
45.7599
45.7373
45.7281
45.7287
45.7353
45.7461
45.7492
45.2772
42.4883
39.0689
35.1348
30.639
25.5724
19.9959
14.0417
7.9319
1.9668
-3.53468
-8.31545
-12.2372
-15.2797
-17.5707
-19.293
-20.595
-21.5899
-22.3577
-22.9536
-23.3918
-23.5999
-23.7337
-24.0007
-24.3975
-24.9203
-25.5723
-26.3607
-27.2977
-28.405
-29.6856
-31.1301
-32.725
-34.4808
52.5298
51.1006
49.2145
45.549
53.2834
53.569
53.4972
53.1638
52.6487
52.0207
51.3342
50.6315
49.9435
49.2924
48.6937
48.1561
47.6829
47.2738
46.926
46.6354
46.3967
46.2043
46.053
45.9405
45.8589
45.7996
45.76
45.7371
45.7278
45.7286
45.7352
45.7462
45.7495
43.42
40.3327
36.5621
32.2713
27.4135
21.994
16.1028
9.91488
3.70134
-2.20379
-7.48476
-11.925
-15.445
-18.0791
-20.002
-21.4091
-22.4438
-23.2123
-23.788
-24.2197
-24.3617
-24.377
-24.5543
-24.8764
-25.3356
-25.9281
-26.658
-27.5328
-28.5652
-29.7781
-31.1759
-32.75
-34.4869
-36.3971
53.4687
52.2987
50.2361
47.9108
43.6803
54.0114
54.1225
53.9053
53.4538
52.8457
52.1464
51.407
50.6659
49.9517
49.2852
48.6787
48.1381
47.6649
47.2573
46.9119
46.6237
46.387
46.1967
46.0518
45.9432
45.8599
45.7997
45.7597
45.7367
45.7276
45.7283
45.735
45.7464
45.7499
41.3527
37.9403
33.8088
29.1535
23.9309
18.1634
11.9779
5.60067
-0.647365
-6.40982
-11.393
-15.4364
-18.5242
-20.7407
-22.2987
-23.3995
-24.1782
-24.7317
-25.1256
-25.2404
-25.1723
-25.2237
-25.4509
-25.8316
-26.358
-27.0263
-27.8407
-28.8092
-29.9453
-31.2729
-32.7981
-34.5126
-36.4032
-38.4799
54.3387
53.4291
51.6684
49.0576
46.3999
41.6121
54.6776
54.6183
54.2608
53.6971
53.002
52.2374
51.4502
50.6762
49.9424
49.2657
48.6551
48.1141
47.6426
47.2379
46.8956
46.6099
46.3758
46.1945
46.0553
45.9444
45.8601
45.7993
45.759
45.7364
45.7273
45.728
45.7349
45.7466
45.7503
39.0481
35.3021
30.8006
25.7756
20.1867
14.0791
7.62747
1.11686
-5.08519
-10.6173
-15.2292
-18.829
-21.4641
-23.261
-24.4616
-25.2676
-25.8025
-26.1524
-26.205
-26.0939
-26.0553
-26.1489
-26.4292
-26.873
-27.4722
-28.2228
-29.1289
-30.1993
-31.448
-32.9
-34.5632
-36.4298
-38.486
-40.7424
55.1392
54.4838
53.0295
50.7302
47.6801
44.688
39.31
55.2776
55.053
54.5613
53.8921
53.1169
52.2929
51.4643
50.6652
49.9181
49.2357
48.6242
48.0851
47.6169
47.2161
46.8767
46.5943
46.3724
46.1991
46.057
45.9446
45.8594
45.7982
45.7588
45.7362
45.7268
45.7276
45.7347
45.7468
45.7508
36.4987
32.4114
27.5331
22.1329
16.1758
9.7402
3.06037
-3.51385
-9.57852
-14.791
-18.9655
-22.0857
-24.2571
-25.6389
-26.4934
-27.0177
-27.3215
-27.3007
-27.1087
-27.0233
-27.0196
-27.1581
-27.4957
-28.008
-28.6864
-29.5262
-30.5319
-31.7129
-33.0837
-34.6705
-36.483
-38.5136
-40.7485
-43.1958
55.8639
55.4639
54.308
52.3291
49.5928
46.1335
42.74
36.7658
55.807
55.4232
54.8046
54.0376
53.1891
52.3132
51.4526
50.6361
49.8812
49.197
48.5872
48.0518
47.5882
47.1909
46.8555
46.5891
46.3784
46.2012
46.0571
45.9437
45.8578
45.7981
45.7589
45.7358
45.7262
45.7271
45.7345
45.7471
45.7514
33.6997
29.2664
24.0026
18.2191
11.8928
5.14654
-1.7108
-8.26283
-14.0897
-18.8957
-22.577
-25.1933
-26.8987
-27.8757
-28.398
-28.6546
-28.5515
-28.2636
-28.0916
-28.0368
-28.071
-28.2583
-28.6582
-29.2449
-30.0092
-30.9459
-32.0597
-33.3607
-34.8638
-36.5964
-38.5696
-40.777
-43.202
-46.3538
56.507
56.3616
55.508
53.8404
51.425
48.3085
44.3794
40.5509
33.9748
56.2618
55.7264
54.9893
54.1322
53.219
52.3025
51.4192
50.592
49.8338
49.1509
48.5452
48.0151
47.5556
47.1628
46.8482
46.5968
46.381
46.2014
46.0559
45.9414
45.8581
45.7989
45.7587
45.7352
45.7255
45.7265
45.7343
45.7475
45.752
30.652
25.8656
20.2032
14.0263
7.32941
0.298008
-6.66771
-13.095
-18.5783
-22.8982
-26.0428
-28.1422
-29.3879
-29.974
-30.18
-29.9831
-29.5849
-29.3095
-29.1618
-29.1408
-29.2162
-29.4569
-29.9248
-30.5924
-31.4498
-32.4918
-33.723
-35.1539
-36.8001
-38.6898
-40.8362
-43.2316
-46.3603
-50.1671
57.0635
57.1686
56.6219
55.2704
53.1659
50.389
46.8385
42.408
38.1223
30.9384
56.6387
55.9606
55.1135
54.176
53.2115
52.2657
51.3676
50.5351
49.7776
49.099
48.4991
47.9737
47.5194
47.1529
46.8579
46.6001
46.3812
46.1997
46.0527
45.9422
45.8599
45.7993
45.7582
45.7343
45.7245
45.7258
45.734
45.7478
45.7528
27.3569
22.2053
16.1271
9.54062
2.47308
-4.80171
-11.7846
-17.9691
-23.003
-26.7679
-29.3462
-30.9272
-31.7252
-31.9382
-31.6295
-31.1013
-30.7056
-30.4462
-30.3258
-30.342
-30.4632
-30.7624
-31.3041
-32.0596
-33.0183
-34.1747
-35.5331
-37.1045
-38.9049
-40.9637
-43.2943
-46.3907
-50.1732
-54.0601
57.5292
57.8766
57.6403
56.6118
54.8217
52.3736
49.1839
45.1699
40.2202
35.4622
27.6589
56.9351
56.1232
55.177
54.175
53.1726
52.2069
51.3009
50.4678
49.7144
49.0423
48.4475
47.9278
47.5063
47.165
46.8619
46.6003
46.379
46.1955
46.0543
45.9455
45.8611
45.7992
45.7574
45.7331
45.7234
45.7249
45.7337
45.7483
45.7536
23.8129
18.2799
11.7584
4.74249
-2.68367
-10.1373
-17.0249
-22.8385
-27.3228
-30.4785
-32.4756
-33.5458
-33.914
-33.5391
-32.8517
-32.3122
-31.9212
-31.6805
-31.5907
-31.6485
-31.8201
-32.1833
-32.8054
-33.6566
-34.7252
-36.0057
-37.5019
-39.2249
-41.1914
-43.4301
-46.4583
-50.2049
-54.0661
-58.0203
57.9012
58.4786
58.5535
57.8537
56.3853
54.2673
51.4308
47.7914
43.3041
37.8248
32.5815
24.1361
57.1472
56.2136
55.1867
54.1361
53.1073
52.1299
51.2216
50.3922
49.6456
48.9789
48.3904
47.9109
47.5213
47.17
46.8622
46.5975
46.3735
46.1982
46.0597
45.9481
45.8617
45.7986
45.7561
45.7316
45.722
45.724
45.7333
45.7487
45.7545
20.017
14.0776
7.07468
-0.389768
-8.14659
-15.6843
-22.3399
-27.6523
-31.499
-34.0092
-35.4236
-35.9992
-35.7004
-34.8909
-34.1731
-33.6228
-33.239
-33.0199
-32.9645
-33.0684
-33.2956
-33.7287
-34.4386
-35.3938
-36.5817
-37.9967
-39.6417
-41.5281
-43.6715
-46.6046
-50.277
-54.0993
-58.0263
-62.0344
58.175
58.9689
59.3517
58.9853
57.8458
56.0614
53.5824
50.3117
46.2121
41.2512
35.2373
29.491
20.3674
57.2737
56.2395
55.1509
54.0656
53.0202
52.038
51.1324
50.31
49.5691
48.909
48.3691
47.9294
47.5274
47.1703
46.8587
46.5903
46.3775
46.2064
46.0642
45.9498
45.8617
45.7975
45.7545
45.7298
45.7204
45.7229
45.7329
45.7493
45.7555
15.9613
9.57232
2.03732
-5.89183
-13.9235
-21.4112
-27.6727
-32.3578
-35.4981
-37.3444
-38.1872
-38.0028
-37.2096
-36.35
-35.6002
-35.0411
-34.6667
-34.4723
-34.4555
-34.6104
-34.8988
-35.4086
-36.214
-37.2821
-38.5994
-40.1597
-41.9654
-44.0259
-46.8632
-50.4365
-54.1766
-58.0609
-62.0401
-66.0826
58.3477
59.3408
60.0252
59.9954
59.1924
57.7445
55.6295
52.7322
49.015
44.4562
39.0291
32.4762
26.1997
16.3503
57.323
56.211
55.0772
53.969
52.9153
51.9343
51.0355
50.2187
49.4846
48.8825
48.3916
47.9366
47.5277
47.1659
46.8495
46.5961
46.3894
46.2134
46.0675
45.9508
45.861
45.7958
45.7523
45.7276
45.7186
45.7216
45.7324
45.7498
45.7566
11.6238
4.72253
-3.40843
-11.8013
-20.0117
-27.2712
-32.9607
-36.9044
-39.2923
-40.4745
-40.4446
-39.6951
-38.8359
-37.9227
-37.1418
-36.575
-36.2123
-36.0463
-36.0724
-36.2836
-36.6393
-37.2328
-38.1421
-39.3328
-40.7901
-42.5073
-44.4845
-47.2399
-50.7177
-54.3503
-58.1436
-62.0759
-66.0881
-70.1427
58.429
59.5891
60.5616
60.8726
60.4135
59.3054
57.5593
55.0444
51.7106
47.5496
42.5424
36.6604
29.5605
22.7208
12.0755
57.3072
56.137
54.9722
53.851
52.7963
51.8214
50.928
50.1178
49.4522
48.9096
48.4001
47.937
47.5223
47.1544
46.8575
46.6125
46.3996
46.2189
46.0699
45.9509
45.8596
45.7935
45.7497
45.7251
45.7164
45.7202
45.7319
45.7504
45.7577
6.97365
-0.523728
-9.319
-18.1502
-26.3834
-33.2001
-38.136
-41.2455
-42.8605
-43.0306
-42.3492
-41.5163
-40.5852
-39.6178
-38.8057
-38.2326
-37.8843
-37.7503
-37.8241
-38.0974
-38.5269
-39.2119
-40.2341
-41.5574
-43.1658
-45.0506
-47.725
-51.1211
-54.6533
-58.3319
-62.1641
-66.1251
-70.148
-74.1906
58.4328
59.725
60.9477
61.6005
61.4968
60.7313
59.3585
57.2359
54.2932
50.5242
45.9341
40.4949
34.1691
26.5087
19.0627
7.51912
57.2369
56.0255
54.8417
53.7162
52.6663
51.6962
50.8089
50.0788
49.4848
48.9198
48.4005
47.9304
47.5079
47.1651
46.8796
46.627
46.4081
46.2232
46.0712
45.95
45.8573
45.7905
45.7465
45.7221
45.714
45.7186
45.7314
45.7511
45.7589
1.96374
-6.23988
-15.769
-24.9477
-32.9926
-39.1125
-43.1327
-45.3399
-45.7739
-45.1838
-44.3957
-43.4709
-42.4663
-41.4434
-40.6
-40.0222
-39.6911
-39.5932
-39.7197
-40.0612
-40.5717
-41.3562
-42.5008
-43.9674
-45.7372
-48.3204
-51.6349
-55.0807
-58.6561
-62.3674
-66.2188
-70.186
-74.1955
-78.2003
58.3716
59.7657
61.1913
62.1585
62.4219
62.0103
61.0121
59.2931
56.7517
53.3783
49.1898
44.1936
38.3407
31.5788
23.3405
15.2235
2.64617
57.1216
55.8833
54.6909
53.5684
52.5221
51.5572
50.7625
50.1176
49.4966
48.9201
48.3926
47.9126
47.5219
47.1942
46.8993
46.6392
46.4151
46.2262
46.0712
45.948
45.8541
45.7867
45.7426
45.7186
45.7114
45.717
45.7308
45.7517
45.7602
-3.47912
-12.5437
-22.8233
-32.2056
-39.7443
-44.9235
-47.8791
-48.6816
-48.2224
-47.4939
-46.5876
-45.5676
-44.4867
-43.4069
-42.5325
-41.9518
-41.6412
-41.5837
-41.7684
-42.1847
-42.7836
-43.6764
-44.953
-46.5726
-49.0403
-52.2607
-55.6183
-59.1046
-62.7114
-66.4366
-70.2851
-74.2346
-78.205
-82.1425
58.2566
59.7267
61.3112
62.5499
63.1607
63.1204
62.5048
61.1998
59.0744
56.1039
52.3141
47.7321
42.3562
36.1071
28.9133
20.0788
11.2013
-2.59228
56.9696
55.717
54.5246
53.404
52.3615
51.5026
50.8084
50.1313
49.497
48.9108
48.3708
47.9305
47.5592
47.2201
46.9162
46.6496
46.4204
46.2277
46.0699
45.9448
45.8499
45.7821
45.7381
45.7148
45.7085
45.7153
45.7303
45.7524
45.7615
-9.4752
-19.5758
-30.6055
-39.8338
-46.5706
-50.496
-51.764
-51.4807
-50.8429
-49.9621
-48.9318
-47.8122
-46.6524
-45.5152
-44.6105
-44.0293
-43.7428
-43.7305
-43.9792
-44.4771
-45.1725
-46.1824
-47.6002
-49.9158
-53.0146
-56.268
-59.6612
-63.1771
-66.7977
-70.5165
-74.339
-78.2449
-82.1468
-85.986
58.0976
59.6218
61.3265
62.7922
63.7129
64.0286
63.8103
62.9379
61.2455
58.6922
55.3023
51.1234
46.1791
40.4507
33.8218
26.1983
16.7467
6.98758
-8.26932
56.7885
55.5321
54.3391
53.2202
52.298
51.5566
50.8241
50.1318
49.486
48.8843
48.3934
47.9777
47.5928
47.2428
46.9309
46.658
46.4238
46.2273
46.0669
45.9402
45.8445
45.7765
45.7331
45.7107
45.7056
45.7135
45.7297
45.7532
45.7628
-16.2021
-27.6616
-38.9978
-47.909
-53.1875
-55.0787
-55.0115
-54.4675
-53.6323
-52.5924
-51.4317
-50.2085
-48.9687
-47.7742
-46.8408
-46.2621
-46.0037
-46.0418
-46.3608
-46.9476
-47.7475
-48.8827
-50.9925
-53.9305
-57.048
-60.3286
-63.7471
-67.2758
-70.8909
-74.5819
-78.3536
-82.1871
-85.9902
-89.6964
57.9038
59.4631
61.2547
62.9034
64.0963
64.7325
64.8886
64.4753
63.2469
61.1297
58.1504
54.3672
49.8339
44.5599
38.5057
31.5138
23.4589
13.366
2.57663
-14.4626
56.5853
55.325
54.1308
53.1471
52.3611
51.5746
50.8246
50.1189
49.4541
48.9122
48.452
48.0202
47.6223
47.2628
46.9432
46.664
46.425
46.225
46.0622
45.9341
45.8379
45.7702
45.7277
45.7064
45.7025
45.7117
45.7291
45.7539
45.7642
-24.073
-36.764
-48.5004
-55.7687
-58.7112
-58.8947
-58.4631
-57.6367
-56.5879
-55.3829
-54.0873
-52.7587
-51.4387
-50.1886
-49.2291
-48.6565
-48.4311
-48.5253
-48.9211
-49.6042
-50.5163
-52.3373
-55.0571
-57.9953
-61.128
-64.4262
-67.8533
-71.3759
-74.9651
-78.6053
-82.2996
-86.0301
-89.7004
-93.2368
57.6831
59.2615
61.1118
62.9011
64.3286
65.2507
65.7352
65.7599
65.042
63.4002
60.8488
57.4651
53.3248
48.4744
42.9038
36.5505
29.2093
20.7214
9.9732
-1.99908
-21.2956
56.3561
55.091
54.0472
53.2204
52.3816
51.5751
50.8098
50.0809
49.488
48.9838
48.5048
48.0579
47.6487
47.2799
46.9526
46.6673
46.4237
46.2204
46.0555
45.9264
45.8302
45.7633
45.7218
45.7018
45.6993
45.7098
45.7285
45.7547
45.7657
-33.3236
-48.6658
-57.4754
-62.6745
-63.2759
-62.9098
-62.1001
-60.979
-59.7011
-58.3267
-56.8955
-55.4618
-54.064
-52.7615
-51.7799
-51.218
-51.031
-51.1875
-51.6671
-52.4533
-54.0509
-56.4651
-59.1612
-62.0986
-65.2382
-68.5378
-71.9553
-75.4516
-78.992
-82.5563
-86.1449
-89.7394
-93.2408
-96.5678
57.4325
59.0265
60.9125
62.8026
64.4277
65.6018
66.3724
66.7795
66.5673
65.4654
63.385
60.413
56.6604
52.2035
47.0737
41.2397
34.6097
26.9364
18.0281
6.61576
-6.68281
-28.863
56.0956
54.9964
54.132
53.2436
52.3821
51.558
50.7646
50.1215
49.5745