# Forces      
# CofR        : (0.000000e+00 0.000000e+00 0.000000e+00)
# Time        forces(pressure viscous porous)	moments(pressure viscous porous)
0             	((9.159340e-16 -3.552714e-15 5.364101e-18) (0.000000e+00 -2.620390e-02 0.000000e+00) (0.000000e+00 0.000000e+00 0.000000e+00)) ((9.527422e-20 3.534142e-19 -2.775558e-17) (0.000000e+00 0.000000e+00 5.421011e-20) (0.000000e+00 0.000000e+00 0.000000e+00))
0.01          	((4.743153e-07 3.344920e-02 5.531010e-18) (-1.397682e-07 -1.086167e-04 -5.224017e-20) (0.000000e+00 0.000000e+00 0.000000e+00)) ((9.827060e-20 3.672161e-19 -1.011973e-08) (-3.085196e-22 -1.601665e-20 7.194461e-09) (0.000000e+00 0.000000e+00 0.000000e+00))
0.02          	((5.647949e-07 3.155116e-02 5.471699e-18) (-1.493677e-07 -1.079503e-04 -1.030738e-19) (0.000000e+00 0.000000e+00 0.000000e+00)) ((9.721941e-20 3.631380e-19 -5.121092e-09) (-1.428689e-21 -1.592820e-20 5.669316e-09) (0.000000e+00 0.000000e+00 0.000000e+00))
0.03          	((2.746661e-07 3.126680e-02 5.429005e-18) (-1.280213e-07 -1.075941e-04 -1.217858e-19) (0.000000e+00 0.000000e+00 0.000000e+00)) ((9.646122e-20 3.603008e-19 2.100549e-09) (-1.689663e-21 -1.587267e-20 5.243191e-09) (0.000000e+00 0.000000e+00 0.000000e+00))
0.04          	((3.494414e-07 3.094092e-02 5.399696e-18) (-9.242799e-08 -1.084985e-04 -1.339570e-19) (0.000000e+00 0.000000e+00 0.000000e+00)) ((9.593959e-20 3.583440e-19 -6.664847e-09) (-1.841063e-21 -1.610414e-20 4.021139e-09) (0.000000e+00 0.000000e+00 0.000000e+00))
0.05          	((1.286866e-07 3.054675e-02 5.382099e-18) (-1.116930e-07 -1.096278e-04 -1.416564e-19) (0.000000e+00 0.000000e+00 0.000000e+00)) ((9.562695e-20 3.571496e-19 2.044397e-09) (-1.942937e-21 -1.625611e-20 4.686163e-09) (0.000000e+00 0.000000e+00 0.000000e+00))
0.06          	((2.343110e-07 3.031631e-02 5.370264e-18) (-1.002710e-07 -1.104672e-04 -1.496830e-19) (0.000000e+00 0.000000e+00 0.000000e+00)) ((9.541667e-20 3.563496e-19 3.551943e-10) (-2.049681e-21 -1.650840e-20 4.435725e-09) (0.000000e+00 0.000000e+00 0.000000e+00))
0.07          	((2.382161e-07 3.006615e-02 5.361423e-18) (-1.131145e-07 -1.108417e-04 -1.540719e-19) (0.000000e+00 0.000000e+00 0.000000e+00)) ((9.525961e-20 3.557447e-19 -5.966231e-09) (-2.102862e-21 -1.660728e-20 4.871735e-09) (0.000000e+00 0.000000e+00 0.000000e+00))
0.08          	((8.293084e-08 2.998799e-02 5.355482e-18) (-1.116560e-07 -1.110876e-04 -1.576349e-19) (0.000000e+00 0.000000e+00 0.000000e+00)) ((9.515404e-20 3.553468e-19 7.842905e-09) (-2.146435e-21 -1.668668e-20 4.897960e-09) (0.000000e+00 0.000000e+00 0.000000e+00))
0.09          	((4.064921e-07 2.988567e-02 5.350531e-18) (-1.041981e-07 -1.111522e-04 -1.606028e-19) (0.000000e+00 0.000000e+00 0.000000e+00)) ((9.506606e-20 3.550115e-19 -1.279186e-08) (-2.183161e-21 -1.675391e-20 4.648387e-09) (0.000000e+00 0.000000e+00 0.000000e+00))
0.1           	((-7.123466e-08 2.981768e-02 5.346774e-18) (-1.298272e-07 -1.111252e-04 -1.628811e-19) (0.000000e+00 0.000000e+00 0.000000e+00)) ((9.499931e-20 3.547582e-19 1.155616e-08) (-2.212627e-21 -1.680113e-20 5.429954e-09) (0.000000e+00 0.000000e+00 0.000000e+00))
0.11          	((4.712565e-07 2.977485e-02 5.343979e-18) (-8.760188e-08 -1.110203e-04 -1.649927e-19) (0.000000e+00 0.000000e+00 0.000000e+00)) ((9.494963e-20 3.545701e-19 -8.693927e-09) (-2.240770e-21 -1.684337e-20 4.229496e-09) (0.000000e+00 0.000000e+00 0.000000e+00))
0.12          	((2.709591e-09 2.975891e-02 5.341760e-18) (-1.439157e-07 -1.109560e-04 -1.670695e-19) (0.000000e+00 0.000000e+00 0.000000e+00)) ((9.491021e-20 3.544228e-19 -1.026380e-09) (-2.268580e-21 -1.688432e-20 5.801756e-09) (0.000000e+00 0.000000e+00 0.000000e+00))
0.13          	((1.311541e-07 2.971681e-02 5.339992e-18) (-8.304566e-08 -1.108894e-04 -1.689569e-19) (0.000000e+00 0.000000e+00 0.000000e+00)) ((9.487880e-20 3.543023e-19 1.771818e-08) (-2.294290e-21 -1.692109e-20 4.122560e-09) (0.000000e+00 0.000000e+00 0.000000e+00))
0.14          	((6.652892e-07 2.970303e-02 5.338589e-18) (-1.193652e-07 -1.108483e-04 -1.709855e-19) (0.000000e+00 0.000000e+00 0.000000e+00)) ((9.485387e-20 3.542089e-19 -4.151632e-08) (-2.321111e-21 -1.696259e-20 4.961964e-09) (0.000000e+00 0.000000e+00 0.000000e+00))
0.15          	((-7.783433e-07 2.968480e-02 5.337478e-18) (-1.349822e-07 -1.107914e-04 -1.728572e-19) (0.000000e+00 0.000000e+00 0.000000e+00)) ((9.483416e-20 3.541345e-19 6.016880e-08) (-2.346335e-21 -1.700019e-20 5.654052e-09) (0.000000e+00 0.000000e+00 0.000000e+00))
0.16          	((1.703542e-06 2.965953e-02 5.336714e-18) (-3.029712e-08 -1.107451e-04 -1.746872e-19) (0.000000e+00 0.000000e+00 0.000000e+00)) ((9.482057e-20 3.540811e-19 -7.700774e-08) (-2.370320e-21 -1.703777e-20 2.400457e-09) (0.000000e+00 0.000000e+00 0.000000e+00))
0.17          	((-1.540565e-06 2.965126e-02 5.336104e-18) (-2.446794e-07 -1.106906e-04 -1.764154e-19) (0.000000e+00 0.000000e+00 0.000000e+00)) ((9.480978e-20 3.540407e-19 6.222839e-08) (-2.394069e-21 -1.707222e-20 8.717293e-09) (0.000000e+00 0.000000e+00 0.000000e+00))
0.18          	((1.626934e-06 2.964112e-02 5.335632e-18) (7.828973e-08 -1.106331e-04 -1.779956e-19) (0.000000e+00 0.000000e+00 0.000000e+00)) ((9.480136e-20 3.540082e-19 -2.294394e-08) (-2.415436e-21 -1.710362e-20 -2.731640e-10) (0.000000e+00 0.000000e+00 0.000000e+00))
0.19          	((-1.979254e-07 2.963290e-02 5.335301e-18) (-3.004329e-07 -1.105719e-04 -1.795199e-19) (0.000000e+00 0.000000e+00 0.000000e+00)) ((9.479548e-20 3.539860e-19 -6.573704e-08) (-2.436212e-21 -1.713214e-20 9.694230e-09) (0.000000e+00 0.000000e+00 0.000000e+00))
0.2           	((-1.423795e-06 2.963286e-02 5.335036e-18) (1.941688e-08 -1.105087e-04 -1.808818e-19) (0.000000e+00 0.000000e+00 0.000000e+00)) ((9.479084e-20 3.539686e-19 1.833674e-07) (-2.456057e-21 -1.715761e-20 1.968978e-09) (0.000000e+00 0.000000e+00 0.000000e+00))
0.21          	((4.737099e-06 2.964033e-02 5.334882e-18) (-8.732428e-08 -1.104437e-04 -1.822335e-19) (0.000000e+00 0.000000e+00 0.000000e+00)) ((9.478794e-20 3.539584e-19 -3.274769e-07) (-2.473179e-21 -1.718259e-20 2.740253e-09) (0.000000e+00 0.000000e+00 0.000000e+00))
0.22          	((-7.631768e-06 2.965535e-02 5.334757e-18) (-4.225753e-07 -1.103835e-04 -1.834548e-19) (0.000000e+00 0.000000e+00 0.000000e+00)) ((9.478597e-20 3.539533e-19 4.470497e-07) (-2.493157e-21 -1.720214e-20 1.449089e-08) (0.000000e+00 0.000000e+00 0.000000e+00))
0.23          	((1.092612e-05 2.965348e-02 5.334692e-18) (5.541873e-07 -1.103212e-04 -1.846189e-19) (0.000000e+00 0.000000e+00 0.000000e+00)) ((9.478448e-20 3.539464e-19 -4.913206e-07) (-2.506828e-21 -1.722505e-20 -1.495886e-08) (0.000000e+00 0.000000e+00 0.000000e+00))
0.24          	((-1.151906e-05 2.967136e-02 5.334559e-18) (-1.160729e-06 -1.102620e-04 -1.857754e-19) (0.000000e+00 0.000000e+00 0.000000e+00)) ((9.478244e-20 3.539427e-19 3.727732e-07) (-2.526619e-21 -1.724001e-20 3.465204e-08) (0.000000e+00 0.000000e+00 0.000000e+00))
0.25          	((9.177821e-06 2.968105e-02 5.334362e-18) (1.205427e-06 -1.101950e-04 -1.867121e-19) (0.000000e+00 0.000000e+00 0.000000e+00)) ((9.477867e-20 3.539277e-19 -3.195289e-08) (-2.538608e-21 -1.725750e-20 -3.145055e-08) (0.000000e+00 0.000000e+00 0.000000e+00))
0.26          	((-6.678506e-07 2.962161e-02 5.334172e-18) (-1.414942e-06 -1.101092e-04 -1.874516e-19) (0.000000e+00 0.000000e+00 0.000000e+00)) ((9.477521e-20 3.539118e-19 -5.843045e-07) (-2.548258e-21 -1.727240e-20 3.791349e-08) (0.000000e+00 0.000000e+00 0.000000e+00))
0.27          	((-1.322489e-05 2.968312e-02 5.333710e-18) (6.457759e-07 -1.100025e-04 -1.885899e-19) (0.000000e+00 0.000000e+00 0.000000e+00)) ((9.476739e-20 3.538880e-19 1.427956e-06) (-2.572812e-21 -1.727659e-20 -1.068378e-08) (0.000000e+00 0.000000e+00 0.000000e+00))
0.28          	((3.279073e-05 2.984439e-02 5.333308e-18) (3.648511e-07 -1.099166e-04 -1.887955e-19) (0.000000e+00 0.000000e+00 0.000000e+00)) ((9.475896e-20 3.538729e-19 -2.339044e-06) (-2.564280e-21 -1.729113e-20 -1.676721e-08) (0.000000e+00 0.000000e+00 0.000000e+00))
0.29          	((-5.258356e-05 2.987353e-02 5.332758e-18) (-2.569172e-06 -1.097790e-04 -1.898312e-19) (0.000000e+00 0.000000e+00 0.000000e+00)) ((9.475061e-20 3.538511e-19 2.988056e-06) (-2.602553e-21 -1.727192e-20 8.330288e-08) (0.000000e+00 0.000000e+00 0.000000e+00))
0.3           	((6.714712e-05 2.983975e-02 5.332217e-18) (4.883363e-06 -1.095419e-04 -1.898369e-19) (0.000000e+00 0.000000e+00 0.000000e+00)) ((9.473860e-20 3.537978e-19 -2.933926e-06) (-2.583621e-21 -1.728031e-20 -1.438331e-07) (0.000000e+00 0.000000e+00 0.000000e+00))
0.31          	((-6.535937e-05 3.016338e-02 5.330914e-18) (-7.512150e-06 -1.092342e-04 -1.880646e-19) (0.000000e+00 0.000000e+00 0.000000e+00)) ((9.471690e-20 3.537630e-19 1.668598e-06) (-2.585321e-21 -1.723204e-20 2.137753e-07) (0.000000e+00 0.000000e+00 0.000000e+00))
0.32          	((3.897663e-05 3.057396e-02 5.329894e-18) (8.314365e-06 -1.088060e-04 -1.881277e-19) (0.000000e+00 0.000000e+00 0.000000e+00)) ((9.469717e-20 3.537199e-19 1.097493e-06) (-2.587437e-21 -1.714840e-20 -2.198923e-07) (0.000000e+00 0.000000e+00 0.000000e+00))
0.33          	((1.808439e-05 3.042309e-02 5.329618e-18) (-6.510267e-06 -1.079632e-04 -1.798206e-19) (0.000000e+00 0.000000e+00 0.000000e+00)) ((9.469146e-20 3.537004e-19 -5.080783e-06) (-2.468587e-21 -1.696562e-20 1.533524e-07) (0.000000e+00 0.000000e+00 0.000000e+00))
0.34          	((-9.278282e-05 3.061452e-02 5.329424e-18) (4.403000e-07 -1.069484e-04 -1.842924e-19) (0.000000e+00 0.000000e+00 0.000000e+00)) ((9.469035e-20 3.537065e-19 8.960404e-06) (-2.621245e-21 -1.677261e-20 3.904557e-08) (0.000000e+00 0.000000e+00 0.000000e+00))
0.35          	((1.569680e-04 3.117021e-02 5.329663e-18) (7.924031e-06 -1.058844e-04 -1.756488e-19) (0.000000e+00 0.000000e+00 0.000000e+00)) ((9.468956e-20 3.537598e-19 -1.075835e-05) (-2.418327e-21 -1.671269e-20 -2.790751e-07) (0.000000e+00 0.000000e+00 0.000000e+00))
0.36          	((-1.705112e-04 3.117926e-02 5.330235e-18) (-1.600759e-05 -1.048049e-04 -1.726756e-19) (0.000000e+00 0.000000e+00 0.000000e+00)) ((9.470420e-20 3.538310e-19 8.517321e-06) (-2.492659e-21 -1.652488e-20 4.951307e-07) (0.000000e+00 0.000000e+00 0.000000e+00))
0.37          	((1.118175e-04 3.045751e-02 5.330707e-18) (1.863796e-05 -1.037534e-04 -1.631043e-19) (0.000000e+00 0.000000e+00 0.000000e+00)) ((9.470891e-20 3.537646e-19 -1.964142e-06) (-2.240307e-21 -1.641671e-20 -5.276184e-07) (0.000000e+00 0.000000e+00 0.000000e+00))
0.38          	((5.792666e-06 3.054038e-02 5.329882e-18) (-1.423426e-05 -1.030023e-04 -1.579014e-19) (0.000000e+00 0.000000e+00 0.000000e+00)) ((9.469470e-20 3.537388e-19 -6.721233e-06) (-2.224037e-21 -1.639907e-20 3.558250e-07) (0.000000e+00 0.000000e+00 0.000000e+00))
0.39          	((-1.358963e-04 3.103012e-02 5.330052e-18) (2.911132e-06 -1.025551e-04 -1.664211e-19) (0.000000e+00 0.000000e+00 0.000000e+00)) ((9.470117e-20 3.537936e-19 1.391303e-05) (-2.417605e-21 -1.627138e-20 3.627356e-09) (0.000000e+00 0.000000e+00 0.000000e+00))
0.4           	((2.235824e-04 3.092699e-02 5.331404e-18) (1.005699e-05 -1.022818e-04 -1.668017e-19) (0.000000e+00 0.000000e+00 0.000000e+00)) ((9.471914e-20 3.538503e-19 -1.633936e-05) (-2.424490e-21 -1.650441e-20 -3.604824e-07) (0.000000e+00 0.000000e+00 0.000000e+00))
0.41          	((-2.247087e-04 3.157218e-02 5.332218e-18) (-2.034662e-05 -1.021782e-04 -1.500874e-19) (0.000000e+00 0.000000e+00 0.000000e+00)) ((9.473942e-20 3.539980e-19 1.244571e-05) (-2.097675e-21 -1.638550e-20 6.182695e-07) (0.000000e+00 0.000000e+00 0.000000e+00))
0.42          	((1.322510e-04 3.132216e-02 5.333119e-18) (2.218651e-05 -1.021709e-04 -1.556431e-19) (0.000000e+00 0.000000e+00 0.000000e+00)) ((9.475063e-20 3.540086e-19 -3.015370e-06) (-2.211224e-21 -1.627507e-20 -6.137660e-07) (0.000000e+00 0.000000e+00 0.000000e+00))
0.43          	((1.853328e-05 3.023133e-02 5.332746e-18) (-1.523726e-05 -1.017983e-04 -1.341342e-19) (0.000000e+00 0.000000e+00 0.000000e+00)) ((9.474524e-20 3.538984e-19 -7.908377e-06) (-1.684580e-21 -1.659344e-20 3.681384e-07) (0.000000e+00 0.000000e+00 0.000000e+00))
0.44          	((-1.597240e-04 3.121627e-02 5.331135e-18) (2.019305e-06 -1.018415e-04 -1.504195e-19) (0.000000e+00 0.000000e+00 0.000000e+00)) ((9.472048e-20 3.538851e-19 1.557272e-05) (-2.088550e-21 -1.631056e-20 2.509777e-08) (0.000000e+00 0.000000e+00 0.000000e+00))
0.45          	((2.405940e-04 3.092694e-02 5.332568e-18) (1.169348e-05 -1.016338e-04 -1.541429e-19) (0.000000e+00 0.000000e+00 0.000000e+00)) ((9.473953e-20 3.539258e-19 -1.723082e-05) (-2.149951e-21 -1.626330e-20 -4.025977e-07) (0.000000e+00 0.000000e+00 0.000000e+00))
0.46          	((-2.281532e-04 3.153425e-02 5.333263e-18) (-2.146253e-05 -1.017251e-04 -1.302085e-19) (0.000000e+00 0.000000e+00 0.000000e+00)) ((9.475782e-20 3.540634e-19 1.230147e-05) (-1.644739e-21 -1.663523e-20 6.426448e-07) (0.000000e+00 0.000000e+00 0.000000e+00))
0.47          	((1.222653e-04 3.141769e-02 5.333962e-18) (2.218075e-05 -1.018128e-04 -1.788106e-19) (0.000000e+00 0.000000e+00 0.000000e+00)) ((9.476570e-20 3.540743e-19 -2.143881e-06) (-2.862467e-21 -1.676424e-20 -6.109915e-07) (0.000000e+00 0.000000e+00 0.000000e+00))
0.48          	((3.290198e-05 3.021930e-02 5.333340e-18) (-1.432964e-05 -1.017255e-04 -1.427729e-19) (0.000000e+00 0.000000e+00 0.000000e+00)) ((9.475546e-20 3.539364e-19 -8.831943e-06) (-1.943509e-21 -1.643376e-20 3.385955e-07) (0.000000e+00 0.000000e+00 0.000000e+00))
0.49          	((-1.702055e-04 3.121528e-02 5.331555e-18) (6.690205e-07 -1.018616e-04 -1.409997e-19) (0.000000e+00 0.000000e+00 0.000000e+00)) ((9.472812e-20 3.539130e-19 1.603094e-05) (-1.861899e-21 -1.647622e-20 6.083703e-08) (0.000000e+00 0.000000e+00 0.000000e+00))
0.5           	((2.432566e-04 3.094808e-02 5.332873e-18) (1.278714e-05 -1.016230e-04 -1.750979e-19) (0.000000e+00 0.000000e+00 0.000000e+00)) ((9.474485e-20 3.539472e-19 -1.705193e-05) (-2.709170e-21 -1.669367e-20 -4.293456e-07) (0.000000e+00 0.000000e+00 0.000000e+00))
