/*--------------------------------*- C++ -*----------------------------------*\
  =========                 |
  \\      /  F ield         | OpenFOAM: The Open Source CFD Toolbox
   \\    /   O peration     | Website:  https://openfoam.org
    \\  /    A nd           | Version:  8
     \\/     M anipulation  |
\*---------------------------------------------------------------------------*/
FoamFile
{
    version     2.0;
    format      ascii;
    class       volScalarField;
    location    "0.49";
    object      alphat;
}
// * * * * * * * * * * * * * * * * * * * * * * * * * * * * * * * * * * * * * //

dimensions      [1 -1 -1 0 0 0 0];

internalField   nonuniform List<scalar> 
15677
(
0.000716705
0.00111916
0.00428326
0.00789666
0.0113238
0.0146584
0.0179901
0.0213835
0.0249245
0.0286429
0.0320216
0.0353394
0.0389672
0.043463
0.0442805
0.043779
0.0414617
0.0388108
0.0360385
0.0333068
0.0307264
0.0286021
0.0268829
0.0252314
0.0236073
0.0219657
0.0203321
0.0187571
0.0172709
0.0158763
0.0144971
0.0130213
0.0116253
0.0104745
0.00950278
0.00102697
0.00861946
0.0223419
0.0372425
0.0499703
0.0586184
0.0641807
0.0670698
0.0687595
0.0698401
0.0690517
0.0663568
0.0645481
0.0632452
0.0632186
0.0619406
0.0592368
0.0556427
0.0521727
0.049328
0.0471958
0.0455249
0.0442216
0.0431507
0.04221
0.0413471
0.0405344
0.0397582
0.0390146
0.038309
0.0376632
0.0370896
0.036543
0.0359948
0.0354621
0.00114477
0.0110594
0.025621
0.0403273
0.0539628
0.0660663
0.0762486
0.0840614
0.0888831
0.0897983
0.0860787
0.0779653
0.0680494
0.0574807
0.0539411
0.0522091
0.0502378
0.0487483
0.0486257
0.0491572
0.0503168
0.0509879
0.0515287
0.0528131
0.0541789
0.0552959
0.0561594
0.056762
0.0571186
0.0572436
0.0572119
0.0570895
0.0569214
0.0567401
0.0565915
0.000915618
0.0064885
0.0152344
0.0241256
0.0325012
0.0400281
0.0464228
0.051272
0.0539761
0.0557261
0.0560247
0.0555314
0.0544347
0.0525032
0.0502222
0.0485634
0.046977
0.0453612
0.0421371
0.0372485
0.0309954
0.0264859
0.0272481
0.0304067
0.0337437
0.0366603
0.0394967
0.0418176
0.0431628
0.0439753
0.0444053
0.0445726
0.0445681
0.0444541
0.044267
0.000612824
0.00448528
0.00967042
0.0150935
0.0206378
0.0261788
0.0314804
0.0363147
0.0402218
0.0423298
0.0436255
0.0431151
0.0412008
0.0393453
0.0378846
0.036371
0.0339827
0.0309125
0.0276802
0.0245482
0.0235535
0.0258175
0.0313418
0.038178
0.0436034
0.0474137
0.0492971
0.0493797
0.0487887
0.0482517
0.0479381
0.0479161
0.0481333
0.0485166
0.0490042
0.000255109
0.00107182
0.00230358
0.00354147
0.00485114
0.00619244
0.00753706
0.00881112
0.00962896
0.0103358
0.0109884
0.011709
0.0125704
0.0137455
0.015239
0.016956
0.0198868
0.0235419
0.0287628
0.0334389
0.037608
0.0405719
0.0430504
0.0460636
0.0491389
0.0510242
0.0518474
0.0524844
0.0530157
0.0534017
0.0537334
0.0540445
0.054334
0.0546091
0.0548865
0.000348774
0.00199245
0.00435751
0.0060477
0.0071545
0.00834415
0.0100981
0.0125423
0.0155938
0.0191658
0.0231647
0.027606
0.0323599
0.0371644
0.0414829
0.0452986
0.0491592
0.0532501
0.0575076
0.0621506
0.0663921
0.0690616
0.0695104
0.0684331
0.0666801
0.0649852
0.0635071
0.0624286
0.061965
0.0621344
0.0627321
0.0635336
0.064358
0.0651002
0.065708
0.000419812
0.00290187
0.00543242
0.00681335
0.00754317
0.00783226
0.00824947
0.00973242
0.0132791
0.0191419
0.0263923
0.0339569
0.0410099
0.0478008
0.0540718
0.0591592
0.0633884
0.0667423
0.0692385
0.0709562
0.0720978
0.0726766
0.0727179
0.072372
0.0717569
0.0708669
0.0698446
0.0688202
0.067897
0.0670903
0.0663931
0.0657984
0.0653034
0.0649092
0.0646054
0.000232932
0.000992243
0.0017599
0.00265428
0.00407031
0.00652058
0.0101279
0.0148759
0.0206425
0.027267
0.0347143
0.0426252
0.0505311
0.0576587
0.0630026
0.0668468
0.0697065
0.0718552
0.0734765
0.0746941
0.075541
0.0760086
0.0761742
0.0760357
0.0756737
0.0753287
0.0750042
0.0746577
0.0742522
0.0738153
0.0733579
0.0729054
0.0724802
0.0721114
0.0718098
0.000203609
0.00151086
0.00404449
0.00747264
0.0116105
0.0163198
0.0215695
0.0273033
0.0334246
0.0397742
0.0461107
0.0522999
0.0580393
0.0631957
0.0672881
0.0703766
0.0727755
0.0746352
0.0760668
0.0771653
0.0779979
0.0785266
0.078772
0.0787107
0.0783432
0.0776883
0.0768733
0.076018
0.0752211
0.0745366
0.0739826
0.073528
0.073137
0.0727815
0.0724539
0.00026226
0.00200842
0.00523324
0.00922478
0.0137839
0.0188537
0.0243818
0.0302941
0.0364902
0.0428388
0.0491847
0.0553421
0.0610635
0.0661504
0.0700451
0.0728566
0.0749173
0.0764258
0.0775378
0.0783138
0.0788696
0.0792125
0.079347
0.0793244
0.0791599
0.0788804
0.0785072
0.0780731
0.0776087
0.0771419
0.0766951
0.0762812
0.0759063
0.0755726
0.0752756
0.000253917
0.00230385
0.0058038
0.0101228
0.0150724
0.0205498
0.0264632
0.0327081
0.0391544
0.0456395
0.0519985
0.0580502
0.0636059
0.0684845
0.072133
0.0746419
0.0763687
0.077526
0.0782842
0.0787912
0.0791082
0.079248
0.0792151
0.0790336
0.078727
0.0783255
0.0778723
0.0773991
0.0769277
0.0764696
0.0760295
0.0756103
0.0752139
0.0748413
0.0744978
0.000268191
0.00229472
0.00591917
0.0104137
0.0155635
0.0212545
0.0273781
0.033816
0.040433
0.0470869
0.0535968
0.0597537
0.0653372
0.0701412
0.0736224
0.0759228
0.0773934
0.0782531
0.078683
0.0788493
0.078824
0.0786678
0.0784372
0.0781551
0.0778304
0.0774673
0.0770739
0.0766601
0.0762377
0.0758182
0.0754108
0.0750223
0.0746575
0.07432
0.0740111
0.000264178
0.0024293
0.00619625
0.0108559
0.0161839
0.0220581
0.0283673
0.0349824
0.0417476
0.0485126
0.0550978
0.0613063
0.0669329
0.0717429
0.0751579
0.077324
0.0785919
0.0791883
0.0793072
0.079109
0.0787254
0.0782442
0.0777423
0.0772307
0.0767087
0.0761825
0.0756558
0.0751363
0.0746314
0.0741479
0.0736911
0.0732653
0.0728728
0.0725145
0.0721904
0.000268529
0.00243121
0.0062521
0.0109763
0.0163734
0.0223186
0.0286999
0.0353924
0.0422537
0.0491356
0.0558511
0.0621782
0.0678958
0.0727645
0.0761779
0.0782831
0.0794348
0.0798643
0.0797721
0.0793265
0.0786696
0.0779169
0.077179
0.0764871
0.0758393
0.0752243
0.0746381
0.0740782
0.0735452
0.0730407
0.0725669
0.0721253
0.0717167
0.0713413
0.0709979
0.000266485
0.00250327
0.00638867
0.0111778
0.0166437
0.0226611
0.0291172
0.0358841
0.0428142
0.049765
0.0565584
0.0629805
0.068792
0.0737099
0.0771348
0.0792162
0.0803052
0.0806292
0.0803854
0.0797448
0.0788525
0.0778604
0.0769047
0.0760214
0.0752093
0.0744621
0.0737717
0.0731312
0.0725356
0.0719818
0.0714677
0.0709921
0.070554
0.0701518
0.0697838
0.000267495
0.00251939
0.00643614
0.0112478
0.0167276
0.0227555
0.029227
0.0360252
0.0430081
0.0500307
0.0569213
0.0634546
0.069363
0.0743944
0.0779064
0.0800285
0.081107
0.0813716
0.0810287
0.0802553
0.0791964
0.0780204
0.0768874
0.0758467
0.074905
0.0740538
0.0732812
0.0725765
0.0719312
0.0713385
0.0707937
0.0702928
0.0698329
0.0694113
0.0690248
0.000266121
0.00256557
0.00651337
0.0113397
0.0168207
0.0228417
0.0293048
0.0361013
0.0430958
0.0501514
0.0571062
0.0637312
0.0697834
0.0749698
0.0786025
0.0807915
0.0818865
0.0821209
0.0817059
0.0808269
0.0796404
0.0783257
0.0770597
0.0758974
0.0748469
0.0739031
0.0730541
0.0722879
0.0715939
0.070963
0.0703881
0.0698633
0.0693839
0.0689459
0.0685454
0.000265694
0.00258046
0.00653508
0.0113572
0.0168264
0.0228313
0.0292791
0.0360683
0.0430699
0.0501441
0.0571519
0.0638594
0.0700155
0.0753241
0.0790709
0.0813439
0.0824865
0.0827294
0.0822862
0.0813481
0.0800784
0.0786676
0.077309
0.0760628
0.0749407
0.0739361
0.0730343
0.0722219
0.0714977
0.0708442
0.0702527
0.0697162
0.0692287
0.068785
0.0683856
0.000264644
0.00261304
0.00658232
0.0113978
0.0168461
0.0228212
0.0292356
0.0359946
0.0429763
0.0500406
0.0570649
0.063818
0.0700531
0.0754707
0.0793319
0.0816992
0.0829076
0.0831823
0.0827377
0.0817699
0.0804494
0.0789767
0.077556
0.0762537
0.0750833
0.0740396
0.0730989
0.0722666
0.0715266
0.0708634
0.0702672
0.0697298
0.0692441
0.0688042
0.0684049
0.00026409
0.00263154
0.00660451
0.0114067
0.0168295
0.0227711
0.0291478
0.0358695
0.0428227
0.0498666
0.056883
0.0636589
0.0699493
0.0754547
0.0794186
0.0818786
0.083159
0.0834769
0.0830448
0.0820626
0.0807078
0.0791907
0.077727
0.0763876
0.0751877
0.0741228
0.0731699
0.0723271
0.0715858
0.070926
0.0703369
0.0698093
0.0693355
0.0689087
0.0685233
0.000263591
0.00266017
0.00664485
0.0114401
0.0168419
0.0227519
0.0290892
0.035767
0.0426796
0.04969
0.0566659
0.0634379
0.0697499
0.075311
0.0793551
0.0818977
0.0832495
0.0836166
0.0832065
0.0822201
0.0808409
0.079289
0.0777908
0.0764227
0.0752017
0.0741238
0.073174
0.0723288
0.071592
0.0709421
0.0703662
0.0698542
0.0693975
0.068989
0.0686226
0.000263336
0.00268465
0.00668077
0.0114718
0.0168572
0.0227407
0.029043
0.0356791
0.0425491
0.0495182
0.0564447
0.0631883
0.0694903
0.0750743
0.0791722
0.081781
0.0831976
0.0836146
0.0832313
0.0822469
0.0808489
0.0792666
0.0777373
0.0763435
0.0751047
0.0740167
0.073066
0.0722344
0.0715005
0.0708637
0.0703037
0.0698096
0.0693722
0.0689837
0.0686433
0.000263229
0.00271382
0.00672694
0.0115203
0.0168963
0.0227601
0.0290329
0.0356304
0.0424544
0.0493781
0.0562477
0.0629314
0.069201
0.0747777
0.0789004
0.0815551
0.0830253
0.0834894
0.0831358
0.0821586
0.0807466
0.0791369
0.0775776
0.0761581
0.0749006
0.073802
0.072848
0.0720209
0.0713034
0.0706757
0.0701302
0.0696542
0.0692362
0.0688679
0.0685484
0.000263257
0.0027425
0.00677502
0.0115757
0.0169491
0.0228005
0.0290512
0.0356159
0.0423964
0.0492722
0.0560881
0.0626952
0.0689132
0.0744517
0.0785695
0.0812472
0.0827567
0.0832621
0.0829392
0.081974
0.0805538
0.0789209
0.0773334
0.0758881
0.074611
0.0734999
0.0725405
0.0717144
0.071003
0.0703893
0.0698589
0.0693971
0.0689962
0.0686466
0.0683426
0.000263391
0.0027732
0.00682905
0.0116426
0.0170198
0.0228661
0.0291014
0.0356395
0.0423807
0.0492086
0.0559722
0.0625037
0.0686417
0.0741179
0.0782049
0.080883
0.0824152
0.0829537
0.0826609
0.0817127
0.0802914
0.0786422
0.0770312
0.0755625
0.0742663
0.0731424
0.0721765
0.0713495
0.0706422
0.0700364
0.0695165
0.069069
0.0686827
0.0683483
0.0680579
0.0002636
0.00280392
0.00688534
0.0117159
0.0171025
0.0229499
0.0291766
0.0356944
0.0424019
0.0491809
0.0558892
0.0623494
0.0683881
0.073794
0.0778279
0.0804845
0.082022
0.0825832
0.0823181
0.081391
0.0799771
0.0783211
0.0766946
0.0752084
0.0738973
0.0727632
0.0717923
0.0709655
0.0702624
0.0696644
0.0691549
0.0687198
0.0683472
0.0680272
0.0677517
0.000263843
0.00283518
0.00694422
0.0117952
0.0171956
0.0230492
0.0292728
0.0357761
0.0424551
0.0491896
0.0558409
0.0622397
0.0681873
0.0734937
0.0774537
0.080069
0.0815945
0.0821665
0.0819245
0.0810214
0.0796232
0.0779714
0.07634
0.0748456
0.0735271
0.0723886
0.0714176
0.0705947
0.0698991
0.0693114
0.0688143
0.068393
0.068035
0.0677301
0.0674697
0.000264093
0.00286604
0.00700362
0.0118771
0.0172944
0.0231581
0.0293832
0.0358769
0.0425328
0.0492276
0.0558203
0.0621498
0.0680219
0.0732109
0.0770905
0.0796489
0.0811457
0.0817157
0.0814901
0.080611
0.0792352
0.0775984
0.075974
0.0744822
0.0731659
0.0720315
0.0710674
0.0702543
0.0695712
0.0689981
0.068517
0.0681127
0.0677723
0.067485
0.0672418
0.000264275
0.00289586
0.0070619
0.011959
0.017395
0.0232716
0.0295017
0.03599
0.0426272
0.0492875
0.0558272
0.0620832
0.0678701
0.0729723
0.0767456
0.0792328
0.0806842
0.0812393
0.0810209
0.0801627
0.0788127
0.0771992
0.075592
0.0741133
0.0728087
0.0716867
0.0707366
0.0699394
0.0692737
0.0687192
0.0682574
0.0678726
0.0675515
0.067283
0.0670579
0.00833286
0.00706817
0.00597912
0.00507619
0.00435704
0.00379528
0.0033465
0.00296119
0.00259602
0.00229219
0.00203316
0.00192303
0.00193024
0.00199917
0.00209934
0.00218865
0.00221744
0.00215068
0.00201381
0.00190076
0.00196116
0.00237287
0.0346996
0.033636
0.0325055
0.0313373
0.0301378
0.0287846
0.0271077
0.025311
0.0235531
0.0221204
0.0208918
0.0195916
0.0193527
0.0201959
0.0218451
0.0237754
0.0258534
0.027697
0.0282126
0.0274043
0.0263467
0.025609
0.056428
0.0562872
0.0562633
0.0563721
0.0566607
0.0571359
0.0576999
0.0581772
0.0585986
0.0594402
0.0614089
0.0646859
0.0684072
0.0711674
0.0722601
0.0714934
0.0690983
0.0656798
0.0624719
0.0610017
0.0619825
0.0649239
0.044056
0.0436451
0.0430788
0.0424117
0.0417084
0.0410521
0.0405791
0.0404929
0.0412109
0.0421502
0.0431341
0.0446923
0.0472969
0.0512899
0.0550906
0.0567391
0.0570568
0.0566159
0.0557955
0.0548248
0.0538655
0.0528958
0.0497485
0.0508265
0.0522294
0.0539503
0.0559682
0.0582838
0.0608446
0.063433
0.0657685
0.0674076
0.06814
0.0680068
0.0673942
0.066553
0.0653493
0.0635079
0.0611845
0.0587913
0.0567621
0.055122
0.0538275
0.0524685
0.0552688
0.0556867
0.0562591
0.0569012
0.0575411
0.0581173
0.0586018
0.0589653
0.0591959
0.059332
0.0594744
0.0595917
0.0594104
0.0589183
0.0576815
0.0558511
0.0536686
0.0515573
0.0497439
0.0483604
0.0473533
0.0465951
0.066296
0.0667123
0.0668723
0.0667831
0.0664917
0.0661202
0.0658717
0.0656855
0.0654681
0.0651616
0.0647448
0.0641384
0.0631916
0.061981
0.0603602
0.0583789
0.0562267
0.0540013
0.0519666
0.0502741
0.0489503
0.0479771
0.0642528
0.0638809
0.063645
0.0635111
0.0634469
0.063315
0.0628443
0.0621803
0.0615031
0.0608673
0.0602108
0.0594573
0.0585477
0.0574616
0.0562697
0.054939
0.0535141
0.0520581
0.0506526
0.0493855
0.0483385
0.0475128
0.0714217
0.0709054
0.0704173
0.0699382
0.0694413
0.0688877
0.0682363
0.067467
0.0665817
0.0655872
0.0644844
0.0632748
0.0619802
0.0606211
0.0592154
0.0577681
0.0563008
0.0548408
0.0534261
0.052101
0.0509097
0.0498866
0.0720204
0.0714172
0.0708188
0.0702247
0.0696338
0.0690435
0.0684369
0.0677845
0.0670607
0.066245
0.0653204
0.0642793
0.0631448
0.0619448
0.0606845
0.0593886
0.0580686
0.0567457
0.0554439
0.0541938
0.0530275
0.0519748
0.0749005
0.0743877
0.073848
0.0732801
0.0726893
0.0720763
0.0714363
0.0707579
0.0700256
0.069221
0.0683253
0.0673277
0.066245
0.0651026
0.0639068
0.0626685
0.0614025
0.0601266
0.058855
0.0576106
0.0564156
0.0552938
0.0741085
0.0736153
0.0731268
0.0726495
0.0721775
0.0717049
0.0712246
0.0707273
0.0701998
0.0696256
0.0689857
0.0682644
0.0674656
0.0666029
0.0656779
0.0646959
0.0636659
0.0625995
0.0615145
0.060422
0.0593419
0.0582949
0.0736837
0.0732828
0.0728663
0.0724411
0.0720123
0.0715829
0.0711528
0.0707185
0.0702728
0.0698048
0.0692996
0.0687436
0.0681358
0.0674815
0.0667769
0.066022
0.0652201
0.0643774
0.0635032
0.0626084
0.061711
0.0608154
0.0718652
0.0714888
0.0711064
0.0707215
0.0703388
0.0699626
0.0695961
0.06924
0.068892
0.0685459
0.0681918
0.0678177
0.067418
0.0669907
0.0665278
0.0660246
0.0654797
0.0648949
0.0642744
0.063625
0.0629552
0.0622745
0.0706351
0.0702106
0.0697778
0.0693411
0.0689066
0.068481
0.0680707
0.0676811
0.0673155
0.0669741
0.0666533
0.066347
0.0660505
0.0657582
0.0654584
0.0651417
0.0648018
0.0644352
0.0640411
0.0636212
0.0631792
0.0627203
0.0693838
0.0689078
0.0684197
0.0679233
0.0674244
0.0669304
0.06645
0.0659915
0.065563
0.0651706
0.0648174
0.0645044
0.0642325
0.0639968
0.0637844
0.0635834
0.0633841
0.0631791
0.0629632
0.0627337
0.0624901
0.0622338
0.068583
0.0680438
0.0674876
0.0669167
0.0663356
0.0657511
0.0651719
0.0646081
0.0640706
0.0635701
0.0631159
0.062717
0.0623834
0.0621149
0.0618999
0.0617264
0.0615831
0.0614601
0.0613488
0.0612431
0.0611386
0.0610329
0.0680712
0.0674792
0.0668663
0.0662329
0.0655816
0.0649172
0.0642469
0.0635801
0.0629283
0.0623043
0.0617215
0.0611956
0.0607465
0.0603817
0.0600933
0.0598717
0.0597063
0.0595867
0.0595031
0.0594471
0.0594118
0.0593917
0.0678904
0.0672615
0.0666086
0.0659305
0.0652279
0.0645029
0.0637605
0.0630078
0.062255
0.0615146
0.0608011
0.0601346
0.059544
0.0590452
0.0586353
0.0583087
0.0580577
0.0578735
0.0577469
0.0576688
0.0576314
0.0576273
0.0679087
0.0672727
0.0666087
0.0659147
0.0651913
0.0644381
0.0636575
0.062854
0.062035
0.0612107
0.0603945
0.0596075
0.0588848
0.0582496
0.057704
0.0572472
0.0568754
0.0565831
0.0563632
0.0562081
0.0561102
0.056062
0.0680422
0.0674188
0.0667681
0.0660872
0.0653812
0.0646349
0.0638541
0.06304
0.0621973
0.0613334
0.0604588
0.0595932
0.0587744
0.05803
0.0573665
0.0567868
0.0562916
0.0558789
0.0555449
0.0552844
0.0550915
0.0549599
0.0681738
0.0675898
0.0669795
0.0663397
0.0656677
0.0649605
0.0642229
0.0634393
0.0626168
0.0617602
0.0608773
0.059985
0.0591204
0.058313
0.0575714
0.056902
0.0563085
0.0557923
0.0553527
0.0549875
0.0546931
0.0544652
0.0682316
0.0676994
0.067146
0.0665662
0.0659562
0.0653118
0.0646303
0.0639116
0.0631541
0.062348
0.0615032
0.060634
0.0597748
0.058955
0.058184
0.0574699
0.0568187
0.0562343
0.0557187
0.0552721
0.0548933
0.05458
0.0681652
0.0677012
0.0672149
0.0667016
0.0661674
0.0656014
0.0650005
0.0643613
0.0636822
0.0629626
0.0621928
0.0613898
0.0605811
0.0597943
0.0590395
0.0583255
0.0576596
0.0570476
0.0564933
0.0559989
0.0555653
0.055192
0.0679828
0.0675797
0.0671626
0.0667277
0.0662719
0.0657878
0.0652722
0.0647266
0.0641423
0.0635189
0.0628477
0.0621366
0.0614095
0.0606901
0.0599873
0.0593103
0.0586667
0.0580634
0.0575056
0.0569969
0.0565398
0.0561353
0.067734
0.0673772
0.0670152
0.066644
0.0662593
0.065856
0.0654291
0.0649746
0.0644876
0.063964
0.0633991
0.0627943
0.0621675
0.0615376
0.0609119
0.0602986
0.0597052
0.059139
0.0586058
0.0581106
0.0576569
0.057247
0.0674597
0.067137
0.0668165
0.0664949
0.0661679
0.065831
0.0654793
0.0651077
0.0647112
0.0642845
0.0638227
0.063325
0.0628038
0.0622732
0.0617381
0.0612049
0.0606802
0.060171
0.0596832
0.0592223
0.0587925
0.0583974
0.067205
0.0669059
0.0666146
0.0663283
0.0660437
0.0657569
0.0654636
0.065159
0.0648379
0.0644951
0.064125
0.0637255
0.0633046
0.0628718
0.0624299
0.061983
0.0615364
0.0610956
0.0606665
0.0602541
0.0598631
0.0594975
0.066997
0.0667182
0.0664495
0.0661889
0.0659342
0.0656828
0.0654312
0.0651756
0.0649114
0.0646338
0.0643376
0.0640199
0.0636853
0.0633397
0.0629841
0.0626204
0.0622521
0.0618832
0.0615185
0.0611625
0.0608194
0.0604935
0.0668358
0.0665829
0.0663384
0.0661017
0.0658718
0.0656472
0.0654255
0.0652042
0.0649798
0.0647484
0.0645059
0.0642493
0.0639816
0.0637063
0.0634227
0.0631311
0.0628333
0.0625318
0.0622298
0.061931
0.0616391
0.0613579
0.0030675
0.00329765
0.00311879
0.00228267
0.00243063
0.00361683
0.0252664
0.0247852
0.0233203
0.0208817
0.0177338
0.0142645
0.0691927
0.0726659
0.0732212
0.0705606
0.0643933
0.0559856
0.05153
0.0495657
0.048041
0.046369
0.0445521
0.0425018
0.0510001
0.0494589
0.0482367
0.0474238
0.0470634
0.0470427
0.0459236
0.045444
0.0452372
0.0452723
0.0455908
0.0461546
0.0472461
0.0468421
0.0467519
0.0469357
0.0473374
0.0479112
0.046881
0.0465394
0.0464844
0.0466828
0.0471071
0.0477181
0.0490364
0.0484429
0.0481436
0.0481317
0.0483948
0.0489125
0.0510456
0.0503128
0.0498185
0.0495861
0.0496277
0.0499353
0.0542761
0.0534075
0.0527225
0.0522495
0.0520125
0.0520267
0.0573145
0.0564292
0.0556766
0.0550804
0.054668
0.054461
0.0599495
0.0591209
0.0583958
0.0577803
0.0572992
0.0569744
0.061587
0.0608966
0.0602725
0.0597238
0.0592701
0.0589294
0.0622081
0.0616837
0.0611817
0.0607357
0.0603571
0.0600589
0.0618868
0.0614844
0.0611079
0.0607689
0.0604772
0.0602399
0.0608139
0.0605039
0.0602175
0.0599602
0.0597378
0.0595554
0.0592464
0.0589901
0.0587574
0.058551
0.0583737
0.0582278
0.0575032
0.0572679
0.0570604
0.0568817
0.0567333
0.0566195
0.0559183
0.0556894
0.0554963
0.0553398
0.0552208
0.0551434
0.0547745
0.0545557
0.0543833
0.0542582
0.0541816
0.0541575
0.0542353
0.0540408
0.0539027
0.0538221
0.0538002
0.0538514
0.0543173
0.0541619
0.05407
0.0540426
0.0540807
0.0542115
0.0549146
0.0548067
0.0547658
0.0547927
0.0548877
0.0550792
0.0558605
0.0557992
0.0558046
0.0558771
0.0560163
0.0562524
0.0569873
0.0569656
0.0570073
0.0571123
0.0572794
0.0575434
0.0581608
0.0581693
0.0582359
0.0583601
0.0585403
0.0588174
0.0592892
0.0593194
0.0594014
0.0595343
0.0597158
0.0599894
0.0603166
0.0603624
0.0604536
0.0605889
0.0607666
0.0610103
0.061214
0.0612709
0.0613664
0.0614991
0.0616672
0.0618749
0.00518682
0.00601414
0.00614555
0.00557612
0.0043299
0.00196598
0.000924591
0.000719327
0.00066535
0.000622119
0.000561338
0.000601563
0.000648917
0.00076622
0.00103542
0.00145741
0.00208372
0.00320174
0.00482044
0.00697964
0.00961742
0.0126572
0.0115728
0.00973143
0.00836054
0.00708626
0.00588199
0.00541792
0.00567064
0.00683434
0.00804263
0.00949495
0.0109659
0.0124337
0.0139396
0.0156002
0.017118
0.0181823
0.0203429
0.0223514
0.0246022
0.0269923
0.0292276
0.0315423
0.0474254
0.0400641
0.0340588
0.0310858
0.0315974
0.035138
0.0409135
0.0471657
0.0533729
0.0592524
0.0644045
0.0683318
0.0702826
0.0711609
0.0707497
0.0702054
0.0701238
0.0703459
0.0703849
0.0700446
0.0692971
0.0680984
0.040786
0.0401816
0.0408477
0.0416564
0.0424863
0.0433601
0.0440001
0.0454699
0.04698
0.0481658
0.0491056
0.0499729
0.0510949
0.0531081
0.0560122
0.0585979
0.0598463
0.0597881
0.0588679
0.057619
0.0564694
0.055651
0.0472537
0.0475246
0.0476306
0.0479992
0.0489631
0.0503472
0.0521192
0.0534438
0.0549245
0.0568712
0.0595201
0.0629458
0.0667956
0.0704912
0.0739878
0.0772049
0.0795477
0.0808473
0.0812847
0.0808913
0.0797212
0.0778456
0.0468361
0.047516
0.0482793
0.048902
0.0492945
0.0497838
0.050761
0.0521652
0.054023
0.0563296
0.0589975
0.0618232
0.0644628
0.0666113
0.0676876
0.0679578
0.0679502
0.0677491
0.0674825
0.0672892
0.0672785
0.067512
0.048591
0.0493319
0.0501948
0.0512156
0.0524586
0.0539964
0.0558461
0.0579689
0.060292
0.0627077
0.0650778
0.0672403
0.0690269
0.070383
0.0713786
0.0721656
0.0728626
0.073538
0.0742266
0.0749258
0.0756013
0.0762049
0.0484466
0.0492616
0.0502299
0.0513686
0.0526904
0.0541934
0.0558543
0.0576302
0.0594616
0.0612775
0.0630116
0.0646011
0.0659856
0.0671658
0.0681866
0.0690911
0.0699089
0.0706548
0.0713305
0.0719262
0.0724215
0.0727937
0.0496344
0.0504861
0.0515143
0.0527216
0.0540992
0.0556292
0.0572829
0.0590219
0.0608027
0.0625836
0.0643289
0.0659914
0.0675178
0.0688859
0.0701055
0.0711819
0.072115
0.0729014
0.0735574
0.0741385
0.0746179
0.0749725
0.0505046
0.0512285
0.0521143
0.0531587
0.0543477
0.0556628
0.0570797
0.0585707
0.0601065
0.0616597
0.0632129
0.064729
0.0661494
0.0674433
0.0686077
0.0696407
0.0705414
0.0713128
0.0719384
0.0723561
0.0726079
0.072745
0.0523571
0.0528818
0.0535645
0.0543953
0.0553745
0.0564858
0.0577095
0.0590242
0.0604058
0.0618285
0.0632652
0.0646752
0.0659916
0.067174
0.0682124
0.0690895
0.0698074
0.0703661
0.0707699
0.0710305
0.0711596
0.0711719
0.0545743
0.0548973
0.0553573
0.0559542
0.0566812
0.0575229
0.0584798
0.059525
0.0606348
0.0617809
0.062931
0.0640419
0.0650498
0.0659178
0.0666408
0.06719
0.0675805
0.0678185
0.0679136
0.0678778
0.0677329
0.0674986
0.0569384
0.0571046
0.0573831
0.0577751
0.0582777
0.0588838
0.0595739
0.0603404
0.0611576
0.0619967
0.0628258
0.0636042
0.0642791
0.0648335
0.0652351
0.0654929
0.0656206
0.0656336
0.0655513
0.0653949
0.0651878
0.0649538
0.0588146
0.058865
0.059
0.05922
0.0595214
0.0598969
0.0603345
0.0608169
0.0613217
0.0618226
0.0622936
0.0627006
0.0630094
0.0632085
0.0633015
0.0633015
0.0632274
0.0631018
0.0629488
0.0627922
0.0626546
0.0625562
0.0599083
0.0598671
0.059885
0.0599604
0.060089
0.0602626
0.0604697
0.0606953
0.0609218
0.0611304
0.0613025
0.0614213
0.0614772
0.0614768
0.0614365
0.0613774
0.0613226
0.0612956
0.0613175
0.0614063
0.061575
0.0618315
0.0600693
0.0599418
0.0598506
0.0597932
0.0597653
0.0597598
0.0597684
0.0597816
0.0597901
0.0597869
0.0597685
0.0597381
0.0597085
0.0596991
0.0597312
0.0598253
0.0599991
0.0602655
0.0606322
0.0611005
0.0616665
0.0623209
0.0593647
0.0591514
0.058964
0.0587972
0.0586492
0.0585176
0.058401
0.0582994
0.0582162
0.0581591
0.0581417
0.0581842
0.0583085
0.0585299
0.0588606
0.059307
0.0598691
0.0605405
0.0613094
0.0621602
0.063074
0.0640307
0.0580225
0.0577551
0.0575113
0.0572914
0.0570992
0.0569398
0.0568209
0.0567532
0.0567516
0.0568349
0.0570261
0.0573486
0.0578119
0.0584086
0.0591307
0.0599641
0.0608899
0.0618858
0.0629286
0.0639955
0.0650652
0.0661188
0.0564265
0.056165
0.0559405
0.0557608
0.0556359
0.0555777
0.0556009
0.0557222
0.0559603
0.0563346
0.0568638
0.0575587
0.058401
0.0593556
0.0603971
0.0614981
0.0626313
0.0637712
0.0648952
0.0659848
0.067025
0.0680048
0.0550064
0.0548322
0.0547209
0.0546843
0.0547357
0.0548893
0.0551601
0.0555624
0.056109
0.0568096
0.0576691
0.0586784
0.0597929
0.0609603
0.0621496
0.0633328
0.0644858
0.0655896
0.0666297
0.0675964
0.0684839
0.0692897
0.054119
0.0541061
0.0541814
0.0543567
0.0546437
0.0550531
0.0555934
0.0562704
0.0570859
0.0580364
0.0591125
0.0602898
0.0615095
0.062717
0.0638862
0.0649966
0.0660334
0.0669868
0.0678517
0.0686267
0.0693133
0.0699152
0.0539357
0.0541188
0.0544048
0.0548015
0.0553151
0.0559486
0.0567023
0.0575722
0.05855
0.0596221
0.0607705
0.0619634
0.063141
0.0642562
0.0652923
0.0662386
0.0670894
0.0678434
0.0685025
0.0690712
0.0695555
0.0699628
0.054416
0.054784
0.055255
0.0558309
0.0565104
0.0572903
0.0581637
0.0591196
0.0601433
0.0612165
0.0623179
0.0634159
0.0644569
0.0654057
0.0662547
0.0670017
0.0676482
0.0681985
0.0686593
0.0690384
0.0693445
0.0695866
0.055382
0.0558927
0.056492
0.0571775
0.0579446
0.0587852
0.059687
0.0606355
0.0616139
0.0626031
0.0635827
0.0645244
0.0653847
0.06614
0.06679
0.0673387
0.0677922
0.0681587
0.0684474
0.068668
0.0688302
0.0689436
0.0566203
0.0572142
0.0578771
0.0586063
0.0593914
0.060221
0.0610817
0.0619584
0.0628346
0.0636926
0.0645147
0.0652776
0.065948
0.0665124
0.0669762
0.0673469
0.0676341
0.0678481
0.0679993
0.0680982
0.068155
0.0681789
0.0579415
0.0585663
0.0592417
0.0599594
0.060709
0.0614787
0.0622552
0.0630241
0.0637706
0.0644795
0.0651361
0.0657223
0.0662146
0.0666078
0.0669108
0.0671341
0.0672888
0.0673863
0.0674378
0.0674535
0.0674434
0.067416
0.059218
0.0598326
0.0604788
0.0611479
0.0618296
0.0625123
0.0631837
0.063831
0.0644413
0.0650024
0.0655027
0.0659294
0.0662674
0.0665182
0.0666929
0.0668036
0.0668624
0.0668809
0.0668698
0.066839
0.066797
0.0667515
0.0603708
0.0609465
0.0615392
0.0621397
0.0627378
0.0633231
0.0638845
0.0644112
0.0648928
0.0653197
0.0656839
0.065977
0.0661913
0.066333
0.0664147
0.0664487
0.0664472
0.0664212
0.0663803
0.066333
0.0662864
0.0662464
0.0613607
0.0618849
0.0624134
0.0629379
0.0634493
0.0639384
0.064396
0.0648134
0.0651827
0.0654972
0.0657519
0.0659424
0.0660665
0.0661333
0.0661556
0.0661453
0.0661133
0.0660695
0.066022
0.0659775
0.0659413
0.0659176
0.062188
0.0626547
0.0631168
0.0635666
0.0639964
0.0643988
0.0647665
0.0650929
0.0653725
0.0656011
0.065776
0.0658956
0.0659613
0.0659831
0.0659728
0.0659412
0.0658978
0.0658505
0.065806
0.0657693
0.0657441
0.0657333
0.0154636
0.0177957
0.0202437
0.0226985
0.0250737
0.027297
0.0293219
0.0311372
0.0328676
0.0345485
0.0362095
0.0379471
0.0399089
0.0421977
0.0446537
0.047015
0.0489722
0.0505075
0.0512641
0.0510707
0.0504711
0.046458
0.0413932
0.0362083
0.0304034
0.0249767
0.0206513
0.0172087
0.014432
0.011846
0.00931193
0.00677376
0.00399412
0.00109659
0.000695408
0.0334467
0.0350708
0.0368077
0.0387033
0.0407888
0.0430945
0.0456585
0.0484624
0.0511841
0.0537639
0.0563029
0.058811
0.060811
0.0619888
0.0628925
0.063784
0.0644498
0.0645112
0.0618311
0.0598627
0.0591451
0.0613479
0.0651905
0.0686206
0.0704082
0.0690061
0.0676218
0.0664541
0.064024
0.0584184
0.0488284
0.035583
0.021002
0.00801074
0.000995096
0.0667728
0.0657601
0.0649325
0.0645295
0.0648696
0.0662643
0.0688072
0.0721823
0.0753806
0.0793845
0.0817748
0.082094
0.0799349
0.0755201
0.0693812
0.0627559
0.0562582
0.050227
0.0493597
0.0495649
0.0535773
0.064035
0.0758277
0.0860437
0.0917496
0.0923898
0.0887655
0.0820772
0.0731121
0.0623227
0.0501239
0.0367815
0.0228181
0.00958049
0.00104367
0.055209
0.0548082
0.0545729
0.0544161
0.0542845
0.054143
0.0540054
0.0537416
0.0532163
0.052491
0.0516819
0.0506838
0.0483756
0.0443941
0.0368442
0.031495
0.0269797
0.0290539
0.0347241
0.03971
0.0446917
0.0492496
0.0533348
0.0560985
0.0577872
0.05754
0.0564233
0.0527183
0.0472612
0.0403705
0.0324427
0.0238059
0.0147723
0.00615187
0.000851039
0.0757791
0.0739426
0.0718382
0.069591
0.0674126
0.0655176
0.0639445
0.0624903
0.0608464
0.058744
0.0560996
0.0529938
0.0495791
0.0457294
0.0405235
0.0345916
0.0288672
0.0235008
0.0213413
0.0220231
0.0250832
0.0303341
0.0361346
0.0401632
0.0418525
0.041658
0.0399154
0.0363971
0.0318591
0.0266449
0.0210155
0.0153126
0.00978274
0.00449376
0.000602006
0.0677719
0.0679915
0.0681965
0.0682976
0.0681412
0.0676352
0.0666691
0.0651206
0.0628901
0.0599783
0.0565534
0.0528835
0.0489305
0.0446736
0.0402725
0.0358446
0.0318056
0.0281215
0.0249114
0.0217043
0.0181509
0.0151586
0.0127429
0.0113333
0.0107775
0.0104665
0.00976837
0.00928029
0.00812454
0.00672715
0.0052678
0.0038078
0.00239639
0.00106104
0.000271617
0.0765662
0.0767839
0.0769699
0.0771515
0.0771697
0.0769038
0.0762379
0.0750703
0.0733534
0.0711626
0.0687639
0.0664993
0.0646873
0.0634866
0.0627582
0.0622762
0.0618151
0.0610793
0.0594832
0.0563862
0.0518083
0.0459435
0.0398362
0.0346249
0.0299004
0.0255628
0.021643
0.0181144
0.0148803
0.0118892
0.00906451
0.0063525
0.00377278
0.00150082
0.000252412
0.0729967
0.0731441
0.0732305
0.0731473
0.0729916
0.0727418
0.0723828
0.0719109
0.0713324
0.0706492
0.0698199
0.0689256
0.0679141
0.0668476
0.0657145
0.0648179
0.0640411
0.0632734
0.0623546
0.0610808
0.0592328
0.0565657
0.0528712
0.048407
0.043421
0.0380487
0.0326443
0.0272845
0.0221048
0.0172106
0.0127034
0.00865026
0.00509339
0.00210499
0.000216782
0.0751681
0.0752902
0.0753719
0.0753979
0.0753529
0.075219
0.0749761
0.0746013
0.0740626
0.073337
0.0723959
0.0711435
0.0697315
0.0683653
0.0672958
0.0665779
0.0662239
0.0659922
0.0656368
0.0649264
0.063608
0.0614006
0.058068
0.0539135
0.0490554
0.0436508
0.0378974
0.0320032
0.0261281
0.0204265
0.0150379
0.010087
0.00571111
0.00217651
0.000282416
0.0727925
0.072839
0.0728446
0.0727925
0.0726655
0.0724446
0.072111
0.0716492
0.0710539
0.07034
0.0695632
0.0688401
0.0683507
0.0681932
0.0682395
0.0683641
0.0685093
0.0685028
0.068209
0.0675046
0.0662206
0.0640147
0.0606082
0.0564069
0.0514837
0.0459711
0.0400621
0.0339524
0.0278336
0.0218718
0.0162218
0.0110242
0.00641445
0.00259474
0.000250532
0.0711498
0.0711631
0.0711401
0.0710696
0.0709391
0.0707366
0.0704525
0.0700833
0.0696374
0.0691415
0.0686477
0.0682318
0.0679807
0.0680175
0.0684159
0.069048
0.0696769
0.0701212
0.0701838
0.0697117
0.0685403
0.0663351
0.0628225
0.0583336
0.0531238
0.0473919
0.0412831
0.0349775
0.0286675
0.0225003
0.0166298
0.0112043
0.00638719
0.00246371
0.00027584
0.0673116
0.067229