/*--------------------------------*- C++ -*----------------------------------*\
  =========                 |
  \\      /  F ield         | OpenFOAM: The Open Source CFD Toolbox
   \\    /   O peration     | Website:  https://openfoam.org
    \\  /    A nd           | Version:  8
     \\/     M anipulation  |
\*---------------------------------------------------------------------------*/
FoamFile
{
    version     2.0;
    format      ascii;
    class       volScalarField;
    location    "0.49";
    object      nut;
}
// * * * * * * * * * * * * * * * * * * * * * * * * * * * * * * * * * * * * * //

dimensions      [0 2 -1 0 0 0 0];

internalField   nonuniform List<scalar> 
15677
(
0.000550099
0.000859
0.00328844
0.00606395
0.00869792
0.0112625
0.0138266
0.0164403
0.0191699
0.0220393
0.0246524
0.0272247
0.0300418
0.0335288
0.0341692
0.0337857
0.0319979
0.0299535
0.0278159
0.0257083
0.0237173
0.0220786
0.0207521
0.0194778
0.0182244
0.0169574
0.0156965
0.0144807
0.0133335
0.0122568
0.0111919
0.0100523
0.00897437
0.00808559
0.00733514
0.000940767
0.00789995
0.0204907
0.034184
0.0459016
0.0538837
0.0590378
0.0617416
0.0633497
0.0643976
0.0637045
0.0612082
0.0594846
0.0582054
0.058131
0.0569452
0.054461
0.0511527
0.0479585
0.045346
0.0433946
0.0418736
0.0406925
0.0397253
0.0388779
0.0381004
0.0373671
0.0366653
0.0359915
0.0353508
0.0347633
0.0342409
0.0337422
0.0332408
0.0327535
0.00093047
0.00898731
0.0208198
0.0327736
0.0438673
0.0537336
0.0620591
0.0684754
0.0724655
0.0732597
0.0702359
0.0636097
0.0554656
0.0467721
0.0438375
0.0424261
0.0408297
0.0396063
0.0394796
0.0398615
0.0407314
0.0412052
0.0415861
0.0425821
0.0436544
0.0445336
0.0452134
0.0456863
0.0459633
0.0460553
0.0460224
0.0459174
0.0457767
0.0456262
0.045502
0.00081164
0.0057499
0.0134975
0.0213715
0.0287873
0.0354512
0.0411141
0.0454124
0.0478186
0.049385
0.0496633
0.0492211
0.0482346
0.0465107
0.0444851
0.043022
0.0416449
0.0402384
0.0373858
0.0330453
0.0274935
0.0234938
0.0241733
0.0269826
0.0299523
0.0325505
0.0350793
0.0371518
0.0383586
0.0390931
0.0394884
0.0396496
0.0396574
0.0395673
0.0394114
0.000511727
0.00374444
0.0080713
0.0125947
0.0172165
0.021832
0.0262437
0.0302608
0.033501
0.0352405
0.0363026
0.0358619
0.0342596
0.0327101
0.031492
0.0302347
0.0282543
0.0257114
0.0230288
0.0204247
0.0195929
0.0214719
0.026063
0.0317431
0.0362475
0.0394075
0.0409654
0.0410267
0.0405288
0.0400768
0.0398115
0.0397894
0.0399671
0.0402835
0.0406868
0.000221107
0.000928936
0.00199643
0.00306933
0.00420465
0.00536774
0.00653433
0.00764055
0.00835194
0.00896767
0.00953651
0.0101647
0.0109159
0.0119399
0.0132402
0.0147358
0.0172877
0.0204705
0.0250165
0.0290903
0.0327234
0.0353078
0.0374698
0.0400982
0.0427824
0.0444321
0.0451571
0.0457191
0.0461879
0.0465286
0.0468201
0.0470919
0.0473435
0.0475824
0.0478229
0.000293835
0.0016787
0.00367163
0.00509615
0.00602915
0.00703185
0.00850974
0.0105688
0.0131387
0.0161459
0.0195113
0.0232476
0.0272449
0.0312837
0.0349139
0.0381233
0.0413729
0.0448193
0.0484089
0.052324
0.0559009
0.0581523
0.0585313
0.057623
0.0561433
0.0547119
0.0534633
0.0525512
0.0521568
0.0522953
0.0527938
0.0534636
0.0541522
0.0547715
0.0552788
0.000361623
0.00249989
0.00468021
0.00587025
0.00649942
0.00674884
0.00710831
0.00838554
0.0114401
0.0164887
0.022731
0.0292429
0.0353144
0.0411604
0.0465602
0.0509421
0.054587
0.0574796
0.0596343
0.0611201
0.0621109
0.0626173
0.0626596
0.062366
0.0618381
0.0610722
0.0601914
0.0593063
0.0585082
0.0578108
0.0572079
0.0566933
0.0562647
0.0559231
0.0556594
0.00019764
0.000841737
0.0014926
0.00225075
0.00345116
0.0055285
0.00858709
0.0126134
0.017504
0.0231231
0.0294414
0.0361543
0.0428641
0.0489146
0.0534514
0.0567154
0.0591431
0.060966
0.0623396
0.0633691
0.0640827
0.0644726
0.0646051
0.0644795
0.0641643
0.0638638
0.0635813
0.0632842
0.0629368
0.0625627
0.0621723
0.0617872
0.0614259
0.0611128
0.0608573
0.000174408
0.00129416
0.0034644
0.00640089
0.00994537
0.0139794
0.0184764
0.023388
0.0286313
0.0340696
0.0394962
0.0447961
0.0497111
0.0541273
0.0576333
0.0602803
0.0623377
0.0639339
0.0651644
0.06611
0.0668278
0.0672853
0.0674997
0.0674503
0.0671377
0.0665764
0.0658761
0.0651395
0.0644533
0.0638637
0.0633861
0.0629937
0.0626558
0.0623485
0.0620649
0.000223217
0.00170942
0.00445413
0.00785143
0.0117319
0.016047
0.0207524
0.0257851
0.0310599
0.036465
0.0418684
0.0471118
0.0519844
0.0563171
0.0596341
0.0620283
0.0637826
0.0650658
0.0660102
0.0666679
0.0671378
0.0674255
0.0675356
0.067512
0.0673671
0.0671252
0.0668067
0.0664358
0.0660392
0.0656408
0.0652597
0.0649066
0.0645869
0.0643022
0.0640495
0.000216977
0.00196866
0.00495932
0.00864978
0.012879
0.017559
0.0226114
0.0279469
0.0334543
0.0389945
0.044427
0.0495968
0.0543431
0.0585111
0.0616289
0.0637736
0.0652506
0.0662417
0.0668923
0.0673285
0.0676023
0.067725
0.0676996
0.0675466
0.0672868
0.066944
0.0665543
0.0661481
0.0657437
0.0653503
0.0649723
0.0646121
0.0642715
0.0639515
0.063656
0.000228588
0.00195586
0.00504509
0.00887586
0.0132652
0.0181158
0.0233353
0.0288227
0.034463
0.040135
0.0456845
0.0509335
0.055694
0.0597902
0.0627584
0.0647198
0.0659735
0.0667063
0.0670725
0.0672139
0.0671918
0.0670577
0.06686
0.0666184
0.0663397
0.0660303
0.0656949
0.065342
0.0649817
0.064624
0.0642768
0.0639458
0.0636351
0.0633474
0.0630843
0.000225468
0.00207331
0.00528822
0.00926493
0.0138121
0.0188253
0.0242098
0.0298553
0.0356288
0.0414022
0.047022
0.0523201
0.0571216
0.0612263
0.0641412
0.0659905
0.0670737
0.0675842
0.0676876
0.0675207
0.0671958
0.0667878
0.0663617
0.065927
0.0654837
0.0650346
0.0645851
0.0641417
0.0637105
0.0632974
0.0629071
0.062543
0.0622073
0.061901
0.061624
0.000228956
0.0020729
0.00533066
0.00935861
0.0139603
0.0190293
0.0244703
0.0301767
0.0360271
0.0418951
0.0476216
0.0530171
0.057893
0.0620453
0.0649565
0.0667522
0.0677348
0.0681018
0.0680239
0.0676448
0.0670856
0.0664446
0.0658163
0.065227
0.0646747
0.0641517
0.0636525
0.0631756
0.0627215
0.0622917
0.061888
0.0615116
0.0611633
0.0608433
0.0605512
0.000227293
0.0021351
0.00544902
0.00953373
0.0141957
0.019328
0.0248347
0.0306064
0.0365174
0.042446
0.0482402
0.0537177
0.0586744
0.062869
0.0657905
0.0675664
0.0684961
0.0687736
0.0685673
0.0680228
0.0672639
0.06642
0.065607
0.0648556
0.0641646
0.0635283
0.0629403
0.0623947
0.0618871
0.061415
0.0609767
0.060571
0.0601971
0.059854
0.0595404
0.000228061
0.00214797
0.00548729
0.00958957
0.0142616
0.0194009
0.0249186
0.0307148
0.0366686
0.0426563
0.0485316
0.0541024
0.0591404
0.0634308
0.0664256
0.0682355
0.0691558
0.0693821
0.0690907
0.0684324
0.067531
0.0665298
0.0655653
0.0646793
0.0638778
0.0631532
0.0624954
0.0618954
0.0613458
0.060841
0.0603769
0.0599502
0.0595583
0.0591989
0.0588701
0.000226899
0.00218744
0.00555337
0.00966831
0.0143415
0.0194751
0.0249857
0.0307806
0.0367443
0.04276
0.04869
0.0543387
0.0594989
0.0639211
0.0670187
0.0688855
0.0698196
0.0700204
0.0696675
0.0689195
0.0679096
0.0667905
0.0657132
0.0647237
0.0638296
0.0630262
0.0623034
0.061651
0.06106
0.0605226
0.0600328
0.0595856
0.0591771
0.0588037
0.0584627
0.000226486
0.00219966
0.00557068
0.0096812
0.0143433
0.0194622
0.0249586
0.0307463
0.0367149
0.0427456
0.0487197
0.0544379
0.0596861
0.0642119
0.0674062
0.0693441
0.0703186
0.0705262
0.0701491
0.0693504
0.0682692
0.067068
0.0659111
0.0648503
0.0638951
0.0630399
0.0622722
0.0615806
0.0609639
0.0604075
0.0599038
0.0594469
0.0590315
0.0586536
0.0583136
0.000225578
0.00222729
0.00561061
0.00971527
0.0143593
0.0194524
0.0249201
0.0306816
0.0366329
0.0426547
0.0486424
0.054399
0.0597139
0.0643321
0.0676235
0.0696416
0.0706719
0.0709065
0.070528
0.0697039
0.0685794
0.0673254
0.0661158
0.065007
0.0640107
0.0631223
0.0623214
0.0616129
0.0609828
0.0604181
0.0599105
0.0594528
0.0590391
0.0586643
0.0583243
0.000225077
0.00224278
0.00562881
0.00972164
0.0143434
0.0194073
0.0248422
0.0305712
0.0364975
0.0425012
0.0484816
0.054257
0.0596186
0.0643112
0.0676898
0.0697866
0.070878
0.0711492
0.0707813
0.0699447
0.0687907
0.0674987
0.0662522
0.0651117
0.0640902
0.0631836
0.0623724
0.0616548
0.0610238
0.060462
0.0599605
0.0595113
0.0591077
0.0587443
0.0584161
0.000224634
0.002267
0.00566277
0.0097493
0.0143529
0.0193895
0.0247904
0.0304816
0.0363729
0.0423476
0.0482929
0.0540645
0.0594441
0.0641836
0.0676303
0.0697972
0.0709493
0.0712623
0.0709129
0.0700726
0.0688977
0.0675759
0.0662999
0.0651349
0.0640954
0.0631776
0.062369
0.0616494
0.0610222
0.0604689
0.0599786
0.0595427
0.0591538
0.0588059
0.0584938
0.000224396
0.00228766
0.00569287
0.00977545
0.0143646
0.0193783
0.0247489
0.030404
0.0362585
0.0421975
0.0481003
0.0538473
0.0592179
0.0639766
0.0674689
0.0696921
0.0708993
0.0712547
0.0709281
0.0700893
0.0688983
0.0675504
0.0662478
0.0650608
0.0640058
0.0630794
0.06227
0.0615619
0.0609372
0.060395
0.0599182
0.0594976
0.0591252
0.0587944
0.0585044
0.000224289
0.00231236
0.00573181
0.00981608
0.014397
0.0193934
0.0247386
0.0303604
0.0361753
0.0420753
0.0479292
0.0536247
0.0589674
0.0637196
0.0672327
0.0694949
0.0707477
0.0711431
0.0708418
0.0700091
0.0688061
0.0674347
0.0661065
0.0648974
0.0638265
0.0628909
0.0620786
0.0613743
0.0607634
0.060229
0.0597645
0.0593593
0.0590035
0.0586899
0.0584176
0.000224297
0.00233663
0.00577239
0.00986263
0.0144409
0.0194266
0.0247525
0.0303461
0.0361235
0.0419823
0.0477901
0.05342
0.0587184
0.0634379
0.0669466
0.0692284
0.0705145
0.0709451
0.0706699
0.0698475
0.0686374
0.0672462
0.0658939
0.0646627
0.0635749
0.0626286
0.0618115
0.061108
0.0605022
0.0599797
0.0595282
0.0591349
0.0587936
0.0584959
0.0582368
0.000224399
0.00236265
0.00581808
0.00991904
0.0145004
0.0194813
0.0247939
0.0303644
0.0361082
0.0419258
0.0476887
0.053254
0.0584839
0.06315
0.0666324
0.0689144
0.0702199
0.0706787
0.0704291
0.0696212
0.0684101
0.067005
0.0656326
0.0643814
0.0632773
0.0623199
0.0614972
0.060793
0.0601905
0.0596746
0.0592319
0.0588509
0.058522
0.0582372
0.0579897
0.000224565
0.00238869
0.00586572
0.00998097
0.0145701
0.0195517
0.0248566
0.0304097
0.0361243
0.0419001
0.0476156
0.0531199
0.058265
0.062871
0.0663082
0.0685717
0.0698817
0.0703598
0.0701339
0.069344
0.0681393
0.0667284
0.0653426
0.0640765
0.0629596
0.0619935
0.0611665
0.0604622
0.0598634
0.059354
0.0589201
0.0585496
0.0582323
0.0579597
0.0577249
0.000224761
0.00241521
0.00591559
0.0100481
0.0146487
0.0196354
0.0249375
0.0304779
0.0361681
0.0419056
0.0475724
0.0530241
0.0580914
0.0626126
0.0659865
0.0682149
0.0695147
0.0700021
0.069796
0.0690265
0.0678352
0.0664279
0.065038
0.0637648
0.0626415
0.0616717
0.0608445
0.0601434
0.0595508
0.0590502
0.0586268
0.0582679
0.057963
0.0577033
0.0574814
0.000224963
0.00244139
0.00596594
0.0101174
0.0147322
0.0197273
0.0250305
0.0305625
0.0362327
0.0419363
0.047553
0.0529454
0.0579483
0.0623693
0.0656748
0.0678546
0.0691299
0.0696157
0.0694235
0.0686746
0.0675025
0.066108
0.064724
0.0634531
0.0623316
0.0613652
0.0605438
0.0598511
0.0592691
0.0587808
0.0583709
0.0580265
0.0577364
0.0574916
0.0572844
0.00022511
0.0024667
0.00601536
0.0101868
0.0148174
0.0198233
0.0251305
0.0306577
0.0363119
0.0419859
0.0475572
0.0528869
0.057817
0.062164
0.0653788
0.0674979
0.0687347
0.0692078
0.0690219
0.0682908
0.0671408
0.0657661
0.0643968
0.063137
0.0620255
0.0610696
0.0602601
0.0595808
0.0590136
0.0585411
0.0581476
0.0578198
0.0575461
0.0573173
0.0571256
0.00643074
0.00545191
0.00460968
0.00391143
0.00335538
0.00292095
0.00257387
0.00227593
0.00199388
0.00175928
0.00155942
0.00147401
0.00147874
0.0015309
0.00160701
0.00167473
0.00169609
0.00164421
0.00153876
0.00145125
0.001496
0.00180764
0.0320543
0.0310835
0.0300514
0.0289823
0.0278828
0.0266399
0.0250958
0.0234388
0.0218163
0.0204942
0.0193615
0.0181639
0.0179528
0.0187488
0.0203003
0.022124
0.0240899
0.0258411
0.0263532
0.0256229
0.0246497
0.0239628
0.0453692
0.0452485
0.0452184
0.0452934
0.0455109
0.0458757
0.0463089
0.0466691
0.0469803
0.0476224
0.0491619
0.0517442
0.0546841
0.0568645
0.0577268
0.0571174
0.0552196
0.0525126
0.0499795
0.0488451
0.0496744
0.0520637
0.0392304
0.038879
0.0383934
0.0378189
0.0372134
0.0366499
0.0362484
0.0361898
0.0368473
0.0376979
0.0385861
0.039982
0.0423012
0.0458518
0.0492226
0.0506658
0.0509265
0.0505208
0.0497864
0.0489231
0.0480714
0.0472075
0.0413065
0.0422061
0.0433748
0.0448087
0.0464916
0.048425
0.0505644
0.0527281
0.0546831
0.0560607
0.0566712
0.056542
0.0559937
0.05524
0.05418
0.0525963
0.0506272
0.0486171
0.0469238
0.0455631
0.044502
0.0434043
0.0481491
0.0485092
0.0490042
0.0495588
0.0501114
0.0506092
0.0510286
0.0513432
0.0515416
0.051656
0.0517733
0.0518654
0.0516935
0.0512463
0.0501458
0.0485268
0.0466018
0.0447398
0.0431381
0.0419121
0.0410129
0.04033
0.0557707
0.0561218
0.0562546
0.0561777
0.055932
0.0556206
0.0554159
0.0552685
0.0551
0.0548606
0.0545314
0.0540445
0.053271
0.0522748
0.0509316
0.0492818
0.0474854
0.045625
0.0439228
0.0425068
0.0414004
0.0405898
0.055348
0.055017
0.0548033
0.0546763
0.054608
0.05448
0.0540586
0.0534699
0.0528694
0.0523043
0.0517213
0.0510549
0.0502557
0.0493068
0.0482691
0.0471142
0.0458799
0.0446202
0.0434048
0.0423095
0.0414041
0.040689
0.0605348
0.0601047
0.0596982
0.0593
0.0588874
0.0584276
0.0578848
0.0572432
0.0565036
0.0556717
0.0547484
0.0537347
0.0526481
0.0515057
0.0503228
0.049103
0.0478649
0.0466319
0.0454367
0.044317
0.0433109
0.0424483
0.0616845
0.0611572
0.0606339
0.0601136
0.0595956
0.0590777
0.0585455
0.0579742
0.0573419
0.0566315
0.0558287
0.0549276
0.0539483
0.0529148
0.0518312
0.0507185
0.0495858
0.0484515
0.0473362
0.0462658
0.0452674
0.0443666
0.0637344
0.0633033
0.0628491
0.0623708
0.0618732
0.0613568
0.0608173
0.0602452
0.059627
0.0589471
0.0581895
0.0573449
0.0564276
0.055459
0.0544447
0.053394
0.0523194
0.0512356
0.0501551
0.0490976
0.0480823
0.0471297
0.0633165
0.0628887
0.0624647
0.06205
0.0616397
0.0612287
0.0608112
0.0603791
0.0599213
0.0594241
0.0588712
0.0582495
0.0575626
0.0568222
0.0560295
0.055189
0.0543082
0.053397
0.0524703
0.0515374
0.0506154
0.0497221
0.0628063
0.0624673
0.0621145
0.0617539
0.0613903
0.0610259
0.0606608
0.060292
0.0599132
0.0595152
0.0590855
0.0586122
0.0580945
0.057537
0.0569367
0.0562935
0.0556102
0.0548924
0.0541476
0.0533854
0.0526212
0.0518585
0.0613428
0.061019
0.0606896
0.0603579
0.0600279
0.0597033
0.059387
0.0590795
0.058779
0.0584802
0.0581747
0.0578524
0.0575084
0.0571414
0.0567443
0.0563132
0.0558469
0.0553468
0.0548167
0.0542621
0.0536904
0.0531095
0.0602418
0.0598819
0.059514
0.0591425
0.0587726
0.0584101
0.0580605
0.0577282
0.0574161
0.0571244
0.0568501
0.0565879
0.0563341
0.0560839
0.0558272
0.0555562
0.0552655
0.0549522
0.0546155
0.054257
0.0538797
0.0534877
0.0591972
0.0587912
0.0583743
0.0579499
0.0575234
0.057101
0.0566899
0.0562975
0.0559305
0.0555942
0.0552912
0.0550226
0.054789
0.0545863
0.0544036
0.0542308
0.0540595
0.0538835
0.0536984
0.0535018
0.0532932
0.0530734
0.0584931
0.0580352
0.0575621
0.0570761
0.0565813
0.0560834
0.0555897
0.055109
0.0546505
0.0542232
0.0538353
0.0534943
0.0532089
0.0529789
0.0527945
0.0526456
0.0525224
0.0524164
0.0523206
0.0522296
0.0521397
0.0520481
0.0580575
0.0575539
0.0570318
0.0564921
0.055937
0.0553706
0.054799
0.0542302
0.0536741
0.0531417
0.0526441
0.0521949
0.0518111
0.0514992
0.0512523
0.0510624
0.0509204
0.0508175
0.0507453
0.0506967
0.0506657
0.050647
0.0578915
0.0573571
0.0568018
0.0562248
0.0556267
0.0550094
0.0543769
0.0537356
0.053094
0.0524628
0.0518543
0.0512857
0.0507817
0.0503558
0.0500057
0.0497265
0.0495118
0.0493539
0.0492452
0.0491779
0.0491452
0.0491401
0.0579015
0.0573609
0.056796
0.0562054
0.0555896
0.0549482
0.0542834
0.0535989
0.052901
0.0521985
0.0515026
0.0508315
0.0502152
0.0496732
0.0492076
0.0488176
0.0485001
0.0482502
0.0480621
0.0479292
0.0478451
0.0478025
0.0580068
0.057477
0.0569238
0.0563448
0.0557442
0.0551091
0.0544443
0.0537511
0.0530333
0.0522973
0.0515519
0.0508141
0.050116
0.0494813
0.0489153
0.0484208
0.0479982
0.0476459
0.0473606
0.047138
0.046973
0.0468595
0.0581124
0.0576161
0.0570974
0.0565534
0.0559819
0.0553801
0.0547523
0.0540854
0.0533851
0.0526556
0.0519034
0.051143
0.0504061
0.0497177
0.0490854
0.0485145
0.0480083
0.0475679
0.0471928
0.046881
0.0466296
0.0464341
0.0581548
0.0577027
0.0572326
0.0567399
0.0562214
0.0556735
0.0550938
0.0544823
0.0538375
0.0531511
0.0524316
0.0516912
0.0509591
0.0502603
0.0496031
0.0489943
0.0484389
0.0479405
0.0475007
0.0471197
0.0467963
0.0465283
0.0580925
0.0576983
0.0572853
0.0568494
0.0563955
0.0559146
0.0554037
0.05486
0.0542823
0.05367
0.0530146
0.0523306
0.0516416
0.0509712
0.0503279
0.0497193
0.0491516
0.0486298
0.0481571
0.0477354
0.0473654
0.0470464
0.0579317
0.0575894
0.0572354
0.0568663
0.0564793
0.0560681
0.0556301
0.0551663
0.0546695
0.0541392
0.053568
0.0529626
0.0523434
0.0517306
0.0511318
0.0505548
0.0500062
0.0494919
0.0490162
0.0485825
0.0481926
0.0478473
0.057715
0.0574121
0.057105
0.0567901
0.0564636
0.0561213
0.0557589
0.0553728
0.0549591
0.054514
0.0540335
0.0535189
0.0529853
0.0524489
0.051916
0.0513934
0.0508878
0.0504051
0.0499507
0.0495284
0.0491415
0.0487918
0.0574771
0.0572032
0.0569314
0.0566586
0.0563813
0.0560956
0.0557972
0.0554819
0.0551452
0.0547828
0.0543903
0.0539671
0.0535238
0.0530721
0.0526165
0.0521624
0.0517155
0.0512815
0.0508658
0.0504728
0.0501065
0.0497696
0.0572565
0.0570027
0.0567556
0.0565128
0.0562715
0.0560284
0.0557797
0.0555214
0.0552491
0.0549582
0.054644
0.0543046
0.0539468
0.0535787
0.0532026
0.0528223
0.0524419
0.0520665
0.0517008
0.0513494
0.0510162
0.0507048
0.0570763
0.0568398
0.0566117
0.0563906
0.0561747
0.0559616
0.0557484
0.0555318
0.0553079
0.0550726
0.0548214
0.0545517
0.0542676
0.053974
0.0536716
0.0533623
0.0530488
0.0527348
0.0524242
0.0521209
0.0518287
0.0515514
0.0569364
0.0567218
0.0565142
0.0563133
0.0561184
0.0559279
0.0557402
0.0555527
0.0553626
0.0551667
0.0549612
0.0547437
0.0545167
0.054283
0.0540421
0.0537944
0.0535412
0.0532847
0.0530277
0.0527733
0.0525248
0.052286
0.00233405
0.00250668
0.00236857
0.00173281
0.00184518
0.00274776
0.0236296
0.0231518
0.0217488
0.0194394
0.0164843
0.0132473
0.05551
0.0582904
0.0587074
0.0565268
0.0515381
0.0447783
0.0459898
0.0442377
0.0428712
0.0413666
0.0397207
0.0378504
0.0422246
0.0409844
0.0400064
0.0393632
0.0390933
0.0391065
0.0397319
0.0393074
0.0391212
0.0391461
0.0394166
0.0398977
0.0399802
0.0396445
0.0395746
0.0397361
0.0400819
0.0405729
0.0401425
0.0398481
0.0397995
0.039968
0.0403298
0.040852
0.0417301
0.0412302
0.0409803
0.0409749
0.0412031
0.0416473
0.0435718
0.0429471
0.0425261
0.042329
0.0423659
0.0426304
0.0462641
0.0455262
0.0449444
0.0445432
0.0443431
0.0443577
0.0488857
0.0481315
0.0474904
0.0469829
0.0466322
0.0464572
0.0511211
0.0504154
0.0497981
0.0492742
0.0488651
0.0485893
0.0525236
0.0519347
0.0514028
0.0509352
0.0505487
0.0502586
0.0530518
0.0526039
0.0521757
0.0517954
0.0514726
0.051218
0.0527783
0.0524337
0.0521121
0.0518226
0.0515735
0.0513701
0.0518623
0.051596
0.0513509
0.0511307
0.0509403
0.0507831
0.0505241
0.0503032
0.0501036
0.0499265
0.0497743
0.0496479
0.0490352
0.0488321
0.0486538
0.0485003
0.0483725
0.0482733
0.0476809
0.0474831
0.0473172
0.0471824
0.0470795
0.0470112
0.0467022
0.0465132
0.0463648
0.0462567
0.04619
0.0461671
0.0462387
0.0460705
0.0459513
0.0458812
0.0458611
0.0459024
0.0463047
0.04617
0.0460903
0.0460656
0.0460965
0.0462059
0.0468101
0.0467161
0.0466798
0.0467014
0.046781
0.0469423
0.0476128
0.0475587
0.047562
0.0476225
0.0477398
0.0479394
0.0485699
0.0485498
0.0485841
0.0486723
0.0488136
0.0490372
0.0495671
0.049573
0.0496286
0.0497333
0.0498857
0.0501209
0.0505259
0.0505508
0.0506196
0.0507317
0.0508853
0.0511179
0.051399
0.0514375
0.0515141
0.0516284
0.051779
0.0519864
0.0521614
0.0522096
0.05229
0.0524022
0.0525446
0.0527217
0.00394376
0.00457792
0.00468189
0.00425225
0.00330503
0.00150215
0.000707136
0.00055046
0.000509338
0.000476369
0.000429887
0.000460793
0.00049726
0.000587394
0.000794135
0.00111842
0.00159996
0.00245976
0.00370542
0.0053682
0.00740116
0.00974564
0.0107439
0.00903592
0.00776344
0.00658177
0.0054658
0.00503742
0.0052742
0.00635708
0.00748109
0.00883132
0.0101979
0.0115593
0.0129536
0.01449
0.0158918
0.0168697
0.0188592
0.0207033
0.0227691
0.0249621
0.0270116
0.0291365
0.0379308
0.0320544
0.0272613
0.0248942
0.0253234
0.0281868
0.0328463
0.037893
0.0429073
0.0476605
0.0518288
0.0550119
0.0566003
0.0573186
0.0569948
0.0565601
0.0564995
0.0566839
0.0567206
0.0564533
0.0558602
0.0549064
0.0362792
0.0357008
0.0362519
0.0369337
0.0376439
0.0384061
0.0389732
0.0402833
0.0416328
0.0426949
0.0435408
0.0443232
0.0453301
0.0471188
0.0497032
0.0520088
0.053132
0.0530942
0.0522883
0.0511899
0.0501785
0.0494598
0.0393005
0.0395343
0.0396264
0.0399312
0.0407257
0.041865
0.0433248
0.0444118
0.0456273
0.047229
0.049412
0.0522369
0.0554099
0.0584512
0.0613275
0.0639811
0.0659248
0.0670155
0.0673971
0.0670904
0.0661369
0.064593
0.040485
0.0410745
0.0417346
0.0422734
0.0426143
0.0430414
0.0438931
0.0451169
0.0467368
0.0487499
0.0510808
0.053553
0.0558639
0.0577533
0.0587136
0.0589712
0.0589823
0.0588221
0.0586041
0.0584496
0.0584536
0.0586709
0.0411476
0.0417696
0.0424932
0.0433487
0.044391
0.0456821
0.0472365
0.0490208
0.0509732
0.0530021
0.0549899
0.0567992
0.0582883
0.059413
0.0602334
0.0608784
0.0614483
0.0620009
0.0625653
0.0631395
0.0636951
0.0641906
0.0414771
0.0421792
0.0430126
0.043993
0.0451315
0.0464268
0.0478592
0.0493925
0.0509747
0.0525461
0.0540491
0.0554303
0.0566374
0.0576699
0.058566
0.0593626
0.0600847
0.0607447
0.0613445
0.0618752
0.0623188
0.0626568
0.0422616
0.0429853
0.043859
0.0448847
0.0460551
0.047355
0.0487593
0.0502353
0.0517459
0.0532552
0.0547324
0.0561375
0.0574256
0.0585784
0.0596043
0.0605081
0.0612898
0.0619468
0.062493
0.0629757
0.063372
0.0636616
0.0431173
0.0437385
0.0444979
0.0453932
0.0464125
0.0475401
0.0487554
0.0500347
0.0513531
0.0526877
0.0540238
0.0553294
0.0565537
0.05767
0.0586757
0.059569
0.0603495
0.0610195
0.0615647
0.0619317
0.062156
0.0622821
0.0446399
0.0450883
0.0456708
0.0463794
0.0472144
0.0481617
0.0492044
0.0503242
0.0515005
0.0527113
0.0539331
0.0551316
0.0562497
0.0572531
0.0581329
0.0588746
0.0594802
0.0599499
0.0602876
0.0605031
0.0606064
0.06061
0.0465548
0.0468323
0.0472263
0.0477372
0.0483591
0.0490789
0.0498971
0.0507908
0.0517398
0.05272
0.0537041
0.054655
0.0555183
0.0562623
0.0568827
0.057355
0.0576921
0.057899
0.0579837
0.0579566
0.057836
0.057639
0.0485593
0.0487015
0.0489393
0.0492739
0.0497026
0.0502195
0.0508078
0.0514609
0.052157
0.0528714
0.0535768
0.0542386
0.0548117
0.0552816
0.055621
0.0558375
0.055943
0.0559505
0.0558766
0.0557395
0.055559
0.0553556
0.0501614
0.0502045
0.0503199
0.0505077
0.0507649
0.0510852
0.0514584
0.0518696
0.0522998
0.0527267
0.0531279
0.0534745
0.0537373
0.0539067
0.0539857
0.0539855
0.0539222
0.053815
0.0536845
0.0535509
0.0534336
0.0533499
0.0510904
0.0510546
0.0510694
0.0511332
0.0512422
0.0513894
0.051565
0.0517563
0.0519481
0.0521243
0.0522693
0.0523686
0.052414
0.0524114
0.0523746
0.0523216
0.0522722
0.0522464
0.0522623
0.0523352
0.0524762
0.0526926
0.0512254
0.0511154
0.0510367
0.0509869
0.050962
0.0509561
0.0509621
0.0509719
0.0509776
0.0509731
0.0509556
0.0509278
0.0509006
0.0508907
0.0509162
0.0509946
0.0511411
0.0513666
0.0516777
0.0520756
0.052557
0.0531144
0.0506214
0.0504375
0.0502764
0.0501329
0.0500052
0.0498914
0.0497902
0.0497017
0.0496287
0.0495778
0.0495606
0.0495944
0.0496979
0.0498842
0.0501637
0.0505419
0.0510187
0.0515888
0.0522422
0.0529653
0.0537424
0.0545569
0.0494736
0.0492432
0.0490337
0.0488446
0.0486789
0.0485411
0.0484377
0.0483779
0.0483743
0.048443
0.0486035
0.048876
0.0492685
0.0497748
0.0503882
0.0510966
0.0518838
0.0527311
0.0536185
0.0545266
0.0554374
0.0563353
0.0481093
0.0478835
0.0476903
0.0475352
0.0474268
0.0473751
0.0473927
0.0474938
0.0476944
0.048011
0.0484597
0.0490495
0.0497651
0.0505766
0.0514622
0.0523988
0.053363
0.0543331
0.0552899
0.0562174
0.0571031
0.0579379
0.0468948
0.0467434
0.0466465
0.0466133
0.046655
0.0467838
0.0470123
0.0473529
0.0478164
0.0484113
0.0491415
0.0499995
0.0509473
0.0519404
0.0529524
0.0539593
0.0549409
0.0558806
0.0567663
0.0575897
0.0583457
0.0590325
0.0461344
0.0461204
0.0461825
0.0463299
0.0465724
0.0469191
0.0473774
0.0479522
0.0486451
0.049453
0.0503681
0.0513695
0.0524073
0.0534349
0.0544301
0.0553754
0.0562581
0.0570701
0.0578067
0.0584669
0.0590519
0.0595648
0.0459743
0.0461274
0.0463691
0.0467052
0.0471408
0.0476787
0.048319
0.0490583
0.0498896
0.0508015
0.0517784
0.0527935
0.0537957
0.054745
0.0556271
0.0564329
0.0571575
0.0577998
0.0583613
0.0588459
0.0592587
0.0596056
0.0463799
0.0466907
0.0470902
0.0475791
0.0481562
0.048819
0.0495614
0.0503743
0.051245
0.052158
0.0530953
0.0540297
0.0549159
0.0557237
0.0564467
0.0570829
0.0576336
0.0581025
0.0584951
0.0588183
0.0590792
0.0592851
0.0471998
0.0476325
0.0481414
0.0487238
0.0493757
0.0500904
0.0508573
0.0516641
0.0524964
0.0533381
0.0541718
0.0549735
0.0557059
0.056349
0.0569027
0.05737
0.0577563
0.0580687
0.0583147
0.0585028
0.0586411
0.0587371
0.0482521
0.048756
0.0493191
0.049939
0.0506065
0.0513119
0.052044
0.0527898
0.0535353
0.0542655
0.0549652
0.0556147
0.0561855
0.0566661
0.0570611
0.0573769
0.0576216
0.0578039
0.0579328
0.0580172
0.0580655
0.0580851
0.0493753
0.0499059
0.0504799
0.05109
0.0517274
0.052382
0.0530425
0.0536968
0.054332
0.0549352
0.0554941
0.0559931
0.0564122
0.0567471
0.0570051
0.0571952
0.057327
0.05741
0.0574538
0.0574673
0.0574585
0.0574342
0.0504608
0.050983
0.0515323
0.0521012
0.0526809
0.0532615
0.0538326
0.0543833
0.0549026
0.05538
0.0558058
0.056169
0.0564567
0.0566701
0.0568188
0.056913
0.056963
0.0569786
0.0569691
0.0569427
0.0569067
0.0568668
0.0514411
0.0519305
0.0524344
0.0529449
0.0534535
0.0539512
0.0544287
0.0548767
0.0552864
0.0556495
0.0559594
0.0562087
0.056391
0.0565115
0.0565808
0.0566096
0.0566082
0.0565858
0.0565508
0.0565103
0.0564703
0.056435
0.0522828
0.0527286
0.0531779
0.0536237
0.0540585
0.0544743
0.0548634
0.0552183
0.0555323
0.0557997
0.0560162
0.0561781
0.0562835
0.0563401
0.0563588
0.0563498
0.0563223
0.0562847
0.056244
0.0562059
0.0561747
0.0561533
0.0529859
0.0533831
0.0537758
0.054158
0.0545233
0.0548653
0.0551778
0.0554552
0.0556928
0.0558869
0.0560354
0.0561369
0.0561924
0.0562107
0.0562016
0.0561744
0.0561371
0.0560965
0.0560583
0.0560268
0.0560051
0.0559947
0.0119092
0.0137065
0.0155932
0.0174853
0.0193162
0.0210303
0.0225915
0.0239911
0.0253249
0.0266197
0.0278982
0.0292345
0.0307408
0.032495
0.0343768
0.036184
0.0376843
0.0388606
0.039434
0.0392716
0.0387914
0.0356837
0.0317686
0.0277744
0.0233117
0.0191437
0.0158232
0.0131811
0.0110507
0.00906801
0.00712641
0.00518284
0.00305555
0.000838798
0.000532013
0.0308899
0.0323852
0.0339857
0.0357333
0.037657
0.0397849
0.0421519
0.0447402
0.0472519
0.0496316
0.0519746
0.0542918
0.0561353
0.0572126
0.0580298
0.0588259
0.05941
0.059444
0.0569698
0.0551816
0.054568
0.0566681
0.060298
0.063493
0.0651291
0.0637988
0.0624728
0.0613495
0.0590676
0.0538603
0.0449861
0.0327566
0.0193176
0.0073634
0.000914388
0.0538491
0.0530482
0.0523971
0.0520892
0.0523835
0.0535317
0.0556089
0.0583566
0.0609549
0.0641996
0.0661364
0.0663943
0.0646668
0.0611376
0.0562275
0.0509231
0.045709
0.0408565
0.0401909
0.0403947
0.0437167
0.0523449
0.0620725
0.0704742
0.0751511
0.0756417
0.0726102
0.0670734
0.0596942
0.0508503
0.0408785
0.0299892
0.0186024
0.00781055
0.000850873
0.049074
0.0487169
0.0485032
0.0483542
0.0482209
0.0480731
0.0479228
0.0476561
0.0471566
0.0464819
0.045737
0.0448339
0.0427765
0.0392442
0.0325615
0.0278241
0.0238262
0.0256503
0.0306478
0.0350413
0.0394308
0.0434423
0.0470426
0.0494809
0.0509635
0.05073
0.0497315
0.0464602
0.0416506
0.0355798
0.0285951
0.0209848
0.0130236
0.00542449
0.000750597
0.0628889
0.0613742
0.0596342
0.0577735
0.0559694
0.0544014
0.0531022
0.0519026
0.0505456
0.0488088
0.0466243
0.0440587
0.0412359
0.0380506
0.0337353
0.0288105
0.0240524
0.0195879
0.0177934
0.0183669
0.0209239
0.0253104
0.0301553
0.0335279
0.0349515
0.0348025
0.0333617
0.0304347
0.026651
0.0222971
0.0175917
0.0128213
0.008193
0.00376419
0.00050435
0.0589073
0.0591012
0.0592824
0.059375
0.0592445
0.0588101
0.0579748
0.0566322
0.0546954
0.0521658
0.0491886
0.0459924
0.0425472
0.0388359
0.0349999
0.0311426
0.0276257
0.0244188
0.0216249
0.0188346
0.0157453
0.0131436
0.011044
0.00981836
0.00933394
0.00906162
0.00845414
0.00802932
0.00702772
0.0058181
0.00455554
0.00329282
0.00207228
0.000917555
0.000234894
0.0644873
0.0646673
0.0648206
0.0649724
0.0649904
0.0647723
0.0642194
0.0632452
0.0618076
0.0599669
0.057948
0.0560452
0.0545213
0.0535128
0.0529028
0.052499
0.0521117
0.0514918
0.0501459
0.0475344
0.0436747
0.038731
0.033583
0.0291906
0.0252085
0.0215525
0.0182481
0.0152732
0.0125465
0.0100246
0.00764297
0.00535631
0.00318116
0.00126549
0.000212835
0.0628491
0.0629817
0.0630606
0.0629932
0.0628626
0.0626504
0.0623436
0.0619392
0.0614436
0.0608594
0.0601488
0.0593779
0.0585055
0.0575818
0.056597
0.0558145
0.0551347
0.0544627
0.053661
0.0525551
0.0509569
0.0486554
0.0454727
0.0416305
0.0373411
0.0327202
0.0280723
0.023463
0.0190089
0.0148004
0.0109246
0.00743911
0.00438035
0.00181034
0.000186441
0.0638207
0.063922
0.063989
0.0640084
0.0639674
0.0638508
0.0636416
0.06332
0.0628593
0.0622405
0.0614398
0.0603766
0.0591758
0.0580202
0.0571161
0.056509
0.0562108
0.0560159
0.0557161
0.0551143
0.0539952
0.0521207
0.0492896
0.0457607
0.041635
0.0370462
0.0321621
0.0271591
0.0221728
0.0173341
0.0127611
0.00855976
0.00484637
0.00184694
0.000239649
0.0623329
0.0623756
0.0623825
0.0623403
0.0622341
0.0620473
0.0617639
0.0613707
0.0608629
0.0602533
0.0595894
0.058971
0.0585549
0.0584187
0.058454
0.0585549
0.0586738
0.058663
0.0584064
0.0577986
0.0566953
0.0548035
0.0518854
0.048288
0.0440733
0.0393544
0.0342963
0.0290664
0.0238286
0.018725
0.0138881
0.00943834
0.0054918
0.00222155
0.000214504
0.0605871
0.0605972
0.0605762
0.0605145
0.0604015
0.0602272
0.0599832
0.0596665
0.0592842
0.0588591
0.0584354
0.0580779
0.0578611
0.0578895
0.0582287
0.0587692
0.059306
0.0596858
0.0597407
0.0593404
0.0583444
0.056468
0.0534776
0.0496557
0.0452199
0.04034
0.0351394
0.0297716
0.0244004
0.0191509
0.0141542
0.00953631
0.00543627
0.00209691
0.00023477