/*--------------------------------*- C++ -*----------------------------------*\
  =========                 |
  \\      /  F ield         | OpenFOAM: The Open Source CFD Toolbox
   \\    /   O peration     | Website:  https://openfoam.org
    \\  /    A nd           | Version:  8
     \\/     M anipulation  |
\*---------------------------------------------------------------------------*/
FoamFile
{
    version     2.0;
    format      ascii;
    class       surfaceScalarField;
    location    "0.49";
    object      phi;
}
// * * * * * * * * * * * * * * * * * * * * * * * * * * * * * * * * * * * * * //

dimensions      [1 0 -1 0 0 0 0];

internalField   nonuniform List<scalar> 
31053
(
-5.2966e-06
1.178e-05
-6.3312e-06
8.73217e-06
-6.91442e-06
9.83587e-06
-7.51751e-06
1.15926e-05
-8.40915e-06
1.36595e-05
-9.38169e-06
1.56084e-05
-9.5757e-06
1.68538e-05
-7.26952e-06
1.65889e-05
6.6882e-07
1.34552e-05
2.07759e-05
4.12561e-06
6.11177e-05
-1.27795e-05
0.000130291
-3.76774e-05
0.000225786
-5.93195e-05
0.000332807
-6.52941e-05
0.000415589
-4.24916e-05
0.000471785
-1.55278e-05
0.000497356
1.52718e-05
0.000494055
4.42088e-05
0.00047013
6.48007e-05
0.000435166
7.5713e-05
0.000395647
8.01314e-05
0.000357356
7.5546e-05
0.000322513
6.85792e-05
0.000291776
6.13296e-05
0.000264777
5.47582e-05
0.000241041
4.89408e-05
0.000220082
4.38558e-05
0.000201497
3.93986e-05
0.000185
3.54343e-05
0.000170381
3.18629e-05
0.000157474
2.86121e-05
0.000146139
2.56357e-05
0.000136282
2.28822e-05
0.000127878
2.02861e-05
1.80668e-05
0.000120463
-7.1423e-05
8.32275e-05
-0.000159622
9.69587e-05
-0.000257883
0.000108128
-0.000364038
0.000117784
-0.000475682
0.000125346
-0.000589463
0.000129438
-0.000700485
0.000127934
-0.000801373
0.000117547
-0.000881195
9.33624e-05
-0.000925375
4.84105e-05
-0.000917245
-2.07807e-05
-0.000840507
-0.000114269
-0.00070164
-0.000198025
-0.000512705
-0.000254051
-0.000333932
-0.00022113
-0.000171811
-0.000177534
-3.45298e-05
-0.00012186
8.2017e-05
-7.21802e-05
0.00018591
-3.89661e-05
0.000281954
-2.02526e-05
0.000373649
-1.1529e-05
0.000452624
-3.43078e-06
0.000518221
2.9842e-06
0.00057176
7.79181e-06
0.000614115
1.24044e-05
0.000646467
1.65919e-05
0.000670197
2.01263e-05
0.000686693
2.29023e-05
0.000697167
2.49575e-05
0.0007028
2.62291e-05
0.000704665
2.6744e-05
0.000703738
2.65609e-05
0.000700841
2.5775e-05
0.000696583
2.45413e-05
2.25834e-05
0.000692062
-1.50229e-06
8.47414e-05
2.16714e-06
9.33018e-05
9.38158e-06
0.000100928
1.85367e-05
0.000108645
2.83764e-05
0.000115526
3.76338e-05
0.000120205
4.48023e-05
0.000120797
4.76786e-05
0.000114711
4.26034e-05
9.84905e-05
2.25483e-05
6.8535e-05
-2.07003e-05
2.25526e-05
-0.000123541
-1.13185e-05
-0.000284373
-3.70577e-05
-0.000490823
-4.74628e-05
-0.000676468
-3.54626e-05
-0.000827875
-2.61409e-05
-0.00092563
-2.40514e-05
-0.00094787
-4.97984e-05
-0.000900454
-8.61417e-05
-0.000799211
-0.00012119
-0.000665811
-0.000144635
-0.000530277
-0.00013872
-0.000407663
-0.000119463
-0.000302023
-9.77493e-05
-0.0002121
-7.74688e-05
-0.000135208
-6.02798e-05
-6.86972e-05
-4.63823e-05
-1.04287e-05
-3.53711e-05
4.13035e-05
-2.67818e-05
8.77555e-05
-2.02309e-05
0.000129833
-1.53395e-05
0.000168185
-1.17946e-05
0.000203197
-9.23909e-06
0.00023514
-7.40444e-06
-5.85854e-06
0.000263583
4.37653e-05
4.09591e-05
8.70255e-05
5.00236e-05
0.000132456
5.5478e-05
0.000181625
5.94545e-05
0.000235123
6.20056e-05
0.000292743
6.25579e-05
0.000353277
6.02347e-05
0.000413879
5.40767e-05
0.000469053
4.32817e-05
0.000508434
2.91189e-05
0.000513788
1.71726e-05
0.000492877
9.57572e-06
0.000452627
3.16813e-06
0.000395361
9.77943e-06
0.000341545
1.83524e-05
0.000296671
1.87181e-05
0.000270976
1.58611e-06
0.000272665
-5.14354e-05
0.000296838
-0.000110212
0.000333228
-0.00015747
0.000375952
-0.000187291
0.00041751
-0.000180278
0.00045657
-0.00015858
0.000493512
-0.000134765
0.000528718
-0.00011276
0.000562443
-9.4099e-05
0.000594782
-7.88233e-05
0.000625826
-6.65199e-05
0.000655451
-5.65209e-05
0.000683402
-4.83027e-05
0.000709497
-4.15576e-05
0.000733615
-3.60346e-05
0.000755688
-3.14324e-05
0.000775726
-2.75551e-05
-2.45477e-05
0.000794307
2.54895e-05
1.54409e-05
5.53961e-05
2.00861e-05
8.72791e-05
2.3561e-05
0.000119589
2.71069e-05
0.000151838
2.97144e-05
0.000183241
3.11064e-05
0.000213035
3.03842e-05
0.000240484
2.65627e-05
0.000265583
1.81073e-05
0.000290025
4.58997e-06
0.000317097
-1.00054e-05
0.00035034
-2.37974e-05
0.000391877
-3.8516e-05
0.000452596
-5.10988e-05
0.000521724
-5.0939e-05
0.000596229
-5.60091e-05
0.000666046
-6.84316e-05
0.000695348
-8.09647e-05
0.000676197
-9.12713e-05
0.000617375
-9.87728e-05
0.000533506
-0.000103513
0.000450248
-9.71175e-05
0.000379979
-8.83793e-05
0.000324989
-7.9819e-05
0.000283833
-7.16304e-05
0.000253518
-6.37997e-05
0.000231049
-5.63578e-05
0.000213988
-4.9453e-05
0.000200557
-4.30781e-05
0.000189568
-3.72985e-05
0.000180208
-3.21799e-05
0.000171943
-2.77524e-05
0.000164536
-2.40132e-05
0.000157902
-2.0913e-05
-1.81077e-05
0.000151469
4.05283e-05
-2.50628e-05
8.61246e-05
-2.54838e-05
0.000134307
-2.45917e-05
0.000184793
-2.33466e-05
0.000237506
-2.29607e-05
0.000292364
-2.37077e-05
0.000348665
-2.58644e-05
0.000404686
-2.93979e-05
0.000456458
-3.35941e-05
0.00049845
-3.73193e-05
0.00052986
-4.13166e-05
0.000551239
-4.50596e-05
0.000561025
-4.81668e-05
0.000563499
-5.34208e-05
0.000562679
-4.99895e-05
0.000558369
-5.15893e-05
0.000546986
-5.69556e-05
0.000530921
-6.47965e-05
0.000512285
-7.25255e-05
0.000492126
-7.84973e-05
0.00047122
-8.24835e-05
0.000451924
-7.77009e-05
0.000435039
-7.13842e-05
0.000420507
-6.51942e-05
0.000407813
-5.88557e-05
0.000396035
-5.19506e-05
0.000384295
-4.45513e-05
0.00037182
-3.6914e-05
0.000358125
-2.93212e-05
0.00034297
-2.20822e-05
0.000326331
-1.5481e-05
0.000308364
-9.72406e-06
0.00028925
-4.84423e-06
0.000269123
-7.34364e-07
1.88281e-06
0.000249177
-2.63278e-05
1.26577e-06
-5.23208e-05
5.10415e-07
-7.57437e-05
-1.16675e-06
-9.47263e-05
-4.36111e-06
-0.000107908
-9.77553e-06
-0.000113847
-1.7765e-05
-0.000112143
-2.75649e-05
-0.000103467
-3.80709e-05
-8.8649e-05
-4.84103e-05
-6.73846e-05
-5.85844e-05
-3.97723e-05
-6.89335e-05
-5.31563e-06
-7.95268e-05
3.67805e-05
-9.02824e-05
8.4452e-05
-0.000101126
0.000127601
-9.31792e-05
0.000166599
-9.06366e-05
0.000197923
-8.83346e-05
0.000218594
-8.55209e-05
0.00022798
-8.19588e-05
0.000226997
-7.75507e-05
0.000216493
-7.20079e-05
0.000198703
-5.99305e-05
0.000175528
-4.82158e-05
0.000148623
-3.82896e-05
0.000119987
-3.02182e-05
9.15073e-05
-2.34674e-05
6.46331e-05
-1.76721e-05
4.05658e-05
-1.28409e-05
2.01004e-05
-8.84949e-06
3.61934e-06
-5.59566e-06
-8.84349e-06
-3.01092e-06
-1.79243e-05
-6.34814e-07
-2.40767e-05
1.31808e-06
-2.7923e-05
3.12073e-06
4.50031e-06
-3.0532e-05
-1.19977e-05
1.32815e-05
-2.07632e-05
9.29581e-06
-2.52714e-05
3.36333e-06
-2.41363e-05
-5.47142e-06
-1.74764e-05
-1.64075e-05
-6.88454e-06
-2.83251e-05
6.35839e-06
-4.0772e-05
2.10947e-05
-5.27666e-05
3.65263e-05
-6.37962e-05
5.21139e-05
-7.41204e-05
6.75093e-05
-8.4271e-05
8.25481e-05
-9.45003e-05
9.73441e-05
-0.000105005
0.000111742
-0.000115442
0.000122445
-0.000103806
0.000130491
-9.86094e-05
0.000135679
-9.34503e-05
0.000138124
-8.78946e-05
0.00013835
-8.21133e-05
0.000136967
-7.60953e-05
0.000134017
-6.8983e-05
0.000128862
-5.47059e-05
0.000121127
-4.04136e-05
0.000110549
-2.76465e-05
9.70845e-05
-1.66942e-05
8.0964e-05
-7.29364e-06
6.27097e-05
6.31075e-07
4.42381e-05
5.6762e-06
2.56216e-05
9.80889e-06
7.19944e-06
1.2864e-05
-1.05909e-05
1.48128e-05
-2.70324e-05
1.58368e-05
-4.18573e-05
1.61712e-05
-5.47488e-05
1.60382e-05
1.54874e-05
-6.57116e-05
1.84804e-05
-5.20049e-06
3.94103e-05
-1.16355e-05
6.12642e-05
-1.84916e-05
8.13677e-05
-2.55757e-05
9.72553e-05
-3.22957e-05
0.000107877
-3.89471e-05
0.000112907
-4.5802e-05
0.00011325
-5.31091e-05
0.000110526
-6.10724e-05
0.000106104
-6.96979e-05
0.000100749
-7.89161e-05
9.49123e-05
-8.86643e-05
8.87091e-05
-9.88025e-05
8.20646e-05
-0.0001088
7.63736e-05
-9.81187e-05
7.03644e-05
-9.26046e-05
6.33915e-05
-8.64821e-05
5.51289e-05
-7.9637e-05
4.51002e-05
-7.20897e-05
3.31818e-05
-6.41818e-05
2.00282e-05
-5.58344e-05
8.01957e-06
-4.27024e-05
-1.8671e-06
-3.05322e-05
-9.22285e-06
-2.02968e-05
-1.39389e-05
-1.19861e-05
-1.56171e-05
-5.62436e-06
-1.43817e-05
-6.13832e-07
-1.3349e-05
4.63392e-06
-1.20472e-05
8.49718e-06
-1.01777e-05
1.09839e-05
-7.84357e-06
1.24682e-05
-5.24067e-06
1.32232e-05
-2.56287e-06
1.34842e-05
6.26943e-08
1.34053e-05
1.31546e-05
2.38653e-06
1.24082e-05
-1.76039e-05
2.29192e-05
-2.2141e-05
3.02205e-05
-2.57865e-05
3.43813e-05
-2.97291e-05
3.63422e-05
-3.4248e-05
3.68444e-05
-3.94394e-05
3.64453e-05
-4.53915e-05
3.554e-05
-5.21906e-05
3.44037e-05
-5.99209e-05
3.33321e-05
-6.86088e-05
3.26403e-05
-7.82041e-05
3.25041e-05
-8.85048e-05
3.2805e-05
-9.90766e-05
3.33462e-05
-0.00010931
3.34795e-05
-9.82221e-05
3.31606e-05
-9.22556e-05
3.22282e-05
-8.55192e-05
3.06687e-05
-7.80466e-05
2.85237e-05
-6.99134e-05
2.54389e-05
-6.10653e-05
2.10084e-05
-5.1372e-05
1.54836e-05
-3.71483e-05
9.14982e-06
-2.41716e-05
2.14845e-06
-1.32716e-05
-5.93953e-06
-3.87714e-06
-1.45377e-05
2.99131e-06
-2.27168e-05
7.58074e-06
-2.91064e-05
1.10371e-05
-3.39955e-05
1.33987e-05
-3.79052e-05
1.49049e-05
-4.1184e-05
1.57571e-05
-4.4055e-05
1.61027e-05
-4.66284e-05
1.60655e-05
-4.89582e-05
1.57425e-05
1.51604e-05
-5.09571e-05
1.87086e-06
-1.94756e-05
3.57677e-06
-2.38477e-05
5.59505e-06
-2.78056e-05
7.92488e-06
-3.20598e-05
1.04358e-05
-3.67598e-05
1.2991e-05
-4.19956e-05
1.54423e-05
-4.78438e-05
1.76055e-05
-5.43547e-05
1.92408e-05
-6.15572e-05
2.00719e-05
-6.94407e-05
1.9797e-05
-7.793e-05
1.81423e-05
-8.68507e-05
1.49207e-05
-9.58552e-05
1.00982e-05
-0.000104487
5.15522e-06
-9.32787e-05
-1.01019e-07
-8.69987e-05
-5.61168e-06
-8.00079e-05
-1.13434e-05
-7.23147e-05
-1.71491e-05
-6.41083e-05
-2.28016e-05
-5.54143e-05
-2.82437e-05
-4.59327e-05
-3.25023e-05
-3.2894e-05
-3.50831e-05
-2.15964e-05
-3.58285e-05
-1.2533e-05
-3.44446e-05
-5.26959e-06
-3.18546e-05
3.93286e-07
-3.01529e-05
5.87055e-06
-2.853e-05
9.40573e-06
-2.68822e-05
1.17424e-05
-2.51953e-05
1.32098e-05
-2.34693e-05
1.40231e-05
-2.17148e-05
1.43405e-05
-1.99508e-05
1.42943e-05
-1.82083e-05
1.39931e-05
1.35458e-05
-1.65998e-05
4.84227e-07
-1.9958e-05
7.70603e-07
-2.41321e-05
8.52139e-07
-2.78849e-05
7.68201e-07
-3.19734e-05
5.6203e-07
-3.65508e-05
2.55551e-07
-4.16859e-05
-1.56018e-07
-4.74284e-05
-6.82639e-07
-5.38237e-05
-1.34256e-06
-6.08922e-05
-2.16923e-06
-6.86081e-05
-3.22611e-06
-7.68661e-05
-4.57324e-06
-8.54953e-05
-6.20736e-06
-9.42114e-05
-8.17287e-06
-0.00010251
-1.03575e-05
-9.10825e-05
-1.27285e-05
-8.46157e-05
-1.51588e-05
-7.75651e-05
-1.7634e-05
-6.98268e-05
-2.03124e-05
-6.14171e-05
-2.32582e-05
-5.24562e-05
-2.63911e-05
-4.27879e-05
-2.95532e-05
-2.97218e-05
-3.27967e-05
-1.83448e-05
-3.62035e-05
-9.11977e-06
-3.99928e-05
-1.47461e-06
-4.33139e-05
3.71781e-06
-4.51212e-05
7.68002e-06
-4.63237e-05
1.06097e-05
-4.72272e-05
1.26467e-05
-4.79557e-05
1.39385e-05
-4.85414e-05
1.46086e-05
-4.89951e-05
1.47937e-05
-4.93328e-05
1.46315e-05
-4.95751e-05
1.42347e-05
1.36585e-05
-4.96886e-05
-5.96189e-08
-1.98978e-05
-1.70101e-07
-2.40209e-05
-2.28152e-07
-2.7826e-05
-2.68988e-07
-3.19315e-05
-3.70052e-07
-3.64484e-05
-6.0869e-07
-4.14457e-05
-1.06691e-06
-4.69684e-05
-1.8396e-06
-5.3049e-05
-3.03349e-06
-5.96958e-05
-4.75888e-06
-6.68798e-05
-7.11125e-06
-7.45102e-05
-1.0174e-05
-8.24284e-05
-1.40263e-05
-9.0354e-05
-1.87518e-05
-9.77783e-05
-2.33059e-05
-8.65224e-05
-2.79074e-05
-8.0008e-05
-3.24797e-05
-7.29866e-05
-3.6889e-05
-6.54115e-05
-4.10602e-05
-5.72402e-05
-4.50472e-05
-4.84639e-05
-4.87636e-05
-3.90673e-05
-5.15922e-05
-2.68908e-05
-5.34335e-05
-1.65028e-05
-5.43106e-05
-8.24333e-06
-5.38711e-05
-1.91668e-06
-5.33928e-05
3.23766e-06
-5.28003e-05
7.08501e-06
-5.19865e-05
9.79304e-06
-5.097e-05
1.16272e-05
-4.98013e-05
1.2767e-05
-4.85474e-05
1.3352e-05
-4.72685e-05
1.35124e-05
-4.60112e-05
1.33714e-05
-4.48016e-05
1.30221e-05
1.25421e-05
-4.36882e-05
-4.4068e-07
-1.94553e-05
-1.10002e-06
-2.33595e-05
-1.97098e-06
-2.69526e-05
-3.04795e-06
-3.08517e-05
-4.31515e-06
-3.5178e-05
-5.76398e-06
-3.99932e-05
-7.39104e-06
-4.53371e-05
-9.20423e-06
-5.12309e-05
-1.12233e-05
-5.76711e-05
-1.34809e-05
-6.46158e-05
-1.60125e-05
-7.19711e-05
-1.88747e-05
-7.95575e-05
-2.21589e-05
-8.70597e-05
-2.59776e-05
-9.3948e-05
-2.97529e-05
-8.27358e-05
-3.36173e-05
-7.61323e-05
-3.75051e-05
-6.90874e-05
-4.13459e-05
-6.15592e-05
-4.50668e-05
-5.35082e-05
-4.86243e-05
-4.48955e-05
-5.20104e-05
-3.5671e-05
-5.49816e-05
-2.39108e-05
-5.75299e-05
-1.39474e-05
-5.97079e-05
-6.05974e-06
-6.19183e-05
2.98133e-07
-6.32373e-05
4.55962e-06
-6.40355e-05
7.88526e-06
-6.44919e-05
1.0251e-05
-6.4701e-05
1.18372e-05
-6.4738e-05
1.28047e-05
-6.46756e-05
1.32899e-05
-6.45706e-05
1.34075e-05
-6.44504e-05
1.32507e-05
-6.43224e-05
1.28934e-05
1.2386e-05
-6.41674e-05
-5.69824e-07
-1.88835e-05
-1.262e-06
-2.26651e-05
-2.05074e-06
-2.61613e-05
-2.96824e-06
-2.99313e-05
-4.04739e-06
-3.40955e-05
-5.32731e-06
-3.87094e-05
-6.85395e-06
-4.3806e-05
-8.68096e-06
-4.93988e-05
-1.08714e-05
-5.54747e-05
-1.34909e-05
-6.19895e-05
-1.66105e-05
-6.88437e-05
-2.03167e-05
-7.58422e-05
-2.47093e-05
-8.26566e-05
-2.98837e-05
-8.87614e-05
-3.4819e-05
-7.77889e-05
-3.97659e-05
-7.11737e-05
-4.46911e-05
-6.41503e-05
-4.95429e-05
-5.66956e-05
-5.42572e-05
-4.87821e-05
-5.87605e-05
-4.03806e-05
-6.29577e-05
-3.14625e-05
-6.63786e-05
-2.04801e-05
-6.89989e-05
-1.13189e-05
-7.08705e-05
-4.18126e-06
-7.18402e-05
1.27346e-06
-7.27552e-05
5.47931e-06
-7.33637e-05
8.49768e-06
-7.37097e-05
1.06001e-05
-7.38463e-05
1.19766e-05
-7.38234e-05
1.27842e-05
-7.3684e-05
1.31525e-05
-7.34618e-05
1.3187e-05
-7.31831e-05
1.29731e-05
-7.28679e-05
1.25787e-05
1.20625e-05
-7.25444e-05
-7.26318e-07
-1.81549e-05
-1.63211e-06
-2.17566e-05
-2.69611e-06
-2.50943e-05
-3.94321e-06
-2.86807e-05
-5.39895e-06
-3.26358e-05
-7.08619e-06
-3.70176e-05
-9.03011e-06
-4.18569e-05
-1.12587e-05
-4.71642e-05
-1.38008e-05
-5.29257e-05
-1.66926e-05
-5.90897e-05
-1.9986e-05
-6.55411e-05
-2.37488e-05
-7.2069e-05
-2.8066e-05
-7.83272e-05
-3.30512e-05
-8.37623e-05
-3.78545e-05
-7.29724e-05
-4.27087e-05
-6.63063e-05
-4.75843e-05
-5.92612e-05
-5.24452e-05
-5.18212e-05
-5.72453e-05
-4.39682e-05
-6.19302e-05
-3.56819e-05
-6.64413e-05
-2.69376e-05
-7.03768e-05
-1.65322e-05
-7.37347e-05
-7.95013e-06
-7.6627e-05
-1.27956e-06
-7.90442e-05
3.69889e-06
-8.09464e-05
7.38858e-06
-8.247e-05
1.00274e-05
-8.36878e-05
1.18233e-05
-8.46588e-05
1.29521e-05
-8.54302e-05
1.35598e-05
-8.60404e-05
1.37662e-05
-8.65195e-05
1.36693e-05
-8.68921e-05
1.33481e-05
-8.71776e-05
1.28659e-05
1.22701e-05
-8.73841e-05
-7.22193e-07
-1.74305e-05
-1.61257e-06
-2.08637e-05
-2.6842e-06
-2.40197e-05
-3.94511e-06
-2.74165e-05
-5.4076e-06
-3.11695e-05
-7.09608e-06
-3.53248e-05
-9.04194e-06
-3.9906e-05
-1.12834e-05
-4.49169e-05
-1.38669e-05
-5.03355e-05
-1.68533e-05
-5.60956e-05
-2.03185e-05
-6.2067e-05
-2.43486e-05
-6.80288e-05
-2.90414e-05
-7.36228e-05
-3.45042e-05
-7.82862e-05
-3.97293e-05
-6.77345e-05
-4.49933e-05
-6.10294e-05
-5.02831e-05
-5.39583e-05
-5.55753e-05
-4.65156e-05
-6.08358e-05
-3.86941e-05
-6.60185e-05
-3.04855e-05
-7.10603e-05
-2.18819e-05
-7.54584e-05
-1.21217e-05
-7.91722e-05
-4.22511e-06
-8.22296e-05
1.78796e-06
-8.48121e-05
6.29051e-06
-8.69596e-05
9.54416e-06
-8.87272e-05
1.18023e-05
-9.01691e-05
1.32717e-05
-9.1335e-05
1.41238e-05
-9.22695e-05
1.44995e-05
-9.30119e-05
1.45132e-05
-9.35963e-05
1.42577e-05
-9.4052e-05
1.38071e-05
-9.44037e-05
1.32203e-05
1.25448e-05
-9.46763e-05
-8.0767e-07
-1.66207e-05
-1.85903e-06
-1.981e-05
-3.08929e-06
-2.27868e-05
-4.49116e-06
-2.60115e-05
-6.08139e-06
-2.95757e-05
-7.88467e-06
-3.35174e-05
-9.93185e-06
-3.78541e-05
-1.22603e-05
-4.2583e-05
-1.49174e-05
-4.76722e-05
-1.79594e-05
-5.30465e-05
-2.14505e-05
-5.85677e-05
-2.54674e-05
-6.40026e-05
-3.01024e-05
-6.89769e-05
-3.54687e-05
-7.29075e-05
-4.06215e-05
-6.25699e-05
-4.58303e-05
-5.58087e-05
-5.10854e-05
-4.8691e-05
-5.63717e-05
-4.12167e-05
-6.16663e-05
-3.33866e-05
-6.69364e-05
-2.5202e-05
-7.21407e-05
-1.66643e-05
-7.67994e-05
-7.45137e-06
-8.09343e-05
-8.04862e-08
-8.44721e-05
5.3355e-06
-8.75002e-05
9.32792e-06
-9.00817e-05
1.21343e-05
-9.2273e-05
1.40015e-05
-9.41273e-05
1.5133e-05
-9.56923e-05
1.56952e-05
-9.70106e-05
1.58234e-05
-9.81192e-05
1.56269e-05
-9.90503e-05
1.51933e-05
-9.98316e-05
1.45922e-05
-0.000100486
1.38783e-05
1.3093e-05
-0.000101032
-8.04445e-07
-1.58146e-05
-1.78035e-06
-1.88321e-05
-2.91532e-06
-2.16495e-05
-4.22745e-06
-2.46968e-05
-5.74233e-06
-2.80579e-05
-7.49015e-06
-3.17661e-05
-9.50594e-06
-3.58344e-05
-1.18302e-05
-4.02542e-05
-1.45091e-05
-4.49881e-05
-1.75956e-05
-4.9954e-05
-2.11517e-05
-5.50047e-05
-2.52501e-05
-5.98962e-05
-2.99777e-05
-6.42403e-05
-3.54376e-05
-6.74371e-05
-4.0648e-05
-5.73495e-05
-4.58947e-05
-5.05519e-05
-5.11781e-05
-4.33973e-05
-5.64926e-05
-3.58917e-05
-6.18255e-05
-2.80427e-05
-6.71554e-05
-1.98606e-05
-7.24483e-05
-1.13588e-05
-7.7203e-05
-2.68373e-06
-8.13162e-05
4.04561e-06
-8.49518e-05
8.98215e-06
-8.81015e-05
1.24873e-05
-9.08147e-05
1.48559e-05
-9.31399e-05
1.63341e-05
-9.51239e-05
1.71238e-05
-9.68109e-05
1.73883e-05
-9.82413e-05
1.72593e-05
-9.94516e-05
1.68421e-05
-0.000100474
1.62203e-05
-0.000101338
1.54594e-05
-0.000102066
1.46104e-05
1.37125e-05
-0.000102683
-8.14379e-07
-1.49989e-05
-1.81663e-06
-1.78284e-05
-2.98702e-06
-2.04774e-05
-4.33739e-06
-2.33444e-05
-5.88796e-06
-2.65049e-05
-7.66437e-06
-2.9987e-05
-9.69735e-06
-3.37982e-05
-1.20234e-05
-3.79246e-05
-1.46854e-05
-4.23219e-05
-1.77336e-05
-4.69009e-05
-2.12269e-05
-5.15058e-05
-2.52351e-05
-5.58817e-05
-2.98408e-05
-5.96273e-05
-3.51432e-05
-6.21263e-05
-4.01988e-05
-5.2286e-05
-4.5283e-05
-4.54596e-05
-5.03966e-05
-3.82755e-05
-5.55367e-05
-3.0743e-05
-6.06954e-05
-2.28749e-05
-6.58581e-05
-1.46882e-05
-7.10017e-05
-6.20466e-06
-7.56566e-05
1.98157e-06
-7.97703e-05
8.16941e-06
-8.3385e-05
1.26062e-05
-8.65418e-05
1.56525e-05
-8.92852e-05
1.76069e-05
-9.16598e-05
1.87157e-05
-9.37085e-05
1.91788e-05
-9.54716e-05
1.9157e-05
-9.6986e-05
1.87787e-05
-9.82851e-05
1.81458e-05
-9.93987e-05
1.7338e-05
-0.000100353
1.64173e-05
-0.000101171
1.54314e-05
1.44155e-05
-0.000101871
-7.90412e-07
-1.42075e-05
-1.7547e-06
-1.6863e-05
-2.87896e-06
-1.93519e-05
-4.17906e-06
-2.20429e-05
-5.67835e-06
-2.5004e-05
-7.40479e-06
-2.82586e-05
-9.39058e-06
-3.18102e-05
-1.16725e-05
-3.56401e-05
-1.42922e-05
-3.96991e-05
-1.72971e-05
-4.38925e-05
-2.07415e-05
-4.80573e-05
-2.46881e-05
-5.19304e-05
-2.92101e-05
-5.50999e-05
-3.43938e-05
-5.69364e-05
-3.93076e-05
-4.73663e-05
-4.42242e-05
-4.0537e-05
-4.91465e-05
-3.3347e-05
-5.40744e-05
-2.58087e-05
-5.90033e-05
-1.79391e-05
-6.3923e-05
-9.76111e-06
-6.88151e-05
-1.30447e-06
-7.32339e-05
6.40848e-06
-7.71419e-05
1.20852e-05
-8.05808e-05
1.60525e-05
-8.35906e-05
1.86692e-05
-8.62117e-05
2.02345e-05
-8.84845e-05
2.09944e-05
-9.04481e-05
2.11478e-05
-9.21396e-05
2.08535e-05
-9.35938e-05
2.02373e-05
-9.48418e-05
1.93978e-05
-9.5912e-05
1.84118e-05
-9.68293e-05
1.73379e-05
-9.76156e-05
1.62208e-05
1.50932e-05
-9.82904e-05
-7.86277e-07
-1.34207e-05
-1.74609e-06
-1.59025e-05
-2.8648e-06
-1.82323e-05
-4.15606e-06
-2.07507e-05
-5.64094e-06
-2.3518e-05
-7.34512e-06
-2.65531e-05
-9.29851e-06
-2.98552e-05
-1.15355e-05
-3.34013e-05
-1.40952e-05
-3.71373e-05
-1.70222e-05
-4.09631e-05
-2.03671e-05
-4.47096e-05
-2.41878e-05
-4.81065e-05
-2.85502e-05
-5.07338e-05
-3.35306e-05
-5.19517e-05
-3.82323e-05
-4.26606e-05
-4.29149e-05
-3.58502e-05
-4.75798e-05
-2.86779e-05
-5.22259e-05
-2.1158e-05
-5.68495e-05
-1.33107e-05
-6.1442e-05
-5.16314e-06
-6.59896e-05
3.24916e-06
-7.00838e-05
1.05089e-05
-7.36954e-05
1.57028e-05
-7.68667e-05
1.92298e-05
-7.96389e-05
2.1447e-05
-8.20517e-05
2.26527e-05
-8.41436e-05
2.30913e-05
-8.59513e-05
2.29601e-05
-8.75093e-05
2.24156e-05
-8.88492e-05
2.15809e-05
-8.99997e-05
2.05517e-05
-9.09866e-05
1.94017e-05
-9.18324e-05
1.81865e-05
-9.25571e-05
1.69482e-05
1.57165e-05
-9.31778e-05
-7.64388e-07
-1.2656e-05
-1.69513e-06
-1.49714e-05
-2.7795e-06
-1.71475e-05
-4.03209e-06
-1.94976e-05
-5.47433e-06
-2.20751e-05
-7.13184e-06
-2.48949e-05
-9.034e-06
-2.79522e-05
-1.1214e-05
-3.12203e-05
-1.3709e-05
-3.46411e-05
-1.65604e-05
-3.81102e-05
-1.98141e-05
-4.14542e-05
-2.35211e-05
-4.43975e-05
-2.77382e-05
-4.65143e-05
-3.25287e-05
-4.71586e-05
-3.70234e-05
-3.81634e-05
-4.14719e-05
-3.13992e-05
-4.58741e-05
-2.4273e-05
-5.02279e-05
-1.68012e-05
-5.45288e-05
-9.00658e-06
-5.87684e-05
-9.19883e-07
-6.29337e-05
7.41866e-06
-6.66561e-05
1.42358e-05
-6.99179e-05
1.89692e-05
-7.27648e-05
2.20813e-05
-7.52395e-05
2.39261e-05
-7.73822e-05
2.47996e-05
-7.92306e-05
2.49437e-05
-8.08199e-05
2.45531e-05
-8.21828e-05
2.37817e-05
-8.33489e-05
2.275e-05
-8.43449e-05
2.15505e-05
-8.51948e-05
2.02539e-05
-8.59192e-05
1.89133e-05
-8.65364e-05
1.75677e-05
1.6245e-05
-8.70626e-05
-7.51498e-07
-1.19044e-05
-1.66547e-06
-1.40573e-05
-2.72949e-06
-1.60833e-05
-3.95707e-06
-1.82698e-05
-5.36838e-06
-2.06635e-05
-6.98759e-06
-2.32753e-05
-8.84248e-06
-2.60969e-05
-1.09644e-05
-2.90978e-05
-1.33885e-05
-3.22165e-05
-1.61533e-05
-3.53447e-05
-1.93013e-05
-3.83054e-05
-2.28783e-05
-4.08195e-05
-2.69337e-05
-4.24578e-05
-3.15195e-05
-4.25715e-05
-3.57991e-05
-3.38825e-05
-4.0009e-05
-2.7188e-05
-4.41465e-05
-2.0134e-05
-4.82074e-05
-1.27387e-05
-5.21852e-05
-5.02688e-06
-5.60703e-05
2.96746e-06
-5.98489e-05
1.12e-05
-6.31905e-05
1.75804e-05
-6.60888e-05
2.18707e-05
-6.85936e-05
2.45895e-05
-7.07503e-05
2.60862e-05
-7.26003e-05
2.66529e-05
-7.41818e-05
2.65282e-05
-7.55293e-05
2.59035e-05
-7.66744e-05
2.49294e-05
-7.76451e-05
2.3723e-05
-7.84663e-05
2.23739e-05
-7.91603e-05
2.09497e-05
-7.97458e-05
1.95007e-05
-8.02397e-05
1.80635e-05
1.66635e-05
-8.06561e-05
-7.32114e-07
-1.11723e-05
-1.62112e-06
-1.31683e-05
-2.65569e-06
-1.50488e-05
-3.84938e-06
-1.70761e-05
-5.22198e-06
-1.92909e-05
-6.79697e-06
-2.17003e-05
-8.60109e-06
-2.42927e-05
-1.06642e-05
-2.70346e-05
-1.30194e-05
-2.98612e-05
-1.57026e-05
-3.26614e-05
-1.87522e-05
-3.52555e-05
-2.2209e-05
-3.73624e-05
-2.61147e-05
-3.85518e-05
-3.0511e-05
-3.81748e-05
-3.45905e-05
-2.98026e-05
-3.85782e-05
-2.31998e-05
-4.24696e-05
-1.62422e-05
-4.6258e-05
-8.9495e-06
-4.99351e-05
-1.34895e-06
-5.34892e-05
6.52284e-06
-5.69056e-05
1.46181e-05
-5.98885e-05
2.05653e-05
-6.2442e-05
2.44264e-05
-6.46197e-05
2.67695e-05
-6.64695e-05
2.79384e-05
-6.80345e-05
2.82204e-05
-6.93534e-05
2.78495e-05
-7.04606e-05
2.70129e-05
-7.13869e-05
2.58577e-05
-7.21595e-05
2.44973e-05
-7.28018e-05
2.30179e-05
-7.33347e-05
2.14841e-05
-7.37755e-05
1.99432e-05
-7.41396e-05
1.84293e-05
1.69656e-05
-7.444e-05
-7.16886e-07
-1.04556e-05
-1.58589e-06
-1.22995e-05
-2.59624e-06
-1.40386e-05
-3.76092e-06
-1.59116e-05
-5.09884e-06
-1.79532e-05
-6.63246e-06
-2.01669e-05
-8.3873e-06
-2.25381e-05
-1.03918e-05
-2.50303e-05
-1.26772e-05
-2.7576e-05
-1.52773e-05
-3.00616e-05
-1.82275e-05
-3.23055e-05
-2.15646e-05
-3.40255e-05
-2.53244e-05
-3.47922e-05
-2.95401e-05
-3.39593e-05
-3.3433e-05
-2.59099e-05
-3.72168e-05
-1.94161e-05
-4.08847e-05
-1.25744e-05
-4.44281e-05
-5.40611e-06
-4.78362e-05
2.05945e-06
-5.10958e-05
9.78291e-06
-5.41901e-05
1.77132e-05
-5.68539e-05
2.32302e-05
-5.90999e-05
2.66739e-05
-6.09849e-05
2.86562e-05
-6.25592e-05
2.95145e-05
-6.38673e-05
2.95303e-05
-6.49486e-05
2.89325e-05
-6.58377e-05
2.79037e-05
-6.65647e-05
2.65864e-05
-6.71561e-05
2.50901e-05
-6.76344e-05
2.34976e-05
-6.80191e-05
2.187e-05
-6.83265e-05
2.02519e-05
-6.85708e-05
1.8675e-05
1.71601e-05
-6.87638e-05
-6.99884e-07
-9.75592e-06
-1.54654e-06
-1.14531e-05
-2.53016e-06
-1.30553e-05
-3.66355e-06
-1.47785e-05
-4.9651e-06
-1.66519e-05
-6.45651e-06
-1.86758e-05
-8.1623e-06
-2.08327e-05
-1.01096e-05
-2.30834e-05
-1.2328e-05
-2.5358e-05
-1.48491e-05
-2.7541e-05
-1.77056e-05
-2.94494e-05
-2.09307e-05
-3.0801e-05
-2.45555e-05
-3.11679e-05
-2.8606e-05
-2.99093e-05
-3.23304e-05
-2.2186e-05
-3.59326e-05
-1.58143e-05
-3.94039e-05
-9.10358e-06
-4.2734e-05
-2.07634e-06
-4.59105e-05
5.23576e-06
-4.89183e-05
1.27907e-05
-5.17392e-05
2.05345e-05
-5.41333e-05
2.5625e-05
-5.61202e-05
2.86618e-05
-5.77588e-05
3.0296e-05
-5.91011e-05
3.08581e-05
-6.01925e-05
3.06231e-05
-6.1073e-05
2.98144e-05
-6.17771e-05
2.86091e-05
-6.23345e-05
2.71451e-05
-6.27708e-05
2.55275e-05
-6.31076e-05
2.38354e-05
-6.33635e-05
2.21268e-05
-6.35546e-05
2.04442e-05
-6.36954e-05
1.88169e-05
1.72624e-05
-6.37963e-05
-6.84886e-07
-9.07127e-06
-1.51066e-06
-1.06276e-05
-2.46887e-06
-1.20973e-05
-3.57218e-06
-1.36755e-05
-4.83842e-06
-1.53861e-05
-6.28847e-06
-1.72262e-05
-7.94588e-06
-1.91757e-05
-9.83657e-06
-2.11931e-05
-1.19887e-05
-2.32064e-05
-1.4432e-05
-2.50982e-05
-1.71972e-05
-2.66848e-05
-2.03144e-05
-2.76844e-05
-2.38113e-05
-2.76717e-05
-2.7709e-05
-2.60123e-05
-3.12812e-05
-1.86145e-05
-3.47226e-05
-1.23735e-05
-3.80232e-05
-5.80355e-06
-4.11713e-05
1.0713e-06
-4.41532e-05
8.21726e-06
-4.69524e-05
1.55898e-05
-4.95497e-05
2.31318e-05
-5.17254e-05
2.78011e-05
-5.3504e-05
3.04411e-05
-5.49456e-05
3.17384e-05
-5.61029e-05
3.20163e-05
-5.70221e-05
3.15434e-05
-5.77435e-05
3.05369e-05
-5.83017e-05
2.91684e-05
-5.87262e-05
2.75706e-05
-5.90423e-05
2.58444e-05
-5.92707e-05
2.40648e-05
-5.94293e-05
2.22862e-05
-5.95323e-05
2.05481e-05
-5.95909e-05
1.88766e-05
1.72882e-05
-5.96156e-05
-6.71106e-07
-8.4004e-06
-1.47442e-06
-9.82451e-06
-2.40575e-06
-1.11663e-05
-3.47792e-06
-1.26036e-05
-4.70823e-06
-1.41561e-05
-6.11678e-06
-1.5818e-05
-7.72609e-06
-1.75668e-05
-9.56096e-06
-1.93588e-05
-1.16481e-05
-2.11198e-05
-1.40158e-05
-2.27311e-05
-1.66928e-05
-2.40084e-05
-1.97071e-05
-2.46707e-05
-2.30836e-05
-2.42959e-05
-2.68401e-05
-2.22567e-05
-3.02745e-05
-1.51807e-05
-3.3574e-05
-9.07471e-06
-3.67274e-05
-2.65068e-06
-3.97223e-05
4.06563e-06
-4.25437e-05
1.10383e-05
-4.51747e-05
1.82205e-05
-4.75951e-05
2.55522e-05
-4.96013e-05
2.98076e-05
-5.12208e-05
3.2061e-05
-5.25137e-05
3.30319e-05
-5.35329e-05
3.30363e-05
-5.43245e-05
3.2336e-05
-5.49287e-05
3.1142e-05
-5.53799e-05
2.96204e-05
-5.57073e-05
2.78989e-05
-5.59356e-05
2.60736e-05
-5.60854e-05
2.42153e-05
-5.61737e-05
2.23752e-05
-5.62131e-05
2.05884e-05
-5.62142e-05
1.88785e-05
1.72617e-05
-5.61867e-05
-6.4396e-07
-7.75665e-06
-1.42449e-06
-9.04422e-06
-2.33114e-06
-1.02599e-05
-3.37485e-06
-1.15602e-05
-4.57173e-06
-1.29596e-05
-5.94081e-06
-1.44493e-05
-7.50359e-06
-1.60044e-05
-9.28372e-06
-1.75791e-05
-1.13068e-05
-1.90972e-05
-1.35999e-05
-2.04386e-05
-1.61904e-05
-2.14185e-05
-1.91049e-05
-2.17569e-05
-2.23662e-05
-2.10353e-05
-2.599e-05
-1.86336e-05
-2.92984e-05
-1.1873e-05
-3.24713e-05
-5.90237e-06
-3.54973e-05
3.74833e-07
-3.83632e-05
6.93111e-06
-4.10537e-05
1.37286e-05
-4.35514e-05
2.07181e-05
-4.58361e-05
2.78369e-05
-4.77163e-05
3.1688e-05
-4.92206e-05
3.35657e-05
-5.04083e-05
3.42202e-05
-5.13315e-05
3.39602e-05
-5.20358e-05
3.3041e-05
-5.25603e-05
3.16674e-05
-5.29389e-05
2.99998e-05
-5.32001e-05
2.81609e-05
-5.33681e-05
2.62423e-05
-5.34631e-05
2.4311e-05
-5.35015e-05
2.24143e-05
-5.34973e-05
2.05849e-05
-5.3462e-05
1.88441e-05
-5.34041e-05
1.72046e-05
0.000103406
3.25305e-05
8.61376e-05
3.26119e-05
6.8852e-05
3.26561e-05
5.17504e-05
3.2512e-05
3.50613e-05
3.21578e-05
1.90371e-05
3.15652e-05
3.88395e-06
3.07744e-05
-1.02638e-05
2.98723e-05
-2.34337e-05
2.90422e-05
-3.5905e-05
2.84864e-05
-4.81625e-05
2.84256e-05
-6.08709e-05
2.88018e-05
-7.40832e-05
2.86295e-05
-8.77195e-05
2.84304e-05
-0.000100921
2.73992e-05
-0.00011075
2.34504e-05
-0.000115336
1.7632e-05
-0.000114391
1.15123e-05
-0.000108799
6.27698e-06
-9.97899e-05
2.27129e-06
-8.89801e-05
-4.95082e-08
-9.48386e-07
-7.77306e-05
0.000688084
3.65002e-05
0.00068393
3.67596e-05
0.000678841
3.77403e-05
0.0006725
3.8853e-05
0.000664591
4.00686e-05
0.000654837
4.13254e-05
0.000643129
4.24939e-05
0.000629655
4.33589e-05
0.000615159
4.35481e-05
0.000601184
4.24604e-05
0.000590276
3.93153e-05
0.000585996
3.30236e-05
0.00059122
2.33128e-05
0.000607646
1.18736e-05
0.000636409
-1.57233e-06
0.000672755
-1.30979e-05
0.000715024
-2.48309e-05
0.000760931
-3.45873e-05
0.000807836
-4.08159e-05
0.000851736
-4.18032e-05
0.000887835
-3.62897e-05
-2.37767e-05
0.000910587
0.000297844
2.24518e-06
0.000329771
4.84548e-06
0.00036039
7.14334e-06
0.000389857
9.42055e-06
0.000418224
1.17492e-05
0.000445393
1.42148e-05
0.000471104
1.68559e-05
0.000494138
2.04144e-05
0.000513296
2.44973e-05
0.000529204
2.66757e-05
0.000542013
2.6639e-05
0.000552619
2.25104e-05
0.000559468
1.6496e-05
0.000561358
9.93902e-06
0.00055546
4.2226e-06
0.000541826
3.74417e-07
0.000518912
-2.11157e-06
0.000487607
-3.50688e-06
0.000450552
-4.01703e-06
0.000411856
-3.38978e-06
0.000377135
-1.80788e-06
2.0519e-06
0.00035113
0.000829575
-3.32044e-05
0.000868434
-3.42305e-05
0.000909884
-3.45504e-05
0.000953309
-3.42778e-05
0.00099786
-3.31053e-05
0.00104212
-3.03679e-05
0.00108372
-2.50903e-05
0.00111981
-1.60248e-05
0.00114451
-5.37345e-07
0.00115446
1.64345e-05
0.0011424
3.84529e-05
0.0011025
6.22654e-05
0.00103581
8.31222e-05
0.00094446
0.000101258
0.000832509
0.000116185
0.000705246
0.000127646
0.000567825
0.000135294
0.000425228
0.000139041
0.000282387
0.000138757
0.000144281
0.000134635
1.57936e-05
0.000126614
0.000115431
-9.77807e-05
0.000139416
-2.11393e-05
0.00012544
-2.02351e-05
0.000110287
-1.93732e-05
9.43438e-05
-1.83111e-05
7.82767e-05
-1.70166e-05
6.31178e-05
-1.51799e-05
5.03873e-05
-1.23244e-05
4.21814e-05
-7.76743e-06
4.0934e-05
7.72591e-07
4.20062e-05
1.54524e-05
4.49622e-05
3.56584e-05
4.95279e-05
5.79339e-05
5.49034e-05
7.80368e-05
6.03928e-05
9.60983e-05
6.56926e-05
0.000111217
7.0762e-05
0.000122864
7.55561e-05
0.000130729
8.00608e-05
0.000134681
8.40607e-05
0.000134848
8.68039e-05
0.000131931
8.684e-05
0.000126566
0.000119922
8.2299e-05
0.000218692
9.41233e-06
0.00018308
1.54479e-05
0.000141778
2.20119e-05
9.49966e-05
2.85625e-05
4.3275e-05
3.48034e-05
-1.23966e-05
4.05935e-05
-7.03447e-05
4.57331e-05
-0.000128328
5.03337e-05
-0.000182186
5.4757e-05
-0.000225868
5.92794e-05
-0.000255488