/*--------------------------------*- C++ -*----------------------------------*\
  =========                 |
  \\      /  F ield         | OpenFOAM: The Open Source CFD Toolbox
   \\    /   O peration     | Website:  https://openfoam.org
    \\  /    A nd           | Version:  8
     \\/     M anipulation  |
\*---------------------------------------------------------------------------*/
FoamFile
{
    version     2.0;
    format      ascii;
    class       volScalarField;
    location    "0.49";
    object      rho;
}
// * * * * * * * * * * * * * * * * * * * * * * * * * * * * * * * * * * * * * //

dimensions      [1 -3 0 0 0 0 0];

internalField   nonuniform List<scalar> 
15677
(
1.30286
1.30286
1.30252
1.30223
1.30189
1.30152
1.30112
1.30067
1.30018
1.29963
1.29892
1.29806
1.29709
1.29629
1.29591
1.29578
1.29576
1.2957
1.29561
1.29556
1.29552
1.29547
1.29543
1.29539
1.29537
1.29534
1.29533
1.29531
1.2953
1.29531
1.29532
1.29535
1.29539
1.29545
1.29552
1.09163
1.09108
1.09035
1.08948
1.08864
1.08787
1.08711
1.0863
1.0854
1.08452
1.08394
1.08412
1.08512
1.08659
1.08752
1.08772
1.08769
1.08778
1.08787
1.08782
1.0876
1.0872
1.08673
1.08623
1.08571
1.08522
1.08476
1.08435
1.08399
1.08368
1.08342
1.08319
1.08301
1.08285
1.08269
1.23032
1.23056
1.23061
1.23048
1.23014
1.22952
1.22865
1.22762
1.22656
1.22575
1.22557
1.22568
1.22688
1.22896
1.23048
1.23059
1.23043
1.23082
1.23167
1.23321
1.23534
1.23742
1.23909
1.24027
1.24109
1.24167
1.2421
1.24243
1.2427
1.24293
1.24313
1.24331
1.24346
1.24359
1.24372
1.12811
1.12845
1.12868
1.12887
1.12901
1.1291
1.12912
1.12903
1.12877
1.1284
1.12809
1.1282
1.12854
1.12884
1.12897
1.12881
1.12804
1.12731
1.12709
1.1272
1.12738
1.12736
1.1272
1.1269
1.12658
1.12626
1.12592
1.12558
1.12524
1.12488
1.12451
1.12416
1.12382
1.1235
1.1232
1.19755
1.19785
1.19812
1.1984
1.19872
1.1991
1.19954
1.20005
1.20061
1.20117
1.20172
1.20225
1.2026
1.20285
1.20299
1.20295
1.20274
1.20229
1.20198
1.20189
1.20214
1.20239
1.20254
1.20272
1.20293
1.20316
1.20338
1.2036
1.2038
1.20398
1.20413
1.20424
1.20432
1.20438
1.20442
1.15378
1.15382
1.15385
1.15383
1.15376
1.15364
1.15346
1.15321
1.1529
1.15257
1.15225
1.15193
1.15157
1.15123
1.15096
1.15067
1.15034
1.15005
1.14976
1.14949
1.14927
1.14909
1.14894
1.14877
1.14858
1.14837
1.14816
1.14798
1.14783
1.14772
1.14766
1.14764
1.14766
1.14768
1.14771
1.18697
1.1869
1.18681
1.18672
1.18665
1.18662
1.18665
1.18673
1.18686
1.18703
1.18724
1.18748
1.18774
1.18798
1.18815
1.18821
1.1882
1.18811
1.18795
1.1878
1.18767
1.1876
1.18758
1.1876
1.18768
1.18777
1.18786
1.18796
1.18805
1.18815
1.18825
1.18835
1.18847
1.18858
1.18867
1.16092
1.1608
1.16072
1.16066
1.16059
1.16054
1.16054
1.16062
1.16076
1.16091
1.16107
1.1612
1.16128
1.16133
1.16133
1.1613
1.16124
1.16115
1.16105
1.16093
1.16079
1.16065
1.16053
1.16044
1.1604
1.16038
1.16038
1.16042
1.16047
1.16052
1.16056
1.1606
1.16065
1.16069
1.16073
1.17857
1.1788
1.17908
1.17929
1.1794
1.17945
1.17943
1.17938
1.1793
1.17921
1.1791
1.17898
1.17887
1.17876
1.17869
1.17863
1.17861
1.17861
1.17865
1.17871
1.17881
1.17893
1.17907
1.17922
1.17937
1.17952
1.17966
1.17972
1.17979
1.17986
1.17991
1.17994
1.17996
1.17997
1.17997
1.16743
1.16744
1.16744
1.16744
1.16743
1.16742
1.16741
1.16741
1.16742
1.16744
1.16747
1.16751
1.16753
1.16754
1.16752
1.16749
1.16744
1.16738
1.16731
1.16723
1.16715
1.16707
1.167
1.16694
1.1669
1.16691
1.16694
1.167
1.16707
1.16712
1.16717
1.16723
1.16728
1.16733
1.16739
1.17491
1.17492
1.17492
1.17492
1.17491
1.1749
1.17489
1.17487
1.17483
1.17479
1.17475
1.1747
1.17465
1.1746
1.17458
1.17457
1.17457
1.17459
1.17463
1.17468
1.17474
1.17481
1.17489
1.17497
1.17505
1.17512
1.17514
1.17517
1.17519
1.17521
1.17523
1.17524
1.17526
1.17527
1.17527
1.17025
1.17027
1.17028
1.1703
1.17031
1.17033
1.17035
1.17037
1.17039
1.17041
1.17043
1.17044
1.17045
1.17045
1.17044
1.17042
1.17039
1.17035
1.1703
1.17025
1.1702
1.17014
1.1701
1.17006
1.17002
1.17002
1.17006
1.17009
1.17012
1.17015
1.17018
1.17022
1.17025
1.17028
1.17032
1.17325
1.17325
1.17326
1.17326
1.17326
1.17325
1.17325
1.17324
1.17323
1.17321
1.17319
1.17317
1.17315
1.17312
1.17311
1.1731
1.1731
1.1731
1.1731
1.17311
1.17312
1.17314
1.17316
1.17318
1.17321
1.17321
1.17321
1.17321
1.17322
1.17322
1.17322
1.17322
1.17321
1.17321
1.17321
1.17169
1.1717
1.17171
1.17172
1.17172
1.17173
1.17173
1.17173
1.17174
1.17174
1.17175
1.17175
1.17176
1.17177
1.17176
1.17174
1.17172
1.1717
1.17167
1.17163
1.17158
1.17154
1.17149
1.17146
1.17142
1.17142
1.17141
1.17141
1.17141
1.17142
1.17143
1.17144
1.17145
1.17146
1.17147
1.17285
1.17285
1.17286
1.17286
1.17285
1.17285
1.17285
1.17284
1.17283
1.17282
1.17281
1.1728
1.17278
1.17276
1.17275
1.17274
1.17273
1.17272
1.17271
1.17269
1.17268
1.17266
1.17264
1.17263
1.17263
1.1726
1.17259
1.17258
1.17257
1.17256
1.17255
1.17255
1.17254
1.17254
1.17253
1.17243
1.17244
1.17245
1.17245
1.17245
1.17245
1.17244
1.17244
1.17243
1.17243
1.17243
1.17244
1.17244
1.17244
1.17243
1.17242
1.17241
1.17239
1.17236
1.17233
1.17229
1.17224
1.1722
1.17216
1.17213
1.17211
1.17209
1.17207
1.17206
1.17206
1.17205
1.17205
1.17205
1.17205
1.17204
1.17291
1.17292
1.17292
1.17292
1.17291
1.17291
1.1729
1.17289
1.17289
1.17288
1.17287
1.17286
1.17285
1.17284
1.17284
1.17283
1.17282
1.1728
1.17279
1.17277
1.17274
1.17271
1.17268
1.17266
1.17263
1.17261
1.17259
1.17257
1.17255
1.17254
1.17253
1.17252
1.17252
1.17251
1.17249
1.17286
1.17287
1.17287
1.17287
1.17287
1.17287
1.17286
1.17286
1.17286
1.17286
1.17285
1.17285
1.17285
1.17285
1.17284
1.17284
1.17283
1.17282
1.1728
1.17277
1.17274
1.17271
1.17267
1.17264
1.17261
1.17258
1.17255
1.17253
1.17252
1.1725
1.17249
1.17249
1.17248
1.17248
1.17246
1.17312
1.17312
1.17312
1.17312
1.17311
1.17311
1.1731
1.1731
1.17309
1.17308
1.17308
1.17307
1.17306
1.17306
1.17305
1.17305
1.17304
1.17303
1.17302
1.173
1.17298
1.17295
1.17293
1.1729
1.17287
1.17285
1.17282
1.1728
1.17279
1.17277
1.17276
1.17275
1.17274
1.17273
1.17272
1.17318
1.17319
1.17319
1.17319
1.17318
1.17318
1.17317
1.17317
1.17316
1.17316
1.17315
1.17315
1.17315
1.17314
1.17314
1.17314
1.17313
1.17313
1.17312
1.1731
1.17308
1.17306
1.17303
1.17301
1.17298
1.17296
1.17293
1.17291
1.1729
1.17288
1.17287
1.17286
1.17285
1.17285
1.17284
1.17333
1.17334
1.17334
1.17334
1.17333
1.17333
1.17332
1.17331
1.1733
1.1733
1.17329
1.17328
1.17328
1.17328
1.17327
1.17327
1.17327
1.17327
1.17326
1.17325
1.17324
1.17322
1.1732
1.17318
1.17316
1.17313
1.17311
1.1731
1.17308
1.17307
1.17305
1.17304
1.17304
1.17303
1.17302
1.17343
1.17343
1.17343
1.17342
1.17342
1.17341
1.17341
1.1734
1.17339
1.17339
1.17338
1.17337
1.17337
1.17337
1.17337
1.17337
1.17337
1.17336
1.17336
1.17336
1.17335
1.17333
1.17332
1.1733
1.17328
1.17326
1.17324
1.17323
1.17321
1.1732
1.17319
1.17318
1.17317
1.17316
1.17316
1.17353
1.17353
1.17353
1.17353
1.17352
1.17352
1.17351
1.1735
1.17349
1.17349
1.17348
1.17347
1.17347
1.17346
1.17346
1.17346
1.17346
1.17346
1.17346
1.17346
1.17345
1.17344
1.17343
1.17342
1.1734
1.17339
1.17337
1.17336
1.17335
1.17334
1.17333
1.17332
1.17331
1.1733
1.1733
1.17361
1.17362
1.17362
1.17361
1.1736
1.1736
1.17359
1.17358
1.17357
1.17357
1.17356
1.17355
1.17355
1.17354
1.17354
1.17354
1.17354
1.17354
1.17354
1.17354
1.17354
1.17353
1.17352
1.17351
1.1735
1.17349
1.17348
1.17347
1.17346
1.17345
1.17344
1.17343
1.17343
1.17342
1.17342
1.17369
1.1737
1.1737
1.17369
1.17368
1.17368
1.17367
1.17366
1.17365
1.17364
1.17363
1.17363
1.17362
1.17362
1.17361
1.17361
1.17361
1.17361
1.17361
1.17361
1.17361
1.17361
1.17361
1.1736
1.17359
1.17358
1.17358
1.17357
1.17356
1.17355
1.17354
1.17354
1.17353
1.17353
1.17353
1.17376
1.17377
1.17376
1.17376
1.17375
1.17374
1.17373
1.17373
1.17372
1.17371
1.1737
1.17369
1.17368
1.17368
1.17368
1.17367
1.17367
1.17367
1.17367
1.17368
1.17368
1.17368
1.17367
1.17367
1.17366
1.17366
1.17365
1.17365
1.17364
1.17364
1.17363
1.17363
1.17362
1.17362
1.17362
1.17383
1.17383
1.17383
1.17382
1.17381
1.1738
1.1738
1.17379
1.17378
1.17377
1.17376
1.17375
1.17374
1.17374
1.17373
1.17373
1.17373
1.17373
1.17373
1.17373
1.17373
1.17373
1.17373
1.17373
1.17373
1.17372
1.17372
1.17372
1.17371
1.17371
1.17371
1.1737
1.1737
1.1737
1.1737
1.17388
1.17389
1.17388
1.17388
1.17387
1.17386
1.17385
1.17384
1.17383
1.17382
1.17381
1.1738
1.17379
1.17379
1.17378
1.17378
1.17377
1.17377
1.17377
1.17377
1.17377
1.17377
1.17378
1.17378
1.17378
1.17377
1.17377
1.17377
1.17377
1.17377
1.17377
1.17377
1.17377
1.17377
1.17377
1.17394
1.17394
1.17393
1.17393
1.17392
1.17391
1.1739
1.17389
1.17388
1.17387
1.17386
1.17385
1.17384
1.17383
1.17382
1.17382
1.17381
1.17381
1.17381
1.17381
1.17381
1.17381
1.17381
1.17382
1.17382
1.17382
1.17382
1.17382
1.17382
1.17382
1.17382
1.17382
1.17382
1.17382
1.17382
1.17398
1.17398
1.17398
1.17397
1.17396
1.17395
1.17394
1.17393
1.17392
1.17391
1.1739
1.17389
1.17388
1.17387
1.17386
1.17385
1.17385
1.17385
1.17384
1.17384
1.17384
1.17384
1.17385
1.17385
1.17385
1.17385
1.17386
1.17386
1.17386
1.17386
1.17386
1.17387
1.17387
1.17387
1.17387
1.29578
1.29646
1.29708
1.29778
1.29853
1.29933
1.30018
1.30109
1.302
1.30291
1.3038
1.30462
1.30533
1.30588
1.30637
1.30687
1.30739
1.30804
1.30873
1.30975
1.31094
1.31269
1.08252
1.08212
1.08166
1.08126
1.08087
1.0805
1.08017
1.07987
1.07961
1.07935
1.07904
1.0786
1.07798
1.07718
1.0761
1.07464
1.0732
1.07181
1.07055
1.06952
1.06884
1.06869
1.24375
1.24396
1.24426
1.2446
1.24499
1.24545
1.24598
1.24659
1.2473
1.24815
1.24911
1.25011
1.25095
1.25152
1.25175
1.25169
1.25133
1.25074
1.24995
1.24888
1.24777
1.24701
1.123
1.12258
1.12203
1.12143
1.12078
1.1201
1.11946
1.11889
1.11841
1.11809
1.11786
1.11781
1.11809
1.1186
1.11922
1.11987
1.12038
1.12065
1.1207
1.12063
1.12053
1.12048
1.20438
1.20424
1.20414
1.20402
1.20383
1.20359
1.20331
1.20302
1.20272
1.20241
1.20238
1.20278
1.20361
1.20481
1.20616
1.20747
1.20854
1.20928
1.20967
1.20979
1.20955
1.20883
1.14787
1.14797
1.14805
1.14816
1.14827
1.14836
1.14841
1.14846
1.14851
1.1486
1.14875
1.14897
1.14929
1.14972
1.15028
1.15094
1.15165
1.15239
1.15314
1.15386
1.1546
1.15535
1.18873
1.18871
1.18874
1.18879
1.1888
1.18877
1.18868
1.18848
1.18817
1.18777
1.18729
1.18677
1.18623
1.18568
1.18512
1.18459
1.18408
1.18359
1.18314
1.18273
1.18236
1.182
1.16089
1.16111
1.16134
1.16159
1.16186
1.16217
1.16252
1.16291
1.16331
1.16372
1.16414
1.16458
1.165
1.16539
1.16575
1.16609
1.1664
1.1667
1.16698
1.16725
1.16748
1.16771
1.17985
1.1797
1.17955
1.1794
1.17922
1.17903
1.17883
1.1786
1.17836
1.17811
1.17783
1.17754
1.17725
1.17698
1.17671
1.17647
1.17624
1.17603
1.17584
1.17564
1.17545
1.17523
1.16756
1.16776
1.16797
1.1682
1.16844
1.16869
1.16895
1.16922
1.16949
1.16976
1.17002
1.17026
1.17047
1.17065
1.17081
1.17095
1.17107
1.17119
1.17128
1.17136
1.17143
1.17148
1.1752
1.1751
1.175
1.17491
1.17481
1.17471
1.1746
1.1745
1.17439
1.17429
1.17418
1.17408
1.17398
1.17389
1.17379
1.1737
1.17361
1.17353
1.17346
1.17339
1.17331
1.17323
1.17045
1.17057
1.17069
1.17082
1.17096
1.1711
1.17124
1.17139
1.17153
1.17167
1.17181
1.17193
1.17204
1.17213
1.1722
1.17226
1.17231
1.17234
1.17237
1.17239
1.17241
1.17241
1.17319
1.17314
1.1731
1.17306
1.17302
1.17299
1.17296
1.17293
1.17291
1.17289
1.17287
1.17286
1.17284
1.17283
1.17283
1.17282
1.17281
1.17279
1.17278
1.17276
1.17274
1.17272
1.17153
1.17158
1.17164
1.1717
1.17177
1.17184
1.17191
1.17198
1.17205
1.17212
1.17219
1.17226
1.17231
1.17237
1.17241
1.17245
1.17249
1.17251
1.17253
1.17255
1.17256
1.17257
1.17253
1.17248
1.17246
1.17244
1.17243
1.17242
1.17241
1.17241
1.17242
1.17243
1.17244
1.17246
1.17248
1.1725
1.17252
1.17254
1.17255
1.17257
1.17258
1.17259
1.1726
1.17261
1.17208
1.17208
1.17209
1.1721
1.17212
1.17214
1.17217
1.17219
1.17222
1.17226
1.17229
1.17233
1.17236
1.1724
1.17243
1.17246
1.17249
1.17251
1.17254
1.17255
1.17257
1.1726
1.1725
1.17246
1.17243
1.17241
1.1724
1.17238
1.17237
1.17237
1.17237
1.17238
1.17239
1.1724
1.17242
1.17245
1.17247
1.17249
1.17251
1.17253
1.17256
1.17257
1.17259
1.17263
1.17248
1.17245
1.17244
1.17243
1.17242
1.17241
1.17241
1.17241
1.17241
1.17242
1.17243
1.17244
1.17246
1.17248
1.1725
1.17252
1.17254
1.17256
1.17258
1.1726
1.17262
1.17266
1.17272
1.17268
1.17265
1.17262
1.1726
1.17258
1.17257
1.17255
1.17254
1.17254
1.17254
1.17254
1.17255
1.17256
1.17257
1.17259
1.17261
1.17262
1.17264
1.17266
1.17268
1.17271
1.17283
1.1728
1.17277
1.17275
1.17273
1.17271
1.17269
1.17267
1.17266
1.17265
1.17265
1.17265
1.17265
1.17266
1.17266
1.17268
1.17269
1.1727
1.17272
1.17273
1.17275
1.17278
1.173
1.17297
1.17294
1.17291
1.17288
1.17285
1.17283
1.17281
1.1728
1.17278
1.17277
1.17277
1.17277
1.17277
1.17277
1.17278
1.17279
1.1728
1.17281
1.17282
1.17283
1.17287
1.17314
1.17311
1.17308
1.17304
1.17302
1.17299
1.17297
1.17295
1.17293
1.17291
1.1729
1.17289
1.17288
1.17288
1.17288
1.17289
1.17289
1.1729
1.17291
1.17292
1.17293
1.17296
1.17328
1.17325
1.17321
1.17318
1.17315
1.17312
1.1731
1.17307
1.17305
1.17303
1.17302
1.173
1.173
1.17299
1.17299
1.17299
1.173
1.173
1.17301
1.17302
1.17302
1.17305
1.17339
1.17337
1.17333
1.1733
1.17327
1.17324
1.17322
1.17319
1.17317
1.17314
1.17313
1.17311
1.17311
1.1731
1.1731
1.1731
1.1731
1.1731
1.17311
1.17311
1.17312
1.17314
1.1735
1.17348
1.17345
1.17341
1.17338
1.17336
1.17333
1.1733
1.17327
1.17325
1.17323
1.17322
1.1732
1.1732
1.17319
1.17319
1.17319
1.17319
1.1732
1.1732
1.17321
1.17322
1.17359
1.17357
1.17354
1.17352
1.17349
1.17346
1.17343
1.1734
1.17338
1.17335
1.17333
1.17331
1.1733
1.17329
1.17328
1.17327
1.17327
1.17327
1.17328
1.17328
1.17328
1.17329
1.17368
1.17366
1.17363
1.17361
1.17358
1.17355
1.17352
1.1735
1.17347
1.17344
1.17342
1.1734
1.17338
1.17337
1.17336
1.17335
1.17335
1.17335
1.17335
1.17335
1.17335
1.17335
1.17375
1.17373
1.17371
1.17369
1.17366
1.17364
1.17361
1.17358
1.17356
1.17353
1.17351
1.17348
1.17346
1.17345
1.17344
1.17343
1.17342
1.17342
1.17341
1.17341
1.17341
1.17341
1.17381
1.17379
1.17378
1.17376
1.17374
1.17371
1.17369
1.17366
1.17364
1.17361
1.17359
1.17356
1.17354
1.17352
1.17351
1.1735
1.17349
1.17348
1.17348
1.17347
1.17347
1.17346
1.17387
1.17385
1.17384
1.17382
1.1738
1.17378
1.17376
1.17374
1.17371
1.17369
1.17366
1.17364
1.17362
1.1736
1.17358
1.17356
1.17355
1.17354
1.17353
1.17353
1.17352
1.17351
1.31424
1.31554
1.31674
1.31733
1.31728
1.31628
1.06926
1.07054
1.07225
1.07419
1.0758
1.07678
1.24649
1.24662
1.24722
1.24827
1.24943
1.25029
1.12046
1.12043
1.12058
1.12092
1.12163
1.12289
1.20783
1.20677
1.20572
1.20477
1.20387
1.20294
1.15584
1.15612
1.15634
1.1565
1.15664
1.15682
1.18174
1.18156
1.18137
1.18119
1.18102
1.18087
1.16787
1.16792
1.16797
1.16801
1.16805
1.16807
1.17508
1.17494
1.1748
1.17466
1.17454
1.17445
1.17153
1.17151
1.17148
1.17145
1.1714
1.17135
1.17318
1.17311
1.17306
1.17301
1.17296
1.17289
1.17242
1.1724
1.17238
1.17235
1.17232
1.17228
1.1727
1.17268
1.17265
1.17263
1.1726
1.17257
1.17256
1.17256
1.17255
1.17254
1.17253
1.17253
1.17259
1.17261
1.17261
1.17261
1.17261
1.17261
1.17258
1.17261
1.17262
1.17263
1.17264
1.17267
1.1726
1.17265
1.17267
1.17269
1.1727
1.17274
1.17264
1.17269
1.17272
1.17274
1.17277
1.17282
1.17269
1.17275
1.17278
1.17281
1.17284
1.1729
1.17276
1.17282
1.17286
1.17289
1.17293
1.17299
1.17285
1.17291
1.17295
1.17298
1.17302
1.17308
1.17294
1.173
1.17304
1.17307
1.17311
1.17317
1.17304
1.1731
1.17313
1.17317
1.1732
1.17326
1.17314
1.17319
1.17322
1.17326
1.17329
1.17334
1.17323
1.17327
1.1733
1.17334
1.17337
1.17341
1.17331
1.17334
1.17337
1.1734
1.17343
1.17346
1.17338
1.17341
1.17343
1.17346
1.17349
1.17351
1.17344
1.17346
1.17349
1.17351
1.17354
1.17355
1.1735
1.17351
1.17353
1.17356
1.17358
1.17358
1.17355
1.17356
1.17358
1.1736
1.17362
1.17361
1.3152
1.31373
1.31262
1.31134
1.3101
1.30878
1.30752
1.30678
1.30631
1.30596
1.30578
1.3055
1.30498
1.30444
1.30384
1.3031
1.30235
1.30164
1.30091
1.30018
1.29945
1.29876
1.07715
1.07697
1.07691
1.07665
1.07614
1.07553
1.07516
1.07507
1.07506
1.07515
1.07532
1.07565
1.07612
1.07662
1.07716
1.07781
1.07868
1.07961
1.08051
1.08133
1.08204
1.08257
1.25031
1.24988
1.24935
1.24871
1.24775
1.24661
1.2456
1.24471
1.24391
1.24322
1.24264
1.24213
1.24174
1.2415
1.24134
1.24126
1.24115
1.24103
1.24092
1.24076
1.24056
1.24027
1.12423
1.12551
1.12678
1.12787
1.12864
1.12899
1.12898
1.12875
1.12844
1.12814
1.12781
1.12747
1.12718
1.12711
1.12693
1.12669
1.12637
1.12607
1.12583
1.12559
1.12537
1.12518
1.20237
1.20211
1.20199
1.20205
1.20227
1.20261
1.20299
1.20337
1.20377
1.20416
1.20457
1.20501
1.20548
1.20598
1.20644
1.20668
1.20664
1.20639
1.20605
1.2057
1.20539
1.20517
1.15688
1.15682
1.15682
1.1568
1.15676
1.15665
1.15647
1.15622
1.1559
1.15548
1.15498
1.15443
1.15392
1.15337
1.15284
1.15238
1.15204
1.15176
1.1515
1.15123
1.15097
1.15069
1.18089
1.18105
1.18124
1.18148
1.18174
1.182
1.18227
1.18254
1.18282
1.18312
1.18345
1.18383
1.18423
1.18464
1.18503
1.18541
1.18575
1.18608
1.18639
1.18667
1.18693
1.18716
1.16803
1.16791
1.16779
1.16765
1.16749
1.16729
1.16705
1.16678
1.16649
1.16616
1.16582
1.16544
1.16505
1.16466
1.16427
1.16388
1.1635
1.16314
1.16278
1.16244
1.16211
1.16178
1.17446
1.1745
1.17454
1.1746
1.17466
1.17473
1.17481
1.17491
1.17503
1.17517
1.17534
1.17553
1.17574
1.17596
1.17618
1.1764
1.17662
1.17684
1.17705
1.17725
1.17746
1.17767
1.17133
1.17124
1.17116
1.17107
1.17097
1.17086
1.17074
1.1706
1.17045
1.17029
1.17009
1.16988
1.16967
1.16947
1.16927
1.16907
1.16888
1.16869
1.1685
1.16832
1.16815
1.16799
1.17288
1.17285
1.17284
1.17283
1.17283
1.17284
1.17285
1.17288
1.17292
1.17297
1.17303
1.17311
1.17319
1.17328
1.17339
1.1735
1.17362
1.17375
1.17387
1.174
1.17413
1.17426
1.17226
1.17221
1.17217
1.17213
1.17209
1.17205
1.17201
1.17196
1.17192
1.17187
1.17181
1.17175
1.17168
1.17162
1.17155
1.17148
1.1714
1.17133
1.17125
1.17118
1.17112
1.17106
1.17255
1.17254
1.17254
1.17253
1.17253
1.17253
1.17254
1.17255
1.17257
1.1726
1.17263
1.17267
1.17273
1.17279
1.17285
1.17292
1.17299
1.17307
1.17315
1.17323
1.17331
1.17339
1.17251
1.1725
1.1725
1.1725
1.17249
1.17249
1.17249
1.1725
1.1725
1.17251
1.17252
1.17254
1.17255
1.17256
1.17256
1.17257
1.17257
1.17257
1.17257
1.17257
1.17257
1.17257
1.17259
1.17261
1.17262
1.17263
1.17265
1.17267
1.17269
1.17271
1.17275
1.17278
1.17282
1.17287
1.17292
1.17297
1.17302
1.17308
1.17314
1.1732
1.17326
1.17333
1.17339
1.17344
1.17265
1.17268
1.1727
1.17272
1.17274
1.17277
1.1728
1.17283
1.17287
1.17291
1.17295
1.173
1.17304
1.17309
1.17313
1.17317
1.17321
1.17324
1.17328
1.1733
1.17333
1.17333
1.17272
1.17277
1.1728
1.17283
1.17286
1.1729
1.17294
1.17299
1.17304
1.17309
1.17314
1.1732
1.17326
1.17332
1.17337
1.17342
1.17347
1.17352
1.17356
1.1736
1.17364
1.17365
1.1728
1.17286
1.17289
1.17293
1.17298
1.17302
1.17307
1.17312
1.17318
1.17323
1.17329
1.17335
1.17341
1.17346
1.1735
1.17355
1.17358
1.17361
1.17364
1.17366
1.17367
1.17367
1.17288
1.17295
1.173
1.17304
1.17309
1.17314
1.1732
1.17325
1.17331
1.17337
1.17343
1.17348
1.17353
1.17358
1.17362
1.17366
1.17368
1.17371
1.17373
1.17374
1.17376
1.17375
1.17298
1.17305
1.1731
1.17315
1.1732
1.17326
1.17331
1.17337
1.17342
1.17348
1.17353
1.17358
1.17362
1.17366
1.17369
1.17371
1.17373
1.17375
1.17375
1.17376
1.17376
1.17376
1.17307
1.17315
1.1732
1.17325
1.17331
1.17336
1.17342
1.17347
1.17352
1.17357
1.17361
1.17365
1.17368
1.17371
1.17373
1.17375
1.17376
1.17376
1.17377
1.17377
1.17377
1.17377
1.17317
1.17325
1.1733
1.17335
1.1734
1.17345
1.1735
1.17355
1.17359
1.17363
1.17367
1.17369
1.17372
1.17374
1.17375
1.17376
1.17376
1.17377
1.17377
1.17376
1.17376
1.17376
1.17327
1.17334
1.17339
1.17343
1.17348
1.17353
1.17357
1.17361
1.17364
1.17367
1.1737
1.17372
1.17374
1.17375
1.17376
1.17376
1.17376
1.17376
1.17376
1.17376
1.17376
1.17376
1.17335
1.17342
1.17346
1.1735
1.17354
1.17358
1.17362
1.17365
1.17368
1.1737
1.17372
1.17374
1.17375
1.17376
1.17376
1.17376
1.17376
1.17376
1.17376
1.17376
1.17375
1.17377
1.17343
1.17348
1.17352
1.17356
1.17359
1.17363
1.17366
1.17368
1.1737
1.17372
1.17374
1.17375
1.17376
1.17376
1.17376
1.17376
1.17376
1.17376
1.17376
1.17376
1.17376
1.17378
1.17349
1.17354
1.17357
1.1736
1.17363
1.17366
1.17368
1.1737
1.17372
1.17374
1.17375
1.17376
1.17376
1.17377
1.17377
1.17377
1.17377
1.17377
1.17377
1.17377
1.17378
1.1738
1.17354
1.17358
1.17361
1.17364
1.17366
1.17369
1.17371
1.17372
1.17374
1.17375
1.17376
1.17377
1.17377
1.17378
1.17378
1.17378
1.17379
1.17379
1.17379
1.17379
1.1738
1.17382
1.17359
1.17362
1.17364
1.17367
1.17369
1.17371
1.17373
1.17374
1.17376
1.17377
1.17378
1.17379
1.17379
1.1738
1.1738
1.17381
1.17381
1.17381
1.17382
1.17382
1.17383
1.17385
1.17363
1.17365
1.17367
1.1737
1.17372
1.17373
1.17375
1.17377
1.17378
1.17379
1.1738
1.17381
1.17382
1.17382
1.17383
1.17383
1.17384
1.17384
1.17385
1.17385
1.17386
1.17389
1.17367
1.17368
1.1737
1.17372
1.17374
1.17376
1.17378
1.17379
1.17381
1.17382
1.17383
1.17384
1.17385
1.17385
1.17386
1.17387
1.17387
1.17388
1.17388
1.17389
1.1739
1.17392
1.29846
1.29834
1.29824
1.29815
1.29807
1.29798
1.29792
1.29787
1.29784
1.29786
1.29792
1.29803
1.29824
1.29859
1.29895
1.29933
1.29954
1.29971
1.3
1.30045
1.30109
1.30194
1.30296
1.30366
1.30421
1.3047
1.30513
1.30556
1.30597
1.30635
1.30668
1.30696
1.30717
1.30733
1.30712
1.08277
1.08292
1.08303
1.08311
1.08316
1.08318
1.08318
1.08319
1.08321
1.08325
1.08327
1.08323
1.08329
1.08348
1.08379
1.08428
1.08483
1.08524
1.08533
1.08483
1.08388
1.08258
1.08114
1.08076
1.08106
1.08162
1.08242
1.08321
1.08391
1.08463
1.08541
1.08629
1.08719
1.08791
1.08826
1.24001
1.23964
1.23925
1.23883
1.23837
1.23786
1.23734
1.23692
1.23666
1.23652
1.23645
1.23646
1.2361
1.23524
1.23393
1.23236
1.23079
1.22935
1.22813
1.22701
1.22555
1.22333
1.2216
1.22092
1.22087
1.22141
1.22249
1.22369
1.22477
1.22561
1.22617
1.22649
1.22662
1.22661
1.22658
1.12502
1.12504
1.12514
1.12537
1.12575
1.12627
1.12694
1.12771
1.12852
1.12929
1.12999
1.13049
1.1309
1.13124
1.13153
1.13194
1.13236
1.1327
1.13301
1.13324
1.13343
1.13368
1.13376
1.13375
1.1339
1.13424
1.13456
1.1347
1.13471
1.13465
1.13456
1.13444
1.13428
1.1341
1.13382
1.20496
1.20478
1.20464
1.20454
1.20445
1.20433
1.20417
1.20399
1.20379
1.20355
1.20322
1.2028
1.20233
1.20181
1.20122
1.20066
1.20018
1.19977
1.19939
1.19907
1.19878
1.19849
1.19828
1.19791
1.19744
1.19698
1.19644
1.19591
1.19542
1.195
1.19463
1.19431
1.19404
1.19382
1.19363
1.15048
1.15042
1.15036
1.15027
1.15016
1.15006
1.14996
1.14988
1.14982
1.14976
1.14972
1.14983
1.15003
1.15031
1.15065
1.15098
1.1513
1.15163
1.15198
1.15236
1.15278
1.1533
1.15384
1.1543
1.15466
1.15503
1.15545
1.1558
1.15607
1.15624
1.15635
1.15639
1.1564
1.15638
1.15634
1.18731
1.18737
1.18743
1.18745
1.1874
1.1873
1.18715
1.18697
1.1868
1.1867
1.18665
1.18653
1.18646
1.18638
1.18629
1.18624
1.1862
1.18619
1.1862
1.18622
1.18623
1.18622
1.1862
1.18616
1.18612
1.18607
1.18604
1.18602
1.18601
1.186
1.18599
1.18598
1.18597
1.18596
1.18595
1.16146
1.16135
1.16127
1.16119
1.16113
1.16107
1.16103
1.16099
1.16094
1.16086
1.16079
1.16079
1.16082
1.16091
1.16109
1.16131
1.16154
1.16177
1.16201
1.16222
1.16241
1.16258
1.1627
1.16278
1.16282
1.16285
1.16287
1.16287
1.16286
1.16285
1.16283
1.16281
1.16278
1.16276
1.16273
1.1778
1.17785
1.17789
1.17794
1.17799
1.17804
1.1781
1.17816
1.17823
1.17828
1.17832
1.17833
1.17838
1.1783
1.17823
1.17818
1.17814
1.1781
1.17806
1.17803
1.17803
1.17805
1.1781
1.17816
1.17822
1.17828
1.17833
1.17836
1.17839
1.1784
1.17842
1.17842
1.17843
1.17844
1.17845
1.1678
1.16775
1.16771
1.16766
1.16762
1.16757
1.16753
1.16748
1.16744
1.16741
1.16738
1.16735
1.16729
1.16732
1.16741
1.16752
1.16763
1.16773
1.16783
1.16793
1.16801
1.16808
1.16812
1.16814
1.16814
1.16813
1.16812
1.1681
1.16808
1.16806
1.16804
1.16802
1.168
1.16798
1.16796
1.17434
1.17436
1.17439
1.17443
1.17446
1.1745
1.17454
1.17459
1.17464
1.1747
1.17476
1.17483
1.17489
1.17495
1.17495
1.1749
1.17487
1.17484
1.17481
1.17478
1.17475
1.17474
1.17474
1.17476
1.17479
1.17481
1.17484
1.17486
1.17488
1.1749
1.17491
1.17491
1.17492
1.17493
1.17493
1.17098
1.17096
1.17094
1.17092
1.1709
1.17087
1.17086
1.17084
1.17082
1.17079
1.17077
1.17074
1.17072
1.17068
1.17067
1.17071
1.17075
1.17078
1.17081
1.17083
1.17084
1.17086
1.17086
1.17086
1.17086
1.17086
1.17085
1.17084
1.17084
1.17083
1.17083
1.17082
1.17081
1.1708
1.17078
1.17346
1.17348
1.1735
1.17352
1.17354
1.17357
1.17359
1.17362
1.17365
1.17368
1.17372
1.17375
1.17378
1.17381
1.17382
1.17381
1.17376
1.17372
1.17368
1.17365
1.17363
1.17361
1.1736
1.17361
1.17361
1.17362
1.17364
1.17365
1.17366
1.17367
1.17368
1.17368
1.17369
1.17369
1.1737
1.17258
1.17257
1.17257
1.17256
1.17256
1.17256
1.17255
1.17255
1.17254
1.17253
1.17251
1.17249
1.17246
1.17243
1.17239
1.17234
1.17234
1.17232
1.17231
1.17229
1.17228
1.17226
1.17224
1.17222
1.17222
1.17222
1.17221
1.17221
1.17221
1.17221
1.17221
1.17221
1.17221
1.1722
1.17219
1.17351
1.17351
1.17352
1.17354
1.17356
1.17357
1.17358
1.1736
1.1736
1.17361
1.17361
1.17361
1.1736
1.17359
1.17357
1.17355
1.17352
1.17347
1.17343
1.1734
1.17337
1.17335
1.17334
1.17334
1.17334
1.17334
1.17334
1.17335
1.17336
1.17337
1.17337
1.17338
1.17338
1.17338
1.17338
1.17337
1.17336
1.17337
1.17337
1.17337
1.17338
1.17338
1.17337
1.17336
1.17335
1.17333
1.17331
1.17328
1.17324
1.17319
1.17315
1.17309
1.17307
1.17304
1.17301
1.17299
1.17296
1.17294
1.17292
1.17291
1.1729
1.1729
1.1729
1.1729
1.1729
1.1729
1.1729
1.1729
1.1729
1.17289
1.17371
1.1737
1.1737
1.1737
1.17371
1.17371
1.17371
1.17371
1.1737
1.17369
1.17368
1.17366
1.17364
1.17361
1.17358
1.17355
1.17352
1.17349
1.17346
1.17343
1.17341
1.17339
1.17338
1.17337
1.17337
1.17337
1.17337
1.17337
1.17337
1.17338
1.17338
1.17338
1.17338
1.17338
1.17338
1.1737
1.17369
1.17369
1.17369
1.17369
1.17368
1.17368
1.17367
1.17366
1.17365
1.17363
1.17361
1.17358
1.17355
1.17352
1.17348
1.17345
1.17341
1.17339
1.17336
1.17334
1.17332
1.1733
1.17329
1.17327
1.17327
1.17326
1.17326
1.17326
1.17326
1.17326
1.17326
1.17326
1.17325
1.17325
1.17378
1.17377
1.17377
1.17377
1.17377
1.17377
1.17376
1.17375
1.17375
1.17373
1.17372
1.1737
1.17368
1.17366
1.17363
1.17361
1.17358
1.17356
1.17354
1.17353
1.17351
1.17349
1.17348
1.17348
1.17347
1.17347
1.17347
1.17347
1.17347
1.17347
1.17347
1.17348
1.17348
1.17348
1.17347
1.17377
1.17376
1.17376
1.17376
1.17376
1.17375
1.17375
1.17374
1.17373
1.17372
1.17371
1.17369
1.17368
1.17366
1.17364
1.17361
1.1736
1.17358
1.17356
1.17354
1.17353
1.17351
1.1735
1.17349
1.17348
1.17347
1.17347
1.17347
1.17347
1.17347
1.17347
1.17347
1.17347
1.17346
1.17346
1.17377
1.17377
1.17376
1.17376
1.17376
1.17376
1.17375
1.17375
1.17374
1.17373
1.17372
1.17371
1.1737
1.17369
1.17368
1.17366
1.17365
1.17364
1.17363
1.17362
1.17361
1.1736
1.17359
1.17358
1.17358
1.17357
1.17357
1.17357
1.17357
1.17358
1.17358
1.17358
1.17358
1.17358
1.17357
1.17375
1.17375
1.17375
1.17375
1.17375
1.17374
1.17374
1.17374
1.17373
1.17373
1.17372
1.17371
1.17371
1.1737
1.17369
1.17368
1.17368
1.17367
1.17366
1.17365
1.17364
1.17363
1.17362
1.17361
1.17361
1.17361
1.1736
1.1736
1.1736
1.1736
1.1736
1.1736
1.1736
1.1736
1.1736
1.17375
1.17375
1.17375
1.17375
1.17374
1.17374
1.17374
1.17374
1.17373
1.17373
1.17373
1.17372
1.17372
1.17372
1.17372
1.17371
1.17371
1.17371
1.1737
1.17369
1.17369
1.17368
1.17367
1.17367
1.17367
1.17366
1.17366
1.17366
1.17366
1.17367
1.17367
1.17367
1.17367
1.17367
1.17366
1.17374
1.17375
1.17375
1.17375
1.17374
1.17374
1.17374
1.17374
1.17374
1.17374
1.17374
1.17374
1.17374
1.17374
1.17374
1.17374
1.17374
1.17373
1.17373
1.17373
1.17372
1.17371
1.17371
1.1737
1.1737
1.1737
1.1737
1.1737
1.1737
1.1737
1.1737
1.1737
1.1737
1.1737
1.1737
1.17375
1.17376
1.17376
1.17376
1.17375
1.17375
1.17375
1.17375
1.17375
1.17375
1.17375
1.17375
1.17376
1.17376
1.17376
1.17376
1.17376
1.17376
1.17376
1.17376
1.17375
1.17375
1.17374
1.17374
1.17374
1.17374
1.17374
1.17374
1.17374
1.17374
1.17374
1.17375
1.17375
1.17375
1.17374
1.17376
1.17378
1.17378
1.17377
1.17377
1.17377
1.17377
1.17377
1.17377
1.17377
1.17377
1.17377
1.17378
1.17378
1.17378
1.17379
1.17379
1.17379
1.17379
1.17379
1.17378
1.17378
1.17377
1.17377
1.17377
1.17377
1.17377
1.17377
1.17377
1.17377
1.17378
1.17378
1.17378
1.17378
1.17377
1.17379
1.1738
1.1738
1.1738
1.1738
1.17379
1.17379
1.17379
1.17379
1.17379
1.1738
1.1738
1.1738
1.1738
1.17381
1.17381
1.17381
1.17381
1.17381
1.17381
1.17381
1.1738
1.1738
1.1738
1.1738
1.1738
1.1738
1.1738
1.1738
1.17381
1.17381
1.17381
1.17381
1.17381
1.17381
1.17382
1.17383
1.17383
1.17383
1.17382
1.17382
1.17382
1.17382
1.17382
1.17382
1.17382
1.17382
1.17383
1.17383
1.17383
1.17384
1.17384
1.17384
1.17384
1.17383
1.17383
1.17383
1.17382
1.17382
1.17382
1.17382
1.17383
1.17383
1.17383
1.17383
1.17384
1.17384
1.17384
1.17384
1.17384
1.17385
1.17386
1.17386
1.17386
1.17386
1.17385
1.17385
1.17385
1.17385
1.17385
1.17385
1.17385
1.17385
1.17385
1.17386
1.17386
1.17386
1.17386
1.17386
1.17386
1.17385
1.17385
1.17385
1.17385
1.17385
1.17385
1.17385
1.17385
1.17386
1.17386
1.17386
1.17386
1.17387
1.17387
1.17386
1.17388
1.1739
1.1739
1.17389
1.17389
1.17388
1.17388
1.17388
1.17387
1.17387
1.17387
1.17387
1.17387
1.17388
1.17388
1.17388
1.17388
1.17388
1.17388
1.17387
1.17387
1.17387
1.17387
1.17387
1.17387
1.17387
1.17387
1.17387
1.17388
1.17388
1.17388
1.17389
1.17389
1.17389
1.17389
1.17403
1.17403
1.17402
1.17401
1.174
1.17399
1.17398
1.17397
1.17396
1.17395
1.17394
1.17393
1.17392
1.17391
1.1739
1.17389
1.17389
1.17388
1.17388
1.17387
1.17387
1.17387
1.17388
1.17388
1.17388
1.17388
1.17389
1.17389
1.1739
1.1739
1.1739
1.17391
1.17391
1.17391
1.17391
1.17407
1.17407
1.17406
1.17405
1.17404
1.17403
1.17402
1.17401
1.174
1.17399
1.17397
1.17396
1.17395
1.17394
1.17393
1.17393
1.17392
1.17391
1.17391
1.1739
1.1739
1.1739
1.1739
1.1739
1.17391
1.17391
1.17392
1.17392
1.17393
1.17393
1.17394
1.17394
1.17395
1.17395
1.17395
1.1741
1.1741
1.1741
1.17409
1.17408
1.17407
1.17406
1.17404
1.17403
1.17402
1.17401
1.17399
1.17398
1.17397
1.17396
1.17395
1.17395
1.17394
1.17393
1.17393
1.17393
1.17392
1.17392
1.17393
1.17393
1.17393
1.17394
1.17394
1.17395
1.17396
1.17396
1.17397
1.17397
1.17398
1.17397
1.17413
1.17413
1.17413
1.17412
1.17411
1.1741
1.17408
1.17407