/*--------------------------------*- C++ -*----------------------------------*\
  =========                 |
  \\      /  F ield         | OpenFOAM: The Open Source CFD Toolbox
   \\    /   O peration     | Website:  https://openfoam.org
    \\  /    A nd           | Version:  8
     \\/     M anipulation  |
\*---------------------------------------------------------------------------*/
FoamFile
{
    version     2.0;
    format      ascii;
    class       volVectorField;
    location    "0.49";
    object      U;
}
// * * * * * * * * * * * * * * * * * * * * * * * * * * * * * * * * * * * * * //

dimensions      [0 1 -1 0 0 0 0];

internalField   nonuniform List<vector> 
15677
(
(0.102583 -78.3451 0)
(-0.255329 -82.6163 0)
(-0.0789987 -79.2722 0)
(-0.165931 -75.7448 0)
(-0.160235 -72.3765 0)
(-0.185253 -69.2193 0)
(-0.203283 -66.2814 0)
(-0.190717 -63.5197 0)
(-0.100343 -60.7917 0)
(0.157718 -57.7933 0)
(0.741109 -53.8461 0)
(1.85252 -49.8242 0)
(3.61865 -47.2068 0)
(5.85142 -46.6579 0)
(7.86944 -48.0299 0)
(9.3263 -50.8651 0)
(10.2128 -53.7131 0)
(10.3809 -55.3569 0)
(10.0651 -56.298 0)
(9.40489 -56.8384 0)
(8.61789 -56.943 0)
(7.80773 -56.6982 0)
(7.03091 -56.4555 0)
(6.35427 -56.1978 0)
(5.75822 -55.8578 0)
(5.23273 -55.4849 0)
(4.7722 -55.0808 0)
(4.36325 -54.6537 0)
(4.00007 -54.2313 0)
(3.67777 -53.8377 0)
(3.39265 -53.494 0)
(3.14134 -53.2153 0)
(2.92337 -53.0147 0)
(2.72976 -52.9152 0)
(2.50715 -52.9467 0)
(-0.980977 78.3243 0)
(-3.08885 78.1533 0)
(-5.50336 75.5535 0)
(-8.1429 72.8602 0)
(-10.9977 70.0093 0)
(-13.9687 66.8734 0)
(-16.9499 63.3178 0)
(-19.7821 59.1653 0)
(-22.2534 54.0471 0)
(-23.9551 46.9441 0)
(-24.4995 37.5839 0)
(-23.2556 27.4538 0)
(-20.3459 21.1225 0)
(-15.877 21.1179 0)
(-11.0105 26.6598 0)
(-6.50485 35.1038 0)
(-2.55632 44.3358 0)
(0.742426 52.035 0)
(3.54655 57.3006 0)
(6.15715 60.1026 0)
(8.56128 61.0967 0)
(10.8067 61.4506 0)
(12.7096 61.4759 0)
(14.2573 61.2479 0)
(15.5209 60.9361 0)
(16.5034 60.6341 0)
(17.2391 60.3704 0)
(17.7682 60.1513 0)
(18.1235 59.9785 0)
(18.3355 59.8513 0)
(18.4345 59.7657 0)
(18.4456 59.7171 0)
(18.3973 59.6912 0)
(18.308 59.6624 0)
(18.1728 59.5915 0)
(-0.0596103 44.7829 0)
(-0.00936221 42.3551 0)
(0.133304 39.3912 0)
(0.342772 35.75 0)
(0.574578 31.1897 0)
(0.806676 25.3473 0)
(1.01864 17.8804 0)
(1.15039 8.3506 0)
(1.13178 -3.67635 0)
(0.883826 -18.2954 0)
(0.268052 -34.1445 0)
(-1.45769 -47.4365 0)
(-4.69429 -56.6964 0)
(-9.38609 -61.9884 0)
(-14.4071 -63.3541 0)
(-18.657 -62.2286 0)
(-21.7928 -59.0896 0)
(-23.214 -55.7785 0)
(-22.9556 -53.8156 0)
(-20.8205 -52.6407 0)
(-17.8985 -51.8482 0)
(-14.484 -50.8472 0)
(-11.3177 -49.2794 0)
(-8.53933 -47.2842 0)
(-6.18019 -45.0843 0)
(-4.17235 -42.8378 0)
(-2.4482 -40.6361 0)
(-0.948191 -38.5481 0)
(0.374427 -36.624 0)
(1.55444 -34.9511 0)
(2.61968 -33.5427 0)
(3.59054 -32.402 0)
(4.46874 -31.529 0)
(5.27706 -30.9022 0)
(6.03847 -30.4991 0)
(0.727059 49.3163 0)
(1.88662 50.335 0)
(3.10457 49.214 0)
(4.42088 47.5179 0)
(5.86877 45.4263 0)
(7.43287 43.0609 0)
(9.10798 40.4509 0)
(10.8366 37.7313 0)
(12.4819 35.1959 0)
(13.9279 33.577 0)
(14.6082 34.1232 0)
(14.2808 36.4011 0)
(13.3632 39.3198 0)
(11.9231 43.2071 0)
(10.3347 46.6083 0)
(8.85522 47.5871 0)
(7.72636 45.0635 0)
(7.45613 35.8398 0)
(7.91876 23.7716 0)
(8.82575 13.6077 0)
(9.95119 6.99983 0)
(11.1274 4.30148 0)
(12.2623 4.43648 0)
(13.3334 5.86074 0)
(14.3553 7.80813 0)
(15.3312 9.79275 0)
(16.2627 11.6082 0)
(17.1618 13.2274 0)
(18.0295 14.6676 0)
(18.838 15.9546 0)
(19.6132 17.0599 0)
(20.3293 17.9557 0)
(20.9881 18.7034 0)
(21.5876 19.3393 0)
(22.1034 19.8932 0)
(0.475154 13.0759 0)
(1.13812 13.909 0)
(2.00157 12.0492 0)
(2.91227 9.65569 0)
(3.83165 6.98724 0)
(4.71533 3.84741 0)
(5.57662 0.10744 0)
(6.37637 -4.3673 0)
(7.09627 -9.73883 0)
(7.75249 -15.8663 0)
(8.45783 -21.9617 0)
(9.28288 -27.4166 0)
(10.2719 -32.0438 0)
(11.6524 -34.3479 0)
(13.5262 -34.986 0)
(15.5139 -35.8228 0)
(17.6638 -37.8091 0)
(19.373 -39.0891 0)
(19.3559 -39.6133 0)
(18.3028 -39.7191 0)
(16.1698 -39.5392 0)
(13.6775 -39.0705 0)
(11.4989 -38.4142 0)
(9.74712 -37.7625 0)
(8.41903 -37.2395 0)
(7.43659 -36.8959 0)
(6.71015 -36.7259 0)
(6.17471 -36.7614 0)
(5.75508 -36.9468 0)
(5.41894 -37.2444 0)
(5.14079 -37.6227 0)
(4.89601 -38.0509 0)
(4.67582 -38.5101 0)
(4.4826 -38.9848 0)
(4.32511 -39.4617 0)
(0.672588 0.970997 0)
(1.9516 3.02872 0)
(3.41266 5.57183 0)
(4.91386 8.02994 0)
(6.5205 9.61723 0)
(8.16777 10.7515 0)
(9.87992 11.4755 0)
(11.6307 11.9968 0)
(13.3176 12.6106 0)
(14.8068 13.604 0)
(15.9005 14.5203 0)
(16.7213 15.4982 0)
(17.1823 16.5372 0)
(17.3289 16.9449 0)
(17.3342 16.9174 0)
(17.2893 16.4158 0)
(17.059 15.1828 0)
(16.6171 13.3437 0)
(16.0678 11.3726 0)
(15.4726 9.68189 0)
(14.8397 8.36546 0)
(14.2216 7.30917 0)
(13.6601 6.49374 0)
(13.1769 5.92085 0)
(12.7628 5.66645 0)
(12.3917 5.79201 0)
(12.0398 6.29559 0)
(11.6733 7.15749 0)
(11.2748 8.3335 0)
(10.833 9.74938 0)
(10.3454 11.3092 0)
(9.81269 12.9097 0)
(9.24291 14.455 0)
(8.63056 15.8703 0)
(7.98547 17.1033 0)
(-0.498247 -27.0459 0)
(-1.2779 -25.8936 0)
(-2.08185 -24.2703 0)
(-2.74267 -22.8119 0)
(-3.25861 -21.676 0)
(-3.56179 -21.1422 0)
(-3.61984 -21.0846 0)
(-3.43559 -21.3865 0)
(-3.05981 -21.8337 0)
(-2.48419 -22.2714 0)
(-1.70657 -22.6101 0)
(-0.735197 -22.8512 0)
(0.495171 -22.9788 0)
(1.92232 -22.9508 0)
(3.36309 -22.7998 0)
(4.67077 -22.6539 0)
(5.81941 -22.5813 0)
(6.64283 -22.457 0)
(7.11716 -22.1969 0)
(7.24124 -21.8397 0)
(7.05642 -21.4218 0)
(6.60482 -21.0329 0)
(5.94804 -20.7622 0)
(5.15138 -20.643 0)
(4.26427 -20.6343 0)
(3.34718 -20.5856 0)
(2.46418 -20.4036 0)
(1.65141 -20.0509 0)
(0.941607 -19.5012 0)
(0.353106 -18.7519 0)
(-0.101688 -17.8266 0)
(-0.438233 -16.763 0)
(-0.676887 -15.5594 0)
(-0.827573 -14.2466 0)
(-0.918702 -12.8792 0)
(-0.298252 25.2877 0)
(-0.593096 23.2655 0)
(-0.831139 20.137 0)
(-0.883708 15.8468 0)
(-0.744076 10.7097 0)
(-0.427878 5.65354 0)
(-0.00752481 1.39214 0)
(0.481524 -1.54662 0)
(0.995698 -3.16196 0)
(1.53079 -3.89036 0)
(2.06033 -4.14723 0)
(2.57339 -4.08256 0)
(3.07575 -3.77446 0)
(3.5908 -3.30181 0)
(4.00634 -2.77694 0)
(4.33417 -2.30462 0)
(4.55311 -1.82568 0)
(4.68678 -1.28131 0)
(4.72577 -0.696788 0)
(4.69982 -0.0173854 0)
(4.633 0.867497 0)
(4.50245 2.03214 0)
(4.28756 3.44905 0)
(3.98293 5.01014 0)
(3.5768 6.56881 0)
(3.06863 8.07461 0)
(2.47325 9.51956 0)
(1.84239 10.8154 0)
(1.20872 11.929 0)
(0.572847 12.8524 0)
(-0.0510518 13.6007 0)
(-0.638497 14.1837 0)
(-1.17495 14.6147 0)
(-1.65327 14.9374 0)
(-2.07107 15.1939 0)
(0.369814 -4.36999 0)
(1.01367 -9.36783 0)
(1.82023 -13.9985 0)
(2.57929 -17.4381 0)
(3.2301 -19.3262 0)
(3.69956 -20.2409 0)
(3.96511 -20.5723 0)
(4.04001 -20.5671 0)
(3.98526 -20.3704 0)
(3.84456 -20.0196 0)
(3.66524 -19.5383 0)
(3.46394 -18.992 0)
(3.2541 -18.4436 0)
(3.02109 -17.83 0)
(2.80832 -17.1596 0)
(2.60808 -16.5198 0)
(2.38256 -15.8804 0)
(2.1152 -15.2099 0)
(1.79616 -14.5241 0)
(1.40377 -13.8724 0)
(0.947748 -13.1891 0)
(0.493316 -12.4117 0)
(0.0973458 -11.5739 0)
(-0.211738 -10.6759 0)
(-0.43106 -9.71381 0)
(-0.54927 -8.69103 0)
(-0.543374 -7.53755 0)
(-0.49347 -6.17781 0)
(-0.453797 -4.75546 0)
(-0.399014 -3.41167 0)
(-0.324721 -2.21281 0)
(-0.236568 -1.16485 0)
(-0.140806 -0.235962 0)
(-0.0439781 0.596915 0)
(0.0554877 1.33826 0)
(0.294656 -4.24051 0)
(0.701774 -5.8749 0)
(1.0466 -6.35975 0)
(1.24927 -6.65633 0)
(1.35687 -6.93829 0)
(1.39646 -7.21322 0)
(1.39209 -7.47511 0)
(1.36514 -7.72467 0)
(1.32356 -7.95954 0)
(1.27971 -8.1579 0)
(1.24468 -8.28883 0)
(1.22777 -8.30294 0)
(1.23246 -8.14364 0)
(1.25354 -7.78699 0)
(1.26905 -7.26368 0)
(1.26601 -6.63621 0)
(1.24396 -5.88807 0)
(1.19621 -5.01725 0)
(1.12518 -4.00985 0)
(1.03308 -2.89081 0)
(0.894816 -1.69194 0)
(0.70407 -0.36835 0)
(0.479097 1.04348 0)
(0.227133 2.46161 0)
(-0.0556798 3.81256 0)
(-0.377093 5.01147 0)
(-0.708414 6.03134 0)
(-0.990637 6.87231 0)
(-1.20197 7.59882 0)
(-1.36497 8.24305 0)
(-1.49887 8.81967 0)
(-1.61407 9.33934 0)
(-1.71563 9.81053 0)
(-1.81174 10.2372 0)
(-1.90276 10.6203 0)
(0.0402811 -16.1369 0)
(0.110736 -16.8197 0)
(0.181347 -16.8551 0)
(0.270913 -16.7769 0)
(0.366766 -16.648 0)
(0.469273 -16.4855 0)
(0.570319 -16.3007 0)
(0.663716 -16.0904 0)
(0.74098 -15.8499 0)
(0.791661 -15.5722 0)
(0.80424 -15.2472 0)
(0.767145 -14.8598 0)
(0.66952 -14.3827 0)
(0.503778 -13.7875 0)
(0.30646 -13.1246 0)
(0.103342 -12.433 0)
(-0.111966 -11.6794 0)
(-0.334932 -10.8774 0)
(-0.566016 -10.0574 0)
(-0.796801 -9.18868 0)
(-1.01881 -8.22376 0)
(-1.21763 -7.20309 0)
(-1.35824 -6.18456 0)
(-1.43061 -5.16739 0)
(-1.41471 -4.0869 0)
(-1.31931 -2.908 0)
(-1.2303 -1.71469 0)
(-1.1677 -0.599069 0)
(-1.10374 0.409706 0)
(-1.03704 1.32569 0)
(-0.969421 2.16453 0)
(-0.900363 2.93017 0)
(-0.830106 3.62857 0)
(-0.757361 4.26568 0)
(-0.685395 4.84632 0)
(0.0139711 -10.09 0)
(0.0278291 -10.9333 0)
(0.0362906 -11.1919 0)
(0.0355775 -11.3127 0)
(0.029062 -11.3719 0)
(0.0180482 -11.3907 0)
(0.00244503 -11.374 0)
(-0.0170224 -11.3209 0)
(-0.0420025 -11.2247 0)
(-0.0730271 -11.073 0)
(-0.11224 -10.8485 0)
(-0.163657 -10.5312 0)
(-0.227454 -10.098 0)
(-0.299988 -9.53342 0)
(-0.388228 -8.87244 0)
(-0.485821 -8.15057 0)
(-0.588129 -7.33916 0)
(-0.691226 -6.42442 0)
(-0.797759 -5.41805 0)
(-0.916411 -4.35059 0)
(-1.0458 -3.19301 0)
(-1.17696 -1.962 0)
(-1.31047 -0.749818 0)
(-1.44862 0.404887 0)
(-1.60609 1.49133 0)
(-1.76597 2.49433 0)
(-1.87393 3.38608 0)
(-1.9334 4.19429 0)
(-1.97535 4.93675 0)
(-2.00916 5.61419 0)
(-2.03687 6.22143 0)
(-2.05848 6.76127 0)
(-2.07489 7.24064 0)
(-2.09001 7.67146 0)
(-2.10185 8.06056 0)
(0.00327633 -14.4246 0)
(-0.00819954 -15.0398 0)
(-0.00849934 -15.051 0)
(-0.0107895 -14.9589 0)
(-0.0131723 -14.8214 0)
(-0.0201126 -14.6458 0)
(-0.0353075 -14.4329 0)
(-0.0618439 -14.1846 0)
(-0.105046 -13.8986 0)
(-0.169726 -13.5675 0)
(-0.260504 -13.1769 0)
(-0.38094 -12.7183 0)
(-0.535455 -12.183 0)
(-0.72709 -11.5447 0)
(-0.935169 -10.8445 0)
(-1.13915 -10.1226 0)
(-1.34456 -9.35246 0)
(-1.54579 -8.52645 0)
(-1.73662 -7.63818 0)
(-1.9177 -6.68777 0)
(-2.0919 -5.67341 0)
(-2.24013 -4.62496 0)
(-2.34553 -3.58734 0)
(-2.40902 -2.5657 0)
(-2.4134 -1.56504 0)
(-2.3882 -0.584074 0)
(-2.36508 0.363225 0)
(-2.33437 1.25365 0)
(-2.29342 2.08019 0)
(-2.24439 2.83719 0)
(-2.19021 3.51583 0)
(-2.13329 4.11652 0)
(-2.07629 4.65403 0)
(-2.02044 5.14219 0)
(-1.96654 5.58846 0)
(-0.0107953 -11.5322 0)
(-0.0352615 -12.1653 0)
(-0.0709223 -12.3396 0)
(-0.117384 -12.3879 0)
(-0.173597 -12.3575 0)
(-0.237729 -12.2761 0)
(-0.310249 -12.1524 0)
(-0.391335 -11.9866 0)
(-0.481806 -11.7747 0)
(-0.582556 -11.5104 0)
(-0.694695 -11.1858 0)
(-0.821303 -10.7869 0)
(-0.965894 -10.2929 0)
(-1.1319 -9.67757 0)
(-1.31068 -8.97741 0)
(-1.49146 -8.23891 0)
(-1.6748 -7.43995 0)
(-1.85773 -6.57618 0)
(-2.03656 -5.64343 0)
(-2.20832 -4.63806 0)
(-2.37174 -3.55566 0)
(-2.52143 -2.44217 0)
(-2.6512 -1.36747 0)
(-2.76019 -0.351902 0)
(-2.86802 0.592718 0)
(-2.9538 1.45445 0)
(-3.00173 2.24321 0)
(-3.03001 2.9685 0)
(-3.045 3.63436 0)
(-3.05015 4.24341 0)
(-3.04889 4.79872 0)
(-3.04433 5.30467 0)
(-3.0384 5.76601 0)
(-3.03294 6.18663 0)
(-3.03468 6.56979 0)
(-0.0125883 -12.8948 0)
(-0.0461151 -13.4478 0)
(-0.0824843 -13.4509 0)
(-0.125099 -13.3575 0)
(-0.173872 -13.2302 0)
(-0.232535 -13.0719 0)
(-0.302179 -12.8807 0)
(-0.385378 -12.6529 0)
(-0.484963 -12.3824 0)
(-0.604515 -12.0604 0)
(-0.747418 -11.6764 0)
(-0.916773 -11.2191 0)
(-1.1181 -10.6732 0)
(-1.35659 -10.0179 0)
(-1.6088 -9.29887 0)
(-1.85476 -8.56054 0)
(-2.10083 -7.7801 0)
(-2.34472 -6.95355 0)
(-2.58349 -6.07671 0)
(-2.81375 -5.14528 0)
(-3.03182 -4.15426 0)
(-3.22223 -3.14357 0)
(-3.37324 -2.16907 0)
(-3.48667 -1.2399 0)
(-3.55304 -0.356388 0)
(-3.5979 0.485762 0)
(-3.63677 1.27368 0)
(-3.66047 2.00376 0)
(-3.67211 2.67655 0)
(-3.67458 3.29435 0)
(-3.67028 3.86035 0)
(-3.66107 4.37808 0)
(-3.64798 4.85111 0)
(-3.6319 5.28287 0)
(-3.62131 5.67673 0)
(-0.0220222 -11.4013 0)
(-0.061207 -11.9228 0)
(-0.112881 -12.0358 0)
(-0.174639 -12.032 0)
(-0.245739 -11.9612 0)
(-0.328147 -11.8449 0)
(-0.423806 -11.6885 0)
(-0.533719 -11.4906 0)
(-0.659384 -11.2465 0)
(-0.801931 -10.9516 0)
(-0.964421 -10.5974 0)
(-1.15007 -10.1682 0)
(-1.36219 -9.64474 0)
(-1.60615 -9.00314 0)
(-1.86352 -8.28632 0)
(-2.11787 -7.54291 0)
(-2.37416 -6.75259 0)
(-2.63078 -5.91343 0)
(-2.88556 -5.0231 0)
(-3.13584 -4.07897 0)
(-3.37847 -3.07829 0)
(-3.60078 -2.06493 0)
(-3.79215 -1.09955 0)
(-3.9569 -0.195259 0)
(-4.09764 0.644819 0)
(-4.2111 1.41749 0)
(-4.30058 2.13216 0)
(-4.37227 2.79184 0)
(-4.42953 3.39913 0)
(-4.47511 3.95667 0)
(-4.51128 4.46728 0)
(-4.53969 4.93384 0)
(-4.56142 5.35928 0)
(-4.57842 5.74649 0)
(-4.59952 6.09823 0)
(-0.0201621 -11.5991 0)
(-0.0639583 -12.1133 0)
(-0.119501 -12.135 0)
(-0.184316 -12.0468 0)
(-0.2596 -11.9153 0)
(-0.347234 -11.7521 0)
(-0.448421 -11.5576 0)
(-0.564685 -11.3287 0)
(-0.698473 -11.0604 0)
(-0.853238 -10.7434 0)
(-1.03221 -10.3648 0)
(-1.2403 -9.91085 0)
(-1.48248 -9.3643 0)
(-1.76471 -8.70315 0)
(-2.062 -7.97452 0)
(-2.35354 -7.22674 0)
(-2.64706 -6.43939 0)
(-2.94152 -5.61115 0)
(-3.23534 -4.7405 0)
(-3.52633 -3.82568 0)
(-3.81164 -2.86458 0)
(-4.07481 -1.89864 0)
(-4.30095 -0.981286 0)
(-4.48849 -0.120945 0)
(-4.64465 0.685649 0)
(-4.77615 1.43676 0)
(-4.88484 2.13171 0)
(-4.97387 2.77222 0)
(-5.04616 3.36074 0)
(-5.10434 3.90011 0)
(-5.1508 4.39333 0)
(-5.18752 4.8435 0)
(-5.21582 5.25366 0)
(-5.23726 5.62682 0)
(-5.2603 5.96586 0)
(-0.0231533 -10.6997 0)
(-0.0792156 -11.1294 0)
(-0.145535 -11.1694 0)
(-0.222874 -11.1226 0)
(-0.310796 -11.0314 0)
(-0.410444 -10.9045 0)
(-0.523485 -10.7421 0)
(-0.652096 -10.5406 0)
(-0.798405 -10.2935 0)
(-0.965611 -9.99254 0)
(-1.15739 -9.62691 0)
(-1.37773 -9.18275 0)
(-1.6316 -8.64238 0)
(-1.92494 -7.98324 0)
(-2.23391 -7.25184 0)
(-2.53838 -6.49848 0)
(-2.84591 -5.70378 0)
(-3.15583 -4.86757 0)
(-3.46707 -3.98956 0)
(-3.77802 -3.06951 0)
(-4.08644 -2.10722 0)
(-4.37613 -1.14654 0)
(-4.63539 -0.243215 0)
(-4.86155 0.595495 0)
(-5.05428 1.36948 0)
(-5.21901 2.0832 0)
(-5.35913 2.73979 0)
(-5.47786 3.3423 0)
(-5.57817 3.89388 0)
(-5.66275 4.39771 0)
(-5.73395 4.85701 0)
(-5.79373 5.27495 0)
(-5.84353 5.65462 0)
(-5.88519 5.99901 0)
(-5.92605 6.31077 0)
(-0.0267662 -10.4272 0)
(-0.0801559 -10.818 0)
(-0.146195 -10.8315 0)
(-0.221621 -10.762 0)
(-0.30937 -10.6502 0)
(-0.410619 -10.5042 0)
(-0.527424 -10.3242 0)
(-0.662127 -10.1066 0)
(-0.817409 -9.84517 0)
(-0.996366 -9.53127 0)
(-1.20253 -9.15369 0)
(-1.44006 -8.69834 0)
(-1.71391 -8.14739 0)
(-2.02999 -7.47839 0)
(-2.36123 -6.73916 0)
(-2.6858 -5.98013 0)
(-3.01272 -5.18197 0)
(-3.34186 -4.34497 0)
(-3.67267 -3.46957 0)
(-4.00413 -2.55639 0)
(-4.33468 -1.60613 0)
(-4.6478 -0.662416 0)
(-4.9229 0.221557 0)
(-5.16341 1.04084 0)
(-5.37458 1.79564 0)
(-5.55669 2.4887 0)
(-5.71312 3.12342 0)
(-5.84686 3.70342 0)
(-5.96076 4.23237 0)
(-6.05744 4.7139 0)
(-6.13935 5.15158 0)
(-6.20859 5.54884 0)
(-6.26679 5.90896 0)
(-6.31548 6.23499 0)
(-6.36044 6.52962 0)
(-0.0290455 -9.75624 0)
(-0.0859009 -10.1173 0)
(-0.158172 -10.1339 0)
(-0.240303 -10.0734 0)
(-0.335547 -9.97233 0)
(-0.444725 -9.83759 0)
(-0.569727 -9.66848 0)
(-0.71275 -9.46093 0)
(-0.876389 -9.20848 0)
(-1.06373 -8.90234 0)
(-1.27832 -8.53125 0)
(-1.52437 -8.08092 0)
(-1.80687 -7.5332 0)
(-2.13173 -6.86517 0)
(-2.47151 -6.12429 0)
(-2.80418 -5.36193 0)
(-3.13879 -4.55927 0)
(-3.47532 -3.71722 0)
(-3.81344 -2.83698 0)
(-4.15246 -1.92015 0)
(-4.49113 -0.968817 0)
(-4.81325 -0.0283204 0)
(-5.10141 0.847356 0)
(-5.35531 1.65088 0)
(-5.57774 2.38681 0)
(-5.77145 3.05879 0)
(-5.93944 3.67096 0)
(-6.08458 4.22757 0)
(-6.20962 4.73279 0)
(-6.31711 5.19067 0)
(-6.40938 5.60512 0)
(-6.48851 5.97982 0)
(-6.55617 6.31824 0)
(-6.61381 6.62354 0)
(-6.66524 6.89837 0)
(-0.0296542 -9.33534 0)
(-0.0880273 -9.65752 0)
(-0.16117 -9.65718 0)
(-0.244662 -9.58517 0)
(-0.341765 -9.47487 0)
(-0.453625 -9.33229 0)
(-0.58237 -9.15643 0)
(-0.73039 -8.94308 0)
(-0.900394 -8.68567 0)
(-1.09549 -8.37531 0)
(-1.3192 -8.00061 0)
(-1.57553 -7.54708 0)
(-1.86922 -6.99642 0)
(-2.20576 -6.32554 0)
(-2.55583 -5.5821 0)
(-2.89667 -4.81745 0)
(-3.23785 -4.01283 0)
(-3.57949 -3.16944 0)
(-3.92145 -2.28894 0)
(-4.26327 -1.37356 0)
(-4.604 -0.426124 0)
(-4.92734 0.507597 0)
(-5.21644 1.37392 0)
(-5.4715 2.16649 0)
(-5.69536 2.88867 0)
(-5.89077 3.54474 0)
(-6.06055 4.13942 0)
(-6.20748 4.67757 0)
(-6.33422 5.16386 0)
(-6.44326 5.6028 0)
(-6.53692 5.99866 0)
(-6.6173 6.35539 0)
(-6.68621 6.67665 0)
(-6.74477 6.96577 0)
(-6.79487 7.22547 0)
(-0.0316527 -8.77683 0)
(-0.0923964 -9.07069 0)
(-0.16959 -9.06705 0)
(-0.257294 -8.99641 0)
(-0.359109 -8.889 0)
(-0.476019 -8.74999 0)
(-0.610112 -8.57803 0)
(-0.763743 -8.36875 0)
(-0.939604 -8.11552 0)
(-1.14077 -7.80941 0)
(-1.37074 -7.43892 0)
(-1.63347 -6.98946 0)
(-1.9335 -6.44256 0)
(-2.27602 -5.77488 0)
(-2.6308 -5.03356 0)
(-2.97475 -4.27009 0)
(-3.31737 -3.46606 0)
(-3.65871 -2.62299 0)
(-3.9986 -1.74298 0)
(-4.33664 -0.828882 0)
(-4.67204 0.115581 0)
(-4.98912 1.04362 0)
(-5.27181 1.90143 0)
(-5.52064 2.68299 0)
(-5.73864 3.39192 0)
(-5.92878 4.03284 0)
(-6.09394 4.61091 0)
(-6.23688 5.13142 0)
(-6.36022 5.59952 0)
(-6.46639 6.02007 0)
(-6.55761 6.39766 0)
(-6.63596 6.73649 0)
(-6.70326 7.0404 0)
(-6.76042 7.31286 0)
(-6.8075 7.55667 0)
(-0.0323357 -8.31429 0)
(-0.0950123 -8.57499 0)
(-0.173892 -8.5601 0)
(-0.263818 -8.48317 0)
(-0.368271 -8.3715 0)
(-0.488381 -8.22946 0)
(-0.626326 -8.05541 0)
(-0.784536 -7.84489 0)
(-0.965735 -7.59122 0)
(-1.17296 -7.28548 0)
(-1.40964 -6.91615 0)
(-1.67951 -6.46862 0)
(-1.98672 -5.92436 0)
(-2.33596 -5.25995 0)
(-2.69557 -4.52217 0)
(-3.04205 -3.76215 0)
(-3.38497 -2.96164 0)
(-3.72427 -2.12236 0)
(-4.05971 -1.24671 0)
(-4.39081 -0.337904 0)
(-4.71678 0.59983 0)
(-5.02252 1.51945 0)
(-5.2932 2.36713 0)
(-5.52995 3.13687 0)
(-5.73617 3.83236 0)
(-5.91508 4.45848 0)
(-6.06969 5.02068 0)
(-6.20283 5.5246 0)
(-6.31715 5.97575 0)
(-6.41506 6.37933 0)
(-6.49874 6.74016 0)
(-6.57025 7.06265 0)
(-6.63146 7.35082 0)
(-6.68308 7.60823 0)
(-6.72369 7.83778 0)
(-0.0338576 -7.81209 0)
(-0.0986389 -8.04535 0)
(-0.180563 -8.02497 0)
(-0.273765 -7.94693 0)
(-0.381894 -7.83576 0)
(-0.506024 -7.6951 0)
(-0.648336 -7.52308 0)
(-0.811258 -7.31514 0)
(-0.997516 -7.06464 0)
(-1.21013 -6.7627 0)
(-1.45245 -6.39787 0)
(-1.72811 -5.9556 0)
(-2.04098 -5.41738 0)
(-2.39527 -4.75983 0)
(-2.75821 -4.02902 0)
(-3.10591 -3.2757 0)
(-3.44781 -2.48193 0)
(-3.78365 -1.64966 0)
(-4.11301 -0.781548 0)
(-4.43524 0.118761 0)
(-4.74942 1.04651 0)
(-5.04101 1.95458 0)
(-5.29648 2.78951 0)
(-5.51768 3.5454 0)
(-5.70851 4.22599 0)
(-5.87251 4.83632 0)
(-6.01294 5.3821 0)
(-6.13278 5.86922 0)
(-6.23475 6.30345 0)
(-6.32128 6.69024 0)
(-6.39454 7.03464 0)
(-6.45657 7.34123 0)
(-6.50924 7.61416 0)
(-6.55315 7.8571 0)
(-6.58589 8.07305 0)
(-0.034843 -7.35037 0)
(-0.101586 -7.55471 0)
(-0.185697 -7.52599 0)
(-0.281507 -7.44412 0)
(-0.392655 -7.331 0)
(-0.520275 -7.18955 0)
(-0.666596 -7.01766 0)
(-0.834074 -6.81074 0)
(-1.02545 -6.56214 0)
(-1.2437 -6.26308 0)
(-1.49207 -5.90224 0)
(-1.77405 -5.46518 0)
(-2.09318 -4.93353 0)
(-2.45313 -4.28407 0)
(-2.81991 -3.56217 0)
(-3.16921 -2.81791 0)
(-3.51038 -2.03365 0)
(-3.84296 -1.21149 0)
(-4.16631 -0.354365 0)
(-4.47961 0.5338 0)
(-4.7817 1.44786 0)
(-5.05858 2.34083 0)
(-5.29801 3.15991 0)
(-5.50261 3.89932 0)
(-5.67675 4.56289 0)
(-5.82438 5.1558 0)
(-5.94903 5.68395 0)
(-6.05387 6.15344 0)
(-6.14174 6.57024 0)
(-6.21512 6.94001 0)
(-6.2762 7.26794 0)
(-6.32703 7.55876 0)
(-6.36944 7.8167 0)
(-6.40402 8.04553 0)
(-6.42796 8.24834 0)
(-0.0362296 -6.88253 0)
(-0.105077 -7.06128 0)
(-0.191955 -7.02678 0)
(-0.29081 -6.94324 0)
(-0.405385 -6.83008 0)
(-0.536807 -6.68959 0)
(-0.687326 -6.51947 0)
(-0.859421 -6.31509 0)
(-1.05584 -6.06988 0)
(-1.27956 -5.77516 0)
(-1.53377 -5.41978 0)
(-1.82182 -4.98949 0)
(-2.1471 -4.46617 0)
(-2.51275 -3.82683 0)
(-2.88367 -3.11607 0)
(-3.23506 -2.3832 0)
(-3.57618 -1.61098 0)
(-3.90634 -0.801674 0)
(-4.22466 0.0415363 0)
(-4.53007 0.914403 0)
(-4.82121 1.8114 0)
(-5.08443 2.68596 0)
(-5.30872 3.48619 0)
(-5.49741 4.20652 0)
(-5.65538 4.85088 0)
(-5.78698 5.4246 0)
(-5.89604 5.93372 0)
(-5.98594 6.38452 0)
(-6.05967 6.78313 0)
(-6.11979 7.13534 0)
(-6.16854 7.44648 0)
(-6.20793 7.72138 0)
(-6.23981 7.96433 0)
(-6.2648 8.17915 0)
(-6.28029 8.36897 0)
(-0.0374566 -6.43525 0)
(-0.108401 -6.58857 0)
(-0.197778 -6.54756 0)
(-0.299492 -6.46158 0)
(-0.417327 -6.34771 0)
(-0.552444 -6.2076 0)
(-0.707138 -6.03879 0)
(-0.883915 -5.83662 0)
(-1.08553 -5.5946 0)
(-1.31497 -5.30417 0)
(-1.57536 -4.95438 0)
(-1.86991 -4.53119 0)
(-2.20185 -4.01681 0)
(-2.57395 -3.38864 0)
(-2.94989 -2.69044 0)
(-3.30443 -1.97062 0)
(-3.64675 -1.21233 0)
(-3.97596 -0.418027 0)
(-4.29095 0.408886 0)
(-4.59044 1.26387 0)
(-4.87281 2.14103 0)
(-5.12469 2.99437 0)
(-5.33611 3.77315 0)
(-5.51102 4.47208 0)
(-5.65478 5.09523 0)
(-5.7721 5.64807 0)
(-5.86713 6.13678 0)
(-5.94346 6.56779 0)
(-6.0042 6.94733 0)
(-6.05201 7.28131 0)
(-6.08918 7.57515 0)
(-6.1177 7.83372 0)
(-6.13942 8.06139 0)
(-6.1552 8.26215 0)
(-6.1632 8.43914 0)
(-0.0389285 -5.99219 0)
(-0.11202 -6.1227 0)
(-0.204082 -6.07662 0)
(-0.308781 -5.98927 0)
(-0.429991 -5.87557 0)
(-0.568896 -5.73662 0)
(-0.727827 -5.56981 0)
(-0.909321 -5.37051 0)
(-1.11616 -5.13229 0)
(-1.35132 -4.84678 0)
(-1.61793 -4.50322 0)
(-1.91913 -4.08785 0)
(-2.25795 -3.58319 0)
(-2.637 -2.96715 0)
(-3.01881 -2.28261 0)
(-3.3776 -1.57707 0)
(-3.72254 -0.834135 0)
(-4.05253 -0.0564024 0)
(-4.36628 0.752469 0)
(-4.66227 1.58764 0)
(-4.93867 2.4429 0)
(-5.18227 3.27292 0)
(-5.38387 4.02826 0)
(-5.54796 4.70401 0)
(-5.68033 5.30437 0)
(-5.78603 5.83497 0)
(-5.86948 6.30213 0)
(-5.93452 6.71237 0)
(-5.98443 7.07198 0)
(-6.022 7.38694 0)
(-6.0496 7.66269 0)
(-6.06921 7.90421 0)
(-6.08258 8.11663 0)
(-6.09057 8.3043 0)
(-6.09246 8.46925 0)
(-0.0405334 -5.56283 0)
(-0.115778 -5.67209 0)
(-0.210317 -5.62104 0)
(-0.317886 -5.53212 0)
(-0.442386 -5.41833 0)
(-0.585033 -5.28034 0)
(-0.748191 -5.11539 0)
(-0.934426 -4.91889 0)
(-1.14654 -4.68449 0)
(-1.38752 -4.40398 0)
(-1.66049 -4.0668 0)
(-1.96856 -3.65948 0)
(-2.31464 -3.16487 0)
(-2.70119 -2.56134 0)
(-3.08973 -1.89106 0)
(-3.45389 -1.20051 0)
(-3.80291 -0.473749 0)
(-4.13551 0.286444 0)
(-4.45023 1.07617 0)
(-4.74537 1.89032 0)
(-5.0189 2.72234 0)
(-5.25766 3.52767 0)
(-5.45295 4.25829 0)
(-5.60974 4.90964 0)
(-5.73411 5.48615 0)
(-5.83144 5.99364 0)
(-5.90639 6.43861 0)
(-5.96299 6.82771 0)
(-6.00469 7.16737 0)
(-6.03439 7.4636 0)
(-6.05455 7.72188 0)
(-6.0672 7.94716 0)
(-6.07403 8.14357 0)
(-6.07591 8.31462 0)
(-6.07347 8.46451 0)
(-0.04098 -5.13792 0)
(-0.117812 -5.23165 0)
(-0.215206 -5.17657 0)
(-0.325876 -5.08654 0)
(-0.453956 -4.97307 0)
(-0.600581 -4.83642 0)
(-0.768134 -4.67372 0)
(-0.959206 -4.48037 0)
(-1.17663 -4.25011 0)
(-1.42343 -3.97486 0)
(-1.70275 -3.64429 0)
(-2.01774 -3.2452 0)
(-2.37129 -2.76082 0)
(-2.76571 -2.17001 0)
(-3.16164 -1.51418 0)
(-3.53215 -0.838848 0)
(-3.88659 -0.128578 0)
(-4.22354 0.613672 0)
(-4.54138 1.38378 0)
(-4.83828 2.17635 0)
(-5.11206 2.98455 0)
(-5.34948 3.7646 0)
(-5.54212 4.46992 0)
(-5.69524 5.09637 0)
(-5.81521 5.64856 0)
(-5.90761 6.13251 0)
(-5.97728 6.55487 0)
(-6.02841 6.92242 0)
(-6.06454 7.24167 0)
(-6.0887 7.51869 0)
(-6.10342 7.75898 0)
(-6.1108 7.96745 0)
(-6.11246 8.14846 0)
(-6.10981 8.30583 0)
(-6.10541 8.44298 0)
(2.79406 -53.2287 0)
(2.24708 -53.8419 0)
(1.94982 -54.6533 0)
(1.56598 -55.716 -6.27988e-17)
(1.1972 -57.0508 0)
(0.827295 -58.6894 0)
(0.42526 -60.6185 0)
(0.0634424 -62.7893 0)
(-0.146505 -65.0763 5.78179e-17)
(-0.360526 -67.3051 0)
(-0.614609 -69.2533 0)
(-0.835915 -70.5679 -5.50353e-17)
(-1.1308 -71.0531 0)
(-1.38139 -70.8886 -5.85961e-17)
(-1.7234 -70.3459 0)
(-1.94918 -69.7656 0)
(-2.18526 -69.2444 0)
(-2.12824 -68.9526 6.64232e-17)
(-2.22758 -68.9302 0)
(-1.79353 -69.4843 3.55001e-17)
(-2.02344 -70.8968 0)
(-1.04999 -73.5589 0)
(17.902 59.3956 0)
(17.8559 59.3299 0)
(17.8358 59.4242 0)
(17.763 59.6765 6.03042e-17)
(17.6497 60.0972 0)
(17.4925 60.7057 0)
(17.2813 61.5188 -1.18069e-16)
(17.0159 62.5433 0)
(16.7082 63.7534 -1.77513e-16)
(16.3867 65.0739 1.17217e-16)
(16.1069 66.3826 1.16528e-16)
(15.9655 67.4999 5.93954e-17)
(16.0563 68.1822 0)
(16.4518 68.2675 6.25129e-17)
(17.2234 67.6158 0)
(18.3084 65.448 0)
(19.5843 62.2615 0)
(21.0127 58.9254 -1.92801e-16)
(22.5206 56.1186 0)
(23.9916 54.327 -3.35097e-17)
(25.37 54.2415 0)
(26.3437 56.028 -6.91321e-17)
(6.91812 -30.2067 0)
(7.75751 -29.9859 0)
(8.54099 -29.8418 0)
(9.31333 -29.7926 0)
(10.068 -29.8712 0)
(10.8004 -30.1292 1.01802e-16)
(11.5105 -30.6496 9.89901e-17)
(12.1814 -31.5497 0)
(12.7705 -32.9942 9.6493e-17)
(13.2741 -35.2049 -9.51331e-17)
(13.6973 -38.4196 -9.34348e-17)
(14.0616 -42.784 0)
(14.3511 -48.1392 0)
(14.5406 -54.0088 0)
(14.5734 -59.7031 9.65157e-17)
(14.3904 -64.5116 0)
(14.0028 -68.3601 0)
(13.3756 -71.1712 1.02534e-16)
(12.5322 -72.686 0)
(11.534 -72.2359 0)
(10.5879 -69.5549 0)
(9.82593 -63.9688 5.63301e-17)
(22.8483 20.6098 0)
(23.9807 21.3089 0)
(25.2636 21.9574 0)
(26.6095 22.6101 -1.16522e-16)
(28.0109 23.3426 0)
(29.4597 24.2507 1.12391e-16)
(30.8913 25.4402 0)
(32.2163 27.0535 0)
(33.3447 29.3665 0)
(34.0725 31.7939 0)
(34.2747 34.521 -2.12584e-16)
(33.7266 37.2126 0)
(32.3212 40.0343 0)
(30.0729 43.1004 0)
(27.1035 46.3626 1.08907e-16)
(23.5493 49.6653 2.26268e-16)
(19.5453 52.7212 0)
(15.2842 55.347 0)
(10.8885 57.2282 0)
(6.52838 57.9066 0)
(2.32704 57.0484 1.36014e-16)
(-1.47264 54.7333 0)
(4.09894 -40.0979 -2.48687e-16)
(3.78664 -40.6889 0)
(3.38977 -41.0271 -2.50603e-16)
(2.96126 -41.0517 1.22367e-16)
(2.51251 -40.6994 0)
(2.06706 -39.7607 -2.37255e-16)
(1.67067 -37.9214 -2.36022e-16)
(1.36039 -34.8961 -2.32347e-16)
(1.21703 -30.3136 0)
(1.25445 -23.644 0)
(1.33804 -15.5495 2.19877e-16)
(1.4647 -6.84379 0)
(1.63116 1.58746 0)
(1.80576 9.0822 0)
(1.97219 15.4016 -4.68004e-16)
(2.13824 20.4722 -2.38019e-16)
(2.29732 24.2506 0)
(2.43236 26.6687 -2.53926e-16)
(2.56765 27.7457 0)
(2.7245 27.8053 2.67188e-16)
(2.75638 26.945 -1.35121e-16)
(2.66911 25.3922 0)
(7.20298 18.5266 2.5863e-16)
(6.21812 20.1196 -2.65477e-16)
(5.05291 21.6297 5.30496e-16)
(3.69364 23.0061 2.63805e-16)
(2.15338 24.199 0)
(0.455775 25.1898 0)
(-1.36374 25.971 2.60428e-16)
(-3.24599 26.5287 2.56116e-16)
(-5.10088 26.8734 0)
(-6.74621 27.014 0)
(-7.98157 27.5168 0)
(-8.74033 28.749 0)
(-9.06198 30.7236 0)
(-8.99216 33.201 2.50905e-16)
(-8.64386 35.8407 2.58759e-16)
(-8.10707 38.3299 -2.6369e-16)
(-7.44498 40.4337 0)
(-6.72617 42.0302 2.82421e-16)
(-6.01467 43.0289 0)
(-5.38115 43.3632 -3.13959e-18)
(-4.77993 43.1896 3.03448e-16)
(-4.31246 42.7397 -3.15551e-16)
(-0.983003 -11.0235 -2.57367e-16)
(-0.958816 -8.54356 2.64471e-16)
(-0.938805 -5.96209 -2.63066e-16)
(-0.896518 -3.42565 1.35788e-18)
(-0.845356 -1.02719 2.62208e-16)
(-0.794326 1.19364 0)
(-0.789218 3.15017 0)
(-0.833759 4.93108 0)
(-0.943937 6.73181 0)
(-1.15446 8.64255 5.09524e-16)
(-1.4691 10.789 0)
(-1.84253 13.2255 0)
(-2.19921 15.8613 0)
(-2.47632 18.5419 -2.62507e-16)
(-2.64309 21.1645 0)
(-2.69811 23.6199 5.53897e-16)
(-2.67186 25.7694 0)
(-2.58145 27.4758 0)
(-2.44912 28.7467 0)
(-2.31196 29.6304 -3.08563e-16)
(-2.19881 30.2382 -3.16395e-16)
(-2.15585 30.6457 3.29002e-16)
(-2.51664 15.4743 2.76739e-16)
(-2.98123 15.851 0)
(-3.35388 16.3097 0)
(-3.65293 16.8689 -5.65769e-16)
(-3.88346 17.5304 -9.62197e-19)
(-4.05194 18.2828 -2.78943e-16)
(-4.16717 19.1101 -5.54916e-16)
(-4.26526 20.0046 0)
(-4.34246 20.9706 -5.49195e-16)
(-4.40834 22.0266 -1.95451e-18)
(-4.45088 23.1958 -5.41943e-16)
(-4.46003 24.489 5.4171e-16)
(-4.43134 25.8643 0)
(-4.35745 27.2582 0)
(-4.23527 28.6352 0)
(-4.06805 29.9601 2.97738e-16)
(-3.86275 31.2007 0)
(-3.63491 32.3344 0)
(-3.41004 33.3027 0)
(-3.20289 34.0892 0)
(-3.0227 34.7055 0)
(-2.85443 35.1777 0)
(0.125804 2.28265 0)
(0.154917 3.49334 0)
(0.153835 4.7407 2.91404e-16)
(0.13344 6.02867 -7.66341e-19)
(0.0956004 7.36289 2.91109e-16)
(0.0389075 8.74925 8.68132e-16)
(-0.0306548 10.1924 5.76027e-16)
(-0.112583 11.6972 0)
(-0.211323 13.2659 5.71896e-16)
(-0.325549 14.8994 -5.69585e-16)
(-0.452396 16.5967 5.66612e-16)
(-0.579946 18.3393 1.35003e-18)
(-0.693198 20.0766 0)
(-0.780911 21.7645 0)
(-0.843251 23.3919 0)
(-0.878098 24.9465 1.2913e-18)
(-0.895383 26.3902 0)
(-0.893973 27.693 0)
(-0.876437 28.8508 0)
(-0.848471 29.8563 0)
(-0.823098 30.7053 0)
(-0.826008 31.4066 0)
(-1.96363 11.0645 0)
(-1.99005 11.6376 3.06074e-16)
(-1.99679 12.2783 -6.12414e-16)
(-1.99147 12.9941 3.06116e-16)
(-1.97136 13.788 -6.11114e-16)
(-1.93542 14.6603 -9.65507e-19)
(-1.88457 15.6109 -6.06797e-16)
(-1.81998 16.6334 0)
(-1.73978 17.7218 0)
(-1.64383 18.8744 0)
(-1.53227 20.088 0)
(-1.40496 21.3537 -5.985e-16)
(-1.26776 22.6376 0)
(-1.12663 23.9073 0)
(-0.981331 25.1545 0)
(-0.831029 26.3693 -6.60398e-16)
(-0.671962 27.5278 0)
(-0.51975 28.5931 -6.92136e-16)
(-0.372255 29.5537 -7.08735e-16)
(-0.229422 30.4179 3.62716e-16)
(-0.0953867 31.186 0)
(0.0179264 31.8592 3.85637e-16)
(-0.622251 5.60211 0)
(-0.556131 6.56809 -6.38293e-16)
(-0.502901 7.56397 3.18979e-16)
(-0.452826 8.59724 0)
(-0.404673 9.67496 0)
(-0.35616 10.8045 -6.35698e-16)
(-0.306047 11.9899 6.34185e-16)
(-0.252287 13.2297 -6.32938e-16)
(-0.194116 14.5223 6.30786e-16)
(-0.130801 15.8656 0)
(-0.0613543 17.2543 0)
(0.0169909 18.6725 0)
(0.106539 20.077 0)
(0.206548 21.4355 0)
(0.317738 22.7455 -6.71331e-16)
(0.43856 24.0044 0)
(0.571211 25.2088 0)
(0.711093 26.3434 7.16652e-16)
(0.849681 27.3888 7.32253e-16)
(0.986434 28.3374 -3.73969e-16)
(1.11885 29.1881 -3.81998e-16)
(1.22894 29.9448 -3.96553e-16)
(-2.07303 8.53455 0)
(-1.98508 9.16857 3.37265e-16)
(-1.88439 9.86417 0)
(-1.77261 10.615 6.73293e-16)
(-1.64697 11.4222 0)
(-1.5077 12.2882 0)
(-1.35466 13.2156 0)
(-1.18753 14.207 6.6685e-16)
(-1.00669 15.2635 -6.64254e-16)
(-0.813039 16.3801 6.61106e-16)
(-0.605911 17.55 0)
(-0.387707 18.761 6.5788e-16)
(-0.166078 19.9738 0)
(0.0533175 21.157 -6.89302e-16)
(0.270903 22.305 7.03833e-16)
(0.487321 23.4132 0)
(0.702868 24.478 7.3253e-16)
(0.918746 25.4944 0)
(1.13241 26.4538 0)