/*--------------------------------*- C++ -*----------------------------------*\
  =========                 |
  \\      /  F ield         | OpenFOAM: The Open Source CFD Toolbox
   \\    /   O peration     | Website:  https://openfoam.org
    \\  /    A nd           | Version:  8
     \\/     M anipulation  |
\*---------------------------------------------------------------------------*/
FoamFile
{
    version     2.0;
    format      ascii;
    class       volScalarField;
    location    "0.16";
    object      k;
}
// * * * * * * * * * * * * * * * * * * * * * * * * * * * * * * * * * * * * * //

dimensions      [0 2 -2 0 0 0 0];

internalField   nonuniform List<scalar> 
15677
(
0.334161
0.365034
0.294765
0.368733
0.357703
0.281043
0.370694
0.360086
0.366146
0.282768
0.371885
0.361638
0.361486
0.383351
0.28889
0.372611
0.363747
0.357749
0.368358
0.401711
0.3003
0.373038
0.365665
0.357857
0.358175
0.380146
0.419396
0.311812
0.373262
0.367182
0.359469
0.354608
0.361067
0.393327
0.434795
0.32261
0.373347
0.368307
0.361363
0.354791
0.353084
0.366927
0.406202
0.4479
0.332104
0.373348
0.369084
0.363069
0.356355
0.351142
0.353523
0.373588
0.418297
0.45875
0.340481
0.373313
0.369569
0.364444
0.358231
0.351947
0.34881
0.354807
0.380716
0.429118
0.467886
0.347559
0.373274
0.369826
0.365464
0.359969
0.353729
0.348403
0.347168
0.357134
0.387674
0.438824
0.475393
0.353774
0.373249
0.369927
0.366149
0.361402
0.355673
0.349781
0.345372
0.346342
0.359721
0.394443
0.44723
0.481805
0.358951
0.373239
0.369941
0.366548
0.362481
0.357431
0.351735
0.34622
0.342944
0.345899
0.362611
0.400677
0.454676
0.487098
0.363616
0.373239
0.369924
0.366737
0.363212
0.358861
0.353692
0.348082
0.343109
0.340872
0.345909
0.365467
0.406517
0.461001
0.491649
0.367673
0.37324
0.369908
0.366795
0.363637
0.359918
0.355399
0.350164
0.344765
0.340301
0.339202
0.346037
0.368355
0.411678
0.466583
0.495426
0.371271
0.37324
0.3699
0.366795
0.363835
0.360608
0.356744
0.352093
0.346894
0.341707
0.33783
0.337745
0.346358
0.371018
0.416428
0.471215
0.498768
0.374556
0.37324
0.369896
0.366786
0.363893
0.36099
0.357697
0.353693
0.34899
0.343841
0.338937
0.335585
0.336529
0.346742
0.373619
0.420453
0.475286
0.501641
0.377365
0.37324
0.369894
0.366777
0.3639
0.361138
0.358282
0.354891
0.350808
0.34607
0.341032
0.336383
0.333598
0.335446
0.347246
0.375867
0.424074
0.478626
0.504185
0.380199
0.37324
0.369893
0.366771
0.363894
0.361182
0.358551
0.355682
0.352233
0.348078
0.34336
0.338427
0.33408
0.331778
0.334571
0.347667
0.377969
0.427015
0.481549
0.506531
0.382419
0.37324
0.369891
0.366767
0.363887
0.361187
0.358655
0.356082
0.353229
0.349709
0.345533
0.34084
0.33606
0.33196
0.3302
0.333764
0.348135
0.379673
0.429625
0.483934
0.508548
0.385057
0.37324
0.36989
0.366765
0.36388
0.361181
0.358686
0.356255
0.353774
0.350896
0.347355
0.343167
0.338541
0.333885
0.330093
0.328766
0.333122
0.348475
0.381217
0.431622
0.486014
0.510658
0.386825
0.37324
0.36989
0.366763
0.363875
0.361173
0.358688
0.356319
0.354035
0.351577
0.348733
0.345166
0.341003
0.336445
0.331971
0.328413
0.327567
0.332524
0.348822
0.382367
0.433412
0.487718
0.512337
0.389444
0.37324
0.369889
0.366762
0.363871
0.361166
0.358681
0.356335
0.354148
0.351923
0.349565
0.346715
0.343171
0.339056
0.334609
0.330268
0.327007
0.326515
0.332087
0.34906
0.383407
0.43464
0.48924
0.51447
0.390896
0.37324
0.369888
0.366761
0.363868
0.361161
0.358671
0.356332
0.354186
0.352084
0.350014
0.347676
0.344901
0.3414
0.337355
0.333004
0.328877
0.325832
0.325745
0.331717
0.349287
0.384078
0.435839
0.490465
0.51589
0.393516
0.37324
0.369888
0.36676
0.363865
0.361157
0.358662
0.356322
0.354189
0.352147
0.350238
0.348208
0.346022
0.343296
0.339858
0.335929
0.331762
0.327771
0.324979
0.325118
0.331501
0.349479
0.384745
0.436502
0.491764
0.518426
0.394917
0.37324
0.369888
0.36676
0.363863
0.361153
0.358654
0.356313
0.354179
0.352162
0.350334
0.348487
0.346673
0.344529
0.341938
0.338662
0.334871
0.330784
0.326992
0.324392
0.324906
0.331531
0.349733
0.385119
0.437351
0.492598
0.520082
0.505279
0.373241
0.369888
0.366759
0.363862
0.361151
0.358648
0.356304
0.354165
0.352157
0.350361
0.348617
0.347028
0.345252
0.343367
0.340941
0.337736
0.334091
0.330324
0.326774
0.324405
0.325005
0.331685
0.34998
0.385558
0.43773
0.494475
0.528789
0.713894
0.373241
0.369887
0.366759
0.36386
0.361149
0.358644
0.356297
0.354151
0.352144
0.350356
0.348665
0.347196
0.345661
0.344247
0.342454
0.340201
0.337385
0.334091
0.330435
0.32697
0.324656
0.325343
0.332039
0.350356
0.385879
0.438542
0.495022
0.545648
0.892817
0.373241
0.369887
0.366758
0.363859
0.361147
0.35864
0.356291
0.354139
0.35213
0.350337
0.348671
0.347257
0.345876
0.344756
0.343374
0.342023
0.340234
0.337579
0.334413
0.330913
0.327558
0.325298
0.326048
0.332728
0.350877
0.386284
0.439129
0.494746
0.558711
1.03846
0.373241
0.369887
0.366758
0.363859
0.361146
0.358637
0.356286
0.35413
0.352116
0.350316
0.348657
0.347262
0.345971
0.345008
0.343926
0.343198
0.342186
0.340613
0.338216
0.335265
0.331965
0.328761
0.326543
0.327261
0.333762
0.351596
0.386903
0.438878
0.493283
0.568574
1.16576
0.373241
0.369887
0.366758
0.363858
0.361145
0.358634
0.356282
0.354122
0.352105
0.350297
0.348636
0.347242
0.345998
0.34511
0.344261
0.343924
0.343449
0.342776
0.341559
0.339547
0.336935
0.333864
0.330703
0.328428
0.32894
0.33519
0.352614
0.387429
0.437996
0.490203
0.575403
1.27019
0.373241
0.369887
0.366758
0.363857
0.361144
0.358632
0.356278
0.354116
0.352095
0.35028
0.348615
0.347212
0.345987
0.345132
0.344428
0.344308
0.34424
0.344192
0.34403
0.343401
0.341831
0.339519
0.336576
0.33341
0.330945
0.331168
0.337045
0.353886
0.387885
0.436177
0.48488
0.579975
1.34816
0.373241
0.369887
0.366758
0.363857
0.361143
0.35863
0.356275
0.35411
0.352086
0.350266
0.348595
0.347183
0.34596
0.345114
0.344489
0.3445
0.344696
0.345101
0.345703
0.346287
0.346245
0.345108
0.343063
0.340213
0.336921
0.334191
0.33395
0.339367
0.355414
0.388031
0.433085
0.478243
0.58291
1.40835
0.373241
0.369887
0.366758
0.363857
0.361142
0.358629
0.356272
0.354106
0.352079
0.350254
0.348578
0.347157
0.345929
0.345078
0.344492
0.344577
0.344936
0.345656
0.346814
0.348258
0.349598
0.350209
0.349503
0.347699
0.344835
0.341343
0.338174
0.337355
0.342142
0.357138
0.387938
0.429007
0.471598
0.585416
1.45678
0.369887
0.373245
0.366758
0.363856
0.361142
0.358628
0.35627
0.354102
0.352073
0.350244
0.348563
0.347134
0.345899
0.34504
0.344465
0.34459
0.345045
0.345969
0.34753
0.349607
0.351946
0.354145
0.355444
0.355164
0.35351
0.350563
0.346696
0.342978
0.341351
0.345369
0.359339
0.387652
0.42482
0.465382
0.587834
1.49738
0.366758
0.369897
0.373252
0.363856
0.361141
0.358627
0.356268
0.354099
0.352068
0.350236
0.34855
0.347115
0.345873
0.345004
0.344428
0.344569
0.34508
0.346132
0.347968
0.350512
0.353604
0.356968
0.360106
0.362125
0.362204
0.360638
0.35743
0.353079
0.34857
0.345971
0.349359
0.36205
0.387296
0.420775
0.459779
0.590665
1.53275
0.363856
0.366774
0.369918
0.37326
0.361141
0.358626
0.356267
0.354096
0.352063
0.350229
0.348538
0.347098
0.345849
0.344972
0.344391
0.344536
0.345076
0.346208
0.348227
0.351106
0.354766
0.359029
0.363532
0.367684
0.370397
0.370782
0.369129
0.365554
0.360456
0.354991
0.351797
0.354319
0.365133
0.386982
0.416995
0.454889
0.593715
1.5644
0.36114
0.363878
0.366808
0.369939
0.373267
0.358625
0.356266
0.354093
0.352059
0.350223
0.348529
0.347084
0.345829
0.344943
0.344357
0.344501
0.345055
0.346236
0.34838
0.3515
0.355584
0.360539
0.366116
0.371868
0.377055
0.380443
0.380971
0.379125
0.374899
0.36889
0.363015
0.35915
0.359806
0.368426
0.387039
0.413652
0.450696
0.597261
1.59345
0.358624
0.361168
0.363922
0.366843
0.369961
0.373275
0.356264
0.354091
0.352055
0.350217
0.34852
0.347072
0.345811
0.344919
0.344327
0.34447
0.34503
0.346242
0.348471
0.351773
0.356179
0.36167
0.368093
0.375125
0.382183
0.388431
0.392365
0.392934
0.390594
0.385554
0.379389
0.37308
0.367324
0.365785
0.372166
0.387333
0.410668
0.447137
0.600943
1.62037
0.356263
0.358655
0.361223
0.363968
0.366878
0.369984
0.373284
0.354089
0.352053
0.350213
0.348512
0.347061
0.345795
0.344898
0.3443
0.344441
0.345007
0.346241
0.348529
0.351971
0.35664
0.362557
0.36966
0.377724
0.386302
0.394727
0.401948
0.406351
0.406646
0.403655
0.398791
0.392515
0.384237
0.37625
0.37217
0.376019
0.38796
0.408231
0.444056
0.604982
1.64572
0.354088
0.356299
0.358719
0.36128
0.364016
0.366915
0.370007
0.373292
0.35205
0.350208
0.348506
0.347052
0.345781
0.34488
0.344278
0.344417
0.344986
0.346237
0.348573
0.352124
0.357012
0.363302
0.370969
0.37989
0.389724
0.399944
0.409675
0.417829
0.422396
0.422259
0.419868
0.415323
0.407034
0.396387
0.385826
0.37901
0.380014
0.389005
0.406243
0.441516
0.609018
1.66951
0.352048
0.354126
0.356371
0.358785
0.361338
0.364064
0.366952
0.370031
0.373301
0.350205
0.3485
0.347044
0.345769
0.344864
0.344258
0.344395
0.344968
0.346234
0.34861
0.352252
0.357323
0.363944
0.372134
0.381794
0.392702
0.404443
0.416282
0.427317
0.43611
0.440696
0.44164
0.440107
0.433582
0.422812
0.409402
0.395967
0.386218
0.384184
0.39033
0.404704
0.439346
0.613266
1.69214
0.350202
0.352089
0.354205
0.356446
0.358853
0.361398
0.364114
0.36699
0.370056
0.37331
0.348495
0.347038
0.345758
0.344851
0.344241
0.344377
0.344952
0.346232
0.348643
0.352366
0.357595
0.364503
0.373186
0.383567
0.395435
0.408511
0.422169
0.435665
0.447728
0.457066
0.463473
0.465875
0.462453
0.453397
0.439682
0.423154
0.406583
0.393719
0.388517
0.391922
0.403586
0.437627
0.617404
1.71342
0.348491
0.350243
0.352174
0.354287
0.356523
0.358923
0.36146
0.364165
0.36703
0.370081
0.373319
0.347032
0.345749
0.34484
0.344226
0.344361
0.344939
0.346232
0.348674
0.352469
0.357841
0.365005
0.374132
0.385224
0.398069
0.412382
0.427681
0.443341
0.458222
0.471265
0.483294
0.492108
0.492698
0.486717
0.474559
0.45747
0.437506
0.41757
0.401444
0.392988
0.39361
0.40286
0.436183
0.621646
1.73374
0.347026
0.348533
0.350332
0.352262
0.354371
0.356603
0.358995
0.361523
0.364218
0.36707
0.370107
0.373328
0.34574
0.344831
0.344212
0.344347
0.344928
0.346232
0.348704
0.352565
0.358065
0.365464
0.374995
0.386745
0.400602
0.416231
0.43309
0.450755
0.468159
0.484434
0.500893
0.516504
0.524028
0.521947
0.512661
0.496855
0.475994
0.452316
0.42883
0.409322
0.39761
0.395399
0.402409
0.435087
0.625708
1.75277
0.345733
0.347066
0.348622
0.350423
0.352352
0.354457
0.356684
0.359068
0.361589
0.364272
0.367112
0.370133
0.373338
0.344823
0.3442
0.344335
0.344919
0.346233
0.348731
0.352652
0.35827
0.365885
0.375791
0.388151
0.402973
0.420019
0.438605
0.45824
0.478037
0.497263
0.517674
0.538747
0.553807
0.559054
0.553392
0.540064
0.520073
0.495074
0.467444
0.44026
0.417294
0.40233
0.397283
0.402233
0.434182
0.629803
1.77098
0.344817
0.345766
0.347153
0.348714
0.350517
0.352446
0.354546
0.356768
0.359144
0.361656
0.364327
0.367155
0.37016
0.373347
0.344188
0.344324
0.344911
0.346235
0.348757
0.352733
0.358459
0.366272
0.376525
0.38946
0.405196
0.42362
0.444142
0.466062
0.488269
0.510367
0.5345
0.56062
0.581704
0.59511
0.596952
0.586773
0.568698
0.544
0.514531
0.482754
0.451767
0.425301
0.407107
0.399242
0.40228
0.433547
0.633675
1.78794
0.344177
0.344845
0.345841
0.347242
0.34881
0.350614
0.352542
0.354638
0.356855
0.359222
0.361724
0.364384
0.367199
0.370187
0.373356
0.344314
0.344904
0.346238
0.348781
0.352807
0.358631
0.366628
0.377203
0.390676
0.407282
0.427031
0.449489
0.474086
0.499189
0.524278
0.552175
0.583273
0.609989
0.629832
0.640276
0.637489
0.621819
0.598313
0.568429
0.5342
0.498121
0.463264
0.433288
0.411899
0.401266
0.402418
0.433049
0.637542
1.80418
0.344308
0.344178
0.344907
0.345919
0.347334
0.34891
0.350714
0.352642
0.354732
0.356943
0.359302
0.361795
0.364442
0.367242
0.370213
0.373365
0.344897
0.34624
0.348803
0.352875
0.358789
0.366954
0.377826
0.391804
0.409233
0.430258
0.454625
0.481962
0.510574
0.539459
0.571449
0.607847
0.640252
0.666174
0.683231
0.689212
0.680445
0.658266
0.628668
0.593173
0.553932
0.513435
0.474674
0.441205
0.416674
0.40333
0.40268
0.432779
0.641159
1.81921
0.344894
0.344291
0.344188
0.344971
0.346001
0.34743
0.349013
0.350817
0.352744
0.354829
0.357035
0.359384
0.361867
0.3645
0.367284
0.370239
0.373374
0.346241
0.348823
0.352937
0.358933
0.367252
0.378398
0.392847
0.411053
0.433301
0.45954
0.48961
0.521891
0.555667
0.593045
0.63548
0.674212
0.706511
0.729857
0.742211
0.741923
0.725635
0.69587
0.65953
0.618057
0.573595
0.528598
0.485931
0.449008
0.421401
0.405436
0.403026
0.432581
0.644754
1.83364
0.346247
0.344848
0.344261
0.344199
0.345038
0.34609
0.34753
0.349121
0.350923
0.35285
0.354928
0.357129
0.359468
0.361939
0.364556
0.367325
0.370263
0.373382
0.348839
0.352992
0.359064
0.367525
0.378923
0.393809
0.412743
0.436158
0.464218
0.496985
0.533031
0.572197
0.616636
0.667345
0.713863
0.753833
0.784058
0.802305
0.807354
0.798517
0.772919
0.734422
0.690699
0.642919
0.593071
0.543527
0.496974
0.456658
0.426056
0.407559
0.403436
0.432552
0.648081
1.8469
0.34886
0.346155
0.344746
0.344225
0.344226
0.345108
0.346185
0.347632
0.349233
0.351033
0.35296
0.355031
0.357225
0.359552
0.362009
0.364611
0.367364
0.370287
0.37339
0.353041
0.359182
0.367773
0.379403
0.394693
0.414308
0.438828
0.468643
0.504058
0.543959
0.588838
0.641018
0.703261
0.761896
0.812333
0.851382
0.876004
0.885205
0.879354
0.859132
0.822181
0.773737
0.721998
0.667618
0.612264
0.558153
0.507757
0.464124
0.430617
0.409682
0.403893
0.432584
0.651391
1.85966
0.353096
0.348692
0.34594
0.344634
0.344187
0.344271
0.345179
0.346286
0.347739
0.349349
0.351146
0.353072
0.355136
0.35732
0.359633
0.362076
0.364664
0.367403
0.370311
0.373398
0.359287
0.367997
0.379841
0.395505
0.415753
0.441316
0.472809
0.510808
0.55462
0.605403
0.665773
0.742119
0.819884
0.888154
0.939732
0.972534
0.985445
0.979969
0.958691
0.923801
0.873276
0.813636
0.753271
0.692034
0.631092
0.572418
0.518241
0.47138
0.435066
0.411788
0.404396
0.432664
0.654423
1.86989
0.359397
0.352837
0.348286
0.345712
0.344534
0.344148
0.34433
0.345253
0.346394
0.347848
0.349469
0.351262
0.353187
0.35524
0.357413
0.359712
0.362142
0.364715
0.36744
0.370333
0.373406
0.3682
0.380238
0.396248
0.417084
0.443626
0.476716
0.517221
0.564945
0.621701
0.690854
0.784314
0.887377
0.984966
1.05884
1.10326
1.12075
1.11374
1.08694
1.04529
0.992314
0.925985
0.853934
0.784376
0.716058
0.649484
0.586277
0.528395
0.478405
0.439388
0.413864
0.404921
0.432821
0.657028
1.87851
0.368402
0.359018
0.352177
0.347861
0.345503
0.344444
0.344112
0.344401
0.34533
0.346507
0.347963
0.349593
0.351382
0.353301
0.355342
0.357503
0.359789
0.362206
0.364766
0.367477
0.370355
0.373414
0.380601
0.396925
0.418307
0.445765
0.480368
0.523287
0.57487
0.637612
0.716414
0.830328
0.964141
1.0992
1.21065
1.27862
1.30366
1.29516
1.25965
1.20505
1.13838
1.06416
0.979994
0.894429
0.81518
0.739602
0.667382
0.599696
0.538196
0.485183
0.443571
0.415899
0.405472
0.432974
0.659194
1.88781
0.380951
0.367869
0.357996
0.35149
0.347464
0.345313
0.344362
0.344085
0.344479
0.345413
0.346624
0.348082
0.349719
0.351502
0.353412
0.355441
0.35759
0.359864
0.362268
0.364814
0.367512
0.370377
0.373421
0.397548
0.419428
0.447741
0.483772
0.529001
0.584352
0.653102
0.74262
0.879949
1.04838
1.22583
1.38342
1.49452
1.54223
1.53545
1.49114
1.41977
1.33204
1.23659
1.13857
1.03489
0.934901
0.845554
0.762588
0.684742
0.612647
0.547628
0.491703
0.447607
0.417883
0.405956
0.433145
0.661549
1.89799
0.398132
0.380222
0.36634
0.356939
0.350841
0.347094
0.345136
0.344289
0.344067
0.344564
0.345502
0.346747
0.348205
0.349845
0.351618
0.35352
0.355538
0.357675
0.359937
0.362328
0.364862
0.367546
0.370398
0.373424
0.420464
0.449563
0.486936
0.534361
0.593372
0.668181
0.769485
0.93226
1.13712
1.359
1.56663
1.7303
1.82546
1.83955
1.79034
1.70241
1.58969
1.46504
1.3382
1.2146
1.09021
0.975113
0.875378
0.784952
0.701524
0.62511
0.556679
0.497957
0.451488
0.419554
0.40639
0.433334
0.664128
1.90903
0.421415
0.397166
0.377988
0.364769
0.355936
0.350227
0.346746
0.344971
0.344226
0.34406
0.344654
0.345599
0.346872
0.34833
0.349968
0.351733
0.353625
0.355632
0.357758
0.360007
0.362387
0.364908
0.36758
0.370408
0.373424
0.451258
0.489874
0.539375
0.601931
0.682866
0.796839
0.986002
1.22732
1.4934
1.75198
1.97205
2.12571
2.19102
2.16015
2.06005
1.92273
1.76497
1.60112
1.44143
1.29123
1.14544
1.01483
0.904538
0.806637
0.7177
0.637071
0.565344
0.50394
0.45472
0.420998
0.406883
0.433606
0.666963
1.92116
0.452786
0.420163
0.393954
0.375707
0.363273
0.35498
0.349641
0.346418
0.344819
0.344174
0.344065
0.344746
0.345704
0.346996
0.348454
0.350087
0.351845
0.353727
0.355724
0.357838
0.360076
0.362444
0.364953
0.367596
0.370408
0.373424
0.492618
0.544061
0.610046
0.697159
0.824392
1.03993
1.31654
1.62517
1.93352
2.21067
2.42726
2.55691
2.58037
2.49503
2.33743
2.14668
1.94173
1.73764
1.5446
1.36751
1.2001
1.05382
0.932929
0.827596
0.733251
0.648525
0.573619
0.508899
0.457487
0.422607
0.407461
0.433909
0.670064
1.93434
0.495051
0.451175
0.415597
0.390704
0.373536
0.361843
0.354061
0.34908
0.346111
0.34468
0.344134
0.344087
0.344839
0.345816
0.347117
0.348575
0.350204
0.351954
0.353826
0.355813
0.357917
0.360143
0.362499
0.364975
0.367596
0.370408
0.373424
0.548462
0.617749
0.711055
0.851818
1.09302
1.40307
1.75184
2.10754
2.44016
2.72048
2.91995
3.01336
2.98449
2.83679
2.61671
2.36994
2.11682
1.87243
1.6463
1.44259
1.25375
1.09188
0.960456
0.847791
0.748162
0.659467
0.580466
0.513133
0.460548
0.424407
0.408119
0.434328
0.67348
1.94887
0.552325
0.493003
0.444739
0.411022
0.387608
0.371452
0.360463
0.353176
0.348542
0.345827
0.344554
0.344102
0.344133
0.344929
0.34593
0.347235
0.348695
0.350317
0.35206
0.353923
0.3559
0.357993
0.360208
0.362526
0.364975
0.367596
0.370408
0.373424
0.625093
0.72455
0.878827
1.14449
1.48582
1.872
2.27197
2.657
2.99909
3.26953
3.43984
3.48607
3.39585
3.17943
2.89333
2.58917
2.28787
2.00381
1.74541
1.51578
1.30601
1.12883
0.987042
0.867195
0.762425
0.668525
0.586308
0.5178
0.463938
0.426422
0.4089
0.434789
0.677224
1.96462
0.631555
0.549704
0.483944
0.438353
0.406665
0.384631
0.369436
0.359128
0.352323
0.348025
0.345564
0.344438
0.344066
0.3442
0.345017
0.346045
0.347351
0.348813
0.350427
0.352164
0.354017
0.355984
0.358066
0.360241
0.362526
0.364975
0.367596
0.370408
0.373424
0.737635
0.905184
1.19381
1.56415
1.98492
2.42581
2.85939
3.25937
3.59846
3.84753
3.97784
3.96721
3.808
3.51803
3.16376
2.8019
2.45313
2.13054
1.84107
1.58652
1.35656
1.16451
1.01263
0.885785
0.774244
0.676254
0.59274
0.522953
0.467702
0.428688
0.409791
0.435412
0.681376
1.98201
0.749207
0.628235
0.536822
0.475067
0.432273
0.402469
0.381746
0.367482
0.357839
0.351505
0.347534
0.34532
0.344336
0.344031
0.344278
0.345104
0.346159
0.347464
0.348928
0.350535
0.352265
0.354108
0.356067
0.358103
0.360241
0.362526
0.364975
0.367596
0.370408
0.373421
0.930673
1.24065
1.63775
2.09033
2.56873
3.04664
3.49954
3.90242
4.22771
4.44514
4.5257
4.44972
4.21542
3.84864
3.42535
3.00636
2.61141
2.25182
1.9327
1.65441
1.40517
1.19881
1.03716
0.901208
0.784334
0.684768
0.599834
0.52865
0.471887
0.431236
0.410855
0.436037
0.685937
2.00082
0.745136
0.953067
0.609117
0.524467
0.466614
0.426411
0.398395
0.378944
0.365591
0.356597
0.350722
0.347073
0.3451
0.344249
0.344008
0.344361
0.345191
0.346273
0.347575
0.34904
0.35064
0.352364
0.354197
0.356107
0.358103
0.360241
0.362526
0.364975
0.367596
0.370398
0.373413
1.28478
1.70651
2.18822
2.70078
3.21873
3.71909
4.17938
4.57497
4.87705
5.05364
5.07574
4.92731
4.61342
4.16814
3.67613
3.20135
2.76195
2.3671
2.01992
1.7192
1.45167
1.23164
1.05751
0.914385
0.795455
0.69416
0.60767
0.534961
0.476552
0.434118
0.41207
0.436843
0.69103
2.02163
0.715079
0.948985
1.32277
0.591349
0.512749
0.458453
0.420716
0.394436
0.376229
0.363766
0.355405
0.349977
0.346646
0.344907
0.344178
0.343996
0.344447
0.34528
0.346385
0.347684
0.34915
0.350742
0.35246
0.354241
0.356107
0.358103
0.360241
0.362526
0.364975
0.36758
0.370377
0.373406
1.77037
2.27877
2.82231
3.37609
3.91839
4.42901
4.8868
5.2666
5.53732
5.66482
5.62085
5.39436
4.99812
4.47413
3.91475
3.38613
2.90432
2.47611
2.10251
1.78071
1.49596
1.25882
1.0749
0.928916
0.807729
0.704538
0.61634
0.541964
0.481763
0.437375
0.413529
0.437659
0.696629
2.04402
0.687478
0.901222
1.31888
1.8248
0.574783
0.501428
0.450521
0.415178
0.390595
0.373604
0.362009
0.354265
0.349278
0.346265
0.344741
0.344122
0.343997
0.344532
0.345371
0.346494
0.347792
0.349257
0.350843
0.352507
0.354241
0.356107
0.358103
0.360241
0.362526
0.364952
0.367546
0.370355
0.373398
2.36215
2.9338
3.51951
4.09839
4.65216
5.16304
5.61055
5.96768
6.19991
6.27093
6.15452
5.84604
5.36638
4.76488
4.14038
3.56033
3.03833
2.57874
2.18041
1.83888
1.53243
1.28199
1.09407
0.944961
0.821297
0.716023
0.625951
0.549752
0.487597
0.441082
0.415198
0.438734
0.702941
2.06886
0.662139
0.856067
1.24972
1.82205
2.43254
0.558949
0.490412
0.442809
0.409803
0.386879
0.371074
0.360324
0.353189
0.348642
0.34593
0.344599
0.344081
0.344011
0.344616
0.345464
0.346601
0.347898
0.349362
0.350892
0.352507
0.354241
0.356107
0.358103
0.360241
0.362499
0.364907
0.367511
0.370333
0.37339
3.0357
3.6499
4.26044
4.85051
5.40521
5.90886
6.34042
6.66934
6.85672
6.86474
6.67091
6.27828
5.71584
5.03926
4.35258
3.72382
3.16403
2.67506
2.25363
1.88647
1.56341
1.30748
1.11522
0.9627
0.836315
0.728754
0.636625
0.558429
0.494147
0.445295
0.417213
0.439842
0.709874
2.09537
0.638417
0.813776
1.18169
1.734
2.43188
3.121
0.54364
0.479694
0.435329
0.4046
0.383295
0.368644
0.358728
0.352202
0.348075
0.345637
0.344478
0.344053
0.344039
0.344697
0.345558
0.346706
0.348004
0.349414
0.350891
0.352507
0.354241
0.356107
0.358103
0.360208
0.362443
0.36486
0.367476
0.37031
0.373382
3.76805
4.40611
5.02627
5.61594
6.16389
6.65552
7.06734
7.36346
7.50016
7.43957
7.16493
6.68786
6.04489
5.29665
4.55121
3.87672
3.28158
2.76518
2.31321
1.92673
1.59735
1.33553
1.13857
0.982333
0.852964
0.742892
0.648503
0.568122
0.501517
0.450123
0.419529
0.44132
0.717788
2.12488
0.615972
0.773956
1.11528
1.64563
2.32746
3.12291
3.86577
0.528801
0.469296
0.428094
0.399582
0.379852
0.366338
0.357259
0.351316
0.347568
0.345384
0.344375
0.344031
0.344085
0.344775
0.345654
0.346812
0.348055
0.349413
0.350891
0.352507
0.354241
0.356107
0.358066
0.360142
0.362385
0.364813
0.367439
0.370287
0.373374
4.53666
5.18185
5.79862
6.37956
6.91627
7.39367
7.78336
8.04249
8.12308
7.98938
7.63235
7.07247
6.35254
5.53682
4.73644
4.0193
3.39122
2.83824
2.36343
1.97061
1.63452
1.3664
1.16437
1.00409
0.871448
0.75862
0.66175
0.578975
0.509841
0.455647
0.422345
0.442879
0.726441
2.156
0.594649
0.736483
1.05029
1.55738
2.22169
3.00417
3.86953
4.64258
0.514433
0.459244
0.421121
0.394761
0.376581
0.364213
0.355936
0.35052
0.347114
0.345166
0.344288
0.344004
0.344141
0.344853
0.345756
0.346862
0.348052
0.349412
0.350891
0.352507
0.354241
0.356066
0.357991
0.360074
0.362326
0.364764
0.367402
0.370263
0.373365
5.3192
5.95683
6.56079
7.12819
7.65255
8.1156
8.48141
8.69939
8.71882
8.50893
8.06996
7.43059
6.63839
5.75997
4.90865
4.15193
3.47983
2.89965
2.41798
2.01843
1.67522
1.40037
1.19289
1.02821
0.891996
0.776149
0.676557
0.591159
0.519263
0.462027
0.425604
0.44498
0.736495
2.1967
0.574365
0.701394
0.986826
1.46885
2.11495
2.88366
3.73781
4.64598
5.42747
0.500555
0.449567
0.414429
0.390182
0.373566
0.362296
0.354745
0.349805
0.346708
0.344978
0.344215
0.343982
0.344208
0.344939
0.345804
0.346857
0.348052
0.349412
0.350891
0.352507
0.354197
0.355983
0.357914
0.360005
0.362266
0.364713
0.367363
0.370238
0.373356
6.09343
6.71272
7.29815
7.85134
8.36519
8.81483
9.15503
9.3274
9.28126
8.9939
8.47548
7.76148
6.90256
5.96653
5.0683
4.25882
3.55417
2.96617
2.47718
2.07051
1.71975
1.43774
1.22441
1.05498
0.914867
0.795719
0.693144
0.604875
0.529975
0.469382
0.429601
0.447236
0.749353
2.24587
0.555051
0.668754
0.925314
1.37992
2.00672
2.76159
3.60467
4.50171
5.42684
6.19748
0.487196
0.440295
0.408078
0.385963
0.370845
0.360566
0.353671
0.349163
0.34635
0.344816
0.344153
0.343974
0.344289
0.344975
0.345798
0.346856
0.348052
0.349413
0.350892
0.352459
0.354107
0.355898
0.357836
0.359934
0.362203
0.364662
0.367324
0.370213
0.373347
6.83942
7.43329
7.99926
8.54149
9.04816
9.48594
9.79822
9.92001
9.80498
9.44105
8.84768
8.06517
7.14561
6.15713
5.19653
4.34833
3.63453
3.03817
2.54139
2.12717
1.76843
1.47884
1.25926
1.0847
0.940349
0.8176
0.711765
0.620362
0.542183
0.477953
0.434267
0.450935
0.76618
2.29549
0.536659
0.638569
0.86634
1.29081
1.89658
2.6373
3.47003
4.35725
5.26913
6.18823
6.93112
0.474392
0.431516
0.402233
0.382156
0.368389
0.359006
0.352705
0.348589
0.346033
0.344675
0.344109
0.343995
0.344327
0.344959
0.345798
0.346856
0.348052
0.349414
0.350842
0.352362
0.354014
0.35581
0.357755
0.359861
0.36214
0.364609
0.367283
0.370187
0.373338
7.53925
8.10595
8.65663
9.19269
9.69702
10.1245
10.4048
10.4709
10.2855
9.84832
9.18632
8.34229
7.36834
6.30944
5.30363
4.44485
3.72129
3.11602
2.61096
2.18875
1.8216
1.52398
1.29775
1.11769
0.968756
0.842096
0.732715
0.637891
0.556161
0.487922
0.441137
0.455368
0.78508
2.34514
0.519153
0.610759
0.810581
1.20202
1.78439
2.51009
3.33316
4.21219
5.11367
6.01443
6.90726
7.60913
0.46227
0.423457
0.396965
0.378723
0.366174
0.3576
0.351836
0.348074
0.345751
0.344561
0.344102
0.343994
0.344315
0.344956
0.345798
0.346857
0.348055
0.349362
0.35074
0.352262
0.35392
0.35572
0.357672
0.359786
0.362074
0.364555
0.367241
0.37016
0.373328
8.17908
8.72281
9.25891
9.79185
10.298
10.7209
10.9682
10.974
10.7195
10.215
9.49204
8.59385
7.54499
6.43617
5.41878
4.54881
3.81486
3.20008
2.68622
2.25558
1.87959
1.5735
1.34023
1.15429
1.00043
0.869546
0.756319
0.657804
0.572218
0.50184
0.450521
0.461852
0.805976
2.39424
0.502629
0.585168
0.758705
1.11429
1.67026
2.37943
3.1931
4.06577
4.95948
5.84691
6.71369
7.56307
8.21718
0.451155
0.416214
0.392219
0.375628
0.364176
0.356333
0.351052
0.347611
0.345516
0.344502
0.344084
0.343961
0.344317
0.344956
0.345798
0.346862
0.348003
0.349255
0.350637
0.35216
0.353823
0.355628
0.357587
0.359709
0.362007
0.364499
0.367198
0.370133
0.373319
8.74866
9.27284
9.80739
10.3479
10.8537
11.2668
11.4804
11.4246
11.1055
10.5416
9.76611
8.79131
7.69115
6.57182
5.54236
4.66058
3.91561
3.29073
2.76753
2.32797
1.94269
1.62772
1.38702
1.19485
1.03572
0.900302
0.782965
0.680461
0.594173
0.520636
0.462205
0.468726
0.829361
2.44252
0.487475
0.561729
0.711273
1.02856
1.55447
2.24499
3.04892
3.9168
4.80583
5.6838
6.53184
7.34556
8.13569
8.74707
0.441188
0.409705
0.387945
0.372839
0.362374
0.355187
0.350344
0.347214
0.345363
0.344454
0.344044
0.343958
0.344316
0.344959
0.345804
0.346811
0.347896
0.349146
0.350531
0.352056
0.353723
0.355534
0.3575
0.359631
0.361938
0.364442
0.367155
0.370106
0.373309
9.24466
9.75654
10.3005
10.8613
11.3704
11.7607
11.9353
11.8197
11.4434
10.8294
9.97818
8.95339
7.84654
6.71662
5.6747
4.78053
4.02389
3.38828
2.85519
2.40622
2.01121
1.68695
1.43845
1.2397
1.07498
0.934753
0.813017
0.711097
0.623206
0.542534
0.475939
0.47805
0.855495
2.48937
0.47386
0.540705
0.668901
0.946051
1.43753
2.10663
2.8998
3.76401
4.65137
5.52431
6.35891
7.14625
7.89134
8.60834
9.18155
0.432263
0.403857
0.384098
0.370325
0.360745
0.35415
0.34973
0.346934
0.345258
0.344399
0.344042
0.343958
0.344315
0.344975
0.345755
0.346704
0.347788
0.349036
0.350423
0.351949
0.353621
0.355438
0.35741
0.35955
0.361867
0.364384
0.367111
0.37008
0.3733
9.65424
10.1677
10.736
11.3263
11.8412
12.1964
12.3271
12.1587
11.7346
11.0478
10.1503
9.12409
8.01112
6.87072
5.81601
4.90894
4.14001
3.49304
2.94946
2.49059
2.0854
1.75143
1.49479
1.28915
1.11856
0.973225
0.853238
0.750841
0.655884
0.567653
0.49305
0.488419
0.884572
2.53454
0.461652
0.522034
0.632438
0.868786
1.32032
1.96438
2.74505
3.6061
4.49452
5.36692
6.19394
6.96168
7.67126
8.33525
8.97553
9.51285
0.424278
0.398603
0.380635
0.368053
0.359269
0.353244
0.349276
0.346758
0.345179
0.344397
0.344042
0.343961
0.344327
0.344938
0.345652
0.346598
0.34768
0.348923
0.350312
0.35184
0.353516
0.355339
0.357318
0.359468
0.361795
0.364326
0.367069
0.370055
0.373292
9.97365
10.5054
11.1152
11.7417
12.2566
12.5655
12.6506
12.442
11.9491
11.2222
10.3292
9.30282
8.18459
7.03405
5.96643
5.046
4.26419
3.60523
3.05058
2.58128
2.16543
1.82138
1.55628
1.34346
1.16672
1.02412
0.90439
0.794408
0.692272
0.596712
0.513195
0.502167
0.917421
2.57728
0.45073
0.505319
0.601789
0.800048
1.20493
1.81853
2.58405
3.44176
4.33355
5.20979
6.03513
6.79061
7.47276
8.09156
8.66672
9.22814
9.73564
0.417135
0.393883
0.377512
0.365997
0.357974
0.352556
0.349002
0.346653
0.345177
0.344397
0.344044
0.343993
0.344288
0.344851
0.345555
0.34649
0.34757
0.348808
0.350199
0.351729
0.353409
0.355238
0.357224
0.359384
0.361723
0.36427
0.367029
0.37003
0.373283
10.1986
10.7708
11.4402
12.1026
12.6046
12.8595
12.9021
12.6412
12.1164
11.3999
10.5135
9.48865
8.3664
7.20636
6.12589
5.19178
4.39655
3.725
3.15866
2.67839
2.25143
1.89691
1.62304
1.40277
1.22964
1.08754
0.959104
0.841562
0.732515
0.629642
0.53787
0.517986
0.953857
2.61741
0.440981
0.49029
0.575812
0.741274
1.09603
1.67075
2.41637
3.26963
4.16658
5.05088
5.88045
6.63089
7.29437
7.87693
8.39569
8.87777
9.35544
9.84033
0.410744
0.389635
0.374689
0.364188
0.356973
0.35215
0.348862
0.346652
0.345176
0.344398
0.344083
0.343995
0.344206
0.344772
0.34546
0.34638
0.347459
0.34869
0.350083
0.351615
0.353299
0.355135
0.357128
0.359301
0.361654
0.364216
0.366989
0.370006
0.373275
10.3267
10.9672
11.7105
12.3948
12.8712
13.0757
13.0595
12.7896
12.2816
11.5785
10.7012
9.68021
8.55562
7.38712
6.29413
5.34618
4.53709
3.85236
3.27374
2.78194
2.34339
1.97802
1.69507
1.47924
1.30647
1.15385
1.01678
0.891939
0.776294
0.6669
0.566551
0.538422
0.995427
2.65417
0.432295
0.476771
0.553493
0.691959
0.997024
1.52607
2.24307
3.08841
3.99153
4.88784
5.72762
6.48022
7.13342
7.68978
8.16298
8.57545
8.96124
9.3455
9.81802
0.405012
0.385802
0.372204
0.362771
0.356391
0.351967
0.348863
0.346652
0.345178
0.344453
0.344101
0.343973
0.344139
0.344694
0.345367
0.346268
0.347346
0.348571
0.349964
0.351499
0.353186
0.35503
0.357033
0.35922
0.361586
0.364163
0.366951
0.369983
0.373267
10.3548
11.0998
11.9086
12.5993
13.0375
13.1943
13.1631
12.9262
12.4416
11.7548
10.8899