/*--------------------------------*- C++ -*----------------------------------*\
  =========                 |
  \\      /  F ield         | OpenFOAM: The Open Source CFD Toolbox
   \\    /   O peration     | Website:  https://openfoam.org
    \\  /    A nd           | Version:  8
     \\/     M anipulation  |
\*---------------------------------------------------------------------------*/
FoamFile
{
    version     2.0;
    format      ascii;
    class       volScalarField;
    location    "0.16";
    object      nut;
}
// * * * * * * * * * * * * * * * * * * * * * * * * * * * * * * * * * * * * * //

dimensions      [0 2 -1 0 0 0 0];

internalField   nonuniform List<scalar> 
15677
(
0.000168252
0.000653022
0.000148416
0.00151374
0.000442451
0.000141507
0.00267551
0.000875786
0.000381136
0.000142375
0.00392132
0.00151887
0.000686596
0.000354238
0.000145458
0.00502431
0.00235604
0.00114629
0.000585598
0.000340248
0.000151203
0.00584083
0.00331724
0.00178059
0.000947665
0.000529269
0.00033201
0.000156999
0.00633513
0.00429852
0.00256737
0.00146311
0.000820827
0.000492475
0.000326996
0.000162436
0.00656291
0.00518758
0.00345259
0.00213128
0.00125701
0.000737196
0.000467466
0.000324118
0.000167216
0.00665848
0.00589342
0.00435507
0.00292172
0.0018412
0.00111217
0.000677375
0.000450462
0.000322564
0.000171434
0.0067055
0.0063383
0.00518068
0.00377853
0.00255653
0.00163152
0.00100454
0.000634124
0.000438747
0.000321997
0.000174998
0.00671438
0.00655353
0.00584524
0.00462487
0.00336227
0.00228608
0.00147251
0.000924215
0.000602261
0.000430807
0.000321957
0.000178128
0.00670991
0.00666157
0.00629561
0.00537681
0.00419651
0.00304477
0.00207753
0.00134897
0.000862313
0.000578654
0.000425379
0.000322428
0.000180734
0.00670629
0.00669879
0.00652954
0.00596428
0.00498385
0.00385677
0.00279539
0.00191159
0.0012513
0.000814227
0.000560978
0.000421887
0.000323077
0.000183083
0.00670543
0.00670439
0.00664678
0.00635687
0.00564985
0.00465538
0.00358297
0.00259333
0.00177785
0.00117316
0.000776551
0.000547808
0.000419581
0.000323982
0.000185125
0.0067055
0.00670285
0.00668787
0.00656293
0.00614194
0.00536812
0.00438098
0.00335668
0.0024279
0.00166825
0.00110993
0.000746813
0.000537799
0.000418339
0.000324829
0.000186937
0.00670568
0.00670159
0.00669641
0.00665656
0.0064467
0.00593346
0.00512079
0.00414839
0.00316846
0.00229008
0.00157819
0.00105831
0.000723272
0.000530534
0.000417476
0.000325878
0.000188591
0.00670579
0.00670108
0.00669719
0.00668488
0.00660484
0.00632171
0.00573735
0.00490374
0.00395097
0.0030095
0.00217526
0.00150324
0.0010166
0.000704831
0.000524895
0.00041735
0.000326809
0.000190006
0.00670585
0.00670092
0.00669684
0.00669158
0.00666375
0.00654125
0.00618822
0.00555693
0.00471448
0.00378166
0.00287537
0.00207857
0.00144138
0.000982652
0.000690148
0.000521031
0.000417296
0.000327898
0.000191433
0.00670587
0.00670088
0.00669661
0.00669257
0.00668238
0.00663454
0.00646781
0.00605807
0.00539389
0.00454893
0.00363683
0.00276131
0.00199771
0.0013901
0.000955146
0.000678824
0.000518014
0.000417833
0.000328868
0.00019255
0.00670588
0.00670086
0.00669652
0.00669244
0.00668745
0.00666906
0.00659806
0.00638962
0.00593502
0.00524744
0.00440489
0.00351244
0.00266489
0.00193001
0.00134804
0.000933023
0.000669952
0.000516299
0.000418249
0.000329955
0.000193879
0.00670589
0.00670085
0.0066965
0.00669225
0.00668846
0.00668064
0.00665152
0.00655632
0.00631108
0.00582035
0.00511713
0.00427962
0.00340623
0.0025836
0.00187398
0.00131369
0.000915561
0.000663406
0.000514955
0.000419205
0.000330983
0.000194769
0.00670589
0.00670083
0.0066965
0.00669214
0.00668852
0.00668393
0.00667192
0.00663042
0.00651136
0.00623371
0.0057153
0.00500193
0.00417157
0.00331625
0.00251583
0.00182803
0.0012863
0.000901909
0.000658586
0.000514718
0.000419921
0.000332033
0.000196087
0.00670589
0.00670083
0.0066965
0.00669208
0.00668844
0.00668463
0.00667889
0.0066613
0.00660624
0.0064657
0.00616064
0.00562062
0.00490145
0.00407939
0.00324061
0.00246018
0.0017912
0.00126486
0.000891994
0.000655468
0.000514481
0.000421172
0.000333197
0.000196818
0.00670589
0.00670082
0.0066965
0.00669204
0.00668838
0.00668465
0.00668096
0.00667298
0.00664879
0.00658107
0.00641959
0.00609359
0.00553669
0.0048146
0.00400134
0.00317876
0.00241568
0.00176283
0.00124902
0.000884667
0.000653597
0.000515385
0.0004221
0.000334115
0.000198138
0.00670588
0.00670083
0.00669649
0.00669201
0.00668835
0.00668455
0.00668143
0.00667692
0.00666635
0.00663551
0.00655426
0.00637746
0.00603179
0.00546281
0.00474127
0.00393825
0.00312929
0.00238134
0.00174143
0.00123769
0.000880714
0.000653108
0.000515871
0.000423616
0.000335608
0.000198843
0.00670587
0.00670083
0.00669648
0.006692
0.00668833
0.00668446
0.00668147
0.00667803
0.00667297
0.00665929
0.00662107
0.00652983
0.00633601
0.0059777
0.00540179
0.00468176
0.00388641
0.00309081
0.00235616
0.00172828
0.00123213
0.000878661
0.000653619
0.000517839
0.000424647
0.000336391
5.33957e-05
0.00670587
0.00670084
0.00669647
0.00669199
0.00668831
0.00668439
0.00668142
0.00667821
0.0066752
0.00666884
0.00665189
0.00660793
0.00650477
0.00630317
0.00593275
0.00534904
0.00463233
0.00384988
0.00306694
0.00234296
0.00172198
0.0012295
0.000879539
0.000655456
0.000519003
0.000427088
0.000284018
6.34684e-05
0.00670586
0.00670085
0.00669646
0.00669199
0.00668829
0.00668434
0.00668137
0.00667814
0.00667582
0.00667231
0.00666509
0.00664531
0.00659454
0.00648635
0.00626963
0.00589261
0.00531307
0.0046044
0.00382801
0.00305251
0.00233576
0.00172037
0.00123118
0.000882072
0.000657506
0.000521531
0.000420838
0.000219953
7.09777e-05
0.00670585
0.00670086
0.00669645
0.00669199
0.00668827
0.00668432
0.00668133
0.00667803
0.00667591
0.00667335
0.0066703
0.00666197
0.00663919
0.00658561
0.00646682
0.00624869
0.00587356
0.00528993
0.0045832
0.00381372
0.00304612
0.00233541
0.00172452
0.00123669
0.000886241
0.000660707
0.000522831
0.000401347
0.000178282
7.65482e-05
0.00670585
0.00670087
0.00669643
0.006692
0.00668825
0.0066843
0.00668128
0.00667794
0.00667587
0.00667351
0.00667213
0.00666883
0.00665996
0.00663619
0.00657681
0.00645824
0.00624091
0.00585783
0.00527429
0.00457187
0.00381042
0.00305021
0.00234421
0.00173506
0.00124539
0.000892538
0.000664791
0.000521136
0.000368779
0.000152648
8.11046e-05
0.00670584
0.00670088
0.00669642
0.00669201
0.00668822
0.00668429
0.00668124
0.00667787
0.0066758
0.00667342
0.00667262
0.00667132
0.00666898
0.00666036
0.00663454
0.00657793
0.00645753
0.00623546
0.00585029
0.00527081
0.00457625
0.00382186
0.00306586
0.0023613
0.00175057
0.00125785
0.000900536
0.000668662
0.000515703
0.000337664
0.000134176
8.46592e-05
0.00670583
0.00670088
0.00669641
0.00669202
0.0066882
0.00668429
0.0066812
0.00667782
0.00667573
0.00667329
0.00667268
0.00667198
0.00667258
0.00667114
0.006663
0.00664206
0.00658208
0.00646209
0.00623796
0.00585837
0.00528475
0.00459562
0.00384562
0.00309152
0.0023858
0.00177132
0.00127325
0.000910002
0.000672548
0.000505094
0.0003076
0.000121084
8.72191e-05
0.00670583
0.00670089
0.0066964
0.00669203
0.00668818
0.0066843
0.00668116
0.00667779
0.00667565
0.00667316
0.00667262
0.00667201
0.00667377
0.00667549
0.00667621
0.00667456
0.00664982
0.00659294
0.00647435
0.00625687
0.00588245
0.00531337
0.00462907
0.00388161
0.00312708
0.00241768
0.00179661
0.001292
0.000920797
0.000675106
0.000490512
0.000281576
0.000112479
8.91447e-05
0.00670582
0.0067009
0.00669639
0.00669204
0.00668816
0.00668431
0.00668112
0.00667778
0.00667558
0.00667306
0.00667252
0.00667186
0.00667406
0.00667689
0.00668197
0.00669006
0.00668459
0.00666509
0.00661439
0.00650161
0.00629036
0.00592165
0.0053577
0.00467675
0.00392987
0.00317238
0.0024566
0.00182669
0.00131317
0.000932724
0.000676624
0.000474406
0.000261875
0.000106621
9.06646e-05
0.00670091
0.00670582
0.00669638
0.00669205
0.00668814
0.00668432
0.00668108
0.00667777
0.0066755
0.00667299
0.00667241
0.00667167
0.00667405
0.00667717
0.00668413
0.00669701
0.0067015
0.00670279
0.00669309
0.00664823
0.00654325
0.00633922
0.00597763
0.00541785
0.00473894
0.00399042
0.00322733
0.0025025
0.00186095
0.00133746
0.000947361
0.000677541
0.000460351
0.000246764
0.000102483
9.19192e-05
0.00669637
0.00670093
0.00670583
0.00669206
0.00668812
0.00668433
0.00668104
0.00667778
0.00667543
0.00667294
0.0066723
0.0066715
0.00667395
0.00667707
0.00668481
0.00669971
0.00670928
0.00672157
0.00673526
0.00673174
0.0066964
0.00660072
0.00640611
0.00605102
0.00549503
0.00481609
0.00406319
0.00329169
0.00255506
0.00189957
0.00136684
0.000964885
0.000678438
0.000448378
0.000235105
9.95242e-05
9.29984e-05
0.00669206
0.00669639
0.00670097
0.00670583
0.0066881
0.00668434
0.006681
0.00667778
0.00667536
0.00667292
0.00667218
0.00667135
0.00667382
0.00667685
0.00668495
0.00670062
0.0067125
0.00673055
0.00675703
0.00677749
0.0067851
0.00676065
0.00667671
0.0064918
0.00614363
0.00558978
0.00490788
0.00414813
0.00336533
0.00261409
0.00194731
0.00140225
0.000983916
0.000679697
0.000438664
0.000225892
9.73306e-05
9.39537e-05
0.00668809
0.00669211
0.00669643
0.00670101
0.00670583
0.00668435
0.00668097
0.0066778
0.00667528
0.00667291
0.00667206
0.00667125
0.00667369
0.00667661
0.00668491
0.00670084
0.00671372
0.00673454
0.00676801
0.00680184
0.00683488
0.00685481
0.00684397
0.00677189
0.00659826
0.00625553
0.00570276
0.00501541
0.00424506
0.00344776
0.00268663
0.00200641
0.00144023
0.00100387
0.000682541
0.000430759
0.000218592
9.57223e-05
9.48222e-05
0.00668436
0.00668811
0.00669218
0.00669647
0.00670105
0.00670584
0.00668094
0.00667781
0.00667522
0.00667292
0.00667194
0.00667119
0.00667355
0.00667638
0.00668481
0.00670081
0.00671416
0.00673628
0.00677329
0.00681468
0.00686232
0.0069085
0.00694339
0.00694654
0.00688872
0.00672501
0.00638767
0.00583411
0.0051379
0.00435356
0.00354917
0.00277586
0.0020706
0.00148082
0.00102571
0.000686284
0.000424606
0.000212625
9.44798e-05
9.56198e-05
0.00668091
0.00668441
0.00668818
0.00669226
0.00669651
0.00670109
0.00670584
0.00667782
0.00667516
0.00667293
0.00667182
0.00667117
0.0066734
0.00667619
0.00668471
0.00670069
0.0067143
0.00673711
0.00677597
0.00682158
0.00687826
0.00694051
0.007004
0.00705389
0.00707172
0.00702566
0.00687306
0.00653943
0.00598222
0.0052765
0.0044873
0.00367325
0.00287309
0.00213968
0.0015233
0.00104798
0.00069127
0.000419819
0.000207675
9.35559e-05
9.63649e-05
0.00667783
0.00668094
0.00668452
0.00668824
0.00669234
0.00669655
0.00670113
0.00670585
0.0066751
0.00667295
0.0066717
0.00667117
0.00667323
0.00667605
0.00668461
0.00670054
0.00671431
0.00673755
0.00677753
0.00682549
0.00688761
0.00695998
0.00704145
0.00712214
0.00719075
0.00722274
0.0071874
0.00704016
0.00670921
0.00614723
0.0054452
0.00465289
0.00380969
0.00297737
0.00221289
0.00156835
0.00107031
0.00069761
0.000416248
0.000203548
9.28162e-05
9.70588e-05
0.00667505
0.0066779
0.00668101
0.00668464
0.00668831
0.00669242
0.0066966
0.00670116
0.00670586
0.00667297
0.00667159
0.00667119
0.00667304
0.00667597
0.00668452
0.0067004
0.00671428
0.00673783
0.00677855
0.00682812
0.00689364
0.00697246
0.00706615
0.00716641
0.00726821
0.00735376
0.00740206
0.00737626
0.00723065
0.00689576
0.00634602
0.00565021
0.00483229
0.00395587
0.00308797
0.0022897
0.00161533
0.0010935
0.000704838
0.000413774
0.000200054
9.22653e-05
9.77145e-05
0.00667298
0.00667505
0.00667803
0.00668108
0.00668475
0.00668839
0.0066925
0.00669665
0.0067012
0.00670587
0.00667148
0.00667123
0.00667285
0.00667594
0.00668441
0.00670026
0.00671424
0.00673804
0.00677931
0.00683012
0.00689808
0.0069813
0.00708369
0.00719784
0.00732182
0.00744277
0.00754765
0.0076089
0.00759218
0.007447
0.00712307
0.00658449
0.00586913
0.0050217
0.00410982
0.00320376
0.00236955
0.00166385
0.00111733
0.000712809
0.000412225
0.000197113
9.181e-05
9.83269e-05
0.00667139
0.00667306
0.00667509
0.00667816
0.00668116
0.00668486
0.00668847
0.00669258
0.0066967
0.00670124
0.00670588
0.00667128
0.00667265
0.00667598
0.00668428
0.00670013
0.0067142
0.0067382
0.00677993
0.0068318
0.00690167
0.00698833
0.00709724
0.00722186
0.00736297
0.00750832
0.0076518
0.00777222
0.00784589
0.00783453
0.0077148
0.0074066
0.00683753
0.00609693
0.00521885
0.00426937
0.00332348
0.00245167
0.0017136
0.00114143
0.000720938
0.000411428
0.000194584
9.14754e-05
9.89082e-05
0.00667132
0.0066713
0.00667318
0.00667514
0.0066783
0.00668125
0.00668497
0.00668855
0.00669266
0.00669676
0.00670128
0.00670589
0.00667245
0.00667607
0.00668411
0.00670002
0.00671417
0.00673835
0.00678047
0.00683328
0.00690473
0.00699438
0.0071086
0.00724144
0.00739694
0.00756208
0.00773341
0.00789503
0.00803136
0.00811348
0.00813399
0.00804394
0.00771844
0.00711236
0.00633112
0.00541972
0.00443208
0.00344574
0.00253543
0.00176413
0.00116611
0.000729209
0.000411141
0.000192435
9.11905e-05
9.94496e-05
0.00667227
0.00667138
0.00667122
0.00667331
0.0066752
0.00667843
0.00668135
0.00668508
0.00668864
0.00669274
0.00669682
0.00670132
0.0067059
0.0066762
0.00668388
0.00669993
0.00671415
0.0067385
0.00678096
0.00683461
0.00690742
0.00699979
0.00711855
0.0072585
0.0074263
0.00760885
0.00780454
0.00799698
0.0081783
0.00832585
0.00844632
0.00850512
0.00840318
0.00805075
0.00740508
0.00657476
0.00562226
0.00459646
0.00356954
0.00262009
0.00181511
0.00119114
0.00073763
0.000411331
0.000190559
9.09872e-05
9.99648e-05
0.00667636
0.00667195
0.00667144
0.00667114
0.00667344
0.00667528
0.00667856
0.00668146
0.00668519
0.00668874
0.00669282
0.00669688
0.00670135
0.00670591
0.00668359
0.00669989
0.00671416
0.00673866
0.00678143
0.00683582
0.00690984
0.00700471
0.00712744
0.00727396
0.00745273
0.00765044
0.00786967
0.00809079
0.00830716
0.00850255
0.00869527
0.00886265
0.00891349
0.00878947
0.00840068
0.00770984
0.00682831
0.00582579
0.00476076
0.0036933
0.00270499
0.00186622
0.00121632
0.000746111
0.000411885
0.000188961
9.08095e-05
0.000100442
0.00668325
0.00667639
0.00667146
0.00667151
0.00667109
0.00667357
0.00667537
0.00667869
0.00668158
0.0066853
0.00668885
0.0066929
0.00669695
0.00670139
0.00670593
0.00669991
0.00671421
0.00673883
0.00678186
0.00683692
0.00691203
0.0070092
0.00713549
0.0072882
0.00747695
0.00768849
0.00792998
0.00818034
0.00843106
0.00866505
0.00891379
0.00916302
0.00932591
0.00935698
0.00919995
0.00876547
0.00802236
0.0070884
0.00602989
0.00492276
0.00381604
0.00278945
0.00191713
0.00124146
0.000754667
0.000412542
0.000187554
9.06896e-05
0.000100898
0.00670004
0.00668217
0.00667634
0.00667097
0.00667158
0.00667106
0.00667368
0.00667548
0.00667881
0.00668172
0.00668541
0.00668895
0.00669298
0.00669701
0.00670142
0.00670594
0.00671428
0.006739
0.00678226
0.00683792
0.00691402
0.0070133
0.00714281
0.0073014
0.0074992
0.00772397
0.0079869
0.00826487
0.00855271
0.00882808
0.00912588
0.00944236
0.00969096
0.00983625
0.00983469
0.00963297
0.00914286
0.00834061
0.00735187
0.00623697
0.00508233
0.00393698
0.00287297
0.00196756
0.00126644
0.000763175
0.000413359
0.000186377
9.05823e-05
0.000101317
0.00671436
0.00669965
0.00668019
0.00667634
0.00667053
0.00667163
0.00667108
0.00667378
0.00667561
0.00667892
0.00668186
0.00668552
0.00668907
0.00669306
0.00669708
0.00670146
0.00670595
0.00673918
0.00678261
0.00683882
0.00691583
0.00701704
0.00714949
0.00731362
0.00751967
0.00775734
0.00804085
0.00834488
0.00867018
0.00899523
0.00934868
0.00972732
0.0100497
0.0102853
0.0103985
0.010349
0.0100886
0.00953145
0.00866295
0.00761515
0.00644468
0.00523933
0.00405569
0.00295508
0.00201726
0.0012911
0.000771726
0.000414287
0.000185314
9.05166e-05
0.000101718
0.00673936
0.00671337
0.00669885
0.0066782
0.00667628
0.00667017
0.00667163
0.00667114
0.00667386
0.00667577
0.00667903
0.00668201
0.00668563
0.00668918
0.00669313
0.00669714
0.00670149
0.00670596
0.00678289
0.00683963
0.00691748
0.00702045
0.0071556
0.0073249
0.00753851
0.00778877
0.00809165
0.00842084
0.00878497
0.00916308
0.00958259
0.0100373
0.0104371
0.0107586
0.0109653
0.0110249
0.0109056
0.0105682
0.00993055
0.00898802
0.00787719
0.00665122
0.00539286
0.00417127
0.00303527
0.00206597
0.00131535
0.000780161
0.000415255
0.00018443
9.04561e-05
0.000102085
0.00678314
0.00673764
0.0067112
0.00669802
0.00667655
0.00667608
0.00666994
0.00667157
0.00667125
0.00667392
0.00667594
0.00667915
0.00668217
0.00668573
0.00668929
0.00669321
0.0066972
0.00670152
0.00670598
0.00684035
0.00691899
0.00702355
0.00716119
0.00733526
0.00755584
0.00781829
0.00813914
0.00849329
0.00889793
0.0093299
0.0098159
0.0103754
0.0108923
0.0113172
0.0116163
0.0117593
0.0117292
0.0115097
0.0110729
0.0103396
0.00931476
0.00813707
0.00685546
0.00554364
0.00428306
0.0031132
0.0021135
0.00133906
0.000788549
0.000416291
0.000183636
9.04264e-05
0.000102437
0.00684102
0.00678016
0.00673385
0.00670895
0.0066968
0.00667543
0.00667567
0.00666985
0.00667146
0.00667141
0.00667398
0.00667613
0.00667926
0.00668232
0.00668584
0.0066894
0.00669328
0.00669726
0.00670155
0.00670599
0.00692036
0.00702636
0.0071663
0.00734475
0.0075718
0.00784584
0.00818335
0.00856268
0.00900831
0.0094926
0.0100466
0.0107423
0.0114483
0.0120387
0.012445
0.0126605
0.0126816
0.0125153
0.0121616
0.011602
0.0107576
0.0096421
0.00839399
0.00705584
0.00569218
0.00439113
0.00318867
0.00215969
0.00136219
0.000796695
0.000417325
0.00018292
9.0397e-05
0.000102718
0.00692165
0.00683712
0.00677372
0.00673006
0.00670671
0.00669505
0.0066748
0.00667505
0.0066699
0.00667131
0.00667161
0.00667403
0.00667633
0.00667937
0.00668247
0.00668595
0.0066895
0.00669336
0.00669731
0.00670159
0.006706
0.00702892
0.00717096
0.00735341
0.00758647
0.00787142
0.00822442
0.00862908
0.00911446
0.00964908
0.0102807
0.0111561
0.0121145
0.0129628
0.0135359
0.0138226
0.0138734
0.013714
0.01337
0.0128532
0.0121509
0.0111821
0.00996879
0.00864716
0.00725124
0.00583757
0.00449546
0.0032615
0.00220441
0.00138464
0.000804696
0.000418387
0.000182303
9.03889e-05
0.000102955
0.00703127
0.00691621
0.00682823
0.00676715
0.00672646
0.00670447
0.00669291
0.00667461
0.00667425
0.00667006
0.00667112
0.00667183
0.00667408
0.00667652
0.00667949
0.00668262
0.00668605
0.00668959
0.00669343
0.00669736
0.00670162
0.00670601
0.0071752
0.00736129
0.00759993
0.00789502
0.00826255
0.00869223
0.00921492
0.00979979
0.0105271
0.0116271
0.0128783
0.0140202
0.0148471
0.0152675
0.0153466
0.0151797
0.0148075
0.0142647
0.0135691
0.0127121
0.01161
0.0102933
0.00889572
0.00744132
0.00597914
0.004596
0.00333161
0.00224756
0.00140636
0.000812501
0.000419469
0.000181818
9.03839e-05
0.00010321
0.00717909
0.0070239
0.00690334
0.00681946
0.00676078
0.00672308
0.00670229
0.00669021
0.00667476
0.00667334
0.00667029
0.00667094
0.00667205
0.00667416
0.0066767
0.00667962
0.00668275
0.00668616
0.00668968
0.0066935
0.00669742
0.00670165
0.00670602
0.00736844
0.00761222
0.0079167
0.0082979
0.00875171
0.00930906
0.00994699
0.0107911
0.0121453
0.0136912
0.0151048
0.0161785
0.0168247
0.0170234
0.0168724
0.0164845
0.0159027
0.0151641
0.0142901
0.013276
0.0120369
0.0106138
0.00913884
0.00762574
0.00611641
0.00469271
0.00339892
0.00228908
0.00142732
0.000820033
0.000420394
0.000181437
9.03837e-05
0.000103487
0.00737492
0.00716914
0.0070056
0.00689049
0.00681095
0.00675473
0.00671991
0.00670075
0.00668717
0.00667511
0.0066724
0.00667054
0.00667079
0.00667226
0.00667425
0.00667687
0.00667974
0.00668287
0.00668627
0.00668977
0.00669357
0.00669746
0.00670168
0.00670602
0.00762345
0.00793652
0.00833055
0.00880718
0.00939705
0.010093
0.0110711
0.0126854
0.0144908
0.0161155
0.0173758
0.0182222
0.0186423
0.0186335
0.0182852
0.0177102
0.0169483
0.0160359
0.0149971
0.0138324
0.0124584
0.0109283
0.00937568
0.00780419
0.00624902
0.00478552
0.0034634
0.00232892
0.00144748
0.000826349
0.000421203
0.000181028
9.03885e-05
0.000103788
0.0076336
0.007362
0.00714337
0.00698727
0.00687797
0.0068027
0.00674899
0.00671686
0.0066996
0.00668404
0.0066755
0.00667154
0.00667074
0.00667071
0.00667243
0.00667436
0.00667701
0.00667988
0.00668299
0.00668637
0.00668985
0.00669364
0.00669751
0.00670169
0.00670602
0.00795462
0.0083606
0.00885849
0.00947957
0.0102388
0.0113599
0.0132186
0.0152268
0.0169881
0.0183597
0.0193386
0.0199445
0.0201749
0.0200131
0.0195232
0.0188105
0.0179098
0.0168557
0.0156744
0.0143722
0.0128697
0.011235
0.00960547
0.00797638
0.00637673
0.00487443
0.00352505
0.00236706
0.00146427
0.000831781
0.000422122
0.000180624
9.04005e-05
0.000104117
0.00797082
0.00761679
0.00732637
0.00711756
0.00696933
0.0068658
0.00679465
0.00674342
0.00671402
0.00669859
0.00668105
0.00667577
0.00667085
0.00667086
0.0066707
0.00667256
0.0066745
0.00667715
0.00668002
0.0066831
0.00668648
0.00668994
0.0066937
0.00669753
0.00670169
0.00670602
0.00838819
0.00890571
0.00955741
0.0103839
0.0116475
0.0137214
0.0158707
0.0176993
0.0191132
0.0201549
0.0208766
0.0212973
0.0213983
0.0211429
0.0205674
0.0197665
0.0187697
0.0176086
0.0163108
0.0148882
0.0132672
0.011532
0.00982746
0.00814204
0.00649935
0.00495941
0.00358384
0.00239867
0.00147866
0.000837824
0.000423168
0.000180186
9.0418e-05
0.000104474
0.00841288
0.00794966
0.00756791
0.00729064
0.00709228
0.00695186
0.00685393
0.00678673
0.00673812
0.00671133
0.00669761
0.00667843
0.00667577
0.0066704
0.00667089
0.00667075
0.00667267
0.00667465
0.00667727
0.00668015
0.00668321
0.00668658
0.00669001
0.00669374
0.00669753
0.00670169
0.00670602
0.00894911
0.00963118
0.0105267
0.0119246
0.0141791
0.0164136
0.0182541
0.0196567
0.0207033
0.0214747
0.0220115
0.0223119
0.0223391
0.0220397
0.0214248
0.0205782
0.0195233
0.0182878
0.0168993
0.015375
0.0136476
0.0118179
0.010041
0.008301
0.00661681
0.00504061
0.0036323
0.00242567
0.00149459
0.000844547
0.00042436
0.000179761
9.04452e-05
0.000104865
0.0089878
0.00838597
0.00788349
0.00751891
0.00725559
0.00706763
0.00693482
0.00684233
0.00677888
0.00673324
0.00670869
0.0066965
0.00667663
0.00667543
0.00667018
0.00667083
0.00667087
0.00667275
0.00667481
0.00667739
0.00668029
0.00668331
0.00668668
0.00669005
0.00669374
0.00669753
0.00670169
0.00670602
0.00970126
0.010665
0.0121839
0.0145852
0.0168593
0.0186723
0.020026
0.0210353
0.0218036
0.0223909
0.0228122
0.0230455
0.023041
0.0227341
0.0221149
0.0212559
0.0201741
0.0188924
0.0174372
0.0158296
0.0140087
0.0120913
0.0102456
0.00845309
0.00672895
0.00510815
0.00367355
0.00245543
0.00151224
0.000852061
0.000425721
0.000179295
9.04801e-05
0.000105288
0.00976529
0.00895421
0.00829645
0.00781709
0.00747082
0.00722137
0.00704359
0.0069182
0.00683098
0.00677106
0.00672863
0.00670599
0.00669466
0.00667568
0.00667481
0.00667015
0.00667072
0.00667102
0.00667283
0.00667497
0.00667749
0.00668043
0.00668341
0.00668674
0.00669005
0.00669374
0.00669753
0.00670169
0.00670602
0.0107971
0.0124251
0.0149397
0.0172184
0.0189779
0.0202591
0.0212027
0.02193
0.0225165
0.0229927
0.0233511
0.0235556
0.0235488
0.0232598
0.0226612
0.0218146
0.0207302
0.0194254
0.0179244
0.0162505
0.0143489
0.0123516
0.010441
0.00859823
0.00682156
0.00516595
0.0037189
0.00248829
0.00153185
0.000860455
0.000427277
0.000178858
9.05296e-05
0.000105753
0.0109158
0.00972287
0.00883211
0.00820689
0.00775182
0.00742382
0.00718795
0.00702014
0.00690199
0.00681991
0.00676339
0.00672419
0.00670333
0.00669221
0.00667538
0.00667402
0.00667023
0.00667059
0.00667118
0.00667289
0.00667514
0.0066776
0.00668056
0.00668346
0.00668674
0.00669005
0.00669374
0.00669753
0.00670169
0.00670602
0.0126483
0.0152433
0.0175039
0.0191945
0.02039
0.0212508
0.0219116
0.0224601
0.02294
0.0233577
0.0236897
0.0238913
0.0239021
0.023648
0.0230872
0.0222706
0.0212017
0.0198921
0.0183626
0.0166377
0.0146676
0.012598
0.0106268
0.00871812
0.00690048
0.00522979
0.00376884
0.00252462
0.00155366
0.000869885
0.000429063
0.000178359
9.05898e-05
0.000106254
0.0108683
0.0128441
0.00954331
0.0087121
0.00811869
0.00768798
0.0073779
0.00715535
0.0069973
0.00688623
0.0068092
0.00675586
0.0067201
0.00670088
0.00668915
0.00667545
0.00667317
0.00667037
0.00667046
0.00667136
0.00667295
0.0066753
0.0066777
0.00668064
0.00668345
0.00668674
0.00669005
0.00669374
0.00669753
0.00670168
0.00670601
0.0154994
0.0177287
0.0193428
0.0204464
0.0212154
0.0217938
0.0222787
0.0227248
0.0231511
0.0235462
0.0238762
0.0240923
0.024134
0.023926
0.0234141
0.0226396
0.0215994
0.0202987
0.0187548
0.016992
0.0149647
0.0128304
0.0107797
0.00882028
0.00698727
0.0053004
0.00382393
0.00256487
0.001578
0.000880465
0.000431114
0.0001779
9.06712e-05
0.000106805
0.0105952
0.0127923
0.0157109
0.00937126
0.0085948
0.00803221
0.00762556
0.00733305
0.00712357
0.0069751
0.00687098
0.00679904
0.00674868
0.00671647
0.00669939
0.006686
0.00667567
0.00667237
0.00667052
0.00667034
0.00667153
0.00667302
0.00667546
0.00667774
0.00668065
0.00668344
0.00668674
0.00669005
0.00669374
0.00669751
0.00670165
0.006706
0.0179044
0.0194396
0.02045
0.0211237
0.0216111
0.0220158
0.0224014
0.0227982
0.0232067
0.0236029
0.023947
0.0241895
0.0242711
0.0241163
0.0236605
0.0229359
0.0219333
0.0206519
0.0191047
0.0173151
0.0152406
0.0130199
0.0109096
0.00893258
0.00708286
0.00537859
0.00388485
0.00260955
0.00160519
0.000892421
0.000433485
0.000177366
9.07676e-05
0.000107395
0.0103243
0.0124163
0.0156332
0.018039
0.00920857
0.00847963
0.00794756
0.00756457
0.00728931
0.00709268
0.0069536
0.00685633
0.00678946
0.00674215
0.00671322
0.00669823
0.00668304
0.00667587
0.00667168
0.00667065
0.00667026
0.0066717
0.00667309
0.00667556
0.00667772
0.00668065
0.00668344
0.00668674
0.00669005
0.0066937
0.00669746
0.00670162
0.00670599
0.019498
0.0204172
0.0209959
0.0213887
0.0217034
0.0220102
0.0223493
0.0227327
0.023147
0.0235602
0.0239294
0.0242066
0.0243346
0.0242377
0.0238421
0.0231721
0.0222129
0.0209581
0.0194162
0.0176088
0.015462
0.01318
0.0110519
0.00905613
0.00718829
0.00546532
0.00395236
0.00265923
0.00163568
0.000905907
0.000436223
0.000176903
9.08957e-05
0.000108045
0.0100697
0.0120025
0.0152833
0.0179258
0.0195217
0.00905281
0.00836636
0.00786483
0.00750504
0.00724676
0.00706274
0.00693285
0.00684238
0.00678054
0.00673616
0.00671038
0.00669719
0.00668046
0.00667594
0.00667112
0.00667075
0.00667021
0.00667186
0.00667311
0.00667558
0.00667771
0.00668065
0.00668345
0.00668674
0.00669001
0.00669364
0.00669741
0.00670158
0.00670597
0.0203601
0.0208466
0.0211446
0.0213647
0.021581
0.0218419
0.0221705
0.0225646
0.0230007
0.0234414
0.0238438
0.0241622
0.0243414
0.0243052
0.0239718
0.0233587
0.0224464
0.0212232
0.0196931
0.0178398
0.0156471
0.013354
0.0112078
0.00919215
0.0073047
0.00556163
0.00402733
0.00271463
0.00166992
0.000921251
0.000439413
0.000176348
9.10459e-05
0.000108736
0.00983258
0.0115888
0.0148431
0.0176862
0.0193562
0.0202783
0.00890177
0.00825515
0.00778414
0.00744707
0.00720551
0.00703381
0.00691305
0.00682942
0.00677227
0.00673083
0.0067078
0.00669618
0.00667842
0.00667583
0.00667072
0.00667081
0.00667019
0.00667195
0.00667308
0.00667559
0.00667771
0.00668065
0.00668346
0.00668668
0.00668993
0.00669357
0.00669736
0.00670155
0.00670596
0.020686
0.0208918
0.0210159
0.0211352
0.0213042
0.0215554
0.0218983
0.0223196
0.0227879
0.0232636
0.0237057
0.0240707
0.0243048
0.0243309
0.0240604
0.0235049
0.0226411
0.0214527
0.0199059
0.0180306
0.0158461
0.013543
0.0113784
0.00934197
0.00743342
0.00566876
0.00411081
0.00277656
0.00170853
0.000938669
0.000443125
0.00017591
9.12439e-05
0.000109498
0.00961005
0.0111922
0.0143464
0.0173687
0.0191919
0.0200599
0.0205095
0.00875443
0.00814628
0.00770565
0.00739081
0.00716564
0.00700616
0.00689466
0.00681756
0.00676463
0.00672617
0.00670537
0.00669497
0.00667713
0.00667552
0.00667044
0.00667086
0.00667016
0.00667198
0.00667306
0.00667559
0.00667772
0.00668064
0.00668341
0.00668658
0.00668985
0.0066935
0.00669731
0.00670152
0.00670595
0.0206388
0.0206689
0.0206884
0.020757
0.0209143
0.0211812
0.0215558
0.022015
0.0225227
0.0230395
0.023527
0.0239436
0.0242355
0.0243246
0.0241164
0.023618
0.0228032
0.0216241
0.0200796
0.0182328
0.0160595
0.013748
0.0115652
0.00950703
0.00757591
0.00578808
0.00420397
0.00284597
0.00175215
0.000958648
0.000447489
0.000175364
9.1476e-05
0.000110297
0.00939949
0.0108188
0.0138182
0.0169956
0.0189625
0.0199297
0.0202389
0.0203758
0.00861057
0.0080401
0.00762955
0.00733639
0.00712753
0.00698048
0.0068779
0.00680669
0.00675752
0.00672208
0.00670305
0.00669312
0.00667639
0.0066751
0.00667028
0.00667088
0.00667013
0.00667199
0.00667306
0.00667558
0.00667774
0.00668056
0.00668331
0.00668648
0.00668977
0.00669342
0.00669725
0.00670149
0.00670594
0.0203312
0.0202516
0.0202155
0.020268
0.0204398
0.020741
0.0211586
0.0216629
0.0222153
0.0227786
0.0233172
0.0237899
0.0241421
0.0242941
0.024147
0.0237045
0.0229188
0.0217621
0.0202607
0.0184461
0.0162877
0.0139699
0.0117695
0.0096889
0.0077338
0.00592119
0.00430826
0.00292404
0.00180166
0.000981502
0.000452616
0.000175006
9.17801e-05
0.000111334
0.00919894
0.0104714
0.0132708
0.0165755
0.0186929
0.0197474
0.0201142
0.0200531
0.019988
0.00847038
0.00793696
0.00755603
0.00728435
0.00709217
0.00695712
0.00686261
0.00679675
0.0067509
0.00671844
0.00670098
0.00669083
0.00667602
0.00667464
0.00667023
0.00667085
0.00667011
0.00667199
0.00667307
0.00667556
0.0066777
0.00668043
0.00668321
0.00668637
0.00668968
0.00669335
0.0066972
0.00670146
0.00670593
0.0198317
0.0196906
0.0196321
0.0196952
0.0199015
0.0202489
0.0207173
0.0212716
0.0218732
0.0224887
0.0230842
0.0236172
0.0240312
0.0242457
0.0241578
0.0237588
0.02301
0.0219031
0.0204486
0.0186704
0.0165309
0.0142095
0.0119925
0.00988918
0.00790886
0.00606985
0.00442521
0.00301206
0.00185803
0.00100797
0.00045871
0.000174527
9.22127e-05
0.000112573
0.00900708
0.0101509
0.012712
0.0161096
0.0183944
0.0195393
0.0199458
0.0199164
0.0196135
0.0194182
0.00833405
0.0078373
0.00748578
0.00723608
0.00706002
0.00693586
0.00684867
0.00678773
0.00674474
0.0067153
0.00669947
0.00668844
0.00667584
0.00667427
0.00667027
0.00667084
0.00667011
0.00667198
0.00667311
0.00667546
0.0066776
0.00668029
0.0066831
0.00668626
0.00668959
0.00669328
0.00669714
0.00670142
0.00670591
0.0191894
0.0190182
0.018964
0.0190595
0.0193121
0.0197145
0.020239
0.0208463
0.0215018
0.022176
0.0228344
0.0234315
0.0239084
0.0241841
0.0241517
0.0237995
0.0231
0.0220461
0.0206423
0.0189049
0.0167891
0.0144675
0.0122355
0.0101095
0.00810302
0.00623605
0.00455691
0.00311184
0.00192252
0.00103853
0.000465952
0.000174338
9.28127e-05