/*--------------------------------*- C++ -*----------------------------------*\
  =========                 |
  \\      /  F ield         | OpenFOAM: The Open Source CFD Toolbox
   \\    /   O peration     | Website:  https://openfoam.org
    \\  /    A nd           | Version:  8
     \\/     M anipulation  |
\*---------------------------------------------------------------------------*/
FoamFile
{
    version     2.0;
    format      ascii;
    class       volScalarField;
    location    "0.05";
    object      nut;
}
// * * * * * * * * * * * * * * * * * * * * * * * * * * * * * * * * * * * * * //

dimensions      [0 2 -1 0 0 0 0];

internalField   nonuniform List<scalar> 
15677
(
0.000168251
0.000653013
0.000148418
0.0015137
0.000442464
0.000141508
0.00267541
0.000875831
0.000381122
0.000142378
0.00392114
0.00151898
0.000686547
0.000354244
0.000145467
0.00502409
0.00235625
0.00114618
0.000585615
0.000340237
0.000151197
0.00584063
0.00331756
0.00178039
0.000947707
0.000529219
0.000331997
0.000157017
0.00633507
0.00429889
0.00256707
0.00146319
0.000820699
0.000492458
0.000326992
0.000162437
0.00656292
0.00518787
0.00345221
0.0021314
0.00125679
0.00073719
0.000467425
0.000324102
0.000167222
0.00665851
0.00589359
0.00435464
0.00292187
0.0018409
0.00111218
0.000677258
0.000450415
0.000322538
0.000171462
0.00670555
0.00633829
0.00518027
0.00377869
0.00255616
0.0016315
0.00100429
0.000634025
0.00043867
0.000322002
0.000175001
0.00671443
0.00655343
0.00584499
0.00462503
0.00336188
0.00228604
0.00147213
0.000924027
0.000602108
0.000430764
0.000321923
0.000178149
0.00670995
0.00666147
0.00629547
0.00537695
0.00419614
0.00304469
0.00207703
0.00134867
0.000862049
0.000578512
0.000425287
0.000322409
0.000180775
0.0067063
0.00669873
0.00652952
0.00596437
0.00498356
0.00385666
0.00279479
0.00191118
0.0012509
0.000813895
0.000560792
0.000421804
0.000323067
0.000183106
0.00670539
0.00670439
0.00664673
0.00635684
0.00564967
0.00465523
0.00358234
0.00259281
0.00177725
0.00117256
0.000776192
0.000547609
0.000419483
0.000323973
0.000185144
0.00670542
0.00670292
0.00668777
0.00656293
0.00614191
0.00536794
0.00438037
0.00335606
0.00242711
0.00166742
0.00110931
0.000746392
0.000537552
0.000418255
0.000324811
0.000186946
0.00670555
0.00670173
0.00669624
0.00665663
0.00644678
0.00593326
0.00512027
0.00414771
0.00316751
0.00228903
0.00157727
0.00105757
0.000722719
0.000530289
0.000417364
0.000325849
0.000188593
0.00670561
0.00670131
0.00669693
0.00668502
0.00660496
0.00632148
0.00573696
0.00490306
0.00394994
0.00300827
0.00217402
0.0015021
0.00101559
0.000704257
0.000524555
0.000417225
0.000326769
0.000190015
0.00670561
0.00670124
0.0066965
0.00669178
0.00666388
0.00654104
0.00618797
0.0055563
0.00471347
0.00378033
0.00287386
0.002077
0.00143982
0.000981548
0.000689354
0.000520669
0.000417133
0.000327854
0.000191451
0.00670559
0.00670129
0.00669618
0.00669286
0.0066825
0.00663435
0.00646768
0.00605754
0.00539301
0.00454756
0.00363515
0.00275936
0.0019956
0.0013883
0.00095365
0.000677976
0.000517529
0.000417651
0.000328845
0.00019256
0.00670556
0.00670134
0.00669602
0.0066928
0.00668751
0.00666893
0.00659798
0.00638922
0.00593433
0.00524611
0.00440317
0.00351021
0.00266234
0.00192746
0.00134566
0.000931357
0.0006688
0.000515775
0.000418075
0.000329918
0.000193873
0.00670554
0.00670139
0.00669594
0.00669269
0.00668845
0.0066806
0.00665142
0.00655608
0.00631061
0.00581912
0.00511552
0.00427728
0.00340341
0.00258037
0.00187066
0.00131091
0.000913366
0.000662181
0.000514335
0.000418998
0.000330932
0.00019476
0.00670553
0.00670142
0.0066959
0.00669264
0.00668843
0.00668401
0.00667171
0.00663041
0.00651103
0.00623261
0.00571396
0.00499966
0.00416866
0.00331247
0.00251172
0.00182397
0.00128276
0.00089944
0.000656962
0.000514057
0.000419692
0.000331967
0.000196055
0.00670553
0.00670143
0.00669587
0.00669262
0.00668829
0.00668481
0.00667854
0.00666156
0.00660587
0.00646472
0.00615968
0.00561853
0.00489866
0.00407536
0.00323597
0.00245493
0.00178612
0.00126058
0.000888776
0.000653888
0.000513703
0.000420859
0.000333082
0.000196774
0.00670553
0.00670143
0.00669586
0.0066926
0.00668818
0.00668493
0.00668047
0.00667353
0.00664821
0.00658033
0.00641891
0.00609169
0.00553433
0.00481076
0.00399642
0.00317237
0.00240912
0.0017565
0.00124383
0.000881365
0.000651407
0.000514394
0.000421731
0.000333984
0.000198092
0.00670554
0.00670142
0.00669586
0.00669258
0.00668811
0.00668491
0.00668083
0.00667773
0.00666551
0.00663512
0.00655352
0.00637565
0.00603032
0.00545942
0.00473614
0.00393097
0.00312166
0.0023733
0.00173401
0.0012316
0.000876129
0.000650878
0.000514835
0.000423158
0.000335445
0.000198789
0.00670554
0.00670141
0.00669587
0.00669256
0.00668807
0.00668487
0.0066808
0.00667904
0.00667189
0.00665926
0.00661993
0.00652844
0.00633561
0.00597441
0.00539669
0.00467465
0.00387864
0.00308118
0.00234613
0.0017185
0.0012243
0.00087395
0.000650558
0.000516334
0.000424078
0.000336201
5.33551e-05
0.00670555
0.00670139
0.00669588
0.00669253
0.00668805
0.00668483
0.00668071
0.00667936
0.00667395
0.00666911
0.00665025
0.00660732
0.00650468
0.00629957
0.00592903
0.0053433
0.00462389
0.00383718
0.00305342
0.00232984
0.00171049
0.00122104
0.000873285
0.000652128
0.000517445
0.000426475
0.000283598
6.33103e-05
0.00670556
0.00670137
0.00669589
0.00669251
0.00668803
0.00668479
0.00668065
0.00667936
0.00667446
0.00667275
0.00666302
0.0066455
0.00659387
0.00648328
0.0062686
0.00588674
0.00530205
0.00459035
0.0038138
0.00303747
0.0023209
0.00170725
0.00122052
0.000875087
0.000653751
0.000519541
0.000420087
0.000219472
7.06768e-05
0.00670557
0.00670136
0.00669591
0.00669248
0.00668802
0.00668476
0.00668061
0.00667929
0.00667451
0.00667388
0.00666795
0.00666274
0.0066377
0.00658439
0.00646674
0.0062414
0.00586336
0.00527795
0.00456815
0.00379693
0.00302829
0.00231804
0.00170866
0.00122421
0.000878147
0.000656123
0.000520837
0.000400194
0.000178025
7.61052e-05
0.00670558
0.00670134
0.00669593
0.00669246
0.00668801
0.00668474
0.00668059
0.0066792
0.00667445
0.00667408
0.00666963
0.00666991
0.0066579
0.00663683
0.00657495
0.00645117
0.00623274
0.00584673
0.00525981
0.00455396
0.00378949
0.00302782
0.00232271
0.00171607
0.00123073
0.000882847
0.000659478
0.000518727
0.000367418
0.000152559
8.05004e-05
0.00670559
0.00670132
0.00669594
0.00669244
0.006688
0.00668472
0.00668057
0.00667911
0.00667439
0.006674
0.00667006
0.00667254
0.00666668
0.0066622
0.00663061
0.00657302
0.0064501
0.00622565
0.00583657
0.00525123
0.00455268
0.00379525
0.00303864
0.00233542
0.00172817
0.00124027
0.00088918
0.000662576
0.000512734
0.000336262
0.000134226
8.38838e-05
0.0067056
0.00670131
0.00669596
0.00669242
0.00668799
0.00668471
0.00668057
0.00667903
0.00667433
0.00667387
0.0066701
0.00667324
0.00667022
0.00667346
0.00665787
0.00663915
0.00657591
0.00645281
0.00622431
0.00583879
0.00525982
0.0045661
0.00381313
0.00305856
0.00235479
0.00174472
0.0012526
0.000896689
0.000665407
0.000501438
0.000306155
0.000121267
8.6283e-05
0.00670561
0.00670129
0.00669598
0.0066924
0.00668798
0.00668469
0.00668056
0.00667896
0.00667429
0.00667374
0.00667004
0.00667328
0.00667142
0.00667798
0.00667091
0.00667281
0.00664475
0.00658445
0.00646145
0.00623797
0.00585715
0.00528185
0.00459245
0.00384193
0.00308726
0.00238067
0.00176529
0.00126756
0.000905303
0.000666694
0.000486152
0.000280108
0.000112777
8.80571e-05
0.00670561
0.00670128
0.00669599
0.00669238
0.00668798
0.00668468
0.00668056
0.0066789
0.00667426
0.00667363
0.00666996
0.00667313
0.00667172
0.00667944
0.00667672
0.00668852
0.0066802
0.00665726
0.00660186
0.00648386
0.0062655
0.0058892
0.00531806
0.00463148
0.00388168
0.00312454
0.00241253
0.00178983
0.00128476
0.000914686
0.000666902
0.000469358
0.000260332
0.000107007
8.94321e-05
0.00670126
0.00670563
0.00669601
0.00669236
0.00668797
0.00668467
0.00668056
0.00667884
0.00667424
0.00667354
0.00666989
0.00667293
0.00667171
0.00667973
0.00667895
0.00669555
0.00669737
0.0066954
0.00668088
0.00663099
0.00651922
0.00630697
0.0059364
0.00536846
0.00468351
0.00393202
0.00316997
0.00245039
0.00181787
0.00130417
0.000925712
0.000666008
0.000454433
0.000245132
0.00010296
9.05483e-05
0.00669602
0.00670126
0.00670565
0.00669235
0.00668797
0.00668466
0.00668056
0.00667878
0.00667422
0.00667346
0.00666983
0.00667273
0.0066716
0.00667961
0.00667969
0.00669832
0.00670527
0.00671448
0.00672327
0.00671481
0.00667292
0.00656902
0.00636431
0.0059988
0.00543362
0.00474815
0.00399288
0.00322352
0.00249355
0.00184938
0.00132824
0.000939096
0.00066458
0.000441629
0.000233349
0.00010008
9.14931e-05
0.00669233
0.00669606
0.00670127
0.00670567
0.00668796
0.00668465
0.00668057
0.00667873
0.00667421
0.0066734
0.00666978
0.00667256
0.00667146
0.00667938
0.00667989
0.00669928
0.00670856
0.00672358
0.00674515
0.0067608
0.00676195
0.0067294
0.00663512
0.00643851
0.00607819
0.00551398
0.00482585
0.0040639
0.00328436
0.00254209
0.00188779
0.00135692
0.000953121
0.000663648
0.000431116
0.000224012
9.79767e-05
9.23194e-05
0.00668796
0.00669235
0.00669613
0.00670128
0.00670569
0.00668464
0.00668057
0.00667868
0.00667421
0.00667334
0.00666974
0.00667241
0.00667132
0.00667911
0.00667988
0.00669954
0.00670984
0.00672765
0.00675608
0.00678542
0.00681198
0.0068238
0.00680263
0.00671843
0.00653076
0.00617428
0.00560983
0.00491568
0.00414457
0.0033526
0.00260114
0.00193513
0.0013871
0.000968019
0.000663341
0.000422322
0.000216554
9.6447e-05
9.30614e-05
0.00668464
0.006688
0.00669239
0.00669621
0.00670129
0.00670571
0.00668058
0.00667864
0.00667421
0.00667329
0.00666971
0.00667228
0.00667118
0.00667886
0.00667981
0.00669954
0.00671033
0.00672945
0.00676134
0.00679844
0.00683955
0.00687763
0.00690245
0.00689335
0.00682063
0.00664085
0.00628758
0.00572114
0.00501854
0.00423473
0.00343545
0.00267338
0.00198626
0.00141876
0.000983487
0.00066399
0.000415165
0.000210451
9.52974e-05
9.3738e-05
0.00668059
0.00668467
0.00668808
0.00669243
0.00669628
0.0067013
0.00670574
0.00667859
0.00667422
0.00667325
0.00666969
0.00667217
0.00667105
0.00667863
0.00667973
0.00669945
0.0067105
0.00673032
0.00676401
0.0068054
0.00685559
0.00690974
0.00696274
0.00700016
0.00700299
0.00694068
0.00676901
0.00641753
0.0058468
0.00513325
0.00434437
0.00353672
0.00275107
0.0020404
0.00145159
0.000999846
0.000665576
0.00040927
0.000205428
9.44595e-05
9.43643e-05
0.00667855
0.00668065
0.00668476
0.00668816
0.00669248
0.00669636
0.00670131
0.00670576
0.00667423
0.0066732
0.00666967
0.00667208
0.00667092
0.00667843
0.00667965
0.00669933
0.00671056
0.00673081
0.00676556
0.00680937
0.00686496
0.00692925
0.00700016
0.00706813
0.00712126
0.00713512
0.00708031
0.00691392
0.00656268
0.00598539
0.00527395
0.00447893
0.00364538
0.00283339
0.00209705
0.00148536
0.0010165
0.000668451
0.000404503
0.000201135
9.38133e-05
9.49454e-05
0.00667425
0.00667857
0.00668076
0.00668485
0.00668824
0.00669253
0.00669644
0.00670133
0.00670578
0.00667316
0.00666967
0.00667199
0.0066708
0.00667827
0.00667957
0.0066992
0.00671056
0.00673113
0.00676659
0.00681202
0.006871
0.00694172
0.00702474
0.00711218
0.00719806
0.00726523
0.00729199
0.00724279
0.00707512
0.00672183
0.00615324
0.00544318
0.00462402
0.00376115
0.00291938
0.00215565
0.00151987
0.00103321
0.000671707
0.000400656
0.000197542
9.33521e-05
9.54905e-05
0.00667312
0.00667433
0.00667863
0.00668088
0.00668493
0.00668833
0.00669258
0.00669652
0.00670134
0.00670581
0.00666967
0.00667191
0.00667069
0.00667814
0.00667948
0.00669909
0.00671056
0.00673137
0.00676739
0.00681404
0.00687544
0.00695051
0.00704211
0.00714335
0.0072511
0.00735315
0.00743569
0.00747213
0.00742869
0.00725728
0.00691064
0.00635168
0.00562257
0.00477665
0.00388221
0.00300821
0.00221557
0.00155518
0.00104975
0.000675613
0.000397687
0.000194401
9.29885e-05
9.59985e-05
0.00666968
0.00667313
0.00667448
0.00667869
0.006681
0.00668502
0.00668842
0.00669264
0.0066966
0.00670135
0.00670583
0.00667183
0.0066706
0.00667804
0.00667939
0.00669899
0.00671055
0.00673158
0.00676804
0.00681573
0.00687903
0.00695749
0.00705549
0.0071671
0.00729164
0.00741768
0.00753802
0.00763252
0.00767722
0.00763582
0.00748261
0.00714318
0.00656025
0.00580893
0.0049336
0.00400611
0.00309895
0.00227633
0.00159082
0.00106639
0.000680018
0.00039523
0.000191734
9.27422e-05
9.64777e-05
0.00667176
0.00666973
0.00667319
0.00667464
0.00667875
0.00668114
0.0066851
0.00668851
0.00669269
0.00669668
0.00670137
0.00670585
0.00667052
0.00667796
0.00667927
0.00669891
0.00671055
0.00673177
0.00676862
0.00681721
0.00688208
0.00696346
0.0070667
0.00718645
0.00732499
0.00747047
0.00761795
0.00775257
0.00785818
0.0079074
0.00788964
0.00775735
0.00739634
0.00677706
0.00599737
0.00509271
0.00413187
0.00319059
0.0023374
0.00162655
0.00108275
0.000684867
0.00039343
0.000189367
9.25441e-05
9.69235e-05
0.00667047
0.00667166
0.0066698
0.00667326
0.00667481
0.00667881
0.00668128
0.00668519
0.00668861
0.00669275
0.00669677
0.00670138
0.00670588
0.00667789
0.00667914
0.00669887
0.00671057
0.00673194
0.00676914
0.00681854
0.00688477
0.00696879
0.00707653
0.00720327
0.00735378
0.0075164
0.00768749
0.00785189
0.00800086
0.00811323
0.00819142
0.00820108
0.00805337
0.00766593
0.00700607
0.00618795
0.00525245
0.00425747
0.00328223
0.00239829
0.00166205
0.00109904
0.000689704
0.00039202
0.00018734
9.24249e-05
9.73453e-05
0.00667783
0.00667031
0.00667152
0.00666989
0.00667332
0.00667499
0.00667888
0.00668143
0.00668527
0.00668871
0.00669281
0.00669685
0.0067014
0.0067059
0.00667899
0.00669887
0.0067106
0.00673211
0.0067696
0.00681973
0.00688717
0.00697363
0.00708534
0.00721847
0.00737973
0.00755732
0.00775108
0.00794311
0.00812566
0.00828374
0.00843063
0.00854305
0.00853968
0.00836767
0.00794564
0.00724308
0.00637802
0.00540942
0.00438162
0.00337294
0.00245855
0.0016971
0.00111534
0.000694484
0.000391027
0.000185517
9.23271e-05
9.77361e-05
0.00667883
0.00667758
0.00667002
0.0066714
0.00667001
0.00667339
0.00667518
0.00667894
0.00668158
0.00668536
0.00668882
0.00669288
0.00669693
0.00670142
0.00670592
0.00669893
0.00671065
0.00673227
0.00677001
0.00682082
0.00688934
0.00697805
0.0070933
0.00723248
0.00740357
0.0075948
0.00780991
0.00803032
0.0082458
0.00844024
0.00863952
0.00882839
0.00892962
0.00890249
0.00869688
0.00823273
0.00748526
0.00657166
0.0055634
0.00450332
0.00346217
0.00251779
0.00173155
0.00113136
0.000699231
0.000390241
0.000183943
9.22848e-05
9.81066e-05
0.00669906
0.00667815
0.00667717
0.00666976
0.00667126
0.00667015
0.00667345
0.00667538
0.00667901
0.00668174
0.00668544
0.00668893
0.00669295
0.00669701
0.00670144
0.00670594
0.00671068
0.00673241
0.00677037
0.0068218
0.00689131
0.00698209
0.00710054
0.00724546
0.00742553
0.00762971
0.00786547
0.00811309
0.00836412
0.00859711
0.00884164
0.00909235
0.00927192
0.00934927
0.00928691
0.00903831
0.00852488
0.00772767
0.00676607
0.00571428
0.00462216
0.00354927
0.00257568
0.0017652
0.00114709
0.000703896
0.00038974
0.000182512
9.22487e-05
9.8448e-05
0.00671068
0.00669859
0.00667689
0.00667671
0.00666956
0.00667112
0.00667033
0.0066735
0.00667559
0.00667908
0.00668191
0.00668553
0.00668904
0.00669302
0.00669709
0.00670147
0.00670595
0.00673251
0.00677067
0.00682268
0.00689311
0.00698579
0.00710715
0.00725749
0.00744576
0.0076625
0.00791831
0.00819183
0.00847838
0.00875771
0.00905418
0.00936148
0.00960603
0.00976245
0.00980224
0.00969212
0.00939025
0.00882008
0.0079688
0.0069591
0.00586085
0.00473687
0.00363364
0.00263193
0.00179794
0.00116243
0.000708484
0.000389332
0.000181268
9.22531e-05
9.87726e-05
0.00673261
0.00670967
0.00669744
0.0066759
0.00667615
0.00666944
0.00667095
0.00667054
0.00667356
0.00667581
0.00667915
0.00668207
0.00668562
0.00668916
0.0066931
0.00669716
0.00670149
0.00670597
0.00677092
0.00682348
0.00689476
0.00698916
0.0071132
0.0072686
0.00746438
0.00769339
0.00796829
0.0082667
0.00858962
0.0089193
0.00927929
0.00965523
0.00996454
0.0101912
0.0103087
0.0102933
0.0101194
0.00975205
0.00911695
0.00820745
0.00714946
0.00600435
0.00484696
0.00371496
0.00268632
0.00182964
0.00117734
0.00071296
0.000389138
0.000180127
9.22551e-05
9.907e-05
0.00677115
0.00673102
0.00670753
0.00669584
0.00667523
0.00667547
0.00666942
0.00667076
0.00667078
0.00667361
0.00667603
0.00667924
0.00668224
0.00668572
0.00668926
0.00669317
0.00669723
0.00670152
0.00670599
0.00682423
0.00689628
0.00699224
0.00711874
0.00727882
0.00748153
0.00772242
0.00801515
0.00833796
0.00869893
0.0090814
0.00950641
0.00997475
0.0103802
0.0106879
0.010877
0.0109279
0.0108304
0.0105713
0.0101237
0.00941457
0.00844274
0.00733528
0.00614495
0.00495256
0.00379302
0.00273869
0.00186021
0.00119175
0.000717318
0.000388959
0.000179128
9.22875e-05
9.93537e-05
0.00682495
0.00676846
0.00672762
0.00670538
0.00669392
0.00667488
0.00667465
0.0066695
0.00667055
0.00667104
0.00667367
0.00667625
0.00667933
0.0066824
0.00668581
0.00668937
0.00669325
0.00669729
0.00670154
0.006706
0.00689768
0.00699505
0.00712382
0.00728819
0.00749732
0.00774956
0.00805882
0.00840601
0.00880613
0.0092414
0.00973065
0.0103146
0.0108789
0.011323
0.0115952
0.0116978
0.0116355
0.0114191
0.011049
0.0105048
0.0097122
0.00867394
0.00751555
0.00628172
0.00505369
0.0038677
0.00278891
0.0018896
0.00120564
0.000721542
0.000388947
0.000178207
9.2313e-05
9.95803e-05
0.00689899
0.00682155
0.00676261
0.00672434
0.00670326
0.0066916
0.00667485
0.00667372
0.00666966
0.00667036
0.0066713
0.00667375
0.00667646
0.00667944
0.00668254
0.00668591
0.00668947
0.00669332
0.00669735
0.00670157
0.00670601
0.0069976
0.00712845
0.00729676
0.00751184
0.00777478
0.0080994
0.00847109
0.00890995
0.00939617
0.00995361
0.01069
0.0114771
0.0121518
0.0125661
0.0127165
0.0126597
0.0124299
0.0120568
0.0115506
0.0108941
0.0100089
0.00890042
0.00769
0.00641403
0.00515037
0.00393895
0.00283693
0.00191777
0.00121899
0.000725612
0.000388948
0.000177409
9.23533e-05
9.97704e-05
0.00699996
0.00689416
0.00681366
0.00675681
0.00672124
0.00670151
0.00668883
0.00667504
0.00667274
0.00666985
0.00667018
0.00667156
0.00667386
0.00667666
0.00667955
0.00668268
0.00668601
0.00668956
0.00669339
0.00669741
0.0067016
0.00670602
0.00713267
0.00730455
0.00752517
0.00779807
0.00813706
0.00853305
0.00900883
0.00954464
0.0101825
0.0111176
0.0121832
0.0131467
0.0138033
0.0140619
0.0139997
0.0137237
0.0132871
0.0127304
0.0120696
0.0112887
0.0103036
0.00912163
0.00785843
0.00654147
0.00524261
0.00400677
0.00288272
0.00194468
0.00123176
0.000729542
0.000388964
0.000176769
9.23853e-05
9.99752e-05
0.00713654
0.00699337
0.00688253
0.00680582
0.00675125
0.00671831
0.0067003
0.00668584
0.00667534
0.00667178
0.00667004
0.00667006
0.0066718
0.00667398
0.00667683
0.00667967
0.00668281
0.00668611
0.00668965
0.00669346
0.00669746
0.00670162
0.00670603
0.00731164
0.00753736
0.00781948
0.00817198
0.00859155
0.00910177
0.009688
0.0104243
0.0115977
0.0129668
0.0142246
0.0151451
0.0156241
0.0156458
0.0153337
0.0148212
0.0141679
0.0134197
0.0125966
0.0116844
0.0105947
0.00933699
0.00802064
0.00666379
0.00533046
0.00407119
0.00292626
0.00197032
0.00124396
0.00073333
0.000389007
0.000176245
9.24304e-05
0.000100198
0.00731805
0.00712763
0.00697672
0.0068709
0.00679813
0.00674592
0.00671553
0.00669931
0.00668284
0.00667562
0.00667092
0.00667019
0.00667001
0.00667201
0.00667413
0.00667699
0.0066798
0.00668293
0.00668622
0.00668974
0.00669353
0.00669751
0.00670165
0.00670604
0.0075485
0.00783906
0.00820427
0.00864622
0.00918859
0.00982833
0.0106809
0.0121127
0.0137691
0.0152781
0.0164211
0.0171224
0.0173619
0.0171485
0.0166088
0.0158833
0.0150315
0.0141021
0.0131204
0.0120766
0.0108804
0.00954593
0.00817652
0.00678086
0.00541398
0.00413228
0.00296757
0.00199471
0.00125559
0.000736481
0.000389058
0.000175691
9.2479e-05
0.000100439
0.00755855
0.0073065
0.00710411
0.00696002
0.00685952
0.00679058
0.00674079
0.00671293
0.00669839
0.00668004
0.00667573
0.00667025
0.00667026
0.00667004
0.00667217
0.00667429
0.00667714
0.00667993
0.00668304
0.00668632
0.00668982
0.0066936
0.00669756
0.00670166
0.00670604
0.00785694
0.00823402
0.00869687
0.00926973
0.00996708
0.0109483
0.0126354
0.0145329
0.0162228
0.0175179
0.0183863
0.0188352
0.0188619
0.0184653
0.0177521
0.0168597
0.0158448
0.0147579
0.0136304
0.0124601
0.0111589
0.00974789
0.00832598
0.00689263
0.00549326
0.00418987
0.00300667
0.00201784
0.00126518
0.000739186
0.000389125
0.000175119
9.25452e-05
0.000100702
0.00787294
0.00754352
0.00727391
0.00708052
0.00694365
0.00684839
0.0067831
0.00673602
0.00671043
0.00669744
0.00667769
0.00667555
0.0066698
0.00667024
0.00667014
0.00667231
0.00667446
0.00667727
0.00668006
0.00668315
0.00668642
0.00668991
0.00669367
0.00669758
0.00670166
0.00670604
0.00826137
0.0087435
0.0093459
0.0101044
0.0112182
0.0131404
0.0152194
0.0170167
0.0183908
0.0193576
0.0199562
0.0202003
0.0200744
0.0195579
0.0187311
0.0177232
0.0165866
0.0153722
0.0141177
0.0128306
0.0114285
0.00994236
0.00846892
0.00699903
0.00556894
0.00424415
0.00304361
0.00203687
0.00127335
0.000742168
0.000389222
0.000174506
9.26154e-05
0.000100986
0.00828582
0.00785411
0.00749874
0.00724119
0.00705738
0.00692766
0.00683749
0.00677565
0.00673155
0.00670791
0.00669623
0.0066762
0.00667503
0.00666959
0.00667016
0.00667029
0.00667243
0.00667463
0.0066774
0.00668019
0.00668325
0.00668652
0.00668999
0.00669371
0.00669758
0.00670166
0.00670604
0.00878632
0.00941775
0.0102391
0.0114817
0.0136092
0.0158106
0.0176526
0.0190451
0.020048
0.0207307
0.0211266
0.021231
0.0210112
0.0204301
0.019542
0.0184655
0.017247
0.0159362
0.0145761
0.0131846
0.0116876
0.0101289
0.00860532
0.00709994
0.00564096
0.0042953
0.00307386
0.00205302
0.00128233
0.000745485
0.000389341
0.000173877
9.27086e-05
0.000101297
0.00882438
0.00826212
0.00779341
0.0074538
0.00720904
0.00703479
0.00691204
0.0068268
0.00676828
0.00672725
0.00670531
0.00669411
0.00667542
0.00667424
0.00666956
0.00667004
0.00667046
0.00667254
0.0066748
0.00667752
0.00668032
0.00668335
0.00668662
0.00669002
0.00669371
0.00669758
0.00670166
0.00670604
0.00948568
0.0103695
0.0117315
0.014032
0.0163049
0.018144
0.0195102
0.0205013
0.0212121
0.0216945
0.0219576
0.0219776
0.0217098
0.0211058
0.0201972
0.0190903
0.0178243
0.0164459
0.0150015
0.0135192
0.011935
0.0103071
0.00873517
0.0071955
0.00570931
0.00433712
0.00309949
0.00207073
0.00129222
0.000749141
0.000389503
0.000173198
9.28074e-05
0.000101632
0.00954743
0.00879511
0.00817995
0.00773244
0.00740962
0.0071776
0.00701271
0.00689678
0.00681639
0.00676106
0.0067231
0.00670277
0.00669137
0.0066752
0.00667333
0.00666963
0.00666992
0.00667065
0.00667265
0.00667497
0.00667764
0.00668045
0.00668345
0.00668667
0.00669002
0.00669371
0.00669758
0.00670166
0.00670604
0.0104938
0.0119658
0.0144059
0.0167094
0.0185129
0.0198231
0.0207688
0.0214653
0.0219805
0.0223368
0.022521
0.0224967
0.0222132
0.0216155
0.0207159
0.0196078
0.0183221
0.0169008
0.0153923
0.0138331
0.0121698
0.0104767
0.0088585
0.00728588
0.00576552
0.00437251
0.00312749
0.00209015
0.0013031
0.000753232
0.000389695
0.00017251
9.29375e-05
0.000101998
0.0106056
0.00951078
0.00868347
0.00809758
0.0076724
0.00736635
0.00714686
0.00699117
0.00688194
0.00680636
0.0067539
0.00671928
0.00670056
0.00668812
0.00667528
0.00667242
0.00666974
0.00666981
0.00667083
0.00667276
0.00667513
0.00667776
0.00668057
0.0066835
0.00668667
0.00669002
0.00669371
0.00669758
0.00670166
0.00670603
0.0121855
0.0147303
0.017036
0.0187828
0.020019
0.0208978
0.02155
0.0220572
0.0224541
0.0227378
0.0228802
0.0228387
0.0225611
0.0219895
0.0211193
0.0200312
0.0187472
0.0173034
0.0157482
0.0141252
0.0123915
0.0106376
0.00897538
0.00736
0.00581325
0.00441117
0.00315812
0.00211147
0.00131511
0.000757732
0.000389947
0.000171763
9.30758e-05
0.000102392
0.0105642
0.0123808
0.00934837
0.00857318
0.00801628
0.00761353
0.007324
0.00711683
0.00697019
0.00686756
0.00679689
0.00674711
0.00671574
0.00669913
0.00668486
0.00667545
0.00667159
0.00666985
0.00666975
0.006671
0.00667288
0.00667528
0.00667787
0.00668063
0.00668349
0.00668667
0.00669002
0.00669371
0.00669758
0.00670165
0.00670602
0.0150065
0.0172971
0.0189752
0.0201279
0.0209271
0.0215152
0.0219848
0.0223817
0.0227139
0.0229608
0.0230857
0.0230447
0.0227875
0.0222546
0.0214274
0.0203739
0.0191074
0.0176573
0.0160704
0.0143957
0.0126
0.0107898
0.00907132
0.00742285
0.00586555
0.00445343
0.00319165
0.0021349
0.00132837
0.000762771
0.00039024
0.000171016
9.3258e-05
0.000102823
0.0103158
0.0123415
0.0152315
0.00919239
0.0084648
0.00793641
0.00755586
0.00728259
0.00708755
0.00694982
0.00685372
0.00678777
0.00674071
0.00671252
0.00669797
0.00668188
0.00667555
0.00667092
0.00666992
0.00666972
0.00667115
0.006673
0.00667543
0.00667793
0.00668063
0.00668349
0.00668667
0.00669002
0.00669371
0.00669756
0.00670162
0.00670601
0.0175044
0.0191084
0.0201737
0.0208869
0.0213988
0.0218101
0.0221766
0.0225169
0.0228195
0.0230525
0.0231756
0.0231471
0.0229198
0.0224338
0.021658
0.0206489
0.019411
0.0179669
0.0163607
0.0146449
0.0127951
0.0109143
0.00915274
0.00749161
0.0059229
0.00449967
0.00322837
0.00216067
0.00134302
0.000768391
0.00039062
0.000170199
9.34515e-05
0.000103283
0.0100716
0.0119875
0.0151658
0.0176585
0.00904377
0.00835799
0.00785808
0.00749939
0.00724216
0.00705909
0.00693012
0.0068404
0.00677898
0.00673475
0.00670967
0.0066969
0.00667937
0.00667546
0.00667042
0.00666995
0.00666974
0.00667128
0.00667313
0.0066755
0.00667792
0.00668063
0.00668349
0.00668667
0.00669002
0.00669367
0.00669751
0.0067016
0.006706
0.0191965
0.020175
0.0208001
0.021229
0.0215683
0.0218818
0.0221986
0.0225175
0.0228129
0.0230464
0.0231782
0.0231706
0.02298
0.0225459
0.0218264
0.0208676
0.0196659
0.018237
0.0166214
0.0148737
0.012953
0.0110197
0.00924184
0.00756692
0.00598585
0.00455033
0.00326865
0.00218904
0.00135925
0.000774671
0.000391052
0.000169395
9.3708e-05
0.000103785
0.00984257
0.0116039
0.014812
0.0175598
0.0192421
0.00890022
0.00825269
0.00778138
0.0074442
0.00720282
0.00703149
0.0069111
0.00682762
0.00677066
0.00672948
0.00670706
0.00669578
0.00667759
0.00667514
0.0066701
0.00666992
0.0066698
0.00667141
0.00667319
0.0066755
0.00667792
0.00668063
0.00668349
0.00668667
0.00668998
0.0066936
0.00669746
0.00670157
0.00670598
0.0201452
0.0206837
0.0210268
0.0212856
0.0215301
0.0217985
0.0221011
0.022421
0.022723
0.0229663
0.0231144
0.0231345
0.0229855
0.0226063
0.0219454
0.02104
0.0198792
0.0184721
0.0168549
0.0150554
0.0130858
0.0111347
0.0093394
0.00764945
0.006055
0.00460589
0.00331286
0.00222031
0.00137724
0.000781671
0.000391611
0.000168508
9.39801e-05
0.000104318
0.0096282
0.0112258
0.0143706
0.0173298
0.0190909
0.0200845
0.00876003
0.00814913
0.00770645
0.0073904
0.00716464
0.00700482
0.0068929
0.00681567
0.00676295
0.00672494
0.00670455
0.00669416
0.00667654
0.00667463
0.00666993
0.00666987
0.0066699
0.00667146
0.00667319
0.0066755
0.00667792
0.00668063
0.0066835
0.00668662
0.0066899
0.00669353
0.0066974
0.00670154
0.00670597
0.0205494
0.0208073
0.0209812
0.0211456
0.0213468
0.0216058
0.0219174
0.0222524
0.0225695
0.0228291
0.0230001
0.0230534
0.0229499
0.022627
0.0220254
0.0211745
0.0200573
0.0186765
0.0170358
0.0152062
0.0132294
0.0112601
0.00944626
0.00773999
0.00613102
0.00466691
0.00336145
0.00225482
0.00139722
0.000789515
0.000392235
0.000167653
9.43443e-05
0.000104899
0.00942551
0.0108664
0.0138823
0.0170132
0.0189344
0.0198785
0.0203928
0.00862257
0.00804763
0.00763344
0.00733813
0.00712773
0.0069793
0.00687596
0.00680472
0.0067557
0.00672088
0.0067022
0.00669196
0.00667602
0.00667398
0.00666988
0.0066698
0.00666996
0.00667145
0.00667319
0.0066755
0.00667792
0.00668063
0.00668345
0.00668652
0.00668982
0.00669346
0.00669735
0.00670152
0.00670595
0.0205806
0.0206689
0.0207468
0.0208667
0.0210602
0.0213343
0.0216699
0.0220282
0.0223658
0.0226474
0.0228471
0.0229391
0.0228839
0.0226179
0.022075
0.0212783
0.0202057
0.01883
0.017184
0.015367
0.0133845
0.0113969
0.00956332
0.00783938
0.00621468
0.00473399
0.0034149
0.00229294
0.00141942
0.000798289
0.000393041
0.000166699
9.47306e-05
0.000105506
0.009232
0.0105299
0.0133686
0.0166348
0.0187076
0.0197556
0.0201319
0.020337
0.00848793
0.00794851
0.00756255
0.00728754
0.00709242
0.00695558
0.00686051
0.00679473
0.006749
0.00671731
0.00670022
0.00668932
0.00667584
0.00667328
0.00666992
0.0066697
0.00666999
0.00667144
0.00667319
0.0066755
0.00667793
0.00668057
0.00668335
0.00668642
0.00668974
0.00669339
0.00669729
0.00670149
0.00670594
0.0203582
0.0203471
0.0203765
0.0204873
0.0206989
0.0210048
0.0213731
0.0217591
0.0221212
0.0224302
0.0226651
0.0228005
0.0227961
0.0225866
0.0221008
0.0213571
0.0203119
0.0189536
0.0173391
0.0155379
0.0135516
0.0115458
0.00969157
0.00794856
0.00630682
0.00480785
0.0034738
0.00233512
0.00144414
0.000808166
0.000393933
0.000165753
9.52475e-05
0.000106284
0.00904603
0.0102178
0.0128405
0.0162065
0.0184368
0.0195754
0.0200119
0.0200207
0.020033
0.00835642
0.00785214
0.00749399
0.00723913
0.00705964
0.006934
0.00684644
0.00678573
0.00674283
0.0067142
0.00669888
0.00668663
0.00667584
0.0066726
0.00667004
0.00666959
0.00667001
0.00667144
0.00667319
0.0066755
0.00667787
0.00668044
0.00668325
0.00668632
0.00668965
0.00669332
0.00669722
0.00670147
0.00670592
0.0199556
0.0198899
0.0199057
0.020034
0.0202828
0.0206302
0.0210355
0.0214517
0.0218424
0.0221851
0.0224616
0.0226451
0.022693
0.0225392
0.0221085
0.0214067
0.0203954
0.0190802
0.0175008
0.0157188
0.0137312
0.0117077
0.00983204
0.00806857
0.00640839
0.00488928
0.00353878
0.00238182
0.0014717
0.00081923
0.000395079
0.000164708
9.59053e-05
0.000107202
0.00886685
0.00992971
0.0123061
0.0157298
0.0181345
0.0193666
0.019843
0.019884
0.0196603
0.019556
0.00822832
0.00775895
0.00742841
0.00719421
0.00702982
0.00691436
0.00683368
0.00677766
0.00673726
0.00671139
0.00669776
0.00668413
0.00667593
0.00667204
0.00667018
0.00666954
0.00667001
0.00667145
0.00667319
0.00667543
0.00667775
0.00668032
0.00668314
0.00668621
0.00668956
0.00669324
0.00669716
0.00670144
0.0067059
0.0194163
0.0193304
0.0193595
0.0195273
0.0198241
0.020218
0.0206616
0.0211098
0.0215344
0.0219183
0.0222431
0.0224786
0.0225798
0.0224803
0.0221012
0.0214434
0.0204778
0.0192089
0.0176684
0.0159094
0.0139236
0.0118834
0.00998578
0.00820052
0.00652042
0.00497919
0.00361058
0.00243365
0.00150246
0.000831742