/*--------------------------------*- C++ -*----------------------------------*\
  =========                 |
  \\      /  F ield         | OpenFOAM: The Open Source CFD Toolbox
   \\    /   O peration     | Website:  https://openfoam.org
    \\  /    A nd           | Version:  8
     \\/     M anipulation  |
\*---------------------------------------------------------------------------*/
FoamFile
{
    version     2.0;
    format      ascii;
    class       surfaceScalarField;
    location    "0.05";
    object      phi;
}
// * * * * * * * * * * * * * * * * * * * * * * * * * * * * * * * * * * * * * //

dimensions      [0 3 -1 0 0 0 0];

internalField   nonuniform List<scalar> 
31053
(
6.27733e-07
1.27523e-05
8.49642e-07
1.51581e-05
3.76335e-07
1.23759e-05
9.32363e-07
1.75573e-05
5.88924e-07
1.49455e-05
2.69661e-07
1.21063e-05
9.56038e-07
2.02163e-05
7.07152e-07
1.74391e-05
4.64901e-07
1.47503e-05
2.16226e-07
1.189e-05
9.47072e-07
2.3249e-05
7.66731e-07
2.01567e-05
5.90454e-07
1.73135e-05
3.96641e-07
1.45698e-05
1.72937e-07
1.17171e-05
9.17159e-07
2.66899e-05
7.91865e-07
2.32238e-05
6.65657e-07
2.00815e-05
5.24456e-07
1.71857e-05
3.34191e-07
1.44086e-05
1.38496e-07
1.15786e-05
8.71793e-07
3.06654e-05
7.94751e-07
2.6687e-05
7.0785e-07
2.31816e-05
6.0605e-07
1.99999e-05
4.57104e-07
1.70628e-05
2.7975e-07
1.42673e-05
1.1152e-07
1.14671e-05
8.14349e-07
3.51974e-05
7.82293e-07
3.06778e-05
7.27901e-07
2.6667e-05
6.54864e-07
2.31328e-05
5.3894e-07
1.99181e-05
3.93482e-07
1.6949e-05
2.33052e-07
1.41458e-05
8.92792e-08
1.13778e-05
7.47704e-07
4.03866e-05
7.58331e-07
3.52214e-05
7.32132e-07
3.06736e-05
6.80935e-07
2.66409e-05
5.88729e-07
2.3083e-05
4.71567e-07
1.984e-05
3.35247e-07
1.68468e-05
1.9143e-07
1.40437e-05
6.98205e-08
1.1308e-05
6.73559e-07
4.63541e-05
7.24769e-07
4.04202e-05
7.23824e-07
3.52297e-05
6.90239e-07
3.06643e-05
6.15502e-07
2.66141e-05
5.18877e-07
2.30357e-05
4.06836e-07
1.97684e-05
2.80193e-07
1.67581e-05
1.52951e-07
1.39605e-05
5.2063e-08
1.12559e-05
5.93578e-07
5.322e-05
6.83682e-07
4.63952e-05
7.04155e-07
4.04399e-05
6.86281e-07
3.52337e-05
6.25239e-07
3.06546e-05
5.43058e-07
2.659e-05
4.49159e-07
2.29934e-05
3.42851e-07
1.97058e-05
2.26779e-07
1.66843e-05
1.16407e-07
1.38962e-05
3.5198e-08
1.12207e-05
5.09708e-07
6.10639e-05
6.36749e-07
5.32669e-05
6.74419e-07
4.6425e-05
6.71453e-07
4.04547e-05
6.21455e-07
3.52375e-05
5.4991e-07
3.06477e-05
4.68309e-07
2.65708e-05
3.7786e-07
2.29584e-05
2.78314e-07
1.96542e-05
1.73999e-07
1.66267e-05
8.08437e-08
1.38505e-05
1.87032e-08
1.1202e-05
4.24507e-07
7.00672e-05
5.85485e-07
6.11151e-05
6.3572e-07
5.33056e-05
6.4641e-07
4.645e-05
6.06299e-07
4.04699e-05
5.42935e-07
3.52444e-05
4.69677e-07
3.06463e-05
3.89664e-07
2.6559e-05
3.03753e-07
2.2933e-05
2.12318e-07
1.96159e-05
1.21068e-07
1.65864e-05
4.55622e-08
1.38237e-05
2.45048e-09
1.11996e-05
3.41711e-07
8.04148e-05
5.30909e-07
7.01218e-05
5.89269e-07
6.11616e-05
6.11512e-07
5.33405e-05
5.8081e-07
4.64755e-05
5.24102e-07
4.04887e-05
4.56656e-07
3.52575e-05
3.83075e-07
3.06529e-05
3.05925e-07
2.65568e-05
2.25951e-07
2.29193e-05
1.44218e-07
1.95928e-05
6.73676e-08
1.65646e-05
1.02182e-08
1.38159e-05
-1.37897e-08
1.12134e-05
2.7836e-07
7.62534e-05
4.73067e-07
8.04726e-05
5.36423e-07
7.01746e-05
5.67149e-07
6.12059e-05
5.45361e-07
5.3376e-05
4.94393e-07
4.65052e-05
4.31112e-07
4.05142e-05
3.6131e-07
3.52792e-05
2.88949e-07
3.06699e-05
2.16203e-07
2.65666e-05
1.43832e-07
2.29197e-05
7.35126e-08
1.95866e-05
1.25934e-08
1.65623e-05
-2.53618e-08
1.38275e-05
-3.02122e-08
1.12436e-05
2.27702e-07
7.62407e-05
4.21067e-07
7.63054e-05
4.78562e-07
8.05305e-05
5.13938e-07
7.02278e-05
5.00134e-07
6.12512e-05
4.54179e-07
5.34162e-05
3.93928e-07
4.65424e-05
3.26129e-07
4.05494e-05
2.55782e-07
3.53124e-05
1.86407e-07
3.06997e-05
1.19838e-07
2.65906e-05
5.69166e-08
2.29363e-05
-3.11644e-11
1.95993e-05
-4.33775e-08
1.65803e-05
-6.14058e-08
1.38587e-05
-4.68103e-08
1.12904e-05
1.87359e-07
7.62303e-05
3.723e-07
7.62894e-05
4.26967e-07
7.63569e-05
4.52971e-07
8.05915e-05
4.45394e-07
7.02826e-05
4.03603e-07
6.13018e-05
3.45404e-07
5.34647e-05
2.78299e-07
4.65902e-05
2.08023e-07
4.05972e-05
1.39171e-07
3.53596e-05
7.47315e-08
3.07448e-05
1.63515e-08
2.66311e-05
-3.49247e-08
2.29712e-05
-7.62869e-08
1.96322e-05
-1.00538e-07
1.66194e-05
-9.777e-08
1.39096e-05
-6.34155e-08
1.13538e-05
1.54906e-07
7.62245e-05
3.27073e-07
7.62756e-05
3.7867e-07
7.63377e-05
3.9746e-07
7.64125e-05
3.81792e-07
8.06551e-05
3.42852e-07
7.03433e-05
2.85627e-07
6.13615e-05
2.18023e-07
5.3525e-05
1.46296e-07
4.66519e-05
7.58721e-08
4.06605e-05
1.0696e-08
3.54237e-05
-4.65602e-08
3.08077e-05
-9.43251e-08
2.66905e-05
-1.31441e-07
2.30264e-05
-1.55085e-07
1.96867e-05
-1.58554e-07
1.66802e-05
-1.34196e-07
1.39804e-05
-7.98823e-08
1.14337e-05
1.28537e-07
7.62164e-05
2.85712e-07
7.62658e-05
3.33729e-07
7.63205e-05
3.4492e-07
7.63903e-05
3.22839e-07
7.64714e-05
2.72518e-07
8.07254e-05
2.14729e-07
7.04142e-05
1.45336e-07
6.14342e-05
7.06798e-08
5.36006e-05
-3.05801e-09
4.67309e-05
-7.11749e-08
4.07423e-05
-1.30133e-07
3.55072e-05
-1.77506e-07
3.08909e-05
-2.11835e-07
2.67709e-05
-2.32194e-07
2.31035e-05
-2.35745e-07
1.97639e-05
-2.1692e-07
1.67629e-05
-1.70305e-07
1.40708e-05
-9.59353e-08
1.15296e-05
1.06929e-07
7.62116e-05
2.48227e-07
7.62539e-05
2.92167e-07
7.63074e-05
2.95779e-07
7.63697e-05
2.66464e-07
7.64466e-05
2.07389e-07
7.65365e-05
1.33311e-07
8.08068e-05
6.03656e-08
7.04992e-05
-1.88493e-08
6.15237e-05
-9.77034e-08
5.36952e-05
-1.70703e-07
4.68304e-05
-2.3364e-07
4.08459e-05
-2.83333e-07
3.56131e-05
-3.17593e-07
3.09966e-05
-3.35479e-07
2.68742e-05
-3.36204e-07
2.32039e-05
-3.17415e-07
1.98644e-05
-2.74966e-07
1.68676e-05
-2.05599e-07
1.41805e-05
-1.114e-07
1.1641e-05
8.91037e-08
7.62078e-05
2.1446e-07
7.62454e-05
2.53921e-07
7.62921e-05
2.503e-07
7.63529e-05
2.13446e-07
7.64227e-05
1.45231e-07
7.65088e-05
5.84031e-08
7.66114e-05
-3.62331e-08
8.09034e-05
-1.22168e-07
7.06025e-05
-2.0817e-07
6.16342e-05
-2.88178e-07
5.38127e-05
-3.57195e-07
4.6954e-05
-4.11485e-07
4.0974e-05
-4.48196e-07
3.57437e-05
-4.65897e-07
3.11271e-05
-4.63989e-07
2.7002e-05
-4.42202e-07
2.33287e-05
-3.99046e-07
1.99885e-05
-3.31886e-07
1.69939e-05
-2.3959e-07
1.43087e-05
-1.25974e-07
1.1767e-05
7.54764e-08
6.95956e-05
1.84209e-07
7.62381e-05
2.18903e-07
7.62804e-05
2.08596e-07
7.63338e-05
1.64279e-07
7.6402e-05
8.70101e-08
7.64809e-05
-1.26883e-08
7.65799e-05
-1.24492e-07
7.66997e-05
-2.38455e-07
8.10197e-05
-3.34302e-07
7.07286e-05
-4.23814e-07
6.17698e-05
-5.0134e-07
5.39569e-05
-5.62448e-07
4.71049e-05
-6.03817e-07
4.11296e-05
-6.23582e-07
3.59013e-05
-6.2084e-07
3.12839e-05
-5.95666e-07
2.71555e-05
-5.48723e-07
2.34784e-05
-4.79432e-07
2.0136e-05
-3.86826e-07
1.71411e-05
-2.71688e-07
1.44544e-05
-1.39456e-07
1.19064e-05
6.49954e-08
6.25545e-05
1.59569e-07
6.96203e-05
1.87004e-07
7.627e-05
1.7067e-07
7.63183e-05
1.19274e-07
7.63788e-05
3.33563e-08
7.64557e-05
-7.88361e-08
7.6547e-05
-2.07745e-07
7.66631e-05
-3.43913e-07
7.68052e-05
-4.75095e-07
8.11605e-05
-5.77453e-07
7.08823e-05
-6.66436e-07
6.19349e-05
-7.37075e-07
5.41315e-05
-7.85373e-07
4.72865e-05
-8.09264e-07
4.13153e-05
-8.07582e-07
3.60881e-05
-7.80287e-07
3.14685e-05
-7.28607e-07
2.73353e-05
-6.54079e-07
2.3653e-05
-5.57278e-07
2.03065e-05
-4.38821e-07
1.73082e-05
-3.014e-07
1.46164e-05
-1.51465e-07
1.20579e-05
5.6776e-08
5.62262e-05
1.39738e-07
6.25743e-05
1.60396e-07
6.96469e-05
1.36474e-07
7.63042e-05
7.8603e-08
7.6359e-05
-1.53016e-08
7.64275e-05
-1.39229e-07
7.65161e-05
-2.84665e-07
7.6624e-05
-4.42793e-07
7.6762e-05
-6.01986e-07
7.69321e-05
-7.4787e-07
8.13309e-05
-8.52341e-07
7.10682e-05
-9.35918e-07
6.21338e-05
-9.94093e-07
5.43402e-05
-1.02436e-06
4.75016e-05
-1.02556e-06
4.15333e-05
-9.9759e-07
3.63054e-05
-9.41859e-07
3.16818e-05
-8.60595e-07
2.75419e-05
-7.56482e-07
2.38522e-05
-6.31171e-07
2.04988e-05
-4.87033e-07
1.74939e-05
-3.27877e-07
1.47928e-05
-1.61406e-07
1.22193e-05
5.02233e-08
5.05386e-05
1.2365e-07
5.62423e-05
1.38463e-07
6.25962e-05
1.08415e-07
6.96749e-05
4.23514e-08
7.63404e-05
-5.86881e-08
7.64024e-05
-1.93303e-07
7.64815e-05
-3.54274e-07
7.65857e-05
-5.33583e-07
7.67147e-05
-7.20339e-07
7.68804e-05
-9.00712e-07
7.70849e-05
-1.0576e-06
8.15362e-05
-1.15889e-06
7.12912e-05
-1.23077e-06
6.23705e-05
-1.27054e-06
5.45864e-05
-1.27675e-06
4.77528e-05
-1.24958e-06
4.17853e-05
-1.19072e-06
3.65543e-05
-1.10279e-06
3.1924e-05
-9.89324e-07
2.77747e-05
-8.54008e-07
2.40751e-05
-6.99848e-07
2.07116e-05
-5.30151e-07
1.76961e-05
-3.50391e-07
1.49817e-05
-1.6707e-07
1.23864e-05
4.4928e-08
4.54253e-05
1.10489e-07
5.05517e-05
1.20328e-07
5.62604e-05
8.57098e-08
6.2619e-05
1.31494e-08
6.97041e-05
-9.66235e-08
7.63784e-05
-2.40674e-07
7.64497e-05
-4.15846e-07
7.65431e-05
-6.15099e-07
7.66672e-05
-8.2843e-07
7.68228e-05
-1.0427e-06
7.70224e-05
-1.24106e-06
7.72684e-05
-1.40429e-06
8.17816e-05
-1.49543e-06
7.15558e-05
-1.54891e-06
6.26488e-05
-1.56334e-06
5.4873e-05
-1.53887e-06
4.80421e-05
-1.47792e-06
4.20725e-05
-1.38363e-06
3.68351e-05
-1.26021e-06
3.21949e-05
-1.1123e-06
2.8033e-05
-9.44894e-07
2.43201e-05
-7.61555e-07
2.0943e-05
-5.67287e-07
1.7913e-05
-3.64769e-07
1.51794e-05
-1.35477e-07
1.25219e-05
4.05982e-08
4.08303e-05
9.96364e-08
4.54361e-05
1.0528e-07
5.05668e-05
6.72927e-08
5.62789e-05
-9.92345e-09
6.2642e-05
-1.26422e-07
6.97339e-05
-2.81091e-07
7.64188e-05
-4.68864e-07
7.65028e-05
-6.86427e-07
7.66144e-05
-9.24851e-07
7.67636e-05
-1.17187e-06
7.6952e-05
-1.41103e-06
7.71923e-05
-1.62318e-06
7.74872e-05
-1.78617e-06
8.20723e-05
-1.85965e-06
7.18665e-05
-1.88682e-06
6.29723e-05
-1.86824e-06
5.52023e-05
-1.80676e-06
4.83709e-05
-1.70658e-06
4.23954e-05
-1.57282e-06
3.71477e-05
-1.411e-06
3.24936e-05
-1.22721e-06
2.83153e-05
-1.02693e-06
2.45855e-05
-8.14918e-07
2.11907e-05
-5.93053e-07
1.81413e-05
-3.57686e-07
1.54017e-05
-8.63179e-08
1.26082e-05
3.70189e-08
3.66996e-05
9.06283e-08
4.08393e-05
9.27397e-08
4.54487e-05
5.2324e-08
5.05817e-05
-2.81162e-08
5.62971e-05
-1.49226e-07
6.26648e-05
-3.11798e-07
6.97646e-05
-5.12969e-07
7.64629e-05
-7.46893e-07
7.65632e-05
-1.00848e-06
7.66981e-05
-1.28654e-06
7.68783e-05
-1.56526e-06
7.71062e-05
-1.82567e-06
7.73948e-05
-2.04522e-06
7.77463e-05
-2.20073e-06
8.24134e-05
-2.24764e-06
7.22274e-05
-2.23969e-06
6.33438e-05
-2.1807e-06
5.55763e-05
-2.07569e-06
4.874e-05
-1.93137e-06
4.2754e-05
-1.75447e-06
3.74912e-05
-1.55225e-06
3.28186e-05
-1.33137e-06
2.86198e-05
-1.09818e-06
2.48688e-05
-8.54885e-07
2.14525e-05
-6.01986e-07
1.83856e-05
-3.31357e-07
1.56467e-05
-6.27219e-08
1.26709e-05
3.40296e-08
3.2989e-05
8.31127e-08
3.67071e-05
8.22518e-08
4.08498e-05
4.01396e-08
4.54609e-05
-4.24315e-08
5.0596e-05
-1.66506e-07
5.63143e-05
-3.3429e-07
6.26873e-05
-5.45257e-07
6.97969e-05
-7.96009e-07
7.6512e-05
-1.07845e-06
7.66332e-05
-1.38536e-06
7.67969e-05
-1.70177e-06
7.70148e-05
-2.00917e-06
7.72897e-05
-2.28478e-06
7.76344e-05
-2.50465e-06
7.80502e-05
-2.64375e-06
8.28095e-05
-2.65399e-06
7.26417e-05
-2.60224e-06
6.37653e-05
-2.49511e-06
5.59957e-05
-2.34069e-06
4.91493e-05
-2.14774e-06
4.31472e-05
-1.92512e-06
3.78641e-05
-1.68084e-06
3.31681e-05
-1.42237e-06
2.89439e-05
-1.1544e-06
2.51683e-05
-8.78158e-07
2.17287e-05
-5.98299e-07
1.86526e-05
-3.0663e-07
1.58906e-05
-5.744e-08
1.27283e-05
3.15104e-08
2.96505e-05
7.68124e-08
3.29953e-05
7.34646e-08
3.67159e-05
3.01904e-08
4.08598e-05
-5.36719e-08
4.54721e-05
-1.79451e-07
5.0609e-05
-3.50369e-07
5.63304e-05
-5.67684e-07
6.27097e-05
-8.30661e-07
6.98316e-05
-1.13414e-06
7.65677e-05
-1.46724e-06
7.67151e-05
-1.81892e-06
7.6914e-05
-2.17138e-06
7.7177e-05
-2.50187e-06
7.75068e-05
-2.78586e-06
7.79156e-05
-2.99702e-06
7.84035e-05
-3.10913e-06
8.32647e-05
-3.07265e-06
7.31121e-05
-2.96806e-06
6.42383e-05
-2.80578e-06
5.64608e-05
-2.59649e-06
4.95981e-05
-2.35163e-06
4.35737e-05
-2.08114e-06
3.82643e-05
-1.79394e-06
3.35396e-05
-1.49663e-06
2.92862e-05
-1.19306e-06
2.54832e-05
-8.89438e-07
2.20198e-05
-5.89489e-07
1.89354e-05
-2.93049e-07
1.61262e-05
-6.18657e-08
1.27902e-05
2.93705e-08
2.66501e-05
7.15073e-08
2.96558e-05
6.60888e-08
3.30027e-05
2.20267e-08
3.6724e-05
-6.24819e-08
4.08686e-05
-1.89017e-07
4.54817e-05
-3.61487e-07
5.06201e-05
-5.82488e-07
5.63452e-05
-8.53366e-07
6.27325e-05
-1.17211e-06
6.98696e-05
-1.53135e-06
7.66318e-05
-1.91536e-06
7.68115e-05
-2.3103e-06
7.7053e-05
-2.69378e-06
7.73689e-05
-3.04096e-06
7.77619e-05
-3.32436e-06
7.82429e-05
-3.51567e-06
7.881e-05
-3.59019e-06
8.37822e-05
-3.49644e-06
7.36404e-05
-3.33067e-06
6.47632e-05
-3.10662e-06
5.69709e-05
-2.83835e-06
5.00848e-05
-2.53884e-06
4.40315e-05
-2.21927e-06
3.86897e-05
-1.88836e-06
3.39314e-05
-1.55208e-06
2.96452e-05
-1.21797e-06
2.58117e-05
-8.94268e-07
2.23246e-05
-5.82804e-07
1.92252e-05
-2.89736e-07
1.63541e-05
-8.47449e-08
1.2875e-05
2.75408e-08
2.39558e-05
6.70158e-08
2.66546e-05
5.98817e-08
2.9662e-05
1.52954e-08
3.30094e-05
-6.93795e-08
3.67309e-05
-1.95965e-07
4.08755e-05
-3.68807e-07
4.5489e-05
-5.91476e-07
5.06291e-05
-8.66911e-07
5.63588e-05
-1.19558e-06
6.27559e-05
-1.57386e-06
6.99121e-05
-1.99002e-06
7.67065e-05
-2.42428e-06
7.69255e-05
-2.85813e-06
7.72173e-05
-3.26682e-06
7.75948e-05
-3.6219e-06
7.80594e-05
-3.89324e-06
7.86205e-05
-4.05353e-06
7.92734e-05
-4.07895e-06
8.43647e-05
-3.91802e-06
7.42278e-05
-3.68301e-06
6.53395e-05
-3.39208e-06
5.75247e-05
-3.06139e-06
5.06074e-05
-2.70569e-06
4.45179e-05
-2.33653e-06
3.91378e-05
-1.96232e-06
3.43416e-05
-1.59154e-06
3.00188e-05
-1.23427e-06
2.61517e-05
-8.97566e-07
2.26394e-05
-5.80015e-07
1.95155e-05
-3.57917e-07
1.66273e-05
-9.34233e-08
1.29684e-05
2.59676e-08
2.15336e-05
6.31905e-08
2.39597e-05
5.46382e-08
2.66599e-05
9.72277e-09
2.96676e-05
-7.4776e-08
3.30148e-05
-2.009e-07
3.67359e-05
-3.73248e-07
4.088e-05
-5.96089e-07
4.54936e-05
-8.73541e-07
5.06357e-05
-1.20797e-06
5.63712e-05
-1.59874e-06
6.27808e-05
-2.03851e-06
6.99606e-05
-2.51197e-06
7.67941e-05
-2.9929e-06
7.70603e-05
-3.46059e-06
7.74111e-05
-3.88599e-06
7.78589e-05
-4.23743e-06
7.84036e-05
-4.48511e-06
7.90521e-05
-4.60199e-06
7.97964e-05
-4.56718e-06
8.50139e-05
-4.32927e-06
7.48741e-05
-4.01869e-06
6.59661e-05
-3.65654e-06
5.81198e-05
-3.26145e-06
5.11631e-05
-2.84915e-06
4.50305e-05
-2.43124e-06
3.96068e-05
-2.0178e-06
3.47679e-05
-1.61947e-06
3.0404e-05
-1.24589e-06
2.65e-05
-9.00034e-07
2.29594e-05
-7.13827e-07
1.98714e-05
-3.57714e-07
1.68915e-05
-1.02558e-07
1.30709e-05
2.46085e-08
1.93534e-05
5.99159e-08
2.15368e-05
5.01879e-08
2.39641e-05
5.09795e-09
2.66645e-05
-7.89938e-08
2.96718e-05
-2.04294e-07
3.30182e-05
-3.75535e-07
3.67382e-05
-5.9746e-07
4.08813e-05
-8.75044e-07
4.54951e-05
-1.21208e-06
5.06398e-05
-1.61023e-06
5.63826e-05
-2.06568e-06
6.2808e-05
-2.5682e-06
7.00168e-05
-3.09641e-06
7.68977e-05
-3.61981e-06
7.72195e-05
-4.11332e-06
7.76384e-05
-4.54406e-06
7.81655e-05
-4.88003e-06
7.87985e-05
-5.09091e-06
7.9541e-05
-5.15203e-06
8.03813e-05
-5.04562e-06
8.57302e-05
-4.72285e-06
7.55782e-05
-4.33121e-06
6.66408e-05
-3.89526e-06
5.87536e-05
-3.43527e-06
5.17492e-05
-2.96747e-06
4.55667e-05
-2.5046e-06
4.00936e-05
-2.05837e-06
3.52068e-05
-1.63902e-06
3.07971e-05
-1.25332e-06
2.68533e-05
-1.11167e-06
2.33572e-05
-7.05614e-07
2.02193e-05
-3.57521e-07
1.71465e-05
-1.09682e-07
1.31806e-05
1.73972e-05
2.34312e-08
5.71003e-08
1.93562e-05
4.63936e-08
2.15406e-05
1.25259e-09
2.3968e-05
-8.2285e-08
2.66678e-05
-2.06517e-07
2.9674e-05
-3.76231e-07
3.30189e-05
-5.96475e-07
3.67372e-05
-8.72824e-07
4.08791e-05
-1.21011e-06
4.54931e-05
-1.61175e-06
5.06414e-05
-2.07669e-06
5.63937e-05
-2.59881e-06
6.28386e-05
-3.16246e-06
7.00828e-05
-3.74236e-06
7.70202e-05
-4.30089e-06
7.74071e-05
-4.80922e-06
7.79036e-05
-5.23348e-06
7.8519e-05
-5.54024e-06
7.92479e-05
-5.70096e-06
8.009e-05
-5.69349e-06
8.10291e-05
-5.50594e-06
8.65133e-05
-5.0913e-06
7.63383e-05
-4.61512e-06
6.73607e-05
-4.10455e-06
5.94229e-05
-3.5808e-06
5.23626e-05
-3.0611e-06
4.61232e-05
-2.55926e-06
4.05945e-05
-2.08648e-06
3.56542e-05
-1.65079e-06
3.11946e-05
-1.55117e-06
2.72928e-05
-1.09864e-06
2.37502e-05
-6.94775e-07
2.05565e-05
-3.55301e-07
1.73921e-05
-1.14314e-07
1.32949e-05
1.73996e-05
5.46623e-08
2.78119e-05
2.15033e-08
4.31452e-08
1.93594e-05
-1.95275e-09
2.15438e-05
-8.48465e-08
2.39705e-05
-2.07859e-07
2.66691e-05
-3.75774e-07
2.96736e-05
-5.93823e-07
3.30162e-05
-8.67974e-07
3.67323e-05
-1.2038e-06
4.08728e-05
-1.60601e-06
4.54874e-05
-2.0757e-06
5.06404e-05
-2.60999e-06
5.64048e-05
-3.19798e-06
6.28741e-05
-3.82077e-06
7.01612e-05
-4.44611e-06
7.71654e-05
-5.02934e-06
7.76272e-05
-5.54092e-06
7.8211e-05
-5.94459e-06
7.89233e-05
-6.20795e-06
7.97549e-05
-6.30432e-06
8.07008e-05
-6.21715e-06
8.17403e-05
-5.93957e-06
8.73616e-05
-5.42827e-06
7.71515e-05
-4.8661e-06
6.81222e-05
-4.28185e-06
6.01239e-05
-3.69779e-06
5.29993e-05
-3.13185e-06
4.66958e-05
-2.59713e-06
4.11051e-05
-2.10289e-06
3.61063e-05
-2.04435e-06
3.16878e-05
-1.53429e-06
2.77284e-05
-1.07872e-06
2.41342e-05
-6.8027e-07
2.08815e-05
-3.50225e-07
1.7628e-05
-1.16529e-07
1.34115e-05
1.74024e-05
4.03576e-08
2.78159e-05
5.06483e-08
2.85518e-05
1.96634e-08
-4.63256e-09
1.93621e-05
-8.6833e-08
2.15458e-05
-2.08542e-07
2.39712e-05
-3.74503e-07
2.66679e-05
-5.9003e-07
2.96698e-05
-8.61334e-07
3.30096e-05
-1.19449e-06
3.6723e-05
-1.59514e-06
4.08619e-05
-2.06601e-06
4.54777e-05
-2.60676e-06
5.06371e-05
-3.21029e-06
5.64172e-05
-3.86305e-06
6.29164e-05
-4.53982e-06
7.02549e-05
-5.20125e-06
7.73373e-05
-5.79811e-06
7.78844e-05
-6.2987e-06
7.85651e-05
-6.66698e-06
7.93823e-05
-6.87158e-06
8.03221e-05
-6.89099e-06
8.13746e-05
-6.71341e-06
8.25142e-05
-6.33909e-06
8.82724e-05
-5.72862e-06
7.8014e-05
-5.0809e-06
6.89213e-05
-4.4262e-06
6.08523e-05
-3.78728e-06
5.36547e-05
-3.18113e-06
4.72798e-05
-2.61902e-06
4.16212e-05
-2.60485e-06
3.66668e-05
-2.02266e-06
3.21761e-05
-1.50594e-06
2.81557e-05
-1.05214e-06
2.45061e-05
-6.61711e-07
2.1193e-05
-3.42279e-07
1.78538e-05
-1.16646e-07
1.35281e-05
1.74047e-05
-6.8827e-09
2.78199e-05
3.64254e-08
2.85557e-05
4.67664e-08
2.93117e-05
1.79138e-08
-8.83662e-08
1.93636e-05
-2.0874e-07
2.1546e-05
-3.72674e-07
2.39694e-05
-5.85499e-07
2.66633e-05
-8.53549e-07
2.9662e-05
-1.18321e-06
3.29983e-05
-1.58081e-06
3.67087e-05
-2.05023e-06
4.08462e-05
-2.5931e-06
4.54641e-05
-3.20536e-06
5.06322e-05
-3.87782e-06
5.64319e-05
-4.5912e-06
6.29678e-05
-5.31371e-06
7.03674e-05
-6.00118e-06
7.75404e-05
-6.59762e-06
7.81833e-05
-7.07207e-06
7.89702e-05
-7.38862e-06
7.98994e-05
-7.52046e-06
8.09516e-05
-7.45042e-06
8.21116e-05
-7.17385e-06
8.33489e-05
-6.6983e-06
8.92421e-05
-5.98822e-06
7.89213e-05
-5.2578e-06
6.97529e-05
-4.53792e-06
6.1603e-05
-3.85019e-06
5.43237e-05
-3.20978e-06
4.78706e-05
-3.24506e-06
4.22614e-05
-2.5774e-06
3.72216e-05
-1.98493e-06
3.26551e-05
-1.4674e-06
2.85709e-05
-1.0194e-06
2.48637e-05
-6.39426e-07
2.14901e-05
-3.31808e-07
1.80689e-05
-1.15038e-07
1.36431e-05
1.74058e-05
-8.95431e-08
2.78221e-05
-9.06099e-09
2.85594e-05
3.27291e-08
2.93155e-05
4.3034e-08
3.00897e-05
1.62558e-08
-2.08585e-07
1.93635e-05
-3.70486e-07
2.15438e-05
-5.80532e-07
2.39644e-05
-8.45103e-07
2.66549e-05
-1.17077e-06
2.96496e-05
-1.56426e-06
3.29818e-05
-2.03036e-06
3.66888e-05
-2.57217e-06
4.08252e-05
-3.18796e-06
4.54467e-05
-3.87207e-06
5.06264e-05
-4.61017e-06
5.64509e-05
-5.377e-06
6.3031e-05
-6.13635e-06
7.05026e-05
-6.83668e-06
7.77795e-05
-7.41748e-06
7.85287e-05
-7.84873e-06
7.94303e-05
-8.09832e-06
8.04772e-05
-8.14318e-06
8.16444e-05
-7.97317e-06
8.2911e-05
-7.59123e-06
8.42419e-05
-7.01204e-06
9.02659e-05
-6.20448e-06
7.9868e-05
-5.39644e-06
7.06114e-05
-4.61749e-06
6.23703e-05
-3.88738e-06
5.50013e-05
-3.97856e-06
4.86041e-05
-3.2113e-06
4.28953e-05
-2.52896e-06
3.77656e-05
-1.93334e-06
3.31211e-05
-1.42005e-06
2.89716e-05
-9.81492e-07
2.52058e-05
-6.14065e-07
2.17724e-05
-3.19302e-07
1.82732e-05
-1.12091e-07
1.37552e-05
1.74054e-05
-2.08181e-07
2.78209e-05
-8.84169e-08
2.85613e-05
-1.09687e-08
2.9319e-05
2.92563e-08
3.00932e-05
3.94528e-08
3.08896e-05
1.46894e-08
-3.68084e-07
1.93611e-05
-5.75356e-07
2.15387e-05
-8.36356e-07
2.39557e-05
-1.15773e-06
2.66418e-05
-1.54647e-06
2.96318e-05
-2.00797e-06
3.29594e-05
-2.54639e-06
3.6663e-05
-3.16184e-06
4.07991e-05
-3.85144e-06
4.5426e-05
-4.60489e-06
5.06212e-05
-5.40245e-06
5.64763e-05
-6.21493e-06
6.31096e-05
-6.99901e-06
7.06649e-05
-7.69764e-06
7.80596e-05
-8.2453e-06
7.89253e-05
-8.61714e-06
7.99491e-05
-8.78394e-06
8.1118e-05
-8.72937e-06
8.24006e-05
-8.45099e-06
8.37707e-05
-7.95932e-06
8.51891e-05
-7.27667e-06
9.13381e-05
-6.3763e-06
8.08478e-05
-5.49678e-06
7.14907e-05
-4.66571e-06
6.31486e-05
-4.82109e-06
5.58439e-05
-3.93834e-06
4.93311e-05
-3.15103e-06
4.35174e-05
-2.46268e-06
3.8295e-05
-1.87009e-06
3.35711e-05
-1.36562e-06
2.93557e-05
-9.39579e-07
2.55313e-05
-5.86405e-07
2.20395e-05
-3.05284e-07
1.84664e-05
-1.08159e-07
1.38634e-05
1.74029e-05
-3.6558e-07
2.7815e-05
-2.02217e-07
2.85598e-05
-8.69107e-08
2.93206e-05
-1.25927e-08
3.00965e-05
2.60122e-08
3.0893e-05
3.6028e-08
3.17095e-05
1.32131e-08
-5.70136e-07
1.93559e-05
-8.27573e-07
2.15299e-05
-1.14453e-06
2.39425e-05
-1.52815e-06
2.66235e-05
-1.9842e-06
2.9608e-05
-2.51763e-06
3.29306e-05
-3.12993e-06
3.66311e-05
-3.82037e-06
4.0768e-05
-4.58192e-06
4.54031e-05
-5.39941e-06
5.06181e-05
-6.24968e-06
5.65111e-05
-7.09682e-06
6.32074e-05
-7.89202e-06
7.08593e-05
-8.57185e-06
7.83862e-05
-9.06944e-06
7.93776e-05
-9.36459e-06
8.05298e-05
-9.43429e-06
8.18229e-05
-9.26983e-06
8.32194e-05
-8.8766e-06
8.4688e-05
-8.27352e-06
8.6186e-05
-7.49025e-06
9.2452e-05
-6.50309e-06
8.18541e-05
-5.55951e-06
7.23845e-05
-5.79068e-06
6.41182e-05
-4.77473e-06
5.66803e-05
-3.86531e-06
5.00454e-05
-3.06837e-06
4.41231e-05
-2.3816e-06
3.88065e-05
-1.79762e-06
3.40031e-05
-1.30588e-06
2.9722e-05
-8.9487e-07
2.58398e-05
-5.57204e-07
2.22914e-05
-2.90254e-07
1.86485e-05
-1.03542e-07
1.39669e-05
1.73978e-05
-5.64992e-07
2.78024e-05
-3.53062e-07
2.85534e-05
-1.95758e-07
2.93187e-05
-8.50401e-08
3.00978e-05
-1.39318e-08
3.0896e-05
2.29959e-08
3.17127e-05
3.27638e-08
3.25534e-05
1.18288e-08
-8.18945e-07
1.93472e-05
-1.13149e-06
2.15168e-05
-1.50982e-06
2.39241e-05
-1.95993e-06
2.65993e-05
-2.48732e-06
2.95777e-05
-3.09448e-06
3.28952e-05
-3.78235e-06
3.65931e-05
-4.54648e-06
4.07326e-05
-5.37545e-06
4.53791e-05
-6.2512e-06
5.06196e-05
-7.14428e-06
5.65586e-05
-8.01352e-06
6.33289e-05
-8.80349e-06
7.10909e-05
-9.44772e-06
7.87645e-05
-9.87678e-06
7.98898e-05
-1.00792e-05
8.11747e-05
-1.00393e-05
8.25924e-05
-9.75621e-06
8.4099e-05
-9.24444e-06
8.56589e-05
-8.5311e-06
8.72268e-05
-7.65155e-06
9.36005e-05
-6.58529e-06
8.28799e-05
-6.90675e-06
7.35006e-05
-5.73916e-06
6.50826e-05
-4.68824e-06
5.75032e-05
-3.76459e-06
5.07416e-05
-2.96729e-06
4.47088e-05
-2.28893e-06
3.92978e-05
-1.71834e-06
3.44156e-05
-1.24258e-06
3.00697e-05
-8.4845e-07
2.6131e-05
-5.27158e-07
2.25283e-05
-2.74665e-07
1.88196e-05
-9.84763e-08
1.40654e-05
1.73894e-05
-8.10604e-07
2.77814e-05
-5.43991e-07
2.85402e-05
-3.39859e-07
2.93117e-05
-1.88757e-07
3.00956e-05
-8.27752e-08
3.08971e-05
-1.49864e-08
3.17155e-05
2.02079e-08
3.25565e-05
2.96578e-08
3.34193e-05
1.05329e-08
-1.11883e-06
1.93346e-05
-1.49186e-06
2.14989e-05
-1.9358e-06
2.39e-05
-2.4565e-06
2.65684e-05
-3.05718e-06
2.95404e-05
-3.74004e-06
3.28529e-05
-4.50266e-06
3.65493e-05
-5.33664e-06
4.06938e-05
-6.22812e-06
4.5356e-05
-7.15326e-06
5.06286e-05
-8.07769e-06
5.66227e-05
-8.95363e-06
6.34791e-05
-9.72212e-06
7.13653e-05
-1.0312e-05
7.91996e-05
-1.06549e-05
8.04655e-05
-1.07501e-05
8.18855e-05
-1.05895e-05
8.34257e-05
-1.01819e-05
8.50365e-05
-9.55088e-06
8.66787e-05
-8.73018e-06
8.83055e-05
-7.76064e-06
9.47759e-05
-8.19169e-06
8.41649e-05
-6.8521e-06
7.46135e-05
-5.63889e-06
6.60333e-05
-4.56784e-06
5.83064e-05
-3.6412e-06
5.14155e-05
-2.85188e-06
4.52717e-05
-2.18778e-06
3.97672e-05
-1.63457e-06
3.48076e-05
-1.17722e-06
3.03985e-05
-8.01288e-07
2.64052e-05
-4.96891e-07
2.27505e-05
-2.58852e-07
1.898e-05
-9.31646e-08
1.41586e-05
1.73773e-05
-1.10671e-06
2.77497e-05
-7.78861e-07
2.85183e-05
-5.22138e-07
2.92979e-05
-3.26024e-07
3.00881e-05
-1.81292e-07
3.08944e-05
-8.01384e-08
3.17163e-05
-1.57545e-08
3.25591e-05
1.76481e-08
3.34222e-05
2.67152e-08
3.43052e-05
9.32435e-09
-1.47453e-06
1.93172e-05
-1.91225e-06
2.14753e-05
-2.42593e-06
2.38694e-05
-3.01931e-06
2.65306e-05
-3.69549e-06
2.94958e-05
-4.45363e-06
3.28038e-05
-5.28773e-06
3.65004e-05
-6.1874e-06
4.06531e-05
-7.1335e-06
4.53363e-05
-8.09763e-06
5.06486e-05
-9.03905e-06
5.67081e-05
-9.90623e-06
6.36632e-05
-1.06347e-05
7.1688e-05
-1.11519e-05
7.96966e-05
-1.13923e-05
8.11077e-05
-1.13668e-05
8.26628e-05
-1.10774e-05
8.43211e-05
-1.05424e-05
8.6028e-05
-9.79322e-06
8.77417e-05
-8.8703e-06
8.94151e-05
-9.67082e-06
9.6255e-05
-8.13794e-06
8.54507e-05
-6.73857e-06
7.57132e-05
-5.49734e-06
6.69628e-05
-4.41969e-06
5.90849e-05
-3.50021e-06
5.20639e-05
-2.72601e-06
4.581e-05
-2.08104e-06
4.02137e-05
-1.54827e-06
3.51786e-05
-1.1111e-06
3.07083e-05
-7.54231e-07
2.66625e-05
-4.66845e-07
2.29585e-05
-2.43127e-07
1.913e-05
-8.7761e-08
1.42463e-05
1.73608e-05
-1.458e-06
2.77049e-05
-1.06191e-06
2.84855e-05
-7.46055e-07
2.92751e-05
-4.99401e-07
3.00736e-05
-3.11503e-07
3.08864e-05
-1.73315e-07
3.17133e-05
-7.71218e-08
3.25595e-05
-1.62422e-08
3.34246e-05
1.53118e-08
3.4308e-05
2.39349e-08
3.52191e-05
8.20201e-09
-1.88961e-06
1.92946e-05
-2.39617e-06
2.14456e-05
-2.98178e-06
2.38319e-05
-3.65021e-06
2.64853e-05
-4.40179e-06
2.9444e-05
-5.23243e-06
3.27485e-05
-6.13454e-06
3.64475e-05
-7.09289e-06
4.06125e-05
-8.08423e-06
4.53229e-05
-9.07407e-06
5.06836e-05
-1.00179e-05
5.68199e-05
-1.08583e-05
6.38868e-05
-1.15284e-05
7.20645e-05
-1.19554e-05
8.02596e-05
-1.20777e-05
8.18186e-05
-1.19209e-05
8.35064e-05
-1.14973e-05
8.5276e-05
-1.0834e-05
8.70688e-05
-9.97037e-06
8.88418e-05
-1.10752e-05
9.08196e-05
-9.62568e-06
9.77427e-05
-8.01349e-06
8.67256e-05
-6.575e-06
7.67908e-05
-5.32192e-06
6.7865e-05
-4.24997e-06
5.98347e-05
-3.34638e-06
5.26842e-05
-2.59327e-06
4.63222e-05
-1.9712e-06
4.06366e-05
-1.46113e-06
3.55286e-05
-1.04537e-06
3.09994e-05
-7.07863e-07
2.69035e-05
-4.37438e-07
2.31528e-05
-2.27718e-07
1.92699e-05
-8.23757e-08
1.43287e-05
1.73392e-05
-1.86807e-06
2.76441e-05
-1.39723e-06
2.84394e-05
-1.0158e-06
2.92413e-05
-7.1226e-07
3.005e-05
-4.75843e-07
3.08713e-05
-2.9636e-07
3.17048e-05
-1.64863e-07
3.25562e-05
-7.37434e-08
3.34248e-05
-1.64509e-08
3.43101e-05
1.31955e-08
3.52217e-05
2.13144e-08
3.6155e-05
7.1626e-09
-2.3676e-06
1.9266e-05
-2.94526e-06
2.14091e-05
-3.6053e-06
2.3787e-05
-4.34895e-06
2.64324e-05
-5.17358e-06
2.93851e-05
-6.07384e-06
3.26878e-05
-7.03773e-06
3.63924e-05
-8.04632e-06
4.05746e-05
-9.07065e-06
4.53194e-05
-1.00727e-05
5.07383e-05
-1.10017e-05
5.69633e-05
-1.17973e-05
6.41557e-05
-1.23908e-05
7.24999e-05
-1.27105e-05
8.08924e-05
-1.27015e-05
8.25992e-05
-1.24056e-05
8.44147e-05
-1.18447e-05
8.62866e-05
-1.1055e-05
8.81535e-05
-1.24767e-05
9.02433e-05
-1.10469e-05
9.22408e-05
-9.49566e-06
9.92249e-05
-7.82866e-06
8.79793e-05
-6.37028e-06
7.78392e-05
-5.12014e-06
6.87352e-05
-4.06447e-06
6.05528e-05
-3.18407e-06
5.32751e-05
-2.4567e-06
4.68077e-05
-1.86038e-06
4.10359e-05
-1.37462e-06
3.58579e-05
-9.80777e-07
3.12724e-05
-6.62734e-07
2.71288e-05
-4.08966e-07
2.33341e-05
-2.12777e-07
1.94003e-05
-7.70971e-08
1.44058e-05
1.73121e-05
-2.34045e-06
2.75643e-05
-1.78828e-06
2.83769e-05
-1.33473e-06
2.91937e-05
-9.68191e-07
3.00151e-05
-6.773e-07
3.08469e-05
-4.51458e-07
3.16891e-05
-2.80626e-07
3.25472e-05
-1.55948e-07
3.34211e-05
-7.00103e-08
3.431e-05
-1.63862e-08
3.52236e-05
1.12916e-08
3.61575e-05
1.88522e-08
3.65889e-05
6.21515e-09
-2.91021e-06
1.9231e-05
-3.56157e-06
2.13653e-05
-4.29644e-06
2.37345e-05
-5.11331e-06
2.63722e-05
-6.00861e-06
2.93199e-05
-6.97295e-06
3.2623e-05
-7.99105e-06
3.63371e-05
-9.03865e-06
4.05426e-05
-1.00835e-05
4.53302e-05
-1.10813e-05
5.08179e-05
-1.19781e-05
5.71441e-05
-1.27105e-05
6.44754e-05
-1.32096e-05
7.2999e-05
-1.34069e-05
8.15978e-05
-1.32562e-05
8.34498e-05
-1.28155e-05
8.53856e-05
-1.21169e-05
8.73485e-05
-1.38693e-05
8.95461e-05
-1.24753e-05
9.16717e-05
-1.092e-05
9.36651e-05
-9.29254e-06
0.000100689
-7.59372e-06
8.92027e-05
-6.13336e-06
7.88524e-05
-4.89896e-06
6.95697e-05
-3.86849e-06
6.12372e-05
-3.01701e-06
5.38354e-05
-2.31893e-06
4.72662e-05
-1.75041e-06
4.14117e-05
-1.28969e-06
3.61668e-05
-9.18047e-07
3.15277e-05
-6.19228e-07
2.73391e-05
-3.81609e-07
2.35029e-05
-1.98426e-07
1.95217e-05
-7.19918e-08
1.44778e-05
1.72788e-05
-2.87692e-06
2.74622e-05
-2.23836e-06
2.82954e-05
-1.70676e-06
2.91298e-05
-1.27077e-06
2.99663e-05
-9.19398e-07
3.08111e-05
-6.41439e-07
3.16639e-05
-4.26303e-07
3.25309e-05
-2.64278e-07
3.34117e-05
-1.4659e-07
3.4306e-05
-6.59389e-08
3.52233e-05
-1.60536e-08
3.61592e-05
9.5901e-09
3.65912e-05
1.65781e-08
3.55528e-05
5.38261e-09
-3.51957e-06
1.9189e-05
-4.24521e-06
2.13141e-05
-5.05322e-06
2.36744e-05
-5.94137e-06
2.63049e-05
-6.9024e-06
2.92494e-05
-7.92403e-06
3.2556e-05
-8.98603e-06
3.62845e-05
-1.00612e-05
4.05202e-05
-1.11111e-05
4.536e-05
-1.2088e-05
5.09278e-05
-1.29344e-05
5.7368e-05
-1.35855e-05
6.48513e-05
-1.39737e-05
7.35658e-05
-1.4036e-05
8.23776e-05
-1.37352e-05
8.43695e-05
-1.31469e-05
8.64156e-05
-1.52453e-05
8.87245e-05
-1.39068e-05
9.09776e-05
-1.23615e-05
9.31132e-05
-1.07073e-05
9.50799e-05
-9.0282e-06
0.000102123
-7.31916e-06
9.03885e-05
-5.87259e-06
7.98261e-05
-4.66481e-06
7.0366e-05
-3.66658e-06
6.18868e-05
-2.8484e-06
5.43648e-05
-2.18221e-06
4.7698e-05
-1.64248e-06
4.17645e-05
-1.20728e-06
3.6456e-05
-8.57679e-07
3.17661e-05
-5.77567e-07
2.7535e-05
-3.55515e-07
2.366e-05
-1.84757e-07
1.96344e-05
-6.71021e-08
1.45449e-05
1.72389e-05
-3.47966e-06
2.73351e-05
-2.74981e-06
2.81913e-05
-2.13433e-06
2.90462e-05
-1.62317e-06
2.99008e-05
-1.20529e-06
3.0761e-05
-8.69367e-07
3.16271e-05
-6.04615e-07
3.25051e-05
-4.00492e-07
3.33948e-05
-2.47432e-07
3.42962e-05
-1.36839e-07
3.52189e-05
-6.155e-08
3.61586e-05
-1.54515e-08
3.65927e-05
8.09841e-09
3.55548e-05
1.45663e-08
3.45447e-05
4.64915e-09
-4.19595e-06
1.91397e-05
-4.99443e-06
2.12553e-05
-5.87398e-06
2.3607e-05
-6.82902e-06