/*--------------------------------*- C++ -*----------------------------------*\
  =========                 |
  \\      /  F ield         | OpenFOAM: The Open Source CFD Toolbox
   \\    /   O peration     | Website:  https://openfoam.org
    \\  /    A nd           | Version:  8
     \\/     M anipulation  |
\*---------------------------------------------------------------------------*/
FoamFile
{
    version     2.0;
    format      ascii;
    class       surfaceScalarField;
    location    "0.46";
    object      phi;
}
// * * * * * * * * * * * * * * * * * * * * * * * * * * * * * * * * * * * * * //

dimensions      [0 3 -1 0 0 0 0];

internalField   nonuniform List<scalar> 
31053
(
6.28475e-07
1.27515e-05
8.51092e-07
1.51574e-05
3.78731e-07
1.23728e-05
9.34557e-07
1.75565e-05
5.93778e-07
1.49423e-05
2.72959e-07
1.20998e-05
9.59049e-07
2.02155e-05
7.14568e-07
1.74357e-05
4.7202e-07
1.47433e-05
2.20789e-07
1.1879e-05
9.50956e-07
2.32481e-05
7.76923e-07
2.01532e-05
6.01848e-07
1.73059e-05
4.06563e-07
1.45575e-05
1.78112e-07
1.17009e-05
9.21919e-07
2.6689e-05
8.05117e-07
2.32199e-05
6.81829e-07
2.00732e-05
5.40454e-07
1.7172e-05
3.45566e-07
1.439e-05
1.44113e-07
1.15568e-05
8.77323e-07
3.06646e-05
8.11411e-07
2.66827e-05
7.29469e-07
2.31723e-05
6.28904e-07
1.99847e-05
4.75617e-07
1.7042e-05
2.92134e-07
1.4242e-05
1.17374e-07
1.14394e-05
8.19839e-07
3.51975e-05
8.02834e-07
3.06732e-05
7.55863e-07
2.66563e-05
6.85528e-07
2.31156e-05
5.65564e-07
1.98948e-05
4.1373e-07
1.69204e-05
2.45937e-07
1.41135e-05
9.51719e-08
1.13443e-05
7.52921e-07
4.03869e-05
7.84058e-07
3.52163e-05
7.67668e-07
3.06614e-05
7.20577e-07
2.66213e-05
6.24554e-07
2.30566e-05
5.00792e-07
1.98077e-05
3.56353e-07
1.681e-05
2.04424e-07
1.40042e-05
7.57016e-08
1.12686e-05
6.78997e-07
4.63539e-05
7.56584e-07
4.04144e-05
7.69105e-07
3.52148e-05
7.40232e-07
3.06417e-05
6.61754e-07
2.65841e-05
5.58275e-07
2.29992e-05
4.37385e-07
1.97267e-05
3.01544e-07
1.67128e-05
1.65866e-07
1.3914e-05
5.77957e-08
1.12108e-05
5.99578e-07
5.32194e-05
7.22149e-07
4.63884e-05
7.60718e-07
4.04228e-05
7.47514e-07
3.52075e-05
6.83293e-07
3.06202e-05
5.93954e-07
2.65484e-05
4.90444e-07
2.29461e-05
3.73871e-07
1.96544e-05
2.47993e-07
1.66307e-05
1.29006e-07
1.38428e-05
4.07457e-08
1.117e-05
5.1703e-07
6.10625e-05
6.83094e-07
5.32585e-05
7.42829e-07
4.64062e-05
7.45491e-07
4.04248e-05
6.92758e-07
3.51981e-05
6.13822e-07
3.06003e-05
5.21756e-07
2.65171e-05
4.19934e-07
2.29e-05
3.09193e-07
1.95932e-05
1.9472e-07
1.6565e-05
9.30314e-08
1.37906e-05
2.40509e-08
1.1146e-05
4.34432e-07
7.00646e-05
6.40967e-07
6.11047e-05
7.16901e-07
5.32844e-05
7.35609e-07
4.64161e-05
6.92718e-07
4.04248e-05
6.21592e-07
3.51903e-05
5.36929e-07
3.05851e-05
4.44299e-07
2.64927e-05
3.45762e-07
2.28635e-05
2.42556e-07
1.95453e-05
1.41118e-07
1.65169e-05
5.72637e-08
1.37573e-05
7.49262e-09
1.11385e-05
3.56216e-07
8.04102e-05
5.96697e-07
7.01089e-05
6.84501e-07
6.11371e-05
7.17986e-07
5.3302e-05
6.8471e-07
4.64241e-05
6.19551e-07
4.04269e-05
5.39599e-07
3.51876e-05
4.52003e-07
3.05774e-05
3.60655e-07
2.64779e-05
2.67224e-07
2.28388e-05
1.73519e-07
1.95129e-05
8.65953e-08
1.64876e-05
2.13359e-08
1.37435e-05
-9.07135e-09
1.11476e-05
2.98523e-07
7.62477e-05
5.50005e-07
8.04569e-05
6.47338e-07
7.0146e-05
6.92986e-07
6.11621e-05
6.69319e-07
5.33174e-05
6.09043e-07
4.64346e-05
5.31926e-07
4.04346e-05
4.46512e-07
3.51931e-05
3.58204e-07
3.05799e-05
2.70148e-07
2.64749e-05
1.83918e-07
2.28284e-05
1.01614e-07
1.94979e-05
3.08752e-08
1.6478e-05
-1.49259e-08
1.37494e-05
-2.58108e-08
1.11734e-05
2.53534e-07
7.6235e-05
5.07724e-07
7.629e-05
6.07086e-07
8.04972e-05
6.61343e-07
7.01777e-05
6.4686e-07
6.11845e-05
5.90759e-07
5.33357e-05
5.15135e-07
4.64514e-05
4.29877e-07
4.04512e-05
3.41604e-07
3.52097e-05
2.54871e-07
3.05952e-05
1.72371e-07
2.64865e-05
9.5434e-08
2.28346e-05
2.67259e-08
1.9502e-05
-2.61697e-08
1.64893e-05
-5.16839e-08
1.37752e-05
-4.27602e-08
1.12161e-05
2.18138e-07
7.62254e-05
4.68471e-07
7.62742e-05
5.71849e-07
7.63252e-05
6.24345e-07
8.05342e-05
6.17708e-07
7.02068e-05
5.65115e-07
6.12102e-05
4.89894e-07
5.33609e-05
4.03205e-07
4.64781e-05
3.12746e-07
4.048e-05
2.24234e-07
3.52404e-05
1.4158e-07
3.06259e-05
6.69677e-08
2.65149e-05
1.788e-09
2.28595e-05
-5.10791e-08
1.9527e-05
-8.45029e-08
1.65221e-05
-8.88552e-08
1.38213e-05
-5.98024e-08
1.12759e-05
1.9008e-07
7.62201e-05
4.32895e-07
7.6261e-05
5.39723e-07
7.63064e-05
5.90923e-07
7.63586e-05
5.82674e-07
8.05692e-05
5.32586e-07
7.02394e-05
4.56634e-07
6.12434e-05
3.67077e-07
5.33971e-05
2.72592e-07
4.65183e-05
1.79903e-07
4.05244e-05
9.39623e-08
3.5288e-05
1.80292e-08
3.06749e-05
-4.59668e-08
2.65627e-05
-9.67587e-08
2.29052e-05
-1.3156e-07
1.9574e-05
-1.43854e-07
1.65771e-05
-1.26214e-07
1.38877e-05
-7.67405e-08
1.13527e-05
1.67705e-07
7.62124e-05
4.01111e-07
7.62518e-05
5.10806e-07
7.62899e-05
5.60042e-07
7.63372e-05
5.50042e-07
7.63913e-05
4.94032e-07
8.06077e-05
4.15837e-07
7.02802e-05
3.21908e-07
6.12886e-05
2.21604e-07
5.34481e-05
1.22646e-07
4.65755e-05
3.08863e-08
4.05875e-05
-4.94681e-08
3.53555e-05
-1.15619e-07
3.07445e-05
-1.66036e-07
2.6632e-05
-1.99779e-07
2.29734e-05
-2.14158e-07
1.96443e-05
-2.0375e-07
1.66546e-05
-1.63397e-07
1.39744e-05
-9.34065e-08
1.14461e-05
1.49778e-07
7.62079e-05
3.73009e-07
7.62405e-05
4.85005e-07
7.62776e-05
5.32246e-07
7.63177e-05
5.19286e-07
7.6368e-05
4.584e-07
7.64269e-05
3.68449e-07
8.06551e-05
2.68222e-07
7.03338e-05
1.60158e-07
6.13501e-05
5.27663e-08
5.35179e-05
-4.71269e-08
4.66535e-05
-1.34519e-07
4.06725e-05
-2.05836e-07
3.54457e-05
-2.58832e-07
3.08373e-05
-2.92576e-07
2.67248e-05
-3.06393e-07
2.30657e-05
-2.98047e-07
1.97386e-05
-2.63563e-07
1.67548e-05
-1.99959e-07
1.40809e-05
-1.095e-07
1.15556e-05
1.3537e-07
7.62044e-05
3.48376e-07
7.62326e-05
4.62166e-07
7.62633e-05
5.07773e-07
7.63021e-05
4.91199e-07
7.63458e-05
4.25103e-07
7.64013e-05
3.25233e-07
7.64701e-05
2.07095e-07
8.07163e-05
8.88405e-08
7.04052e-05
-2.9435e-08
6.14323e-05
-1.39981e-07
5.36108e-05
-2.3691e-07
4.67559e-05
-3.16026e-07
4.07827e-05
-3.74419e-07
3.55613e-05
-4.10702e-07
3.09555e-05
-4.24417e-07
2.68428e-05
-4.15389e-07
2.3183e-05
-3.8224e-07
1.98573e-05
-3.22516e-07
1.68774e-05
-2.35342e-07
1.42068e-05
-1.24797e-07
1.16804e-05
1.24679e-07
6.95927e-05
3.2697e-07
7.62258e-05
4.42124e-07
7.62526e-05
4.86666e-07
7.62844e-05
4.66244e-07
7.63271e-05
3.95107e-07
7.63758e-05
2.85227e-07
7.64413e-05
1.52018e-07
7.65252e-05
8.93315e-09
8.07962e-05
-1.23347e-07
7.04991e-05
-2.47474e-07
6.15397e-05
-3.56792e-07
5.37307e-05
-4.46339e-07
4.68862e-05
-5.12704e-07
4.0921e-05
-5.54088e-07
3.57047e-05
-5.69766e-07
3.11008e-05
-5.59945e-07
2.69874e-05
-5.25366e-07
2.33261e-05
-4.6554e-07
2.00003e-05
-3.79706e-07
1.70217e-05
-2.68981e-07
1.4351e-05
-1.38899e-07
1.18193e-05
1.16698e-07
6.2552e-05
3.10099e-07
6.96096e-05
4.2469e-07
7.62432e-05
4.68871e-07
7.62704e-05
4.44714e-07
7.6306e-05
3.69062e-07
7.63531e-05
2.4952e-07
7.64115e-05
1.01388e-07
7.64919e-05
-6.25011e-08
7.65966e-05
-2.27445e-07
8.09003e-05
-3.68954e-07
7.06205e-05
-4.94097e-07
6.16771e-05
-5.97233e-07
5.38816e-05
-6.74273e-07
4.70478e-05
-7.232e-07
4.10901e-05
-7.4306e-07
3.5878e-05
-7.3399e-07
3.12749e-05
-6.97323e-07
2.71593e-05
-6.34633e-07
2.34952e-05
-5.4661e-07
2.01672e-05
-4.34171e-07
1.71869e-05
-3.00003e-07
1.45121e-05
-1.51165e-07
1.19704e-05
1.1062e-07
5.62241e-05
2.96971e-07
6.25651e-05
4.10799e-07
6.96235e-05
4.54294e-07
7.62578e-05
4.26845e-07
7.62883e-05
3.47366e-07
7.63276e-05
2.18875e-07
7.63838e-05
5.64737e-08
7.64564e-05
-1.27814e-07
7.65573e-05
-3.19819e-07
7.6689e-05
-5.0264e-07
8.1034e-05
-6.48166e-07
7.07746e-05
-7.68815e-07
6.18486e-05
-8.59951e-07
5.40672e-05
-9.19126e-07
4.72437e-05
-9.45386e-07
4.12924e-05
-9.38853e-07
3.60828e-05
-9.01071e-07
3.14786e-05
-8.34336e-07
2.7359e-05
-7.41367e-07
2.369e-05
-6.24022e-07
2.03571e-05
-4.8456e-07
1.73715e-05
-3.27575e-07
1.46885e-05
-1.59461e-07
1.21299e-05
1.05912e-07
5.05367e-05
2.86688e-07
5.62344e-05
3.99896e-07
6.2576e-05
4.43674e-07
6.96341e-05
4.1275e-07
7.62719e-05
3.30156e-07
7.63055e-05
1.93808e-07
7.63527e-05
1.82076e-08
7.6422e-05
-1.85559e-07
7.65141e-05
-4.04012e-07
7.66414e-05
-6.20844e-07
7.68072e-05
-8.16941e-07
8.12027e-05
-9.60453e-07
7.09663e-05
-1.07008e-06
6.20588e-05
-1.14312e-06
5.42912e-05
-1.17839e-06
4.74767e-05
-1.17629e-06
4.15299e-05
-1.13867e-06
3.63204e-05
-1.06826e-06
3.17125e-05
-9.68642e-07
2.75863e-05
-8.43594e-07
2.39095e-05
-6.95949e-07
2.05685e-05
-5.29811e-07
1.75737e-05
-3.47314e-07
1.48763e-05
-1.27581e-07
1.22575e-05
1.02213e-07
4.54237e-05
2.78574e-07
5.05448e-05
3.91353e-07
5.62429e-05
4.36224e-07
6.25835e-05
4.03137e-07
6.96437e-05
3.17485e-07
7.62846e-05
1.74635e-07
7.63246e-05
-1.27551e-08
7.63837e-05
-2.34611e-07
7.64711e-05
-4.78359e-07
7.65885e-05
-7.28416e-07
7.6749e-05
-9.6585e-07
7.69561e-05
-1.16981e-06
8.14121e-05
-1.30408e-06
7.12003e-05
-1.39582e-06
6.23115e-05
-1.44384e-06
5.45567e-05
-1.44859e-06
4.7749e-05
-1.41261e-06
4.18038e-05
-1.33921e-06
3.65914e-05
-1.23265e-06
3.19765e-05
-1.09766e-06
2.78403e-05
-9.39004e-07
2.41526e-05
-7.60762e-07
2.07994e-05
-5.64051e-07
1.77904e-05
-3.43639e-07
1.50924e-05
-7.71913e-08
1.23347e-05
9.92701e-08
4.08289e-05
2.72122e-07
4.54302e-05
3.84666e-07
5.05515e-05
4.31114e-07
5.6248e-05
3.97058e-07
6.25895e-05
3.09957e-07
6.96512e-05
1.61576e-07
7.62977e-05
-3.59271e-08
7.63478e-05
-2.74105e-07
7.64232e-05
-5.41507e-07
7.65342e-05
-8.2342e-07
7.66835e-05
-1.10133e-06
7.68845e-05
-1.35439e-06
7.71407e-05
-1.55937e-06
8.16674e-05
-1.67676e-06
7.14812e-05
-1.74273e-06
6.26103e-05
-1.75811e-06
5.48662e-05
-1.72589e-06
4.80623e-05
-1.65043e-06
4.2115e-05
-1.53692e-06
3.68957e-05
-1.39099e-06
3.22699e-05
-1.21857e-06
2.81199e-05
-1.0253e-06
2.44171e-05
-8.1276e-07
2.10481e-05
-5.80551e-07
1.80274e-05
-3.19443e-07
1.53346e-05
-5.51035e-08
1.23898e-05
9.69034e-08
3.66984e-05
2.66953e-07
4.08341e-05
3.79429e-07
4.54354e-05
4.27698e-07
5.05549e-05
3.93624e-07
5.62514e-05
3.06516e-07
6.2593e-05
1.55091e-07
6.96577e-05
-5.09893e-08
7.63127e-05
-3.03419e-07
7.63771e-05
-5.92388e-07
7.64741e-05
-9.04245e-07
7.66151e-05
-1.22115e-06
7.68033e-05
-1.52244e-06
7.70526e-05
-1.78447e-06
7.73658e-05
-1.98316e-06
8.19738e-05
-2.07485e-06
7.18133e-05
-2.10632e-06
6.29585e-05
-2.08151e-06
5.52218e-05
-2.00563e-06
4.84175e-05
-1.88546e-06
4.24635e-05
-1.72786e-06
3.72325e-05
-1.53998e-06
3.25913e-05
-1.32848e-06
2.84231e-05
-1.09747e-06
2.47019e-05
-8.47682e-07
2.13153e-05
-5.83688e-07
1.82916e-05
-2.98057e-07
1.55776e-05
-5.31434e-08
1.24429e-05
9.4982e-08
3.29879e-05
2.62779e-07
3.67025e-05
3.75321e-07
4.08382e-05
4.255e-07
4.54376e-05
3.92188e-07
5.05564e-05
3.06088e-07
5.62519e-05
1.53717e-07
6.25944e-05
-5.74976e-08
6.96642e-05
-3.22119e-07
7.63314e-05
-6.30191e-07
7.64149e-05
-9.69577e-07
7.65394e-05
-1.32338e-06
7.67173e-05
-1.67139e-06
7.69522e-05
-1.98975e-06
7.72578e-05
-2.25364e-06
7.76363e-05
-2.43729e-06
8.23362e-05
-2.49325e-06
7.22003e-05
-2.48143e-06
6.33585e-05
-2.40855e-06
5.56248e-05
-2.28282e-06
4.88149e-05
-2.1131e-06
4.28488e-05
-1.90824e-06
3.76008e-05
-1.6762e-06
3.2939e-05
-1.423e-06
2.87486e-05
-1.15215e-06
2.50063e-05
-8.7043e-07
2.1602e-05
-5.82105e-07
1.85757e-05
-2.89784e-07
1.58142e-05
-6.00483e-08
1.2503e-05
9.34089e-08
2.96496e-05
2.59382e-07
3.29913e-05
3.7209e-07
3.67058e-05
4.2418e-07
4.08395e-05
3.92239e-07
4.54375e-05
3.07818e-07
5.05546e-05
1.56069e-07
5.62495e-05
-5.73897e-08
6.25942e-05
-3.29687e-07
6.96718e-05
-6.54332e-07
7.63556e-05
-1.0184e-06
7.64638e-05
-1.40642e-06
7.66224e-05
-1.79895e-06
7.68448e-05
-2.1722e-06
7.71347e-05
-2.50083e-06
7.7505e-05
-2.75779e-06
7.79568e-05
-2.91598e-06
8.27589e-05
-2.92615e-06
7.2645e-05
-2.86183e-06
6.38117e-05
-2.73356e-06
5.60755e-05
-2.55213e-06
4.92539e-05
-2.32902e-06
4.32696e-05
-2.07414e-06
3.79987e-05
-1.79562e-06
3.33116e-05
-1.49925e-06
2.90957e-05
-1.19326e-06
2.53292e-05
-8.87181e-07
2.19071e-05
-5.83877e-07
1.88697e-05
-2.92096e-07
1.60463e-05
-7.16456e-08
1.25746e-05
9.2111e-08
2.66493e-05
2.56591e-07
2.96524e-05
3.69538e-07
3.29939e-05
4.23495e-07
3.67065e-05
3.93369e-07
4.08384e-05
3.11045e-07
4.54343e-05
1.61052e-07
5.05496e-05
-5.24823e-08
5.62446e-05
-3.28652e-07
6.25932e-05
-6.64108e-07
6.96816e-05
-1.04994e-06
7.63871e-05
-1.46899e-06
7.65263e-05
-1.90317e-06
7.67267e-05
-2.32914e-06
7.70018e-05
-2.72129e-06
7.73552e-05
-3.05149e-06
7.77987e-05
-3.29066e-06
7.83315e-05
-3.41287e-06
8.32457e-05
-3.36654e-06
7.31497e-05
-3.24109e-06
6.43193e-05
-3.05041e-06
5.65738e-05
-2.80862e-06
4.97335e-05
-2.52877e-06
4.37242e-05
-2.22167e-06
3.84248e-05
-1.89568e-06
3.3708e-05
-1.56e-06
2.94625e-05
-1.2263e-06
2.56683e-05
-9.03269e-07
2.22265e-05
-5.90082e-07
1.91677e-05
-2.99401e-07
1.6274e-05
-1.04089e-07
1.26787e-05
9.10319e-08
2.39551e-05
2.54279e-07
2.66516e-05
3.67514e-07
2.96544e-05
4.23274e-07
3.29941e-05
3.95254e-07
3.67046e-05
3.15264e-07
4.08342e-05
1.67812e-07
4.54275e-05
-4.42147e-08
5.05414e-05
-3.21378e-07
5.62373e-05
-6.62757e-07
6.25919e-05
-1.06319e-06
6.96948e-05
-1.5101e-06
7.64282e-05
-1.98248e-06
7.66056e-05
-2.45823e-06
7.68557e-05
-2.91188e-06
7.71924e-05
-3.31445e-06
7.76181e-05
-3.63515e-06
7.81432e-05
-3.84551e-06
7.87641e-05
-3.92024e-06
8.37994e-05
-3.80723e-06
7.37158e-05
-3.6122e-06
6.48811e-05
-3.35343e-06
5.71186e-05
-3.04724e-06
5.0252e-05
-2.70836e-06
4.42109e-05
-2.34835e-06
3.88774e-05
-1.97807e-06
3.41261e-05
-1.60982e-06
2.9846e-05
-1.25545e-06
2.60205e-05
-9.18748e-07
2.25551e-05
-5.97653e-07
1.9466e-05
-3.81962e-07
1.65519e-05
-1.16435e-07
1.27951e-05
9.01285e-08
2.15329e-05
2.52352e-07
2.3957e-05
3.65905e-07
2.66532e-05
4.23398e-07
2.96543e-05
3.97641e-07
3.29917e-05
3.20094e-07
3.66997e-05
1.75698e-07
4.08263e-05
-3.3707e-08
4.5417e-05
-3.09739e-07
5.05297e-05
-6.53317e-07
5.62279e-05
-1.06223e-06
6.25909e-05
-1.52829e-06
6.9713e-05
-2.0356e-06
7.64813e-05
-2.5575e-06
7.67049e-05
-3.0698e-06
7.70137e-05
-3.54303e-06
7.7421e-05
-3.94497e-06
7.79279e-05
-4.24481e-06
7.85425e-05
-4.41408e-06
7.92579e-05
-4.43002e-06
8.44222e-05
-4.24015e-06
7.43438e-05
-3.96864e-06
6.54963e-05
-3.63687e-06
5.77082e-05
-3.26368e-06
5.08073e-05
-2.86518e-06
4.47277e-05
-2.45488e-06
3.93542e-05
-2.04621e-06
3.45625e-05
-1.65197e-06
3.02425e-05
-1.28049e-06
2.63822e-05
-9.31355e-07
2.28888e-05
-7.4859e-07
1.98326e-05
-3.90023e-07
1.68255e-05
-1.27588e-07
1.29227e-05
8.9367e-08
1.93528e-05
2.5074e-07
2.15345e-05
3.64621e-07
2.39583e-05
4.23775e-07
2.66528e-05
4.0033e-07
2.96516e-05
3.25251e-07
3.29865e-05
1.84217e-07
3.66912e-05
-2.18166e-08
4.08144e-05
-2.95197e-07
4.54025e-05
-6.38204e-07
5.05146e-05
-1.05089e-06
5.62166e-05
-1.52856e-06
6.25912e-05
-2.06042e-06
6.97378e-05
-2.62537e-06
7.65492e-05
-3.19264e-06
7.68277e-05
-3.7339e-06
7.72045e-05
-4.21589e-06
7.76919e-05
-4.60572e-06
7.82888e-05
-4.87177e-06
7.90002e-05
-4.98754e-06
7.98155e-05
-4.93306e-06
8.51151e-05
-4.65791e-06
7.5033e-05
-4.30386e-06
6.61633e-05
-3.89591e-06
5.83404e-05
-3.45498e-06
5.13971e-05
-2.99896e-06
4.52718e-05
-2.54349e-06
3.98515e-05
-2.10253e-06
3.50131e-05
-1.68632e-06
3.06483e-05
-1.29933e-06
2.67502e-05
-1.16311e-06
2.33033e-05
-7.50684e-07
2.01933e-05
-3.95382e-07
1.70933e-05
-1.35646e-07
1.30584e-05
1.73966e-05
8.8722e-08
2.49389e-07
1.93541e-05
3.63593e-07
2.15355e-05
4.24323e-07
2.39577e-05
4.03165e-07
2.665e-05
3.30524e-07
2.96463e-05
1.93002e-07
3.29778e-05
-9.18921e-09
3.66786e-05
-2.78872e-07
4.07981e-05
-6.19306e-07
4.53836e-05
-1.03224e-06
5.0496e-05
-1.51571e-06
5.62037e-05
-2.06301e-06
6.25938e-05
-2.65883e-06
6.97713e-05
-3.27839e-06
7.66349e-05
-3.88416e-06
7.6978e-05
-4.44403e-06
7.74327e-05
-4.9234e-06
7.80096e-05
-5.28768e-06
7.87048e-05
-5.50662e-06
7.95193e-05
-5.55588e-06
8.04383e-05
-5.42102e-06
8.58782e-05
-5.05299e-06
7.57822e-05
-4.61231e-06
6.68797e-05
-4.12702e-06
5.90125e-05
-3.61994e-06
5.20181e-05
-3.11083e-06
4.58391e-05
-2.61588e-06
4.03649e-05
-2.14702e-06
3.54738e-05
-1.71126e-06
3.10603e-05
-1.62193e-06
2.7209e-05
-1.16122e-06
2.37139e-05
-7.47323e-07
2.05452e-05
-3.96853e-07
1.73545e-05
-1.40446e-07
1.31988e-05
1.73978e-05
2.48252e-07
2.78117e-05
8.70546e-08
3.62768e-07
1.93549e-05
4.24975e-07
2.15349e-05
4.06032e-07
2.39549e-05
3.35768e-07
2.66448e-05
2.01784e-07
2.96375e-05
3.69881e-09
3.29649e-05
-2.6161e-07
3.66613e-05
-5.98073e-07
4.07769e-05
-1.00869e-06
4.536e-05
-1.49357e-06
5.04738e-05
-2.04923e-06
5.61899e-05
-2.66511e-06
6.26e-05
-3.32289e-06
6.98158e-05
-3.99129e-06
7.67421e-05
-4.62586e-06
7.71598e-05
-5.19327e-06
7.77026e-05
-5.65633e-06
7.83782e-05
-5.98102e-06
7.91792e-05
-6.1386e-06
8.0102e-05
-6.10992e-06
8.11272e-05
-5.88528e-06
8.67105e-05
-5.41894e-06
7.65888e-05
-4.88971e-06
6.76424e-05
-4.32805e-06
5.97206e-05
-3.75862e-06
5.26659e-05
-3.2018e-06
4.64251e-05
-2.67203e-06
4.08899e-05
-2.1785e-06
3.5941e-05
-2.13518e-06
3.15735e-05
-1.61757e-06
2.76653e-05
-1.14986e-06
2.41164e-05
-7.38223e-07
2.08866e-05
-3.94009e-07
1.76081e-05
-1.42429e-07
1.33412e-05
1.73984e-05
3.62105e-07
2.78153e-05
2.44588e-07
2.85516e-05
8.54386e-08
4.2568e-07
1.93542e-05
4.0885e-07
2.15321e-05
3.40889e-07
2.39498e-05
2.10374e-07
2.66362e-05
1.65003e-08
2.96247e-05
-2.44036e-07
3.29473e-05
-5.75604e-07
3.66389e-05
-9.8208e-07
4.07503e-05
-1.46514e-06
4.53316e-05
-2.02378e-06
5.04484e-05
-2.65124e-06
5.61761e-05
-3.33457e-06
6.26117e-05
-4.04965e-06
6.98741e-05
-4.7583e-06
7.68745e-05
-5.41116e-06
7.73777e-05
-5.97242e-06
7.80186e-05
-6.4046e-06
7.88018e-05
-6.67441e-06
7.9715e-05
-6.75778e-06
8.07499e-05
-6.64001e-06
8.18819e-05
-6.31828e-06
8.76098e-05
-5.75051e-06
7.74496e-05
-5.13287e-06
6.84472e-05
-4.49803e-06
6.046e-05
-3.87137e-06
5.33354e-05
-3.27174e-06
4.70248e-05
-2.71116e-06
4.14225e-05
-2.71706e-06
3.65229e-05
-2.12822e-06
3.20842e-05
-1.59908e-06
2.81146e-05
-1.1298e-06
2.4508e-05
-7.2335e-07
2.12159e-05
-3.87291e-07
1.78529e-05
-1.42025e-07
1.34833e-05
1.73977e-05
4.26396e-07
2.78189e-05
3.58582e-07
2.85552e-05
2.41019e-07
2.93116e-05
8.388e-08
4.11564e-07
1.93515e-05
3.45822e-07
2.15271e-05
2.18645e-07
2.39415e-05
2.89713e-08
2.66237e-05
-2.26607e-07
2.96073e-05
-5.52713e-07
3.29244e-05
-9.53826e-07
3.66106e-05
-1.43275e-06
4.07179e-05
-1.99037e-06
4.52982e-05
-2.62291e-06
5.04201e-05
-3.32178e-06
5.61633e-05
-4.06888e-06
6.26309e-05
-4.8338e-06
6.99496e-05
-5.57328e-06
7.70366e-05
-6.23102e-06
7.76363e-05
-6.77131e-06
7.83854e-05
-7.15647e-06
7.92838e-05
-7.35726e-06
8.03145e-05
-7.35358e-06
8.14634e-05
-7.13757e-06
8.27012e-05
-6.71365e-06
8.85729e-05
-6.04343e-06
7.83602e-05
-5.33987e-06
6.9289e-05
-4.63668e-06
6.12253e-05
-3.95789e-06
5.40216e-05
-3.3202e-06
4.76338e-05
-3.38081e-06
4.20863e-05
-2.70709e-06
3.71017e-05
-2.10234e-06
3.25874e-05
-1.56823e-06
2.8553e-05
-1.10181e-06
2.48865e-05
-7.03423e-07
2.15321e-05
-3.77277e-07
1.80882e-05
-1.39709e-07
1.3623e-05
1.73951e-05
4.14149e-07
2.78201e-05
4.25151e-07
2.85586e-05
3.55155e-07
2.9315e-05
2.37539e-07
3.00895e-05
8.2377e-08
3.50524e-07
1.93468e-05
2.26513e-07
2.15193e-05
4.09462e-08
2.39295e-05
-2.09645e-07
2.66067e-05
-5.29998e-07
2.95846e-05
-9.24968e-07
3.28956e-05
-1.39817e-06
3.6576e-05
-1.95187e-06
4.06794e-05
-2.58461e-06
4.52599e-05
-3.29128e-06
5.03896e-05
-4.05874e-06
5.61531e-05
-4.86323e-06
6.26604e-05
-5.66974e-06
7.00461e-05
-6.42757e-06
7.72332e-05
-7.0754e-06
7.79404e-05
-7.57797e-06
7.88069e-05
-7.90086e-06
7.98274e-05
-8.01814e-06
8.0979e-05
-7.91638e-06
8.22422e-05
-7.59512e-06
8.35827e-05
-7.06588e-06
8.95954e-05
-6.29475e-06
7.9315e-05
-5.50973e-06
7.01621e-05
-4.74345e-06
6.20109e-05
-4.01796e-06
5.47194e-05
-4.14059e-06
4.83936e-05
-3.36778e-06
4.2747e-05
-2.67305e-06
3.76725e-05
-2.06013e-06
3.30793e-05
-1.52665e-06
2.89778e-05
-1.06714e-06
2.52502e-05
-6.79358e-07
2.18341e-05
-3.64645e-07
1.83131e-05
-1.35937e-07
1.37589e-05
1.73907e-05
3.54961e-07
2.7817e-05
4.17209e-07
2.85599e-05
4.23883e-07
2.93184e-05
3.51777e-07
3.00929e-05
2.34123e-07
3.08894e-05
8.09275e-08
2.3393e-07
1.93394e-05
5.23167e-08
2.15079e-05
-1.9337e-07
2.39132e-05
-5.0788e-07
2.65846e-05
-8.96277e-07
2.95559e-05
-1.36271e-06
3.28601e-05
-1.91049e-06
3.65346e-05
-2.53986e-06
4.06346e-05
-3.24845e-06
4.52171e-05
-4.02718e-06
5.0358e-05
-4.85783e-06
5.61477e-05
-5.71258e-06
6.27032e-05
-6.54929e-06
7.01678e-05
-7.31144e-06
7.74692e-05
-7.93229e-06
7.82947e-05
-8.381e-06
7.9287e-05
-8.62563e-06
8.04349e-05
-8.64653e-06
8.17092e-05
-8.43768e-06
8.30848e-05
-8.00604e-06
8.45228e-05
-7.37091e-06
9.06715e-05
-6.50272e-06
8.0308e-05
-5.64157e-06
7.10602e-05
-4.81824e-06
6.28112e-05
-5.01241e-06
5.55912e-05
-4.12494e-06
4.91507e-05
-3.32495e-06
4.33989e-05
-2.61836e-06
3.82307e-05
-2.00403e-06
3.35567e-05
-1.47627e-06
2.9387e-05
-1.02717e-06
2.5598e-05
-6.52139e-07
2.21216e-05
-3.50073e-07
1.85273e-05
-1.31106e-07
1.389e-05
1.73838e-05
2.40874e-07
2.78093e-05
3.62682e-07
2.85567e-05
4.20432e-07
2.93197e-05
4.22619e-07
3.00962e-05
3.48497e-07
3.08928e-05
2.30783e-07
3.17094e-05
7.95201e-08
6.30168e-08
1.93287e-05
-1.77923e-07
2.14925e-05
-4.86645e-07
2.3892e-05
-8.68297e-07
2.65566e-05
-1.32736e-06
2.95205e-05
-1.86785e-06
3.28175e-05
-2.49133e-06
3.64861e-05
-3.19752e-06
4.05837e-05
-3.98054e-06
4.51705e-05
-4.82679e-06
5.0327e-05
-5.71454e-06
5.61497e-05
-6.60928e-06
6.27632e-05
-7.46318e-06
7.03196e-05
-8.21304e-06
7.77499e-05
-8.79019e-06
7.87039e-05
-9.16775e-06
7.98291e-05
-9.3195e-06
8.11079e-05
-9.23299e-06
8.25045e-05
-8.9098e-06
8.39885e-05
-8.36523e-06
8.55172e-05
-7.62613e-06
9.1795e-05
-6.66601e-06
8.13325e-05
-5.73523e-06
7.19772e-05
-6.01432e-06
6.38131e-05
-4.99521e-06
5.64614e-05
-4.07293e-06
4.98987e-05
-3.25655e-06
4.40371e-05
-2.54627e-06
3.87729e-05
-1.93668e-06
3.40171e-05
-1.41908e-06
2.97789e-05
-9.83327e-07
2.59292e-05
-6.227e-07
2.23943e-05
-3.34167e-07
1.87303e-05
-1.25542e-07
1.40156e-05
1.73738e-05
7.30161e-08
2.77946e-05
2.55568e-07
2.85486e-05
3.70741e-07
2.93163e-05
4.23846e-07
3.00975e-05
4.21341e-07
3.0896e-05
3.45303e-07
3.17127e-05
2.27523e-07
3.25534e-05
7.81697e-08
-1.63393e-07
1.93142e-05
-4.66483e-07
2.14723e-05
-8.41402e-07
2.38651e-05
-1.29282e-06
2.65221e-05
-1.8252e-06
2.94779e-05
-2.44107e-06
3.27672e-05
-3.14172e-06
3.64303e-05
-3.92384e-06
4.0527e-05
-4.7775e-06
4.51212e-05
-5.68613e-06
5.02985e-05
-6.62182e-06
5.61622e-05
-7.54463e-06
6.28447e-05
-8.39992e-06
7.05064e-05
-9.12099e-06
7.80807e-05
-9.63608e-06
7.91723e-05
-9.92626e-06
8.04359e-05
-9.9721e-06
8.1847e-05
-9.76877e-06
8.33635e-05
-9.32665e-06
8.495e-05
-8.66934e-06
8.65604e-05
-7.82959e-06
9.29585e-05
-6.78422e-06
8.23814e-05
-7.16515e-06
7.3128e-05
-5.99739e-06
6.48152e-05
-4.934e-06
5.73225e-05
-3.98969e-06
5.06319e-05
-3.16674e-06
4.46575e-05
-2.46019e-06
3.92964e-05
-1.86074e-06
3.44588e-05
-1.357e-06
3.01526e-05
-9.36865e-07
2.62433e-05
-5.91873e-07
2.2652e-05
-3.17452e-07
1.89222e-05
-1.19508e-07
1.41351e-05
1.73602e-05
-1.49818e-07
2.77711e-05
9.65642e-08
2.85334e-05
2.70718e-07
2.93079e-05
3.79068e-07
3.0094e-05
4.27331e-07
3.08973e-05
4.20058e-07
3.17158e-05
3.4218e-07
3.25566e-05
2.24299e-07
3.34193e-05
7.68552e-08
-4.47508e-07
1.92952e-05
-8.15838e-07
2.14467e-05
-1.25955e-06
2.38318e-05
-1.78341e-06
2.64803e-05
-2.39056e-06
2.94274e-05
-3.08353e-06
3.2709e-05
-3.86093e-06
3.63674e-05
-4.71584e-06
4.04653e-05
-5.63587e-06
4.50709e-05
-6.59875e-06
5.02755e-05
-7.57154e-06
5.61891e-05
-8.5076e-06
6.29523e-05
-9.3484e-06
7.07338e-05
-1.00221e-05
7.84668e-05
-1.04575e-05
7.97036e-05
-1.06454e-05
8.11092e-05
-1.05737e-05
8.26519e-05
-1.02468e-05
8.42836e-05
-9.68397e-06
8.59646e-05
-8.91574e-06
8.76465e-05
-7.98059e-06
9.41549e-05
-8.48597e-06
8.37023e-05
-7.15156e-06
7.42822e-05
-5.92747e-06
6.58087e-05
-4.83491e-06
5.81677e-05
-3.88032e-06
5.13454e-05
-3.05976e-06
4.52571e-05
-2.36345e-06
3.97991e-05
-1.7787e-06
3.48805e-05
-1.29174e-06
3.05074e-05
-8.88907e-07
2.65404e-05
-5.60388e-07
2.28949e-05
-3.00332e-07
1.9103e-05
-1.13219e-07
1.42483e-05
1.73425e-05
-4.29772e-07
2.77364e-05
-1.15182e-07
2.85093e-05
1.20734e-07
2.92923e-05
2.86351e-07
3.00853e-05
3.87775e-07
3.08937e-05
4.30913e-07
3.17171e-05
4.18761e-07
3.25597e-05
3.39083e-07
3.34225e-05
2.2114e-07
3.43053e-05
7.55729e-08
-7.91757e-07
1.92711e-05
-1.22789e-06
2.14151e-05
-1.74308e-06
2.37915e-05
-2.34092e-06
2.64307e-05
-3.02478e-06
2.93686e-05
-3.79478e-06
3.26429e-05
-4.64636e-06
3.62979e-05
-5.57053e-06
4.04e-05
-6.54974e-06
4.50219e-05
-7.5571e-06
5.0261e-05
-8.55324e-06
5.62348e-05
-9.4875e-06
6.30914e-05
-1.02956e-05
7.10073e-05
-1.09038e-05
7.8913e-05
-1.12428e-05
8.03009e-05
-1.13145e-05
8.185e-05
-1.11162e-05
8.35214e-05
-1.06618e-05
8.52614e-05
-9.97837e-06
8.70272e-05
-9.10321e-06
8.87691e-05
-9.99952e-06
9.56685e-05
-8.48102e-06
8.50317e-05
-7.07445e-06
7.54292e-05
-5.81181e-06
6.67856e-05
-4.70406e-06
5.89915e-05
-3.75001e-06
5.20357e-05
-2.9397e-06
4.58334e-05
-2.25916e-06
4.02796e-05
-1.69273e-06
3.52815e-05
-1.22476e-06
3.08433e-05
-8.40437e-07
2.68204e-05
-5.28777e-07
2.31233e-05
-2.83162e-07
1.9273e-05
-1.06843e-07
1.43551e-05
1.73199e-05
-7.69231e-07
2.76883e-05
-3.81622e-07
2.84738e-05
-7.97211e-08
2.92675e-05
1.455e-07
3.00693e-05
3.02367e-07
3.08847e-05
3.96731e-07
3.17134e-05
4.34554e-07
3.25609e-05
4.17529e-07
3.34255e-05
3.36053e-07
3.43084e-05
2.18019e-07
3.52192e-05
7.43272e-08
-1.19803e-06
1.92413e-05
-1.70462e-06
2.13766e-05
-2.2929e-06
2.37435e-05
-2.96682e-06
2.63727e-05
-3.72762e-06
2.93015e-05
-4.57257e-06
3.25691e-05
-5.49543e-06
3.62228e-05
-6.48254e-06
4.03328e-05
-7.51216e-06
4.4977e-05
-8.55133e-06
5.02591e-05
-9.55673e-06
5.6304e-05
-1.04715e-05
6.32674e-05
-1.12286e-05
7.13321e-05
-1.17536e-05
7.94239e-05
-1.19804e-05
8.09668e-05
-1.19246e-05
8.26583e-05
-1.15936e-05
8.44531e-05
-1.10096e-05
8.62927e-05
-1.0208e-05
8.8132e-05
-1.14278e-05
9.01974e-05
-1.00124e-05
9.71998e-05
-8.40051e-06
8.63578e-05
-6.94242e-06
7.65598e-05
-5.65773e-06
6.77393e-05
-4.54774e-06
5.97892e-05
-3.6037e-06
5.26997e-05
-2.81037e-06
4.63846e-05
-2.15004e-06
4.07369e-05
-1.60472e-06
3.56614e-05
-1.15737e-06
3.11602e-05
-7.9215e-07
2.70838e-05
-4.97531e-07
2.33377e-05
-2.66215e-07
1.94324e-05
-1.00496e-07
1.44556e-05
1.7292e-05
-1.17007e-06
2.76238e-05
-7.0478e-07
2.84246e-05
-3.32403e-07
2.92313e-05
-4.34701e-08
3.00439e-05
1.70831e-07
3.08683e-05
3.1875e-07
3.17042e-05
4.05942e-07
3.25572e-05
4.38231e-07
3.34268e-05
4.16243e-07
3.43114e-05
3.33023e-07
3.52223e-05
2.14921e-07
3.61552e-05
7.31045e-08
-1.6683e-06
1.92049e-05
-2.24702e-06
2.13307e-05
-2.91058e-06
2.36873e-05
-3.66106e-06
2.63061e-05
-4.49711e-06
2.9226e-05
-5.41468e-06
3.24883e-05
-6.40329e-06
3.61436e-05
-7.4455e-06
4.02661e-05
-8.51391e-06
4.49395e-05
-9.57181e-06
5.02742e-05
-1.05696e-05
5.64021e-05
-1.14471e-05
6.34858e-05
-1.21351e-05
7.17136e-05
-1.25597e-05
8.00031e-05
-1.26604e-05
8.17026e-05
-1.24686e-05
8.35333e-05
-1.20005e-05
8.5444e-05
-1.12877e-05
8.73724e-05
-1.28427e-05
8.95469e-05
-1.14664e-05
9.16514e-05
-9.93523e-06
9.87345e-05
-8.25419e-06
8.76696e-05
-6.76412e-06
7.76662e-05
-5.47274e-06
6.86643e-05
-4.37191e-06
6.05574e-05
-3.44603e-06
5.33353e-05
-2.67508e-06
4.69096e-05
-2.03843e-06
4.11706e-05
-1.51631e-06
3.60204e-05
-1.09046e-06
3.14585e-05
-7.44706e-07
2.7331e-05
-4.67022e-07
2.35385e-05
-2.49673e-07
1.95815e-05
-9.42743e-08
1.45499e-05
1.72579e-05
-1.63425e-06
2.754e-05
-1.08628e-06
2.83587e-05
-6.38922e-07
2.9181e-05
-2.8208e-07
3.00069e-05
-6.45099e-09
3.08425e-05
1.9666e-07
3.16876e-05
3.35429e-07
3.25478e-05
4.15323e-07
3.34231e-05
4.41888e-07
3.43127e-05
4.14949e-07
3.52254e-05
3.30007e-07
3.61583e-05
2.11846e-07
3.65892e-05
7.19203e-08
-2.20362e-06
1.91615e-05
-2.85673e-06
2.12769e-05
-3.59626e-06
2.36225e-05
-4.42195e-06
2.6231e-05
-5.33142e-06
2.91427e-05
-6.31674e-06
3.24018e-05
-7.36409e-06
3.60622e-05
-8.45077e-06
4.0203e-05
-9.54591e-06
4.49136e-05
-1.06066e-05
5.03112e-05
-1.15794e-05
5.65345e-05
-1.24015e-05
6.37522e-05
-1.30025e-05
7.21565e-05
-1.33112e-05
8.06539e-05
-1.32749e-05
8.2509e-05
-1.29403e-05
8.44731e-05
-1.23337e-05
8.649e-05
-1.42363e-05
8.8766e-05
-1.2917e-05
9.09976e-05
-1.14012e-05
9.31174e-05
-9.7792e-06
0.00010026
-8.05195e-06
8.89574e-05
-6.54844e-06
7.87419e-05
-5.26402e-06
6.95564e-05
-4.18216e-06
6.12936e-05
-3.28098e-06
5.39412e-05
-2.53669e-06
4.74079e-05
-1.92636e-06
4.15807e-05
-1.42863e-06
3.63585e-05
-1.02488e-06
3.17387e-05
-6.98584e-07
2.75625e-05
-4.37477e-07
2.37263e-05
-2.33687e-07
1.9721e-05
-8.82487e-08
1.46382e-05
1.72172e-05
-2.16287e-06
2.74336e-05
-1.52783e-06
2.82734e-05
-1.00096e-06
2.91139e-05
-5.71813e-07
2.99556e-05
-2.30803e-07
3.08048e-05
3.12269e-08
3.16613e-05
2.22912e-07
3.2531e-05
3.52313e-07
3.34136e-05
4.2483e-07
3.43092e-05
4.45461e-07
3.52267e-05
4.13618e-07
3.61613e-05
3.26963e-07
3.65922e-05
2.08817e-07
3.55531e-05
7.08104e-08
-2.80569e-06
1.91105e-05
-3.53405e-06
2.12147e-05
-4.3485e-06
2.3549e-05
-5.24796e-06
2.61475e-05
-6.22656e-06
2.90526e-05
-7.2734e-06
3.23111e-05
-8.36977e-06
3.59812e-05
-9.48985e-06
4.01469e-05
-1.05967e-05
4.49038e-05
-1.16436e-05
5.03754e-05
-1.25738e-05
5.67068e-05
-1.33222e-05
6.40719e-05
-1.38196e-05
7.26649e-05
-1.39994e-05
8.13784e-05
-1.38169e-05
8.33856e-05
-1.33356e-05
8.5475e-05
-1.55989e-05
8.78526e-05
-1.43582e-05
9.02071e-05
-1.28742e-05
9.24706e-05
-1.12444e-05
9.45826e-05
-9.55562e-06
0.000101763
-7.80415e-06
9.02131e-05
-6.30375e-06
7.97816e-05
-5.03824e-06
7.04125e-05
-3.98329e-06
6.19959e-05
-3.11206e-06
5.45166e-05
-2.39773e-06
4.78792e-05
-1.81524e-06
4.19673e-05
-1.34277e-06
3.66764e-05
-9.61241e-07
3.20014e-05
-6.54076e-07
2.77791e-05
-4.09095e-07
2.39017e-05
-2.18371e-07
1.98511e-05
-8.24676e-08
1.47206e-05
1.71692e-05
-2.7577e-06
2.73016e-05
-2.03088e-06
2.81653e-05
-1.41968e-06
2.90268e-05
-9.13933e-07
2.98873e-05
-5.03488e-07
3.07527e-05
-1.78662e-07
3.1623e-05
6.94859e-08
3.25043e-05
2.49551e-07
3.33965e-05
3.6944e-07
3.42995e-05
4.34454e-07
3.52233e-05
4.48897e-07
3.61627e-05
4.12234e-07
3.65952e-05
3.2397e-07
3.5556e-05
2.05962e-07
3.4545e-05
6.9764e-08
-3.47495e-06
1.90514e-05
-4.27775e-06
2.11439e-05
-5.16602e-06
2.34671e-05
-6.1355e-06
2.60565e-05
-7.17766e-06
2.89568e-05
-8.27714e-06
3.22184e-05
-9.41241e-06
3.59037e-05
-1.05519e-05
4.01021e-05