/*--------------------------------*- C++ -*----------------------------------*\
  =========                 |
  \\      /  F ield         | OpenFOAM: The Open Source CFD Toolbox
   \\    /   O peration     | Website:  https://openfoam.org
    \\  /    A nd           | Version:  8
     \\/     M anipulation  |
\*---------------------------------------------------------------------------*/
FoamFile
{
    version     2.0;
    format      ascii;
    class       surfaceScalarField;
    location    "0.49";
    object      phi;
}
// * * * * * * * * * * * * * * * * * * * * * * * * * * * * * * * * * * * * * //

dimensions      [0 3 -1 0 0 0 0];

internalField   nonuniform List<scalar> 
31053
(
6.28487e-07
1.27515e-05
8.5111e-07
1.51574e-05
3.78826e-07
1.23727e-05
9.34579e-07
1.75565e-05
5.93957e-07
1.49422e-05
2.7313e-07
1.20996e-05
9.59075e-07
2.02155e-05
7.14825e-07
1.74357e-05
4.7237e-07
1.4743e-05
2.21138e-07
1.18784e-05
9.50982e-07
2.32481e-05
7.77258e-07
2.01531e-05
6.02381e-07
1.73057e-05
4.0729e-07
1.45569e-05
1.78583e-07
1.16998e-05
9.21938e-07
2.6689e-05
8.05529e-07
2.32198e-05
6.82552e-07
2.00729e-05
5.41585e-07
1.71714e-05
3.46589e-07
1.43888e-05
1.44723e-07
1.15551e-05
8.77325e-07
3.06646e-05
8.11906e-07
2.66827e-05
7.304e-07
2.3172e-05
6.30468e-07
1.9984e-05
4.77257e-07
1.70407e-05
2.93467e-07
1.42401e-05
1.18078e-07
1.1437e-05
8.198e-07
3.51975e-05
8.03418e-07
3.06731e-05
7.5703e-07
2.6656e-05
6.87573e-07
2.31149e-05
5.67886e-07
1.98934e-05
4.15886e-07
1.69183e-05
2.47483e-07
1.41107e-05
9.59499e-08
1.13411e-05
7.5276e-07
4.0387e-05
7.84741e-07
3.52162e-05
7.69115e-07
3.0661e-05
7.23169e-07
2.66204e-05
6.27634e-07
2.30551e-05
5.03867e-07
1.98054e-05
3.58867e-07
1.68069e-05
2.06132e-07
1.40005e-05
7.65386e-08
1.12645e-05
6.7867e-07
4.63541e-05
7.57434e-07
4.04143e-05
7.70904e-07
3.52144e-05
7.43456e-07
3.06407e-05
6.65689e-07
2.65824e-05
5.62375e-07
2.29966e-05
4.40985e-07
1.97233e-05
3.04327e-07
1.67087e-05
1.67703e-07
1.39094e-05
5.86815e-08
1.12059e-05
5.99139e-07
5.32195e-05
7.23219e-07
4.63883e-05
7.63012e-07
4.04222e-05
7.51472e-07
3.52064e-05
6.88194e-07
3.06182e-05
5.99205e-07
2.65456e-05
4.95258e-07
2.29423e-05
3.77867e-07
1.96498e-05
2.5099e-07
1.66254e-05
1.30947e-07
1.38371e-05
4.16694e-08
1.11642e-05
5.16553e-07
6.10626e-05
6.84394e-07
5.32584e-05
7.45721e-07
4.64056e-05
7.50252e-07
4.04235e-05
6.98747e-07
3.51958e-05
6.20371e-07
3.05971e-05
5.27926e-07
2.65129e-05
4.25283e-07
2.28949e-05
3.13506e-07
1.95872e-05
1.97893e-07
1.65585e-05
9.50538e-08
1.37837e-05
2.50023e-08
1.11392e-05
4.3401e-07
7.00645e-05
6.42547e-07
6.11044e-05
7.20393e-07
5.32837e-05
7.41283e-07
4.64146e-05
6.99933e-07
4.04223e-05
6.29608e-07
3.51866e-05
5.44627e-07
3.05804e-05
4.51161e-07
2.6487e-05
3.5155e-07
2.28569e-05
2.47136e-07
1.9538e-05
1.44427e-07
1.65091e-05
5.93459e-08
1.37494e-05
8.45922e-09
1.11307e-05
3.55977e-07
8.041e-05
5.98622e-07
7.01085e-05
6.88611e-07
6.11362e-05
7.24742e-07
5.33002e-05
6.93332e-07
4.64212e-05
6.29226e-07
4.04227e-05
5.49022e-07
3.51822e-05
4.60566e-07
3.0571e-05
3.6809e-07
2.64705e-05
2.73387e-07
2.28306e-05
1.78307e-07
1.95041e-05
9.0004e-08
1.64784e-05
2.34623e-08
1.37344e-05
-8.09125e-09
1.11388e-05
2.98491e-07
7.62475e-05
5.52318e-07
8.04563e-05
6.52124e-07
7.0145e-05
7.00957e-07
6.116e-05
6.79583e-07
5.3314e-05
6.20582e-07
4.64298e-05
5.43304e-07
4.04284e-05
4.56996e-07
3.51858e-05
3.67491e-07
3.05716e-05
2.78086e-07
2.64658e-05
1.90382e-07
2.28186e-05
1.06556e-07
1.94876e-05
3.436e-08
1.64675e-05
-1.27674e-08
1.3739e-05
-2.48087e-08
1.11636e-05
2.53668e-07
7.62348e-05
5.10407e-07
7.62894e-05
6.12637e-07
8.04958e-05
6.70671e-07
7.01752e-05
6.59e-07
6.11806e-05
6.04393e-07
5.33302e-05
5.28729e-07
4.64444e-05
4.42541e-07
4.04428e-05
3.52982e-07
3.52003e-05
2.64805e-07
3.05848e-05
1.8072e-07
2.64754e-05
1.02124e-07
2.2823e-05
3.17861e-08
1.94901e-05
-2.26277e-08
1.64774e-05
-4.94874e-08
1.37637e-05
-4.17378e-08
1.12054e-05
2.18402e-07
7.62253e-05
4.71549e-07
7.62737e-05
5.78134e-07
7.63239e-05
6.3521e-07
8.05313e-05
6.31954e-07
7.02023e-05
5.81129e-07
6.12038e-05
5.05998e-07
5.33529e-05
4.18346e-07
4.64686e-05
3.26494e-07
4.04693e-05
2.36423e-07
3.52287e-05
1.52052e-07
3.06135e-05
7.56306e-08
2.65019e-05
8.65059e-09
2.28461e-05
-4.5934e-08
1.95134e-05
-8.09036e-08
1.65088e-05
-8.66198e-08
1.38086e-05
-5.87591e-08
1.12641e-05
1.90449e-07
7.622e-05
4.36373e-07
7.62604e-05
5.46745e-07
7.63051e-05
6.03255e-07
7.63559e-05
5.9927e-07
8.0564e-05
5.51286e-07
7.02321e-05
4.75579e-07
6.12343e-05
3.85033e-07
5.33862e-05
2.89036e-07
4.6506e-05
1.94648e-07
4.05111e-05
1.06834e-07
3.52739e-05
2.89206e-08
3.06602e-05
-3.70668e-08
2.65476e-05
-8.97741e-08
2.289e-05
-1.26331e-07
1.95589e-05
-1.40196e-07
1.65624e-05
-1.23937e-07
1.38738e-05
-7.56741e-08
1.13398e-05
1.68164e-07
7.62123e-05
4.04979e-07
7.62513e-05
5.18537e-07
7.62886e-05
5.73869e-07
7.63345e-05
5.6881e-07
7.63863e-05
5.15741e-07
8.05995e-05
4.37993e-07
7.02697e-05
3.43057e-07
6.12762e-05
2.41115e-07
5.34341e-05
1.40298e-07
4.65604e-05
4.64782e-08
4.05714e-05
-3.60584e-08
3.53389e-05
-1.04412e-07
3.07276e-05
-1.56958e-07
2.66148e-05
-1.92675e-07
2.29563e-05
-2.08846e-07
1.96275e-05
-2.00027e-07
1.66385e-05
-1.61071e-07
1.39592e-05
-9.23156e-08
1.14321e-05
1.50315e-07
7.62078e-05
3.77246e-07
7.624e-05
4.934e-07
7.62765e-05
5.47596e-07
7.63149e-05
5.40176e-07
7.63631e-05
4.82879e-07
7.64192e-05
3.94211e-07
8.06433e-05
2.92987e-07
7.03198e-05
1.83149e-07
6.13342e-05
7.37262e-08
5.35007e-05
-2.84467e-08
4.66353e-05
-1.18253e-07
4.06536e-05
-1.92012e-07
3.54265e-05
-2.4738e-07
3.0818e-05
-2.83338e-07
2.67055e-05
-2.99178e-07
2.30466e-05
-2.92646e-07
1.97201e-05
-2.59767e-07
1.67372e-05
-1.97581e-07
1.40644e-05
-1.08382e-07
1.15405e-05
1.35979e-07
7.62043e-05
3.52956e-07
7.62321e-05
4.71174e-07
7.62622e-05
5.24676e-07
7.62994e-05
5.14161e-07
7.63409e-05
4.52268e-07
7.63937e-05
3.54325e-07
7.64591e-05
2.35936e-07
8.07003e-05
1.15777e-07
7.03872e-05
-4.71297e-09
6.14126e-05
-1.17791e-07
5.359e-05
-2.174e-07
4.67345e-05
-2.99237e-07
4.07609e-05
-3.60277e-07
3.55394e-05
-3.99041e-07
3.09337e-05
-4.15031e-07
2.68213e-05
-4.08056e-07
2.3162e-05
-3.7674e-07
1.98371e-05
-3.18639e-07
1.68582e-05
-2.32907e-07
1.4189e-05
-1.23652e-07
1.16642e-05
1.25353e-07
6.95926e-05
3.31859e-07
7.62254e-05
4.517e-07
7.62516e-05
5.05151e-07
7.62818e-05
4.91209e-07
7.63224e-05
4.24872e-07
7.63683e-05
3.17558e-07
7.64305e-05
1.84615e-07
7.65104e-05
4.03111e-08
8.07758e-05
-9.43719e-08
7.04768e-05
-2.21301e-07
6.15162e-05
-3.33598e-07
5.37062e-05
-4.26184e-07
4.68614e-05
-4.9551e-07
4.08961e-05
-5.39675e-07
3.568e-05
-5.5791e-07
3.10766e-05
-5.50407e-07
2.69637e-05
-5.17904e-07
2.33032e-05
-4.59931e-07
1.99784e-05
-3.75741e-07
1.70011e-05
-2.66487e-07
1.43318e-05
-1.37725e-07
1.18019e-05
1.17433e-07
6.25519e-05
3.15231e-07
6.96093e-05
4.34814e-07
7.62423e-05
4.88964e-07
7.62678e-05
4.71551e-07
7.63014e-05
4.01345e-07
7.63459e-05
2.85006e-07
7.64009e-05
1.37655e-07
7.64774e-05
-2.69628e-08
7.65777e-05
-1.93667e-07
8.08751e-05
-3.38264e-07
7.05938e-05
-4.66723e-07
6.16493e-05
-5.73255e-07
5.38533e-05
-6.53614e-07
4.70195e-05
-7.05664e-07
4.10621e-05
-7.28399e-07
3.58505e-05
-7.2194e-07
3.12481e-05
-6.8762e-07
2.71334e-05
-6.27031e-07
2.34703e-05
-5.4088e-07
2.01435e-05
-4.30114e-07
1.71647e-05
-2.97448e-07
1.44915e-05
-1.49962e-07
1.19518e-05
1.11408e-07
5.6224e-05
3.02292e-07
6.25649e-05
4.21455e-07
6.96226e-05
4.76026e-07
7.62553e-05
4.55338e-07
7.6284e-05
3.82127e-07
7.63206e-05
2.57429e-07
7.63735e-05
9.6309e-08
7.64422e-05
-8.82276e-08
7.65387e-05
-2.81597e-07
7.66656e-05
-4.66854e-07
8.10037e-05
-6.16063e-07
7.07431e-05
-7.40504e-07
6.18165e-05
-8.35357e-07
5.40351e-05
-8.98042e-07
4.72119e-05
-9.27537e-07
4.12612e-05
-9.23947e-07
3.60525e-05
-8.88814e-07
3.14493e-05
-8.24456e-07
2.73308e-05
-7.33609e-07
2.3663e-05
-6.18164e-07
2.03316e-05
-4.80406e-07
1.73476e-05
-3.24959e-07
1.46665e-05
-1.58233e-07
1.21101e-05
1.06748e-07
5.05367e-05
2.92158e-07
5.62342e-05
4.11068e-07
6.25752e-05
4.66879e-07
6.96318e-05
4.42692e-07
7.62679e-05
3.67439e-07
7.62987e-05
2.35334e-07
7.63427e-05
6.15074e-08
7.64083e-05
-1.42037e-07
7.6496e-05
-3.61445e-07
7.66185e-05
-5.80328e-07
7.67791e-05
-7.79505e-07
8.11671e-05
-9.27241e-07
7.09299e-05
-1.04102e-06
6.20222e-05
-1.11801e-06
5.4255e-05
-1.15692e-06
4.74413e-05
-1.15813e-06
4.14954e-05
-1.12351e-06
3.62872e-05
-1.05578e-06
3.16806e-05
-9.58567e-07
2.75558e-05
-8.35671e-07
2.38805e-05
-6.89957e-07
2.05411e-05
-5.2556e-07
1.75482e-05
-3.44642e-07
1.48529e-05
-1.26351e-07
1.22364e-05
1.0309e-07
4.54237e-05
2.84167e-07
5.05447e-05
4.03011e-07
5.62422e-05
4.60612e-07
6.25815e-05
4.34367e-07
6.96401e-05
3.57295e-07
7.6278e-05
2.19033e-07
7.6315e-05
3.39116e-08
7.63703e-05
-1.87276e-07
7.64535e-05
-4.31558e-07
7.65662e-05
-6.83281e-07
7.67215e-05
-9.23466e-07
7.6923e-05
-1.13108e-06
8.1371e-05
-1.26998e-06
7.11588e-05
-1.36614e-06
6.22703e-05
-1.41825e-06
5.45164e-05
-1.42674e-06
4.77099e-05
-1.39414e-06
4.1766e-05
-1.32378e-06
3.65552e-05
-1.21993e-06
3.1942e-05
-1.08738e-06
2.78075e-05
-9.30908e-07
2.41215e-05
-7.54636e-07
2.07702e-05
-5.59708e-07
1.77633e-05
-3.40928e-07
1.50675e-05
-7.59853e-08
1.23124e-05
1.00184e-07
4.08289e-05
2.77822e-07
4.543e-05
3.96772e-07
5.05509e-05
4.56372e-07
5.62465e-05
4.29571e-07
6.25863e-05
3.51908e-07
6.96455e-05
2.08716e-07
7.62884e-05
1.39753e-08
7.63349e-05
-2.23098e-07
7.64062e-05
-4.90595e-07
7.65125e-05
-7.73791e-07
7.66567e-05
-1.05412e-06
7.68521e-05
-1.31053e-06
7.71025e-05
-1.51959e-06
8.16206e-05
-1.64192e-06
7.14346e-05
-1.71248e-06
6.25645e-05
-1.73206e-06
5.48217e-05
-1.70365e-06
4.80194e-05
-1.63162e-06
4.20739e-05
-1.52119e-06
3.68564e-05
-1.37802e-06
3.22326e-05
-1.20807e-06
2.80847e-05
-1.01703e-06
2.43839e-05
-8.06501e-07
2.1017e-05
-5.76137e-07
1.79985e-05
-3.16708e-07
1.53082e-05
-5.39029e-08
1.23663e-05
9.78484e-08
3.66983e-05
2.72751e-07
4.0834e-05
3.91935e-07
4.54348e-05
4.53568e-07
5.05537e-05
4.2746e-07
5.62486e-05
3.5019e-07
6.2588e-05
2.04619e-07
6.96496e-05
1.99985e-09
7.63003e-05
-2.48883e-07
7.63607e-05
-5.37498e-07
7.64531e-05
-8.50254e-07
7.6589e-05
-1.16923e-06
7.67718e-05
-1.47358e-06
7.70152e-05
-1.73944e-06
7.73223e-05
-1.94251e-06
8.19212e-05
-2.03932e-06
7.17614e-05
-2.0755e-06
6.2908e-05
-2.05499e-06
5.5173e-05
-1.98298e-06
4.83708e-05
-1.8663e-06
4.2419e-05
-1.71182e-06
3.71902e-05
-1.52674e-06
3.25513e-05
-1.31776e-06
2.83854e-05
-1.08903e-06
2.46664e-05
-8.41313e-07
2.12822e-05
-5.79221e-07
1.8261e-05
-2.95292e-07
1.55496e-05
-5.19613e-08
1.24183e-05
9.59538e-08
3.29879e-05
2.6867e-07
3.67024e-05
3.88161e-07
4.08378e-05
4.51801e-07
4.54366e-05
4.27347e-07
5.05538e-05
3.51162e-07
5.62476e-05
2.0529e-07
6.25874e-05
-1.8223e-09
6.96534e-05
-2.64187e-07
7.63156e-05
-5.71465e-07
7.63947e-05
-9.11368e-07
7.65142e-05
-1.2669e-06
7.66867e-05
-1.61766e-06
7.69159e-05
-1.93957e-06
7.72153e-05
-2.20759e-06
7.75874e-05
-2.39582e-06
8.22777e-05
-2.45706e-06
7.2143e-05
-2.45006e-06
6.33031e-05
-2.38154e-06
5.55716e-05
-2.25975e-06
4.87642e-05
-2.09356e-06
4.28007e-05
-1.89187e-06
3.75554e-05
-1.66268e-06
3.28962e-05
-1.41205e-06
2.87084e-05
-1.14354e-06
2.49686e-05
-8.63968e-07
2.15669e-05
-5.77569e-07
1.85433e-05
-2.8699e-07
1.57846e-05
-5.88529e-08
1.24771e-05
9.44032e-08
2.96496e-05
2.65361e-07
3.29912e-05
3.85195e-07
3.67054e-05
4.50792e-07
4.08388e-05
4.28692e-07
4.54353e-05
3.54042e-07
5.05509e-05
2.09403e-07
5.62435e-05
6.121e-10
6.25849e-05
-2.68766e-07
6.9658e-05
-5.91917e-07
7.63361e-05
-9.56117e-07
7.64394e-05
-1.34553e-06
7.65928e-05
-1.7405e-06
7.68095e-05
-2.11702e-06
7.70933e-05
-2.44951e-06
7.74573e-05
-2.71081e-06
7.79024e-05
-2.87374e-06
8.26943e-05
-2.88929e-06
7.25822e-05
-2.82987e-06
6.37514e-05
-2.70603e-06
5.60179e-05
-2.5286e-06
4.91992e-05
-2.30908e-06
4.32179e-05
-2.05743e-06
3.79501e-05
-1.78182e-06
3.3266e-05
-1.48809e-06
2.9053e-05
-1.18451e-06
2.52892e-05
-8.80617e-07
2.187e-05
-5.79267e-07
1.88356e-05
-2.89257e-07
1.6015e-05
-7.04084e-08
1.25475e-05
9.31243e-08
2.66493e-05
2.62659e-07
2.96523e-05
3.82853e-07
3.29935e-05
4.50347e-07
3.67058e-05
4.31061e-07
4.08364e-05
3.58209e-07
4.54311e-05
2.15904e-07
5.05444e-05
7.52408e-09
5.62366e-05
-2.6515e-07
6.25813e-05
-5.98459e-07
6.96645e-05
-9.83744e-07
7.63637e-05
-1.40385e-06
7.64978e-05
-1.84016e-06
7.66925e-05
-2.2691e-06
7.69616e-05
-2.66485e-06
7.73086e-05
-2.99914e-06
7.77456e-05
-3.2428e-06
7.82715e-05
-3.36984e-06
8.31749e-05
-3.32899e-06
7.30814e-05
-3.20852e-06
6.42539e-05
-3.02234e-06
5.65116e-05
-2.78461e-06
4.96748e-05
-2.50842e-06
4.36689e-05
-2.20461e-06
3.83729e-05
-1.88161e-06
3.36595e-05
-1.54865e-06
2.94171e-05
-1.2174e-06
2.5626e-05
-8.96594e-07
2.21873e-05
-5.85385e-07
1.91317e-05
-2.96498e-07
1.62411e-05
-1.02529e-07
1.26501e-05
9.20613e-08
2.39551e-05
2.60437e-07
2.66515e-05
3.81e-07
2.96541e-05
4.5033e-07
3.29936e-05
4.34084e-07
3.67028e-05
3.63212e-07
4.08314e-05
2.23975e-07
4.5423e-05
1.75236e-08
5.05344e-05
-2.55641e-07
5.62271e-05
-5.94316e-07
6.25772e-05
-9.93569e-07
6.96743e-05
-1.44087e-06
7.64007e-05
-1.91506e-06
7.65727e-05
-2.3935e-06
7.68169e-05
-2.85049e-06
7.71472e-05
-3.25688e-06
7.75664e-05
-3.58181e-06
7.80846e-05
-3.79675e-06
7.86984e-05
-3.87639e-06
8.37223e-05
-3.76895e-06
7.36418e-05
-3.57898e-06
6.48105e-05
-3.32479e-06
5.70518e-05
-3.02274e-06
5.01891e-05
-2.68758e-06
4.41519e-05
-2.33096e-06
3.88223e-05
-1.96374e-06
3.40746e-05
-1.59827e-06
2.9798e-05
-1.24641e-06
2.59758e-05
-9.11952e-07
2.25139e-05
-5.92859e-07
1.94281e-05
-3.78305e-07
1.65169e-05
-1.1489e-07
1.2765e-05
9.11712e-08
2.15329e-05
2.58598e-07
2.39569e-05
3.79535e-07
2.6653e-05
4.5063e-07
2.96538e-05
4.37461e-07
3.29902e-05
3.6873e-07
3.66973e-05
2.32989e-07
4.08224e-05
2.95288e-08
4.5411e-05
-2.42069e-07
5.05209e-05
-5.82465e-07
5.62152e-05
-9.89646e-07
6.25732e-05
-1.45548e-06
6.96889e-05
-1.96396e-06
7.64496e-05
-2.48826e-06
7.66674e-05
-3.00361e-06
7.697e-05
-3.48039e-06
7.73707e-05
-3.8863e-06
7.78709e-05
-4.19047e-06
7.84783e-05
-4.3644e-06
7.91864e-05
-4.38532e-06
8.43387e-05
-4.20111e-06
7.42639e-05
-3.93475e-06
6.54205e-05
-3.60764e-06
5.76367e-05
-3.23866e-06
5.07402e-05
-2.84398e-06
4.46649e-05
-2.43715e-06
3.92957e-05
-2.03162e-06
3.4508e-05
-1.64022e-06
3.01918e-05
-1.27129e-06
2.63351e-05
-9.24433e-07
2.28454e-05
-7.42551e-07
1.97923e-05
-3.86351e-07
1.67884e-05
-1.26019e-07
1.2891e-05
9.04208e-08
1.93528e-05
2.57071e-07
2.15344e-05
3.78381e-07
2.39581e-05
4.51156e-07
2.66524e-05
4.40977e-07
2.96503e-05
3.74521e-07
3.29844e-05
2.42473e-07
3.66878e-05
4.27141e-08
4.08092e-05
-2.25853e-07
4.53948e-05
-5.65266e-07
5.05037e-05
-9.75753e-07
5.62013e-05
-1.45267e-06
6.25704e-05
-1.98509e-06
6.97101e-05
-2.55179e-06
7.65132e-05
-3.12183e-06
7.67856e-05
-3.66637e-06
7.7156e-05
-4.15207e-06
7.76365e-05
-4.54596e-06
7.82264e-05
-4.8164e-06
7.89303e-05
-4.9369e-06
7.9738e-05
-4.88747e-06
8.5025e-05
-4.61807e-06
7.49472e-05
-4.26926e-06
6.60821e-05
-3.86607e-06
5.82641e-05
-3.42946e-06
5.13256e-05
-2.97736e-06
4.52051e-05
-2.52543e-06
3.97895e-05
-2.08769e-06
3.49554e-05
-1.67437e-06
3.05949e-05
-1.28998e-06
2.67007e-05
-1.15439e-06
2.32573e-05
-7.44595e-07
2.01506e-05
-3.9168e-07
1.7054e-05
-1.34059e-07
1.3025e-05
1.73966e-05
8.97852e-08
2.558e-07
1.9354e-05
3.77474e-07
2.15353e-05
4.51829e-07
2.39574e-05
4.44483e-07
2.66489e-05
3.80394e-07
2.96444e-05
2.52087e-07
3.29748e-05
5.64617e-08
3.66741e-05
-2.08077e-07
4.07914e-05
-5.44563e-07
4.53741e-05
-9.54899e-07
5.04828e-05
-1.43716e-06
5.61858e-05
-1.9845e-06
6.25698e-05
-2.58147e-06
6.97397e-05
-3.20315e-06
7.65945e-05
-3.81193e-06
7.69312e-05
-4.37523e-06
7.73791e-05
-4.85839e-06
7.79489e-05
-5.22681e-06
7.86368e-05
-5.4502e-06
7.94436e-05
-5.50425e-06
8.03547e-05
-5.37452e-06
8.57815e-05
-5.01234e-06
7.56903e-05
-4.577e-06
6.6793e-05
-4.09657e-06
5.89312e-05
-3.59392e-06
5.19422e-05
-3.08882e-06
4.57685e-05
-2.5975e-06
4.02993e-05
-2.13192e-06
3.5413e-05
-1.69912e-06
3.1004e-05
-1.61017e-06
2.71564e-05
-1.15242e-06
2.36651e-05
-7.41189e-07
2.05001e-05
-3.93129e-07
1.73131e-05
-1.38842e-07
1.31639e-05
1.73977e-05
2.54734e-07
2.78117e-05
8.81178e-08
3.76763e-07
1.93547e-05
4.52583e-07
2.15346e-05
4.47881e-07
2.3954e-05
3.86208e-07
2.66431e-05
2.6159e-07
2.96349e-05
7.03205e-08
3.29609e-05
-1.89555e-07
3.66555e-05
-5.21765e-07
4.07686e-05
-9.29436e-07
4.53486e-05
-1.41272e-06
5.04584e-05
-1.96797e-06
5.61693e-05
-2.58447e-06
6.25729e-05
-3.24378e-06
6.97804e-05
-3.91454e-06
7.66971e-05
-4.55227e-06
7.71082e-05
-5.1232e-06
7.76439e-05
-5.59012e-06
7.83122e-05
-5.91901e-06
7.91056e-05
-6.0811e-06
8.00205e-05
-6.05727e-06
8.10375e-05
-5.83784e-06
8.6607e-05
-5.37746e-06
7.64908e-05
-4.85368e-06
6.75501e-05
-4.29699e-06
5.96343e-05
-3.73209e-06
5.25855e-05
-3.17938e-06
4.63504e-05
-2.65333e-06
4.08207e-05
-2.16316e-06
3.5877e-05
-2.11991e-06
3.15138e-05
-1.60568e-06
2.76097e-05
-1.141e-06
2.40649e-05
-7.32066e-07
2.0839e-05
-3.90274e-07
1.75645e-05
-1.40821e-07
1.33047e-05
1.73983e-05
3.76207e-07
2.78153e-05
2.51096e-07
2.85516e-05
8.65014e-08
4.53367e-07
1.93539e-05
4.51114e-07
2.15313e-05
3.91864e-07
2.39483e-05
2.70816e-07
2.66339e-05
8.39661e-08
2.96213e-05
-1.70884e-07
3.29423e-05
-4.97936e-07
3.66317e-05
-9.01173e-07
4.07404e-05
-1.3823e-06
4.53182e-05
-1.94015e-06
5.04305e-05
-2.56779e-06
5.61526e-05
-3.25213e-06
6.25812e-05
-3.96896e-06
6.98348e-05
-4.68012e-06
7.6825e-05
-5.33623e-06
7.73213e-05
-5.90107e-06
7.79549e-05
-6.33718e-06
7.87304e-05
-6.61123e-06
7.96357e-05
-6.69918e-06
8.06624e-05
-6.58633e-06
8.1786e-05
-6.26989e-06
8.74994e-05
-5.70819e-06
7.73453e-05
-5.09612e-06
6.83493e-05
-4.46638e-06
6.03686e-05
-3.84436e-06
5.32505e-05
-3.24894e-06
4.6946e-05
-2.69217e-06
4.13497e-05
-2.69779e-06
3.64549e-05
-2.11281e-06
3.20209e-05
-1.58712e-06
2.80558e-05
-1.12091e-06
2.44538e-05
-7.17189e-07
2.11659e-05
-3.83567e-07
1.78073e-05
-1.40422e-07
1.34451e-05
1.73975e-05
4.54145e-07
2.78188e-05
3.72685e-07
2.85552e-05
2.47541e-07
2.93116e-05
8.49419e-08
4.54154e-07
1.93509e-05
3.97294e-07
2.15259e-05
2.79657e-07
2.39395e-05
9.71741e-08
2.66207e-05
-1.52501e-07
2.96029e-05
-4.73863e-07
3.29182e-05
-8.71479e-07
3.6602e-05
-1.34818e-06
4.07062e-05
-1.90468e-06
4.52827e-05
-2.53703e-06
5.03998e-05
-3.23647e-06
5.61369e-05
-3.98481e-06
6.2597e-05
-4.75162e-06
6.99063e-05
-5.4937e-06
7.69824e-05
-6.15475e-06
7.75749e-05
-6.69869e-06
7.83164e-05
-7.08781e-06
7.9207e-05
-7.2929e-06
8.02294e-05
-7.29384e-06
8.13699e-05
-7.08284e-06
8.25989e-05
-6.6643e-06
8.84555e-05
-6.00028e-06
7.82494e-05
-5.30242e-06
6.91853e-05
-4.60445e-06
6.11286e-05
-3.93041e-06
5.39319e-05
-3.29704e-06
4.75509e-05
-3.35696e-06
4.20089e-05
-2.68763e-06
3.70297e-05
-2.08684e-06
3.25206e-05
-1.55624e-06
2.84911e-05
-1.09292e-06
2.48295e-05
-6.97289e-07
2.14797e-05
-3.7358e-07
1.80404e-05
-1.38119e-07
1.35832e-05
1.73946e-05
4.56999e-07
2.78204e-05
4.5261e-07
2.85586e-05
3.6928e-07
2.9315e-05
2.4406e-07
3.00895e-05
8.34377e-08
4.02453e-07
1.93458e-05
2.88043e-07
2.15175e-05
1.09796e-07
2.39269e-05
-1.34707e-07
2.66029e-05
-4.50116e-07
2.95791e-05
-8.41369e-07
3.28881e-05
-1.31209e-06
3.65659e-05
-1.8644e-06
4.0666e-05
-2.49663e-06
4.52424e-05
-3.20349e-06
5.03668e-05
-3.97175e-06
5.61239e-05
-4.77762e-06
6.2623e-05
-5.5861e-06
6.99987e-05
-6.34658e-06
7.71743e-05
-6.99779e-06
7.7874e-05
-7.50406e-06
7.87326e-05
-7.83096e-06
7.97451e-05
-7.95259e-06
8.08882e-05
-7.85553e-06
8.21426e-05
-7.53934e-06
8.3474e-05
-7.0156e-06
8.94708e-05
-6.25078e-06
7.91978e-05
-5.47159e-06
7.00524e-05
-4.71066e-06
6.19089e-05
-3.99005e-06
5.46249e-05
-4.1115e-06
4.83054e-05
-3.3437e-06
4.2665e-05
-2.65348e-06
3.75964e-05
-2.04459e-06
3.3009e-05
-1.51468e-06
2.89129e-05
-1.0583e-06
2.51905e-05
-6.73282e-07
2.17794e-05
-3.60996e-07
1.82633e-05
-1.34372e-07
1.37176e-05
1.73898e-05
4.07303e-07
2.78174e-05
4.59942e-07
2.85601e-05
4.51064e-07
2.93184e-05
3.65934e-07
3.00929e-05
2.40629e-07
3.08895e-05
8.19867e-08
2.95931e-07
1.93379e-05
1.21736e-07
2.15056e-05
-1.17706e-07
2.39099e-05
-4.27098e-07
2.65799e-05
-8.11584e-07
2.95494e-05
-1.27533e-06
3.28513e-05
-1.82147e-06
3.6523e-05
-2.45006e-06
4.06194e-05
-3.15853e-06
4.51974e-05
-3.93767e-06
5.03327e-05
-4.76926e-06
5.61155e-05
-5.62545e-06
6.26624e-05
-6.4642e-06
7.01163e-05
-7.22907e-06
7.74055e-05
-7.85336e-06
7.82233e-05
-8.30582e-06
7.92075e-05
-8.55451e-06
8.0347e-05
-8.57981e-06
8.16125e-05
-8.37572e-06
8.2979e-05
-7.94923e-06
8.44076e-05
-7.3197e-06
9.05397e-05
-6.45796e-06
8.01842e-05
-5.60278e-06
7.09446e-05
-4.78493e-06
6.27038e-05
-4.97736e-06
5.54908e-05
-4.09557e-06
4.90573e-05
-3.30072e-06
4.33122e-05
-2.59875e-06
3.81505e-05
-1.98852e-06
3.34828e-05
-1.46437e-06
2.9319e-05
-1.01843e-06
2.55357e-05
-6.46151e-07
2.20645e-05
-3.4649e-07
1.84754e-05
-1.29573e-07
1.38472e-05
1.73824e-05
3.03302e-07
2.78096e-05
4.15117e-07
2.85571e-05
4.62964e-07
2.93199e-05
4.49555e-07
3.00962e-05
3.62686e-07
3.08928e-05
2.37263e-07
3.17094e-05
8.05774e-08
1.3294e-07
1.93267e-05
-1.01624e-07
2.14895e-05
-4.05076e-07
2.38878e-05
-7.8265e-07
2.65509e-05
-1.23884e-06
2.95129e-05
-1.77749e-06
3.28073e-05
-2.39996e-06
3.64729e-05
-3.10574e-06
4.05666e-05
-3.88887e-06
4.51486e-05
-4.73566e-06
5.02991e-05
-5.62442e-06
5.61145e-05
-6.52068e-06
6.27189e-05
-7.37667e-06
7.02639e-05
-8.12932e-06
7.76815e-05
-8.70995e-06
7.86275e-05
-9.09131e-06
7.97443e-05
-9.24717e-06
8.10144e-05
-9.16512e-06
8.24019e-05
-8.84675e-06
8.38765e-05
-8.30742e-06
8.53953e-05
-7.57402e-06
9.16558e-05
-6.62049e-06
8.12019e-05
-5.69582e-06
7.18555e-05
-5.97248e-06
6.36989e-05
-4.9598e-06
5.6355e-05
-4.04338e-06
4.98e-05
-3.23228e-06
4.39457e-05
-2.5267e-06
3.86887e-05
-1.92127e-06
3.39397e-05
-1.4073e-06
2.97078e-05
-9.74713e-07
2.58642e-05
-6.16824e-07
2.23348e-05
-3.30663e-07
1.86765e-05
-1.24046e-07
1.39712e-05
1.7372e-05
1.43385e-07
2.77949e-05
3.18023e-07
2.8549e-05
4.23244e-07
2.93167e-05
4.66129e-07
3.00977e-05
4.48065e-07
3.0896e-05
3.595e-07
3.17127e-05
2.33964e-07
3.25534e-05
7.92252e-08
-8.65375e-08
1.93116e-05
-3.84225e-07
2.14686e-05
-7.54918e-07
2.38601e-05
-1.2033e-06
2.65154e-05
-1.73367e-06
2.9469e-05
-2.34832e-06
3.27557e-05
-3.04834e-06
3.64155e-05
-3.83028e-06
4.0508e-05
-4.68418e-06
4.50971e-05
-5.59343e-06
5.02681e-05
-6.53019e-06
5.6124e-05
-7.45458e-06
6.27968e-05
-8.31203e-06
7.04466e-05
-9.03595e-06
7.80075e-05
-9.55458e-06
7.90908e-05
-9.84861e-06
8.03457e-05
-9.8986e-06
8.17478e-05
-9.69977e-06
8.32549e-05
-9.26254e-06
8.48316e-05
-8.61055e-06
8.64319e-05
-7.77663e-06
9.28119e-05
-6.738e-06
8.22441e-05
-7.11566e-06
7.29986e-05
-5.95513e-06
6.46942e-05
-4.89837e-06
5.721e-05
-3.96008e-06
5.05278e-05
-3.14251e-06
4.45615e-05
-2.44075e-06
3.92082e-05
-1.8455e-06
3.43779e-05
-1.34541e-06
3.00785e-05
-9.28417e-07
2.61758e-05
-5.86132e-07
2.25903e-05
-3.1404e-07
1.88665e-05
-1.18056e-07
1.40893e-05
1.73579e-05
-7.24732e-08
2.77714e-05
1.66904e-07
2.85338e-05
3.33167e-07
2.93084e-05
4.31594e-07
3.00945e-05
4.69342e-07
3.08975e-05
4.46596e-07
3.17158e-05
3.56366e-07
3.25566e-05
2.3069e-07
3.34193e-05
7.79081e-08
-3.64645e-07
1.9292e-05
-7.28621e-07
2.14423e-05
-1.16916e-06
2.3826e-05
-1.69085e-06
2.64726e-05
-2.29662e-06
2.94173e-05
-2.98876e-06
3.26961e-05
-3.76575e-06
3.6351e-05
-4.62061e-06
4.04444e-05
-5.54094e-06
4.50446e-05
-6.50451e-06
5.02425e-05
-7.47844e-06
5.61479e-05
-8.41615e-06
6.29009e-05
-9.25919e-06
7.06699e-05
-9.93584e-06
7.83888e-05
-1.03748e-05
7.9617e-05
-1.05666e-05
8.10137e-05
-1.04991e-05
8.25472e-05
-1.01767e-05
8.4169e-05
-9.61884e-06
8.58399e-05
-8.85603e-06
8.75113e-05
-7.92682e-06
9.40008e-05
-8.42793e-06
8.35563e-05
-7.10157e-06
7.41451e-05
-5.88494e-06
6.56808e-05
-4.7992e-06
5.80491e-05
-3.85076e-06
5.1236e-05
-3.03569e-06
4.51565e-05
-2.34422e-06
3.97069e-05
-1.76369e-06
3.47962e-05
-1.28037e-06
3.04305e-05
-8.80658e-07
2.64703e-05
-5.54803e-07
2.28311e-05
-2.97024e-07
1.90455e-05
-1.11815e-07
1.42011e-05
1.73396e-05
-3.46377e-07
2.77368e-05
-3.78955e-08
2.85097e-05
1.91015e-07
2.92928e-05
3.48736e-07
3.00858e-05
4.40293e-07
3.08942e-05
4.72643e-07
3.17173e-05
4.45103e-07
3.25597e-05
3.53243e-07
3.34225e-05
2.27473e-07
3.43053e-05
7.66221e-08
-7.03896e-07
1.92673e-05
-1.13673e-06
2.14099e-05
-1.64962e-06
2.37847e-05
-2.24593e-06
2.64219e-05
-2.92879e-06
2.93574e-05
-3.69819e-06
3.26285e-05
-4.54949e-06
3.62798e-05
-5.47367e-06
4.03772e-05
-6.45325e-06
4.49933e-05
-7.46137e-06
5.02254e-05
-8.45873e-06
5.61904e-05
-9.39473e-06
6.30364e-05
-1.02051e-05
7.09391e-05
-1.08163e-05
7.88302e-05
-1.1159e-05
8.02094e-05
-1.12346e-05
8.17492e-05
-1.10405e-05
8.3411e-05
-1.05907e-05
8.51409e-05
-9.91226e-06
8.68961e-05
-9.04261e-06
8.8627e-05
-9.93201e-06
9.55048e-05
-8.42239e-06
8.48771e-05
-7.02414e-06
7.52843e-05
-5.76917e-06
6.66508e-05
-4.66842e-06
5.88668e-05
-3.72063e-06
5.19209e-05
-2.91588e-06
4.57281e-05
-2.24022e-06
4.01834e-05
-1.67801e-06
3.51938e-05
-1.21366e-06
3.07635e-05
-8.32415e-07
2.6748e-05
-5.23365e-07
2.30574e-05
-2.79968e-07
1.92136e-05
-1.0549e-07
1.43066e-05
1.73165e-05
-6.80803e-07
2.76887e-05
-2.98267e-07
2.84743e-05
-2.52134e-09
2.92681e-05
2.15692e-07
3.00699e-05
3.64595e-07
3.08853e-05
4.49179e-07
3.1714e-05
4.75944e-07
3.25612e-05
4.43654e-07
3.34256e-05
3.5018e-07
3.43085e-05
2.24288e-07
3.52193e-05
7.53707e-08
-1.1062e-06
1.92367e-05
-1.61038e-06
2.13707e-05
-2.197e-06
2.37358e-05
-2.86977e-06
2.63629e-05
-3.62979e-06
2.9289e-05
-4.47426e-06
3.25533e-05
-5.39691e-06
3.62031e-05
-6.38411e-06
4.0308e-05
-7.41417e-06
4.49461e-05
-8.45419e-06
5.02209e-05
-9.4609e-06
5.62566e-05
-1.03775e-05
6.32089e-05
-1.11371e-05
7.12599e-05
-1.16651e-05
7.93364e-05
-1.18955e-05
8.08703e-05
-1.18437e-05
8.25524e-05
-1.15168e-05
8.43372e-05
-1.09375e-05
8.61662e-05
-1.0141e-05
8.79944e-05
-1.13518e-05
9.00468e-05
-9.94419e-06
9.70267e-05
-8.34147e-06
8.61945e-05
-6.89196e-06
7.64071e-05
-5.61516e-06
6.75975e-05
-4.51231e-06
5.96585e-05
-3.57463e-06
5.25797e-05
-2.78691e-06
4.62748e-05
-2.13147e-06
4.06369e-05
-1.59035e-06
3.55705e-05
-1.14658e-06
3.10777e-05
-7.84379e-07
2.7009e-05
-4.92307e-07
2.32698e-05
-2.6314e-07
1.93713e-05
-9.91978e-08
1.44058e-05
1.7288e-05
-1.07765e-06
2.76243e-05
-6.16393e-07
2.84252e-05
-2.49131e-07
2.9232e-05
3.36135e-08
3.00447e-05
2.409e-07
3.08691e-05
3.80771e-07
3.17049e-05
4.58283e-07
3.2558e-05
4.79191e-07
3.34271e-05
4.42141e-07
3.43115e-05
3.47107e-07
3.52224e-05
2.21124e-07
3.61552e-05
7.41381e-08
-1.57337e-06
1.91997e-05
-2.15032e-06
2.1324e-05
-2.81261e-06
2.36787e-05
-3.56216e-06
2.62952e-05
-4.39756e-06
2.92123e-05
-5.31471e-06
3.24711e-05
-6.30317e-06
3.61221e-05
-7.34555e-06
4.02394e-05
-8.41449e-06
4.49064e-05
-9.47334e-06
5.02333e-05
-1.04725e-05
5.63516e-05
-1.1352e-05
6.34238e-05
-1.20425e-05
7.16373e-05
-1.24702e-05
7.9911e-05
-1.25746e-05
8.16012e-05
-1.23867e-05
8.34222e-05
-1.19228e-05
8.53224e-05
-1.12146e-05
8.72399e-05
-1.27587e-05
8.94013e-05
-1.13896e-05
9.14922e-05
-9.86657e-06
9.85518e-05
-8.19495e-06
8.74975e-05
-6.7137e-06
7.75056e-05
-5.4304e-06
6.85156e-05
-4.33683e-06
6.04207e-05
-3.41738e-06
5.32102e-05
-2.65207e-06
4.67954e-05
-2.02028e-06
4.10668e-05
-1.50233e-06
3.59263e-05
-1.08e-06
3.13733e-05
-7.37206e-07
2.72539e-05
-4.61994e-07
2.34686e-05
-2.46723e-07
1.95188e-05
-9.30318e-08
1.44988e-05
1.72533e-05
-1.53871e-06
2.75405e-05
-9.93901e-07
2.83594e-05
-5.50627e-07
2.91818e-05
-1.98951e-07
3.00078e-05
7.04647e-08
3.08435e-05
2.66559e-07
3.16885e-05
3.97242e-07
3.25487e-05
4.67533e-07
3.3424e-05
4.82345e-07
3.4313e-05
4.40639e-07
3.52255e-05
3.44034e-07
3.61584e-05
2.17985e-07
3.65892e-05
7.29361e-08
-2.10622e-06
1.91556e-05
-2.75795e-06
2.12693e-05
-3.49643e-06
2.36129e-05
-4.32131e-06
2.6219e-05
-5.23019e-06
2.91278e-05
-6.21516e-06
3.23831e-05
-7.26243e-06
3.6039e-05
-8.34938e-06
4.01743e-05
-9.44516e-06
4.48783e-05
-1.05069e-05
5.02677e-05
-1.14814e-05
5.6481e-05
-1.23055e-05
6.36867e-05
-1.29091e-05
7.20763e-05
-1.32208e-05
8.05573e-05
-1.31883e-05
8.24028e-05
-1.28575e-05
8.43568e-05
-1.22551e-05
8.63629e-05
-1.41448e-05
8.8626e-05
-1.28322e-05
9.0844e-05
-1.13239e-05
9.29495e-05
-9.71028e-06
0.000100067
-7.99273e-06
8.87765e-05
-6.49826e-06
7.85735e-05
-5.22208e-06
6.94008e-05
-4.14758e-06
6.11509e-05
-3.25288e-06
5.3811e-05
-2.51422e-06
4.72894e-05
-1.90871e-06
4.14732e-05
-1.41509e-06
3.62613e-05
-1.01478e-06
3.16509e-05
-6.91368e-07
2.74832e-05
-4.32656e-07
2.36545e-05
-2.30865e-07
1.96566e-05
-8.70634e-08
1.45859e-05
1.7212e-05
-2.06485e-06
2.74342e-05
-1.43235e-06
2.82742e-05
-9.08667e-07
2.91148e-05
-4.83648e-07
2.99567e-05
-1.47855e-07
3.0806e-05
1.07942e-07
3.16624e-05
2.92597e-07
3.2532e-05
4.13919e-07
3.34146e-05
4.76851e-07
3.431e-05
4.85387e-07
3.5227e-05
4.39098e-07
3.61615e-05
3.40921e-07
3.65923e-05
2.14893e-07
3.55531e-05
7.18032e-08
-2.70619e-06
1.91039e-05
-3.43339e-06
2.12063e-05
-4.24691e-06
2.35385e-05
-5.14563e-06
2.61344e-05
-6.1237e-06
2.90363e-05
-7.17026e-06
3.22909e-05
-8.26667e-06
3.59563e-05
-9.38714e-06
4.01163e-05
-1.04948e-05
4.48662e-05
-1.1543e-05
5.03293e-05
-1.24749e-05
5.66504e-05
-1.32254e-05
6.4003e-05
-1.37255e-05
7.25809e-05
-1.39083e-05
8.12773e-05
-1.37294e-05
8.32747e-05
-1.32519e-05
8.53537e-05
-1.55006e-05
8.77187e-05
-1.42659e-05
9.00597e-05
-1.27888e-05
9.23089e-05
-1.11668e-05
9.44061e-05
-9.48667e-06
0.000101561
-7.74517e-06
9.00234e-05
-6.25401e-06
7.96054e-05
-4.99687e-06
7.02501e-05
-3.94935e-06
6.18473e-05
-3.0846e-06
5.43814e-05
-2.37586e-06
4.77565e-05
-1.79814e-06
4.18562e-05
-1.3297e-06
3.65763e-05
-9.51529e-07
3.1911e-05
-6.47156e-07
2.76977e-05
-4.04485e-07
2.38282e-05
-2.15678e-07
1.97853e-05
-8.13393e-08
1.46672e-05
1.71634e-05
-2.65758e-06
2.73022e-05
-1.93294e-06
2.81662e-05
-1.3243e-06
2.90279e-05
-8.21773e-07
2.98886e-05
-4.15502e-07
3.07541e-05
-9.5948e-08
3.16244e-05
1.4595e-07
3.25056e-05
3.18998e-07
3.33977e-05
4.3083e-07
3.43007e-05
4.86179e-07
3.52241e-05
4.88302e-07
3.61631e-05
4.37476e-07
3.65954e-05
3.37859e-07
3.5556e-05
2.11979e-07
3.45451e-05
7.0733e-08
-3.37358e-06
1.90441e-05
-4.17533e-06
2.11347e-05
-5.06273e-06
2.34556e-05
-6.03153e-06
2.60423e-05
-7.07324e-06
2.89393e-05
-8.17254e-06
3.21968e-05
-9.30798e-06
3.58771e-05
-1.0448e-05
4.00695e-05
-1.15519e-05
4.48751e-05