/*--------------------------------*- C++ -*----------------------------------*\
  =========                 |
  \\      /  F ield         | OpenFOAM: The Open Source CFD Toolbox
   \\    /   O peration     | Website:  https://openfoam.org
    \\  /    A nd           | Version:  8
     \\/     M anipulation  |
\*---------------------------------------------------------------------------*/
FoamFile
{
    version     2.0;
    format      ascii;
    class       volScalarField;
    location    "0.18";
    object      epsilon;
}
// * * * * * * * * * * * * * * * * * * * * * * * * * * * * * * * * * * * * * //

dimensions      [0 2 -3 0 0 0 0];

internalField   nonuniform List<scalar> 
15677
(
59.7309
18.3654
52.6879
8.0841
26.0269
50.2348
4.62253
13.3247
31.6552
50.5428
3.17423
7.7495
17.1276
37.3343
51.6362
2.48705
5.05433
10.048
20.852
42.6807
53.6788
2.14427
3.62775
6.47261
12.1828
24.5703
47.6791
55.7363
1.97933
2.82286
4.52963
7.73452
14.2924
28.2706
52.0328
57.6715
1.91149
2.35342
3.4039
5.31518
8.92497
16.4353
31.7661
55.7132
59.3695
1.88406
2.0803
2.72411
3.9115
6.02646
10.1125
18.5424
34.9621
58.7315
60.8722
1.8705
1.93937
2.30739
3.05648
4.36025
6.71086
11.2777
20.5726
37.781
61.2088
62.1393
1.86763
1.87828
2.05652
2.52145
3.34909
4.77817
7.36592
12.4202
22.4628
40.2441
63.2029
63.2546
1.86863
1.84883
1.91657
2.18615
2.71294
3.61601
5.167
8.00256
13.5071
24.2069
42.341
64.8313
64.1831
1.86955
1.8387
1.85192
1.98264
2.30703
2.8867
3.85905
5.53684
8.60642
14.5378
25.7704
44.1327
66.1372
65.0176
1.86979
1.83698
1.82113
1.86774
2.05143
2.41823
3.0433
4.08516
5.88253
9.1811
15.4878
27.1709
45.6285
67.1986
65.7437
1.86979
1.83724
1.81052
1.81334
1.8982
2.11749
2.51885
3.18668
4.29304
6.20803
9.71384
16.3636
28.3922
46.8871
68.0639
66.3879
1.86974
1.8375
1.80823
1.78978
1.81541
1.93031
2.17877
2.61048
3.31684
4.48561
6.50775
10.2083
17.1477
29.4566
47.9327
68.7697
66.976
1.86972
1.8376
1.80793
1.78276
1.77572
1.8215
1.96236
2.23518
2.69321
3.43561
4.66103
6.78387
10.655
17.849
30.3631
48.7902
69.3733
67.4788
1.8697
1.83761
1.80794
1.78104
1.76149
1.76615
1.83175
1.99309
2.28636
2.76796
3.54269
4.82057
7.03241
11.0579
18.4581
31.1275
49.4988
69.8537
67.9853
1.8697
1.8376
1.80796
1.7807
1.75701
1.74394
1.7604
1.84313
2.02161
2.33257
2.8349
3.63884
4.96296
7.25517
11.4104
18.9835
31.7604
50.0552
70.3044
68.3827
1.8697
1.83759
1.80795
1.78065
1.75574
1.73591
1.72955
1.75742
1.85453
2.04775
2.37394
2.89446
3.72395
5.08895
7.44969
11.7162
19.4222
32.27
50.518
70.6424
68.8527
1.8697
1.83758
1.80794
1.78063
1.75543
1.73319
1.71733
1.71803
1.75588
1.86569
2.07139
2.41063
2.94691
3.79839
5.19826
7.61698
11.9725
19.7822
32.6754
50.8565
71.0158
69.1689
1.8697
1.83757
1.80792
1.7806
1.75535
1.73234
1.71273
1.70133
1.70849
1.75581
1.87617
2.0925
2.44293
2.99248
3.86259
5.29108
7.75716
12.1825
20.0658
32.9799
51.1437
71.2687
69.6344
1.8697
1.83757
1.80791
1.78057
1.75531
1.73207
1.71111
1.69449
1.68728
1.70089
1.75613
1.8858
2.11125
2.47106
3.03176
3.91678
5.36859
7.87034
12.3477
20.2805
33.204
51.3362
71.6221
69.892
1.8697
1.83756
1.80791
1.78055
1.75528
1.73196
1.71057
1.69186
1.67806
1.67533
1.69459
1.75692
1.89471
2.12786
2.49552
3.0651
3.962
5.43048
7.95979
12.4708
20.4343
33.3547
51.498
71.8288
70.3575
1.8697
1.83756
1.8079
1.78053
1.75525
1.73189
1.71037
1.69087
1.67427
1.66367
1.66487
1.68959
1.75835
1.90299
2.14265
2.5167
3.0933
3.9987
5.47983
8.0248
12.5577
20.5293
33.4422
51.6158
72.2293
70.6037
1.86971
1.83756
1.8079
1.78051
1.75523
1.73184
1.71028
1.69048
1.67278
1.65858
1.65076
1.65629
1.6858
1.76021
1.91089
2.15611
2.53539
3.1172
4.02848
5.5158
8.07138
12.6083
20.5857
33.4888
51.6904
72.5271
429.679
1.86971
1.83756
1.80789
1.7805
1.75521
1.73179
1.71021
1.69029
1.67219
1.65643
1.64438
1.63996
1.64893
1.68318
1.76294
1.91894
2.16883
2.55221
3.13759
4.05193
5.54271
8.09782
12.6353
20.5879
33.4845
51.81
88.8773
718.175
1.86971
1.83755
1.80789
1.78049
1.75519
1.73176
1.71015
1.69018
1.67192
1.65551
1.64161
1.63223
1.63042
1.64388
1.68261
1.76689
1.92752
2.1815
2.56812
3.1559
4.07141
5.56069
8.11402
12.6321
20.5749
33.4866
52.7317
122.245
999.608
1.86971
1.83755
1.80789
1.78049
1.75517
1.73173
1.7101
1.69009
1.67176
1.65507
1.6404
1.62867
1.62153
1.62359
1.63991
1.6837
1.7724
1.93746
2.19502
2.58435
3.17331
4.08805
5.57357
8.1139
12.6201
20.5455
33.511
55.2907
157.869
1248.55
1.86971
1.83755
1.80789
1.78048
1.75516
1.73171
1.71006
1.69003
1.67165
1.65483
1.63983
1.62703
1.61739
1.61342
1.61795
1.64003
1.68681
1.78025
1.94947
2.21042
2.60172
3.19112
4.10335
5.58196
8.11096
12.596
20.507
33.6103
59.8616
190.555
1478.11
1.86971
1.83755
1.80789
1.78047
1.75515
1.73169
1.71003
1.68997
1.67155
1.65467
1.63951
1.62623
1.61546
1.60846
1.60704
1.6165
1.64192
1.69306
1.79118
1.96456
2.2285
2.62159
3.2104
4.11922
5.58915
8.10434
12.5671
20.464
33.8639
64.5878
221.59
1672.88
1.86971
1.83755
1.80789
1.78047
1.75515
1.73168
1.71
1.68992
1.67147
1.65455
1.63929
1.62579
1.61449
1.60606
1.60171
1.60433
1.61795
1.64684
1.70333
1.80619
1.98358
2.2506
2.6449
3.2329
4.13698
5.59756
8.09701
12.5365
20.4157
34.3327
69.3964
248.904
1820.89
1.86971
1.83755
1.80789
1.78047
1.75514
1.73166
1.70998
1.68989
1.67141
1.65445
1.63913
1.62551
1.61395
1.60484
1.5991
1.59824
1.60555
1.62239
1.65646
1.71848
1.82618
2.00779
2.27757
2.67316
3.25948
4.15867
5.60909
8.09123
12.5046
20.3726
34.8916
73.763
270.145
1935.73
1.86971
1.83755
1.80789
1.78046
1.75513
1.73165
1.70996
1.68985
1.67135
1.65437
1.63899
1.62531
1.61359
1.60417
1.59775
1.59522
1.59934
1.60979
1.63149
1.67183
1.73942
1.85241
2.03808
2.31083
2.70706
3.29182
4.18529
5.6253
8.08938
12.4717
20.3374
35.4325
77.1499
286.945
2027.96
1.83755
1.86975
1.80789
1.78046
1.75513
1.73164
1.70994
1.68982
1.67131
1.65429
1.63887
1.62514
1.61332
1.60375
1.59698
1.59368
1.59629
1.60353
1.6187
1.64715
1.69367
1.76747
1.88577
2.07581
2.35104
2.74817
3.33053
4.21827
5.64673
8.09072
12.4354
20.2987
35.8449
79.7509
300.579
2104.86
1.80788
1.83764
1.86982
1.78046
1.75513
1.73163
1.70993
1.68979
1.67127
1.65423
1.63877
1.625
1.61309
1.60344
1.59648
1.59284
1.59474
1.60051
1.61246
1.63481
1.66988
1.72327
1.8036
1.92775
2.12174
2.39968
2.79679
3.37688
4.25772
5.6739
8.09567
12.3973
20.2509
36.1299
81.744
312.089
2171.42
1.78046
1.80804
1.83784
1.86989
1.75512
1.73162
1.70992
1.68977
1.67124
1.65417
1.63869
1.62488
1.61291
1.6032
1.59611
1.59232
1.59393
1.59906
1.6096
1.62909
1.65845
1.70109
1.76186
1.84922
1.97897
2.17706
2.45692
2.8543
3.43081
4.30406
5.71055
8.10689
12.3625
20.1915
36.3093
83.3127
322.085
2230.68
1.75512
1.78066
1.80836
1.83805
1.86997
1.73161
1.70991
1.68975
1.67121
1.65412
1.63862
1.62478
1.61275
1.603
1.5958
1.59195
1.59345
1.59837
1.60841
1.62678
1.65369
1.69128
1.74215
1.81108
1.90541
2.04104
2.2422
2.52434
2.92034
3.49273
4.36333
5.75937
8.12552
12.3313
20.1229
36.4067
84.5711
331.084
2284.8
1.73161
1.75537
1.78108
1.80868
1.83826
1.87004
1.7099
1.68973
1.67119
1.65408
1.63856
1.62469
1.61261
1.60283
1.59555
1.59167
1.59312
1.59801
1.60801
1.62618
1.65245
1.68832
1.73497
1.79504
1.87221
1.974
2.11455
2.31841
2.60095
2.99559
3.57046
4.4386
5.8164
8.15043
12.3044
20.0472
36.4476
85.6264
339.291
2334.83
1.70989
1.7319
1.75589
1.78152
1.80902
1.83848
1.87012
1.68972
1.67116
1.65404
1.63851
1.6246
1.6125
1.60268
1.59533
1.59143
1.59287
1.59779
1.60792
1.62633
1.6528
1.68857
1.73422
1.79141
1.86142
1.94759
2.05595
2.20115
2.40574
2.68805
3.08909
3.66741
4.52318
5.88107
8.18119
12.2812
19.9697
36.4426
86.528
346.992
2381.78
1.6897
1.71022
1.7325
1.75642
1.78196
1.80936
1.8387
1.8702
1.67115
1.654
1.63847
1.62453
1.61241
1.60254
1.59515
1.59124
1.59267
1.59765
1.60796
1.62679
1.65395
1.69064
1.73693
1.79403
1.86197
1.94284
2.03815
2.1535
2.30113
2.5057
2.79548
3.20468
3.77477
4.61578
5.95176
8.21677
12.2635
19.8918
36.4248
87.3389
354.176
2425.85
1.67113
1.69006
1.71089
1.73311
1.75696
1.78242
1.80972
1.83893
1.87029
1.65397
1.63844
1.62446
1.61233
1.60243
1.59499
1.59108
1.59251
1.59756
1.60806
1.62734
1.65535
1.6935
1.74156
1.80046
1.86958
1.94972
2.04058
2.14529
2.26688
2.4163
2.6301
2.93011
3.33146
3.89015
4.71496
6.02728
8.25699
12.2494
19.8181
36.3904
88.0635
361.06
2467.65
1.65395
1.67151
1.69079
1.71158
1.73374
1.75752
1.78289
1.81008
1.83917
1.87037
1.63841
1.62439
1.61227
1.60232
1.59485
1.59094
1.59238
1.59749
1.60819
1.6279
1.65678
1.69651
1.74698
1.80901
1.88126
1.96428
2.05615
2.15794
2.26941
2.39675
2.56174
2.78784
3.07944
3.46875
4.0124
4.81911
6.10664
8.30051
12.2411
19.7489
36.3475
88.7506
367.521
2507.02
1.63838
1.65433
1.6723
1.69154
1.71229
1.73439
1.7581
1.78337
1.81045
1.83941
1.87046
1.62434
1.61221
1.60221
1.59474
1.59082
1.59227
1.59744
1.60832
1.62845
1.65817
1.69944
1.75241
1.81844
1.89541
1.98349
2.08008
2.18505
2.29551
2.4139
2.55908
2.74386
2.96426
3.24243
3.61557
4.14088
4.92692
6.18868
8.34707
12.2352
19.6854
36.3057
89.3809
373.774
2544.5
1.62429
1.63878
1.65515
1.67311
1.69232
1.71302
1.73506
1.75869
1.78387
1.81084
1.83966
1.87055
1.61217
1.60212
1.59465
1.59072
1.59217
1.59741
1.60846
1.62896
1.65948
1.7022
1.75763
1.82776
1.91058
2.00584
2.10959
2.2218
2.3375
2.45714
2.59711
2.766
2.94615
3.1575
3.41848
3.77036
4.27368
5.03721
6.27241
8.39541
12.2354
19.6288
36.2645
89.9979
379.632
2579.71
1.61213
1.62467
1.63963
1.65599
1.67395
1.69312
1.71378
1.73575
1.75929
1.78438
1.81123
1.83991
1.87064
1.60203
1.59458
1.59062
1.59208
1.59738
1.60858
1.62944
1.66071
1.70477
1.76256
1.83667
1.92548
2.02966
2.14334
2.26571
2.39107
2.51872
2.66405
2.83341
3.00008
3.16787
3.36296
3.60467
3.93123
4.40997
5.14883
6.35687
8.44519
12.2373
19.5778
36.2305
90.5697
385.327
2613.27
1.60195
1.61251
1.62549
1.64051
1.65687
1.67481
1.69395
1.71455
1.73646
1.75992
1.78491
1.81163
1.84017
1.87073
1.59452
1.59053
1.59201
1.59736
1.60871
1.62989
1.66185
1.70715
1.76719
1.84508
1.93976
2.0532
2.17927
2.31577
2.45426
2.59504
2.75325
2.93465
3.1041
3.26075
3.40848
3.57934
3.79935
4.09778
4.54842
5.26086
6.44125
8.49565
12.2416
19.5333
36.2003
91.1389
390.634
2644.63
1.59449
1.60223
1.61332
1.62633
1.64141
1.65777
1.67569
1.6948
1.71534
1.73719
1.76056
1.78545
1.81204
1.84043
1.87082
1.59043
1.59193
1.59734
1.60882
1.6303
1.6629
1.70934
1.7715
1.85293
1.95334
2.07596
2.21493
2.3695
2.52658
2.68498
2.86232
3.06501
3.24951
3.40992
3.54702
3.66608
3.80476
3.99736
4.26755
4.68771
5.37219
6.52481
8.54616
12.2492
19.4941
36.1784
91.667
395.805
2674.55
1.59035
1.59476
1.60287
1.61415
1.62721
1.64234
1.6587
1.6766
1.69567
1.71616
1.73794
1.76121
1.786
1.81245
1.84068
1.8709
1.59186
1.59731
1.60893
1.63068
1.66386
1.71135
1.77549
1.86022
1.96616
2.09772
2.24961
2.42362
2.60511
2.78898
2.9916
3.22451
3.43467
3.61159
3.75122
3.85774
3.9386
4.03831
4.19742
4.43828
4.82627
5.4821
6.60694
8.59635
12.2588
19.4605
36.1609
92.1962
400.594
2702.33
1.59182
1.59034
1.59533
1.60352
1.61501
1.62813
1.6433
1.65966
1.67754
1.69658
1.717
1.73871
1.76188
1.78654
1.81285
1.84093
1.87098
1.59729
1.60902
1.63102
1.66474
1.71318
1.77916
1.86696
1.97821
2.11831
2.28305
2.47711
2.68505
2.90357
3.14339
3.41673
3.66399
3.86948
4.02429
4.12865
4.19177
4.22401
4.27775
4.39816
4.60883
4.9637
5.59005
6.68717
8.64581
12.27
19.4314
36.1509
92.6861
405.27
2728.88
1.5973
1.59168
1.59034
1.59592
1.60422
1.61591
1.62909
1.64429
1.66066
1.6785
1.69751
1.71786
1.7395
1.76255
1.78707
1.81323
1.84117
1.87106
1.6091
1.63133
1.66554
1.71486
1.78253
1.87316
1.98946
2.13765
2.31511
2.52941
2.76466
3.02238
3.31453
3.64849
3.94747
4.1964
4.37962
4.49288
4.54356
4.5481
4.52039
4.52108
4.59813
4.77655
5.09918
5.69544
6.76513
8.69424
12.2823
19.4069
36.1445
93.1772
409.569
2753.37
1.60924
1.59693
1.59136
1.59032
1.59655
1.60499
1.61684
1.63009
1.6453
1.66169
1.67949
1.69846
1.71874
1.74028
1.7632
1.78759
1.81361
1.8414
1.87114
1.6316
1.66625
1.71638
1.78561
1.87887
1.99991
2.15571
2.34568
2.57997
2.84305
3.14357
3.49674
3.91816
4.30164
4.61641
4.84691
4.98123
5.02523
4.99818
4.92603
4.82597
4.76647
4.79651
4.93987
5.23156
5.79776
6.84049
8.74136
12.2957
19.3859
36.1451
93.6305
413.779
2776.84
1.63192
1.60851
1.59599
1.59099
1.5904
1.59721
1.60582
1.61779
1.63114
1.64635
1.66275
1.68051
1.69944
1.71961
1.74104
1.76383
1.78809
1.81397
1.84162
1.87122
1.66688
1.71776
1.78841
1.88412
2.00959
2.17253
2.3747
2.62835
2.91975
3.26631
3.68668
4.21406
4.73298
5.16996
5.47992
5.65451
5.69631
5.63107
5.4952
5.32502
5.13918
5.0124
4.99238
5.09837
5.36002
5.89657
6.91304
8.78699
12.3096
19.3687
36.1479
94.0834
417.624
2795.68
1.66756
1.63058
1.60657
1.59495
1.5907
1.59064
1.59786
1.60672
1.61877
1.63223
1.64743
1.66385
1.68155
1.70041
1.72046
1.74177
1.76444
1.78858
1.81433
1.84184
1.87129
1.719
1.79095
1.88892
2.01851
2.18816
2.40208
2.6743
2.99452
3.38947
3.8815
4.53262
5.23374
5.88978
6.36678
6.61717
6.66577
6.54787
6.31943
6.03664
5.74428
5.4585
5.25752
5.18466
5.25165
5.48399
5.99157
6.9826
8.83096
12.324
19.3542
36.1544
94.5002
420.894
2811.55
1.72027
1.66555
1.62695
1.60448
1.59402
1.59042
1.59108
1.59852
1.60769
1.61978
1.63336
1.64854
1.66497
1.68259
1.70135
1.72129
1.74249
1.76504
1.78905
1.81467
1.84205
1.87136
1.79328
1.89331
2.02672
2.20267
2.42781
2.71774
3.06721
3.51158
4.07866
4.8739
5.80862
6.77835
7.58176
8.02583
8.10649
7.92034
7.55277
7.09557
6.62281
6.18246
5.78241
5.50065
5.37249
5.39939
5.60308
6.08251
7.04908
8.87318
12.3386
19.3426
36.1625
94.859
423.587
2828.7
1.79554
1.71737
1.65971
1.6231
1.60257
1.59318
1.5901
1.59166
1.5992
1.60872
1.62083
1.63453
1.64969
1.66608
1.6836
1.70227
1.7221
1.74319
1.76562
1.78951
1.81501
1.84225
1.87143
1.89737
2.03426
2.21613
2.45189
2.75872
3.13761
3.63117
4.2769
5.23929
6.46242
7.8415
9.12272
9.9973
10.2558
10.0009
9.43932
8.71662
7.95901
7.25149
6.63737
6.10926
5.74072
5.55518
5.54136
5.71707
6.16931
7.11237
8.91356
12.3532
19.3329
36.1737
95.1533
426.546
2847.42
1.90119
1.79156
1.70837
1.65358
1.61952
1.60082
1.59243
1.58981
1.59234
1.59992
1.60981
1.62193
1.63573
1.65083
1.66717
1.68459
1.70316
1.72289
1.74386
1.76618
1.78996
1.81533
1.84245
1.87147
2.04127
2.2286
2.47437
2.79734
3.20544
3.74713
4.47632
5.62974
7.19361
9.07393
10.9795
12.5066
13.2764
13.1217
12.3211
11.2229
10.0332
8.90335
7.91798
7.10601
6.43732
5.97675
5.73222
5.67738
5.82579
6.25179
7.17253
8.95207
12.3677
19.3263
36.1823
95.4893
429.735
2867.75
2.0477
1.89585
1.77808
1.69903
1.64785
1.6162
1.59922
1.59174
1.5896
1.59308
1.6007
1.61093
1.62308
1.63692
1.65196
1.66822
1.68556
1.70403
1.72366
1.74452
1.76673
1.79039
1.81565
1.84255
1.87147
2.24031
2.49535
2.83373
3.27041
3.85886
4.6778
6.0445
7.99458
10.4577
13.1272
15.5241
17.1195
17.5133
16.6517
15.0613
13.2545
11.4868
9.91751
8.61558
7.58471
6.76474
6.20789
5.90319
5.80739
5.92929
6.33041
7.2296
8.9887
12.3801
19.3212
36.1954
95.8474
433.268
2890.04
2.25081
2.04073
1.87598
1.76425
1.69025
1.64244
1.61308
1.59772
1.59113
1.58948
1.59388
1.60155
1.61208
1.62424
1.63808
1.65306
1.66925
1.6865
1.70487
1.7244
1.74516
1.76726
1.79081
1.8158
1.84255
1.87147
2.51511
2.86809
3.33234
3.96631
4.88235
6.48082
8.85384
11.9682
15.5266
19.0047
21.7416
23.1142
22.7668
20.8454
18.197
15.5069
13.0561
10.9876
9.33641
8.0694
7.08967
6.43335
6.06781
5.93134
6.02696
6.40505
7.28363
9.01888
12.3909
19.3167
36.2091
96.2587
437.086
2914.27
2.53244
2.24171
2.01179
1.85584
1.75123
1.68193
1.6373
1.61014
1.59634
1.59062
1.58947
1.59471
1.60249
1.61322
1.62539
1.6392
1.65413
1.67025
1.68741
1.70569
1.72513
1.74579
1.76778
1.79102
1.8158
1.84255
1.87147
2.90071
3.39129
4.07003
5.09069
6.93433
9.75808
13.578
18.1314
22.882
27.0737
29.8711
30.607
29.0615
25.6787
21.6906
17.9462
14.717
12.0987
10.0721
8.55596
7.41034
6.65242
6.22583
6.04946
6.11904
6.47572
7.32796
9.04453
12.403
19.3122
36.2291
96.702
441.313
2940.88
2.92896
2.52089
2.19966
1.98285
1.83689
1.73882
1.67394
1.63238
1.60737
1.59507
1.59023
1.58959
1.59555
1.60349
1.61432
1.62653
1.6403
1.65519
1.67122
1.68831
1.70649
1.72583
1.74639
1.76804
1.79102
1.81581
1.84255
1.87147
3.44755
4.17094
5.30313
7.39957
10.6934
15.2599
20.8927
27.0774
33.0085
37.6813
40.1113
39.6689
36.3859
31.1062
25.4946
20.536
16.445
13.236
10.8147
9.04043
7.72506
6.86451
6.37715
6.16177
6.20578
6.53365
7.36555
9.07269
12.4166
19.3091
36.2513
97.2087
445.907
2969.75
3.49581
2.91403
2.45974
2.15824
1.95561
1.81879
1.72686
1.66624
1.62767
1.6048
1.59393
1.58993
1.58991
1.59635
1.60452
1.6154
1.62765
1.64137
1.65621
1.67216
1.68917
1.70727
1.72652
1.74669
1.76804
1.79102
1.81581
1.84255
1.87147
4.26967
5.51789
7.87082
11.6462
16.9871
23.762
31.5074
39.4148
46.3737
51.1288
52.6014
50.3158
44.6904
37.0631
29.5555
23.2388
18.2164
14.3856
11.5566
9.51915
8.03232
7.06914
6.52171
6.26833
6.27666
6.58274
7.40667
9.1036
12.432
19.3062
36.2816
97.763
451.001
3001.5
4.3558
3.47702
2.82382
2.4005
2.11929
1.92953
1.80129
1.7153
1.65884
1.62317
1.60245
1.5929
1.58967
1.59046
1.59712
1.60557
1.61646
1.62875
1.64242
1.65722
1.67308
1.69002
1.70802
1.72686
1.74669
1.76804
1.79102
1.8158
1.84255
1.87143
5.73164
8.34369
12.6043
18.7345
26.6928
36.0888
46.1519
55.7337
63.3935
67.6445
67.405
62.5031
53.889
43.4701
33.8161
26.0183
20.0096
15.5353
12.2914
9.98892
8.33087
7.26594
6.65947
6.35593
6.3366
6.63639
7.45168
9.13759
12.4494
19.3058
36.3174
98.3918
456.576
3035.84
4.33164
5.91945
3.3398
2.7384
2.34485
2.08196
1.90428
1.78433
1.70413
1.65173
1.61887
1.60029
1.59198
1.58935
1.59114
1.59789
1.60662
1.6175
1.62983
1.64344
1.65819
1.67398
1.69084
1.7084
1.72686
1.74669
1.76804
1.79102
1.8158
1.84245
1.87136
8.81344
13.5568
20.4801
29.6419
40.7432
53.0814
65.5307
76.565
84.3991
87.3613
84.4983
76.1245
63.865
50.2371
38.2185
28.8402
21.8054
16.6746
13.0133
10.4471
8.61965
7.45461
6.77322
6.43031
6.40202
6.69506
7.50097
9.17499
12.4692
19.3067
36.3625
99.0943
462.764
3073.64
4.10711
5.90034
9.22962
3.21428
2.65833
2.29146
2.04579
1.8798
1.76793
1.69339
1.64493
1.61481
1.59833
1.59119
1.58911
1.59189
1.59866
1.60766
1.61852
1.63089
1.64444
1.65914
1.67486
1.69125
1.70839
1.72686
1.74669
1.76804
1.79102
1.81565
1.84225
1.87129
14.492
22.2044
32.5723
45.4
60.0763
75.5419
90.2777
102.345
109.612
110.3
103.766
91.0185
74.4772
57.2686
42.7064
31.6736
23.5871
17.7945
13.718
10.8915
8.89783
7.61118
6.87009
6.51182
6.47347
6.75923
7.55499
9.21619
12.4918
19.3095
36.4189
99.8813
469.59
3114.28
3.90968
5.5029
9.23951
15.3233
3.0977
2.58152
2.23976
2.01071
1.8561
1.75212
1.68308
1.63846
1.61106
1.59663
1.59055
1.589
1.59265
1.59946
1.60868
1.61954
1.63191
1.64542
1.66007
1.67529
1.69124
1.70839
1.72685
1.74669
1.76804
1.79081
1.81533
1.84204
1.87122
23.8878
35.4526
50.0009
67.0267
85.5693
104.185
120.924
133.395
139.125
136.359
125.003
106.977
85.5692
64.4689
47.2277
34.4911
25.3404
18.8879
14.4018
11.3204
9.12959
7.74497
6.97658
6.60122
6.55156
6.82946
7.61423
9.26163
12.5174
19.3158
36.4853
100.783
477.176
3159.08
3.73019
5.15652
8.51217
15.4062
25.3935
2.98627
2.50722
2.18965
1.97677
1.83324
1.73693
1.67324
1.6324
1.60773
1.59516
1.59004
1.58899
1.59341
1.60028
1.60968
1.62054
1.63291
1.64638
1.66053
1.67528
1.69124
1.70839
1.72685
1.74669
1.76778
1.79038
1.815
1.84183
1.87114
38.2514
54.4987
73.8466
95.4499
117.987
139.608
157.882
169.902
172.886
165.313
147.928
123.756
96.979
71.7467
51.7348
37.2687
27.0538
19.9491
15.0618
11.6783
9.32809
7.89255
7.09378
6.69937
6.63698
6.90634
7.6792
9.31179
12.5469
19.3252
36.5732
101.779
485.604
3206.8
3.56155
4.84326
7.86457
14.1547
25.657
40.7614
2.8788
2.43533
2.14122
1.94403
1.81126
1.7224
1.66396
1.6269
1.60481
1.59391
1.58968
1.58911
1.59415
1.60112
1.61065
1.62153
1.63391
1.64686
1.66052
1.67528
1.69124
1.70839
1.72685
1.74638
1.76725
1.78994
1.81466
1.84161
1.87106
58.8468
80.4708
105.064
131.452
157.96
182.296
201.444
211.906
210.692
196.816
172.192
141.098
108.548
79.0181
56.186
39.987
28.7183
20.9737
15.6126
11.985
9.54757
8.05554
7.22291
6.80721
6.73048
6.99054
7.75052
9.36723
12.5803
19.3416
36.6706
102.953
495.005
3259.46
3.40139
4.55154
7.27141
13.002
23.7097
41.356
62.7437
2.77511
2.366
2.09455
1.91257
1.79022
1.70866
1.65548
1.62202
1.60226
1.59286
1.58943
1.58937
1.59486
1.60199
1.6116
1.62253
1.63439
1.64684
1.66052
1.67528
1.69124
1.70839
1.72651
1.74577
1.76671
1.78949
1.81431
1.84139
1.87098
86.8351
114.329
144.422
175.653
206.001
232.631
251.777
259.288
252.181
230.418
197.409
158.741
120.129
86.208
60.547
42.6302
30.3265
21.8288
16.0846
12.3244
9.79049
8.23575
7.36535
6.92581
6.83293
7.08279
7.82881
9.4285
12.6191
19.3607
36.8057
104.23
505.494
3314.75
3.24914
4.27776
6.71563
11.9215
21.8799
38.5161
63.8566
92.5165
2.67533
2.29939
2.04977
1.88248
1.77032
1.69607
1.64789
1.61767
1.60007
1.59198
1.58923
1.5898
1.59553
1.60289
1.61257
1.62302
1.63436
1.64684
1.66052
1.67528
1.69124
1.70801
1.72581
1.74514
1.76616
1.78903
1.81396
1.84116
1.8709
123.163
156.8
192.487
228.544
262.548
290.919
308.915
311.753
296.837
265.585
223.173
176.436
131.587
93.2544
64.7895
45.1858
31.6693
22.5618
16.6069
12.7003
10.0596
8.43522
7.52263
7.05637
6.94526
7.18389
7.9148
9.49641
12.6628
19.3924
36.9491
105.719
517.287
3386.48
3.10463
4.0215
6.19225
10.893
20.1262
35.8203
59.9181
94.3442
130.989
2.57962
2.23566
2.00699
1.85402
1.75204
1.68476
1.6411
1.61379
1.59821
1.59123
1.58899
1.59034
1.59622
1.60385
1.61302
1.62298
1.63435
1.64684
1.66052
1.67528
1.69083
1.70725
1.7251
1.7445
1.76559
1.78856
1.8136
1.84092
1.87081
168.491
208.364
249.679
290.563
328.022
357.397
372.739
368.814
344.006
301.739
249.086
193.953
142.812
100.106
68.8911
47.3203
32.8208
23.3729
17.1852
13.1169
10.3581
8.65624
7.69649
7.20022
7.06854
7.29472
8.00924
9.57146
12.7145
19.4266
37.1528
107.314
532.77
3471.41
2.96758
3.78328
5.70174
9.91144
18.4219
33.1997
56.1744
89.0815
133.694
178.722
2.48825
2.17497
1.9666
1.82792
1.73563
1.67461
1.63502
1.61033
1.5966
1.5906
1.5888
1.59096
1.597
1.6043
1.61294
1.62298
1.63435
1.64684
1.66052
1.67484
1.68999
1.70646
1.72437
1.74383
1.76501
1.78807
1.81322
1.84068
1.87073
223.185
269.32
316.368
362.189
402.871
432.23
442.948
429.795
392.933
338.281
274.778
211.102
153.711
106.723
72.3154
49.1508
34.095
24.2709
17.826
13.579
10.6895
8.90136
7.88886
7.35885
7.20394
7.41631
8.11303
9.65491
12.772
19.4816
37.3629
109.581
552.417
3555.77
2.83742
3.56425
5.24563
8.98208
16.7566
30.617
52.5083
84.1151
126.836
182.376
235.915
2.40153
2.11785
1.92962
1.80448
1.72087
1.6655
1.62958
1.60729
1.59523
1.59007
1.58876
1.59174
1.59731
1.60423
1.61293
1.62298
1.63435
1.64684
1.66005
1.67396
1.68914
1.70566
1.72362
1.74315
1.76441
1.78757
1.81284
1.84043
1.87064
287.383
339.913
393.013
444.033
487.612
515.494
519.036
493.841
442.792
374.638
299.93
227.726
164.214
112.238
75.2504
51.1763
35.5062
25.2663
18.5368
14.092
11.0574
9.17342
8.10189
7.53392
7.35275
7.5495
8.22685
9.74694
12.8412
19.5395
37.7164
112.37
574.417
3638
2.71391
3.36591
4.82515
8.10905
15.131
28.0545
48.8655
79.2489
120.465
173.56
240.438
302.48
2.32031
2.06569
1.89647
1.78343
1.70763
1.65734
1.62473
1.60462
1.59403
1.58972
1.58902
1.59209
1.59712
1.60424
1.61292
1.62298
1.63437
1.64636
1.65911
1.67305
1.68826
1.70483
1.72285
1.74246
1.7638
1.78706
1.81244
1.84017
1.87055
361.15
420.5
480.312
536.959
582.873
607.156
600.269
559.938
492.744
410.298
324.28
243.701
172.944
116.958
78.4951
53.4188
37.0703
26.3702
19.3256
14.6618
11.4664
9.47554
8.33795
7.72723
7.5164
7.69608
8.35253
9.85007
12.9175
19.6451
38.1498
115.701
597.955
3717.15
2.59815
3.18421
4.44071
7.29409
13.5575
25.5105
45.2141
74.4042
114.264
165.563
229.147
307.574
378.202
2.24659
2.01906
1.86677
1.76454
1.69574
1.65002
1.6204
1.60225
1.5931
1.58976
1.58901
1.59193
1.59708
1.60423
1.61293
1.623
1.63388
1.64539
1.65815
1.67212
1.68737
1.70398
1.72206
1.74174
1.76318
1.78653
1.81204
1.83991
1.87046
444.685
511.811
579.448
642.274
689.458
707.008
685.641
626.969
542.006
444.835
347.624
256.934
180.399
122.167
82.0834
55.903
38.8048
27.5952
20.2015
15.2948
11.9209
9.81116
8.59963
7.94077
7.69637
7.85544
8.49137
9.96376
13.0277
19.7804
38.73
119.344
623.795
3792.07
2.49306
3.01782
4.09381
6.54186
12.0536
22.996
41.542
69.5269
108.123
157.89
219.216
293.058
383.288
462.975
2.18106
1.97738
1.84017
1.74759
1.68508
1.64345
1.61652
1.6003
1.59273
1.58961
1.58864
1.59194
1.59708
1.60422
1.613
1.6225
1.63288
1.6444
1.65717
1.67116
1.68645
1.70312
1.72126
1.74101
1.76253
1.78599
1.81163
1.83965
1.87037
538.62
615.145
692.338
761.947
808.305
814.539
773.9
693.815
589.895
477.91
366.896
268.203
188.602
127.913
86.052
58.6556
40.7291
28.9552
21.1742
15.9982
12.426
10.184
8.88972
8.17666
7.89475
8.02926
8.64379
10.1153
13.1678
19.9693
39.3779
123.53
651.865
3861.55
2.39981
2.86865
3.78589
5.85864
10.6359
20.5293
37.8524
64.5845
101.956
150.394
209.894
280.743
364.45
467.162
557.139
2.1228
1.94013
1.81634
1.73239
1.67548
1.63753
1.61325
1.5992
1.59232
1.58916
1.58861
1.59193
1.59709
1.60427
1.61253
1.62148
1.63186
1.64339
1.65616
1.67019
1.6855
1.70222
1.72043
1.74025
1.76187
1.78544
1.81122
1.8394
1.87028
644.125
732.726
822.172
898.719
940.246
928.844
863.651
759.425
635.85
505.156
383.263
280.561
197.62
134.25
90.4402
61.7055
42.8643
30.4653
22.2547
16.7796
12.9873
10.5979
9.21117
8.43713
8.11343
8.21875
8.84258
10.304
13.3328
20.1863
40.1508
128.428
682.025
3924.6
2.31734
2.73609
3.52263
5.25204
9.32512
18.1327
34.1593
59.5617
95.6991
142.945
200.987
269.507
349.101
442.376
559.227
661.938
2.07098
1.90688
1.795
1.71871
1.66682
1.63247
1.61113
1.59832
1.59171
1.58913
1.5886
1.5919
1.59726
1.6038
1.61154
1.62048
1.63082
1.64236
1.65512
1.66919
1.68454
1.70131
1.71958
1.73948
1.7612
1.78489
1.81082
1.83916
1.8702
763.468
868.986
974.079
1055.83
1085.76
1048.72
953.462
822.873
673.717
528.245
401.148
294.09
207.523
141.231
95.2896
65.0842
45.2332
32.1421
23.4547
17.6474
13.6106
11.0572
9.56702
8.72468
8.35377
8.464
9.08663
10.5072
13.5147
20.4492
41.1046
133.802
715.646
3979.44
2.24452
2.61765
3.30545
4.7346
8.14255
15.8307
30.4853
54.4552
89.3053
135.438
192.312
259.099
335.559
423.095
526.008
660.538
780.041
2.02485
1.87718
1.77583
1.70637
1.65934
1.62899
1.60963
1.59747
1.59169
1.58912
1.5886
1.59204
1.59693
1.60281
1.61058
1.61946
1.62976
1.6413
1.65407
1.66816
1.68356
1.70037
1.71872
1.73869
1.76053
1.78436
1.81044
1.83892
1.87012
901.951
1031.92
1154.93
1236.94
1245.29
1172.9
1041.88
875.421
705.789
553.401
420.642
308.868
218.375
148.912
100.644
68.8244
47.8601
34.003
24.7867
18.6104
14.3018
11.5659
9.9605
9.04126
8.66679
8.76381
9.34156
10.7223
13.7194
20.7775
42.1405
140.45
750.788
4026.03
2.18025
2.51211
3.12159
4.30378
7.11693
13.6713
26.8621
49.2736
82.7375
127.781
183.711
249.262
323.485
406.686
501.619
614.961
773.656
916.655
1.9838
1.8506
1.75856
1.69569
1.654
1.62668
1.60847
1.59746
1.59167
1.5891
1.58892
1.59166
1.59612
1.6019
1.60959
1.61844
1.62867
1.64023
1.65299
1.66711
1.68255
1.69941
1.71783
1.73791
1.75989
1.78385
1.81006
1.83869
1.87004
1068.59
1232.82
1374.21
1447.53
1420.14
1299.65
1116.02
920.012
740.676
580.712
441.821
324.966
230.241
157.346
106.546
72.9602
50.7707
36.0667
26.2639
19.6778
15.0671
12.1285
10.3941
9.4542
9.05097
9.07471
9.60594
10.9511
13.9547
21.1368
43.5103
147.604
791.127
4057.88
2.12347
2.41852
2.96288
3.94803
6.25506
11.7404
23.3571
44.0398
75.9691
119.886
175.037
239.776
312.518
392.678
481.601
583.985
709.73
902.926
1082.25
1.94717
1.82673
1.74356
1.68785
1.65056
1.62517
1.60845
1.59743
1.59164
1.5895
1.58889
1.59085
1.59542
1.60101
1.60858
1.6174
1.62757
1.63913
1.65189
1.66603
1.68152
1.69843
1.71696
1.73716
1.75926
1.78335
1.8097
1.83847
1.86997
1278.67
1490.14
1649.55
1698.84
1611.7
1408.28
1179.26
968.539
778.45
610.236
464.739
342.436
243.175
166.583
113.039
77.5257
53.991
38.3524
27.8999
20.8589
15.9128
12.7485
10.9601
9.96119
9.44906
9.39544
9.87952
11.1961
14.2089
21.612
44.9503
156.608
835.445
4081.11
2.07315
2.33597
2.82359
3.6551
5.54031
10.0781
20.1072
38.8307
68.9891
111.669
166.137
230.428
302.36
380.547
465.284
559.434
670.396
812.385
1057.47
1292.47
1.9144
1.806
1.73231
1.68296
1.64859
1.62516
1.60842
1.59738
1.59218
1.58961
1.58859
1.5902
1.59472
1.60015
1.60755
1.61635
1.62644
1.63801
1.65078
1.66493
1.68047
1.69746
1.71611
1.73642
1.75865
1.78287
1.80935
1.83825
1.86989
1564.42
1848.73
2019.12
2012.64
1780.26
1501.41
1248.16
1020.99
819.108
641.981
489.418
361.315
257.217
176.667
120.162
82.5543
57.547
40.8795
29.7085
22.1631
16.8444
13.5574
11.6544
10.486
9.85847
9.72473
10.1624
11.4532
14.5121
22.1119
46.8617
166.582
884.046
4087.06
2.02836
2.26329
2.69985
3.41686
4.95294
8.6758
17.1977
33.8418
61.8576
103.053
156.85
220.995
292.722
369.892
451.871
540.343
640.213
762.674
928.777
1260.43
1588.85
1.88592
1.79022
1.72539
1.68043
1.64861
1.62513
1.60835
1.59814
1.59254
1.58953
1.58861
1.58964
1.594
1.5993
1.6065
1.61529
1.6253
1.63685
1.64964
1.6638
1.67944
1.69652
1.71529
1.73571
1.75806
1.7824
1.809
1.83804
1.86982
2030.83
2409.34
2589.8
2291.13
1923.96
1602.42
1322.36
1077.19
862.558
675.897
515.839
381.605
272.391
187.63
127.951
88.076
61.4633
43.6665
31.7032
23.5988
18.0591
14.5486
12.3721
11.0245
10.2763
10.0612
10.4523
11.7328
14.8334
22.7745
48.9516
179.381
935.704
4082.99
1.98951
2.19929
2.58945
3.22003
4.47271
7.5031
14.633
29.2225
54.8123
94.0417
147.008
211.233
283.313
360.333
440.826
525.452
617.817
725.612
865.863
1072.65
1563.28
2127.17
1.86391
1.78073
1.72215
1.68049
1.64856
1.62502
1.60941
1.59896
1.59288
1.58986
1.58876
1.58917
1.59324
1.59849
1.60544
1.61421
1.62414
1.63567
1.64849
1.66269
1.67844
1.69561
1.71449
1.73502
1.75748
1.78194
1.80867
1.83784
1.86975
2858.33
3530.78
3058.59
2519.02
2075.81
1709.59
1401.13
1136.79
908.599
711.863
543.933
403.278
288.697
199.491
136.429
94.1163
65.7618
46.7307
33.8953
25.4696
19.546
15.5723
13.1074
11.5724
10.6997
10.4025
10.7523
12.0247
15.2219
23.4885
51.5902
194.288
990.302
4070.7
1.95914
2.14427
2.49119
3.05306
4.08289
6.53386
12.4191
25.0119
48.0647
84.8704
136.514
200.868
273.809
351.506
431.649
514.038
601.192
699.315
820.604
992.226
1276.85
2144.5
3274.1
1.85078
1.77667
1.72225
1.68043
1.64841
1.6264
1.61083
1.60002
1.59378
1.59035
1.58897
1.58886
1.59246
1.5977
1.60438
1.6131
1.62299
1.63446
1.64736
1.66162
1.67747
1.69473
1.71371
1.73435
1.75692
1.7815
1.80835
1.83764
1.86972
4921.67
4238.55
3391.4
2741.26
2230.72
1820.99
1483.49
1199.29