/*--------------------------------*- C++ -*----------------------------------*\
  =========                 |
  \\      /  F ield         | OpenFOAM: The Open Source CFD Toolbox
   \\    /   O peration     | Website:  https://openfoam.org
    \\  /    A nd           | Version:  8
     \\/     M anipulation  |
\*---------------------------------------------------------------------------*/
FoamFile
{
    version     2.0;
    format      ascii;
    class       volVectorField;
    location    "0.25";
    object      U;
}
// * * * * * * * * * * * * * * * * * * * * * * * * * * * * * * * * * * * * * //

dimensions      [0 1 -1 0 0 0 0];

internalField   nonuniform List<vector> 
15677
(
(-0.0199318 9.66506 0)
(0.043576 9.92084 0)
(0.00238172 9.378 0)
(0.0147397 9.97646 0)
(0.0186128 9.78773 0)
(0.00701847 9.14233 0)
(0.0279654 9.99432 0)
(0.0171085 9.92478 0)
(0.0107318 9.65494 0)
(0.00608127 8.96007 0)
(0.0261136 10.0015 0)
(0.0215054 9.97852 0)
(0.0163922 9.85338 0)
(0.00901669 9.53031 0)
(0.00490548 8.81683 0)
(0.0249611 10.0047 0)
(0.0223793 10.0026 0)
(0.0191796 9.94287 0)
(0.0153657 9.77927 0)
(0.00787825 9.4195 0)
(0.00403404 8.70239 0)
(0.0239855 10.0062 0)
(0.022557 10.0142 0)
(0.0207906 9.98606 0)
(0.0182738 9.90235 0)
(0.0138888 9.70792 0)
(0.00680269 9.32152 0)
(0.00336413 8.61021 0)
(0.022647 10.0067 0)
(0.0223954 10.0199 0)
(0.0216177 10.0081 0)
(0.0201714 9.96494 0)
(0.0170315 9.86188 0)
(0.0124518 9.64088 0)
(0.00585107 9.23643 0)
(0.00280264 8.53631 0)
(0.0209643 10.0066 0)
(0.0218568 10.0223 0)
(0.0219426 10.0195 0)
(0.0212612 9.99807 0)
(0.0190669 9.94375 0)
(0.0156353 9.82245 0)
(0.011081 9.57975 0)
(0.0049708 9.16428 0)
(0.00228544 8.47794 0)
(0.0190498 10.0063 0)
(0.0210216 10.0225 0)
(0.0218367 10.0254 0)
(0.0217587 10.0162 0)
(0.0202356 9.98822 0)
(0.0176896 9.92299 0)
(0.0141547 9.78556 0)
(0.00968396 9.52595 0)
(0.00410449 9.10485 0)
(0.00177432 8.4336 0)
(0.0169797 10.0057 0)
(0.0199635 10.0217 0)
(0.021385 10.0284 0)
(0.0217856 10.0262 0)
(0.0207777 10.0132 0)
(0.0188319 9.97883 0)
(0.0161296 9.90386 0)
(0.0125221 9.7527 0)
(0.00819754 9.48045 0)
(0.00320693 9.05789 0)
(0.0012403 8.40231 0)
(0.0147775 10.0051 0)
(0.0186697 10.0202 0)
(0.0206262 10.0291 0)
(0.021463 10.0317 0)
(0.0208225 10.0274 0)
(0.0192868 10.0106 0)
(0.0171452 9.97089 0)
(0.0143048 9.88756 0)
(0.0106734 9.72502 0)
(0.00657271 9.44403 0)
(0.00223747 9.02337 0)
(0.000661244 8.38377 0)
(0.0124647 10.0044 0)
(0.0172409 10.0183 0)
(0.0195699 10.0285 0)
(0.0207953 10.0341 0)
(0.0204294 10.0355 0)
(0.0192056 10.0291 0)
(0.0174133 10.0095 0)
(0.0150811 9.96543 0)
(0.0121352 9.87509 0)
(0.00854907 9.70357 0)
(0.00475883 9.4174 0)
(0.00116245 9.00133 0)
(-8.93558e-06 8.37777 0)
(0.0101912 10.0036 0)
(0.0157473 10.016 0)
(0.0182598 10.0268 0)
(0.0198064 10.0345 0)
(0.0197058 10.0396 0)
(0.0186716 10.0399 0)
(0.0170931 10.0322 0)
(0.0150445 10.0107 0)
(0.012544 9.96336 0)
(0.00954451 9.86742 0)
(0.00608475 9.6894 0)
(0.00270907 9.40123 0)
(-1.93862e-05 8.99192 0)
(-0.000653239 8.38429 0)
(0.00824163 10.0029 0)
(0.0141434 10.0136 0)
(0.0167468 10.0244 0)
(0.0185083 10.0335 0)
(0.0186372 10.0412 0)
(0.017744 10.0458 0)
(0.0162759 10.0456 0)
(0.0143549 10.0375 0)
(0.0120659 10.0151 0)
(0.00943746 9.96551 0)
(0.00645015 9.86556 0)
(0.00321788 9.68348 0)
(0.000372236 9.39615 0)
(-0.0013886 8.99547 0)
(-0.00142565 8.40345 0)
(0.00668586 10.0023 0)
(0.0125918 10.0113 0)
(0.0150598 10.0216 0)
(0.0169142 10.0314 0)
(0.0172307 10.0408 0)
(0.0164341 10.0485 0)
(0.0150069 10.0533 0)
(0.0131047 10.0535 0)
(0.0108563 10.0458 0)
(0.00835973 10.0234 0)
(0.00565525 9.97281 0)
(0.00276959 9.87048 0)
(-0.00014475 9.68677 0)
(-0.00228212 9.40279 0)
(-0.00293881 9.01214 0)
(-0.00230288 8.43553 0)
(0.0055297 10.0018 0)
(0.0111912 10.0093 0)
(0.0134027 10.0189 0)
(0.0150514 10.0286 0)
(0.0154911 10.0391 0)
(0.0147476 10.0489 0)
(0.0133027 10.0571 0)
(0.011336 10.0628 0)
(0.00900495 10.0643 0)
(0.00645599 10.058 0)
(0.00379512 10.0366 0)
(0.00109727 9.98616 0)
(-0.0015602 9.88318 0)
(-0.00394473 9.70011 0)
(-0.00527387 9.42168 0)
(-0.00467199 9.04218 0)
(-0.0032786 8.48059 0)
(0.0045632 10.0014 0)
(0.00981054 10.0077 0)
(0.0118989 10.0164 0)
(0.013165 10.0256 0)
(0.0134323 10.0363 0)
(0.0126871 10.0476 0)
(0.0111663 10.0582 0)
(0.00906254 10.0677 0)
(0.00654984 10.0751 0)
(0.00380955 10.0788 0)
(0.000996923 10.0748 0)
(-0.00175861 10.0555 0)
(-0.00435206 10.0065 0)
(-0.00664324 9.90457 0)
(-0.00831886 9.72431 0)
(-0.00864518 9.45326 0)
(-0.00659844 9.08566 0)
(-0.00434898 8.53869 0)
(0.00377822 10.0011 0)
(0.00857266 10.0064 0)
(0.0104721 10.0143 0)
(0.011422 10.0229 0)
(0.0113112 10.0331 0)
(0.0102622 10.0449 0)
(0.00859747 10.0572 0)
(0.00628386 10.0694 0)
(0.00349904 10.081 0)
(0.000450844 10.091 0)
(-0.0026705 10.0977 0)
(-0.00569122 10.097 0)
(-0.00844284 10.0809 0)
(-0.010783 10.0346 0)
(-0.0125214 9.93551 0)
(-0.0132936 9.75998 0)
(-0.0124111 9.4978 0)
(-0.00872521 9.14271 0)
(-0.00551217 8.60968 0)
(0.0031396 10.0009 0)
(0.00745662 10.0053 0)
(0.00916387 10.0124 0)
(0.00978201 10.0204 0)
(0.00932337 10.03 0)
(0.00776507 10.0414 0)
(0.00560441 10.0546 0)
(0.00299704 10.0687 0)
(-0.000152134 10.0832 0)
(-0.00361992 10.0977 0)
(-0.00718637 10.1112 0)
(-0.0106373 10.1218 0)
(-0.0137617 10.1254 0)
(-0.0163651 10.1136 0)
(-0.0182629 10.0715 0)
(-0.0192296 9.97671 0)
(-0.018874 9.80763 0)
(-0.0165688 9.55547 0)
(-0.0110405 9.21308 0)
(-0.00675719 8.69324 0)
(0.00261552 10.0007 0)
(0.00644833 10.0045 0)
(0.00795981 10.0108 0)
(0.00826029 10.0182 0)
(0.0074432 10.0271 0)
(0.00542673 10.038 0)
(0.00254163 10.0509 0)
(-0.000786861 10.066 0)
(-0.00440616 10.0826 0)
(-0.00841279 10.1003 0)
(-0.0125586 10.1185 0)
(-0.0165959 10.1364 0)
(-0.0202759 10.152 0)
(-0.0233594 10.1609 0)
(-0.02562 10.1545 0)
(-0.0268465 10.1177 0)
(-0.0267868 10.0288 0)
(-0.0250539 9.86752 0)
(-0.0211047 9.62622 0)
(-0.013537 9.29661 0)
(-0.00807661 8.78893 0)
(0.00219972 10.0006 0)
(0.00554169 10.0038 0)
(0.00685478 10.0095 0)
(0.00685953 10.0162 0)
(0.00569018 10.0243 0)
(0.00322145 10.0345 0)
(-0.00031041 10.0469 0)
(-0.00462441 10.0619 0)
(-0.00924979 10.0797 0)
(-0.0139325 10.0997 0)
(-0.0188075 10.1213 0)
(-0.0235932 10.1442 0)
(-0.0280043 10.1675 0)
(-0.0317636 10.189 0)
(-0.0346031 10.2042 0)
(-0.0362784 10.2042 0)
(-0.0365593 10.1739 0)
(-0.0351879 10.0921 0)
(-0.0318112 9.93979 0)
(-0.0259898 9.70986 0)
(-0.016184 9.39266 0)
(-0.00944884 8.89593 0)
(0.00188093 10.0005 0)
(0.00476772 10.0032 0)
(0.00584679 10.0083 0)
(0.00558188 10.0144 0)
(0.0040774 10.0218 0)
(0.00117496 10.0312 0)
(-0.0029832 10.0429 0)
(-0.00817795 10.0574 0)
(-0.0141238 10.075 0)
(-0.0201623 10.0963 0)
(-0.0259415 10.1205 0)
(-0.0316603 10.147 0)
(-0.0369932 10.1756 0)
(-0.0416225 10.2052 0)
(-0.045245 10.2335 0)
(-0.0475798 10.2559 0)
(-0.0483728 10.2633 0)
(-0.0473942 10.2406 0)
(-0.0444026 10.1668 0)
(-0.0391011 10.0243 0)
(-0.0311813 9.80591 0)
(-0.018961 9.50066 0)
(-0.0108562 9.01352 0)
(0.00163349 10.0005 0)
(0.00414053 10.0028 0)
(0.00497107 10.0073 0)
(0.00442721 10.0128 0)
(0.002613 10.0195 0)
(-0.000691758 10.0281 0)
(-0.00544325 10.0389 0)
(-0.0114898 10.0526 0)
(-0.0186105 10.0697 0)
(-0.0263874 10.0908 0)
(-0.0339383 10.1164 0)
(-0.0408105 10.1457 0)
(-0.0472886 10.1782 0)
(-0.0530079 10.2134 0)
(-0.0576249 10.2502 0)
(-0.0608273 10.2863 0)
(-0.0623325 10.3167 0)
(-0.0618971 10.3323 0)
(-0.0593098 10.3178 0)
(-0.0543678 10.253 0)
(-0.0468596 10.1207 0)
(-0.0366253 9.91377 0)
(-0.0218102 9.61957 0)
(-0.0122593 9.14009 0)
(0.001438 10.0004 0)
(0.00363363 10.0025 0)
(0.00424642 10.0065 0)
(0.00343737 10.0113 0)
(0.00130111 10.0174 0)
(-0.00236616 10.0251 0)
(-0.00766437 10.035 0)
(-0.0145146 10.0477 0)
(-0.0227677 10.0639 0)
(-0.0320873 10.0845 0)
(-0.0418855 10.1099 0)
(-0.0510153 10.1407 0)
(-0.0589112 10.1762 0)
(-0.0659866 10.2156 0)
(-0.0718477 10.2583 0)
(-0.0761438 10.3032 0)
(-0.0785675 10.3477 0)
(-0.0788571 10.3868 0)
(-0.0767994 10.4113 0)
(-0.0722267 10.4057 0)
(-0.0649976 10.3504 0)
(-0.0550002 10.2284 0)
(-0.0422102 10.0325 0)
(-0.0246213 9.74811 0)
(-0.0132185 9.27393 0)
(0.00128122 10.0004 0)
(0.00322136 10.0022 0)
(0.0036495 10.0058 0)
(0.00263282 10.0102 0)
(0.000193713 10.0154 0)
(-0.00384287 10.0223 0)
(-0.00962855 10.0312 0)
(-0.0172181 10.0428 0)
(-0.0265384 10.0579 0)
(-0.0373422 10.0774 0)
(-0.0491322 10.1022 0)
(-0.0611159 10.1328 0)
(-0.0718268 10.17 0)
(-0.0805912 10.2126 0)
(-0.0880074 10.2598 0)
(-0.093674 10.3109 0)
(-0.0972514 10.3647 0)
(-0.0984638 10.4183 0)
(-0.0970948 10.4667 0)
(-0.0929877 10.5004 0)
(-0.0860326 10.5042 0)
(-0.0761692 10.4585 0)
(-0.0633813 10.3468 0)
(-0.0478858 10.161 0)
(-0.0274088 9.886 0)
(-0.0142918 9.41503 0)
(0.00115382 10.0003 0)
(0.00288444 10.002 0)
(0.00316 10.0053 0)
(0.00198241 10.0092 0)
(-0.000686132 10.0138 0)
(-0.00506182 10.0197 0)
(-0.011325 10.0276 0)
(-0.0195753 10.038 0)
(-0.0298782 10.0518 0)
(-0.0420817 10.07 0)
(-0.0557879 10.0936 0)
(-0.0703 10.1235 0)
(-0.0845771 10.1603 0)
(-0.0967834 10.2048 0)
(-0.106152 10.2557 0)
(-0.113545 10.3116 0)
(-0.11858 10.3719 0)
(-0.120957 10.4351 0)
(-0.120459 10.4984 0)
(-0.11694 10.5564 0)
(-0.110319 10.5995 0)
(-0.100571 10.6127 0)
(-0.0877079 10.5766 0)
(-0.0718507 10.4746 0)
(-0.0527613 10.2985 0)
(-0.0237971 10.0267 0)
(-0.00931493 9.50072 0)
(0.00104899 10.0003 0)
(0.0026061 10.0018 0)
(0.00274886 10.0048 0)
(0.00145504 10.0083 0)
(-0.00137749 10.0124 0)
(-0.00600304 10.0175 0)
(-0.0126854 10.0242 0)
(-0.0215693 10.0333 0)
(-0.0327534 10.0457 0)
(-0.0462486 10.0623 0)
(-0.0617654 10.0843 0)
(-0.0787136 10.1129 0)
(-0.0961504 10.1489 0)
(-0.112742 10.193 0)
(-0.12624 10.2459 0)
(-0.135831 10.3059 0)
(-0.142727 10.3714 0)
(-0.14659 10.4416 0)
(-0.147196 10.5148 0)
(-0.144419 10.588 0)
(-0.138216 10.6557 0)
(-0.128604 10.7083 0)
(-0.115624 10.7308 0)
(-0.0994004 10.7039 0)
(-0.0798261 10.6111 0)
(-0.0574623 10.4418 0)
(-0.0194598 10.1983 0)
(-0.00148888 9.56667 0)
(0.000961764 10.0003 0)
(0.0023757 10.0017 0)
(0.00240601 10.0044 0)
(0.00103208 10.0076 0)
(-0.00191988 10.0112 0)
(-0.00671618 10.0156 0)
(-0.0136966 10.0212 0)
(-0.0231201 10.0288 0)
(-0.0351399 10.0396 0)
(-0.0497981 10.0545 0)
(-0.0669921 10.0747 0)
(-0.0862494 10.1014 0)
(-0.106738 10.1359 0)
(-0.127216 10.1791 0)
(-0.14603 10.2316 0)
(-0.160496 10.2939 0)
(-0.169795 10.364 0)
(-0.175584 10.4398 0)
(-0.177626 10.5203 0)
(-0.175814 10.6038 0)
(-0.170146 10.687 0)
(-0.160701 10.7643 0)
(-0.147584 10.8263 0)
(-0.130932 10.8577 0)
(-0.110712 10.8394 0)
(-0.0868306 10.7549 0)
(-0.0612383 10.599 0)
(-0.0214114 10.3716 0)
(0.00255463 9.62419 0)
(0.000888514 10.0002 0)
(0.00218395 10.0016 0)
(0.00212018 10.0041 0)
(0.000688855 10.007 0)
(-0.00234295 10.0102 0)
(-0.00725022 10.0139 0)
(-0.0144247 10.0186 0)
(-0.0242229 10.0249 0)
(-0.0369418 10.0338 0)
(-0.0526973 10.0467 0)
(-0.0714092 10.0648 0)
(-0.092815 10.0894 0)
(-0.116207 10.1218 0)
(-0.140454 10.1632 0)
(-0.163985 10.2147 0)
(-0.184802 10.2766 0)
(-0.199751 10.3494 0)
(-0.208083 10.4304 0)
(-0.212041 10.5171 0)
(-0.21153 10.6083 0)
(-0.206596 10.7021 0)
(-0.197387 10.7952 0)
(-0.184103 10.8819 0)
(-0.166956 10.9527 0)
(-0.145996 10.9924 0)
(-0.121102 10.9825 0)
(-0.0924109 10.9068 0)
(-0.0626799 10.7689 0)
(-0.0247606 10.5419 0)
(0.00347446 9.68134 0)
(0.000826546 10.0002 0)
(0.00202337 10.0015 0)
(0.00188533 10.0038 0)
(0.000408275 10.0065 0)
(-0.00267291 10.0093 0)
(-0.00764453 10.0125 0)
(-0.0149332 10.0164 0)
(-0.024967 10.0214 0)
(-0.0381655 10.0286 0)
(-0.0548291 10.0392 0)
(-0.0749719 10.0548 0)
(-0.0983343 10.0769 0)
(-0.124443 10.1068 0)
(-0.152293 10.1459 0)
(-0.180414 10.1955 0)
(-0.206871 10.2563 0)
(-0.229298 10.3288 0)
(-0.244084 10.4129 0)
(-0.250644 10.5055 0)
(-0.251939 10.6035 0)
(-0.248066 10.7055 0)
(-0.239256 10.8096 0)
(-0.225816 10.9123 0)
(-0.20808 11.0078 0)
(-0.186262 11.0868 0)
(-0.160385 11.1345 0)
(-0.130763 11.1326 0)
(-0.0975959 11.067 0)
(-0.0644847 10.9462 0)
(-0.0275155 10.7078 0)
(0.00309836 9.75537 0)
(0.000773787 10.0002 0)
(0.00188809 10.0014 0)
(0.00168958 10.0036 0)
(0.00017545 10.006 0)
(-0.00292983 10.0085 0)
(-0.0079307 10.0113 0)
(-0.0152731 10.0144 0)
(-0.025436 10.0184 0)
(-0.0389307 10.024 0)
(-0.0562145 10.0324 0)
(-0.0775359 10.0451 0)
(-0.102747 10.0642 0)
(-0.131346 10.0912 0)
(-0.162587 10.1274 0)
(-0.195122 10.1744 0)
(-0.227096 10.2332 0)
(-0.256173 10.3046 0)
(-0.279651 10.3885 0)
(-0.293466 10.4848 0)
(-0.297318 10.5895 0)
(-0.295021 10.699 0)
(-0.286909 10.8118 0)
(-0.273426 10.9258 0)
(-0.255047 11.0376 0)
(-0.232194 11.1414 0)
(-0.20512 11.2281 0)
(-0.174256 11.2834 0)
(-0.140379 11.2892 0)
(-0.103605 11.2343 0)
(-0.0671311 11.1258 0)
(-0.0303727 10.8884 0)
(0.00201406 9.84037 0)
(0.000728594 10.0002 0)
(0.00177351 10.0013 0)
(0.00152439 10.0034 0)
(-1.56343e-05 10.0056 0)
(-0.00312981 10.0079 0)
(-0.00813369 10.0102 0)
(-0.0154849 10.0127 0)
(-0.0256968 10.0157 0)
(-0.0393474 10.02 0)
(-0.0570116 10.0264 0)
(-0.0791387 10.0364 0)
(-0.105874 10.0518 0)
(-0.136838 10.0752 0)
(-0.171211 10.1081 0)
(-0.207926 10.1518 0)
(-0.245236 10.2077 0)
(-0.28086 10.277 0)
(-0.312075 10.36 0)
(-0.335865 10.4563 0)
(-0.347742 10.5654 0)
(-0.347821 10.6825 0)
(-0.340919 10.8035 0)
(-0.32765 10.9269 0)
(-0.308684 11.0503 0)
(-0.284649 11.1705 0)
(-0.256076 11.282 0)
(-0.223556 11.3759 0)
(-0.18797 11.4382 0)
(-0.150308 11.4511 0)
(-0.110395 11.4058 0)
(-0.0710377 11.3262 0)
(-0.0333861 11.0838 0)
(0.000314085 9.93445 0)
(0.000689698 10.0002 0)
(0.00167594 10.0012 0)
(0.00138467 10.0032 0)
(-0.000172297 10.0053 0)
(-0.00328477 10.0073 0)
(-0.00827307 10.0092 0)
(-0.0156004 10.0112 0)
(-0.0258026 10.0134 0)
(-0.0395037 10.0164 0)
(-0.0573648 10.021 0)
(-0.0799876 10.0285 0)
(-0.107769 10.0406 0)
(-0.140691 10.0596 0)
(-0.17806 10.0881 0)
(-0.218667 10.128 0)
(-0.261068 10.1803 0)
(-0.303065 10.2466 0)
(-0.341948 10.3275 0)
(-0.374627 10.4231 0)
(-0.3978 10.5325 0)
(-0.406616 10.6548 0)
(-0.401759 10.7846 0)
(-0.389191 10.9169 0)
(-0.36983 11.0502 0)
(-0.34458 11.1825 0)
(-0.314244 11.3105 0)
(-0.279648 11.429 0)
(-0.241779 11.5293 0)
(-0.201773 11.5976 0)
(-0.160459 11.6162 0)
(-0.118216 11.6 0)
(-0.0758575 11.546 0)
(-0.0365619 11.2746 0)
(-0.00158675 10.0357 0)
(0.000656415 10.0002 0)
(0.00159216 10.0012 0)
(0.00126591 10.0031 0)
(-0.00030126 10.005 0)
(-0.00340437 10.0068 0)
(-0.00836415 10.0084 0)
(-0.0156446 10.0098 0)
(-0.0257947 10.0113 0)
(-0.0394691 10.0132 0)
(-0.0573894 10.0163 0)
(-0.08027 10.0216 0)
(-0.108702 10.0306 0)
(-0.14298 10.0453 0)
(-0.182845 10.0686 0)
(-0.22721 10.1033 0)
(-0.274391 10.1514 0)
(-0.322514 10.2138 0)
(-0.368918 10.2915 0)
(-0.410463 10.3852 0)
(-0.443715 10.4943 0)
(-0.465165 10.6174 0)
(-0.469673 10.7532 0)
(-0.45865 10.8954 0)
(-0.439332 11.0386 0)
(-0.412966 11.1814 0)
(-0.38071 11.3218 0)
(-0.343658 11.4568 0)
(-0.302994 11.5815 0)
(-0.259962 11.6872 0)
(-0.215631 11.7598 0)
(-0.171629 11.8032 0)
(-0.126741 11.8152 0)
(-0.0810023 11.7614 0)
(-0.0396562 11.4602 0)
(-0.00341681 10.1417 0)
(0.00151922 10.0011 0)
(0.000616777 10.0002 0)
(0.00116369 10.0029 0)
(-0.000407914 10.0047 0)
(-0.00349604 10.0063 0)
(-0.00841874 10.0076 0)
(-0.0156369 10.0087 0)
(-0.0257055 10.0095 0)
(-0.0392979 10.0105 0)
(-0.0571763 10.0121 0)
(-0.0801359 10.0154 0)
(-0.108913 10.0216 0)
(-0.144046 10.0325 0)
(-0.185661 10.0507 0)
(-0.233186 10.0791 0)
(-0.285029 10.1213 0)
(-0.338958 10.179 0)
(-0.392651 10.2526 0)
(-0.44296 10.3431 0)
(-0.486338 10.4505 0)
(-0.519069 10.5738 0)
(-0.537535 10.7111 0)
(-0.536393 10.8605 0)
(-0.517938 11.0148 0)
(-0.490809 11.1683 0)
(-0.456603 11.3198 0)
(-0.416801 11.4675 0)
(-0.372846 11.6085 0)
(-0.326167 11.7383 0)
(-0.278033 11.8477 0)
(-0.230872 11.9429 0)
(-0.183584 12.0109 0)
(-0.134997 12.0279 0)
(-0.0861298 11.9712 0)
(-0.0425343 11.6402 0)
(-0.00517253 10.2504 0)
(0.00107456 10.0028 0)
(0.00143569 10.0011 0)
(0.000569468 10.0002 0)
(-0.000497373 10.0045 0)
(-0.00356582 10.0059 0)
(-0.00844574 10.007 0)
(-0.0155921 10.0076 0)
(-0.02556 10.0079 0)
(-0.0390321 10.008 0)
(-0.0567964 10.0085 0)
(-0.0797033 10.0099 0)
(-0.108596 10.0136 0)
(-0.144198 10.021 0)
(-0.186936 10.0345 0)
(-0.236704 10.0569 0)
(-0.292513 10.0917 0)
(-0.35217 10.1426 0)
(-0.412836 10.2111 0)
(-0.471713 10.2973 0)
(-0.52518 10.4018 0)
(-0.569334 10.5239 0)
(-0.600268 10.662 0)
(-0.614361 10.8136 0)
(-0.606165 10.9764 0)
(-0.579027 11.1423 0)
(-0.543098 11.3053 0)
(-0.500368 11.4646 0)
(-0.452676 11.6185 0)
(-0.401732 11.7646 0)
(-0.349027 11.8977 0)
(-0.297802 12.0288 0)
(-0.24707 12.146 0)
(-0.194977 12.217 0)
(-0.1428 12.2361 0)
(-0.0910027 12.1741 0)
(-0.0451271 11.8138 0)
(-0.00680908 10.36 0)
(-0.000576237 10.0043 0)
(0.000983109 10.0027 0)
(0.0013346 10.001 0)
(0.000524408 10.0001 4.22591e-20)
(-0.00361991 10.0056 0)
(-0.00845227 10.0064 0)
(-0.0155212 10.0067 0)
(-0.0253771 10.0065 0)
(-0.0387042 10.0059 0)
(-0.0563043 10.0052 0)
(-0.0790644 10.0051 0)
(-0.107902 10.0065 0)
(-0.143679 10.0108 0)
(-0.187056 10.02 0)
(-0.238295 10.0368 0)
(-0.296961 10.0643 0)
(-0.361553 10.1066 0)
(-0.429186 10.1676 0)
(-0.496341 10.2485 0)
(-0.55976 10.3487 0)
(-0.61539 10.4681 0)
(-0.659049 10.6056 0)
(-0.686748 10.759 0)
(-0.694988 10.9249 0)
(-0.678326 11.1005 0)
(-0.641313 11.2773 0)
(-0.595726 11.449 0)
(-0.543955 11.6149 0)
(-0.488137 11.774 0)
(-0.43011 11.9235 0)
(-0.373917 12.0778 0)
(-0.318723 12.2297 0)
(-0.26233 12.3475 0)
(-0.205653 12.4193 0)
(-0.149997 12.4382 0)
(-0.0955013 12.3692 0)
(-0.0474059 11.9808 0)
(-0.00829397 10.4689 0)
(-0.00366829 10.0053 0)
(-0.00063955 10.004 0)
(0.000880026 10.0025 1.92317e-19)
(0.00123563 10.0009 -1.33981e-19)
(0.000481525 10.0001 -8.29455e-20)
(-0.00844533 10.0059 0)
(-0.0154326 10.0059 0)
(-0.0251707 10.0052 0)
(-0.0383385 10.004 0)
(-0.055742 10.0023 0)
(-0.07829 10.0008 0)
(-0.106951 10.0002 0)
(-0.142685 10.0017 0)
(-0.186329 10.0071 0)
(-0.238436 10.0187 0)
(-0.299016 10.0395 0)
(-0.36722 10.0734 0)
(-0.440943 10.1245 0)
(-0.516482 10.1971 0)
(-0.589618 10.2917 0)
(-0.656673 10.4071 0)
(-0.713226 10.5424 0)
(-0.754923 10.696 0)
(-0.777821 10.8647 0)
(-0.778682 11.0445 0)
(-0.752174 11.2324 0)
(-0.704209 11.4191 0)
(-0.648256 11.5983 0)
(-0.587049 11.7698 0)
(-0.52291 11.9324 0)
(-0.460919 12.1029 0)
(-0.400214 12.2776 0)
(-0.338323 12.4288 0)
(-0.276502 12.5455 0)
(-0.215465 12.6163 0)
(-0.156512 12.6329 0)
(-0.0995657 12.556 0)
(-0.049376 12.1408 0)
(-0.00961568 10.5758 0)
(-0.00844053 10.0055 0)
(-0.00366893 10.0049 -4.34472e-19)
(-0.000691289 10.0037 -2.03227e-19)
(0.000782933 10.0023 9.43846e-20)
(0.00114082 10.0009 -8.76413e-20)
(0.000440869 10.0001 0)
(-0.0153341 10.0052 0)
(-0.0249503 10.0041 0)
(-0.0379524 10.0023 0)
(-0.0551411 9.99977 0)
(-0.0774343 9.997 0)
(-0.105833 9.99462 0)
(-0.141367 9.99365 0)
(-0.185003 9.99559 0)
(-0.237514 10.0025 0)
(-0.299267 10.0172 0)
(-0.369945 10.0431 0)
(-0.448196 10.0845 0)
(-0.531181 10.1459 0)
(-0.6143 10.2316 0)
(-0.692628 10.3414 0)
(-0.762143 10.4731 0)
(-0.818152 10.6252 0)
(-0.856254 10.7951 0)
(-0.872697 10.9789 0)
(-0.864649 11.1722 0)
(-0.827 11.3715 0)
(-0.767145 11.5669 0)
(-0.700254 11.7525 0)
(-0.6293 11.9279 0)
(-0.560605 12.1117 0)
(-0.493443 12.3024 0)
(-0.424811 12.4759 0)
(-0.356453 12.6247 0)
(-0.289446 12.7384 0)
(-0.224329 12.8067 0)
(-0.16232 12.8198 0)
(-0.103175 12.7343 0)
(-0.0510596 12.2933 0)
(-0.0107749 10.6796 0)
(-0.0152496 10.0046 0)
(-0.00834046 10.005 9.18178e-19)
(-0.00361093 10.0045 0)
(-0.000738021 10.0034 1.99414e-19)
(0.000692491 10.0022 3.25884e-23)
(0.00105004 10.0008 0)
(0.000402458 10.0001 0)
(-0.0247249 10.0032 0)
(-0.0375574 10.0008 0)
(-0.0545236 9.99752 0)
(-0.0765382 9.99365 0)
(-0.104619 9.98969 0)
(-0.139842 9.98649 0)
(-0.183267 9.98534 0)
(-0.235835 9.98807 0)
(-0.298188 9.99716 0)
(-0.370439 10.0158 0)
(-0.451862 10.048 0)
(-0.540474 10.0982 0)
(-0.632608 10.1714 0)
(-0.7227 10.2717 0)
(-0.805142 10.3981 0)
(-0.87568 10.5471 0)
(-0.929472 10.7165 0)
(-0.962221 10.9028 0)
(-0.970519 11.1015 0)
(-0.952071 11.3074 0)
(-0.902095 11.5169 0)
(-0.829562 11.7199 0)
(-0.751273 11.9101 0)
(-0.675092 12.107 0)
(-0.600412 12.3111 0)
(-0.523852 12.5005 0)
(-0.447537 12.671 0)
(-0.372986 12.8156 0)
(-0.3011 12.9251 0)
(-0.232221 12.9897 0)
(-0.16743 12.9982 0)
(-0.106335 12.9036 0)
(-0.0524851 12.4381 0)
(-0.0117785 10.7797 0)
(-0.0245298 10.0023 0)
(-0.0150016 10.0039 1.24217e-22)
(-0.00810477 10.0043 0)
(-0.003549 10.004 -2.10708e-19)
(-0.000775737 10.0032 1.8749e-23)
(0.000608494 10.002 0)
(0.000963252 10.0007 0)
(0.000366297 10.0001 0)
(-0.0371632 9.99947 0)
(-0.0539034 9.99553 0)
(-0.0756297 9.99068 0)
(-0.103361 9.98532 0)
(-0.1382 9.98014 0)
(-0.181272 9.97624 0)
(-0.233641 9.9752 0)
(-0.29616 9.97923 0)
(-0.36928 9.99125 0)
(-0.45279 10.0149 0)
(-0.545431 10.0546 0)
(-0.644494 10.1152 0)
(-0.745395 10.2018 0)
(-0.841551 10.3182 0)
(-0.926735 10.4625 0)
(-0.996615 10.6296 0)
(-1.04635 10.8166 0)
(-1.07192 11.0191 0)
(-1.07038 11.232 0)
(-1.04013 11.4495 0)
(-0.97677 11.6679 0)
(-0.890887 11.8767 0)
(-0.806595 12.089 0)
(-0.72348 12.3068 0)
(-0.637651 12.5096 0)
(-0.551942 12.6957 0)
(-0.468269 12.8613 0)
(-0.387868 13.0005 0)
(-0.311463 13.1048 0)
(-0.239165 13.1647 0)
(-0.171873 13.1678 0)
(-0.109069 13.064 0)
(-0.0536794 12.5753 0)
(-0.0126373 10.8755 0)
(-0.0368218 9.99831 0)
(-0.0240765 10.0013 -5.12622e-19)
(-0.0145012 10.003 0)
(-0.00786785 10.0037 0)
(-0.00347415 10.0036 6.20372e-19)
(-0.000804029 10.0029 0)
(0.000530928 10.0018 0)
(0.000880536 10.0007 1.65691e-19)
(0.000332409 10.0001 0)
(-0.0532912 9.99377 0)
(-0.0747255 9.98805 0)
(-0.102094 9.98145 0)
(-0.136507 9.97451 0)
(-0.17913 9.96816 0)
(-0.231116 9.96376 0)
(-0.293479 9.96325 0)
(-0.366934 9.96925 0)
(-0.451678 9.98511 0)
(-0.547056 10.0149 0)
(-0.651185 10.0636 0)
(-0.760534 10.1361 0)
(-0.869521 10.2377 0)
(-0.970517 10.3718 0)
(-1.0568 10.5349 0)
(-1.12412 10.7208 0)
(-1.16784 10.9254 0)
(-1.18435 11.1437 0)
(-1.17136 11.3698 0)
(-1.12801 11.5977 0)
(-1.05034 11.8233 0)
(-0.957484 12.0552 0)
(-0.865111 12.2891 0)
(-0.76878 12.5059 0)
(-0.672066 12.7055 0)
(-0.577577 12.8864 0)
(-0.486949 13.0458 0)
(-0.401115 13.1786 0)
(-0.320577 13.2769 0)
(-0.245212 13.3314 0)
(-0.175693 13.3286 0)
(-0.11141 13.2155 0)
(-0.0546707 12.7048 0)
(-0.0133641 10.9667 0)
(-0.0527615 9.99221 0)
(-0.0360923 9.99701 0)
(-0.0232017 10.0002 -5.06897e-19)
(-0.0140053 10.0022 -4.70662e-19)
(-0.0076135 10.0032 -8.74069e-19)
(-0.00338456 10.0032 0)
(-0.000822784 10.0026 -3.76979e-19)
(0.000459945 10.0017 -3.50147e-19)
(0.000801935 10.0006 1.62611e-19)
(0.000300743 10.0001 0)
(-0.0738381 9.98573 0)
(-0.10084 9.97802 0)
(-0.134809 9.96953 0)
(-0.176926 9.961 0)
(-0.228405 9.9536 0)
(-0.290379 9.94902 0)
(-0.363765 9.9496 0)
(-0.449087 9.95837 0)
(-0.546179 9.97916 0)
(-0.653854 10.0165 0)
(-0.769506 10.0756 0)
(-0.888689 10.1618 0)
(-1.00476 10.2799 0)
(-1.10907 10.433 0)
(-1.19454 10.6159 0)
(-1.25725 10.8208 0)
(-1.29291 11.0428 0)
(-1.29851 11.2761 0)
(-1.27253 11.5143 0)
(-1.21492 11.7509 0)
(-1.1305 12.0009 0)
(-1.0281 12.2555 0)
(-0.919962 12.489 0)
(-0.810674 12.7027 0)
(-0.703497 12.897 0)
(-0.600703 13.0714 0)
(-0.503597 13.2237 0)
(-0.412787 13.3494 0)
(-0.328516 13.441 0)
(-0.250423 13.4895 0)
(-0.178941 13.4805 0)
(-0.113394 13.3582 0)
(-0.0554853 12.8267 0)
(-0.0139716 11.0532 0)
(-0.073072 9.98367 0)
(-0.0516689 9.99051 -5.73431e-19)
(-0.0347041 9.99559 5.35542e-19)
(-0.022342 9.99919 -2.74495e-22)
(-0.0134858 10.0015 4.61777e-19)
(-0.00733767 10.0026 4.28931e-19)
(-0.00328087 10.0028 7.96667e-19)
(-0.000831914 10.0024 5.54937e-19)
(0.0003954 10.0015 -1.71826e-19)
(0.000727523 10.0006 0)
(0.000271278 10.0001 0)
(-0.099612 9.97498 0)
(-0.133131 9.96511 0)
(-0.174718 9.95464 0)
(-0.225615 9.94458 0)
(-0.287038 9.93637 0)
(-0.360061 9.93208 0)
(-0.445462 9.93444 0)
(-0.543471 9.94698 0)
(-0.653476 9.97396 0)
(-0.773663 10.0204 0)
(-0.900602 10.0916 0)
(-1.02885 10.193 0)
(-1.15069 10.3293 0)
(-1.25649 10.5024 0)
(-1.33903 10.7057 0)
(-1.39494 10.9297 0)
(-1.42047 11.1686 0)
(-1.41336 11.4159 0)
(-1.37295 11.6645 0)
(-1.30995 11.9269 0)
(-1.2158 12.2011 0)
(-1.0945 12.4563 0)
(-0.97079 12.687 0)
(-0.848966 12.8955 0)
(-0.73188 13.0831 0)
(-0.621344 13.25 0)
(-0.518288 13.3944 0)
(-0.422976 13.5124 0)
(-0.335363 13.5969 0)
(-0.254871 13.6391 0)
(-0.181671 13.6237 0)
(-0.115059 13.4923 0)
(-0.0561469 12.9412 0)
(-0.0144729 11.1348 0)
(-0.0985556 9.97229 0)
(-0.0715113 9.98146 -8.63086e-22)
(-0.0495945 9.98868 0)
(-0.0333488 9.99421 -4.40081e-22)
(-0.0214514 9.99816 0)
(-0.0129369 10.0007 -4.53195e-19)
(-0.00704062 10.002 -8.41865e-19)
(-0.00316258 10.0024 2.18233e-23)
(-0.000831574 10.0021 3.6307e-19)
(0.000337362 10.0014 -1.68628e-19)
(0.000657289 10.0005 1.56635e-19)
(0.000243977 10.0001 0)
(-0.131491 9.96119 0)
(-0.172538 9.94901 0)
(-0.222819 9.93657 0)
(-0.28359 9.92512 0)
(-0.356042 9.91648 0)
(-0.441154 9.91307 0)
(-0.539469 9.91812 0)
(-0.650846 9.93558 0)
(-0.774138 9.97019 0)
(-0.9068 10.0273 0)
(-1.04448 10.1123 0)
(-1.18071 10.2307 0)
(-1.30669 10.3864 0)
(-1.4119 10.5806 0)
(-1.4892 10.8046 0)
(-1.53605 11.0474 0)
(-1.5494 11.3024 0)
(-1.52786 11.5621 0)
(-1.48322 11.8381 0)
(-1.41149 12.1264 0)
(-1.2963 12.4028 0)
(-1.15622 12.6559 0)
(-1.01738 12.8816 0)
(-0.883598 13.0832 0)
(-0.757244 13.2629 0)
(-0.639591 13.4214 0)
(-0.531135 13.5575 0)
(-0.431791 13.6673 0)
(-0.341219 13.7446 0)
(-0.258631 13.7802 0)
(-0.183942 13.7582 0)
(-0.116442 13.6181 0)
(-0.0566762 13.0485 0)
(-0.014882 11.2116 0)
(-0.130085 9.95771 0)
(-0.0964011 9.96946 6.40668e-19)
(-0.0685379 9.97912 -5.99617e-19)
(-0.0475802 9.98691 5.55683e-19)
(-0.0319543 9.99289 0)
(-0.0205192 9.99718 0)
(-0.0123576 9.99998 4.44769e-19)
(-0.00672357 10.0015 -4.13046e-19)
(-0.00303016 10.0021 2.76146e-23)
(-0.000821573 10.0019 1.7819e-19)
(0.000285517 10.0013 -1.65516e-19)
(0.000591167 10.0005 -1.53723e-19)
(0.000218919 10.0001 0)
(-0.170408 9.94401 0)
(-0.220054 9.92946 0)
(-0.280128 9.91513 0)
(-0.351878 9.90259 0)
(-0.436435 9.89402 0)
(-0.534596 9.8923 0)
(-0.646603 9.90109 0)
(-0.77186 9.92483 0)
(-0.908581 9.96864 0)
(-1.05339 10.0381 0)
(-1.20097 10.1388 0)
(-1.34376 10.2756 0)
(-1.47194 10.452 0)
(-1.57426 10.668 0)
(-1.6439 10.9127 0)
(-1.67941 11.1738 0)
(-1.67859 11.4434 0)
(-1.65424 11.7322 0)
(-1.60162 12.0361 0)
(-1.50772 12.3286 0)
(-1.37139 12.6042 0)
(-1.21297 12.8526 0)
(-1.05965 13.0713 0)
(-0.914626 13.2647 0)
(-0.779698 13.4357 0)
(-0.655576 13.5853 0)
(-0.542272 13.7126 0)
(-0.439351 13.8142 0)
(-0.346183 13.8839 0)
(-0.261781 13.913 0)
(-0.185807 13.8845 0)
(-0.11758 13.7359 0)
(-0.0570943 13.1489 0)
(-0.0152126 11.2836 0)
(-0.168592 9.93957 0)
(-0.127189 9.95411 0)
(-0.0922702 9.96651 6.33305e-19)
(-0.0656635 9.97689 -1.17722e-18)
(-0.0455166 9.98523 1.09223e-18)
(-0.0305033 9.99163 -1.01357e-18)
(-0.0195456 9.99624 0)
(-0.0117497 9.9993 4.36674e-19)
(-0.00638613 10.001 -4.05369e-19)
(-0.002885 10.0017 -3.76578e-19)
(-0.000800882 10.0017 0)
(0.000239807 10.0011 1.62444e-19)
(0.000529485 10.0004 0)
(0.000196536 10 0)
(-0.217354 9.92315 0)
(-0.276699 9.90625 0)
(-0.34768 9.89025 0)
(-0.431512 9.87705 0)
(-0.529185 9.86925 0)
(-0.641255 9.87018 0)
(-0.767585 9.88398 0)
(-0.907025 9.91552 0)
(-1.05705 9.97025 0)
(-1.21338 10.0539 0)
(-1.36965 10.1718 0)
(-1.51729 10.3286 0)
(-1.6455 10.5268 0)
(-1.74244 10.7648 0)
(-1.80193 11.0301 0)
(-1.82383 11.3082 0)
(-1.82194 11.6088 0)
(-1.79067 11.9277 0)
(-1.71444 12.2382 0)
(-1.59792 12.5316 0)
(-1.44065 12.8035 0)
(-1.26459 13.0451 0)
(-1.09763 13.2553 0)
(-0.942181 13.4395 0)
(-0.799402 13.6011 0)
(-0.669459 13.7413 0)
(-0.551846 13.8596 0)
(-0.44578 13.9529 0)
(-0.350354 14.0152 0)
(-0.264393 14.0376 0)
(-0.187322 14.0028 0)
(-0.118503 13.846 0)
(-0.0574192 13.2427 0)
(-0.0154759 11.3512 0)
(-0.215064 9.91755 0)
(-0.164785 9.93502 0)
(-0.121594 9.95041 0)
(-0.0882961 9.9637 1.2433e-18)
(-0.06273 9.97476 -1.15371e-18)
(-0.0433786 9.98363 1.0707e-18)
(-0.0289967 9.99043 0)
(-0.0185329 9.99536 -4.61336e-19)
(-0.0111139 9.99865 0)
(-0.00602955 10.0006 3.97872e-19)
(-0.00272574 10.0014 0)
(-0.000771259 10.0015 0)
(0.00020048 10.001 0)
(0.000473507 10.0004 1.57913e-19)
(0.000176873 10 7.71243e-20)
(-0.273348 9.89836 0)
(-0.34351 9.87927 0)
(-0.426524 9.86193 0)
(-0.523489 9.84868 0)
(-0.635205 9.84253 0)
(-0.761917 9.84729 0)
(-0.903012 9.86755 0)
(-1.05669 9.90856 0)
(-1.21959 9.97601 0)
(-1.38648 10.0756 0)
(-1.54997 10.2125 0)
(-1.70044 10.3905 0)
(-1.82628 10.6111 0)
(-1.91525 10.8714 0)
(-1.96206 11.1563 0)
(-1.98506 11.4673 0)
(-1.97769 11.8006 0)
(-1.9215 12.1289 0)
(-1.82081 12.4424 0)
(-1.68158 12.7336 0)
(-1.5039 12.9993 0)
(-1.3111 13.2322 0)
(-1.13145 13.4329 0)
(-0.966448 13.607 0)
(-0.816564 13.7586 0)
(-0.681418 13.8894 0)
(-0.560011 13.9987 0)
(-0.451201 14.0836 0)
(-0.353827 14.1386 0)
(-0.266538 14.1545 0)
(-0.188535 14.1134 0)
(-0.119241 13.9489 0)
(-0.0576667 13.3303 0)
(-0.0156816 11.4143 0)
(-0.270524 9.89136 0)
(-0.210155 9.91184 0)
(-0.157369 9.93042 1.42269e-18)
(-0.116236 9.9469 1.31901e-18)
(-0.0842508 9.96104 1.22312e-18)
(-0.0597009 9.97275 -1.1343e-18)
(-0.041168 9.98212 0)
(-0.027438 9.98931 0)
(-0.0174827 9.99453 0)
(-0.0104516 9.99804 8.41326e-19)
(-0.00565584 10.0001 3.90593e-19)
(-0.00255212 10.0011 3.62733e-19)
(-0.000733017 10.0013 0)
(0.000168816 10.0009 -1.66858e-19)
(0.000423681 10.0003 -8.15179e-20)
(0.00015955 10 0)
(-0.339433 9.8695 0)
(-0.421547 9.84848 0)
(-0.517678 9.83034 0)
(-0.62876 9.81782 0)
(-0.755337 9.81441 0)
(-0.897254 9.82437 0)
(-1.05333 9.85271 0)
(-1.22102 9.905 0)
(-1.39607 9.98703 0)
(-1.57225 10.1044 0)
(-1.74114 10.2617 0)
(-1.89221 10.4619 0)
(-2.01315 10.7055 0)
(-2.09146 10.9875 0)
(-2.14204 11.3074 0)
(-2.16149 11.6539 0)
(-2.12816 11.9998 0)
(-2.04572 12.3339 0)
(-1.9201 12.6471 0)
(-1.75844 12.9332 0)
(-1.56115 13.1904 0)
(-1.35262 13.4133 0)
(-1.16131 13.6032 0)
(-0.987652 13.7668 0)
(-0.831401 13.9083 0)
(-0.691641 14.0294 0)
(-0.566917 14.1298 0)
(-0.455732 14.2066 0)
(-0.35669 14.2543 0)
(-0.268279 14.2638 0)
(-0.189489 14.2167 0)
(-0.11982 14.0449 0)
(-0.0578482 13.412 0)
(-0.0158403 11.4733 0)
(-0.336023 9.86084 0)
(-0.264294 9.88427 0)
(-0.200503 9.90616 -3.00982e-18)
(-0.150293 9.92608 4.20177e-21)