/*--------------------------------*- C++ -*----------------------------------*\
  =========                 |
  \\      /  F ield         | OpenFOAM: The Open Source CFD Toolbox
   \\    /   O peration     | Website:  https://openfoam.org
    \\  /    A nd           | Version:  8
     \\/     M anipulation  |
\*---------------------------------------------------------------------------*/
FoamFile
{
    version     2.0;
    format      ascii;
    class       volScalarField;
    location    "0.27";
    object      alphat;
}
// * * * * * * * * * * * * * * * * * * * * * * * * * * * * * * * * * * * * * //

dimensions      [1 -1 -1 0 0 0 0];

internalField   nonuniform List<scalar> 
15677
(
0.000883939
0.0021168
0.00670289
0.011055
0.0151749
0.019577
0.0247067
0.0305771
0.0371175
0.0446619
0.0529836
0.0613219
0.0688423
0.0759259
0.0815102
0.0851164
0.0860567
0.0862106
0.0858724
0.0849332
0.0835405
0.0818507
0.0801393
0.0784902
0.0769645
0.0756137
0.0744723
0.0735495
0.0728365
0.0723111
0.0719454
0.0717144
0.071596
0.0715705
0.071615
0.00118448
0.00997764
0.0257469
0.0440932
0.0625804
0.078942
0.0905264
0.0958272
0.0977213
0.0974005
0.0973224
0.09786
0.0952282
0.0918099
0.0882944
0.0853069
0.0847019
0.0859555
0.0878851
0.0896729
0.0909796
0.0915598
0.0914461
0.0910238
0.0904064
0.0897747
0.0892546
0.0888591
0.0885694
0.0883716
0.0882523
0.0881961
0.0881876
0.0882111
0.0882522
0.00123963
0.0115177
0.0277223
0.0455514
0.0632382
0.0797628
0.0945631
0.107419
0.117602
0.124236
0.126204
0.122516
0.113907
0.103632
0.0933329
0.0853202
0.0815076
0.0828263
0.0884307
0.0953445
0.101142
0.107443
0.112635
0.116555
0.119371
0.121374
0.122836
0.123927
0.124765
0.125432
0.125975
0.126425
0.126803
0.127132
0.127426
0.000984368
0.00721229
0.017721
0.0292675
0.0409447
0.0521616
0.0624314
0.0711091
0.0776813
0.0815564
0.0841854
0.0847564
0.0842134
0.0828716
0.0806642
0.0760141
0.0706335
0.06774
0.0690367
0.0732859
0.0806529
0.0888194
0.0966173
0.104157
0.10909
0.112416
0.114439
0.115557
0.116038
0.116461
0.116789
0.117109
0.117418
0.117707
0.117972
0.000853978
0.00741704
0.0167187
0.0264319
0.0361958
0.0457597
0.0549504
0.0632598
0.0703104
0.075826
0.0792042
0.0799434
0.0777767
0.070758
0.060776
0.0523136
0.0517736
0.061952
0.0790665
0.0977183
0.110271
0.116829
0.120479
0.123126
0.125299
0.127199
0.128823
0.13013
0.131128
0.131648
0.131871
0.131863
0.131716
0.131501
0.131267
0.00055644
0.00342707
0.00786827
0.0124991
0.0171725
0.0218375
0.0263778
0.0306781
0.0346373
0.0372725
0.0379452
0.0380775
0.0366664
0.0348088
0.0336104
0.0352649
0.0419869
0.0521518
0.0659657
0.081056
0.0949533
0.105876
0.112423
0.116634
0.119248
0.120753
0.121504
0.121768
0.121745
0.121576
0.12134
0.121081
0.120825
0.120585
0.120367
0.000301038
0.00236974
0.0048852
0.00747852
0.0100739
0.0125715
0.0147296
0.0162083
0.0182697
0.0210653
0.0256003
0.0312267
0.0383941
0.0472087
0.057173
0.0673783
0.0775492
0.0870984
0.0957001
0.102964
0.108354
0.112211
0.114993
0.117093
0.118739
0.120028
0.120966
0.121587
0.121905
0.122002
0.121954
0.121841
0.121704
0.121567
0.121434
0.000207263
0.00116514
0.00273138
0.00440434
0.00623538
0.00838491
0.0112655
0.0157705
0.0224587
0.031047
0.0407478
0.0506372
0.0604011
0.0697546
0.077874
0.0848016
0.0904295
0.0952162
0.0993218
0.102869
0.105912
0.108322
0.110083
0.111306
0.112123
0.11265
0.112984
0.113189
0.113315
0.113389
0.113428
0.113444
0.113443
0.11343
0.113413
0.000314234
0.00272726
0.00686317
0.0117233
0.0170275
0.0226714
0.0286245
0.0348502
0.0413685
0.0482139
0.0554088
0.062887
0.0705709
0.0782097
0.0847936
0.0900303
0.0943266
0.0979153
0.100965
0.103589
0.10586
0.107732
0.109184
0.110275
0.111068
0.111622
0.111993
0.112225
0.112355
0.112409
0.112419
0.112406
0.112381
0.11235
0.112317
0.00027544
0.00277606
0.00681996
0.011631
0.0170815
0.0231261
0.0297184
0.0367801
0.0441841
0.0517656
0.0593503
0.0667377
0.0737407
0.0802394
0.0856206
0.0899093
0.0934992
0.0965589
0.0991893
0.101432
0.103299
0.104747
0.105806
0.106571
0.107118
0.107504
0.107769
0.107944
0.108055
0.108119
0.10815
0.10816
0.108157
0.108144
0.108128
0.000288877
0.0027162
0.00677821
0.0116197
0.0170908
0.023155
0.029784
0.0369194
0.0444552
0.0522261
0.0600145
0.0675656
0.0746307
0.0810464
0.0862218
0.0902623
0.093582
0.0963723
0.0987566
0.100808
0.102557
0.103946
0.10498
0.105733
0.106273
0.106652
0.106909
0.107075
0.107173
0.10722
0.107234
0.107227
0.107208
0.107183
0.107154
0.00025882
0.00287232
0.00707545
0.0121118
0.0178176
0.0241115
0.030912
0.0381133
0.0455609
0.0530714
0.0604927
0.0676074
0.0742505
0.0803061
0.0852241
0.0890835
0.09225
0.0948801
0.0970915
0.0989644
0.100543
0.101788
0.102714
0.103395
0.103896
0.104258
0.104515
0.104692
0.104811
0.104887
0.104931
0.104954
0.104962
0.104961
0.104954
0.000256481
0.00264755
0.00656854
0.0112983
0.016706
0.022744
0.0293571
0.0364562
0.0439019
0.0514977
0.059054
0.0663319
0.0731274
0.0792963
0.0842622
0.0881153
0.0912456
0.0938284
0.0959793
0.0977785
0.0992814
0.100469
0.101363
0.10203
0.102528
0.102898
0.103172
0.103373
0.103517
0.103618
0.103688
0.103736
0.10377
0.103793
0.10381
0.000237677
0.00273912
0.00674777
0.011561
0.0170251
0.0230601
0.0295861
0.0365018
0.0436666
0.0509316
0.0581674
0.0651682
0.0717662
0.0778265
0.0827492
0.0865789
0.0896765
0.0922072
0.0942923
0.0960208
0.0974583
0.0986015
0.0994768
0.100142
0.100651
0.10104
0.101338
0.101568
0.101744
0.101881
0.101987
0.10207
0.102136
0.102188
0.10223
0.000229108
0.00254095
0.00626005
0.0107443
0.015881
0.0216225
0.0279114
0.0346597
0.0417388
0.0489816
0.0562348
0.0632925
0.0699761
0.0761396
0.0811655
0.0850767
0.0882299
0.0907942
0.0928957
0.0946285
0.0960629
0.0972006
0.09807
0.0987385
0.0992578
0.0996644
0.0999847
0.100238
0.10044
0.100601
0.100729
0.100833
0.100919
0.100991
0.101052
0.000219046
0.00255412
0.00628789
0.0107741
0.015875
0.0215221
0.0276496
0.0341762
0.0409891
0.0479522
0.0549592
0.0618192
0.0683704
0.0744697
0.0794899
0.0834209
0.0866026
0.089195
0.0913208
0.0930728
0.0945288
0.0956855
0.0965732
0.0972601
0.0977985
0.0982252
0.0985667
0.0988425
0.099067
0.0992513
0.0994038
0.0995311
0.099638
0.0997285
0.0998065
0.000207921
0.00241549
0.00590563
0.0101009
0.0149076
0.0202855
0.0261856
0.0325345
0.0392263
0.046123
0.0530891
0.0599521
0.0665432
0.0727118
0.0778118
0.0818201
0.0850731
0.0877275
0.0899054
0.0917014
0.0931904
0.0943758
0.0952883
0.0959982
0.096559
0.0970077
0.0973707
0.0976672
0.0979113
0.0981137
0.0982824
0.0984238
0.0985438
0.0986467
0.0987359
0.000204968
0.00240231
0.00590908
0.0101137
0.0148886
0.0201756
0.0259216
0.0320612
0.0385059
0.0451404
0.0518679
0.0585372
0.0649957
0.0710988
0.0761942
0.0802325
0.0835322
0.0862394
0.0884702
0.0903167
0.0918522
0.0930781
0.0940248
0.0947637
0.0953499
0.0958214
0.0962051
0.0965206
0.0967823
0.0970013
0.0971858
0.0973421
0.0974755
0.0975903
0.0976897
0.000192176
0.00234033
0.00568706
0.00968335
0.0142407
0.0193213
0.0248826
0.0308642
0.0371812
0.0437206
0.0503672
0.0569832
0.0634155
0.069521
0.0746461
0.0787274
0.0820773
0.0848369
0.0871193
0.0890149
0.0905964
0.0918635
0.0928453
0.0936146
0.0942274
0.0947227
0.0951278
0.0954627
0.0957421
0.095977
0.0961758
0.0963451
0.0964901
0.0966148
0.0967225
0.000192145
0.00226311
0.00555489
0.00950006
0.0139872
0.0189683
0.0243991
0.0302239
0.0363683
0.0427314
0.0492144
0.0556973
0.0620345
0.0680867
0.0732021
0.0773006
0.080683
0.0834832
0.0858095
0.0877495
0.0893742
0.0906811
0.0916971
0.0924958
0.0931341
0.0936515
0.094076
0.094428
0.0947226
0.094971
0.0951819
0.0953622
0.095517
0.0956505
0.0957662
0.000184712
0.00221128
0.00539214
0.00919652
0.0135339
0.0183671
0.0236581
0.029354
0.0353827
0.0416459
0.0480384
0.0544478
0.0607307
0.0667538
0.0718652
0.0759766
0.0793828
0.0822133
0.0845735
0.0865488
0.0882091
0.0895497
0.0905955
0.0914204
0.0920818
0.0926197
0.0930625
0.0934307
0.0937398
0.0940012
0.0942237
0.0944143
0.0945783
0.0947202
0.0948433
0.000183714
0.00214951
0.00527206
0.00901504
0.0132771
0.0180164
0.0231947
0.0287631
0.0346575
0.0407896
0.0470594
0.053369
0.0595776
0.0655534
0.0706452
0.0747563
0.0781741
0.0810239
0.0834077
0.0854091
0.0870966
0.0884636
0.0895335
0.0903797
0.0910603
0.0916152
0.0920732
0.0924552
0.0927765
0.093049
0.0932815
0.093481
0.0936532
0.0938024
0.0939321
0.000179495
0.00210285
0.00514492
0.00879186
0.012952
0.0175878
0.0226629
0.02813
0.0339263
0.0399679
0.0461525
0.0523887
0.0585385
0.0644722
0.0695419
0.0736458
0.0770663
0.0799253
0.0823225
0.0843401
0.0860453
0.0874303
0.0885169
0.0893786
0.0900733
0.0906411
0.0911109
0.0915036
0.0918347
0.092116
0.0923565
0.0925634
0.0927422
0.0928974
0.0930326
0.000177917
0.00205794
0.00504873
0.00863574
0.0127237
0.0172759
0.022259
0.0276299
0.0333298
0.0392793
0.0453781
0.051537
0.0576248
0.0635116
0.0685525
0.0726418
0.0760566
0.0789158
0.0813172
0.0833414
0.0850548
0.0864488
0.0875441
0.088414
0.0891164
0.0896915
0.0901681
0.090567
0.090904
0.0911907
0.0914363
0.0916478
0.0918308
0.0919899
0.0921288
0.000175216
0.00201952
0.00495219
0.00847277
0.0124895
0.0169671
0.0218733
0.0271662
0.0327884
0.0386634
0.0446927
0.0507849
0.0568172
0.0626589
0.0676687
0.0717383
0.0751407
0.0779923
0.0803892
0.0824106
0.0841224
0.0855154
0.0866103
0.08748
0.0881824
0.0887577
0.0892346
0.089634
0.0899715
0.0902588
0.090505
0.0907171
0.0909009
0.0910607
0.0912002
0.000173624
0.00198396
0.00487267
0.00834352
0.012304
0.0167192
0.021558
0.0267802
0.0323308
0.0381361
0.0440997
0.0501288
0.0561075
0.0619039
0.06688
0.0709255
0.0743096
0.0771464
0.0795304
0.0815398
0.0832397
0.084621
0.0857049
0.0865643
0.0872571
0.0878234
0.0882921
0.088684
0.0890147
0.0892958
0.0895363
0.0897434
0.0899226
0.0900783
0.0902142
0.000171779
0.0019525
0.00479874
0.00822218
0.0121314
0.016492
0.0212736
0.0264364
0.0319266
0.0376727
0.0435793
0.0495521
0.0554812
0.0612335
0.0661741
0.070192
0.0735523
0.0763674
0.0787302
0.080718
0.0823948
0.0837525
0.0848131
0.0856502
0.0863216
0.0868677
0.0873173
0.0876913
0.0880053
0.088271
0.0884974
0.0886914
0.0888587
0.0890035
0.0891294
0.000170402
0.00192407
0.0047348
0.00811893
0.0119849
0.0162985
0.0210297
0.0261399
0.0315762
0.0372688
0.0431235
0.0490443
0.0549263
0.0606351
0.0655386
0.069525
0.0728563
0.0756428
0.0779759
0.0799318
0.0815737
0.0828942
0.0839176
0.0847181
0.085354
0.0858659
0.0862829
0.0866261
0.086911
0.0871495
0.0873506
0.0875211
0.0876667
0.0877916
0.0878991
0.000169078
0.0018986
0.00467682
0.00802539
0.011853
0.0161255
0.0208132
0.0258778
0.0312671
0.0369124
0.0427204
0.0485935
0.0544309
0.0600965
0.0649609
0.0689122
0.0722089
0.0749597
0.0772543
0.0791674
0.0807613
0.0820298
0.0830003
0.0837482
0.0843323
0.0847938
0.0851622
0.0854589
0.0856998
0.0858967
0.0860587
0.086193
0.0863048
0.0863984
0.0864771
0.000167995
0.00187564
0.00462543
0.0079431
0.0117372
0.0159735
0.0206226
0.0256466
0.0309938
0.0365961
0.0423612
0.0481897
0.053984
0.0596062
0.0644292
0.0683414
0.0715981
0.0743057
0.0765525
0.0784116
0.0799436
0.0811441
0.0820447
0.0827222
0.0832364
0.0836294
0.0839312
0.0841638
0.0843435
0.0844824
0.0845898
0.0846728
0.0847368
0.084786
0.0848236
0.0716577
0.0717391
0.071812
0.0719037
0.0719293
0.0718611
0.0716599
0.0712784
0.0706613
0.0697462
0.0685237
0.0667563
0.0647534
0.0625123
0.0601009
0.0575933
0.0550709
0.0526205
0.0503234
0.0482308
0.0463339
0.044529
0.088246
0.0881608
0.0880491
0.0879172
0.0877548
0.0875364
0.0872222
0.0867734
0.0861486
0.085305
0.0842045
0.08288
0.0814367
0.0800271
0.0788012
0.0779189
0.077497
0.0774513
0.0776325
0.0780731
0.0786558
0.0790923
0.127689
0.12796
0.128226
0.128483
0.128732
0.128983
0.129253
0.129559
0.12994
0.130373
0.130693
0.130667
0.13011
0.12895
0.127268
0.125156
0.12276
0.120266
0.117819
0.115448
0.113163
0.110922
0.1183
0.118636
0.118922
0.119188
0.119363
0.119431
0.119359
0.118966
0.118224
0.117102
0.115822
0.114341
0.11276
0.11118
0.109645
0.10817
0.106739
0.105356
0.104085
0.10286
0.101629
0.100476
0.13096
0.130537
0.130067
0.129574
0.12906
0.128533
0.128002
0.127469
0.126926
0.126344
0.12553
0.124573
0.123501
0.122364
0.121197
0.120006
0.118778
0.117577
0.116401
0.115248
0.114117
0.112986
0.12015
0.119902
0.119631
0.119335
0.11903
0.118719
0.118399
0.118065
0.117717
0.117338
0.116914
0.116417
0.115855
0.115248
0.114607
0.113944
0.113269
0.112549
0.111809
0.111071
0.110382
0.109769
0.121326
0.121227
0.121111
0.12098
0.120832
0.120666
0.12048
0.120273
0.120039
0.119774
0.11947
0.119123
0.118739
0.118328
0.117894
0.117442
0.116982
0.116519
0.116062
0.11562
0.115201
0.114813
0.113467
0.113567
0.113648
0.113715
0.113769
0.11381
0.113836
0.113846
0.113838
0.113811
0.11376
0.113681
0.113574
0.113445
0.113297
0.113133
0.112958
0.112777
0.112594
0.112412
0.112238
0.112074
0.112328
0.112387
0.112437
0.11248
0.112514
0.112542
0.112562
0.112577
0.112584
0.112583
0.112575
0.112558
0.112534
0.112503
0.112464
0.112419
0.11237
0.112317
0.112263
0.112209
0.112156
0.112106
0.10817
0.108256
0.108337
0.108415
0.10849
0.108563
0.108634
0.108701
0.108766
0.108827
0.108887
0.108944
0.108998
0.10905
0.1091
0.109149
0.109198
0.109247
0.109297
0.109348
0.109402
0.109459
0.107157
0.107193
0.107221
0.107242
0.107258
0.107272
0.107285
0.107298
0.107312
0.107327
0.107344
0.107367
0.107394
0.107428
0.107469
0.107518
0.107575
0.107639
0.107709
0.107787
0.107869
0.107956
0.104996
0.105072
0.105136
0.10519
0.105236
0.105276
0.105311
0.105341
0.105369
0.105395
0.105422
0.105451
0.105482
0.105517
0.105556
0.105603
0.105659
0.105723
0.105796
0.105877
0.105965
0.10606
0.103874
0.103979
0.10407
0.104149
0.104215
0.10427
0.104315
0.104352
0.104382
0.104408
0.104431
0.104455
0.104482
0.104512
0.104548
0.10459
0.10464
0.104697
0.104761
0.104832
0.104909
0.104993
0.102335
0.102492
0.102637
0.102772
0.102896
0.103009
0.103112
0.103204
0.103286
0.103359
0.103424
0.103482
0.103535
0.103585
0.103635
0.103687
0.103743
0.103803
0.103866
0.103934
0.104005
0.10408
0.101177
0.101364
0.101542
0.10171
0.101869
0.102019
0.102161
0.102294
0.10242
0.102541
0.102654
0.10276
0.102855
0.10294
0.103018
0.103091
0.103161
0.103229
0.103298
0.103368
0.103439
0.103513
0.0999567
0.100174
0.100384
0.100588
0.100784
0.100973
0.101154
0.101327
0.101492
0.101651
0.101802
0.101946
0.102079
0.1022
0.102312
0.102415
0.102511
0.102603
0.10269
0.102775
0.102858
0.102939
0.0988999
0.0991376
0.0993703
0.0995974
0.0998185
0.100033
0.100242
0.100443
0.100638
0.100827
0.101009
0.101183
0.101347
0.101497
0.101636
0.101766
0.101887
0.102
0.102108
0.10221
0.102307
0.102402
0.0978685
0.0981239
0.0983747
0.098621
0.0988628
0.0990998
0.0993317
0.0995582
0.0997792
0.0999946
0.100204
0.100407
0.100597
0.100774
0.100937
0.10109
0.101233
0.101367
0.101493
0.101612
0.101725
0.101833
0.0969139
0.097187
0.0974553
0.0977189
0.097978
0.0982324
0.0984823
0.0987274
0.0989676
0.0992031
0.0994335
0.0996573
0.0998687
0.100065
0.100248
0.100419
0.100579
0.100729
0.100871
0.101004
0.101131
0.10125
0.095972
0.0962656
0.0965542
0.0968378
0.0971164
0.09739
0.0976585
0.0979221
0.0981807
0.0984343
0.0986829
0.0989248
0.0991537
0.0993667
0.0995654
0.0997511
0.0999251
0.100089
0.100242
0.100387
0.100524
0.100654
0.0950623
0.0953754
0.0956836
0.0959866
0.0962844
0.0965768
0.0968638
0.0971453
0.0974213
0.0976919
0.097957
0.0982149
0.0984588
0.0986857
0.0988973
0.0990951
0.0992803
0.0994542
0.0996176
0.0997716
0.0999169
0.100054
0.0941647
0.0944984
0.0948272
0.0951508
0.0954687
0.0957809
0.0960872
0.0963873
0.0966813
0.096969
0.0972505
0.0975238
0.0977819
0.0980216
0.0982447
0.0984529
0.0986476
0.09883
0.0990014
0.0991625
0.0993144
0.0994577
0.093278
0.0936328
0.0939827
0.0943273
0.0946662
0.094999
0.0953254
0.095645
0.0959577
0.0962633
0.0965617
0.0968507
0.0971229
0.097375
0.0976091
0.097827
0.0980302
0.0982202
0.0983982
0.0985652
0.0987223
0.0988703
0.092387
0.0927644
0.0931373
0.093505
0.0938668
0.0942222
0.0945707
0.0949118
0.0952451
0.0955702
0.0958869
0.0961929
0.0964801
0.0967452
0.0969905
0.0972181
0.0974296
0.0976268
0.0978109
0.0979832
0.0981448
0.0982967
0.0914711
0.0918742
0.0922732
0.0926673
0.0930555
0.093437
0.0938111
0.094177
0.0945342
0.0948819
0.0952199
0.0955453
0.0958497
0.0961296
0.0963875
0.0966257
0.0968462
0.0970509
0.0972412
0.0974188
0.0975847
0.0977401
0.0904974
0.090931
0.0913613
0.0917871
0.0922072
0.0926206
0.093026
0.0934225
0.093809
0.0941848
0.094549
0.0948984
0.0952241
0.0955221
0.0957953
0.0960464
0.0962777
0.0964912
0.0966888
0.0968722
0.0970429
0.097202
0.0894245
0.0898946
0.0903628
0.0908276
0.0912873
0.0917404
0.0921854
0.0926208
0.0930451
0.093457
0.0938553
0.0942362
0.0945896
0.0949114
0.0952049
0.0954729
0.0957183
0.0959435
0.0961506
0.0963416
0.0965182
0.0966821
0.0882045
0.0887177
0.0892313
0.0897434
0.0902518
0.0907547
0.0912499
0.0917352
0.0922086
0.0926679
0.0931115
0.0935346
0.0939256
0.0942799
0.0946011
0.0948926
0.0951576
0.095399
0.0956195
0.0958213
0.0960066
0.0961773
0.0867895
0.0873515
0.0879175
0.0884851
0.089052
0.0896155
0.0901729
0.0907212
0.0912574
0.0917786
0.092282
0.0927616
0.0932037
0.0936026
0.0939623
0.0942867
0.0945796
0.0948444
0.0950842
0.095302
0.0955002
0.0956812
0.0851377
0.0857518
0.0863752
0.087005
0.0876387
0.0882731
0.0889046
0.0895296
0.0901439
0.0907434
0.091324
0.0918778
0.0923881
0.0928475
0.0932601
0.0936304
0.0939625
0.0942606
0.0945284
0.0947696
0.0949871
0.0951839
0.0424743
0.0395701
0.0355185
0.0309941
0.0267395
0.0228019
0.0795077
0.0796175
0.0792238
0.0782003
0.0763828
0.0736362
0.108518
0.105868
0.103155
0.100599
0.0984231
0.0966283
0.0993277
0.0982306
0.0972604
0.096393
0.0955778
0.0951008
0.111788
0.110565
0.109464
0.108567
0.107913
0.107534
0.109205
0.108752
0.108429
0.108199
0.108031
0.107904
0.114424
0.114057
0.113723
0.113428
0.113194
0.113045
0.111877
0.11167
0.1115
0.111371
0.111286
0.111251
0.112017
0.11191
0.11183
0.111777
0.111754
0.111763
0.109461
0.109423
0.109405
0.109409
0.109434
0.109481
0.107995
0.107996
0.108012
0.108043
0.10809
0.108151
0.106113
0.10613
0.106162
0.106207
0.106265
0.106335
0.105047
0.105076
0.105115
0.105164
0.105223
0.105289
0.104134
0.104167
0.104209
0.104259
0.104317
0.10438
0.103568
0.103605
0.103649
0.103697
0.103751
0.103809
0.103
0.103038
0.103081
0.103128
0.103178
0.103231
0.10247
0.102511
0.102554
0.102599
0.102645
0.102692
0.101909
0.101951
0.101993
0.102036
0.102078
0.102118
0.101333
0.101375
0.101416
0.101455
0.101492
0.101526
0.100741
0.100782
0.10082
0.100854
0.100885
0.100912
0.100144
0.100183
0.100217
0.100246
0.10027
0.100289
0.099549
0.0995837
0.0996129
0.0996361
0.0996532
0.099664
0.0989621
0.0989927
0.0990167
0.0990339
0.0990439
0.0990468
0.0983883
0.0984148
0.0984337
0.0984449
0.0984482
0.0984435
0.0978315
0.097854
0.0978681
0.0978738
0.0978709
0.0978592
0.0972935
0.0973126
0.0973226
0.0973234
0.097315
0.0972972
0.0967744
0.0967907
0.0967973
0.096794
0.0967809
0.0967579
0.0962715
0.0962858
0.0962898
0.0962833
0.0962665
0.0962391
0.0957793
0.0957923
0.0957944
0.0957855
0.0957658
0.095735
0.0952885
0.0953007
0.0953016
0.0952912
0.0952695
0.0952364
0.0195864
0.0168964
0.0145491
0.0127173
0.0115161
0.0108998
0.0108005
0.0111609
0.0117245
0.0126527
0.013853
0.0153074
0.0169489
0.0187064
0.0205714
0.0226387
0.0247248
0.0265741
0.0280646
0.0291612
0.0298896
0.0305171
0.0703585
0.0669221
0.0626295
0.0581012
0.0536427
0.049469
0.0451475
0.0427053
0.0422328
0.0430509
0.0444557
0.0465779
0.0487602
0.0508671
0.0528457
0.0544813
0.0556781
0.0564872
0.057014
0.0574196
0.0578017
0.0582164
0.0955468
0.0951992
0.0957682
0.0969883
0.0989131
0.101588
0.104945
0.108132
0.111133
0.113756
0.115776
0.116996
0.117331
0.11699
0.1163
0.115745
0.115722
0.116204
0.117068
0.11819
0.11945
0.120748
0.0950583
0.095409
0.0957141
0.0960003
0.0962263
0.0963869
0.0968127
0.0975575
0.0984877
0.099699
0.101281
0.103292
0.105625
0.108251
0.111008
0.114125
0.117115
0.119783
0.122088
0.124041
0.125641
0.126884
0.107513
0.107762
0.108199
0.108835
0.109666
0.110718
0.111789
0.112808
0.114012
0.115444
0.117127
0.119049
0.121127
0.123268
0.125415
0.127067
0.128684
0.130365
0.132074
0.133759
0.135384
0.136925
0.107863
0.107914
0.107987
0.108092
0.108309
0.108651
0.109112
0.109692
0.1104
0.11123
0.112169
0.113189
0.114236
0.115264
0.116254
0.117201
0.118128
0.119024
0.119878
0.120672
0.121378
0.121966
0.113011
0.113076
0.113195
0.113378
0.11363
0.113953
0.114346
0.114805
0.115334
0.115921
0.116557
0.117226
0.117897
0.118544
0.11916
0.119739
0.120274
0.120758
0.121184
0.121545
0.121835
0.122055
0.11125
0.111283
0.111356
0.111466
0.111614
0.111796
0.11201
0.112251
0.112516
0.112793
0.113077
0.113357
0.113615
0.113842
0.114032
0.114183
0.114292
0.114356
0.114375
0.114349
0.114281
0.114171
0.111777
0.111797
0.111839
0.111902
0.111986
0.112089
0.112211
0.112346
0.112491
0.112642
0.112793
0.112937
0.113064
0.113167
0.113243
0.113292
0.113311
0.113301
0.113262
0.113194
0.113098
0.112977
0.109495
0.109475
0.10947
0.109479
0.1095
0.10953
0.109569
0.109611
0.109654
0.109692
0.109721
0.109735
0.109729
0.109702
0.109655
0.109586
0.109496
0.109386
0.109256
0.109108
0.108943
0.108761
0.108172
0.108152
0.108141
0.10814
0.108148
0.108163
0.108184
0.108209
0.108236
0.108262
0.108283
0.108297
0.108298
0.108286
0.108258
0.108216
0.108157
0.108083
0.107993
0.107887
0.107766
0.10763
0.106362
0.106345
0.106335
0.106333
0.106337
0.106347
0.10636
0.106376
0.106391
0.106402
0.106407
0.1064
0.106377
0.10634
0.106288
0.106221
0.106137
0.106039
0.105925
0.105797
0.105654
0.105497
0.105322
0.105318
0.10532
0.105327
0.105338
0.105353
0.10537
0.105389
0.105406
0.105419
0.105426
0.105421
0.105402
0.105369
0.10532
0.105255
0.105174
0.105077
0.104963
0.104834
0.104689
0.104529
0.104416
0.104419
0.104426
0.104434
0.104444
0.104453
0.104461
0.104466
0.104465
0.104456
0.104434
0.104396
0.104339
0.104265
0.104174
0.104066
0.103941
0.103799
0.103642
0.103469
0.103282
0.103081
0.10384
0.103842
0.103844
0.103846
0.103846
0.103841
0.103831
0.103813
0.103784
0.103741
0.103682
0.103606
0.103514
0.103405
0.10328
0.103139
0.102981
0.102807
0.102618
0.102413
0.102194
0.101961
0.103255
0.103245
0.103232
0.103216
0.103194
0.103165
0.103127
0.103078
0.103015
0.102937
0.10284
0.102722
0.102584
0.102429
0.102256
0.102067
0.101862
0.101642
0.101407
0.10116
0.1009
0.100629
0.102704
0.102677
0.102646
0.102608
0.102562
0.102507
0.10244
0.102359
0.102263
0.102148
0.102013
0.101854
0.101675
0.101478
0.101266
0.101037
0.100795
0.100539
0.10027
0.0999895
0.0996986
0.099398
0.102118
0.102072
0.102019
0.101958
0.101886
0.101803
0.101705
0.101592
0.10146
0.101308
0.101132
0.100932
0.10071
0.100472
0.100219
0.0999515
0.0996711
0.0993789
0.099076
0.0987635
0.0984426
0.0981141
0.101512
0.101447
0.101372
0.101288
0.101191
0.10108
0.100953
0.100808
0.100644
0.100457
0.100245
0.100007
0.0997486
0.0994752
0.0991881
0.0988886
0.098578
0.0982574
0.097928
0.0975909
0.0972472
0.0968979
0.100884
0.1008
0.100705
0.100597
0.100476
0.100339
0.100185
0.100011
0.0998159
0.0995971
0.0993525
0.0990812
0.0987895
0.0984844
0.0981673
0.0978394
0.0975021
0.0971564
0.0968038
0.0964452
0.0960818
0.0957145
0.100248
0.100145
0.10003
0.099901
0.0997571
0.0995964
0.099417
0.0992173
0.0989952
0.0987486
0.0984754
0.0981756
0.0978561
0.0975248
0.0971832
0.0968325
0.0964741
0.0961093
0.0957392
0.095365
0.0949877
0.0946081
0.0996103
0.0994902
0.0993569
0.0992088
0.0990445
0.0988624
0.098661
0.0984383
0.0981927
0.0979222
0.0976248
0.0973008
0.0969581
0.0966052
0.0962434
0.0958743
0.095499
0.0951187
0.0947348
0.0943482
0.0939598
0.0935705
0.0989809
0.0988454
0.0986956
0.0985302
0.098348
0.0981474
0.0979267
0.0976845
0.0974189
0.0971282
0.0968106
0.0964666
0.0961049
0.0957342
0.0953561
0.094972
0.094583
0.0941904
0.0937953
0.0933987
0.0930015
0.0926044
0.0983666
0.0982173
0.098053
0.0978727
0.0976749
0.0974583
0.0972213
0.0969624
0.0966799
0.0963721
0.0960373
0.0956762
0.095298
0.094912
0.0945194
0.0941217
0.0937201
0.0933157
0.0929097
0.0925029
0.0920963
0.0916906
0.0977726
0.0976112
0.0974344
0.097241
0.0970298
0.0967994
0.0965481
0.0962746
0.095977
0.0956539
0.0953033
0.0949261
0.094532
0.0941304
0.0937228
0.0933105
0.0928947
0.0924766
0.0920572
0.0916376
0.0912186
0.0908011
0.0972019
0.0970298
0.0968419
0.0966369
0.0964136
0.0961704
0.0959058
0.0956181
0.0953057
0.0949668
0.0945994
0.0942044
0.0937918
0.0933716
0.0929451
0.0925138
0.092079
0.091642
0.0912038
0.0907657
0.0903286
0.0898935
0.0966548
0.0964728
0.0962743
0.096058
0.0958225
0.0955661
0.0952872
0.0949839
0.0946543
0.0942963
0.0939079
0.0934898
0.0930526
0.0926068
0.092154
0.0916958
0.0912338
0.0907695
0.0903043
0.0898395
0.0893763
0.0889159
0.0961286
0.0959363
0.0957264
0.0954975
0.0952479
0.0949757
0.094679
0.0943556
0.0940032
0.0936195
0.093202
0.0927515
0.0922793
0.091797
0.0913067
0.0908103
0.0903099
0.0898073
0.0893045
0.088803
0.0883044
0.0878101
0.0956169
0.0954122
0.0951884
0.0949434
0.0946754
0.094382
0.0940609
0.0937096
0.0933251
0.0929049
0.092446
0.0919494
0.0914278
0.0908945
0.0903521
0.0898035
0.0892514
0.0886982
0.0881463
0.0875979
0.0870547
0.0865186
0.0951094
0.0948884
0.0946455
0.0943785
0.0940848
0.0937616
0.0934061
0.093015
0.0925852
0.0921134
0.0915966
0.0910362
0.0904473
0.0898455
0.0892347
0.0886187
0.0880011
0.0873851
0.0867738
0.0861695
0.0855746
0.0849911
0.0310891
0.031639
0.0323763
0.0333321
0.0345517
0.0360929
0.038016
0.040366
0.0431722
0.0464613
0.0502671
0.054716
0.0599211
0.0659437
0.0727037
0.0796009
0.0860742
0.0918912
0.0968331
0.100336
0.101597
0.0997766
0.0973069
0.0922515
0.0851354
0.077334
0.0689328
0.0605168
0.051703
0.0424415
0.0328198
0.02301
0.0132922
0.00471041
0.00094844
0.0585675
0.0588126
0.0591477
0.0595919
0.0602334
0.0611788
0.0625122
0.0642859
0.0665217
0.0692219
0.0723831
0.0760217
0.0801838
0.0849034
0.0903149
0.0963614
0.102494
0.108137
0.112519
0.114959
0.112607
0.105432
0.0973165
0.0932605
0.0941211
0.0951199
0.0940079
0.090575
0.0838048
0.0739371
0.0607554
0.0450459
0.028062
0.0117234
0.00132568
0.121623
0.122139
0.122671
0.12324
0.123843
0.124465
0.125079
0.125642
0.126249
0.127
0.127802
0.128533
0.129115
0.129347
0.128877
0.127207
0.124856
0.123132
0.121077
0.113375
0.0999542
0.0843806
0.074418
0.0739987
0.077094
0.0791141
0.078939
0.0748679
0.0680883
0.0590338
0.0481682
0.0360312
0.0231484
0.0103381
0.00123857
0.127548
0.127916
0.128137
0.128165
0.127924
0.127491
0.126843
0.126083
0.12529
0.124542
0.123653
0.122261
0.118728
0.112278
0.1053
0.0972229
0.0916721
0.0866523
0.0815841
0.0703127
0.0574417
0.0468232
0.0400083
0.0361927
0.0333125
0.0301943
0.0281907
0.0263738
0.0232457
0.0189171
0.0144924
0.0104154
0.00670529
0.0031541
0.000596778
0.138173
0.139226
0.140366
0.141571
0.142827
0.144098
0.145228
0.146039
0.146151
0.145319
0.143174
0.139644
0.134431
0.126605
0.114819
0.100228
0.0867159
0.0796171
0.0781748
0.0774778
0.0741366
0.0696985
0.0666392
0.0650967
0.0640892
0.0633411
0.0617736
0.0584333
0.0534038
0.0466298
0.0382075
0.0282725
0.0174755
0.00719142
0.000826242
0.122347
0.122657
0.122916
0.123083
0.123116
0.122964
0.122634
0.122076
0.121227
0.119942
0.1179
0.114513
0.109168
0.10115
0.089842
0.0768878
0.0657068
0.0572083
0.0524966
0.0499775
0.0485453
0.0460521
0.0425783
0.0389653
0.0361796
0.0350013
0.0344792
0.03357
0.0316175
0.0286358
0.024187
0.0185068
0.0118883
0.00514209
0.000638385
0.122226
0.12238
0.122522
0.122643
0.12273
0.12276
0.122704
0.122513
0.122111
0.121374
0.120105
0.118028
0.114883
0.110385
0.104231
0.0966735
0.0881093
0.0783947
0.0678594
0.0574047
0.0476763
0.0389867
0.0315711
0.0247961
0.0189477
0.0147643
0.0131667
0.0136318
0.0135685
0.0131217
0.0114664
0.00901572
0.00609266
0.00286117
0.000396845
0.114084
0.114063
0.114018
0.113934
0.113797
0.113584
0.113266
0.112803
0.112142
0.111216
0.109942
0.108218
0.105914
0.102838
0.0987123
0.093383
0.0869835
0.0795446
0.0712708
0.0624802
0.0535586
0.044541
0.0365828
0.0297562
0.0239468
0.0191104
0.0150331
0.011699
0.0089324
0.00662786
0.00473077
0.00317991
0.00193463
0.000842151
0.000194625
0.11289
0.112846
0.112782
0.112691
0.112564
0.112388
0.112144
0.111805
0.111327
0.110648
0.109679
0.108308
0.106424
0.103884
0.100526
0.0963928
0.0916629
0.0864002
0.0807413
0.0748325
0.0688751
0.0627646
0.056918
0.0516492
0.0466396
0.0416169
0.0364532
0.031255
0.0260165
0.0208087
0.0157216
0.0108351
0.00628126
0.00241652
0.000294062
0.108626
0.108562
0.108478
0.108366
0.108216
0.108013
0.10774
0.107372
0.106877
0.106214
0.105337
0.104191
0.102704
0.100788
0.0983484
0.0954139
0.0920873
0.0883611
0.0842238
0.0796666
0.0746609
0.0689714
0.0627003
0.0563614
0.0499621
0.0435586
0.037236
0.03108
0.0252051
0.019704
0.0146388
0.0100502
0.00597301
0.00249874
0.000239063
0.107532
0.107477
0.107405
0.107311
0.107188
0.107027
0.106814
0.106532
0.106156
0.105646
0.104958
0.104043
0.102842
0.101281
0.0992825
0.0968717
0.0941333
0.0910501
0.0875827
0.083654
0.0791625
0.0737914
0.067583
0.0611158
0.054493
0.0478383
0.0411566
0.0345914
0.0282562
0.0222457
0.0166197
0.0114171
0.00670146
0.00268662
0.000295616
0.105379
0.105318
0.10524
0.10514
0.105011
0.104843
0.104625
0.104341
0.10397
0.103489
0.102864
0.102057
0.101016
0.0996776
0.0979686
0.0959039
0.0935447
0.0908482
0.0877391
0.0841012
0.0797739
0.0744189
0.068067
0.0613384
0.0543496
0.0473284
0.040384
0.0336732
0.0273188
0.0213802
0.0158998
0.0109134
0.00646279
0.00267402
0.000247213
0.104411
0.104343
0.104259
0.104153
0.104022
0.103855
0.103643
0.10337
0.103017
0.102563
0.101982
0.101239
0.100287
0.0990641
0.0974982
0.0955854
0.0933599
0.0907637
0.0877138
0.0840967
0.0797555
0.07432
0.067797
0.0608493
0.0536882
0.046485
0.0394271
0.0326969
0.0264013
0.0205907
0.0152844
0.0104856
0.00620455
0.00255323
0.000263479
0.102932
0.102848
0.102747
0.102623
0.102471
0.102284
0.102051
0.101762
0.101399
0.100943
0.100369
0.0996442
0.0987247
0.0975524
0.0960588
0.0942377
0.0921144
0.089624
0.086678
0.083157
0.0788983
0.0735439
0.0671192
0.0603099
0.0532843
0.0462541
0.0393142
0.0326376
0.0263483
0.0205222
0.0152029
0.0104131
0.00617276
0.00257263
0.000237122
0.101794
0.101698
0.101583
0.101446
0.101281
0.101079
0.100831
0.100526
0.10015
0.0996855
0.0991081
0.0983868
0.0974795
0.0963302
0.094867
0.0930781
0.0909805
0.0885054
0.0855603
0.0820212
0.077726
0.0723253
0.0658554
0.058998
0.0519336
0.0448551