/*--------------------------------*- C++ -*----------------------------------*\
  =========                 |
  \\      /  F ield         | OpenFOAM: The Open Source CFD Toolbox
   \\    /   O peration     | Website:  https://openfoam.org
    \\  /    A nd           | Version:  8
     \\/     M anipulation  |
\*---------------------------------------------------------------------------*/
FoamFile
{
    version     2.0;
    format      ascii;
    class       volScalarField;
    location    "0.27";
    object      nut;
}
// * * * * * * * * * * * * * * * * * * * * * * * * * * * * * * * * * * * * * //

dimensions      [0 2 -1 0 0 0 0];

internalField   nonuniform List<scalar> 
15677
(
0.00065607
0.00157129
0.00497691
0.00821112
0.0112758
0.0145541
0.0183783
0.0227601
0.0276486
0.0332943
0.0395296
0.0457901
0.0514537
0.0568127
0.0610675
0.0638353
0.0645934
0.0647468
0.0645187
0.0638281
0.0627903
0.061529
0.0602531
0.0590231
0.0578849
0.0568781
0.0560276
0.0553405
0.05481
0.0544193
0.0541477
0.0539765
0.0538892
0.0538714
0.0539041
0.00111315
0.00938385
0.0242402
0.0415681
0.0590787
0.0746237
0.0856729
0.0907764
0.0926484
0.0924158
0.0923904
0.0929258
0.0903786
0.0870081
0.0835342
0.0805983
0.0799465
0.0810658
0.0828511
0.0845287
0.0857686
0.0863333
0.0862418
0.0858568
0.0852863
0.0847
0.0842166
0.0838509
0.0835874
0.083412
0.0833112
0.0832705
0.0832748
0.0833089
0.0833585
0.000995981
0.00925335
0.0222741
0.036608
0.0508439
0.0641736
0.0761571
0.086621
0.0949693
0.100473
0.102186
0.0992345
0.0922616
0.0838626
0.0753996
0.0688018
0.0656131
0.066568
0.0709657
0.0763956
0.0809142
0.0858237
0.0898514
0.0928757
0.0950357
0.0965656
0.0976818
0.0985161
0.0991584
0.0996732
0.100095
0.100446
0.100743
0.101003
0.101234
0.000876248
0.00641846
0.0157686
0.0260402
0.0364269
0.0464032
0.0555385
0.0632645
0.0691289
0.0726055
0.0749728
0.0755081
0.075032
0.0738505
0.0718978
0.0677719
0.0629974
0.0604481
0.0616446
0.0654938
0.0721605
0.0795769
0.0866845
0.0935693
0.0981097
0.101192
0.103084
0.104143
0.10461
0.105012
0.105319
0.105619
0.10591
0.106186
0.10644
0.000715833
0.00621613
0.0140084
0.0221403
0.0303083
0.0383012
0.0459721
0.0528946
0.0587553
0.0633268
0.0661071
0.0666791
0.0648379
0.0589759
0.0506437
0.0435702
0.0430909
0.0515317
0.0657328
0.0811893
0.0915478
0.0969104
0.0998591
0.101975
0.103703
0.105209
0.106492
0.107516
0.108288
0.108671
0.108818
0.108778
0.108624
0.108416
0.108194
0.000481791
0.00296683
0.00681073
0.010818
0.0148617
0.018898
0.022827
0.0265498
0.0299809
0.032271
0.0328691
0.0330035
0.0317941
0.0301937
0.0291646
0.0306081
0.0364531
0.0452938
0.0573142
0.0704549
0.0825757
0.0921349
0.0978941
0.101615
0.103937
0.105287
0.105968
0.106218
0.106218
0.106089
0.105899
0.105686
0.105473
0.105273
0.105091
0.000254114
0.00200037
0.00412339
0.00631148
0.00850044
0.0106058
0.0124239
0.0136682
0.0154034
0.0177575
0.0215772
0.0263148
0.032348
0.0397662
0.0481503
0.0567357
0.0652915
0.0733249
0.0805635
0.0866763
0.0912054
0.0944338
0.0967501
0.0984865
0.0998416
0.100895
0.101661
0.102164
0.102412
0.102476
0.102422
0.102317
0.102193
0.102069
0.101952
0.000178248
0.001002
0.00234887
0.00378744
0.00536195
0.00721038
0.00968766
0.0135624
0.0193154
0.0267043
0.0350522
0.0435646
0.0519706
0.0600241
0.0670156
0.0729809
0.077829
0.0819563
0.085501
0.0885689
0.0912046
0.0932953
0.0948233
0.0958882
0.0966009
0.0970636
0.0973562
0.0975384
0.0976524
0.0977216
0.0977603
0.097778
0.0977816
0.0977741
0.0977598
0.000266324
0.00231148
0.0058169
0.00993612
0.0144315
0.0192145
0.0242589
0.0295332
0.0350545
0.0408527
0.0469471
0.0532826
0.059794
0.0662682
0.0718488
0.0762889
0.079931
0.0829708
0.0855511
0.087769
0.0896852
0.0912631
0.0924891
0.0934092
0.0940762
0.0945416
0.0948516
0.0950447
0.0951514
0.0951951
0.0952021
0.0951895
0.0951667
0.0951398
0.095112
0.000236013
0.00237867
0.00584366
0.00996595
0.0146362
0.0198155
0.0254639
0.0315146
0.0378582
0.0443536
0.050851
0.0571786
0.0631759
0.0687405
0.0733499
0.0770245
0.0801011
0.0827253
0.0849809
0.0869028
0.0885025
0.0897402
0.0906456
0.0913006
0.0917693
0.0921004
0.0923283
0.0924799
0.0925758
0.0926318
0.0926597
0.0926684
0.0926649
0.0926543
0.0926399
0.000245607
0.00230935
0.00576292
0.00987915
0.0145308
0.0196865
0.0253224
0.0313889
0.0377959
0.0444031
0.0510254
0.0574466
0.0634554
0.068912
0.0733125
0.0767472
0.0795676
0.0819374
0.0839658
0.0857128
0.0872017
0.0883849
0.0892653
0.0899061
0.0903648
0.0906856
0.0909029
0.0910427
0.0911248
0.0911641
0.0911753
0.0911693
0.091153
0.0911312
0.0911072
0.000221258
0.00245545
0.00604857
0.010354
0.0152317
0.0206122
0.0264257
0.0325817
0.0389478
0.0453673
0.0517096
0.0577891
0.0634655
0.0686394
0.0728411
0.0761384
0.0788421
0.0810858
0.0829695
0.0845646
0.0859089
0.0869685
0.0877562
0.0883367
0.0887642
0.0890731
0.0892926
0.0894447
0.0895466
0.0896115
0.0896497
0.0896693
0.0896765
0.0896754
0.0896689
0.000218444
0.00225489
0.00559432
0.00962249
0.0142281
0.0193704
0.0250027
0.0310488
0.0373903
0.0438599
0.0502961
0.0564954
0.0622841
0.0675387
0.0717677
0.0750499
0.0777182
0.0799204
0.0817548
0.0832896
0.0845721
0.0855856
0.086347
0.0869149
0.0873385
0.0876534
0.087886
0.0880558
0.0881779
0.0882633
0.0883225
0.0883636
0.0883921
0.088412
0.0884257
0.000202953
0.00233894
0.00576195
0.00987204
0.0145379
0.0196912
0.0252637
0.0311689
0.0372864
0.043489
0.0496662
0.0556424
0.0612747
0.0664463
0.070646
0.0739107
0.0765501
0.0787054
0.0804802
0.0819509
0.0831737
0.0841463
0.0848913
0.085458
0.0858912
0.086223
0.0864777
0.0866736
0.0868246
0.0869413
0.0870319
0.0871027
0.0871584
0.0872027
0.0872382
0.000195296
0.00216593
0.0053361
0.00915846
0.0135369
0.018431
0.0237915
0.0295438
0.0355782
0.0417522
0.0479352
0.0539518
0.0596497
0.064905
0.069191
0.0725266
0.075216
0.0774033
0.0791959
0.0806739
0.0818971
0.0828667
0.0836073
0.0841765
0.0846183
0.0849639
0.085236
0.0854514
0.0856225
0.0857588
0.0858678
0.0859564
0.0860296
0.0860909
0.0861428
0.000186953
0.0021799
0.00536662
0.00919558
0.0135491
0.0183688
0.0235985
0.0291685
0.0349827
0.0409247
0.0469039
0.0527569
0.0583455
0.0635475
0.0678281
0.0711788
0.07389
0.0760985
0.0779089
0.0794007
0.0806402
0.0816251
0.082381
0.082966
0.0834246
0.0837883
0.0840793
0.0843144
0.0845059
0.084663
0.084793
0.0849014
0.0849924
0.0850694
0.0851354
0.000177311
0.00205987
0.00503613
0.00861367
0.0127126
0.0172986
0.0223301
0.0277442
0.0334509
0.0393326
0.0452736
0.051127
0.0567488
0.0620103
0.0663603
0.0697792
0.0725538
0.0748176
0.0766746
0.0782058
0.079475
0.080485
0.0812624
0.0818668
0.0823441
0.0827259
0.0830347
0.0832869
0.0834944
0.0836665
0.08381
0.0839304
0.0840327
0.0841203
0.084196
0.000174903
0.00204993
0.0050423
0.00863016
0.0127046
0.017216
0.0221189
0.0273576
0.0328563
0.0385167
0.0442561
0.0499454
0.0554544
0.0606595
0.0650045
0.0684474
0.0712602
0.0735676
0.0754686
0.0770418
0.0783499
0.0793943
0.0802007
0.0808302
0.0813295
0.0817312
0.0820581
0.0823269
0.0825499
0.0827365
0.0828936
0.0830268
0.0831404
0.0832379
0.0833221
0.000163925
0.00199627
0.00485096
0.0082597
0.012147
0.0164806
0.0212243
0.0263265
0.0317149
0.0372932
0.042963
0.0486067
0.0540937
0.0593018
0.0636734
0.0671545
0.0700114
0.0723647
0.0743107
0.0759267
0.0772747
0.0783544
0.0791909
0.0798462
0.0803681
0.0807898
0.0811347
0.0814198
0.0816576
0.0818575
0.0820267
0.0821708
0.0822942
0.0824003
0.0824918
0.000163947
0.00193098
0.00473964
0.00810579
0.0119344
0.0161844
0.0208179
0.0257876
0.0310298
0.0364585
0.0419893
0.0475196
0.0529254
0.0580875
0.0624502
0.0659452
0.0688293
0.0712167
0.0731998
0.0748533
0.076238
0.0773517
0.0782174
0.0788979
0.0794417
0.0798824
0.0802441
0.0805439
0.0807948
0.0810064
0.0811861
0.0813395
0.0814713
0.081585
0.0816835
0.000157582
0.00188648
0.00460012
0.00784567
0.0115459
0.0156692
0.020183
0.0250421
0.0301853
0.0355285
0.040982
0.0464499
0.0518098
0.0569479
0.0613079
0.0648147
0.0677196
0.0701334
0.0721458
0.0738299
0.0752451
0.0763877
0.0772789
0.0779817
0.0785452
0.0790034
0.0793805
0.0796941
0.0799573
0.0801799
0.0803694
0.0805317
0.0806714
0.0807921
0.0808969
0.000156751
0.00183403
0.00449827
0.00769187
0.0113283
0.015372
0.0197902
0.0245411
0.0295701
0.0348018
0.0401508
0.0455336
0.05083
0.0559274
0.0602706
0.0637769
0.0666917
0.0691218
0.0711543
0.0728606
0.0742991
0.0754642
0.076376
0.0770972
0.077677
0.0781498
0.0785401
0.0788655
0.0791392
0.0793713
0.0795693
0.0797393
0.0798859
0.0800129
0.0801234
0.000153146
0.00179415
0.00438963
0.00750117
0.0110505
0.0150057
0.0193358
0.0240001
0.0289455
0.0341
0.0393765
0.0446969
0.0499435
0.0550055
0.0593301
0.0628306
0.0657479
0.0681861
0.0702303
0.0719505
0.0734042
0.0745848
0.0755109
0.0762452
0.0768371
0.077321
0.0777212
0.0780557
0.0783378
0.0785774
0.0787823
0.0789585
0.0791108
0.079243
0.0793581
0.000151809
0.00175594
0.00430784
0.00736845
0.0108564
0.0147405
0.0189924
0.0235749
0.0284382
0.0335143
0.0387177
0.0439722
0.0491659
0.0541879
0.0584879
0.061976
0.0648885
0.067327
0.0693747
0.0711006
0.0725614
0.0737497
0.0746833
0.0754247
0.0760233
0.0765133
0.0769194
0.0772593
0.0775464
0.0777906
0.0779998
0.07818
0.0783359
0.0784714
0.0785897
0.000149505
0.00172317
0.00422547
0.00722939
0.0106567
0.0144771
0.0186633
0.0231794
0.0279764
0.0329891
0.0381333
0.0433312
0.0484777
0.0534615
0.0577352
0.0612066
0.0641087
0.0665408
0.0685848
0.0703084
0.0717679
0.0729554
0.0738887
0.0746299
0.0752285
0.0757187
0.0761251
0.0764654
0.0767529
0.0769977
0.0772074
0.0773881
0.0775447
0.0776808
0.0777997
0.000148152
0.00169288
0.00415777
0.00711937
0.0104988
0.0142661
0.0183949
0.0228508
0.0275869
0.0325402
0.0376285
0.0427726
0.0478735
0.0528187
0.0570637
0.0605147
0.0634013
0.0658208
0.0678539
0.0695673
0.0710167
0.0721943
0.0731182
0.0738507
0.0744411
0.0749237
0.0753231
0.075657
0.0759387
0.0761782
0.0763831
0.0765595
0.0767121
0.0768448
0.0769606
0.00014658
0.00166606
0.00409475
0.00701594
0.0103517
0.0140725
0.0181525
0.0225578
0.0272425
0.0321454
0.0371852
0.0422814
0.0473401
0.0522478
0.0564628
0.0598903
0.0627566
0.0651577
0.0671728
0.0688679
0.0702976
0.0714551
0.0723592
0.0730727
0.0736448
0.0741102
0.0744933
0.074812
0.0750795
0.0753058
0.0754986
0.0756639
0.0758063
0.0759297
0.076037
0.000145408
0.00164185
0.00404029
0.00692801
0.0102269
0.0139077
0.0179449
0.0223054
0.0269441
0.0318015
0.0367971
0.0418491
0.0468678
0.0517384
0.0559218
0.0593226
0.0621642
0.0645409
0.0665308
0.0681987
0.0695987
0.0707245
0.0715969
0.0722792
0.0728211
0.0732573
0.0736126
0.0739049
0.0741476
0.0743508
0.074522
0.0746672
0.0747911
0.0748975
0.0749892
0.000144281
0.00162014
0.00399088
0.00684831
0.0101145
0.0137603
0.0177604
0.0220821
0.0266809
0.031498
0.0364539
0.0414653
0.046446
0.0512799
0.0554301
0.0588009
0.0616132
0.0639595
0.0659166
0.0675481
0.0689071
0.0699886
0.0708159
0.0714533
0.071951
0.0723442
0.072658
0.0729107
0.0731158
0.0732835
0.0734214
0.0735356
0.0736308
0.0737105
0.0737777
0.00014336
0.00160058
0.00394711
0.00677822
0.0100159
0.0136309
0.0175982
0.0218853
0.0264482
0.0312287
0.0361481
0.0411215
0.0460656
0.0508626
0.0549775
0.0583152
0.0610933
0.0634029
0.0653192
0.0669047
0.068211
0.0692345
0.0700021
0.0705795
0.0710176
0.0713523
0.0716093
0.0718073
0.0719602
0.0720783
0.0721696
0.0722401
0.0722944
0.0723362
0.0723684
0.0539319
0.0539739
0.0540036
0.0540464
0.0540381
0.0539572
0.0537747
0.0534553
0.0529578
0.0522356
0.051282
0.0499202
0.0483834
0.0466712
0.0448349
0.0429305
0.0410187
0.0391641
0.0374272
0.0358459
0.0344127
0.0330511
0.0833538
0.0833016
0.0832396
0.0831622
0.0830603
0.0829105
0.0826751
0.0823169
0.0817945
0.0810687
0.0801035
0.0789226
0.0776252
0.0763535
0.07525
0.0744681
0.07412
0.0741257
0.0743426
0.0748039
0.0753997
0.075846
0.101452
0.101668
0.101874
0.102072
0.102265
0.102461
0.102673
0.102913
0.103212
0.103553
0.103799
0.103767
0.103308
0.102364
0.100998
0.0992832
0.0973387
0.0953145
0.0933254
0.0913941
0.0895292
0.0877051
0.106724
0.107038
0.107313
0.107568
0.107739
0.107815
0.107763
0.107412
0.106735
0.105712
0.104545
0.103194
0.101746
0.100293
0.0988781
0.0975183
0.0961984
0.0949185
0.0937363
0.0925921
0.0914412
0.0903526
0.107918
0.107551
0.107145
0.106724
0.106289
0.10585
0.105413
0.104981
0.104547
0.104091
0.103452
0.102702
0.101856
0.100954
0.100028
0.099081
0.0981021
0.0971447
0.0962072
0.0952866
0.0943846
0.093486
0.104897
0.104672
0.10443
0.104165
0.103891
0.10361
0.103319
0.103013
0.102694
0.102348
0.101961
0.101508
0.101
0.100451
0.099872
0.0992732
0.0986637
0.0980149
0.0973482
0.0966821
0.0960583
0.0954965
0.101867
0.101793
0.101705
0.101604
0.101492
0.101367
0.101226
0.101069
0.100892
0.100689
0.100455
0.100186
0.0998855
0.099561
0.0992165
0.0988576
0.0984904
0.098121
0.097756
0.097403
0.0970699
0.0967634
0.0977954
0.0978669
0.0979248
0.0979696
0.0980016
0.0980209
0.0980269
0.0980185
0.0979943
0.0979523
0.0978897
0.097804
0.0976959
0.0975692
0.0974266
0.0972713
0.0971071
0.0969377
0.0967668
0.0965981
0.0964349
0.09628
0.0951325
0.0951928
0.0952464
0.0952937
0.0953352
0.0953713
0.0954021
0.0954276
0.0954475
0.0954614
0.0954688
0.0954687
0.095461
0.0954463
0.0954252
0.0953982
0.0953668
0.0953322
0.0952961
0.09526
0.0952251
0.095193
0.0926686
0.0927323
0.092792
0.0928484
0.0929022
0.0929538
0.093003
0.0930493
0.0930925
0.0931331
0.0931722
0.09321
0.0932463
0.0932816
0.0933159
0.09335
0.0933842
0.093419
0.093455
0.0934927
0.0935324
0.0935745
0.0911186
0.091156
0.0911865
0.0912117
0.0912333
0.0912529
0.0912716
0.0912904
0.0913101
0.0913309
0.0913539
0.0913802
0.0914103
0.0914452
0.0914859
0.0915327
0.0915856
0.0916445
0.0917089
0.0917784
0.0918526
0.0919313
0.0897006
0.0897586
0.089807
0.0898471
0.0898802
0.0899078
0.089931
0.0899509
0.0899686
0.0899855
0.090003
0.0900224
0.0900445
0.09007
0.0901005
0.0901377
0.0901822
0.0902343
0.0902936
0.0903599
0.0904325
0.0905118
0.0884845
0.0885773
0.088659
0.0887297
0.08879
0.0888408
0.088883
0.0889181
0.0889474
0.0889729
0.0889964
0.0890201
0.0890453
0.0890737
0.0891064
0.0891443
0.0891882
0.0892381
0.089294
0.0893555
0.0894224
0.0894955
0.0873255
0.0874554
0.0875766
0.0876886
0.0877915
0.0878852
0.0879699
0.0880458
0.0881134
0.0881729
0.0882259
0.0882735
0.088317
0.0883584
0.0883999
0.0884433
0.0884896
0.088539
0.0885919
0.0886481
0.0887077
0.0887716
0.086252
0.0864118
0.0865645
0.0867095
0.0868466
0.0869761
0.0870982
0.0872134
0.0873222
0.0874255
0.087523
0.0876137
0.0876954
0.0877684
0.0878351
0.0878976
0.0879578
0.0880169
0.0880761
0.0881359
0.088197
0.0882605
0.0852623
0.0854455
0.0856233
0.0857953
0.0859611
0.0861205
0.0862732
0.0864195
0.0865593
0.0866931
0.086821
0.0869426
0.0870551
0.0871579
0.0872522
0.0873396
0.0874214
0.0874989
0.0875731
0.0876449
0.087715
0.0877847
0.0843366
0.0845389
0.0847373
0.084931
0.0851197
0.085303
0.0854807
0.0856527
0.085819
0.0859797
0.0861349
0.0862838
0.0864229
0.0865511
0.0866697
0.0867799
0.0868829
0.0869796
0.0870711
0.0871581
0.0872414
0.087322
0.0834739
0.0836904
0.0839032
0.0841123
0.0843174
0.0845185
0.0847154
0.0849077
0.0850953
0.0852782
0.0854563
0.0856284
0.0857903
0.0859401
0.0860792
0.0862089
0.0863302
0.086444
0.0865513
0.0866526
0.0867488
0.0868407
0.0826551
0.0828875
0.0831159
0.0833404
0.0835608
0.0837774
0.0839899
0.0841985
0.0844029
0.0846032
0.0847992
0.0849896
0.0851694
0.0853365
0.0854922
0.0856376
0.0857737
0.0859016
0.086022
0.0861356
0.086243
0.0863451
0.0818585
0.0821079
0.0823532
0.0825943
0.082831
0.0830635
0.0832918
0.0835158
0.0837356
0.0839511
0.0841625
0.0843681
0.0845627
0.0847438
0.0849127
0.0850707
0.0852187
0.0853577
0.0854885
0.0856118
0.0857283
0.0858387
0.0810835
0.0813499
0.0816121
0.0818699
0.0821232
0.0823719
0.082616
0.0828553
0.0830901
0.0833201
0.0835456
0.0837648
0.0839722
0.0841652
0.0843451
0.0845133
0.0846708
0.0848187
0.0849577
0.0850887
0.0852123
0.0853292
0.0803213
0.0806052
0.0808849
0.08116
0.0814304
0.0816959
0.0819564
0.0822116
0.0824615
0.0827062
0.0829456
0.083178
0.0833974
0.0836012
0.0837909
0.0839679
0.0841335
0.0842886
0.0844343
0.0845714
0.0847005
0.0848225
0.079567
0.0798689
0.0801667
0.0804599
0.0807482
0.0810313
0.0813089
0.0815808
0.0818468
0.0821066
0.0823604
0.0826062
0.0828376
0.083052
0.083251
0.0834363
0.0836091
0.0837706
0.083922
0.0840641
0.0841977
0.0843235
0.0788094
0.0791307
0.079448
0.0797608
0.0800687
0.0803711
0.0806675
0.0809577
0.0812411
0.0815177
0.0817871
0.0820472
0.0822915
0.0825169
0.0827256
0.082919
0.0830989
0.0832666
0.0834231
0.0835697
0.0837071
0.0838362
0.0780301
0.0783733
0.078713
0.0790484
0.0793787
0.0797034
0.0800217
0.080333
0.0806369
0.0809327
0.0812202
0.0814969
0.0817558
0.0819939
0.0822132
0.0824158
0.0826033
0.0827773
0.0829392
0.0830902
0.0832312
0.0833633
0.0772015
0.0775708
0.0779371
0.0782996
0.0786572
0.0790089
0.079354
0.0796914
0.0800203
0.08034
0.0806498
0.0809471
0.0812241
0.0814776
0.08171
0.0819236
0.0821202
0.0823018
0.0824699
0.0826258
0.0827709
0.0829062
0.0762879
0.0766885
0.0770872
0.0774828
0.0778742
0.0782599
0.0786388
0.0790093
0.0793705
0.079721
0.0800599
0.080384
0.0806847
0.0809585
0.0812082
0.0814362
0.0816449
0.0818364
0.0820125
0.0821749
0.0823252
0.0824645
0.0752487
0.0756861
0.0761236
0.0765596
0.0769926
0.0774208
0.0778424
0.0782556
0.0786585
0.0790496
0.0794272
0.0797872
0.08012
0.0804215
0.0806948
0.0809428
0.0811682
0.0813736
0.0815611
0.0817328
0.0818904
0.0820354
0.074043
0.0745221
0.0750042
0.0754877
0.0759705
0.0764505
0.0769251
0.0773921
0.0778487
0.0782925
0.0787211
0.0791294
0.0795057
0.0798452
0.0801514
0.0804275
0.0806767
0.080902
0.081106
0.0812913
0.0814599
0.0816137
0.0726351
0.0731588
0.0736898
0.0742264
0.0747662
0.0753066
0.0758446
0.0763769
0.0769002
0.0774108
0.0779053
0.0783769
0.0788114
0.0792025
0.0795539
0.079869
0.0801517
0.0804054
0.0806334
0.0808385
0.0810236
0.0811909
0.0315148
0.0293576
0.0263504
0.0229929
0.019836
0.0169125
0.076258
0.0763707
0.0759926
0.0750098
0.0732659
0.0706271
0.0857638
0.0836062
0.0814086
0.0793426
0.0775852
0.0761387
0.0892688
0.0882407
0.087326
0.0865061
0.0857392
0.0852848
0.092524
0.0915301
0.0906364
0.0899091
0.0893815
0.0890781
0.0949806
0.0945753
0.0942815
0.0940688
0.0939114
0.0937924
0.0964497
0.0961461
0.0958694
0.0956256
0.0954331
0.0953108
0.0960997
0.0959188
0.0957692
0.0956547
0.0955784
0.095545
0.095123
0.0950342
0.094967
0.0949233
0.0949046
0.0949131
0.0935717
0.0935394
0.0935237
0.093526
0.0935458
0.0935841
0.0919657
0.0919662
0.0919794
0.0920058
0.0920454
0.0920979
0.0905546
0.0905697
0.0905962
0.090634
0.0906827
0.0907418
0.0895413
0.0895656
0.0895986
0.0896402
0.0896897
0.0897468
0.0888157
0.0888446
0.0888803
0.0889227
0.0889712
0.0890254
0.0883068
0.0883385
0.0883752
0.0884167
0.0884625
0.0885121
0.0878351
0.0878681
0.0879047
0.0879448
0.0879878
0.0880334
0.0873796
0.0874147
0.0874517
0.0874901
0.0875296
0.0875698
0.086905
0.0869413
0.0869777
0.087014
0.0870498
0.0870848
0.0864151
0.0864516
0.0864866
0.0865199
0.0865514
0.0865805
0.0859127
0.0859479
0.0859804
0.08601
0.0860364
0.0860593
0.0854057
0.0854386
0.0854677
0.0854927
0.0855135
0.0855297
0.0849003
0.08493
0.084955
0.084975
0.0849898
0.0849991
0.0844017
0.0844279
0.0844485
0.0844633
0.0844721
0.0844746
0.0839144
0.083937
0.0839532
0.0839629
0.0839659
0.083962
0.0834413
0.0834605
0.0834727
0.0834776
0.0834753
0.0834655
0.0829842
0.0830005
0.0830091
0.0830099
0.0830029
0.0829878
0.0825431
0.082557
0.0825627
0.0825601
0.082549
0.0825295
0.0821158
0.082128
0.0821314
0.082126
0.0821118
0.0820885
0.0816974
0.0817084
0.0817103
0.0817029
0.0816862
0.08166
0.0812802
0.0812905
0.0812914
0.0812826
0.0812642
0.081236
0.0145291
0.0125387
0.0107994
0.00944191
0.00855268
0.00809883
0.0080304
0.00830527
0.00873277
0.00943321
0.0103379
0.0114337
0.0126707
0.0139958
0.0154027
0.016962
0.0185363
0.0199338
0.0210624
0.0218955
0.0224523
0.0229319
0.0674736
0.0641526
0.0600056
0.0556316
0.0513381
0.0473234
0.0431762
0.0408359
0.0403857
0.0411709
0.0425132
0.0445343
0.0466059
0.0485989
0.0504633
0.0519937
0.0531004
0.0538355
0.0543023
0.0546544
0.0549836
0.0553492
0.0752626
0.0749799
0.0754325
0.0764026
0.0779363
0.0800717
0.0827556
0.0853141
0.0877334
0.0898583
0.0915039
0.0925123
0.0928122
0.0925701
0.0920471
0.0916313
0.091638
0.0920417
0.0927429
0.0936482
0.0946664
0.0957131
0.0852523
0.085581
0.0858666
0.0861406
0.0863671
0.0865428
0.0869638
0.0876748
0.0885507
0.0896763
0.0911323
0.0929773
0.0951177
0.097517
0.10003
0.102863
0.105575
0.107993
0.110078
0.111838
0.113275
0.11439
0.0890506
0.0892338
0.0895746
0.0900791
0.0907405
0.0915809
0.0924323
0.0932384
0.0941952
0.0953396
0.0966905
0.0982359
0.099907
0.101629
0.103355
0.104676
0.105977
0.107341
0.108736
0.110117
0.111453
0.11272
0.0937634
0.0938199
0.0938948
0.094
0.0942033
0.0945187
0.0949383
0.0954627
0.0960995
0.0968436
0.0976838
0.0985966
0.0995351
0.100457
0.101345
0.102197
0.103029
0.103835
0.104602
0.105313
0.105945
0.10648
0.0952738
0.0953137
0.0953998
0.0955395
0.0957369
0.0959931
0.0963075
0.0966791
0.0971052
0.0975794
0.0980932
0.0986327
0.0991722
0.0996917
0.100185
0.100647
0.101073
0.101458
0.101794
0.102076
0.102301
0.102466
0.0955477
0.0955861
0.0956563
0.0957594
0.0958951
0.0960616
0.0962563
0.0964752
0.0967137
0.0969656
0.0972245
0.097481
0.0977208
0.0979338
0.0981159
0.098264
0.0983755
0.0984486
0.0984825
0.0984782
0.0984372
0.098362
0.0949199
0.0949275
0.094954
0.094999
0.0950615
0.0951403
0.0952331
0.0953373
0.0954494
0.0955654
0.0956804
0.0957883
0.0958806
0.0959523
0.0960014
0.0960268
0.0960279
0.0960045
0.0959571
0.095886
0.0957918
0.0956754
0.0935968
0.0935852
0.0935855
0.0935973
0.0936196
0.0936508
0.0936889
0.0937313
0.0937745
0.0938147
0.0938479
0.0938696
0.0938755
0.0938643
0.0938353
0.0937885
0.0937238
0.0936417
0.0935429
0.0934282
0.0932987
0.0931558
0.0921128
0.0920909
0.0920776
0.0920724
0.0920745
0.0920826
0.0920956
0.0921116
0.0921287
0.0921445
0.0921562
0.0921604
0.0921538
0.0921352
0.092104
0.0920596
0.0920019
0.0919308
0.0918465
0.0917492
0.0916391
0.0915164
0.0907647
0.0907517
0.0907455
0.0907456
0.0907513
0.0907617
0.0907756
0.0907915
0.0908075
0.0908211
0.0908294
0.0908285
0.0908157
0.0907907
0.0907529
0.0907021
0.0906383
0.0905614
0.0904716
0.0903692
0.0902546
0.0901284
0.0897728
0.0897681
0.0897683
0.0897729
0.0897811
0.0897923
0.0898056
0.0898193
0.0898317
0.0898406
0.0898432
0.0898365
0.0898176
0.089786
0.0897411
0.0896825
0.0896099
0.0895235
0.0894233
0.0893095
0.0891826
0.089043
0.0890548
0.0890589
0.0890654
0.0890738
0.0890833
0.0890927
0.089101
0.0891067
0.0891076
0.0891013
0.0890847
0.0890548
0.0890095
0.0889497
0.0888755
0.0887869
0.0886841
0.0885673
0.088437
0.0882937
0.0881379
0.0879703
0.0885379
0.0885391
0.0885408
0.088542
0.0885415
0.0885377
0.0885289
0.0885131
0.088488
0.0884514
0.0884015
0.0883366
0.088257
0.0881638
0.0880564
0.0879349
0.0877993
0.08765
0.0874873
0.0873118
0.087124
0.086925
0.0880532
0.0880452
0.0880351
0.0880217
0.0880038
0.0879798
0.0879482
0.0879072
0.0878549
0.0877893
0.0877081
0.0876092
0.0874934
0.0873628
0.0872176
0.0870584
0.0868855
0.0866998
0.086502
0.086293
0.0860737
0.0858451
0.0875799
0.0875575
0.0875309
0.0874989
0.0874602
0.0874133
0.0873567
0.0872885
0.087207
0.0871098
0.0869947
0.0868599
0.0867073
0.0865402
0.0863592
0.086165
0.0859583
0.08574
0.0855109
0.0852719
0.0850239
0.0847677
0.0870844
0.087046
0.0870015
0.0869497
0.0868892
0.0868186
0.0867363
0.0866404
0.0865291
0.0864002
0.0862515
0.0860816
0.0858935
0.0856917
0.0854771
0.0852504
0.0850126
0.0847646
0.0845076
0.0842423
0.0839699
0.0836913
0.0865688
0.0865138
0.0864509
0.0863792
0.086297
0.0862031
0.0860957
0.0859732
0.0858336
0.085675
0.0854951
0.0852932
0.0850734
0.084841
0.0845969
0.0843422
0.084078
0.0838051
0.0835247
0.0832378
0.0829452
0.0826478
0.0860362
0.0859648
0.0858841
0.085793
0.0856902
0.0855742
0.0854433
0.085296
0.0851305
0.0849448
0.084737
0.0845067
0.0842588
0.0839996
0.0837302
0.0834515
0.0831647
0.0828709
0.082571
0.0822661
0.0819571
0.0816449
0.0854953
0.0854081
0.0853105
0.0852014
0.0850793
0.0849429
0.0847907
0.0846212
0.0844325
0.0842231
0.083991
0.0837361
0.0834645
0.0831829
0.0828923
0.0825941
0.0822892
0.0819788
0.0816639
0.0813454
0.0810242
0.0807012
0.0849538
0.084852
0.0847388
0.0846132
0.0844737
0.0843192
0.0841481
0.083959
0.0837503
0.0835204
0.0832676
0.0829922
0.0827009
0.0824007
0.0820931
0.0817791
0.0814598
0.0811364
0.0808097
0.0804807
0.0801503
0.0798191
0.0844191
0.0843039
0.0841768
0.0840364
0.0838817
0.0837113
0.0835238
0.083318
0.0830923
0.0828452
0.0825752
0.0822827
0.081975
0.0816598
0.0813381
0.0810113
0.0806803
0.0803463
0.08001
0.0796725
0.0793344
0.0789964
0.083897
0.0837701
0.0836307
0.0834775
0.0833095
0.0831255
0.0829241
0.082704
0.0824638
0.0822022
0.0819175
0.0816104
0.0812887
0.0809603
0.0806263
0.0802879
0.0799462
0.0796021
0.0792565
0.0789103
0.0785642
0.0782188
0.0833922
0.083255
0.0831048
0.0829406
0.0827611
0.0825652
0.0823517
0.0821191
0.0818661
0.0815913
0.0812931
0.0809723
0.080637
0.0802954
0.0799485
0.0795977
0.0792438
0.078888
0.078531
0.0781738
0.0778172
0.0774616
0.0829071
0.0827608
0.0826012
0.082427
0.0822372
0.0820304
0.0818055
0.0815609
0.0812952
0.0810069
0.0806944
0.0803583
0.0800073
0.0796497
0.0792868
0.0789197
0.0785496
0.0781776
0.0778047
0.0774317
0.0770596
0.076689
0.0824422
0.0822874
0.0821187
0.0819348
0.0817346
0.0815166
0.0812794
0.0810215
0.0807411
0.0804366
0.0801061
0.0797504
0.0793783
0.0789989
0.0786135
0.0782235
0.0778302
0.0774349
0.0770388
0.0766431
0.0762486
0.0758564
0.0819948
0.0818312
0.0816528
0.0814582
0.081246
0.0810145
0.0807621
0.080487
0.0801872
0.0798607
0.0795054
0.079122
0.0787201
0.0783096
0.0778921
0.0774695
0.0770434
0.0766155
0.0761873
0.0757602
0.0753356
0.0749144
0.0815597
0.0813857
0.0811953
0.080987
0.080759
0.0805095
0.0802363
0.0799373
0.0796102
0.0792525
0.0788619
0.0784391
0.077995
0.0775409
0.0770791
0.0766119
0.0761417
0.0756705
0.0752005
0.0747334
0.0742708
0.0738138
0.0811282
0.0809402
0.0807336
0.0805064
0.0802565
0.0799816
0.079679
0.0793461
0.0789802
0.0785785
0.0781385
0.0776613
0.0771598
0.0766473
0.0761271
0.0756024
0.0750762
0.0745515
0.0740307
0.073516
0.0730092
0.0725117
0.0233634
0.0237758
0.0243277
0.0250432
0.0259559
0.0271092
0.0285484
0.0303078
0.0324093
0.0348739
0.0377269
0.0410642
0.0449721
0.0494978
0.0545811
0.059768
0.0646327
0.0689967
0.0726981
0.0753144
0.0762353
0.0748154
0.0728884
0.069032
0.0636594
0.0577962
0.0515001
0.0452028
0.0386131
0.0316922
0.024505
0.0171791
0.00992326
0.0035164
0.000708003
0.0556712
0.0558911
0.0561963
0.0566037
0.0571968
0.058077
0.0593233
0.0609846
0.0630806
0.0656116
0.0685738
0.0719817
0.0758778
0.0802946
0.0853673
0.0910385
0.0967756
0.102029
0.106061
0.108246
0.105957
0.0992457
0.0917926
0.08817
0.0890832
0.0900501
0.0889691
0.0856775
0.0792225
0.0698452
0.0573502
0.0424864
0.0264442
0.0110393
0.00124784
0.0964206
0.0968523
0.0972989
0.0977781
0.0982905
0.0988234
0.0993568
0.0998551
0.100391
0.101047
0.101753
0.102413
0.102974
0.103283
0.103054
0.101893
0.100174
0.0989395
0.0974124
0.0912559
0.0804397
0.0679042
0.0599322
0.0596549
0.0621903
0.0638377
0.0637034
0.0604077
0.0549214
0.0476111
0.0388462
0.0290591
0.0186737
0.00834396
0.00100042
0.114993
0.115303
0.115478
0.115476
0.115228
0.114802
0.114179
0.113453
0.112697
0.111985
0.111146
0.109818
0.106538
0.100629
0.0942539
0.0869129
0.0818598
0.0773047
0.0727339
0.0626266
0.0511131
0.0416394
0.0355861
0.0322097
0.029648
0.0268618
0.0250637
0.023433
0.0206434
0.0167932
0.0128623
0.00924316
0.00595136
0.00280029
0.00053002
0.113754
0.114642
0.115607
0.116628
0.117696
0.11878
0.119752
0.120463
0.120605
0.119963
0.118235
0.115378
0.11113
0.104712
0.0949918
0.0829298
0.0717608
0.0658959
0.0646949
0.0641344
0.0614047
0.0577834
0.0552939
0.0540343
0.0532112
0.052597
0.0513006
0.0485304
0.0443543
0.0387268
0.0317296
0.023477
0.0145099
0.00597034
0.000685881
0.106832
0.107101
0.107321
0.10746
0.107481
0.107339
0.107039
0.106538
0.105782
0.104653
0.10286
0.0998942
0.0952206
0.0882137
0.0783443
0.0670473
0.0572971
0.049885
0.045777
0.0435735
0.0423143
0.0401349
0.0371105
0.0339662
0.0315428
0.0305189
0.0300644
0.0292699
0.0275635
0.0249581
0.0210762
0.0161236
0.0103555
0.00447835
0.000555921
0.102589
0.102717
0.102837
0.102939
0.103013
0.103039
0.102994
0.102836
0.1025
0.101883
0.10082
0.0990836
0.0964539
0.0926875
0.0875375
0.0812089
0.0740379
0.0658984
0.0570637
0.0482918
0.0401206
0.0328157
0.0265775
0.0208758
0.0159528
0.0124312
0.0110865
0.0114786
0.0114257
0.01105
0.00965621
0.00759259
0.00513115
0.00240975
0.000334255
0.0983031
0.0982864
0.0982476
0.0981765
0.0980593
0.0978771
0.0976044
0.097207
0.0966401
0.0958458
0.0947528
0.0932748
0.0912985
0.088662
0.0851151
0.0805293
0.0750146
0.0686015
0.0614687
0.053889
0.0461944
0.0384172
0.0315529
0.0256642
0.0206527
0.0164808
0.0129638
0.0100881
0.00770207
0.0057147
0.00407887
0.00274166
0.00166797
0.00072607
0.000167799
0.0955887
0.0955499
0.0954946
0.0954169
0.0953089
0.0951596
0.0949528
0.0946645
0.0942589
0.0936824
0.0928595
0.0916968
0.0900985
0.0879433
0.0850968
0.0815952
0.0775916
0.0731415
0.0683561
0.0633617
0.0583256
0.0531589
0.0482145
0.0437568
0.0395164
0.0352633
0.0308894
0.0264855
0.0220467
0.0176336
0.0133226
0.00918156
0.00532257
0.00204764
0.000249168
0.0930522
0.0929993
0.0929289
0.0928347
0.0927078
0.0925365
0.0923051
0.0919927
0.0915721
0.0910086
0.0902626
0.089287
0.0880219
0.086391
0.0843125
0.0818107
0.0789707
0.0757841
0.072244
0.0683373
0.0640448
0.0591645
0.0537849
0.0483468
0.042857
0.0373639
0.0319402
0.0266597
0.0216205
0.0169019
0.0125572
0.00862116
0.00512383
0.00214354
0.000205087
0.0914257
0.0913781
0.0913165
0.0912365
0.091132
0.0909949
0.0908142
0.0905746
0.0902539
0.0898201
0.0892349
0.0884568
0.0874346
0.086105
0.0844021
0.082348
0.080016
0.0773922
0.0744428
0.0711056
0.0672925
0.0627316
0.057457
0.0519611
0.0463319
0.0406748
0.0349942
0.0294122
0.0240257
0.018915
0.0141313
0.00970753
0.00569791
0.00228426
0.000251338
0.0900348
0.0899838
0.0899184
0.0898341
0.0897249
0.0895829
0.0893979
0.0891566
0.0888419
0.0884325
0.0879017
0.0872157
0.0863316
0.085194
0.0837413
0.0819855
0.0799778
0.0776813
0.0750311
0.0719259
0.0682277
0.0636484
0.0582165
0.0524621
0.046485
0.0404803
0.0345411
0.0288015
0.0233666