/*--------------------------------*- C++ -*----------------------------------*\
  =========                 |
  \\      /  F ield         | OpenFOAM: The Open Source CFD Toolbox
   \\    /   O peration     | Website:  https://openfoam.org
    \\  /    A nd           | Version:  8
     \\/     M anipulation  |
\*---------------------------------------------------------------------------*/
FoamFile
{
    version     2.0;
    format      ascii;
    class       volScalarField;
    location    "0.31";
    object      epsilon;
}
// * * * * * * * * * * * * * * * * * * * * * * * * * * * * * * * * * * * * * //

dimensions      [0 2 -3 0 0 0 0];

internalField   nonuniform List<scalar> 
15677
(
718776
108397
60723.4
52119.4
49311.9
49035
51138.3
55987.1
63556.2
71431.9
72880.5
67929
60201.9
55047.8
48969.2
42280.4
35621.7
29700.8
24599.8
20212.6
16428.8
13256.3
10811.4
9035.73
7800.59
6929.23
6240.63
5706.6
5294.95
4973.96
4715.37
4496.05
4299.53
4116.52
3944.27
3.82232e+06
1.11334e+06
645520
483258
415575
394267
398639
424416
456094
464452
369684
234569
147904
105759
87996
74816.8
60056
48184.5
39942.3
33624.5
28935.4
25595.3
22935.8
20795.4
19089.7
17677.7
16476.7
15431.6
14506.5
13682.1
12946
12288.1
11702.4
11189.1
10757.8
3.28193e+06
1.31549e+06
1.01863e+06
980289
1.04223e+06
1.14175e+06
1.25986e+06
1.36365e+06
1.38232e+06
1.22256e+06
879745
514248
236691
96035.9
51459.1
36825.7
30543.4
27357.7
25943.4
25583.7
25592.5
26087.4
26612.7
26892.3
26795.6
26388
25875.9
25385.8
24836.2
24116.5
23410.9
22932.5
22795.4
23065
23745.3
1.84846e+06
901138
718051
665198
652433
652640
651099
635598
589095
502303
399130
303852
224500
158831
113465
83182.5
60275.4
43031
30901.4
23210.2
18780.3
17289.2
18010
20485.3
23909.6
26911.8
28731.7
29245.7
28982.8
28358.8
27653
27015
26486.4
26099.5
25855.2
383938
237506
216515
214259
217781
225336
235561
244729
238556
214568
171921
122094
79414.9
48504.1
29837.5
19395.3
13882.6
11372.2
10588.4
10661.4
11226.1
12248.9
13615.6
15149.4
16720.6
18243.8
19697.5
21101.5
22485.2
23858.8
25196.1
26486
27736.9
28968.1
30202.3
32649
29369.3
30069.5
30998.1
31211.4
30782.3
29420.3
25949.8
21667.4
18389.1
15633.6
13084.1
10815.2
8998.1
7931.61
7573.02
7636.17
7943.91
8555.04
9356.67
10448.2
11953.2
13830
15939
17986.3
19754.8
21269.4
22634.7
23879
25001.8
25996.5
26868.1
27626.4
28279.3
28839.1
53371.3
14790.9
8823.1
6803.33
5844.26
5316.05
5004.82
4817.54
4718.86
4700.99
4765.02
4921.64
5200.39
5665.68
6340.51
7165.16
8145.85
9248.42
10480.7
11866.7
13425.9
15187.6
17108.2
19182.4
21368
23542.7
25517.3
27101.9
28190.5
28798.4
29017.6
29109.1
29201.9
29331.8
29499.6
28008.4
12072.8
8342.11
6688.05
5741.14
5139.04
4744.49
4495.96
4365.24
4342.37
4428.23
4642.83
5018.08
5608.33
6398.14
7329.44
8420.64
9675.37
11102.9
12721.6
14523.1
16363.4
18079.7
19628.4
20963
22081.1
23009.6
23797.5
24510.5
25160
25744.3
26271.3
26749.7
27185.7
27583.7
53778.9
16503.6
9909.53
7421.76
6133.53
5368.39
4889.18
4595.05
4443.22
4415.8
4513.76
4752.01
5158.67
5776.71
6585.68
7531.78
8637.05
9900.4
11320.6
12896
14623.7
16409.4
18101.5
19585.8
20852.6
21909.4
22754.1
23422.9
23965
24424.7
24865.4
25294.6
25712.1
26115.5
26502.4
35005.3
13553.2
8952.97
6980.05
5882.67
5201.92
4767.6
4505.33
4379.3
4370.87
4485.09
4737.32
5155.56
5775.57
6576.77
7501.78
8570.23
9772.07
11073.6
12430.3
13783.3
15046.7
16165.4
17158.6
18063.1
18888.4
19642.8
20325.9
20942.6
21502.3
22014.5
22485.2
22917.9
23314.9
23677.8
46628.5
15313.1
9453.54
7141.91
5912.81
5168.94
4698.41
4410.73
4264.13
4237.32
4329.74
4551.52
4921.82
5469.61
6165.47
6949.33
7831.45
8802.8
9855.15
10981
12171.9
13373
14488.8
15501.4
16405.5
17203.7
17908
18531.3
19083.9
19574.3
20009.6
20395.7
20737.6
21039.6
21305.6
33258.7
12317
7952.88
6126.96
5133.39
4530.33
4153.69
3933.05
3836.32
3845.26
3961.63
4194.43
4562.67
5093.52
5757.52
6500.25
7324.76
8209.27
9135.47
10099.1
11082.1
12011
12844.3
13608
14306.5
14937.9
15504
16009.7
16461.1
16864.7
17226.1
17550.7
17842.9
18106.7
18345.1
36149
12445.8
7818.45
5945.93
4941.9
4335.48
3955.04
3725.98
3613.94
3599.14
3678.95
3858.49
4149.59
4570.85
5095.65
5677.96
6326.6
7036.25
7801.29
8617.64
9484.5
10350
11149
11870.8
12519.3
13099.5
13616.8
14077
14485.7
14848.3
15169.8
15454.8
15707.3
15930.9
16128.7
28550.3
10422.8
6688.5
5137.52
4297.54
3789.58
3473.38
3287.94
3203.96
3203.21
3285.72
3456.08
3724.62
4103.87
4562.56
5057.69
5603.37
6197.9
6836.59
7509.94
8210.81
8908.5
9561.57
10159.3
10700.5
11186.7
11620.9
12007.2
12350.1
12654
12923.6
13162.8
13375.5
13564.9
13734.1
27744.6
9886.47
6298.43
4823.54
4025.98
3541.76
3236.88
3052.27
2959.8
2943.42
2999.17
3128.36
3333.74
3623.78
3980.42
4373.95
4811.75
5291.92
5813.3
6373.39
6965.09
7554
8102.1
8602.44
9055.15
9462
9825.83
10150.1
10438.5
10694.8
10922.6
11125.1
11305.4
11466.4
11610.2
23754.9
8753.97
5659.1
4365.41
3659.1
3227.22
2953.36
2785.62
2699.08
2679.07
2720.75
2825.75
2998.23
3238.6
3529.38
3848.61
4202.78
4589.86
5006.61
5451.28
5921.81
6392.44
6831.75
7233.32
7596.84
7923.52
8215.57
8475.79
8707.27
8913.11
9096.37
9259.86
9406.18
9537.63
9656.15
22445.2
8228.75
5320.94
4108.31
3444.9
3036.99
2775.29
2610.62
2519.22
2488.21
2510.76
2585.87
2715.58
2902.02
3132.82
3387.65
3670.73
3981.23
4317.13
4675.53
5053.48
5430.57
5782.11
6103.33
6394.22
6655.85
6890.06
7099.08
7285.33
7451.25
7599.2
7731.37
7849.78
7956.24
8052.18
20355
7605.75
4961.38
3848.78
3238.02
2861.69
2619.26
2464.56
2374.68
2336.82
2342.8
2392.92
2488.87
2634.83
2819.65
3025.11
3253.09
3501.84
3770.15
4056.32
4357.95
4658.64
4938.74
5194.51
5425.98
5634.08
5820.29
5986.42
6134.44
6266.34
6384.03
6489.3
6583.81
6669.01
6746.1
19226.6
7192.59
4701.31
3652.37
3074.69
2717.04
2484.21
2332.01
2238.51
2192.76
2187.35
2220.93
2294.32
2410.49
2559.8
2726.69
2912.36
3114.75
3332.27
3563.46
3806.52
4048.35
4273.36
4478.74
4664.64
4831.86
4981.61
5115.35
5234.64
5341.04
5436.05
5521.08
5597.42
5666.21
5728.41
17819.5
6760.14
4451.8
3472.79
2929.51
2589.04
2363.92
2214.16
2119.35
2068.83
2055.65
2077.24
2134.04
2228.04
2350.65
2487.98
2640.59
2806.65
2984.72
3173.5
3371.55
3568.28
3751.15
3918.01
4069.05
4204.95
4326.71
4435.52
4532.63
4619.29
4696.74
4766.08
4828.38
4884.55
4935.36
16822.9
6409.17
4232.36
3306.49
2790.23
2465.29
2249.38
2104.48
2010.96
1958.53
1940.72
1954.14
1998.86
2076.08
2178.22
2293.01
2420.43
2558.76
2706.67
2863.06
3026.77
3189.15
3340.01
3477.69
3602.4
3714.73
3815.5
3905.68
3986.28
4058.29
4122.7
4180.4
4232.24
4278.95
4321.17
15783.1
6069.68
4026.06
3151.61
2662.24
2353.04
2146.52
2006.85
1915.34
1862.13
1841.22
1848.71
1884.4
1948.88
2035.3
2132.65
2240.6
2357.5
2482.16
2613.64
2751.02
2887.14
3013.58
3129.02
3233.7
3328.12
3412.94
3488.97
3557.01
3617.89
3672.4
3721.26
3765.17
3804.74
3840.48
14958.1
5782.05
3845.83
3015.05
2548.83
2253.35
2055.22
1920.39
1831.06
1777.68
1754.64
1757.69
1786.47
1841.07
1915.22
1998.96
2091.72
2191.94
2298.53
2410.69
2527.69
2643.54
2751.17
2849.55
2938.88
3019.6
3092.26
3157.52
3216.03
3268.47
3315.48
3357.66
3395.57
3429.72
3460.55
14400.3
5570.96
3705.25
2903.85
2453.66
2167.93
1975.89
1844.65
1756.97
1703.47
1678.77
1678.42
1701.81
1748.67
1813.17
1886.17
1966.96
2054.03
2146.42
2243.42
2344.47
2444.49
2537.48
2622.58
2700
2770.11
2833.37
2890.3
2941.46
2987.39
3028.63
3065.67
3098.98
3128.99
3156.06
13928.7
5383.9
3579.45
2804.44
2368.81
2091.97
1905.5
1777.6
1691.54
1638.13
1612.08
1609.15
1628.22
1668.87
1725.63
1790.04
1861.25
1937.85
2018.92
2103.88
2192.29
2279.79
2361.22
2435.88
2503.96
2565.76
2621.68
2672.13
2717.58
2758.47
2795.25
2828.33
2858.11
2884.94
2909.15
13639
5244.84
3477.57
2720.32
2295.21
2025.15
1843.12
1717.98
1633.35
1580.11
1553.07
1548.12
1563.75
1599.4
1649.91
1707.39
1770.88
1839.02
1911
1986.29
2064.57
2142.07
2214.3
2280.66
2341.34
2396.6
2446.74
2492.12
2533.12
2570.1
2603.43
2633.46
2660.53
2684.95
2706.99
13306.1
5105.36
3380.97
2642.71
2228.3
1964.9
1787.15
1664.67
1581.44
1528.51
1500.75
1494.19
1507.03
1538.61
1584.03
1635.86
1693.07
1754.36
1818.96
1886.44
1956.55
2026.01
2090.85
2150.6
2205.4
2255.47
2301.08
2342.51
2380.06
2414.04
2444.75
2472.48
2497.53
2520.15
2540.59
13059.4
4990.35
3297.69
2574.38
2168.77
1911.03
1737.01
1616.9
1534.99
1482.42
1454.15
1446.33
1456.92
1485.18
1526.45
1573.66
1625.76
1681.47
1740.09
1801.22
1864.73
1927.7
1986.62
2041.09
2091.24
2137.26
2179.35
2217.74
2252.68
2284.42
2313.2
2339.27
2362.88
2384.24
2403.59
12815.7
4882.96
3221.53
2512.45
2115.04
1862.52
1691.92
1574
1493.34
1441.18
1412.57
1403.76
1412.52
1438.07
1475.94
1519.4
1567.33
1618.52
1672.28
1728.3
1786.48
1844.25
1898.46
1948.76
1995.28
2038.17
2077.6
2113.75
2146.8
2176.95
2204.41
2229.39
2252.08
2272.67
2291.36
12616.1
4789.87
3154.05
2457.07
2066.79
1818.88
1651.35
1535.42
1455.91
1404.19
1375.36
1365.77
1373.06
1396.41
1431.52
1471.94
1516.52
1564.06
1613.93
1665.85
1719.79
1773.45
1823.97
1871.04
1914.8
1955.38
1992.89
2027.47
2059.26
2088.42
2115.11
2139.5
2161.74
2182
2200.46
3723.36
3463.94
3193.95
2905.51
2591.29
2242.05
1858.75
1512.6
1209.23
954.558
761.912
633.875
541.637
475.287
432.097
404.154
387.304
400.832
596.079
1176.63
2037.66
2498.89
10253.6
9696.15
9259.49
8985.52
8916.65
9032.94
9390.31
10006
11274.6
14070.6
18375.4
24218.4
30683.1
31350.5
32318.9
32827.1
32774
32045.9
30785
29624.9
30631.5
39220.9
25164.1
28539.4
34564.4
44574
59673.1
78724.7
97966.1
115251
131010
151253
191040
276724
435653
645849
842354
960755
981837
916637
791016
632994
471401
337813
25676.5
25767.5
26298.3
27617.9
30201.9
34666.2
41735.4
52582.3
68930
92626.1
125470
169347
225090
289261
355189
413714
456643
475214
470509
438370
384015
324744
31913.7
34383.4
37027.9
39874.8
42905
46079.4
49414.3
53147.9
57725.6
63596.2
71676.8
82769.1
97075.2
113784
132039
150823
169195
186113
200478
210824
216399
218642
29524.6
30483
31640.9
33082.8
34856.6
36982.1
39460.9
42281.5
45354.5
48904.9
53053.1
57911
63515.7
69853.3
76931.4
84620.7
92705.8
100946
109073
116787
123743
129501
29792.5
30318.8
30998
31847.2
32887.2
34139.1
35617.6
37324.5
39247.9
41378.6
43716.3
46259.1
48981.4
51898.3
55080.3
58556.1
62304.3
66267.6
70363.5
74490.3
78532.8
82371.2
28107.9
28805
29555.9
30381
31289
32275.9
33356.4
34542.8
35845.6
37274
38837.1
40534.6
42331.8
44201
46152.4
48184.5
50286.5
52455.6
54680.2
56936
59190.1
61395.7
27050.4
27827.5
28633
29464.6
30324.8
31216
32139.9
33097.5
34088.9
35111.8
36160.1
37233.4
38321.1
39428.6
40569.5
41742.9
42958
44225.8
45543.9
46900.4
48276.6
49648.8
24192.2
24902.5
25635.7
26374.8
27113.1
27851.9
28593.3
29340.2
30097.6
30874.1
31684.9
32531.8
33395.2
34259.9
35131.6
36008.7
36887
37762.9
38633.7
39502.5
40374.7
41239
21701
22268.6
22855
23457.8
24073.9
24699.8
25333
25971.7
26615.3
27264.9
27923.5
28590.7
29252.3
29900.4
30534.4
31153.8
31757.4
32364.3
32985.7
33623
34274
34926
18714.6
19236.8
19765.1
20300.3
20842.5
21392
21948.3
22510.9
23079.2
23652.6
24231.3
24811.6
25378.9
25924.2
26450.2
26959.4
27453.4
27934.8
28409.6
28892.8
29376.8
29851.3
16449.6
16922.5
17405
17895.6
18392.7
18895.1
19401.8
19911.8
20424.3
20938.6
21454.4
21968
22466.1
22940.4
23393.4
23827.3
24244.2
24646.2
25035.3
25414.2
25784.7
26146.1
14030.9
14478.9
14937.1
15404.1
15878.8
16359.8
16845.9
17335.9
17828.3
18322
18816
19305.6
19777.2
20222.7
20643.9
21042.8
21421.2
21781
22123.8
22451
22764
23064.7
11876
12288.5
12713.5
13149.8
13596.3
14051.8
14514.9
14984
15457.7
15934.2
16412.2
16886.6
17343.6
17774.6
18181
18563.9
18924.9
19265.3
19586.4
19889.6
20175.9
20447.5
9889.66
10260.2
10644.8
11042.5
11452.8
11874.7
12307.1
12749
13198.7
13654.7
14115.4
14575.4
15020.8
15442.6
15841.2
16217.5
16572.2
16906.4
17221
17516.9
17795
18056.6
8249.23
8568.1
8901.9
9250.2
9612.67
9988.8
10377.9
10779.1
11191.2
11613.1
12043.1
12476.4
12899.7
13303.5
13687.9
14052.9
14399
14726.4
15035.7
15327.4
15602.1
15860.9
6910.73
7180.59
7464.7
7763.03
8075.63
8402.42
8743.14
9097.36
9464.44
9843.52
10233.5
10630.2
11021.2
11397.6
11758.8
12104.7
12434.9
12749.6
13048.9
13332.9
13601.9
13856.6
5864.32
6089.34
6327.4
6578.73
6843.59
7122.16
7414.49
7720.5
8039.95
8372.41
8717.21
9070.94
9422.69
9764.18
10094.7
10413.7
10720.8
11015.6
11298.2
11568.3
11826.1
12071.9
5048.29
5236.21
5435.56
5646.69
5870.02
6105.88
6354.55
6616.19
6890.85
7178.43
7478.65
7788.79
8099.45
8403.29
8699.53
8987.55
9266.83
9536.99
9797.73
10048.8
10290.2
10522
4415.69
4573.46
4741.11
4919.06
5107.74
5307.58
5518.93
5742.09
5977.3
6224.67
6484.17
6753.7
7025.25
7292.41
7554.46
7810.79
8060.88
8304.32
8540.78
8769.97
8991.7
9206.09
3920.74
4054.78
4197.29
4348.69
4509.43
4679.93
4860.59
5051.77
5253.8
5466.9
5691.22
5925.11
6161.76
6395.61
6626.04
6852.52
7074.58
7291.82
7503.91
7710.59
7911.63
8107.08
3529.67
3645.04
3767.7
3898.06
4036.52
4183.5
4339.38
4504.55
4679.34
4864.06
5058.94
5262.66
5469.38
5674.31
5876.91
6076.74
6273.39
6466.51
6655.8
6841.04
7022
7198.68
3216.51
3317.21
3424.23
3537.94
3658.72
3786.93
3922.96
4067.16
4219.89
4381.44
4552.1
4730.79
4912.47
5092.94
5271.78
5448.6
5623.06
5794.87
5963.77
6129.56
6292.07
6451.23
2962.75
3051.79
3146.36
3246.8
3353.46
3466.65
3586.74
3714.04
3848.9
3991.62
4142.48
4300.58
4461.51
4621.58
4780.44
4937.77
5093.27
5246.71
5397.87
5546.57
5692.68
5836.11
2755.15
2834.78
2919.31
3009.06
3104.3
3205.35
3312.51
3426.09
3546.4
3673.73
3808.35
3949.5
4093.26
4236.38
4378.54
4519.47
4658.93
4796.72
4932.66
5066.6
5198.43
5328.04
2584.39
2656.31
2732.61
2813.57
2899.45
2990.53
3087.07
3189.36
3297.67
3412.29
3533.47
3660.54
3790.01
3918.96
4047.11
4174.25
4300.15
4424.65
4547.59
4668.85
4788.35
4905.97
2443.86
2509.35
2578.79
2652.43
2730.51
2813.26
2900.93
2993.76
3092.03
3195.98
3305.86
3421.09
3538.5
3655.47
3771.77
3887.2
4001.57
4114.73
4226.55
4336.92
4445.76
4552.98
2328.82
2388.87
2452.51
2519.97
2591.44
2667.14
2747.27
2832.07
2921.77
3016.61
3116.82
3221.88
3328.94
3435.62
3541.73
3647.08
3751.53
3854.92
3957.15
4058.1
4157.7
4255.84
2235.68
2291.12
2349.83
2412.03
2477.87
2547.52
2621.19
2699.05
2781.33
2868.25
2960.02
3056.2
3154.18
3251.83
3348.98
3445.49
3541.22
3636.07
3729.91
3822.66
3914.22
4004.45
2556.51
3523.14
6973.25
15990.2
31239.5
46895.1
69517.6
116616
130790
120716
103522
89656.7
248718
221973
233238
260827
291275
319364
274728
243663
229369
229046
234914
241849
213370
202877
192666
183814
178966
177600
132880
133371
132476
130665
128691
126670
85504.4
87739.1
89284.7
90165.5
90502.3
90423.6
63336.5
64882.3
66175.8
67180.2
67882.6
68292
50852.4
51795.5
52621.6
53296.7
53805.3
54142.2
41946.2
42423.6
42834.4
43157.5
43382.7
43500.3
35432.1
35712.1
35933.4
36090.6
36183.8
36213.8
30191
30342.5
30464.6
30546.6
30585.1
30578.1
26383.7
26451.4
26494.6
26510.5
26497.1
26451.7
23241.1
23258.7
23256.4
23232.3
23184.7
23113.2
20591.9
20582
20551.8
20502.1
20431.7
20341.9
18186.2
18162.6
18119.8
18059.4
17980.9
17885.9
15984.9
15957.6
15912.6
15851.6
15774.5
15683
13977.5
13952
13910.8
13855.5
13786.1
13704.3
12189.2
12168.4
12134
12087.5
12028.7
11959.2
10633.9
10618.7
10592.1
10555
10507.7
10451.1
9311.17
9301.42
9282.18
9254.17
9217.49
9172.89
8204.57
8199.67
8186.92
8166.78
8139.37
8105.18
7288.44
7287.59
7280.21
7266.58
7246.8
7221.2
6533.59
6535.94
6532.81
6524.34
6510.62
6491.83
5911.66
5916.42
5916.52
5911.99
5902.92
5889.38
5397.45
5403.96
5406.42
5404.81
5399.21
5389.61
4969.91
4977.6
4981.72
4982.2
4979.11
4972.41
4612.03
4620.48
4625.7
4627.63
4626.3
4621.66
4310.52
4319.37
4325.29
4328.16
4328.02
4324.8
4055.12
4064.11
4070.38
4073.82
4074.47
4072.23
54427
57588.5
57258.8
53493.8
44839.5
31977.4
18435.1
10133.6
7000.92
6061.51
5917.98
6029.81
6197.67
6359.32
6516.56
6641.32
6735.29
6812.02
6886.34
6970.4
7070.74
7187.74
79705.3
72617.3
66826.1
63018.5
61061.8
59872.6
58718.1
56614.3
53173.3
48612.1
43414.2
38402
34355.2
31193.3
28640.2
26514.9
24694.7
23106.6
21716.6
20498.8
19445.9
18615.4
342853
361048
372144
373201
360754
333164
292450
245088
199539
161115
131591
109979
93838.4
82117.2
73670
66935
61427.9
56766.7
52603.1
48962.3
46030.4
43900.2
244450
242310
236226
227108
215401
201673
187193
173481
161603
152077
145800
138912
131189
122180
111732
100161
89771.8
81873.3
76619.2
73621.4
72407.1
72315.9
177673
177530
175544
170889
163507
153745
143105
133212
124737
117981
112521
107431
102526
97758.8
93181.6
89016.8
85604.7
83460.9
82890.9
83806.4
86083.5
89025.9
124123
121104
117853
114238
110208
105811
101191
96519.3
91953.6
87601.4
83501.8
79668.8
76179.7
73080.7
70384.3
68147.7
66464.9
65161.7
64105.4
63272.7
62546
61808.4
89429.8
87866.1
86127
84190.8
82043
79674.6
77104.4
74377.4
71551.5
68681.4
65825.4
63039.5
60440
58102.9
56030.3
54210.2
52614.2
51200.7
49928.4
48762.4
47681
46681.8
68044.8
67334.6
66454.2
65407.8
64186.3
62783.7
61198.4
59435.8
57528.7
55516.8
53434.6
51318.3
49248
47289.9
45452.2
43730.4
42116.7
40603.3
39182.9
37848.5
36593.4
35410.4
53983.1
53404
52696.3
51864.2
50908.9
49834.7
48649.1
47363
45990.5
44548.3
43045.6
41483.6
39909.4
38357.4
36842.8
35389.8
34013.7
32723.6
31520.7
30402
29361.5
28396.5
43268.9
42704.5
42070.5
41368.8
40605
39785.3
38915.6
37999.8
37037
36016.7
34907.7
33715.5
32475.1
31244.9
30066.6
28943
27878.5
26874.9
25931.8
25047.6
24220.5
23449.4
35986.8
35497.7
34966
34384.1
33748
33051
32281.4
31425.1
30492.6
29515.7
28527.1
27537
26561.7
25621.3
24718.3
23854.2
23029.2
22243.1
21494.6
20782.1
20103.5
19458.9
30358.3
29922.7
29458.1
28950.6
28394.5
27789.1
27134
26431.1
25685.6
24903.4
24087.7
23269.7
22473.9
21705.9
20957.8
20231.3
19528.6
18852.3
18203.8
17584
16993.4
16432.8
26233.9
25831.1
25397.4
24930
24427.7
23890.1
23317.8
22712.7
22076.8
21412.8
20724.1
20017.9
19311.9
18618.3
17936
17266.5
16627.7
16022.1
15446.2
14897.1
14372.7
13872.5
22889.8
22503.9
22090.5
21649.3
21179.8
20682.3
20157.4
19605.9
19029.1
18427.9
17803.6
17161.4
16520.6
15897
15293.6
14714
14160.3
13632.5
13129.8
12651.8
12198.1
11768.4
20110.5
19731.6
19329.2
18904
18455.9
17985.2
17492.6
16978.8
16444.8
15891.9
15321.5
14739.9
14165.5
13612.4
13082.2
12576
12093.8
11635.4
11200.2
10787.4
10395.8
10024.5
17654
17282.6
16891.5
16482
16054.4
15609.1
15147
14669
14176.6
13671.1
13154.4
12632.4
12121.6
11634
11170.1
10730.1
10313.7
9920.57
9549.98
9201.3
8873.88
8567.19
15457.2
15098.4
14724.1
14335.7
13933.8
13519.2
13092.9
12656.1
12210.2
11756.8
11297.8
10838.4
10393
9971.41
9573.41
9198.62
8846.39
8515.92
8206.29
7916.5
7645.48
7392.14
13491.9
13153.4
12803.3
12443.4
12074.3
11696.8
11312.2
10921.5
10526.3
10128
9728.1
9331.2
8949.36
8590.35
8253.54
7938.06
7642.9
7366.97
7109.09
6868.08
6642.72
6432.1
11765.3
11453.6
11134.2
10808.4
10477.1
10141
9801.28
9458.99
9115.31
8771.45
8428.63
8090.53
7767.11
7464.48
7181.63
6917.44
6670.76
6440.38
6225.14
6023.88
5835.53
5659.13
10278.5
9997.83
9712.43
9423.48
9131.63
8837.67
8542.45
8246.84
7951.75
7658.06
7366.62
7080.32
6807.28
6552.31
6314.26
6091.96
5884.23
5689.96
5508.06
5337.52
5177.4
5026.91
9022.21
8773.76
8522.75
8270.07
8016.28
7761.98
7507.81
7254.4
7002.36
6752.26
6504.64
6261.72
6030.16
5813.83
5611.59
5422.34
5245.04
5078.69
4922.38
4775.27
4636.6
4505.74
7975.33
7757.74
7539.01
7319.77
7100.4
6881.35
6663.02
6445.83
6230.13
6016.26
5804.5
5596.57
5398.02
5212.06
5037.68
4873.93
4719.9
4574.8
4437.87
4308.46
4185.96
4069.9
7109.98
6920.34
6730.36
6540.43
6350.8
6161.74
5973.48
5786.25
5600.23
5415.58
5232.4
5052.06
4879.28
4716.85
4563.92
4419.69
4283.46
4154.57
4032.46
3916.61
3806.57
3701.97
6396.6
6231.26
6065.93
5900.81
5736.05
5571.76
5408.07
5245.05
5082.78
4921.29
4760.57
4601.77
4448.99
4304.76
4168.38
4039.22
3916.74
3800.44
3689.88
3584.68
3484.51
3389.09
5807.5
5662.69
5517.96
5373.38
5228.98
5084.81
4940.89
4797.21
4653.78
4510.54
4367.46
4225.5
4088.36
3958.35
3834.95
3717.67
3606.09
3499.86
3398.63
3302.13
3210.11
3122.35
5318.66
5190.9
5063.14
4935.33
4807.46
4679.5
4551.43
4423.18
4294.71
4165.96
4036.85
3908.26
3783.57
3664.96
3552.02
3444.4
3341.78
3243.9
3150.52
3061.41
2976.4
2895.31
4910.3
4796.6
4682.74
4568.6
4454.13
4339.27
4223.96
4108.12
3991.7
3874.62
3756.83
3639.12
3524.64
3415.46
3311.27
3211.81
3116.85
3026.19
2939.65
2857.07
2778.3
2703.19
4566.71
4464.6
4362.16
4259.21
4155.69
4051.53
3946.66
3841
3734.49
3627.08
3518.73
3410.19
3304.4
3203.32
3106.73
3014.43
2926.26
2842.05
2761.67
2684.98
2611.89
2542.24
4275.67
4183.22
4090.24
3996.56
3902.13
3806.87
3710.73
3613.65
3515.58
3416.47
3316.29
3215.78
3117.67
3023.82
2934.05
2848.23
2766.22
2687.89
2613.14
2541.87
2473.98
2409.33
4027.92
3943.54
3858.48
3772.6
3685.88
3598.26
3509.69
3420.11
3329.49
3237.78
3144.98
3051.75
2960.65
2873.43
2789.95
2710.09
2633.75
2560.84
2491.25
2424.93
2361.78
2301.68
7289.43
7364.92
7450.38
7541.74
7630.07
7703.81
7754.14
7782.97
7804.51
7847.09
7952.66
8171.45
8610.43
9363.35
10502.4
12257.9
14453.9
17168.6
20583
24890
29779.2
33071.1
35032.2
35665.8
32082.6
26772.2
22612.3
20208.4
19516.3
20142.8
21572.1
23429.8
26837.3
53399.9
489033
18066.5
17696
17422.2
17269.3
17225.1
17294.2
17499.6
17851.7
18365
19062.8
19976.7
21068.4
22414.5
24035.3
26371.3
29774.8
34464
41546.9
51907.6
67510
86982.8
108070
149423
217442
273056
274642
252196
224546
204161
193035
193800
210723
268940
477808
1.83623e+06
42686.7
41834.9
41198.9
40834.2
40731.1
40893.9
41330.3
42025.3
42988.5
44200.3
45479.2
46222.5
46400
45908.2
44968.1
43994.6
44142.1
45243.4
48935.6
56940.9
74697.5
124908
257847
487344
744546
919985
956930
904041
820782
741546
682943
656111
700724
930393
2.38654e+06
72897.7
73499.2
74464.3
75771.4
77276
78257.7
77299.5
73080.4
66494.2
58816.6
51290.6
44866.8
40112.9
37524.6
36859.5
40441
50270.7
68708.1
96975.1
124896
143583
166145
217845
281984
352467
416979
461160
480131
483318
481734
484066
501160
554449
725873
1.59915e+06
91945.2
94788
97535.8
99721
100719
99983.6
97198.1
92244.4
85504.2
77363.5
68259.2
59040.6
50121.8
41697.5
33561.4
26882.8
23986
24854.6
32136.7
50129.3
80772.6
119171
161699
194283
221527
238920
243988
237300
228639
221892
218860
220700
232633
270741
483051
61295.2
61010.5
60548.9
59880
59066.4
58084.4
56894.5
55270
52978.5
49872.3
45819.6
40744.8
34780.7
28435.7
22651.5
18484.1
16079.7
14810.8
14378.1
15361.8
18533.2
23360.8
28946.5
34012.4
39051
44265.4
48432.8
50123.7
50565.4
50045.1
48649.1
46746.4
44643.5
43592.4
52961.5
46146.8
45965.8
45864.6
45849.2
45882.3
45818
45574.9
44988.6
43849.6
41910.6
38965.1
34981.5
30272.1
25400.9
20786.2
16827.7
13757.4
11510
9947.37
8810.16
7969.84
7338.51
6937.73
6700.3
6550.58
6451.18
6373.97
6317.32
6313.44
6415.1
6712.28
7398.74
9029.67
14115.1
47401.7
34598.3
34090.6
33555.3
32986.5
32372.1
31690.9
30913.6
30003.1
28917.4
27617.9
26075.7
24250.2
22161.9
19839.7
17322.9
14815.8
12565.1
10663.3
9114.33
7871.71
6879.95
6076.29
5494.4
5130.52
4929.73
4856.5
4890.67
5031.57
5288.79
5690.55
6301.18
7267.43
8988.99
13036.7
31581.5
27782.7
27424.8
27071
26720.3
26363.6
25972.9
25487.2
24881.9
24130.9
23200.2
22060.3
20680.2
19064.9
17201.5
15185.9
13232
11501
9981.99
8685.16
7592.06
6686.8
5932.82
5371.03
5013.94
4818.57
4757.66
4817.19
4996.66
5312.49
5809.68
6588.82
7880.07
10343.2
16784.9
52665.7
22928.6
22600.9
22246.9
21862.6
21442.5
20978.6
20460.3
19875
19208.7
18446.5
17575.8
16588.3
15479.9
14263.8
12996.5
11757.9
10547.9
9367.72
8269.89
7292.99
6453.04
5736.44
5192.46
4841.6
4644.08
4574.88
4619.52
4777.98
5067.21
5519.69
6208.42
7301.03
9242.91
13733.4
34781.7
19035
18782.8
18517.8
18238.7
17941.7
17618.2
17249.8
16809.2
16287.4
15676.3
14969.5
14163.1
13259.6
12256.6
11170.9
10082
9047.34
8108.18
7260.44
6514.67
5867.45
5304.46
4873.34
4595.87
4448.67
4417.5
4494.91
4687.38
5015.24
5520.34
6292.36
7539.75
9844.27
15593.2
46024.5
16054.1
15820
15565.3
15287.5
14983.3
14648.3
14277.2
13863.5
13400.4
12882
12303.3
11662.2
10961
10204.7
9406.75
8629.65
7902.51
7213.3
6564.77
5964.38
5409.32
4900
4488.06
4205.08
4034.26
3963.75
3988.65
4112.55
4352.72
4740.77
5345.68
6323.01
8086.78
12215.6
31709.1
13542.5
13347.3
13138.6
12914.7
12672.5
12405.4
12102.3
11759.8
11375
10945.2
10468.4
9943.49
9370.82
8753.26
8099.43
7449.97
6836.5
6265.13
5739.8
5258.38
4820.84
4420.71
4096.02
3873.41
3743.41
3700.71
3743.9
3880.62
4129.56
4525.34
5140.92
6141.45
7977.36
12440.5
34953.8
11484.7
11316.4
11135.2
10937.3
10720.5
10482.1
10219.5
9929.96
9610.83
9259.79
8875.09
8455.83
8002.28
7515.72
7004.56
6500.34
6026.77
5580.45
5156.67
4756.4
4383.06
4028.81
3726.12
3509.52
3374.57
3316.55
3334.08
3431.76
3626.94
3948.68
4457.36
5287.91
6801.01
10382.1
27468.2
9784.73
9649.52
9503.84
9345.42
9170.05
8976.07
8761.84
8525.73
8266.14
7981.6
7670.84
7332.89
6967.18
6573.62
6156.02
5738.03
5337.92
4955.43
4592.6
4252.01
3934.88
3636.73
3386.98
3209.82
3101.21
3059.02
3084.24
3184.26
3375.45
3686.19
4174.33
4969.75
6424.55
9918.44
27100.5
8372.01
8264.65
8147.14
8018.33
7876.93
7721.51
7550.56
7362.55
7155.89
6929.19
6680.91
6409.79
6114.73
5794.68
5452.47
5106.6
4772.9
4451.87
4144.13
3850.19
3572.04
3307.18
3079.72
2912.68
2807.38
2762.66
2778.74
2860.23
3021.64
3287.37
3707.16
4392.54
5641.37
8599.96
22763.9
7233.46
7149.73
7057.57
6956.04
6844.09
6720.59
6584.32
6433.97
6268.17
6085.51
5884.49
5663.6
5421.31
5156.06
4868.79
4574.79
4287.56
4008
3737.33
3477.83
3233.03
3001.32
2805.61
2664.16
2575.27
2539.99
2559.5
2639.17
2792.06
3041.16
3433.34
4072.7
5237.97
8010.14
21422.7
6301.97
6236.51
6164.35
6084.67
5996.5
5898.81
5790.42
5670.11
5536.5
5388.15
5223.49
5040.87
4838.54
4614.7
4369.66
4116.34
3866.79
3622.36
3384.81
3156.64
2941.11
2737.18
2565.74
2443.03
2366.86
2337.1
2355.07
2426.15
2562.78
2786.09
3138.17
3711.59
4752.93
7209.89
18931.8
5551.41
5499.42
5441.85
5377.97
5306.93
5227.8
5139.52
5040.93
4930.73
4807.5
4669.69
4515.59
4343.41
4151.23
3938.99
3717.76
3498.38
3282.45
3071.98
2869.57
2678.52
2498.38
2348.55
2243.86
2181.77
2161.28
2182.89
2252.62
2382.53
2592.52
2921.44
3455.31
4423.4
6709.43
17649.1
4935.69
4893.38
4846.35
4793.97
4735.47
4669.98
4596.53
4514.02
4421.22
4316.77
4199.14
4066.7
3917.65
3750.16
3564.03
3368.98
3174.86
2983.35
2796.55
2617.01
2447.93
2289.28
2158.67
2068.97
2017.86
2004.59
2029.84
2098.87
2221.32
2415.23
2716.84
3205.02
4088.41
6165.37
16033.4
4426.84
4391.38
4351.8
4307.55
4257.94
4202.17
4139.38
4068.54
3988.52
3898.04
3795.7
3679.93
3549.07
3401.41
3236.72
3063.66
2891.13
2720.84
2554.82
2395.51
2245.91
2106.22
1992.19
1915.18
1873.19
1865.74
1893.59
1962.01
2079.99
2264
2547.26
3003.41
3826.63
5757.9
14925
4000.11
3969.52
3935.29
3896.92
3853.78
3805.17
3750.27
3688.18
3617.85
3538.11
3447.67
3345.12
3228.93
3097.58
2950.87
2796.61
2642.83
2491.17
2343.54
2202.2
2069.9
1946.98
1847.59
1781.73
1747.74
1745.37
1775.43
1843.36
1957.62
2134.09
2404.49
2837.92
3617.89
5448.5
14154.3
3639.16
3612.06
3581.7
3547.61
3509.23
3465.92
3416.97
3361.53
3298.69
3227.39
3146.46
3054.65
2950.61
2833
2701.7
2563.75
2426.43
2291.23
2159.91
2034.52
1917.58
1809.52
1723.06
1667
1639.99
1641.92
1673.86
1741.02
1851.34
2019.86
2276.38
2685.64
3419.09
5133.71
13267.3
3331.76
3307.23
3279.72
3248.82
3214.03
3174.78
3130.42
3080.21
3023.32
2958.82
2885.69
2802.81
2709.01
2603.14
2485.16
2361.47
2238.6
2117.92
2000.99
1889.66
1786.22
1691.18
1615.99
1568.46
1547.53
1553.19
1586.93
1653.71
1761.26
1924.2
2171.37
2565.36
3272.25
4929.6
12820.1
3069.53
3046.88
3021.49
2993
2960.95
2924.83
2884.07
2838.02
2785.93
2727.01
2660.35
2584.98
2499.91
2404.16
2297.76
2186.53
2076.34
1968.41
1864.12
1765.12
1673.51
1589.85
1524.5
1484.43
1468.82
1477.78
1513.16
1579.67
1684.74
1842.54
2080.66
2458.97
3136.23
4721.95
12266
2846.29
2825
2801.19
2774.49
2744.53
2710.83
2672.91
2630.17
2581.98
2527.64
2466.36
2397.36
2319.74
2232.7
2136.32
2035.94
1936.82
1840
1746.72
1658.45
1577.09
1503.27
1446.43
1412.79
1401.79
1413.62
1450.48
1516.87
1620.07
1773.91
2005.22
2372.18
3029.18
4569.75
11917.1
2657.45
2637.1
2614.38
2588.99
2560.55
2528.69
2492.94
2452.81
2407.75
2357.15
2300.34
2236.65
2165.34
2085.73
1997.97
1906.95
1817.38
1730.18
1646.41
1567.39
1494.87
1429.52
1379.99
1351.89
1344.88
1359.21
1397.39
1463.75
1565.41
1715.92
1941.34
2298.18
2936.33
4432.46
11570.3
2499.34
2479.54
2457.51
2432.95
2405.55
2374.97
2340.81
2302.65
2260.01
2212.37
2159.18
2099.86
2033.82
1960.48
1880.04
1797
1715.62
1636.64
1561
1489.89
1424.91
1366.79
1323.51
1300.14
1296.54
1313.02
1352.37
1418.73
1519.2
1667.05
1887.83
2236.83
2860.91
4325.45
11324.4
2368.88
2349.25
2327.49
2303.34
2276.51
2246.7
2213.58
2176.78
2135.89
2090.5
2040.14
1984.32
1922.57
1854.41
1780.1
1703.77
1629.28
1557.26
1488.51
1424.1
1365.51
1313.51
1275.52
1256.17
1255.46
1273.8
1314.17
1380.58
1480.09
1625.77
1842.69
2185.11
2797.17
4234.12
11107.4
2263.28
2243.46
2221.58
2197.41
2170.69
2141.17
2108.55
2072.54
2032.8
1988.97
1940.69
1887.56
1829.19
1765.21
1695.9
1625.12
1556.37
1490.15
1427.16
1368.37
1315.14
1268.29
1234.75
1218.78
1220.47
1240.45
1281.7
1348.17
1446.91
1590.83
1804.65
2141.86
2744.6
4160.99
10945.4
12410.5
4695.53
3086.11
2401.45
2018.39
1775.13
1610.69
1496.78
1418.47
1367.25
1338.29
1328.03
1334.01
1355.39
1388.03
1425.74
1467.35
1511.69
1558.15
1606.5
1656.77
1706.91
1754.3
1798.7
1840.23
1879.01
1915.11
1948.62
1979.65
2008.29
2034.67
2058.9
2081.13
2101.48
2120.09
12212.3
4603.61
3019.58
2346.89
1970.88
1732.18
1570.79
1458.88
1381.8
1331.12
1302.13
1291.35
1296.24
1315.98
1346.58
1382.07
1421.26
1463.02
1506.78
1552.32
1599.74
1647.18
1692.26
1734.76
1774.83
1812.53
1847.92
1881.05
1911.96
1940.73
1967.42
1992.12
2014.91
2035.91
2055.22
12039.4
4522.56
2960.72
2298.57
1928.79
1694.14
1535.46
1425.37
1349.4
1299.28
1270.34
1259.22
1263.33
1281.87
1311
1344.93
1382.46
1422.49
1464.45
1508.18
1553.81
1599.64
1643.41
1684.94
1724.38
1761.8
1797.21
1830.63
1862.07
1891.56
1919.12
1944.81
1968.67
1990.79
2011.24
11886.4
4450.46
2908.3
2255.52
1891.29
1660.26
1504.02
1395.55
1320.61
1271.04
1242.23
1230.9
1234.46
1252.17
1280.31
1313.21
1349.71
1388.7
1429.66
1472.43
1517.2
1562.33
1605.66
1647.03
1686.58
1724.37
1760.41
1794.69
1827.19
1857.89
1886.78
1913.89
1939.23
1962.87
1984.83
11747.9
4385.49
2861.14
2216.84
1857.64
1629.87
1475.84
1368.86
1294.87
1245.83
1217.18