/*--------------------------------*- C++ -*----------------------------------*\
  =========                 |
  \\      /  F ield         | OpenFOAM: The Open Source CFD Toolbox
   \\    /   O peration     | Website:  https://openfoam.org
    \\  /    A nd           | Version:  8
     \\/     M anipulation  |
\*---------------------------------------------------------------------------*/
FoamFile
{
    version     2.0;
    format      ascii;
    class       volScalarField;
    location    "0.35";
    object      epsilon;
}
// * * * * * * * * * * * * * * * * * * * * * * * * * * * * * * * * * * * * * //

dimensions      [0 2 -3 0 0 0 0];

internalField   nonuniform List<scalar> 
15677
(
59.7284
18.3627
52.6881
8.08299
26.0262
50.2375
4.622
13.3242
31.6603
50.5473
3.17396
7.74908
17.13
37.3461
51.6443
2.4869
5.05403
10.0491
20.8591
42.7003
53.6857
2.14419
3.62755
6.47309
12.1864
24.5836
47.7012
55.7426
1.97929
2.82273
4.52983
7.73647
14.3
28.2887
52.0543
57.6728
1.91148
2.35333
3.40396
5.3163
8.92911
16.4467
31.7877
55.7291
59.3654
1.88406
2.08026
2.72411
3.91218
6.0288
10.1192
18.5572
34.9843
58.7383
60.8606
1.8705
1.93935
2.30736
3.05691
4.36162
6.71497
11.2867
20.5901
37.8005
61.204
62.1196
1.86764
1.87828
2.05648
2.52172
3.34991
4.78079
7.37132
12.4318
22.4807
40.2585
63.184
63.2255
1.86863
1.84884
1.91654
2.18632
2.71343
3.61773
5.17033
8.00999
13.5197
24.2246
42.3464
64.797
64.1446
1.86954
1.83871
1.85192
1.98273
2.30731
2.88784
3.86116
5.54165
8.61447
14.5518
25.7844
44.1277
66.0862
64.9693
1.86978
1.83701
1.82112
1.86777
2.05157
2.41898
3.04466
4.08835
5.88763
9.1907
15.5005
27.1805
45.6097
67.1304
65.6862
1.86977
1.83728
1.8105
1.81335
1.89826
2.11795
2.51972
3.18882
4.29634
6.2144
9.72279
16.3754
28.3936
46.8539
67.9776
66.3211
1.86972
1.83754
1.8082
1.78978
1.81543
1.93056
2.17932
2.61189
3.31902
4.48987
6.51363
10.2176
17.155
29.4496
47.8821
68.6653
66.9009
1.86969
1.83764
1.80789
1.78276
1.77569
1.82159
1.96266
2.23608
2.69464
3.43846
4.66489
6.79042
10.6617
17.8527
30.3433
48.7221
69.2511
67.3951
1.86967
1.83767
1.8079
1.78105
1.76142
1.76616
1.83187
1.99361
2.28729
2.76985
3.54525
4.82501
7.03729
11.0634
18.4535
31.0958
49.4107
69.7128
67.8949
1.86966
1.83766
1.8079
1.78073
1.75692
1.74391
1.7604
1.84337
2.02217
2.33379
2.8366
3.6418
4.96628
7.25981
11.4109
18.9726
31.7115
49.9466
70.1466
68.2842
1.86965
1.83766
1.80788
1.78069
1.75563
1.73587
1.72946
1.75747
1.85481
2.04847
2.37505
2.89641
3.7262
5.09229
7.45113
11.7139
19.3986
32.2058
50.388
70.4652
68.7488
1.86965
1.83765
1.80786
1.78069
1.7553
1.73316
1.71719
1.71798
1.75594
1.86605
2.07206
2.41187
2.94841
3.80064
5.19963
7.61724
11.9618
19.7503
32.5903
50.7019
70.822
69.0586
1.86965
1.83765
1.80785
1.78067
1.75521
1.73232
1.71255
1.70123
1.70841
1.75589
1.87651
2.09322
2.4439
2.99395
3.86368
5.29184
7.75241
12.168
20.0162
32.8753
50.9673
71.056
69.519
1.86965
1.83764
1.80783
1.78065
1.75517
1.73208
1.71091
1.6944
1.68711
1.70082
1.75621
1.88614
2.11183
2.47197
3.03256
3.91745
5.36648
7.86364
12.3211
20.2215
33.0771
51.1304
71.3901
69.7734
1.86966
1.83764
1.80783
1.78063
1.75514
1.73199
1.71035
1.69178
1.67782
1.67519
1.6945
1.75697
1.89498
2.12838
2.49606
3.06556
3.96111
5.42724
7.94621
12.4401
20.3521
33.2013
51.2706
71.5828
70.2334
1.86966
1.83763
1.80782
1.78062
1.75511
1.73193
1.71015
1.69082
1.67399
1.66351
1.66465
1.68947
1.75839
1.90321
2.14296
2.51702
3.09301
3.9971
5.47307
8.00897
12.5107
20.4386
33.2712
51.3557
71.9581
70.4793
1.86966
1.83763
1.80782
1.7806
1.75509
1.73189
1.71005
1.69045
1.67248
1.65844
1.65046
1.65609
1.68569
1.76021
1.91103
2.15633
2.53535
3.11644
4.02516
5.50746
8.0468
12.5586
20.4642
33.2744
51.4032
72.2455
429.117
1.86966
1.83762
1.80782
1.78059
1.75507
1.73185
1.70999
1.69027
1.67189
1.65631
1.64403
1.63975
1.6487
1.68302
1.76296
1.91907
2.16892
2.55198
3.13616
4.04777
5.53075
8.07162
12.5648
20.4539
33.2576
51.4979
88.4642
719.625
1.86967
1.83762
1.80782
1.78058
1.75506
1.73182
1.70994
1.69017
1.67162
1.6554
1.64124
1.63204
1.63009
1.64366
1.68259
1.76697
1.9277
2.18165
2.56778
3.15422
4.06603
5.5471
8.07763
12.5558
20.4251
33.2203
52.3788
121.617
1004.97
1.86967
1.83761
1.80782
1.78057
1.75505
1.73179
1.7099
1.69009
1.67147
1.65499
1.64003
1.6285
1.62114
1.62343
1.63984
1.68378
1.77267
1.93788
2.19539
2.58422
3.17151
4.08206
5.55717
8.07482
12.5345
20.3698
33.2268
54.864
157.205
1258.99
1.86967
1.83761
1.80782
1.78055
1.75504
1.73177
1.70987
1.69003
1.67137
1.65476
1.63947
1.62689
1.61699
1.6133
1.61771
1.6401
1.68713
1.78088
1.95034
2.21134
2.60211
3.18969
4.09703
5.56378
8.06784
12.4969
20.3114
33.298
59.361
189.971
1495.47
1.86968
1.8376
1.80783
1.78055
1.75504
1.73175
1.70984
1.68998
1.67128
1.65461
1.63917
1.62611
1.61507
1.60837
1.60677
1.61673
1.6423
1.69384
1.79244
1.96625
2.23038
2.62306
3.2099
4.11331
5.57014
8.05562
12.4579
20.2483
33.5151
64.0089
221.163
1698.7
1.86968
1.8376
1.80783
1.78054
1.75504
1.73173
1.70982
1.68994
1.67122
1.6545
1.63897
1.6257
1.61413
1.60601
1.60146
1.60462
1.61843
1.64773
1.70488
1.80848
1.98655
2.25405
2.64812
3.2342
4.13229
5.57835
8.04527
12.4167
20.1807
33.9361
68.7401
248.754
1855.49
1.86968
1.8376
1.80783
1.78053
1.75504
1.73171
1.70981
1.6899
1.67116
1.65442
1.63882
1.62544
1.61362
1.60483
1.59888
1.59859
1.6061
1.62339
1.65825
1.72123
1.83002
2.01274
2.28338
2.67907
3.26346
4.15643
5.59084
8.03688
12.3768
20.1182
34.4551
73.0214
270.318
1979.3
1.86968
1.83759
1.80783
1.78052
1.75504
1.7317
1.7098
1.68987
1.67112
1.65434
1.63869
1.62526
1.61328
1.6042
1.59757
1.59563
1.59997
1.61089
1.63344
1.67493
1.74391
1.85853
2.04582
2.31998
2.71675
3.2999
4.18662
5.60948
8.03473
12.3361
20.064
34.9528
76.3387
287.454
2080.55
1.83759
1.86972
1.80784
1.78051
1.75504
1.73168
1.70979
1.68984
1.67108
1.65428
1.63859
1.62511
1.61304
1.60382
1.59685
1.59415
1.59698
1.60473
1.62081
1.65051
1.69864
1.7745
1.89509
2.08748
2.3648
2.76306
3.34398
4.22499
5.63487
8.03686
12.2942
20.0057
35.3222
78.8673
301.394
2166.55
1.80784
1.83768
1.86979
1.78051
1.75504
1.73167
1.70978
1.68981
1.67105
1.65422
1.63851
1.62499
1.61284
1.60355
1.59639
1.59338
1.59552
1.6018
1.61471
1.63838
1.67523
1.73096
1.81408
1.94141
2.1386
2.4195
2.81847
3.39775
4.27134
5.66793
8.04444
12.2514
19.9419
35.5738
80.7914
313.242
2242.2
1.7805
1.808
1.83788
1.86987
1.75504
1.73166
1.70978
1.68978
1.67103
1.65416
1.63844
1.62489
1.61267
1.60335
1.59605
1.59293
1.59479
1.60045
1.61196
1.63284
1.66411
1.7093
1.77323
1.86446
1.99846
2.20082
2.48478
2.88487
3.46074
4.3269
5.71328
8.06126
12.2163
19.8707
35.7125
82.2962
323.497
2310.6
1.75504
1.78071
1.80832
1.83808
1.86995
1.73165
1.70977
1.68976
1.67101
1.65412
1.63838
1.6248
1.61253
1.60318
1.59579
1.59263
1.59438
1.59985
1.61086
1.63072
1.65962
1.69991
1.75425
1.82757
1.92699
2.06824
2.2748
2.56213
2.9618
3.53444
4.39857
5.7747
8.08918
12.1876
19.7913
35.7853
83.4802
332.822
2373.8
1.73164
1.7553
1.78112
1.80865
1.83829
1.87002
1.70977
1.68974
1.671
1.65407
1.63834
1.62472
1.61242
1.60303
1.59557
1.5924
1.59412
1.59958
1.61055
1.63027
1.65857
1.69729
1.74771
1.81258
1.89549
2.00402
2.15166
2.36238
2.65134
3.05086
3.62749
4.49149
5.848
8.12647
12.1661
19.7111
35.7823
84.4741
341.255
2432.88
1.70977
1.73192
1.75582
1.78155
1.80899
1.8385
1.87011
1.68972
1.67099
1.65403
1.6383
1.62464
1.61232
1.60291
1.59538
1.59222
1.59394
1.59945
1.61056
1.63058
1.65913
1.69783
1.74735
1.80966
1.88601
1.98001
2.09686
2.25106
2.46405
2.75363
3.16225
3.74619
4.59722
5.93203
8.17244
12.1522
19.6293
35.7622
85.2979
349.261
2488.79
1.6897
1.71011
1.73252
1.75636
1.78199
1.80934
1.83872
1.87019
1.67098
1.654
1.63827
1.62457
1.61225
1.6028
1.59522
1.59208
1.5938
1.59939
1.6107
1.63118
1.66049
1.70017
1.75046
1.8129
1.88761
1.9768
2.082
2.20874
2.36719
2.58164
2.88221
3.3024
3.87852
4.71503
6.0252
8.22648
12.1455
19.552
35.7195
86.0453
356.653
2541.69
1.67098
1.69005
1.71079
1.73313
1.75691
1.78244
1.8097
1.83895
1.87027
1.65396
1.63825
1.62451
1.61218
1.60271
1.59509
1.59197
1.5937
1.59937
1.61089
1.63187
1.66207
1.70329
1.75546
1.81989
1.8961
1.98524
2.0868
2.20395
2.33931
2.50285
2.73066
3.04596
3.45909
4.02361
4.84282
6.12655
8.28747
12.147
19.4809
35.6612
86.6907
363.816
2592.2
1.65393
1.67137
1.69078
1.71149
1.73375
1.75748
1.78291
1.81006
1.83918
1.87036
1.63823
1.62445
1.61214
1.60261
1.59497
1.59187
1.59362
1.59937
1.61111
1.63256
1.66367
1.70653
1.76121
1.82896
1.90858
2.0011
2.10455
2.22016
2.34697
2.49087
2.67513
2.92202
3.23062
3.63259
4.18094
4.97941
6.23457
8.35454
12.1527
19.4164
35.5985
87.3122
370.48
2640.03
1.63822
1.65432
1.67217
1.69153
1.71221
1.7344
1.75806
1.78339
1.81044
1.83942
1.87045
1.62439
1.6121
1.60252
1.59488
1.59179
1.59356
1.59939
1.61134
1.63323
1.66523
1.70968
1.76696
1.83887
1.92347
2.0215
2.1304
2.25044
2.37802
2.51553
2.68311
2.89436
3.14078
3.43738
3.82157
4.34889
5.12317
6.34818
8.42656
12.1643
19.3597
35.5397
87.8671
376.98
2685.85
1.62434
1.63864
1.65513
1.673
1.6923
1.71295
1.73506
1.75865
1.78388
1.81082
1.83967
1.87054
1.61207
1.60244
1.59481
1.59172
1.5935
1.59941
1.61155
1.63386
1.66671
1.71266
1.77249
1.84862
1.93932
2.04497
2.16168
2.29008
2.4246
2.56584
2.73188
2.93259
3.14226
3.38119
3.664
4.0248
4.52662
5.27334
6.46598
8.50222
12.1825
19.3104
35.4851
88.419
383.042
2729.04
1.61206
1.62472
1.63951
1.65597
1.67385
1.6931
1.71371
1.73575
1.75927
1.78439
1.81122
1.83992
1.87063
1.60235
1.59476
1.59166
1.59346
1.59944
1.61176
1.63445
1.66809
1.71544
1.77772
1.85795
1.95484
2.06983
2.19712
2.33673
2.48251
2.6342
2.80915
3.01571
3.21993
3.42074
3.64256
3.90748
4.24177
4.71266
5.42769
6.58659
8.5808
12.2051
19.2687
35.4385
88.9238
388.954
2770.45
1.60228
1.61245
1.62553
1.6404
1.65684
1.67472
1.69392
1.7145
1.73645
1.75989
1.78491
1.81163
1.84018
1.87072
1.59473
1.59159
1.59342
1.59946
1.61196
1.635
1.66938
1.71802
1.78263
1.86675
1.96972
2.09433
2.23463
2.38945
2.54993
2.71717
2.90861
3.13281
3.34701
3.5464
3.72899
3.92413
4.16299
4.46874
4.90437
5.58556
6.70907
8.66128
12.2316
19.2337
35.399
89.4294
394.467
2809.24
1.59472
1.60255
1.61328
1.62637
1.64132
1.65774
1.67562
1.69477
1.7153
1.73718
1.76054
1.78545
1.81204
1.84044
1.87081
1.59152
1.59338
1.59949
1.61214
1.6355
1.67057
1.72039
1.78721
1.87498
1.98388
2.11799
2.27173
2.44577
2.62647
2.81379
3.02811
3.27959
3.5166
3.72908
3.91267
4.06597
4.22523
4.42929
4.70485
5.10216
5.74578
6.83223
8.7429
12.2611
19.2053
35.3679
89.8998
399.83
2846.47
1.59146
1.59501
1.60318
1.61414
1.62724
1.64227
1.65866
1.67654
1.69564
1.71612
1.73793
1.7612
1.786
1.81245
1.84069
1.8709
1.59333
1.59951
1.6123
1.63597
1.67165
1.72258
1.79146
1.88263
1.99726
2.14058
2.30777
2.50232
2.70909
2.9246
3.16823
3.45659
3.728
3.96748
4.16521
4.3195
4.43059
4.54372
4.70418
4.94357
5.3032
5.90688
6.95537
8.82487
12.2931
19.1827
35.3443
90.3689
404.824
2881.08
1.59331
1.59144
1.59561
1.60381
1.61503
1.62815
1.64325
1.65962
1.67749
1.69654
1.71697
1.7387
1.76187
1.78654
1.81285
1.84093
1.87098
1.59951
1.61245
1.6364
1.67265
1.72458
1.79537
1.88971
2.00984
2.16195
2.34254
2.5581
2.79278
3.046
3.33161
3.66795
3.9868
4.26749
4.49419
4.65992
4.76793
4.82167
4.87735
4.98718
5.18377
5.50547
6.06774
7.07732
8.9065
12.3269
19.1654
35.3267
90.8112
409.669
2914.36
1.59956
1.59316
1.59142
1.59621
1.60449
1.61595
1.6291
1.64425
1.66062
1.67846
1.69747
1.71783
1.73948
1.76254
1.78707
1.81323
1.84117
1.87106
1.61258
1.63678
1.67355
1.72642
1.79896
1.89624
2.02159
2.18203
2.37587
2.61251
2.87589
3.17154
3.51496
3.92115
4.30452
4.64506
4.91813
5.10977
5.21964
5.25961
5.23812
5.22412
5.27607
5.42422
5.70692
6.2267
7.19759
8.98723
12.362
19.1526
35.3164
91.2473
414.167
2945.06
1.61277
1.59918
1.59281
1.59135
1.59687
1.60522
1.6169
1.6301
1.64529
1.66165
1.67946
1.69843
1.71872
1.74026
1.76319
1.78759
1.81361
1.84139
1.87114
1.63711
1.67436
1.72809
1.80225
1.90226
2.03251
2.20081
2.40767
2.66502
2.95769
3.29948
3.70928
4.21406
4.6997
5.12876
5.47445
5.71074
5.83229
5.85255
5.79663
5.67899
5.58215
5.56883
5.66374
5.90695
6.38406
7.31568
9.0666
12.3979
19.1439
35.3099
91.6626
418.53
2974.66
1.63751
1.61202
1.59819
1.59239
1.59136
1.59757
1.60603
1.61788
1.63114
1.64634
1.66271
1.68048
1.69941
1.7196
1.74102
1.76382
1.78809
1.81397
1.84162
1.87122
1.67508
1.72959
1.80525
1.9078
2.04263
2.21832
2.43783
2.71523
3.03779
3.42887
3.91072
4.53395
5.17971
5.76507
6.22686
6.53836
6.68466
6.68222
6.56702
6.38083
6.14324
5.9496
5.86367
5.90098
6.10228
6.53872
7.43107
9.14424
12.4343
19.1385
35.3103
92.0666
422.568
2998.43
1.67585
1.63615
1.60996
1.59708
1.59207
1.59149
1.59829
1.6069
1.61888
1.63223
1.64743
1.66381
1.68153
1.70038
1.72045
1.74176
1.76444
1.78857
1.81433
1.84184
1.87129
1.73095
1.80797
1.91287
2.05196
2.2346
2.4663
2.76293
3.11595
3.55831
4.11641
4.87797
5.73601
6.58784
7.27185
7.71061
7.90653
7.87766
7.67688
7.36905
7.01285
6.62939
6.32464
6.15893
6.13558
6.29213
6.68967
7.54327
9.21981
12.4707
19.1362
35.3129
92.4534
425.958
3018.52
1.73235
1.67378
1.63232
1.60773
1.59609
1.59183
1.59176
1.59899
1.60785
1.61991
1.63336
1.64855
1.66494
1.68257
1.70133
1.72128
1.74248
1.76504
1.78905
1.81467
1.84205
1.87137
1.81045
1.9175
2.06055
2.24973
2.49305
2.80808
3.19194
3.68622
4.32439
5.24731
6.37243
7.59088
8.67542
9.38697
9.68155
9.63314
9.3145
8.82513
8.26007
7.69121
7.13528
6.70534
6.45315
6.36648
6.47622
6.83617
7.6519
9.29306
12.5069
19.1367
35.3186
92.7731
428.797
3040.23
1.81289
1.72934
1.66761
1.62823
1.6057
1.59521
1.59162
1.59224
1.5997
1.60887
1.62097
1.63454
1.6497
1.66606
1.68359
1.70225
1.72209
1.74318
1.76562
1.78951
1.81501
1.84225
1.87144
1.92178
2.06844
2.26376
2.51808
2.85072
3.26547
3.81124
4.53415
5.64355
7.09118
8.77111
10.4108
11.6591
12.2393
12.2046
11.7443
11.0014
10.1251
9.23597
8.41203
7.658
7.08965
6.74498
6.59271
6.65428
6.97772
7.75664
9.36379
12.5426
19.1383
35.3255
93.0485
431.848
3064.02
1.92586
1.80871
1.7198
1.6611
1.62442
1.60383
1.59441
1.59133
1.59287
1.60043
1.60995
1.62207
1.63574
1.65085
1.66715
1.68458
1.70314
1.72288
1.74385
1.76618
1.78995
1.81533
1.84245
1.87147
2.07579
2.27676
2.54146
2.89093
3.33623
3.93247
4.74622
6.0669
7.8875
10.1162
12.4523
14.4619
15.701
15.9085
15.3063
14.2389
12.9274
11.565
10.2877
9.16927
8.19391
7.47542
7.03313
6.81346
6.82604
7.11396
7.85728
9.43184
12.5776
19.1412
35.3339
93.347
435.211
3089.87
2.08258
1.92021
1.79439
1.70986
1.65501
1.62088
1.6021
1.59368
1.59108
1.5936
1.6012
1.61109
1.62321
1.63695
1.65197
1.66821
1.68555
1.70401
1.72365
1.74451
1.76673
1.79039
1.81565
1.84255
1.87147
2.28897
2.56327
2.92883
3.40395
4.04956
4.96153
6.51543
8.75137
11.6039
14.7658
17.7434
19.9598
20.9172
20.435
18.9831
17.0959
15.069
13.126
11.4025
9.95532
8.73885
7.86044
7.31643
7.02804
6.99131
7.24466
7.95368
9.4971
12.6071
19.1448
35.3427
93.6839
438.849
3118.37
2.30002
2.07514
1.89902
1.77964
1.70053
1.64927
1.61754
1.6005
1.59303
1.59091
1.5944
1.60202
1.61226
1.62436
1.63812
1.65307
1.66924
1.68649
1.70486
1.7244
1.74515
1.76727
1.79081
1.81581
1.84255
1.87147
2.58383
2.96456
3.46849
4.1626
5.18082
6.98535
9.66993
13.2078
17.3076
21.4451
24.9361
27.0818
27.3848
25.8269
23.2092
20.2803
17.3954
14.7857
12.5659
10.7617
9.28843
8.24255
7.5938
7.23588
7.14995
7.36971
8.04574
9.55128
12.6327
19.1494
35.3568
94.0499
442.881
3149.34
2.60204
2.2902
2.04414
1.87749
1.76578
1.6917
1.6438
1.6144
1.59902
1.59246
1.59084
1.59526
1.60292
1.61342
1.6255
1.63926
1.65415
1.67024
1.68741
1.70568
1.72512
1.74578
1.76779
1.79102
1.81581
1.84255
1.87147
2.99852
3.52995
4.27216
5.40438
7.47145
10.6293
14.9005
20.0305
25.4941
30.5372
34.2874
35.9621
35.1405
32.0625
27.9412
23.7487
19.872
16.5198
13.7628
11.5798
9.8383
8.61965
7.86424
7.43658
7.30188
7.48903
8.1219
9.59759
12.6613
19.1561
35.3715
94.4692
447.229
3183.6
3.0282
2.58938
2.24496
2.0131
1.85729
1.75261
1.68322
1.63858
1.61144
1.59766
1.59199
1.59088
1.59614
1.60388
1.61455
1.62663
1.64036
1.65521
1.67122
1.6883
1.70648
1.72583
1.74638
1.76804
1.79102
1.81581
1.84255
1.87147
3.58877
4.37905
5.632
7.96773
11.6156
16.6552
22.887
29.8115
36.645
42.3902
46.0041
46.6811
44.1764
39.0915
33.1211
27.4524
22.4632
18.3048
14.9786
12.4014
10.3843
8.98977
8.12691
7.62981
7.44706
7.58767
8.18679
9.64869
12.6933
19.1642
35.3955
94.9225
452.09
3220.77
3.63978
3.01151
2.52327
2.20037
1.98397
1.83802
1.73992
1.67507
1.63359
1.60867
1.59642
1.59164
1.59105
1.597
1.60488
1.61564
1.62776
1.64144
1.65624
1.67217
1.68918
1.70726
1.72652
1.74668
1.76804
1.79102
1.81581
1.84255
1.87147
4.48392
5.86072
8.46805
12.6153
18.4462
25.8311
34.318
43.1299
51.2013
57.291
60.2228
59.2558
54.4385
46.8378
38.6809
31.3401
25.1342
20.1186
16.2001
13.219
10.9226
9.35123
8.38112
7.81531
7.56726
7.67179
8.25843
9.70519
12.7292
19.1759
35.4198
95.4482
457.333
3262
4.57618
3.61825
2.91338
2.45921
2.1586
1.95617
1.81944
1.72767
1.66723
1.62883
1.60609
1.59531
1.59139
1.59141
1.59782
1.6059
1.6167
1.62886
1.64249
1.65724
1.67309
1.69002
1.70802
1.72686
1.74668
1.76804
1.79102
1.81581
1.84255
1.87143
6.08798
8.96837
13.6163
20.2492
28.819
38.937
49.8616
60.5117
69.5285
75.4402
76.9965
73.6346
65.8285
55.2043
44.5454
35.3606
27.8525
21.9413
17.4156
14.0261
11.45
9.70259
8.62627
7.96953
7.66984
7.76398
8.3376
9.76777
12.7697
19.1894
35.4589
96.0159
463.245
3306.61
4.54776
6.28883
3.46761
2.82059
2.39931
2.11869
1.92931
1.80146
1.71585
1.65972
1.62431
1.60376
1.59433
1.59119
1.59198
1.59859
1.60694
1.61774
1.62995
1.64351
1.65823
1.67399
1.69085
1.70839
1.72686
1.74668
1.76804
1.79102
1.81581
1.84245
1.87136
9.46377
14.6078
22.0429
31.8104
43.5975
56.7173
70.1141
82.3901
91.8896
96.9346
96.2853
89.6975
78.2099
64.0783
50.6361
39.4642
30.5884
23.7554
18.6149
14.8171
11.9638
10.0426
8.83087
8.10148
7.78297
7.86514
8.42517
9.83724
12.8152
19.2086
35.4979
96.6729
469.635
3356.2
4.29918
6.26245
9.90171
3.33022
2.73411
2.34207
2.08013
1.9033
1.78409
1.70449
1.65254
1.62
1.60165
1.59349
1.59094
1.59267
1.59936
1.60799
1.61876
1.63101
1.6445
1.65918
1.67486
1.69126
1.70839
1.72686
1.74668
1.76804
1.79102
1.81565
1.84225
1.87129
15.5788
23.8083
34.7705
48.2363
63.5875
79.8193
95.5566
109.078
118.427
121.757
117.954
107.263
91.4155
73.3377
56.8756
43.6053
33.3153
25.5459
19.7899
15.5876
12.4617
10.3271
9.00636
8.24725
7.90791
7.97632
8.52211
9.91447
12.867
19.2304
35.5595
97.3533
476.888
3409.6
4.08064
5.82247
9.89672
16.4394
3.20364
2.65152
2.28681
2.0428
1.87817
1.76736
1.69359
1.64569
1.61598
1.59978
1.59279
1.59076
1.59342
1.60013
1.60902
1.61976
1.63204
1.64548
1.66012
1.67529
1.69126
1.70839
1.72686
1.74668
1.76804
1.79081
1.81533
1.84204
1.87122
25.5275
37.6701
52.8013
70.3788
89.4655
108.746
126.53
140.755
149.154
149.77
141.779
126.097
105.258
82.8581
63.1901
47.7418
36.0103
27.3006
20.9339
16.334
12.8787
10.5716
9.20068
8.40852
8.0461
8.09871
8.62952
10.0005
12.9254
19.261
35.6204
98.1525
484.759
3469.12
3.88354
5.4381
9.0937
16.5014
27.0601
3.08338
2.57188
2.23337
2.00675
1.85395
1.75129
1.68318
1.63925
1.61238
1.5982
1.59221
1.59068
1.59419
1.60091
1.61003
1.62075
1.63306
1.64644
1.66058
1.67529
1.69127
1.70839
1.72687
1.74669
1.76778
1.79038
1.815
1.84183
1.87114
40.4815
57.2504
77.0189
98.923
121.729
143.837
163.23
177.465
183.947
180.721
167.456
145.926
119.541
92.5191
69.5115
51.8369
38.6544
29.0095
22.0415
16.9588
13.237
10.8426
9.41619
8.58723
8.19914
8.2337
8.74866
10.0965
12.9925
19.2953
35.7134
98.9878
493.717
3532.7
3.69968
5.09255
8.37678
15.15
27.2902
42.9953
2.9679
2.49504
2.18183
1.97203
1.8307
1.73592
1.67335
1.63339
1.60923
1.59684
1.59177
1.59071
1.59495
1.60171
1.61101
1.62172
1.63406
1.64691
1.66058
1.67529
1.69127
1.70839
1.72687
1.74638
1.76726
1.78994
1.81466
1.84161
1.87106
61.5445
83.4528
108.098
134.334
160.682
185.273
205.719
219.113
222.552
214.249
194.616
166.458
134.069
102.207
75.7787
55.8596
41.2317
30.6647
22.9683
17.4954
13.6344
11.1436
9.65554
8.78558
8.36889
8.38286
8.88095
10.204
13.0682
19.343
35.8069
99.9781
503.539
3603.77
3.52608
4.77251
7.72409
13.8971
25.214
43.5382
65.3857
2.85688
2.42111
2.13227
1.93871
1.80844
1.72139
1.66436
1.62818
1.60648
1.59569
1.59145
1.59083
1.5957
1.60253
1.61198
1.62271
1.63455
1.64689
1.66059
1.67529
1.69127
1.7084
1.72652
1.74577
1.76672
1.78949
1.81432
1.84139
1.87098
89.6294
116.927
146.449
176.848
206.455
233.107
253.932
265.471
264.581
249.895
222.848
187.394
148.659
111.821
81.9402
59.7843
43.7297
32.0498
23.7641
18.0903
14.0757
11.4782
9.92176
9.00606
8.55747
8.54801
9.02804
10.3242
13.156
19.3963
35.9443
101.036
514.652
3678.81
3.36188
4.47349
7.11546
12.7232
23.2553
40.557
66.4201
95.1423
2.75036
2.35021
2.08478
1.90685
1.78739
1.70806
1.65631
1.62356
1.60407
1.59471
1.59125
1.59106
1.59642
1.60337
1.61297
1.62318
1.63454
1.64689
1.66059
1.6753
1.69127
1.70802
1.72583
1.74514
1.76617
1.78903
1.81396
1.84116
1.8709
125.348
158.009
192.212
226.505
259.053
287.292
307.694
316.177
309.522
287.13
251.723
208.444
163.139
121.273
87.9529
63.5898
45.8212
33.2394
24.6461
18.7504
14.5662
11.8508
10.2182
9.25153
8.76727
8.73123
9.19178
10.4593
13.2554
19.4692
36.0875
102.288
527.081
3777.43
3.20675
4.19468
6.54402
11.6081
21.3816
37.7174
62.3636
96.8559
132.826
2.64843
2.28251
2.03947
1.87676
1.76807
1.69609
1.6491
1.61944
1.60199
1.5939
1.5911
1.59145
1.59713
1.60429
1.61344
1.62316
1.63455
1.6469
1.6606
1.67531
1.69086
1.70726
1.72512
1.7445
1.7656
1.78856
1.8136
1.84092
1.87081
168.949
206.722
245.303
283.222
318.41
347.705
366.719
370.732
356.757
325.38
280.815
229.343
177.368
130.491
93.7815
66.7766
47.6179
34.5581
25.6247
19.4838
15.112
12.2658
10.5489
9.52521
9.00103
8.9349
9.37438
10.6109
13.3715
19.5516
36.2874
103.673
543.365
3896.32
3.06032
3.93625
6.00982
10.5448
19.5645
34.9635
58.494
91.5621
135.378
178.582
2.55127
2.21815
1.99673
1.84916
1.7507
1.68534
1.64265
1.61576
1.60023
1.5932
1.59091
1.59197
1.59794
1.60473
1.6134
1.62317
1.63456
1.64691
1.6606
1.67488
1.69003
1.70648
1.72439
1.74384
1.76502
1.78807
1.81322
1.84068
1.87073
220.324
262.833
305.511
346.868
384.439
414.182
430.614
428.507
405.587
364.053
309.722
249.86
191.223
139.415
98.6591
69.514
49.6099
36.0212
26.7114
20.2991
15.7198
12.7288
10.9179
9.83072
9.26185
9.16176
9.5782
10.782
13.5037
19.6612
36.5088
105.593
564.288
4016.64
2.92187
3.6988
5.51456
9.53635
17.7926
32.2542
54.7133
86.5454
128.678
182.058
232.146
2.45919
2.15765
1.95762
1.82438
1.7351
1.67569
1.63686
1.61247
1.59869
1.59261
1.59081
1.5927
1.59828
1.60467
1.61341
1.62317
1.63456
1.64694
1.66014
1.674
1.68918
1.70568
1.72364
1.74316
1.76442
1.78757
1.81284
1.84043
1.87064
279.075
325.974
372.593
417.349
457.105
486.528
498.873
488.756
455.255
402.576
338.093
269.802
204.607
146.87
102.846
72.5484
51.8204
37.6463
27.9192
21.2061
16.3969
13.2454
11.3302
10.1721
9.55322
9.41489
9.80624
10.9747
13.6587
19.7889
36.8511
108.098
587.453
4136.69
2.79086
3.48463
5.05915
8.5926
16.0664
29.5694
50.9607
81.6394
122.422
173.744
236.514
292.929
2.37304
2.10247
1.92258
1.80213
1.72108
1.66702
1.63168
1.60955
1.59737
1.59218
1.59102
1.59304
1.59814
1.6047
1.61342
1.62318
1.63459
1.64647
1.6592
1.6731
1.6883
1.70485
1.72287
1.74247
1.76381
1.78706
1.81244
1.84017
1.87054
344.655
395.764
446.427
494.786
536.527
564.548
570.873
550.622
504.993
440.433
365.632
289.017
215.757
153.26
107.483
75.9142
54.2754
39.4524
29.2624
22.2158
17.1517
13.8222
11.791
10.554
9.87902
9.69786
10.0615
11.1932
13.8371
19.9819
37.3342
110.956
612.931
4254.96
2.66824
3.28989
4.64339
7.71445
14.3933
26.9056
47.2002
76.7549
116.342
166.162
226.3
298.002
360.174
2.29493
2.05317
1.89118
1.78215
1.70848
1.65924
1.62703
1.60695
1.59632
1.59217
1.59102
1.59292
1.59815
1.6047
1.61343
1.62324
1.6341
1.64551
1.65824
1.67217
1.68741
1.70401
1.72209
1.74175
1.76318
1.78653
1.81204
1.83991
1.87045
416.53
471.998
527.205
579.626
623.022
648.02
645.835
613.17
554.078
477.183
392.104
304.971
225.293
160.323
112.619
79.6495
57.0033
41.461
30.7572
23.3402
17.9932
14.4662
12.3062
10.9811
10.2435
10.0144
10.3478
11.442
14.0857
20.2599
37.9089
114.415
640.113
4370.52
2.55701
3.11264
4.26885
6.9043
12.7918
24.2716
43.4167
71.8316
110.31
158.891
217.273
285.476
365.586
433.144
2.22556
2.00912
1.86306
1.76421
1.69717
1.65223
1.62284
1.60481
1.59587
1.59203
1.59072
1.59296
1.59816
1.60471
1.61351
1.62278
1.63309
1.64453
1.65726
1.67123
1.6865
1.70315
1.72128
1.74102
1.76254
1.78599
1.81163
1.83966
1.87036
494.361
554.833
615.556
672.665
717.029
736.577
722.803
675.456
601.869
512.469
414.013
318.58
235.804
168.128
118.31
83.7958
60.0355
43.6957
32.4211
24.5923
18.9311
15.1849
12.8818
11.4587
10.6513
10.3691
10.6662
11.7781
14.4211
20.5931
38.6698
118.084
670.707
4481.36
2.45834
2.95452
3.93716
6.16828
11.2796
21.6852
39.6108
66.8326
104.233
151.759
208.798
274.819
350.148
438.372
511.349
2.16394
1.96976
1.83786
1.74811
1.68697
1.6459
1.61929
1.60358
1.59547
1.59164
1.59074
1.59297
1.5982
1.60482
1.61305
1.62179
1.63208
1.64354
1.65626
1.67026
1.68556
1.70226
1.72046
1.74027
1.76188
1.78544
1.81122
1.83941
1.87028
578.256
645.058
712.807
775.244
819.012
829.583
800.697
736.588
647.83
541.611
432.652
333.53
247.38
176.749
124.612
88.398
63.4065
46.182
34.273
25.9864
19.9759
15.9864
13.5244
11.9924
11.1073
10.767
11.0874
12.2128
14.8024
21.0175
39.4889
122.806
702.876
4586.75
2.37105
2.81457
3.65384
5.51526
9.8755
19.1699
35.795
61.739
98.041
144.631
200.649
265.092
337.572
419.145
515.771
594.839
2.10916
1.9346
1.81528
1.7336
1.67774
1.64045
1.61698
1.60269
1.59493
1.59168
1.59076
1.59297
1.5984
1.60441
1.61206
1.62082
1.63105
1.64253
1.65524
1.66927
1.6846
1.70135
1.71961
1.7395
1.76121
1.7849
1.81082
1.83917
1.87019
669.115
744.425
821.431
889.313
929.34
926.171
878.413
795.782
685.809
566.357
453.061
349.928
260.112
186.262
131.587
93.5042
67.1527
48.9477
36.3337
27.5376
21.1388
16.879
14.2405
12.5878
11.616
11.2955
11.6206
12.6881
15.2435
21.4956
40.6347
127.667
739.367
4684.49
2.29397
2.68976
3.42035
4.95844
8.61087
16.7521
31.9917
56.5451
91.6841
137.397
192.643
256.009
326.481
404.236
491.481
597.784
684.64
2.06042
1.9032
1.79498
1.7205
1.66975
1.6367
1.61548
1.60191
1.59499
1.59171
1.59082
1.59318
1.5981
1.6035
1.6111
1.61985
1.63001
1.64149
1.6542
1.66825
1.68362
1.70041
1.71875
1.73871
1.76054
1.78437
1.81043
1.83893
1.87011
768.957
856.514
945.419
1017.33
1048.22
1025.45
954.875
844.965
718.053
593.386
475.358
367.877
274.09
196.743
139.299
99.1643
71.313
52.022
38.6249
29.2619
22.431
17.8711
15.0369
13.2496
12.2882
11.9611
12.1925
13.2081
15.7328
22.1179
41.8504
133.958
777.972
4773.88
2.22595
2.5785
3.2241
4.49505
7.51429
14.4758
28.2333
51.258
85.1213
129.962
184.622
247.326
316.509
391.58
473.701
566.627
685.618
783.489
2.01703
1.87507
1.77667
1.70911
1.66403
1.63436
1.61443
1.60199
1.59502
1.59175
1.59124
1.59289
1.5973
1.60268
1.61013
1.61887
1.62894
1.64043
1.65314
1.6672
1.68263
1.69946
1.71787
1.73794
1.7599
1.78386
1.81006
1.8387
1.87003
882.362
987.627
1090.7
1162.24
1176.51
1126.22
1019.32
886.858
753.261
622.826
499.647
387.468
289.396
208.266
147.808
105.429
75.9272
55.4354
41.1689
31.1755
23.864
18.9709
15.919
14.1203
13.1274
12.6671
12.8031
13.7677
16.3019
22.8103
43.5206
140.648
821.152
4853.47
2.16588
2.47972
3.0557
4.11252
6.59145
12.4342
24.5879
45.9003
78.3241
122.236
176.443
238.837
307.336
380.699
459.18
545.362
644.919
782.736
897.015
1.9783
1.8498
1.76072
1.70076
1.66053
1.63298
1.61455
1.60203
1.59506
1.59227
1.59132
1.59219
1.5966
1.6019
1.60914
1.61787
1.62786
1.63934
1.65206
1.66613
1.6816
1.69849
1.717
1.73719
1.75927
1.78337
1.80969
1.83848
1.86995
1017.69
1148.49
1265.67
1331.42
1313.94
1213.31
1074.69
932.76
791.595
654.788
526.012
408.776
306.104
220.898
157.176
112.348
81.0351
59.218
43.9884
33.2944
25.4491
20.1853
17.0749
15.1986
14.0084
13.4088
13.4483
14.3763
16.9264
23.6964
45.3827
148.91
867.917
4922.59
2.11265
2.39245
2.90862
3.79788
5.82483
10.6703
21.199
40.5504
71.2801
114.134
167.955
230.346
298.707
371.176
447.299
528.59
619.554
728.361
896.193
1037.41
1.94362
1.82779
1.74877
1.69576
1.6587
1.63314
1.6146
1.60208
1.59576
1.59252
1.59116
1.59172
1.59591
1.60114
1.60814
1.61685
1.62677
1.63822
1.65096
1.66503
1.68056
1.69753
1.71615
1.73646
1.75866
1.78289
1.80933
1.83827
1.86987
1190.83
1357.33
1495.47
1529.29
1436.71
1289.16
1135.98
982.979
833.219
689.362
554.513
431.855
324.266
234.695
167.454
119.968
86.6738
63.399
47.1047
35.6341
27.1953
21.7716
18.4972
16.3213
14.9233
14.1795
14.128
15.0238
17.6486
24.7038
47.7664
158.372
918.65
4980.99
2.06528
2.31552
2.77834
3.54166
5.19448
9.17534
18.1585
35.4107
64.05
105.577
158.999
221.645
290.376
362.698
437.498
515.547
600.09
698.225
822.52
1042.94
1229.7
1.91344
1.81105
1.74167
1.6934
1.65892
1.63321
1.61465
1.60307
1.5963
1.59259
1.59131
1.59142
1.59519
1.6004
1.60713
1.61581
1.62567
1.63708
1.64984
1.66392
1.67953
1.6966
1.71532
1.73576
1.75806
1.78242
1.80899
1.83806
1.8698
1437.64
1676.37
1795.63
1710.56
1545.1
1374.36
1203.98
1037.99
878.344
726.639
585.188
456.727
343.913
249.695
178.682
128.326
92.8762
68.0042
50.5372
38.2068
29.4708
23.7141
19.969
17.4774
15.8633
14.9743
14.8358
15.7236
18.4455
25.9337
50.6228
169.29
975.517
5027.55
2.02414
2.24771
2.66215
3.33114
4.67898
7.92574
15.4723
30.6385
56.8775
96.5684
149.408
212.497
282.084
354.968
429.39
505.466
585.649
675.618
786.491
940.386
1269.34
1540.55
1.8901
1.80131
1.73863
1.6937
1.65901
1.63325
1.61594
1.60414
1.59682
1.59308
1.59155
1.59127
1.59446
1.59967
1.60614
1.61475
1.62456
1.63591
1.6487
1.66283
1.67853
1.6957
1.71452
1.73507
1.75748
1.78197
1.80865
1.83786
1.86973
1876.85
2124.73
2064.83
1871.27
1669.69
1471.26
1280.43
1098.62
927.338
766.743
618.061
483.389
365.042
265.909
190.885
137.448
99.6665
73.054
54.2998
41.5511
32.2466
25.7155
21.4757
18.6556
16.82
15.7865
15.5735
16.4674
19.352
27.3864
53.9893
182.737
1036.16
5065.74
1.992
2.18935
2.55861
3.15362
4.26014
6.89135
13.143
26.277
49.9833
87.3467
139.084
202.637
273.531
347.691
422.628
497.857
575.217
659.449
760.339
896.552
1114.39
1719.97
2198.1
1.87659
1.79749
1.73903
1.69381
1.65904
1.63494
1.6177
1.6055
1.59797
1.59376
1.59177
1.59123
1.59375
1.59895
1.60518
1.61365
1.62345
1.63472
1.64758
1.66177
1.67756
1.69483
1.71375
1.73441
1.75692
1.78153
1.80833
1.83766
1.86969
2556.45
2552.98
2325.4
2072.56
1819.5
1588.04
1368.34