/*--------------------------------*- C++ -*----------------------------------*\
  =========                 |
  \\      /  F ield         | OpenFOAM: The Open Source CFD Toolbox
   \\    /   O peration     | Website:  https://openfoam.org
    \\  /    A nd           | Version:  8
     \\/     M anipulation  |
\*---------------------------------------------------------------------------*/
FoamFile
{
    version     2.0;
    format      ascii;
    class       volScalarField;
    location    "0.35";
    object      k;
}
// * * * * * * * * * * * * * * * * * * * * * * * * * * * * * * * * * * * * * //

dimensions      [0 2 -2 0 0 0 0];

internalField   nonuniform List<scalar> 
15677
(
0.334151
0.365018
0.294764
0.368725
0.357705
0.281055
0.370688
0.360087
0.366162
0.282788
0.371881
0.361637
0.361496
0.383391
0.288925
0.372608
0.363746
0.357757
0.368385
0.401771
0.300345
0.373037
0.365664
0.357862
0.35819
0.380191
0.419468
0.311853
0.373261
0.367182
0.359472
0.354617
0.361092
0.393391
0.434863
0.322651
0.373347
0.368306
0.361365
0.354795
0.353099
0.366968
0.406274
0.447963
0.332121
0.373348
0.369084
0.363071
0.356357
0.351149
0.353541
0.373636
0.418381
0.458784
0.340486
0.373313
0.369569
0.364445
0.358232
0.35195
0.348817
0.354832
0.38078
0.429193
0.467902
0.347529
0.373274
0.369826
0.365464
0.359968
0.353729
0.348404
0.347176
0.357167
0.387741
0.438902
0.475367
0.353716
0.373249
0.369928
0.366149
0.361401
0.355671
0.349778
0.345371
0.346352
0.359759
0.394526
0.447287
0.481744
0.358858
0.37324
0.369942
0.366548
0.36248
0.357428
0.351729
0.346214
0.342941
0.345912
0.362662
0.400757
0.454721
0.48699
0.363472
0.37324
0.369925
0.366737
0.36321
0.358857
0.353685
0.348073
0.343098
0.340867
0.345925
0.365522
0.406605
0.461021
0.491503
0.367482
0.373241
0.369909
0.366795
0.363635
0.359913
0.35539
0.350152
0.344749
0.340284
0.339195
0.346055
0.368422
0.411763
0.466579
0.495233
0.371035
0.373241
0.3699
0.366796
0.363833
0.360603
0.356735
0.352079
0.346875
0.341684
0.337808
0.337734
0.346383
0.371093
0.416508
0.471188
0.498523
0.374278
0.373241
0.369896
0.366786
0.36389
0.360984
0.357687
0.353678
0.348968
0.343814
0.338905
0.335557
0.336517
0.346772
0.373697
0.420534
0.475228
0.501352
0.377043
0.373241
0.369893
0.366778
0.363897
0.361133
0.358272
0.354875
0.350785
0.34604
0.340994
0.336342
0.333561
0.335433
0.347276
0.375956
0.424143
0.478545
0.503843
0.379839
0.373241
0.369891
0.366772
0.363891
0.361177
0.358541
0.355666
0.352208
0.348046
0.343317
0.338378
0.334026
0.331734
0.33455
0.347707
0.378055
0.427085
0.481433
0.506148
0.382017
0.373241
0.36989
0.366769
0.363883
0.361182
0.358645
0.356065
0.353205
0.349676
0.345487
0.340786
0.335994
0.331895
0.33014
0.333745
0.348165
0.379772
0.42968
0.483796
0.508116
0.384617
0.373241
0.369888
0.366766
0.363876
0.361176
0.358676
0.356239
0.35375
0.350863
0.347306
0.343109
0.338465
0.333806
0.330007
0.3287
0.333084
0.34852
0.381307
0.431675
0.485842
0.510187
0.38635
0.373241
0.369887
0.366765
0.363871
0.361169
0.358678
0.356304
0.354012
0.351544
0.348682
0.345106
0.340921
0.336354
0.331864
0.328313
0.327474
0.332492
0.348847
0.382465
0.433446
0.487526
0.51182
0.388925
0.373241
0.369887
0.366764
0.363867
0.361163
0.358671
0.35632
0.354126
0.35189
0.349515
0.346655
0.343082
0.338956
0.334486
0.330144
0.326876
0.326413
0.33202
0.349095
0.383494
0.434672
0.489015
0.513912
0.390349
0.373241
0.369886
0.366763
0.363864
0.361158
0.358662
0.356317
0.354165
0.352051
0.349966
0.347615
0.344808
0.341296
0.33722
0.33286
0.32871
0.325676
0.325603
0.33166
0.3493
0.384167
0.43585
0.490219
0.515294
0.392922
0.373241
0.369886
0.366762
0.363862
0.361155
0.358653
0.356309
0.35417
0.352114
0.350194
0.348148
0.345928
0.343192
0.339711
0.335763
0.331564
0.327576
0.324788
0.324967
0.331387
0.349481
0.384815
0.436508
0.491486
0.517783
0.394298
0.373242
0.369886
0.366762
0.36386
0.361152
0.358646
0.3563
0.354161
0.352131
0.350294
0.348426
0.346583
0.344426
0.341779
0.338481
0.334655
0.330566
0.326749
0.324149
0.324674
0.3314
0.349709
0.385189
0.437335
0.492302
0.51941
0.504332
0.373242
0.369885
0.366761
0.363859
0.36115
0.358641
0.356292
0.354148
0.352126
0.350325
0.348555
0.346946
0.345149
0.343201
0.340764
0.337513
0.333834
0.33
0.326441
0.324092
0.324747
0.331523
0.349944
0.385598
0.437703
0.494159
0.528066
0.711876
0.373242
0.369885
0.366761
0.363858
0.361148
0.358637
0.356286
0.354136
0.352115
0.350323
0.348603
0.347124
0.345554
0.344084
0.342284
0.339939
0.337063
0.333721
0.330068
0.326597
0.324302
0.325038
0.331832
0.350271
0.385917
0.438504
0.494652
0.544802
0.889412
0.373242
0.369885
0.36676
0.363857
0.361146
0.358634
0.356281
0.354126
0.352102
0.350308
0.348611
0.347193
0.345763
0.344607
0.343206
0.34174
0.339911
0.337211
0.333998
0.330477
0.327114
0.324876
0.325669
0.332445
0.350764
0.386276
0.439049
0.494358
0.557731
1.0336
0.373242
0.369885
0.36676
0.363856
0.361145
0.358631
0.356276
0.354117
0.35209
0.350289
0.3486
0.347204
0.345858
0.344882
0.343751
0.342913
0.341862
0.340227
0.33777
0.334768
0.331416
0.328204
0.326011
0.326797
0.333414
0.351415
0.386893
0.43878
0.492863
0.567378
1.15928
0.373242
0.369885
0.36676
0.363856
0.361144
0.358629
0.356273
0.35411
0.35208
0.350272
0.348582
0.347189
0.345888
0.344997
0.344058
0.343647
0.343123
0.34238
0.341082
0.338975
0.3363
0.333193
0.330026
0.327784
0.328383
0.334752
0.352389
0.387341
0.437871
0.489708
0.574071
1.26206
0.373242
0.369885
0.36676
0.363856
0.361143
0.358627
0.35627
0.354105
0.352072
0.350257
0.348563
0.347163
0.345883
0.345028
0.344228
0.344067
0.343923
0.343795
0.343519
0.342777
0.341121
0.33874
0.335759
0.332591
0.330171
0.330493
0.33651
0.353568
0.387801
0.435984
0.484386
0.578427
1.33858
0.373242
0.369885
0.366759
0.363855
0.361142
0.358626
0.356267
0.3541
0.352064
0.350245
0.348546
0.347137
0.345861
0.345017
0.344297
0.344268
0.344395
0.34471
0.345184
0.345642
0.345473
0.344234
0.342112
0.339223
0.335936
0.333262
0.333145
0.338716
0.355032
0.387829
0.43287
0.477627
0.581272
1.39748
0.373242
0.369885
0.366759
0.363855
0.361141
0.358624
0.356265
0.354096
0.352058
0.350234
0.348532
0.347114
0.345835
0.344988
0.34431
0.344355
0.344648
0.345273
0.346298
0.347602
0.348792
0.349256
0.348432
0.346545
0.343642
0.340162
0.337068
0.336393
0.341349
0.35663
0.387689
0.428678
0.471007
0.583631
1.44474
0.369885
0.373245
0.366759
0.363855
0.361141
0.358623
0.356263
0.354092
0.352053
0.350225
0.348519
0.347094
0.345811
0.344955
0.344292
0.344378
0.344769
0.345601
0.347017
0.348951
0.351123
0.353144
0.354274
0.353861
0.352117
0.349132
0.345289
0.341664
0.340216
0.344445
0.358699
0.387279
0.424456
0.464671
0.585987
1.48428
0.366759
0.369896
0.373253
0.363854
0.36114
0.358622
0.356261
0.35409
0.352048
0.350218
0.348508
0.347077
0.345789
0.344924
0.344264
0.344368
0.344816
0.345778
0.347469
0.34986
0.352777
0.355943
0.358872
0.360697
0.360626
0.358963
0.355723
0.351409
0.34702
0.344624
0.348265
0.361233
0.38685
0.420299
0.459111
0.588743
1.51864
0.363854
0.366775
0.369917
0.37326
0.36114
0.358622
0.35626
0.354087
0.352045
0.350211
0.348499
0.347062
0.345769
0.344896
0.344236
0.344345
0.344824
0.345869
0.347745
0.350468
0.353943
0.357994
0.362263
0.366172
0.368663
0.368882
0.367128
0.363525
0.358486
0.353169
0.350191
0.352996
0.364121
0.386338
0.416494
0.454115
0.591729
1.54937
0.36114
0.363876
0.366809
0.369938
0.373268
0.358621
0.356259
0.354085
0.352042
0.350206
0.348491
0.34705
0.345753
0.344872
0.344209
0.34432
0.344815
0.345911
0.347916
0.35088
0.354774
0.359506
0.36483
0.370306
0.375213
0.378349
0.378695
0.376743
0.372503
0.366575
0.360851
0.357212
0.358225
0.367209
0.386233
0.413026
0.44997
0.595262
1.57749
0.35862
0.361167
0.363921
0.366843
0.36996
0.373276
0.356258
0.354083
0.352039
0.350201
0.348484
0.347039
0.345738
0.344851
0.344186
0.344296
0.344801
0.345931
0.348025
0.351173
0.355387
0.360648
0.366805
0.373537
0.380275
0.3862
0.389851
0.39022
0.387776
0.382735
0.376641
0.37048
0.365014
0.363904
0.370669
0.386386
0.410019
0.446329
0.598871
1.60356
0.356257
0.358652
0.361222
0.363967
0.366879
0.369983
0.373284
0.354081
0.352037
0.350197
0.348478
0.34703
0.345725
0.344833
0.344165
0.344275
0.344787
0.345942
0.3481
0.351391
0.355869
0.361554
0.36838
0.376127
0.384355
0.392408
0.399261
0.403347
0.403431
0.400336
0.395442
0.389213
0.381139
0.373517
0.369969
0.374304
0.386805
0.407414
0.443304
0.602946
1.62803
0.35408
0.356293
0.358716
0.361279
0.364015
0.366915
0.370007
0.373292
0.352035
0.350193
0.348473
0.347022
0.345714
0.344818
0.344148
0.344257
0.344775
0.34595
0.34816
0.351564
0.356265
0.362321
0.369707
0.378298
0.38776
0.397571
0.406874
0.414611
0.418828
0.418467
0.415919
0.411292
0.403098
0.392729
0.382626
0.376423
0.378062
0.387616
0.405377
0.440694
0.606907
1.65102
0.352033
0.354118
0.356366
0.358782
0.361337
0.364063
0.366952
0.370031
0.373301
0.350189
0.348469
0.347015
0.345705
0.344805
0.344133
0.344242
0.344765
0.345958
0.348212
0.351711
0.356598
0.362988
0.370894
0.380218
0.390736
0.402039
0.413404
0.42395
0.432277
0.436479
0.43712
0.435349
0.428777
0.418166
0.405122
0.39225
0.383222
0.381946
0.388703
0.403646
0.438564
0.611217
1.67283
0.350187
0.352074
0.354198
0.356441
0.358851
0.361397
0.364113
0.366991
0.370055
0.37331
0.348465
0.347009
0.345697
0.344794
0.34412
0.344229
0.344757
0.345966
0.348259
0.351842
0.356892
0.363572
0.371973
0.382012
0.393478
0.406096
0.419245
0.432195
0.443704
0.45252
0.458434
0.460422
0.456777
0.447721
0.434244
0.418189
0.402302
0.390282
0.385988
0.390104
0.402432
0.436774
0.615288
1.69334
0.348462
0.350229
0.352161
0.35428
0.356518
0.358921
0.361459
0.364165
0.36703
0.37008
0.373319
0.347003
0.345689
0.344784
0.344109
0.344218
0.344751
0.345975
0.348302
0.351962
0.357157
0.364099
0.372945
0.383696
0.396132
0.409969
0.424731
0.439801
0.454062
0.466478
0.477842
0.486004
0.486172
0.48
0.467914
0.451165
0.431797
0.412682
0.397541
0.390119
0.391605
0.401518
0.435354
0.619597
1.71288
0.346998
0.348505
0.350318
0.352249
0.354364
0.356598
0.358992
0.361523
0.364217
0.367071
0.370106
0.373328
0.345683
0.344776
0.344099
0.344209
0.344746
0.345983
0.348343
0.352072
0.357401
0.36458
0.373835
0.385244
0.398689
0.41383
0.430131
0.44717
0.463899
0.479464
0.495131
0.509875
0.516699
0.514205
0.50479
0.489148
0.468748
0.445806
0.423294
0.404925
0.394388
0.39318
0.400974
0.434193
0.623609
1.73119
0.345678
0.347039
0.348597
0.35041
0.352341
0.354451
0.35668
0.359066
0.361588
0.364271
0.367112
0.370133
0.373338
0.344769
0.34409
0.344201
0.344742
0.345992
0.348381
0.352174
0.357624
0.365024
0.374657
0.38668
0.401087
0.417638
0.435647
0.454626
0.473702
0.492153
0.511668
0.53171
0.545815
0.550329
0.544285
0.530912
0.511207
0.486816
0.460084
0.434041
0.412378
0.398743
0.394852
0.400607
0.433302
0.627764
1.74866
0.344764
0.345715
0.347126
0.348691
0.350505
0.352436
0.354541
0.356764
0.359142
0.361655
0.364327
0.367155
0.37016
0.373347
0.344081
0.344194
0.344739
0.346001
0.348416
0.352267
0.357829
0.365432
0.375416
0.388016
0.403338
0.421263
0.441194
0.462432
0.483878
0.505143
0.528293
0.553245
0.573178
0.585555
0.586658
0.576158
0.558146
0.533889
0.505197
0.474498
0.444833
0.419846
0.403143
0.396585
0.400518
0.432599
0.631605
1.76494
0.344073
0.344793
0.345794
0.347217
0.348789
0.350602
0.352533
0.354633
0.356851
0.35922
0.361724
0.364384
0.367199
0.370187
0.373356
0.344187
0.344736
0.346009
0.348449
0.352353
0.358017
0.365807
0.376117
0.38926
0.405452
0.424702
0.446558
0.47045
0.494757
0.518957
0.545793
0.575602
0.600999
0.619582
0.628943
0.625443
0.609552
0.586248
0.556983
0.52373
0.488929
0.455589
0.427278
0.407551
0.398381
0.400571
0.432095
0.635517
1.7805
0.344184
0.34408
0.344857
0.345876
0.34731
0.348891
0.350703
0.352633
0.354727
0.35694
0.359301
0.361795
0.364442
0.367242
0.370213
0.373365
0.344734
0.346016
0.348479
0.352432
0.358189
0.366151
0.376763
0.390414
0.407433
0.427958
0.451714
0.47833
0.506111
0.534054
0.564905
0.5999
0.630831
0.655287
0.670991
0.67587
0.666459
0.644201
0.614984
0.580314
0.542274
0.503274
0.466238
0.434627
0.411935
0.40021
0.400699
0.431744
0.639121
1.7949
0.344734
0.344173
0.344098
0.344923
0.345963
0.347407
0.348996
0.350807
0.352737
0.354824
0.357032
0.359383
0.361867
0.3645
0.367284
0.370239
0.373374
0.346022
0.348505
0.352503
0.358346
0.366467
0.377357
0.391483
0.409281
0.43103
0.456652
0.485988
0.517408
0.550184
0.586345
0.627258
0.664356
0.694982
0.716724
0.727671
0.726314
0.709512
0.679865
0.644128
0.603716
0.560703
0.517441
0.476717
0.441853
0.416267
0.40207
0.400935
0.431543
0.642747
1.8087
0.346032
0.344694
0.344151
0.344119
0.344991
0.346056
0.347508
0.349106
0.350914
0.352844
0.354924
0.357126
0.359467
0.361939
0.364556
0.367325
0.370263
0.373382
0.348527
0.352567
0.358489
0.366755
0.377902
0.392469
0.411
0.433916
0.461356
0.49338
0.528534
0.566647
0.60979
0.658836
0.703526
0.741584
0.769938
0.786488
0.790145
0.780354
0.754452
0.716336
0.673485
0.627035
0.578909
0.531353
0.486973
0.448923
0.420525
0.403949
0.401232
0.431436
0.646077
1.82138
0.348554
0.345949
0.344601
0.344121
0.344158
0.345062
0.346155
0.347612
0.349219
0.351024
0.352954
0.355027
0.357223
0.359551
0.362008
0.364611
0.367364
0.370287
0.37339
0.352624
0.358617
0.367017
0.378401
0.393377
0.412592
0.436617
0.465809
0.500472
0.539452
0.583234
0.634041
0.694436
0.750972
0.799195
0.836058
0.858674
0.86618
0.859061
0.838106
0.801159
0.753433
0.702888
0.65014
0.5968
0.544946
0.496963
0.455806
0.424688
0.405829
0.401581
0.431449
0.649402
1.83357
0.352686
0.348399
0.345747
0.344499
0.344084
0.344213
0.345135
0.34626
0.347719
0.349337
0.351138
0.353067
0.355133
0.357318
0.359632
0.362076
0.364664
0.367403
0.370311
0.373398
0.358733
0.367255
0.378856
0.39421
0.414063
0.439133
0.470004
0.507244
0.55011
0.599759
0.65867
0.732931
0.808234
0.87389
0.922907
0.95334
0.964225
0.957185
0.934888
0.899601
0.849491
0.790986
0.732189
0.672921
0.614303
0.558171
0.506653
0.462482
0.428743
0.407696
0.40197
0.4315
0.652451
1.84332
0.358852
0.352444
0.348014
0.345534
0.344409
0.344049
0.34428
0.345211
0.34637
0.347831
0.349458
0.351255
0.353182
0.355237
0.357411
0.359711
0.362142
0.364715
0.36744
0.370333
0.373406
0.36747
0.379269
0.394973
0.415419
0.441471
0.473939
0.513681
0.560438
0.616029
0.68361
0.77471
0.874928
0.969444
1.04029
1.08193
1.09699
1.08804
1.05991
1.01759
0.964657
0.899249
0.828822
0.761257
0.69528
0.631357
0.570987
0.516016
0.468931
0.432674
0.409535
0.402391
0.431603
0.65506
1.85155
0.367683
0.358496
0.351813
0.34761
0.34534
0.344327
0.344021
0.344356
0.345291
0.346486
0.347947
0.349583
0.351375
0.353297
0.355339
0.357501
0.359788
0.362206
0.364766
0.367477
0.370355
0.373414
0.379647
0.395668
0.416665
0.443636
0.47762
0.519771
0.570372
0.631917
0.709007
0.820289
0.950938
1.08255
1.19052
1.25519
1.2773
1.26635
1.22905
1.17341
1.10648
1.03282
0.950145
0.86676
0.789973
0.717137
0.647911
0.583365
0.525033
0.47514
0.436472
0.411338
0.402831
0.43174
0.657245
1.86041
0.380009
0.367179
0.357512
0.351154
0.347234
0.345162
0.344254
0.344001
0.344439
0.345377
0.346606
0.348067
0.349711
0.351496
0.353409
0.355439
0.357589
0.359863
0.362268
0.364814
0.367512
0.370377
0.373421
0.396308
0.417808
0.445638
0.481052
0.525509
0.579866
0.647382
0.735033
0.869504
1.03457
1.20837
1.36218
1.46951
1.5137
1.50385
1.45709
1.38406
1.29558
1.20031
1.10337
1.00181
0.9046
0.818222
0.738424
0.663928
0.595283
0.533692
0.481101
0.440131
0.413095
0.403228
0.431872
0.659601
1.87011
0.396908
0.379319
0.365701
0.356492
0.350532
0.346884
0.344998
0.34419
0.343991
0.344528
0.34547
0.34673
0.348193
0.349838
0.351613
0.353517
0.355536
0.357674
0.359936
0.362328
0.364862
0.367546
0.370398
0.373424
0.418865
0.447484
0.484243
0.530895
0.588901
0.662432
0.761715
0.92148
1.12289
1.34107
1.5448
1.70445
1.79561
1.80596
1.75354
1.66312
1.54885
1.4237
1.29744
1.17545
1.05382
0.942134
0.845901
0.759088
0.679377
0.606726
0.541983
0.486808
0.443643
0.414575
0.403581
0.432048
0.662215
1.88061
0.419835
0.395992
0.377152
0.364179
0.355524
0.349944
0.346555
0.344845
0.344137
0.343992
0.344621
0.345571
0.346857
0.348319
0.349962
0.351728
0.353622
0.355631
0.357757
0.360007
0.362387
0.364908
0.36758
0.370408
0.373424
0.449202
0.487206
0.535933
0.597476
0.677082
0.788897
0.974973
1.21285
1.47529
1.73002
1.94604
2.09549
2.15658
2.12171
2.01822
1.87834
1.71908
1.55494
1.39619
1.24812
1.10571
0.97915
0.872911
0.779081
0.694235
0.617685
0.549904
0.492258
0.446564
0.415852
0.403991
0.43227
0.665043
1.89215
0.450751
0.418639
0.392869
0.374937
0.362731
0.354602
0.349383
0.346245
0.344705
0.344094
0.344006
0.344716
0.345681
0.346983
0.348444
0.350082
0.351841
0.353725
0.355723
0.357838
0.360076
0.362444
0.364953
0.367596
0.370408
0.373424
0.489975
0.540643
0.605605
0.691336
0.816301
1.02874
1.302
1.60712
1.91178
2.18503
2.39749
2.52279
2.54175
2.4521
2.29086
2.09742
1.89097
1.68675
1.49497
1.32046
1.15704
1.01545
0.899163
0.798365
0.708488
0.628156
0.557454
0.496767
0.449062
0.417277
0.404464
0.432558
0.668204
1.90466
0.492433
0.44921
0.414193
0.389704
0.372827
0.361346
0.353717
0.348845
0.345956
0.344577
0.344062
0.344036
0.344811
0.345796
0.347105
0.348568
0.350199
0.351951
0.353825
0.355812
0.357916
0.360143
0.362499
0.364975
0.367596
0.370408
0.373424
0.545067
0.61332
0.70519
0.843608
1.08175
1.38858
1.73402
2.08629
2.41532
2.69182
2.88712
2.97597
2.94227
2.78984
2.56576
2.31609
2.06143
1.817
1.5924
1.3917
1.20741
1.05085
0.924577
0.816913
0.722129
0.63814
0.56369
0.500613
0.451822
0.418867
0.405019
0.432912
0.6716
1.91845
0.548954
0.490472
0.442932
0.409731
0.386689
0.370803
0.360009
0.352863
0.348328
0.345689
0.344461
0.344038
0.344093
0.344903
0.345913
0.347225
0.348689
0.350313
0.352058
0.353922
0.355899
0.357992
0.360209
0.362527
0.364975
0.367596
0.370408
0.373424
0.620673
0.718645
0.87053
1.1332
1.47147
1.85455
2.25141
2.63327
2.97201
3.23875
3.40483
3.44623
3.3507
3.12899
2.8384
2.53105
2.22809
1.94405
1.6874
1.46115
1.25645
1.08517
0.949091
0.834704
0.735154
0.646389
0.569003
0.504846
0.454875
0.420649
0.405664
0.433355
0.675439
1.93335
0.627145
0.546446
0.481624
0.436695
0.405481
0.383791
0.368845
0.358716
0.352041
0.347833
0.345441
0.344355
0.344004
0.344167
0.344993
0.346031
0.347342
0.348807
0.350424
0.352162
0.354016
0.355984
0.358066
0.360241
0.362527
0.364975
0.367596
0.370408
0.373424
0.731694
0.896832
1.18256
1.55
1.96795
2.40609
2.83698
3.2342
3.57026
3.81576
3.94172
3.92583
3.76068
3.46467
3.1053
2.73985
2.38925
2.0667
1.77915
1.52831
1.30389
1.11831
0.972652
0.851723
0.745929
0.653419
0.574845
0.509513
0.458259
0.422647
0.406424
0.433894
0.67955
1.94982
0.743245
0.62397
0.533849
0.472941
0.430755
0.401387
0.380981
0.366946
0.357468
0.351251
0.347363
0.345211
0.344263
0.343976
0.344251
0.345083
0.346148
0.347456
0.348923
0.350532
0.352264
0.354108
0.356066
0.358103
0.360241
0.362527
0.364975
0.367596
0.370408
0.373421
0.922296
1.22947
1.62386
2.07388
2.54992
3.02566
3.47648
3.87714
4.19974
4.41368
4.48963
4.40781
4.16669
3.79296
3.3638
2.94073
2.5437
2.18412
1.86706
1.59277
1.34951
1.15014
0.99522
0.865823
0.755118
0.661152
0.581278
0.514666
0.462017
0.424898
0.407309
0.434557
0.684258
1.96755
0.739357
0.944696
0.605255
0.521752
0.464671
0.425026
0.397411
0.378251
0.365108
0.356264
0.350495
0.346922
0.345006
0.344184
0.343959
0.344338
0.345173
0.346264
0.347568
0.349037
0.350638
0.352363
0.354197
0.356107
0.358103
0.360241
0.362527
0.364975
0.367596
0.370398
0.373413
1.2737
1.69291
2.17234
2.68294
3.19926
3.69824
4.15717
4.55109
4.8508
5.02387
5.04092
4.88582
4.56406
4.1107
3.61192
3.13247
2.69069
2.29578
1.95076
1.6543
1.39314
1.18059
1.01393
0.877858
0.765234
0.66967
0.588372
0.520363
0.466198
0.427434
0.408357
0.435328
0.689293
1.98718
0.709867
0.940895
1.31182
0.58785
0.510274
0.456684
0.419459
0.393546
0.375605
0.363333
0.355109
0.349778
0.346515
0.344824
0.344121
0.343955
0.344427
0.345265
0.346377
0.347679
0.349147
0.350741
0.352459
0.354241
0.356108
0.358103
0.360241
0.362527
0.364975
0.36758
0.370377
0.373406
1.75708
2.26347
2.80543
3.35815
3.89976
4.40989
4.86708
5.24576
5.51433
5.63813
5.58847
5.35426
4.94883
4.41546
3.84828
3.31433
2.82979
2.4014
2.03005
1.71272
1.43469
1.2058
1.02991
0.891119
0.776385
0.679066
0.596206
0.526672
0.47086
0.430306
0.409579
0.43618
0.695111
2.0082
0.682792
0.893866
1.30832
1.81181
0.571616
0.499179
0.448919
0.414043
0.389795
0.373046
0.361624
0.354004
0.349104
0.346151
0.344669
0.344073
0.343962
0.344515
0.345358
0.346488
0.347788
0.349255
0.350842
0.352507
0.354241
0.356108
0.358103
0.360241
0.362527
0.364952
0.367546
0.370355
0.373398
2.34744
2.9179
3.50305
4.08193
4.63606
5.14737
5.59502
5.95151
6.18172
6.24867
6.12568
5.80818
5.31782
4.70546
4.07203
3.48591
2.96079
2.50088
2.10483
1.76797
1.46891
1.22728
1.0475
0.905745
0.788693
0.689447
0.604872
0.533673
0.476069
0.433557
0.411031
0.437186
0.701347
2.0315
0.657941
0.849416
1.24001
1.80961
2.41839
0.556089
0.488378
0.441366
0.408784
0.386164
0.370578
0.359986
0.35296
0.348491
0.345831
0.344536
0.344039
0.343982
0.344601
0.345454
0.346596
0.347895
0.349361
0.350892
0.352507
0.354241
0.356108
0.358103
0.360241
0.362499
0.364907
0.367511
0.370333
0.37339
3.02073
3.63489
4.24606
4.83727
5.39337
5.89836
6.33077
6.65947
6.8448
6.84816
6.64661
6.24341
5.66856
4.97951
4.28266
3.64705
3.0837
2.59425
2.17513
1.81318
1.49798
1.25091
1.06691
0.921898
0.802296
0.700932
0.614476
0.541456
0.481901
0.437262
0.412727
0.438323
0.708583
2.05625
0.63467
0.807802
1.17279
1.72252
2.41842
3.10699
0.541067
0.477866
0.434036
0.403692
0.382662
0.368209
0.358432
0.352003
0.347944
0.345552
0.344423
0.344016
0.344016
0.344684
0.34555
0.346702
0.348001
0.349413
0.350891
0.352508
0.354241
0.356108
0.358104
0.360209
0.362443
0.364861
0.367476
0.37031
0.373382
3.75441
4.39368
5.0157
5.60765
6.158
6.65184
7.06519
7.36141
7.49585
7.42977
7.146
6.6566
5.99935
5.23692
4.48003
3.79785
3.19869
2.68163
2.23235
1.85142
1.52982
1.2769
1.08832
0.939756
0.817353
0.713661
0.625137
0.550126
0.48845
0.441478
0.41475
0.439677
0.716424
2.08373
0.612642
0.768631
1.10716
1.63506
2.31501
3.10981
3.85346
0.526497
0.467662
0.426945
0.398779
0.379296
0.365958
0.357002
0.351144
0.347455
0.345312
0.344328
0.343997
0.344067
0.344763
0.345647
0.346808
0.348054
0.349413
0.350891
0.352508
0.354242
0.356109
0.358067
0.360143
0.362386
0.364813
0.367439
0.370287
0.373374
4.52604
5.17375
5.79356
6.37782
6.9179
7.39837
7.79023
8.04967
8.12758
7.98729
7.61948
7.0453
6.3091
5.47742
4.66425
3.93856
3.30598
2.75247
2.28057
1.8931
1.56468
1.30549
1.11196
0.959519
0.834041
0.727792
0.636997
0.559806
0.495819
0.446316
0.417123
0.441259
0.725465
2.11256
0.591704
0.731776
1.04292
1.54768
2.21019
2.992
3.85831
4.63365
0.51238
0.457794
0.420107
0.394056
0.376096
0.363883
0.355714
0.350371
0.347015
0.345104
0.344247
0.343974
0.344127
0.344843
0.34575
0.346859
0.348052
0.349413
0.350892
0.352509
0.354243
0.356068
0.357992
0.360075
0.362327
0.364764
0.367402
0.370263
0.373365
5.31335
5.95468
6.56271
7.13444
7.66314
8.13013
8.4987
8.71703
8.73312
8.51526
8.06363
7.40786
6.5973
5.7011
4.83564
4.0695
3.39271
2.81203
2.33295
1.93853
1.60285
1.33694
1.13808
0.98141
0.85256
0.743504
0.650214
0.570638
0.504139
0.451857
0.419972
0.443141
0.735498
2.15015
0.571771
0.697273
0.980184
1.45997
2.10437
2.8724
3.72742
4.63827
5.42354
0.498737
0.44829
0.413541
0.389569
0.373146
0.36201
0.354552
0.349676
0.346624
0.344926
0.34418
0.343957
0.344196
0.34493
0.3458
0.346856
0.348053
0.349414
0.350893
0.352509
0.354199
0.355985
0.357916
0.360006
0.362266
0.364714
0.367363
0.370238
0.373356
6.09386
6.71785
7.30834
7.86682
8.38604
8.84054
9.184
9.35655
9.3061
9.00915
8.47602
7.74341
6.86402
5.90838
4.99465
4.17508
3.46549
2.87655
2.3898
1.98799
1.64461
1.37154
1.16692
1.00567
0.873135
0.761003
0.664978
0.58279
0.513555
0.458262
0.423335
0.445424
0.748888
2.19502
0.552777
0.665179
0.919382
1.37182
1.99701
2.7512
3.59508
4.49466
5.42411
6.19995
0.485597
0.43918
0.407308
0.385432
0.370482
0.36032
0.353506
0.349053
0.346278
0.344772
0.344123
0.343952
0.344279
0.344968
0.345798
0.346857
0.348054
0.349415
0.350895
0.352462
0.354109
0.355899
0.357837
0.359935
0.362204
0.364662
0.367324
0.370213
0.373347
6.84733
7.44681
8.01874
8.56734
9.08049
9.52404
9.83992
9.96143
9.84088
9.46549
8.85522
8.05186
7.10972
6.09982
5.12244
4.26352
3.54418
2.94639
2.45146
2.0418
1.69026
1.40957
1.19878
1.03257
0.896015
0.78052
0.681499
0.59646
0.524255
0.465652
0.427404
0.448645
0.765997
2.23998
0.534673
0.635496
0.861102
1.28346
1.8877
2.62775
3.4612
4.35084
5.26685
6.19176
6.94111
0.472998
0.430551
0.401568
0.381699
0.368077
0.358795
0.352563
0.348495
0.345972
0.344637
0.344083
0.343977
0.34432
0.344957
0.3458
0.346858
0.348055
0.349417
0.350845
0.352365
0.354017
0.355812
0.357757
0.359862
0.36214
0.364609
0.367283
0.370187
0.373337
7.55555
8.12865
8.68632
9.22995
9.74195
10.1761
10.46
10.5252
10.3327
9.882
9.20087
8.33374
7.33513
6.25292
5.22923
4.35894
3.62916
3.02191
2.51827
2.10028
1.7401
1.45132
1.23395
1.0624
0.921474
0.802314
0.700026
0.611874
0.536442
0.474272
0.433156
0.453209
0.785266
2.28439
0.517428
0.608135
0.806024
1.19538
1.77629
2.50132
3.32505
4.20636
5.1118
6.01808
6.91809
7.62742
0.461066
0.422626
0.396392
0.37833
0.365906
0.357419
0.351715
0.347995
0.345701
0.344529
0.34408
0.34398
0.344313
0.344957
0.345801
0.34686
0.348059
0.349365
0.350744
0.352266
0.353922
0.355723
0.357674
0.359787
0.362075
0.364555
0.367241
0.37016
0.373328
8.20428
8.7555
9.29977
9.84157
10.3567
10.7871
11.0376
11.0414
10.778
10.2578
9.51346
8.58999
7.51411
6.3804
5.34412
4.46175
3.72085
3.10348
2.59054
2.16372
1.79444
1.4971
1.27273
1.09544
0.949803
0.826671
0.720827
0.629305
0.550396
0.486165
0.441285
0.458635
0.806931
2.32772
0.501142
0.582934
0.754812
1.10833
1.6629
2.3714
3.18565
4.06048
4.95798
5.85067
6.72409
7.58187
8.244
0.45012
0.4155
0.391727
0.375291
0.363947
0.356179
0.35095
0.347545
0.345472
0.344474
0.344068
0.343955
0.344318
0.344959
0.345802
0.346867
0.348008
0.349259
0.350641
0.352164
0.353826
0.355631
0.357589
0.359711
0.362008
0.364499
0.367198
0.370133
0.373318
8.7831
9.31567
9.85957
10.4103
10.9267
11.3482
11.5644
11.5049
11.1749
10.5932
9.79417
8.79139
7.6623
6.51694
5.4675
4.57235
3.81959
3.19144
2.6686
2.23244
1.85355
1.5472
1.31542
1.13201
0.981309
0.853893
0.744229
0.649061
0.569354
0.502245
0.450968
0.465716
0.830106
2.36967
0.486199
0.559828
0.708033
1.02327
1.54781
2.23765
3.04208
3.91201
4.80465
5.68766
6.54196
7.36318
8.1628
8.78284
0.440301
0.409094
0.387524
0.372551
0.36218
0.355057
0.350259
0.347158
0.345326
0.344434
0.344037
0.343957
0.344319
0.344963
0.34581
0.346817
0.347902
0.349152
0.350536
0.35206
0.353727
0.355537
0.357502
0.359633
0.361939
0.364442
0.367155
0.370106
0.373309
9.28888
9.81021
10.365
10.9373
11.4577
11.8572
12.0336
11.9125
11.5233
10.8894
10.0117
8.95687
7.82001
6.66283
5.5997
4.69109
3.92576
3.28612
2.75275
2.30668
1.91771
1.60189
1.36228
1.1724
1.01629
0.884316
0.770537
0.67565
0.594309
0.520703
0.462714
0.473546
0.857344
2.40956
0.472768
0.539092
0.666194
0.9414
1.43152
2.09994
2.89352
3.75964
4.65047
5.52824
6.36877
7.16302
7.91628
8.64345
9.22635
0.431506
0.403335
0.383739
0.370081
0.360581
0.354041
0.349657
0.346886
0.345231
0.344389
0.344041
0.34396
0.344319
0.344982
0.345762
0.346711
0.347795
0.349042
0.350429
0.351954
0.353625
0.355441
0.357413
0.359552
0.361868
0.364384
0.367111
0.37008
0.3733
9.70828
10.2326
10.8133
11.417
11.9435
12.3081
12.4394
12.2632
11.8244
11.1147
10.1886
9.13135
7.98721
6.8182
5.74097
4.81827
4.03963
3.38778
2.84323
2.3867
1.98712
1.66138
1.41358
1.21688
1.05506
0.918209
0.805637
0.709994
0.622185
0.541951
0.476584
0.484189
0.885929
2.44718
0.46072
0.520666
0.630173
0.864803
1.31493
1.9583
2.73927
3.60209
4.49382
5.37088
6.20356
6.97775
7.69464
8.36723
9.01818
9.56631
0.423633
0.39816
0.380332
0.367848
0.359131
0.353151
0.349214
0.346723
0.345165
0.344395
0.344044
0.343967
0.344335
0.344948
0.345661
0.346606
0.347688
0.34893
0.350319
0.351846
0.353521
0.355343
0.357321
0.35947
0.361796
0.364327
0.367069
0.370055
0.373291
10.0375
10.5816
11.2058
11.8473
12.3742
12.6918
12.7764
12.5576
12.0469
11.2949
10.3726
9.31428
8.16364
6.98304
5.89144
4.95409
4.16143
3.49665
2.94024
2.47265
2.06195
1.72585
1.46949
1.26565
1.09782
0.962947
0.850134
0.747483
0.653197
0.566186
0.49363
0.495513
0.919847
2.48181
0.449937
0.504156
0.59991
0.796698
1.20014
1.81302
2.57872
3.43803
4.33299
5.21373
6.04452
6.80609
7.49489
8.12116
8.70515
9.2779
9.79736
0.416588
0.393508
0.377257
0.365824
0.357858
0.352479
0.348957
0.346633
0.345172
0.344399
0.34405
0.344004
0.344298
0.344863
0.345565
0.346499
0.34758
0.348816
0.350206
0.351735
0.353414
0.355243
0.357227
0.359386
0.361724
0.364271
0.367028
0.370031
0.373283
10.2722
10.8584
11.5446
12.2233
12.7371
12.9993
13.0404
12.7657
12.2209
11.4789
10.5625
9.50475
8.34876
7.15711
6.05108
5.09861
4.29129
3.61285
3.04389
2.56462
2.14226
1.79538
1.53012
1.31882
1.15358
1.01855
0.89761
0.78802
0.687342
0.59392
0.513565
0.51103
0.955868
2.51327
0.44031
0.489303
0.574252
0.738489
1.09182
1.66578
2.41146
3.26612
4.16606
5.05473
5.8896
6.64585
7.31548
7.90463
8.43085
8.92191
9.41156
9.91003
0.410283
0.389319
0.374475
0.364043
0.356876
0.352093
0.348836
0.346644
0.345177
0.344405
0.344096
0.34401
0.344218
0.344785
0.345473
0.346391
0.34747
0.348699
0.350091
0.351622
0.353304
0.35514
0.357132
0.359303
0.361655
0.364217
0.366989
0.370007
0.373275
10.4089
11.0668
11.8289
12.5307
13.0177
13.2266
13.2071
12.9217
12.3931
11.6642
10.7563
9.7014
8.54168
7.33989
6.21963
5.25175
4.42919
3.73639
3.15418
2.66259
2.22804
1.86995
1.59542
1.38727
1.22153
1.07656
0.947608
0.831277
0.724667
0.625003
0.537773
0.528149
0.997598
2.54111
0.43173
0.475934
0.552194
0.689697
0.99334
1.52161
2.23854
3.08508
3.99097
4.8915
5.73646
6.49469
7.15368
7.71598
8.19553
8.61531
9.01017
9.40658
9.89297
0.404626
0.385539
0.372024
0.36265
0.356319
0.351933
0.348851
0.346651
0.345186
0.344467
0.344119
0.343992
0.344154
0.344708
0.345382
0.34628
0.347358
0.348581
0.349973
0.351507
0.353192
0.355035
0.357037
0.359222
0.361588
0.364164
0.36695
0.369984
0.373267
10.4471
11.2108
12.0417
12.7495
13.1967
13.3538
13.3181
13.0662
12.5604
11.8478
10.9517