/*--------------------------------*- C++ -*----------------------------------*\
  =========                 |
  \\      /  F ield         | OpenFOAM: The Open Source CFD Toolbox
   \\    /   O peration     | Website:  https://openfoam.org
    \\  /    A nd           | Version:  8
     \\/     M anipulation  |
\*---------------------------------------------------------------------------*/
FoamFile
{
    version     2.0;
    format      ascii;
    class       volScalarField;
    location    "0.35";
    object      p;
}
// * * * * * * * * * * * * * * * * * * * * * * * * * * * * * * * * * * * * * //

dimensions      [0 2 -2 0 0 0 0];

internalField   nonuniform List<scalar> 
15677
(
70.8704
70.4645
70.1271
70.6188
70.1258
70.0601
70.5386
70.1448
70.0697
69.9912
70.5191
70.1449
70.0703
69.9999
69.8892
70.5009
70.1481
70.0707
69.9993
69.8968
69.7818
70.4781
70.1509
70.0709
69.9998
69.8969
69.7885
69.6606
70.4534
70.1527
70.0707
70
69.8976
69.7886
69.6665
69.5149
70.4277
70.1539
70.0701
69.9997
69.8983
69.7894
69.6667
69.52
69.3377
70.401
70.1546
70.0691
69.9991
69.8989
69.7902
69.6675
69.5203
69.3422
69.1225
70.3732
70.1552
70.0678
69.9983
69.8994
69.7909
69.6684
69.5212
69.3426
69.1262
68.8613
70.3445
70.1554
70.0664
69.9976
69.9001
69.7918
69.6693
69.5223
69.3437
69.1268
68.8643
68.5459
70.3148
70.1547
70.0651
69.997
69.901
69.7929
69.6705
69.5235
69.345
69.1281
68.865
68.5481
68.1679
70.2842
70.1532
70.0641
69.9967
69.9022
69.7944
69.6721
69.5252
69.3467
69.1298
68.8666
68.549
68.1694
67.7193
70.2563
70.1513
70.0636
69.9968
69.9042
69.7968
69.6744
69.5275
69.3489
69.1319
68.8687
68.551
68.1704
67.7197
67.1919
70.2325
70.149
70.064
69.9975
69.9073
69.8003
69.6779
69.531
69.3522
69.135
68.8715
68.5536
68.1728
67.7211
67.1913
66.5783
70.2123
70.1466
70.0651
69.999
69.9116
69.8054
69.6831
69.536
69.357
69.1394
68.8756
68.5572
68.176
67.7238
67.1929
66.5766
65.8721
70.1957
70.1439
70.0668
70.0015
69.9175
69.8127
69.6906
69.5435
69.3641
69.1459
68.8814
68.5624
68.1807
67.7278
67.1961
66.5784
65.8691
65.0676
70.1819
70.1407
70.0688
70.0046
69.9247
69.8227
69.7012
69.5542
69.3744
69.1555
68.89
68.5701
68.1874
67.7337
67.201
66.5821
65.8711
65.0632
64.1608
70.1705
70.1372
70.071
70.0085
69.9325
69.8348
69.7157
69.5692
69.3891
69.1694
68.9027
68.5813
68.1972
67.7421
67.2082
66.588
65.8754
65.0655
64.1549
63.149
70.1611
70.1339
70.0733
70.0131
69.9411
69.848
69.7333
69.5896
69.4098
69.1892
68.921
68.5977
68.2115
67.7544
67.2186
66.5967
65.8823
65.0704
64.1574
63.1414
62.0313
70.1538
70.1309
70.0757
70.0184
69.9506
69.8624
69.7526
69.6145
69.4379
69.2168
68.9471
68.6215
68.2324
67.7723
67.2337
66.6094
65.8927
65.0784
64.1629
63.1442
62.0219
60.8087
70.1483
70.1285
70.0783
70.0242
69.9607
69.8778
69.7736
69.6416
69.4721
69.2546
68.9835
68.6552
68.2626
67.7985
67.2559
66.6277
65.9078
65.0905
64.1721
63.1502
62.0249
60.7974
59.4845
70.1442
70.1267
70.081
70.0306
69.9714
69.8943
69.7963
69.6713
69.5093
69.3005
69.0332
68.7023
68.3055
67.8363
67.2881
66.6545
65.9296
65.1082
64.186
63.1605
62.0314
60.8005
59.4711
58.0639
70.141
70.1255
70.0835
70.037
69.9827
69.9115
69.8204
69.7032
69.5501
69.3505
69.0937
68.7667
68.3654
67.8901
67.3347
66.6936
65.9616
65.1337
64.2062
63.1762
62.0428
60.8075
59.4743
58.0484
56.5589
70.1387
70.1246
70.0858
70.0431
69.9938
69.9294
69.8456
69.7371
69.594
69.4054
69.1598
68.845
68.4474
67.965
67.4008
66.75
66.0081
65.1711
64.2356
63.199
62.0601
60.8198
59.4815
58.0513
56.5396
54.9978
70.1368
70.1241
70.0879
70.0487
70.0042
69.9469
69.8718
69.7726
69.6406
69.4645
69.2322
68.9307
68.5473
68.0677
67.4932
66.8302
66.0753
65.2256
64.2786
63.2321
62.0853
60.8385
59.4943
58.0583
56.5402
54.9377
53.3245
70.1354
70.1238
70.0899
70.0538
70.0137
69.9631
69.8975
69.8095
69.6894
69.5272
69.3102
69.0247
68.6566
68.1931
67.6199
66.9423
66.171
65.3045
64.3414
63.2807
62.122
60.8658
59.514
58.0711
56.5457
54.9437
53.2555
51.5235
70.1343
70.1236
70.0917
70.0585
70.0223
69.9777
69.9211
69.8456
69.74
69.593
69.3932
69.1261
68.7768
68.3305
67.7748
67.0963
66.305
65.4169
64.4324
63.3519
62.176
60.9056
59.5428
58.091
56.5569
54.9464
53.2609
51.4984
49.6653
70.1334
70.1235
70.0934
70.0626
70.03
69.9909
69.9425
69.8789
69.7897
69.6611
69.4801
69.234
68.9065
68.4817
67.9449
67.285
66.4894
65.5747
64.5626
63.4554
62.2554
60.9644
59.585
58.1203
56.5754
54.9546
53.2563
51.4879
49.6552
47.7611
70.1327
70.1236
70.0949
70.0664
70.0369
70.0028
69.9618
69.909
69.8354
69.7281
69.5704
69.3472
69.0446
68.6451
68.1324
67.4924
66.7158
65.7924
64.7457
63.6039
62.3712
61.0514
59.6478
58.1638
56.6036
54.9705
53.2624
51.4794
49.6394
47.7552
45.6119
70.1322
70.1236
70.0963
70.0697
70.0431
70.0133
69.979
69.936
69.8767
69.7897
69.659
69.4648
69.1897
68.8194
68.3354
67.7216
66.9654
66.0604
64.9991
63.8134
62.538
61.179
59.7413
58.2291
56.6466
54.9964
53.277
51.4863
49.6314
47.7375
45.6092
43.1928
70.1317
70.1237
70.0975
70.0728
70.0486
70.0228
69.9944
69.9602
69.9139
69.8454
69.7406
69.5803
69.3406
69.0028
68.5522
67.9702
67.2416
66.3564
65.3118
64.1041
62.7742
61.3635
59.8794
58.3277
56.7128
55.0376
53.3012
51.5009
49.6396
47.7307
45.5926
43.1921
40.7585
70.1314
70.1238
70.0986
70.0755
70.0536
70.0312
70.0081
69.9818
69.9471
69.8954
69.8145
69.6868
69.4891
69.1936
68.7806
68.2361
67.542
66.6849
65.6583
64.4641
63.103
61.6259
60.0804
58.4747
56.8146
55.1033
53.3407
51.5242
49.6545
47.7385
45.5857
43.1769
40.7594
38.3384
70.1311
70.1239
70.0996
70.0779
70.058
70.0387
70.0203
70.0011
69.9768
69.9403
69.8809
69.7832
69.626
69.3817
69.0189
68.517
67.8639
67.0429
66.0437
64.8641
63.512
61.993
60.368
58.6905
56.9685
55.2065
53.4053
51.5626
49.6776
47.753
45.5909
43.1695
40.7459
38.3395
35.9555
70.124
70.1308
70.1005
70.0801
70.0619
70.0453
70.0311
70.0182
70.0032
69.9803
69.9403
69.8699
69.75
69.5554
69.254
68.8104
68.2046
67.4275
66.4649
65.3105
63.9679
62.4515
60.7724
59.0013
57.1968
55.3652
53.5089
51.6262
49.7151
47.7754
45.6034
43.1718
40.7381
38.3271
35.9564
33.625
70.1012
70.1242
70.1305
70.0821
70.0653
70.0512
70.0408
70.0334
70.0267
70.0159
69.9934
69.9476
69.8618
69.7129
69.4714
69.1006
68.5614
67.8357
66.9187
65.7998
64.4783
62.9646
61.2798
59.4409
57.5282
55.6035
53.6708
51.7296
49.7773
47.8112
45.6233
43.1812
40.7374
38.3182
35.9445
33.6254
31.3583
70.0838
70.1023
70.1245
70.1303
70.0684
70.0565
70.0493
70.0469
70.0475
70.0475
70.0407
70.017
69.9619
69.855
69.6689
69.3693
68.9151
68.2642
67.4016
66.3286
65.0398
63.541
61.85
59.9954
58
55.9524
53.9166
51.8931
49.8794
47.8708
45.6555
43.1966
40.743
38.3141
35.9341
33.6137
31.358
29.1654
70.0711
70.0862
70.1038
70.1248
70.1302
70.0611
70.0569
70.0589
70.066
70.0756
70.0827
70.0788
70.0514
69.9824
69.8472
69.6139
69.2434
68.6902
67.9101
66.8932
65.6486
64.1774
62.4932
60.6215
58.5987
56.4527
54.2797
52.1438
50.0426
47.9697
45.71
43.2223
40.7528
38.3149
35.9262
33.6015
31.3464
29.1642
27.0543
70.0652
70.0747
70.089
70.1052
70.1251
70.1301
70.0636
70.0695
70.0825
70.1006
70.12
70.1338
70.1311
70.0963
70.0073
69.835
69.5427
69.0865
68.4171
67.4896
66.3008
64.87
63.206
61.3306
59.2779
57.0916
54.804
52.5172
50.2951
48.1298
45.8028
43.2682
40.7701
38.3177
35.9212
33.5894
31.3321
29.1525
27.0522
25.031
70.0695
70.0705
70.0789
70.0918
70.1068
70.1254
70.13
70.0789
70.0971
70.1228
70.1531
70.1826
70.2021
70.1979
70.1506
70.0339
69.8138
69.4487
68.8902
68.0862
66.9923
65.6148
63.9847
62.1196
60.0506
57.8198
55.4777
53.0604
50.6744
48.3805
45.9562
43.3504
40.8049
38.3252
35.9158
33.5781
31.3156
29.1359
27.0403
25.0282
23.0995
70.0871
70.077
70.0765
70.0831
70.0945
70.1083
70.1258
70.1301
70.11
70.1425
70.1826
70.226
70.2652
70.2884
70.2785
70.212
70.058
69.7774
69.3236
68.6446
67.6866
66.4074
64.8255
62.9853
60.914
58.652
56.2495
53.7627
51.2305
48.761
46.2006
43.4914
40.8729
38.3466
35.9118
33.5635
31.2975
29.1149
27.0213
25.0159
23.0959
21.262
70.1211
70.0974
70.0852
70.0824
70.0872
70.0973
70.1098
70.1262
70.1302
70.1599
70.2087
70.2645
70.3212
70.3688
70.3924
70.3712
70.2771
70.074
69.7179
69.1578
68.3387
67.2066
65.7242
63.9239
61.8653
59.5861
57.1356
54.5712
51.9539
49.3232
46.5766
43.7224
40.9969
38.3973
35.9176
33.5466
31.2729
29.0897
26.9958
24.9945
23.0833
21.2577
19.5193
70.1749
70.1351
70.1083
70.0933
70.0883
70.0913
70.1
70.1114
70.1266
70.1304
70.2319
70.2988
70.3709
70.4402
70.4938
70.5132
70.4731
70.3405
70.0743
69.6257
68.9398
67.96
66.6342
64.9316
62.9017
60.6201
58.1348
55.5038
52.7909
50.0592
47.1375
44.085
41.2084
38.5002
35.9484
33.5351
31.2422
29.0547
26.9633
24.9644
23.0594
21.2446
19.5142
17.8709
70.2517
70.1934
70.1493
70.119
70.1013
70.0941
70.0953
70.1027
70.1129
70.127
70.1306
70.3291
70.4153
70.5038
70.584
70.6396
70.648
70.5793
70.3953
70.0498
69.4895
68.657
67.4956
65.9568
64.0196
61.7518
59.2462
56.5607
53.7614
50.9155
47.8776
44.6327
41.5488
38.6866
36.0267
33.5437
31.212
29.0094
26.9177
24.9246
23.0248
21.2183
19.5008
17.8652
16.3155
70.355
70.2761
70.2117
70.1633
70.1296
70.1091
70.0997
70.0993
70.1053
70.1145
70.1274
70.1309
70.4545
70.5604
70.6642
70.7521
70.804
70.7928
70.6833
70.4325
69.9891
69.2964
68.2954
66.9316
65.1625
62.9787
60.4688
57.7423
54.8669
51.9137
48.7445
45.3629
42.0711
38.9967
36.183
33.5945
31.1969
28.9599
26.8574
24.8682
22.9778
21.1793
19.4721
17.8514
16.3091
14.8508
70.4878
70.3866
70.2994
70.2297
70.177
70.1398
70.1166
70.1052
70.1031
70.1079
70.1161
70.1279
70.1312
70.6105
70.7357
70.8522
70.9429
70.9832
70.9412
70.7766
70.441
69.8791
69.0317
67.8402
66.2541
64.2395
61.801
59.0487
56.1093
53.057
49.7615
46.2254
42.7758
39.4818
36.4552
33.7161
31.2178
28.9199
26.7879
24.7928
22.9105
21.1251
19.4288
17.8203
16.2949
14.8438
13.4741
70.653
70.5286
70.4161
70.3222
70.2472
70.1902
70.1497
70.1239
70.1105
70.1068
70.1104
70.1177
70.1284
70.1316
70.7989
70.9415
71.0666
71.153
71.1716
71.0851
70.8481
70.4076
69.7049
68.6798
67.2761
65.4497
63.1776
60.4801
57.4902
54.3486
50.9332
47.2449
43.6167
40.1468
36.893
33.9442
31.3012
28.9093
26.7225
24.7033
22.8201
21.0472
19.3677
17.7729
16.2615
14.8293
13.4666
12.182
70.8524
70.705
70.5654
70.4447
70.3444
70.2641
70.2028
70.1592
70.1309
70.1156
70.1104
70.1128
70.1192
70.129
70.132
71.0205
71.1771
71.3045
71.3773
71.3613
71.2139
70.8848
70.3171
69.45
68.2241
66.5878
64.5056
61.9675
59.0118
55.7924
52.2651
48.4277
44.6184
40.949
37.5047
34.3254
31.4797
28.9515
26.6792
24.6123
22.7108
20.942
19.2794
17.7051
16.2103
14.7937
13.4518
12.174
10.9711
71.0871
70.9181
70.7508
70.6012
70.4726
70.3656
70.2801
70.2149
70.1682
70.1376
70.1205
70.1138
70.1151
70.1208
70.1295
70.1324
71.2747
71.4398
71.561
71.6081
71.5419
71.3146
70.8714
70.1525
69.0968
67.6478
65.7603
63.4101
60.6025
57.3926
53.7633
49.7818
45.7893
41.9128
38.2521
34.8716
31.7968
29.0764
26.6782
24.5354
22.5942
20.8133
19.1597
17.6067
16.136
14.7389
13.414
12.1589
10.9626
9.83762
71.3569
71.1697
70.9748
70.7952
70.636
70.4991
70.3856
70.2951
70.2262
70.1767
70.144
70.1251
70.1171
70.1173
70.1222
70.1301
70.1328
71.5592
71.7251
71.8288
71.8354
71.7005
71.3717
70.7904
69.8955
68.6272
66.9339
64.7798
62.1538
59.0756
55.435
51.3164
47.1399
43.0481
39.158
35.5488
32.2665
29.323
26.7464
24.4901
22.4835
20.6714
19.0121
17.4731
16.0279
14.6583
13.3558
12.1191
10.9472
9.82865
8.77776
71.6597
71.4598
71.2394
71.0297
70.8383
70.6688
70.5239
70.4043
70.3093
70.2368
70.1847
70.1499
70.1295
70.1202
70.1192
70.1235
70.1306
70.1333
71.87
72.0263
72.0984
72.0467
71.8219
71.3675
70.6228
69.5265
68.0226
66.0666
63.634
60.7262
57.2056
53.0425
48.6826
44.3674
40.2332
36.3773
32.8592
29.7066
26.9176
24.4995
22.3934
20.5272
18.8457
17.3074
15.881
14.541
13.2693
12.0577
10.9055
9.81296
8.7682
7.78759
71.9916
71.7872
71.5452
71.307
71.0828
70.8788
70.6994
70.5469
70.4217
70.3223
70.2467
70.1921
70.1554
70.1335
70.1229
70.1209
70.1247
70.1312
70.1337
72.2002
72.3339
72.3574
72.2266
71.8881
71.2826
70.348
69.0257
67.265
65.0309
62.3094
58.9543
54.8862
50.4306
45.8841
41.49
37.3666
33.591
30.202
27.207
24.5917
22.343
20.3922
18.6684
17.117
15.6979
14.3815
13.1433
11.9656
10.8412
9.76952
8.75216
7.77685
6.86454
72.3462
72.1486
71.8916
71.6282
71.3721
71.1324
70.9161
70.7275
70.5681
70.4376
70.3343
70.2557
70.1988
70.1603
70.137
70.1254
70.1225
70.1258
70.1317
70.1342
72.541
72.6358
72.5904
72.357
71.8791
71.0953
69.945
68.3732
66.337
63.8106
60.6422
56.7201
52.3095
47.6111
42.9408
38.5278
34.4695
30.8197
27.5941
24.7806
22.3534
20.2817
18.4891
16.9076
15.4844
14.1818
12.9718
11.8313
10.7438
9.70252
8.7071
7.76063
6.84989
6.10073
72.7144
72.5385
72.2759
71.9932
71.708
71.4328
71.178
70.9503
70.753
70.5872
70.4519
70.345
70.2637
70.2047
70.1646
70.1401
70.1275
70.124
70.1268
70.1323
70.1346
72.8801
72.9169
72.7795
72.4177
71.7727
70.7836
69.3919
67.5493
65.2204
62.2508
58.4983
54.1854
49.4751
44.599
39.873
35.5043
31.5653
28.0834
25.051
22.4376
20.209
18.3188
16.6848
15.2439
13.9461
12.7563
11.6486
10.6018
9.60023
8.63777
7.71431
6.83469
6.09403
5.45747
73.0845
72.949
72.6935
72.4001
72.0908
71.782
71.4882
71.2193
70.9811
70.7759
70.6042
70.4646
70.3545
70.2706
70.2097
70.1682
70.1427
70.1293
70.1253
70.1278
70.1328
70.1351
73.2025
73.1591
72.9041
72.3857
71.5457
70.3239
68.6675
66.5338
63.7667
60.1966
56.0085
51.3451
46.402
41.4214
36.7111
32.4492
28.6791
25.4012
22.5857
20.1863
18.1629
16.4558
14.9791
13.6757
12.4996
11.4183
10.4085
9.45095
8.53089
7.64302
6.78736
6.08456
5.46091
4.78229
73.4411
73.3692
73.1374
72.8452
72.5192
72.1809
71.8493
71.5382
71.2563
71.0083
70.7959
70.619
70.4754
70.3623
70.2763
70.2138
70.1713
70.1451
70.131
70.1265
70.1287
70.1333
70.1355
73.49
73.3416
72.9409
72.237
71.173
69.6935
67.7489
65.1816
61.7987
57.7556
53.178
48.2349
43.1323
38.1203
33.4932
29.394
25.8353
22.7902
20.2091
18.0328
16.2174
14.6927
13.3704
12.2006
11.1415
10.1642
9.24776
8.37489
7.53189
6.71454
6.03639
5.45333
4.78236
4.05619
73.7658
73.7853
73.5977
73.3224
72.9905
72.6289
72.2625
71.9095
71.5824
71.2885
71.0317
70.813
70.6313
70.4842
70.3686
70.2808
70.2172
70.1739
70.1471
70.1325
70.1276
70.1296
70.1339
70.136
73.7214
73.4408
72.865
71.9454
70.6307
68.8661
66.4918
63.2963
59.4146
54.9587
50.0668
44.9124
39.7171
34.7408
30.2571
26.3685
23.0554
20.2648
17.9299
15.9813
14.3737
13.0284
11.8565
10.8154
9.86849
8.9904
8.16246
7.36965
6.59946
5.96288
5.40549
4.77088
4.05012
3.26382
74.0369
74.1802
74.0618
73.8232
73.4994
73.1239
72.7278
72.3351
71.9624
71.6206
71.316
71.0513
70.8268
70.6409
70.4909
70.3734
70.2844
70.22
70.176
70.1487
70.1337
70.1286
70.1303
70.1345
70.1366
73.8723
73.4309
72.6491
71.4852
69.8883
67.6973
64.6874
60.9802
56.6779
51.886
46.7386
41.4289
36.2018
31.3232
27.0364
23.3984
20.3574
17.8365
15.7542
14.0342
12.6315
11.4611
10.4344
9.51654
8.67677
7.89281
7.1486
6.43144
5.84449
5.33103
4.72264
4.03374
3.25454
2.40056
74.2293
74.5338
74.5138
74.3361
74.0386
73.6617
73.244
72.8157
72.3986
72.0078
71.6526
71.3383
71.0667
70.8371
70.6478
70.4958
70.3769
70.2871
70.2221
70.1778
70.1501
70.1348
70.1295
70.1311
70.1351
70.1371
73.916
73.2839
72.2661
70.8221
68.8009
65.9728
62.4502
58.3272
53.6774
48.5945
43.2344
37.8218
32.6232
27.9018
23.8597
20.5052
17.7559
15.5135
13.6859
12.1921
10.9893
9.98801
9.10058
8.30052
7.56232
6.86743
6.20232
5.6718
5.20987
4.64653
3.98393
3.23572
2.39005
1.46399
74.315
74.8226
74.9349
74.8468
74.5981
74.2361
73.8076
73.3502
72.892
72.4525
72.0452
71.6781
71.3553
71.0775
70.8441
70.6524
70.499
70.3793
70.289
70.2237
70.1791
70.1513
70.1358
70.1305
70.1319
70.1358
70.1377
73.823
72.9707
71.6781
69.8109
67.156
63.8235
59.898
55.4231
50.4553
45.1103
39.5797
34.1204
29.0131
24.5065
20.7514
17.7066
15.2617
13.3017
11.7269
10.4545
9.44493
8.60584
7.85155
7.16322
6.52113
5.91039
5.43611
5.03325
4.52228
3.90521
3.1842
2.37053
1.45278
0.449447
74.2626
75.0209
75.3026
75.3379
75.165
74.8382
74.4134
73.9364
73.4422
72.9563
72.4964
72.0744
71.6968
71.3666
71.0842
70.848
70.6549
70.5008
70.3807
70.2903
70.2248
70.1801
70.1522
70.1369
70.1314
70.1326
70.1365
70.1383
73.5612
72.4502
70.7394
68.2463
65.1
61.3819
57.1053
52.2932
47.0235
41.4475
35.7952
30.3519
25.4009
21.1636
17.7319
15.016
12.8826
11.2044
9.87746
8.81939
7.99534
7.31111
6.68321
6.10059
5.54927
5.1354
4.7921
4.34134
3.77738
3.10224
2.31756
1.43269
0.437648
-0.649316
74.0362
75.1003
75.592
75.7888
75.7233
75.4567
75.0539
74.57
74.0477
73.5193
73.0081
72.5301
72.095
71.7084
71.3726
71.0871
70.8493
70.6555
70.5013
70.3811
70.2908
70.2254
70.1808
70.1535
70.1381
70.1323
70.1333
70.1372
70.1389
73.0861
71.5755
69.2567
66.2868
62.7729
58.7076
54.0817
48.938
43.3865
37.6186
31.9026
26.5435
21.8139
17.896
14.8171
12.4432
10.6233
9.22248
8.13607
7.28408
6.63715
6.09981
5.59147
5.10866
4.76226
4.48395
4.09427
3.59161
2.97039
2.23233
1.37828
0.4167
-0.661556
-1.83885
73.5857
75.0294
75.7749
76.1757
76.2543
76.0772
75.719
75.2445
74.705
74.1407
73.5811
73.0472
72.553
72.1068
71.7134
71.374
71.0867
70.8484
70.6546
70.5007
70.3808
70.2907
70.2256
70.1822
70.1549
70.1391
70.1331
70.134
70.1379
70.1395
72.248
70.1697
67.3962
64.074
60.2184
55.798
50.8206
45.3555
39.5501
33.6393
27.9261
22.7234
18.2783
14.7234
12.0198
9.99494
8.48611
7.35538
6.50044
5.84532
5.36635
4.96781
4.57231
4.30535
4.10069
3.77806
3.33806
2.77924
2.09617
1.28987
0.360684
-0.683585
-1.85131
-3.12569
74.7638
72.7622
75.819
76.4721
76.7358
76.6825
76.3961
75.9512
75.4089
74.8178
74.2148
73.6271
73.0731
72.5649
72.1104
71.7127
71.3713
71.0836
70.8454
70.6522
70.499
70.3796
70.2899
70.227
70.184
70.1562
70.14
70.1338
70.1346
70.1386
70.1401
70.8874
68.4027
65.2966
61.6381
57.4252
52.6419
47.3152
41.5456
35.5238
29.5295
23.893
18.9201
14.818
11.6621
9.34921
7.67491
6.47101
5.60109
4.96744
4.49906
4.17876
3.91105
3.74692
3.63007
3.38385
3.01311
2.51859
1.89911
1.1492
0.26907
-0.741187
-1.87429
-3.1382
-4.5166
75.6828
74.1652
71.4137
76.6467
77.1431
77.2524
77.0696
76.679
76.1519
75.5463
74.9075
74.2695
73.6567
73.0854
72.567
72.1071
71.7071
71.3652
71.078
70.8407
70.6485
70.4963
70.3775
70.2913
70.2293
70.1856
70.1572
70.1407
70.1343
70.1351
70.1392
70.1406
69.1813
66.4082
62.9778
58.9611
54.3798
49.2302
43.5613
37.5121
31.3219
25.3136
19.8331
15.1622
11.4545
8.72539
6.81134
5.48434
4.57657
3.95666
3.53303
3.24104
3.07022
3.05527
3.05312
2.89842
2.60702
2.18414
1.63072
0.945748
0.123605
-0.836111
-1.93358
-3.16187
-4.52917
-6.01851
76.6602
75.2501
73.1071
69.7352
77.4469
77.7637
77.721
77.4141
76.9243
76.3199
75.6557
74.9736
74.3043
73.6699
73.0857
72.5606
72.0978
71.6972
71.3561
71.0703
70.8344
70.6433
70.4929
70.3787
70.2942
70.2312
70.1867
70.1579
70.1412
70.1349
70.1355
70.1398
70.1412
67.2582
64.1985
60.417
56.0289
51.072
45.556
39.558
33.2629
26.9635
21.0204
15.7783
11.4768
8.20661
5.92299
4.40944
3.42264
2.80008
2.41801
2.19283
2.06693
2.1727
2.33595
2.30141
2.10557
1.76517
1.28596
0.668978
-0.086725
-0.986727
-2.03205
-3.22312
-4.55354
-6.03115
-7.63829
77.6106
76.4136
74.3718
71.7301
67.8509
78.1895
78.3289
78.1396
77.714
77.1305
76.4543
75.7365
75.0154
74.3191
73.6684
73.0757
72.5468
72.0833
71.6838
71.3445
71.0605
70.8261
70.6373
70.4919
70.3824
70.2965
70.2325
70.1874
70.1583
70.1418
70.1353
70.1358
70.1404
70.1419
65.1242
61.7469
57.6002
52.8315
47.4942
41.615
35.307
28.8104
22.4733
16.6823
11.7608
7.88923
5.08964
3.26148
2.14457
1.48773
1.13756
0.980614
0.942312
1.11662
1.41842
1.55664
1.48688
1.24639
0.853047
0.313043
-0.372534
-1.20444
-2.18821
-3.32541
-4.61677
-6.05629
-7.65094
-9.38245
78.4967
77.5549
75.7576
73.1778
70.1392
65.7632
78.8687
78.8363
78.5059
77.9673
77.2962
76.5541
75.7879
75.0329
74.316
73.6543
73.0567
72.5268
72.0646
71.6673
71.3304
71.0484
70.8168
70.6371
70.4969
70.3851
70.298
70.2331
70.1877
70.159
70.1423
70.1356
70.1362
70.1411
70.1425
62.7474
59.0402
54.5189
49.3616
43.6404
37.4043
30.8132
24.1716
17.8807
12.3346
7.81239
4.42168
2.11522
0.744724
0.0159014
-0.32406
-0.415633
-0.360306
-0.0694885
0.318134
0.601293
0.712318
0.604287
0.315578
-0.134939
-0.740555
-1.49997
-2.41383
-3.48752
-4.72305
-6.12149
-7.67684
-9.39503
-11.2572
79.3112
78.6274
77.1313
74.7909
71.7746
68.3498
63.4346
79.4814
79.2827
78.8173
78.1725
77.4207
76.6186
75.8099
75.0288
74.2978
73.6296
73.0303
72.5017
72.0422
71.6478
71.3134
71.0351
70.8152
70.6433
70.5004
70.3868
70.2986
70.2333
70.1886
70.1597
70.1427
70.1359
70.1365
70.1418
70.1433
60.1158
56.0721
51.1672
45.6132
39.5045
32.9217
26.084
19.369
13.2201
8.01415
3.96288
1.09253
-0.708254
-1.62582
-1.97939
-2.01723
-1.86448
-1.44495
-0.919408
-0.54678
-0.283813
-0.202367
-0.35178
-0.692547
-1.20477
-1.88103
-2.7198
-3.72158
-4.8915
-6.23187
-7.74398
-9.4216
-11.2693
-13.2686
80.0498
79.622
78.4319
76.4038
73.6174
70.1977
66.3264
60.8526
80.0235
79.6648
79.0717
78.3284
77.5026
76.6475
75.8058
75.0065
74.2667
73.5959
72.9977
72.4722
72.0162
71.6248
71.2951
71.0322
70.824
70.6473
70.5023
70.3872
70.2986
70.2345
70.1897
70.1603
70.143
70.1361
70.1368
70.1425
70.144
57.2253
52.8395
47.5408
41.5793
35.0794
28.1647
21.1307
14.4311
8.53069
3.75806
0.238831
-2.08351
-3.37557
-3.85134
-3.84531
-3.59688
-3.03628
-2.35577
-1.83981
-1.48337
-1.24237
-1.19294
-1.38707
-1.78401
-2.36267
-3.11485
-4.03871
-5.13454
-6.407
-7.85861
-9.49056
-11.2961
-13.2782
-15.8011
80.7072
80.5334
79.6499
77.9407
75.4688
72.2908
68.4127
64.0566
58.0145
80.4912
79.98
79.2676
78.4335
77.5418
76.6451
75.7798
74.9686
74.2249
73.5548
72.96
72.4385
71.9858
71.6002
71.2907
71.0422
70.8285
70.6493
70.5026
70.3869
70.3001
70.2364
70.1908
70.1607
70.1431
70.1363
70.137
70.1432
70.1448
54.0752
49.3401
43.6334
37.2504
30.3543
23.1313
15.9705
9.39358
3.85431
-0.398265
-3.3368
-5.09567
-5.88503
-5.93472
-5.58678
-4.87456
-4.02005
-3.3418
-2.83609
-2.49724
-2.28003
-2.26524
-2.50768
-2.96509
-3.61514
-4.44876
-5.46355
-6.65953
-8.04078
-9.60956
-11.3668
-13.305
-15.8137
-18.7914
81.2782
81.3542
80.7806
79.3912
77.2409
74.3953
70.7799
66.4029
61.5423
54.9212
80.8809
80.2263
79.4031
78.4874
77.5433
76.6161
75.7351
74.9179
74.1741
73.5076
72.9173
72.3995
71.9539
71.5939
71.3022
71.0475
70.8306
70.6492
70.5019
70.389
70.3031
70.2381
70.1915
70.1609
70.1431
70.1363
70.1372
70.1439
70.1457
50.6654
45.5704
39.436
32.6105
25.3153
17.824
10.6291
4.2987
-0.765577
-4.42189
-6.74541
-7.93767
-8.23742
-7.88029
-6.99565
-5.94696
-5.08466
-4.4087
-3.91404
-3.59423
-3.40277
-3.42542
-3.7199
-4.24227
-4.96889
-5.88954
-7.00113
-8.30328
-9.79909
-11.4903
-13.3768
-15.8457
-18.8071
-21.803
81.7585
82.0762
81.8155
80.7513
78.9219
76.4148
73.1567
69.0643
64.17
58.7908
51.575
81.19
80.4011
79.4774
78.496
77.5129
76.5649
75.675
74.8567
74.1163
73.4545
72.8682
72.3587
71.945
71.6075
71.3087
71.0499
70.8302
70.6479
70.505
70.3936
70.3059
70.2394
70.1919
70.1608
70.143
70.1363
70.1373
70.1447
70.1466
46.9951
41.524
34.9326
27.6386
19.952
12.2557
5.1435
-0.804983
-5.28523
-8.28377
-9.97381
-10.6068
-10.4358
-9.45475
-8.17793
-7.10709
-6.23617
-5.56249
-5.07965
-4.78041
-4.61681
-4.6798
-5.03022
-5.62223
-6.43066
-7.44397
-8.65812
-10.072
-11.6876
-13.5048
-15.9221
-18.8421
-21.8154
-24.7898
82.1448
82.6926
82.7447
82.0119
80.5084
78.3368
75.4423
71.7278
67.1449
61.7242
55.8122
47.9774
81.4149
80.5031
79.4973
78.4663
77.4558
76.4951
75.6023
74.7869
74.0514
73.3938
72.817
72.3467
71.9613
71.6155
71.3114
71.0491
70.828
70.652
70.5117
70.3979
70.3081
70.2402
70.1919
70.1605
70.1426
70.1361
70.1374
70.1455
70.1476
43.0608
37.1892
30.0982
22.3079
14.2533
6.44761
-0.43827
-5.86389
-9.66276
-11.9608
-13.0135
-13.1035
-12.2154
-10.7758
-9.45646
-8.36147
-7.48089
-6.80936
-6.33914
-6.06209
-5.92847
-6.03482
-6.44522
-7.11162
-8.00712
-9.1186
-10.4407
-11.9714
-13.7101
-16.058
-18.9246
-21.8477
-24.8001
-27.7237
82.4326
83.1976
83.5582
83.1618
81.9915
80.1574
77.6253
74.2923
70.1075
65.033
59.0812
52.6174
44.1279
81.5535
80.5399
79.4714
78.4045
77.3765
76.4104
75.5195
74.7089
73.9776
73.3307
72.8014
72.366
71.9707
71.6184
71.31
71.046
70.8335
70.6614
70.5181
70.4014
70.3097
70.2406
70.1916
70.1599
70.1421
70.1357
70.1374
70.1463
70.1487
38.8541
32.5388
24.8906
16.5776
8.2068
0.428313
-6.0588
-10.8221
-13.8612
-15.4354
-15.8609
-15.1254
-13.7079
-12.2039
-10.8384
-9.71677
-8.82523
-8.15567
-7.69887
-7.44558
-7.34414
-7.49697
-7.97142
-8.71692
-9.70464
-10.9194
-12.3544
-14.0052
-16.2742
-19.0704
-21.9303
-24.8316
-27.7328
-30.5866
82.6183
83.5845
84.2466
84.1896
83.3598
81.867
79.7012
76.7491
72.9599
68.3072
62.7473
56.2602
49.2175
40.0249
81.6144
80.5218
79.407
78.3163
77.2792
76.3136
75.4271
74.6203
73.9009
73.3109
72.8241
72.3771
71.974
71.6163
71.3057
71.0533
70.8465
70.6706
70.5234
70.4042
70.3107
70.2405
70.1909
70.1589
70.1413
70.1353
70.1374
70.1471
70.1497
34.354
27.5303
19.2525
10.4025
1.81218
-5.75762
-11.6522
-15.6253
-17.8495
-18.6967
-18.1678
-16.8205
-15.3204
-13.7467
-12.3306
-11.1796
-10.2757
-9.60786
-9.16514
-8.93716
-8.87014
-9.07254
-9.61506
-10.4443
-11.529
-12.8517
-14.4029
-16.5836
-19.2999
-22.0806
-24.9143
-27.765
-30.5945
-33.3579
82.7117
83.8473
84.7976
85.0839
84.6016
83.4538
81.6593
79.0946
75.6974
71.4553
66.3463
60.3111
53.2813
45.6253
35.6586
81.6095
80.4576
79.3108
78.2065
77.1677
76.2056
75.3222
74.5285
73.8762
73.3376
72.8372
72.3807
71.9709
71.6104
71.3152
71.0708
70.8592
70.6783
70.5278
70.4061
70.311
70.2399
70.1898
70.1576
70.1402
70.1346
70.1373
70.1478
70.1508
29.5284
22.1093
13.1154
3.74435
-4.90956
-12.0452
-17.1468
-20.222
-21.6042
-21.3409
-20.1007
-18.6506
-17.0611
-15.4114
-13.9399
-12.7565
-11.8387
-11.1722
-10.7441
-10.5429
-10.5125
-10.7674
-11.3819
-12.299
-13.485
-14.9189
-16.9991
-19.6257
-22.3191
-25.0678
-27.8489
-30.6273
-33.3645
-36.0142
82.7267
83.9967
85.1978
85.828
85.7043
84.9051
83.4861
81.3182
78.3184
74.4776
69.7979
64.2501
57.7493
50.1643
41.849
31.0077
81.5496
80.3554
79.189
78.0798
77.0429
76.0828
75.2135
74.4982
73.9075
73.3528
72.8411
72.3766
71.9631
71.6226
71.3383
71.088
70.8701
70.6848
70.5311
70.4072
70.3106
70.2386
70.1881
70.156
70.1389
70.1339
70.1371
70.1486
70.1519
24.33
16.1945
6.392
-3.42002
-11.9129
-18.3516
-22.4676
-24.5683
-24.6519
-23.555
-22.1856
-20.6241
-18.9371
-17.2047
-15.6728
-14.4538
-13.5203
-12.8545
-12.4415
-12.2685
-12.2767
-12.587
-13.2768
-14.2855
-15.5757
-17.5372
-20.0603
-22.6571
-25.3128
-28.0062
-30.7118
-33.3973
-36.0193
-38.5316
82.6761
84.0499
85.455
86.4006
86.6475
86.2082
85.1667
83.406
80.814
77.3755
73.1078
68.0133
62.046
55.0868
46.9298
37.8903
26.0406
81.4441
80.2225
79.0468
77.9374
76.901
75.9555
75.1771
74.5347
73.9251
73.3571
72.8357
72.3665
71.9784
71.6524
71.3609
71.1029
70.8794
70.69
70.5333
70.4073
70.3093
70.2366
70.1859
70.1539
70.1374
70.133
70.1369
70.1493
70.1531
18.6869
9.66449
-1.0242
-11.0898
-19.1265
-24.5723
-27.5419
-28.1014
-27.2014
-25.9403
-24.4305
-22.7475
-20.9546
-19.1326
-17.5353
-16.2774
-15.3262
-14.6603
-14.2627
-14.1189
-14.1673
-14.5354
-15.3033
-16.4061
-18.221
-20.6205
-23.1058
-25.6589
-28.257
-30.872
-33.4815
-36.0517
-38.5352
-40.8883
82.571
84.0224
85.5882
86.805
87.4027
87.3408
86.6857
85.3418
83.1717
80.143
76.2812
71.6129
66.1303
59.7624
52.3493
43.6006
33.7515
20.7142
81.3017
80.0653
78.8862
77.7749
76.7534
75.9123
75.2194
74.555
73.9298
73.3502
72.8228
72.3856
72.0164
71.6818
71.3808
71.1158
70.8872
70.6939
70.5343
70.4063
70.3071
70.2338
70.1831
70.1515
70.1357
70.132
70.1367
70.15
70.1542
12.4896
2.33058
-9.24932
-19.2278
-26.4356
-30.5777
-31.6883
-31.0521
-29.9417
-28.5034
-26.8406
-25.0256
-23.1184
-21.2003
-19.5323
-18.232
-17.2611
-16.5942
-16.2117
-16.0978
-16.1878
-16.6153
-17.4632
-19.086
-21.3307
-23.6817
-26.1163
-28.6087
-31.1268
-33.643
-36.1345
-38.5669
-40.8905
-43.0651
82.422
83.9282
85.6161
87.0595
87.9693
88.2688
88.0168
87.1076
85.3761
82.7707
79.3162
75.0587
70.0217
64.1788
57.4277
49.5648
40.1996
29.4333
14.9655
81.1303
79.8863
78.7023
77.6057
76.7028
75.9613
75.2427
74.56
73.9212
73.334
72.8463
72.433
72.0537
71.7076
71.3983
71.1269
70.8932
70.6961
70.5338
70.404
70.3039
70.2302
70.1797
70.1488
70.1338
70.131
70.1364
70.1507
70.1554
5.55405
-6.10488
-18.3721
-27.7316
-33.6317
-35.5081
-35.1534
-34.2163
-32.8757
-31.246
-29.4179
-27.4612
-25.432
-23.4112
-21.6677
-20.3215
-19.3286
-18.6593
-18.2915
-18.2077
-18.3398
-18.8276
-20.1882
-22.2286
-24.4102
-26.7012
-29.0703
-31.481
-33.8988
-36.2955
-38.6475
-40.9209
-43.0655
-45.0454
82.238
83.7798
85.5562
87.182
88.3654
88.9895
89.1186
88.6711
87.4086
85.2457
82.2079
78.3542
73.7363
68.3643
62.1886
55.0712
46.7613
36.7495
24.9447
8.7119
80.9331
79.6801
78.5099
77.547
76.7592
75.9878
75.2481
74.5494
73.9012
73.3625
72.9048
72.4797
72.0866
71.7306
71.4134
71.1358
70.8972
70.6964
70.5316
70.4003
70.2995
70.2259
70.1759
70.1458
70.1318
70.1298
70.1361
70.1514
70.1565
-2.43562
-16.1171
-28.4128
-36.2761
-39.6011
-39.6161
-38.8564
-37.5953
-35.9995
-34.1649
-32.1613
-30.0543
-27.8962
-25.7672
-23.9435
-22.548
-21.5306
-20.8573
-20.5031
-20.4486
-20.6228
-21.6126
-23.3741
-25.3315
-27.4398
-29.6579
-31.942
-34.251
-36.549
-38.8059
-40.9982
-43.0941
-45.0436
-46.8122
82.0235
83.5884
85.425
87.1907
88.6092
89.5222
89.9861
89.9797
89.2326
87.5515
84.9478
81.5
77.2838
72.3438
66.6707
60.1891
52.7201
43.9705
33.2861
20.3321
1.84256
80.7043
79.4636
78.4427
77.6118
76.7894
75.9936
75.2352
74.525
73.9354
73.4337
72.9623
72.5211
72.1162
71.7508
71.4259
71.142
70.8988
70.6946
70.5276
70.3951
70.294
70.2209
70.1717
70.1426
70.1296
70.1286
70.1357
70.1521
70.1577
-12.1704
-28.5088
-38.8169
-43.6145
-44.5279
-43.9614
-42.7771
-41.1762
-39.3034
-37.252
-35.0655
-32.8017
-30.5092
-28.2674
-26.3595
-24.9114
-23.8669
-23.1875
-22.845
-22.8186
-23.489
-24.8565
-26.5082
-28.3746
-30.3988
-32.526
-34.7059
-36.8947
-39.0538
-41.1519
-43.167
-45.0692
-46.8118
-48.3619
81.7726
83.3588
85.2369
87.1038
88.7183
89.8859
90.6416
91.021
90.7838
89.6495
87.5232
84.4933
80.6714
76.1342
70.9108
64.9699
58.2066
50.4048
41.2382
29.8503
15.6902
-5.83292
80.4628
79.3874
78.5167
77.6459
76.7955
75.9782
75.2057
74.5655
74.0208
73.5035
73.0135
72.5585
72.1424
71.7676
71.4352
71.1454
70.8977
70.6905
70.5217
70.3885
70.2877
70.2153
70.1672
70.1392
70.1272
70.1274
70.1353
70.1527
70.1589
-25.2036
-42.569
-48.8115
-49.8814
-49.7155
-48.5013
-46.8729
-44.9304
-42.7719
-40.4934
-38.1206
-35.696
-33.2657
-30.9078
-28.9125
-27.4089
-26.3345
-25.6462
-25.3131
-25.7841
-26.8113
-28.0335
-29.5707