/*--------------------------------*- C++ -*----------------------------------*\
  =========                 |
  \\      /  F ield         | OpenFOAM: The Open Source CFD Toolbox
   \\    /   O peration     | Website:  https://openfoam.org
    \\  /    A nd           | Version:  8
     \\/     M anipulation  |
\*---------------------------------------------------------------------------*/
FoamFile
{
    version     2.0;
    format      ascii;
    class       volScalarField;
    location    "0.33";
    object      epsilon;
}
// * * * * * * * * * * * * * * * * * * * * * * * * * * * * * * * * * * * * * //

dimensions      [0 2 -3 0 0 0 0];

internalField   nonuniform List<scalar> 
15677
(
59.7306
18.3648
52.6867
8.08407
26.0243
50.2336
4.62255
13.3235
31.6516
50.5416
3.17425
7.74894
17.1255
37.3293
51.6359
2.48706
5.05406
10.0469
20.8485
42.676
53.6771
2.14428
3.62761
6.47194
12.1807
24.5662
47.6732
55.7372
1.97933
2.82279
4.52921
7.73331
14.2897
28.2644
52.0282
57.6698
1.91149
2.3534
3.40362
5.31449
8.92325
16.4311
31.7592
55.707
59.3706
1.88406
2.0803
2.72392
3.9111
6.02533
10.1099
18.5373
34.9518
58.7262
60.8698
1.8705
1.93936
2.30726
3.05625
4.35949
6.70931
11.2743
20.5648
37.7689
61.2008
62.139
1.86763
1.87828
2.05645
2.52133
3.34855
4.77725
7.36368
12.4152
22.4528
40.2269
63.1944
63.251
1.86862
1.84884
1.91653
2.1861
2.71257
3.61545
5.1655
7.99954
13.5003
24.1926
42.3194
64.8193
64.1816
1.86953
1.83871
1.85191
1.98262
2.30678
2.88636
3.85803
5.53503
8.60205
14.5282
25.7516
44.1047
66.124
65.0169
1.86977
1.83699
1.82113
1.86773
2.05127
2.41803
3.0426
4.08405
5.87971
9.17527
15.4747
27.1459
45.592
67.1794
65.7455
1.86976
1.83726
1.81052
1.81335
1.89812
2.11738
2.51838
3.18599
4.29119
6.20455
9.7055
16.3462
28.3591
46.8437
68.0419
66.3899
1.86972
1.83753
1.80822
1.78981
1.8154
1.93026
2.17848
2.61004
3.31562
4.4835
6.50253
10.1976
17.1239
29.415
47.8799
68.7438
66.9794
1.86968
1.83763
1.80791
1.78279
1.77572
1.82149
1.9622
2.23491
2.69241
3.4343
4.65774
6.77751
10.6399
17.819
30.3098
48.7267
69.3437
67.4828
1.86967
1.83765
1.80792
1.78108
1.76149
1.76618
1.83167
1.99294
2.28587
2.76714
3.54059
4.81676
7.02318
11.0393
18.4183
31.0628
49.422
69.8185
67.9912
1.86966
1.83765
1.80793
1.78076
1.75701
1.74399
1.76039
1.84307
2.02134
2.33208
2.83359
3.63652
4.95732
7.24421
11.3851
18.9354
31.6793
49.964
70.2648
68.3893
1.86966
1.83764
1.80792
1.78071
1.75573
1.73597
1.72956
1.75743
1.85441
2.04747
2.37315
2.89304
3.72051
5.08249
7.4344
11.6861
19.3599
32.1741
50.4107
70.595
68.8623
1.86965
1.83763
1.80789
1.7807
1.75541
1.73327
1.71736
1.71809
1.75587
1.86558
2.07098
2.4098
2.94485
3.79455
5.18921
7.59937
11.9326
19.7098
32.5588
50.7297
70.9636
69.18
1.86966
1.83763
1.80788
1.78068
1.75532
1.73243
1.71274
1.70142
1.70855
1.75584
1.87603
2.09208
2.44177
2.99024
3.85733
5.28092
7.73355
12.137
19.9741
32.8443
50.9996
71.2075
69.6495
1.86966
1.83762
1.80786
1.78065
1.75527
1.73217
1.71111
1.69462
1.68736
1.70099
1.75619
1.88568
2.11072
2.46987
3.02884
3.91098
5.35511
7.84393
12.2888
20.178
33.0457
51.1666
71.5539
69.9104
1.86966
1.83762
1.80786
1.78063
1.75523
1.73207
1.71055
1.69201
1.67812
1.6755
1.69477
1.75701
1.89463
2.12739
2.49407
3.06193
3.95462
5.41572
7.92591
12.4065
20.3067
33.1699
51.3106
71.7541
70.3806
1.86966
1.83761
1.80785
1.78061
1.7552
1.732
1.71034
1.69103
1.67431
1.6639
1.66508
1.68982
1.7586
1.90303
2.14218
2.5153
3.08964
3.99082
5.46142
7.98806
12.4761
20.3923
33.2394
51.3991
72.1423
70.6321
1.86966
1.83761
1.80785
1.78059
1.75517
1.73195
1.71023
1.69065
1.6728
1.65886
1.65095
1.65665
1.68629
1.76062
1.91114
2.15594
2.53403
3.11345
4.01916
5.49597
8.02587
12.5232
20.4159
33.2421
51.449
72.4373
430.989
1.86967
1.8376
1.80785
1.78058
1.75515
1.7319
1.71015
1.69046
1.67219
1.65673
1.64453
1.64045
1.6495
1.68381
1.76375
1.91962
2.16899
2.55121
3.1338
4.04239
5.51978
8.05053
12.5288
20.4052
33.2251
51.5463
88.6721
724.657
1.86967
1.8376
1.80784
1.78056
1.75513
1.73187
1.71009
1.69034
1.6719
1.65582
1.64173
1.63281
1.63093
1.64467
1.68391
1.76823
1.92881
2.18242
2.56781
3.15271
4.06151
5.53673
8.0573
12.5198
20.3756
33.1869
52.4257
121.902
1014.72
1.86967
1.8376
1.80785
1.78055
1.75512
1.73184
1.71004
1.69026
1.67173
1.65538
1.64051
1.62929
1.62198
1.62472
1.64147
1.68545
1.77451
1.93973
2.19704
2.58524
3.17108
4.07858
5.5478
8.05497
12.4984
20.3193
33.1931
54.9011
157.782
1274.09
1.86968
1.83759
1.80785
1.78054
1.75511
1.73181
1.71
1.69019
1.67161
1.65513
1.63992
1.62766
1.61781
1.61471
1.61916
1.64208
1.68937
1.78352
1.95315
2.21409
2.60437
3.19059
4.09494
5.55575
8.04893
12.4615
20.26
33.2626
59.3994
190.941
1516.75
1.86968
1.83759
1.80785
1.78054
1.7551
1.73179
1.70997
1.69013
1.67151
1.65497
1.63959
1.62685
1.61586
1.60981
1.60819
1.61916
1.64485
1.697
1.79609
1.97024
2.2345
2.62686
3.21246
4.11295
5.56374
8.03831
12.4229
20.1975
33.4775
64.0622
222.621
1726.36
1.86968
1.83758
1.80785
1.78053
1.7551
1.73177
1.70994
1.69008
1.67143
1.65484
1.63936
1.62641
1.61488
1.60741
1.60286
1.60713
1.62124
1.65107
1.7091
1.8134
1.99202
2.25986
2.65378
3.23878
4.134
5.57401
8.02957
12.3833
20.1291
33.895
68.8214
250.751
1888.86
1.86968
1.83758
1.80785
1.78052
1.75509
1.73175
1.70992
1.69003
1.67137
1.65473
1.63918
1.62612
1.61432
1.60618
1.60025
1.60109
1.60901
1.62691
1.66286
1.72677
1.8365
2.02001
2.29121
2.68696
3.27043
4.16063
5.589
8.02373
12.3448
20.0679
34.4126
73.1443
272.799
2017.69
1.86969
1.83758
1.80785
1.78051
1.75509
1.73173
1.70991
1.68999
1.67131
1.65464
1.63904
1.6259
1.61395
1.60549
1.59888
1.59808
1.60287
1.6145
1.63817
1.68087
1.75106
1.86689
2.05525
2.33023
2.72728
3.30969
4.19371
5.61054
8.02456
12.3062
20.0147
34.9129
76.4952
290.355
2123.46
1.83758
1.86972
1.80785
1.78051
1.75509
1.73171
1.70989
1.68995
1.67126
1.65456
1.63891
1.62572
1.61366
1.60505
1.59809
1.59653
1.59983
1.60834
1.62563
1.65662
1.70622
1.78362
1.90575
2.0995
2.37792
2.77669
3.35703
4.23548
5.63939
8.02889
12.2668
19.9587
35.2835
79.0595
304.659
2213.55
1.80786
1.83767
1.8698
1.7805
1.75509
1.7317
1.70988
1.68992
1.67123
1.65449
1.63881
1.62557
1.61343
1.60473
1.59757
1.59567
1.59828
1.60534
1.61953
1.64458
1.68303
1.74056
1.82557
1.95479
2.15366
2.43596
2.83572
3.41462
4.28569
5.67625
8.04003
12.2278
19.8972
35.5401
81.007
316.806
2293.03
1.7805
1.80801
1.83787
1.86987
1.75509
1.73169
1.70987
1.68989
1.6712
1.65442
1.63873
1.62545
1.61323
1.60447
1.59718
1.59512
1.59745
1.60389
1.61671
1.63904
1.67202
1.71918
1.78529
1.87883
2.0151
2.21948
2.50521
2.9063
3.48192
4.34567
5.72628
8.06264
12.1976
19.8296
35.6795
82.5315
327.349
2364.97
1.75509
1.7807
1.80833
1.83807
1.86995
1.73168
1.70987
1.68986
1.67118
1.65437
1.63866
1.62533
1.61307
1.60425
1.59686
1.59473
1.59694
1.60318
1.61549
1.63683
1.66752
1.70992
1.76664
1.8426
1.94478
2.08876
2.29765
2.58703
2.98802
3.56061
4.42283
5.7937
8.09633
12.1735
19.7542
35.7568
83.7305
336.884
2431.63
1.73167
1.75534
1.78112
1.80866
1.83828
1.87003
1.70986
1.68984
1.67116
1.65431
1.63861
1.62523
1.61293
1.60407
1.59659
1.59443
1.59658
1.60279
1.61504
1.63627
1.66641
1.70732
1.7603
1.82807
1.91411
2.02593
2.17673
2.39019
2.68148
3.08255
3.65979
4.52264
5.87388
8.13962
12.1582
19.6778
35.7545
84.729
345.566
2493.95
1.70986
1.73195
1.75586
1.78155
1.809
1.8385
1.87011
1.68982
1.67114
1.65426
1.63856
1.62513
1.61281
1.60391
1.59636
1.59417
1.59631
1.60256
1.61492
1.63643
1.66684
1.70781
1.75999
1.82538
1.90519
2.00301
2.12369
2.28156
2.49764
2.78967
3.20076
3.78642
4.63625
5.96521
8.19256
12.1498
19.601
35.7356
85.5613
353.722
2553.09
1.6898
1.71019
1.73254
1.7564
1.78199
1.80935
1.83872
1.87019
1.67113
1.65422
1.63853
1.62504
1.61271
1.60376
1.59616
1.59396
1.59609
1.60239
1.61492
1.63687
1.66803
1.71002
1.76308
1.82875
1.90714
2.00042
2.11007
2.2415
2.40407
2.62197
2.92605
3.34948
3.92719
4.7626
6.06648
8.25377
12.1512
19.5285
35.6941
86.3022
361.336
2609
1.67112
1.69014
1.71087
1.73315
1.75694
1.78244
1.8097
1.83894
1.87027
1.65418
1.6385
1.62496
1.61264
1.60363
1.59599
1.59378
1.59591
1.60227
1.61499
1.6374
1.66944
1.71297
1.76796
1.83576
1.91585
2.00941
2.11579
2.23807
2.37874
2.54735
2.77973
3.09975
3.5164
4.0824
4.89983
6.17647
8.32268
12.157
19.4617
35.6367
86.9514
368.614
2662.56
1.65414
1.6715
1.69087
1.71156
1.73378
1.75751
1.78291
1.81007
1.83918
1.87036
1.63847
1.62488
1.61258
1.60351
1.59585
1.59363
1.59576
1.60219
1.61509
1.63794
1.67087
1.71603
1.77355
1.84476
1.92844
2.02565
2.13431
2.25561
2.38833
2.53815
2.7289
2.9828
3.2965
3.7016
4.25062
5.04658
6.29385
8.39796
12.1692
19.4025
35.5748
87.5613
375.473
2713.24
1.63845
1.65452
1.6723
1.69161
1.71228
1.73443
1.75809
1.78339
1.81045
1.83942
1.87045
1.62481
1.61254
1.60339
1.59573
1.5935
1.59563
1.60212
1.6152
1.63847
1.67225
1.71898
1.7791
1.85453
1.94332
2.04628
2.16075
2.28699
2.42116
2.56552
2.74076
2.96027
3.21412
3.51658
3.90341
4.4309
5.20162
6.4174
8.47835
12.1891
19.3505
35.5166
88.116
382.075
2761.91
1.62475
1.63886
1.65532
1.67311
1.69238
1.71301
1.73509
1.75868
1.78388
1.81083
1.83966
1.87054
1.6125
1.60328
1.59564
1.59339
1.59552
1.60207
1.61531
1.63896
1.67356
1.72177
1.78442
1.8641
1.95908
2.06987
2.19248
2.32756
2.46929
2.61824
2.79311
3.00401
3.22281
3.46916
3.75877
4.12179
4.62221
5.36355
6.54556
8.56294
12.2143
19.3064
35.4626
88.656
388.3
2807.77
1.61248
1.62511
1.63972
1.65615
1.67396
1.69317
1.71377
1.73577
1.75929
1.78439
1.81122
1.83992
1.87063
1.60317
1.59557
1.59328
1.59543
1.60202
1.61542
1.63943
1.67479
1.72435
1.78945
1.87323
1.97446
2.09476
2.22824
2.37498
2.52859
2.6888
2.87372
3.09209
3.30775
3.51831
3.74704
4.01795
4.35464
4.82253
5.53074
6.67716
8.65064
12.2442
19.2691
35.4164
89.1555
394.314
2851.86
1.60307
1.61286
1.62589
1.6406
1.657
1.67482
1.69399
1.71455
1.73648
1.75991
1.78491
1.81163
1.84018
1.87073
1.59552
1.59318
1.59534
1.60199
1.61552
1.63985
1.67592
1.72674
1.79415
1.88181
1.98917
2.11922
2.26595
2.42836
2.59726
2.77385
2.97637
3.214
3.44165
3.65352
3.84607
4.04775
4.29106
4.59946
5.03054
5.70229
6.81091
8.74051
12.2779
19.2393
35.3774
89.6516
399.957
2893.14
1.59551
1.6033
1.61367
1.6267
1.64151
1.65788
1.67571
1.69483
1.71534
1.7372
1.76056
1.78545
1.81204
1.84043
1.87081
1.59307
1.59525
1.60195
1.61562
1.64025
1.67696
1.72894
1.79852
1.88982
2.00313
2.14277
2.30316
2.48521
2.67497
2.87247
3.09902
3.36559
3.61811
3.84554
4.04233
4.2053
4.3701
4.57647
4.85264
5.2451
5.87669
6.94591
8.83163
12.3148
19.2152
35.3466
90.1129
405.428
2932.84
1.59298
1.59577
1.60388
1.6145
1.62755
1.64245
1.6588
1.67663
1.6957
1.71616
1.73795
1.76121
1.786
1.81245
1.84069
1.8709
1.59516
1.60191
1.61571
1.64061
1.67792
1.73096
1.80256
1.89724
2.01629
2.16522
2.33924
2.54218
2.7586
2.98523
3.24232
3.54757
3.83672
4.09375
4.3076
4.47525
4.59502
4.71192
4.87273
5.10967
5.46358
6.05258
7.08088
8.92318
12.354
19.1977
35.3226
90.5764
410.519
2969.75
1.5951
1.5929
1.59631
1.60446
1.61537
1.62843
1.64341
1.65975
1.67757
1.6966
1.717
1.73871
1.76188
1.78654
1.81285
1.84093
1.87098
1.60187
1.61578
1.64094
1.67879
1.7328
1.80628
1.90409
2.02864
2.18641
2.37396
2.59826
2.84316
3.1085
3.40899
3.76427
4.10341
4.40462
4.65065
4.83307
4.95377
5.01423
5.07105
5.17855
5.36929
5.6835
6.22812
7.21504
9.01441
12.3951
19.1842
35.3051
91.0065
415.48
3005.31
1.60187
1.59488
1.59277
1.59688
1.60508
1.61627
1.62936
1.64441
1.66073
1.67853
1.69752
1.71787
1.7395
1.76255
1.78707
1.81323
1.84117
1.87106
1.61585
1.64124
1.67958
1.73449
1.80969
1.91041
2.04016
2.20629
2.40721
2.65287
2.92698
3.23576
3.5957
4.02333
4.4301
4.79484
5.09116
5.30328
5.42933
5.48002
5.46203
5.44546
5.4916
5.63017
5.90375
6.40312
7.3478
9.10475
12.4372
19.1766
35.2944
91.4406
420.048
3038.12
1.61597
1.6014
1.59441
1.5926
1.5975
1.60576
1.61721
1.63033
1.64543
1.66175
1.67952
1.69847
1.71875
1.74028
1.7632
1.78759
1.81361
1.84139
1.87114
1.6415
1.68028
1.73602
1.81281
1.91623
2.05086
2.22486
2.43888
2.70549
3.00936
3.3653
3.79323
4.32252
4.83585
5.29401
5.66814
5.92973
6.07147
6.10559
6.05662
5.93759
5.83325
5.80978
5.89073
6.12106
6.5766
7.47844
9.19369
12.4803
19.171
35.2875
91.8409
424.531
3069.81
1.64183
1.61508
1.60025
1.59388
1.59251
1.59817
1.60651
1.61817
1.63134
1.64647
1.6628
1.68054
1.69945
1.71962
1.74104
1.76383
1.78809
1.81397
1.84162
1.87122
1.68092
1.7374
1.81565
1.92157
2.06076
2.24214
2.46889
2.75575
3.08994
3.49612
3.99768
4.6489
5.3282
5.94984
6.44717
6.79058
6.96237
6.97737
6.87114
6.68579
6.43995
6.23252
6.13114
6.15026
6.33371
6.74715
7.60632
9.28079
12.5234
19.1711
35.2877
92.2465
428.618
3095.27
1.68161
1.6403
1.61276
1.599
1.59344
1.59253
1.59886
1.60733
1.61915
1.63241
1.64755
1.66389
1.68159
1.70042
1.72047
1.74177
1.76444
1.78858
1.81433
1.84184
1.87129
1.73866
1.81822
1.92646
2.06988
2.2582
2.49719
2.80346
3.16849
3.62682
4.20621
4.99969
5.89819
6.79615
7.52616
8.00597
8.235
8.22873
8.03934
7.73247
7.36832
6.96761
6.64128
6.45396
6.40766
6.54127
6.91376
7.73086
9.36567
12.5666
19.1724
35.29
92.6153
432.113
3116.79
1.73996
1.67931
1.6362
1.6103
1.59787
1.59311
1.59267
1.59956
1.60822
1.62016
1.63352
1.64866
1.66501
1.68262
1.70136
1.7213
1.74249
1.76504
1.78905
1.81467
1.84205
1.87137
1.82057
1.93092
2.07828
2.27311
2.52375
2.84857
3.24477
3.75585
4.41695
5.37608
6.54907
7.82448
8.96907
9.73548
10.0742
10.0567
9.75407
9.26635
8.69092
8.10259
7.51823
7.05743
6.77661
6.66163
6.74325
7.0757
7.85162
9.44803
12.6093
19.1757
35.2947
92.9393
434.979
3140.08
1.82289
1.73665
1.67274
1.63184
1.60808
1.59687
1.59284
1.593
1.60024
1.6092
1.6212
1.63468
1.6498
1.66612
1.68363
1.70228
1.72211
1.74319
1.76562
1.78951
1.81501
1.84225
1.87144
1.93505
2.08598
2.28692
2.54861
2.89114
3.3185
3.88189
4.62943
5.77945
7.28214
9.0295
10.7438
12.0655
12.7072
12.7165
12.2811
11.5437
10.6557
9.74178
8.88423
8.08855
7.4787
7.09753
6.91105
6.93924
7.23241
7.9682
9.52764
12.6513
19.1812
35.3026
93.1991
438.13
3165.59
1.93899
1.81833
1.72656
1.66586
1.62776
1.60603
1.59595
1.59253
1.59351
1.60093
1.61024
1.62228
1.63587
1.65093
1.66721
1.68462
1.70317
1.7229
1.74386
1.76619
1.78995
1.81533
1.84245
1.87147
2.09315
2.29972
2.5718
2.93126
3.38942
4.0041
4.84415
6.20967
8.09173
10.3969
12.8207
14.9221
16.2464
16.5196
15.9576
14.9054
13.5851
12.1943
10.8749
9.70651
8.67451
7.90264
7.41526
7.155
7.12886
7.38351
8.08041
9.6043
12.6923
19.1875
35.3087
93.5041
441.511
3193.36
2.09976
1.93282
1.80327
1.71612
1.6594
1.62394
1.60411
1.5951
1.5922
1.59416
1.60166
1.61134
1.62339
1.63706
1.65205
1.66826
1.68558
1.70403
1.72366
1.74452
1.76673
1.79039
1.81565
1.84255
1.87147
2.31173
2.59344
2.96903
3.45726
4.12214
5.06195
6.66451
8.96713
11.9032
15.163
18.2478
20.572
21.6248
21.2101
19.7913
17.9059
15.8526
13.8616
12.0764
10.5609
9.27141
8.32672
7.72842
7.39269
7.3118
7.5287
8.18795
9.67788
12.727
19.1935
35.3197
93.8181
445.277
3223.97
2.32258
2.09171
1.91063
1.78784
1.70631
1.65331
1.62033
1.60233
1.59433
1.59192
1.5949
1.60244
1.61248
1.62452
1.63821
1.65314
1.66928
1.68652
1.70488
1.72441
1.74516
1.76727
1.79081
1.81581
1.84255
1.87147
2.61383
3.00464
3.52193
4.23612
5.28341
7.13995
9.89508
13.5211
17.7253
21.9803
25.5965
27.865
28.2727
26.7824
24.1885
21.2449
18.313
15.6333
13.3303
11.4381
9.87428
8.74845
8.03571
7.62343
7.48783
7.66797
8.29103
9.73909
12.757
19.2013
35.33
94.196
449.317
3257.33
2.63183
2.31203
2.05934
1.88819
1.77333
1.697
1.64749
1.61693
1.60069
1.59364
1.59174
1.59571
1.60328
1.61362
1.62564
1.63934
1.65421
1.67028
1.68743
1.7057
1.72513
1.74578
1.76779
1.79102
1.81581
1.84255
1.87147
3.03847
3.58354
4.34652
5.50869
7.63069
10.8616
15.2231
20.4597
26.0449
31.2226
35.1151
36.9278
36.2206
33.2103
29.1019
24.8762
20.9296
17.4835
14.6202
12.3286
10.4782
9.16538
8.33594
7.8467
7.65679
7.80066
8.37675
9.79149
12.7904
19.2107
35.3484
94.5826
453.835
3294.2
3.06794
2.61823
2.26488
2.02705
1.86712
1.75953
1.68807
1.64193
1.61373
1.59917
1.59305
1.59168
1.59655
1.60419
1.61472
1.62675
1.64044
1.65525
1.67125
1.68832
1.70649
1.72584
1.74639
1.76804
1.79102
1.81581
1.84255
1.87147
3.64252
4.45414
5.73751
8.13076
11.8528
16.9824
23.319
30.3626
37.3305
43.2252
46.9988
47.8316
45.4538
40.4384
34.47
28.7482
23.6647
19.387
15.9305
13.2232
11.0785
9.57524
8.62811
8.06208
7.81873
7.90999
8.45005
9.84939
12.8277
19.223
35.3663
95.0552
458.686
3334.35
3.69353
3.04998
2.54948
2.2186
1.99677
1.84702
1.74623
1.67947
1.63662
1.61072
1.59777
1.59258
1.59173
1.59738
1.60514
1.6158
1.62786
1.6415
1.65628
1.67219
1.68919
1.70727
1.72652
1.74668
1.76804
1.79102
1.81581
1.84255
1.87147
4.55957
5.9675
8.63413
12.8553
18.7737
26.2576
34.8547
43.7911
52.0057
58.2598
61.3721
60.5837
55.9114
48.3858
40.2212
32.8071
26.4816
21.3202
17.2468
14.1139
11.6709
9.97605
8.91133
8.2692
7.95324
8.00299
8.53094
9.91348
12.8697
19.2375
35.3966
95.5349
464.156
3378.86
4.65197
3.67038
2.94811
2.48312
2.17526
1.96785
1.82763
1.73339
1.6712
1.63156
1.60792
1.59652
1.59223
1.59195
1.59816
1.60612
1.61684
1.62894
1.64254
1.65728
1.67311
1.69004
1.70802
1.72686
1.74668
1.76804
1.79102
1.81581
1.84255
1.87143
6.19587
9.1364
13.8572
20.5732
29.2328
39.4466
50.4767
61.25
70.4169
76.5104
78.2748
75.1232
67.4885
56.9508
46.2771
36.9994
29.346
23.2622
18.5565
14.9933
12.2517
10.3661
9.18486
8.44168
8.06825
8.10515
8.62029
9.98456
12.9167
19.2567
35.4266
96.106
470.037
3427.2
4.62112
6.39723
3.51428
2.85211
2.42109
2.13386
1.93992
1.80887
1.72101
1.66328
1.62675
1.60535
1.5954
1.59198
1.59242
1.59891
1.60712
1.61786
1.63001
1.64355
1.65825
1.674
1.69086
1.70839
1.72686
1.74668
1.76804
1.79102
1.81581
1.84245
1.87136
9.63284
14.8479
22.36
32.2055
44.0693
57.2683
70.7564
83.1499
92.8072
98.0582
97.6552
91.3219
80.0432
66.0172
52.5569
41.2737
32.2269
25.1943
19.8487
15.8553
12.8178
10.7439
9.41341
8.58939
8.19522
8.21754
8.7191
10.0635
12.97
19.2791
35.4745
96.6766
476.719
3480.93
4.36428
6.36744
10.0704
3.37227
2.7627
2.36182
2.09387
1.91288
1.79076
1.70911
1.65571
1.62217
1.60304
1.59443
1.59165
1.59304
1.59964
1.60813
1.61886
1.63106
1.64454
1.6592
1.67487
1.69127
1.70839
1.72686
1.74668
1.76804
1.79102
1.81565
1.84225
1.87129
15.8167
24.116
35.1421
48.6619
64.0602
80.3423
96.1496
109.781
119.3
122.871
119.368
108.992
93.4043
75.4599
58.9809
45.5824
35.0965
27.1007
21.1146
16.6952
13.3666
11.0603
9.60957
8.75278
8.33558
8.34139
8.82849
10.1514
13.03
19.3085
35.522
97.3712
483.914
3539.06
4.13878
5.91517
10.0589
16.6718
3.2415
2.67734
2.30463
2.05517
1.88677
1.77332
1.6977
1.6485
1.61788
1.60099
1.59362
1.59138
1.59373
1.60037
1.60914
1.61985
1.63209
1.64551
1.66013
1.6753
1.69127
1.70839
1.72686
1.74668
1.76804
1.79081
1.81533
1.84204
1.87122
25.8237
38.0145
53.1747
70.7635
89.853
109.145
126.974
141.303
149.893
150.799
143.182
127.894
107.381
85.1527
65.4737
49.8826
37.9309
28.9684
22.347
17.5089
13.8264
11.3322
9.82702
8.93379
8.49101
8.47811
8.94976
10.2494
13.0983
19.3426
35.5952
98.0631
492.16
3603.86
3.93542
5.52031
9.23677
16.7228
27.3403
3.11735
2.59508
2.24936
2.01782
1.86162
1.75658
1.68681
1.64171
1.61403
1.59925
1.59294
1.59122
1.59445
1.60112
1.61013
1.62082
1.63309
1.64646
1.66059
1.67529
1.69127
1.70839
1.72686
1.74668
1.76778
1.79038
1.815
1.84183
1.87114
40.7963
57.5678
77.3093
99.1654
121.919
143.993
163.403
177.741
184.447
181.582
168.787
147.754
121.777
94.9739
71.9662
54.1363
40.7103
30.787
23.5403
18.19
14.2216
11.634
10.0684
9.13465
8.66338
8.62931
9.08437
10.3588
13.1756
19.3872
35.6684
98.9248
501.039
3673.45
3.74577
5.16548
8.50182
15.3492
27.5515
43.2758
2.99822
2.51577
2.19608
1.98186
1.83748
1.74058
1.67652
1.63553
1.61066
1.59776
1.5924
1.59117
1.59518
1.60188
1.6111
1.62178
1.63409
1.64692
1.66059
1.67529
1.69126
1.70839
1.72686
1.74638
1.76726
1.78994
1.81466
1.84161
1.87106
61.8038
83.6461
108.191
134.308
160.54
185.047
205.481
218.982
222.696
214.85
195.813
168.278
136.396
104.81
78.3967
58.3119
43.4185
32.5479
24.5386
18.775
14.6601
11.9693
10.3368
9.35791
8.85485
8.79685
9.23402
10.4813
13.2643
19.4388
35.7778
99.7851
511.326
3751.34
3.5668
4.83692
7.83421
14.0767
25.4488
43.7878
65.5829
2.88381
2.43951
2.14488
1.94738
1.81439
1.72545
1.66711
1.63004
1.60771
1.59648
1.59199
1.59122
1.5959
1.60267
1.61205
1.62276
1.63458
1.6469
1.66059
1.67529
1.69126
1.70839
1.72651
1.74577
1.76672
1.78949
1.81432
1.84139
1.87098
89.7254
116.871
146.209
176.409
205.829
232.342
253.124
264.786
264.245
250.146
223.852
189.17
151.056
114.559
84.7132
62.3833
46.0423
34.0213
25.3958
19.4238
15.1472
12.3424
10.6357
9.60647
9.06789
8.98287
9.40065
10.6187
13.365
19.506
35.8895
100.879
522.364
3834.02
3.39767
4.53001
7.21237
12.8834
23.4667
40.778
66.57
95.1397
2.77413
2.36644
2.09586
1.91444
1.79256
1.71158
1.65869
1.62515
1.60513
1.59539
1.59171
1.59138
1.59659
1.60349
1.61304
1.62322
1.63455
1.64689
1.66058
1.67529
1.69126
1.70801
1.72582
1.74514
1.76616
1.78903
1.81396
1.84116
1.8709
125.147
157.56
191.487
225.495
257.776
285.809
306.14
314.78
308.581
286.943
252.478
210.144
165.588
124.135
90.8726
66.3292
48.2384
35.2866
26.346
20.1439
15.6889
12.7581
10.9689
9.88362
9.30532
9.18983
9.58645
10.7728
13.4815
19.5836
36.0519
101.982
535.345
3942.99
3.23802
4.24398
6.62885
11.7502
21.5712
37.9137
62.4852
96.7859
132.484
2.66928
2.29671
2.04912
1.88333
1.77254
1.69913
1.65115
1.62081
1.60289
1.59448
1.5915
1.5917
1.59729
1.60439
1.6135
1.62317
1.63455
1.64689
1.66058
1.67529
1.69085
1.70724
1.7251
1.74449
1.76559
1.78855
1.8136
1.84092
1.87081
168.303
205.727
243.935
281.471
316.297
345.312
364.231
368.459
355.089
324.674
281.274
230.939
179.851
133.465
96.8399
69.632
50.1247
36.6891
27.4003
20.9442
16.292
13.2216
11.341
10.1931
9.57037
9.42056
9.79415
10.9467
13.6142
19.6841
36.2226
103.4
551.609
4075.57
3.08747
3.97902
6.08348
10.6698
19.7341
35.1379
58.5922
91.4669
134.947
177.751
2.56944
2.23045
2.00506
1.85483
1.75456
1.68795
1.64441
1.61694
1.60098
1.59369
1.59127
1.59218
1.59807
1.6048
1.61342
1.62316
1.63455
1.64689
1.66058
1.67486
1.69001
1.70646
1.72437
1.74383
1.76501
1.78807
1.81322
1.84068
1.87072
219.079
261.138
303.334
344.192
381.285
410.663
426.991
425.196
403.078
362.761
309.848
251.331
193.727
142.492
101.831
72.4685
52.2158
38.2455
28.5715
21.8341
16.9639
13.7391
11.7568
10.5392
9.86668
9.67829
10.0262
11.1421
13.7686
19.8009
36.4627
105.144
573.264
4210.69
2.94525
3.73578
5.57807
9.64504
17.9439
32.4095
54.7925
86.4308
128.229
181.121
230.679
2.47489
2.16822
1.96478
1.82925
1.73841
1.67792
1.63837
1.61348
1.59932
1.59303
1.59113
1.59287
1.59838
1.6047
1.61341
1.62316
1.63454
1.64691
1.66011
1.67397
1.68915
1.70566
1.72362
1.74315
1.76441
1.78757
1.81284
1.84043
1.87063
277.086
323.423
369.433
413.546
452.683
481.65
493.909
484.254
451.811
400.646
337.858
271.133
207.122
150.029
106.114
75.6119
54.536
39.974
29.8734
22.8246
17.7131
14.317
12.2219
10.9266
10.1984
9.96674
10.2873
11.3649
13.9462
19.9509
36.7747
107.618
596.951
4346.56
2.81084
3.51657
5.11365
8.68493
16.2014
29.7082
51.025
81.5113
121.962
172.803
234.933
290.695
2.38649
2.1115
1.92871
1.80629
1.7239
1.66893
1.63296
1.6104
1.5979
1.59255
1.5913
1.59316
1.59818
1.6047
1.61341
1.62316
1.63455
1.64643
1.65917
1.67307
1.68828
1.70483
1.72285
1.74245
1.7638
1.78706
1.81244
1.84018
1.87054
341.782
392.2
442.096
489.632
530.587
558.067
564.365
544.796
500.542
437.832
365.02
290.198
218.275
156.487
110.856
79.0978
57.1126
41.8954
31.3217
23.9277
18.5486
14.9629
12.7424
11.3606
10.5701
10.2899
10.5777
11.618
14.1547
20.1599
37.2663
110.388
622.977
4482.01
2.68522
3.31699
4.68963
7.79343
14.5141
27.0305
47.2539
76.619
115.876
165.221
224.743
295.664
357.054
2.30638
2.06087
1.89641
1.7857
1.71089
1.66086
1.62811
1.60767
1.59678
1.59249
1.59122
1.59297
1.59815
1.6047
1.61341
1.62319
1.63405
1.64547
1.6582
1.67214
1.68738
1.70398
1.72207
1.74174
1.76317
1.78653
1.81204
1.83992
1.87045
412.636
467.251
521.487
572.857
615.286
639.681
637.598
605.914
548.574
473.893
391.109
306.018
227.809
163.622
116.107
82.9657
59.9754
44.0323
32.9339
25.1567
19.4808
15.6846
13.3251
11.847
10.9867
10.6533
10.9018
11.9063
14.4403
20.4714
37.8457
113.688
651.477
4615.2
2.5714
3.13537
4.30775
6.97155
12.898
24.3848
43.4637
71.6941
109.845
157.956
215.738
283.208
362.399
429.034
2.23528
2.01566
1.8675
1.76722
1.6992
1.65359
1.62375
1.60543
1.59626
1.59226
1.59081
1.59297
1.59815
1.60468
1.61345
1.62271
1.63304
1.64449
1.65722
1.67119
1.68646
1.70311
1.72126
1.741
1.76253
1.78599
1.81162
1.83966
1.87036
489.303
548.708
608.191
663.978
707.177
726.118
712.677
666.701
595.295
508.493
412.689
319.508
238.314
171.504
121.922
87.2585
63.1577
46.4102
34.729
26.5262
20.5206
16.4911
13.9771
12.3917
11.4538
11.062
11.265
12.2936
14.8269
20.8446
38.579
117.458
682.605
4745.01
2.47051
2.9735
3.96958
6.22492
11.372
21.7882
39.6548
66.6996
103.776
150.836
207.286
272.607
347.101
434.267
506.146
2.17216
1.9753
1.84162
1.75065
1.68868
1.64704
1.62007
1.60409
1.59574
1.59175
1.59077
1.59297
1.59815
1.60474
1.61297
1.62172
1.63202
1.64349
1.65621
1.67021
1.68552
1.70222
1.72043
1.74025
1.76187
1.78544
1.81121
1.83941
1.87027
571.867
637.317
703.505
764.266
806.684
816.755
788.563
726.309
640.197
537.055
431.042
334.321
249.878
180.207
128.362
92.0227
66.6955
49.0566
36.7281
28.052
21.6801
17.3914
14.7059
13.0013
11.9773
11.5206
11.7479
12.7947
15.2664
21.299
39.4663
121.855
717.009
4869.03
2.38133
2.83037
3.6808
5.56239
9.95459
19.2636
35.839
61.6167
97.6022
143.728
199.163
262.931
334.637
415.284
510.683
588.423
2.11608
1.93928
1.81844
1.73573
1.67917
1.64143
1.61763
1.60305
1.59506
1.59172
1.59076
1.59293
1.5983
1.6043
1.61197
1.62074
1.63098
1.64246
1.65518
1.66921
1.68456
1.70131
1.71958
1.73948
1.76119
1.7849
1.81081
1.83917
1.87019
661.187
734.83
809.793
875.584
914.162
910.769
864.218
783.999
677.291
561.303
451.132
350.563
262.594
189.808
135.488
97.3086
70.6278
52.0014
38.9539
29.7512
22.9719
18.3953
15.5193
13.6825
12.5623
12.1302
12.3617
13.3426
15.7644
21.8452
40.5519
127.008
754.492
4985.82
2.30262
2.70292
3.44293
4.99754
8.67629
16.8375
32.0379
56.4392
91.2716
136.523
191.187
253.893
323.64
400.568
486.789
591.642
676.845
2.06623
1.90712
1.79762
1.72228
1.67097
1.63752
1.61593
1.60209
1.59504
1.5917
1.59075
1.59307
1.59796
1.60338
1.611
1.61975
1.62992
1.64141
1.65413
1.66819
1.68357
1.70037
1.71871
1.73869
1.76052
1.78437
1.81043
1.83894
1.87011
759.358
844.654
930.872
1000.32
1029.83
1007.35
938.657
831.94
708.785
587.784
473.075
368.337
276.55
200.384
143.365
103.168
74.9959
55.2764
41.4304
31.6418
24.4091
19.5125
16.4251
14.4408
13.3365
12.8983
13.021
13.9372
16.3266
22.4953
41.8978
132.958
796.213
5093.01
2.2332
2.58948
3.24274
4.52727
7.56901
14.5539
28.2831
51.1733
84.7446
129.128
183.205
245.253
313.742
388.067
469.315
561.1
678.302
774.069
2.02188
1.87835
1.77887
1.71062
1.66504
1.63492
1.61467
1.60206
1.59502
1.59168
1.59107
1.59273
1.59715
1.60253
1.61001
1.61875
1.62884
1.64034
1.65306
1.66713
1.68257
1.69941
1.71783
1.73791
1.75987
1.78386
1.81005
1.83871
1.87003
870.666
972.813
1072.57
1141.36
1154.6
1105.44
1001.44
872.792
743.18
616.629
496.978
387.736
291.832
212.012
152.059
109.655
79.8426
58.915
44.1829
33.7426
26.0052
20.7529
17.4298
15.4399
14.3038
13.7129
13.7227
14.5783
16.9542
23.2799
43.5215
140.028
841.728
5188.15
2.17192
2.48889
3.071
4.13903
6.63704
12.5035
24.6415
45.8402
77.992
121.456
175.076
236.812
304.633
377.305
455.033
540.285
638.551
773.987
885.72
1.98234
1.85252
1.76258
1.702
1.66122
1.63327
1.61464
1.60204
1.59497
1.59209
1.59108
1.592
1.59643
1.60172
1.609
1.61774
1.62774
1.63924
1.65197
1.66606
1.68154
1.69843
1.71695
1.73716
1.75924
1.78337
1.80968
1.83849
1.86995
1003.1
1129.96
1243.04
1305.97
1288.43
1190.35
1055.45
917.589
780.649
647.957
522.928
408.836
308.514
224.76
161.631
116.823
85.2113
62.9509
47.237
36.0721
27.7734
22.1249
18.7484
16.6786
15.3193
14.5663
14.4622
15.2623
17.6595
24.2015
45.5355
148.278
892.932
5270.98
2.11764
2.40009
2.9211
3.81964
5.86257
10.7305
21.255
40.5164
71.0006
113.42
166.653
228.377
296.063
367.876
443.333
523.863
613.815
721.11
885.88
1023.91
1.94697
1.83008
1.75029
1.6966
1.65907
1.63326
1.61461
1.60198
1.59554
1.59224
1.59087
1.59149
1.59571
1.60093
1.60797
1.6167
1.62663
1.63811
1.65086
1.66495
1.68049
1.69747
1.7161
1.73643
1.75863
1.78289
1.80933
1.83828
1.86987
1172.67
1333.86
1466.87
1499
1408.42
1264.44
1115.33
966.675
821.383
681.873
550.997
431.699
326.654
238.688
172.138
124.721
91.1434
67.4173
50.6177
38.6489
29.7252
23.9201
20.3739
17.9692
16.3721
15.4499
15.2325
15.989
18.4385
25.3029
47.9738
158.09
947.955
5335.97
2.0694
2.32186
2.7885
3.5596
5.22558
9.22562
18.2149
35.4012
63.8285
104.944
157.779
219.745
287.792
359.474
433.67
511.079
594.833
691.831
814.32
1030.97
1212.72
1.91625
1.81291
1.74269
1.69385
1.65907
1.63322
1.61452
1.60278
1.59596
1.59226
1.59099
1.59112
1.59496
1.60015
1.60694
1.61565
1.62551
1.63696
1.64973
1.66383
1.67945
1.69653
1.71527
1.73573
1.75803
1.78242
1.80898
1.83807
1.8698
1414.51
1645.12
1760.28
1676.74
1514.65
1347.91
1181.98
1020.59
865.639
718.499
581.242
456.359
346.29
253.841
183.627
133.394
97.6768
72.3446
54.3485
41.4883
32.2739
26.1242
22.0586
19.2977
17.4504
16.3539
16.0291
16.7522
19.3061
26.5916
50.9382
169.801
1012.73
5378.41
2.02757
2.25296
2.67045
3.34566
4.70429
7.96804
15.5276
30.6494
56.7146
96.0296
148.29
210.683
279.566
351.812
425.666
501.192
580.747
669.859
779.407
931.122
1254.98
1519
1.89236
1.80253
1.73918
1.69389
1.65903
1.63309
1.61559
1.60371
1.59643
1.59271
1.59119
1.5909
1.5942
1.59939
1.60592
1.61456
1.62439
1.63577
1.64858
1.66272
1.67845
1.69563
1.71447
1.73504
1.75745
1.78197
1.80864
1.83787
1.86973
1843.99
2084.98
2025.38
1834.96
1637.43
1443.37
1257.29
1080.3
913.864
758.005
613.715
482.831
367.433
270.24
196.128
142.874
104.842
77.7588
58.4477
45.1885
35.3938
28.4011
23.7849
20.6491
18.5417
17.2695
16.8437
17.5573
20.2616
28.104
54.5515
183.64
1084.97
5406.57
1.99471
2.19372
2.56541
3.16523
4.28062
6.92654
13.1942
26.3035
49.8748
86.9081
138.089
200.932
271.095
344.6
418.986
493.728
570.579
654.155
754.061
888.684
1103.75
1701.42
2170.11
1.87805
1.79815
1.73926
1.69383
1.65885
1.63451
1.61715
1.60498
1.59751
1.59332
1.59134
1.59079
1.59344
1.59864
1.60491
1.61345
1.62326
1.63457
1.64745
1.66165
1.67747
1.69476
1.71368
1.73438
1.75689
1.78153
1.80832
1.83768
1.86969
2523.48
2513.47
2284.05
2036.08
1786.62