/*--------------------------------*- C++ -*----------------------------------*\
  =========                 |
  \\      /  F ield         | OpenFOAM: The Open Source CFD Toolbox
   \\    /   O peration     | Website:  https://openfoam.org
    \\  /    A nd           | Version:  8
     \\/     M anipulation  |
\*---------------------------------------------------------------------------*/
FoamFile
{
    version     2.0;
    format      ascii;
    class       volScalarField;
    location    "0.33";
    object      p;
}
// * * * * * * * * * * * * * * * * * * * * * * * * * * * * * * * * * * * * * //

dimensions      [0 2 -2 0 0 0 0];

internalField   nonuniform List<scalar> 
15677
(
74.5319
74.1259
73.7898
74.2802
73.7884
73.722
74.2
73.8075
73.7316
73.652
74.1805
73.8076
73.732
73.6607
73.5492
74.1623
73.8107
73.7325
73.66
73.5568
73.4406
74.1395
73.8136
73.7327
73.6605
73.5568
73.4472
73.3178
74.1147
73.8154
73.7324
73.6606
73.5575
73.4473
73.3236
73.1702
74.089
73.8165
73.7317
73.6603
73.5582
73.448
73.3238
73.1753
72.991
74.0622
73.8174
73.7307
73.6597
73.5586
73.4487
73.3245
73.1755
72.9953
72.7732
74.0343
73.8182
73.7294
73.6589
73.559
73.4494
73.3253
73.1764
72.9957
72.7768
72.509
74.0056
73.8185
73.728
73.6581
73.5595
73.4501
73.3262
73.1774
72.9968
72.7773
72.5119
72.1902
73.9763
73.8179
73.7267
73.6574
73.5603
73.4511
73.3272
73.1785
72.998
72.7786
72.5126
72.1922
71.8082
73.9462
73.8163
73.7257
73.6571
73.5615
73.4525
73.3287
73.1801
72.9995
72.7802
72.5142
72.1931
71.8095
71.3548
73.9189
73.814
73.7253
73.6572
73.5635
73.4547
73.3309
73.1822
73.0017
72.7822
72.5161
72.195
71.8103
71.355
70.8219
73.8957
73.8113
73.7256
73.6579
73.5665
73.4582
73.3342
73.1855
73.0048
72.7851
72.5189
72.1976
71.8128
71.3564
70.8211
70.2019
73.8757
73.8087
73.7268
73.6595
73.5709
73.4633
73.3393
73.1904
73.0094
72.7894
72.5227
72.2011
71.816
71.3591
70.8226
70.2
69.4881
73.8589
73.806
73.7285
73.6621
73.5769
73.4707
73.3468
73.1978
73.0163
72.7957
72.5284
72.2062
71.8205
71.363
70.8258
70.2017
69.4849
68.675
73.8452
73.8031
73.7306
73.6654
73.5843
73.4808
73.3574
73.2084
73.0265
72.8051
72.5368
72.2136
71.827
71.3687
70.8306
70.2054
69.4869
68.6703
67.7581
73.8338
73.8
73.7329
73.6695
73.5923
73.4931
73.3721
73.2235
73.0412
72.8188
72.5493
72.2246
71.8366
71.377
70.8377
70.2112
69.4911
68.6725
67.7518
66.7346
73.8246
73.797
73.7353
73.6743
73.6011
73.5064
73.39
73.2441
73.0618
72.8386
72.5675
72.2409
71.8507
71.3891
70.848
70.2198
69.498
68.6774
67.7543
66.7267
65.6036
73.8173
73.7943
73.7379
73.6797
73.6107
73.5211
73.4094
73.2692
73.0901
72.8663
72.5935
72.2644
71.8715
71.4068
70.8629
70.2323
69.5083
68.6854
67.7597
66.7294
65.5938
64.3657
73.8119
73.7922
73.7407
73.6857
73.6211
73.5368
73.4308
73.2966
73.1246
72.9043
72.63
72.2981
71.9015
71.4328
70.8848
70.2505
69.5232
68.6974
67.7689
66.7354
65.5967
64.3539
63.024
73.8079
73.7906
73.7434
73.6923
73.6321
73.5535
73.4538
73.3266
73.1622
72.9505
72.6799
72.3453
71.9444
71.4705
70.9169
70.2771
69.5448
68.7148
67.7827
66.7456
65.6032
64.357
63.0102
61.5838
73.8049
73.7895
73.7461
73.6989
73.6436
73.571
73.4781
73.3589
73.2034
73.001
72.7408
72.41
72.0044
71.5242
70.9633
70.3159
69.5766
68.7402
67.8028
66.7612
65.6145
64.364
63.0134
61.5678
60.0569
73.8026
73.7888
73.7485
73.7052
73.655
73.5892
73.5037
73.3932
73.2477
73.0563
72.8073
72.4888
72.0867
71.5994
71.0295
70.3722
69.6229
68.7774
67.832
66.7839
65.6318
64.3762
63.0206
61.5708
60.0371
58.4716
73.8009
73.7884
73.7507
73.7111
73.6657
73.6071
73.5303
73.4291
73.2947
73.1159
72.8803
72.575
72.1872
71.7025
71.1221
70.4525
69.6901
68.8318
67.8748
66.8169
65.6569
64.3949
63.0334
61.5777
60.0376
58.4107
56.771
73.7995
73.7882
73.7527
73.7165
73.6754
73.6235
73.5564
73.4664
73.3441
73.1791
72.959
72.6697
72.2972
71.8285
71.2494
70.565
69.786
68.9107
67.9375
66.8653
65.6934
64.4221
63.053
61.5905
60.043
58.4166
56.7011
54.9393
73.7985
73.7881
73.7547
73.7214
73.6842
73.6384
73.5803
73.503
73.3952
73.2455
73.0426
72.7718
72.4181
71.9667
71.4052
70.7197
69.9204
69.0234
68.0287
66.9365
65.7473
64.4618
63.0817
61.6104
60.0543
58.4192
56.7065
54.9138
53.0478
73.7978
73.7881
73.7564
73.7258
73.6921
73.6519
73.6021
73.5367
73.4454
73.3143
73.1302
72.8805
72.5487
72.1189
71.5763
70.9094
70.1057
69.1818
68.1592
67.0402
65.8267
64.5205
63.1238
61.6397
60.0728
58.4274
56.7019
54.9032
53.0371
51.1069
73.7972
73.7882
73.758
73.7297
73.6992
73.664
73.6216
73.5672
73.4916
73.3818
73.2212
72.9945
72.6877
72.2834
71.7649
71.1181
70.3334
69.4006
68.3432
67.1893
65.9429
64.6076
63.1866
61.683
60.1009
58.4433
56.7079
54.8945
53.0211
51.1005
48.9143
73.7969
73.7882
73.7595
73.7332
73.7056
73.6748
73.6391
73.5946
73.5333
73.444
73.3106
73.1129
72.8339
72.4587
71.9691
71.3486
70.5845
69.6701
68.598
67.3998
66.1104
64.7357
63.2803
61.7485
60.1439
58.4691
56.7224
54.9014
53.013
51.0828
48.9112
46.4427
73.7966
73.7882
73.7609
73.7364
73.7113
73.6844
73.6548
73.6191
73.5709
73.5002
73.3929
73.2294
72.9858
72.6433
72.1872
71.5987
70.8624
69.968
68.9126
67.6922
66.3479
64.9211
63.4191
61.8474
60.2102
58.5103
56.7466
54.916
53.0213
51.0758
48.8945
46.4417
43.9512
73.7963
73.7882
73.7622
73.7392
73.7163
73.693
73.6687
73.641
73.6046
73.5508
73.4674
73.3366
73.1353
72.8354
72.4171
71.8662
71.1645
70.2985
69.2613
68.0546
66.679
65.1853
63.6214
61.9952
60.3125
58.5762
56.7861
54.9393
53.0362
51.0838
48.8874
46.4263
43.952
41.4703
73.7961
73.7882
73.7634
73.7417
73.7209
73.7006
73.6811
73.6605
73.6346
73.5961
73.5344
73.4338
73.2731
73.0248
72.6568
72.1488
71.4884
70.6587
69.6491
68.4573
67.0908
65.5551
63.9111
62.2126
60.4674
58.68
56.851
54.9778
53.0594
51.0984
48.8927
46.4188
43.9384
41.4713
39.0233
73.7882
73.7959
73.7645
73.744
73.7249
73.7074
73.6922
73.6779
73.6613
73.6365
73.5944
73.5212
73.3981
73.1995
72.8934
72.444
71.8312
71.0457
70.073
68.9067
67.5501
66.0171
64.3188
62.5261
60.6977
58.8401
56.9555
55.0418
53.0972
51.1209
48.9053
46.4211
43.9305
41.4588
39.0242
36.6261
73.7656
73.7883
73.7957
73.7459
73.7285
73.7135
73.702
73.6933
73.6851
73.6725
73.6479
73.5996
73.5107
73.3581
73.1121
72.7359
72.19
71.4563
70.5296
69.3992
68.0641
66.5342
64.8305
62.9697
61.0323
59.0808
57.119
55.1463
53.16
51.1571
48.9256
46.4307
43.93
41.4498
39.0123
36.6264
34.2903
73.7477
73.767
73.7885
73.7955
73.7316
73.7189
73.7107
73.707
73.7062
73.7045
73.6956
73.6695
73.6116
73.5011
73.3109
73.0062
72.5458
71.8873
71.0155
69.9314
68.6294
67.115
65.4055
63.5294
61.509
59.4337
57.3677
55.3119
53.2634
51.2174
48.9582
46.4465
43.9358
41.446
39.0018
36.6148
34.2898
32.0262
73.7344
73.7501
73.7687
73.7888
73.7955
73.7236
73.7184
73.7192
73.725
73.7329
73.738
73.7319
73.7017
73.6294
73.4903
73.2523
72.876
72.3157
71.527
70.4995
69.2423
67.7561
66.054
64.1612
62.1141
59.9398
57.7355
55.5661
53.429
51.3179
49.0137
46.4727
43.946
41.4471
38.9942
36.6026
34.2784
32.025
29.8426
73.7277
73.7381
73.753
73.7704
73.7892
73.7955
73.7252
73.73
73.7416
73.7582
73.7757
73.7873
73.7821
73.7442
73.6515
73.4747
73.1771
72.7143
72.0369
71.0994
69.8986
68.4535
66.7723
64.8767
62.8002
60.5862
58.2669
55.9451
53.6857
51.481
49.1084
46.5199
43.9641
41.4504
38.9896
36.5908
34.2641
32.0134
29.8405
27.7459
73.7312
73.7332
73.7424
73.7558
73.7722
73.7896
73.7955
73.7396
73.7564
73.7806
73.8092
73.8366
73.8536
73.8465
73.7957
73.6748
73.4497
73.0785
72.5125
71.6994
70.5942
69.2032
67.5568
65.6724
63.5804
61.3227
58.9496
56.4966
54.0717
51.7367
49.2654
46.6043
44.0003
41.4587
38.9847
36.5798
34.2479
31.9969
29.8288
27.743
25.7404
73.7478
73.7389
73.7394
73.7468
73.7587
73.7738
73.7901
73.7955
73.7695
73.8005
73.8389
73.8803
73.9172
73.9376
73.9244
73.854
73.6953
73.409
72.9483
72.2609
71.2925
70.0007
68.4034
66.5448
64.4517
62.1638
59.7311
57.2095
54.6376
52.125
49.5156
46.7496
44.0709
41.4817
38.9817
36.5658
34.2301
31.9762
29.8099
27.731
25.7368
23.829
73.7808
73.7584
73.7473
73.7455
73.7511
73.7616
73.7755
73.7907
73.7956
73.8182
73.8654
73.9192
73.9736
74.0186
74.0391
74.0142
73.9156
73.7072
73.3446
72.7768
71.9482
70.8046
69.3078
67.4903
65.4111
63.1072
60.6277
58.0295
55.3733
52.6986
49.9008
46.9876
44.1999
41.5356
38.9893
36.5499
34.2061
31.9513
29.7845
27.7096
25.7245
23.8245
22.0127
73.8333
73.7951
73.7695
73.7556
73.7516
73.7553
73.7644
73.7772
73.7914
73.7958
73.8887
73.9538
74.0238
74.0906
74.1412
74.1571
74.1127
73.9752
73.703
73.2471
72.5525
71.5621
70.2233
68.5048
66.4554
64.1507
61.6379
58.9744
56.2238
53.449
50.4751
47.3611
44.4197
41.6443
39.0236
36.5403
34.1764
31.9169
29.7525
27.6797
25.7006
23.8119
22.0075
20.2915
73.9087
73.8522
73.8095
73.7805
73.7638
73.7575
73.7595
73.7672
73.7788
73.7921
73.7961
73.9844
74.0685
74.1546
74.232
74.2843
74.2887
74.2153
74.0257
73.6734
73.105
72.2627
71.0894
69.5363
67.5812
65.2918
62.7605
60.0442
57.2087
54.3209
51.232
47.9245
44.7728
41.8403
39.1086
36.553
34.1484
31.8726
29.7073
27.6403
25.6662
23.7856
21.9946
20.2856
18.6644
74.0105
73.9336
73.8709
73.8238
73.7913
73.7718
73.7634
73.7636
73.77
73.7805
73.7928
73.7965
74.108
74.2117
74.3128
74.3974
74.4456
74.4299
74.3152
74.058
73.607
72.9052
71.8934
70.5164
68.7314
66.5279
63.994
61.2389
58.3293
55.3359
52.1171
48.6744
45.3134
42.1649
39.2757
36.6112
34.1377
31.8253
29.648
27.5842
25.6194
23.7467
21.9658
20.2724
18.6578
17.1294
74.1416
74.0427
73.9573
73.8891
73.8378
73.8019
73.7796
73.769
73.7676
73.7727
73.7822
73.7935
73.7969
74.2621
74.3847
74.4983
74.5853
74.6214
74.5744
74.4038
74.0611
73.4907
72.6333
71.4298
69.8292
67.7971
65.3369
62.558
59.5867
56.4965
53.1538
49.5586
46.0412
42.6712
39.5645
36.7451
34.167
31.7902
29.5809
27.5098
25.5525
23.6928
21.9227
20.2412
18.6443
17.1223
15.6841
74.3048
74.183
74.0726
73.9805
73.9071
73.8514
73.812
73.7872
73.7745
73.7715
73.7754
73.7838
73.7943
73.7973
74.4484
74.5881
74.7098
74.7922
74.806
74.7139
74.4701
74.0216
73.3096
72.2734
70.8565
69.0144
66.723
64.0017
60.9824
57.8057
54.3459
50.6013
46.9073
43.3627
40.0263
36.9916
34.2637
31.7886
29.5208
27.4228
25.4629
23.615
21.8616
20.194
18.6108
17.1084
15.6764
14.3253
74.5021
74.3576
74.2204
74.1017
74.0031
73.9243
73.8643
73.8218
73.7944
73.7799
73.7753
73.778
73.7854
73.795
73.7978
74.6675
74.821
74.9445
75.0128
74.9913
74.8376
74.501
73.9244
73.047
71.809
70.1584
68.0591
65.5001
62.5182
59.2666
55.6982
51.8081
47.9361
44.194
40.6683
37.3999
34.4628
31.8455
29.4871
27.3374
25.3561
23.5104
21.7733
20.1261
18.5597
17.0727
15.6623
14.317
13.0497
74.7345
74.5688
74.404
74.2568
74.1301
74.0248
73.9407
73.8767
73.831
73.8014
73.785
73.7789
73.7805
73.787
73.7958
73.7983
74.9191
75.0806
75.1974
75.2394
75.1671
74.9327
74.4811
73.7525
72.6855
71.2233
69.3205
66.9518
64.1214
60.8831
57.2164
53.1863
49.1351
45.1891
41.4489
37.9803
34.81
31.993
29.5021
27.2707
25.2454
23.3843
21.6542
20.0275
18.4851
17.0179
15.6244
14.3027
13.0409
11.8537
75.0016
74.8182
74.6262
74.4492
74.2921
74.1571
74.0452
73.9561
73.8884
73.8399
73.808
73.7898
73.7824
73.7828
73.7884
73.7965
73.7989
75.2006
75.3624
75.4612
75.462
75.3203
74.9835
74.393
73.4874
72.2069
70.4995
68.3289
65.683
62.5803
58.9069
54.7444
50.514
46.357
42.3907
38.695
35.3178
32.2728
29.5948
27.2425
25.1456
23.2487
21.5092
19.8943
18.3767
16.937
15.5661
14.2628
13.0264
11.8445
10.7337
75.3015
75.1058
74.8887
74.6819
74.4929
74.3256
74.1825
74.0644
73.9706
73.8994
73.8481
73.8142
73.7944
73.7856
73.785
73.7898
73.7972
73.7994
75.5079
75.6597
75.7262
75.668
75.4356
74.9723
74.2175
73.1097
71.5927
69.6217
67.1716
64.2426
60.694
56.4927
52.0841
47.709
43.503
39.5639
35.9523
32.6983
29.8023
27.2785
25.0736
23.1158
21.3491
19.7312
18.23
16.8191
15.4791
14.2013
12.9845
11.8297
10.7238
9.68575
75.6299
75.4304
75.1922
74.9572
74.7358
74.5341
74.3567
74.206
74.0822
73.9841
73.9096
73.8558
73.8199
73.7986
73.7884
73.787
73.7911
73.798
73.8
75.8343
75.9628
75.98
75.8418
75.4949
74.8797
73.9342
72.5996
70.825
68.575
65.835
62.456
58.3556
53.8578
49.2573
44.7971
40.5951
36.7292
33.2398
30.1374
27.4097
25.0517
22.9999
21.1836
19.5471
18.0494
16.6596
15.3523
14.1085
12.92
11.786
10.7088
9.67457
8.70746
75.9807
75.7887
75.5359
75.2762
75.0233
74.7862
74.5722
74.3855
74.2277
74.0986
73.9965
73.9189
73.8629
73.8251
73.8023
73.791
73.7887
73.7923
73.7987
73.8005
76.1706
76.2596
76.2071
75.9655
75.4783
74.684
73.522
71.9371
69.8865
67.3435
64.1543
60.2047
55.7587
51.0136
46.2838
41.7983
37.6544
33.9072
30.5747
27.648
25.1038
22.9196
21.0243
19.35
17.8424
16.4624
15.1807
13.9732
12.8218
11.7188
10.6634
9.6594
8.692
7.89625
76.3445
76.175
75.9173
75.6388
75.3571
75.0849
74.8326
74.6071
74.4117
74.2474
74.1134
74.0076
73.9273
73.8691
73.8296
73.8055
73.7933
73.7904
73.7935
73.7993
73.8011
76.5047
76.5349
76.3896
76.0186
75.3635
74.3631
72.9591
71.1029
68.7591
65.7709
61.9944
57.6517
52.9028
47.9755
43.1842
38.7363
34.7045
31.1183
27.9727
25.2409
22.8912
20.8859
19.1482
17.6144
16.2332
14.9676
13.7901
12.6785
11.6155
10.5938
9.61271
8.67805
7.88948
7.21236
76.7095
76.5815
76.3315
76.0429
75.7376
75.4322
75.1413
74.8748
74.6386
74.4352
74.2649
74.1265
74.0175
73.9345
73.8743
73.8335
73.8084
73.7954
73.7918
73.7945
73.8
73.8017
76.8213
76.7705
76.5067
75.9783
75.1273
73.8937
72.2244
70.0768
67.2927
63.7012
59.4877
54.7925
49.8078
44.7712
39.9892
35.641
31.7711
28.3821
25.4473
22.9247
20.7765
18.9524
17.3713
15.9755
14.7172
13.562
12.4847
11.4647
10.4857
9.54119
8.63033
7.8819
7.2167
6.49448
77.0602
76.997
76.7715
76.4848
76.1635
75.829
75.5006
75.1922
74.9126
74.6665
74.4558
74.2803
74.1379
74.0257
73.9405
73.8788
73.8368
73.8109
73.7972
73.7931
73.7955
73.8007
73.8022
77.1022
76.9456
76.5352
75.8205
74.7449
73.253
71.2952
68.712
65.3095
61.2446
56.641
51.6645
46.5166
41.4432
36.7376
32.5446
28.8788
25.7159
23.0099
20.706
18.7628
17.1194
15.6927
14.4312
13.2916
12.2425
11.2608
10.328
9.4287
8.5573
7.83328
7.21121
6.49521
5.72179
77.3783
77.4077
77.2273
76.9584
76.6318
76.2747
75.9118
75.5619
75.2373
74.9457
74.6907
74.4735
74.2931
74.1471
74.0324
73.9454
73.8824
73.8396
73.8131
73.7988
73.7943
73.7964
73.8013
73.8029
77.3261
77.0364
76.4502
75.5191
74.1922
72.415
70.0253
66.8116
62.9111
58.434
53.5156
48.3255
43.0809
38.0371
33.4673
29.4772
26.0494
23.1345
20.6694
18.5894
16.8513
15.3863
14.1102
12.9785
11.9529
11.0053
10.1147
9.26453
8.44069
7.75965
7.16302
6.48546
5.71585
4.87735
77.6418
77.7963
77.6862
77.455
77.1374
76.7669
76.375
75.9858
75.616
75.2765
74.9739
74.711
74.488
74.3033
74.1542
74.0375
73.9493
73.8854
73.8419
73.8149
73.8002
73.7954
73.7973
73.802
73.8036
77.4686
77.0175
76.2244
75.0484
73.439
71.2329
68.2059
64.4823
60.1626
55.3498
50.1749
44.8271
39.5461
34.5932
30.2124
26.4647
23.3016
20.6499
18.4325
16.5775
15.0421
13.7515
12.6211
11.6142
10.6977
9.84665
9.04236
8.27053
7.63955
7.08844
6.43693
5.70076
4.86791
3.95595
77.8256
78.1428
78.1323
77.963
77.6727
77.3016
76.8887
76.4643
76.0505
75.6624
75.3095
74.9971
74.7271
74.4989
74.3107
74.1595
74.0414
73.9523
73.8878
73.8439
73.8165
73.8015
73.7964
73.7981
73.8028
73.8043
77.5029
76.8604
75.8308
74.3743
72.338
69.4937
65.9566
61.819
57.1525
52.0488
46.6603
41.2067
35.9491
31.1462
27.0016
23.5291
20.6501
18.2708
16.3033
14.6715
13.3343
12.2124
11.2223
10.3348
9.52207
8.76257
8.04007
7.46457
6.96546
6.36064
5.65062
4.85019
3.94516
2.95472
77.9017
78.4236
78.5465
78.4681
78.2276
77.8724
77.4494
76.9966
76.542
76.1056
75.7009
75.3359
75.0149
74.7387
74.5064
74.3158
74.1631
74.0442
73.9545
73.8897
73.8454
73.8178
73.8026
73.7974
73.7991
73.8035
73.8051
77.3996
76.5365
75.2314
73.3491
70.6786
67.3329
63.3948
58.9065
53.9231
48.5577
42.9974
37.494
32.3221
27.726
23.8595
20.6882
18.106
16.0031
14.2842
12.871
11.7256
10.766
9.91023
9.13631
8.42204
7.74924
7.22731
6.7864
6.23442
5.57157
4.79827
3.92666
2.94314
1.86832
77.8386
78.6129
78.9064
78.9527
78.7891
78.4703
78.0519
77.5801
77.0902
76.6077
76.1508
75.7312
75.3556
75.027
74.746
74.511
74.3187
74.1652
74.0459
73.956
73.891
73.8466
73.819
73.8037
73.7985
73.7999
73.8043
73.8058
77.1268
76.0043
74.2786
71.7701
68.6117
64.8822
60.5943
55.7706
50.4868
44.8906
39.2074
33.7162
28.6942
24.3589
20.8065
17.9555
15.6775
13.8505
12.3754
11.1743
10.2135
9.40904
8.68103
8.01483
7.39375
6.9275
6.54349
6.05088
5.4416
4.7158
3.87329
2.92387
1.85616
0.68954
77.6005
78.6823
79.1869
79.396
79.3414
79.0837
78.6885
78.2106
77.6933
77.1689
76.661
76.1857
75.7529
75.368
75.0337
74.7495
74.5128
74.3199
74.1661
74.0467
73.9568
73.8918
73.8475
73.8203
73.8051
73.7995
73.8008
73.8051
73.8066
76.6393
75.1154
72.7817
69.7999
66.2752
62.2003
57.5657
52.4128
46.8488
41.061
35.3122
29.9007
25.093
21.068
17.8589
15.3411
13.3693
11.8143
10.576
9.5789
8.79454
8.13758
7.53071
6.96643
6.55981
6.23606
5.80183
5.25302
4.58158
3.78736
2.86916
1.83583
0.67707
-0.589383
77.1369
78.6006
79.3598
79.7744
79.8652
79.6985
79.349
78.8815
78.3478
77.7881
77.2323
76.7015
76.2098
75.7656
75.3739
75.0358
74.7497
74.5124
74.3193
74.1658
74.0466
73.9569
73.8923
73.849
73.822
73.8063
73.8004
73.8015
73.8059
73.8073
75.7865
73.6955
70.9104
67.5776
63.7132
59.2863
54.3033
48.8317
43.0155
37.0847
31.336
26.0755
21.5445
17.8728
15.0293
12.8519
11.1842
9.89401
8.88381
8.08182
7.465
6.94763
6.45529
6.11616
5.85806
5.48613
4.99723
4.38737
3.64859
2.77992
1.77953
0.655908
-0.602022
-1.97646
78.3227
76.2981
79.393
80.0611
80.3385
80.2971
80.0207
79.584
79.0484
78.4627
77.8641
77.2798
76.7287
76.2229
75.7703
75.374
75.0338
74.7471
74.5099
74.3174
74.1643
74.0456
73.9567
73.8938
73.8511
73.8235
73.8073
73.8012
73.8023
73.8066
73.808
74.4119
71.9174
68.801
65.134
60.9159
56.1299
50.8012
45.0279
38.9967
32.9816
27.3061
22.2693
18.0726
14.7898
12.3269
10.4916
9.12207
8.08784
7.29583
6.67912
6.22078
5.8352
5.5831
5.40068
5.09697
4.67252
4.12417
3.44817
2.63637
1.68686
0.597657
-0.623859
-1.98926
-3.47999
79.2443
77.71
74.9352
80.225
80.7365
80.8591
80.6878
80.3068
79.7875
79.1882
78.5545
77.9206
77.311
76.7424
76.226
75.7679
75.3692
75.0283
74.7421
74.5057
74.3141
74.1617
74.0442
73.9581
73.8964
73.8529
73.8247
73.8082
73.8019
73.8029
73.8073
73.8087
72.6944
69.9126
66.4743
62.4531
57.871
52.7227
47.0555
41.0053
34.8066
28.7761
23.2524
18.5103
14.6986
11.832
9.75805
8.26166
7.18176
6.39298
5.80818
5.36663
5.05778
4.93307
4.84918
4.62473
4.27126
3.78965
3.17689
2.4292
1.53819
0.501223
-0.684159
-2.0118
-3.49292
-5.10852
80.2261
78.7971
76.6377
73.2447
81.0298
81.3615
81.3318
81.036
80.5553
79.9584
79.3
78.6226
77.9572
77.3257
76.7439
76.2206
75.7594
75.36
75.0198
74.7349
74.4998
74.3092
74.1587
74.0454
73.9613
73.8985
73.8542
73.8256
73.8089
73.8025
73.8034
73.808
73.8095
70.7604
67.6948
63.9097
59.5218
54.5687
49.0583
43.0657
36.772
30.4645
24.4968
19.2062
14.8254
11.4412
9.00926
7.32584
6.16152
5.36067
4.80545
4.41657
4.14012
4.11491
4.17403
4.05328
3.78294
3.37525
2.83168
2.14914
1.32373
0.346982
-0.784559
-2.07411
-3.51622
-5.12156
-6.87097
81.1814
79.9647
77.9038
75.2485
71.3493
81.7772
81.9312
81.7546
81.3395
80.7647
80.0955
79.3832
78.6665
77.9736
77.3256
76.735
76.2078
75.7457
75.3472
75.0088
74.7256
74.4919
74.3038
74.1595
74.0494
73.9639
73.9
73.8551
73.8262
73.8095
73.803
73.8039
73.8087
73.8102
68.618
65.2394
61.0941
56.3305
51.0017
45.1327
38.8336
32.3403
25.9948
20.176
15.1996
11.2398
8.31561
6.32805
5.03142
4.18919
3.65486
3.32082
3.11658
3.14615
3.32174
3.35094
3.18989
2.86953
2.40304
1.79231
1.03416
0.124631
-0.944835
-2.1786
-3.58056
-5.14564
-6.88402
-8.7763
82.0727
81.1109
79.2933
76.6966
73.6458
69.253
82.4613
82.4432
82.1251
81.5966
80.9337
80.1981
79.4369
78.6859
77.9721
77.3128
76.7171
76.1887
75.7277
75.3314
74.9952
74.7138
74.4835
74.3041
74.1643
74.0525
73.9656
73.9009
73.8557
73.827
73.8102
73.8035
73.8044
73.8094
73.8111
66.2378
62.5342
58.0192
52.8721
47.1643
40.9428
34.3639
27.7273
21.4268
15.8487
11.2642
7.77543
5.33327
3.79221
2.87398
2.34104
2.05979
1.9344
2.06353
2.31021
2.46175
2.4582
2.25314
1.87851
1.34827
0.664726
-0.175208
-1.17569
-2.34532
-3.68929
-5.21203
-6.90886
-8.78928
-10.8335
82.8925
82.1886
80.6715
78.3126
75.2812
71.8466
66.9211
83.0791
82.8942
82.4407
81.8054
81.0612
80.2651
79.4611
78.6836
77.9553
77.2893
76.6917
76.1645
75.706
75.3125
74.9785
74.7015
74.4829
74.31
74.1681
74.0545
73.9665
73.9014
73.8566
73.8279
73.8108
73.8038
73.8049
73.8102
73.8119
63.608
59.5728
54.6794
49.1407
43.0504
36.4865
29.6643
22.9553
16.7949
11.5514
7.4293
4.45038
2.50245
1.40317
0.850715
0.612631
0.570546
0.81179
1.17823
1.40399
1.5292
1.48982
1.23693
0.803441
0.204058
-0.558288
-1.48661
-2.58529
-3.8629
-5.32526
-6.97733
-8.8148
-10.846
-13.0524
83.6367
83.1887
81.977
79.9294
77.1259
73.6932
69.8179
64.3414
83.6265
83.2811
82.6993
81.965
81.1462
80.2966
79.4591
78.6629
77.9256
77.2567
76.6601
76.1358
75.6806
75.2898
74.9613
74.6997
74.4901
74.3146
74.1704
74.0553
73.9668
73.9027
73.858
73.8287
73.8112
73.8041
73.8053
73.811
73.8128
60.7246
56.3521
51.07
45.1294
38.6531
31.7617
24.7461
18.0528
12.1377
7.32087
3.72127
1.27915
-0.171743
-0.84031
-1.04236
-1.00106
-0.634998
-0.131619
0.218786
0.421664
0.518016
0.439606
0.134736
-0.362616
-1.03685
-1.8844
-2.90812
-4.11259
-5.50622
-7.0953
-8.88524
-10.8717
-13.062
-15.8607
84.2999
84.106
83.2003
81.4707
78.9802
75.7868
71.9013
67.548
61.511
84.0994
83.6011
82.8994
82.0736
81.1883
80.2965
79.4349
78.6266
77.885
77.2166
76.6232
76.1027
75.6508
75.2665
74.9578
74.7085
74.4956
74.3171
74.1711
74.0552
73.9684
73.9048
73.8593
73.8293
73.8116
73.8043
73.8057
73.8118
73.8138
57.5865
52.8697
47.1852
40.8286
33.9614
26.7663
19.6263
13.0551
7.49686
3.1921
0.162697
-1.72769
-2.68771
-2.94113
-2.81011
-2.30721
-1.64774
-1.15363
-0.820762
-0.642992
-0.578156
-0.699074
-1.06043
-1.62696
-2.38215
-3.3217
-4.44815
-5.76624
-7.28407
-9.00812
-10.9441
-13.0877
-15.8738
-19.2065
84.8769
84.9331
84.3368
82.9259
80.7556
77.8927
74.2672
69.8896
65.0387
58.4303
84.4945
83.8523
83.0389
82.1308
81.1925
80.2697
79.392
78.5773
77.8355
77.1704
76.5812
76.0643
75.6202
75.2611
74.9685
74.715
74.4986
74.3177
74.1705
74.0575
73.9718
73.9068
73.8602
73.8296
73.8118
73.8044
73.806
73.8126
73.8148
54.1938
49.1221
43.0157
36.2225
28.962
21.5032
14.331
8.00448
2.91532
-0.802365
-3.22812
-4.56407
-5.04634
-4.90358
-4.24099
-3.4041
-2.7444
-2.26046
-1.9468
-1.79647
-1.76605
-1.93328
-2.35592
-2.9973
-3.83994
-4.87861
-6.11539
-7.55508
-9.20516
-11.0721
-13.1612
-15.9054
-19.2233
-22.6143
85.3633
85.6618
85.378
84.2914
82.4406
79.9142
76.6433
72.5475
67.6598
62.2966
55.1016
84.8091
84.0318
83.1171
82.1425
81.1646
80.2204
79.3335
78.5174
77.7787
77.1182
76.5328
76.0249
75.6122
75.2739
74.9761
74.7187
74.499
74.3162
74.1736
74.0627
73.9749
73.9083
73.8608
73.8298
73.8118
73.8044
73.8062
73.8135
73.8158
50.5454
45.103
38.5457
31.2907
23.6451
15.9858
8.89726
2.94903
-1.56356
-4.63392
-6.43834
-7.22742
-7.2507
-6.49221
-5.44222
-4.59133
-3.93153
-3.45871
-3.16597
-3.04561
-3.05279
-3.27037
-3.75943
-4.48171
-5.41859
-6.56373
-7.91864
-9.48781
-11.2779
-13.2944
-15.9844
-19.2583
-22.6275
-26.0347
85.756
86.2852
86.3139
85.5581
84.0319
81.8391
78.9289
75.2082
70.6288
65.2216
59.3318
51.5261
85.0395
84.1383
83.1407
82.1157
81.1097
80.1525
79.2623
78.4488
77.7148
77.0582
76.4832
76.0139
75.6276
75.283
74.9799
74.7196
74.4961
74.3208
74.1811
74.0672
73.9773
73.9094
73.861
73.8296
73.8117
73.8044
73.8064
73.8144
73.8169
46.6377
40.8004
33.7505
26.0065
17.9995
10.2352
3.37287
-2.05802
-5.89839
-8.27983
-9.45976
-9.71844
-9.03527
-7.82547
-6.74178
-5.87594
-5.21601
-4.75518
-4.48524
-4.39762
-4.44576
-4.71802
-5.27896
-6.08848
-7.12663
-8.38579
-9.86656
-11.5729
-13.5095
-16.127
-19.3448
-22.6594
-26.0457
-29.4383
86.05
86.7976
87.1348
86.7147
85.5206
83.6634
81.1126
77.7703
73.5862
68.5221
62.5904
56.1547
47.7034
85.1834
84.1794
83.118
82.0566
81.0325
80.0695
79.1809
78.3719
77.6417
76.9968
76.4686
76.0323
75.6384
75.2871
74.9799
74.713
74.5023
74.331
74.1877
74.071
73.9792
73.91
73.8609
73.8291
73.8114
73.8044
73.8064
73.8153
73.8181
42.4625
36.1874
28.588
20.3292
12.0128
4.27972
-2.18541
-6.96137
-10.0528
-11.7231
-12.2889
-11.7353
-10.5321
-9.26715
-8.14721
-7.26507
-6.6048
-6.15696
-5.91185
-5.85986
-5.95256
-6.28413
-6.92267
-7.82597
-8.97262
-10.3533
-11.9675
-13.8175
-16.3549
-19.4995
-22.7464
-26.0769
-29.4482
-32.8076
86.2419
87.192
87.8311
87.7501
86.8956
85.3778
83.1903
80.2255
76.4338
71.7885
66.2455
59.7848
52.7761
43.6319
85.2492
84.1651
83.0567
81.9707
80.9373
79.9743
79.0897
78.2842
77.567
76.978
76.4905
76.0449
75.6428
75.2863
74.9741
74.7222
74.5163
74.3404
74.1933
74.074
73.9805
73.9102
73.8605
73.8284
73.8107
73.8043
73.8064
73.8163
73.8192
37.9986
31.2224
23.0021
14.215
5.68599
-1.83621
-7.71217
-11.7071
-13.9962
-14.9531
-14.5802
-13.4261
-12.1495
-10.8253
-9.66594
-8.76585
-8.10508
-7.67133
-7.45312
-7.43983
-7.58097
-7.97667
-8.69871
-9.70251
-10.9648
-12.4745
-14.2287
-16.6795
-19.7438
-22.9074
-26.1648
-29.4806
-32.8164
-36.1214
86.3409
87.4621
88.3906
88.6525
88.145
86.9707
85.1515
82.5704
79.1672
74.9294
69.834
63.8216
56.8241
49.2088
39.3015
85.2489
84.1046
82.9633
81.8632
80.8275
79.8676
78.9858
78.1944
77.5433
77.0039
76.505
76.0497
75.6412
75.2791
74.9848
74.741
74.5293
74.3484
74.198
74.0763
73.9811
73.9098
73.8595
73.8273
73.8098
73.8041
73.8064
73.8172
73.8204
33.215
25.8518
16.9259
7.6271
-0.959375
-8.04776
-13.1367
-16.2447
-17.7061
-17.5706
-16.4996
-15.2515
-13.8957
-12.5073
-11.3051
-10.3855
-9.72412
-9.30554
-9.11644
-9.14509
-9.33868
-9.80349
-10.6151
-11.7261
-13.1111
-14.7561
-17.1112
-20.0882
-23.1634
-26.3308
-29.5708
-32.8499
-36.1289
-39.3534
86.3613
87.6184
88.7993
89.4055
89.2563
88.4294
86.9828
84.7946
81.785
77.9452
73.2758
67.7472
61.2746
53.7278
45.4602
34.6913
85.1931
84.0056
82.8441
81.7385
80.7043
79.746
78.8792
78.1653
77.5739
77.0207
76.5103
76.0471
75.6321
75.2923
75.0091
74.7586
74.5406
74.3554
74.2017
74.0777
73.981
73.9088
73.8581
73.8258
73.8086
73.8036
73.8063
73.8181
73.8216
28.0649
19.9956
10.2732
0.543427
-7.87782
-14.2726
-18.3851
-20.5313
-20.7152
-19.7614
-18.5695
-17.2198
-15.7783
-14.3204
-13.0718
-12.131
-11.469
-11.0668
-10.9091
-10.983
-11.2331
-11.7722
-12.6792
-13.9039
-15.4177
-17.6631
-20.5424
-23.5233
-26.5961
-29.7428
-32.942
-36.163
-39.3595
-42.4753
86.3155
87.6779
89.0648
89.9873
90.2091
89.7414
88.6697
86.8845
84.2785
80.8372
76.5767
71.498
65.5549
58.6286
50.5161
41.532
29.7702
85.0915
83.8757
82.7043
81.5979
80.5636
79.621
78.844
78.2011
77.5932
77.0265
76.5065
76.0358
75.6485
75.3235
75.0321
74.7739
74.5504
74.361
74.2043
74.0782
73.98
73.9071
73.8561
73.824
73.8071
73.8029
73.8062
73.8191
73.8228
22.4769
13.5331
2.93848
-7.03487
-14.9977
-20.4067
-23.3859
-24.0131
-23.2308
-22.1207
-20.7977
-19.3378
-17.8035
-16.2708
-14.9725
-14.0092
-13.3464
-12.9618
-12.8379
-12.9604
-13.2714
-13.8896
-14.8978
-16.2419
-18.354
-21.1195
-23.995
-26.9674
-30.0171
-33.1196
-36.2563
-39.3941
-42.4798
-45.4578
86.215
87.6563
89.206
90.401
90.9743
90.8842
90.1971
88.8243
86.6356
83.5998
79.7416
75.0861
69.624
63.2845
55.9091
47.2113
37.4261
24.4949
84.9526
83.7213
82.5458
81.437
80.4187
79.5791
78.8857
78.2233
77.5994
77.0214
76.4925
76.0559
75.6878
75.3533
75.0524
74.7874
74.5587
74.3653
74.2057
74.0775
73.9782
73.9046
73.8536
73.8218
73.8055
73.8021
73.806
73.82
73.824
16.3423
6.2784
-5.19383
-15.0687
-22.2048
-26.3213
-27.4683
-26.919
-25.9329
-24.6546
-23.1894
-21.6101
-19.9764
-18.3644
-17.0133
-16.026
-15.3627
-14.9971
-14.9093
-15.0837
-15.4595
-16.1616
-17.2761
-19.2147
-21.8396
-24.5912
-27.4512
-30.3974
-33.4012
-36.4377
-39.4875
-42.5145
-45.4607
-48.2713
86.07
87.5674
89.2413
90.6645
91.5511
91.8233
91.5385
90.5966
88.8412
86.2239
82.7691
78.5211
73.5014
67.683
60.964
53.1433
43.8355
33.1428
18.804
84.7844
83.5446
82.3636
81.2706
80.3694
79.6275
78.9111
78.2299
77.5927
77.004
76.5171
76.1049
75.7256
75.3796
75.0705
74.799
74.5652
74.368
74.2056
74.0756
73.9752
73.9013
73.8505
73.8193
73.8037
73.8012
73.8058
73.8208
73.8252
9.48198
-2.06495
-14.2077
-23.4548
-29.291
-31.1709
-30.8772
-30.0337
-28.8242
-27.3647
-25.7463
-24.0397
-22.3008
-20.6053
-19.1989
-18.1867
-17.5231
-17.1778
-17.1285
-17.358
-17.8023
-18.5925
-20.2956
-22.7362
-25.333
-28.0597
-30.8889
-33.7875
-36.7237
-39.671
-42.6073
-45.4954
-48.273
-50.8865
85.8899
87.424
89.1883
90.7959
91.9573
92.5556
92.6523
92.1691
90.8774
88.6971
85.6544
81.8065
77.2029
71.852
65.704
58.6221
50.3586
40.4115
28.6927
12.6196
84.59
83.3405
82.1745
81.2134
80.4254
79.6563
78.9183
78.2214
77.5716
77.0337
76.5773
76.1522
75.7593
75.4033
75.0862
74.8084
74.5697
74.3688
74.2039
74.0723
73.9712
73.8972
73.847
73.8165
73.8019
73.8001
73.8056
73.8217
73.8265
1.58623
-11.9662
-24.123
-31.8705
-35.1585
-35.2079
-34.5166
-33.3578
-31.9004
-30.2473
-28.4672
-26.6268
-24.7781
-22.9961
-21.5327
-20.4949
-19.8317
-19.5082
-19.4996
-19.787
-20.3032
-21.6731
-23.8632
-26.2567
-28.8156
-31.504
-34.2821
-37.1114
-39.9577
-42.7906
-45.5864
-48.3071
-50.8865
-53.2718
85.6786
87.237
89.0632
90.813
92.2108
93.1
93.5328
93.4892
92.708
91.0034
88.3894
84.9433
80.7381
75.8162
70.1672
63.7159
56.2854
47.5861
36.975
24.1218
5.83623
84.3636
83.1276
82.1087
81.2778
80.4579
79.664
78.9076
78.1958
77.6069
77.1067
76.6354
76.1943
75.7896
75.4242
75.0993
74.8153
74.5719
74.3676
74.2003
74.0675
73.9661
73.8926
73.843
73.8135
73.7999
73.799
73.8053
73.8225
73.8278
-8.02649
-24.2405
-34.3914
-39.097
-39.994
-39.4738
-38.3656
-36.8769
-35.1516
-33.2939
-31.3471
-29.3684
-27.4073
-25.5373
-24.0159
-22.9528
-22.2908
-21.9907
-22.0247
-22.3724
-23.4649
-25.3014
-27.419
-29.7574
-32.2668
-34.8979
-37.6038
-40.3422
-43.0744
-45.7671
-48.3952
-50.9199
-53.2739
-55.4039
85.4305
87.0113
88.8806
90.7339
92.3295
93.4751
94.2018
94.544
94.2688
93.1048
90.9618
87.9286
84.1143
79.5922
74.3899
68.4754
61.7445
53.9839
44.8716
33.566
19.5217
-1.73052
84.126
83.0529
82.1825
81.3145
80.4662
79.651
78.8769
78.2376
77.6944
77.1773
76.6874
76.2325
75.8166
75.4418
75.1093
74.8193
74.5714
74.3639
74.1948
74.0613
73.9601
73.8873
73.8387
73.8103
73.7977
73.7978
73.8051
73.8233
73.8291
-20.9217
-38.1851
-44.2658
-45.2804
-45.0845
-43.9285
-42.3794
-40.5609
-38.5617
-36.4908
-34.3758
-32.2578
-30.1838
-28.2262
-26.6477
-25.5602
-24.9007
-24.6254
-24.704
-25.6314
-27.1734
-28.9047
-30.9448
-33.2186
-35.6611
-38.2147
-40.8271
-43.4512
-46.044
-48.5705
-51.0038