/*--------------------------------*- C++ -*----------------------------------*\
  =========                 |
  \\      /  F ield         | OpenFOAM: The Open Source CFD Toolbox
   \\    /   O peration     | Website:  https://openfoam.org
    \\  /    A nd           | Version:  8
     \\/     M anipulation  |
\*---------------------------------------------------------------------------*/
FoamFile
{
    version     2.0;
    format      ascii;
    class       volScalarField;
    location    "0.2";
    object      k;
}
// * * * * * * * * * * * * * * * * * * * * * * * * * * * * * * * * * * * * * //

dimensions      [0 2 -2 0 0 0 0];

internalField   nonuniform List<scalar> 
15677
(
0.333994
0.364683
0.29434
0.368614
0.357022
0.280634
0.370641
0.359745
0.365648
0.282424
0.371858
0.36148
0.361178
0.383041
0.288666
0.372597
0.363664
0.357592
0.368118
0.401539
0.300176
0.373032
0.365621
0.357772
0.358025
0.37998
0.419305
0.31172
0.373261
0.36716
0.35942
0.354514
0.360944
0.393229
0.43472
0.32256
0.373349
0.368292
0.361332
0.354727
0.353005
0.366847
0.406124
0.447862
0.33206
0.37335
0.369074
0.36305
0.35631
0.351086
0.353458
0.373524
0.418257
0.458717
0.340464
0.373315
0.369563
0.364433
0.3582
0.351907
0.348762
0.354761
0.380681
0.429085
0.467885
0.347547
0.373275
0.369822
0.365457
0.359947
0.3537
0.348366
0.347132
0.357106
0.387647
0.43883
0.475396
0.353778
0.373248
0.369925
0.366146
0.361388
0.355653
0.349752
0.345345
0.346316
0.359703
0.394451
0.447247
0.481833
0.358969
0.373238
0.369939
0.366546
0.362472
0.357418
0.351711
0.346198
0.34292
0.345888
0.362615
0.400696
0.454735
0.487134
0.363625
0.373237
0.369921
0.366735
0.363205
0.358854
0.353673
0.348065
0.343086
0.34086
0.345905
0.365481
0.406579
0.461081
0.491717
0.367683
0.373238
0.369906
0.366792
0.363632
0.359913
0.355384
0.350151
0.344743
0.340288
0.339192
0.346043
0.3684
0.411765
0.466709
0.495511
0.371275
0.373238
0.369899
0.366792
0.36383
0.360605
0.356732
0.352083
0.346873
0.341694
0.337814
0.337745
0.346381
0.371087
0.416566
0.471382
0.498867
0.374565
0.373238
0.369897
0.366782
0.363888
0.360988
0.357686
0.353685
0.348971
0.343828
0.338915
0.33558
0.336529
0.346783
0.373727
0.420636
0.475502
0.501765
0.377364
0.373238
0.369896
0.366774
0.363897
0.361136
0.358274
0.354885
0.35079
0.346056
0.341007
0.336372
0.333581
0.335462
0.347305
0.376012
0.424323
0.478898
0.504318
0.380201
0.373237
0.369896
0.366768
0.363893
0.361179
0.358544
0.355677
0.352216
0.348065
0.343333
0.33841
0.334051
0.331775
0.334582
0.347753
0.378169
0.427329
0.481873
0.506692
0.382407
0.373237
0.369896
0.366764
0.363887
0.361184
0.358649
0.356077
0.353214
0.349696
0.345506
0.340817
0.336021
0.331941
0.330174
0.333794
0.348242
0.379922
0.430014
0.484327
0.508719
0.385041
0.373236
0.369895
0.366761
0.363883
0.361177
0.358683
0.356249
0.353759
0.350885
0.347326
0.34314
0.338496
0.333852
0.330041
0.328752
0.333138
0.348616
0.381536
0.432093
0.486461
0.510852
0.386792
0.373236
0.369895
0.366758
0.36388
0.361168
0.358688
0.356313
0.354023
0.351566
0.348702
0.345137
0.340953
0.336397
0.331897
0.328364
0.327513
0.332563
0.348986
0.382739
0.433961
0.488243
0.512544
0.389402
0.373236
0.369895
0.366757
0.363877
0.36116
0.358683
0.356328
0.354139
0.351911
0.349535
0.346687
0.343116
0.338995
0.334519
0.330191
0.326905
0.326464
0.332086
0.349252
0.383859
0.435289
0.489825
0.514689
0.39082
0.373236
0.369894
0.366755
0.363874
0.361154
0.358676
0.356323
0.354181
0.352071
0.349985
0.347649
0.344839
0.34133
0.337255
0.332901
0.328727
0.325706
0.325617
0.33174
0.349507
0.384586
0.43656
0.491122
0.516122
0.393432
0.373236
0.369894
0.366755
0.363872
0.36115
0.358669
0.356313
0.354189
0.352132
0.350215
0.348181
0.345953
0.343225
0.339747
0.335791
0.331565
0.327587
0.324775
0.324992
0.331446
0.34969
0.38532
0.437327
0.492489
0.518649
0.394798
0.373237
0.369893
0.366754
0.36387
0.361146
0.358663
0.356302
0.354183
0.352145
0.350318
0.348456
0.346605
0.344463
0.341807
0.33849
0.334653
0.330571
0.326715
0.324113
0.3246
0.331429
0.349952
0.385748
0.438254
0.493377
0.520295
0.50449
0.373237
0.369893
0.366754
0.363869
0.361144
0.358657
0.356293
0.354172
0.352138
0.350353
0.34858
0.346969
0.345186
0.343213
0.340768
0.33752
0.333813
0.329895
0.326305
0.32393
0.324632
0.331522
0.35018
0.386228
0.438691
0.495367
0.528993
0.710478
0.373237
0.369892
0.366754
0.363867
0.361142
0.358653
0.356285
0.354159
0.352124
0.350353
0.348623
0.34715
0.345587
0.344087
0.342299
0.339932
0.336975
0.333575
0.329909
0.326399
0.324081
0.324846
0.331768
0.350497
0.386584
0.439593
0.495934
0.545766
0.885587
0.373237
0.369892
0.366754
0.363866
0.36114
0.358649
0.356279
0.354149
0.352109
0.350339
0.348627
0.347224
0.345787
0.344608
0.343223
0.341682
0.339794
0.337068
0.333791
0.330215
0.326801
0.324539
0.325347
0.332272
0.350942
0.386994
0.440273
0.495645
0.558573
1.02708
0.373238
0.369891
0.366754
0.363865
0.361139
0.358645
0.356275
0.354139
0.352095
0.35032
0.348613
0.347238
0.345872
0.344889
0.343761
0.342837
0.341758
0.340054
0.337526
0.334437
0.330998
0.327692
0.325471
0.3263
0.333097
0.351534
0.38761
0.440019
0.494156
0.568028
1.14934
0.373238
0.369891
0.366754
0.363864
0.361138
0.358642
0.356271
0.354131
0.352084
0.350302
0.348592
0.347223
0.345894
0.345015
0.34405
0.343562
0.343004
0.342191
0.340796
0.338555
0.335756
0.332515
0.329266
0.326991
0.32766
0.334246
0.352386
0.388088
0.439108
0.491015
0.574499
1.2482
0.373238
0.369891
0.366754
0.363863
0.361138
0.35864
0.356268
0.354125
0.352075
0.350286
0.348571
0.347196
0.345884
0.345048
0.344191
0.343983
0.343792
0.343587
0.343188
0.342289
0.340466
0.337914
0.334775
0.331501
0.329056
0.329479
0.335757
0.353428
0.388443
0.43721
0.485637
0.578685
1.32085
0.373238
0.36989
0.366754
0.363862
0.361137
0.358637
0.356265
0.354119
0.352067
0.350272
0.348552
0.347168
0.345858
0.345035
0.344251
0.344197
0.34426
0.344488
0.344817
0.345091
0.344716
0.343255
0.340914
0.337832
0.334426
0.331735
0.331767
0.337642
0.354666
0.388394
0.433991
0.478881
0.58133
1.37593
0.373238
0.36989
0.366755
0.363861
0.361137
0.358635
0.356263
0.354114
0.35206
0.35026
0.348535
0.347143
0.345829
0.345003
0.344258
0.344277
0.34451
0.34504
0.345908
0.347013
0.34795
0.348132
0.347021
0.344856
0.34173
0.338116
0.335031
0.33456
0.339892
0.35602
0.388115
0.4297
0.472125
0.583575
1.41943
0.36989
0.373242
0.366755
0.363861
0.361137
0.358634
0.356262
0.354109
0.352055
0.350249
0.348521
0.34712
0.345801
0.344966
0.344234
0.344293
0.344625
0.345357
0.346608
0.34833
0.350223
0.351904
0.352662
0.351881
0.349803
0.346555
0.342582
0.338996
0.337827
0.342489
0.357647
0.387461
0.425268
0.465774
0.585853
1.45525
0.366755
0.3699
0.37325
0.36386
0.361137
0.358632
0.35626
0.354105
0.35205
0.35024
0.348508
0.347101
0.345775
0.344931
0.3442
0.344276
0.344664
0.345525
0.347041
0.349212
0.351831
0.354619
0.357099
0.358442
0.357917
0.35585
0.352326
0.347884
0.343589
0.341577
0.345749
0.359668
0.386606
0.420885
0.460057
0.588532
1.48595
0.363859
0.366772
0.36992
0.373258
0.361137
0.358631
0.356259
0.354102
0.352046
0.350232
0.348498
0.347084
0.345753
0.3449
0.344165
0.344246
0.344663
0.345606
0.347303
0.349797
0.35296
0.356606
0.360371
0.363697
0.365581
0.365243
0.36303
0.359112
0.353978
0.348829
0.346243
0.349716
0.361855
0.385751
0.416867
0.455059
0.59155
1.51307
0.361137
0.363881
0.366806
0.369942
0.373266
0.358629
0.356259
0.354099
0.352043
0.350225
0.348489
0.347069
0.345733
0.344873
0.344133
0.344214
0.344645
0.345638
0.34746
0.35019
0.353761
0.358066
0.362848
0.367667
0.371831
0.374214
0.373904
0.371421
0.366871
0.36089
0.355314
0.352089
0.354017
0.364222
0.385033
0.413151
0.450752
0.595028
1.53766
0.358628
0.361164
0.363925
0.36684
0.369963
0.373274
0.356258
0.354096
0.352041
0.350219
0.348482
0.347057
0.345716
0.344849
0.344104
0.344184
0.344623
0.345647
0.347555
0.350465
0.354348
0.359167
0.364751
0.370772
0.376668
0.381662
0.384403
0.383998
0.380988
0.375636
0.369411
0.363363
0.358522
0.358609
0.366744
0.38448
0.409837
0.447114
0.598754
1.56025
0.356257
0.358659
0.36122
0.363971
0.366876
0.369986
0.373282
0.354093
0.352039
0.350213
0.348476
0.347045
0.345701
0.344828
0.344078
0.344157
0.344601
0.345648
0.347616
0.350665
0.354806
0.360037
0.366268
0.373261
0.380572
0.387563
0.393276
0.396268
0.395488
0.391775
0.38642
0.379946
0.372174
0.365445
0.363457
0.369461
0.384251
0.406909
0.444034
0.602805
1.58133
0.354091
0.356293
0.358723
0.361277
0.364018
0.366913
0.370009
0.373291
0.352037
0.350208
0.348471
0.347035
0.345689
0.34481
0.344056
0.344133
0.344582
0.345646
0.347662
0.350819
0.355177
0.360771
0.367545
0.37535
0.383834
0.392479
0.400472
0.406823
0.40978
0.408442
0.405034
0.399726
0.391443
0.381631
0.37277
0.368503
0.372288
0.384328
0.404425
0.441413
0.606931
1.60101
0.352036
0.354128
0.356367
0.358788
0.361336
0.364066
0.366951
0.370032
0.3733
0.350203
0.348467
0.347026
0.345679
0.344794
0.344037
0.344112
0.344565
0.345644
0.347701
0.350949
0.355486
0.361406
0.368686
0.377199
0.386693
0.396747
0.406659
0.415592
0.422294
0.42504
0.424362
0.421384
0.414229
0.403753
0.391615
0.380411
0.373731
0.375153
0.384567
0.402313
0.439237
0.611247
1.6196
0.350199
0.352077
0.354207
0.356442
0.358856
0.361396
0.364115
0.366989
0.370057
0.373309
0.348463
0.347017
0.34567
0.34478
0.344021
0.344095
0.34455
0.345643
0.347735
0.351063
0.355758
0.36196
0.36972
0.378927
0.389332
0.400633
0.412214
0.423363
0.432956
0.439849
0.443828
0.444014
0.439195
0.429736
0.416722
0.402007
0.388284
0.37911
0.378056
0.385044
0.400575
0.437408
0.615497
1.63701
0.348461
0.35024
0.352164
0.354288
0.35652
0.358925
0.361458
0.364166
0.367029
0.370082
0.373318
0.34701
0.345663
0.344768
0.344006
0.344079
0.344538
0.345644
0.347767
0.351167
0.356002
0.362457
0.370651
0.38055
0.391891
0.404356
0.417453
0.430564
0.442661
0.45278
0.461588
0.467137
0.465464
0.458235
0.446044
0.430193
0.412692
0.396309
0.384578
0.380991
0.385708
0.39912
0.435916
0.619839
1.65354
0.347003
0.348504
0.350328
0.352253
0.354371
0.3566
0.358996
0.361522
0.364219
0.36707
0.370107
0.373328
0.345656
0.344757
0.343993
0.344066
0.344528
0.345645
0.347797
0.351262
0.356225
0.362911
0.371501
0.382042
0.394359
0.408077
0.42263
0.437571
0.451922
0.464864
0.477474
0.488761
0.492736
0.488459
0.478269
0.462962
0.444012
0.423553
0.40441
0.390078
0.383957
0.386548
0.397985
0.434684
0.624016
1.66898
0.345652
0.347041
0.348596
0.350418
0.352345
0.354457
0.356682
0.359069
0.361588
0.364272
0.367112
0.370134
0.373337
0.344746
0.343982
0.344055
0.344519
0.345646
0.347824
0.351349
0.356428
0.363327
0.372285
0.383425
0.396675
0.411756
0.427939
0.444695
0.461198
0.476729
0.492734
0.508616
0.518834
0.520371
0.512761
0.499078
0.480298
0.458026
0.434482
0.412515
0.395567
0.386923
0.387431
0.397099
0.43371
0.628227
1.68367
0.344737
0.34569
0.347127
0.348691
0.350511
0.352439
0.354546
0.356767
0.359145
0.361655
0.364328
0.367155
0.370161
0.373347
0.343972
0.344045
0.344512
0.345648
0.34785
0.351429
0.356614
0.363709
0.373009
0.384711
0.39885
0.415266
0.433292
0.452181
0.470876
0.488945
0.508157
0.52828
0.54343
0.551571
0.549764
0.538122
0.520435
0.497868
0.472095
0.44538
0.420559
0.401003
0.389908
0.388356
0.39643
0.432917
0.632206
1.69734
0.343965
0.344763
0.345771
0.347214
0.34879
0.350607
0.352537
0.354637
0.356853
0.359222
0.361724
0.364384
0.367198
0.370187
0.373356
0.344037
0.344505
0.345651
0.347873
0.351502
0.356785
0.36406
0.373677
0.385907
0.400894
0.418599
0.438479
0.459899
0.481275
0.502008
0.524479
0.548794
0.568527
0.581759
0.586728
0.580643
0.564285
0.542138
0.515503
0.486096
0.456161
0.428485
0.406352
0.392881
0.389317
0.395929
0.432318
0.63619
1.71035
0.344032
0.343976
0.344823
0.345855
0.347306
0.348892
0.350706
0.352637
0.354731
0.356943
0.359302
0.361795
0.364442
0.367242
0.370213
0.373365
0.344498
0.345652
0.347894
0.351568
0.35694
0.364381
0.374291
0.387015
0.402808
0.421756
0.44347
0.467511
0.492183
0.516354
0.542399
0.571204
0.595548
0.613501
0.623467
0.624073
0.612731
0.590991
0.563987
0.53306
0.499921
0.466751
0.436246
0.411587
0.395819
0.390307
0.395575
0.431838
0.639898
1.72238
0.344495
0.34402
0.344004
0.344883
0.345945
0.347401
0.348998
0.350809
0.352741
0.354827
0.357034
0.359384
0.361867
0.3645
0.367284
0.370239
0.373374
0.345652
0.347912
0.351629
0.357082
0.364675
0.374855
0.388041
0.404594
0.424734
0.448255
0.474932
0.503073
0.531734
0.5626
0.596575
0.626034
0.648839
0.663364
0.668497
0.663404
0.645776
0.618009
0.585805
0.550407
0.513482
0.477088
0.443801
0.416683
0.398704
0.391314
0.395336
0.431505
0.643604
1.73387
0.345657
0.344454
0.343992
0.34404
0.344947
0.34604
0.347499
0.349107
0.350915
0.352848
0.354927
0.357129
0.359468
0.361939
0.364556
0.367325
0.370263
0.373382
0.347926
0.351683
0.357211
0.364943
0.375371
0.388986
0.406254
0.427531
0.452818
0.482109
0.513807
0.547471
0.584827
0.62603
0.661752
0.69029
0.709594
0.718574
0.716921
0.704578
0.679567
0.645143
0.60744
0.567442
0.526704
0.487123
0.451121
0.421622
0.40152
0.392331
0.395195
0.431244
0.647004
1.74443
0.347948
0.345577
0.344363
0.343949
0.344092
0.345014
0.346141
0.347602
0.349221
0.351024
0.352957
0.355029
0.357225
0.359551
0.362009
0.364611
0.367365
0.370287
0.373391
0.35173
0.357327
0.365187
0.375843
0.389854
0.40779
0.430146
0.457141
0.488998
0.52434
0.563382
0.607982
0.659366
0.704998
0.741354
0.766684
0.779481
0.779892
0.768928
0.747512
0.713929
0.672226
0.628761
0.58408
0.539532
0.49682
0.45818
0.426388
0.404255
0.393347
0.39513
0.431095
0.650409
1.75453
0.351785
0.347802
0.345384
0.344267
0.343911
0.344154
0.345085
0.346247
0.347708
0.349338
0.351138
0.35307
0.355134
0.35732
0.359633
0.362077
0.364663
0.367403
0.370311
0.373399
0.357429
0.365407
0.376274
0.390651
0.409208
0.432582
0.461213
0.495572
0.534628
0.579313
0.631591
0.695323
0.756975
0.807399
0.841547
0.859085
0.860485
0.848112
0.824698
0.792125
0.748712
0.699121
0.649661
0.600252
0.551923
0.50615
0.464962
0.430971
0.406901
0.394357
0.39514
0.430989
0.6535
1.76263
0.357538
0.351556
0.347436
0.345185
0.344182
0.343879
0.344226
0.34516
0.346358
0.347819
0.349458
0.351255
0.353185
0.355239
0.357413
0.359712
0.362142
0.364715
0.367441
0.370333
0.373406
0.365604
0.376663
0.39138
0.410514
0.434843
0.465033
0.501815
0.544613
0.595059
0.655435
0.734073
0.817486
0.892579
0.944068
0.968687
0.970655
0.953917
0.923629
0.88423
0.838285
0.783767
0.725709
0.670059
0.615905
0.563845
0.515096
0.471456
0.435363
0.409449
0.395352
0.395173
0.430979
0.656182
1.76944
0.365802
0.357201
0.350955
0.347057
0.345006
0.344107
0.343856
0.344304
0.345241
0.346473
0.347935
0.349583
0.351375
0.353299
0.35534
0.357503
0.359789
0.362206
0.364765
0.367477
0.370355
0.373414
0.377016
0.392043
0.411713
0.436936
0.468602
0.507719
0.554234
0.610452
0.679531
0.776203
0.887161
0.995716
1.07935
1.12135
1.12512
1.10188
1.05959
1.0061
0.947212
0.885756
0.818935
0.751888
0.689889
0.630999
0.575277
0.523646
0.477654
0.439558
0.411897
0.396333
0.395239
0.430991
0.658372
1.77678
0.377358
0.365327
0.356266
0.350332
0.34671
0.344841
0.344041
0.343843
0.344387
0.345329
0.346591
0.348057
0.34971
0.351495
0.35341
0.35544
0.35759
0.359863
0.362268
0.364814
0.367512
0.370377
0.373421
0.392647
0.41281
0.438869
0.471927
0.51328
0.563441
0.6254
0.704029
0.821885
0.965222
1.11371
1.23969
1.31849
1.33698
1.30788
1.25023
1.1757
1.0944
1.01301
0.934194
0.854037
0.777563
0.7091
0.645506
0.586208
0.531795
0.483555
0.443557
0.41424
0.397292
0.39532
0.431019
0.660817
1.78479
0.393217
0.37671
0.363925
0.355302
0.349753
0.346385
0.344688
0.343985
0.343841
0.344474
0.345425
0.346714
0.348182
0.349836
0.351613
0.353518
0.355537
0.357675
0.359936
0.362329
0.364861
0.367547
0.370397
0.373425
0.413816
0.440648
0.475018
0.518499
0.572206
0.63988
0.729028
0.870588
1.04925
1.24133
1.41565
1.54301
1.60132
1.58296
1.51069
1.41124
1.29942
1.1869
1.08075
0.983167
0.888878
0.802644
0.727651
0.659412
0.596633
0.539543
0.48916
0.447358
0.416476
0.398103
0.3954
0.431082
0.663436
1.79347
0.414743
0.392362
0.37466
0.362488
0.354398
0.349202
0.34608
0.344547
0.343939
0.34385
0.344564
0.345531
0.346839
0.34831
0.349958
0.351727
0.353623
0.355631
0.357758
0.360007
0.362387
0.364908
0.36758
0.370408
0.373425
0.442293
0.477881
0.523381
0.580517
0.653903
0.75448
0.921271
1.13625
1.37295
1.59834
1.7807
1.89288
1.91645
1.84998
1.72649
1.57998
1.42756
1.28172
1.14943
1.0322
0.923253
0.827052
0.745514
0.672705
0.606551
0.546894
0.494472
0.450963
0.418325
0.398803
0.395504
0.431175
0.666385
1.80297
0.443777
0.413636
0.389417
0.372573
0.361135
0.353533
0.348674
0.345794
0.344418
0.343903
0.343876
0.344653
0.345644
0.346963
0.348435
0.350078
0.35184
0.353725
0.355723
0.357839
0.360076
0.362444
0.364952
0.367597
0.370408
0.373425
0.480543
0.527938
0.588379
0.667477
0.780202
0.972744
1.22354
1.50404
1.7807
2.021
2.19478
2.27709
2.25357
2.12969
1.94895
1.75196
1.55715
1.37707
1.21809
1.08081
0.956963
0.850714
0.762666
0.685382
0.61597
0.553855
0.499497
0.453927
0.419901
0.399585
0.395636
0.431328
0.669529
1.81328
0.482904
0.442364
0.409459
0.386443
0.370603
0.359834
0.352698
0.348165
0.34553
0.3443
0.343874
0.343928
0.344743
0.345762
0.347084
0.348559
0.350194
0.351949
0.353825
0.355812
0.357917
0.360143
0.3625
0.364974
0.367597
0.370408
0.373425
0.532203
0.595812
0.680611
0.805936
1.02393
1.30909
1.63147
1.95791
2.25634
2.49551
2.64617
2.68555
2.60416
2.41526
2.17293
1.9235
1.68572
1.47139
1.28582
1.12855
0.989825
0.873565
0.779089
0.697447
0.624898
0.560436
0.503617
0.456444
0.421635
0.400458
0.395807
0.431517
0.673089
1.82458
0.53594
0.481127
0.436487
0.405278
0.38363
0.368702
0.358575
0.351893
0.347677
0.345282
0.344191
0.343835
0.344
0.344833
0.345882
0.347203
0.348679
0.350308
0.352056
0.353921
0.355899
0.357993
0.360208
0.362527
0.364974
0.367597
0.370408
0.373425
0.60286
0.693319
0.83142
1.07396
1.39155
1.75333
2.12701
2.48176
2.78677
3.01087
3.12522
3.10982
2.96119
2.70124
2.39443
2.09178
1.81136
1.56345
1.35191
1.17505
1.02168
0.89555
0.794777
0.708906
0.633346
0.565829
0.50711
0.459201
0.423545
0.401438
0.396017
0.431793
0.676885
1.83681
0.609029
0.533706
0.472878
0.430662
0.401316
0.380909
0.366857
0.357355
0.351117
0.347212
0.345052
0.344095
0.343801
0.344084
0.344923
0.346
0.34732
0.348798
0.350419
0.35216
0.354016
0.355983
0.358067
0.36024
0.362527
0.364974
0.367597
0.370408
0.373425
0.705617
0.85644
1.12221
1.47005
1.8685
2.28636
2.69429
3.06299
3.36149
3.55776
3.62352
3.54259
3.31879
2.98328
2.61045
2.25476
1.93266
1.65233
1.41578
1.21999
1.05238
0.91663
0.809728
0.71977
0.640275
0.5704
0.51093
0.462224
0.425652
0.402537
0.396286
0.432119
0.681215
1.85024
0.716466
0.606244
0.522033
0.464795
0.425132
0.397476
0.378263
0.365066
0.356177
0.350373
0.346775
0.344843
0.344009
0.34378
0.344171
0.345014
0.346117
0.347434
0.348913
0.350527
0.352261
0.354107
0.356065
0.358103
0.36024
0.362527
0.364974
0.367597
0.370408
0.373421
0.88079
1.16827
1.5441
1.97644
2.43516
2.89238
3.3208
3.6912
3.97125
4.12768
4.13335
3.97731
3.67197
3.258
2.81877
2.41101
2.04868
1.73738
1.47702
1.26314
1.08185
0.936776
0.823942
0.728695
0.64615
0.575396
0.51511
0.465542
0.427979
0.403774
0.396613
0.432573
0.685835
1.86473
0.713103
0.902237
0.589073
0.510818
0.457104
0.419766
0.393735
0.37569
0.363332
0.355042
0.349664
0.346367
0.344653
0.343939
0.343772
0.34426
0.345107
0.346232
0.347548
0.349026
0.350633
0.352359
0.354197
0.356106
0.358103
0.36024
0.362527
0.364974
0.367597
0.370397
0.373414
1.21186
1.61351
2.07697
2.57313
3.07541
3.55847
3.99573
4.35688
4.60734
4.7125
4.64742
4.4081
4.01657
3.52276
3.01786
2.5596
2.15883
1.81819
1.53535
1.30434
1.10999
0.955968
0.835648
0.736272
0.652579
0.580865
0.51969
0.469188
0.430553
0.405167
0.397025
0.433095
0.69115
1.88066
0.68619
0.899382
1.24941
0.57309
0.500153
0.449631
0.414532
0.390093
0.373193
0.361656
0.353953
0.348991
0.34599
0.344487
0.343886
0.343777
0.344348
0.345203
0.346344
0.34766
0.349135
0.350736
0.352455
0.354241
0.356106
0.358103
0.36024
0.362527
0.364974
0.36758
0.370376
0.373406
1.67818
2.17016
2.70038
3.24336
3.77549
4.27301
4.70902
5.05098
5.26129
5.30429
5.15885
4.82971
4.34917
3.77563
3.2067
2.70001
2.2628
1.89455
1.59062
1.34349
1.13676
0.971794
0.845601
0.744574
0.659619
0.586853
0.524711
0.473197
0.433403
0.406742
0.397518
0.433802
0.696823
1.89774
0.661583
0.856085
1.24743
1.73328
0.5581
0.489775
0.442342
0.409432
0.386554
0.370776
0.360043
0.352913
0.34836
0.345653
0.344345
0.343847
0.343796
0.344433
0.345301
0.346454
0.347769
0.349242
0.350837
0.352502
0.35424
0.356106
0.358103
0.36024
0.362527
0.364952
0.367546
0.370355
0.373398
2.25616
2.81735
3.39671
3.97221
4.52262
5.02497
5.45104
5.76476
5.9248
5.89531
5.6612
5.23758
4.66703
4.01526
3.38471
2.832
2.36046
1.96639
1.64276
1.38054
1.1588
0.98526
0.856523
0.753677
0.667337
0.593418
0.530221
0.477611
0.436565
0.40852
0.398139
0.434603
0.703411
1.91652
0.638917
0.815445
1.18337
1.73319
2.32906
0.543631
0.479638
0.435237
0.404472
0.383125
0.368444
0.358495
0.35193
0.347785
0.345359
0.344224
0.34382
0.343833
0.344515
0.3454
0.346561
0.347878
0.349347
0.350887
0.352502
0.35424
0.356106
0.358103
0.36024
0.362499
0.364907
0.367511
0.370332
0.37339
2.92441
3.53632
4.1496
4.74539
5.30445
5.80391
6.21278
6.48983
6.58964
6.4781
6.1486
5.62789
4.96816
4.24082
3.55164
2.95555
2.45187
2.03372
1.69176
1.41087
1.17752
1.00004
0.868518
0.76367
0.675804
0.60062
0.536272
0.482475
0.440077
0.41054
0.398872
0.435668
0.710447
1.93649
0.617511
0.777433
1.12053
1.65054
2.33206
3.0145
0.529556
0.469749
0.428329
0.399662
0.379813
0.366204
0.357029
0.351029
0.347272
0.345108
0.344122
0.343793
0.343888
0.344595
0.345501
0.346665
0.347985
0.349398
0.350887
0.352502
0.35424
0.356106
0.358103
0.360207
0.362443
0.36486
0.367476
0.37031
0.373382
3.66297
4.30916
4.94306
5.54897
6.10939
6.60037
6.98594
7.21799
7.24775
7.04554
6.61589
5.99765
5.25123
4.45189
3.70749
3.0708
2.53718
2.09666
1.73163
1.43653
1.19804
1.01628
0.881703
0.77465
0.685104
0.60853
0.542925
0.487841
0.443985
0.412828
0.399794
0.436863
0.718711
1.95849
0.597108
0.741566
1.05913
1.56759
2.23288
3.02106
3.76819
0.515855
0.460133
0.421634
0.395015
0.376629
0.364076
0.35568
0.35022
0.346811
0.34489
0.344036
0.343767
0.343952
0.344673
0.345602
0.34677
0.348038
0.349397
0.350887
0.352502
0.35424
0.356106
0.358066
0.360142
0.362386
0.364812
0.367439
0.370286
0.373374
4.45221
5.11805
5.76134
6.36984
6.92722
7.40615
7.76283
7.9412
7.89114
7.59104
7.05876
6.34469
5.51546
4.64844
3.85249
3.17804
2.6166
2.14761
1.76524
1.46453
1.22051
1.03412
0.896206
0.786723
0.695326
0.617225
0.550247
0.493768
0.448337
0.415439
0.400875
0.43835
0.727524
1.98157
0.577597
0.707756
0.998932
1.48445
2.13242
2.90688
3.77747
4.56871
0.502541
0.450817
0.415169
0.390545
0.373601
0.362114
0.354465
0.349493
0.346402
0.344704
0.343965
0.343749
0.344023
0.344751
0.345707
0.346819
0.348036
0.349396
0.350887
0.352502
0.354241
0.356065
0.357991
0.360074
0.362327
0.364763
0.367402
0.370262
0.373365
5.27247
5.94523
6.58946
7.19665
7.74965
8.21435
8.53613
8.65133
8.51205
8.1088
7.47391
6.66766
5.76061
4.8307
3.98702
3.27758
2.68067
2.19041
1.80174
1.49505
1.24513
1.05373
0.912169
0.800012
0.706574
0.626792
0.558312
0.500321
0.453194
0.418403
0.402232
0.439894
0.73799
2.0114
0.558915
0.676038
0.94015
1.40073
2.03061
2.79096
3.64881
4.57817
5.39439
0.489645
0.441832
0.408954
0.386295
0.37081
0.360345
0.35337
0.348842
0.346042
0.344544
0.343907
0.343739
0.344097
0.344836
0.345758
0.346813
0.348037
0.349396
0.350887
0.352502
0.354196
0.355982
0.357915
0.360005
0.362266
0.364713
0.367363
0.370238
0.373356
6.1039
6.77366
7.41462
8.02065
8.57057
9.01891
9.29849
9.34008
9.10318
8.59399
7.85903
6.96593
5.9869
4.99915
4.11152
3.35766
2.73438
2.23674
1.84135
1.52832
1.27209
1.07529
0.929748
0.81465
0.718962
0.637331
0.567207
0.507576
0.458619
0.421806
0.403805
0.441865
0.751128
2.04692
0.54102
0.646445
0.883246
1.31642
1.92697
2.67298
3.51871
4.43432
5.39963
6.22398
0.477205
0.433209
0.403048
0.382376
0.368289
0.358749
0.352386
0.348261
0.345727
0.344407
0.34386
0.343741
0.344182
0.34487
0.345755
0.346813
0.348037
0.349396
0.350887
0.352454
0.354106
0.355896
0.357836
0.359933
0.362204
0.364662
0.367324
0.370213
0.373347
6.9272
7.58879
8.22709
8.83626
9.38528
9.81411
10.0421
9.99909
9.65795
9.04293
8.21285
7.23961
6.1949
5.15439
4.21136
3.42464
2.79236
2.28684
1.88431
1.56455
1.3016
1.09899
0.949112
0.830784
0.732619
0.648952
0.577027
0.515618
0.464697
0.425679
0.405776
0.444357
0.768629
2.0822
0.523893
0.618952
0.828819
1.23185
1.82119
2.55242
3.38647
4.29028
5.23824
6.2191
7.0373
0.465262
0.425033
0.397606
0.378839
0.366014
0.35731
0.351501
0.347743
0.34545
0.344288
0.343827
0.343766
0.344222
0.344856
0.345757
0.346813
0.348036
0.349398
0.350837
0.352357
0.354013
0.355809
0.357755
0.359861
0.36214
0.364609
0.367283
0.370187
0.373337
7.72591
8.37943
9.02157
9.63975
10.1902
10.5939
10.7585
10.6202
10.1708
9.45323
8.53514
7.48933
6.3854
5.27832
4.29469
3.49681
2.85489
2.34097
1.93085
1.60394
1.33386
1.12502
0.970442
0.848577
0.747685
0.661778
0.587882
0.524543
0.471503
0.43015
0.408475
0.448051
0.787691
2.11686
0.507528
0.593465
0.777512
1.14759
1.7132
2.42868
3.25165
4.14487
5.07921
6.03556
7.0152
7.81564
0.453943
0.41752
0.392698
0.375649
0.363961
0.356014
0.350707
0.347282
0.345205
0.344189
0.343822
0.343767
0.344214
0.344854
0.345757
0.346813
0.348038
0.349346
0.350734
0.352258
0.353918
0.355719
0.357672
0.359786
0.362074
0.364555
0.367241
0.37016
0.373328
8.48691
9.14065
9.79368
10.4281
10.9824
11.3509
11.4389
11.1955
10.6376
9.82397
8.82651
7.71611
6.53645
5.38139
4.38421
3.57444
2.92225
2.39937
1.98118
1.64673
1.36909
1.15358
0.993931
0.868202
0.764316
0.675949
0.599891
0.534461
0.479162
0.436198
0.412399
0.452107
0.808927
2.15053
0.492042
0.569822
0.729934
1.06443
1.60317
2.30134
3.1134
3.99781
4.92066
5.8588
6.80257
7.76686
8.54435
0.443555
0.410761
0.388274
0.372772
0.362111
0.354847
0.349996
0.346869
0.344995
0.344134
0.343808
0.343741
0.344218
0.344854
0.345755
0.346819
0.347984
0.34924
0.35063
0.352156
0.353821
0.355627
0.357587
0.359709
0.362007
0.364499
0.367198
0.370133
0.373318
9.20245
9.8603
10.5322
11.1914
11.755
12.0784
12.073
11.7184
11.056
10.1555
9.08824
7.89426
6.66143
5.49167
4.48021
3.65784
2.9947
2.46227
2.03553
1.69311
1.40749
1.18489
1.01978
0.889843
0.78268
0.691613
0.613199
0.545504
0.489357
0.444226
0.416848
0.457216
0.832033
2.18296
0.477818
0.548002
0.686594
0.983344
1.49143
2.17017
2.97091
3.84807
4.76255
5.6858
6.60343
7.51717
8.45347
9.21801
0.434236
0.404682
0.384289
0.370179
0.360444
0.353798
0.349355
0.346504
0.344855
0.34409
0.343778
0.343741
0.344218
0.344856
0.345758
0.346769
0.347875
0.349132
0.350524
0.352052
0.353721
0.355533
0.3575
0.35963
0.361938
0.364442
0.367154
0.370107
0.373309
9.86906
10.5462
11.2524
11.9361
12.5
12.7631
12.6509
12.1839
11.4255
10.4492
9.29131
8.04061
6.79433
5.60936
4.58294
3.74725
3.07248
2.52991
2.0941
1.74327
1.44926
1.21915
1.04818
0.913691
0.80295
0.708947
0.627953
0.560087
0.50242
0.453125
0.422257
0.46292
0.857698
2.21379
0.465032
0.528315
0.647638
0.905566
1.3786
2.03508
2.8235
3.6945
4.60372
5.51676
6.41322
7.28955
8.1592
9.05559
9.82069
0.425887
0.399216
0.380701
0.367843
0.358942
0.352851
0.348785
0.346233
0.344762
0.344049
0.34378
0.343741
0.344214
0.34487
0.345706
0.346663
0.347766
0.349022
0.350415
0.351945
0.353619
0.355436
0.35741
0.35955
0.361867
0.364384
0.367111
0.370081
0.373299
10.4807
11.1978
11.9589
12.6669
13.2135
13.3932
13.1642
12.5898
11.7473
10.6734
9.45656
8.19493
6.93515
5.73459
4.6926
3.84288
3.1558
2.60247
2.15708
1.7974
1.49458
1.25653
1.07932
0.939932
0.825319
0.728107
0.647368
0.578482
0.516593
0.463133
0.428353
0.470054
0.885713
2.24276
0.453566
0.510739
0.614136
0.833305
1.2656
1.89619
2.67053
3.53593
4.44271
5.35032
6.23213
7.07805
7.89624
8.71041
9.56739
10.343
0.418414
0.394303
0.377474
0.36574
0.357586
0.352006
0.348346
0.346063
0.344705
0.344054
0.34378
0.343741
0.344222
0.344834
0.3456
0.346557
0.347655
0.348909
0.350303
0.351835
0.353514
0.355338
0.357318
0.359467
0.361795
0.364327
0.367069
0.370056
0.37329
11.0368
11.8204
12.6541
13.3845
13.8867
13.9556
13.6066
12.9361
11.9878
10.8535
9.6288
8.35679
7.08371
5.86737
4.80929
3.9449
3.24483
2.68011
2.22459
1.85562
1.54357
1.29719
1.11337
0.968753
0.84994
0.753235
0.671651
0.598177
0.532015
0.474193
0.435709
0.478122
0.916751
2.26949
0.443312
0.494954
0.585856
0.769316
1.15463
1.75383
2.51148
3.37112
4.27792
5.18477
6.05845
6.88268
7.65858
8.40543
9.15757
9.9798
10.7836
0.411725
0.38989
0.374571
0.36384
0.356373
0.35134
0.348082
0.345981
0.344713
0.344053
0.343777
0.343766
0.34418
0.344749
0.345497
0.34645
0.347543
0.348793
0.35019
0.351723
0.353407
0.355237
0.357224
0.359383
0.361723
0.364271
0.367028
0.370032
0.373282
11.5423
12.4244
13.3425
14.077
14.5038
14.4376
13.9755
13.1876
12.1776
11.0383
9.80696
8.52551
7.23964
6.00755
4.93302
4.05337
3.33967
2.76293
2.29674
1.91801
1.59634
1.34125
1.15048
1.00028
0.88206
0.784393
0.697385
0.61923
0.548702
0.486617
0.443989
0.488046
0.950798
2.29379
0.434163
0.480744
0.561711
0.714972
1.05026
1.60967
2.34599
3.19884
4.10753
5.01813
5.89022
6.70109
7.44595
8.13661
8.80245
9.4898
10.2791
11.1408
0.405739
0.385927
0.371953
0.36214
0.355403
0.35095
0.347974
0.345992
0.344712
0.344048
0.343807
0.343765
0.344094
0.34467
0.345396
0.34634
0.347429
0.348675
0.350074
0.351609
0.353297
0.355133
0.357128
0.359301
0.361653
0.364217
0.366988
0.370008
0.373273
12.0073
13.0244
14.0247
14.729
15.0432
14.8311
14.2332
13.3813
12.3681
11.2258
9.98958
8.70008
7.40231
6.15481
5.06366
4.16828
3.44034
2.85098
2.37356
1.9846
1.65291
1.38876
1.19069
1.04108
0.921434
0.817023
0.724509
0.641624
0.566799
0.500301
0.45389
0.499457
0.988383
2.31527
0.426016
0.467964
0.540813
0.669534
0.955767
1.46871
2.17515
3.01783
3.92953
4.84809
5.72511
6.53091
7.25493
7.90353
8.49753
9.07561
9.69537
10.4507
11.4128
0.400379
0.382359
0.369611
0.360767
0.354842
0.350808
0.34799
0.345991
0.344704
0.344089
0.343821
0.343739
0.344019
0.344591
0.345296
0.346227
0.347315
0.348554
0.349955
0.351493
0.353184
0.355028
0.357033
0.35922
0.361585
0.364164
0.366949
0.369985
0.373265
12.4496
13.6288
14.6962
15.3336
15.4744
15.0914
14.4245
13.5693