/*--------------------------------*- C++ -*----------------------------------*\
  =========                 |
  \\      /  F ield         | OpenFOAM: The Open Source CFD Toolbox
   \\    /   O peration     | Website:  https://openfoam.org
    \\  /    A nd           | Version:  8
     \\/     M anipulation  |
\*---------------------------------------------------------------------------*/
FoamFile
{
    version     2.0;
    format      ascii;
    class       volVectorField;
    location    "0.2";
    object      U;
}
// * * * * * * * * * * * * * * * * * * * * * * * * * * * * * * * * * * * * * //

dimensions      [0 1 -1 0 0 0 0];

internalField   nonuniform List<vector> 
15677
(
(-0.0399017 9.66595 0)
(0.0484957 9.92198 0)
(-0.00181307 9.37827 0)
(0.0206535 9.97701 0)
(0.0198933 9.78864 0)
(0.00731493 9.1412 0)
(0.0258404 9.99515 0)
(0.0165397 9.92466 0)
(0.0111822 9.65394 0)
(0.0064946 8.96056 0)
(0.0263326 10.0025 0)
(0.0205555 9.9787 0)
(0.016556 9.85199 0)
(0.00913081 9.5307 0)
(0.00516516 8.81679 0)
(0.0255725 10.0057 0)
(0.0215886 10.003 0)
(0.0194137 9.94148 0)
(0.0153754 9.77941 0)
(0.00799094 9.41962 0)
(0.0042496 8.70195 0)
(0.0245114 10.0071 0)
(0.0218711 10.0147 0)
(0.0210122 9.98475 0)
(0.0182678 9.90235 0)
(0.0138742 9.70791 0)
(0.00694286 9.32117 0)
(0.00355887 8.60945 0)
(0.0230997 10.0075 0)
(0.021749 10.0205 0)
(0.0218819 10.0068 0)
(0.0202193 9.96489 0)
(0.01699 9.86174 0)
(0.012475 9.64045 0)
(0.00599628 9.23572 0)
(0.00297956 8.53499 0)
(0.021412 10.0074 0)
(0.021199 10.0233 0)
(0.0221687 10.0184 0)
(0.0213145 9.99801 0)
(0.0190915 9.94353 0)
(0.0156562 9.82193 0)
(0.0111309 9.57899 0)
(0.00511828 9.16302 0)
(0.00244883 8.47584 0)
(0.019519 10.007 0)
(0.0203397 10.0235 0)
(0.0221306 10.0241 0)
(0.0218136 10.0161 0)
(0.0202657 9.98797 0)
(0.0177853 9.92241 0)
(0.0142192 9.78474 0)
(0.00976336 9.52467 0)
(0.00425793 9.1028 0)
(0.0019292 8.43051 0)
(0.0175043 10.0063 0)
(0.0192853 10.0223 0)
(0.0216904 10.0271 0)
(0.0218422 10.026 0)
(0.0208085 10.0129 0)
(0.0189451 9.97821 0)
(0.0162774 9.90299 0)
(0.0126339 9.75138 0)
(0.00831547 9.47842 0)
(0.00337092 9.05485 0)
(0.0013922 8.39795 0)
(0.0154034 10.0056 0)
(0.017978 10.0206 0)
(0.0209634 10.0281 0)
(0.0215054 10.0315 0)
(0.0208555 10.0271 0)
(0.0194235 10.01 0)
(0.0173206 9.96999 0)
(0.0145134 9.88621 0)
(0.0108466 9.72299 0)
(0.00673871 9.44102 0)
(0.00241679 9.01906 0)
(0.00081535 8.37786 0)
(0.0132666 10.0048 0)
(0.0164964 10.0185 0)
(0.0198933 10.0274 0)
(0.0208394 10.034 0)
(0.0204898 10.0352 0)
(0.0193684 10.0285 0)
(0.0176275 10.0086 0)
(0.0153326 9.96408 0)
(0.012424 9.87307 0)
(0.00879893 9.70062 0)
(0.00498385 9.41316 0)
(0.0013628 8.99545 0)
(0.000170124 8.36996 0)
(0.0111654 10.0041 0)
(0.0149019 10.0162 0)
(0.0185471 10.0258 0)
(0.0198641 10.0344 0)
(0.0197726 10.0394 0)
(0.0188678 10.0393 0)
(0.0173516 10.0313 0)
(0.015355 10.0094 0)
(0.0128979 9.96136 0)
(0.00993359 9.86452 0)
(0.00642943 9.68526 0)
(0.00300631 9.39545 0)
(0.000181713 8.98412 0)
(-0.000482831 8.37421 0)
(0.00927365 10.0034 0)
(0.0132041 10.014 0)
(0.0169636 10.0235 0)
(0.0185801 10.0334 0)
(0.018719 10.041 0)
(0.0179714 10.0453 0)
(0.0165838 10.0447 0)
(0.0147319 10.0362 0)
(0.0125055 10.0131 0)
(0.00992097 9.96266 0)
(0.00696265 9.86152 0)
(0.00368105 9.67786 0)
(0.000768102 9.38848 0)
(-0.00112816 8.98534 0)
(-0.0012405 8.39064 0)
(0.00772892 10.0029 0)
(0.0116437 10.0119 0)
(0.0151817 10.0209 0)
(0.0170013 10.0313 0)
(0.0173295 10.0407 0)
(0.0166984 10.048 0)
(0.0153697 10.0524 0)
(0.0135558 10.0522 0)
(0.0113915 10.0439 0)
(0.0089624 10.0207 0)
(0.00630038 9.96887 0)
(0.00343453 9.86502 0)
(0.000498228 9.67931 0)
(-0.0017791 9.39282 0)
(-0.00262067 8.99922 0)
(-0.00208948 8.41948 0)
(0.00641682 10.0024 0)
(0.010251 10.0102 0)
(0.0134477 10.0184 0)
(0.0151573 10.0285 0)
(0.015608 10.039 0)
(0.0150526 10.0485 0)
(0.0137278 10.0563 0)
(0.0118698 10.0616 0)
(0.00964656 10.0624 0)
(0.00719043 10.0553 0)
(0.00460036 10.0328 0)
(0.00193667 9.98085 0)
(-0.000721771 9.87596 0)
(-0.00316353 9.69043 0)
(-0.00465164 9.40897 0)
(-0.00429156 9.02597 0)
(-0.00302786 8.46074 0)
(0.00531242 10.002 0)
(0.00899492 10.0087 0)
(0.0118718 10.0162 0)
(0.0132911 10.0256 0)
(0.0135713 10.0363 0)
(0.0130346 10.0472 0)
(0.0116614 10.0575 0)
(0.00968893 10.0665 0)
(0.00731013 10.0733 0)
(0.00469062 10.0761 0)
(0.00197757 10.071 0)
(-0.00070553 10.0503 0)
(-0.00326522 9.99948 0)
(-0.00557343 9.89521 0)
(-0.00734668 9.71196 0)
(-0.00787442 9.43728 0)
(-0.00614394 9.0656 0)
(-0.00405072 8.51441 0)
(0.00438867 10.0016 0)
(0.00786214 10.0074 0)
(0.0104161 10.0143 0)
(0.0115612 10.023 0)
(0.0114782 10.0332 0)
(0.010653 10.0446 0)
(0.00917067 10.0566 0)
(0.00701407 10.0683 0)
(0.00439194 10.0792 0)
(0.00149575 10.0884 0)
(-0.00149207 10.094 0)
(-0.00439983 10.0919 0)
(-0.00707445 10.0741 0)
(-0.00938893 10.0256 0)
(-0.0111709 9.92358 0)
(-0.0120775 9.74446 0)
(-0.0114596 9.478 0)
(-0.00818101 9.11816 0)
(-0.0051556 8.58031 0)
(0.00361431 10.0013 0)
(0.00684121 10.0062 0)
(0.00907421 10.0126 0)
(0.00993532 10.0206 0)
(0.009523 10.0302 0)
(0.00820041 10.0413 0)
(0.00626264 10.0541 0)
(0.00384474 10.0677 0)
(0.000888742 10.0816 0)
(-0.00239204 10.0952 0)
(-0.00578623 10.1076 0)
(-0.00908532 10.1169 0)
(-0.0120883 10.1188 0)
(-0.0146136 10.1048 0)
(-0.0165026 10.06 0)
(-0.0175461 9.96173 0)
(-0.017365 9.78838 0)
(-0.015403 9.53123 0)
(-0.010389 9.18338 0)
(-0.00632923 8.65804 0)
(0.00298266 10.001 0)
(0.00592845 10.0052 0)
(0.00784207 10.011 0)
(0.00842041 10.0184 0)
(0.00767734 10.0274 0)
(0.00590703 10.0379 0)
(0.00328502 10.0505 0)
(0.000189907 10.0651 0)
(-0.00320113 10.0811 0)
(-0.00698189 10.0979 0)
(-0.0109132 10.1151 0)
(-0.0147542 10.1316 0)
(-0.0182659 10.1455 0)
(-0.0212196 10.1523 0)
(-0.0234089 10.1433 0)
(-0.0246493 10.1033 0)
(-0.0247108 10.0102 0)
(-0.0231998 9.84394 0)
(-0.0196875 9.59687 0)
(-0.0127581 9.26101 0)
(-0.0075639 8.74713 0)
(0.00248112 10.0008 0)
(0.0051024 10.0044 0)
(0.0067173 10.0096 0)
(0.00702008 10.0164 0)
(0.00595796 10.0247 0)
(0.00374472 10.0346 0)
(0.000510381 10.0467 0)
(-0.00352081 10.0612 0)
(-0.00786498 10.0783 0)
(-0.0122774 10.0974 0)
(-0.0168904 10.118 0)
(-0.0214292 10.1396 0)
(-0.0256191 10.1612 0)
(-0.029193 10.1806 0)
(-0.0319 10.1933 0)
(-0.0335164 10.1902 0)
(-0.0338446 10.156 0)
(-0.0326514 10.0693 0)
(-0.0295546 9.91121 0)
(-0.0242818 9.67468 0)
(-0.0152556 9.35038 0)
(-0.00883592 8.84672 0)
(0.00209581 10.0007 0)
(0.00439593 10.0037 0)
(0.0056919 10.0084 0)
(0.00573578 10.0146 0)
(0.00437424 10.0221 0)
(0.00173951 10.0314 0)
(-0.002094 10.0428 0)
(-0.00695886 10.0568 0)
(-0.0125606 10.0738 0)
(-0.0182613 10.0942 0)
(-0.0237247 10.1174 0)
(-0.0291389 10.1426 0)
(-0.0341898 10.1695 0)
(-0.0385717 10.1971 0)
(-0.0419965 10.2229 0)
(-0.044201 10.2423 0)
(-0.0449577 10.246 0)
(-0.0440712 10.2186 0)
(-0.0413291 10.1393 0)
(-0.036381 9.99001 0)
(-0.0291385 9.76412 0)
(-0.01786 9.45088 0)
(-0.0101263 8.95606 0)
(0.00179826 10.0006 0)
(0.00382129 10.0032 0)
(0.00480549 10.0074 0)
(0.00456754 10.0129 0)
(0.00293184 10.0198 0)
(-9.27381e-05 10.0283 0)
(-0.00449278 10.0389 0)
(-0.0101671 10.0521 0)
(-0.0168853 10.0687 0)
(-0.0242429 10.089 0)
(-0.0313933 10.1136 0)
(-0.0378956 10.1415 0)
(-0.0440218 10.1723 0)
(-0.0494221 10.2055 0)
(-0.0537688 10.2399 0)
(-0.0567658 10.273 0)
(-0.0581523 10.2998 0)
(-0.0577142 10.311 0)
(-0.0552788 10.2912 0)
(-0.0506763 10.2199 0)
(-0.043608 10.08 0)
(-0.0342026 9.86455 0)
(-0.0205054 9.56145 0)
(-0.0113689 9.07353 0)
(0.0015643 10.0005 0)
(0.00335245 10.0028 0)
(0.00407749 10.0066 0)
(0.00356138 10.0114 0)
(0.00163472 10.0176 0)
(-0.00174145 10.0253 0)
(-0.00666266 10.035 0)
(-0.0131002 10.0474 0)
(-0.0208976 10.0631 0)
(-0.0297235 10.0829 0)
(-0.0390165 10.1073 0)
(-0.0476704 10.1369 0)
(-0.0551355 10.1707 0)
(-0.0618085 10.208 0)
(-0.0673149 10.2482 0)
(-0.0713214 10.2902 0)
(-0.073541 10.3313 0)
(-0.0737349 10.3662 0)
(-0.0717243 10.3855 0)
(-0.0673799 10.3738 0)
(-0.0605961 10.311 0)
(-0.0511494 10.1805 0)
(-0.0393563 9.97506 0)
(-0.0230748 9.68079 0)
(-0.0122736 9.19726 0)
(0.00137778 10.0005 0)
(0.00296747 10.0025 0)
(0.00348164 10.0059 0)
(0.00274126 10.0102 0)
(0.00053475 10.0157 0)
(-0.00319918 10.0225 0)
(-0.00858729 10.0313 0)
(-0.0157264 10.0426 0)
(-0.024541 10.0573 0)
(-0.0347831 10.0761 0)
(-0.045973 10.0999 0)
(-0.0573486 10.1293 0)
(-0.0674967 10.1648 0)
(-0.0757628 10.2054 0)
(-0.082725 10.2502 0)
(-0.0880047 10.2983 0)
(-0.0912825 10.3486 0)
(-0.0923033 10.3982 0)
(-0.0908768 10.4417 0)
(-0.0868824 10.4695 0)
(-0.0802516 10.4663 0)
(-0.0709693 10.4121 0)
(-0.0588536 10.2908 0)
(-0.0445472 10.0944 0)
(-0.0257603 9.80835 0)
(-0.0144013 9.32728 0)
(0.00122726 10.0004 0)
(0.00264888 10.0022 0)
(0.00299039 10.0054 0)
(0.00207771 10.0092 0)
(-0.000344535 10.014 0)
(-0.00440695 10.0199 0)
(-0.010255 10.0277 0)
(-0.0180221 10.0379 0)
(-0.0277733 10.0513 0)
(-0.0393519 10.0689 0)
(-0.0523711 10.0917 0)
(-0.066156 10.1204 0)
(-0.079704 10.1557 0)
(-0.0912479 10.1981 0)
(-0.100049 10.2465 0)
(-0.106939 10.2995 0)
(-0.111561 10.3563 0)
(-0.113636 10.4155 0)
(-0.112974 10.474 0)
(-0.109456 10.5263 0)
(-0.103038 10.5628 0)
(-0.0937359 10.568 0)
(-0.0816018 10.5224 0)
(-0.0665774 10.4097 0)
(-0.0490199 10.2218 0)
(-0.0222675 9.93779 0)
(-0.0101369 9.40103 0)
(0.00110438 10.0004 0)
(0.00238363 10.002 0)
(0.00258774 10.0049 0)
(0.00153962 10.0084 0)
(-0.00103983 10.0126 0)
(-0.00534446 10.0177 0)
(-0.011598 10.0243 0)
(-0.0199704 10.0333 0)
(-0.0305624 10.0454 0)
(-0.0433751 10.0615 0)
(-0.0581246 10.0828 0)
(-0.0742361 10.1102 0)
(-0.0907947 10.1447 0)
(-0.106518 10.187 0)
(-0.119247 10.2374 0)
(-0.128198 10.2945 0)
(-0.134544 10.3565 0)
(-0.137979 10.4225 0)
(-0.1383 10.491 0)
(-0.13541 10.5587 0)
(-0.129287 10.62 0)
(-0.119993 10.665 0)
(-0.107603 10.6785 0)
(-0.0923102 10.641 0)
(-0.0738102 10.5363 0)
(-0.0524632 10.3541 0)
(-0.0173455 10.098 0)
(-0.00165463 9.45435 0)
(0.0010029 10.0003 0)
(0.00216182 10.0019 0)
(0.00224914 10.0045 0)
(0.00110076 10.0077 0)
(-0.00158833 10.0114 0)
(-0.00605963 10.0158 0)
(-0.0126018 10.0214 0)
(-0.0214918 10.0289 0)
(-0.0328843 10.0394 0)
(-0.04681 10.0539 0)
(-0.0631637 10.0735 0)
(-0.0814829 10.0992 0)
(-0.100957 10.1323 0)
(-0.120383 10.1737 0)
(-0.138173 10.2239 0)
(-0.151752 10.2833 0)
(-0.16034 10.3498 0)
(-0.165546 10.4215 0)
(-0.167161 10.4973 0)
(-0.165103 10.5753 0)
(-0.159394 10.6522 0)
(-0.150138 10.7222 0)
(-0.13748 10.7756 0)
(-0.121608 10.797 0)
(-0.10255 10.767 0)
(-0.0797353 10.6694 0)
(-0.0550733 10.4997 0)
(-0.0183836 10.2588 0)
(0.00375448 9.49854 0)
(0.00091826 10.0003 0)
(0.0019758 10.0017 0)
(0.00196744 10.0042 0)
(0.000747062 10.0071 0)
(-0.0020206 10.0104 0)
(-0.00659966 10.0142 0)
(-0.0133306 10.0189 0)
(-0.0225805 10.0251 0)
(-0.0346438 10.0338 0)
(-0.0496233 10.0463 0)
(-0.0674319 10.0639 0)
(-0.087808 10.0876 0)
(-0.110059 10.1188 0)
(-0.133086 10.1585 0)
(-0.155364 10.2078 0)
(-0.174983 10.2669 0)
(-0.188925 10.3362 0)
(-0.196486 10.4131 0)
(-0.199839 10.495 0)
(-0.198922 10.5807 0)
(-0.193804 10.6683 0)
(-0.184658 10.7542 0)
(-0.171705 10.8327 0)
(-0.155208 10.8939 0)
(-0.135257 10.9225 0)
(-0.111715 10.8996 0)
(-0.0843967 10.8099 0)
(-0.0564249 10.6573 0)
(-0.0208438 10.4152 0)
(0.00481239 9.54169 0)
(0.000847065 10.0003 0)
(0.00181913 10.0016 0)
(0.00173117 10.0039 0)
(0.000456629 10.0066 0)
(-0.00235997 10.0095 0)
(-0.00700265 10.0128 0)
(-0.0138454 10.0166 0)
(-0.0233226 10.0217 0)
(-0.0358466 10.0287 0)
(-0.0516993 10.039 0)
(-0.0708844 10.0542 0)
(-0.0931379 10.0756 0)
(-0.117992 10.1044 0)
(-0.144465 10.1419 0)
(-0.171126 10.1895 0)
(-0.196111 10.2477 0)
(-0.217151 10.3168 0)
(-0.230807 10.3968 0)
(-0.236545 10.4845 0)
(-0.237232 10.5769 0)
(-0.233 10.6727 0)
(-0.224101 10.7696 0)
(-0.210864 10.8643 0)
(-0.19365 10.9507 0)
(-0.172713 11.019 0)
(-0.148041 11.0545 0)
(-0.12018 11.0386 0)
(-0.0888528 10.9578 0)
(-0.0574731 10.8213 0)
(-0.0230565 10.5665 0)
(0.00441399 9.59782 0)
(0.000786763 10.0003 0)
(0.00168643 10.0015 0)
(0.00153549 10.0037 0)
(0.000218332 10.0061 0)
(-0.00262684 10.0087 0)
(-0.00729907 10.0115 0)
(-0.0141956 10.0147 0)
(-0.0237983 10.0187 0)
(-0.0366076 10.0243 0)
(-0.0530572 10.0325 0)
(-0.0733778 10.0449 0)
(-0.0974124 10.0633 0)
(-0.124659 10.0894 0)
(-0.154381 10.1242 0)
(-0.185265 10.1693 0)
(-0.215514 10.2257 0)
(-0.242872 10.2939 0)
(-0.264762 10.3739 0)
(-0.277323 10.4653 0)
(-0.280317 10.5644 0)
(-0.277437 10.6675 0)
(-0.269049 10.7731 0)
(-0.255613 10.8791 0)
(-0.23763 10.9818 0)
(-0.215527 11.0754 0)
(-0.18954 11.1505 0)
(-0.160151 11.1926 0)
(-0.12857 11.1832 0)
(-0.0939426 11.112 0)
(-0.0592803 10.9868 0)
(-0.0254011 10.7297 0)
(0.00335304 9.66382 0)
(0.000735361 10.0002 0)
(0.00157342 10.0014 0)
(0.00137036 10.0035 0)
(1.96847e-05 10.0057 0)
(-0.00283643 10.0081 0)
(-0.00751314 10.0104 0)
(-0.0144202 10.013 0)
(-0.0240719 10.0161 0)
(-0.0370324 10.0203 0)
(-0.0538496 10.0267 0)
(-0.0749474 10.0364 0)
(-0.100452 10.0514 0)
(-0.129981 10.074 0)
(-0.162714 10.1057 0)
(-0.197606 10.1477 0)
(-0.232958 10.2014 0)
(-0.266556 10.2678 0)
(-0.295784 10.347 0)
(-0.317771 10.4386 0)
(-0.328278 10.5421 0)
(-0.327488 10.6527 0)
(-0.320066 10.7664 0)
(-0.306645 10.8816 0)
(-0.287912 10.996 0)
(-0.264507 11.1062 0)
(-0.236917 11.2065 0)
(-0.205776 11.2878 0)
(-0.172031 11.3357 0)
(-0.137044 11.3323 0)
(-0.0996559 11.2697 0)
(-0.0622488 11.1706 0)
(-0.0278677 10.905 0)
(0.00173631 9.73823 0)
(0.00069125 10.0002 0)
(0.0014767 10.0014 0)
(0.00123043 10.0033 0)
(-0.000143726 10.0054 0)
(-0.0030012 10.0075 0)
(-0.00766396 10.0095 0)
(-0.0145501 10.0115 0)
(-0.0241944 10.0138 0)
(-0.0372054 10.0169 0)
(-0.0542145 10.0215 0)
(-0.0757928 10.0288 0)
(-0.10231 10.0406 0)
(-0.133731 10.059 0)
(-0.169358 10.0865 0)
(-0.207995 10.1249 0)
(-0.248227 10.1753 0)
(-0.287917 10.2388 0)
(-0.324443 10.3162 0)
(-0.354841 10.4074 0)
(-0.375992 10.5114 0)
(-0.383336 10.6272 0)
(-0.377634 10.7494 0)
(-0.36465 10.8734 0)
(-0.345315 10.9976 0)
(-0.320534 11.1199 0)
(-0.291087 11.2368 0)
(-0.257796 11.3431 0)
(-0.221732 11.4298 0)
(-0.183894 11.4826 0)
(-0.145531 11.484 0)
(-0.106137 11.4476 0)
(-0.0660272 11.371 0)
(-0.030488 11.0749 0)
(-3.82268e-05 9.81891 0)
(0.000653434 10.0002 0)
(0.00139333 10.0013 0)
(0.00111163 10.0031 0)
(-0.000279121 10.0051 0)
(-0.0031304 10.007 0)
(-0.00776648 10.0087 0)
(-0.0146094 10.0102 0)
(-0.0242058 10.0118 0)
(-0.0371932 10.0138 0)
(-0.0542622 10.0169 0)
(-0.0760931 10.0221 0)
(-0.103243 10.0309 0)
(-0.135979 10.0453 0)
(-0.174024 10.0678 0)
(-0.216295 10.1013 0)
(-0.261128 10.1477 0)
(-0.306691 10.2076 0)
(-0.350399 10.2821 0)
(-0.389223 10.3716 0)
(-0.419883 10.4756 0)
(-0.439089 10.5924 0)
(-0.442044 10.7208 0)
(-0.430241 10.8543 0)
(-0.410665 10.9881 0)
(-0.38456 11.1207 0)
(-0.353054 11.25 0)
(-0.317236 11.3729 0)
(-0.278312 11.4844 0)
(-0.237517 11.5755 0)
(-0.195722 11.6315 0)
(-0.154785 11.655 0)
(-0.113092 11.644 0)
(-0.0701318 11.5665 0)
(-0.0330069 11.2389 0)
(-0.00176468 9.90396 0)
(0.00132086 10.0013 0)
(0.000608577 10.0002 0)
(0.00100975 10.003 0)
(-0.000391552 10.0048 0)
(-0.00323145 10.0065 0)
(-0.00783243 10.008 0)
(-0.0146172 10.0091 0)
(-0.0241374 10.01 0)
(-0.0370481 10.0111 0)
(-0.0540799 10.0129 0)
(-0.0759918 10.0162 0)
(-0.103482 10.0223 0)
(-0.137054 10.0329 0)
(-0.1768 10.0506 0)
(-0.222137 10.0781 0)
(-0.271484 10.1189 0)
(-0.322637 10.1744 0)
(-0.373329 10.2451 0)
(-0.420512 10.3318 0)
(-0.460773 10.4344 0)
(-0.490587 10.5518 0)
(-0.506591 10.6818 0)
(-0.503844 10.8226 0)
(-0.484729 10.9671 0)
(-0.457563 11.11 0)
(-0.423912 11.2502 0)
(-0.385228 11.3857 0)
(-0.342954 11.5137 0)
(-0.298473 11.6292 0)
(-0.25303 11.723 0)
(-0.208615 11.7989 0)
(-0.164588 11.8443 0)
(-0.119748 11.8374 0)
(-0.0741943 11.7555 0)
(-0.0353203 11.3966 0)
(-0.00330127 9.9916 0)
(0.000920328 10.0029 0)
(0.00123771 10.0012 0)
(0.00055514 10.0002 0)
(-0.00048575 10.0046 0)
(-0.00330995 10.0061 0)
(-0.0078707 10.0073 0)
(-0.0145878 10.0081 0)
(-0.0240131 10.0085 0)
(-0.0368104 10.0088 0)
(-0.0537356 10.0093 0)
(-0.0756021 10.0109 0)
(-0.103212 10.0146 0)
(-0.137248 10.0219 0)
(-0.178096 10.0351 0)
(-0.225621 10.0568 0)
(-0.278825 10.0905 0)
(-0.335527 10.1396 0)
(-0.392933 10.2056 0)
(-0.448321 10.2885 0)
(-0.498189 10.3884 0)
(-0.538801 10.5049 0)
(-0.56648 10.6362 0)
(-0.577904 10.7794 0)
(-0.568095 10.9323 0)
(-0.540483 11.0872 0)
(-0.504811 11.2385 0)
(-0.463019 11.3853 0)
(-0.416914 11.526 0)
(-0.36815 11.658 0)
(-0.318135 11.776 0)
(-0.269754 11.8887 0)
(-0.222137 11.984 0)
(-0.173824 12.0313 0)
(-0.125919 12.0255 0)
(-0.0780193 11.9372 0)
(-0.0373945 11.5479 0)
(-0.00471003 10.0801 0)
(-0.000569604 10.0044 0)
(0.000826496 10.0027 0)
(0.00113649 10.0011 0)
(0.000504188 10.0002 2.02246e-19)
(-0.00337083 10.0058 0)
(-0.00788775 10.0068 0)
(-0.0145325 10.0072 0)
(-0.0238515 10.0071 0)
(-0.0365114 10.0067 0)
(-0.0532819 10.0062 0)
(-0.0750123 10.0062 0)
(-0.102578 10.0077 0)
(-0.136795 10.0121 0)
(-0.178279 10.0212 0)
(-0.227251 10.0375 0)
(-0.283249 10.0643 0)
(-0.34476 10.1053 0)
(-0.408922 10.1642 0)
(-0.472279 10.2421 0)
(-0.531669 10.3382 0)
(-0.583185 10.4525 0)
(-0.622849 10.5835 0)
(-0.646949 10.7289 0)
(-0.652336 10.8853 0)
(-0.634107 11.0498 0)
(-0.596886 11.2141 0)
(-0.551941 11.3728 0)
(-0.501599 11.5251 0)
(-0.447914 11.6699 0)
(-0.392624 11.8043 0)
(-0.339245 11.9408 0)
(-0.287194 12.0717 0)
(-0.234675 12.1667 0)
(-0.182318 12.2139 0)
(-0.13149 12.207 0)
(-0.0814927 12.1109 0)
(-0.0391815 11.6925 0)
(-0.00596026 10.1679 0)
(-0.00342772 10.0055 0)
(-0.00064074 10.0041 0)
(0.0007204 10.0026 9.03367e-19)
(0.0010393 10.001 -6.40835e-19)
(0.000455581 10.0002 -4.03363e-19)
(-0.00788939 10.0063 0)
(-0.0144586 10.0064 0)
(-0.0236663 10.0059 0)
(-0.0361746 10.0048 0)
(-0.052759 10.0034 0)
(-0.0742903 10.0021 0)
(-0.101694 10.0017 0)
(-0.135883 10.0033 0)
(-0.177645 10.0087 0)
(-0.227485 10.0201 0)
(-0.285374 10.0405 0)
(-0.350426 10.0734 0)
(-0.420533 10.123 0)
(-0.492026 10.1931 0)
(-0.560764 10.2843 0)
(-0.623193 10.395 0)
(-0.675074 10.5244 0)
(-0.712301 10.6704 0)
(-0.731261 10.83 0)
(-0.72912 10.999 0)
(-0.701163 11.1743 0)
(-0.653353 11.3472 0)
(-0.598542 11.512 0)
(-0.539349 11.6687 0)
(-0.477966 11.816 0)
(-0.41882 11.9688 0)
(-0.361224 12.123 0)
(-0.303272 12.2525 0)
(-0.24607 12.3453 0)
(-0.189946 12.3907 0)
(-0.136408 12.3811 0)
(-0.084563 12.2763 0)
(-0.0406852 11.8301 0)
(-0.00704431 10.2541 0)
(-0.00789593 10.0058 0)
(-0.00344013 10.0051 -1.93051e-18)
(-0.000703168 10.0038 -9.52876e-19)
(0.000619914 10.0024 4.5069e-19)
(0.000945841 10.001 -4.25941e-19)
(0.000409389 10.0001 0)
(-0.0143725 10.0057 0)
(-0.0234666 10.0048 0)
(-0.0358175 10.0032 0)
(-0.0521974 10.0009 0)
(-0.0734881 9.99841 0)
(-0.100647 9.99628 0)
(-0.134656 9.99554 0)
(-0.176429 9.99763 0)
(-0.22669 10.0046 0)
(-0.285757 10.0191 0)
(-0.353261 10.0444 0)
(-0.42782 10.0847 0)
(-0.506593 10.1443 0)
(-0.585025 10.2271 0)
(-0.658291 10.3329 0)
(-0.722525 10.4592 0)
(-0.773262 10.6044 0)
(-0.806401 10.7656 0)
(-0.818586 10.9391 0)
(-0.807442 11.1201 0)
(-0.768553 11.3052 0)
(-0.709335 11.4854 0)
(-0.644194 11.6553 0)
(-0.575933 11.8148 0)
(-0.510082 11.9805 0)
(-0.446057 12.1508 0)
(-0.381438 12.303 0)
(-0.31784 12.4291 0)
(-0.256221 12.5183 0)
(-0.196668 12.5608 0)
(-0.140668 12.5472 0)
(-0.0872202 12.4332 0)
(-0.041929 11.9605 0)
(-0.00796735 10.3375 0)
(-0.0143046 10.0051 0)
(-0.00781034 10.0053 4.07115e-18)
(-0.0033984 10.0047 0)
(-0.000761495 10.0036 9.50425e-19)
(0.000525646 10.0022 1.46525e-22)
(0.000856026 10.0009 0)
(0.000365638 10.0001 0)
(-0.0232589 10.0039 0)
(-0.0354509 10.0017 0)
(-0.0516193 9.99875 0)
(-0.0726453 9.99517 0)
(-0.0995049 9.99153 0)
(-0.133227 9.98865 0)
(-0.174816 9.98777 0)
(-0.225161 9.99069 0)
(-0.284852 9.99981 0)
(-0.35394 10.0182 0)
(-0.431653 10.0498 0)
(-0.515974 10.0987 0)
(-0.603235 10.1698 0)
(-0.687924 10.2668 0)
(-0.764568 10.3885 0)
(-0.829112 10.5313 0)
(-0.876993 10.6927 0)
(-0.904281 10.8692 0)
(-0.90803 11.056 0)
(-0.886469 11.2481 0)
(-0.835578 11.4418 0)
(-0.764288 11.628 0)
(-0.688473 11.8012 0)
(-0.615029 11.9794 0)
(-0.543467 12.1627 0)
(-0.471065 12.3308 0)
(-0.399728 12.479 0)
(-0.330809 12.6002 0)
(-0.265113 12.6849 0)
(-0.202487 12.7234 0)
(-0.144291 12.705 0)
(-0.0894758 12.5815 0)
(-0.04294 12.0837 0)
(-0.00874194 10.4178 0)
(-0.0230881 10.0031 0)
(-0.0140764 10.0044 4.21873e-22)
(-0.00759675 10.0047 0)
(-0.00335667 10.0043 -1.00217e-18)
(-0.000810439 10.0033 9.85348e-23)
(0.000437444 10.0021 0)
(0.000769969 10.0008 0)
(0.000324333 10.0001 0)
(-0.0350816 10.0005 0)
(-0.0510378 9.99683 0)
(-0.07179 9.99231 0)
(-0.0983181 9.98732 0)
(-0.131681 9.98254 0)
(-0.172948 9.97902 0)
(-0.223129 9.97832 0)
(-0.283022 9.98259 0)
(-0.353016 9.99465 0)
(-0.432838 10.018 0)
(-0.521177 10.057 0)
(-0.615285 10.1162 0)
(-0.710574 10.2003 0)
(-0.800532 10.313 0)
(-0.879107 10.4518 0)
(-0.942221 10.6117 0)
(-0.985379 10.7896 0)
(-1.00499 10.9808 0)
(-0.998668 11.1803 0)
(-0.965373 11.3823 0)
(-0.90156 11.5833 0)
(-0.817679 11.7738 0)
(-0.735829 11.9662 0)
(-0.65569 12.1622 0)
(-0.574121 12.3432 0)
(-0.493676 12.507 0)
(-0.416008 12.6497 0)
(-0.342171 12.7652 0)
(-0.272779 12.8445 0)
(-0.20744 12.8782 0)
(-0.147313 12.8543 0)
(-0.0913524 12.7211 0)
(-0.0437463 12.1996 0)
(-0.00938369 10.4944 0)
(-0.0347749 9.99935 0)
(-0.022661 10.0021 -2.26183e-18)
(-0.0136062 10.0036 0)
(-0.00739004 10.0041 0)
(-0.00330083 10.0039 2.99746e-18)
(-0.000850209 10.003 0)
(0.000355457 10.0019 0)
(0.000687778 10.0008 8.42293e-19)
(0.000285504 10.0001 0)
(-0.0504601 9.99513 0)
(-0.0709384 9.98978 0)
(-0.0971229 9.9836 0)
(-0.130083 9.97712 0)
(-0.170933 9.97125 0)
(-0.220772 9.96732 0)
(-0.280555 9.96723 0)
(-0.350932 9.97352 0)
(-0.432038 9.98945 0)
(-0.523152 10.019 0)
(-0.622327 10.0668 0)
(-0.725983 10.1377 0)
(-0.828538 10.2365 0)
(-0.922454 10.3662 0)
(-1.00123 10.5231 0)
(-1.06097 10.7007 0)
(-1.09742 10.8949 0)
(-1.1075 11.1004 0)
(-1.08956 11.3113 0)
(-1.04336 11.522 0)
(-0.965842 11.7284 0)
(-0.874865 11.9389 0)
(-0.785136 12.1497 0)
(-0.69305 12.3437 0)
(-0.601851 12.5202 0)
(-0.513812 12.6781 0)
(-0.430283 12.8143 0)
(-0.351978 12.9232 0)
(-0.279287 12.9965 0)
(-0.211585 13.0248 0)
(-0.149788 12.995 0)
(-0.0928818 12.8523 0)
(-0.0443754 12.3085 0)
(-0.00990964 10.567 0)
(-0.0499793 9.99362 0)
(-0.0340799 9.99809 0)
(-0.0218266 10.0011 -2.35365e-18)
(-0.0131556 10.0028 -2.22742e-18)
(-0.00716281 10.0035 -4.213e-18)
(-0.00323098 10.0035 0)
(-0.000880882 10.0027 -1.88136e-18)
(0.000279668 10.0018 -1.77657e-18)
(0.0006095 10.0007 8.38294e-19)
(0.000249101 10.0001 0)
(-0.0700981 9.98754 0)
(-0.0959389 9.98029 0)
(-0.128479 9.97232 0)
(-0.168854 9.96436 0)
(-0.218227 9.95755 0)
(-0.277672 9.95354 0)
(-0.348041 9.95462 0)
(-0.429792 9.96376 0)
(-0.522688 9.98466 0)
(-0.625468 10.0218 0)
(-0.735445 10.08 0)
(-0.848117 10.1643 0)
(-0.956846 10.2793 0)
(-1.0531 10.4273 0)
(-1.13009 10.603 0)
(-1.18433 10.7984 0)
(-1.21202 11.0085 0)
(-1.21077 11.2273 0)
(-1.17978 11.4485 0)
(-1.11964 11.666 0)
(-1.03493 11.8935 0)
(-0.934537 12.1233 0)
(-0.83049 12.3323 0)
(-0.726869 12.5218 0)
(-0.626569 12.6923 0)
(-0.531488 12.8433 0)
(-0.442623 12.9722 0)
(-0.360321 13.0739 0)
(-0.284726 13.1407 0)
(-0.214995 13.1633 0)
(-0.151772 13.1273 0)
(-0.0940997 12.9753 0)
(-0.0448531 12.4104 0)
(-0.0103356 10.6356 0)
(-0.0693997 9.98555 0)
(-0.0489319 9.99198 -2.5143e-18)
(-0.0327449 9.9967 2.47929e-18)
(-0.0210329 10 -1.07377e-21)
(-0.0126759 10.0021 2.21997e-18)
(-0.00691542 10.003 2.09911e-18)
(-0.00314726 10.0031 3.96678e-18)
(-0.000902138 10.0025 2.80959e-18)
(0.000209946 10.0016 -8.84044e-19)
(0.000535225 10.0006 0)
(0.000215099 10.0001 0)
(-0.0947744 9.97737 0)
(-0.126894 9.96807 0)
(-0.16677 9.95824 0)
(-0.215599 9.94887 0)
(-0.274546 9.94137 0)
(-0.344618 9.93777 0)
(-0.426526 9.94075 0)
(-0.520428 9.95374 0)
(-0.625632 9.9809 0)
(-0.740229 10.027 0)
(-0.860698 10.0973 0)
(-0.98153 10.1967 0)
(-1.09501 10.3293 0)
(-1.19167 10.4967 0)
(-1.26468 10.6917 0)
(-1.3112 10.9049 0)
(-1.32807 11.1301 0)
(-1.31377 11.361 0)
(-1.2684 11.5907 0)
(-1.20198 11.8307 0)
(-1.1073 12.0788 0)
(-0.989575 12.3074 0)
(-0.871598 12.5121 0)
(-0.757044 12.6954 0)
(-0.648297 12.8586 0)
(-0.546792 13.0017 0)
(-0.45314 13.1228 0)
(-0.367314 13.217 0)
(-0.289197 13.277 0)
(-0.217744 13.2936 0)
(-0.153325 13.2515 0)
(-0.0950455 13.0903 0)
(-0.0452025 12.5056 0)
(-0.0106767 10.7001 0)
(-0.0938103 9.97478 0)
(-0.0678983 9.98342 -3.2504e-21)
(-0.0469274 9.9902 0)
(-0.0314839 9.99536 -1.75269e-21)
(-0.0201984 9.99902 0)
(-0.0121666 10.0013 -2.21199e-18)
(-0.00664802 10.0025 -4.1811e-18)
(-0.00305012 10.0027 4.79495e-23)
(-0.00091417 10.0023 1.86387e-18)
(0.000146501 10.0015 -8.79326e-19)
(0.000464974 10.0006 8.29212e-19)
(0.000183464 10.0001 0)
(-0.125337 9.96429 0)
(-0.164712 9.95282 0)
(-0.212963 9.94116 0)
(-0.271308 9.93054 0)
(-0.340876 9.92275 0)
(-0.422579 9.92019 0)
(-0.516888 9.92598 0)
(-0.62358 9.94402 0)
(-0.74141 9.97889 0)
(-0.867721 10.0357 0)
(-0.998058 10.1197 0)
(-1.12586 10.2358 0)
(-1.24234 10.3875 0)
(-1.33722 10.575 0)
(-1.40386 10.7896 0)
(-1.44036 11.0199 0)
(-1.44442 11.2594 0)
(-1.41544 11.5007 0)
(-1.3645 11.7545 0)
(-1.28861 12.0167 0)
(-1.17431 12.2648 0)
(-1.03962 12.4893 0)
(-0.908354 12.6876 0)
(-0.783599 12.8633 0)
(-0.667137 13.0183 0)
(-0.559862 13.1531 0)
(-0.461974 13.2658 0)
(-0.373084 13.3523 0)
(-0.292805 13.4054 0)
(-0.219914 13.4159 0)
(-0.154502 13.3676 0)
(-0.0957558 13.1977 0)
(-0.0454439 12.5945 0)
(-0.0109463 10.7606 0)
(-0.124056 9.96095 0)
(-0.0917333 9.97204 2.78811e-18)
(-0.0650162 9.98116 -2.7552e-18)
(-0.0450451 9.98849 2.60479e-18)
(-0.0301671 9.99408 0)
(-0.0193223 9.99805 0)
(-0.0116299 10.0006 2.2029e-18)
(-0.00636125 10.0019 -2.08088e-18)
(-0.00293937 10.0023 7.77431e-23)
(-0.000917068 10.002 9.2708e-19)
(8.92211e-05 10.0014 -8.74383e-19)
(0.000398716 10.0005 -8.23388e-19)
(0.000154326 10.0001 0)
(-0.16269 9.948 0)
(-0.210356 9.93431 0)
(-0.268052 9.92092 0)
(-0.336979 9.90938 0)
(-0.418211 9.90184 0)
(-0.512475 9.90113 0)
(-0.619927 9.91083 0)
(-0.739875 9.9353 0)
(-0.870415 9.97949 0)
(-1.00804 10.0488 0)
(-1.14729 10.1483 0)
(-1.28053 10.2826 0)
(-1.39796 10.4544 0)
(-1.48864 10.6627 0)
(-1.54641 10.8966 0)
(-1.57062 11.1435 0)
(-1.55991 11.3955 0)
(-1.52631 11.6626 0)
(-1.46615 11.9406 0)
(-1.3692 12.2045 0)
(-1.23548 12.4493 0)
(-1.08452 12.6674 0)
(-0.940791 12.8578 0)
(-0.806654 13.0248 0)
(-0.683251 13.171 0)
(-0.570868 13.2969 0)
(-0.469283 13.4012 0)
(-0.377765 13.4799 0)
(-0.295654 13.5261 0)
(-0.22158 13.5305 0)
(-0.155358 13.4761 0)
(-0.0962655 13.2979 0)
(-0.0455962 12.6772 0)
(-0.0111565 10.8171 0)
(-0.161037 9.94373 0)
(-0.12126 9.95746 0)
(-0.0877209 9.96919 2.89784e-18)
(-0.0623238 9.97899 -5.49601e-18)
(-0.0430873 9.98685 5.19868e-18)
(-0.0287927 9.99285 -4.91537e-18)
(-0.0184079 9.99714 0)
(-0.011066 9.99993 2.19353e-18)
(-0.00605584 10.0015 -2.07048e-18)
(-0.00281502 10.002 -1.95434e-18)
(-0.000910971 10.0018 0)
(3.79423e-05 10.0012 8.68216e-19)
(0.000336816 10.0005 0)
(0.000128235 10.0001 0)
(-0.207793 9.92823 0)
(-0.264823 9.91237 0)
(-0.333044 9.89749 0)
(-0.413627 9.88548 0)
(-0.507509 9.87891 0)
(-0.615163 9.88106 0)
(-0.73635 9.89598 0)
(-0.869807 9.92843 0)
(-1.01286 9.98369 0)
(-1.16108 10.0672 0)
(-1.30795 10.184 0)
(-1.44477 10.3379 0)
(-1.56084 10.5308 0)
(-1.6447 10.7601 0)
(-1.69106 11.0129 0)
(-1.70071 11.2747 0)
(-1.68664 11.5546 0)
(-1.6443 11.8483 0)
(-1.56127 12.1299 0)
(-1.44313 12.3919 0)
(-1.29056 12.6309 0)
(-1.12426 12.8407 0)
(-0.969045 13.0219 0)
(-0.826415 13.1794 0)
(-0.696843 13.3162 0)
(-0.580001 13.4331 0)
(-0.475232 13.5289 0)
(-0.381486 13.5998 0)
(-0.297845 13.6392 0)
(-0.222814 13.6376 0)
(-0.155942 13.5774 0)
(-0.0966058 13.3911 0)
(-0.0456755 12.7542 0)
(-0.0113169 10.8699 0)
(-0.205715 9.92284 0)
(-0.157361 9.93933 0)
(-0.115818 9.95389 0)
(-0.0839934 9.96647 5.78e-18)
(-0.0595327 9.97693 -5.47087e-18)
(-0.0410532 9.9853 5.17394e-18)
(-0.0273675 9.99168 0)
(-0.0174568 9.99627 -2.31029e-18)
(-0.0104757 9.99929 0)
(-0.00573169 10.001 2.05928e-18)
(-0.00267855 10.0017 0)
(-0.000894987 10.0016 0)
(-7.28604e-06 10.0011 0)
(0.000280454 10.0004 8.39346e-19)
(0.000105276 10 4.04295e-19)
(-0.261645 9.90477 0)
(-0.329128 9.88691 0)
(-0.408972 9.87091 0)
(-0.502241 9.85908 0)
(-0.609673 9.85439 0)
(-0.731417 9.86061 0)
(-0.866743 9.88224 0)
(-1.01371 9.9244 0)
(-1.16879 9.99258 0)
(-1.32654 10.0922 0)
(-1.47939 10.2278 0)
(-1.61764 10.4026 0)
(-1.72978 10.6171 0)
(-1.80414 10.8673 0)
(-1.8365 11.1378 0)
(-1.84444 11.4298 0)
(-1.82245 11.7388 0)
(-1.75546 12.0386 0)
(-1.64906 12.3201 0)
(-1.51005 12.5773 0)
(-1.3395 12.8081 0)
(-1.15899 13.0081 0)
(-0.99334 13.1791 0)
(-0.843135 13.3266 0)
(-0.708145 13.4538 0)
(-0.58746 13.5616 0)
(-0.479982 13.649 0)
(-0.384375 13.7123 0)
(-0.299473 13.7451 0)
(-0.223681 13.7377 0)
(-0.1563 13.6717 0)
(-0.0968054 13.4779 0)
(-0.0456953 12.8258 0)
(-0.0114352 10.9191 0)
(-0.259094 9.89802 0)
(-0.200974 9.91732 0)
(-0.15014 9.93489 6.44153e-18)
(-0.110789 9.9505 6.10127e-18)
(-0.0801371 9.96389 5.77244e-18)
(-0.0566425 9.97498 -5.4583e-18)
(-0.0389526 9.98383 0)
(-0.0258933 9.99058 0)
(-0.0164702 9.99545 0)
(-0.00986044 9.99869 4.34125e-18)
(-0.00539011 10.0006 2.04755e-18)
(-0.00252962 10.0014 1.92898e-18)
(-0.000870496 10.0014 0)
(-4.58159e-05 10.001 -8.84959e-19)
(0.000229978 10.0004 -4.27024e-19)
(8.50375e-05 10 0)
(-0.325266 9.8775 0)
(-0.404314 9.85794 0)
(-0.49685 9.84139 0)
(-0.603764 9.83055 0)
(-0.725539 9.82888 0)
(-0.861907 9.84059 0)
(-1.01154 9.87061 0)
(-1.17172 9.92433 0)
(-1.338 10.0073 0)
(-1.50389 10.1248 0)
(-1.66078 10.2808 0)
(-1.79804 10.4774 0)
(-1.90357 10.7139 0)
(-1.9656 10.9842 0)
(-1.99841 11.2871 0)
(-1.99971 11.6112 0)
(-1.95142 11.9296 0)
(-1.85883 12.2315 0)
(-1.72906 12.5095 0)
(-1.56986 12.7593 0)
(-1.38242 12.9801 0)
(-1.18893 13.169 0)
(-1.01396 13.3292 0)
(-0.857088 13.4662 0)
(-0.717395 13.5837 0)
(-0.59344 13.6826 0)
(-0.48369 13.7618 0)
(-0.386547 13.8177 0)
(-0.300624 13.8439 0)
(-0.224239 13.8309 0)
(-0.15647 13.7595 0)
(-0.0968887 13.5585 0)
(-0.045666 12.8922 0)
(-0.0115211 10.9648 0)
(-0.322202 9.86914 0)
(-0.253079 9.89116 0)
(-0.191569 9.91183 -1.35524e-17)