/*--------------------------------*- C++ -*----------------------------------*\
  =========                 |
  \\      /  F ield         | OpenFOAM: The Open Source CFD Toolbox
   \\    /   O peration     | Website:  https://openfoam.org
    \\  /    A nd           | Version:  8
     \\/     M anipulation  |
\*---------------------------------------------------------------------------*/
FoamFile
{
    version     2.0;
    format      ascii;
    class       volScalarField;
    location    "900";
    object      nut;
}
// * * * * * * * * * * * * * * * * * * * * * * * * * * * * * * * * * * * * * //

dimensions      [0 2 -1 0 0 0 0];

internalField   nonuniform List<scalar> 
15677
(
7.47989e-05
0.000154173
8.20045e-05
0.000258016
0.000137613
8.01552e-05
0.000722415
0.000177816
0.000111477
7.67048e-05
0.001806
0.000374861
0.000147544
0.000108613
7.42862e-05
0.00331824
0.000873548
0.00031032
0.000125453
0.000111437
7.26924e-05
0.00477633
0.00171998
0.000665359
0.000257545
0.000122941
0.000117678
7.1701e-05
0.00581853
0.00284081
0.0012659
0.00056663
0.000234035
0.000123116
0.0001243
7.09907e-05
0.00636649
0.00405888
0.00211292
0.00106489
0.000504674
0.000212575
0.00012719
0.000129277
7.05252e-05
0.00658967
0.00517054
0.00314444
0.0017665
0.000947128
0.000461412
0.000205328
0.000135462
0.000134137
7.01447e-05
0.00667776
0.00598075
0.00423165
0.00264957
0.00156247
0.000868398
0.000428023
0.000196509
0.000145043
0.00013654
6.98828e-05
0.00671614
0.0064139
0.00521233
0.00364251
0.00234431
0.0014292
0.000808195
0.000401504
0.000192084
0.000153596
0.000139269
6.97274e-05
0.00671481
0.00659629
0.00595682
0.00462955
0.00325117
0.00214067
0.00133263
0.000759141
0.000377387
0.000192673
0.000161876
0.000141413
6.96758e-05
0.00670856
0.00668363
0.00639453
0.00548098
0.00420175
0.00297804
0.00199471
0.00125755
0.000717831
0.00035806
0.000195375
0.000169024
0.000143068
6.9701e-05
0.0067062
0.00670344
0.00659106
0.006099
0.00508681
0.00388348
0.00277829
0.0018841
0.00119556
0.000683149
0.000340206
0.000199134
0.000175661
0.000144279
6.97895e-05
0.00670581
0.00670343
0.00667465
0.00645432
0.00580045
0.00476829
0.00364121
0.00262644
0.00179578
0.00114423
0.000649155
0.000328116
0.000204207
0.000180847
0.00014525
6.99713e-05
0.00670588
0.00670178
0.00669494
0.00661942
0.00628314
0.00553176
0.00451183
0.00345261
0.00250649
0.00172427
0.0010988
0.000620636
0.000319608
0.000209106
0.00018571
0.00014591
7.02474e-05
0.00670595
0.00670101
0.00669784
0.00667434
0.00654088
0.00609637
0.00529929
0.00430422
0.00330223
0.00241021
0.00166385
0.00105882
0.000595526
0.000314045
0.000214432
0.000189142
0.000146374
7.06047e-05
0.00670598
0.0067008
0.00669745
0.00668928
0.00664242
0.00643988
0.00592101
0.00510083
0.00413446
0.00318068
0.00233091
0.00161278
0.00102312
0.000575756
0.000310786
0.000218851
0.00019274
0.00014654
7.10432e-05
0.00670599
0.00670077
0.00669697
0.00669237
0.00667635
0.00659546
0.00633626
0.00576055
0.00493213
0.0039946
0.00308112
0.00226537
0.00156828
0.0009933
0.000559353
0.00030905
0.000223478
0.000194914
0.000146486
7.15609e-05
0.00670599
0.00670075
0.00669676
0.00669256
0.00668629
0.00665569
0.00654074
0.00623013
0.00561664
0.00478892
0.0038789
0.00299915
0.00221055
0.00153134
0.000967262
0.00054641
0.000308706
0.000227275
0.000196874
0.000146286
7.21548e-05
0.00670599
0.00670074
0.0066967
0.00669232
0.00668861
0.00667678
0.00662916
0.00648066
0.00612787
0.00548944
0.00466787
0.00378285
0.00293158
0.00216508
0.00149942
0.000946599
0.000536646
0.00030933
0.000230998
0.000198093
0.000145881
7.28202e-05
0.00670599
0.00670072
0.00669669
0.00669212
0.00668891
0.0066831
0.00666444
0.00659781
0.00641831
0.00603289
0.00537839
0.00456559
0.00370366
0.00287698
0.00212733
0.00147459
0.000929246
0.00053067
0.000310904
0.000234089
0.000199191
0.000145305
7.35528e-05
0.00670598
0.00670072
0.00669668
0.00669201
0.00668884
0.00668457
0.00667702
0.00664876
0.0065632
0.00635724
0.00594614
0.00528217
0.00448045
0.00363892
0.00283171
0.00209854
0.00145385
0.00091736
0.000526697
0.000312959
0.000237091
0.000199918
0.000144583
7.43446e-05
0.00670597
0.00670072
0.00669666
0.00669195
0.00668875
0.0066847
0.00668094
0.00666877
0.006631
0.00652755
0.00629836
0.00586883
0.0052007
0.00440994
0.00358761
0.00279739
0.00207571
0.00144037
0.000908534
0.000525825
0.000315948
0.000238888
0.00020016
0.000143715
7.51912e-05
0.00670596
0.00670073
0.00669665
0.00669191
0.00668868
0.00668456
0.00668194
0.00667576
0.00666007
0.00661159
0.00649144
0.00624488
0.0058014
0.0051318
0.00435361
0.00354737
0.002772
0.00206181
0.00143072
0.000904996
0.00052631
0.000319363
0.00024109
0.000200132
0.000142752
7.6083e-05
0.00670594
0.00670074
0.00669662
0.0066919
0.00668863
0.00668442
0.00668206
0.00667782
0.00667143
0.00664963
0.0065916
0.00645832
0.00619577
0.00574342
0.00507717
0.00431058
0.00351853
0.00275621
0.00205235
0.00142711
0.000904797
0.000530196
0.000322455
0.00024316
0.000199876
0.000141677
7.70157e-05
0.00670593
0.00670076
0.0066966
0.0066919
0.00668859
0.00668433
0.00668199
0.00667822
0.00667541
0.00666539
0.00663973
0.0065727
0.00642586
0.00615493
0.00569788
0.00503359
0.00427792
0.00349954
0.00274803
0.00205362
0.00143006
0.000908083
0.000534749
0.000326443
0.000244687
0.000199354
0.000140538
7.79782e-05
0.00670592
0.00670077
0.00669658
0.0066919
0.00668854
0.00668427
0.00668189
0.00667817
0.00667656
0.00667128
0.00666109
0.00662936
0.00655429
0.00640171
0.00611886
0.00565812
0.00500329
0.00426185
0.00349594
0.00275381
0.00206019
0.00143648
0.000914525
0.000540813
0.0003306
0.000246009
0.000198688
0.000139325
7.89676e-05
0.0067059
0.00670079
0.00669655
0.00669191
0.0066885
0.00668424
0.00668179
0.00667804
0.00667675
0.00667316
0.00666977
0.00665539
0.00662108
0.00654113
0.00637601
0.00609395
0.00564064
0.00499148
0.00425784
0.00349978
0.00276166
0.00207154
0.00144711
0.000924595
0.000548969
0.000335364
0.00024716
0.000197806
0.000138074
7.99663e-05
0.00670589
0.00670081
0.00669653
0.00669193
0.00668845
0.00668423
0.00668171
0.00667793
0.00667667
0.00667355
0.0066729
0.00666646
0.00665325
0.0066142
0.00652755
0.00636487
0.0060852
0.00562907
0.00498547
0.00426038
0.0035112
0.00277749
0.00208901
0.00146369
0.000937664
0.000558706
0.000340424
0.000248157
0.000196851
0.000136822
8.10859e-05
0.00670588
0.00670082
0.00669651
0.00669195
0.00668841
0.00668423
0.00668163
0.00667784
0.00667654
0.0066735
0.00667377
0.00667067
0.00666758
0.00665038
0.00661175
0.00652626
0.00636223
0.00607914
0.00562551
0.00498913
0.00427501
0.00353397
0.00280501
0.00211477
0.00148497
0.000953883
0.000569984
0.000345795
0.000249033
0.000195715
0.000135474
8.23298e-05
0.00670587
0.00670084
0.00669649
0.00669197
0.00668837
0.00668423
0.00668155
0.00667779
0.0066764
0.00667335
0.00667388
0.00667193
0.00667339
0.00666713
0.00665418
0.00661503
0.00652863
0.0063646
0.00608176
0.0056364
0.00501092
0.00430475
0.00356862
0.00284112
0.00214751
0.00151116
0.000972738
0.000582582
0.00035147
0.000249803
0.000194449
0.000134014
8.35593e-05
0.00670586
0.00670085
0.00669647
0.00669198
0.00668833
0.00668425
0.00668147
0.00667776
0.00667627
0.0066732
0.00667376
0.00667213
0.00667533
0.0066742
0.00667422
0.00666212
0.0066223
0.00653775
0.00637536
0.00610162
0.00566444
0.00504665
0.0043473
0.00361421
0.002885
0.0021871
0.00154135
0.000994438
0.00059671
0.000357613
0.000250618
0.000192757
0.000132599
8.4769e-05
0.00670586
0.00670086
0.00669645
0.006692
0.00668829
0.00668426
0.0066814
0.00667774
0.00667614
0.00667309
0.00667358
0.00667201
0.00667581
0.00667667
0.00668306
0.00668529
0.00667209
0.00663672
0.00655706
0.00640219
0.00613637
0.00570742
0.00509732
0.00440273
0.00367046
0.00293781
0.00223205
0.00157673
0.00101859
0.000611846
0.000364972
0.000251611
0.000191055
0.000131252
8.59485e-05
0.00670087
0.00670585
0.00669644
0.00669201
0.00668826
0.00668428
0.00668133
0.00667774
0.00667601
0.00667301
0.00667339
0.00667181
0.00667579
0.00667732
0.00668637
0.00669597
0.00669697
0.00668998
0.00666343
0.0065901
0.00644375
0.00618676
0.0057669
0.00516285
0.00447149
0.00373773
0.00299884
0.00228337
0.0016163
0.00104541
0.000629651
0.000373884
0.000252782
0.000189185
0.000129943
8.70922e-05
0.00669643
0.00670089
0.00670585
0.00669203
0.00668823
0.0066843
0.00668126
0.00667775
0.00667589
0.00667296
0.0066732
0.00667162
0.00667561
0.00667732
0.00668741
0.00670021
0.00670868
0.00671712
0.00672195
0.00670146
0.0066379
0.00650126
0.00625481
0.00584308
0.00524439
0.00455357
0.00381558
0.00306841
0.0023406
0.00165965
0.00107791
0.00065081
0.000383066
0.000253963
0.000187396
0.000128733
8.81948e-05
0.00669204
0.00669644
0.00670094
0.00670585
0.00668821
0.00668431
0.00668121
0.00667777
0.00667577
0.00667293
0.00667301
0.00667146
0.00667538
0.00667711
0.0066876
0.00670169
0.00671355
0.00673026
0.0067526
0.00676393
0.0067546
0.00670221
0.00657739
0.0063411
0.00593754
0.00534145
0.00464906
0.00390454
0.0031458
0.00240371
0.00171202
0.00111732
0.00067307
0.000392712
0.000255342
0.000185497
0.000127554
8.92524e-05
0.00668819
0.00669208
0.00669647
0.00670098
0.00670586
0.00668433
0.00668116
0.00667778
0.00667566
0.00667293
0.00667281
0.00667134
0.00667514
0.00667684
0.0066875
0.00670209
0.00671539
0.00673605
0.00676811
0.00679762
0.00682141
0.00682423
0.00678579
0.0066738
0.00644862
0.00605046
0.00545541
0.00475819
0.00400347
0.00323135
0.00247982
0.00177571
0.00115927
0.000696295
0.000402939
0.000256745
0.000183746
0.000126406
9.02622e-05
0.00668434
0.0066882
0.00669216
0.00669651
0.00670102
0.00670586
0.00668111
0.0066778
0.00667555
0.00667294
0.00667262
0.00667127
0.0066749
0.00667659
0.00668729
0.00670208
0.00671602
0.00673849
0.00677546
0.00681521
0.00685836
0.00689544
0.00691398
0.00688967
0.00679156
0.00657698
0.00618424
0.00558624
0.00488047
0.0041135
0.00333461
0.00257196
0.001844
0.00120451
0.000720559
0.000413465
0.000258329
0.000182072
0.000125312
9.12229e-05
0.00668107
0.0066844
0.00668826
0.00669225
0.00669654
0.00670107
0.00670586
0.00667782
0.00667546
0.00667295
0.00667243
0.00667124
0.00667464
0.00667637
0.00668706
0.00670191
0.00671617
0.00673953
0.00677894
0.00682416
0.00687906
0.00693655
0.00699032
0.0070233
0.00701513
0.00693072
0.00672674
0.00633663
0.00573543
0.00501685
0.00424581
0.00345965
0.00267089
0.00191648
0.00125202
0.000745472
0.000424314
0.000259912
0.000180539
0.000124275
9.21337e-05
0.00667783
0.00668108
0.00668451
0.00668831
0.00669233
0.00669658
0.00670111
0.00670586
0.00667538
0.00667297
0.00667225
0.00667124
0.00667436
0.00667621
0.00668682
0.00670169
0.00671613
0.00674
0.00678074
0.00682902
0.00689075
0.00696126
0.0070378
0.00710868
0.00715963
0.00716424
0.00709058
0.00689532
0.00650713
0.00589981
0.00518474
0.00440905
0.00359516
0.00277621
0.00199282
0.00130094
0.000771079
0.000435333
0.000261676
0.00017908
0.000123302
9.29949e-05
0.00667531
0.0066779
0.00668113
0.00668463
0.00668838
0.00669241
0.00669663
0.00670115
0.00670587
0.00667299
0.00667209
0.00667127
0.00667408
0.00667611
0.00668658
0.00670146
0.00671601
0.00674022
0.0067818
0.00683196
0.0068978
0.00697623
0.00706793
0.00716311
0.00725479
0.00732249
0.00734304
0.00727706
0.00708301
0.00669348
0.00609779
0.00538741
0.0045857
0.00373932
0.00288731
0.00207217
0.00135145
0.000797032
0.000446526
0.000263387
0.000177744
0.000122394
9.38069e-05
0.00667301
0.00667528
0.00667804
0.00668119
0.00668474
0.00668844
0.00669249
0.00669667
0.00670119
0.00670588
0.00667194
0.00667131
0.00667379
0.00667608
0.00668633
0.00670124
0.00671586
0.00674032
0.0067825
0.00683402
0.00690261
0.00698615
0.00708809
0.00720014
0.00731877
0.00742928
0.00751596
0.00754885
0.00749166
0.00729631
0.00691721
0.00633254
0.00560223
0.00477162
0.00389063
0.00300276
0.00215408
0.00140305
0.000823427
0.000457777
0.000265279
0.000176485
0.00012155
9.45711e-05
0.00667181
0.00667309
0.00667529
0.00667817
0.00668126
0.00668486
0.00668851
0.00669258
0.00669672
0.00670123
0.00670589
0.00667136
0.0066735
0.00667611
0.00668605
0.00670103
0.00671571
0.00674036
0.006783
0.00683564
0.00690628
0.00699362
0.00710282
0.00722691
0.00736569
0.00750541
0.00763802
0.00773973
0.00778447
0.00773201
0.00756056
0.00719664
0.00658309
0.00582483
0.00496338
0.00404637
0.00312168
0.00223776
0.00145553
0.000849853
0.000469045
0.000267174
0.000175341
0.000120769
9.52889e-05
0.0066714
0.00667167
0.00667321
0.00667531
0.00667831
0.00668134
0.00668497
0.00668859
0.00669266
0.00669678
0.00670127
0.0067059
0.00667322
0.0066762
0.00668573
0.00670084
0.00671556
0.00674037
0.00678338
0.00683698
0.00690928
0.00699978
0.00711467
0.00724778
0.00740257
0.00756515
0.00773044
0.00788066
0.00799779
0.00805024
0.00802829
0.00788529
0.0075028
0.00685418
0.00605464
0.0051581
0.00420502
0.00324251
0.00232269
0.00150841
0.000876507
0.000479917
0.000269282
0.000174281
0.000120049
9.5962e-05
0.00667297
0.00667146
0.00667153
0.00667334
0.00667534
0.00667844
0.00668142
0.00668509
0.00668868
0.00669274
0.00669683
0.00670131
0.00670591
0.00667633
0.00668537
0.00670069
0.00671543
0.00674038
0.0067837
0.00683813
0.00691182
0.00700513
0.00712476
0.00726539
0.00743333
0.00761502
0.00780775
0.00799365
0.00816311
0.00829077
0.00838018
0.00839543
0.00823961
0.00782904
0.0071416
0.0062962
0.00535376
0.0043638
0.00336386
0.0024079
0.00156145
0.000903016
0.000490487
0.000271272
0.000173314
0.000119386
9.65922e-05
0.00667649
0.00667257
0.00667152
0.00667141
0.00667347
0.00667539
0.00667857
0.00668152
0.0066852
0.00668877
0.00669282
0.00669689
0.00670135
0.00670592
0.00668495
0.00670058
0.00671534
0.00674039
0.00678397
0.00683913
0.00691401
0.00700986
0.00713359
0.00728101
0.00746039
0.00765813
0.00787614
0.0080939
0.0083033
0.00848611
0.00865764
0.00879294
0.00879939
0.00862041
0.00817265
0.00743923
0.00654669
0.00555349
0.00452128
0.00348459
0.00249305
0.00161426
0.000929756
0.000500752
0.000273445
0.000172434
0.000118778
9.71818e-05
0.00668449
0.00667653
0.00667198
0.00667158
0.0066713
0.00667359
0.00667546
0.0066787
0.00668163
0.00668531
0.00668887
0.0066929
0.00669696
0.00670139
0.00670593
0.00670054
0.00671529
0.00674041
0.00678421
0.00683999
0.00691594
0.00701409
0.00714142
0.00729518
0.0074848
0.00769688
0.00793809
0.00818695
0.00843391
0.00866018
0.00889509
0.00912223
0.00925223
0.00923788
0.00902502
0.0085309
0.00774484
0.00680136
0.0057569
0.00467798
0.00360442
0.00257731
0.00166658
0.000956315
0.000510721
0.000275511
0.000171625
0.00011822
9.77325e-05
0.00670062
0.00668328
0.00667648
0.0066714
0.00667165
0.00667123
0.0066737
0.00667555
0.00667882
0.00668175
0.00668542
0.00668897
0.00669298
0.00669702
0.00670142
0.00670594
0.00671527
0.00674046
0.00678441
0.00684074
0.00691763
0.00701787
0.00714842
0.00730813
0.00750696
0.00773256
0.00799579
0.00827333
0.00855921
0.00883007
0.00911901
0.00942086
0.00964657
0.0097579
0.00971006
0.00945184
0.00890158
0.00805621
0.00705762
0.00596152
0.00483172
0.00372132
0.0026601
0.00171816
0.000982398
0.000520395
0.000277505
0.000170887
0.00011771
9.82466e-05
0.00671529
0.00670018
0.00668111
0.00667647
0.00667087
0.00667169
0.0066712
0.0066738
0.00667567
0.00667893
0.00668189
0.00668552
0.00668908
0.00669306
0.00669708
0.00670146
0.00670595
0.00674052
0.00678459
0.0068414
0.00691914
0.00702125
0.0071547
0.00731997
0.00752712
0.0077658
0.00804997
0.00835419
0.0086785
0.00900097
0.009349
0.00971802
0.0100248
0.0102362
0.0103146
0.0102182
0.00990081
0.00928326
0.00837159
0.007314
0.00616613
0.00498553
0.00383536
0.00274102
0.0017687
0.00100801
0.000529758
0.000279506
0.000170212
0.000117243
9.87261e-05
0.00674062
0.00671422
0.00669932
0.00667893
0.00667643
0.00667043
0.00667169
0.00667123
0.00667388
0.0066758
0.00667904
0.00668203
0.00668563
0.00668919
0.00669314
0.00669715
0.00670149
0.00670597
0.00678471
0.00684198
0.0069205
0.00702429
0.00716038
0.00733077
0.00754548
0.00779685
0.00810061
0.00843033
0.00879403
0.00917079
0.00958712
0.0100354
0.0104241
0.0107284
0.0109099
0.0109341
0.0107676
0.0103732
0.00967523
0.00868964
0.00756942
0.00636784
0.00513798
0.00394642
0.0028198
0.00181803
0.00103305
0.000538814
0.000281463
0.000169597
0.000116816
9.9173e-05
0.00678484
0.00673878
0.00671194
0.00669846
0.00667707
0.00667623
0.00667012
0.00667163
0.00667131
0.00667394
0.00667596
0.00667915
0.00668218
0.00668574
0.0066893
0.00669321
0.0066972
0.00670152
0.00670598
0.00684249
0.00692172
0.00702702
0.00716551
0.0073406
0.00756224
0.0078258
0.00814764
0.00850248
0.00890707
0.00933857
0.00982271
0.0103773
0.0108855
0.0112972
0.0115779
0.0116952
0.0116297
0.0113636
0.0108702
0.0100769
0.00900934
0.0078228
0.00656598
0.005288
0.00405434
0.00289619
0.00186595
0.00105743
0.000547554
0.000283357
0.000169031
0.000116426
9.95893e-05
0.006843
0.00678171
0.00673484
0.0067096
0.00669728
0.00667579
0.00667583
0.00666997
0.00667151
0.00667144
0.00667398
0.00667614
0.00667926
0.00668233
0.00668585
0.0066894
0.00669329
0.00669726
0.00670155
0.00670599
0.00692283
0.00702949
0.00717017
0.00734953
0.00757755
0.00785266
0.00819115
0.00857123
0.0090171
0.00950154
0.0100541
0.0107446
0.0114423
0.0120216
0.0124137
0.0126107
0.0126067
0.0124059
0.0120064
0.0113911
0.0104874
0.00932966
0.00807327
0.00676002
0.0054348
0.00415892
0.00297004
0.00191237
0.00108107
0.000555974
0.000285195
0.000168513
0.00011607
9.99254e-05
0.00692392
0.0068389
0.00677507
0.0067309
0.00670727
0.00669551
0.00667503
0.00667521
0.00666996
0.00667134
0.00667161
0.00667402
0.00667633
0.00667937
0.00668248
0.00668595
0.0066895
0.00669336
0.00669732
0.00670159
0.006706
0.00703172
0.00717441
0.00735765
0.00759156
0.00787747
0.00823137
0.00863677
0.00912261
0.00965766
0.0102875
0.0111563
0.0121056
0.0129435
0.013505
0.0137778
0.0138108
0.0136273
0.0132501
0.0126887
0.0119317
0.0109044
0.00964939
0.00832004
0.00694945
0.00557778
0.00426
0.00304123
0.00195714
0.00110393
0.000564069
0.000286959
0.000168055
0.000115788
0.000100207
0.00703383
0.00691826
0.00682974
0.00676833
0.00672716
0.00670497
0.00669333
0.00667474
0.00667439
0.00667008
0.00667114
0.00667181
0.00667407
0.00667651
0.00667949
0.00668262
0.00668606
0.0066896
0.00669343
0.00669737
0.00670162
0.00670601
0.00717827
0.00736502
0.00760437
0.00790028
0.00826858
0.00869893
0.00922221
0.00980743
0.0105318
0.0116237
0.0128654
0.0139976
0.0148144
0.0152233
0.0152889
0.0151049
0.0147096
0.0141346
0.0133956
0.0124848
0.0113249
0.00996709
0.00856234
0.00713386
0.00571654
0.00435749
0.00310937
0.00200018
0.00112595
0.000571838
0.000288663
0.000167678
0.000115555
0.000100513
0.00718187
0.00702621
0.00690508
0.0068207
0.0067618
0.00672367
0.0067027
0.00669063
0.00667481
0.00667345
0.00667028
0.00667094
0.00667202
0.00667414
0.00667669
0.00667961
0.00668275
0.00668616
0.00668969
0.0066935
0.00669742
0.00670165
0.00670602
0.0073717
0.00761606
0.00792119
0.00830298
0.00875737
0.00931529
0.00995319
0.010793
0.012138
0.0136752
0.0150808
0.0161461
0.0167824
0.0169693
0.0168044
0.0163993
0.0157948
0.0150247
0.014108
0.0130409
0.0117448
0.010281
0.00879937
0.00731287
0.00585066
0.00445203
0.00317454
0.00204143
0.00114713
0.000579277
0.000290069
0.000167374
0.000115306
0.000100844
0.00737783
0.00717164
0.00700755
0.00689195
0.00681202
0.0067556
0.00672039
0.006701
0.00668754
0.00667511
0.00667248
0.0066705
0.00667077
0.00667221
0.00667422
0.00667684
0.00667974
0.00668287
0.00668627
0.00668978
0.00669357
0.00669747
0.00670168
0.00670602
0.00762673
0.0079403
0.00833474
0.00881181
0.0094021
0.0100973
0.0110698
0.0126748
0.0144732
0.0160924
0.0173465
0.0181846
0.0185942
0.0185726
0.0182094
0.0176167
0.0168318
0.0158882
0.0148071
0.0135899
0.0121592
0.0105892
0.00903032
0.00748615
0.00597962
0.00454328
0.0032368
0.0020809
0.0011674
0.000585438
0.000291281
0.00016704
0.000115042
0.000101203
0.00763646
0.0073646
0.0071455
0.00698892
0.00687925
0.00680363
0.00674972
0.00671725
0.00669976
0.00668435
0.00667546
0.00667157
0.00667068
0.00667067
0.00667238
0.00667433
0.00667699
0.00667987
0.00668299
0.00668637
0.00668986
0.00669364
0.00669751
0.00670169
0.00670602
0.00795773
0.00836396
0.00886215
0.00948339
0.0102411
0.0113555
0.0132054
0.015209
0.0169674
0.018335
0.0193076
0.0199044
0.0201231
0.0199473
0.0194416
0.0187105
0.0177865
0.0167009
0.0154773
0.0141227
0.0125639
0.0108895
0.00925439
0.00765335
0.00610336
0.00463107
0.00329623
0.00211852
0.00118421
0.000590709
0.000292613
0.000166695
0.00011476
0.000101591
0.00797343
0.00761938
0.00732857
0.00711936
0.00697078
0.00686691
0.00679545
0.00674403
0.00671431
0.00669869
0.00668126
0.00667571
0.00667084
0.00667079
0.00667064
0.00667251
0.00667446
0.00667712
0.00668
0.0066831
0.00668648
0.00668994
0.00669371
0.00669754
0.00670169
0.00670602
0.00839078
0.00890846
0.00955996
0.0103841
0.0116403
0.0137064
0.0158535
0.0176814
0.0190933
0.0201304
0.0208447
0.0212553
0.0213438
0.0210737
0.0204815
0.0196617
0.018641
0.0174481
0.0161076
0.0146324
0.0129549
0.0111802
0.00947066
0.0078142
0.00622187
0.00471525
0.00335281
0.00214963
0.00119859
0.000596533
0.000294102
0.000166314
0.000114463
0.000102011
0.00841491
0.00795196
0.00757008
0.0072925
0.00709389
0.00695314
0.0068549
0.00678742
0.0067386
0.00671154
0.00669766
0.00667855
0.00667569
0.00667035
0.0066708
0.00667068
0.00667261
0.0066746
0.00667724
0.00668014
0.00668321
0.00668658
0.00669002
0.00669374
0.00669754
0.00670169
0.00670602
0.00895099
0.00963247
0.0105249
0.011915
0.0141627
0.0163972
0.0182388
0.0196408
0.0206844
0.0214499
0.0219784
0.022268
0.0222821
0.0219675
0.0213357
0.0204697
0.0193905
0.0181227
0.0166912
0.0151138
0.0133293
0.01146
0.00967853
0.00796834
0.00633511
0.00479576
0.00339959
0.00217614
0.00121447
0.000602983
0.00029574
0.000165924
0.000114147
0.000102466
0.00898902
0.0083877
0.00788542
0.00752076
0.00725728
0.00706907
0.00693594
0.00684317
0.00677947
0.00673359
0.00670884
0.00669651
0.00667664
0.00667534
0.0066701
0.00667073
0.00667078
0.00667269
0.00667476
0.00667736
0.00668028
0.00668331
0.00668668
0.00669006
0.00669374
0.00669754
0.00670169
0.00670602
0.00970132
0.0106613
0.0121723
0.0145679
0.0168436
0.0186589
0.020013
0.0210203
0.0217843
0.0223648
0.022777
0.0229991
0.0229814
0.0226594
0.0220231
0.0211445
0.0200381
0.0187237
0.0172251
0.0155637
0.013685
0.0117277
0.00987752
0.00811558
0.00644309
0.00486235
0.00343941
0.00220535
0.00123203
0.000610138
0.000297582
0.000165494
0.000113818
0.000102957
0.00976439
0.00895519
0.00829789
0.00781874
0.00747253
0.0072229
0.00704487
0.00691918
0.0068317
0.00677156
0.00672888
0.00670608
0.00669468
0.00667561
0.00667471
0.00667003
0.00667062
0.00667092
0.00667276
0.00667492
0.00667746
0.00668041
0.00668341
0.00668674
0.00669005
0.00669374
0.00669754
0.00670169
0.00670602
0.0107916
0.0124113
0.0149215
0.0172032
0.0189657
0.020248
0.0211905
0.0219146
0.0224957
0.0229643
0.0233132
0.0235064
0.0234866
0.0231826
0.0225672
0.0217009
0.0205918
0.0192539
0.017709
0.0159808
0.0140205
0.0119826
0.0100674
0.0082557
0.00653176
0.00491917
0.00348323
0.00223755
0.0012515
0.000618097
0.000299611
0.000165058
0.00011347
0.000103489
0.010909
0.0097217
0.00883299
0.00820814
0.0077534
0.00742542
0.00718934
0.00702127
0.00690283
0.0068205
0.00676378
0.00672435
0.00670335
0.00669222
0.00667525
0.0066739
0.0066701
0.00667048
0.00667108
0.00667282
0.00667508
0.00667757
0.00668054
0.00668345
0.00668674
0.00669005
0.00669374
0.00669754
0.00670169
0.00670602
0.0126326
0.0152245
0.0174889
0.019183
0.0203798
0.0212402
0.0218987
0.0224431
0.022917
0.0233266
0.0236489
0.0238393
0.0238374
0.0235687
0.0229913
0.0221552
0.0210615
0.0197187
0.0181449
0.0163649
0.0143351
0.012224
0.0102478
0.00837106
0.00660735
0.00498179
0.00353153
0.00227314
0.00127312
0.000626963
0.00030191
0.000164578
0.000113113
0.000104063
0.0108612
0.0128273
0.00954251
0.00871299
0.00811997
0.00768951
0.00737937
0.00715659
0.00699829
0.00688694
0.00680967
0.00675616
0.00672016
0.00670081
0.00668912
0.00667529
0.00667304
0.00667022
0.00667034
0.00667125
0.00667288
0.00667525
0.00667767
0.00668062
0.00668344
0.00668674
0.00669005
0.00669374
0.00669754
0.00670168
0.00670601
0.0154801
0.0177135
0.0193313
0.0204365
0.0212056
0.0217826
0.0222645
0.022706
0.0231257
0.0235124
0.0238325
0.0240376
0.0240669
0.0238447
0.0233166
0.0225229
0.021458
0.0201241
0.0185355
0.0167169
0.0146287
0.0124517
0.010396
0.00846944
0.00669063
0.00505086
0.00358486
0.00231251
0.00129716
0.000636879
0.000304446
0.000164098
0.000112737
0.000104682
0.0105892
0.0127755
0.0156911
0.00937102
0.00859586
0.0080335
0.00762703
0.00733439
0.00712468
0.00697595
0.00687156
0.00679937
0.00674887
0.00671647
0.00669927
0.00668592
0.00667548
0.00667222
0.00667036
0.00667022
0.00667142
0.00667295
0.0066754
0.00667771
0.00668063
0.00668344
0.00668674
0.00669005
0.00669374
0.00669751
0.00670165
0.006706
0.0178889
0.0194277
0.02044
0.0211142
0.021601
0.0220038
0.0223859
0.0227776
0.023179
0.0235665
0.0239007
0.0241323
0.024202
0.0240335
0.0235618
0.0228183
0.0217913
0.0204768
0.0188847
0.0170385
0.0149016
0.0126374
0.0105222
0.00857779
0.00678252
0.00512717
0.00364384
0.00235618
0.00132397
0.00064798
0.000307347
0.000163569
0.000112361
0.000105349
0.0103198
0.0124006
0.0156132
0.0180229
0.00920899
0.00848081
0.00794885
0.00756595
0.00729053
0.00709365
0.0069543
0.00685677
0.00678969
0.00674224
0.00671315
0.00669807
0.00668291
0.00667567
0.00667151
0.00667048
0.00667013
0.00667158
0.00667302
0.0066755
0.00667769
0.00668063
0.00668344
0.00668674
0.00669005
0.00669371
0.00669747
0.00670162
0.00670599
0.0194857
0.0204068
0.0209864
0.0213793
0.0216931
0.0219976
0.0223328
0.0227105
0.0231173
0.0235214
0.0238808
0.0241473
0.0242638
0.0241536
0.0237426
0.023054
0.0220707
0.0207831
0.0191962
0.0173316
0.0151212
0.0127947
0.0106608
0.0086972
0.00688406
0.00521163
0.0037092
0.00240469
0.00135393
0.000660415
0.00031055
0.000163053
0.00011197
0.000106068
0.010067
0.0119891
0.0152626
0.0179092
0.0195087
0.00905369
0.00836761
0.0078661
0.00750634
0.00724785
0.00706357
0.00693342
0.0068427
0.00678068
0.00673617
0.00671026
0.00669701
0.00668029
0.00667573
0.00667095
0.00667057
0.00667008
0.00667174
0.00667303
0.00667551
0.00667768
0.00668063
0.00668344
0.00668674
0.00669002
0.00669364
0.00669742
0.00670158
0.00670598
0.0203492
0.0208369
0.0211356
0.0213557
0.0215708
0.0218292
0.0221534
0.0225413
0.0229693
0.0234007
0.0237933
0.0241014
0.0242693
0.0242201
0.0238717
0.0232405
0.0223047
0.021049
0.0194739
0.0175628
0.0153053
0.0129662
0.010813
0.0088289
0.00699635
0.00530528
0.0037818
0.00245871
0.00138748
0.000674562
0.000314263
0.00016255
0.000111594
0.00010684
0.00983126
0.0115785
0.014822
0.0176695
0.0193426
0.0202671
0.00890294
0.00825641
0.00778538
0.00744827
0.00720646
0.0070345
0.00691348
0.00682964
0.00677233
0.00673076
0.00670764
0.00669597
0.00667822
0.0066756
0.00667053
0.00667063
0.00667006
0.00667183
0.006673
0.00667552
0.00667768
0.00668063
0.00668345
0.00668668
0.00668994
0.00669357
0.00669737
0.00670155
0.00670597
0.0206762
0.020883
0.0210081
0.0211273
0.0212949
0.021543
0.0218809
0.0222952
0.022755
0.0232214
0.0236538
0.0240088
0.0242319
0.0242453
0.02396
0.023387
0.0225004
0.02128
0.0196881
0.0177542
0.0155037
0.0131529
0.01098
0.00897425
0.00712069
0.00540928
0.00386259
0.00251901
0.0014252
0.000690513
0.00031832
0.000162005
0.000111212
0.000107668
0.00960976
0.0111849
0.0143267
0.0173523
0.0191785
0.0200485
0.0204997
0.00875577
0.00814755
0.00770683
0.00739189
0.00716645
0.00700671
0.00689497
0.00681768
0.00676461
0.00672604
0.00670518
0.00669474
0.00667691
0.00667528
0.00667025
0.00667066
0.00667002
0.00667185
0.00667298
0.00667552
0.00667769
0.00668062
0.00668341
0.00668658
0.00668986
0.0066935
0.00669731
0.00670152
0.00670595
0.0206303
0.0206619
0.0206823
0.0207506
0.0209062
0.0211694
0.0215383
0.0219898
0.0224887
0.0229962
0.0234743
0.023881
0.0241621
0.0242387
0.0240162
0.0235009
0.0226639
0.0214532
0.0198634
0.0179574
0.0157169
0.013356
0.0111633
0.00913474
0.00725844
0.00552498
0.00395276
0.00258654
0.00146767
0.000708753
0.00032289
0.00016153
0.000110872
0.000108552
0.00939992
0.0108142
0.0138004
0.0169798
0.0189496
0.0199188
0.0202291
0.0203677
0.00861201
0.00804132
0.00763065
0.00733735
0.0071282
0.00698091
0.0068781
0.00680673
0.00675743
0.0067219
0.00670282
0.00669287
0.00667616
0.00667484
0.00667007
0.00667067
0.00666998
0.00667186
0.00667298
0.00667551
0.00667771
0.00668054
0.0066833
0.00668648
0.00668977
0.00669343
0.00669726
0.00670149
0.00670594
0.0203252
0.0202468
0.0202116
0.0202636
0.0204331
0.0207298
0.0211411
0.0216371
0.0221805
0.0227348
0.0232642
0.0237272
0.0240685
0.0242082
0.0240471
0.0235883
0.0227811
0.0215929
0.0200463
0.0181722
0.0159454
0.0135764
0.0113642
0.00931201
0.00741126
0.00565395
0.00405359
0.0026621
0.00151569
0.00072964
0.000327928
0.000161099
0.000110544
0.000109673
0.00919984
0.010469
0.0132551
0.0165604
0.018681
0.0197371
0.0201052
0.0200453
0.0199822
0.00847185
0.00793811
0.00755704
0.00728517
0.0070927
0.00695743
0.00686272
0.00679671
0.00675075
0.00671822
0.00670072
0.00669055
0.00667577
0.00667435
0.00667002
0.00667064
0.00666997
0.00667186
0.00667299
0.00667549
0.00667767
0.00668041
0.0066832
0.00668637
0.00668968
0.00669336
0.0066972
0.00670145
0.00670593
0.0198283
0.0196886
0.0196308
0.0196929
0.0198961
0.0202386
0.0206997
0.0212452
0.021838
0.0224449
0.0230314
0.0235547
0.0239577
0.0241598
0.0240585
0.0236438
0.0228738
0.0217358
0.0202363
0.0183984
0.0161894
0.013815
0.0115841
0.00950771
0.00758096
0.00579789
0.00416738
0.00274703
0.00157011
0.000753792
0.000333647
0.000160725
0.000110255
0.000110991
0.00900827
0.0101503
0.0126985
0.016095
0.0183836
0.0195303
0.0199378
0.0199097
0.0196079
0.0194154
0.00833546
0.00783836
0.00748668
0.00723676
0.00706043
0.00693606
0.0068487
0.00678762
0.00674455
0.00671505
0.00669918
0.00668811
0.00667558
0.00667396
0.00667006
0.00667062
0.00666997
0.00667185
0.00667303
0.0066754
0.00667756
0.00668027
0.00668309
0.00668626
0.00668959
0.00669328
0.00669714
0.00670142
0.00670592
0.0191891
0.0190191
0.0189652
0.0190592
0.0193085
0.0197049
0.0202211
0.0208194
0.021467
0.022133
0.0227823
0.0233693
0.023835
0.0240986
0.0240531
0.0236855
0.0229654
0.0218809
0.0204325
0.0186352
0.016449
0.0140725
0.0118244
0.00972358
0.00776952
0.00595847
0.00429597
0.00284291
0.00163213
0.000781645
0.000340254
0.000160382