/*--------------------------------*- C++ -*----------------------------------*\
  =========                 |
  \\      /  F ield         | OpenFOAM: The Open Source CFD Toolbox
   \\    /   O peration     | Website:  https://openfoam.org
    \\  /    A nd           | Version:  8
     \\/     M anipulation  |
\*---------------------------------------------------------------------------*/
FoamFile
{
    version     2.0;
    format      ascii;
    class       volScalarField;
    location    "0.13";
    object      k;
}
// * * * * * * * * * * * * * * * * * * * * * * * * * * * * * * * * * * * * * //

dimensions      [0 2 -2 0 0 0 0];

internalField   nonuniform List<scalar> 
15677
(
0.333994
0.364682
0.29434
0.368614
0.357021
0.280632
0.370641
0.359745
0.365645
0.282421
0.371857
0.361481
0.361176
0.383035
0.288665
0.372596
0.363665
0.35759
0.368114
0.401533
0.30016
0.373032
0.365622
0.357771
0.358023
0.379975
0.419284
0.311713
0.37326
0.367161
0.359419
0.354513
0.36094
0.39321
0.434704
0.322533
0.373348
0.368293
0.361331
0.354727
0.353002
0.366836
0.406109
0.447824
0.332041
0.373349
0.369076
0.363049
0.356311
0.351084
0.353453
0.373515
0.418218
0.458684
0.340425
0.373314
0.369565
0.364432
0.358201
0.351905
0.34876
0.354755
0.380653
0.429048
0.467826
0.34751
0.373274
0.369824
0.365456
0.359949
0.353699
0.348365
0.347129
0.35709
0.387619
0.43876
0.475339
0.353726
0.373248
0.369927
0.366144
0.36139
0.355652
0.349753
0.345342
0.34631
0.359684
0.394393
0.447171
0.481751
0.358907
0.373237
0.36994
0.366545
0.362474
0.357416
0.351714
0.346196
0.342919
0.345875
0.362579
0.40063
0.45462
0.487049
0.36357
0.373237
0.369922
0.366733
0.363208
0.358852
0.353677
0.348063
0.343089
0.340854
0.345888
0.365437
0.406474
0.46095
0.491601
0.367632
0.373238
0.369907
0.366791
0.363634
0.359911
0.355388
0.350149
0.344748
0.340285
0.339188
0.346019
0.368328
0.411638
0.466532
0.495381
0.371226
0.373239
0.369899
0.366792
0.363832
0.360604
0.356736
0.352082
0.34688
0.341693
0.337818
0.337733
0.346345
0.370994
0.416387
0.471168
0.498719
0.374517
0.37324
0.369896
0.366782
0.363889
0.360986
0.357691
0.353684
0.348979
0.343828
0.338925
0.335576
0.33652
0.34673
0.373595
0.420416
0.475238
0.501597
0.377319
0.37324
0.369894
0.366775
0.363897
0.361135
0.358278
0.354884
0.350799
0.346059
0.341021
0.336373
0.333591
0.33544
0.347236
0.375845
0.424036
0.478583
0.504135
0.380161
0.37324
0.369893
0.36677
0.363892
0.361179
0.358547
0.355677
0.352225
0.348069
0.343349
0.338417
0.334073
0.331774
0.334567
0.347658
0.377948
0.426982
0.481502
0.506486
0.382371
0.37324
0.369892
0.366767
0.363885
0.361185
0.358651
0.356077
0.353223
0.349701
0.345524
0.34083
0.336052
0.331954
0.330197
0.333761
0.348127
0.379654
0.42959
0.483892
0.508496
0.385018
0.37324
0.369891
0.366764
0.363879
0.361179
0.358683
0.356251
0.353769
0.35089
0.347347
0.343157
0.338532
0.333878
0.330089
0.328765
0.33312
0.348469
0.381197
0.431591
0.485966
0.510612
0.386774
0.37324
0.36989
0.366763
0.363875
0.361172
0.358686
0.356316
0.354031
0.351572
0.348725
0.345158
0.340994
0.336436
0.331965
0.32841
0.327566
0.332523
0.348815
0.38235
0.433378
0.487676
0.512282
0.389405
0.37324
0.369889
0.366762
0.363871
0.361166
0.35868
0.356333
0.354145
0.351918
0.349559
0.346707
0.343162
0.339047
0.334601
0.330262
0.327005
0.326515
0.332087
0.349054
0.383388
0.43461
0.489189
0.514419
0.390838
0.37324
0.369888
0.366761
0.363868
0.361161
0.358671
0.35633
0.354183
0.35208
0.350008
0.347668
0.344892
0.341391
0.337346
0.332997
0.328871
0.32583
0.325745
0.331717
0.349281
0.384062
0.435805
0.490421
0.515835
0.393476
0.37324
0.369888
0.36676
0.363865
0.361157
0.358662
0.356322
0.354188
0.352144
0.350234
0.348202
0.346013
0.343287
0.339847
0.335919
0.331754
0.327766
0.324978
0.325119
0.331501
0.349473
0.384728
0.436472
0.491706
0.518353
0.394868
0.373241
0.369888
0.36676
0.363863
0.361154
0.358655
0.356313
0.354178
0.352161
0.350331
0.348482
0.346666
0.34452
0.341927
0.338651
0.334861
0.330775
0.326986
0.32439
0.324906
0.331531
0.349726
0.385103
0.437315
0.492548
0.52001
0.505192
0.373241
0.369888
0.366759
0.363862
0.361151
0.358648
0.356304
0.354165
0.352157
0.350359
0.348613
0.347023
0.345244
0.343356
0.340929
0.337724
0.334078
0.330314
0.326768
0.324402
0.325005
0.331684
0.349973
0.385541
0.437694
0.494461
0.528709
0.713771
0.373241
0.369887
0.366759
0.36386
0.361149
0.358644
0.356297
0.354151
0.352145
0.350355
0.348663
0.347192
0.345654
0.344237
0.342442
0.340186
0.33737
0.334078
0.330425
0.326963
0.324653
0.325342
0.332038
0.350348
0.38586
0.438516
0.494975
0.54557
0.89262
0.373241
0.369887
0.366759
0.363859
0.361147
0.35864
0.356291
0.354139
0.35213
0.350338
0.348671
0.347255
0.345871
0.344748
0.343363
0.342006
0.340217
0.337562
0.334398
0.330901
0.32755
0.325294
0.326046
0.332725
0.350867
0.386264
0.439114
0.494689
0.558651
1.03824
0.373241
0.369887
0.366758
0.363859
0.361146
0.358637
0.356286
0.35413
0.352117
0.350317
0.348658
0.347262
0.345968
0.345002
0.343917
0.343183
0.342168
0.340594
0.338197
0.335248
0.331951
0.328751
0.326537
0.327257
0.333757
0.351584
0.38689
0.438859
0.493226
0.568507
1.16548
0.373241
0.369887
0.366758
0.363858
0.361145
0.358634
0.356282
0.354122
0.352106
0.350298
0.348637
0.347242
0.345996
0.345106
0.344253
0.343911
0.343432
0.342755
0.341537
0.339525
0.336914
0.333848
0.330691
0.328421
0.328935
0.335183
0.352604
0.387409
0.437974
0.49015
0.575331
1.26985
0.373241
0.369887
0.366758
0.363857
0.361144
0.358632
0.356278
0.354116
0.352096
0.350281
0.348616
0.347213
0.345987
0.345131
0.344423
0.344298
0.344226
0.344172
0.344005
0.343373
0.341804
0.339495
0.336557
0.333396
0.330936
0.33116
0.337038
0.353871
0.387864
0.436151
0.484833
0.579903
1.3478
0.373241
0.369887
0.366758
0.363857
0.361143
0.35863
0.356275
0.35411
0.352087
0.350267
0.348596
0.347184
0.345961
0.345114
0.344486
0.344494
0.344685
0.345083
0.345678
0.346256
0.346213
0.345078
0.343036
0.340191
0.336904
0.334179
0.333943
0.33936
0.355394
0.388002
0.43306
0.478209
0.582824
1.40797
0.373241
0.369887
0.366758
0.363856
0.361142
0.358629
0.356273
0.354106
0.35208
0.350255
0.348579
0.347158
0.34593
0.34508
0.344491
0.344573
0.344928
0.345641
0.346792
0.348228
0.349562
0.350171
0.349467
0.347668
0.344809
0.341323
0.338162
0.337348
0.342134
0.357114
0.387906
0.428989
0.471567
0.585329
1.45638
0.369887
0.373245
0.366758
0.363856
0.361142
0.358627
0.35627
0.354102
0.352073
0.350245
0.348564
0.347135
0.345901
0.345041
0.344465
0.344588
0.345041
0.345958
0.347512
0.349581
0.35191
0.354103
0.3554
0.355123
0.353474
0.350533
0.346675
0.342965
0.341342
0.34536
0.35931
0.387617
0.424805
0.465354
0.587741
1.49695
0.366758
0.369897
0.373252
0.363856
0.361141
0.358626
0.356268
0.354098
0.352068
0.350236
0.34855
0.347116
0.345874
0.345005
0.344429
0.344569
0.345078
0.346125
0.347953
0.350489
0.353572
0.356927
0.360057
0.362074
0.362156
0.360596
0.357398
0.353056
0.348555
0.34596
0.349343
0.362019
0.387262
0.420761
0.459752
0.590574
1.5323
0.363856
0.366774
0.369918
0.37326
0.361141
0.358625
0.356267
0.354096
0.352063
0.350229
0.348539
0.347099
0.34585
0.344973
0.344392
0.344536
0.345075
0.346204
0.348217
0.351088
0.354738
0.358991
0.363484
0.367627
0.370339
0.370728
0.369084
0.365519
0.360432
0.354975
0.351779
0.354299
0.365102
0.386948
0.416981
0.454862
0.593615
1.56393
0.36114
0.363877
0.366808
0.369939
0.373267
0.358624
0.356265
0.354093
0.352059
0.350223
0.348529
0.347084
0.34583
0.344945
0.344358
0.344502
0.345055
0.346234
0.348373
0.351487
0.355562
0.360506
0.366071
0.371811
0.37699
0.380377
0.380912
0.379074
0.374862
0.368863
0.36299
0.359128
0.359785
0.368394
0.387005
0.413638
0.45067
0.597169
1.59297
0.358624
0.361167
0.363922
0.366843
0.369961
0.373275
0.356264
0.354091
0.352055
0.350217
0.34852
0.347072
0.345812
0.34492
0.344328
0.34447
0.34503
0.346241
0.348466
0.351763
0.356161
0.361641
0.368053
0.375072
0.382118
0.388357
0.392291
0.392866
0.39054
0.385513
0.379351
0.373052
0.367304
0.365759
0.372131
0.3873
0.410654
0.447111
0.600839
1.61987
0.356263
0.358655
0.361223
0.363968
0.366878
0.369984
0.373284
0.354089
0.352052
0.350212
0.348513
0.347061
0.345796
0.344899
0.344301
0.344442
0.345007
0.34624
0.348526
0.351963
0.356626
0.362534
0.369625
0.377675
0.38624
0.394652
0.401865
0.406267
0.406575
0.403597
0.398734
0.392471
0.384212
0.376228
0.372139
0.375983
0.387928
0.408215
0.444029
0.604889
1.6452
0.354087
0.356299
0.358719
0.36128
0.364015
0.366915
0.370007
0.373292
0.35205
0.350208
0.348506
0.347052
0.345782
0.34488
0.344278
0.344417
0.344986
0.346236
0.34857
0.352117
0.357001
0.363283
0.37094
0.379848
0.389667
0.399873
0.409591
0.417736
0.422307
0.422181
0.41979
0.415259
0.406994
0.396358
0.385799
0.378975
0.379977
0.388973
0.406227
0.441488
0.608911
1.66898
0.352048
0.354125
0.356371
0.358785
0.361338
0.364064
0.366952
0.370031
0.373301
0.350205
0.3485
0.347044
0.345769
0.344865
0.344258
0.344395
0.344967
0.346233
0.348607
0.352246
0.357313
0.363928
0.372109
0.381759
0.392653
0.404377
0.416201
0.427221
0.43601
0.440597
0.441538
0.44002
0.433523
0.422768
0.409368
0.395936
0.386181
0.384147
0.390299
0.404685
0.439318
0.613174
1.69159
0.350201
0.352088
0.354205
0.356446
0.358853
0.361398
0.364114
0.36699
0.370056
0.37331
0.348495
0.347038
0.345758
0.344851
0.344241
0.344377
0.344951
0.346231
0.34864
0.35236
0.357586
0.364489
0.373165
0.383536
0.395392
0.408452
0.422094
0.435572
0.447626
0.456955
0.463345
0.465761
0.46237
0.453333
0.439631
0.423115
0.406549
0.393678
0.388478
0.391891
0.403567
0.437597
0.617296
1.71285
0.348491
0.350243
0.352174
0.354286
0.356523
0.358923
0.36146
0.364165
0.36703
0.370081
0.373319
0.347031
0.345748
0.34484
0.344225
0.34436
0.344938
0.34623
0.348671
0.352464
0.357832
0.364992
0.374112
0.385196
0.398031
0.41233
0.427613
0.443254
0.458123
0.471151
0.483151
0.491965
0.492584
0.486624
0.474485
0.457414
0.437463
0.417533
0.4014
0.392947
0.393579
0.402839
0.436153
0.621557
1.73315
0.347026
0.348533
0.350332
0.352261
0.35437
0.356602
0.358995
0.361523
0.364218
0.36707
0.370107
0.373328
0.34574
0.344831
0.344211
0.344346
0.344927
0.34623
0.3487
0.352559
0.358056
0.36545
0.374977
0.386718
0.400567
0.416184
0.43303
0.450675
0.468067
0.484322
0.500745
0.516347
0.523885
0.52182
0.512555
0.496773
0.475933
0.452268
0.428788
0.409275
0.397567
0.395368
0.402387
0.435056
0.6256
1.75217
0.345733
0.347066
0.348622
0.350423
0.352352
0.354457
0.356684
0.359068
0.361588
0.364272
0.367112
0.370133
0.373338
0.344823
0.344199
0.344334
0.344917
0.346231
0.348727
0.352646
0.358261
0.365872
0.375773
0.388127
0.40294
0.419976
0.43855
0.458167
0.477952
0.497157
0.517526
0.538585
0.553652
0.558896
0.553246
0.539946
0.519983
0.495007
0.467391
0.440214
0.417244
0.402285
0.397251
0.402209
0.434152
0.629716
1.77036
0.344817
0.345766
0.347152
0.348714
0.350517
0.352445
0.354546
0.356768
0.359144
0.361655
0.364327
0.367155
0.37016
0.373347
0.344186
0.344322
0.344909
0.346233
0.348752
0.352727
0.358449
0.366259
0.376507
0.389435
0.405164
0.423579
0.44409
0.465995
0.488192
0.510269
0.534355
0.560458
0.581545
0.594942
0.596776
0.586613
0.568568
0.5439
0.514456
0.482695
0.451716
0.425248
0.407059
0.39921
0.402256
0.433516
0.633568
1.78731
0.344176
0.344845
0.345841
0.347241
0.34881
0.350614
0.352542
0.354637
0.356854
0.359222
0.361724
0.364384
0.367199
0.370187
0.373356
0.344312
0.344902
0.346234
0.348776
0.3528
0.358621
0.366614
0.377184
0.390652
0.407251
0.426992
0.44944
0.474023
0.49912
0.524188
0.552035
0.583113
0.609831
0.62966
0.64009
0.6373
0.621647
0.598171
0.568316
0.534116
0.498056
0.463208
0.433231
0.411849
0.401234
0.402393
0.433018
0.637457
1.80354
0.344306
0.344178
0.344906
0.345918
0.347334
0.348909
0.350714
0.352641
0.354732
0.356943
0.359302
0.361795
0.364442
0.367242
0.370213
0.373365
0.344895
0.346236
0.348798
0.352868
0.358778
0.36694
0.377807
0.391779
0.409203
0.43022
0.454578
0.481905
0.51051
0.539375
0.571314
0.607694
0.640102
0.666006
0.683043
0.689016
0.680244
0.658078
0.628511
0.593048
0.553837
0.513362
0.474613
0.441145
0.416622
0.403298
0.402654
0.432747
0.641053
1.81855
0.344892
0.344291
0.344187
0.344969
0.346
0.34743
0.349013
0.350817
0.352744
0.354828
0.357035
0.359384
0.361867
0.3645
0.367284
0.370239
0.373374
0.346237
0.348817
0.352929
0.358921
0.367237
0.378379
0.392822
0.411022
0.433263
0.459495
0.489556
0.521831
0.555586
0.592918
0.635339
0.674078
0.706358
0.729678
0.742016
0.741718
0.72542
0.695667
0.659358
0.617918
0.573489
0.528517
0.485864
0.448945
0.421347
0.405402
0.403
0.432549
0.644672
1.83296
0.346244
0.344847
0.344258
0.344197
0.345037
0.346089
0.347529
0.349121
0.350923
0.35285
0.354928
0.357129
0.359468
0.361939
0.364556
0.367325
0.370263
0.373382
0.348832
0.352983
0.359052
0.367509
0.378903
0.393783
0.412712
0.436119
0.464174
0.496934
0.532971
0.572121
0.616526
0.667228
0.713753
0.753701
0.7839
0.802124
0.807153
0.798302
0.772691
0.734204
0.690511
0.642765
0.592953
0.543437
0.496902
0.456592
0.425999
0.407525
0.403408
0.43252
0.647977
1.84621
0.348854
0.346153
0.344742
0.344221
0.344224
0.345107
0.346184
0.347632
0.349232
0.351033
0.352959
0.355031
0.357225
0.359552
0.362009
0.364611
0.367364
0.370287
0.37339
0.353031
0.359169
0.367756
0.379382
0.394666
0.414275
0.438788
0.4686
0.504006
0.543898
0.588772
0.640937
0.70317
0.761807
0.81222
0.851244
0.875848
0.885025
0.879149
0.858907
0.821939
0.773503
0.721794
0.667449
0.612133
0.558053
0.507678
0.464055
0.430557
0.409646
0.403866
0.432553
0.651309
1.85895
0.353086
0.348688
0.345934
0.344629
0.344184
0.344269
0.345178
0.346286
0.347738
0.349348
0.351145
0.353072
0.355136
0.35732
0.359633
0.362076
0.364664
0.367403
0.370311
0.373398
0.359272
0.367979
0.379818
0.395476
0.415718
0.441273
0.472764
0.510753
0.55456
0.605353
0.665716
0.742033
0.819783
0.888031
0.939595
0.972392
0.985294
0.979792
0.958483
0.923567
0.873021
0.813386
0.75305
0.691848
0.630947
0.572308
0.518155
0.471307
0.435004
0.411751
0.404366
0.432633
0.654321
1.86917
0.359383
0.35283
0.348276
0.345704
0.34453
0.344145
0.344329
0.345252
0.346393
0.347848
0.349468
0.351262
0.353187
0.35524
0.357413
0.359712
0.362142
0.364715
0.36744
0.370333
0.373406
0.368178
0.380213
0.396217
0.417046
0.443579
0.476666
0.517162
0.564887
0.621664
0.690802
0.784193
0.887217
0.984788
1.05866
1.10311
1.12062
1.1136
1.08677
1.04508
0.992073
0.925717
0.853667
0.784138
0.715857
0.649325
0.586158
0.528302
0.478328
0.439323
0.413825
0.404892
0.432785
0.656948
1.87779
0.36838
0.359007
0.352163
0.347848
0.345498
0.344441
0.34411
0.3444
0.345329
0.346506
0.347962
0.349592
0.351382
0.353301
0.355342
0.357503
0.359789
0.362206
0.364765
0.367477
0.370355
0.373414
0.38057
0.39689
0.418266
0.445713
0.480312
0.523221
0.574811
0.637581
0.716343
0.830144
0.963898
1.09894
1.21042
1.27844
1.30353
1.29504
1.25953
1.2049
1.13818
1.06392
0.979712
0.894146
0.814925
0.739384
0.66721
0.599566
0.538096
0.485102
0.443504
0.415859
0.405442
0.432947
0.659092
1.88708
0.380919
0.367851
0.357976
0.351472
0.347455
0.345309
0.344359
0.344083
0.344478
0.345412
0.346624
0.348081
0.349719
0.351501
0.353412
0.355441
0.35759
0.359864
0.362268
0.364814
0.367512
0.370377
0.373421
0.397503
0.41938
0.447684
0.483708
0.528926
0.584288
0.653064
0.74251
0.879692
1.04806
1.22551
1.38315
1.49431
1.54209
1.53536
1.49107
1.41969
1.33191
1.2364
1.13832
1.0346
0.934601
0.845281
0.762353
0.684555
0.612506
0.54752
0.491618
0.447538
0.417841
0.405926
0.43311
0.661469
1.89724
0.398086
0.380196
0.366311
0.356914
0.350829
0.347087
0.345132
0.344286
0.344065
0.344563
0.345501
0.346746
0.348205
0.349845
0.351618
0.35352
0.355538
0.357675
0.359937
0.362328
0.364862
0.367546
0.370398
0.373424
0.420402
0.449497
0.486864
0.534276
0.5933
0.668126
0.769323
0.931931
1.13674
1.35863
1.56632
1.73006
1.82533
1.8395
1.79035
1.70242
1.58967
1.46495
1.33803
1.21434
1.0899
0.974796
0.875087
0.784701
0.701323
0.624958
0.556564
0.497868
0.451416
0.419512
0.406359
0.433309
0.664029
1.90827
0.421348
0.397126
0.377948
0.364733
0.355918
0.350218
0.34674
0.344968
0.344224
0.344058
0.344653
0.345598
0.346871
0.34833
0.349968
0.351733
0.353625
0.355632
0.357758
0.360007
0.362387
0.364908
0.36758
0.370408
0.373424
0.45117
0.489785
0.539279
0.601848
0.682787
0.796618
0.9856
1.22687
1.49298
1.75161
1.97177
2.12555
2.19101
2.16024
2.06018
1.92284
1.76502
1.60107
1.44127
1.29098
1.14512
1.01449
0.904229
0.80637
0.717485
0.636908
0.565221
0.503847
0.454645
0.420954
0.406852
0.433571
0.666894
1.9204
0.45269
0.420104
0.393898
0.37566
0.36325
0.354966
0.349633
0.346413
0.344816
0.344172
0.344064
0.344745
0.345704
0.346996
0.348453
0.350087
0.351844
0.353727
0.355724
0.357838
0.360076
0.362444
0.364953
0.367596
0.370408
0.373424
0.492498
0.543943
0.609946
0.697049
0.824109
1.03946
1.31602
1.62467
1.93307
2.21031
2.42704
2.55689
2.58053
2.4953
2.33773
2.14693
1.94186
1.73764
1.54446
1.36726
1.19977
1.05347
0.932602
0.827312
0.733021
0.648351
0.573489
0.508802
0.457411
0.422562
0.407427
0.433887
0.669965
1.93356
0.49492
0.451091
0.415521
0.39064
0.373504
0.361825
0.354049
0.349072
0.346106
0.344677
0.344132
0.344085
0.344838
0.345815
0.347117
0.348575
0.350204
0.351954
0.353826
0.355813
0.357916
0.360143
0.362499
0.364975
0.367596
0.370408
0.373424
0.548307
0.617616
0.7109
0.851469
1.09247
1.40247
1.75124
2.10698
2.43968
2.72016
2.91985
3.01351
2.98488
2.83729
2.6172
2.37033
2.11705
1.87248
1.64618
1.44234
1.25341
1.09151
0.96011
0.84749
0.747918
0.659282
0.58033
0.513033
0.460469
0.42436
0.408088
0.43429
0.673418
1.94807
0.552155
0.492884
0.444636
0.410939
0.387567
0.371428
0.360446
0.353165
0.348535
0.345823
0.344551
0.344101
0.344132
0.344929
0.345929
0.347235
0.348695
0.350317
0.35206
0.353923
0.3559
0.357992
0.360208
0.362526
0.364975
0.367596
0.370408
0.373424
0.624909
0.72433
0.878398
1.14386
1.48513
1.87129
2.27128
2.65638
2.9986
3.26927
3.43989
3.48646
3.39651
3.18019
2.89403
2.58971
2.2882
2.00391
1.74531
1.51552
1.30565
1.12844
0.986678
0.866878
0.762167
0.668331
0.586165
0.517697
0.463857
0.426374
0.408865
0.434769
0.677123
1.9638
0.631346
0.54955
0.483807
0.438247
0.40661
0.384599
0.369415
0.359113
0.352314
0.348019
0.34556
0.344435
0.344064
0.344199
0.345016
0.346044
0.34735
0.348812
0.350427
0.352164
0.354017
0.355984
0.358066
0.360241
0.362526
0.364975
0.367596
0.370408
0.373424
0.737336
0.904656
1.19308
1.56336
1.98411
2.42499
2.85861
3.25871
3.598
3.84739
3.97811
3.96789
3.80898
3.51908
3.1647
2.80261
2.45357
2.1307
1.84099
1.58627
1.35619
1.1641
1.01224
0.885451
0.773974
0.676052
0.592591
0.522845
0.467617
0.428637
0.40976
0.43537
0.681323
1.98117
0.748864
0.628041
0.536655
0.47493
0.432204
0.402425
0.381717
0.367463
0.357826
0.351496
0.347529
0.345317
0.344334
0.34403
0.344277
0.345103
0.346159
0.347463
0.348927
0.350535
0.352265
0.354108
0.356067
0.358103
0.360241
0.362526
0.364975
0.367596
0.370408
0.373421
0.930049
1.2398
1.63684
2.0894
2.56779
3.0457
3.49868
3.90174
4.22732
4.44517
4.52625
4.45076
4.21676
3.85001
3.42653
3.00724
2.61195
2.25204
1.93265
1.65416
1.40479
1.19838
1.03676
0.900859
0.784053
0.684556
0.599677
0.528538
0.4718
0.431184
0.410818
0.436024
0.685835
1.99994
0.744805
0.952389
0.60892
0.524312
0.466521
0.426356
0.398357
0.378919
0.365574
0.356586
0.350714
0.347068
0.345097
0.344247
0.344006
0.344361
0.345191
0.346273
0.347575
0.34904
0.35064
0.352364
0.354197
0.356107
0.358103
0.360241
0.362526
0.364975
0.367596
0.370398
0.373413
1.28383
1.70547
2.18716
2.69972
3.21765
3.71804
4.17846
4.57429
4.87677
5.05391
5.07664
4.92875
4.61516
4.16985
3.67756
3.2024
2.7626
2.36738
2.01988
1.71894
1.45128
1.23119
1.05709
0.914022
0.795162
0.693938
0.607505
0.534843
0.476461
0.434062
0.41204
0.436799
0.690988
2.02073
0.71477
0.948326
1.32177
0.591182
0.512647
0.458376
0.420668
0.394402
0.376207
0.363751
0.355395
0.34997
0.346642
0.344905
0.344176
0.343995
0.344446
0.34528
0.346385
0.347684
0.34915
0.350742
0.35246
0.354241
0.356107
0.358103
0.360241
0.362526
0.364975
0.36758
0.370377
0.373406
1.76923
2.27758
2.82111
3.37489
3.91718
4.42785
4.88582
5.26595
5.5372
5.66541
5.62217
5.39627
5.00029
4.47619
3.91644
3.38736
2.90507
2.47644
2.1025
1.78046
1.49555
1.25836
1.07447
0.928539
0.807422
0.704304
0.616166
0.54184
0.481668
0.437317
0.413488
0.437656
0.696526
2.04308
0.687233
0.900619
1.31788
1.82361
0.574685
0.501342
0.450452
0.415136
0.390565
0.373585
0.361996
0.354257
0.349272
0.346261
0.344739
0.344121
0.343997
0.344532
0.345371
0.346494
0.347792
0.349257
0.350843
0.352507
0.354241
0.356107
0.358103
0.360241
0.362526
0.364952
0.367546
0.370355
0.373398
2.36087
2.93246
3.51814
4.09702
4.65081
5.16176
5.60951
5.96709
6.20002
6.2719
6.15634
5.84846
5.369
4.76729
4.14233
3.56174
3.0392
2.57913
2.18042
1.83862
1.532
1.28152
1.09362
0.944568
0.820975
0.715775
0.625766
0.54962
0.487497
0.441018
0.415168
0.438687
0.702912
2.06788
0.661995
0.855575
1.24878
1.82087
2.43123
0.558872
0.490333
0.442749
0.409766
0.386853
0.371057
0.360313
0.353181
0.348637
0.345927
0.344597
0.34408
0.34401
0.344616
0.345464
0.346601
0.347898
0.349362
0.350892
0.352507
0.354241
0.356107
0.358103
0.360241
0.362499
0.364907
0.367511
0.370333
0.37339
3.03428
3.64836
4.25889
4.84896
5.40366
5.90743
6.33931
6.66886
6.85713
6.86619
6.67329
6.28124
5.71893
5.04204
4.35478
3.72539
3.165
2.6755
2.25366
1.88621
1.56298
1.30699
1.11475
0.962288
0.835976
0.728491
0.636427
0.558289
0.494042
0.44523
0.417168
0.43985
0.709772
2.09435
0.638312
0.81343
1.18087
1.73286
2.43057
3.11956
0.543572
0.479623
0.435276
0.404569
0.383272
0.36863
0.358717
0.352195
0.348071
0.345634
0.344476
0.344052
0.344039
0.344697
0.345558
0.346706
0.348003
0.349414
0.350891
0.352507
0.354241
0.356107
0.358103
0.360208
0.362443
0.36486
0.367476
0.37031
0.373382
3.76645
4.40435
5.02448
5.61416
6.16211
6.65389
7.06618
7.36313
7.50097
7.44159
7.16793
6.6914
6.04845
5.29977
4.55366
3.87846
3.28264
2.76567
2.31325
1.92646
1.5969
1.33502
1.13808
0.981901
0.852605
0.742612
0.648291
0.567971
0.501406
0.450051
0.4195
0.441269
0.717777
2.1238
0.615889
0.773686
1.11461
1.64461
2.32622
3.12148
3.86416
0.528741
0.469232
0.428049
0.399555
0.379832
0.366325
0.357251
0.35131
0.347565
0.345382
0.344374
0.34403
0.344085
0.344776
0.345654
0.346811
0.348054
0.349412
0.350891
0.352507
0.354241
0.356107
0.358066
0.360142
0.362385
0.364813
0.367439
0.370287
0.373374
4.53484
5.17982
5.79654
6.37747
6.91418
7.39182
7.78218
8.04242
8.1244
7.99206
7.63601
7.07658
6.35656
5.54029
4.73913
4.02119
3.39237
2.83877
2.36349
1.97035
1.63406
1.36587
1.16386
1.00363
0.871067
0.758321
0.661522
0.578811
0.509721
0.455574
0.422293
0.442902
0.726344
2.15488
0.594585
0.736267
1.0497
1.55652
2.22059
3.00282
3.86794
4.64077
0.51438
0.459186
0.421083
0.394737
0.376564
0.364202
0.355929
0.350516
0.347112
0.345165
0.344287
0.344005
0.344143
0.344853
0.345754
0.346861
0.348052
0.349412
0.350891
0.352507
0.354241
0.356066
0.357991
0.360074
0.362326
0.364764
0.367402
0.370263
0.373365
5.31713
5.95445
6.55832
7.1257
7.65008
8.1135
8.48026
8.69968
8.72076
8.51232
8.0743
7.43527
6.64284
5.76376
4.91157
4.15397
3.48106
2.90022
2.41804
2.01816
1.67474
1.39982
1.19235
1.02773
0.89159
0.775827
0.67631
0.590981
0.519134
0.461943
0.425575
0.444922
0.736504
2.19545
0.574315
0.701233
0.986297
1.46807
2.11403
2.8825
3.73634
4.64421
5.42542
0.500506
0.449514
0.414396
0.390161
0.373552
0.362287
0.354739
0.349802
0.346707
0.344977
0.344216
0.343984
0.344208
0.344937
0.345802
0.346856
0.348052
0.349412
0.350891
0.352507
0.354197
0.355983
0.357914
0.360005
0.362266
0.364713
0.367363
0.370238
0.373356
6.09101
6.70986
7.29516
7.84832
8.36226
8.81251
9.15404
9.32821
9.28393
8.99806
8.4805
7.76671
6.90745
5.97063
5.07143
4.26098
3.55547
2.96678
2.47726
2.07024
1.71925
1.43716
1.22385
1.05447
0.914432
0.795371
0.692876
0.60468
0.529832
0.469296
0.429539
0.447274
0.749234
2.24454
0.55501
0.668641
0.924846
1.37919
2.00591
2.76062
3.60342
4.50009
5.42483
6.1951
0.48715
0.440247
0.408051
0.385945
0.370834
0.360559
0.353667
0.349161
0.346349
0.344818
0.344156
0.343974
0.344286
0.344971
0.345798
0.346856
0.348052
0.349412
0.350892
0.352459
0.354107
0.355898
0.357836
0.359934
0.362203
0.364662
0.367324
0.370213
0.373347
6.83654
7.42981
7.9956
8.53782
9.04472
9.48351
9.79753
9.92152
9.80847
9.446
8.85336
8.07094
7.15089
6.16153
5.19984
4.35059
3.6359
3.03882
2.54149
2.12689
1.76792
1.47823
1.25866
1.08415
0.939882
0.817222
0.711472
0.620148
0.542028
0.47785
0.434236
0.450836
0.766257
2.29405
0.536622
0.638493
0.865936
1.29012
1.89583
2.63647
3.46898
4.35591
5.26733
6.1859
6.9283
0.474348
0.431475
0.402211
0.382142
0.368381
0.359002
0.352703
0.348588
0.346035
0.344679
0.344109
0.343989
0.344322
0.344958
0.345799
0.346856
0.348052
0.349414
0.350842
0.352362
0.354014
0.35581
0.357755
0.359861
0.36214
0.364609
0.367283
0.370187
0.373338
7.53575
8.10167
8.6521
9.18828
9.69297
10.122
10.4048
10.4732
10.2898
9.85404
9.19264
8.34854
7.374
6.31408
5.30709
4.44723
3.72273
3.11671
2.61108
2.18847
1.82107
1.52334
1.29711
1.11711
0.968251
0.841684
0.732392
0.637654
0.555986
0.487818
0.441048
0.455457
0.785015
2.34355
0.519118
0.610711
0.810244
1.20136
1.78368
2.50936
3.33228
4.21105
5.11221
6.01238
6.90451
7.60574
0.462229
0.423425
0.396948
0.378713
0.366168
0.357597
0.351836
0.348078
0.345758
0.344562
0.344094
0.343985
0.344313
0.344956
0.345799
0.346856
0.348054
0.349361
0.350741
0.352262
0.35392
0.35572
0.357672
0.359786
0.362074
0.364555
0.367241
0.37016
0.373328
8.17478
8.71756
9.25329
9.78641
10.2933
10.7183
10.9688
10.9773
10.7248
10.2215
9.49896
8.60057
7.55096
6.44101
5.4224
4.5513
3.81638
3.20082
2.68636
2.25529
1.87903
1.57283
1.33955
1.15366
0.999879
0.869094
0.755962
0.657537
0.572025
0.501702
0.450494
0.461745
0.806061
2.39248
0.502595
0.585138
0.758435
1.11366
1.66958
2.37877
3.19234
4.06482
4.95825
5.84528
6.7113
7.5598
8.21303
0.451119
0.41619
0.392207
0.375622
0.364173
0.356333
0.351057
0.34762
0.345517
0.344492
0.344073
0.343958
0.344317
0.344956
0.345797
0.346861
0.348003
0.349255
0.350637
0.35216
0.353823
0.355628
0.357587
0.359709
0.362007
0.364499
0.367198
0.370133
0.373319
8.74336
9.26636
9.80076
10.3419
10.8487
11.2645
11.482
11.4289
11.1116
10.5487
9.77357
8.7984
7.69737
6.57687
5.54615
4.66321
3.91722
3.29152
2.76769
2.32767
1.9421
1.62701
1.38629
1.19417
1.03512
0.899803
0.782566
0.680162
0.593943
0.520502
0.462091
0.46883
0.829343
2.44057
0.487442
0.561712
0.711068
1.02797
1.55379
2.24438
3.04826
3.91601
4.80482
5.68243
6.52999
7.34275
8.13177
8.74199
0.441158
0.409689
0.387937
0.372835
0.362374
0.355194
0.350356
0.347216
0.345348
0.344438
0.34404
0.343959
0.344317
0.344958
0.345802
0.34681
0.347896
0.349147
0.350531
0.352056
0.353723
0.355534
0.3575
0.359631
0.361938
0.364442
0.367155
0.370106
0.373309
9.23812
9.74853
10.2925
10.8546
11.3659
11.7592
11.938
11.825
11.4504
10.8372
9.98606
8.96078
7.85303
6.7219
5.67867
4.7833
4.0256
3.38913
2.85537
2.40592
2.01059
1.68619
1.43767
1.23896
1.07432
0.9342
0.81257
0.71075
0.622951
0.542343
0.475887
0.477941
0.855616
2.48723
0.47383
0.540694
0.668757
0.945505
1.43685
2.10605
2.89922
3.76333
4.65055
5.52322
6.35735
7.1441
7.888
8.60359
9.17534
0.432242
0.403848
0.384094
0.370325
0.360754
0.354165
0.349732
0.346914
0.345236
0.344394
0.344043
0.343959
0.344313
0.344971
0.345754
0.346704
0.347789
0.349036
0.350423
0.351949
0.353621
0.355438
0.35741
0.35955
0.361867
0.364384
0.367111
0.37008
0.3733
9.64619
10.158
10.7267
11.3192
11.8376
12.1963
12.331
12.1651
11.7423
11.056
10.1586
9.13179
8.01788
6.87623
5.82018
4.91185
4.14182
3.49395
2.94966
2.49028
2.08474
1.75062
1.49395
1.28835
1.11784
0.972611
0.852728
0.750442
0.655569
0.567455
0.492895
0.48854
0.884623
2.53217
0.461626
0.522025
0.632365
0.868306
1.31963
1.9638
2.74451
3.60551
4.49384
5.36604
6.19271
6.95987
7.66875
8.33128
8.96974
9.50524
0.424266
0.3986
0.380636
0.368065
0.359289
0.353246
0.349249
0.346728
0.345171
0.344399
0.344043
0.343958
0.344322
0.344936
0.345652
0.346598
0.347681
0.348923
0.350313
0.35184
0.353516
0.355339
0.357318
0.359468
0.361795
0.364326
0.367069
0.370055
0.373292
9.96384
10.4937
11.1047
11.7348
12.2546
12.5671
12.6555
12.4491
11.9573
11.2309
10.3378
9.31085
8.19165
7.03981
5.97079
5.04906
4.2661
3.6062
3.0508
2.58095
2.16474
1.82051
1.55536
1.34259
1.16592
1.02343
0.903801
0.793931
0.691911
0.596441
0.51311
0.50206
0.917574
2.57469
0.450709
0.50531
0.601769
0.799644
1.20424
1.81794
2.58353
3.44122
4.33298
5.20909
6.03417
6.78921
7.47067
8.08864
8.662
9.22112
9.72639
0.417132
0.393886
0.377526
0.366022
0.357978
0.352521
0.348962
0.346642
0.345178
0.344399
0.34404
0.343985
0.344285
0.344852
0.345556
0.346491
0.347571
0.348808
0.350199
0.351729
0.353409
0.355238
0.357224
0.359384
0.361723
0.36427
0.367029
0.37003
0.373283
10.1869
10.7574
11.4287
12.097
12.6047
12.8629
12.908
12.6489
12.125
11.409
10.5224
9.49702
8.37375
7.21237
6.13046
5.195
4.39858
3.72603
3.1589
2.67805
2.25069
1.89597
1.62205
1.40181
1.22875
1.08675
0.958417
0.841007
0.732077
0.629362
0.537664
0.518117
0.953985
2.61456
0.440968
0.490282
0.575829
0.740967
1.09535
1.67013
2.41585
3.26913
4.16608
5.05032
5.8797
6.6298
7.29277
7.87452
8.39233
8.87219
9.34696
9.82923
0.41075
0.389652
0.37472
0.364193
0.356927
0.352097
0.348848
0.346654
0.345178
0.344393
0.344073
0.34399
0.344207
0.344774
0.345461
0.346381
0.347459
0.348691
0.350083
0.351615
0.353299
0.355135
0.357128
0.359301
0.361654
0.364216
0.366989
0.370006
0.373275
10.3135
10.9524
11.6996
12.3911
12.8737
13.0808
13.0662
12.7978
12.2907
11.588
10.7105
9.68892
8.56328
7.39339
6.29891
5.34956
4.53922
3.85345
3.274
2.78158
2.34259
1.977
1.69399
1.47817
1.30546
1.15293
1.01599
0.891291
0.775807
0.666531
0.566418
0.538335
0.995607
2.65108
0.432292
0.476762
0.553533
0.691755
0.996377
1.52542
2.24254
3.08791
3.99106
4.88737
5.72703
6.47938
7.13217
7.68797
8.16025
8.57165
8.9547
9.33549
9.80559
0.405039
0.38584
0.372209
0.362712
0.356322
0.351948
0.348865
0.346654
0.345171
0.344439
0.344095
0.343974
0.344141
0.344695
0.345367
0.346268
0.347346
0.348571
0.349965
0.351499
0.353186
0.35503
0.357033
0.35922
0.361586
0.364163
0.366951
0.369983
0.373267
10.3411
11.0858
11.8981
12.5992
13.0426
13.2004
13.1703
12.9348
12.4511
11.7647
10.8996
9.88467
8.75889
7.582
6.47562
5.51242