/*--------------------------------*- C++ -*----------------------------------*\
  =========                 |
  \\      /  F ield         | OpenFOAM: The Open Source CFD Toolbox
   \\    /   O peration     | Website:  https://openfoam.org
    \\  /    A nd           | Version:  8
     \\/     M anipulation  |
\*---------------------------------------------------------------------------*/
FoamFile
{
    version     2.0;
    format      ascii;
    class       volScalarField;
    location    "0.33";
    object      nut;
}
// * * * * * * * * * * * * * * * * * * * * * * * * * * * * * * * * * * * * * //

dimensions      [0 2 -1 0 0 0 0];

internalField   nonuniform List<scalar> 
15677
(
0.000168168
0.000652159
0.000148208
0.00151206
0.000443101
0.000141307
0.00267204
0.000878182
0.000381066
0.000142206
0.00391631
0.00152267
0.000687326
0.000354336
0.000145345
0.00501904
0.00236032
0.00114795
0.00058607
0.000340311
0.00015113
0.00583676
0.00332104
0.00178285
0.00094867
0.000529555
0.000332038
0.000156935
0.00633339
0.00430099
0.00256976
0.00146457
0.000821458
0.000492636
0.000326988
0.000162382
0.00656228
0.00518808
0.00345455
0.00213295
0.00125803
0.000737571
0.000467539
0.000324102
0.000167161
0.00665821
0.00589313
0.00435622
0.0029233
0.00184245
0.00111279
0.000677584
0.000450503
0.000322525
0.000171386
0.00670542
0.00633796
0.00518103
0.00377972
0.00255777
0.00163237
0.00100491
0.000634259
0.000438736
0.000321962
0.000174951
0.00671437
0.00655328
0.00584511
0.00462551
0.00336325
0.00228703
0.00147302
0.000924457
0.000602308
0.000430794
0.0003219
0.000178087
0.0067099
0.00666143
0.00629534
0.00537695
0.00419704
0.00304561
0.00207809
0.00134931
0.000862416
0.000578689
0.000425316
0.000322376
0.000180706
0.00670626
0.00669873
0.00652936
0.00596408
0.00498391
0.00385734
0.00279585
0.00191199
0.00125145
0.000814288
0.00056092
0.000421829
0.000323005
0.000183046
0.00670535
0.00670438
0.00664666
0.0063565
0.00564958
0.00465557
0.00358321
0.0025937
0.00177797
0.00117321
0.000776448
0.000547748
0.000419461
0.000323923
0.000185092
0.00670538
0.00670289
0.00668779
0.00656263
0.00614158
0.00536796
0.00438091
0.0033569
0.00242794
0.00166828
0.00110972
0.000746683
0.000537633
0.000418243
0.000324769
0.000186903
0.00670552
0.00670169
0.00669631
0.00665639
0.00644643
0.00593307
0.00512043
0.00414836
0.00316834
0.00229004
0.00157786
0.00105805
0.000722954
0.000530358
0.000417359
0.000325817
0.000188563
0.00670558
0.00670126
0.00669704
0.00668482
0.00660462
0.00632124
0.00573683
0.00490341
0.00395065
0.0030093
0.00217479
0.0015028
0.00101602
0.000704462
0.00052462
0.00041723
0.000326749
0.000189976
0.00670558
0.00670119
0.00669664
0.00669161
0.00666357
0.00654089
0.0061877
0.00555637
0.00471397
0.00378126
0.00287474
0.00207788
0.00144046
0.000981943
0.000689538
0.000520738
0.000417149
0.000327825
0.000191408
0.00670555
0.00670123
0.00669633
0.0066927
0.0066822
0.00663432
0.0064674
0.00605741
0.00539326
0.00454829
0.00363603
0.00276038
0.00199643
0.00138891
0.000954003
0.000678147
0.000517598
0.000417658
0.000328799
0.000192521
0.00670552
0.00670128
0.00669618
0.00669268
0.0066872
0.00666898
0.00659776
0.00638901
0.00593436
0.00524658
0.00440395
0.00351124
0.00266332
0.00192827
0.00134621
0.000931676
0.000668948
0.000515837
0.000418052
0.000329861
0.000193849
0.0067055
0.00670132
0.00669611
0.00669259
0.00668813
0.0066807
0.00665124
0.00655586
0.00631052
0.00581938
0.0051161
0.00427819
0.00340443
0.00258134
0.0018714
0.0013114
0.000913624
0.000662326
0.000514353
0.000418945
0.000330885
0.000194731
0.00670549
0.00670135
0.00669606
0.00669257
0.00668811
0.00668414
0.00667159
0.00663016
0.00651096
0.0062328
0.00571431
0.00500034
0.00416956
0.00331349
0.00251265
0.00182466
0.00128316
0.000899698
0.000657042
0.000514009
0.000419645
0.00033191
0.000196045
0.00670549
0.00670135
0.00669603
0.00669258
0.00668796
0.00668496
0.00667846
0.00666127
0.00660587
0.00646485
0.00615984
0.00561892
0.00489931
0.00407628
0.00323698
0.0024558
0.00178668
0.00126096
0.000888931
0.000653853
0.00051365
0.000420795
0.000333044
0.000196757
0.00670549
0.00670135
0.00669602
0.00669259
0.00668785
0.00668509
0.00668042
0.00667317
0.0066483
0.00658046
0.00641907
0.0060918
0.00553462
0.00481141
0.00399736
0.00317334
0.00240986
0.00175698
0.00124407
0.000881361
0.000651346
0.000514308
0.000421689
0.000333946
0.000198071
0.0067055
0.00670135
0.00669601
0.00669258
0.00668779
0.00668507
0.00668081
0.0066773
0.0066657
0.00663529
0.00655375
0.0063756
0.00603022
0.00545968
0.00473683
0.00393189
0.00312252
0.00237391
0.00173433
0.00123163
0.000876056
0.000650755
0.000514756
0.000423094
0.000335376
0.000198756
0.00670551
0.00670133
0.00669601
0.00669257
0.00668776
0.00668503
0.0066808
0.00667855
0.00667216
0.00665946
0.00662027
0.00652831
0.0063352
0.0059742
0.00539698
0.00467539
0.00387954
0.00308187
0.00234651
0.00171848
0.00122418
0.000873764
0.000650385
0.000516203
0.000424
0.000336126
5.33357e-05
0.00670552
0.00670132
0.00669602
0.00669255
0.00668774
0.00668499
0.00668072
0.00667883
0.00667427
0.00666933
0.00665071
0.00660717
0.00650404
0.00629891
0.00592891
0.00534379
0.0046246
0.00383766
0.00305363
0.00232982
0.00171031
0.00122074
0.000872915
0.000651866
0.000517289
0.000426432
0.000283407
6.32504e-05
0.00670553
0.0067013
0.00669603
0.00669253
0.00668774
0.00668495
0.00668067
0.00667882
0.00667483
0.00667301
0.0066636
0.00664535
0.00659305
0.00648236
0.00626833
0.00588678
0.00530211
0.00459049
0.00381397
0.00303754
0.0023207
0.0017068
0.00121993
0.000874637
0.000653459
0.00051939
0.000419882
0.000219242
7.05722e-05
0.00670554
0.00670129
0.00669604
0.00669251
0.00668774
0.00668491
0.00668063
0.00667874
0.00667489
0.00667418
0.00666862
0.0066626
0.00663677
0.00658337
0.00646615
0.00624073
0.00586291
0.00527801
0.00456823
0.0037969
0.00302801
0.00231747
0.0017078
0.00122341
0.000877581
0.00065576
0.000520577
0.000399897
0.000177903
7.59624e-05
0.00670555
0.00670127
0.00669605
0.00669249
0.00668774
0.00668488
0.0066806
0.00667866
0.00667484
0.00667441
0.00667037
0.0066698
0.00665689
0.00663573
0.00657397
0.00645027
0.00623215
0.0058464
0.00525963
0.0045537
0.00378899
0.00302688
0.00232152
0.0017148
0.0012297
0.000882094
0.00065899
0.000518389
0.000367062
0.000152489
8.03169e-05
0.00670556
0.00670126
0.00669606
0.00669247
0.00668774
0.00668485
0.00668058
0.00667858
0.00667478
0.00667435
0.00667084
0.00667245
0.00666562
0.00666107
0.00662943
0.00657212
0.00644924
0.00622505
0.00583603
0.00525047
0.00455162
0.00379385
0.00303701
0.00233368
0.00172653
0.00123891
0.000888261
0.000662006
0.00051228
0.000335866
0.000134204
8.36618e-05
0.00670557
0.00670124
0.00669607
0.00669246
0.00668775
0.00668482
0.00668056
0.00667852
0.00667472
0.00667424
0.0066709
0.00667319
0.00666913
0.00667237
0.00665653
0.00663814
0.00657494
0.00645183
0.00622341
0.0058375
0.00525819
0.0045642
0.00381091
0.0030562
0.00235249
0.00174268
0.00125099
0.000895567
0.000664636
0.000500848
0.000305781
0.000121285
8.60286e-05
0.00670558
0.00670123
0.00669608
0.00669244
0.00668775
0.0066848
0.00668055
0.00667847
0.00667467
0.00667411
0.00667084
0.00667326
0.00667031
0.00667691
0.00666927
0.0066718
0.00664369
0.0065833
0.00646019
0.0062362
0.00585502
0.00527931
0.00458956
0.0038388
0.00308412
0.00237777
0.00176284
0.00126555
0.000903978
0.000665841
0.000485462
0.000279761
0.000112821
8.77741e-05
0.00670558
0.00670122
0.00669609
0.00669242
0.00668776
0.00668478
0.00668054
0.00667843
0.00667462
0.00667401
0.00667075
0.00667313
0.00667061
0.00667839
0.00667499
0.00668776
0.00667912
0.00665602
0.00660036
0.00648193
0.00626292
0.00588605
0.00531441
0.00462748
0.00387753
0.00312056
0.00240898
0.00178687
0.00128252
0.000913147
0.000665911
0.000468579
0.000259994
0.000107072
8.91234e-05
0.00670121
0.0067056
0.0066961
0.00669241
0.00668777
0.00668475
0.00668054
0.00667839
0.00667459
0.00667391
0.00667067
0.00667296
0.00667061
0.00667871
0.00667717
0.00669478
0.00669631
0.00669412
0.00667924
0.00662885
0.00651641
0.00630335
0.00593203
0.00536351
0.00467823
0.00392674
0.00316505
0.0024461
0.0018144
0.00130141
0.000923862
0.000664773
0.000453535
0.000244821
0.000103045
9.02157e-05
0.00669611
0.00670121
0.00670562
0.00669239
0.00668778
0.00668474
0.00668053
0.00667836
0.00667455
0.00667384
0.00667058
0.00667278
0.00667052
0.00667863
0.00667789
0.00669753
0.0067042
0.00671311
0.00672143
0.00671256
0.00666992
0.00656511
0.00635936
0.00599293
0.00542713
0.00474141
0.00398634
0.00321755
0.00248844
0.00184534
0.00132502
0.000936877
0.00066312
0.000440695
0.000233032
0.00010018
9.11387e-05
0.00669238
0.00669614
0.00670122
0.00670564
0.00668778
0.00668472
0.00668053
0.00667832
0.00667453
0.00667377
0.00667051
0.00667263
0.00667041
0.00667843
0.00667806
0.00669847
0.00670748
0.0067222
0.00674306
0.0067585
0.00675884
0.0067253
0.00662983
0.00643197
0.00607057
0.00550571
0.00481749
0.00405592
0.0032772
0.00253607
0.00188294
0.00135323
0.000950515
0.000662032
0.000430051
0.000223713
9.80934e-05
9.19442e-05
0.00668779
0.0066924
0.00669621
0.00670123
0.00670567
0.0066847
0.00668053
0.0066783
0.00667451
0.00667371
0.00667045
0.0066725
0.0066703
0.0066782
0.00667803
0.00669872
0.00670874
0.00672624
0.00675392
0.0067831
0.00680885
0.00681961
0.00679715
0.0067115
0.00652232
0.00616461
0.00559951
0.0049054
0.00413496
0.00334413
0.00259395
0.00192936
0.00138282
0.000964997
0.000661457
0.000421251
0.000216244
9.65748e-05
9.2667e-05
0.00668468
0.00668784
0.00669244
0.00669627
0.00670125
0.00670569
0.00668053
0.00667827
0.00667449
0.00667366
0.00667039
0.00667239
0.00667019
0.00667798
0.00667795
0.0066987
0.0067092
0.00672802
0.00675915
0.00679606
0.00683637
0.0068734
0.00689692
0.00688626
0.00681174
0.00663019
0.00627557
0.00570846
0.00500613
0.00422333
0.00342528
0.00266477
0.00197948
0.00141384
0.000980048
0.000662006
0.000413998
0.000210154
9.54426e-05
9.33248e-05
0.00668054
0.00668471
0.00668793
0.00669249
0.00669634
0.00670126
0.00670572
0.00667824
0.00667448
0.00667361
0.00667035
0.00667229
0.00667009
0.00667778
0.00667786
0.0066986
0.00670936
0.00672887
0.00676179
0.00680299
0.00685237
0.00690547
0.0069571
0.0069929
0.00699381
0.00692952
0.0067558
0.00640279
0.00583158
0.0051184
0.00433059
0.00352452
0.0027409
0.00203253
0.00144595
0.000995905
0.000663177
0.000408047
0.000205124
9.4614e-05
9.39338e-05
0.00667822
0.00668059
0.00668478
0.00668803
0.00669254
0.00669641
0.00670127
0.00670574
0.00667448
0.00667357
0.00667031
0.00667221
0.00667
0.00667762
0.00667778
0.00669846
0.00670939
0.00672933
0.0067633
0.00680692
0.00686171
0.00692495
0.00699449
0.00706078
0.00711188
0.0071234
0.00706628
0.00689787
0.00654512
0.00596727
0.00525608
0.00446228
0.0036309
0.00282152
0.00208798
0.00147902
0.00101221
0.000665908
0.000403224
0.000200841
9.39852e-05
9.4498e-05
0.00667447
0.00667825
0.00668071
0.00668486
0.00668813
0.00669259
0.00669648
0.00670129
0.00670577
0.00667352
0.00667029
0.00667214
0.00666993
0.00667748
0.0066777
0.00669833
0.00670937
0.00672963
0.00676431
0.00680955
0.00686772
0.00693738
0.00701903
0.00710477
0.00718854
0.00725326
0.00727731
0.00722537
0.00705554
0.0067009
0.00613151
0.00542182
0.0046043
0.00374408
0.00290565
0.00214532
0.00151273
0.0010285
0.000668979
0.000399302
0.000197241
9.35319e-05
9.50274e-05
0.00667348
0.00667453
0.00667833
0.00668083
0.00668493
0.00668824
0.00669264
0.00669655
0.0067013
0.00670579
0.00667027
0.00667206
0.00666986
0.00667738
0.00667762
0.0066982
0.00670935
0.00672985
0.00676508
0.00681155
0.00687215
0.00694615
0.00703636
0.00713588
0.00724148
0.00734097
0.0074206
0.00745394
0.00740757
0.00723371
0.00688575
0.00632587
0.00559738
0.00475369
0.00386255
0.00299251
0.00220393
0.00154721
0.0010447
0.00067259
0.000396253
0.000194107
9.31845e-05
9.55202e-05
0.00667026
0.00667348
0.00667464
0.00667841
0.00668095
0.00668501
0.00668835
0.00669269
0.00669663
0.00670132
0.00670582
0.00667199
0.00666981
0.00667729
0.00667753
0.0066981
0.00670933
0.00673003
0.00676571
0.00681321
0.00687572
0.0069531
0.00704971
0.00715958
0.00728191
0.00740534
0.0075226
0.00761374
0.00765504
0.00761038
0.00745386
0.00711282
0.00653036
0.00578009
0.00490728
0.00398367
0.00308121
0.00226332
0.00158204
0.00106086
0.000676776
0.000393734
0.000191434
9.29456e-05
9.59853e-05
0.00667192
0.00667028
0.00667353
0.00667476
0.00667849
0.00668109
0.00668509
0.00668846
0.00669275
0.0066967
0.00670134
0.00670585
0.00666977
0.00667722
0.00667743
0.00669801
0.00670932
0.0067302
0.00676626
0.00681468
0.00687876
0.00695906
0.0070609
0.00717887
0.00731515
0.00745795
0.00760225
0.0077333
0.00783517
0.00788055
0.0078587
0.00772275
0.00735997
0.00674164
0.00596437
0.00506283
0.00410665
0.00317078
0.00232301
0.00161692
0.00107692
0.000681406
0.000391845
0.000189069
9.27621e-05
9.64176e-05
0.00666976
0.00667185
0.00667033
0.00667358
0.00667489
0.00667858
0.00668122
0.00668517
0.00668858
0.0066928
0.00669678
0.00670136
0.00670587
0.00667715
0.00667733
0.00669797
0.00670932
0.00673035
0.00676675
0.00681599
0.00688143
0.00696438
0.00707071
0.00719564
0.00734384
0.00750373
0.0076715
0.00783217
0.00797713
0.00808523
0.00815859
0.00816353
0.00801228
0.0076234
0.00696492
0.00615096
0.00521929
0.00422949
0.00326031
0.0023825
0.00165162
0.00109275
0.000686082
0.000390359
0.000187039
9.265e-05
9.68267e-05
0.00667708
0.00666967
0.00667176
0.0066704
0.00667362
0.00667503
0.00667866
0.00668137
0.00668525
0.0066887
0.00669286
0.00669686
0.00670138
0.00670589
0.00667722
0.00669796
0.00670934
0.0067305
0.00676719
0.00681717
0.00688382
0.00696921
0.0070795
0.00721081
0.00736971
0.0075445
0.0077348
0.00792295
0.00810128
0.00825473
0.0083962
0.008503
0.00849485
0.00831941
0.00789653
0.00719587
0.00633606
0.00537289
0.00435087
0.00334898
0.00244137
0.00168586
0.00110859
0.000690705
0.000389294
0.000185217
9.2565e-05
9.72054e-05
0.00667712
0.00667684
0.00666948
0.00667167
0.00667049
0.00667366
0.00667519
0.00667874
0.00668152
0.00668533
0.00668882
0.00669292
0.00669693
0.0067014
0.00670591
0.00669801
0.00670936
0.00673063
0.00676758
0.00681824
0.00688598
0.00697363
0.00708744
0.00722478
0.00739348
0.00758184
0.00779336
0.00800977
0.0082208
0.00841027
0.00860361
0.00878612
0.00888152
0.00884954
0.00864093
0.00817669
0.00743213
0.0065244
0.00552345
0.00446986
0.0034361
0.00249924
0.0017195
0.00112423
0.000695298
0.000388443
0.000183642
9.25294e-05
9.75647e-05
0.00669812
0.00667653
0.00667645
0.00666933
0.00667156
0.0066706
0.0066737
0.00667536
0.00667883
0.00668168
0.00668542
0.00668894
0.00669299
0.00669701
0.00670143
0.00670593
0.00670936
0.00673074
0.00676792
0.0068192
0.00688795
0.00697767
0.00709467
0.00723774
0.00741539
0.00761663
0.0078487
0.0080922
0.00833852
0.00856618
0.00880429
0.00904799
0.00922083
0.0092921
0.00922514
0.00897417
0.0084616
0.00766854
0.00671355
0.00567068
0.00458586
0.00352122
0.0025558
0.00175238
0.00113956
0.000699813
0.000387881
0.000182211
9.25043e-05
9.78955e-05
0.00670933
0.00669758
0.00667548
0.006676
0.00666924
0.00667144
0.00667075
0.00667372
0.00667555
0.00667891
0.00668185
0.00668551
0.00668907
0.00669306
0.00669708
0.00670146
0.00670595
0.00673082
0.0067682
0.00682008
0.00688974
0.00698136
0.00710127
0.00724974
0.00743556
0.00764931
0.00790135
0.00817067
0.00845218
0.00872582
0.00901547
0.00931514
0.00955206
0.00970123
0.00973497
0.00962076
0.00931739
0.00874926
0.00790351
0.0069014
0.00581405
0.00469829
0.00360371
0.00261076
0.00178436
0.00115452
0.000704262
0.000387421
0.000180969
9.25151e-05
9.82102e-05
0.0067309
0.00670829
0.0066962
0.00667467
0.00667547
0.00666923
0.00667128
0.00667093
0.00667375
0.00667574
0.006679
0.00668201
0.00668561
0.00668919
0.00669313
0.00669715
0.00670148
0.00670597
0.00676845
0.00682088
0.00689139
0.00698473
0.00710732
0.00726083
0.00745413
0.0076801
0.00795116
0.00824526
0.00856284
0.00888659
0.00923945
0.00960702
0.00990762
0.0101257
0.0102357
0.0102147
0.0100375
0.00966987
0.0090383
0.00813588
0.00708648
0.00595324
0.00480602
0.00368323
0.00266391
0.00181533
0.00116907
0.000708601
0.000387174
0.000179827
9.25264e-05
9.84983e-05
0.00676869
0.00672933
0.00670615
0.00669448
0.00667416
0.00667482
0.00666931
0.00667109
0.00667114
0.00667377
0.00667594
0.0066791
0.00668218
0.00668571
0.0066893
0.0066932
0.00669721
0.00670151
0.00670598
0.00682162
0.00689291
0.0069878
0.00711285
0.00727102
0.00747122
0.00770905
0.00799787
0.00831625
0.0086716
0.00904812
0.00946572
0.00992456
0.0103198
0.0106174
0.0107975
0.0108412
0.0107389
0.0104778
0.0100316
0.00932781
0.00836478
0.00726754
0.00608976
0.00490926
0.00375957
0.0027151
0.00184522
0.00118315
0.000712836
0.000386955
0.000178834
9.25646e-05
9.87731e-05
0.00682235
0.00676606
0.00672599
0.00670398
0.00669247
0.00667398
0.00667404
0.00666949
0.00667089
0.00667136
0.0066738
0.00667615
0.0066792
0.00668234
0.00668581
0.00668941
0.00669327
0.00669727
0.00670154
0.006706
0.0068943
0.0069906
0.00711792
0.00728037
0.00748696
0.00773611
0.00804139
0.00838406
0.00877834
0.00920774
0.00968903
0.0102618
0.0108139
0.011246
0.0115076
0.0116015
0.0115329
0.0113132
0.010943
0.0104021
0.00961707
0.00858955
0.00744307
0.00622263
0.00500809
0.0038326
0.0027642
0.00187396
0.00119672
0.000716937
0.000386888
0.00017791
9.25981e-05
9.89927e-05
0.00689562
0.00681901
0.0067603
0.00672275
0.00670191
0.00669
0.0066741
0.00667317
0.00666972
0.00667069
0.0066716
0.00667385
0.00667635
0.00667932
0.00668249
0.00668592
0.00668952
0.00669334
0.00669733
0.00670157
0.00670601
0.00699314
0.00712253
0.00728891
0.00750144
0.00776125
0.00808181
0.0084489
0.00888179
0.00936221
0.00991061
0.0106338
0.0114068
0.0120681
0.0124703
0.0126103
0.0125452
0.0123101
0.0119353
0.0114311
0.0107804
0.00990524
0.0088096
0.00761282
0.00635123
0.00510252
0.00390228
0.00281117
0.00190151
0.00120976
0.000720903
0.000386874
0.000177113
9.26429e-05
9.9177e-05
0.0069955
0.00689087
0.00681119
0.0067546
0.00671972
0.00670041
0.00668717
0.00667441
0.00667226
0.00666998
0.00667051
0.00667182
0.00667392
0.00667654
0.00667944
0.00668264
0.00668602
0.00668961
0.0066934
0.00669738
0.0067016
0.00670602
0.00712674
0.00729668
0.00751473
0.00778446
0.00811933
0.00851065
0.00898034
0.00951033
0.0101375
0.0110575
0.0121086
0.0130589
0.0137028
0.0139491
0.0138759
0.0135915
0.01315
0.012593
0.0119363
0.0111636
0.0101912
0.0090244
0.00777661
0.00647511
0.00519261
0.00396862
0.00285596
0.00192784
0.00122225
0.000724722
0.000386868
0.000176472
9.26794e-05
9.93755e-05
0.0071306
0.00698903
0.00687936
0.00680341
0.00674915
0.00671682
0.00669929
0.00668421
0.0066748
0.00667139
0.00667022
0.00667037
0.00667203
0.00667401
0.00667671
0.00667957
0.00668277
0.00668613
0.00668971
0.00669347
0.00669744
0.00670163
0.00670603
0.00730372
0.00752688
0.00780578
0.00815412
0.00856897
0.00907298
0.00965323
0.0103769
0.0115344
0.0128902
0.0141369
0.015046
0.0155125
0.0155205
0.0151956
0.0146733
0.0140147
0.0132667
0.0124494
0.0115479
0.0104735
0.00923341
0.00793429
0.00659405
0.00527841
0.00403164
0.00289857
0.00195294
0.00123419
0.000728406
0.00038689
0.00017595
9.27289e-05
9.95913e-05
0.00731011
0.00712186
0.00697256
0.00686784
0.0067958
0.00674387
0.00671411
0.00669834
0.00668131
0.00667514
0.00667063
0.00667041
0.00667031
0.0066722
0.00667413
0.00667687
0.0066797
0.0066829
0.00668623
0.0066898
0.00669354
0.00669749
0.00670166
0.00670604
0.00753796
0.00782528
0.0081863
0.00862348
0.00915951
0.00979297
0.010631
0.0120472
0.0136931
0.0151941
0.0163285
0.017019
0.0172446
0.017015
0.0164598
0.0157222
0.0148637
0.0139345
0.0129597
0.0119287
0.0107506
0.0094361
0.00808575
0.00670788
0.00535998
0.0040914
0.00293902
0.00197682
0.00124557
0.000731476
0.000386934
0.000175393
9.2783e-05
9.98246e-05
0.00754799
0.00729879
0.00709861
0.00695605
0.00685659
0.00678828
0.00673884
0.00671156
0.00669741
0.00667867
0.00667529
0.00667006
0.00667049
0.00667033
0.00667234
0.00667426
0.00667701
0.00667983
0.00668302
0.00668634
0.00668988
0.00669361
0.00669754
0.00670167
0.00670604
0.00784306
0.00821595
0.00867397
0.00924037
0.00993104
0.0108958
0.012569
0.0144593
0.0161446
0.0174341
0.0182945
0.0187318
0.0187427
0.0183271
0.0175952
0.0166879
0.0156644
0.0145769
0.013457
0.0123013
0.0110206
0.00963196
0.00823093
0.00681657
0.00543738
0.00414799
0.00297735
0.00199949
0.00125497
0.000734112
0.00038698
0.000174829
9.28546e-05
0.000100079
0.007859
0.00753325
0.00726662
0.00707531
0.0069399
0.00684557
0.00678082
0.00673421
0.00670906
0.00669643
0.0066766
0.00667514
0.00666972
0.00667049
0.00667041
0.00667245
0.00667441
0.00667714
0.00667997
0.00668313
0.00668644
0.00668997
0.00669367
0.00669756
0.00670167
0.00670604
0.00824317
0.00872044
0.00931627
0.0100676
0.0111633
0.013074
0.0151493
0.0169448
0.0183162
0.0192779
0.0198681
0.0200995
0.0199557
0.0194173
0.0185686
0.017543
0.0163955
0.0151793
0.0139325
0.0126614
0.0112819
0.00982053
0.00836977
0.00692009
0.00551079
0.00420129
0.00301357
0.00201814
0.00126298
0.000737024
0.000387073
0.000174209
9.29307e-05
0.000100355
0.00826756
0.00784054
0.00748907
0.00723431
0.00705251
0.00692411
0.00683477
0.00677336
0.00672982
0.00670655
0.00669503
0.00667534
0.00667465
0.00666961
0.00667041
0.00667054
0.00667254
0.00667457
0.00667727
0.0066801
0.00668324
0.00668654
0.00669005
0.00669371
0.00669756
0.00670167
0.00670604
0.00876306
0.00938781
0.0102014
0.0114246
0.0135438
0.0157444
0.0175869
0.0189788
0.0199795
0.0206572
0.0210442
0.0211346
0.0208948
0.0202887
0.0193755
0.0182785
0.0170469
0.0157328
0.0143801
0.0130055
0.0115332
0.0100014
0.00850224
0.00701847
0.00558074
0.00425148
0.00304324
0.00203398
0.00127178
0.000740262
0.000387163
0.000173594
9.30306e-05
0.000100656
0.008801
0.00824434
0.00778067
0.00744473
0.00720264
0.00703023
0.00690868
0.00682418
0.00676604
0.00672558
0.00670399
0.00669285
0.00667478
0.0066739
0.00666965
0.00667029
0.00667069
0.00667263
0.00667473
0.00667739
0.00668024
0.00668335
0.00668664
0.00669009
0.00669371
0.00669756
0.00670167
0.00670604
0.00945539
0.0103307
0.0116722
0.013968
0.0162425
0.0180838
0.0194512
0.0204424
0.0211515
0.0216292
0.0218828
0.0218872
0.0215969
0.0209648
0.020028
0.0188978
0.0176165
0.0162333
0.0147959
0.0133311
0.0117732
0.0101742
0.00862836
0.00711163
0.0056472
0.00429252
0.00306839
0.00205135
0.00128148
0.000743841
0.000387331
0.000172905
9.31358e-05
0.000100981
0.00951688
0.00877232
0.0081633
0.00772052
0.00740122
0.00717165
0.00700844
0.0068936
0.0068139
0.00675883
0.00672153
0.00670149
0.00669001
0.00667472
0.00667304
0.00666978
0.00667016
0.00667086
0.00667271
0.00667488
0.00667751
0.00668037
0.00668346
0.00668669
0.00669008
0.00669371
0.00669756
0.00670167
0.00670604
0.0104539
0.0119051
0.0143437
0.0166506
0.0184575
0.0197703
0.0207181
0.0214157
0.02193
0.0222815
0.0224553
0.0224135
0.0221047
0.0214757
0.0205448
0.0194109
0.0181079
0.0166803
0.015178
0.0136367
0.0120011
0.0103387
0.00874821
0.00719977
0.00570191
0.00432725
0.00309589
0.00207041
0.00129216
0.000747842
0.00038748
0.000172241
9.32745e-05
0.000101336
0.0105646
0.00948096
0.00866221
0.00808204
0.00766139
0.00735859
0.00714133
0.00698717
0.00687893
0.00680404
0.00675179
0.00671781
0.00669952
0.00668677
0.00667492
0.00667219
0.00666993
0.00667006
0.00667101
0.0066728
0.00667503
0.00667763
0.00668049
0.00668351
0.00668669
0.00669008
0.00669371
0.00669756
0.00670167
0.00670603
0.0121239
0.0146696
0.0169802
0.0187313
0.0199714
0.0208539
0.0215096
0.0220192
0.0224156
0.0226944
0.0228251
0.0227637
0.0224577
0.0218515
0.020947
0.0198307
0.0185274
0.0170761
0.0155264
0.0139214
0.0122165
0.010495
0.00886189
0.00727209
0.00574841
0.00436518
0.00312597
0.00209135
0.00130396
0.000752263
0.000387759
0.000171476
9.34192e-05
0.000101718
0.0105237
0.012319
0.00932082
0.00855344
0.00800194
0.00760338
0.00731682
0.0071117
0.00696645
0.00686474
0.00679467
0.00674512
0.00671433
0.00669817
0.00668361
0.00667517
0.00667144
0.00667006
0.00667
0.00667116
0.0066729
0.00667518
0.00667775
0.00668056
0.0066835
0.00668669
0.00669008
0.00669371
0.00669756
0.00670166
0.00670602
0.014947
0.0172439
0.018927
0.0200845
0.0208889
0.0214826
0.0219572
0.0223574
0.0226894
0.0229307
0.0230422
0.0229786
0.0226897
0.0221188
0.0212544
0.0201705
0.018883
0.0174241
0.015842
0.0141854
0.0124193
0.0106429
0.0089553
0.00733343
0.00579939
0.00440665
0.00315892
0.00211437
0.00131698
0.000757214
0.000387986
0.00017077
9.36123e-05
0.000102135
0.0102782
0.0122809
0.0151725
0.0091671
0.0084466
0.00792319
0.00754652
0.00727596
0.0070828
0.00694633
0.00685106
0.00678562
0.0067388
0.0067112
0.00669706
0.00668076
0.00667531
0.00667084
0.00667014
0.00666998
0.00667129
0.00667301
0.00667532
0.00667781
0.00668056
0.0066835
0.00668669
0.00669008
0.00669371
0.00669754
0.00670163
0.00670601
0.0174534
0.0190627
0.0201338
0.0208535
0.0213726
0.0217911
0.0221638
0.0225081
0.0228106
0.0230368
0.0231443
0.0230901
0.0228277
0.0223005
0.0214848
0.0204431
0.0191828
0.0177288
0.0161267
0.014429
0.0126094
0.0107641
0.0090346
0.00740055
0.00585533
0.00445205
0.00319503
0.00213971
0.00133142
0.00076271
0.000388431
0.000169924
9.38115e-05
0.000102582
0.0100374
0.0119295
0.0151067
0.0176096
0.00902068
0.00834121
0.00784591
0.00749081
0.00723606
0.00705469
0.00692686
0.00683786
0.00677688
0.00673297
0.00670843
0.00669603
0.00667843
0.00667524
0.00667042
0.00667016
0.00667
0.0066714
0.00667313
0.00667538
0.0066778
0.00668056
0.0066835
0.00668669
0.00669009
0.00669367
0.00669749
0.0067016
0.006706
0.0191531
0.0201379
0.0207707
0.0212082
0.0215564
0.0218784
0.0222024
0.0225258
0.0228206
0.0230458
0.0231595
0.023123
0.0228937
0.0224152
0.0216532
0.02066
0.0194345
0.0179948
0.0163828
0.014653
0.0127636
0.0108668
0.00912139
0.00747406
0.00591677
0.00450179
0.00323465
0.00216764
0.00134738
0.000768959
0.000388764
0.000169188
9.40817e-05
0.000103069
0.00981174
0.0115499
0.0147507
0.0175126
0.0192007
0.0088791
0.00823724
0.00777022
0.00743634
0.00719721
0.00702743
0.00690804
0.00682519
0.00676862
0.00672786
0.00670586
0.00669491
0.00667688
0.00667494
0.00667017
0.00667013
0.00667006
0.0066715
0.00667318
0.00667539
0.0066778
0.00668056
0.0066835
0.00668669
0.00669005
0.00669361
0.00669743
0.00670157
0.00670598
0.0201106
0.0206575
0.0210104
0.0212794
0.0215341
0.0218121
0.0221226
0.0224472
0.022748
0.0229812
0.0231083
0.023096
0.0229049
0.0224781
0.0217725
0.0208309
0.0196454
0.0182267
0.0166125
0.0148311
0.0128932
0.0109788
0.00921644
0.00755465
0.0059843
0.00455636
0.00327817
0.00219844
0.00136516
0.000775785
0.000389451
0.000168256
9.43572e-05
0.000103587
0.00960051
0.0111764
0.0143092
0.0172846
0.0190508
0.0200521
0.00874068
0.00813494
0.00769625
0.00738323
0.0071595
0.00700106
0.00689002
0.00681333
0.00676094
0.00672343
0.00670339
0.00669317
0.00667603
0.00667443
0.00667007
0.00667006
0.00667015
0.00667154
0.00667318
0.00667539
0.0066778
0.00668056
0.00668351
0.00668664
0.00668997
0.00669354
0.00669738
0.00670154
0.00670597
0.0205261
0.0207943
0.0209795
0.0211555
0.0213678
0.0216374
0.0219576
0.0222974
0.0226122
0.0228595
0.0230063
0.0230237
0.0228747
0.0225015
0.0218529
0.0209645
0.0198215
0.0184284
0.0167906
0.0149789
0.0130333
0.011101
0.00932056
0.00764306
0.0060586
0.00461632
0.00332603
0.00223248
0.00138483
0.000783669
0.000389924
0.000167508
9.4738e-05
0.000104152
0.00940061
0.0108219
0.0138218
0.0169685
0.0188955
0.0198474
0.0203721
0.00860486
0.00803465
0.00762416
0.0073316
0.00712302
0.00697582
0.00687324
0.00680248
0.00675376
0.00671945
0.00670113
0.0066909
0.00667566
0.00667379
0.00667007
0.00666998
0.00667023
0.00667152
0.00667318
0.00667539
0.0066778
0.00668056
0.00668346
0.00668654
0.00668988
0.00669347
0.00669733
0.00670151
0.00670595
0.0205708
0.0206708
0.0207611
0.0208934
0.021099
0.0213846
0.0217296
0.0220924
0.0224263
0.0226928
0.0228651
0.0229177
0.022814
0.0224949
0.021903
0.0210676
0.0199685
0.01858
0.0169363
0.0151365
0.0131847
0.0112342
0.00943465
0.00774013
0.00614042
0.00468228
0.00337873
0.00227011
0.00140687
0.000792218
0.00039097
0.000166486
9.51225e-05
0.000104744
0.00920961
0.0104906
0.0133095
0.0165901
0.0186697
0.0197247
0.0201122
0.0203299
0.00847175
0.00793668
0.00755414
0.0072816
0.00708811
0.00695235
0.00685794
0.0067926
0.00674712
0.00671601
0.0066993
0.00668827
0.0066756
0.0066731
0.00667014
0.00666986
0.00667027
0.0066715
0.00667318
0.00667539
0.0066778
0.0066805
0.00668335
0.00668644
0.0066898
0.0066934
0.00669727
0.00670148
0.00670594
0.0203632
0.0203647
0.0204071
0.0205311
0.0207558
0.0210744
0.0214527
0.0218428
0.0221992
0.0224902
0.0226942
0.022787
0.022731
0.022466
0.0219296
0.0211461
0.0200735
0.0187019
0.0170889
0.0153039
0.0133478
0.0113792
0.00955968
0.00784681
0.0062306
0.00475495
0.00343685
0.00231184
0.00143126
0.000802276
0.000391629
0.000165733
9.56603e-05
0.000105501
0.00902589
0.0101833
0.012783
0.0161612
0.0183999
0.0195448
0.0199914
0.0200143
0.0200406
0.00834169
0.00784141
0.0074864
0.00723374
0.00705568
0.00693098
0.00684402
0.00678374
0.00674107
0.00671297
0.00669802
0.00668564
0.00667568
0.00667242
0.0066703
0.00666975
0.00667029
0.0066715
0.00667318
0.00667539
0.00667775
0.00668037
0.00668324
0.00668634
0.00668971
0.00669333
0.00669721
0.00670145
0.00670592
0.019976
0.0199232
0.0199526
0.020095
0.0203582
0.0207196
0.0211354
0.0215546
0.0219371
0.0222588
0.022501
0.0226387
0.0226324
0.022421
0.0219382
0.0211954
0.0201561
0.0188267
0.0172478
0.0154811
0.0135231
0.011537
0.00969666
0.00796413
0.00633009
0.00483515
0.00350108
0.00235806
0.0014588
0.000813039
0.000393204
0.000164571
9.63015e-05
0.000106403
0.00884865
0.00989996
0.0122515
0.0156826
0.0180986
0.0193367
0.0198221
0.019876
0.0196682
0.0195787
0.00821495
0.00774926
0.00742158
0.00718931
0.00702619
0.00691154
0.0068314
0.00677577
0.0067356
0.00671025
0.00669695
0.0066832
0.00667582
0.00667187
0.00667047
0.00666969
0.0066703
0.00667152
0.00667318
0.00667532
0.00667763
0.00668024
0.00668313
0.00668623
0.00668961
0.00669327
0.00669714
0.00670143
0.0067059
0.0194517
0.0193789
0.0194224
0.0196056
0.0199186
0.020328
0.0207818
0.0212313
0.021645
0.0220045
0.0222918
0.0224787
0.0225234
0.0223644
0.0219317
0.0212319
0.0202374
0.0189534
0.0174124
0.0156678
0.013711
0.0117084
0.00984667
0.00809319
0.00643996
0.00492379
0.0035721
0.00240957
0.00148923
0.000826005
0.000394124
0.000163708
9.72989e-05