/*--------------------------------*- C++ -*----------------------------------*\
  =========                 |
  \\      /  F ield         | OpenFOAM: The Open Source CFD Toolbox
   \\    /   O peration     | Website:  https://openfoam.org
    \\  /    A nd           | Version:  8
     \\/     M anipulation  |
\*---------------------------------------------------------------------------*/
FoamFile
{
    version     2.0;
    format      ascii;
    class       volScalarField;
    location    "0.4";
    object      nut;
}
// * * * * * * * * * * * * * * * * * * * * * * * * * * * * * * * * * * * * * //

dimensions      [0 2 -1 0 0 0 0];

internalField   nonuniform List<scalar> 
15677
(
0.000531128
0.000589081
0.00261759
0.00490112
0.00697136
0.00896379
0.0109713
0.0131037
0.015496
0.0183091
0.0214229
0.0245147
0.0282699
0.0331196
0.0339678
0.0334869
0.0318738
0.029327
0.0263011
0.0229515
0.0196015
0.0166333
0.0143537
0.012835
0.0115313
0.0104453
0.00946737
0.00862319
0.00791085
0.00729787
0.00675993
0.00628167
0.00585361
0.00546762
0.00511177
0.000925864
0.00791675
0.0207498
0.0351222
0.0480579
0.0573628
0.0631069
0.0660383
0.0675074
0.0685551
0.0689452
0.0666461
0.0645258
0.0628601
0.0625958
0.06234
0.06075
0.057471
0.0526066
0.0472952
0.0430237
0.0400304
0.0376719
0.0358974
0.0346748
0.0337318
0.0329301
0.0321694
0.0314536
0.0307889
0.0301757
0.029611
0.0290941
0.0286192
0.0281732
0.000896848
0.00860355
0.0202683
0.0322935
0.0435634
0.0536887
0.0624012
0.0693443
0.074048
0.0758185
0.073901
0.0683903
0.0608645
0.0537922
0.0509601
0.0510787
0.0510187
0.0508215
0.0496591
0.0485213
0.0475495
0.0470364
0.0468336
0.0462989
0.0457188
0.0451327
0.0445624
0.0440135
0.0436901
0.0435438
0.0435539
0.0436645
0.0437982
0.0438955
0.0439314
0.000779313
0.00554716
0.0131959
0.0211786
0.0288744
0.0359211
0.0420786
0.0469311
0.049979
0.0514803
0.0521225
0.051545
0.0505138
0.0493144
0.0479566
0.0465814
0.0460423
0.0465491
0.0468624
0.0466104
0.045079
0.0416437
0.0383934
0.0368884
0.0368641
0.0375599
0.0387266
0.0398315
0.0411377
0.0424407
0.0435311
0.0442872
0.0446858
0.0447574
0.0446033
0.000586238
0.00501529
0.0109979
0.0170735
0.022998
0.0286891
0.033853
0.0382514
0.0414781
0.0431128
0.0438549
0.0425081
0.0398182
0.0367555
0.0349477
0.0345409
0.0350237
0.0352816
0.0347045
0.0327974
0.0302065
0.0279553
0.0266065
0.0272096
0.0291211
0.0307441
0.0314407
0.0314699
0.0312677
0.0312082
0.031415
0.0318644
0.0324878
0.0332159
0.0339913
0.000295108
0.00132548
0.00306096
0.00492976
0.00678704
0.00859984
0.0102953
0.0117761
0.01276
0.0134282
0.0137947
0.0137351
0.0136846
0.0137849
0.0142451
0.0150472
0.0160536
0.0171497
0.0183689
0.0199266
0.0221156
0.0244741
0.0266704
0.0285566
0.0301497
0.0314235
0.0325718
0.0335902
0.0345435
0.035419
0.036177
0.0369029
0.0376341
0.0383811
0.0391407
0.000188466
0.000749218
0.00193082
0.00314697
0.0043433
0.00558583
0.00700852
0.0086438
0.0105211
0.0126856
0.0151617
0.017951
0.0210634
0.0244794
0.0277445
0.0306962
0.0333798
0.0358087
0.0381269
0.0404665
0.0430159
0.0455662
0.0477295
0.0493731
0.0504848
0.0511101
0.0513303
0.0512953
0.0511445
0.0509802
0.0508706
0.050851
0.0509245
0.0510753
0.0512782
0.000166066
0.00112545
0.00280607
0.00484146
0.00716518
0.00975901
0.0125851
0.0156552
0.018992
0.0226266
0.026587
0.0308694
0.035508
0.0402938
0.0446356
0.0483028
0.0514
0.0539258
0.0558479
0.0570993
0.0576369
0.0575793
0.0571796
0.0566335
0.0560495
0.0554702
0.0549039
0.05436
0.0538562
0.0534014
0.0529973
0.05264
0.0523233
0.0520409
0.0517918
0.000219741
0.0013354
0.00356645
0.00633453
0.00950171
0.0130294
0.0168959
0.0210773
0.0255385
0.0302291
0.03508
0.0400527
0.0449514
0.0496288
0.0534967
0.0564132
0.0585383
0.0599198
0.0606023
0.0606446
0.0601287
0.0592008
0.05813
0.0570911
0.0561877
0.0554746
0.0549682
0.0546448
0.0544498
0.0543312
0.0542452
0.0541623
0.0540657
0.0539596
0.0538539
0.000194366
0.0017798
0.00431803
0.0073795
0.0108743
0.0147646
0.0190209
0.0236033
0.0284492
0.0334882
0.0386391
0.0438104
0.0488214
0.0535482
0.0573953
0.0602514
0.0622951
0.0636033
0.0642581
0.0643454
0.0639518
0.0631669
0.0621599
0.06105
0.0599256
0.0588476
0.0578525
0.0569596
0.0561719
0.0554848
0.0549012
0.0544127
0.0540032
0.0536599
0.0533704
0.000227969
0.00168758
0.00437833
0.00769773
0.011491
0.0157
0.0202821
0.0251938
0.0303861
0.0357762
0.0412626
0.0467135
0.051938
0.0567651
0.0605595
0.0632584
0.0650709
0.0661037
0.066472
0.0662681
0.0655836
0.0645525
0.063402
0.0622585
0.0611869
0.0602129
0.0593422
0.0585654
0.0578727
0.0572551
0.0566977
0.0561988
0.0557576
0.0553663
0.0550174
0.000220293
0.00196477
0.00492239
0.00854356
0.0126648
0.0172083
0.0221094
0.0273022
0.0327133
0.0382436
0.0437887
0.0492238
0.0544141
0.0592001
0.0630011
0.0657645
0.0677005
0.0688775
0.0693503
0.0692108
0.0685473
0.0674772
0.0662347
0.0649391
0.0636406
0.0623582
0.0611442
0.0600339
0.059049
0.0581865
0.0574372
0.0567894
0.0562302
0.0557468
0.0553274
0.000233062
0.00191317
0.0049152
0.00862289
0.0128623
0.0175536
0.0226285
0.0280062
0.0335919
0.0392954
0.0450007
0.0505713
0.0558573
0.0606924
0.0645111
0.0672789
0.0692282
0.070423
0.0708999
0.0707425
0.0700476
0.0689538
0.0677095
0.066442
0.0652177
0.0640624
0.0629861
0.0619953
0.0610837
0.0602539
0.0595058
0.0588362
0.0582393
0.0577078
0.0572338
0.000231305
0.00206046
0.00521183
0.00907347
0.0134682
0.0183083
0.0235178
0.0290124
0.0346925
0.0404546
0.046186
0.0517579
0.0570384
0.0618892
0.0657409
0.0685446
0.0705068
0.0717162
0.072302
0.072308
0.0717888
0.0708398
0.0696762
0.0684309
0.0671776
0.0659756
0.0648534
0.063822
0.0628824
0.0620311
0.061262
0.0605684
0.0599433
0.0593822
0.0588824
0.000236203
0.00205358
0.00524653
0.00916267
0.0136157
0.0185164
0.0237896
0.0293527
0.035106
0.0409413
0.0467407
0.0523634
0.0576701
0.0625201
0.0663852
0.06922
0.0712514
0.0726102
0.0733287
0.0734548
0.0730415
0.0721728
0.0710575
0.0698321
0.0685953
0.0674125
0.0663139
0.0653085
0.0643963
0.0635721
0.0628289
0.0621588
0.0615539
0.0610062
0.0605097
0.000236201
0.00213845
0.00541073
0.00941506
0.0139634
0.0189586
0.0243158
0.0299431
0.0357319
0.0415742
0.0473567
0.052937
0.0581805
0.0629563
0.066735
0.0695505
0.0716422
0.0730811
0.0739247
0.0742156
0.0739938
0.073323
0.0723887
0.0713308
0.0702284
0.0691274
0.0680638
0.0670618
0.0661336
0.0652836
0.0645107
0.0638107
0.063179
0.0626102
0.0620982
0.000238621
0.0021556
0.00547459
0.00952563
0.0141185
0.0191564
0.0245567
0.0302295
0.0360624
0.0419349
0.0477295
0.0532932
0.0584856
0.0631762
0.0668723
0.0696074
0.0716376
0.0730649
0.0739514
0.074335
0.0742461
0.073733
0.0729604
0.0720529
0.071094
0.0701382
0.0692166
0.0683461
0.0675341
0.0667828
0.0660913
0.0654571
0.0648767
0.0643464
0.0638619
0.000239404
0.00221751
0.00559624
0.00971161
0.0143701
0.0194713
0.0249277
0.0306435
0.0365011
0.0423737
0.0481463
0.0536572
0.0587611
0.0633248
0.0668751
0.069472
0.0713896
0.072748
0.0736204
0.0740467
0.0740494
0.0736564
0.0730018
0.0722004
0.0713322
0.0704517
0.069593
0.0687758
0.0680103
0.0673008
0.0666478
0.0660503
0.0655058
0.0650113
0.0645636
0.000240683
0.00224726
0.00567133
0.00983452
0.014542
0.0196926
0.0251968
0.0309556
0.0368474
0.0427357
0.048503
0.0539765
0.0590011
0.0634343
0.0668154
0.0692412
0.070995
0.0722188
0.0730035
0.0733996
0.0734306
0.0731155
0.0725595
0.0718579
0.0710816
0.0702819
0.0694933
0.0687368
0.0680245
0.0673626
0.066753
0.0661953
0.0656871
0.0652254
0.0648071
0.000241528
0.00229682
0.00577639
0.00999604
0.0147604
0.0199658
0.0255197
0.0313195
0.0372398
0.0431373
0.048892
0.0543236
0.0592666
0.0635676
0.0667755
0.0690072
0.0705646
0.0716077
0.0722466
0.0725472
0.072541
0.0722463
0.0717466
0.0711175
0.0704174
0.0696907
0.0689691
0.0682735
0.0676158
0.0670031
0.0664382
0.0659211
0.0654505
0.065024
0.0646389
0.000242502
0.00233439
0.00586335
0.0101351
0.0149523
0.0202096
0.0258122
0.0316545
0.0376083
0.0435251
0.0492758
0.0546781
0.0595532
0.0637347
0.0667745
0.0688143
0.0701638
0.0709991
0.0714496
0.0715996
0.0714947
0.0711626
0.0706731
0.0700826
0.0694351
0.0687659
0.0681014
0.0674599
0.0668529
0.0662871
0.0657653
0.065288
0.0648543
0.0644624
0.0641097
0.000243305
0.00237898
0.00596127
0.010287
0.015158
0.020467
0.0261173
0.0320009
0.0379869
0.0439227
0.0496717
0.0550509
0.0598686
0.0639459
0.0668347
0.0686943
0.0698388
0.0704587
0.0706997
0.0706638
0.0704128
0.0699912
0.0694648
0.0688745
0.0682503
0.0676169
0.0669939
0.0663952
0.0658304
0.0653047
0.0648208
0.064379
0.0639786
0.0636178
0.0632943
0.00024408
0.00241866
0.00605044
0.0104271
0.0153492
0.020708
0.0264047
0.0323293
0.0383491
0.0443077
0.0500612
0.0554268
0.0602007
0.0641919
0.0669503
0.0686492
0.0696041
0.0700177
0.0700473
0.0698104
0.0693851
0.0688368
0.068235
0.0676102
0.06698
0.0663591
0.0657594
0.0651899
0.0646566
0.064163
0.0637105
0.0632989
0.0629271
0.0625933
0.0622952
0.000244742
0.00245978
0.00614096
0.0105673
0.0155385
0.0209444
0.0266848
0.0326479
0.0386998
0.0446809
0.0504414
0.0557994
0.0605406
0.0644628
0.0671123
0.0686727
0.0694613
0.0696872
0.0695168
0.069081
0.0684722
0.067777
0.0670743
0.0663883
0.0657275
0.0650978
0.0645039
0.0639492
0.0634361
0.0629654
0.0625368
0.0621493
0.0618008
0.0614894
0.0612124
0.000245322
0.00249821
0.00622576
0.0106986
0.0157156
0.0211653
0.0269462
0.0329453
0.0390278
0.0450315
0.0508012
0.0561571
0.0608755
0.0647445
0.0673062
0.0687523
0.0694011
0.0694608
0.06911
0.0684892
0.0677033
0.0668577
0.0660431
0.065281
0.0645734
0.0639194
0.0633173
0.0627657
0.0622628
0.0618069
0.0613956
0.0610264
0.0606966
0.0604033
0.0601437
0.000245802
0.00253595
0.0063078
0.0108242
0.0158834
0.0213729
0.0271903
0.0332216
0.0393316
0.0453561
0.0511351
0.0564919
0.0611947
0.0650236
0.067516
0.0688691
0.0694
0.0693219
0.0688145
0.0680289
0.0670835
0.0660975
0.0651735
0.0643317
0.0635707
0.0628843
0.0622661
0.06171
0.0612109
0.0607642
0.0603655
0.0600108
0.0596962
0.0594181
0.0591734
0.000246186
0.00257156
0.00638465
0.0109411
0.0160384
0.0215635
0.0274131
0.0334725
0.0396065
0.0456494
0.0514367
0.0567962
0.0614888
0.065288
0.0677272
0.0690074
0.069445
0.069255
0.0686114
0.0676789
0.0666008
0.0654928
0.064474
0.0635569
0.0627447
0.0620254
0.0613891
0.0608264
0.0603288
0.0598893
0.0595015
0.0591599
0.0588594
0.0585958
0.058365
0.000246475
0.00260556
0.006457
0.0110498
0.0161811
0.0217372
0.0276143
0.0336971
0.039851
0.0459089
0.0517025
0.0570646
0.0617501
0.0655276
0.0679267
0.0691511
0.0695175
0.0692278
0.0684594
0.0674348
0.0662458
0.0650347
0.0639267
0.0629456
0.0620978
0.0613493
0.0606981
0.0601307
0.0596363
0.0592053
0.0588296
0.0585021
0.0582169
0.0579687
0.0577531
0.000246649
0.00263769
0.00652427
0.0111494
0.0163102
0.0218927
0.0277925
0.0338942
0.0400635
0.0461325
0.0519296
0.057293
0.0619727
0.0657338
0.0681027
0.0692846
0.0695944
0.069211
0.0683691
0.0672636
0.0659848
0.0646915
0.063517
0.0624869
0.061595
0.0608369
0.0601792
0.0596117
0.059124
0.0587046
0.0583437
0.0580329
0.0577652
0.0575345
0.0573358
0.000246705
0.00266699
0.00658498
0.0112385
0.0164249
0.0220296
0.0279478
0.0340637
0.0402438
0.0463198
0.0521169
0.0574791
0.0621529
0.0659007
0.0682465
0.0693964
0.0696567
0.0691996
0.0683127
0.0671385
0.0657894
0.0644322
0.0632069
0.0621402
0.0612249
0.0604459
0.0597959
0.0592337
0.0587563
0.0583511
0.058007
0.0577145
0.0574656
0.0572536
0.0570729
0.00463698
0.00405722
0.00347896
0.0029272
0.00242039
0.00197057
0.00158484
0.00126819
0.00107245
0.000970409
0.000910996
0.000793256
0.000626411
0.000510126
0.000434813
0.000388241
0.000358764
0.00034702
0.000349867
0.000440852
0.000712745
0.000975055
0.0275644
0.0267441
0.0258551
0.0248203
0.0234001
0.0217154
0.0200762
0.0187255
0.0177742
0.0171411
0.0165474
0.0160446
0.0151429
0.0144011
0.0139203
0.0129469
0.0114052
0.00990934
0.00850954
0.00715788
0.00596652
0.00489569
0.0438378
0.0432728
0.0423977
0.0415828
0.0410621
0.0408683
0.0409014
0.0409941
0.0409647
0.0408174
0.0411231
0.0427798
0.0457239
0.0486443
0.0499474
0.0492731
0.0466998
0.0428058
0.0381477
0.0332564
0.0287087
0.0253626
0.0443204
0.0437888
0.0432789
0.0431126
0.0433891
0.0439771
0.0446213
0.0449154
0.0445075
0.0425014
0.0390934
0.0351345
0.0325219
0.0318734
0.0323713
0.0331689
0.0336705
0.0337351
0.0331774
0.0321692
0.0311418
0.0314385
0.0348527
0.0361539
0.0377669
0.0395316
0.0410812
0.0423751
0.0434623
0.0443311
0.0448104
0.0446817
0.0437549
0.0420261
0.0403375
0.038397
0.0366385
0.0352184
0.0341741
0.0334887
0.0331176
0.0330098
0.0330807
0.0327817
0.0399452
0.0408138
0.0416555
0.0423653
0.0427046
0.0423827
0.0413128
0.0398932
0.0385001
0.0375673
0.0374232
0.0380853
0.0378419
0.0376395
0.0373264
0.0369131
0.0364244
0.0358896
0.0353518
0.0348654
0.0344617
0.0341438
0.0515295
0.0517742
0.0519245
0.0519182
0.0517965
0.051551
0.0511327
0.0504885
0.0496175
0.048699
0.0475779
0.0463082
0.0450226
0.0438325
0.0427772
0.0418662
0.0410837
0.040395
0.0397584
0.0391417
0.0385278
0.0379167
0.0514931
0.051156
0.0508466
0.0505668
0.0503141
0.0500823
0.0498623
0.0496497
0.0494608
0.0490036
0.0482831
0.0474073
0.0463824
0.0452962
0.0442367
0.0432443
0.0423448
0.0415442
0.0408325
0.040189
0.039592
0.039024
0.0536915
0.053444
0.0531787
0.0528933
0.0525828
0.0522422
0.0518678
0.0514559
0.0510015
0.050483
0.0498676
0.0491387
0.0483133
0.0474965
0.0466773
0.0458018
0.0449039
0.0440156
0.0431593
0.0423466
0.0415809
0.0408593
0.0530247
0.052625
0.0522512
0.0518941
0.0515423
0.0511823
0.0508032
0.0503972
0.0499564
0.0494749
0.0489492
0.0483801
0.0477956
0.0471075
0.0463093
0.0455129
0.0447251
0.0439517
0.0431991
0.0424725
0.0417745
0.041106
0.0545646
0.0539958
0.0534312
0.052867
0.0523022
0.0517411
0.0511827
0.0506213
0.0500438
0.0494294
0.0487679
0.0480554
0.0473139
0.0465701
0.0457987
0.0450245
0.0442575
0.0435058
0.042776
0.0420726
0.0413983
0.0407549
0.0547958
0.0541366
0.0534933
0.0528607
0.0522334
0.051606
0.0509724
0.0503245
0.0496494
0.0489434
0.0482001
0.0474131
0.0466074
0.0457661
0.0449612
0.0441723
0.0434055
0.0426671
0.0419591
0.0412871
0.0406537
0.0400539
0.0565959
0.0557679
0.054947
0.0541348
0.0533308
0.0525331
0.0517331
0.0509296
0.0501254
0.0492978
0.0484204
0.0474991
0.0465609
0.0456527
0.04476
0.0439096
0.0431024
0.0423426
0.0416337
0.0409786
0.0403787
0.0398339
0.0582105
0.0573213
0.056422
0.0555139
0.0545895
0.0536654
0.0527293
0.0517759
0.0507952
0.0497895
0.0487803
0.047782
0.0467905
0.0458416
0.0449394
0.0440748
0.0432602
0.0425104
0.0418309
0.041223
0.0406879
0.0402325
0.0598316
0.05892
0.0579836
0.057012
0.0560148
0.0549949
0.0539491
0.0528833
0.0518218
0.0507609
0.0496809
0.0485896
0.0475227
0.046509
0.0455553
0.0446678
0.0438544
0.0431222
0.0424763
0.0419126
0.0414375
0.0410588
0.0613963
0.060433
0.0594437
0.0584278
0.0573877
0.0563456
0.0552903
0.0542255
0.0531515
0.0520181
0.0508532
0.0496817
0.0485473
0.0474822
0.0464939
0.0455898
0.0447762
0.0440587
0.0434403
0.0429218
0.042502
0.0421784
0.0632012
0.0622877
0.0613255
0.0603144
0.059247
0.058136
0.0569975
0.05583
0.0546582
0.0534498
0.0522219
0.0509868
0.0497925
0.0486756
0.0476454
0.0467101
0.0458763
0.0451491
0.0445312
0.044023
0.0436226
0.043326
0.063995
0.0632246
0.0624027
0.0615233
0.0605801
0.0595629
0.0584694
0.0573243
0.0561282
0.0549047
0.0536295
0.0523539
0.0511192
0.0499615
0.0488914
0.0479179
0.0470489
0.0462901
0.0456449
0.0451143
0.0446968
0.0443889
0.0642996
0.0636239
0.0628993
0.062121
0.0612839
0.0603828
0.0594128
0.0583585
0.0572557
0.0560982
0.0548954
0.0536391
0.0524053
0.051236
0.0501426
0.0491372
0.0482298
0.0474282
0.0467377
0.0461609
0.0456978
0.0453462
0.0642013
0.0636342
0.0630215
0.0623582
0.0616388
0.0608581
0.060011
0.0590921
0.0580879
0.0570202
0.0558984
0.0547378
0.0535561
0.052412
0.0513232
0.0503058
0.0493724
0.0485323
0.0477936
0.0471614
0.0466381
0.0462238
0.0637398
0.0632806
0.0627803
0.0622342
0.0616367
0.0609823
0.0602649
0.0594792
0.0586192
0.0576757
0.0566557
0.0555859
0.054504
0.0534236
0.0523754
0.051374
0.050434
0.0495726
0.0487982
0.0481171
0.0475344
0.0470533
0.0629849
0.0626236
0.0622272
0.0617911
0.0613101
0.0607784
0.0601897
0.0595376
0.0588159
0.0580189
0.0571401
0.0561829
0.0551997
0.0542196
0.053243
0.052291
0.0513806
0.0505227
0.0497308
0.0490182
0.0483895
0.0478506
0.0620353
0.0617554
0.0614471
0.0611064
0.0607283
0.0603072
0.059837
0.0593108
0.0587217
0.0580628
0.0573279
0.0565183
0.0556528
0.0547761
0.0538958
0.0530204
0.052163
0.0513395
0.0505629
0.0498424
0.0491893
0.0486113
0.0609895
0.0607706
0.0605308
0.0602663
0.0599727
0.0596448
0.0592767
0.0588617
0.0583925
0.0578615
0.0572613
0.05659
0.0558647
0.0551061
0.0543294
0.0535464
0.0527667
0.0520006
0.0512615
0.0505612
0.0499098
0.0493165
0.0599444
0.059764
0.0595702
0.05936
0.0591293
0.0588734
0.0585869
0.0582635
0.057896
0.0574764
0.0569966
0.0564524
0.0558551
0.0552217
0.054559
0.0538758
0.0531848
0.0524944
0.0518148
0.0511554
0.0505282
0.049943
0.0589858
0.0588217
0.0586515
0.0584728
0.058282
0.0580751
0.0578472
0.0575927
0.0573048
0.0569756
0.0565969
0.0561628
0.0556797
0.05516
0.0546078
0.0540291
0.0534311
0.0528238
0.0522163
0.0516162
0.0510322
0.050473
0.0581808
0.0580147
0.0578485
0.0576803
0.0575075
0.0573267
0.057134
0.0569244
0.0566919
0.0564293
0.0561286
0.055783
0.0553954
0.054974
0.0545204
0.0540384
0.0535328
0.0530101
0.0524777
0.0519437
0.0514163
0.0509007
0.0575686
0.0573899
0.0572146
0.0570416
0.0568691
0.0566948
0.0565157
0.056328
0.0561268
0.0559059
0.055658
0.0553766
0.0550619
0.0547189
0.0543474
0.0539487
0.0535257
0.0530826
0.0526249
0.0521584
0.0516899
0.0512273
0.057153
0.0569619
0.0567744
0.0565901
0.0564083
0.0562276
0.0560462
0.0558616
0.0556703
0.0554677
0.0552479
0.055005
0.0547386
0.0544514
0.0541416
0.0538087
0.0534536
0.0530788
0.0526877
0.0522847
0.0518751
0.0514646
0.0568982
0.0567066
0.0565157
0.0563257
0.0561362
0.0559469
0.0557568
0.0555646
0.0553686
0.0551658
0.0549523
0.0547241
0.0544814
0.0542262
0.0539558
0.0536682
0.0533631
0.0530411
0.0527039
0.0523543
0.051996
0.0516329
0.00107731
0.000932147
0.000662307
0.000764202
0.00145593
0.00275526
0.0041963
0.0056586
0.0107602
0.0164369
0.0213134
0.0247964
0.0251275
0.0301161
0.0381549
0.0464628
0.0536739
0.0590804
0.0325252
0.0348423
0.0378872
0.041069
0.0440121
0.04629
0.0328582
0.0333531
0.0340143
0.0348141
0.0356399
0.0365405
0.0339841
0.0337938
0.0336256
0.0334875
0.0333671
0.0333022
0.037369
0.0368151
0.0362587
0.0356954
0.0351376
0.0346235
0.0384812
0.0379044
0.0373197
0.0367302
0.03614
0.0355547
0.0401513
0.0394167
0.0386934
0.0379793
0.037276
0.0365896
0.0403927
0.0396242
0.03887
0.0381335
0.0374214
0.036746
0.0400471
0.0392822
0.038553
0.0378688
0.0372434
0.0367049
0.0394152
0.0387525
0.0381614
0.0376579
0.0372656
0.0369993
0.0392992
0.0388055
0.0384291
0.0381904
0.0380708
0.0381155
0.0398357
0.0395483
0.0394126
0.0394046
0.0395486
0.0398645
0.0407966
0.0407163
0.0407744
0.0409633
0.0413064
0.0417976
0.0419889
0.0420324
0.0422099
0.0425165
0.0429609
0.0435336
0.043172
0.0432506
0.0434764
0.0438133
0.0442756
0.0448522
0.0442306
0.0442814
0.0444685
0.0447846
0.0452019
0.045721
0.0451441
0.0451297
0.0452382
0.0454632
0.0457996
0.0462271
0.0459528
0.0458485
0.0458579
0.0459769
0.0461979
0.0465116
0.0467056
0.0465054
0.0464093
0.0464151
0.0465173
0.0467094
0.0474325
0.0471444
0.0469501
0.0468494
0.0468387
0.0469139
0.048139
0.0477799
0.047504
0.0473127
0.0472045
0.047177
0.0488113
0.0484024
0.0480664
0.0478057
0.0476201
0.0475094
0.0494271
0.0489906
0.048617
0.0483091
0.0480684
0.0478957
0.0499661
0.049522
0.0491313
0.0487975
0.0485227
0.0483088
0.0504169
0.0499805
0.0495898
0.0492479
0.0489577
0.0487215
0.0507788
0.0503577
0.0499815
0.049647
0.0493572
0.0491147
0.0510589
0.0506621
0.0503111
0.0499949
0.0497173
0.0494809
0.051269
0.0509143
0.0505919
0.0503003
0.0500426
0.0498212
0.00328423
0.00360697
0.00373982
0.00369096
0.00343344
0.00302106
0.00266324
0.00250422
0.00246353
0.00242996
0.0023438
0.00220152
0.00204543
0.00190703
0.00180797
0.00175941
0.00176345
0.00181817
0.00192044
0.00205491
0.00223966
0.00250191
0.026807
0.0285345
0.0295505
0.0304226
0.0304392
0.0304269
0.0303524
0.02966
0.0280268
0.0255722
0.0229414
0.0201517
0.0179908
0.0168721
0.0165895
0.0168109
0.0170407
0.0175092
0.0181672
0.018986
0.0199429
0.021019
0.0622357
0.0635261
0.0632203
0.0613897
0.0587262
0.0564494
0.0556722
0.0565718
0.0581771
0.0593038
0.0593634
0.0582509
0.056223
0.0539679
0.0521651
0.0509878
0.0496646
0.0484559
0.0476586
0.0471079
0.0469295
0.0470504
0.0476228
0.048271
0.0490053
0.0497557
0.0505926
0.0513349
0.0520641
0.0530534
0.0543187
0.0555131
0.0561879
0.0560408
0.0548917
0.0538941
0.0533414
0.0527629
0.05262
0.0527669
0.0529201
0.0528441
0.0524452
0.0518092
0.0373945
0.0380958
0.038876
0.0398384
0.0408742
0.0419661
0.0430711
0.0441277
0.0454022
0.0466011
0.0477756
0.0492387
0.0509094
0.0525244
0.0542882
0.0558807
0.0572119
0.0581778
0.0586871
0.0586959
0.0582585
0.0573745
0.0333665
0.0334686
0.0336714
0.0339823
0.034393
0.0348867
0.0354342
0.035994
0.0364202
0.0374582
0.0392398
0.0410811
0.0427074
0.0439565
0.0449404
0.0457612
0.0463862
0.046819
0.0470978
0.0472865
0.0474384
0.0475653
0.0342297
0.0338982
0.0336308
0.0334208
0.0332819
0.0332288
0.033283
0.0334827
0.0338949
0.0346157
0.0354548
0.036573
0.0380815
0.0398742
0.0416498
0.0431553
0.0443802
0.0453618
0.0461833
0.0468128
0.0473188
0.0477172
0.0350838
0.0346187
0.0342087
0.0338236
0.0334806
0.0332027
0.0330248
0.0329904
0.0331423
0.0335078
0.0340691
0.0348126
0.035767
0.0367927
0.037796
0.0387228
0.0396133
0.0404052
0.0411213
0.0417735
0.0423869
0.0429879
0.0360107
0.0354853
0.0350071
0.0345767
0.0342233
0.0339856
0.0339122
0.0340523
0.0344274
0.0350558
0.0359424
0.0370392
0.038266
0.0395286
0.040776
0.0419798
0.0431466
0.0442635
0.0453525
0.0464257
0.0474923
0.0485516
0.0361769
0.0357111
0.0353193
0.0350281
0.0348722
0.0348835
0.0350918
0.0355113
0.0361455
0.0369895
0.0380258
0.0392174
0.0404948
0.0417989
0.0431132
0.0444272
0.0457385
0.0470483
0.0483608
0.0496828
0.0510177
0.0523691
0.0363022
0.0360454
0.0359201
0.0359544
0.0361602
0.0365664
0.0371807
0.0380022
0.0390225
0.0402274
0.0415991
0.0431006
0.0446729
0.0462796
0.0478963
0.0495141
0.0511236
0.0527146
0.0542723
0.0557801
0.0572235
0.0585891
0.036891
0.0369812
0.0372248
0.037645
0.0382549
0.0390585
0.0400488
0.041216
0.042547
0.0440265
0.0456342
0.0473345
0.0490882
0.0508171
0.0525032
0.0541322
0.0556924
0.0571744
0.0585708
0.0598761
0.0610866
0.062201
0.0383293
0.0387661
0.0393681
0.0401401
0.0410821
0.0421911
0.0434548
0.0448549
0.0463725
0.0479863
0.0496741
0.0514292
0.0531592
0.0548078
0.0563596
0.0578027
0.0591289
0.0603329
0.0614122
0.0623672
0.0632006
0.0639171
0.0403411
0.0410404
0.0418837
0.0428658
0.0439782
0.0452097
0.0465458
0.0479691
0.0494477
0.0509848
0.0525504
0.0541036
0.0555759
0.0569234
0.0581383
0.0592172
0.0601606
0.0609727
0.0616605
0.0622332
0.0627016
0.0630774
0.0424261
0.0432579
0.0441994
0.0452419
0.0463741
0.0475818
0.0488443
0.0501467
0.0514787
0.0528111
0.0541207
0.0553743
0.0565181
0.0575241
0.0583937
0.0591329
0.0597503
0.0602572
0.0606661
0.0609903
0.0612432
0.0614375
0.0442177
0.0450588
0.0459767
0.0469611
0.0479976
0.0490713
0.050174
0.0512826
0.0523793
0.0534448
0.0544599
0.0553993
0.0562259
0.0569262
0.057509
0.057986
0.0583702
0.0586756
0.0589163
0.0591056
0.0592562
0.0593793
0.0455206
0.0462846
0.0470978
0.0479541
0.0488383
0.0497376
0.0506378
0.0515235
0.0523795
0.0531914
0.0539457
0.0546258
0.0552093
0.055693
0.0560897
0.0564132
0.0566776
0.056897
0.057084
0.0572504
0.0574063
0.0575598
0.0463174
0.0469605
0.0476371
0.0483376
0.0490506
0.0497648
0.0504684
0.0511498
0.0517981
0.0524039
0.0529594
0.053456
0.0538819
0.0542397
0.0545428
0.0548049
0.0550388
0.0552563
0.0554677
0.0556813
0.055904
0.0561406
0.0467232
0.0472318
0.0477631
0.0483091
0.0488608
0.0494091
0.0499456
0.0504624
0.0509527
0.0514116
0.0518365
0.0522246
0.0525707
0.0528794
0.0531628
0.0534327
0.0536994
0.0539718
0.0542567
0.0545595
0.0548834
0.05523
0.0468905
0.0472716
0.0476702
0.0480806
0.048496
0.0489103
0.049318
0.0497144
0.0500967
0.0504634
0.0508158
0.0511551
0.0514795
0.0517927
0.0521047
0.0524243
0.0527588
0.0531136
0.0534922
0.053897
0.0543263
0.0547805
0.0469703
0.0472413
0.0475286
0.0478287
0.0481373
0.0484508
0.0487663
0.049082
0.0493976
0.0497148
0.0500374
0.0503691
0.0507091
0.0510588
0.0514252
0.0518138
0.0522285
0.0526699
0.0531395
0.0536402
0.0541667
0.0547157
0.0470713
0.0472526
0.0474518
0.0476673
0.0478967
0.0481386
0.0483921
0.0486578
0.0489374
0.0492345
0.0495548
0.0499036
0.0502793
0.0506802
0.0511096
0.0515671
0.0520558
0.0525793
0.053132
0.05371
0.0543081
0.0549203
0.0472474
0.0473598
0.0474929
0.0476465
0.04782
0.0480135
0.048228
0.0484656
0.0487297
0.0490254
0.0493595
0.0497378
0.0501574
0.0506126
0.0510977
0.0516224
0.0521837
0.0527764
0.0533954
0.0540348
0.0546882
0.0553498
0.0475107
0.0475725
0.0476579
0.0477681
0.0479038
0.0480664
0.0482583
0.0484828
0.0487446
0.0490498
0.0494059
0.0498186
0.050283
0.0507847
0.0513268
0.0519109
0.0525289
0.0531744
0.053841
0.0545219
0.0552111
0.0559018
0.0478454
0.0478714
0.047924
0.0480052
0.0481169
0.0482615
0.0484425
0.0486644
0.0489324
0.0492534
0.0496348
0.0500815
0.0505856
0.0511283
0.0517158
0.05234
0.0529923
0.053665
0.0543503
0.0550402
0.0557279
0.0564059
0.0482229
0.048225
0.0482567
0.0483204
0.0484191
0.0485561
0.0487356
0.0489627
0.0492435
0.0495844
0.0499925
0.0504712
0.0510092
0.0515871
0.0522053
0.0528535
0.0535222
0.0542028
0.0548866
0.0555658
0.0562362
0.0568845
0.0486143
0.0486028
0.0486237
0.0486801
0.0487755
0.0489141
0.0491006
0.0493406
0.04964
0.0500048
0.050441
0.0509498
0.0515166
0.0521232
0.0527597
0.0534188
0.0540895
0.0547646
0.0554318
0.0560844
0.0567172
0.0573247
0.0489989
0.0489832
0.049003
0.0490616
0.0491633
0.0493127
0.0495149
0.0497753
0.0500995
0.0504925
0.0509586
0.0514966
0.0520889
0.0527141
0.0533618
0.0540216
0.0546833
0.0553378
0.0559769
0.0565947
0.0571868
0.0577503
0.0493672
0.0493563
0.0493843
0.0494549
0.0495726
0.0497423
0.0499692
0.0502582
0.0506139
0.0510398
0.0515382
0.0521051
0.0527195
0.0533579
0.0540086
0.0546608
0.0553047
0.0559321
0.0565365
0.0571134
0.0576598
0.0581737
0.0497186
0.0497219
0.0497681
0.0498608
0.050005
0.0502053
0.0504666
0.0507929
0.0511872
0.0516512
0.0521847
0.0527806
0.0534145
0.0540613
0.054709
0.0553468
0.0559661
0.0565598
0.0571229
0.0576521
0.0581454
0.0586019
0.00279373
0.00304234
0.00334508
0.00372348
0.00419469
0.00477549
0.00548214
0.00632941
0.00732563
0.00846396
0.0097059
0.0110312
0.0125655
0.0146538
0.0179919
0.0222356
0.0261066
0.0295135
0.032611
0.0346364
0.0352886
0.0348001
0.0303754
0.025185
0.0209468
0.0170753
0.0140432
0.0117164
0.00979104
0.00807761
0.00635738
0.00456313
0.00252842
0.000574216
0.000493918
0.0219734
0.0227519
0.0236557
0.0247
0.0258897
0.0272271
0.0287164
0.0303645
0.0321848
0.0342104
0.036458
0.0388125
0.0412782
0.0439102
0.0473428
0.0523015
0.0577096
0.0622865
0.0651166
0.0663248
0.0663584
0.066248
0.0679488
0.0699134
0.0710924
0.0699856
0.0682832
0.0662049
0.0627106
0.0563042
0.0467826
0.0339508
0.0198779
0.00747875
0.000879853
0.0472939
0.047557
0.047943
0.0484511
0.0490685
0.049761
0.0504551
0.0510606
0.0515814
0.0520005
0.0522946
0.0525579
0.0526041
0.0524176
0.0523898
0.0525302
0.0530275
0.0539212
0.0546406
0.0551979
0.0554491
0.0577773
0.0624039
0.0684051
0.0726641
0.0737451
0.0715331
0.0667046
0.0598604
0.0513932
0.0415751
0.0307214
0.01923
0.00816075
0.000845267
0.0510844
0.0503773
0.0495188
0.0485422
0.0475182
0.0465647
0.0457742
0.0451733
0.0446625
0.0439416
0.0434313
0.0425923
0.0425538
0.0441916
0.0464788
0.0476741
0.0476977
0.0468702
0.0459682
0.0461975
0.0465915
0.0472459
0.0483911
0.0492706
0.0496734
0.0487867
0.0473381
0.0443189
0.0397148
0.0339037
0.0272599
0.0200039
0.012479
0.00525642
0.000732984
0.0564276
0.0556022
0.0546055
0.0534209
0.0520353
0.0504471
0.0486816
0.046819
0.045042
0.0436866
0.0430258
0.0425778
0.0392698
0.035432
0.0313828
0.0292642
0.029447
0.0301912
0.0305657
0.0309123
0.0318313
0.0337265
0.0364082
0.0386136
0.0395306
0.0387977
0.037143
0.0339778
0.0298838
0.0252128
0.02014
0.0149274
0.00962824
0.00443333
0.000523643
0.0476582
0.0477436
0.0477903
0.0477768
0.0476775
0.0474675
0.0471297
0.0466639
0.0460939
0.0454715
0.0450277
0.0448564
0.0445755
0.0426181
0.0386317
0.0326028
0.0264875
0.0225363
0.0195715
0.0171305
0.0153981
0.0139505
0.0128644
0.0120526
0.0113725
0.0107756
0.0100082
0.00936222
0.00816559
0.00678725
0.00534581
0.00388272
0.00243648
0.00106015
0.000247789
0.047982
0.0481939
0.0483763
0.0485161
0.0486061
0.0486545
0.048639
0.0485206
0.0482618
0.0478748
0.0474221
0.0471956
0.0475337
0.0483217
0.048344
0.0467376
0.0438629
0.040559
0.037304
0.034279
0.0312667
0.0280282
0.0246904
0.0215869
0.0187003
0.0160217
0.0135601
0.0113311
0.00930911
0.0074911
0.00582655
0.00419984
0.00255421
0.000998883
0.000196639
0.043473
0.0438802
0.0443416
0.0448578
0.0454168
0.0459782
0.0465527
0.047197
0.0480212
0.0491855
0.0509193
0.0532018
0.0556846
0.0578579
0.0593835
0.0597075
0.0589469
0.0572879
0.0548635
0.0516907
0.0479659
0.0436719
0.0390342
0.0345186
0.0301168
0.0259402
0.0219717
0.0182302
0.0147272
0.0114711
0.00847971
0.00578851
0.00341545
0.00141664
0.000173761
0.0493385
0.0499078
0.0505422
0.0512504
0.0520415
0.0529257
0.0539178
0.0550411
0.0563316
0.0578375
0.059577
0.0614903
0.0632228
0.0644605
0.0647938
0.064397
0.0633358
0.0617308
0.0596267
0.05706
0.0539944
0.050246
0.0458651
0.0412911
0.036576
0.0318529
0.0272099
0.0227189
0.0184421
0.0144173
0.0106741
0.00723823
0.00416129
0.0016078
0.000226635
0.053396
0.0541474
0.0549893
0.0559309
0.0569804
0.0581427
0.0594146
0.0607769
0.0621801
0.0635246
0.064713
0.0656553
0.0665154
0.0672166
0.067512
0.0671884
0.0662569
0.0648116
0.0629132
0.060534
0.0576131
0.053962
0.0496116
0.0449696
0.0401096
0.0351145
0.0301168
0.0252117
0.0204947
0.0160428
0.0119156
0.00816006
0.00482508
0.00201197
0.000200527
0.0595492
0.0602136
0.0609298
0.0616867
0.0624874
0.0633332
0.0642211
0.0651425
0.0660841
0.0670318
0.0679128
0.0686277
0.069093
0.0692184
0.0689273
0.0681752
0.0671051
0.0657713
0.0641071
0.0620335
0.0594349
0.0560384
0.0517873
0.0470951
0.0420804
0.0368687
0.0316297
0.026463
0.0214721
0.0167435
0.0123479
0.00834587