/*--------------------------------*- C++ -*----------------------------------*\
  =========                 |
  \\      /  F ield         | OpenFOAM: The Open Source CFD Toolbox
   \\    /   O peration     | Website:  https://openfoam.org
    \\  /    A nd           | Version:  8
     \\/     M anipulation  |
\*---------------------------------------------------------------------------*/
FoamFile
{
    version     2.0;
    format      ascii;
    class       volScalarField;
    location    "0.47";
    object      nut;
}
// * * * * * * * * * * * * * * * * * * * * * * * * * * * * * * * * * * * * * //

dimensions      [0 2 -1 0 0 0 0];

internalField   nonuniform List<scalar> 
15677
(
0.000168241
0.000653024
0.000148402
0.00151379
0.000442552
0.000141502
0.00267541
0.000876152
0.000381182
0.000142382
0.00392098
0.00151958
0.000686746
0.000354338
0.000145498
0.0050238
0.00235714
0.00114655
0.000585849
0.000340303
0.000151245
0.00584032
0.00331866
0.0017809
0.000948214
0.000529295
0.000332076
0.000157121
0.00633494
0.00430005
0.0025677
0.00146408
0.000820848
0.000492538
0.000327075
0.000162525
0.00656283
0.00518885
0.00345289
0.0021327
0.00125711
0.000737353
0.000467416
0.000324131
0.000167394
0.00665845
0.00589432
0.0043553
0.00292355
0.00184141
0.00111252
0.000677122
0.000450315
0.000322646
0.000171534
0.00670549
0.00633871
0.00518086
0.00378059
0.00255689
0.0016321
0.00100403
0.000633769
0.000438608
0.00032195
0.000175177
0.00671438
0.00655369
0.00584551
0.00462694
0.00336281
0.00228693
0.0014718
0.000923643
0.000601703
0.000430495
0.000322036
0.000178207
0.00670993
0.00666163
0.00629584
0.00537864
0.00419721
0.00304583
0.00207672
0.0013482
0.000861111
0.000577907
0.000425226
0.000322335
0.000180852
0.00670634
0.00669878
0.00652981
0.00596558
0.00498465
0.00385795
0.00279458
0.0019106
0.00124933
0.000812897
0.000560308
0.000421482
0.000323126
0.00018312
0.00670551
0.00670435
0.00664694
0.00635745
0.00565063
0.00465655
0.00358228
0.00259214
0.00177523
0.00117117
0.000774928
0.000546807
0.000419411
0.00032385
0.000185131
0.00670562
0.00670277
0.00668797
0.00656327
0.00614266
0.00536915
0.00438048
0.00335534
0.00242476
0.00166527
0.00110685
0.000744825
0.000537082
0.000417897
0.00032483
0.000186918
0.00670585
0.00670146
0.00669649
0.00665674
0.00644716
0.00593426
0.00512051
0.00414698
0.003165
0.00228616
0.00157392
0.00105504
0.000721458
0.000529457
0.000417314
0.000325713
0.000188453
0.00670602
0.00670088
0.00669728
0.00668497
0.00660507
0.00632219
0.00573727
0.00490237
0.00394746
0.00300482
0.00216973
0.00149829
0.00101312
0.000702586
0.000524175
0.000416905
0.000326753
0.000189938
0.00670613
0.00670067
0.00669695
0.00669161
0.00666386
0.00654151
0.00618825
0.00555572
0.00471123
0.00377656
0.00286879
0.00207196
0.0014358
0.000978623
0.00068817
0.000519944
0.000417145
0.0003277
0.000191126
0.00670619
0.00670056
0.00669674
0.00669256
0.00668242
0.00663467
0.00646787
0.00605709
0.00539118
0.0045438
0.00362961
0.00275323
0.00198998
0.00138378
0.000951099
0.000676435
0.000517316
0.000417372
0.000328739
0.000192456
0.00670624
0.00670049
0.00669668
0.0066924
0.00668742
0.00666917
0.00659809
0.0063889
0.00593302
0.00524271
0.00439762
0.00350335
0.00265527
0.00192119
0.0013413
0.000928469
0.00066785
0.000515202
0.000418097
0.000329728
0.000193381
0.00670626
0.00670044
0.00669667
0.00669219
0.00668838
0.00668079
0.00665144
0.00655579
0.00630979
0.00581637
0.00511047
0.00427022
0.00339528
0.00257245
0.00186431
0.0013062
0.000911036
0.00066092
0.000514271
0.0004187
0.000330743
0.00019467
0.00670627
0.0067004
0.00669668
0.00669206
0.00668838
0.00668416
0.00667165
0.00663014
0.00651064
0.00623062
0.0057099
0.00499303
0.00416004
0.00330331
0.00250346
0.00181722
0.00127853
0.000896923
0.000656335
0.000513547
0.000419747
0.000331824
0.000195399
0.00670626
0.00670039
0.00669668
0.00669199
0.00668826
0.00668494
0.00667842
0.00666131
0.00660568
0.00646339
0.00615695
0.00561285
0.00489029
0.00406564
0.0032262
0.00244621
0.00177971
0.00125624
0.000886911
0.000652809
0.0005138
0.000420582
0.000332739
0.000196684
0.00670625
0.0067004
0.00669667
0.00669195
0.00668816
0.00668503
0.0066803
0.0066733
0.00664807
0.00657956
0.00641734
0.00608723
0.00552699
0.00480133
0.00398584
0.00316208
0.00240054
0.00175001
0.00124014
0.000879223
0.000651151
0.00051403
0.000421921
0.000334104
0.000197356
0.00670623
0.00670041
0.00669665
0.00669193
0.0066881
0.00668499
0.00668062
0.00667751
0.00666533
0.00663482
0.0065527
0.00637229
0.00602469
0.00545109
0.00472558
0.00391982
0.00311135
0.00236472
0.00172817
0.00122788
0.000874879
0.000650113
0.000515184
0.000422799
0.000334864
5.35085e-05
0.00670621
0.00670044
0.00669664
0.00669192
0.00668807
0.00668493
0.00668056
0.00667883
0.00667164
0.00665933
0.00661951
0.0065261
0.0063317
0.00596755
0.00538705
0.00466367
0.00386744
0.00307092
0.0023381
0.00171293
0.00122144
0.000872408
0.000650804
0.000516139
0.000425337
0.000279875
6.38207e-05
0.00670618
0.00670047
0.00669661
0.00669192
0.00668804
0.00668487
0.00668047
0.00667916
0.00667362
0.00666947
0.00665
0.00660584
0.00650188
0.00629406
0.00592125
0.00533358
0.00461279
0.00382608
0.00304373
0.00232238
0.00170575
0.00121835
0.000872784
0.000651877
0.000518379
0.000417751
0.000214285
7.13221e-05
0.00670616
0.0067005
0.00669659
0.00669192
0.00668802
0.00668483
0.0066804
0.00667917
0.00667408
0.00667335
0.0066628
0.00664468
0.00659166
0.00647909
0.00626294
0.00587899
0.00529221
0.00457946
0.00380308
0.00302832
0.0023142
0.00170308
0.00121882
0.000874581
0.000654091
0.000518935
0.000396096
0.0001728
7.67069e-05
0.00670614
0.00670053
0.00669657
0.00669193
0.006688
0.00668479
0.00668037
0.00667909
0.0066741
0.00667466
0.0066677
0.00666243
0.00663578
0.00658136
0.00646273
0.00623581
0.00585566
0.00526807
0.00455753
0.00378698
0.00302012
0.00231224
0.00170548
0.001223
0.00087813
0.000656644
0.000516316
0.000360973
0.000147798
8.05891e-05
0.00670611
0.00670056
0.00669655
0.00669194
0.00668799
0.00668475
0.00668035
0.00667899
0.00667405
0.00667496
0.00666935
0.00666997
0.00665606
0.00663463
0.00657209
0.00644737
0.00622707
0.00583896
0.00525049
0.00454425
0.00378077
0.00302104
0.00231825
0.00171407
0.00123035
0.000883347
0.000659699
0.000509149
0.0003286
0.000131799
8.37059e-05
0.00670609
0.00670058
0.00669653
0.00669196
0.00668798
0.00668472
0.00668035
0.00667889
0.00667401
0.00667493
0.0066698
0.00667286
0.00666483
0.00666057
0.00662855
0.00657048
0.00644628
0.00622027
0.00582949
0.00524322
0.00454471
0.00378841
0.00303357
0.00233257
0.00172747
0.00124087
0.000890222
0.000661455
0.000496185
0.000301009
0.000119893
8.61346e-05
0.00670607
0.00670061
0.00669651
0.00669197
0.00668796
0.0066847
0.00668035
0.00667881
0.00667399
0.0066748
0.00666989
0.0066737
0.0066684
0.00667219
0.00665656
0.0066376
0.00657371
0.00644958
0.0062199
0.00583341
0.00525368
0.00456026
0.00380846
0.00305567
0.00235394
0.0017455
0.00125441
0.000898073
0.000662347
0.000481283
0.000276765
0.000111267
8.79174e-05
0.00670606
0.00670063
0.00669649
0.00669199
0.00668795
0.00668468
0.00668035
0.00667873
0.00667399
0.00667464
0.0066699
0.00667379
0.00666972
0.00667691
0.00667017
0.00667155
0.00664366
0.00658304
0.00645951
0.00623551
0.00585388
0.00527827
0.00458941
0.00384015
0.00308715
0.00238216
0.00176798
0.00127055
0.000906975
0.000662063
0.000465365
0.000256273
0.000105525
8.93077e-05
0.00670604
0.00670066
0.00669647
0.006692
0.00668794
0.00668466
0.00668036
0.00667866
0.00667399
0.00667449
0.0066699
0.00667363
0.00667019
0.00667842
0.0066764
0.00668751
0.00667995
0.00665713
0.00660191
0.00648378
0.00626531
0.00588888
0.00531787
0.0046321
0.00388354
0.0031278
0.00241691
0.00179456
0.00128936
0.00091652
0.000660594
0.000449232
0.000241056
0.000101585
9.0451e-05
0.00670068
0.00670603
0.00669646
0.00669201
0.00668794
0.00668465
0.00668036
0.00667859
0.00667401
0.00667435
0.0066699
0.00667341
0.00667037
0.0066787
0.00667901
0.00669477
0.00669761
0.00669636
0.00668242
0.006633
0.00652182
0.00630999
0.00593995
0.00537263
0.00468868
0.0039384
0.00317732
0.00245806
0.00182515
0.00131053
0.000928124
0.00065844
0.000436378
0.000229189
9.8793e-05
9.14402e-05
0.00669644
0.00670071
0.00670601
0.00669202
0.00668793
0.00668464
0.00668037
0.00667854
0.00667402
0.00667423
0.00666991
0.00667318
0.00667045
0.00667858
0.00668008
0.00669776
0.00670584
0.00671619
0.00672613
0.00671852
0.00667777
0.00657511
0.00637181
0.00600755
0.00544341
0.00475911
0.00400469
0.00323558
0.00250513
0.0018594
0.0013364
0.000942082
0.000657439
0.000425305
0.000220108
9.68196e-05
9.23242e-05
0.00669203
0.00669645
0.00670077
0.006706
0.00668792
0.00668463
0.00668038
0.00667849
0.00667404
0.00667412
0.00666992
0.00667298
0.00667049
0.00667832
0.00668055
0.00669888
0.00670942
0.0067258
0.00674924
0.00676583
0.00676857
0.00673794
0.00664603
0.00645171
0.00609341
0.00553081
0.00484354
0.00408205
0.00330198
0.00255804
0.00190152
0.00136741
0.00095741
0.000657057
0.000417065
0.000212825
9.53682e-05
9.31336e-05
0.00668792
0.00669208
0.00669648
0.00670084
0.00670599
0.00668462
0.00668039
0.00667844
0.00667406
0.00667402
0.00666993
0.00667281
0.00667051
0.00667805
0.00668078
0.00669926
0.00671093
0.00673025
0.00676102
0.00679135
0.00681988
0.00683425
0.00681624
0.00673531
0.00655116
0.00619756
0.00563513
0.00494181
0.0041702
0.00337642
0.00262269
0.00195349
0.00140031
0.000973766
0.000658104
0.000409971
0.000206959
9.43143e-05
9.3889e-05
0.00668461
0.00668795
0.00669216
0.00669651
0.0067009
0.00670598
0.0066804
0.0066784
0.00667408
0.00667393
0.00666994
0.00667266
0.00667052
0.00667779
0.00668092
0.00669936
0.00671161
0.00673236
0.00676696
0.00680538
0.00684883
0.00688976
0.00691789
0.00691289
0.006845
0.0066699
0.00632048
0.00575655
0.00505417
0.00426863
0.00346725
0.00270194
0.00200972
0.00143506
0.000991442
0.000660364
0.000404358
0.000202134
9.35365e-05
9.45941e-05
0.00668041
0.00668465
0.00668802
0.00669225
0.00669654
0.00670096
0.00670597
0.00667836
0.00667411
0.00667385
0.00666995
0.00667253
0.00667052
0.00667757
0.00668102
0.00669934
0.00671194
0.00673349
0.00677013
0.00681307
0.00686599
0.00692338
0.0069806
0.00702263
0.00703089
0.00697383
0.00680841
0.00646178
0.00589339
0.00518024
0.00438935
0.00357843
0.00278759
0.0020696
0.0014713
0.00100982
0.000664148
0.000400108
0.000198016
9.29458e-05
9.52635e-05
0.00667833
0.00668047
0.00668473
0.0066881
0.00669233
0.00669658
0.00670102
0.00670596
0.00667413
0.00667378
0.00666997
0.00667242
0.00667051
0.00667739
0.0066811
0.00669929
0.00671212
0.0067342
0.00677209
0.00681761
0.0068763
0.00694422
0.00701974
0.0070931
0.00715248
0.00717341
0.00712544
0.0069649
0.00661939
0.00604521
0.00533444
0.00453777
0.00369871
0.00287872
0.00213253
0.00150898
0.00102845
0.000668498
0.000396814
0.000194618
9.25258e-05
9.58899e-05
0.00667415
0.00667834
0.00668059
0.00668482
0.00668818
0.00669242
0.00669662
0.00670107
0.00670595
0.00667371
0.00666999
0.00667233
0.00667049
0.00667725
0.00668116
0.00669922
0.00671223
0.0067347
0.00677347
0.00682075
0.0068831
0.00695783
0.00704592
0.00713922
0.00723222
0.00730718
0.00734274
0.00730238
0.00714176
0.00679272
0.00622827
0.00552033
0.0046985
0.00382781
0.00297446
0.00219791
0.00154801
0.00104722
0.000673565
0.000394326
0.000191605
9.21949e-05
9.64868e-05
0.00667365
0.00667424
0.00667841
0.00668072
0.00668491
0.00668827
0.0066925
0.00669667
0.00670113
0.00670594
0.00667001
0.00667225
0.00667046
0.00667716
0.0066812
0.00669915
0.00671231
0.00673509
0.00677454
0.00682319
0.00688816
0.00696758
0.00706471
0.00717229
0.0072878
0.00739856
0.00749102
0.0075379
0.0075048
0.00734216
0.00700075
0.00644657
0.0057189
0.00486735
0.0039622
0.00307389
0.00226512
0.00158795
0.00106627
0.000679536
0.000392526
0.000189094
9.19669e-05
9.70442e-05
0.00667003
0.00667363
0.00667438
0.00667848
0.00668085
0.006685
0.00668837
0.00669258
0.00669671
0.00670118
0.00670594
0.00667218
0.00667042
0.00667712
0.00668119
0.00669908
0.00671237
0.00673543
0.00677544
0.00682525
0.00689228
0.00697537
0.00707929
0.00719773
0.00733069
0.00746619
0.00759758
0.00770389
0.00776107
0.00773145
0.00759057
0.00725943
0.00667492
0.00592305
0.0050415
0.00410104
0.00317576
0.00233358
0.00162843
0.00108521
0.000685574
0.000391322
0.000186847
9.17942e-05
9.75746e-05
0.00667211
0.0066701
0.00667365
0.00667453
0.00667855
0.00668099
0.00668509
0.00668847
0.00669267
0.00669677
0.00670123
0.00670594
0.0066704
0.00667711
0.00668115
0.00669903
0.00671244
0.00673572
0.00677623
0.00682705
0.0068958
0.00698205
0.00709152
0.00721851
0.00736617
0.00752184
0.00768138
0.00782916
0.00794911
0.00801271
0.00801076
0.0078945
0.00754339
0.00692052
0.00613301
0.00521927
0.00424167
0.003279
0.00240261
0.00166906
0.00110437
0.000691647
0.000390552
0.000184923
9.16737e-05
9.80681e-05
0.00667038
0.00667202
0.00667019
0.00667367
0.0066747
0.00667863
0.00668114
0.00668517
0.00668857
0.00669275
0.00669682
0.00670128
0.00670594
0.00667712
0.00668105
0.00669901
0.00671251
0.006736
0.00677693
0.00682866
0.00689888
0.006988
0.00710221
0.00723659
0.00739682
0.00757034
0.00775452
0.00793335
0.00809848
0.00822756
0.00832501
0.00835576
0.0082247
0.00784507
0.00718009
0.00634437
0.00539598
0.00438233
0.00338237
0.00247166
0.00170956
0.00112369
0.000697711
0.000390071
0.000183217
9.16018e-05
9.85366e-05
0.00667715
0.00667028
0.00667192
0.00667029
0.00667369
0.00667487
0.0066787
0.00668129
0.00668526
0.00668868
0.00669283
0.00669688
0.00670133
0.00670595
0.00668089
0.00669902
0.0067126
0.00673626
0.00677756
0.0068301
0.00690164
0.00699338
0.00711175
0.00725291
0.00742437
0.00761344
0.00782143
0.00802924
0.00822965
0.00840668
0.00857618
0.0087146
0.00873401
0.00857813
0.00816066
0.00745091
0.00656356
0.00557145
0.00452185
0.00348511
0.00254016
0.00174968
0.0011428
0.000703739
0.000389896
0.000181699
9.15441e-05
9.89707e-05
0.0066807
0.00667701
0.00667006
0.00667183
0.0066704
0.00667372
0.00667505
0.00667878
0.00668145
0.00668535
0.0066888
0.0066929
0.00669695
0.00670137
0.00670595
0.00669911
0.00671271
0.00673652
0.00677811
0.0068314
0.00690411
0.00699826
0.00712035
0.0072679
0.00744956
0.0076528
0.00788323
0.00812074
0.00835582
0.0085715
0.0087969
0.00901673
0.0091469
0.00914321
0.0089518
0.00848763
0.00772638
0.00678702
0.00574513
0.00465905
0.0035861
0.00260764
0.00178917
0.00116164
0.000709697
0.000389818
0.000180377
9.15372e-05
9.93822e-05
0.00669929
0.00667986
0.00667675
0.00666984
0.00667173
0.00667054
0.00667374
0.00667525
0.00667885
0.00668162
0.00668544
0.00668892
0.00669298
0.00669701
0.00670141
0.00670596
0.00671283
0.00673675
0.0067786
0.00683256
0.00690635
0.00700271
0.00712816
0.00728175
0.00747268
0.00768941
0.00794145
0.00820712
0.00847956
0.00873662
0.00901102
0.00929791
0.00951299
0.00962156
0.00958192
0.00934371
0.00882359
0.00800459
0.0070121
0.00591638
0.00479212
0.00368462
0.00267363
0.00182783
0.00118009
0.000715552
0.000389985
0.000179155
9.15168e-05
9.97617e-05
0.00671295
0.00669894
0.00667824
0.00667649
0.00666967
0.00667161
0.0066707
0.00667376
0.00667546
0.00667893
0.0066818
0.00668553
0.00668904
0.00669306
0.00669708
0.00670145
0.00670597
0.00673697
0.006779
0.00683359
0.00690839
0.00700675
0.00713528
0.00729454
0.00749391
0.00772376
0.00799657
0.00828882
0.00859871
0.00890544
0.00923584
0.00958479
0.00987261
0.0100697
0.010142
0.0100516
0.00975335
0.00916693
0.00828395
0.00723653
0.00608727
0.00492112
0.00378017
0.00273784
0.00186546
0.00119808
0.00072127
0.000390181
0.000178133
9.15525e-05
0.000100121
0.00673717
0.006712
0.00669814
0.00667669
0.00667617
0.00666958
0.00667148
0.0066709
0.00667377
0.00667567
0.00667902
0.00668197
0.00668563
0.00668916
0.00669314
0.00669714
0.00670149
0.00670598
0.00677933
0.00683452
0.00691024
0.00701043
0.00714178
0.00730632
0.00751342
0.00775606
0.00804846
0.00836624
0.00871467
0.00907476
0.00947212
0.00989658
0.0102598
0.0105401
0.0107031
0.0107184
0.0105566
0.0101816
0.00951683
0.00856332
0.00745761
0.00625608
0.00504596
0.00387245
0.00279994
0.00190193
0.00121554
0.000726845
0.000390376
0.000177156
9.15551e-05
0.000100452
0.00677961
0.00673553
0.00670984
0.00669723
0.00667559
0.00667571
0.00666959
0.00667131
0.00667112
0.00667379
0.0066759
0.00667911
0.00668215
0.00668573
0.00668928
0.00669321
0.0066972
0.00670152
0.00670599
0.00683536
0.00691193
0.00701378
0.00714772
0.00731713
0.00753138
0.00778634
0.00809692
0.0084399
0.00882853
0.0092433
0.00970792
0.0102349
0.0107114
0.0110917
0.0113442
0.0114401
0.0113641
0.0111023
0.0106297
0.00987281
0.00884174
0.00767468
0.00642163
0.00516642
0.00396121
0.00285981
0.00193712
0.0012324
0.000732281
0.000390608
0.000176352
9.16176e-05
0.000100765
0.00683616
0.00677676
0.00673186
0.0067076
0.00669569
0.00667493
0.00667508
0.0066697
0.00667112
0.00667136
0.00667382
0.00667612
0.00667921
0.00668232
0.00668583
0.00668939
0.00669328
0.00669726
0.00670156
0.006706
0.00691348
0.00701682
0.00715315
0.00732702
0.00754789
0.00781459
0.00814199
0.00851029
0.00893978
0.00940801
0.00993989
0.0105979
0.0112584
0.0118013
0.0121596
0.0123262
0.0122986
0.0120857
0.0116904
0.0110975
0.0102342
0.00911843
0.00788719
0.00658304
0.00528247
0.00404637
0.00291723
0.00197096
0.00124863
0.000737532
0.000390896
0.000175528
9.1634e-05
0.000101016
0.00691493
0.00683253
0.00677051
0.00672822
0.00670543
0.00669378
0.00667466
0.00667431
0.00666989
0.00667092
0.00667161
0.00667386
0.00667634
0.00667933
0.00668248
0.00668594
0.00668949
0.00669335
0.00669731
0.00670159
0.006706
0.00701959
0.0071581
0.00733605
0.00756307
0.00784078
0.00818383
0.00857757
0.00904686
0.0095663
0.0101727
0.0110039
0.0119134
0.012715
0.0132421
0.0134803
0.0134797
0.0132682
0.0128751
0.0123159
0.0115824
0.0105996
0.00939256
0.0080947
0.00673973
0.00539383
0.00412732
0.0029721
0.00200337
0.00126421
0.000742607
0.000391155
0.000174885
9.17e-05
0.000101226
0.00702214
0.00690987
0.00682407
0.0067642
0.00672482
0.00670326
0.00669146
0.00667473
0.00667344
0.00667014
0.00667073
0.00667186
0.00667393
0.00667654
0.00667945
0.00668263
0.00668604
0.00668959
0.00669343
0.00669736
0.00670162
0.00670601
0.00716261
0.00734425
0.00757698
0.00786492
0.00822266
0.0086415
0.00914827
0.00971819
0.0104153
0.0114659
0.0126704
0.0137734
0.0145626
0.0149385
0.0149651
0.0147398
0.0143076
0.0137088
0.0129671
0.0120789
0.0109668
0.0096632
0.00829677
0.00689124
0.00550167
0.00420427
0.00302436
0.00203434
0.00127911
0.000747466
0.000391481
0.0001743
9.17205e-05
0.000101453
0.00716674
0.00701525
0.00689754
0.0068157
0.00675814
0.00672163
0.00670137
0.00668865
0.00667502
0.00667253
0.0066704
0.00667058
0.00667208
0.00667403
0.00667672
0.00667958
0.00668276
0.00668615
0.00668968
0.0066935
0.00669742
0.00670165
0.00670602
0.0073517
0.00758969
0.00788708
0.00825864
0.0087017
0.00924325
0.00986573
0.0106739
0.0119772
0.0134844
0.0148725
0.0159224
0.0165357
0.0166859
0.0164731
0.0160151
0.015361
0.0145555
0.0136277
0.0125796
0.0113329
0.00992921
0.008493
0.00703678
0.0056056
0.00427736
0.00307402
0.00206383
0.00129332
0.000752132
0.000391686
0.000173887
9.17922e-05
0.000101697
0.00735845
0.00715742
0.00699765
0.00688523
0.00680755
0.00675241
0.00671863
0.00670011
0.00668565
0.00667539
0.00667168
0.00667062
0.00667049
0.00667227
0.00667415
0.00667688
0.00667972
0.00668289
0.00668626
0.00668977
0.00669357
0.00669747
0.00670168
0.00670603
0.00760131
0.00790732
0.00829188
0.00875781
0.00933193
0.0100113
0.0109482
0.0125141
0.0142925
0.0159063
0.0171575
0.0179857
0.0183713
0.0183065
0.0178847
0.0172259
0.016377
0.0153838
0.0142805
0.013076
0.0116944
0.0101894
0.00868294
0.00717635
0.00570535
0.00434673
0.00312112
0.00209185
0.00130685
0.000755983
0.00039195
0.000173371
9.1821e-05
0.000101963
0.00761179
0.00734632
0.00713259
0.00698002
0.0068732
0.00679962
0.00674692
0.00671576
0.0066991
0.00668266
0.00667571
0.00667096
0.00667077
0.00667048
0.00667243
0.00667429
0.00667703
0.00667986
0.00668301
0.00668637
0.00668986
0.00669363
0.00669751
0.0067017
0.00670603
0.00792581
0.00832248
0.00880968
0.00941497
0.010156
0.0112317
0.0130478
0.0150413
0.0168045
0.018179
0.0191528
0.0197396
0.0199312
0.0197059
0.0191314
0.0183215
0.0173189
0.0161691
0.0149103
0.0135601
0.0120479
0.0104424
0.00886621
0.00730992
0.00580076
0.00441249
0.0031657
0.00211842
0.001318
0.000759284
0.000392141
0.000172917
9.19233e-05
0.00010225
0.00794235
0.00759595
0.00731194
0.00710771
0.00696274
0.00686146
0.00679185
0.00674159
0.00671308
0.00669815
0.00667989
0.00667585
0.00667044
0.00667083
0.00667055
0.00667254
0.00667446
0.00667716
0.00668001
0.00668312
0.00668647
0.00668994
0.0066937
0.00669754
0.0067017
0.00670603
0.00835059
0.00885739
0.00949316
0.0102997
0.0115151
0.0135539
0.0156997
0.0175395
0.0189645
0.0200105
0.0207258
0.0211251
0.0211837
0.0208587
0.0201891
0.0192793
0.0181667
0.016895
0.0155059
0.0140251
0.0123903
0.0106872
0.00904246
0.00743748
0.00589178
0.00447476
0.00320784
0.00214025
0.00132749
0.000762903
0.000392494
0.000172332
9.19634e-05
0.000102563
0.00837571
0.0079224
0.00754873
0.00727744
0.00708331
0.00694587
0.00684999
0.00678416
0.00673655
0.0067105
0.00669721
0.00667758
0.00667567
0.00667015
0.00667079
0.00667067
0.00667264
0.00667463
0.00667728
0.00668016
0.00668322
0.00668658
0.00669002
0.00669373
0.00669754
0.00670169
0.00670603
0.00890122
0.00956715
0.0104408
0.011789
0.0140165
0.0162567
0.0181147
0.019533
0.0205896
0.0213633
0.0218923
0.0221699
0.022152
0.0217784
0.021062
0.0200962
0.0189131
0.0175531
0.0160596
0.014466
0.0127188
0.0109226
0.00921135
0.00755908
0.0059784
0.00453364
0.00324237
0.00215879
0.00133791
0.000766899
0.000392729
0.00017183
9.21041e-05
0.0001029
0.00894021
0.00835041
0.00785838
0.00750138
0.00724356
0.00705948
0.00692938
0.00683875
0.00677655
0.00673191
0.00670791
0.00669608
0.0066762
0.00667517
0.00667007
0.0066707
0.00667083
0.00667272
0.00667481
0.0066774
0.0066803
0.00668333
0.00668668
0.00669005
0.00669374
0.00669754
0.00670169
0.00670603
0.00963733
0.0105773
0.0120462
0.0144286
0.0167152
0.0185491
0.0199208
0.0209428
0.0217189
0.0223077
0.022721
0.0229308
0.0228795
0.0224947
0.0217677
0.0207809
0.0195601
0.0181412
0.0165678
0.0148794
0.0130314
0.0111477
0.00937268
0.00767475
0.00606066
0.00458193
0.00327163
0.00217909
0.00134937
0.000771311
0.000393203
0.000171171
9.21615e-05
0.000103267
0.00970125
0.00890862
0.00826372
0.00779412
0.00745485
0.00721043
0.0070362
0.00691327
0.00682774
0.00676895
0.00672745
0.00670524
0.00669398
0.00667557
0.00667445
0.00667013
0.00667057
0.00667102
0.00667279
0.00667499
0.00667751
0.00668044
0.00668342
0.00668674
0.00669005
0.00669374
0.00669754
0.00670169
0.00670603
0.0107075
0.0122865
0.0147893
0.0170854
0.0188674
0.0201669
0.0211243
0.0218623
0.0224562
0.0229346
0.0232857
0.0234666
0.0234115
0.0230412
0.0223292
0.0213473
0.0201144
0.0186611
0.0170295
0.0152635
0.0133267
0.011362
0.00952628
0.00778455
0.00612831
0.00462287
0.00330362
0.00220135
0.00136195
0.000776216
0.000393489
0.00017061
9.23523e-05
0.000103662
0.0108244
0.00966145
0.00879034
0.00817693
0.0077309
0.00740932
0.00717804
0.00701346
0.00689755
0.006817
0.0067615
0.00672314
0.00670266
0.00669131
0.00667546
0.00667362
0.00667027
0.00667044
0.00667121
0.00667286
0.00667517
0.00667761
0.00668058
0.00668347
0.00668674
0.00669005
0.00669374
0.00669754
0.00670169
0.00670602
0.0125099
0.015099
0.0173803
0.0190937
0.0203067
0.0211813
0.021854
0.0224135
0.0229025
0.0233242
0.0236499
0.0238276
0.0237883
0.0234495
0.02277
0.0218113
0.0205854
0.0191171
0.0174457
0.0156177
0.0136039
0.011565
0.00967204
0.0078748
0.00618576
0.00466767
0.00333864
0.00222576
0.00137584
0.000781554
0.000394116
0.000169875
9.24405e-05
0.000104089
0.0107794
0.0127065
0.00948795
0.00867393
0.00809139
0.00766899
0.00736476
0.0071464
0.00699129
0.00688226
0.00680664
0.00675415
0.00671924
0.00670047
0.00668823
0.0066756
0.00667279
0.00667043
0.00667033
0.00667139
0.00667294
0.00667534
0.00667772
0.00668066
0.00668346
0.00668675
0.00669005
0.00669374
0.00669754
0.00670168
0.00670601
0.0153607
0.0176129
0.0192493
0.0203691
0.0211512
0.021742
0.0222398
0.0226994
0.0231374
0.0235385
0.0238629
0.0240543
0.0240435
0.0237469
0.0231112
0.0221882
0.0209833
0.0195149
0.0178187
0.0159424
0.0138628
0.0117565
0.00979169
0.00795144
0.00624878
0.00471675
0.00337699
0.00225258
0.00139109
0.000787612
0.000394475
0.00016924
9.26948e-05
0.000104547
0.0105145
0.0126594
0.0155763
0.00932166
0.00855996
0.00800744
0.00760838
0.00732119
0.00711553
0.00696972
0.00686747
0.00679684
0.00674722
0.00671575
0.00669908
0.00668515
0.00667582
0.00667204
0.00667058
0.00667024
0.00667157
0.00667302
0.0066755
0.00667777
0.00668067
0.00668346
0.00668675
0.00669005
0.00669373
0.00669751
0.00670165
0.006706
0.0177951
0.0193516
0.0203767
0.0210626
0.0215624
0.0219811
0.0223826
0.0227962
0.0232192
0.0236232
0.0239618
0.024178
0.0242041
0.0239565
0.0233715
0.0224924
0.021318
0.0198605
0.0181516
0.0162387
0.0141034
0.0119126
0.00989321
0.0080355
0.00631796
0.00477057
0.00341904
0.00228203
0.00140801
0.000794102
0.000395252
0.000168435
9.28404e-05
0.000105039
0.0102526
0.0122904
0.015502
0.0179332
0.00916408
0.00844791
0.00792517
0.00754906
0.00727865
0.00708548
0.00694882
0.00685325
0.00678753
0.00674087
0.00671262
0.00669797
0.00668233
0.00667597
0.00667142
0.0066707
0.00667019
0.00667174
0.00667311
0.0066756
0.00667776
0.00668068
0.00668346
0.00668675
0.00669005
0.0066937
0.00669746
0.00670162
0.00670599
0.0194141
0.0203467
0.0209366
0.0213414
0.0216706
0.0219949
0.0223538
0.0227574
0.0231889
0.0236108
0.0239739
0.0242226
0.0242914
0.0240969
0.0235666
0.0227361
0.0215985
0.02016
0.0184478
0.0165081
0.0142965
0.0120444
0.0100044
0.00812774
0.00639396
0.00482967
0.00346519
0.00231447
0.00142658
0.000801575
0.000395772
0.000167703
9.31728e-05
0.000105566
0.010007
0.0118861
0.015151
0.0178219
0.0194393
0.00901276
0.00833759
0.00784467
0.0074911
0.00723722
0.00705633
0.00692863
0.00683967
0.00677882
0.00673507
0.00670985
0.00669695
0.00667991
0.00667598
0.00667095
0.00667077
0.00667018
0.0066719
0.00667314
0.00667562
0.00667776
0.00668068
0.00668347
0.00668674
0.00669001
0.00669363
0.00669742
0.00670159
0.00670597
0.0202913
0.0207883
0.021098
0.0213326
0.0215671
0.0218497
0.0222021
0.0226197
0.0230748
0.0235245
0.0239194
0.0242063
0.0243222
0.0241833
0.0237096
0.0229301
0.021833
0.020419
0.0187107
0.0167198
0.0144582
0.0121879
0.0101261
0.00822903
0.00647754
0.00489462
0.00351592
0.00235014
0.00144725
0.000809581
0.000396652
0.000166807
9.3423e-05
0.000106125
0.0097779
0.0114845
0.0147083
0.017584
0.019274
0.0202102
0.00886562
0.00822917
0.00776606
0.0074346
0.00719701
0.00702813
0.00690933
0.00682702
0.00677074
0.0067299
0.00670732
0.00669594
0.0066781
0.00667578
0.00667063
0.00667082
0.0066702
0.006672
0.00667312
0.00667564
0.00667777
0.00668068
0.00668348
0.00668669
0.00668993
0.00669356
0.00669736
0.00670156
0.00670596
0.0206283
0.0208455
0.020984
0.0211218
0.0213133
0.0215903
0.0219607
0.0224081
0.0228966
0.0233808
0.0238133
0.0241435
0.0243097
0.0242278
0.0238111
0.0230833
0.0220287
0.0206429
0.0189125
0.0168947
0.0146322
0.0123441
0.0102595
0.00834031
0.00656952
0.00496612
0.00357153
0.00238949
0.00146999
0.000818687
0.000397451
0.000165925
9.38468e-05
0.000106721
0.00956235
0.0111009
0.0142137
0.0172665
0.0191119
0.019991
0.0204516
0.0087218
0.00812295
0.00768951
0.0073797
0.00715812
0.00700115
0.00689137
0.00681543
0.00676326
0.00672539
0.00670492
0.00669462
0.00667698
0.00667542
0.00667042
0.00667085
0.0066702
0.00667202
0.00667313
0.00667564
0.00667778
0.00668067
0.00668343
0.00668659
0.00668985
0.00669349
0.00669731
0.00670153
0.00670594
0.0205926
0.0206369
0.0206749
0.0207663
0.0209503
0.0212468
0.021652
0.0221393
0.0226676
0.0231917
0.023667
0.0240451
0.0242645
0.02424
0.0238797
0.0232032
0.0221916
0.0208097
0.0190771
0.0170803
0.0148192
0.0125136
0.0104053
0.00846262
0.00667082
0.00504535
0.00363264
0.00243284
0.00149527
0.000828725
0.000398369
0.000164946
9.4282e-05
0.000107338
0.00935771
0.0107405
0.0136908
0.0168914
0.0188829
0.0198627
0.0201789
0.0203291
0.00858119
0.00801926
0.00761519
0.00732655
0.00712088
0.00697606
0.00687498
0.00680479
0.00675628
0.0067214
0.00670263
0.00669272
0.00667637
0.00667495
0.00667031
0.00667086
0.00667019
0.00667204
0.00667314
0.00667563
0.00667781
0.0066806
0.00668333
0.00668649
0.00668977
0.00669342
0.00669726
0.0067015
0.00670593
0.0202991
0.0202379
0.0202243
0.0203036
0.0205059
0.0208401
0.0212909
0.0218244
0.0223971
0.022966
0.0234896
0.02392
0.0241948
0.0242277
0.0239225
0.023296
0.0223078
0.0209441
0.019249
0.0172763
0.0150194
0.0126974
0.0105649
0.00859705
0.00678227
0.0051332
0.00369992
0.00248071
0.00152329
0.000839739
0.000399624
0.000163883
9.48154e-05
0.000108112
0.00916214
0.0104053
0.013151
0.0164692
0.0186128
0.0196807
0.0200551
0.0200032
0.019956
0.00844402
0.00791845
0.00754332
0.00727566
0.0070863
0.0069532
0.00686002
0.00679507
0.00674979
0.00671786
0.0067006
0.00669036
0.00667609
0.00667447
0.00667031
0.00667084
0.0066702
0.00667205
0.00667318
0.00667562
0.00667777
0.00668047
0.00668323
0.00668638
0.00668968
0.00669335
0.0066972
0.00670147
0.00670591
0.0198176
0.0196988
0.0196665
0.01976
0.0200001
0.0203835
0.020887
0.0214708
0.0220917
0.0227107
0.0232883
0.0237753
0.0241072
0.0241969
0.023945
0.0233555
0.0223998
0.0210818
0.0194275
0.0174826
0.0152331
0.0128962
0.0107391
0.00874477
0.00690498
0.00523065
0.00377415
0.00253362
0.00155422
0.000852477
0.000400456
0.000162825
9.56996e-05
0.000108982
0.00897448
0.0100959
0.0126016
0.0160018
0.0183133
0.0194726
0.0198864
0.0198656
0.0195777
0.019405
0.00831053
0.00782094
0.00747456
0.0072284
0.00705482
0.00693237
0.00684638
0.00678625
0.00674375
0.00671481
0.00669924
0.00668797
0.00667597
0.0066741
0.00667037
0.00667084
0.00667022
0.00667204
0.00667322
0.00667553
0.00667767
0.00668034
0.00668313
0.00668628
0.00668959
0.00669328
0.00669714
0.00670144
0.00670589
0.0191967
0.0190509
0.0190265
0.0191554
0.0194448
0.0198861
0.0204459
0.0210827
0.0217559
0.0224316
0.0230694
0.0236167
0.024007
0.0241525
0.0239486
0.0234009
0.0224912
0.0212216
0.0196116
0.0176984
0.0154602
0.0131104
0.0109289
0.00890697
0.00704016
0.00533878
0.00385622
0.00259207
0.00158901
0.000865648
0.000402389
0.000161352
9.66078e-05
0.000109812