/*--------------------------------*- C++ -*----------------------------------*\
  =========                 |
  \\      /  F ield         | OpenFOAM: The Open Source CFD Toolbox
   \\    /   O peration     | Website:  https://openfoam.org
    \\  /    A nd           | Version:  8
     \\/     M anipulation  |
\*---------------------------------------------------------------------------*/
FoamFile
{
    version     2.0;
    format      ascii;
    class       volScalarField;
    location    "0.46";
    object      k;
}
// * * * * * * * * * * * * * * * * * * * * * * * * * * * * * * * * * * * * * //

dimensions      [0 2 -2 0 0 0 0];

internalField   nonuniform List<scalar> 
15677
(
0.334164
0.36504
0.294778
0.368731
0.357728
0.281053
0.370693
0.360098
0.366169
0.282774
0.371884
0.361644
0.3615
0.383367
0.288882
0.372611
0.36375
0.357757
0.368374
0.401705
0.30028
0.373038
0.365668
0.357862
0.358184
0.380152
0.419368
0.311767
0.373263
0.367185
0.359472
0.354612
0.361072
0.393323
0.434734
0.322558
0.373348
0.368307
0.361364
0.354791
0.353085
0.366928
0.406176
0.447824
0.332038
0.373349
0.369083
0.36307
0.356353
0.35114
0.353522
0.373578
0.418266
0.458653
0.340424
0.373315
0.369566
0.364444
0.358228
0.351944
0.348806
0.354803
0.380707
0.429072
0.467796
0.347509
0.373276
0.369823
0.365463
0.359964
0.353726
0.348396
0.347164
0.357132
0.387659
0.438791
0.475304
0.353747
0.373251
0.369924
0.366148
0.361396
0.355669
0.349773
0.345369
0.346338
0.35972
0.394444
0.447202
0.481742
0.358955
0.373242
0.369938
0.366547
0.362475
0.357427
0.351725
0.346216
0.342938
0.345904
0.362623
0.400683
0.454686
0.487053
0.363624
0.373241
0.369921
0.366735
0.363205
0.358857
0.353682
0.348078
0.3431
0.340875
0.345919
0.365486
0.406561
0.46104
0.491657
0.367699
0.373241
0.369906
0.366793
0.36363
0.359913
0.355388
0.350159
0.344754
0.340303
0.339207
0.346056
0.368401
0.411751
0.466683
0.495472
0.371319
0.37324
0.369899
0.366794
0.363828
0.360604
0.356733
0.352088
0.346882
0.341707
0.337829
0.337761
0.346394
0.37109
0.416559
0.471378
0.498854
0.374626
0.373239
0.369896
0.366784
0.363887
0.360985
0.357685
0.353687
0.348977
0.343839
0.33893
0.335598
0.336549
0.346797
0.373734
0.420646
0.475525
0.50177
0.377455
0.373238
0.369895
0.366774
0.363895
0.361134
0.358271
0.354885
0.350794
0.346065
0.341022
0.336389
0.333605
0.335483
0.347322
0.376027
0.42435
0.478946
0.504351
0.380305
0.373237
0.369895
0.366767
0.363891
0.361177
0.358542
0.355676
0.352219
0.348073
0.343346
0.338427
0.334075
0.331799
0.334608
0.347774
0.378194
0.427379
0.481952
0.506737
0.382539
0.373236
0.369896
0.366762
0.363885
0.361181
0.358647
0.356075
0.353216
0.349702
0.345517
0.340834
0.336046
0.331967
0.330205
0.333821
0.348269
0.379962
0.430088
0.48443
0.50879
0.38518
0.373235
0.369896
0.366759
0.363881
0.361174
0.35868
0.356248
0.353761
0.350889
0.347337
0.343156
0.338519
0.333878
0.330073
0.328782
0.333169
0.348651
0.381587
0.432191
0.486596
0.51093
0.386955
0.373235
0.369896
0.366756
0.363878
0.361165
0.358684
0.356311
0.354024
0.35157
0.348713
0.345152
0.340975
0.336423
0.33193
0.328396
0.327547
0.332596
0.349024
0.382809
0.434084
0.488397
0.512641
0.389565
0.373235
0.369896
0.366754
0.363875
0.361157
0.35868
0.356326
0.35414
0.351914
0.349545
0.346699
0.343135
0.33902
0.33455
0.330222
0.326939
0.326496
0.33212
0.349299
0.383941
0.435434
0.490011
0.514788
0.391007
0.373235
0.369896
0.366753
0.363873
0.361151
0.358672
0.356321
0.354181
0.352073
0.349995
0.347659
0.344857
0.341353
0.337282
0.332929
0.328759
0.325736
0.325646
0.331775
0.349558
0.384686
0.436731
0.491317
0.516231
0.393613
0.373235
0.369895
0.366752
0.363872
0.361146
0.358665
0.356311
0.354187
0.352134
0.350223
0.348189
0.345971
0.343245
0.33977
0.335817
0.331594
0.327614
0.3248
0.325017
0.331476
0.349747
0.38543
0.437514
0.492721
0.51878
0.394987
0.373235
0.369895
0.366752
0.36387
0.361143
0.358659
0.356301
0.35418
0.352148
0.350323
0.348463
0.346622
0.344478
0.341827
0.338513
0.334675
0.330593
0.326732
0.324128
0.324609
0.331453
0.35001
0.385875
0.438467
0.493609
0.520418
0.504482
0.373235
0.369895
0.366752
0.363868
0.361141
0.358654
0.356292
0.354168
0.352141
0.350355
0.348587
0.346982
0.345197
0.343231
0.340786
0.337537
0.333826
0.329897
0.326303
0.323923
0.324633
0.331541
0.350242
0.38636
0.438914
0.495576
0.529122
0.709489
0.373236
0.369894
0.366752
0.363867
0.361139
0.358649
0.356284
0.354155
0.352127
0.350353
0.34863
0.34716
0.345595
0.344102
0.342312
0.339941
0.336973
0.333565
0.329898
0.326383
0.324063
0.324832
0.331777
0.350554
0.386731
0.439822
0.496179
0.545851
0.883388
0.373236
0.369894
0.366752
0.363866
0.361138
0.358646
0.356279
0.354145
0.352112
0.350337
0.348634
0.347228
0.345793
0.344618
0.343229
0.341678
0.339781
0.337052
0.333765
0.330181
0.326761
0.324497
0.325311
0.332261
0.350998
0.387143
0.440505
0.495896
0.558538
1.02357
0.373236
0.369893
0.366752
0.363865
0.361137
0.358642
0.356274
0.354136
0.352099
0.350317
0.348619
0.347239
0.345875
0.344893
0.343761
0.342825
0.341743
0.340027
0.337486
0.334382
0.330929
0.32761
0.325389
0.326228
0.333066
0.351578
0.387759
0.440253
0.494394
0.567875
1.14445
0.373237
0.369893
0.366752
0.363864
0.361136
0.35864
0.356271
0.354128
0.352088
0.350299
0.348597
0.347221
0.345896
0.345014
0.344043
0.34354
0.342979
0.342153
0.34074
0.338472
0.335652
0.33239
0.329136
0.326865
0.327554
0.334186
0.352416
0.388242
0.439335
0.491217
0.574254
1.24194
0.373237
0.369892
0.366753
0.363863
0.361136
0.358637
0.356268
0.354122
0.352079
0.350283
0.348576
0.347193
0.345883
0.345043
0.344174
0.343953
0.343757
0.343537
0.343114
0.342181
0.34033
0.337751
0.334592
0.331313
0.328878
0.32933
0.335662
0.353442
0.388583
0.437418
0.485819
0.578364
1.31335
0.373237
0.369892
0.366753
0.363862
0.361135
0.358635
0.356265
0.354116
0.352071
0.350269
0.348556
0.347164
0.345855
0.345027
0.344226
0.344163
0.344215
0.344426
0.344724
0.34496
0.344548
0.34305
0.340678
0.337576
0.334168
0.331494
0.331565
0.337503
0.35466
0.388526
0.434173
0.479026
0.580953
1.36733
0.373237
0.369892
0.366753
0.363861
0.361135
0.358633
0.356264
0.354111
0.352064
0.350257
0.348539
0.347139
0.345824
0.344992
0.344226
0.344239
0.344457
0.344966
0.345798
0.346864
0.347754
0.347887
0.346731
0.344531
0.341386
0.337775
0.334714
0.334295
0.339707
0.355986
0.388227
0.429846
0.472236
0.583159
1.40984
0.369891
0.373241
0.366753
0.36386
0.361135
0.358632
0.356262
0.354107
0.352058
0.350247
0.348525
0.347116
0.345794
0.344953
0.344198
0.344249
0.344563
0.34527
0.346481
0.34816
0.350001
0.351623
0.35232
0.351486
0.349369
0.346105
0.34214
0.338591
0.337493
0.342243
0.357569
0.387534
0.425359
0.465874
0.585425
1.44474
0.366754
0.369901
0.373249
0.36386
0.361135
0.35863
0.356261
0.354104
0.352054
0.350239
0.348512
0.347097
0.345767
0.344918
0.344161
0.344227
0.344595
0.345427
0.346897
0.349022
0.351585
0.354305
0.356711
0.35798
0.357395
0.355288
0.351749
0.347325
0.343082
0.341164
0.345446
0.359529
0.386622
0.420956
0.46014
0.588082
1.4746
0.363859
0.36677
0.369922
0.373257
0.361135
0.358629
0.35626
0.3541
0.35205
0.350231
0.348501
0.34708
0.345744
0.344886
0.344123
0.344193
0.344588
0.345499
0.347145
0.349588
0.35269
0.356262
0.359943
0.363178
0.364975
0.36457
0.362313
0.358387
0.353284
0.348208
0.34573
0.349335
0.361643
0.385732
0.416881
0.455136
0.591114
1.5009
0.361135
0.363881
0.366804
0.369943
0.373265
0.358628
0.356259
0.354097
0.352047
0.350224
0.348492
0.347065
0.345724
0.344858
0.344089
0.344158
0.344566
0.345523
0.34729
0.349964
0.353468
0.357695
0.362383
0.367098
0.371153
0.373435
0.37305
0.370525
0.365975
0.360043
0.354554
0.351449
0.353541
0.363933
0.384936
0.413152
0.450831
0.594589
1.52473
0.358627
0.361163
0.363925
0.366839
0.369964
0.373273
0.356258
0.354095
0.352044
0.350218
0.348485
0.347053
0.345707
0.344833
0.344059
0.344126
0.34454
0.345527
0.347375
0.350224
0.354035
0.358769
0.364253
0.370158
0.375928
0.380792
0.383417
0.382932
0.379883
0.374547
0.36838
0.362423
0.357735
0.358033
0.366372
0.384359
0.409805
0.447193
0.598331
1.54658
0.356258
0.358658
0.361219
0.363971
0.366875
0.369987
0.373282
0.354092
0.352042
0.350213
0.348478
0.347041
0.345692
0.344812
0.344033
0.344097
0.344516
0.345523
0.34743
0.350413
0.354476
0.359615
0.365739
0.372607
0.379777
0.386617
0.392177
0.39504
0.394175
0.390432
0.385096
0.378676
0.371029
0.364502
0.362769
0.368995
0.384005
0.406843
0.444128
0.602395
1.56696
0.35409
0.356294
0.358721
0.361276
0.364017
0.366912
0.37001
0.37329
0.35204
0.350208
0.348473
0.347031
0.345679
0.344794
0.34401
0.344073
0.344495
0.345519
0.34747
0.350559
0.354833
0.360329
0.366987
0.374658
0.38299
0.391466
0.399279
0.405457
0.408268
0.406847
0.403403
0.398096
0.389898
0.380265
0.371659
0.3677
0.371742
0.384044
0.404339
0.441511
0.606531
1.58597
0.352038
0.354128
0.356367
0.358787
0.361335
0.364066
0.36695
0.370033
0.373299
0.350203
0.348469
0.347022
0.345668
0.344778
0.34399
0.344051
0.344476
0.345515
0.347505
0.350682
0.355132
0.360947
0.368103
0.376473
0.385803
0.395673
0.405383
0.41411
0.420612
0.423204
0.422424
0.419376
0.412247
0.401913
0.390012
0.379121
0.372796
0.374525
0.384228
0.402191
0.439354
0.610871
1.60392
0.350199
0.35208
0.354207
0.356443
0.358854
0.361395
0.364115
0.366989
0.370057
0.373309
0.348465
0.347014
0.345659
0.344764
0.343973
0.344033
0.344461
0.345512
0.347536
0.350792
0.355395
0.361488
0.369117
0.378172
0.388401
0.399503
0.410863
0.421777
0.431128
0.437802
0.441595
0.441626
0.436753
0.427374
0.414564
0.400152
0.386804
0.378039
0.377347
0.384624
0.400432
0.437532
0.615125
1.62072
0.348462
0.35024
0.352166
0.354288
0.35652
0.358924
0.361458
0.364166
0.367029
0.370082
0.373318
0.347006
0.345652
0.344751
0.343959
0.344017
0.344448
0.345512
0.347566
0.350892
0.355633
0.361975
0.370031
0.379769
0.390923
0.403175
0.416032
0.428883
0.440703
0.450552
0.45909
0.464377
0.462558
0.455324
0.443273
0.427694
0.41057
0.394632
0.38337
0.380194
0.385216
0.398938
0.43606
0.619495
1.63666
0.346999
0.348505
0.350328
0.352255
0.354372
0.3566
0.358995
0.361521
0.364218
0.36707
0.370108
0.373327
0.345646
0.344739
0.343946
0.344004
0.344437
0.345512
0.347594
0.350984
0.355851
0.362421
0.370869
0.381241
0.39336
0.40685
0.421145
0.435803
0.449845
0.462472
0.474746
0.485657
0.489359
0.484983
0.474848
0.459753
0.441154
0.421155
0.402532
0.388732
0.383077
0.386005
0.397773
0.434832
0.623673
1.65157
0.345641
0.347038
0.348597
0.350419
0.352347
0.354458
0.356682
0.359069
0.361587
0.364272
0.367111
0.370134
0.373337
0.344728
0.343935
0.343993
0.344429
0.345513
0.347621
0.351069
0.356051
0.362831
0.371643
0.382608
0.39565
0.410489
0.426396
0.442846
0.459009
0.474186
0.489797
0.505209
0.515014
0.51631
0.508661
0.495108
0.476626
0.454797
0.431801
0.410433
0.394083
0.385954
0.386843
0.396852
0.433876
0.627908
1.66573
0.344719
0.345679
0.347124
0.348692
0.350512
0.352441
0.354546
0.356767
0.359144
0.361654
0.364327
0.367155
0.370161
0.373347
0.343926
0.343983
0.344421
0.345515
0.347646
0.351148
0.356235
0.363209
0.372359
0.383881
0.397803
0.413965
0.431698
0.450257
0.468581
0.486257
0.505022
0.52459
0.539211
0.546947
0.544944
0.533339
0.515879
0.493714
0.468486
0.442413
0.418274
0.399382
0.388851
0.387721
0.39616
0.433088
0.631888
1.67891
0.343919
0.344744
0.345761
0.347212
0.34879
0.350608
0.352539
0.354637
0.356854
0.359222
0.361724
0.364384
0.367198
0.370188
0.373356
0.343974
0.344414
0.345517
0.347669
0.35122
0.356404
0.363556
0.37302
0.385066
0.399829
0.41727
0.43684
0.457905
0.478879
0.49918
0.521153
0.544831
0.563925
0.576615
0.581197
0.574981
0.558768
0.536965
0.510854
0.482101
0.452908
0.425999
0.404597
0.39174
0.388639
0.395628
0.432506
0.635888
1.69145
0.343968
0.343932
0.344805
0.345846
0.347304
0.348892
0.350708
0.352639
0.354731
0.356943
0.359302
0.361795
0.364442
0.367242
0.370213
0.373365
0.344407
0.345518
0.34769
0.351286
0.356558
0.363875
0.37363
0.386166
0.401729
0.420403
0.441792
0.465456
0.489693
0.51339
0.538883
0.566967
0.590561
0.607837
0.617255
0.617518
0.606149
0.584693
0.558175
0.527905
0.495542
0.463215
0.433562
0.409701
0.394598
0.389586
0.395258
0.432031
0.639602
1.70305
0.344402
0.343956
0.343967
0.344866
0.345936
0.347399
0.348998
0.350811
0.352742
0.354828
0.357034
0.359384
0.361867
0.3645
0.367284
0.370239
0.373374
0.345518
0.347708
0.351347
0.3567
0.364167
0.374191
0.387185
0.403503
0.423362
0.446545
0.472823
0.5005
0.528644
0.558896
0.592058
0.620646
0.642628
0.656442
0.661052
0.655705
0.638201
0.610891
0.579335
0.544744
0.50872
0.473275
0.440926
0.414671
0.397406
0.390553
0.394987
0.431713
0.643312
1.71412
0.345521
0.344362
0.343927
0.344009
0.344929
0.346032
0.347498
0.349108
0.350917
0.352849
0.354927
0.357129
0.359468
0.361939
0.364556
0.367325
0.370263
0.373382
0.347723
0.351401
0.356829
0.364435
0.374705
0.388125
0.405153
0.426144
0.451079
0.479954
0.511164
0.544264
0.580933
0.621216
0.65593
0.683475
0.701879
0.710148
0.708055
0.695611
0.670925
0.637167
0.600297
0.561268
0.521565
0.483041
0.44806
0.41949
0.400149
0.391532
0.394838
0.431457
0.646725
1.7243
0.347744
0.345443
0.344278
0.343885
0.344063
0.344997
0.346134
0.3476
0.349221
0.351026
0.352958
0.35503
0.357225
0.359551
0.362008
0.36461
0.367365
0.370287
0.373391
0.35145
0.356945
0.364678
0.375176
0.388991
0.406683
0.428746
0.455378
0.486806
0.521636
0.560068
0.603903
0.654241
0.698689
0.733844
0.758039
0.769892
0.769664
0.75843
0.737139
0.704147
0.663362
0.620938
0.577398
0.534025
0.492477
0.454942
0.424141
0.402816
0.392514
0.394742
0.431321
0.650122
1.73404
0.351503
0.3476
0.345262
0.344186
0.343848
0.344128
0.345068
0.34624
0.347707
0.349338
0.351139
0.353071
0.355135
0.35732
0.359632
0.362076
0.364663
0.367403
0.370311
0.373399
0.35705
0.364899
0.375606
0.389785
0.408096
0.431172
0.459431
0.493349
0.531867
0.575896
0.627339
0.689898
0.750142
0.799074
0.831784
0.848072
0.848571
0.835743
0.812334
0.780206
0.737719
0.689342
0.641156
0.593069
0.546058
0.501558
0.461556
0.428615
0.405397
0.393492
0.394746
0.431216
0.65323
1.74183
0.357157
0.351278
0.347251
0.345071
0.344104
0.34382
0.344201
0.345145
0.346352
0.347818
0.349459
0.351256
0.353186
0.355239
0.357413
0.359711
0.362142
0.364715
0.367441
0.370333
0.373406
0.365099
0.375996
0.390513
0.409399
0.433426
0.463236
0.499568
0.541802
0.59155
0.651029
0.728369
0.810145
0.883392
0.933025
0.955987
0.956676
0.939195
0.908759
0.86976
0.824681
0.771499
0.714995
0.660873
0.60823
0.557634
0.510265
0.46789
0.432905
0.407886
0.394456
0.394772
0.431213
0.655894
1.7484
0.365296
0.356825
0.350698
0.346886
0.344896
0.344032
0.3438
0.344281
0.345227
0.346467
0.347934
0.349583
0.351376
0.3533
0.355341
0.357503
0.359788
0.362206
0.364765
0.367477
0.370355
0.373414
0.376353
0.391177
0.410597
0.435514
0.466796
0.505453
0.551379
0.606864
0.674988
0.770243
0.879371
0.985786
1.06712
1.1069
1.10885
1.08438
1.04161
0.988391
0.930415
0.87034
0.805335
0.740224
0.680026
0.622845
0.568734
0.518589
0.473938
0.437005
0.410278
0.395408
0.394823
0.431227
0.658106
1.75547
0.376693
0.364827
0.355918
0.350094
0.346545
0.344736
0.343969
0.343791
0.344366
0.345316
0.346586
0.348055
0.34971
0.351496
0.353411
0.35544
0.35759
0.359863
0.362268
0.364814
0.367512
0.370377
0.373421
0.391788
0.411696
0.437445
0.470115
0.510998
0.560551
0.621746
0.69936
0.815697
0.957078
1.10326
1.22666
1.30272
1.31864
1.28757
1.22878
1.1541
1.07359
0.993701
0.916861
0.839061
0.76494
0.69857
0.636889
0.579348
0.526524
0.479698
0.440914
0.412569
0.396338
0.394906
0.431256
0.660528
1.76319
0.392356
0.376054
0.363462
0.354978
0.349523
0.346229
0.344589
0.343917
0.343792
0.344454
0.345413
0.346709
0.348181
0.349836
0.351614
0.353519
0.355537
0.357675
0.359936
0.362328
0.364861
0.367547
0.370398
0.373425
0.412712
0.439227
0.473202
0.516206
0.569287
0.636174
0.724245
0.864212
1.04088
1.23064
1.40232
1.52667
1.58177
1.56046
1.48603
1.38554
1.27394
1.16277
1.05879
0.963839
0.872496
0.789064
0.716466
0.650346
0.589471
0.534071
0.485171
0.444632
0.414757
0.397128
0.394973
0.431331
0.663174
1.77155
0.41364
0.391513
0.374053
0.362057
0.354085
0.348982
0.345933
0.344453
0.343876
0.343807
0.344543
0.345519
0.346834
0.348308
0.349959
0.351728
0.353624
0.355631
0.357758
0.360007
0.362387
0.364907
0.36758
0.370408
0.373425
0.440884
0.47607
0.521081
0.577575
0.650148
0.749593
0.914761
1.12779
1.3623
1.58519
1.76458
1.87327
1.89308
1.82317
1.6973
1.54986
1.39805
1.25416
1.12474
1.01083
0.905452
0.81252
0.733691
0.66321
0.599102
0.541233
0.490361
0.448161
0.416568
0.397808
0.395084
0.431412
0.666081
1.78072
0.442371
0.412544
0.388631
0.372007
0.360718
0.353234
0.348465
0.345659
0.344329
0.343843
0.34384
0.344634
0.345634
0.346958
0.348434
0.350078
0.35184
0.353726
0.355723
0.357839
0.360076
0.362444
0.364952
0.367597
0.370408
0.373425
0.478749
0.525642
0.585422
0.66368
0.775224
0.966162
1.21513
1.49367
1.76814
2.00578
2.17619
2.25441
2.22642
2.09853
1.91516
1.71735
1.52355
1.34603
1.19063
1.05738
0.937744
0.835245
0.750224
0.675476
0.60825
0.548017
0.495272
0.451063
0.418111
0.398573
0.395196
0.431593
0.669277
1.79064
0.481117
0.440971
0.408449
0.385708
0.370055
0.359436
0.352416
0.347967
0.345403
0.344216
0.343812
0.343898
0.344725
0.345754
0.34708
0.348557
0.350195
0.35195
0.353825
0.355812
0.357917
0.360143
0.362499
0.364974
0.367597
0.370408
0.373425
0.529925
0.592857
0.676785
0.800887
1.01733
1.30085
1.62157
1.94624
2.2425
2.47879
2.62556
2.66007
2.57335
2.37976
2.13453
1.88438
1.64804
1.43689
1.25561
1.10308
0.969206
0.85718
0.76605
0.68715
0.616922
0.554433
0.499301
0.453528
0.419811
0.399423
0.39538
0.431755
0.672766
1.80156
0.533667
0.479359
0.435198
0.404333
0.382919
0.36818
0.358199
0.351626
0.347491
0.345165
0.344113
0.343776
0.343974
0.344815
0.345874
0.347199
0.348678
0.350308
0.352056
0.353922
0.355899
0.357993
0.360208
0.362527
0.364974
0.367597
0.370408
0.373425
0.599919
0.689487
0.826339
1.0674
1.38355
1.74401
2.11641
2.46963
2.77249
2.99337
3.10314
3.08188
2.9269
2.66147
2.35144
2.04821
1.76965
1.52554
1.31899
1.14757
0.999689
0.878278
0.781166
0.69824
0.625131
0.559694
0.502718
0.45623
0.421684
0.400385
0.395562
0.432073
0.676644
1.81333
0.606089
0.531457
0.471241
0.429454
0.400402
0.380232
0.366364
0.357001
0.350867
0.34704
0.344944
0.344021
0.343746
0.34406
0.344906
0.345993
0.347316
0.348797
0.350419
0.35216
0.354016
0.355983
0.358067
0.36024
0.362527
0.364974
0.367597
0.370408
0.373425
0.701788
0.851368
1.11574
1.46234
1.85983
2.27693
2.68404
3.05148
3.34777
3.54036
3.6006
3.51259
3.28121
2.93933
2.56294
2.2068
1.88701
1.61109
1.38023
1.19057
1.02907
0.898504
0.795572
0.708757
0.631868
0.564154
0.506456
0.459194
0.423753
0.401456
0.395853
0.432367
0.680857
1.82632
0.71263
0.603338
0.51995
0.463259
0.423965
0.396608
0.377625
0.364603
0.355845
0.35014
0.346616
0.344743
0.343941
0.343729
0.344149
0.344998
0.346111
0.347431
0.348912
0.350527
0.352261
0.354108
0.356065
0.358104
0.36024
0.362527
0.364974
0.367597
0.370408
0.373421
0.875737
1.16196
1.53676
1.96846
2.42691
2.88404
3.31217
3.68157
3.95928
4.11133
4.11028
3.94567
3.63131
3.20998
2.76685
2.35878
1.99922
1.69295
1.43895
1.23185
1.05726
0.917834
0.809272
0.717402
0.637583
0.569032
0.51055
0.46245
0.426037
0.402678
0.39614
0.432868
0.685601
1.84026
0.709308
0.897204
0.58639
0.508858
0.455626
0.418658
0.392917
0.375089
0.362897
0.354732
0.349447
0.34622
0.34456
0.343876
0.343725
0.34424
0.345093
0.346226
0.347545
0.349024
0.350633
0.352359
0.354197
0.356106
0.358103
0.36024
0.362527
0.364974
0.367597
0.370397
0.373414
1.20568
1.60657
2.0697
2.56605
3.06892
3.55266
3.99022
4.35061
4.59843
4.69827
4.62494
4.37523
3.97306
3.47081
2.96163
2.50323
2.1057
1.7707
1.49487
1.27127
1.08419
0.936257
0.820562
0.724746
0.643838
0.574372
0.515037
0.466029
0.428569
0.404037
0.396586
0.433359
0.69073
1.85568
0.682678
0.894417
1.24337
0.570568
0.498274
0.448233
0.41349
0.389324
0.37263
0.361249
0.353665
0.348791
0.345856
0.344401
0.343828
0.343735
0.344329
0.34519
0.346338
0.347657
0.349134
0.350736
0.352455
0.354241
0.356106
0.358103
0.36024
0.362527
0.364974
0.36758
0.370376
0.373406
1.67159
2.16361
2.69447
3.23864
3.77235
4.27142
4.70835
5.04974
5.25692
5.2933
5.13769
4.79604
4.30301
3.71989
3.1463
2.63965
2.20616
1.84416
1.54786
1.30874
1.10983
0.951462
0.830167
0.732791
0.65069
0.580223
0.519959
0.469969
0.431373
0.4056
0.39703
0.434112
0.696581
1.87212
0.658285
0.851422
1.24152
1.72702
0.555693
0.488003
0.441028
0.408453
0.385834
0.37025
0.359664
0.352645
0.348175
0.34553
0.344266
0.343793
0.343759
0.344414
0.345289
0.346448
0.347767
0.349241
0.350838
0.352502
0.354241
0.356106
0.358103
0.36024
0.362527
0.364952
0.367546
0.370355
0.373398
2.25021
2.81255
3.3937
3.97152
4.52462
5.02952
5.45719
5.77044
5.92656
5.88874
5.6421
5.2035
4.61846
3.95587
3.32029
2.76782
2.30048
1.91324
1.59786
1.34422
1.13095
0.964406
0.840705
0.741614
0.658202
0.58664
0.525363
0.47431
0.434491
0.407338
0.397696
0.43489
0.702892
1.89034
0.635791
0.811017
1.17773
1.72715
2.32369
0.541372
0.477978
0.434006
0.403555
0.382452
0.367955
0.358145
0.351683
0.347615
0.345248
0.344151
0.343769
0.343802
0.344497
0.34539
0.346555
0.347875
0.349346
0.350887
0.352502
0.354241
0.356106
0.358104
0.36024
0.362499
0.364907
0.367512
0.370333
0.37339
2.92055
3.5349
4.15122
4.75061
5.31365
5.8168
6.228
6.5045
6.59923
6.47712
6.13225
5.59376
4.91736
4.17793
3.48336
2.88771
2.38873
1.97801
1.64487
1.37328
1.14891
0.978611
0.852277
0.751301
0.666448
0.593683
0.531304
0.479099
0.437952
0.409353
0.398374
0.435989
0.710159
1.90959
0.614599
0.773219
1.11508
1.64473
2.32699
3.01149
0.527447
0.468198
0.427178
0.398807
0.379188
0.365751
0.356706
0.350802
0.347114
0.345006
0.344054
0.343742
0.343861
0.344577
0.345492
0.34666
0.347983
0.349397
0.350887
0.352501
0.354241
0.356106
0.358104
0.360208
0.362443
0.36486
0.367476
0.37031
0.373382
3.66285
4.31288
4.95123
5.56221
6.12812
6.62412
7.01276
7.24392
7.26689
7.05128
6.60291
5.96379
5.19838
4.38567
3.63552
2.99951
2.47107
2.03855
1.68315
1.39789
1.16857
0.994211
0.864997
0.761945
0.675507
0.601424
0.537841
0.484387
0.441818
0.411598
0.39935
0.437188
0.718029
1.93098
0.59441
0.737628
1.05384
1.5619
2.22792
3.01842
3.76921
0.513889
0.458688
0.420561
0.394222
0.37605
0.363657
0.355382
0.35001
0.346665
0.344797
0.343973
0.343718
0.343929
0.344655
0.345594
0.346765
0.348037
0.349395
0.350887
0.352501
0.354241
0.356106
0.358067
0.360142
0.362386
0.364813
0.367439
0.370286
0.373374
4.45759
5.12882
5.77815
6.39347
6.95818
7.44368
7.80407
7.98075
7.92154
7.60454
7.04969
6.31136
5.46072
4.57903
3.77702
3.10347
2.54772
2.08758
1.71542
1.42473
1.19011
1.01135
0.878989
0.773653
0.685471
0.609941
0.545043
0.490238
0.44612
0.414212
0.400383
0.43876
0.727112
1.95329
0.575099
0.704115
0.993872
1.47883
2.12744
2.90417
3.77887
4.57546
0.500713
0.449475
0.414173
0.389811
0.373067
0.361729
0.354189
0.349299
0.346268
0.344618
0.343905
0.343702
0.344001
0.344735
0.345701
0.346814
0.348035
0.349394
0.350886
0.352501
0.354241
0.356065
0.357992
0.360074
0.362327
0.364764
0.367402
0.370262
0.373365
5.28521
5.96511
6.61728
7.23344
7.79599
8.26895
8.59482
8.70689
8.55528
8.1309
7.46915
6.63505
5.70412
4.75827
3.90822
3.19995
2.60956
2.12876
1.75044
1.45398
1.2137
1.0302
0.894394
0.786546
0.696443
0.619322
0.552987
0.496716
0.450944
0.417143
0.401793
0.44037
0.737074
1.98244
0.55661
0.672673
0.935344
1.39524
2.0256
2.78803
3.64986
4.58523
5.40864
0.487951
0.44059
0.408033
0.385618
0.370317
0.359988
0.353116
0.348663
0.345919
0.344465
0.34385
0.343695
0.344078
0.344822
0.345754
0.346808
0.348035
0.349394
0.350886
0.352502
0.354196
0.355982
0.357915
0.360005
0.362266
0.364713
0.367363
0.370238
0.373356
6.12596
6.80493
7.45617
8.07384
8.63593
9.09422
9.37776
9.41393
9.1606
8.62538
7.85887
6.93417
5.92879
4.92386
4.02959
3.27755
2.66137
2.1733
1.78844
1.48584
1.23953
1.05091
0.911364
0.800755
0.708537
0.629667
0.561762
0.503903
0.456331
0.420558
0.403358
0.442352
0.750497
2.01702
0.538897
0.643358
0.878724
1.31108
1.92194
2.66981
3.51927
4.44061
5.41397
6.24758
0.475641
0.432063
0.402198
0.381752
0.367833
0.358419
0.35215
0.348095
0.345613
0.344331
0.343806
0.343702
0.344167
0.344858
0.34575
0.346807
0.348035
0.349394
0.350887
0.352454
0.354106
0.355896
0.357836
0.359934
0.362204
0.364662
0.367324
0.370213
0.373347
6.96069
7.63403
8.28558
8.90966
9.47378
9.91397
10.1451
10.0932
9.73063
9.08404
8.21743
7.20878
6.13528
5.07639
4.12689
3.34243
2.71726
2.22144
1.82962
1.52053
1.26781
1.07369
0.930066
0.81643
0.721885
0.641091
0.571466
0.511885
0.462394
0.424427
0.405358
0.444999
0.767173
2.05178
0.52194
0.616139
0.824598
1.22667
1.81616
2.54902
3.38656
4.29569
5.25117
6.24238
7.07218
0.463824
0.423979
0.396823
0.378263
0.365592
0.357005
0.351283
0.34759
0.345342
0.344216
0.343778
0.343735
0.344211
0.344843
0.345751
0.346807
0.348034
0.349396
0.350836
0.352357
0.354013
0.355809
0.357756
0.359861
0.36214
0.364609
0.367283
0.370187
0.373337
7.77318
8.44172
9.10081
9.73778
10.3062
10.7223
10.888
10.7362
10.2595
9.50427
8.54448
7.45945
6.32435
5.19812
4.20805
3.41226
2.77749
2.2734
1.8742
1.55826
1.29873
1.09872
0.950684
0.833734
0.73663
0.653723
0.582216
0.520769
0.469196
0.428922
0.408149
0.448535
0.786185
2.08611
0.505737
0.590907
0.773621
1.14259
1.70819
2.42506
3.25124
4.14949
5.09068
6.05646
7.04905
7.86385
0.452624
0.416548
0.391975
0.375116
0.363571
0.355731
0.350505
0.347137
0.345103
0.344124
0.343784
0.343741
0.344202
0.34484
0.345751
0.346808
0.348036
0.349344
0.350733
0.352257
0.353918
0.355719
0.357673
0.359786
0.362075
0.364555
0.367241
0.37016
0.373328
8.55076
9.22365
9.89822
10.5559
11.1309
11.5116
11.5972
11.3346
10.7425
9.8849
8.84053
7.68717
6.47424
5.29931
4.29516
3.48731
2.8423
2.32941
1.9224
1.59922
1.33251
1.12621
0.973409
0.852844
0.752935
0.667707
0.59414
0.530669
0.476879
0.435052
0.412025
0.452882
0.806645
2.11987
0.490404
0.567496
0.726416
1.05961
1.59817
2.2975
3.11251
4.00162
4.93088
5.87739
6.83263
7.81291
8.60839
0.442346
0.409863
0.387606
0.372278
0.361749
0.354584
0.349804
0.34673
0.344905
0.344084
0.343776
0.343713
0.344204
0.34484
0.34575
0.346814
0.347982
0.349238
0.350629
0.352155
0.353821
0.355627
0.357588
0.35971
0.362008
0.364499
0.367198
0.370133
0.373318
9.28586
9.96783
10.6669
11.3543
11.9408
12.2746
12.2619
11.8811
11.1772
10.226
9.10675
7.86609
6.59823
5.40751
4.3885
3.56785
2.91194
2.38971
1.97443
1.64363
1.36935
1.15636
0.998447
0.873953
0.770977
0.683205
0.607393
0.541733
0.487162
0.44314
0.416805
0.457675
0.829185
2.15287
0.47632
0.545889
0.68342
0.978736
1.48646
2.16611
2.96954
3.8511
4.77156
5.70251
6.63001
7.5575
8.51326
9.30046
0.433123
0.403851
0.38367
0.369721
0.360107
0.353549
0.349171
0.34638
0.344786
0.344049
0.343743
0.343711
0.344205
0.344844
0.345755
0.346764
0.347873
0.34913
0.350522
0.352051
0.353721
0.355533
0.3575
0.359631
0.361938
0.364442
0.367155
0.370107
0.373309
9.97615
10.6837
11.4223
12.1391
12.7287
12.9977
12.8714
12.3702
11.5624
10.529
9.31349
8.01311
6.73004
5.52289
4.48829
3.6541
2.98663
2.45449
2.03048
1.69167
1.40945
1.1894
1.026
0.897264
0.790945
0.700408
0.622143
0.556408
0.500378
0.452349
0.422096
0.463718
0.853988
2.18474
0.463659
0.526393
0.644764
0.901236
1.37368
2.03083
2.82164
3.69676
4.61158
5.53169
6.43702
7.32478
8.21072
9.13096
9.92456
0.42486
0.398446
0.380128
0.367417
0.358624
0.352612
0.348621
0.346136
0.344706
0.344003
0.343743
0.343711
0.344203
0.34486
0.345702
0.346658
0.347763
0.349019
0.350413
0.351944
0.353619
0.355436
0.357411
0.359551
0.361868
0.364385
0.367111
0.370081
0.3733
10.6158
11.371
12.1703
12.9137
13.4883
13.6677
13.4162
12.7988
11.8992
10.7607
9.48184
8.16814
6.86964
5.64556
4.59469
3.74625
3.06656
2.52393
2.09072
1.74351
1.45299
1.2255
1.05629
0.922984
0.813053
0.7195
0.641635
0.57503
0.5149
0.462524
0.428755
0.470454
0.880905
2.21553
0.452305
0.508987
0.611512
0.829313
1.26076
1.89176
2.66818
3.53743
4.4495
5.36366
6.25341
7.10931
7.94057
8.77393
9.66027
10.4718
0.417463
0.39359
0.376941
0.365336
0.357279
0.351792
0.348219
0.345984
0.344642
0.344004
0.343743
0.343715
0.344215
0.344824
0.345594
0.346552
0.347652
0.348906
0.350301
0.351834
0.353514
0.355338
0.357319
0.359468
0.361795
0.364327
0.367069
0.370056
0.373291
11.2048
12.0353
12.914
13.6809
14.2102
14.2699
13.8891
13.1667
12.1517
10.9471
9.65747
8.33078
7.01685
5.77551
4.70778
3.84444
3.15187
2.59818
2.1553
1.79929
1.50012
1.26485
1.08949
0.951327
0.837488
0.744653
0.66619
0.595157
0.530734
0.47418
0.436018
0.478796
0.911021
2.24468
0.44215
0.49335
0.583467
0.765698
1.14993
1.74925
2.50864
3.37185
4.28368
5.19669
6.07759
6.91046
7.69742
8.45904
9.23381
10.0923
10.9411
0.410842
0.389226
0.374066
0.363452
0.356099
0.351176
0.347979
0.345892
0.344644
0.344004
0.343745
0.343747
0.344172
0.344737
0.345491
0.346445
0.347539
0.348791
0.350188
0.351722
0.353406
0.355236
0.357225
0.359384
0.361724
0.364272
0.367028
0.370031
0.373282
11.7485
12.6884
13.6574
14.4276
14.8769
14.7909
14.2865
13.4354
12.3517
11.1387
9.8393
8.50031
7.17126
5.91255
4.82754
3.94871
3.24265
2.67734
2.22429
1.85912
1.55096
1.3076
1.12579
0.98246
0.869518
0.776091
0.692454
0.616841
0.548145
0.486999
0.445083
0.488384
0.943136
2.27231
0.43309
0.479273
0.559529
0.711731
1.04573
1.60497
2.34267
3.19878
4.11226
5.02873
5.90751
6.72602
7.48007
8.18287
8.86524
9.57936
10.4133
11.3301
0.404916
0.385299
0.371467
0.361794
0.355194
0.350816
0.347856
0.345894
0.344645
0.344006
0.343783
0.343744
0.344083
0.344657
0.345389
0.346335
0.347425
0.348672
0.350071
0.351608
0.353296
0.355133
0.357128
0.359301
0.361654
0.364218
0.366988
0.370008
0.373274
12.2574
13.3457
14.4012
15.1377
15.4599
15.2201
14.5667
13.6433
12.553
11.3335
10.0258
8.6757
7.33221
6.05633
4.95381
4.05901
3.33891
2.76142
2.29776
1.92304
1.60559
1.35384
1.16531
1.02296
0.909123
0.809343
0.720418
0.640182
0.567074
0.501649
0.455073
0.499839
0.980333
2.29791
0.425018
0.46661
0.538819
0.666592
0.951449
1.46395
2.17139
3.01697
3.93323
4.85743
5.74076
6.55346
7.28534
7.94358
8.55082
9.14708
9.79878
10.6081
11.6365
0.3996
0.381756
0.369178
0.360503
0.354672
0.350654
0.34786
0.345895
0.344646
0.344058
0.343795
0.343712
0.344006
0.344579
0.345288
0.346223
0.34731
0.348551
0.349952
0.351491
0.353183
0.355028
0.357033
0.359221
0.361586
0.364165
0.366949
0.369985