/*--------------------------------*- C++ -*----------------------------------*\
  =========                 |
  \\      /  F ield         | OpenFOAM: The Open Source CFD Toolbox
   \\    /   O peration     | Website:  https://openfoam.org
    \\  /    A nd           | Version:  8
     \\/     M anipulation  |
\*---------------------------------------------------------------------------*/
FoamFile
{
    version     2.0;
    format      ascii;
    class       volScalarField;
    location    "0.3";
    object      k;
}
// * * * * * * * * * * * * * * * * * * * * * * * * * * * * * * * * * * * * * //

dimensions      [0 2 -2 0 0 0 0];

internalField   nonuniform List<scalar> 
15677
(
75.6214
68.9128
94.1559
113.742
130.106
145.094
160.28
176.998
196.052
217.202
238.041
253.927
262.398
262.83
256.995
246.442
230.96
213.996
196.511
178.531
159.922
141.582
124.813
110.044
97.3728
86.5869
77.4113
69.5841
62.875
57.0642
51.963
47.5118
43.6484
40.3118
37.4477
248.905
409.401
498.278
553.728
591.51
618.828
640.555
660.996
683.26
698.467
649.516
540.839
433.925
374.262
348.83
338.154
326.55
309.152
288.536
267.247
245.985
226.258
208.522
193.619
180.884
169.84
160.182
151.713
144.309
137.893
132.406
127.8
124.028
121.046
118.81
186.706
359.663
467.256
558.265
651.858
750.908
842.292
916.778
952.132
913.866
782.778
597.053
411.114
263.315
197.358
177.281
170.748
169.463
172.841
179.865
186.53
190.059
190.639
189.485
188.907
189.809
192.502
196.828
202.497
209.203
216.564
224.293
232.176
240.128
248.015
107.878
201.399
279.106
340.453
390.576
431.623
461.194
474.472
467.181
436.235
381.533
321.969
263.434
209.991
165.722
137.004
124.612
119.116
119.96
125.235
138.545
156.616
173.497
188.19
197.309
197.71
197.091
198.77
203.536
211.293
221.096
232.223
243.906
255.493
266.564
22.7045
52.8225
75.2417
92.5585
106.319
116.579
122.424
122.134
114.823
96.5865
78.6025
65.5693
58.1646
57.723
60.5435
68.1072
80.3619
100.776
124.669
142.611
157.907
177.711
201.483
226.754
250.158
268.322
278.521
281.429
279.106
275.916
273.639
272.68
272.796
273.694
275.113
5.54237
8.79321
12.7952
15.7892
17.969
19.3518
20.9537
22.782
24.843
27.1205
29.7685
33.2261
38.6311
48.3628
61.9072
74.1406
74.6822
78.5183
88.6804
102.424
116.457
130.45
144.423
158.345
171.33
183.016
193.304
201.752
208.59
214.152
218.732
222.55
225.757
228.456
230.721
11.9421
15.9709
19.9561
22.9978
25.6237
28.0678
30.4669
32.9212
35.5215
38.3685
41.5959
45.3851
49.9492
55.4672
61.3769
66.9628
72.2645
77.8594
83.9483
91.8096
102.145
114.795
127.853
140.063
150.734
159.407
166.264
171.499
175.291
177.991
180.058
181.757
183.226
184.532
185.705
7.13377
15.1462
19.7235
23.1065
25.9868
28.6193
31.1415
33.6546
36.2576
39.068
42.2392
45.9783
50.522
55.9916
61.6108
66.6838
70.9837
75.081
80.0198
86.1781
93.213
100.522
107.511
113.966
119.786
124.925
129.394
133.25
136.565
139.421
141.898
144.063
145.971
147.665
149.18
12.2724
19.0915
23.8821
27.3275
30.1691
32.7064
35.0997
37.4577
39.8756
42.4558
45.3142
48.5812
52.4002
56.8764
61.5581
66.1332
70.832
75.8224
81.2345
86.9084
92.3195
97.4189
102.009
106.008
109.441
112.348
114.818
116.943
118.8
120.444
121.914
123.236
124.432
125.515
126.497
7.83963
16.9375
21.7061
25.2053
28.1837
30.9122
33.5295
36.1289
38.7936
41.6156
44.7036
48.1812
52.1883
56.8184
61.6052
66.2052
70.6006
74.6195
78.1899
81.4992
84.8265
88.1833
91.3444
94.2323
96.8309
99.1501
101.212
103.045
104.674
106.126
107.423
108.585
109.628
110.569
111.42
10.4519
18.1963
23.0179
26.5324
29.4775
32.1383
34.6614
37.1439
39.6653
42.3031
45.1443
48.2762
51.7837
55.7549
59.8551
63.8188
67.7449
71.5761
75.2047
78.6304
81.8404
84.7563
87.3146
89.5594
91.5232
93.2249
94.6814
95.9135
96.9875
97.9475
98.8177
99.6118
100.338
101.003
101.611
7.92619
17.0988
21.7723
25.1621
28.0346
30.6631
33.1847
35.6899
38.2557
40.9632
43.8866
47.1025
50.6903
54.6922
58.6803
62.3454
65.7502
68.9265
71.8604
74.5375
77.0828
79.4756
81.6006
83.4762
85.1248
86.5673
87.8351
88.9515
89.9382
90.8132
91.5914
92.2853
92.9054
93.4612
93.9608
9.10275
17.1443
21.6992
25.0019
27.7814
30.3114
32.7313
35.1307
37.5792
40.1387
42.8672
45.8191
49.0434
52.5741
56.0668
59.3065
62.392
65.3296
68.1278
70.7867
73.2672
75.5128
77.4619
79.1554
80.6165
81.8869
82.9915
83.9501
84.78
85.4964
86.1137
86.6604
87.1557
87.6086
88.0239
7.51653
16.1176
20.4811
23.6409
26.3212
28.7805
31.1481
33.5071
35.9245
38.4631
41.1767
44.1186
47.3342
50.8283
54.1995
57.2442
60.0902
62.7531
65.2185
67.5139
69.696
71.6997
73.4451
74.9481
76.2418
77.3629
78.337
79.1848
79.9251
80.5742
81.1459
81.652
82.101
82.5002
82.8554
7.83693
15.5642
19.7662
22.8229
25.4127
27.787
30.0723
32.3487
34.676
37.1052
39.681
42.4424
45.4205
48.6294
51.7455
54.5922
57.2678
59.7931
62.1843
64.4333
66.5365
68.4245
70.0436
71.4303
72.6237
73.6559
74.548
75.3225
75.9974
76.5873
77.1035
77.5559
77.9524
78.3
78.6047
6.92422
14.8589
18.859
21.745
24.1921
26.442
28.6163
30.7926
33.0323
35.3838
37.8914
40.5941
43.5194
46.6534
49.6517
52.3764
54.927
57.3062
59.5308
61.6223
63.5893
65.3575
66.8702
68.1597
69.2632
70.2108
71.0277
71.7343
72.3471
72.8799
73.3444
73.7505
74.1062
74.4183
74.6927
6.82476
14.0758
17.898
20.6741
23.0345
25.2091
27.3135
29.4206
31.5845
33.8505
36.2571
38.8339
41.589
44.5314
47.3748
49.9696
52.4136
54.7158
56.876
58.8983
60.7904
62.4823
63.9225
65.1448
66.1872
67.0797
67.8474
68.5109
69.086
69.5858
70.0209
70.4
70.7307
71.0194
71.2712
6.23034
13.4651
17.1088
19.7423
21.9816
24.0478
26.0525
28.0678
30.144
32.3193
34.6245
37.0854
39.7239
42.5434
45.2636
47.7434
50.0726
52.2652
54.3287
56.2664
58.0827
59.7076
61.0897
62.2607
63.2569
64.1077
64.8369
65.4643
66.0057
66.4742
66.8807
67.2341
67.5418
67.8102
68.0444
6.00414
12.7397
16.223
18.7584
20.9208
22.9184
24.8554
26.7978
28.7961
30.8865
33.0908
35.4245
37.9136
40.5771
43.1612
45.5261
47.7542
49.8542
51.8325
53.6928
55.438
57.0002
58.3294
59.4557
60.4139
61.2322
61.9336
62.5369
63.0573
63.5075
63.8979
64.2371
64.5322
64.7893
65.0133
5.62382
12.261
15.6039
18.0272
20.0948
22.0082
23.8649
25.7232
27.6226
29.5934
31.6659
33.8662
36.2165
38.7335
41.179
43.4212
45.5375
47.5363
49.4229
51.2008
52.8724
54.3718
55.6496
56.7335
57.6562
58.4446
59.1203
59.7014
60.2027
60.6362
61.0121
61.3387
61.6231
61.8711
62.0877
5.40088
11.6954
14.9015
17.2333
19.2241
21.0659
22.8497
24.6264
26.4367
28.3135
30.2847
32.3735
34.6012
36.985
39.3001
41.4231
43.4286
45.325
47.1176
48.81
50.4044
51.8377
53.062
54.1027
54.9905
55.7504
56.4028
56.9648
57.4503
57.8708
58.2359
58.5535
58.8305
59.0723
59.2838
5.21068
11.2957
14.3789
16.616
18.5216
20.2776
21.9719
23.6594
25.3786
27.1599
29.0289
31.0079
33.1163
35.3703
37.5577
39.563
41.4574
43.2498
44.946
46.5499
48.0641
49.4289
50.5977
51.5938
52.4456
53.1764
53.8053
54.3481
54.8178
55.2254
55.5799
55.889
56.159
56.3954
56.6027
4.95757
10.8045
13.7769
15.9405
17.7833
19.4793
21.114
22.7388
24.3897
26.0952
27.8792
29.7623
31.7627
33.8959
35.9617
37.853
39.6385
41.3277
42.9272
44.4414
45.8737
47.1677
48.279
49.229
50.0438
50.745
51.35
51.8737
52.3281
52.7234
53.0681
53.3694
53.6332
53.8649
54.0685
4.86663
10.4691
13.3337
15.4137
17.183
18.8103
20.378
21.935
23.5156
25.1461
26.8488
28.6423
30.5427
32.5637
34.5156
36.2989
37.9801
39.5694
41.0741
42.4997
43.8501
45.0731
46.1263
47.0294
47.8066
48.4774
49.0582
49.5624
50.0013
50.3842
50.719
51.0125
51.2703
51.4972
51.6973
4.7012
10.1085
12.8826
14.8994
16.6148
18.1912
19.7075
21.2107
22.7331
24.2998
25.9311
27.6444
29.454
31.3721
33.2184
34.9008
36.4837
37.978
39.3918
40.7316
42.0021
43.1549
44.1505
45.0069
45.7464
46.387
46.9435
47.4283
47.8517
48.2223
48.5475
48.8333
49.0852
49.3075
49.5042
4.61085
9.83215
12.522
14.4768
16.1382
17.6636
19.1293
20.5806
22.0482
23.5556
25.1217
26.762
28.4893
30.3139
32.0637
33.6533
35.145
36.5506
37.8789
39.1372
40.3312
41.4165
42.3561
43.1668
43.8693
44.48
45.0126
45.4783
45.8865
46.2449
46.5605
46.8388
47.0848
47.3027
47.496
4.50278
9.57062
12.1901
14.0945
15.7121
17.1958
18.6195
20.0268
21.4471
22.9026
24.4109
25.9862
27.6396
29.3798
31.0424
32.5476
33.9559
35.2798
36.5289
37.7112
38.8333
39.8545
40.7406
41.5074
42.1741
42.7558
43.265
43.7121
44.1054
44.452
44.7582
45.0292
45.2694
45.4828
45.6727
4.42862
9.357
11.9132
13.7712
15.3483
16.7935
18.1787
19.546
20.9237
22.3326
23.7892
25.3064
26.8939
28.5587
30.143
31.5723
32.9054
34.1552
35.3318
36.4441
37.4995
38.4608
39.2966
40.0218
40.6543
41.2082
41.6949
42.1237
42.5023
42.8372
43.1341
43.3976
43.632
43.8409
44.0272
4.35648
9.1661
11.6683
13.487
15.0298
16.4422
17.7942
19.1268
20.4672
21.8351
23.2461
24.7119
26.2409
27.8388
29.3534
30.7151
31.9809
33.164
34.2753
35.3239
36.3181
37.224
38.0127
38.6986
39.2986
39.8258
40.2906
40.7015
41.0656
41.3888
41.6762
41.9322
42.1606
42.3646
42.5471
4.30136
9.00514
11.4594
13.2429
14.755
16.1379
17.4604
18.7621
20.0694
21.401
22.7716
24.1919
25.6692
27.2081
28.6612
29.963
31.1691
32.2929
33.3456
34.3369
35.2754
36.1303
36.8752
37.5241
38.0931
38.5944
39.0377
39.4309
39.7804
40.0916
40.3691
40.617
40.8387
41.0372
41.2154
34.0078
30.0261
26.2849
22.9118
20.1604
17.993
16.3325
15.0168
13.9181
12.9439
12.0348
11.1473
10.2297
9.22879
8.14903
7.15164
6.5764
6.75108
7.51799
7.97296
7.79389
7.34424
116.267
113.766
111.94
110.789
110.122
109.731
109.391
108.715
107.712
106.221
104.023
100.859
96.4688
91.3348
86.2285
81.9037
77.9254
74.7493
73.0054
73.0672
74.8108
80.3336
257.997
271.162
286.384
304.685
326.987
354.19
387.406
426.702
463.208
490.819
504.641
502.676
485.345
455.924
418.727
377.7
335.946
295.762
260.319
233.927
220.844
219.787
280.539
298.378
316.877
335.179
352.322
367.548
380.27
389.539
393.659
393.28
389.242
382.789
374.797
365.618
355.424
343.888
331.22
319.061
308.128
299.991
295.125
293.46
277.724
282.418
287.902
293.686
299.261
303.94
307.057
308.411
308.883
308.595
307.555
305.967
304.166
302.456
300.868
299.191
297.316
294.68
291.434
288.3
285.862
284.425
233.821
237.482
240.762
243.818
246.592
248.986
250.867
252.288
253.262
253.807
253.972
253.864
253.621
253.369
253.127
252.931
252.791
252.702
252.681
252.574
252.348
252.044
187.815
190.937
193.955
196.814
199.488
201.949
204.171
206.136
207.838
209.275
210.452
211.394
212.123
212.676
213.097
213.424
213.683
213.893
214.044
214.13
214.149
214.107
151.584
154.908
158.165
161.324
164.356
167.233
169.928
172.417
174.682
176.713
178.505
180.049
181.327
182.36
183.197
183.874
184.417
184.848
185.185
185.445
185.644
185.791
128.142
130.581
133.078
135.609
138.152
140.68
143.168
145.582
147.896
150.092
152.157
154.067
155.77
157.256
158.553
159.682
160.665
161.516
162.252
162.885
163.427
163.894
112.782
114.754
116.791
118.881
121.013
123.171
125.338
127.497
129.63
131.718
133.741
135.667
137.432
139.011
140.417
141.672
142.797
143.81
144.724
145.55
146.296
146.97
102.627
104.154
105.743
107.387
109.083
110.822
112.598
114.399
116.216
118.036
119.847
121.623
123.307
124.867
126.312
127.649
128.885
130.027
131.08
132.051
132.946
133.772
94.7989
96.0487
97.3552
98.716
100.13
101.593
103.104
104.656
106.244
107.858
109.482
111.096
112.647
114.103
115.464
116.741
117.943
119.075
120.141
121.143
122.084
122.966
88.7491
89.8522
90.9895
92.1631
93.3766
94.6318
95.9286
97.2656
98.6393
100.038
101.454
102.873
104.255
105.575
106.841
108.055
109.222
110.341
111.408
112.423
113.385
114.294
83.4801
84.4281
85.4152
86.4407
87.5055
88.6099
89.7535
90.936
92.1566
93.4128
94.7007
96.0063
97.2899
98.5238
99.7092
100.852
101.955
103.015
104.034
105.01
105.944
106.835
79.1587
80.006
80.8819
81.7894
82.73
83.7053
84.7166
85.7645
86.8497
87.9721
89.1312
90.3171
91.495
92.6385
93.7461
94.8179
95.8548
96.8571
97.8249
98.7584
99.658
100.522
75.2056
75.9947
76.8061
77.6413
78.5026
79.3919
80.3111
81.262
82.2459
83.2642
84.3177
85.3989
86.4775
87.5299
88.5552
89.5526
90.5219
91.4628
92.3755
93.26
94.1163
94.9431
71.7531
72.4995
73.2631
74.0456
74.8488
75.6743
76.5242
77.4002
78.3042
79.238
80.2033
81.1945
82.1847
83.1533
84.0998
85.0239
85.9252
86.8035
87.6585
88.4902
89.2987
90.0826
68.5117
69.241
69.9836
70.741
71.5152
72.3063
73.1158
73.9455
74.7973
75.6731
76.5751
77.4984
78.4189
79.3185
80.1974
81.0562
81.8949
82.7135
83.5122
84.291
85.0498
85.7879
65.4748
66.2011
66.9381
67.6863
68.4466
69.2199
70.0071
70.8098
71.6296
72.4681
73.3273
74.2028
75.0722
75.9191
76.7446
77.5499
78.3355
79.1022
79.8503
80.5801
81.292
81.9856
62.5502
63.284
64.0269
64.779
65.5406
66.3122
67.0945
67.8882
68.6947
69.515
70.3509
71.1979
72.0345
72.8455
73.6328
74.398
75.1425
75.8673
76.5733
77.2612
77.9318
78.5851
59.7487
60.4917
61.2439
62.0047
62.7741
63.552
64.3387
65.1343
65.9394
66.7549
67.5817
68.4151
69.2339
70.0235
70.7862
71.5243
72.2394
72.933
73.6067
74.2613
74.898
75.5174
57.07
57.8218
58.5835
59.3543
60.1338
60.9215
61.7171
62.5204
63.3315
64.1505
64.9779
65.8084
66.6205
67.3999
68.1492
68.8709
69.567
70.2394
70.8899
71.5198
72.1305
72.7232
54.536
55.2924
56.0603
56.8385
57.6264
58.4232
59.2281
60.0406
60.8602
61.6865
62.5195
63.3532
64.1656
64.9424
65.6863
66.3997
67.085
67.7444
68.3796
68.9924
69.5842
70.157
52.1626
52.9187
53.6881
54.4696
55.2623
56.0651
56.8771
57.6973
58.5249
59.3591
60.1991
61.0387
61.855
62.6336
63.3769
64.0874
64.7676
65.4197
66.0456
66.6473
67.2263
67.7849
49.9646
50.715
51.4806
52.2604
53.0531
53.8577
54.673
55.4977
56.3307
57.1708
58.017
58.8623
59.6834
60.4652
61.2102
61.9208
62.5993
63.2479
63.8686
64.4634
65.0341
65.5828
47.9491
48.689
49.4461
50.2193
51.0074
51.8093
52.6235
53.4487
54.2835
55.1264
55.9761
56.8252
57.6499
58.4348
59.1818
59.8934
60.5716
61.2187
61.8365
62.4271
62.9923
63.5343
46.1166
46.8424
47.587
48.3496
49.129
49.9239
50.733
51.5547
52.3874
53.2296
54.0796
54.9297
55.7558
56.5419
57.29
58.0021
58.6801
59.3261
59.942
60.5297
61.091
61.6281
44.4607
45.1698
45.8993
46.6485
47.4161
48.2009
49.0015
49.8163
50.6436
51.4817
52.3287
53.1767
54.0014
54.7866
55.534
56.2452
56.9221
57.5666
58.1804
58.7654
59.3233
59.8563
42.9693
43.6604
44.3734
45.1075
45.8615
46.6343
47.4243
48.2299
49.0493
49.8806
50.7219
51.5651
52.3858
53.1677
53.9121
54.6207
55.2951
55.937
56.5481
57.13
57.6844
58.2133
41.6259
42.2989
42.9949
43.7135
44.4535
45.2135
45.992
46.7873
47.5975
48.4206
49.2544
50.0909
50.9056
51.6821
52.4217
53.1258
53.796
54.4339
55.0412
55.6194
56.1699
56.6948
8.11828
10.7963
15.4541
20.4768
23.3245
24.0409
98.1698
124.516
139.192
142.653
140.457
137.189
230.204
253.782
285.002
320.031
352.43
379.475
295.099
300.535
308.17
317.363
327.183
334.342
283.701
283.888
284.657
285.278
285.185
284.835
250.917
248.953
246.903
244.789
242.564
240.224
213.269
211.658
209.996
208.284
206.551
204.816
185.261
184.084
182.871
181.637
180.395
179.16
163.761
163.082
162.369
161.638
160.897
160.157
147.137
146.845
146.522
146.182
145.83
145.469
134.154
134.127
134.072
133.995
133.897
133.783
123.465
123.6
123.709
123.792
123.853
123.894
114.859
115.085
115.283
115.452
115.595
115.712
107.414
107.675
107.913
108.126
108.313
108.474
101.097
101.367
101.616
101.84
102.041
102.215
95.4935
95.7511
95.9911
96.2109
96.4105
96.5864
90.603
90.8396
91.0597
91.2612
91.4437
91.6037
86.2713
86.4783
86.6699
86.8441
87.0008
87.1362
82.431
82.6052
82.764
82.9059
83.0304
83.1345
78.9934
79.1339
79.2586
79.3666
79.4572
79.5282
75.8926
76.0013
76.0937
76.169
76.2268
76.2656
73.0702
73.1506
73.2139
73.2599
73.2878
73.2976
70.4812
70.5377
70.5764
70.5971
70.5998
70.5844
68.0914
68.1286
68.1471
68.1477
68.1298
68.0936
65.8762
65.8983
65.9015
65.8863
65.8522
65.7998
63.818
63.8293
63.8211
63.7942
63.748
63.6834
61.9048
61.9087
61.8926
61.8574
61.8028
61.7297
60.128
60.1273
60.1062
60.0658
60.0056
59.9269
58.4811
58.4781
58.4544
58.4111
58.3479
58.2659
56.9591
56.9553
56.9307
56.8864
56.8221
56.739
22.5058
20.8412
19.0995
17.9648
17.7173
18.4171
19.875
21.7977
23.9148
25.9981
27.8527
29.2954
30.1806
30.584
30.6561
30.498
30.2311
29.9636
29.7742
29.719
29.8002
30.0429
135.728
136.205
137.528
140.083
143.825
148.408
153.428
158.193
162.093
164.26
164.676
163.227
160.517
157.371
153.985
150.125
145.354
139.85
133.855
127.649
121.566
115.937
400.629
417.415
430.192
437.795
439.184
433.373
419.817
398.922
372.456
343.601
315.947
292.029
272.855
257.87
245.484
235.171
226.835
220.23
214.99
210.851
207.615
205.138
338.526
340.38
340.49
339.366
336.873
333.329
329.295
325.525
322.516
319.882
316.95
313.604
309.373
303.611
296.056
286.582
277.386
269.907
264.279
260.449
258.359
257.709
283.415
281.021
278.081
274.709
271.159
267.735
264.689
262.18
260.296
259.084
258.335
257.259
255.879
254.108
251.982
249.818
247.927
246.521
245.71
245.594
246.167
247.417
237.493
234.41
231.346
228.346
225.456
222.725
220.193
217.885
215.811
213.959
212.285
210.748
209.347
208.085
206.958
205.98
205.16
204.503
203.995
203.53
203.014
202.362
202.693
200.246
197.847
195.512
193.261
191.112
189.08
187.176
185.404
183.763
182.247
180.856
179.611
178.51
177.528
176.641
175.829
175.072
174.35
173.645
172.941
172.228
177.574
175.687
173.841
172.045
170.309
168.638
167.039
165.515
164.065
162.688
161.376
160.127
158.96
157.875
156.852
155.873
154.922
153.982
153.039
152.08
151.094
150.07
159.067
157.669
156.295
154.948
153.631
152.349
151.104
149.897
148.725
147.587
146.474
145.388
144.346
143.358
142.412
141.497
140.604
139.727
138.86
137.999
137.141
136.289
144.754
143.721
142.694
141.675
140.666
139.667
138.677
137.691
136.702
135.705
134.696
133.674
132.662
131.674
130.702
129.74
128.782
127.821
126.856
125.882
124.899
123.908
133.31
132.51
131.707
130.898
130.083
129.261
128.43
127.587
126.729
125.849
124.942
124.007
123.061
122.121
121.183
120.244
119.302
118.357
117.409
116.457
115.502
114.544
123.583
122.942
122.289
121.624
120.946
120.253
119.542
118.808
118.039
117.228
116.372
115.47
114.541
113.601
112.651
111.7
110.747
109.79
108.832
107.872
106.912
105.958
115.477
114.908
114.319
113.705
113.066
112.4
111.706
110.984
110.234
109.451
108.632
107.776
106.9
106.018
105.126
104.222
103.305
102.376
101.435
100.483
99.5178
98.5437
108.288
107.764
107.213
106.634
106.024
105.383
104.712
104.01
103.282
102.526
101.737
100.91
100.057
99.1815
98.2808
97.3555
96.4077
95.4415
94.4612
93.4708
92.4744
91.4781
102.051
101.552
101.028
100.478
99.8991
99.2906
98.651
97.9781
97.2682
96.5151
95.7099
94.8481
93.9437
93.0106
92.0466
91.0513
90.0357
89.0149
87.9909
86.9632
85.9318
84.9003
96.4338
95.9475
95.436
94.8957
94.3246
93.7199
93.0782
92.3949
91.6643
90.8793
90.032
89.1204
88.1645
87.1845
86.1839
85.1677
84.1418
83.1105
82.0767
81.0433
80.0137
78.9921
91.4452
90.9567
90.4409
89.8936
89.3117
88.6918
88.0298
87.3206
86.559
85.739
84.8546
83.9069
82.9197
81.916
80.8999
79.8759
78.8478
77.8192
76.7935
75.7735
74.7625
73.7629
86.9624
86.4623
85.932
85.3672
84.7646
84.1207
83.4315
82.6924
81.8991
81.0467
80.1309
79.1545
78.1434
77.1215
76.0929
75.0612
74.0298
73.0018
71.9801
70.967
69.9648
68.9754
82.9377
82.42
81.8696
81.2827
80.6561
79.9865
79.2703
78.5039
77.6834
76.8053
75.8662
74.8702
73.8444
72.8132
71.7803
70.749
69.7226
68.704
67.6958
66.7005
65.7204
64.7571
79.3057
78.7681
78.1962
77.5866
76.9364
76.2427
75.5026
74.7128
73.8704
72.9727
72.0168
71.0079
69.9739
68.9393
67.9077
66.8824
65.8663
64.8621
63.8723
62.899
61.9441
61.009
76.0171
75.4596
74.8668
74.236
73.5647
72.8503
72.0903
71.2821
70.4235
69.5122
68.5462
67.5313
66.4961
65.4651
64.4417
63.4289
62.4296
61.4462
60.481
59.5357
58.612
57.7109
73.025
72.449
71.8376
71.1884
70.4994
69.7684
68.9933
68.172
67.3028
66.3839
65.4141
64.3996
63.3695
62.3481
61.3385
60.3436
59.3658
58.4073
57.4699
56.5551
55.6642
54.7977
70.2905
69.6988
69.0717
68.4078
67.7052
66.9621
66.1768
65.3477
64.4735
63.553
62.5853
61.5773
60.558
59.5515
58.5605
57.5876
56.6348
55.704
54.7967
53.914
53.0569
52.2256
67.7819
67.1775
66.5385
65.8639
65.1521
64.4017
63.6112
62.7795
61.9056
60.9889
60.0287
59.0324
58.0288
57.0412
56.0723
55.1241
54.1985
53.2969
52.4204
51.5699
50.746
49.9487
65.474
64.8605
64.2136
63.5325
62.816
62.0628
61.2719
60.4425
59.5739
58.6657
57.7178
56.7373
55.753
54.7875
53.8429
52.9211
52.0236
51.1514
50.3055
49.4865
48.6947
47.9299
63.3475
62.7287
62.0777
61.3943
60.6773
59.9258
59.139
58.3162
57.4571
56.5615
55.6293
54.668
53.7055
52.7639
51.8449
50.9501
50.0805
49.2373
48.4209
47.6318
46.8703
46.1359
61.3872
60.7667
60.1156
59.4338
58.7203
57.9744
57.1955
56.3831
55.5369
54.6569
53.7432
52.8032
51.864
50.9471
50.0538
49.1854
48.343
47.5272
46.7385
45.9773
45.2438
44.5373
59.5813
58.9627
58.3149
57.6382
56.9317
56.1947
55.4269
54.6277
53.797
52.9349
52.0413
51.1236
50.2081
49.3155
48.4471
47.6038
46.7867
45.9962
45.233
44.4971
43.789
43.1078
57.9201
57.3065
56.6652
55.9965
55.2998
54.5744
53.8199
53.0361
52.2226
51.3795
50.5067
49.6112
48.7187
47.8492
47.0037
46.1834
45.389
44.6212
43.8805
43.1672
42.4815
41.8228
56.3957
55.7894
55.1568
54.4984
53.8135
53.1016
52.3623
51.595
50.7995
49.9756
49.1231
48.2486
47.3773
46.5285
45.7033
44.9029
44.1281
43.3797
42.6584
41.9646
41.2984
40.6595
30.3371
30.5407
30.7923
31.0663
31.3194
31.5087
31.6165
31.6712
31.7432
31.9507
32.4557
33.738
36.3797
41.0942
48.7387
59.8207
74.5219
93.1108
115.202
139.232
163.295
180.876
187.333
183.654
173.693
159.161
142.117
125.193
110.394
97.4989
85.4188
72.7991
57.9688
40.7259
68.1258
111.754
108.616
105.736
103.216
101.154
99.657
98.8716
98.7696
99.5388
101.339
104.373
108.964
115.629
125.245
139.249
159.27
186.806
225.047
276.568
332.764
377.47
402.995
435.46
503.076
601.35
672.742
679.144
650.277
615.374
582.057
547.389
506.962
454.028
372.951
227.848
203.446
202.023
200.856
200.085
199.839
200.28
201.603
203.99
207.589
212.497
218.7
225.73
233.075
240.876
248.872
256.475
263.198
267.333
272.675
286.465
316.051
353.195
431.61
566.694
745.995
904.365
988.544
989.252
930.726
841.946
739.345
628.212
516.539
389.267
194.467
258.039
258.609
259.749
261.577
264.198
267.661
271.816
275.225
274.796
268.855
258.801
246.804
235.375
225.44
220.017
221.734
241.083
274.175
299.689
303.104
298.264
310.181
342.425
380.882
420.348
456.22
481.794
490.322
481.263
455.038
415.863
366.065
305.273
225.33
118.575
249.218
251.319
254.079
257.484
261.239
264.459
265.324
262.897
257.039
248.654
238.931
229.384
221.561
215.284
206.04
190.944
174.351
169.45
182.856
196.477
197.252
185.936
175.173
165.506
159.934
158.584
160.917
161.931
157.663
148.182
134.411
117.079
96.0868
69.1337
30.4852
201.958
201.858
201.511
200.894
199.991
198.687
196.837
194.281
190.771
186
179.724
171.825
162.393
151.866
140.704
126.324
105.497
83.5365
72.2065
67.198
63.6271
56.4967
49.9422
46.1057
42.425
38.5312
34.9568
31.5974
28.3461
25.6064
22.9373
19.8306
15.8774
10.904
6.63455
171.91
171.971
172.023
172.051
172.019
171.787
171.029
169.541
167.026
163.163
157.651
150.324
141.323
131.048
120.063
109.534
99.8432
90.0581
81.3882
74.1146
67.5392
61.3058
55.689
51.014
47.0069
43.4628
40.264
37.3357
34.6137
31.9545
29.271
26.3896
23.0627
18.612
13.8685
149.404
149.094
148.697
148.188
147.531
146.675
145.546
144.049
142.07
139.48
136.148
131.96
126.832
120.681
113.475
105.702
97.975
90.075
82.3331
75.1812
68.5466
62.0397
55.99
50.9606
46.7336
43.0762
39.8033
36.769
33.8584
30.9721
28.0045
24.8073
21.1038
16.1825
8.38721
135.795
135.62
135.417
135.183
134.907
134.565
134.107
133.427
132.328
130.694
128.39
125.291
121.302
116.392
110.684
104.371
97.8005
91.0339
84.11
77.5475
71.3432
65.2356
59.6388
55.0351
51.2201
47.9856
45.1509
42.5239
39.9359
37.2673
34.3907
31.127
27.1334
21.5682
13.8969
123.258
122.933
122.552
122.104
121.573
120.934
120.153
119.182
117.955
116.396
114.419
111.944
108.885
105.157
100.745
95.8909
90.9038
85.8722
80.7015
75.2956
69.7133
63.9377
58.4241
53.7227
49.7149
46.237
43.1012
40.1581
37.2951
34.4126
31.4023
28.1092
24.2354
18.9715
9.42603
113.945
113.664
113.35
112.997
112.596
112.127
111.548
110.784
109.789
108.508
106.871
104.801
102.211
99.0139
95.157
90.8279
86.2502
81.4774
76.5221
71.4678
66.4329
61.354
56.6036
52.5645
49.0887
46.0276
43.242
40.6075
38.015
35.3607
32.525
29.337
25.4751
20.1134
11.4707
105.341
105.038
104.686
104.275
103.792
103.219
102.531
101.697
100.676
99.4199
97.8718
95.9655
93.6298
90.7962
87.4298
83.7017
79.8272
75.7859
71.6415
67.3518
62.8167
58.0131
53.3269
49.237
45.6621
42.4868
39.5948
36.881
34.2559
31.6301
28.9031
25.9289
22.4248
17.6126
8.49572
97.9272
97.6385
97.3143
96.9467
96.5214
96.0126
95.3745
94.5804
93.5982
92.3895
90.9087
89.0964
86.9074
84.2941
81.192
77.7261
74.0708
70.2552
66.3014
62.2857
58.2188
54.0193
49.9486
46.3665
43.1902
40.331
37.7026
35.223
32.8117
30.3838
27.8373
25.0243
21.6662
17.0362
8.97151
90.8379
90.5302
90.1768
89.7677
89.2898
88.7262
88.0551
87.2506
86.2814
85.1108
83.6967
81.9918
79.9382
77.5045
74.6495
71.5115
68.2638
64.9367
61.5357
58.0661
54.4724
50.6066
46.7128
43.2466
40.1642
37.3861
34.8361
32.4351
30.1115
27.7943
25.3986
22.7969
19.7375
15.5215
7.32834
84.2446
83.9374
83.594
83.2068
82.7636
82.2434
81.6145
80.8556
79.9417
78.8433
77.5254
75.9477
74.0629
71.8151
69.1898
66.3223
63.3424
60.2669
57.0967
53.8367
50.4973
47.0072
43.586
40.5162
37.7402
35.2006
32.8396
30.5997
28.4225
26.2433
23.9803
21.5094
18.5916
14.5886
7.27474
78.3339
78.014
77.6592
77.2594
76.7967
76.2575
75.6251
74.8796
73.9974
72.9509
71.7084
70.234
68.4876
66.4258
64.0178
61.3959
58.6983
55.9299
53.0902
50.1893
47.2271
44.1002
40.9603
38.0684
35.4386
33.0319
30.7958
28.6795
26.6269
24.5791
22.4631
20.1662
17.4646
13.7351
6.40031
73.1229
72.8119
72.456
72.0472
71.576
71.0343
70.4057
69.674
68.8198
67.8206
66.6498
65.2774
63.6693
61.7881
59.6076
57.2344
54.7865
52.2634
49.675
47.0229
44.3013
41.4162
38.5321
35.9102
33.5112
31.2893
29.2019
27.2064
25.2575
23.3041
21.2785
19.0741
16.4806
12.9231
6.19888
68.3416
68.0339
67.6839
67.2844
66.8269
66.3012
65.6951
64.9944
64.1824
63.2394
62.1428
60.8669
59.3827
57.6579
55.6736
53.518
51.2919
49.0048
46.6588
44.254
41.7827
39.1591
36.5224
34.0934
31.8371
29.7358
27.7574
25.865
24.0192
22.1722
20.2606
18.1838
15.7407
12.3696
5.7342
64.142
63.8423
63.5018
63.114
62.6711
62.1642
61.5826
60.9141
60.1441
59.2561
58.2307
57.0458
55.6765
54.0948
52.283
50.3256
48.3052
46.2272
44.092
41.8961
39.6295
37.2104
34.764
32.5037
30.4006
28.4285
26.559
24.7601
22.9953
21.2209
19.3784
17.3728
15.0132
11.77
5.49547
60.4129
60.1222
59.7933
59.4202
58.9959
58.5122
57.9597
57.3273
56.6023
55.7702
54.8141
53.7149
52.4508
50.9973
49.3401
47.5513
45.7087
43.813
41.8621
39.8497
37.7645
35.5286
33.2547
31.1403
29.1545
27.2834
25.5059
23.7935
22.1133
20.4248
18.6719
16.763
14.5134
11.4063
5.29983
57.138
56.8582
56.5423
56.1848
55.7794
55.3187
54.7945
54.1968
53.5147
52.7352
51.8437
50.8234
49.6552
48.3172
46.7967
45.1586
43.4723
41.736
39.9451
38.0915
36.1622
34.0824
31.9537
29.9635
28.0887
26.3079
24.6036
22.9521
21.3237
19.681
17.9708
16.1061
13.9118
10.8945
4.9751
54.2479
53.9794
53.6771
53.3358
52.9498
52.5126
52.0166
51.4531
50.8121
50.0824
49.2509
48.3029
47.2212
45.9861
44.586
43.0796
41.5289
39.9301
38.2767
36.5591
34.7633
32.8181
30.8169
28.9383
27.1633
25.4732
23.8482
22.2646
20.6978
19.1156
17.4695
15.677
13.5662
10.6556
4.95869
51.6992
51.4423
51.1535
50.8282
50.4611
50.0463
49.577
49.0455
48.4429
47.7591
46.9826
46.1001
45.0963
43.9532
42.6597
41.2692
39.8371
38.3578
36.8234
35.2232
33.5425
31.7127
29.8196
28.0336
26.3384
24.7174
23.1524
21.6221
20.1016
18.5595
16.9524
15.2004
13.138
10.2996
4.74958
49.4449
49.1991
48.9234
48.6134
48.2643
47.8708
47.4267
46.9251
46.3581
45.7166
44.9902
44.1671
43.2334
42.1723
40.9733
39.6847
38.3561
36.9808
35.5496
34.0508
32.4692
30.7389
28.9394
27.2345
25.6107
24.0538
22.5478
21.0734
19.6076
18.1199
16.5648
14.8646
12.8583
10.0941
4.72101
47.4474
47.2123
46.9488
46.6531
46.3209
45.9471
45.5264
45.0524
44.5179
43.9149
43.2342
42.4647
41.594
40.6062
39.4912
38.2927
37.0552
35.7708
34.4295
33.019
31.5235
29.8793
28.1605
26.5247
24.9608
23.4564
21.9969
20.5646
19.1377
17.6868
16.168
14.5059
12.5444
9.84323
4.60216
45.6732
45.4478
45.1957
44.9133
44.5965
44.2411
43.8418
43.3931
42.8885
42.3207
41.6813
40.9605
40.1465
39.2245
38.1844
37.0658
35.9086
34.704
33.4414
32.1077
30.6871
29.1177
27.4691
25.8937
24.3825
22.9251
21.5083
20.1158
18.7268
17.3131
15.8321
14.2102
12.2946
9.65499
4.55182
44.0928
43.8764
43.6348
43.3646
43.0622
42.7236
42.3441
41.9186
41.4414
40.9059
40.3043
39.6277
38.8649
38.0021
37.0291
35.9815
34.8954
33.7611
32.5675
31.301
29.9458
28.4417
26.8541
25.3312
23.8659
22.449
21.0685
19.7094
18.3517
16.9682
15.5173
13.9275
12.0492
9.4619
4.4739
42.6799
42.4718
42.24
41.9812
41.6922
41.3692
41.0082
40.6043
40.1525
39.6467
39.0798
38.4436
37.7276
36.9183
36.0055
35.0213
33.9982
32.926
31.7929
30.5853
29.2872
27.8401
26.306
24.8292
23.4042
22.0233
20.6756
19.3469
18.0182
16.6632
15.2413
13.6825
11.84
9.30165
4.42425
41.41
41.2101
40.9876
40.7398
40.4636
40.1555
39.812
39.4286
39.0006
38.5226
37.9881
37.3892
36.716
35.9554
35.0969
34.1694
33.2023
32.1848
31.105
29.949
28.7008
27.3035
25.8162
24.3799
22.9904
21.6413
20.3224
19.0204
17.7171
16.3869
14.9901
13.458
11.6465
9.15135
4.37059
40.2608
40.0689
39.8559
39.619
39.3555
39.0622
38.7358
38.3723
37.9673
37.5158
37.0118
36.4478
35.8142
35.0983
34.289
33.4123
32.495
31.5258
30.4926
29.3818
28.1773
26.8236
25.3774
23.9767
22.6188
21.2979
20.0049
18.727
17.4468
16.1393
14.7658
13.2585
11.4759
9.02048
4.32933
4.24673
8.84735
11.2557
13.0057
14.4882
15.8428
17.1366
18.4082
19.6831
20.9793
22.3103
23.686
25.1127
26.5937
27.9868
29.2301
30.3777
31.4433
32.4381
33.3723
34.2549
35.0579
35.7576
36.3677
36.9035
37.3768
37.7963
38.1695
38.502
38.799
39.0646
39.3023
39.5155
39.7068
39.8788
4.19848
8.70045
11.0651
12.7831
14.2373
15.5648
16.8311
18.074
19.3179
20.5801
21.8732
23.2065
24.5852
26.0116
27.3479
28.5361
29.6286
30.639
31.5787
32.4579
33.2858
34.0371
34.6907
35.2602
35.7606
36.2028
36.5953
36.9449
37.257
37.5361
37.7861
38.0103
38.2116
38.3925
38.5553
4.15925
8.57582
10.9028
12.5932
14.0232
15.3274
16.57
17.788
19.0052
20.2382
21.499
22.7959
24.1337
25.5137
26.8022
27.9439
28.99
29.9539
30.8468
31.6787
32.4588
33.1639
33.775
34.3061
34.7717
35.1825
35.5467
35.8708
36.16
36.4184
36.6498
36.8572
37.0434
37.2107
37.3613
4.12739
8.46884
10.7631
12.4296
13.8384
15.1222
16.3441
17.5405
18.7345