/*--------------------------------*- C++ -*----------------------------------*\
  =========                 |
  \\      /  F ield         | OpenFOAM: The Open Source CFD Toolbox
   \\    /   O peration     | Website:  https://openfoam.org
    \\  /    A nd           | Version:  8
     \\/     M anipulation  |
\*---------------------------------------------------------------------------*/
FoamFile
{
    version     2.0;
    format      ascii;
    class       volScalarField;
    location    "0.3";
    object      p;
}
// * * * * * * * * * * * * * * * * * * * * * * * * * * * * * * * * * * * * * //

dimensions      [1 -1 -2 0 0 0 0];

internalField   nonuniform List<scalar> 
15677
(
113588
113589
113590
113591
113591
113591
113589
113585
113579
113566
113538
113493
113417
113315
113220
113141
113083
113042
113008
112984
112969
112965
112966
112966
112966
112963
112959
112954
112948
112942
112936
112930
112925
112920
112917
92356.4
92306.4
92226.4
92135.8
92053.1
91985.4
91936.6
91906.3
91895.4
91932.7
92042.7
92224.4
92461
92652.1
92722.7
92709.7
92634.9
92536.4
92439.6
92353.5
92278.5
92218
92177.2
92137.6
92098.3
92061.7
92028.1
91998
91971.2
91946.9
91924.5
91903.6
91884
91865.1
91845.3
106395
106396
106392
106375
106339
106279
106187
106070
105949
105865
105829
105848
105945
106071
106145
106196
106298
106453
106641
106848
107049
107226
107354
107448
107513
107556
107592
107625
107659
107690
107717
107737
107753
107768
107784
97530.5
97540.4
97552
97561
97565
97563.7
97554.6
97534.2
97502.9
97466.4
97443.9
97435.4
97417.3
97398
97381.9
97350.4
97301.6
97229.5
97122.5
96977.5
96799.5
96605.9
96425.9
96275.6
96165.3
96096.3
96062.1
96032.9
96006
95983.2
95965.6
95953.2
95945.5
95940.5
95938.5
103900
103904
103910
103916
103921
103925
103928
103930
103931
103925
103920
103915
103911
103910
103912
103917
103918
103911
103892
103876
103879
103909
103960
104022
104092
104161
104226
104296
104364
104430
104493
104551
104604
104650
104693
99527.9
99527.5
99523.9
99517.5
99506.8
99493
99475.6
99453.8
99427.3
99395.6
99359.5
99319.3
99273.6
99220.4
99167
99132.3
99120.4
99130
99126.3
99114.2
99101.1
99093.7
99087.5
99077.9
99068.6
99063
99057.4
99054.6
99052
99049.3
99047.2
99045.7
99044.5
99042.5
99042.2
102659
102658
102658
102657
102658
102659
102661
102663
102666
102670
102675
102680
102688
102699
102719
102744
102789
102819
102839
102849
102858
102868
102877
102881
102886
102891
102894
102896
102898
102898
102899
102899
102900
102900
102898
100327
100327
100327
100326
100325
100324
100322
100319
100315
100309
100300
100289
100273
100254
100232
100212
100196
100185
100177
100174
100181
100189
100197
100209
100220
100229
100237
100243
100249
100254
100259
100264
100269
100273
100278
101983
101982
101981
101981
101980
101980
101981
101981
101982
101983
101985
101988
101994
102003
102017
102031
102047
102066
102086
102100
102103
102099
102095
102091
102086
102083
102079
102077
102075
102072
102070
102068
102066
102064
102062
100885
100885
100884
100883
100882
100881
100880
100880
100879
100878
100876
100872
100867
100861
100853
100845
100837
100831
100824
100825
100832
100842
100849
100855
100860
100865
100869
100872
100875
100878
100881
100884
100887
100889
100892
101656
101656
101656
101655
101655
101654
101653
101652
101650
101649
101647
101646
101645
101646
101650
101656
101662
101669
101679
101683
101678
101676
101673
101671
101670
101670
101670
101669
101669
101668
101668
101667
101666
101666
101664
101172
101171
101170
101169
101168
101167
101166
101166
101166
101166
101165
101164
101163
101161
101159
101156
101154
101151
101146
101147
101155
101160
101163
101166
101168
101170
101171
101173
101174
101175
101176
101178
101179
101180
101182
101512
101511
101511
101510
101510
101509
101507
101506
101504
101501
101499
101496
101494
101492
101492
101492
101494
101496
101501
101498
101495
101492
101491
101491
101491
101491
101492
101493
101493
101494
101494
101493
101493
101492
101492
101307
101307
101306
101305
101304
101303
101302
101302
101302
101301
101301
101301
101300
101300
101299
101299
101298
101297
101295
101299
101302
101304
101305
101306
101307
101308
101308
101308
101309
101309
101309
101310
101310
101311
101312
101453
101452
101452
101451
101451
101449
101448
101446
101444
101442
101440
101437
101435
101432
101431
101430
101430
101431
101429
101427
101426
101425
101425
101425
101425
101426
101426
101427
101428
101428
101429
101429
101429
101430
101429
101369
101369
101368
101367
101367
101366
101365
101365
101364
101363
101363
101362
101362
101362
101362
101362
101361
101361
101363
101364
101365
101366
101367
101367
101367
101368
101368
101368
101368
101368
101368
101368
101369
101369
101369
101431
101430
101430
101429
101429
101428
101427
101425
101424
101422
101420
101418
101416
101414
101412
101412
101411
101409
101408
101407
101407
101407
101407
101407
101407
101408
101408
101409
101409
101410
101410
101410
101411
101411
101411
101397
101397
101396
101396
101395
101395
101394
101393
101392
101392
101391
101391
101390
101390
101390
101390
101390
101391
101391
101392
101392
101392
101393
101393
101393
101393
101393
101393
101393
101394
101394
101394
101394
101394
101395
101424
101424
101423
101423
101422
101421
101421
101420
101418
101417
101415
101413
101412
101410
101409
101408
101407
101406
101406
101406
101405
101405
101406
101406
101406
101406
101407
101407
101408
101408
101408
101408
101409
101409
101409
101411
101410
101410
101409
101409
101408
101407
101406
101406
101405
101405
101404
101404
101404
101403
101403
101403
101403
101404
101404
101404
101404
101404
101404
101404
101405
101405
101405
101405
101405
101405
101406
101406
101406
101407
101423
101423
101422
101422
101421
101421
101420
101419
101418
101417
101415
101414
101413
101412
101411
101410
101409
101409
101409
101409
101408
101409
101409
101409
101409
101409
101410
101410
101410
101411
101411
101411
101411
101411
101412
101417
101417
101417
101416
101415
101415
101414
101414
101413
101412
101412
101411
101411
101410
101410
101410
101410
101410
101410
101410
101410
101410
101410
101410
101410
101410
101411
101411
101411
101411
101411
101412
101412
101412
101413
101423
101423
101423
101422
101422
101421
101420
101419
101419
101418
101417
101416
101415
101414
101413
101412
101412
101412
101412
101412
101412
101412
101412
101412
101412
101413
101413
101413
101413
101414
101414
101414
101414
101414
101415
101421
101421
101420
101420
101419
101419
101418
101418
101417
101416
101416
101415
101415
101414
101414
101413
101413
101413
101413
101413
101413
101413
101413
101413
101414
101414
101414
101414
101415
101415
101415
101415
101415
101416
101416
101424
101423
101423
101423
101422
101422
101421
101420
101419
101419
101418
101417
101416
101415
101415
101414
101414
101414
101414
101414
101414
101414
101414
101414
101415
101415
101415
101416
101416
101416
101416
101416
101417
101417
101417
101423
101423
101422
101422
101421
101421
101420
101420
101419
101418
101418
101417
101416
101416
101415
101415
101415
101415
101415
101415
101415
101415
101415
101415
101416
101416
101416
101416
101417
101417
101417
101417
101418
101418
101418
101424
101424
101423
101423
101422
101422
101421
101421
101420
101419
101419
101418
101417
101416
101416
101416
101415
101415
101415
101415
101415
101415
101416
101416
101416
101417
101417
101417
101417
101418
101418
101418
101418
101419
101419
101424
101423
101423
101423
101422
101422
101421
101421
101420
101419
101419
101418
101417
101417
101416
101416
101416
101416
101415
101415
101416
101416
101416
101416
101417
101417
101417
101418
101418
101418
101419
101419
101419
101419
101419
101424
101424
101423
101423
101423
101422
101421
101421
101420
101420
101419
101418
101418
101417
101416
101416
101416
101416
101416
101416
101416
101416
101416
101417
101417
101417
101418
101418
101418
101419
101419
101419
101420
101420
101420
101424
101423
101423
101423
101422
101422
101421
101421
101420
101419
101419
101418
101418
101417
101416
101416
101416
101416
101416
101416
101416
101416
101417
101417
101417
101418
101418
101418
101419
101419
101419
101420
101420
101420
101420
112925
112960
113003
113044
113087
113133
113180
113230
113282
113338
113396
113457
113520
113582
113644
113705
113765
113826
113883
113945
113993
114063
91826.1
91774.6
91706
91630
91544.8
91449.9
91348.7
91247
91147.8
91055.9
90971.7
90896
90835.2
90795.1
90775.2
90771.3
90775
90782.1
90791.7
90800
90804.5
90803
107792
107805
107819
107831
107845
107863
107887
107911
107940
107978
108027
108094
108183
108284
108394
108510
108629
108747
108857
108948
109020
109067
95957.7
95967.3
95975
95987
96003.1
96022.2
96035.9
96048
96057.3
96069.3
96092.8
96125.6
96158.8
96188.5
96224.5
96271.7
96320.6
96363.6
96398.3
96426.8
96451.1
96475.4
104735
104768
104797
104820
104835
104838
104826
104799
104759
104711
104656
104601
104553
104509
104467
104424
104383
104344
104309
104280
104254
104229
99059.2
99084.1
99107.5
99131
99154.9
99178.7
99203
99228.5
99254.1
99278.6
99301.7
99324
99346.9
99370.7
99392.6
99412.8
99432.6
99451.3
99468.3
99483.2
99496.2
99509.9
102879
102860
102841
102821
102800
102777
102753
102730
102705
102682
102656
102632
102610
102591
102573
102556
102542
102529
102517
102505
102494
102482
100298
100322
100345
100368
100392
100416
100441
100465
100489
100512
100534
100556
100574
100591
100605
100619
100631
100642
100652
100661
100670
100679
102046
102030
102015
101999
101982
101965
101949
101931
101914
101897
101880
101865
101851
101838
101827
101817
101808
101799
101791
101784
101777
101769
100906
100921
100935
100950
100965
100980
100996
101011
101026
101040
101055
101068
101080
101090
101099
101107
101114
101120
101126
101131
101137
101143
101656
101647
101637
101628
101618
101608
101598
101589
101579
101570
101562
101554
101546
101540
101534
101529
101524
101520
101516
101512
101508
101505
101191
101199
101206
101214
101222
101230
101238
101246
101253
101261
101268
101275
101281
101286
101290
101294
101297
101300
101303
101305
101308
101311
101489
101484
101479
101474
101470
101465
101460
101456
101452
101447
101443
101440
101436
101433
101431
101428
101427
101426
101425
101423
101422
101422
101317
101321
101324
101328
101332
101335
101339
101343
101346
101349
101353
101355
101358
101360
101362
101364
101366
101368
101369
101370
101372
101373
101427
101425
101422
101420
101418
101416
101414
101412
101410
101409
101407
101406
101405
101405
101404
101404
101403
101403
101403
101402
101402
101402
101371
101373
101374
101376
101377
101379
101380
101382
101383
101384
101385
101386
101387
101388
101389
101389
101390
101391
101391
101392
101392
101394
101410
101409
101408
101407
101406
101405
101404
101403
101402
101402
101401
101401
101401
101401
101401
101401
101400
101400
101401
101401
101401
101401
101395
101396
101396
101397
101397
101398
101398
101398
101399
101399
101399
101399
101400
101400
101400
101400
101400
101401
101401
101401
101401
101402
101408
101408
101407
101407
101407
101406
101406
101406
101405
101405
101405
101405
101405
101405
101404
101404
101404
101404
101405
101405
101405
101405
101406
101407
101407
101407
101407
101407
101407
101407
101407
101407
101407
101407
101407
101407
101407
101407
101407
101407
101407
101407
101407
101407
101411
101411
101411
101411
101410
101410
101410
101410
101410
101410
101409
101409
101409
101409
101409
101409
101409
101409
101409
101409
101409
101409
101412
101412
101412
101412
101412
101412
101412
101412
101412
101412
101412
101411
101411
101411
101411
101411
101411
101411
101411
101411
101411
101411
101414
101414
101414
101414
101414
101414
101414
101414
101414
101414
101413
101413
101413
101413
101413
101413
101413
101413
101413
101413
101412
101412
101415
101416
101416
101416
101416
101416
101415
101415
101415
101415
101415
101415
101415
101415
101415
101415
101414
101414
101414
101414
101414
101414
101417
101417
101417
101417
101417
101417
101417
101417
101417
101417
101417
101417
101416
101416
101416
101416
101416
101416
101416
101416
101415
101415
101418
101418
101418
101418
101418
101418
101418
101418
101418
101418
101418
101418
101418
101418
101418
101417
101417
101417
101417
101417
101417
101416
101419
101419
101419
101419
101419
101419
101419
101419
101419
101419
101419
101419
101419
101419
101419
101419
101418
101418
101418
101418
101418
101417
101420
101420
101420
101420
101420
101420
101420
101420
101420
101420
101420
101420
101420
101420
101420
101420
101420
101419
101419
101419
101419
101418
101420
101420
101420
101421
101421
101421
101421
101421
101421
101421
101421
101421
101421
101421
101421
101421
101421
101420
101420
101420
101420
101419
101421
101421
101421
101421
101421
101422
101422
101422
101422
101422
101422
101422
101422
101422
101422
101422
101422
101421
101421
101421
101421
101420
114090
114076
114082
114080
114074
114080
90798.9
90780.7
90742.3
90696
90649.3
90614.3
109099
109124
109112
109067
108995
108902
96483.3
96449.2
96403.2
96351.7
96291.3
96221.8
104221
104238
104261
104290
104322
104356
99515.6
99502.6
99485.3
99464.5
99443.4
99424.7
102479
102487
102496
102506
102517
102528
100682
100678
100672
100667
100661
100656
101766
101770
101773
101777
101780
101783
101144
101143
101142
101142
101141
101141
101502
101504
101505
101505
101506
101507
101311
101312
101312
101312
101312
101314
101420
101422
101423
101423
101423
101424
101372
101374
101374
101375
101375
101377
101401
101402
101403
101404
101404
101405
101392
101394
101394
101395
101396
101397
101400
101402
101402
101403
101403
101404
101401
101402
101403
101403
101404
101405
101405
101405
101406
101406
101407
101408
101407
101407
101408
101408
101409
101409
101409
101409
101410
101410
101411
101411
101411
101411
101412
101412
101412
101412
101413
101413
101413
101413
101414
101414
101415
101414
101415
101415
101415
101415
101416
101416
101416
101416
101416
101416
101417
101417
101417
101417
101417
101417
101419
101418
101418
101418
101418
101418
101420
101419
101419
101419
101419
101419
101421
101420
101420
101420
101420
101420
101421
101421
101421
101421
101421
101420
114051
113974
113920
113854
113792
113727
113662
113595
113528
113460
113391
113323
113258
113197
113138
113084
113032
112984
112937
112893
112850
112812
90601.9
90612
90635.7
90668.6
90712.2
90768.4
90835.1
90910.6
90996.1
91090.2
91190.7
91289.3
91379.4
91463.6
91541
91608.5
91667.2
91718.9
91764.7
91805.1
91839.6
91860.2
108835
108754
108667
108586
108511
108444
108388
108343
108303
108268
108240
108218
108202
108190
108179
108173
108167
108157
108143
108129
108116
108111
96142.9
96074.8
96026.3
95989
95957.5
95927.6
95896.8
95866.8
95847.7
95836.1
95829.9
95825.8
95817.8
95818.7
95812.3
95819.1
95831.9
95841.4
95849.8
95861.2
95877.3
95890.4
104401
104455
104503
104549
104596
104643
104691
104739
104787
104833
104875
104910
104936
104950
104956
104954
104946
104932
104911
104885
104857
104829
99397.1
99365.2
99336.9
99309.6
99282.5
99255.5
99228.7
99202.3
99176.4
99150.7
99124.8
99097.8
99070.1
99044.2
99020
98997.1
98975.9
98957.6
98942.5
98929.8
98917.9
98901.8
102547
102574
102599
102624
102649
102675
102701
102728
102755
102783
102811
102839
102869
102898
102925
102952
102977
103001
103023
103043
103062
103081
100644
100627
100610
100594
100577
100559
100541
100521
100501
100480
100457
100433
100407
100382
100356
100332
100307
100284
100261
100239
100219
100196
101790
101804
101816
101828
101841
101854
101868
101883
101898
101915
101932
101951
101970
101990
102009
102029
102048
102066
102084
102102
102118
102135
101136
101128
101120
101112
101104
101095
101086
101076
101066
101055
101043
101029
101014
100999
100984
100969
100954
100939
100924
100910
100896
100882
101509
101516
101521
101527
101533
101540
101547
101554
101562
101571
101580
101590
101601
101611
101622
101633
101644
101655
101666
101677
101687
101697
101312
101311
101309
101307
101305
101302
101300
101297
101293
101289
101284
101279
101272
101265
101257
101249
101242
101234
101227
101219
101211
101202
101424
101427
101430
101432
101434
101436
101438
101441
101445
101449
101453
101458
101463
101468
101473
101478
101484
101489
101495
101501
101506
101510
101375
101376
101376
101375
101375
101374
101373
101372
101371
101370
101369
101368
101366
101364
101361
101358
101355
101352
101348
101345
101342
101337
101404
101406
101408
101409
101410
101412
101413
101414
101416
101417
101419
101421
101423
101425
101427
101429
101431
101434
101436
101439
101441
101443
101396
101397
101398
101398
101399
101399
101400
101400
101400
101400
101400
101400
101400
101399
101398
101397
101396
101395
101394
101393
101391
101389
101404
101405
101406
101407
101408
101408
101409
101410
101411
101411
101412
101413
101414
101415
101416
101417
101418
101419
101420
101421
101422
101423
101404
101405
101406
101407
101407
101408
101408
101409
101409
101410
101410
101410
101410
101410
101410
101410
101410
101410
101409
101409
101408
101408
101407
101408
101409
101410
101410
101411
101411
101412
101412
101413
101413
101414
101414
101414
101415
101415
101415
101416
101416
101416
101417
101417
101409
101410
101411
101411
101412
101412
101413
101413
101413
101414
101414
101414
101414
101415
101415
101415
101415
101415
101415
101414
101414
101414
101411
101412
101412
101413
101413
101414
101414
101414
101415
101415
101415
101416
101416
101416
101416
101416
101416
101417
101417
101417
101417
101417
101413
101413
101414
101414
101415
101415
101415
101416
101416
101416
101416
101417
101417
101417
101417
101417
101417
101417
101417
101417
101417
101417
101414
101415
101415
101415
101416
101416
101417
101417
101417
101417
101417
101418
101418
101418
101418
101418
101418
101418
101418
101418
101418
101418
101416
101416
101416
101417
101417
101417
101418
101418
101418
101418
101418
101419
101419
101419
101419
101419
101419
101419
101419
101419
101419
101419
101417
101417
101417
101418
101418
101418
101419
101419
101419
101419
101419
101419
101420
101420
101420
101420
101420
101420
101420
101419
101419
101420
101418
101418
101418
101419
101419
101419
101420
101420
101420
101420
101420
101420
101420
101420
101420
101420
101420
101420
101420
101420
101420
101420
101419
101419
101419
101420
101420
101420
101420
101421
101421
101421
101421
101421
101421
101421
101421
101421
101421
101421
101421
101421
101421
101421
101420
101420
101420
101421
101421
101421
101421
101421
101421
101422
101422
101422
101422
101422
101422
101422
101421
101421
101421
101421
101421
101421
101421
101421
101421
101421
101422
101422
101422
101422
101422
101422
101422
101422
101422
101422
101422
101422
101422
101422
101422
101422
101421
101422
101422
101422
101422
101422
101422
101423
101423
101423
101423
101423
101423
101423
101423
101423
101423
101423
101423
101422
101422
101422
101422
101422
112801
112800
112802
112804
112807
112810
112813
112816
112820
112825
112831
112836
112841
112846
112851
112859
112867
112874
112889
112912
112945
112995
113071
113146
113206
113250
113279
113292
113297
113299
113301
113301
113299
113301
113296
91863.3
91869.3
91874
91878.3
91882.9
91887.7
91892.5
91897.4
91903.5
91910.9
91920.5
91933.7
91952.2
91978.6
92014
92052.3
92088
92119
92182.2
92282.7
92408.6
92515.4
92487.3
92348.5
92183.6
92052.3
91984.6
91975.2
91999
92038.4
92096.5
92172.5
92259.2
92337
92384.5
108115
108107
108101
108094
108087
108077
108065
108046
108020
107987
107942
107881
107795
107675
107515
107316
107084
106853
106657
106514
106454
106488
106517
106483
106462
106492
106543
106630
106728
106813
106873
106906
106919
106921
106919
95878.3
95891.3
95907.8
95925.3
95946.4
95971.1
95998.2
96036.3
96100.9
96188.9
96299.1
96428.6
96571.9
96718.9
96853.8
96955.8
97016.9
97026.8
96992.8
96968.4
97008.4
97037.2
97039.8
97035
97034.7
97040.3
97069.9
97097.3
97117
97128.5
97131.2
97127.8
97119.5
97107.7
97096.6
104792
104756
104720
104681
104641
104600
104559
104518
104473
104423
104371
104317
104266
104223
104196
104186
104175
104131
104099
104129
104146
104166
104175
104179
104178
104181
104185
104184
104182
104178
104174
104169
104163
104157
104152
98889.4
98892.5
98902
98911.6
98919.3
98925.8
98935.5
98946.3
98958
98973.2
98988.8
99006.1
99024.9
99038.6
99044.6
99046.6
99051.3
99051.1
99045.3
99032.4
99038.3
99053.5
99071
99089.6
99113
99138.1
99162.8
99184.3
99201.5
99215.8
99226.8
99235.1
99240
99242.7
99242.8
103098
103099
103099
103099
103100
103099
103094
103088
103080
103072
103067
103063
103061
103061
103067
103079
103082
103080
103065
103045
103014
102987
102958
102929
102906
102889
102877
102869
102864
102861
102859
102860
102862
102864
102866
100176
100172
100170
100166
100163
100160
100157
100153
100148
100142
100134
100125
100113
100102
100094
100084
100074
100070
100073
100081
100089
100101
100115
100127
100136
100144
100149
100152
100155
100157
100158
100159
100159
100159
100159
102152
102155
102157
102159
102162
102164
102167
102170
102172
102175
102180
102186
102195
102205
102215
102223
102229
102226
102215
102200
102188
102174
102163
102156
102150
102146
102143
102141
102139
102137
102137
102136
102136
102137
102138
100870
100868
100866
100864
100862
100860
100857
100855
100852
100849
100844
100838
100830
100820
100809
100796
100782
100774
100771
100773
100778
100782
100786
100789
100791
100792
100792
100793
100793
100794
100796
100797
100798
100799
100799
101709
101710
101711
101712
101713
101714
101714
101715
101715
101716
101718
101720
101724
101730
101738
101747
101755
101762
101766
101761
101755
101751
101749
101749
101749
101751
101752
101753
101754
101754
101755
101755
101755
101755
101756
101197
101195
101194
101193
101192
101191
101190
101190
101189
101187
101185
101182
101178
101172
101164
101155
101145
101136
101127
101124
101126
101126
101126
101127
101127
101126
101125
101125
101125
101126
101127
101128
101129
101130
101131
101516
101517
101517
101518
101519
101519
101519
101518
101518
101518
101518
101519
101520
101523
101527
101533
101539
101546
101551
101558
101556
101555
101557
101559
101561
101564
101566
101568
101569
101570
101571
101571
101571
101571
101571
101335
101334
101333
101333
101333
101332
101332
101332
101332
101332
101331
101330
101328
101325
101321
101316
101310
101304
101297
101290
101287
101287
101286
101286
101285
101285
101284
101284
101284
101284
101285
101286
101287
101287
101288
101446
101446
101446
101446
101447
101447
101447
101446
101446
101445
101445
101445
101445
101446
101447
101450
101453
101456
101460
101464
101469
101472
101473
101475
101478
101480
101482
101484
101485
101486
101487
101487
101487
101488
101488
101388
101387
101386
101386
101386
101386
101386
101386
101386
101386
101386
101386
101385
101384
101382
101380
101377
101374
101370
101367
101363
101360
101358
101358
101358
101358
101358
101357
101357
101358
101358
101359
101359
101360
101360
101424
101424
101424
101423
101423
101423
101423
101422
101422
101422
101421
101421
101421
101421
101421
101422
101423
101425
101427
101429
101432
101435
101439
101441
101443
101444
101446
101447
101448
101449
101450
101450
101451
101451
101451
101407
101407
101407
101407
101406
101406
101406
101406
101406
101406
101406
101406
101405
101405
101404
101403
101402
101401
101399
101398
101396
101394
101393
101391
101391
101391
101391
101391
101392
101392
101392
101392
101393
101393
101394
101418
101418
101417
101417
101417
101417
101417
101417
101416
101416
101416
101416
101415
101415
101415
101415
101416
101416
101417
101418
101420
101422
101424
101426
101428
101430
101431
101432
101433
101434
101435
101435
101435
101436
101436
101414
101414
101414
101414
101413
101413
101413
101413
101413
101413
101413
101413
101412
101412
101412
101411
101411
101411
101410
101410
101409
101408
101408
101407
101407
101407
101407
101407
101407
101408
101408
101408
101409
101409
101409
101417
101417
101417
101417
101417
101417
101416
101416
101416
101416
101416
101415
101415
101415
101415
101415
101415
101415
101416
101416
101417
101418
101419
101421
101422
101424
101425
101426
101427
101427
101428
101428
101429
101429
101429
101417
101417
101417
101417
101416
101416
101416
101416
101416
101416
101415
101415
101415
101415
101415
101415
101414
101414
101414
101414
101414
101414
101414
101415
101415
101415
101415
101415
101416
101416
101416
101417
101417
101417
101418
101418
101418
101418
101418
101418
101417
101417
101417
101417
101417
101416
101416
101416
101416
101416
101416
101416
101416
101416
101416
101417
101418
101418
101419
101420
101421
101422
101423
101424
101425
101425
101425
101426
101426
101426
101418
101418
101418
101418
101418
101418
101418
101417
101417
101417
101417
101417
101416
101416
101416
101416
101416
101416
101416
101416
101417
101417
101417
101418
101418
101418
101419
101419
101420
101420
101420
101421
101421
101421
101422
101419
101419
101419
101419
101419
101418
101418
101418
101418
101418
101417
101417
101417
101417
101417
101416
101416
101417
101417
101417
101417
101418
101418
101419
101420
101421
101421
101422
101423
101423
101424
101424
101425
101425
101425
101419
101420
101419
101419
101419
101419
101419
101418
101418
101418
101418
101417
101417
101417
101417
101417
101417
101417
101417
101417
101417
101418
101418
101419
101419
101420
101420
101421
101421
101422
101422
101423
101423
101423
101423
101420
101420
101420
101420
101420
101419
101419
101419
101419
101418
101418
101418
101417
101417
101417
101417
101417
101417
101417
101417
101418
101418
101419
101419
101420
101420
101421
101422
101422
101423
101423
101424
101424
101424
101425
101420
101420
101420
101420
101420
101420
101419
101419
101419
101418
101418
101418
101418
101417
101417
101417
101417
101417
101417
101417
101418
101418
101418
101419
101420
101420
101421
101421
101422
101422
101423
101423
101424
101424
101424
101420
101421
101421
101420
101420
101420
101420
101419
101419
101419
101418
101418
101418
101417
101417
101417
101417
101417
101417
101417
101417
101418
101418
101419
101420
101420
101421
101421
101422
101423
101423
101423
101424
101424
101424
101421
101421
101421
101421
101420
101420
101420
101419
101419
101419
101418
101418
101417
101417
101417
101417
101417
101417
101417
101417
101417
101418
101418
101419
101419
101420
101421
101421
101422
101422
101423
101423
101423
101424
101424
101424
101423
101423
101423
101422
101422
101421
101421
101420
101419
101419
101418
101417
101417
101416
101416
101416
101416
101416
101416
101416
101416
101417
101417
101417
101418
101418
101419
101419
101419
101420
101420
101420
101421
101420
101423
101423
101423
101423
101422
101422
101421
101420
101420
101419
101419
101418
101417
101417
101416
101416
101416
101416
101416
101416
101416
101416
101416
101417
101417
101418
101418
101419
101419
101420
101420
101420
101421
101421
101421
101423
101423
101423
101422
101422
101421
101421
101420
101420
101419
101418
101418
101417
101416
101416
101416
101415
101415
101415
101415
101416
101416
101416
101417
101417
101418
101418
101419
101419
101420
101420
101420
101421
101421
101421
101423
101423
101422
101422
101421
101421
101420
101420
101419
101419
101418
101417
101417
101416
101416
101415
101415
101415
101415
101415
101415
101415
101416
101416
101417
101417
101418
101418
101419
101419
101420
101420
101421
101421
101421
101422
101422
101422
101421
101421
101421
101420
101419
101419
101418
101418
101417
101416
101416
101415
101415
101415
101415
101414
101415
101415
101415
101415
101416
101416
101417
101417
101418
101419
101419
101420
101420
101421
101421
101421
101422
101422
101421
101421
101421
101420
101420
101419
101418
101418
101417
101416
101416
101415
101415
101414
101414
101414
101414
101414
101414
101414
101415
101415
101416
101416
101417
101418
101418
101419
101419
101420
101420
101421
101420
101421
101421
101421
101421
101420
101420
101419
101419
101418
101417
101417
101416
101415
101415
101414
101414
101414
101414
101413
101413
101414
101414
101414
101415
101415
101416
101416
101417
101418
101418
101419
101419
101420
101420
101420
101421
101421
101420
101420
101420
101419
101419
101418
101417
101417
101416
101416
101415
101414
101414
101414
101413
101413
101413
101413
101413
101413
101413
101414
101414
101415
101416
101416
101417
101417
101418
101419
101419
101420
101420
101421
101420
101420
101420
101419
101419
101418
101418
101417
101416
101416
101415
101415
101414
101413
101413
101413
101412
101412
101412
101412
101412
101413
101413
101413
101414
101415
101415
101416
101417
101417
101418
101419
101419
101419
101420
101420
101420
101419
101419
101418
101418
101417
101417
101416
101415
101415
101414
101413
101413
101413
101412
101412
101412
101412
101412
101412
101412
101412
101413
101413
101414
101414
101415
101416
101416
101417
101418
101419
101418
101420
101419
101419
101419
101418
101418
101417
101417
101416
101416
101415
101414
101414
101413
101412
101412
101412
101411
101411
101411
101411
101411
101411
101411
101412
101412
101412
101413
101414
101415
101415
101416
101417
101418
101417
101419
101419
101419
101418
101418
101417
101417
101416
101416
101415
101414
101414
101413
101413
101412
101412
101411
101411
101411
101410
101410
101410
101410
101410
101410
101411
101411
101412
101413
101413
101414
101415
101416
101417
101416
101419
101418
101418
101418
101417
101417
101416
101416
101415
101415
101414
101413
101413
101412
101412
101411
101411
101410
101410
101410
101409
101409
101409
101409
101409
101410
101410
101410
101411
101412
101413
101414
101415
101415
101415
101418
101418
101418
101417
101417
101417
101416
101415
101415
101414
101414
101413
101412
101412
101411
101411
101410
101410
101409
101409
101409
101408
101408
101408
101408
101408
101409
101409
101410
101410
101411
101412
101413
101414
101414
101418
101418
101417
101417
101417
101416
101416
101415
101415
101414
101413
101413
101412
101411
101411
101410
101410
101409
101409
101409
101408
101408
101407
101407
101407
101407
101407
101407
101408
101408
101409
101410
101411
101412
101412
101417
101417
101417
101417
101416
101416
101415
101415
101414
101414
101413
101412
101412
101411
101410
101410
101409
101409
101408
101408
101407
101407
101406