/*--------------------------------*- C++ -*----------------------------------*\
  =========                 |
  \\      /  F ield         | OpenFOAM: The Open Source CFD Toolbox
   \\    /   O peration     | Website:  https://openfoam.org
    \\  /    A nd           | Version:  8
     \\/     M anipulation  |
\*---------------------------------------------------------------------------*/
FoamFile
{
    version     2.0;
    format      ascii;
    class       surfaceScalarField;
    location    "0.3";
    object      phi;
}
// * * * * * * * * * * * * * * * * * * * * * * * * * * * * * * * * * * * * * //

dimensions      [1 0 -1 0 0 0 0];

internalField   nonuniform List<scalar> 
31053
(
-7.07436e-06
1.23459e-05
-1.17219e-05
1.14498e-05
-1.54501e-05
1.24577e-05
-1.86375e-05
1.39015e-05
-2.15872e-05
1.55604e-05
-2.41162e-05
1.70076e-05
-2.5336e-05
1.75852e-05
-2.32575e-05
1.62268e-05
-1.37588e-05
1.08298e-05
1.16492e-05
-2.88407e-06
6.35637e-05
-2.67943e-05
0.000151548
-5.97512e-05
0.000269894
-8.64514e-05
0.000405921
-9.96769e-05
0.000523779
-8.21486e-05
0.000617678
-5.76528e-05
0.00068436
-3.01061e-05
0.000725524
-4.4442e-06
0.000744658
1.76408e-05
0.000743942
3.74299e-05
0.000725891
5.46645e-05
0.000698607
6.11815e-05
0.000669682
5.99749e-05
0.000642472
5.56892e-05
0.000617983
5.06529e-05
0.000596483
4.55831e-05
0.000577931
4.07691e-05
0.000562163
3.63119e-05
0.000548963
3.22367e-05
0.000538109
2.85359e-05
0.000529349
2.52151e-05
0.000522461
2.22333e-05
0.000517282
1.95108e-05
0.00051372
1.69703e-05
1.49649e-05
0.000510912
-7.55288e-05
8.78533e-05
-0.000165754
0.000101648
-0.000265977
0.00011265
-0.000373957
0.000121846
-0.000487016
0.000128581
-0.000601325
0.000131273
-0.000710931
0.000127146
-0.000806995
0.000112241
-0.000876885
8.06811e-05
-0.000905566
2.57797e-05
-0.000876731
-5.56235e-05
-0.000786897
-0.000149542
-0.000637427
-0.000235813
-0.000443364
-0.000293571
-0.000270057
-0.000255533
-0.000112821
-0.000214935
2.60612e-05
-0.000169086
0.000146184
-0.00012471
0.000251415
-8.77708e-05
0.00034584
-5.71961e-05
0.000431104
-3.08153e-05
0.000497434
-5.33357e-06
0.000550196
7.05435e-06
0.000592447
1.3276e-05
0.000626054
1.68913e-05
0.000652466
1.90268e-05
0.000672867
2.02394e-05
0.00068877
2.02927e-05
0.000701617
1.92926e-05
0.000712503
1.75688e-05
0.000722164
1.54877e-05
0.000731024
1.33215e-05
0.000739308
1.11824e-05
0.000747104
9.1323e-06
6.87333e-06
0.000755159
8.03042e-06
7.9797e-05
2.17238e-05
8.79301e-05
4.01472e-05
9.4203e-05
6.17425e-05
0.000100228
8.53406e-05
0.000104962
0.000109711
0.000106885
0.000132908
0.000103937
0.000151808
9.3338e-05
0.00016114
7.13626e-05
0.000155355
3.1604e-05
0.00011287
-1.30926e-05
1.36625e-05
-5.02725e-05
-0.000140209
-8.18714e-05
-0.000328417
-0.000105386
-0.000484968
-9.91022e-05
-0.000600152
-9.988e-05
-0.000659678
-0.0001096
-0.000660946
-0.000123387
-0.000618294
-0.00013033
-0.0005493
-0.000126133
-0.000467553
-0.000112601
-0.000387475
-8.55684e-05
-0.000321121
-5.95509e-05
-0.000269377
-3.87186e-05
-0.000231888
-2.08719e-05
-0.000205517
-7.60014e-06
-0.000185169
-3.19897e-07
-0.000167982
2.94986e-06
-0.00015276
3.97177e-06
-0.000138985
3.73823e-06
-0.000126405
2.89584e-06
-0.000114896
1.83462e-06
-0.000104409
7.22266e-07
-9.49127e-05
-3.41325e-07
-9.99313e-07
-8.70152e-05
5.22436e-05
2.75643e-05
0.000106031
3.41559e-05
0.000162726
3.75228e-05
0.000224091
3.8881e-05
0.000291196
3.78792e-05
0.000364043
3.4063e-05
0.000440689
2.73217e-05
0.000516664
1.73992e-05
0.000582267
5.79884e-06
0.000624149
-1.02101e-05
0.000637173
-2.60084e-05
0.000627662
-4.06236e-05
0.000601181
-5.52158e-05
0.000567356
-7.13449e-05
0.000546462
-7.80031e-05
0.000543806
-9.70337e-05
0.000561844
-0.000127437
0.000594303
-0.000155631
0.000632392
-0.00016824
0.000670243
-0.000163804
0.000705967
-0.000148092
0.000735073
-0.000114364
0.000756164
-8.02622e-05
0.000766628
-4.87887e-05
0.000766693
-2.05128e-05
0.000756192
3.29312e-06
0.000738998
1.71927e-05
0.000714469
2.77243e-05
0.000683721
3.49031e-05
0.00064823
3.9369e-05
0.000609501
4.17345e-05
0.000568913
4.25121e-05
0.000527607
4.2111e-05
0.000486489
4.08542e-05
3.87504e-05
0.000446812
1.94316e-05
8.17721e-06
4.45289e-05
9.10683e-06
7.33239e-05
8.78079e-06
0.000104952
7.31204e-06
0.000138704
4.19269e-06
0.000172388
4.53294e-07
0.000205468
-5.6754e-06
0.000236472
-1.35127e-05
0.000267282
-2.49071e-05
0.000296146
-3.89689e-05
0.000323708
-5.34607e-05
0.000350054
-6.68543e-05
0.000373999
-7.90415e-05
0.000391436
-8.86564e-05
0.000389655
-7.61322e-05
0.000356048
-6.33604e-05
0.000278991
-5.03388e-05
0.000168707
-4.5291e-05
4.47972e-05
-4.42796e-05
-7.40591e-05
-4.49018e-05
-0.000175572
-4.64998e-05
-0.000247838
-4.19493e-05
-0.000293839
-3.40761e-05
-0.000317824
-2.46134e-05
-0.000323261
-1.49009e-05
-0.000315804
-4.01025e-06
-0.000304257
5.76438e-06
-0.000291062
1.46144e-05
-0.000276633
2.05309e-05
-0.000261163
2.39375e-05
-0.000245087
2.56843e-05
-0.000228827
2.6269e-05
-0.000212746
2.60433e-05
-0.000197158
2.52765e-05
2.4423e-05
-0.000182819
2.88247e-05
-2.06854e-05
6.20335e-05
-2.41414e-05
9.77541e-05
-2.69818e-05
0.000134883
-2.98622e-05
0.00017183
-3.28061e-05
0.000208079
-3.58552e-05
0.000241824
-3.94894e-05
0.000272151
-4.39201e-05
0.000296556
-4.9409e-05
0.0003133
-5.58301e-05
0.000323295
-6.35991e-05
0.000328367
-7.21038e-05
0.000329277
-8.01777e-05
0.000324841
-8.45041e-05
0.000312773
-6.43319e-05
0.000288817
-3.966e-05
0.000246006
-7.74755e-06
0.00019463
5.85722e-06
0.000143172
6.93307e-06
9.6878e-05
1.14291e-06
5.46613e-05
-4.54278e-06
1.58724e-05
-3.39777e-06
-2.15102e-05
3.11127e-06
-5.62651e-05
9.97472e-06
-8.68856e-05
1.55763e-05
-0.000111337
2.03177e-05
-0.000129192
2.3513e-05
-0.000140176
2.55043e-05
-0.000146539
2.68161e-05
-0.000150212
2.75434e-05
-0.000152308
2.77205e-05
-0.000153499
2.74079e-05
-0.000154189
2.66874e-05
-0.00015461
2.56591e-05
2.42749e-05
-0.000154496
-5.57423e-06
-1.50851e-05
-1.18534e-05
-1.78354e-05
-1.84142e-05
-2.03928e-05
-2.50899e-05
-2.31558e-05
-3.16644e-05
-2.61977e-05
-3.7894e-05
-2.95876e-05
-4.39545e-05
-3.33864e-05
-5.01875e-05
-3.76394e-05
-5.71819e-05
-4.23603e-05
-6.54622e-05
-4.74871e-05
-7.61502e-05
-5.2836e-05
-9.01575e-05
-5.80044e-05
-0.000108016
-6.22019e-05
-0.000128154
-6.42199e-05
-0.000139779
-5.25437e-05
-0.000136221
-4.30268e-05
-0.000111561
-3.21992e-05
-8.37473e-05
-2.17516e-05
-6.15755e-05
-1.51315e-05
-4.89609e-05
-1.12619e-05
-4.68732e-05
-6.39417e-06
-5.04872e-05
4.41883e-07
-5.4433e-05
7.25806e-06
-5.92717e-05
1.49905e-05
-6.37685e-05
2.02273e-05
-6.68192e-05
2.35042e-05
-6.86078e-05
2.54214e-05
-6.92964e-05
2.62984e-05
-6.87812e-05
2.63934e-05
-6.70707e-05
2.59143e-05
-6.43035e-05
2.50255e-05
-6.06956e-05
2.38634e-05
-5.64823e-05
2.25314e-05
-5.18797e-05
2.11083e-05
1.97832e-05
-4.7341e-05
3.54411e-06
-1.86575e-05
6.62816e-06
-2.09495e-05
9.22597e-06
-2.30233e-05
1.14419e-05
-2.5408e-05
1.33683e-05
-2.8165e-05
1.50446e-05
-3.13103e-05
1.64642e-05
-3.48591e-05
1.75757e-05
-3.88118e-05
1.82791e-05
-4.31339e-05
1.84284e-05
-4.77173e-05
1.78235e-05
-5.23253e-05
1.6224e-05
-5.65147e-05
1.33866e-05
-5.9494e-05
8.93837e-06
-5.99266e-05
3.17318e-06
-4.69305e-05
-3.53064e-06
-3.64759e-05
-1.07008e-05
-2.51765e-05
-1.94039e-05
-1.31762e-05
-3.25997e-05
-1.95354e-06
-5.05749e-05
6.59123e-06
-7.01594e-05
1.30562e-05
-8.76825e-05
1.78451e-05
-0.000101291
2.07595e-05
-0.000109197
2.28004e-05
-0.00011339
2.43342e-05
-0.000115361
2.53987e-05
-0.000116016
2.60068e-05
-0.00011596
2.61813e-05
-0.000115576
2.59546e-05
-0.00011509
2.53792e-05
-0.000114628
2.45202e-05
-0.000114248
2.3444e-05
-0.000113964
2.22125e-05
-0.000113768
2.08822e-05
1.9415e-05
-0.000113427
-5.7187e-06
-1.29263e-05
-1.11465e-05
-1.55095e-05
-1.61969e-05
-1.79606e-05
-2.09907e-05
-2.06014e-05
-2.56772e-05
-2.34643e-05
-3.04031e-05
-2.65686e-05
-3.53256e-05
-2.99183e-05
-4.06224e-05
-3.34937e-05
-4.64928e-05
-3.7238e-05
-5.31417e-05
-4.10378e-05
-6.0736e-05
-4.46933e-05
-6.93209e-05
-4.78829e-05
-7.86774e-05
-5.00768e-05
-8.79442e-05
-5.05806e-05
-9.37845e-05
-4.10067e-05
-9.6255e-05
-3.39137e-05
-9.48488e-05
-2.64829e-05
-8.92838e-05
-1.86319e-05
-8.04298e-05
-1.06978e-05
-7.10181e-05
-2.71244e-06
-6.43865e-05
6.52945e-06
-6.14169e-05
1.49688e-05
-6.02309e-05
1.96558e-05
-5.9932e-05
2.25734e-05
-5.9835e-05
2.42994e-05
-5.94875e-05
2.51058e-05
-5.86355e-05
2.5203e-05
-5.71784e-05
2.47671e-05
-5.51341e-05
2.39483e-05
-5.25894e-05
2.2868e-05
-4.96615e-05
2.16224e-05
-4.64763e-05
2.02854e-05
-4.31514e-05
1.8912e-05
-3.9789e-05
1.75421e-05
1.6271e-05
-3.66245e-05
-3.43339e-07
-1.26011e-05
-1.33225e-06
-1.45405e-05
-2.91972e-06
-1.63953e-05
-5.04225e-06
-1.85037e-05
-7.62245e-06
-2.09121e-05
-1.05947e-05
-2.36281e-05
-1.39019e-05
-2.66475e-05
-1.74895e-05
-2.99476e-05
-2.1301e-05
-3.3474e-05
-2.52723e-05
-3.71207e-05
-2.93318e-05
-4.06959e-05
-3.34018e-05
-4.38843e-05
-3.7394e-05
-4.61663e-05
-4.13962e-05
-4.66724e-05
-4.54242e-05
-3.70674e-05
-4.98879e-05
-2.95383e-05
-5.49952e-05
-2.14629e-05
-6.09952e-05
-1.2717e-05
-6.91636e-05
-2.61144e-06
-7.70579e-05
5.10481e-06
-8.21823e-05
1.15793e-05
-8.35691e-05
1.62886e-05
-8.33752e-05
1.94022e-05
-8.23712e-05
2.15158e-05
-8.09916e-05
2.28719e-05
-7.95164e-05
2.3588e-05
-7.81198e-05
2.37686e-05
-7.68965e-05
2.35101e-05
-7.58844e-05
2.29062e-05
-7.50853e-05
2.20422e-05
-7.44797e-05
2.09931e-05
-7.40383e-05
1.98228e-05
-7.3728e-05
1.85831e-05
-7.35176e-05
1.73149e-05
1.60079e-05
-7.32696e-05
-2.35078e-06
-1.02471e-05
-4.59731e-06
-1.22909e-05
-6.77829e-06
-1.42113e-05
-9.02136e-06
-1.62576e-05
-1.14607e-05
-1.84695e-05
-1.42228e-05
-2.08625e-05
-1.74334e-05
-2.34329e-05
-2.12197e-05
-2.61567e-05
-2.57063e-05
-2.89819e-05
-3.10063e-05
-3.18141e-05
-3.71956e-05
-3.44984e-05
-4.42849e-05
-3.67846e-05
-5.21691e-05
-3.82688e-05
-6.04637e-05
-3.83605e-05
-6.69116e-05
-3.06007e-05
-7.189e-05
-2.4539e-05
-7.51164e-05
-1.8213e-05
-7.59506e-05
-1.1857e-05
-7.29829e-05
-5.55205e-06
-6.90019e-05
1.15132e-06
-6.72321e-05
9.83736e-06
-6.65169e-05
1.55987e-05
-6.62162e-05
1.9124e-05
-6.59416e-05
2.12612e-05
-6.54478e-05
2.23958e-05
-6.46448e-05
2.28009e-05
-6.35276e-05
2.26656e-05
-6.21226e-05
2.21179e-05
-6.04787e-05
2.12737e-05
-5.86557e-05
2.02296e-05
-5.67147e-05
1.90617e-05
-5.47107e-05
1.78275e-05
-5.26937e-05
1.65742e-05
-5.07093e-05
1.5338e-05
1.4171e-05
-4.88656e-05
-1.35312e-06
-8.90544e-06
-3.2632e-06
-1.03934e-05
-5.67306e-06
-1.18154e-05
-8.53568e-06
-1.34106e-05
-1.1808e-05
-1.5215e-05
-1.54547e-05
-1.7236e-05
-1.94412e-05
-1.94694e-05
-2.37297e-05
-2.18945e-05
-2.82765e-05
-2.44651e-05
-3.30293e-05
-2.70954e-05
-3.79268e-05
-2.96397e-05
-4.28947e-05
-3.18609e-05
-4.78414e-05
-3.33722e-05
-5.27158e-05
-3.3543e-05
-5.69357e-05
-2.64343e-05
-6.07659e-05
-2.07619e-05
-6.43637e-05
-1.46679e-05
-6.81358e-05
-8.13738e-06
-7.3021e-05
-7.18625e-07
-7.69285e-05
5.00845e-06
-7.79407e-05
1.08005e-05
-7.75139e-05
1.51281e-05
-7.65141e-05
1.80856e-05
-7.52881e-05
2.0001e-05
-7.4013e-05
2.10906e-05
-7.28116e-05
2.15728e-05
-7.1739e-05
2.15694e-05
-7.08179e-05
2.1176e-05
-7.00496e-05
2.0487e-05
-6.94214e-05
1.95852e-05
-6.89071e-05
1.85331e-05
-6.8479e-05
1.73868e-05
-6.81172e-05
1.62013e-05
-6.78065e-05
1.50173e-05
1.38411e-05
-6.74857e-05
-1.44759e-06
-7.45915e-06
-2.93336e-06
-8.90931e-06
-4.48316e-06
-1.02676e-05
-6.18559e-06
-1.17106e-05
-8.13615e-06
-1.32672e-05
-1.04289e-05
-1.49465e-05
-1.31583e-05
-1.67437e-05
-1.64188e-05
-1.86384e-05
-2.03005e-05
-2.05883e-05
-2.48819e-05
-2.25195e-05
-3.02136e-05
-2.43142e-05
-3.63072e-05
-2.57743e-05
-4.31104e-05
-2.65767e-05
-5.04177e-05
-2.6244e-05
-5.64476e-05
-2.04115e-05
-6.15031e-05
-1.57126e-05
-6.54432e-05
-1.07332e-05
-6.79738e-05
-5.61126e-06
-6.79953e-05
-7.00823e-07
-6.87709e-05
5.78082e-06
-6.99453e-05
1.19716e-05
-7.1019e-05
1.6199e-05
-7.17365e-05
1.88005e-05
-7.20374e-05
2.02999e-05
-7.19728e-05
2.10243e-05
-7.15917e-05
2.11904e-05
-7.09285e-05
2.09053e-05
-7.00337e-05
2.02805e-05
-6.89678e-05
1.94207e-05
-6.77906e-05
1.84078e-05
-6.65554e-05
1.72978e-05
-6.53078e-05
1.61392e-05
-6.40817e-05
1.49752e-05
-6.28986e-05
1.38342e-05
1.27469e-05
-6.18044e-05
-1.46998e-06
-5.99651e-06
-3.31688e-06
-7.07045e-06
-5.51068e-06
-8.08278e-06
-8.03306e-06
-9.19828e-06
-1.08686e-05
-1.04431e-05
-1.40067e-05
-1.18214e-05
-1.74381e-05
-1.3327e-05
-2.11537e-05
-1.49396e-05
-2.5141e-05
-1.66201e-05
-2.93838e-05
-1.82984e-05
-3.38633e-05
-1.98593e-05
-3.85528e-05
-2.11127e-05
-4.34045e-05
-2.17565e-05
-4.83821e-05
-2.1302e-05
-5.27319e-05
-1.60952e-05
-5.67352e-05
-1.17423e-05
-6.04671e-05
-7.03377e-06
-6.42947e-05
-1.81617e-06
-6.81212e-05
3.09388e-06
-7.0405e-05
8.03338e-06
-7.16975e-05
1.32339e-05
-7.23031e-05
1.67776e-05
-7.24754e-05
1.89493e-05
-7.2392e-05
2.01958e-05
-7.21565e-05
2.07705e-05
-7.18061e-05
2.0824e-05
-7.13837e-05
2.04689e-05
-7.09349e-05
1.98192e-05
-7.04906e-05
1.89655e-05
-7.00676e-05
1.79751e-05
-6.96798e-05
1.69015e-05
-6.93348e-05
1.57867e-05
-6.90298e-05
1.46633e-05
-6.87583e-05
1.35565e-05
1.24742e-05
-6.8491e-05
-9.85163e-07
-5.01323e-06
-2.1197e-06
-5.93823e-06
-3.39812e-06
-6.80711e-06
-4.86976e-06
-7.7299e-06
-6.593e-06
-8.7236e-06
-8.62783e-06
-9.79097e-06
-1.10353e-05
-1.09247e-05
-1.38762e-05
-1.21045e-05
-1.72105e-05
-1.32925e-05
-2.1087e-05
-1.44295e-05
-2.55412e-05
-1.54138e-05
-3.05861e-05
-1.60779e-05
-3.61976e-05
-1.61564e-05
-4.22621e-05
-1.52504e-05
-4.74347e-05
-1.09343e-05
-5.19879e-05
-7.20067e-06
-5.57942e-05
-3.23838e-06
-5.8463e-05
8.4223e-07
-6.10601e-05
5.68073e-06
-6.35119e-05
1.04751e-05
-6.56592e-05
1.53713e-05
-6.72625e-05
1.83719e-05
-6.83919e-05
2.00709e-05
-6.91383e-05
2.09353e-05
-6.95465e-05
2.11728e-05
-6.96585e-05
2.09307e-05
-6.9535e-05
2.03408e-05
-6.92376e-05
1.95178e-05
-6.88155e-05
1.85398e-05
-6.83079e-05
1.74646e-05
-6.77477e-05
1.63386e-05
-6.71623e-05
1.51989e-05
-6.65737e-05
1.40726e-05
-6.59977e-05
1.29786e-05
1.19334e-05
-6.54586e-05
-1.29723e-06
-3.71988e-06
-2.85123e-06
-4.38856e-06
-4.64323e-06
-5.01999e-06
-6.66877e-06
-5.70987e-06
-8.92718e-06
-6.47147e-06
-1.1422e-05
-7.30328e-06
-1.41604e-05
-8.19438e-06
-1.71511e-05
-9.12302e-06
-2.04013e-05
-1.00528e-05
-2.39186e-05
-1.09241e-05
-2.77093e-05
-1.16366e-05
-3.17738e-05
-1.20283e-05
-3.61027e-05
-1.18445e-05
-4.07017e-05
-1.06704e-05
-4.48089e-05
-6.8447e-06
-4.86896e-05
-3.33745e-06
-5.25138e-05
5.68896e-07
-5.60035e-05
4.3155e-06
-5.87604e-05
8.4215e-06
-6.10038e-05
1.27031e-05
-6.27742e-05
1.71267e-05
-6.4028e-05
1.96125e-05
-6.48886e-05
2.09198e-05
-6.5455e-05
2.14914e-05
-6.57947e-05
2.15035e-05
-6.59748e-05
2.11028e-05
-6.60488e-05
2.04077e-05
-6.60459e-05
1.95086e-05
-6.59854e-05
1.84738e-05
-6.58842e-05
1.73586e-05
-6.5756e-05
1.6206e-05
-6.56111e-05
1.50502e-05
-6.54574e-05
1.39155e-05
-6.53002e-05
1.28183e-05
1.17677e-05
-6.51373e-05
-7.57271e-07
-2.96361e-06
-1.67912e-06
-3.46794e-06
-2.75615e-06
-3.94444e-06
-4.01914e-06
-4.44865e-06
-5.50749e-06
-4.98517e-06
-7.26282e-06
-5.55034e-06
-9.32792e-06
-6.13202e-06
-1.17473e-05
-6.70682e-06
-1.45625e-05
-7.24117e-06
-1.78075e-05
-7.68329e-06
-2.14989e-05
-7.95003e-06
-2.56351e-05
-7.89769e-06
-3.02026e-05
-7.28331e-06
-3.51463e-05
-5.73384e-06
-3.94322e-05
-2.56521e-06
-4.32064e-05
4.30337e-07
-4.65638e-05
3.92003e-06
-4.97579e-05
7.50356e-06
-5.26307e-05
1.12884e-05
-5.51636e-05
1.52301e-05
-5.73432e-05
1.93007e-05
-5.89986e-05
2.12627e-05
-6.02012e-05
2.21179e-05
-6.10436e-05
2.233e-05
-6.16006e-05
2.2057e-05
-6.19327e-05
2.14318e-05
-6.20886e-05
2.05609e-05
-6.21076e-05
1.95252e-05
-6.20238e-05
1.8388e-05
-6.18658e-05
1.71988e-05
-6.16567e-05
1.59953e-05
-6.14148e-05
1.48068e-05
-6.11544e-05
1.36538e-05
-6.08869e-05
1.25496e-05
1.15046e-05
-6.06248e-05
-1.00518e-06
-1.95978e-06
-2.17993e-06
-2.29472e-06
-3.52167e-06
-2.60444e-06
-5.03836e-06
-2.93394e-06
-6.74146e-06
-3.28433e-06
-8.64606e-06
-3.64833e-06
-1.07661e-05
-4.01487e-06
-1.311e-05
-4.36606e-06
-1.56887e-05
-4.66601e-06
-1.85224e-05
-4.85371e-06
-2.16373e-05
-4.83959e-06
-2.50564e-05
-4.48365e-06
-2.87941e-05
-3.55108e-06
-3.28865e-05
-1.64776e-06
-3.65883e-05
1.13084e-06
-4.01264e-05
3.96341e-06
-4.32751e-05
7.06365e-06
-4.61285e-05
1.03523e-05
-4.86645e-05
1.38199e-05
-5.08726e-05
1.74339e-05
-5.27434e-05
2.11674e-05
-5.41606e-05
2.26763e-05
-5.51968e-05
2.31508e-05
-5.59351e-05
2.30655e-05
-5.64436e-05
2.25629e-05
-5.67748e-05
2.17607e-05
-5.69688e-05
2.07529e-05
-5.70589e-05
1.96135e-05
-5.7073e-05
1.84004e-05
-5.70334e-05
1.71576e-05
-5.69573e-05
1.59179e-05
-5.68565e-05
1.47048e-05
-5.67391e-05
1.35353e-05
-5.6611e-05
1.24206e-05
1.13669e-05
-5.64741e-05
-5.70426e-07
-1.38936e-06
-1.29962e-06
-1.56555e-06
-2.17399e-06
-1.73012e-06
-3.21359e-06
-1.89442e-06
-4.44697e-06
-2.05105e-06
-5.9059e-06
-2.18953e-06
-7.6222e-06
-2.29876e-06
-9.62388e-06
-2.36459e-06
-1.19312e-05
-2.35888e-06
-1.45581e-05
-2.22691e-06
-1.7523e-05
-1.87511e-06
-2.08465e-05
-1.16035e-06
-2.44602e-05
6.25465e-08
-2.84674e-05
2.35922e-06
-3.2014e-05
4.67695e-06
-3.53335e-05
7.28242e-06
-3.83818e-05
1.01116e-05
-4.1156e-05
1.31262e-05
-4.36415e-05
1.63052e-05
-4.58285e-05
1.96208e-05
-4.77074e-05
2.30461e-05
-4.91409e-05
2.41097e-05
-5.01917e-05
2.42016e-05
-5.09392e-05
2.38129e-05
-5.14475e-05
2.30711e-05
-5.17684e-05
2.20816e-05
-5.19443e-05
2.09286e-05
-5.20095e-05
1.96786e-05
-5.1992e-05
1.83827e-05
-5.19138e-05
1.70794e-05
-5.17928e-05
1.57968e-05
-5.1643e-05
1.45549e-05
-5.14753e-05
1.33675e-05
-5.12981e-05
1.22434e-05
1.11881e-05
-5.11192e-05
-7.58137e-07
-6.31025e-07
-1.64878e-06
-6.74726e-07
-2.66712e-06
-7.11594e-07
-3.81899e-06
-7.42361e-07
-5.10999e-06
-7.59799e-07
-6.54705e-06
-7.5219e-07
-8.14251e-06
-7.02958e-07
-9.91808e-06
-5.88632e-07
-1.19079e-05
-3.68572e-07
-1.41769e-05
4.28319e-08
-1.66867e-05
6.35581e-07
-1.95008e-05
1.65453e-06
-2.27123e-05
3.2748e-06
-2.61642e-05
5.8124e-06
-2.92689e-05
7.78302e-06
-3.21857e-05
1.02008e-05
-3.48834e-05
1.28108e-05
-3.73446e-05
1.55888e-05
-3.95511e-05
1.85131e-05
-4.14874e-05
2.15586e-05
-4.31401e-05
2.47003e-05
-4.4394e-05
2.53647e-05
-4.53069e-05
2.51155e-05
-4.59505e-05
2.44573e-05
-4.63836e-05
2.3505e-05
-4.66542e-05
2.23528e-05
-4.68011e-05
2.1076e-05
-4.68552e-05
1.97331e-05
-4.68408e-05
1.83687e-05
-4.67771e-05
1.70159e-05
-4.66787e-05
1.56987e-05
-4.65572e-05
1.44336e-05
-4.6421e-05
1.32315e-05
-4.62766e-05
1.20992e-05
1.10398e-05
-4.61281e-05
-5.16801e-07
-1.13579e-07
-1.14955e-06
-4.12768e-08
-1.89726e-06
3.69103e-08
-2.78071e-06
1.41983e-07
-3.81153e-06
2.72051e-07
-5.00367e-06
4.41159e-07
-6.37439e-06
6.69149e-07
-7.94867e-06
9.87194e-07
-9.75288e-06
1.43741e-06
-1.17884e-05
2.08012e-06
-1.41492e-05
2.99872e-06
-1.68187e-05
4.32653e-06
-1.9798e-05
6.25692e-06
-2.3066e-05
9.08365e-06
-2.59854e-05
1.07055e-05
-2.87113e-05
1.29297e-05
-3.12249e-05
1.53274e-05
-3.35115e-05
1.78783e-05
-3.55566e-05
2.0561e-05
-3.73475e-05
2.33522e-05
-3.88724e-05
2.62278e-05
-4.00222e-05
2.65168e-05
-4.0851e-05
2.59463e-05
-4.14262e-05
2.50341e-05
-4.18029e-05
2.38831e-05
-4.2026e-05
2.25771e-05
-4.21316e-05
2.11827e-05
-4.21489e-05
1.97513e-05
-4.21011e-05
1.83217e-05
-4.20065e-05
1.6922e-05
-4.18795e-05
1.55723e-05
-4.17315e-05
1.4286e-05
-4.15711e-05
1.30715e-05
-4.14048e-05
1.19334e-05
1.08736e-05
-4.1238e-05
-6.25338e-07
5.12449e-07
-1.34646e-06
6.80608e-07
-2.15386e-06
8.45166e-07
-3.04619e-06
1.03528e-06
-4.0395e-06
1.26645e-06
-5.15164e-06
1.55454e-06
-6.40377e-06
1.92269e-06
-7.81811e-06
2.40318e-06
-9.41826e-06
3.03946e-06
-1.12286e-05
3.89267e-06
-1.32769e-05
5.04958e-06
-1.55866e-05
6.63915e-06
-1.81735e-05
8.84724e-06
-2.1032e-05
1.19459e-05
-2.36105e-05
1.32876e-05
-2.60342e-05
1.53568e-05
-2.82793e-05
1.7576e-05
-3.0326e-05
1.99283e-05
-3.21563e-05
2.23945e-05
-3.37545e-05
2.49535e-05
-3.51068e-05
2.7583e-05
-3.61167e-05
2.75292e-05
-3.68343e-05
2.6666e-05
-3.73213e-05
2.5523e-05
-3.76288e-05
2.41922e-05
-3.77984e-05
2.27481e-05
-3.78639e-05
2.12493e-05
-3.78519e-05
1.97403e-05
-3.77838e-05
1.82544e-05
-3.76761e-05
1.68151e-05
-3.75418e-05
1.54386e-05
-3.73908e-05
1.41355e-05
-3.72304e-05
1.29117e-05
-3.70664e-05
1.17699e-05
1.07103e-05
-3.69026e-05
-4.00892e-07
9.14114e-07
-9.05216e-07
1.1858e-06
-1.50903e-06
1.44996e-06
-2.22174e-06
1.74911e-06
-3.05753e-06
2.10351e-06
-4.03426e-06
2.5327e-06
-5.17e-06
3.06009e-06
-6.48187e-06
3.71693e-06
-7.9869e-06
4.54665e-06
-9.70217e-06
5.61039e-06
-1.16447e-05
6.9949e-06
-1.38272e-05
8.82487e-06
-1.62558e-05
1.12793e-05
-1.89216e-05
1.46157e-05
-2.13087e-05
1.56784e-05
-2.35412e-05
1.75928e-05
-2.56017e-05
1.96399e-05
-2.74739e-05
2.18038e-05
-2.91425e-05
2.40662e-05
-3.05932e-05
2.64073e-05
-3.18131e-05
2.88057e-05
-3.27151e-05
2.84337e-05
-3.33462e-05
2.72992e-05
-3.37641e-05
2.59426e-05
-3.40162e-05
2.44457e-05
-3.41411e-05
2.28744e-05
-3.41703e-05
2.12795e-05
-3.41287e-05
1.96996e-05
-3.4036e-05
1.81625e-05
-3.39078e-05
1.66875e-05
-3.37562e-05
1.52876e-05
-3.35906e-05
1.39704e-05
-3.3418e-05
1.27396e-05
-3.32438e-05
1.15961e-05
1.05389e-05
-3.30719e-05
-4.60011e-07
1.37476e-06
-9.97207e-07
1.72371e-06
-1.60969e-06
2.06327e-06
-2.3074e-06
2.44775e-06
-3.10199e-06
2.89918e-06
-4.00701e-06
3.43895e-06
-5.03813e-06
4.09263e-06
-6.21312e-06
4.89355e-06
-7.55135e-06
5.88675e-06
-9.07304e-06
7.13423e-06
-1.0798e-05
8.72232e-06
-1.27428e-05
1.07725e-05
-1.4917e-05
1.34566e-05
-1.73162e-05
1.70185e-05
-1.94752e-05
1.78407e-05
-2.15002e-05
1.9621e-05
-2.33722e-05
2.1515e-05
-2.50736e-05
2.35081e-05
-2.65882e-05
2.55836e-05
-2.79011e-05
2.77228e-05
-2.89987e-05
2.99058e-05
-2.98025e-05
2.92396e-05
-3.03562e-05
2.78547e-05
-3.0713e-05
2.63009e-05
-3.09171e-05
2.46511e-05
-3.10049e-05
2.29632e-05
-3.10055e-05
2.1281e-05
-3.09422e-05
1.9637e-05
-3.08334e-05
1.80542e-05
-3.06935e-05
1.65481e-05
-3.05337e-05
1.51282e-05
-3.03625e-05
1.37996e-05
-3.01864e-05
1.25638e-05
-3.00101e-05
1.14202e-05
1.03662e-05
-2.98371e-05
-3.50978e-07
1.72632e-06
-7.88957e-07
2.16235e-06
-1.30863e-06
2.58369e-06
-1.91754e-06
3.05751e-06
-2.62717e-06
3.60979e-06
-3.45044e-06
4.26334e-06
-4.40148e-06
5.04496e-06
-5.49547e-06
5.989e-06
-6.74819e-06
7.14115e-06
-8.17546e-06
8.56341e-06
-9.79209e-06
1.03411e-05
-1.161e-05
1.25929e-05
-1.36353e-05
1.54846e-05
-1.58621e-05
1.92485e-05
-1.78596e-05
1.9841e-05
-1.97293e-05
2.14933e-05
-2.14551e-05
2.32434e-05
-2.30216e-05
2.5077e-05
-2.44138e-05
2.6978e-05
-2.56176e-05
2.89286e-05
-2.66197e-05
3.09099e-05
-2.73482e-05
2.99697e-05
-2.78438e-05
2.83515e-05
-2.81559e-05
2.66141e-05
-2.83259e-05
2.48219e-05
-2.83876e-05
2.30256e-05
-2.83688e-05
2.12627e-05
-2.82908e-05
1.95595e-05
-2.81709e-05
1.79347e-05
-2.80227e-05
1.64002e-05
-2.78567e-05
1.49625e-05
-2.7681e-05
1.3624e-05
-2.75016e-05
1.23846e-05
-2.73231e-05
1.12418e-05
1.01921e-05
-2.71488e-05
-3.6796e-07
2.09471e-06
-8.04939e-07
2.59981e-06
-1.30974e-06
3.08906e-06
-1.88981e-06
3.63823e-06
-2.55519e-06
4.27592e-06
-3.31779e-06
5.0268e-06
-4.19118e-06
5.91934e-06
-5.19047e-06
6.98943e-06
-6.33192e-06
8.28391e-06
-7.63226e-06
9.86525e-06
-9.10749e-06
1.18181e-05
-1.07708e-05
1.42581e-05
-1.26292e-05
1.73452e-05
-1.46788e-05
2.13004e-05
-1.65217e-05
2.16861e-05
-1.82497e-05
2.32234e-05
-1.98468e-05
2.48424e-05
-2.12976e-05
2.65296e-05
-2.25874e-05
2.82696e-05
-2.37024e-05
3.00451e-05
-2.46294e-05
3.18382e-05
-2.53009e-05
3.06423e-05
-2.57544e-05
2.88059e-05
-2.60358e-05
2.68961e-05
-2.61832e-05
2.49699e-05
-2.62292e-05
2.30721e-05
-2.62008e-05
2.12345e-05
-2.61173e-05
1.94761e-05
-2.59941e-05
1.78117e-05
-2.58445e-05
1.62507e-05
-2.56785e-05
1.47965e-05
-2.55039e-05
1.34494e-05
-2.53263e-05
1.2207e-05
-2.515e-05
1.10656e-05
1.00203e-05
-2.49781e-05
-3.1493e-07
2.40997e-06
-7.03557e-07
2.98882e-06
-1.16032e-06
3.54626e-06
-1.6916e-06
4.17002e-06
-2.30673e-06
4.89162e-06
-3.01663e-06
5.73737e-06
-3.83358e-06
6.73706e-06
-4.77091e-06
7.92764e-06
-5.84273e-06
9.35674e-06
-7.06342e-06
1.10871e-05
-8.44665e-06
1.32026e-05
-1.00038e-05
1.58167e-05
-1.17411e-05
1.90842e-05
-1.36552e-05
2.32163e-05
-1.53759e-05
2.34083e-05
-1.69899e-05
2.4839e-05
-1.84831e-05
2.6337e-05
-1.98414e-05
2.78891e-05
-2.1051e-05
2.94802e-05
-2.20984e-05
3.10935e-05
-2.29708e-05
3.27114e-05
-2.36038e-05
3.12758e-05
-2.40318e-05
2.92343e-05
-2.42975e-05
2.71621e-05
-2.44369e-05
2.51094e-05
-2.44797e-05
2.31149e-05
-2.44499e-05
2.12047e-05
-2.43672e-05
1.93934e-05
-2.42471e-05
1.76915e-05
-2.41018e-05
1.61052e-05
-2.39408e-05
1.46354e-05
-2.37714e-05
1.32798e-05
-2.35991e-05
1.20346e-05
-2.34281e-05
1.08945e-05
9.85337e-06
-2.32613e-05
-3.10344e-07
2.72053e-06
-6.84593e-07
3.36333e-06
-1.12011e-06
3.98208e-06
-1.62295e-06
4.6732e-06
-2.20166e-06
5.47073e-06
-2.86643e-06
6.40261e-06
-3.6289e-06
7.50005e-06
-4.50192e-06
8.80127e-06
-5.49934e-06
1.03549e-05
-6.63541e-06
1.22239e-05
-7.92381e-06
1.44919e-05
-9.37602e-06
1.727e-05
-1.09987e-05
2.0708e-05
-1.27897e-05
2.50085e-05
-1.44029e-05
2.50226e-05
-1.59194e-05
2.63564e-05
-1.73257e-05
2.77442e-05
-1.86089e-05
2.9173e-05
-1.97557e-05
3.06276e-05
-2.07532e-05
3.20915e-05
-2.15887e-05
3.35471e-05
-2.21994e-05
3.18866e-05
-2.26165e-05
2.96514e-05
-2.28797e-05
2.74252e-05
-2.30226e-05
2.52522e-05
-2.30723e-05
2.31643e-05
-2.30503e-05
2.11825e-05
-2.29764e-05
1.93192e-05
-2.28663e-05
1.75811e-05
-2.27314e-05
1.597e-05
-2.25807e-05
1.44844e-05
-2.24214e-05
1.31202e-05
-2.22587e-05
1.18717e-05
-2.20967e-05
1.07322e-05
9.69473e-06
-2.19382e-05
-2.84096e-07
3.00477e-06
-6.3182e-07
3.71121e-06
-1.03872e-06
4.38917e-06
-1.51031e-06
5.14502e-06
-2.05463e-06
6.0153e-06
-2.68116e-06
7.02944e-06
-3.40062e-06
8.21985e-06
-4.22479e-06
9.62582e-06
-5.16623e-06
1.12967e-05
-6.23795e-06
1.32962e-05
-7.45252e-06
1.5707e-05
-8.82077e-06
1.86388e-05
-1.03495e-05
2.22374e-05
-1.20379e-05
2.66975e-05
-1.35609e-05
2.65462e-05
-1.4996e-05
2.77919e-05
-1.63311e-05
2.90797e-05
-1.75542e-05
3.03964e-05
-1.86532e-05
3.17268e-05
-1.96158e-05
3.30541e-05
-2.04295e-05
3.43608e-05
-2.10318e-05
3.24886e-05
-2.14504e-05
3.00696e-05
-2.17217e-05
2.76961e-05
-2.18767e-05
2.54068e-05
-2.19411e-05
2.32283e-05
-2.19364e-05
2.11773e-05
-2.18803e-05
1.92627e-05
-2.17874e-05
1.74877e-05
-2.1669e-05
1.58512e-05
-2.1534e-05
1.4349e-05
-2.13894e-05
1.29751e-05
-2.12403e-05
1.17222e-05
-2.10908e-05
1.05824e-05
9.5475e-06
-2.09438e-05
-2.75983e-07
3.28082e-06
-6.0842e-07
4.04373e-06
-9.95396e-07
4.77624e-06
-1.44247e-06
5.59221e-06
-1.95731e-06
6.53026e-06
-2.54892e-06
7.6212e-06
-3.22752e-06
8.89863e-06
-4.00437e-06
1.04029e-05
-4.89157e-06
1.21842e-05
-5.90164e-06
1.43065e-05
-7.04678e-06
1.68524e-05
-8.33768e-06
1.993e-05
-9.78153e-06
2.36816e-05
-1.13788e-05
2.8295e-05
-1.28231e-05
2.79907e-05
-1.41882e-05
2.91571e-05
-1.54636e-05
3.03551e-05
-1.66383e-05
3.1571e-05
-1.77012e-05
3.27894e-05
-1.86406e-05
3.39932e-05
-1.94446e-05
3.51642e-05
-2.00496e-05
3.30932e-05
-2.04799e-05
3.04993e-05
-2.07689e-05
2.79844e-05
-2.09451e-05
2.55823e-05
-2.10327e-05
2.33153e-05
-2.1052e-05
2.1196e-05
-2.10199e-05
1.923e-05
-2.09501e-05
1.74173e-05
-2.08535e-05
1.57541e-05
-2.0739e-05
1.42339e-05
-2.06132e-05
1.28489e-05
-2.04815e-05
1.15901e-05
-2.0348e-05
1.04484e-05
-2.02155e-05
9.41471e-06
0.00049777
2.93996e-05
0.00048338
3.01986e-05
0.000468386
3.06088e-05
0.000452837
3.09505e-05
0.000436593
3.14398e-05
0.000419282
3.23198e-05
0.000400333
3.37864e-05
0.0003794
3.56001e-05
0.000356265
3.76279e-05
0.000330815
3.97608e-05
0.000303072
4.1859e-05
0.000273732
4.30957e-05
0.000244569
4.21082e-05
0.000216013
4.07306e-05
0.000188568
3.88771e-05
0.000162835
3.64638e-05
0.000139521
3.34056e-05
0.000119239
2.9801e-05
0.000102251
2.59923e-05
8.82997e-05
2.24579e-05
7.66316e-05
1.97173e-05
1.80092e-05
6.61638e-05
0.000776408
8.08517e-06
0.000803193
3.36614e-06
0.000833757
1.30535e-08
0.000867385
-2.68692e-06
0.000903197
-4.36107e-06
0.000939927
-4.38114e-06
0.000975972
-2.2145e-06
0.00100812
3.51542e-06
0.00103142
1.43944e-05
0.00104391
2.735e-05
0.00104315
4.27029e-05
0.00102647
5.98641e-05
0.00099354
7.51117e-05
0.000945602
8.87298e-05
0.00088402
0.000100504
0.000810011
0.000110512
0.000724546
0.000118914
0.00062842
0.000125961
0.000522689
0.000131744
0.000408969
0.00013618
0.000289534
0.000139133
0.000139865
0.000167647
-8.1085e-05
2.20205e-06
-7.837e-05
7.17185e-07
-7.73458e-05
-9.2164e-07
-7.79067e-05
-2.01942e-06
-7.969e-05
-2.4648e-06
-8.18588e-05
-2.09498e-06
-8.32334e-05
-7.0411e-07
-8.21676e-05
2.60129e-06
-7.64241e-05
8.81781e-06
-6.69925e-05
1.80824e-05
-5.74481e-05
3.33212e-05
-4.94656e-05
5.20217e-05
-4.30639e-05
6.88292e-05
-3.89301e-05
8.46952e-05
-3.79334e-05
9.95857e-05
-4.04824e-05
0.000113115
-4.63971e-05
0.000124868
-5.48539e-05
0.000134436
-6.44039e-05
0.000141289
-7.33846e-05
0.000145134
-8.01506e-05
0.00014586
0.000144167
-8.44975e-05
0.000384218
6.49147e-05
0.00031552
6.95275e-05
0.000240423
7.4285e-05
0.000159921
7.85755e-05
7.53331e-05
8.22136e-05
-1.14939e-05
8.48454e-05
-9.81176e-05
8.59817e-05
-0.000180701
8.52698e-05
-0.000254737
8.29383e-05
-0.000316307
7.97293e-05
-0.00035953
7.66124e-05
-0.000381564
7.41227e-05
-0.000384497
7.18304e-05
-0.000372039
7.22972e-05
-0.000347368
7.49578e-05
-0.000313177
7.89453e-05
-0.000271746
8.3442e-05
-0.000225019
8.77045e-05
-0.000174951
9.12122e-05
-0.000123542
9.37098e-05
-7.25899e-05
9.48879e-05
9.42758e-05
-2.27235e-05
-0.000159059
4.11774e-05
-0.000136889
4.73843e-05
-0.000115675
5.31051e-05
-9.57298e-05
5.86785e-05
-7.74352e-05
6.398e-05
-6.12813e-05
6.87642e-05
-4.79583e-05
7.27416e-05
-3.84004e-05
7.5815e-05
-3.35335e-05
7.81871e-05
-3.38575e-05
8.0173e-05
-3.91789e-05
8.20612e-05
-4.79383e-05
8.30096e-05
-5.71845e-05
8.11929e-05
-6.51051e-05
8.03285e-05
-7.02224e-05
8.01889e-05
-7.16613e-05
8.05e-05
-6.91065e-05
8.10003e-05
-6.2723e-05
8.14309e-05
-5.30347e-05
8.16297e-05
-4.06615e-05
8.14342e-05
-2.63234e-05
8.06406e-05
7.93268e-05
-1.12936e-05
-0.00014982
3.64476e-05
-0.000142536
4.00448e-05
-0.000133552
4.40667e-05
-0.000123106
4.8181e-05
-0.000111497
5.23207e-05
-9.91736e-05
5.63918e-05
-8.67951e-05
6.03147e-05
-7.50581e-05
6.40344e-05
-6.44448e-05
6.75346e-05
-5.51452e-05
7.0841e-05
-4.71338e-05
7.40246e-05
-4.0351e-05
7.62009e-05
-3.46725e-05
7.54853e-05
-2.90746e-05
7.46996e-05
-2.27616e-05
7.38444e-05
-1.53133e-05
7.30206e-05
-6.55602e-06
7.2212e-05