/*--------------------------------*- C++ -*----------------------------------*\
  =========                 |
  \\      /  F ield         | OpenFOAM: The Open Source CFD Toolbox
   \\    /   O peration     | Website:  https://openfoam.org
    \\  /    A nd           | Version:  8
     \\/     M anipulation  |
\*---------------------------------------------------------------------------*/
FoamFile
{
    version     2.0;
    format      ascii;
    class       volScalarField;
    location    "0.46";
    object      nut;
}
// * * * * * * * * * * * * * * * * * * * * * * * * * * * * * * * * * * * * * //

dimensions      [0 2 -1 0 0 0 0];

internalField   nonuniform List<scalar> 
15677
(
0.000168245
0.000653003
0.000148441
0.00151371
0.000442467
0.000141536
0.0026755
0.000875755
0.000381014
0.000142409
0.00392122
0.00151891
0.000686164
0.00035415
0.000145501
0.00502408
0.00235633
0.00114543
0.000585286
0.000340061
0.000151189
0.00584052
0.00331787
0.0017792
0.000946996
0.000528738
0.000331814
0.000157006
0.00633492
0.0042994
0.00256547
0.00146209
0.000819634
0.000492048
0.000326809
0.000162341
0.0065628
0.00518845
0.00345031
0.00212991
0.00125493
0.00073634
0.000467012
0.000323862
0.000167149
0.00665846
0.00589404
0.00435266
0.00292006
0.00183818
0.00111067
0.000676337
0.000450009
0.000322372
0.000171244
0.00670555
0.00633839
0.0051785
0.0037767
0.00255264
0.00162917
0.00100251
0.000633273
0.000438388
0.00032168
0.000174839
0.00671445
0.00655343
0.00584378
0.00462307
0.00335781
0.00228288
0.00146928
0.000922639
0.000601475
0.000430359
0.00032173
0.000177853
0.00670998
0.00666148
0.00629471
0.00537524
0.00419188
0.0030408
0.00207306
0.00134638
0.000860632
0.000577939
0.000425093
0.000322045
0.00018049
0.00670634
0.00669874
0.00652913
0.00596298
0.00497956
0.00385232
0.00278985
0.0019078
0.00124833
0.000812921
0.000560459
0.000421436
0.000322795
0.000182734
0.00670544
0.00670435
0.00664662
0.00635574
0.00564635
0.00465087
0.00357677
0.00258833
0.0017735
0.00117094
0.000775331
0.000547199
0.000419307
0.000323543
0.000184756
0.00670548
0.00670281
0.00668783
0.00656213
0.00613954
0.00536404
0.00437465
0.0033507
0.00242225
0.00166467
0.00110746
0.00074572
0.000537452
0.000417877
0.000324528
0.000186553
0.00670563
0.00670154
0.00669642
0.00665613
0.00644532
0.00593022
0.00511496
0.00414191
0.00316175
0.00228506
0.00157444
0.00105639
0.000722454
0.000529985
0.000417294
0.0003254
0.000188122
0.00670572
0.00670103
0.00669723
0.00668458
0.00660407
0.00631942
0.00573255
0.00489739
0.00394371
0.0030032
0.00217013
0.00150008
0.00101485
0.000703967
0.000524688
0.000416879
0.000326455
0.000189632
0.00670575
0.00670088
0.00669693
0.00669129
0.00666341
0.00653985
0.00618474
0.00555138
0.00470729
0.00377452
0.00286901
0.002074
0.00143833
0.000981109
0.000689566
0.00052051
0.000417121
0.00032738
0.000190855
0.00670575
0.00670083
0.00669674
0.00669224
0.00668231
0.00663364
0.00646563
0.00605379
0.00538742
0.00454157
0.00362964
0.00275541
0.00199324
0.00138746
0.000953738
0.000678072
0.000517865
0.000417305
0.00032844
0.000192222
0.00670575
0.00670081
0.0066967
0.00669204
0.00668757
0.00666835
0.00659684
0.00638672
0.00592976
0.00524058
0.00439741
0.0035055
0.00265918
0.001926
0.00134543
0.000931706
0.000669476
0.000515725
0.000418037
0.000329411
0.000193175
0.00670574
0.00670079
0.00669673
0.00669179
0.00668875
0.00667994
0.00665093
0.00655441
0.00630728
0.00581466
0.00510999
0.00427217
0.00339956
0.00257829
0.00187001
0.00131137
0.000914313
0.000662636
0.000514787
0.000418597
0.000330445
0.000194508
0.00670574
0.00670078
0.00669676
0.00669163
0.00668895
0.00668315
0.00667177
0.00662905
0.00650891
0.00622965
0.00570907
0.00499463
0.00416436
0.00330981
0.00251062
0.00182436
0.00128389
0.000900595
0.000658081
0.000514025
0.000419656
0.000331519
0.000195257
0.00670574
0.00670077
0.00669678
0.00669154
0.00668899
0.00668374
0.00667908
0.00666012
0.00660478
0.0064628
0.00615573
0.00561413
0.00489424
0.00407219
0.00323431
0.00245517
0.00178739
0.00126251
0.000890712
0.000654576
0.000514269
0.000420452
0.000332437
0.000196588
0.00670574
0.00670077
0.00669679
0.0066915
0.00668902
0.00668367
0.0066814
0.00667179
0.00664806
0.00657894
0.006416
0.00608833
0.00553003
0.00480716
0.00399425
0.00317248
0.00241056
0.00175906
0.00124657
0.000883176
0.000652952
0.00051448
0.000421815
0.000333818
0.000197278
0.00670574
0.00670077
0.00669678
0.00669148
0.00668903
0.00668352
0.00668207
0.00667564
0.00666616
0.00663377
0.00655174
0.00637348
0.00602617
0.00545564
0.0047338
0.00393094
0.00312301
0.0023762
0.00173745
0.00123491
0.00087913
0.000651993
0.000515649
0.000422666
0.000334577
5.34451e-05
0.00670575
0.00670077
0.00669677
0.00669148
0.00668903
0.00668342
0.00668224
0.00667667
0.00667316
0.00665767
0.0066194
0.0065268
0.00633165
0.00597106
0.00539449
0.00467399
0.00387933
0.00308411
0.00235042
0.00172355
0.00122911
0.000876847
0.000652744
0.000516608
0.000425235
0.000279083
6.35921e-05
0.00670575
0.00670078
0.00669675
0.00669149
0.006689
0.00668337
0.00668225
0.00667683
0.00667562
0.00666725
0.00665084
0.00660555
0.0065013
0.00629706
0.00592666
0.00534148
0.00462417
0.00384069
0.00305894
0.00233647
0.00171714
0.00122632
0.000877535
0.000653984
0.000518882
0.000417462
0.000213371
7.09345e-05
0.00670575
0.00670079
0.00669673
0.00669151
0.00668897
0.00668336
0.00668222
0.00667678
0.00667637
0.00667074
0.00666443
0.00664336
0.00659151
0.00648121
0.00626572
0.00588441
0.00530266
0.00459369
0.0038192
0.0030447
0.00232923
0.00171514
0.00122754
0.000879671
0.000656218
0.00051947
0.000395336
0.000172284
7.61856e-05
0.00670575
0.0067008
0.0066967
0.00669154
0.00668892
0.00668338
0.00668216
0.00667673
0.00667652
0.00667186
0.00666984
0.00666032
0.00663636
0.00658209
0.00646362
0.00623948
0.00586345
0.00528012
0.00457321
0.00380442
0.00303772
0.00232824
0.00171847
0.00123229
0.00088346
0.000659097
0.000516748
0.000360046
0.00014756
7.99627e-05
0.00670575
0.00670081
0.00669668
0.00669158
0.00668887
0.00668341
0.0066821
0.0066767
0.00667649
0.00667212
0.00667178
0.00666739
0.00665728
0.00663409
0.0065721
0.00644939
0.00623173
0.00584804
0.00526381
0.0045611
0.0037995
0.00304004
0.00233555
0.00172813
0.00124027
0.000889308
0.000662188
0.000509385
0.000327667
0.000131729
8.29889e-05
0.00670575
0.00670082
0.00669665
0.00669161
0.00668881
0.00668345
0.00668202
0.0066767
0.00667641
0.00667213
0.00667233
0.00667008
0.00666643
0.00665907
0.00662826
0.00657138
0.0064489
0.00622601
0.00583935
0.00525749
0.00456262
0.00380863
0.00305409
0.00235132
0.00174259
0.00125187
0.000896625
0.000664297
0.000496229
0.000300172
0.00011995
8.53461e-05
0.00670575
0.00670084
0.00669663
0.00669165
0.00668875
0.0066835
0.00668194
0.00667672
0.00667632
0.00667209
0.00667241
0.0066709
0.00667014
0.00667023
0.00665616
0.00663758
0.00657459
0.00645243
0.00622597
0.00584349
0.00526885
0.00457952
0.00383031
0.00307789
0.0023743
0.00176213
0.00126633
0.000905197
0.000665268
0.000481179
0.000276058
0.000111422
8.70809e-05
0.00670575
0.00670084
0.00669661
0.00669168
0.00668869
0.00668356
0.00668186
0.00667675
0.00667622
0.00667206
0.00667235
0.00667108
0.00667141
0.00667483
0.00666949
0.0066712
0.00664337
0.00658368
0.00646235
0.00624136
0.00586453
0.00529436
0.00461009
0.00386377
0.00311131
0.00240444
0.00178617
0.00128386
0.000914921
0.000665107
0.000465251
0.000255819
0.000105743
8.84361e-05
0.00670575
0.00670085
0.00669659
0.00669171
0.00668864
0.00668362
0.00668177
0.0066768
0.00667612
0.00667203
0.00667226
0.00667104
0.00667178
0.00667643
0.00667541
0.006687
0.0066787
0.00665624
0.00660206
0.00648617
0.0062714
0.00590005
0.00533506
0.00465442
0.00390917
0.00315419
0.00244147
0.00181473
0.00130414
0.000925236
0.000664017
0.000449328
0.000240668
0.00010184
8.95586e-05
0.00670086
0.00670575
0.00669657
0.00669174
0.00668859
0.00668367
0.00668169
0.00667686
0.00667601
0.00667203
0.00667217
0.00667095
0.00667183
0.00667685
0.00667774
0.00669413
0.00669594
0.00669423
0.00668058
0.00663242
0.00652376
0.00631606
0.00595175
0.00539105
0.00471287
0.00396645
0.00320649
0.00248525
0.00184766
0.00132711
0.000938172
0.00066229
0.000436559
0.000229041
9.9084e-05
9.05344e-05
0.00669656
0.00670088
0.00670576
0.00669177
0.00668854
0.00668373
0.0066816
0.00667693
0.0066759
0.00667206
0.00667206
0.00667086
0.00667179
0.00667687
0.00667859
0.00669701
0.00670394
0.00671331
0.00672278
0.00671569
0.0066764
0.00657655
0.00637789
0.00602001
0.0054634
0.0047857
0.00403566
0.00326791
0.00253555
0.00188455
0.00135507
0.000953642
0.000662033
0.000425974
0.000220092
9.71392e-05
9.14109e-05
0.00669179
0.00669656
0.00670092
0.00670577
0.0066885
0.00668377
0.00668153
0.006677
0.00667579
0.00667209
0.00667195
0.00667079
0.00667172
0.00667674
0.00667889
0.00669806
0.00670734
0.00672252
0.00674453
0.0067615
0.00676477
0.00673572
0.00664699
0.00645779
0.00610689
0.00555272
0.00487293
0.00411658
0.00333828
0.00259214
0.0019303
0.00138896
0.000971025
0.000662485
0.000417953
0.00021294
9.56839e-05
9.22216e-05
0.00668847
0.00669185
0.00669659
0.00670097
0.00670579
0.00668382
0.00668146
0.00667706
0.00667569
0.00667215
0.00667183
0.00667074
0.00667165
0.00667658
0.006679
0.00669841
0.00670874
0.00672671
0.00675553
0.00678615
0.00681453
0.00682942
0.00681322
0.00673591
0.00655768
0.00621233
0.00565959
0.00497489
0.00420906
0.00341722
0.00266171
0.00198705
0.00142532
0.000989471
0.000664712
0.000411283
0.000207296
9.46717e-05
9.29785e-05
0.00668386
0.00668846
0.00669195
0.00669661
0.00670101
0.0067058
0.00668139
0.00667712
0.00667559
0.0066722
0.00667171
0.00667072
0.00667157
0.00667642
0.00667904
0.00669848
0.00670934
0.00672865
0.00676094
0.00679927
0.0068421
0.00688293
0.00691219
0.00690944
0.00684575
0.00667724
0.00633735
0.00578426
0.00509155
0.00431269
0.00351423
0.00274741
0.00204889
0.00146404
0.00101
0.00066884
0.0004063
0.000202515
9.38555e-05
9.36938e-05
0.00668133
0.00668396
0.00668849
0.00669206
0.00669664
0.00670105
0.00670581
0.00667718
0.00667549
0.00667227
0.00667159
0.00667073
0.00667148
0.00667628
0.00667907
0.00669846
0.00670961
0.00672965
0.0067638
0.00680637
0.00685823
0.0069149
0.00697218
0.00701563
0.00702694
0.00697523
0.00681749
0.00648143
0.00592528
0.0052232
0.00444031
0.00363332
0.00284082
0.00211526
0.00150481
0.00103106
0.000673821
0.000402599
0.00019864
9.33053e-05
9.43723e-05
0.00667724
0.00668131
0.00668412
0.00668852
0.00669216
0.00669667
0.00670109
0.00670582
0.00667541
0.00667233
0.00667147
0.00667076
0.00667137
0.00667617
0.0066791
0.0066984
0.00670977
0.00673027
0.00676552
0.00681053
0.00686778
0.00693445
0.00700942
0.00708315
0.0071445
0.00716919
0.00712776
0.00697653
0.00664315
0.00608251
0.00538451
0.00459813
0.0037635
0.00294094
0.0021857
0.00154808
0.00105266
0.0006799
0.000400028
0.000195315
9.28328e-05
9.50143e-05
0.00667533
0.00667736
0.00668134
0.00668427
0.00668856
0.00669226
0.00669671
0.00670114
0.00670584
0.00667239
0.00667136
0.0066708
0.00667126
0.0066761
0.00667913
0.00669834
0.00670986
0.00673073
0.00676675
0.00681339
0.00687406
0.0069471
0.00703405
0.00712699
0.0072209
0.00729849
0.00733897
0.00730631
0.00715668
0.00682156
0.00627275
0.00558046
0.00476999
0.00390386
0.00304717
0.0022596
0.00159331
0.00107503
0.000687333
0.00039838
0.000192548
9.25312e-05
9.56266e-05
0.00667245
0.00667529
0.00667756
0.00668137
0.00668443
0.0066886
0.00669237
0.00669675
0.00670118
0.00670585
0.00667126
0.00667086
0.00667114
0.00667607
0.00667915
0.00669828
0.00670994
0.00673109
0.00676773
0.00681562
0.00687875
0.00695615
0.00705164
0.00715817
0.00727378
0.00738608
0.00748219
0.00753518
0.00751146
0.00736155
0.00703675
0.00650149
0.00579083
0.00495184
0.00405135
0.00315836
0.00233645
0.00164018
0.00109763
0.000695172
0.00039751
0.000190174
9.22509e-05
9.62028e-05
0.00667116
0.00667257
0.00667528
0.00667775
0.0066814
0.00668459
0.00668865
0.00669247
0.00669679
0.00670122
0.00670587
0.00667091
0.00667101
0.00667609
0.00667915
0.00669822
0.00671001
0.00673142
0.00676858
0.00681754
0.0068826
0.00696343
0.00706533
0.00718211
0.00731442
0.00745055
0.00758441
0.00769547
0.00776041
0.0077419
0.00761644
0.00730563
0.0067422
0.00600921
0.00514083
0.00420477
0.00327353
0.00241557
0.00168813
0.00112125
0.000703225
0.000397311
0.00018815
9.20889e-05
9.67533e-05
0.00667096
0.00667107
0.00667277
0.00667529
0.00667795
0.00668145
0.00668475
0.0066887
0.00669257
0.00669683
0.00670126
0.00670588
0.00667089
0.00667613
0.00667911
0.00669817
0.00671009
0.00673172
0.00676935
0.00681925
0.00688593
0.00696975
0.00707689
0.00720176
0.00734808
0.00750349
0.00766448
0.00781576
0.00794202
0.00801508
0.00802689
0.00792982
0.00760247
0.00700296
0.00623477
0.00533495
0.00436145
0.0033911
0.00249626
0.00173693
0.00114548
0.00071152
0.000397427
0.000186418
9.19247e-05
9.72673e-05
0.00667079
0.00667103
0.00667099
0.00667296
0.00667531
0.00667814
0.0066815
0.0066849
0.00668877
0.00669267
0.00669688
0.0067013
0.0067059
0.0066762
0.00667902
0.00669815
0.00671017
0.006732
0.00677005
0.00682081
0.0068889
0.00697545
0.0070871
0.00721898
0.00737731
0.00754973
0.00773436
0.0079156
0.00808568
0.00822265
0.00833209
0.00838042
0.00827199
0.0079194
0.00728074
0.00646555
0.0055297
0.00451957
0.00351031
0.00257792
0.00178626
0.00116993
0.000719895
0.000398137
0.000184908
9.18424e-05
9.77592e-05
0.00667627
0.00667057
0.00667114
0.00667091
0.00667315
0.00667534
0.00667833
0.00668157
0.00668505
0.00668884
0.00669277
0.00669694
0.00670134
0.00670591
0.00667889
0.00669818
0.00671026
0.00673228
0.0067707
0.00682223
0.00689158
0.00698066
0.00709631
0.00723467
0.00740377
0.00759103
0.00779855
0.00800764
0.0082117
0.00839515
0.00857493
0.00872903
0.00876959
0.00864004
0.00825294
0.00757176
0.00670656
0.00572578
0.00467832
0.00362978
0.00265984
0.00183576
0.00119453
0.000728459
0.000398928
0.000183634
9.17583e-05
9.82147e-05
0.00667873
0.00667623
0.00667021
0.00667124
0.00667085
0.00667333
0.0066754
0.0066785
0.00668166
0.00668519
0.00668892
0.00669286
0.00669699
0.00670138
0.00670593
0.00669826
0.00671037
0.00673254
0.00677129
0.00682354
0.00689404
0.00698546
0.0071047
0.00724921
0.00742813
0.00762902
0.00785822
0.0080958
0.00833313
0.0085539
0.00878794
0.00902147
0.0091709
0.00919227
0.00903109
0.00860059
0.00787003
0.00695396
0.00592075
0.00483507
0.00374836
0.00274149
0.00188513
0.00121915
0.000736969
0.000399853
0.000182498
9.17165e-05
9.86516e-05
0.00669842
0.00667798
0.00667612
0.00666986
0.00667133
0.00667083
0.0066735
0.00667548
0.00667867
0.00668176
0.00668533
0.00668901
0.00669296
0.00669705
0.00670142
0.00670594
0.00671048
0.00673279
0.00677183
0.00682473
0.00689629
0.00698987
0.00711238
0.00726275
0.00745065
0.00766459
0.00791474
0.00817938
0.00845274
0.00871351
0.0089949
0.00929337
0.00952563
0.00965758
0.00964734
0.00944338
0.00896006
0.00817357
0.00720549
0.00611745
0.00498919
0.0038653
0.00282223
0.00193408
0.0012436
0.000745586
0.00040088
0.000181604
9.16941e-05
9.90526e-05
0.00671056
0.00669803
0.00667653
0.00667598
0.00666957
0.00667139
0.00667086
0.00667364
0.00667559
0.00667883
0.00668188
0.00668547
0.00668911
0.00669305
0.00669711
0.00670146
0.00670595
0.006733
0.00677231
0.00682582
0.00689835
0.00699393
0.00711943
0.00727534
0.00747147
0.00769818
0.00796852
0.00825882
0.00856864
0.00887767
0.00921288
0.00957114
0.00987409
0.0100928
0.0101933
0.0101368
0.00987674
0.00932992
0.00848086
0.00745736
0.00631529
0.00514046
0.00397998
0.00290172
0.00198235
0.00126778
0.000754135
0.000402012
0.000180731
9.16697e-05
9.94385e-05
0.0067332
0.00670964
0.00669713
0.00667532
0.00667577
0.00666937
0.00667141
0.00667093
0.00667376
0.00667573
0.00667897
0.00668202
0.00668559
0.00668921
0.00669313
0.00669717
0.00670149
0.00670597
0.00677271
0.00682681
0.00690026
0.00699764
0.00712592
0.00728701
0.00749071
0.00772992
0.00801935
0.00833454
0.0086822
0.00904312
0.00944259
0.00987392
0.0102506
0.010551
0.0107407
0.010789
0.0106656
0.0103323
0.00970942
0.00879062
0.00770784
0.00651241
0.00528878
0.00409212
0.00297953
0.00202974
0.00129156
0.000762669
0.000403164
0.000180044
9.16903e-05
9.97899e-05
0.00677307
0.00673168
0.00670758
0.00669578
0.00667445
0.00667541
0.00666929
0.00667136
0.00667106
0.00667385
0.00667589
0.00667911
0.00668216
0.00668572
0.00668931
0.00669321
0.00669722
0.00670153
0.00670598
0.00682771
0.006902
0.00700105
0.00713188
0.00729778
0.0075085
0.00775982
0.00806705
0.008407
0.00879425
0.00920821
0.00967244
0.0102047
0.0106934
0.011092
0.0113691
0.0114963
0.0114579
0.0112388
0.0108112
0.010098
0.00910177
0.00795612
0.00670738
0.00543333
0.00420096
0.00305528
0.00207603
0.00131486
0.000771037
0.000404344
0.00017938
9.16765e-05
0.00010013
0.00682858
0.00677043
0.00672831
0.00670553
0.0066941
0.00667395
0.00667487
0.00666934
0.00667126
0.00667124
0.00667393
0.00667607
0.00667924
0.00668231
0.00668583
0.00668941
0.00669329
0.00669728
0.00670156
0.00670599
0.00690361
0.00700416
0.00713735
0.00730768
0.00752494
0.00778781
0.00811159
0.00847659
0.00890402
0.00936986
0.00989996
0.0105636
0.0112353
0.0117932
0.0121718
0.0123661
0.0123744
0.0122045
0.0118568
0.0113126
0.0104946
0.0094133
0.00820146
0.00689935
0.00557485
0.00430597
0.00312869
0.00212107
0.00133759
0.000779281
0.000405568
0.000178849
9.17235e-05
0.000100399
0.00690511
0.0068252
0.00676457
0.00672502
0.00670345
0.00669212
0.00667383
0.00667417
0.00666952
0.00667111
0.00667146
0.006674
0.00667627
0.00667937
0.00668246
0.00668595
0.00668951
0.00669337
0.00669733
0.00670159
0.006706
0.00700699
0.00714236
0.00731675
0.0075401
0.00781385
0.0081531
0.00854335
0.00900985
0.00952577
0.0101307
0.0109694
0.0118886
0.0126987
0.0132374
0.0134965
0.013528
0.0133594
0.0130172
0.0125127
0.0118327
0.0108973
0.00972404
0.00844315
0.00708702
0.00571379
0.00440725
0.0031996
0.00216473
0.00135969
0.000787303
0.000406717
0.000178348
9.17157e-05
0.000100627
0.0070096
0.00690029
0.00681724
0.00675872
0.00672191
0.00670147
0.00668961
0.00667403
0.00667333
0.00666978
0.00667094
0.00667171
0.00667406
0.00667647
0.00667949
0.0066826
0.00668606
0.0066896
0.00669344
0.00669739
0.00670163
0.00670601
0.00714694
0.00732502
0.00755404
0.00783794
0.00819176
0.00860695
0.00911023
0.00967626
0.0103734
0.0114339
0.0126445
0.0137459
0.0145333
0.0149179
0.0149691
0.0147842
0.0144059
0.0138695
0.0131924
0.0123646
0.011303
0.0100326
0.00868045
0.00726949
0.00584939
0.00450483
0.00326791
0.0022069
0.00138109
0.000795088
0.00040798
0.000177985
9.1766e-05
0.000100871
0.00715113
0.00700299
0.00688853
0.0068093
0.00675312
0.00671899
0.00670016
0.0066868
0.00667443
0.00667244
0.00667008
0.00667077
0.00667196
0.00667414
0.00667666
0.00667962
0.00668274
0.00668617
0.00668969
0.00669352
0.00669744
0.00670166
0.00670602
0.00733256
0.00756681
0.00786011
0.00822769
0.00866695
0.00920445
0.00982347
0.0106338
0.0119483
0.013456
0.0148305
0.0158631
0.0164676
0.0166285
0.0164485
0.0160429
0.0154569
0.0147283
0.0138779
0.0128994
0.0117079
0.0103373
0.00891257
0.0074465
0.00598109
0.0045987
0.00333354
0.00224752
0.00140176
0.000802687
0.000408969
0.000177676
9.17576e-05
0.00010114
0.00733939
0.00714213
0.00698609
0.00687674
0.00680156
0.00674779
0.00671617
0.00669915
0.00668388
0.00667491
0.00667158
0.00667038
0.00667064
0.00667219
0.00667424
0.00667683
0.00667975
0.00668287
0.00668628
0.00668978
0.00669359
0.00669748
0.00670169
0.00670602
0.00757848
0.00788041
0.00826097
0.00872295
0.00929271
0.00996965
0.0109107
0.0124881
0.0142599
0.0158486
0.0170684
0.0178712
0.0182478
0.0181992
0.0178206
0.0172277
0.0164624
0.0155625
0.0145513
0.0134277
0.0121077
0.0106365
0.00913874
0.00761779
0.00610852
0.00468882
0.00339646
0.00228655
0.00142166
0.000809045
0.000409908
0.000177375
9.18314e-05
0.000101427
0.00758906
0.00732762
0.00711815
0.00696911
0.00686522
0.00679399
0.00674262
0.00671356
0.00669825
0.00668105
0.00667532
0.00667083
0.00667062
0.00667058
0.00667238
0.00667435
0.00667699
0.00667988
0.00668299
0.00668639
0.00668987
0.00669366
0.00669753
0.0067017
0.00670602
0.00789898
0.00829164
0.0087748
0.00937566
0.0101158
0.0111968
0.0130239
0.0150039
0.0167322
0.0180648
0.0190006
0.0195615
0.0197471
0.0195443
0.0190231
0.0182921
0.0173885
0.0163483
0.0151976
0.013941
0.0124984
0.0109282
0.00935825
0.00778312
0.00623138
0.0047752
0.00345666
0.00232394
0.00143826
0.000814497
0.000410869
0.000177051
9.18242e-05
0.000101746
0.00791567
0.00757361
0.00729425
0.00709407
0.00695249
0.006854
0.00678653
0.00673774
0.0067111
0.00669738
0.0066785
0.00667553
0.00667028
0.00667075
0.00667059
0.00667253
0.00667449
0.00667714
0.00668002
0.00668311
0.00668649
0.00668995
0.00669373
0.00669756
0.0067017
0.00670602
0.00831983
0.00882253
0.00945406
0.0102613
0.0114822
0.0135314
0.0156575
0.0174554
0.018832
0.0198324
0.0205104
0.0208859
0.0209417
0.0206445
0.0200367
0.0192171
0.0182174
0.017071
0.0158058
0.0144324
0.0128763
0.011211
0.00957043
0.00794225
0.0063495
0.00485785
0.00351414
0.00235497
0.00145248
0.000820588
0.000412088
0.000176732
9.19272e-05
0.000102088
0.00834516
0.00789615
0.00752754
0.00726072
0.00707048
0.00693628
0.00684302
0.00677912
0.00673327
0.00670869
0.00669643
0.00667657
0.00667542
0.00666997
0.00667079
0.00667067
0.00667266
0.00667464
0.00667727
0.00668016
0.00668322
0.0066866
0.00669003
0.00669376
0.00669756
0.0067017
0.00670602
0.00886641
0.00952847
0.0104044
0.011757
0.0139952
0.0162103
0.0180219
0.0193889
0.020397
0.0211279
0.021622
0.0218775
0.0218587
0.0215162
0.020868
0.020002
0.018944
0.0177236
0.0163692
0.0148967
0.0132384
0.0114835
0.0097747
0.00809504
0.00646276
0.00493677
0.00356171
0.00238151
0.00146825
0.000827338
0.00041331
0.000176401
9.19211e-05
0.000102467
0.00890568
0.00832029
0.00783343
0.00748131
0.00722782
0.00704747
0.00692045
0.00683227
0.00677174
0.00672901
0.00670625
0.00669498
0.00667545
0.00667498
0.00666988
0.00667074
0.00667081
0.00667276
0.0066748
0.0066774
0.0066803
0.00668333
0.0066867
0.00669007
0.00669376
0.00669756
0.0067017
0.00670602
0.00959922
0.0105426
0.0120141
0.0144084
0.0166656
0.0184507
0.019771
0.0207452
0.0214774
0.0220265
0.0224062
0.0225942
0.0225422
0.0221903
0.021536
0.0206567
0.0195715
0.018305
0.0168848
0.015331
0.0135826
0.0117444
0.00997061
0.00824136
0.00657109
0.00500212
0.00360233
0.0024108
0.00148572
0.000834932
0.000414902
0.000176067
9.20601e-05
0.000102872
0.00966407
0.00887445
0.00823504
0.00777044
0.00743593
0.00719568
0.00702502
0.00690501
0.00682176
0.00676453
0.00672488
0.00670378
0.00669282
0.00667502
0.0066743
0.00666995
0.00667064
0.00667097
0.00667284
0.00667497
0.00667751
0.00668044
0.00668343
0.00668676
0.00669007
0.00669376
0.00669756
0.0067017
0.00670602
0.0106742
0.0122555
0.0147705
0.0170335
0.018766
0.0200161
0.0209286
0.021625
0.022179
0.0226189
0.0229358
0.0230936
0.0230368
0.0227
0.0220642
0.021196
0.0201076
0.0188179
0.0173524
0.0157339
0.0139075
0.0119931
0.0101579
0.00838115
0.0066609
0.00505791
0.00364701
0.00244318
0.00150518
0.000843365
0.000416479
0.000175743
9.20591e-05
0.000103322
0.0107927
0.00962464
0.00875764
0.00814969
0.00770852
0.00739156
0.0071643
0.00700312
0.00688997
0.00681159
0.00675742
0.00672098
0.00670139
0.00669007
0.00667504
0.00667351
0.00667011
0.00667052
0.00667116
0.00667291
0.00667514
0.00667762
0.00668058
0.00668348
0.00668676
0.00669007
0.00669376
0.00669756
0.0067017
0.00670602
0.0124802
0.0150802
0.017327
0.0189913
0.0201582
0.0209923
0.0216277
0.0221501
0.0226005
0.0229827
0.0232721
0.0234244
0.0233819
0.0230763
0.0224755
0.0216357
0.020562
0.0192674
0.0177737
0.0161052
0.0142125
0.012229
0.0103363
0.0084969
0.00673762
0.00511953
0.00369619
0.00247904
0.00152682
0.00085293
0.000418566
0.00017539
9.22438e-05
0.000103801
0.0107477
0.0126789
0.009452
0.00864285
0.00806559
0.00764794
0.00734819
0.00713368
0.0069818
0.00687538
0.0068019
0.00675054
0.00671741
0.00669966
0.00668705
0.00667529
0.0066727
0.0066703
0.00667041
0.00667135
0.00667298
0.00667531
0.00667773
0.00668065
0.00668347
0.00668677
0.00669007
0.00669376
0.00669756
0.00670169
0.00670601
0.0153416
0.0175587
0.0191473
0.020225
0.0209718
0.0215306
0.021996
0.0224198
0.0228181
0.0231771
0.0234622
0.0236255
0.0236096
0.0233459
0.0227908
0.0219912
0.0209453
0.0196593
0.0181513
0.0164458
0.0144976
0.0124521
0.0104836
0.00859568
0.00682204
0.00518783
0.00375045
0.0025188
0.00155107
0.000863572
0.000420636
0.00017507
9.22551e-05
0.000104335
0.0104826
0.0126326
0.0155572
0.00928678
0.00853058
0.00798309
0.00758871
0.00730584
0.00710385
0.0069611
0.00686132
0.00679268
0.0067441
0.00671416
0.00669846
0.00668411
0.00667559
0.00667197
0.00667049
0.00667032
0.00667153
0.00667306
0.00667548
0.00667778
0.00668067
0.00668347
0.00668677
0.00669008
0.00669376
0.00669754
0.00670166
0.006706
0.0177406
0.0192509
0.0202383
0.0208942
0.0213677
0.0217595
0.0221301
0.0225066
0.022887
0.0232454
0.0235414
0.0237267
0.0237459
0.0235309
0.0230284
0.0222765
0.0212672
0.0200001
0.0184889
0.0167571
0.014763
0.0126345
0.0106089
0.00870427
0.00691501
0.00526362
0.00381045
0.00256302
0.00157811
0.000875757
0.000423394
0.0001747
9.24962e-05
0.0001049
0.0102201
0.012264
0.0154842
0.017878
0.00913061
0.00842028
0.00790233
0.00753082
0.00726454
0.00707485
0.00694106
0.0068478
0.00678386
0.00673812
0.00671129
0.00669746
0.00668145
0.00667581
0.00667136
0.00667064
0.00667025
0.00667171
0.00667314
0.00667558
0.00667776
0.00668068
0.00668347
0.00668677
0.00669008
0.00669373
0.00669749
0.00670163
0.00670599
0.0193154
0.0202145
0.0207798
0.0211639
0.0214719
0.0217707
0.0220972
0.0224608
0.0228459
0.0232186
0.0235358
0.0237509
0.0238114
0.0236494
0.0232034
0.0225039
0.0215368
0.020296
0.0187901
0.017041
0.0149768
0.0127889
0.0107461
0.00882377
0.00701757
0.00534784
0.00387696
0.00261224
0.00160864
0.000889348
0.000426171
0.000174407
9.25336e-05
0.00010553
0.00997405
0.0118584
0.0151388
0.017772
0.0193439
0.00898108
0.00831173
0.00782339
0.00747432
0.00722436
0.00704675
0.00692174
0.00683488
0.00677556
0.00673274
0.00670875
0.00669653
0.00667921
0.00667586
0.00667089
0.00667075
0.00667023
0.00667187
0.00667317
0.0066756
0.00667776
0.00668068
0.00668348
0.00668677
0.00669005
0.00669366
0.00669744
0.0067016
0.00670598
0.0201656
0.020643
0.0209372
0.0211561
0.0213709
0.0216265
0.0219433
0.022317
0.0227218
0.0231186
0.0234646
0.0237159
0.0238222
0.023716
0.0233286
0.0226836
0.0217623
0.0205527
0.0190586
0.0172649
0.0151558
0.0129566
0.0108965
0.0089554
0.00713087
0.00544158
0.00395089
0.00266726
0.00164278
0.000905088
0.000429851
0.000174036
9.28434e-05
0.000106193
0.00974515
0.011454
0.0147001
0.0175496
0.0191871
0.0200922
0.00883599
0.00820509
0.00774642
0.0074193
0.00718541
0.00701961
0.00690327
0.00682283
0.00676788
0.00672801
0.0067064
0.00669555
0.00667761
0.00667571
0.00667057
0.00667082
0.00667023
0.00667198
0.00667314
0.00667562
0.00667776
0.00668069
0.00668349
0.00668672
0.00668997
0.0066936
0.00669739
0.00670157
0.00670597
0.0204939
0.0207004
0.0208284
0.0209521
0.0211221
0.0213688
0.0216997
0.0220992
0.0225335
0.0229617
0.0233426
0.0236353
0.0237912
0.0237424
0.0234142
0.0228246
0.0219507
0.0207755
0.0192656
0.0174502
0.0153481
0.0131389
0.0110612
0.00910049
0.00725623
0.00554607
0.00403332
0.0027288
0.00168167
0.0009227
0.000433683
0.00017383
9.29349e-05
0.000106931
0.00953067
0.0110673
0.0142077
0.0172478
0.0190378
0.0198844
0.0203288
0.00869435
0.00810067
0.00767154
0.00736589
0.00714776
0.00699364
0.00688608
0.00681178
0.00676075
0.0067239
0.00670415
0.00669414
0.00667664
0.00667538
0.00667038
0.00667087
0.00667023
0.00667201
0.00667313
0.00667563
0.00667777
0.00668068
0.00668345
0.00668661
0.00668989
0.00669353
0.00669733
0.00670154
0.00670596
0.020462
0.0205004
0.0205297
0.0206047
0.0207639
0.0210263
0.021388
0.0218235
0.0222943
0.0227594
0.023181
0.0235201
0.0237286
0.0237381
0.0234687
0.0229341
0.0221081
0.0209424
0.0194346
0.0176462
0.0155543
0.0133366
0.0112416
0.0092605
0.00739514
0.00566272
0.00412545
0.00279807
0.00172536
0.000943374
0.000438656
0.000173471
9.33248e-05
0.000107701
0.00932771
0.0107048
0.013684
0.0168859
0.018824
0.0197667
0.0200702
0.020213
0.00855594
0.00799881
0.00759893
0.00731421
0.00711176
0.00696951
0.0068704
0.00680166
0.00675408
0.00672021
0.00670203
0.00669224
0.00667614
0.00667494
0.00667028
0.0066709
0.00667021
0.00667203
0.00667314
0.00667563
0.00667779
0.00668061
0.00668335
0.00668651
0.00668981
0.00669346
0.00669728
0.00670151
0.00670594
0.0201797
0.0201148
0.0200896
0.0201494
0.0203229
0.0206191
0.0210229
0.0215012
0.0220134
0.0225209
0.0229888
0.0233789
0.0236425
0.0237106
0.0234989
0.023018
0.0222206
0.0210768
0.0196106
0.0178529
0.0157748
0.0135508
0.011439
0.009437
0.00754924
0.00579314
0.00422879
0.00287598
0.00177563
0.000966613
0.000444119
0.000173455
9.35257e-05
0.000108703
0.00913433
0.0103696
0.0131409
0.016474
0.0185693
0.0195978
0.0199559
0.0199033
0.0198516
0.00842096
0.00789986
0.00752879
0.00726477
0.00707834
0.00694753
0.00685609
0.00679243
0.0067479
0.00671696
0.00670019
0.00668995
0.00667594
0.00667449
0.0066703
0.00667088
0.00667022
0.00667205
0.00667316
0.00667562
0.00667776
0.00668048
0.00668325
0.0066864
0.00668972
0.00669339
0.00669722
0.00670148
0.00670593
0.0197145
0.019588
0.019541
0.0196108
0.0198186
0.0201609
0.020614
0.0211396
0.0216976
0.0222533
0.0227734
0.0232188
0.0235396
0.0236658
0.0235103
0.0230713
0.0223095
0.0212138
0.019793
0.0180702
0.0160099
0.0137823
0.0116549
0.00963166
0.00772039
0.0059392
0.00434498
0.0029644
0.00183241
0.000994308
0.000450937
0.000173174
9.40893e-05
0.000109908
0.00894928
0.0100597
0.0125864
0.0160132
0.0182848
0.0194034
0.019799
0.0197756
0.0194901
0.0193136
0.00828963
0.00780423
0.00746174
0.00721889
0.00704793
0.00692752
0.00684306
0.00678413
0.00674225
0.00671412
0.00669896
0.00668762
0.00667588
0.00667415
0.00667038
0.00667088
0.00667024
0.00667205
0.00667319
0.00667554
0.00667765
0.00668035
0.00668315
0.0066863
0.00668963
0.00669332
0.00669716
0.00670145
0.00670592
0.0191069
0.0189507
0.018907
0.0190089
0.0192638
0.0196604
0.0201674
0.0207431
0.0213523
0.0219626
0.022541
0.0230458
0.023425
0.0236086
0.0235054
0.0231111
0.0223968
0.0213525
0.0199808
0.0182975
0.0162598
0.0140319
0.0118904
0.00984622
0.00791057
0.00610294
0.00447607
0.00306447
0.00189852
0.0010257
0.000459016
0.000173599
9.46581e-05
0.000111107