/*--------------------------------*- C++ -*----------------------------------*\
  =========                 |
  \\      /  F ield         | OpenFOAM: The Open Source CFD Toolbox
   \\    /   O peration     | Website:  https://openfoam.org
    \\  /    A nd           | Version:  8
     \\/     M anipulation  |
\*---------------------------------------------------------------------------*/
FoamFile
{
    version     2.0;
    format      ascii;
    class       volScalarField;
    location    "0.05";
    object      k;
}
// * * * * * * * * * * * * * * * * * * * * * * * * * * * * * * * * * * * * * //

dimensions      [0 2 -2 0 0 0 0];

internalField   nonuniform List<scalar> 
15677
(
0.333993
0.364681
0.294343
0.368612
0.357026
0.280635
0.37064
0.359748
0.36565
0.282425
0.371856
0.361483
0.36118
0.383041
0.288684
0.372596
0.363666
0.357592
0.368119
0.401553
0.300143
0.373031
0.365622
0.357772
0.358027
0.37999
0.419279
0.311752
0.373261
0.367161
0.35942
0.354516
0.360946
0.393207
0.434747
0.322521
0.373348
0.368292
0.361333
0.354729
0.353006
0.366836
0.406152
0.447828
0.332071
0.37335
0.369074
0.363051
0.356311
0.351088
0.353454
0.373546
0.418228
0.458722
0.340472
0.373315
0.369562
0.364434
0.3582
0.351909
0.348757
0.354771
0.380661
0.429092
0.46789
0.347513
0.373275
0.369821
0.365458
0.359948
0.353703
0.34836
0.347139
0.357092
0.387651
0.438842
0.475361
0.353792
0.373249
0.369924
0.366146
0.361388
0.355655
0.349746
0.345349
0.346308
0.359704
0.394465
0.447219
0.481838
0.358973
0.373238
0.369938
0.366546
0.362473
0.35742
0.351707
0.3462
0.342915
0.345887
0.362625
0.400677
0.454746
0.487132
0.363613
0.373237
0.36992
0.366735
0.363206
0.358855
0.35367
0.348065
0.343082
0.340858
0.345908
0.365473
0.406592
0.46109
0.491703
0.367672
0.373238
0.369905
0.366792
0.363633
0.359914
0.35538
0.35015
0.34474
0.340286
0.339195
0.346045
0.368411
0.411779
0.466704
0.495498
0.371257
0.373239
0.369898
0.366792
0.363832
0.360606
0.356729
0.352082
0.34687
0.341692
0.337816
0.337745
0.346388
0.371101
0.416568
0.471377
0.498847
0.374549
0.373239
0.369896
0.366782
0.36389
0.360987
0.357684
0.353684
0.348968
0.343825
0.338917
0.335579
0.336535
0.346795
0.373732
0.420637
0.475491
0.501745
0.377353
0.373238
0.369895
0.366774
0.363899
0.361136
0.358271
0.354883
0.350787
0.346054
0.341008
0.336371
0.333585
0.335472
0.34731
0.376013
0.424316
0.478888
0.504302
0.380195
0.373237
0.369895
0.366769
0.363895
0.361179
0.358541
0.355675
0.352213
0.348063
0.343333
0.33841
0.334053
0.331783
0.334587
0.347753
0.378164
0.427323
0.481867
0.506681
0.382397
0.373236
0.369895
0.366765
0.363889
0.361183
0.358647
0.356075
0.353211
0.349694
0.345505
0.340817
0.336023
0.331947
0.330179
0.333794
0.348236
0.379916
0.430013
0.484329
0.508705
0.385026
0.373236
0.369895
0.366762
0.363885
0.361176
0.358681
0.356248
0.353757
0.350882
0.347325
0.34314
0.338497
0.333857
0.330044
0.32875
0.333131
0.348608
0.381532
0.432101
0.486463
0.510834
0.386776
0.373236
0.369895
0.36676
0.363881
0.361167
0.358686
0.356312
0.354021
0.351563
0.3487
0.345137
0.340954
0.336401
0.3319
0.328362
0.327505
0.332551
0.348978
0.382744
0.433971
0.488243
0.512524
0.389382
0.373236
0.369895
0.366759
0.363878
0.361159
0.358682
0.356327
0.354137
0.351909
0.349532
0.346686
0.343117
0.338997
0.33452
0.330188
0.326896
0.32645
0.332074
0.349251
0.383869
0.435298
0.489823
0.514663
0.390804
0.373236
0.369894
0.366758
0.363875
0.361153
0.358675
0.356322
0.35418
0.352068
0.349983
0.347647
0.34484
0.341332
0.337255
0.332896
0.328717
0.32569
0.325602
0.331733
0.349509
0.384594
0.436569
0.491115
0.5161
0.393423
0.373236
0.369894
0.366757
0.363873
0.361148
0.358668
0.356312
0.354188
0.352129
0.350212
0.348179
0.345955
0.343227
0.339747
0.335786
0.331554
0.32757
0.324757
0.324978
0.331439
0.349691
0.385329
0.437333
0.49249
0.518632
0.394791
0.373236
0.369893
0.366757
0.363871
0.361145
0.358662
0.356302
0.354181
0.352142
0.350314
0.348454
0.346606
0.344464
0.341806
0.338484
0.334641
0.330554
0.326694
0.324093
0.324585
0.331421
0.349953
0.385755
0.438267
0.493382
0.520279
0.504455
0.373236
0.369893
0.366757
0.363869
0.361142
0.358656
0.356292
0.35417
0.352135
0.350348
0.348578
0.34697
0.345187
0.343211
0.340762
0.337507
0.333793
0.32987
0.32628
0.323908
0.324616
0.331514
0.35018
0.386241
0.438708
0.49538
0.528978
0.710326
0.373236
0.369892
0.366756
0.363868
0.361141
0.358652
0.356285
0.354158
0.352121
0.350349
0.348621
0.347152
0.345588
0.344085
0.342293
0.339918
0.336951
0.333547
0.329881
0.326372
0.324058
0.324828
0.331759
0.3505
0.386599
0.439619
0.495952
0.545749
0.885269
0.373237
0.369892
0.366756
0.363866
0.361139
0.358648
0.356279
0.354148
0.352106
0.350334
0.348625
0.347225
0.345788
0.344606
0.343216
0.341663
0.339768
0.33704
0.333759
0.330183
0.326771
0.324513
0.325327
0.332261
0.350945
0.387018
0.440307
0.495663
0.558541
1.02659
0.373237
0.369892
0.366756
0.363865
0.361138
0.358645
0.356274
0.354138
0.352093
0.350315
0.348611
0.347239
0.345873
0.344888
0.343754
0.342818
0.341735
0.340025
0.337492
0.3344
0.33096
0.327656
0.325439
0.326276
0.333084
0.351541
0.387637
0.440054
0.494173
0.567978
1.14865
0.373237
0.369891
0.366756
0.363864
0.361137
0.358642
0.356271
0.35413
0.352081
0.350296
0.34859
0.347224
0.345895
0.345015
0.344042
0.343542
0.34298
0.342161
0.34076
0.338512
0.335711
0.332469
0.329223
0.326954
0.327632
0.334232
0.352394
0.388122
0.439144
0.491028
0.574432
1.24732
0.373237
0.369891
0.366756
0.363863
0.361137
0.358639
0.356268
0.354124
0.352072
0.35028
0.348569
0.347197
0.345885
0.345049
0.34418
0.343963
0.343768
0.343556
0.343149
0.342241
0.340414
0.33786
0.334721
0.331451
0.329012
0.329447
0.33574
0.353438
0.388474
0.437244
0.485648
0.578604
1.31979
0.373238
0.369891
0.366756
0.363862
0.361137
0.358637
0.356265
0.354118
0.352064
0.350267
0.34855
0.347169
0.34586
0.345036
0.34424
0.344181
0.344236
0.344456
0.344776
0.345039
0.344658
0.343192
0.340849
0.337767
0.334365
0.331682
0.331728
0.337621
0.354672
0.388424
0.434019
0.478882
0.581232
1.37471
0.373238
0.36989
0.366757
0.363862
0.361136
0.358635
0.356263
0.354113
0.352057
0.350255
0.348534
0.347144
0.34583
0.345003
0.344246
0.344261
0.344488
0.345009
0.345866
0.346961
0.347888
0.348062
0.346945
0.344778
0.341652
0.338043
0.334967
0.334512
0.339863
0.356021
0.38814
0.429722
0.472123
0.583474
1.41806
0.36989
0.373242
0.366757
0.363861
0.361136
0.358633
0.356262
0.354108
0.352052
0.350245
0.348519
0.347122
0.345802
0.344967
0.344222
0.344278
0.344603
0.345325
0.346565
0.348276
0.350159
0.351829
0.352576
0.351789
0.349707
0.34646
0.342493
0.338918
0.337767
0.342449
0.357637
0.387478
0.425276
0.465762
0.585735
1.45374
0.366757
0.3699
0.373249
0.36386
0.361136
0.358632
0.35626
0.354104
0.352047
0.350236
0.348507
0.347103
0.345777
0.344932
0.344189
0.34426
0.344642
0.345494
0.346997
0.349158
0.351765
0.35454
0.357007
0.358338
0.357805
0.355734
0.35221
0.347776
0.343493
0.341503
0.345696
0.359644
0.386603
0.420886
0.460044
0.588421
1.48431
0.36386
0.366773
0.369921
0.373257
0.361136
0.35863
0.356259
0.354101
0.352044
0.350228
0.348497
0.347086
0.345754
0.344901
0.344154
0.344231
0.344641
0.345575
0.34726
0.349742
0.352893
0.356524
0.360274
0.363584
0.365454
0.365107
0.362888
0.358971
0.353845
0.348712
0.346147
0.349645
0.36181
0.385741
0.416854
0.455035
0.591422
1.5113
0.361136
0.363881
0.366807
0.369942
0.373265
0.358629
0.356259
0.354098
0.352041
0.350221
0.348488
0.347071
0.345734
0.344874
0.344122
0.344199
0.344624
0.345608
0.347417
0.350135
0.353692
0.357983
0.362747
0.367548
0.371693
0.374059
0.373737
0.371249
0.3667
0.360728
0.355168
0.351964
0.35392
0.364157
0.384997
0.413129
0.450731
0.594914
1.53577
0.358628
0.361163
0.363926
0.366842
0.369964
0.373273
0.356258
0.354095
0.352038
0.350215
0.348481
0.347058
0.345717
0.34485
0.344093
0.344169
0.344602
0.345617
0.347512
0.35041
0.354279
0.359082
0.364648
0.370648
0.376522
0.381493
0.384214
0.383795
0.380778
0.375429
0.369213
0.363178
0.358363
0.358486
0.366653
0.384439
0.409807
0.447085
0.598625
1.55824
0.356258
0.358659
0.361219
0.363971
0.366878
0.369986
0.373282
0.354092
0.352036
0.350209
0.348475
0.347047
0.345703
0.344829
0.344068
0.344142
0.344581
0.345618
0.347574
0.35061
0.354737
0.359952
0.366164
0.373134
0.380419
0.387384
0.39307
0.396038
0.395243
0.391522
0.386166
0.379697
0.371944
0.365247
0.363301
0.369343
0.384171
0.406863
0.444009
0.602692
1.5792
0.35409
0.356293
0.358722
0.361277
0.364018
0.366914
0.370009
0.373291
0.352035
0.350204
0.34847
0.347037
0.34569
0.344811
0.344046
0.344119
0.344561
0.345617
0.34762
0.350765
0.355108
0.360686
0.367439
0.37522
0.383678
0.392292
0.400253
0.406572
0.409501
0.408145
0.404726
0.399411
0.391136
0.381349
0.372528
0.368313
0.372144
0.384236
0.404374
0.441382
0.606807
1.59876
0.352033
0.354128
0.356367
0.358788
0.361335
0.364067
0.366952
0.370032
0.373299
0.3502
0.348466
0.347027
0.34568
0.344795
0.344027
0.344099
0.344545
0.345616
0.347659
0.350895
0.355418
0.361321
0.368579
0.377067
0.386533
0.396555
0.406431
0.415327
0.421991
0.424705
0.424001
0.421002
0.413842
0.40338
0.391274
0.38012
0.373502
0.374982
0.384457
0.402245
0.439208
0.611138
1.61724
0.350196
0.352075
0.354206
0.356442
0.358855
0.361396
0.364116
0.36699
0.370057
0.373309
0.348462
0.347019
0.345671
0.344781
0.344011
0.344081
0.34453
0.345615
0.347694
0.35101
0.35569
0.361875
0.369613
0.378795
0.38917
0.400437
0.41198
0.423087
0.432635
0.439484
0.443419
0.443568
0.438727
0.429267
0.416275
0.401603
0.38794
0.378839
0.377857
0.384906
0.400502
0.437377
0.615381
1.63454
0.348459
0.350237
0.352162
0.354287
0.35652
0.358925
0.361458
0.364167
0.36703
0.370082
0.373318
0.347011
0.345664
0.344768
0.343996
0.344066
0.344519
0.345616
0.347727
0.351115
0.355935
0.362372
0.370544
0.380417
0.391727
0.404157
0.417213
0.430279
0.442326
0.452393
0.461143
0.466633
0.464919
0.45767
0.445484
0.429664
0.412218
0.395908
0.384263
0.380761
0.385547
0.399028
0.435886
0.619736
1.65096
0.347004
0.348503
0.350324
0.352251
0.354371
0.3566
0.358996
0.361522
0.364219
0.367071
0.370107
0.373328
0.345658
0.344757
0.343984
0.344053
0.344509
0.345617
0.347757
0.35121
0.356158
0.362826
0.371395
0.381909
0.394194
0.407876
0.422387
0.43728
0.451578
0.464461
0.477002
0.488211
0.492119
0.4878
0.477594
0.462301
0.443394
0.423004
0.403949
0.389718
0.383697
0.386366
0.397884
0.434652
0.62391
1.66631
0.345653
0.347042
0.348595
0.350415
0.352343
0.354457
0.356682
0.359069
0.361588
0.364273
0.367112
0.370134
0.373337
0.344746
0.343973
0.344042
0.3445
0.345619
0.347785
0.351298
0.356362
0.363243
0.372179
0.383293
0.39651
0.411554
0.427693
0.4444
0.460846
0.476314
0.492242
0.508031
0.51816
0.519624
0.511974
0.498283
0.479528
0.457312
0.433853
0.411991
0.39516
0.38663
0.387231
0.39698
0.433678
0.62813
1.68089
0.344737
0.345691
0.347128
0.348689
0.350508
0.352438
0.354545
0.356767
0.359145
0.361655
0.364328
0.367155
0.37016
0.373347
0.343963
0.344033
0.344493
0.345622
0.347811
0.351378
0.356549
0.363626
0.372904
0.384579
0.398686
0.415064
0.433046
0.451883
0.470519
0.48852
0.507649
0.527669
0.542711
0.550752
0.54887
0.537192
0.519507
0.496979
0.47128
0.444667
0.419969
0.400547
0.389581
0.388135
0.396303
0.432885
0.63211
1.69446
0.343956
0.344762
0.345772
0.347215
0.348788
0.350604
0.352535
0.354636
0.356854
0.359222
0.361724
0.364385
0.367199
0.370187
0.373356
0.344024
0.344487
0.345624
0.347834
0.351452
0.35672
0.363978
0.373572
0.385775
0.40073
0.418397
0.438232
0.459599
0.480914
0.501577
0.523959
0.548161
0.567772
0.580883
0.585743
0.579582
0.563197
0.541065
0.514488
0.485174
0.455362
0.427828
0.405846
0.39252
0.389077
0.395783
0.432284
0.6361
1.70738
0.344019
0.343968
0.344823
0.345856
0.347306
0.34889
0.350704
0.352636
0.35473
0.356943
0.359302
0.361795
0.364443
0.367242
0.370213
0.373365
0.34448
0.345626
0.347856
0.351518
0.356876
0.364299
0.374187
0.386885
0.402645
0.421555
0.443223
0.46721
0.49182
0.515917
0.541868
0.570553
0.594762
0.612575
0.622405
0.622898
0.611484
0.589731
0.562761
0.531912
0.498889
0.465863
0.435521
0.411031
0.395424
0.390045
0.395424
0.431806
0.639812
1.71933
0.344476
0.344008
0.343998
0.344883
0.345946
0.347401
0.348996
0.350807
0.35274
0.354827
0.357035
0.359384
0.361867
0.3645
0.367284
0.370239
0.373374
0.345626
0.347874
0.351579
0.357018
0.364594
0.374751
0.387911
0.404432
0.424534
0.448009
0.474631
0.502709
0.531293
0.562061
0.595907
0.625219
0.647866
0.662231
0.667219
0.662012
0.644325
0.616563
0.584416
0.549121
0.512336
0.476109
0.443007
0.416077
0.398274
0.391033
0.395164
0.431469
0.643521
1.73073
0.345631
0.344437
0.34398
0.344036
0.344947
0.346041
0.347499
0.349105
0.350913
0.352847
0.354927
0.357129
0.359468
0.361939
0.364556
0.367325
0.370263
0.373382
0.347889
0.351634
0.357148
0.364862
0.375268
0.388857
0.406092
0.427332
0.452572
0.481808
0.513443
0.547026
0.584279
0.625345
0.660906
0.689265
0.708385
0.717192
0.715391
0.702943
0.677892
0.643499
0.60588
0.566013
0.525442
0.486053
0.450257
0.420966
0.401056
0.392029
0.39502
0.431211
0.646929
1.74121
0.347911
0.345552
0.344347
0.343937
0.344089
0.345014
0.346142
0.347601
0.349219
0.351022
0.352956
0.355029
0.357225
0.359551
0.362009
0.364611
0.367365
0.370287
0.373391
0.351682
0.357264
0.365107
0.375741
0.389726
0.407629
0.429948
0.456896
0.488698
0.523976
0.562934
0.607428
0.658664
0.704114
0.740264
0.765379
0.777974
0.778206
0.767104
0.745604
0.712011
0.670372
0.627023
0.582505
0.538152
0.495658
0.457247
0.425682
0.403759
0.393026
0.394934
0.431058
0.650334
1.75123
0.351737
0.347766
0.345361
0.344251
0.343899
0.344152
0.345085
0.346248
0.347708
0.349336
0.351136
0.353069
0.355134
0.35732
0.359633
0.362077
0.364664
0.367403
0.37031
0.373399
0.357367
0.365327
0.376172
0.390523
0.409048
0.432384
0.460969
0.495273
0.534263
0.578863
0.631033
0.694602
0.756037
0.806215
0.84011
0.857409
0.8586
0.846063
0.822537
0.789913
0.746531
0.697046
0.64774
0.598527
0.550424
0.504896
0.46396
0.430216
0.406371
0.394018
0.39494
0.430951
0.653433
1.75926
0.357476
0.35151
0.347403
0.345163
0.344168
0.343869
0.344224
0.34516
0.346358
0.347818
0.349457
0.351253
0.353184
0.355239
0.357413
0.359712
0.362142
0.364715
0.367441
0.370333
0.373406
0.365525
0.376563
0.391253
0.410354
0.434646
0.46479
0.501518
0.544249
0.594607
0.654873
0.733323
0.816474
0.891264
0.94245
0.966787
0.96851
0.951578
0.921156
0.881687
0.83574
0.781307
0.723405
0.667951
0.614029
0.562228
0.513751
0.470386
0.434559
0.408888
0.394993
0.394966
0.430938
0.656114
1.76602
0.365723
0.357141
0.350911
0.347026
0.344986
0.344093
0.343847
0.344303
0.345241
0.346473
0.347934
0.349581
0.351373
0.353298
0.355341
0.357503
0.359789
0.362206
0.364765
0.367477
0.370355
0.373414
0.376915
0.391916
0.411555
0.436739
0.46836
0.507423
0.55387
0.609999
0.678962
0.775413
0.886059
0.994253
1.07753
1.11919
1.12267
1.09919
1.05673
1.00315
0.944251
0.882854
0.816181
0.749347
0.687591
0.628971
0.573542
0.522211
0.476518
0.438708
0.411304
0.395955
0.395023
0.43095
0.658311
1.7733
0.377257
0.36525
0.356209
0.35029
0.346681
0.344823
0.344028
0.343835
0.344386
0.345329
0.346591
0.348055
0.349708
0.351494
0.35341
0.35544
0.357591
0.359863
0.362268
0.364814
0.367512
0.370377
0.373421
0.392521
0.412652
0.438673
0.471686
0.512984
0.563077
0.624946
0.703449
0.821045
0.964022
1.1121
1.23767
1.31608
1.33422
1.30483
1.24695
1.17229
1.09095
1.0096
0.930915
0.850978
0.77478
0.706609
0.643328
0.584357
0.530272
0.482354
0.44266
0.413617
0.396897
0.395094
0.430978
0.660755
1.78124
0.393091
0.376612
0.363852
0.355247
0.349714
0.346358
0.344671
0.343974
0.343834
0.344474
0.345425
0.346714
0.348181
0.349834
0.351611
0.353518
0.355537
0.357676
0.359936
0.362329
0.364861
0.367547
0.370397
0.373425
0.413659
0.440453
0.474777
0.518204
0.571842
0.639426
0.728432
0.869695
1.04796
1.2396
1.41348
1.54041
1.59832
1.5796
1.50703
1.40736
1.29543
1.18292
1.07688
0.979499
0.885505
0.799616
0.724969
0.657084
0.594667
0.537934
0.487895
0.446417
0.415824
0.397692
0.395172
0.431032
0.663383
1.78985
0.414585
0.392238
0.374567
0.362419
0.354347
0.349165
0.346055
0.344532
0.343929
0.343845
0.344563
0.34553
0.346838
0.348308
0.349957
0.351726
0.353623
0.355631
0.357758
0.360007
0.362387
0.364907
0.36758
0.370408
0.373425
0.442098
0.477641
0.523086
0.580154
0.653446
0.753865
0.920324
1.13488
1.37112
1.59606
1.77798
1.88974
1.9129
1.84606
1.72225
1.57552
1.42301
1.27721
1.1451
1.02813
0.919563
0.823777
0.742641
0.67023
0.604474
0.545201
0.493146
0.449979
0.417649
0.398379
0.395265
0.431138
0.66633
1.79928
0.443582
0.413482
0.3893
0.372485
0.36107
0.353485
0.348639
0.345772
0.344404
0.343895
0.343872
0.344653
0.345644
0.346962
0.348434
0.350076
0.351839
0.353725
0.355723
0.357839
0.360076
0.362444
0.364952
0.367597
0.370408
0.373425
0.480303
0.527644
0.588016
0.667017
0.779566
0.971749
1.2221
1.50214
1.77835
2.01823
2.1916
2.2735
2.24956
2.12527
1.94418
1.74696
1.55206
1.37205
1.21329
1.07635
0.952957
0.847194
0.759604
0.682763
0.613783
0.552081
0.498112
0.452907
0.419204
0.399146
0.395395
0.431272
0.669488
1.8095
0.482664
0.442172
0.409313
0.386332
0.37052
0.359773
0.352653
0.348133
0.345509
0.344287
0.343866
0.343926
0.344743
0.345762
0.347083
0.348557
0.350193
0.351948
0.353825
0.355812
0.357917
0.360143
0.362499
0.364974
0.367597
0.370408
0.373425
0.531909
0.595449
0.680146
0.805278
1.02289
1.3076
1.62952
1.95552
2.25355
2.49236
2.64265
2.68163
2.59979
2.41043
2.1677
1.91799
1.68012
1.46588
1.28057
1.1237
0.985506
0.869803
0.775843
0.694687
0.622605
0.558584
0.502183
0.455393
0.420915
0.400005
0.39555
0.43148
0.673043
1.8207
0.535647
0.480892
0.436306
0.40514
0.383525
0.368624
0.358517
0.35185
0.347647
0.345264
0.344179
0.343827
0.343999
0.344832
0.345881
0.347202
0.348678
0.350307
0.352055
0.353921
0.355899
0.357993
0.360208
0.362527
0.364974
0.367597
0.370408
0.373425
0.602496
0.692849
0.830741
1.07288
1.39002
1.75133
2.1246
2.47899
2.7837
3.00751
3.12154
3.10573
2.9566
2.69609
2.3888
2.08583
1.80528
1.55747
1.34623
1.16983
1.01705
0.891553
0.791352
0.706011
0.630951
0.563912
0.505634
0.458116
0.422799
0.400965
0.395761
0.431729
0.676857
1.83282
0.608665
0.533417
0.472656
0.430491
0.401185
0.380811
0.366783
0.357301
0.351078
0.347185
0.345035
0.344084
0.343794
0.344083
0.344922
0.346
0.347319
0.348796
0.350418
0.352159
0.354016
0.355983
0.358067
0.36024
0.362527
0.364974
0.367597
0.370408
0.373425
0.70514
0.85574
1.1211
1.46848
1.86649
2.28395
2.69157
3.06005
3.35836
3.55444
3.6199
3.53851
3.31411
2.97792
2.60449
2.24841
1.92615
1.64591
1.40969
1.21441
1.04746
0.912404
0.806128
0.716744
0.637795
0.568426
0.509407
0.461102
0.424877
0.402046
0.396008
0.432085
0.681183
1.84613
0.715984
0.605887
0.521762
0.464585
0.424971
0.397353
0.37817
0.364997
0.356127
0.350337
0.34675
0.344828
0.344
0.343774
0.34417
0.345013
0.346117
0.347433
0.348912
0.350526
0.35226
0.354107
0.356066
0.358104
0.36024
0.362527
0.364974
0.367597
0.370408
0.373421
0.880072
1.16713
1.5425
1.97441
2.43276
2.88972
3.31799
3.68833
3.96834
4.12466
4.13002
3.97344
3.66734
3.25252
2.81257
2.40432
2.04178
1.73056
1.47055
1.25722
1.07664
0.93233
0.820176
0.725561
0.643598
0.573362
0.513536
0.464378
0.427172
0.403258
0.396338
0.432498
0.685825
1.86049
0.71263
0.901505
0.588742
0.510562
0.456906
0.419613
0.39362
0.375603
0.363267
0.354995
0.34963
0.346344
0.34464
0.343931
0.343767
0.344259
0.345106
0.346232
0.347547
0.349024
0.350632
0.352359
0.354197
0.356106
0.358104
0.36024
0.362527
0.364974
0.367597
0.370397
0.373414
1.2107
1.6119
2.07492
2.57074
3.07281
3.55582
3.99315
4.35442
4.60497
4.71006
4.64463
4.40462
4.01214
3.51727
3.01148
2.55262
2.15159
1.81101
1.52853
1.2981
1.10452
0.951313
0.831745
0.733046
0.649947
0.578761
0.518058
0.467977
0.429709
0.40463
0.396718
0.433065
0.691135
1.87625
0.685762
0.898667
1.24825
0.572781
0.499912
0.449445
0.41439
0.389985
0.373112
0.361596
0.35391
0.34896
0.34597
0.344475
0.343879
0.343773
0.344347
0.345202
0.346344
0.347658
0.349134
0.350735
0.352455
0.354241
0.356106
0.358104
0.36024
0.362527
0.364974
0.36758
0.370376
0.373406
1.67656
2.16812
2.69802
3.24084
3.773
4.2707
4.70701
5.04928
5.2598
5.30273
5.15683
4.8268
4.34505
3.77022
3.20021
2.69281
2.25526
1.88705
1.58347
1.33696
1.13104
0.96697
0.841582
0.741245
0.656898
0.584674
0.523015
0.471933
0.43252
0.406172
0.39722
0.433714
0.696834
1.89316
0.661193
0.855447
1.24629
1.73165
0.55781
0.489549
0.442167
0.409298
0.386453
0.3707
0.359987
0.352873
0.348332
0.345635
0.344334
0.343841
0.343793
0.344433
0.3453
0.346453
0.347768
0.349241
0.350836
0.352502
0.354241
0.356106
0.358104
0.36024
0.362527
0.364952
0.367546
0.370355
0.373398
2.25412
2.81502
3.39427
3.96986
4.52057
5.02338
5.44999
5.76421
5.92452
5.89491
5.66016
5.23539
4.66334
4.00999
3.37817
2.82462
2.35267
1.9586
1.63532
1.37373
1.15288
0.980291
0.852374
0.750235
0.664517
0.591153
0.528453
0.476288
0.435635
0.407925
0.397795
0.434578
0.703421
1.91174
0.638559
0.814876
1.18234
1.73161
2.32704
0.543359
0.479425
0.435073
0.404347
0.383031
0.368374
0.358445
0.351894
0.347761
0.345343
0.344215
0.343815
0.343831
0.344515
0.3454
0.34656
0.347876
0.349346
0.350886
0.352502
0.35424
0.356106
0.358104
0.36024
0.362499
0.364907
0.367511
0.370332
0.37339
2.92211
3.53396
4.1474
4.74359
5.30326
5.80345
6.21309
6.49078
6.5909
6.47912
6.14874
5.62656
4.96499
4.23577
3.5451
2.94803
2.44387
2.02568
1.68407
1.40385
1.17144
0.994914
0.864225
0.760101
0.672873
0.59826
0.534424
0.481086
0.439097
0.4099
0.398544
0.435563
0.710486
1.93151
0.617181
0.776926
1.1196
1.64907
2.33009
3.01224
0.529301
0.46955
0.428177
0.399546
0.379726
0.366139
0.356982
0.350996
0.347249
0.345094
0.344114
0.343788
0.343886
0.344594
0.345501
0.346665
0.347984
0.349397
0.350886
0.352502
0.35424
0.356106
0.358104
0.360208
0.362443
0.36486
0.367476
0.37031
0.373382
3.66068
4.3071
4.94149
5.54812
6.10945
6.60144
6.988
7.22081
7.25084
7.0482
6.61735
5.99726
5.24864
4.44713
3.701
3.0632
2.52901
2.0884
1.72374
1.42933
1.19176
1.01097
0.87725
0.770938
0.682048
0.606063
0.540987
0.486378
0.442944
0.412158
0.399402
0.436847
0.718753
1.95325
0.596803
0.741114
1.0583
1.56625
2.23102
3.01885
3.76597
0.515616
0.459948
0.421492
0.394907
0.376549
0.364016
0.355637
0.35019
0.34679
0.344878
0.344029
0.343763
0.343952
0.344673
0.345602
0.346769
0.348037
0.349395
0.350886
0.352502
0.354241
0.356106
0.358067
0.360142
0.362386
0.364812
0.367439
0.370286
0.373374
4.45027
5.11668
5.76079
6.37033
6.92893
7.40915
7.76702
7.94621
7.89632
7.59553
7.06167
6.34533
5.51351
4.64399
3.84611
3.17039
2.6083
2.1392
1.75718
1.45714
1.21403
1.02862
0.891575
0.782854
0.692132
0.614638
0.548207
0.49222
0.447233
0.414707
0.400508
0.438258
0.727597
1.97607
0.577314
0.707352
0.998193
1.48323
2.13068
2.90476
3.77528
4.56688
0.502318
0.450645
0.415038
0.390446
0.373528
0.36206
0.354426
0.349466
0.346384
0.344693
0.343959
0.343745
0.344023
0.344751
0.345707
0.346818
0.348035
0.349395
0.350886
0.352502
0.354241
0.356065
0.357992
0.360074
0.362327
0.364763
0.367402
0.370262
0.373365
5.27127
5.94494
6.59032
7.19888
7.75341
8.21966
8.5428
8.65883
8.51954
8.11524
7.47833
6.66938
5.75934
4.82662
3.98078
3.26993
2.6723
2.18189
1.79351
1.48746
1.23843
1.04802
0.90734
0.795965
0.703224
0.624071
0.556158
0.498679
0.452012
0.417638
0.401777
0.439917
0.738077
2.00552
0.558652
0.675676
0.939497
1.39962
2.029
2.78894
3.64665
4.57635
5.39332
0.489438
0.441673
0.408833
0.386203
0.370742
0.360295
0.353335
0.348818
0.346026
0.344535
0.343901
0.343736
0.344097
0.344835
0.345758
0.346812
0.348036
0.349395
0.350886
0.352502
0.354196
0.355982
0.357915
0.360005
0.362266
0.364713
0.367363
0.370238
0.373356
6.10382
6.77482
7.41725
8.02497
8.57674
9.0269
9.30798
9.35033
9.11312
8.60246
7.86501
6.96875
5.98634
4.99547
4.10546
3.35005
2.72594
2.22808
1.83293
1.5205
1.26514
1.06934
0.924698
0.810406
0.715438
0.634459
0.564924
0.505826
0.457357
0.420955
0.403389
0.441784
0.751251
2.04057
0.540776
0.646118
0.882672
1.31543
1.92549
2.67106
3.5166
4.43242
5.39853
6.22405
0.477013
0.433062
0.402936
0.382293
0.368227
0.358703
0.352353
0.348239
0.345712
0.344399
0.343855
0.343738
0.344182
0.344869
0.345755
0.346812
0.348036
0.349395
0.350886
0.352454
0.354106
0.355897
0.357836
0.359934
0.362204
0.364662
0.367324
0.370213
0.373347
6.92859
7.59172
8.23182
8.84303
9.39423
9.82514
10.0547
10.0123
9.67045
9.05347
8.22039
7.24354
6.19507
5.15114
4.2055
3.41707
2.78386
2.27804
1.87569
1.55647
1.29438
1.09277
0.943817
0.826319
0.728899
0.645909
0.574598
0.513747
0.463329
0.424787
0.405239
0.444445
0.768806
2.07533
0.523667
0.618656
0.828317
1.23097
1.81983
2.55061
3.38442
4.28835
5.23694
6.21909
7.03884
0.465085
0.424898
0.397504
0.378763
0.365957
0.357268
0.351471
0.347723
0.345437
0.344281
0.343823
0.343764
0.344223
0.344856
0.345757
0.346812
0.348035
0.349397
0.350836
0.352357
0.354013
0.355809
0.357756
0.359861
0.36214
0.364609
0.367283
0.370187
0.373337
7.72907
8.38444
9.02872
9.64931
10.2023
10.6083
10.7745
10.6364
10.1859
9.46582
8.54422
7.49435
6.38631
5.27547
4.28899
3.48927
2.84632
2.33201
1.922
1.5956
1.32635
1.11851
0.964876
0.843865
0.743745
0.658543
0.585288
0.522532
0.470034
0.429141
0.408002
0.447963
0.787876
2.10948
0.507319
0.593195
0.777074
1.14681
1.71197
2.42699
3.24966
4.14292
5.07777
6.0352
7.01658
7.81891
0.45378
0.417396
0.392604
0.375578
0.363909
0.355976
0.350681
0.347264
0.345194
0.344183
0.343819
0.343765
0.344215
0.344854
0.345757
0.346812
0.348037
0.349345
0.350733
0.352257
0.353918
0.35572
0.357673
0.359786
0.362074
0.364555
0.367241
0.37016
0.373328
8.49209
9.148
9.80353
10.4408
10.998
11.3689
11.4583
11.2149
10.6553
9.83856
8.83709
7.72222
6.538
5.37888
4.37868
3.56695
2.91361
2.39024
1.97209
1.63809
1.36126
1.14676
0.988064
0.863215
0.76013
0.672497
0.597109
0.532295
0.477552
0.43513
0.411711
0.452232
0.809194
2.14257
0.49185
0.569576
0.729551
1.06374
1.60206
2.29978
3.11149
3.99586
4.9191
5.85815
6.80341
7.76987
8.54958
0.443406
0.410647
0.388187
0.372707
0.362063
0.354813
0.349971
0.346853
0.344986
0.344129
0.343805
0.34374
0.344219
0.344854
0.345755
0.346818
0.347983
0.349239
0.350629
0.352155
0.353821
0.355628
0.357588
0.359709
0.362007
0.364499
0.367199
0.370133
0.373318
9.20984
9.87019
10.545
11.2075
11.7743
12.1003
12.096
11.7408
11.0761
10.172
9.10028
7.90128
6.66353
5.48951
4.47487
3.65038
2.98598
2.45297
2.02618
1.68416
1.39932
1.17772
1.01358
0.88455
0.778218
0.687917
0.610206
0.543155
0.487593
0.442943
0.416236
0.457147
0.832265
2.17446
0.477641
0.547777
0.686258
0.982747
1.49044
2.16873
2.96911
3.84614
4.7609
5.68492
6.60384
7.51943
8.45824
9.22535
0.434099
0.404577
0.384209
0.370119
0.3604
0.353767
0.349333
0.34649
0.344846
0.344085
0.343775
0.34374
0.344219
0.344856
0.345758
0.346768
0.347874
0.349131
0.350523
0.352051
0.353721
0.355533
0.3575
0.359631
0.361938
0.364442
0.367155
0.370107
0.373308
9.87887
10.559
11.2685
11.9559
12.5234
12.789
12.6775
12.2093
11.448
10.4675
9.30456
8.04841
6.79701
5.60759
4.5778
3.73983
3.06367
2.52041
2.08448
1.73399
1.44071
1.21159
1.04161
0.908059
0.798181
0.704976
0.624721
0.557502
0.500403
0.451745
0.42139
0.463066
0.85803
2.20468
0.464869
0.528108
0.647343
0.905053
1.37772
2.03378
2.8218
3.69261
4.602
5.51568
6.41325
7.2912
8.16299
9.06222
9.83023
0.425762
0.39912
0.380628
0.367788
0.358902
0.352822
0.348765
0.346219
0.344755
0.344044
0.343778
0.34374
0.344215
0.34487
0.345706
0.346663
0.347765
0.349021
0.350414
0.351944
0.353619
0.355437
0.357411
0.35955
0.361867
0.364384
0.367112
0.370081
0.373299
10.4931
11.2136
11.9787
12.6909
13.2413
13.4232
13.1943
12.618
11.772
10.6932
9.47081
8.20355
6.93845
5.73323
4.68767
3.83551
3.1469
2.59277
2.14716
1.78775
1.48562
1.24856
1.07235
0.933926
0.820207
0.72383
0.643817
0.575577
0.514353
0.461492
0.427549
0.470001
0.885945
2.23311
0.453417
0.510547
0.613876
0.832866
1.26484
1.89502
2.66894
3.53409
4.44096
5.34907
6.23184
7.07917
7.89923
8.71577
9.57589
10.3548
0.418299
0.394215
0.377407
0.36569
0.357549
0.351979
0.348328
0.346051
0.344698
0.34405
0.343778
0.34374
0.344223
0.344834
0.345601
0.346557
0.347655
0.348908
0.350302
0.351835
0.353514
0.355338
0.357319
0.359468
0.361795
0.364327
0.36707
0.370056
0.37329
11.0519
11.8395
12.6779
13.413
13.9189
13.9896
13.6399
12.9669
12.0143
10.8746
9.64411
8.36628
7.08767
5.86644
4.80459
3.93758
3.23583
2.67019
2.21436
1.84558
1.53418
1.28878
1.10597
0.962335
0.844452
0.748554
0.667694
0.594944
0.529472
0.472424
0.434613
0.47827
0.917075
2.25926
0.443175
0.494775
0.585623
0.76894
1.15397
1.75278
2.51002
3.36936
4.27615
5.18339
6.0579
6.88336
7.66089
8.40978
9.16447
9.99015
10.7978
0.411619
0.389809
0.37451
0.363794
0.356339
0.351316
0.348066
0.34597
0.344706
0.34405
0.343775
0.343765
0.344182
0.344749
0.345498
0.34645
0.347542
0.348792
0.350189
0.351723
0.353407
0.355237
0.357224
0.359384
0.361723
0.364271
0.367029
0.370031
0.373282
11.5603
12.4472
13.3707
14.1102
14.5406
14.4752
14.0117
13.2204
12.2056
11.0607
9.82339
8.53592
7.24429
6.00708
4.92857
4.04611
3.33057
2.75278
2.28617
1.90756
1.58649
1.33235
1.1426
0.993412
0.876081
0.779212
0.693004
0.61563
0.545897
0.484541
0.44293
0.488004
0.950919
2.2831
0.434038
0.480579
0.561499
0.714648
1.04969
1.60874
2.34464
3.19716
4.10576
5.01665
5.88944
6.70139
7.44768
8.14011
8.8081
9.49816
10.2912
11.1573
0.405641
0.385852
0.371896
0.362098
0.355372
0.350927
0.347959
0.345981
0.344706
0.344044
0.343805
0.343764
0.344096
0.34467
0.345397
0.34634
0.347429
0.348674
0.350072
0.351608
0.353297
0.355134
0.357128
0.359301
0.361653
0.364217
0.366989
0.370008
0.373273
12.0285
13.0513
14.0577
14.767
15.0841
14.8721
14.2718
13.4158
12.3976
11.2495
10.0072
8.71146
7.40769
6.15482
5.05946
4.16108
3.43113
2.84058
2.36264
1.97372
1.64256
1.37935
1.18231
1.03364
0.914865
0.811332
0.71969
0.637668
0.563657
0.498067
0.452508
0.499586
0.988549
2.30414
0.425901
0.467811
0.540618
0.669252
0.955274
1.46789
2.17394
3.01625
3.92778
4.84653
5.72413
6.53089
7.25618
7.90632
8.50216
9.08246
9.70504
10.4645
11.4317
0.40029
0.38229
0.369558
0.360728
0.354814
0.350787
0.347974
0.345981
0.344698
0.344085
0.34382
0.343738
0.344021
0.344592
0.345297
0.346228
0.347314
0.348553
0.349954
0.351492
0.353183
0.355029
0.357033
0.35922
0.361586
0.364165
0.36695
0.369985
0.373265
12.4742
13.6603
14.7343
15.3765
15.5191