/*--------------------------------*- C++ -*----------------------------------*\
  =========                 |
  \\      /  F ield         | OpenFOAM: The Open Source CFD Toolbox
   \\    /   O peration     | Website:  https://openfoam.org
    \\  /    A nd           | Version:  8
     \\/     M anipulation  |
\*---------------------------------------------------------------------------*/
FoamFile
{
    version     2.0;
    format      ascii;
    class       volVectorField;
    location    "0.05";
    object      U;
}
// * * * * * * * * * * * * * * * * * * * * * * * * * * * * * * * * * * * * * //

dimensions      [0 1 -1 0 0 0 0];

internalField   nonuniform List<vector> 
15677
(
(-0.0399028 9.66594 0)
(0.0484974 9.92198 0)
(-0.00181203 9.37824 0)
(0.020655 9.97701 0)
(0.0198958 9.78862 0)
(0.00731658 9.14111 0)
(0.0258426 9.99515 0)
(0.0165445 9.92463 0)
(0.0111857 9.65385 0)
(0.00649687 8.96041 0)
(0.0263357 10.0025 0)
(0.020562 9.97867 0)
(0.0165625 9.85192 0)
(0.00913545 9.53056 0)
(0.00516821 8.81656 0)
(0.0255764 10.0057 0)
(0.0215975 10.0029 0)
(0.0194236 9.9414 0)
(0.0153846 9.77927 0)
(0.00799726 9.41938 0)
(0.00425268 8.70161 0)
(0.0245161 10.0071 0)
(0.0218823 10.0146 0)
(0.0210259 9.98468 0)
(0.0182817 9.9022 0)
(0.0138857 9.70767 0)
(0.00694926 9.32084 0)
(0.00356237 8.60904 0)
(0.0231046 10.0075 0)
(0.0217634 10.0205 0)
(0.0218996 10.0068 0)
(0.0202385 9.96475 0)
(0.0170072 9.86151 0)
(0.0124875 9.64013 0)
(0.00600371 9.23529 0)
(0.00298332 8.53446 0)
(0.0214172 10.0074 0)
(0.0212174 10.0233 0)
(0.022192 10.0183 0)
(0.0213399 9.99786 0)
(0.0191152 9.9433 0)
(0.0156754 9.82161 0)
(0.0111451 9.57856 0)
(0.00512638 9.16249 0)
(0.00245277 8.47522 0)
(0.0195245 10.007 0)
(0.0203616 10.0235 0)
(0.0221619 10.024 0)
(0.0218463 10.016 0)
(0.0202967 9.98774 0)
(0.017812 9.92209 0)
(0.0142407 9.78431 0)
(0.00977857 9.52414 0)
(0.00426596 9.10216 0)
(0.00193413 8.42978 0)
(0.017511 10.0063 0)
(0.0193121 10.0223 0)
(0.0217281 10.027 0)
(0.0218817 10.0259 0)
(0.0208478 10.0127 0)
(0.0189804 9.97789 0)
(0.0163072 9.90256 0)
(0.012657 9.75085 0)
(0.00833192 9.47778 0)
(0.00338134 9.0541 0)
(0.00139767 8.3971 0)
(0.0154114 10.0056 0)
(0.0180104 10.0206 0)
(0.0210108 10.028 0)
(0.0215548 10.0313 0)
(0.0209045 10.0269 0)
(0.0194684 10.0097 0)
(0.0173598 9.96957 0)
(0.0145456 9.88569 0)
(0.0108721 9.72236 0)
(0.00675778 9.44026 0)
(0.00242786 9.0182 0)
(0.000821428 8.3769 0)
(0.013275 10.0048 0)
(0.0165344 10.0185 0)
(0.0199495 10.0273 0)
(0.0208986 10.0338 0)
(0.0205491 10.035 0)
(0.0194242 10.0282 0)
(0.0176774 10.0082 0)
(0.0153751 9.96357 0)
(0.0124597 9.87244 0)
(0.00882758 9.69986 0)
(0.00500503 9.41229 0)
(0.00137492 8.99446 0)
(0.000178879 8.36886 0)
(0.0111772 10.0041 0)
(0.0149472 10.0162 0)
(0.0186129 10.0257 0)
(0.0199354 10.0343 0)
(0.0198442 10.0392 0)
(0.0189358 10.039 0)
(0.0174136 10.0309 0)
(0.0154094 10.0088 0)
(0.0129452 9.96073 0)
(0.00997334 9.86377 0)
(0.00646139 9.68439 0)
(0.00303053 9.39445 0)
(0.000197419 8.98299 0)
(-0.000473617 8.37296 0)
(0.00927857 10.0034 0)
(0.0132549 10.014 0)
(0.017041 10.0234 0)
(0.0186652 10.0332 0)
(0.018805 10.0408 0)
(0.0180535 10.0449 0)
(0.0166596 10.0443 0)
(0.0147999 10.0357 0)
(0.0125659 10.0125 0)
(0.00997352 9.96192 0)
(0.00700707 9.86066 0)
(0.0037178 9.67686 0)
(0.000796165 9.38734 0)
(-0.00111034 8.98405 0)
(-0.00123043 8.38922 0)
(0.00773709 10.0029 0)
(0.0117082 10.0119 0)
(0.0152713 10.0208 0)
(0.017102 10.0312 0)
(0.0174319 10.0405 0)
(0.0167968 10.0477 0)
(0.0154614 10.052 0)
(0.0136392 10.0517 0)
(0.0114668 10.0433 0)
(0.00902956 10.0199 0)
(0.00635918 9.96801 0)
(0.00348582 9.86403 0)
(0.000543315 9.67818 0)
(-0.00174589 9.39153 0)
(-0.00260051 8.99777 0)
(-0.00207827 8.41788 0)
(0.00642445 10.0024 0)
(0.0103213 10.0102 0)
(0.0135527 10.0183 0)
(0.0152758 10.0284 0)
(0.0157292 10.0388 0)
(0.0151697 10.0482 0)
(0.0138375 10.0559 0)
(0.0119708 10.061 0)
(0.0097388 10.0618 0)
(0.00727427 10.0545 0)
(0.00467565 10.0319 0)
(0.00200435 9.97987 0)
(-0.000660497 9.87483 0)
(-0.00311337 9.68914 0)
(-0.00461324 9.40751 0)
(-0.00426879 9.02434 0)
(-0.00301532 8.45895 0)
(0.00532162 10.002 0)
(0.00907367 10.0087 0)
(0.0119889 10.0162 0)
(0.0134282 10.0255 0)
(0.0137137 10.0361 0)
(0.0131729 10.0469 0)
(0.0117919 10.0571 0)
(0.00980998 10.066 0)
(0.00742179 10.0727 0)
(0.00479344 10.0754 0)
(0.00207162 10.0701 0)
(-0.0006194 10.0493 0)
(-0.00318769 9.99836 0)
(-0.00550477 9.89393 0)
(-0.00728949 9.71051 0)
(-0.00783073 9.43565 0)
(-0.00611839 9.06377 0)
(-0.00403654 8.51242 0)
(0.00440113 10.0016 0)
(0.00794854 10.0074 0)
(0.0105459 10.0142 0)
(0.0117156 10.0229 0)
(0.0116423 10.033 0)
(0.0108154 10.0443 0)
(0.00932464 10.0562 0)
(0.00715793 10.0678 0)
(0.00452573 10.0786 0)
(0.00162017 10.0877 0)
(-0.00137667 10.0932 0)
(-0.00429265 10.0909 0)
(-0.00697545 10.0729 0)
(-0.00929957 10.0243 0)
(-0.0110923 9.92214 0)
(-0.0120122 9.74283 0)
(-0.0114102 9.47617 0)
(-0.00815203 9.11612 0)
(-0.00513937 8.5781 0)
(0.00362712 10.0013 0)
(0.00693425 10.0062 0)
(0.00921553 10.0125 0)
(0.0101063 10.0205 0)
(0.00970772 10.03 0)
(0.00838739 10.041 0)
(0.00644324 10.0537 0)
(0.00401449 10.0672 0)
(0.00104771 10.081 0)
(-0.00224302 10.0945 0)
(-0.00564654 10.1068 0)
(-0.00895415 10.1159 0)
(-0.0119655 10.1176 0)
(-0.0145 10.1036 0)
(-0.0163999 10.0585 0)
(-0.0174562 9.96012 0)
(-0.0172907 9.78656 0)
(-0.0153468 9.52919 0)
(-0.0103557 9.18111 0)
(-0.00631059 8.65559 0)
(0.00300567 10.001 0)
(0.00603109 10.0052 0)
(0.00799361 10.0109 0)
(0.00860703 10.0183 0)
(0.00788185 10.0272 0)
(0.0061173 10.0377 0)
(0.00349275 10.0501 0)
(0.000388914 10.0646 0)
(-0.00301363 10.0805 0)
(-0.00680491 10.0972 0)
(-0.0107459 10.1142 0)
(-0.0145957 10.1307 0)
(-0.0181159 10.1444 0)
(-0.0210788 10.1511 0)
(-0.0232786 10.1419 0)
(-0.0245316 10.1017 0)
(-0.024608 10.0084 0)
(-0.0231151 9.84191 0)
(-0.0196234 9.5946 0)
(-0.0127199 9.2585 0)
(-0.00754275 8.74443 0)
(0.0025049 10.0008 0)
(0.00520651 10.0044 0)
(0.00687938 10.0096 0)
(0.00722128 10.0163 0)
(0.0061814 10.0245 0)
(0.00397752 10.0343 0)
(0.000743886 10.0463 0)
(-0.00329199 10.0607 0)
(-0.00764526 10.0777 0)
(-0.0120688 10.0967 0)
(-0.0166917 10.1172 0)
(-0.0212395 10.1386 0)
(-0.0254381 10.1601 0)
(-0.0290211 10.1794 0)
(-0.0317384 10.1919 0)
(-0.0333671 10.1886 0)
(-0.0337097 10.1542 0)
(-0.032534 10.0673 0)
(-0.0294582 9.90895 0)
(-0.0242087 9.67216 0)
(-0.0152122 9.34761 0)
(-0.00881221 8.84374 0)
(0.002123 10.0007 0)
(0.00450842 10.0037 0)
(0.00586133 10.0084 0)
(0.0059507 10.0145 0)
(0.00461566 10.022 0)
(0.00199401 10.0311 0)
(-0.00183545 10.0424 0)
(-0.0067017 10.0563 0)
(-0.012308 10.0733 0)
(-0.0180169 10.0936 0)
(-0.0234906 10.1166 0)
(-0.0289139 10.1416 0)
(-0.0339734 10.1684 0)
(-0.0383643 10.1958 0)
(-0.0417992 10.2215 0)
(-0.0440157 10.2407 0)
(-0.0447865 10.2442 0)
(-0.043917 10.2166 0)
(-0.0411954 10.137 0)
(-0.0362714 9.98751 0)
(-0.0290555 9.76134 0)
(-0.0178111 9.44783 0)
(-0.0100999 8.95279 0)
(0.00182764 10.0006 0)
(0.00393926 10.0032 0)
(0.00498376 10.0073 0)
(0.00479504 10.0128 0)
(0.00319027 10.0196 0)
(0.000182581 10.028 0)
(-0.00421 10.0385 0)
(-0.00988234 10.0517 0)
(-0.0166015 10.0682 0)
(-0.0239622 10.0884 0)
(-0.0311191 10.1128 0)
(-0.0376305 10.1406 0)
(-0.0437652 10.1713 0)
(-0.0491743 10.2043 0)
(-0.0535309 10.2385 0)
(-0.0565395 10.2714 0)
(-0.0579399 10.298 0)
(-0.0575183 10.309 0)
(-0.055103 10.289 0)
(-0.0505244 10.2174 0)
(-0.0434838 10.0772 0)
(-0.034109 9.86149 0)
(-0.0204508 9.5581 0)
(-0.0113397 9.06995 0)
(0.00159561 10.0005 0)
(0.00347529 10.0028 0)
(0.00426258 10.0065 0)
(0.00380059 10.0113 0)
(0.00190933 10.0174 0)
(-0.00144625 10.0251 0)
(-0.00635651 10.0347 0)
(-0.0127887 10.047 0)
(-0.0205835 10.0626 0)
(-0.0294081 10.0823 0)
(-0.0387016 10.1066 0)
(-0.0473602 10.1359 0)
(-0.0548335 10.1696 0)
(-0.0615148 10.2068 0)
(-0.0670307 10.2469 0)
(-0.0710485 10.2887 0)
(-0.0732816 10.3295 0)
(-0.0734919 10.3642 0)
(-0.0715009 10.3833 0)
(-0.0671803 10.3714 0)
(-0.0604242 10.3083 0)
(-0.0510094 10.1774 0)
(-0.0392514 9.9717 0)
(-0.0230141 9.67712 0)
(-0.0122414 9.19335 0)
(0.00141081 10.0005 0)
(0.00309522 10.0025 0)
(0.00367313 10.0058 0)
(0.00299049 10.0101 0)
(0.000823979 10.0155 0)
(-0.00288498 10.0223 0)
(-0.0082587 10.031 0)
(-0.015389 10.0422 0)
(-0.0241974 10.0568 0)
(-0.0344341 10.0755 0)
(-0.0456195 10.0992 0)
(-0.0569925 10.1284 0)
(-0.0671434 10.1638 0)
(-0.0754172 10.2043 0)
(-0.0823883 10.2488 0)
(-0.0876788 10.2968 0)
(-0.0909698 10.3469 0)
(-0.0920068 10.3962 0)
(-0.0905998 10.4395 0)
(-0.0866289 10.4671 0)
(-0.080026 10.4636 0)
(-0.0707758 10.4091 0)
(-0.0586966 10.2874 0)
(-0.0444299 10.0908 0)
(-0.0256923 9.80434 0)
(-0.014363 9.32303 0)
(0.00126181 10.0004 0)
(0.00278098 10.0022 0)
(0.00318727 10.0053 0)
(0.00233561 10.0091 0)
(-4.26933e-05 10.0139 0)
(-0.00407552 10.0197 0)
(-0.00990494 10.0274 0)
(-0.0176599 10.0375 0)
(-0.0274011 10.0508 0)
(-0.0389702 10.0683 0)
(-0.05198 10.0909 0)
(-0.0657563 10.1195 0)
(-0.0792986 10.1547 0)
(-0.0908439 10.197 0)
(-0.0996525 10.2452 0)
(-0.106553 10.298 0)
(-0.111188 10.3546 0)
(-0.113279 10.4135 0)
(-0.112636 10.4718 0)
(-0.109141 10.5239 0)
(-0.102751 10.5602 0)
(-0.093482 10.5651 0)
(-0.0813845 10.5191 0)
(-0.0664015 10.406 0)
(-0.0488888 10.2178 0)
(-0.0221901 9.93344 0)
(-0.0100934 9.3964 0)
(0.00114031 10.0004 0)
(0.00251902 10.002 0)
(0.00278741 10.0049 0)
(0.0018049 10.0083 0)
(-0.000727179 10.0125 0)
(-0.00499814 10.0175 0)
(-0.0112283 10.0241 0)
(-0.0195843 10.0329 0)
(-0.0301628 10.0449 0)
(-0.0429619 10.0609 0)
(-0.0576971 10.082 0)
(-0.0737942 10.1094 0)
(-0.09034 10.1437 0)
(-0.106054 10.1858 0)
(-0.118784 10.2361 0)
(-0.127745 10.293 0)
(-0.134102 10.3548 0)
(-0.137552 10.4206 0)
(-0.137893 10.4889 0)
(-0.135026 10.5563 0)
(-0.128932 10.6173 0)
(-0.119671 10.6621 0)
(-0.107318 10.6753 0)
(-0.0920669 10.6374 0)
(-0.0736138 10.5323 0)
(-0.0523179 10.3498 0)
(-0.0172565 10.0932 0)
(-0.00160992 9.44934 0)
(0.00104013 10.0003 0)
(0.00229986 10.0018 0)
(0.00245382 10.0045 0)
(0.00137295 10.0076 0)
(-0.00126642 10.0113 0)
(-0.00570052 10.0156 0)
(-0.0122153 10.0211 0)
(-0.0210839 10.0286 0)
(-0.0324583 10.039 0)
(-0.0463665 10.0534 0)
(-0.0627011 10.0728 0)
(-0.0810002 10.0984 0)
(-0.100454 10.1313 0)
(-0.119864 10.1726 0)
(-0.137643 10.2226 0)
(-0.151222 10.2818 0)
(-0.159821 10.3482 0)
(-0.165042 10.4196 0)
(-0.166676 10.4952 0)
(-0.164641 10.5729 0)
(-0.158961 10.6496 0)
(-0.149738 10.7193 0)
(-0.137119 10.7724 0)
(-0.121288 10.7934 0)
(-0.102278 10.7631 0)
(-0.0795165 10.6651 0)
(-0.0549126 10.495 0)
(-0.0182879 10.2537 0)
(0.00379341 9.49313 0)
(0.000956699 10.0003 0)
(0.00211572 10.0017 0)
(0.00217481 10.0042 0)
(0.00102344 10.007 0)
(-0.00169049 10.0102 0)
(-0.00622948 10.014 0)
(-0.0129295 10.0186 0)
(-0.0221538 10.0247 0)
(-0.0341939 10.0333 0)
(-0.0491507 10.0458 0)
(-0.0669357 10.0632 0)
(-0.087286 10.0868 0)
(-0.109511 10.1178 0)
(-0.132512 10.1575 0)
(-0.15477 10.2066 0)
(-0.174377 10.2655 0)
(-0.18832 10.3346 0)
(-0.195894 10.4112 0)
(-0.199266 10.4929 0)
(-0.198373 10.5784 0)
(-0.193283 10.6656 0)
(-0.18417 10.7513 0)
(-0.171256 10.8295 0)
(-0.154803 10.8904 0)
(-0.134901 10.9186 0)
(-0.111412 10.8953 0)
(-0.084154 10.8052 0)
(-0.0562447 10.6522 0)
(-0.0207363 10.4097 0)
(0.00485792 9.53588 0)
(0.000886591 10.0003 0)
(0.00196046 10.0016 0)
(0.00194178 10.0039 0)
(0.00073824 10.0065 0)
(-0.0020229 10.0094 0)
(-0.00662282 10.0126 0)
(-0.0134317 10.0164 0)
(-0.0228797 10.0214 0)
(-0.0353759 10.0283 0)
(-0.0512003 10.0385 0)
(-0.0703559 10.0536 0)
(-0.0925783 10.0748 0)
(-0.117399 10.1035 0)
(-0.143839 10.1409 0)
(-0.17047 10.1883 0)
(-0.195432 10.2463 0)
(-0.216459 10.3152 0)
(-0.230117 10.395 0)
(-0.235872 10.4825 0)
(-0.236583 10.5746 0)
(-0.232379 10.6701 0)
(-0.223514 10.7668 0)
(-0.210317 10.8611 0)
(-0.193148 10.9472 0)
(-0.172261 11.0152 0)
(-0.147645 11.0503 0)
(-0.119845 11.034 0)
(-0.0885852 10.9527 0)
(-0.0572734 10.8158 0)
(-0.0229369 10.5605 0)
(0.00446126 9.5915 0)
(0.000827231 10.0003 0)
(0.00182894 10.0015 0)
(0.00174609 10.0036 0)
(0.000504146 10.006 0)
(-0.00228331 10.0086 0)
(-0.0069108 10.0113 0)
(-0.0137709 10.0145 0)
(-0.0233415 10.0184 0)
(-0.0361192 10.0239 0)
(-0.0525354 10.032 0)
(-0.0728202 10.0443 0)
(-0.096817 10.0626 0)
(-0.124024 10.0885 0)
(-0.153706 10.1232 0)
(-0.18455 10.1681 0)
(-0.214765 10.2243 0)
(-0.242098 10.2924 0)
(-0.263974 10.3721 0)
(-0.27654 10.4633 0)
(-0.279555 10.5621 0)
(-0.276704 10.6649 0)
(-0.26835 10.7703 0)
(-0.254955 10.8759 0)
(-0.237018 10.9783 0)
(-0.214967 11.0716 0)
(-0.189037 11.1463 0)
(-0.159712 11.188 0)
(-0.1282 11.1782 0)
(-0.0936479 11.1065 0)
(-0.0590584 10.9809 0)
(-0.0252681 10.7233 0)
(0.0034022 9.65696 0)
(0.000776626 10.0002 0)
(0.00171694 10.0014 0)
(0.00158267 10.0034 0)
(0.000311228 10.0057 0)
(-0.00248716 10.0079 0)
(-0.00711743 10.0103 0)
(-0.013986 10.0128 0)
(-0.0236031 10.0158 0)
(-0.0365288 10.02 0)
(-0.0533084 10.0262 0)
(-0.0743647 10.0358 0)
(-0.0998243 10.0507 0)
(-0.129306 10.0732 0)
(-0.161991 10.1047 0)
(-0.196835 10.1466 0)
(-0.232143 10.2001 0)
(-0.265704 10.2663 0)
(-0.294904 10.3453 0)
(-0.316877 10.4367 0)
(-0.327392 10.5399 0)
(-0.326629 10.6502 0)
(-0.319241 10.7636 0)
(-0.305861 10.8785 0)
(-0.287176 10.9926 0)
(-0.263824 11.1024 0)
(-0.236294 11.2023 0)
(-0.205219 11.2832 0)
(-0.171545 11.3307 0)
(-0.136636 11.3269 0)
(-0.0993305 11.2638 0)
(-0.0620023 11.1641 0)
(-0.0277219 10.898 0)
(0.00178982 9.7308 0)
(0.000733176 10.0002 0)
(0.00162113 10.0014 0)
(0.00144435 10.0033 0)
(0.000150788 10.0053 0)
(-0.00264658 10.0074 0)
(-0.00726168 10.0093 0)
(-0.0141077 10.0113 0)
(-0.0237152 10.0135 0)
(-0.0366887 10.0165 0)
(-0.0536567 10.021 0)
(-0.0751888 10.0283 0)
(-0.101654 10.04 0)
(-0.13302 10.0582 0)
(-0.16859 10.0856 0)
(-0.207171 10.1239 0)
(-0.247349 10.174 0)
(-0.28699 10.2374 0)
(-0.323475 10.3146 0)
(-0.353844 10.4055 0)
(-0.374982 10.5093 0)
(-0.382338 10.6248 0)
(-0.376668 10.7467 0)
(-0.363725 10.8704 0)
(-0.344439 10.9942 0)
(-0.319714 11.1161 0)
(-0.290328 11.2327 0)
(-0.257106 11.3386 0)
(-0.221117 11.4249 0)
(-0.18336 11.4773 0)
(-0.145082 11.4781 0)
(-0.105776 11.4412 0)
(-0.0657543 11.364 0)
(-0.0303264 11.0672 0)
(2.06587e-05 9.8109 0)
(0.000695913 10.0002 0)
(0.00153869 10.0013 0)
(0.0013268 10.0031 0)
(1.84388e-05 10.005 0)
(-0.00277117 10.0069 0)
(-0.00735842 10.0085 0)
(-0.0141598 10.01 0)
(-0.0237176 10.0115 0)
(-0.0366653 10.0135 0)
(-0.0536902 10.0165 0)
(-0.075471 10.0216 0)
(-0.102564 10.0303 0)
(-0.135237 10.0445 0)
(-0.173216 10.0669 0)
(-0.21542 10.1003 0)
(-0.260191 10.1465 0)
(-0.305694 10.2062 0)
(-0.349348 10.2805 0)
(-0.388128 10.3698 0)
(-0.418758 10.4735 0)
(-0.437952 10.5901 0)
(-0.440923 10.7181 0)
(-0.42916 10.8513 0)
(-0.409632 10.9848 0)
(-0.383584 11.117 0)
(-0.352142 11.2459 0)
(-0.316396 11.3685 0)
(-0.27755 11.4795 0)
(-0.236841 11.5702 0)
(-0.195136 11.6258 0)
(-0.154289 11.6487 0)
(-0.112691 11.6371 0)
(-0.0698297 11.5589 0)
(-0.0328283 11.2306 0)
(-0.00170114 9.89536 0)
(0.00146665 10.0012 0)
(0.000651537 10.0002 0)
(0.00122604 10.003 0)
(-9.13136e-05 10.0047 0)
(-0.00286816 10.0064 0)
(-0.00741926 10.0078 0)
(-0.0141613 10.0089 0)
(-0.0236414 10.0098 0)
(-0.0365105 10.0108 0)
(-0.0534957 10.0125 0)
(-0.0753542 10.0157 0)
(-0.102783 10.0217 0)
(-0.136286 10.0322 0)
(-0.175958 10.0498 0)
(-0.221218 10.0772 0)
(-0.270491 10.1177 0)
(-0.321573 10.1731 0)
(-0.3722 10.2436 0)
(-0.419324 10.3301 0)
(-0.459539 10.4324 0)
(-0.489323 10.5495 0)
(-0.505315 10.6792 0)
(-0.502589 10.8197 0)
(-0.483521 10.9638 0)
(-0.456412 11.1064 0)
(-0.422828 11.2462 0)
(-0.384218 11.3813 0)
(-0.342027 11.5089 0)
(-0.297635 11.624 0)
(-0.252287 11.7173 0)
(-0.207966 11.7927 0)
(-0.164036 11.8374 0)
(-0.119305 11.8299 0)
(-0.0738614 11.7474 0)
(-0.035124 11.3877 0)
(-0.00323101 9.98239 0)
(0.00113783 10.0029 0)
(0.00138357 10.0012 0)
(0.000598481 10.0002 0)
(-0.000183209 10.0045 0)
(-0.00294316 10.006 0)
(-0.00745303 10.0072 0)
(-0.0141264 10.0079 0)
(-0.0235103 10.0082 0)
(-0.0362645 10.0084 0)
(-0.053141 10.0089 0)
(-0.0749513 10.0104 0)
(-0.102496 10.014 0)
(-0.136458 10.0212 0)
(-0.177225 10.0343 0)
(-0.224664 10.0559 0)
(-0.277781 10.0894 0)
(-0.3344 10.1384 0)
(-0.39173 10.2042 0)
(-0.447046 10.2868 0)
(-0.496853 10.3865 0)
(-0.537416 10.5028 0)
(-0.565063 10.6337 0)
(-0.576479 10.7766 0)
(-0.566695 10.9292 0)
(-0.539138 11.0837 0)
(-0.503533 11.2346 0)
(-0.461818 11.381 0)
(-0.415799 11.5212 0)
(-0.367129 11.6528 0)
(-0.317215 11.7704 0)
(-0.268933 11.8826 0)
(-0.221416 11.9772 0)
(-0.173215 12.0239 0)
(-0.125431 12.0175 0)
(-0.0776548 11.9284 0)
(-0.0371809 11.5384 0)
(-0.00463229 10.0703 0)
(-0.000264742 10.0043 0)
(0.00104524 10.0027 0)
(0.00128334 10.0011 0)
(0.000547931 10.0002 1.85903e-19)
(-0.00300071 10.0057 0)
(-0.00746612 10.0066 0)
(-0.0140662 10.007 0)
(-0.0233429 10.0069 0)
(-0.0359582 10.0063 0)
(-0.0526784 10.0058 0)
(-0.0743501 10.0057 0)
(-0.101847 10.0072 0)
(-0.135987 10.0114 0)
(-0.177383 10.0204 0)
(-0.226263 10.0366 0)
(-0.282164 10.0633 0)
(-0.343579 10.1041 0)
(-0.407651 10.1628 0)
(-0.470924 10.2405 0)
(-0.530237 10.3364 0)
(-0.581687 10.4504 0)
(-0.6213 10.5812 0)
(-0.645368 10.7262 0)
(-0.650748 10.8822 0)
(-0.63255 11.0463 0)
(-0.595393 11.2103 0)
(-0.550526 11.3686 0)
(-0.500273 11.5205 0)
(-0.446687 11.6648 0)
(-0.391503 11.7987 0)
(-0.338228 11.9347 0)
(-0.286282 12.0651 0)
(-0.233879 12.1594 0)
(-0.181647 12.206 0)
(-0.130955 12.1984 0)
(-0.0810961 12.1015 0)
(-0.0389508 11.6823 0)
(-0.00587549 10.1575 0)
(-0.00305477 10.0054 0)
(-0.000334212 10.0041 0)
(0.000939881 10.0025 8.30344e-19)
(0.00118661 10.001 -5.89042e-19)
(0.000499695 10.0002 -3.70768e-19)
(-0.00746422 10.0061 0)
(-0.0139881 10.0062 0)
(-0.0231526 10.0057 0)
(-0.0356152 10.0045 0)
(-0.0521477 10.003 0)
(-0.0736185 10.0016 0)
(-0.100951 10.0011 0)
(-0.135059 10.0027 0)
(-0.176729 10.008 0)
(-0.226469 10.0193 0)
(-0.284253 10.0395 0)
(-0.349199 10.0723 0)
(-0.419201 10.1217 0)
(-0.490596 10.1916 0)
(-0.559244 10.2826 0)
(-0.621592 10.393 0)
(-0.673402 10.5221 0)
(-0.710574 10.6678 0)
(-0.729502 10.827 0)
(-0.727356 10.9957 0)
(-0.699436 11.1706 0)
(-0.651702 11.343 0)
(-0.59698 11.5075 0)
(-0.53789 11.6637 0)
(-0.476619 11.8105 0)
(-0.417582 11.9628 0)
(-0.360094 12.1164 0)
(-0.302264 12.2453 0)
(-0.245194 12.3374 0)
(-0.189212 12.3822 0)
(-0.135826 12.3719 0)
(-0.0841338 12.2663 0)
(-0.0404375 11.8192 0)
(-0.00695287 10.243 0)
(-0.00746755 10.0057 0)
(-0.00306487 10.005 -1.77447e-18)
(-0.000395036 10.0038 -8.75863e-19)
(0.000840234 10.0024 4.14265e-19)
(0.00109349 10.001 -3.9151e-19)
(0.000453828 10.0001 0)
(-0.0138984 10.0055 0)
(-0.0229484 10.0046 0)
(-0.0352526 10.0029 0)
(-0.0515794 10.0006 0)
(-0.072808 9.99797 0)
(-0.0998938 9.99578 0)
(-0.133818 9.99495 0)
(-0.175496 9.99695 0)
(-0.225652 10.0038 0)
(-0.284607 10.0181 0)
(-0.351995 10.0434 0)
(-0.426438 10.0835 0)
(-0.505097 10.1429 0)
(-0.583424 10.2255 0)
(-0.656593 10.331 0)
(-0.720741 10.457 0)
(-0.771402 10.6019 0)
(-0.804483 10.7629 0)
(-0.816634 10.9359 0)
(-0.805487 11.1166 0)
(-0.766643 11.3013 0)
(-0.707512 11.481 0)
(-0.642475 11.6504 0)
(-0.574331 11.8094 0)
(-0.508593 11.9746 0)
(-0.44468 12.1443 0)
(-0.380189 12.2959 0)
(-0.316732 12.4213 0)
(-0.255264 12.5099 0)
(-0.19587 12.5516 0)
(-0.140038 12.5374 0)
(-0.086758 12.4226 0)
(-0.0416644 11.949 0)
(-0.00786963 10.3259 0)
(-0.013827 10.0049 0)
(-0.00737895 10.0052 3.74215e-18)
(-0.00302047 10.0046 0)
(-0.000451726 10.0035 8.73606e-19)
(0.00074689 10.0022 1.44409e-22)
(0.00100413 10.0009 0)
(0.000410347 10.0001 0)
(-0.0227367 10.0037 0)
(-0.0348813 10.0014 0)
(-0.0509956 9.99839 0)
(-0.0719579 9.99475 0)
(-0.0987427 9.99104 0)
(-0.132378 9.98808 0)
(-0.173868 9.98712 0)
(-0.224104 9.98994 0)
(-0.283677 9.99894 0)
(-0.352642 10.0172 0)
(-0.430228 10.0486 0)
(-0.514423 10.0974 0)
(-0.601563 10.1683 0)
(-0.68614 10.2651 0)
(-0.76268 10.3865 0)
(-0.827131 10.529 0)
(-0.874932 10.6901 0)
(-0.902158 10.8662 0)
(-0.905871 11.0526 0)
(-0.884309 11.2443 0)
(-0.833471 11.4376 0)
(-0.762282 11.6233 0)
(-0.686585 11.796 0)
(-0.613257 11.9736 0)
(-0.54181 12.1563 0)
(-0.469542 12.3237 0)
(-0.398355 12.4713 0)
(-0.329598 12.5919 0)
(-0.264072 12.6759 0)
(-0.201624 12.7137 0)
(-0.143613 12.6946 0)
(-0.088981 12.5702 0)
(-0.0426586 12.0715 0)
(-0.00863823 10.4055 0)
(-0.0225621 10.0028 0)
(-0.0135959 10.0042 4.36646e-22)
(-0.00716253 10.0046 0)
(-0.00297647 10.0042 -9.21173e-19)
(-0.000499173 10.0032 9.51021e-23)
(0.000659659 10.002 0)
(0.000918539 10.0008 0)
(0.000369256 10.0001 0)
(-0.0345079 10.0002 0)
(-0.0504091 9.99648 0)
(-0.0710965 9.9919 0)
(-0.0975481 9.98685 0)
(-0.130822 9.98199 0)
(-0.171987 9.97839 0)
(-0.222056 9.9776 0)
(-0.281826 9.98176 0)
(-0.351691 9.9937 0)
(-0.431378 10.0169 0)
(-0.519581 10.0557 0)
(-0.613554 10.1147 0)
(-0.708715 10.1987 0)
(-0.798552 10.3111 0)
(-0.877017 10.4496 0)
(-0.94003 10.6093 0)
(-0.983101 10.7868 0)
(-1.00264 10.9776 0)
(-0.996286 11.1766 0)
(-0.962993 11.3782 0)
(-0.899242 11.5787 0)
(-0.815477 11.7686 0)
(-0.733741 11.9605 0)
(-0.653718 12.1559 0)
(-0.572289 12.3363 0)
(-0.492001 12.4994 0)
(-0.414506 12.6415 0)
(-0.340854 12.7563 0)
(-0.271654 12.8349 0)
(-0.206512 12.8679 0)
(-0.146589 12.8432 0)
(-0.0908254 12.7093 0)
(-0.0434483 12.1868 0)
(-0.00927437 10.4815 0)
(-0.0341971 9.99906 0)
(-0.0221323 10.0019 -2.0791e-18)
(-0.0131227 10.0034 0)
(-0.00695298 10.004 0)
(-0.0029185 10.0038 2.75521e-18)
(-0.000537586 10.0029 0)
(0.000578586 10.0019 0)
(0.000836816 10.0007 7.74214e-19)
(0.000330581 10.0001 0)
(-0.049827 9.99479 0)
(-0.0702395 9.98938 0)
(-0.0963462 9.98314 0)
(-0.129215 9.97659 0)
(-0.169962 9.97064 0)
(-0.219685 9.96663 0)
(-0.279341 9.96643 0)
(-0.349584 9.97261 0)
(-0.430549 9.98841 0)
(-0.521519 10.0178 0)
(-0.620548 10.0654 0)
(-0.724061 10.1362 0)
(-0.826479 10.2348 0)
(-0.920267 10.3642 0)
(-0.998927 10.5208 0)
(-1.05855 10.6981 0)
(-1.0949 10.8919 0)
(-1.10492 11.097 0)
(-1.08694 11.3074 0)
(-1.04074 11.5176 0)
(-0.963299 11.7235 0)
(-0.872429 11.9334 0)
(-0.782813 12.1436 0)
(-0.690868 12.3368 0)
(-0.599835 12.5127 0)
(-0.511981 12.67 0)
(-0.42865 12.8055 0)
(-0.350554 12.9137 0)
(-0.278078 12.9863 0)
(-0.210593 13.0139 0)
(-0.149017 12.9834 0)
(-0.0923235 12.8399 0)
(-0.0440613 12.2951 0)
(-0.00979501 10.5536 0)
(-0.0493417 9.99329 0)
(-0.0334994 9.99782 0)
(-0.021295 10.0008 -2.16361e-18)
(-0.0126692 10.0027 -2.04749e-18)
(-0.00672332 10.0034 -3.87256e-18)
(-0.00284652 10.0034 0)
(-0.000566976 10.0027 -1.72931e-18)
(0.000503836 10.0017 -1.63297e-18)
(0.000758995 10.0007 7.70538e-19)
(0.000294271 10.0001 0)
(-0.0693944 9.98715 0)
(-0.0951565 9.97985 0)
(-0.127604 9.97181 0)
(-0.167873 9.96377 0)
(-0.217128 9.95688 0)
(-0.276444 9.95278 0)
(-0.346674 9.95376 0)
(-0.428278 9.96277 0)
(-0.521024 9.98354 0)
(-0.623649 10.0205 0)
(-0.733472 10.0785 0)
(-0.845994 10.1626 0)
(-0.954576 10.2774 0)
(-1.05069 10.4251 0)
(-1.12756 10.6005 0)
(-1.18168 10.7956 0)
(-1.20926 11.0053 0)
(-1.20793 11.2236 0)
(-1.1769 11.4444 0)
(-1.11677 11.6613 0)
(-1.03212 11.8882 0)
(-0.931825 12.1173 0)
(-0.827918 12.3257 0)
(-0.724468 12.5145 0)
(-0.624363 12.6843 0)
(-0.529496 12.8346 0)
(-0.440857 12.9628 0)
(-0.358789 13.0638 0)
(-0.283433 13.1299 0)
(-0.213938 13.1518 0)
(-0.150955 13.1151 0)
(-0.0935109 12.9622 0)
(-0.0445236 12.3964 0)
(-0.010216 10.6216 0)
(-0.0686911 9.98517 0)
(-0.0482919 9.99166 -2.31167e-18)
(-0.0321619 9.99644 2.27915e-18)
(-0.0204985 9.99981 -1.0904e-21)
(-0.0121866 10.0019 2.04059e-18)
(-0.00647326 10.0029 1.92951e-18)
(-0.00276129 10.003 3.6462e-18)
(-0.000587233 10.0024 2.58252e-18)
(0.000435261 10.0016 -8.1259e-19)
(0.000685133 10.0006 0)
(0.000260313 10.0001 0)
(-0.0939869 9.97693 0)
(-0.126013 9.96757 0)
(-0.165782 9.95768 0)
(-0.21449 9.94822 0)
(-0.273305 9.94064 0)
(-0.343235 9.93694 0)
(-0.424992 9.93981 0)
(-0.518737 9.95267 0)
(-0.62378 9.97969 0)
(-0.738215 10.0257 0)
(-0.858523 10.0957 0)
(-0.979194 10.1949 0)
(-1.09252 10.3273 0)
(-1.18903 10.4944 0)
(-1.2619 10.6891 0)
(-1.30828 10.9019 0)
(-1.32504 11.1268 0)
(-1.31065 11.3572 0)
(-1.26524 11.5864 0)
(-1.1988 11.8257 0)
(-1.10417 12.0732 0)
(-0.986572 12.301 0)
(-0.868766 12.505 0)
(-0.754415 12.6875 0)
(-0.645896 12.85 0)
(-0.544637 12.9925 0)
(-0.45124 13.1128 0)
(-0.365675 13.2063 0)
(-0.28782 13.2656 0)
(-0.216625 13.2815 0)
(-0.152464 13.2387 0)
(-0.0944272 13.0767 0)
(-0.0448579 12.491 0)
(-0.0105525 10.6856 0)
(-0.0930173 9.97435 0)
(-0.0671879 9.98305 -3.27825e-21)
(-0.0462856 9.98989 0)
(-0.0308984 9.99511 -1.77225e-21)
(-0.0196613 9.99882 0)
(-0.0116749 10.0012 -2.03326e-18)
(-0.00620367 10.0023 -3.84327e-18)
(-0.00266253 10.0026 5.45208e-23)
(-0.00059848 10.0022 1.71323e-18)
(0.00037289 10.0015 -8.08246e-19)
(0.000615221 10.0006 7.62189e-19)
(0.000228681 10.0001 0)
(-0.124451 9.96381 0)
(-0.163717 9.95227 0)
(-0.211845 9.94053 0)
(-0.270056 9.92984 0)
(-0.339479 9.92195 0)
(-0.421027 9.91929 0)
(-0.515175 9.92496 0)
(-0.621701 9.94287 0)
(-0.739362 9.97759 0)
(-0.865503 10.0343 0)
(-0.99567 10.1181 0)
(-1.1233 10.234 0)
(-1.23962 10.3854 0)
(-1.33433 10.5726 0)
(-1.40082 10.7868 0)
(-1.43717 11.0168 0)
(-1.4411 11.2559 0)
(-1.41203 11.4966 0)
(-1.36101 11.7498 0)
(-1.28508 12.0113 0)
(-1.17084 12.2587 0)
(-1.03631 12.4824 0)
(-0.905252 12.6799 0)
(-0.780737 12.8549 0)
(-0.664539 13.0092 0)
(-0.557543 13.1432 0)
(-0.459941 13.2553 0)
(-0.37134 13.3411 0)
(-0.291347 13.3935 0)
(-0.218734 13.4033 0)
(-0.153599 13.3543 0)
(-0.0951092 13.1835 0)
(-0.0450851 12.5793 0)
(-0.0108178 10.7455 0)
(-0.123163 9.96048 0)
(-0.090939 9.97163 2.56368e-18)
(-0.0643049 9.98081 -2.53351e-18)
(-0.0444014 9.9882 2.39471e-18)
(-0.0295793 9.99384 0)
(-0.0187826 9.99787 0)
(-0.0111355 10.0005 2.02492e-18)
(-0.00591519 10.0018 -1.91273e-18)
(-0.00255051 10.0023 8.36316e-23)
(-0.000600689 10.002 8.52157e-19)
(0.000316581 10.0013 -8.03708e-19)
(0.000549205 10.0005 -7.56836e-19)
(0.000199519 10.0001 0)
(-0.161689 9.94747 0)
(-0.209231 9.93371 0)
(-0.26679 9.92024 0)
(-0.33557 9.90862 0)
(-0.416644 9.90098 0)
(-0.510743 9.90015 0)
(-0.618025 9.90974 0)
(-0.737799 9.93407 0)
(-0.868162 9.97811 0)
(-1.00561 10.0472 0)
(-1.14468 10.1466 0)
(-1.27774 10.2807 0)
(-1.39499 10.4522 0)
(-1.48549 10.6602 0)
(-1.54309 10.8937 0)
(-1.56713 11.1402 0)
(-1.55629 11.3918 0)
(-1.52255 11.6583 0)
(-1.46227 11.9356 0)
(-1.36528 12.1987 0)
(-1.23166 12.4428 0)
(-1.08089 12.66 0)
(-0.93741 12.8496 0)
(-0.803555 13.0159 0)
(-0.680454 13.1613 0)
(-0.568385 13.2865 0)
(-0.467119 13.3901 0)
(-0.375917 13.4681 0)
(-0.294117 13.5136 0)
(-0.220342 13.5173 0)
(-0.154414 13.4622 0)
(-0.0955919 13.2831 0)
(-0.0452237 12.6615 0)
(-0.0110241 10.8016 0)
(-0.160029 9.94321 0)
(-0.120367 9.957 0)
(-0.0869271 9.9688 2.66464e-18)
(-0.0616115 9.97866 -5.05389e-18)
(-0.042442 9.98658 4.77995e-18)
(-0.0282028 9.99262 -4.51902e-18)
(-0.0178659 9.99696 0)
(-0.0105695 9.99979 2.01639e-18)
(-0.00560782 10.0014 -1.90317e-18)
(-0.00242514 10.0019 -1.79642e-18)
(-0.000593886 10.0018 0)
(0.000266178 10.0012 7.98039e-19)
(0.000487425 10.0005 0)
(0.000173391 10.0001 0)
(-0.206662 9.92765 0)
(-0.263554 9.91171 0)
(-0.331625 9.89675 0)
(-0.412048 9.88466 0)
(-0.505762 9.87798 0)
(-0.613241 9.88001 0)
(-0.73425 9.89481 0)
(-0.867526 9.92712 0)
(-1.0104 9.98223 0)
(-1.15843 10.0656 0)
(-1.30511 10.1822 0)
(-1.44174 10.3359 0)
(-1.55761 10.5285 0)
(-1.64128 10.7574 0)
(-1.68744 11.0098 0)
(-1.6969 11.2713 0)
(-1.68264 11.5507 0)
(-1.64011 11.8436 0)
(-1.55696 12.1245 0)
(-1.43881 12.3857 0)
(-1.28636 12.6238 0)
(-1.12031 12.8327 0)
(-0.965381 13.0131 0)
(-0.823077 13.1699 0)
(-0.693848 13.3059 0)
(-0.577357 13.4221 0)
(-0.472939 13.5172 0)
(-0.379538 13.5875 0)
(-0.296231 13.6262 0)
(-0.221519 13.6239 0)
(-0.154959 13.5629 0)
(-0.0959064 13.3758 0)
(-0.04529 12.738 0)
(-0.0111808 10.8539 0)
(-0.204576 9.92227 0)
(-0.156353 9.93883 0)
(-0.114927 9.95346 0)
(-0.0831997 9.9661 5.31498e-18)
(-0.0588198 9.97662 -5.03021e-18)
(-0.0404065 9.98504 4.75676e-18)
(-0.0267758 9.99147 0)
(-0.0169128 9.9961 -2.12372e-18)
(-0.00997726 9.99916 0)
(-0.00528229 10.0009 1.89288e-18)
(-0.00228797 10.0016 0)
(-0.000577312 10.0016 0)
(0.000221533 10.0011 0)
(0.000431067 10.0004 7.71503e-19)
(0.0001504 10 3.71619e-19)
(-0.260369 9.90413 0)
(-0.3277 9.88619 0)
(-0.407383 9.87012 0)
(-0.50048 9.85819 0)
(-0.607735 9.8534 0)
(-0.729297 9.8595 0)
(-0.864437 9.881 0)
(-1.01121 9.92302 0)
(-1.1661 9.99105 0)
(-1.32366 10.0905 0)
(-1.47632 10.2259 0)
(-1.61436 10.4005 0)
(-1.72628 10.6147 0)
(-1.80042 10.8646 0)
(-1.83256 11.1347 0)
(-1.84025 11.4261 0)
(-1.818 11.7346 0)
(-1.75082 12.0337 0)
(-1.64431 12.3144 0)
(-1.50531 12.5706 0)
(-1.33491 12.8006 0)
(-1.15469 12.9997 0)
(-0.989389 13.1698 0)
(-0.839557 13.3165 0)
(-0.704954 13.4429 0)
(-0.584657 13.5501 0)
(-0.477563 13.6368 0)
(-0.382329 13.6994 0)
(-0.297786 13.7315 0)
(-0.222332 13.7234 0)
(-0.155279 13.6567 0)
(-0.0960815 13.4621 0)
(-0.0452976 12.809 0)
(-0.0112957 10.9026 0)
(-0.257809 9.8974 0)
(-0.199837 9.91677 0)
(-0.149136 9.93442 5.92656e-18)
(-0.1099 9.95009 5.61239e-18)
(-0.0793441 9.96354 5.30904e-18)
(-0.0559292 9.97469 -5.01941e-18)
(-0.0383048 9.98359 0)
(-0.0252999 9.99039 0)
(-0.0159244 9.9953 0)
(-0.00936029 9.99857 3.9907e-18)
(-0.00493976 10.0005 1.88215e-18)
(-0.00213811 10.0013 1.77311e-18)
(-0.000552579 10.0014 0)
(0.000183535 10.001 -8.13429e-19)
(0.000380339 10.0004 -3.9251e-19)
(0.000130129 10 0)
(-0.323831 9.8768 0)
(-0.402715 9.85717 0)
(-0.495078 9.84053 0)
(-0.601813 9.82959 0)
(-0.723402 9.82782 0)
(-0.859582 9.83941 0)
(-1.00902 9.8693 0)
(-1.16902 9.92289 0)
(-1.33509 10.0057 0)
(-1.50079 10.123 0)
(-1.65746 10.2788 0)
(-1.79449 10.4752 0)
(-1.89978 10.7115 0)
(-1.96157 10.9814 0)
(-1.99409 11.2839 0)
(-1.99507 11.6074 0)
(-1.9465 11.9251 0)
(-1.8537 12.2263 0)
(-1.72384 12.5034 0)
(-1.56467 12.7522 0)
(-1.37744 12.9721 0)
(-1.1843 13.1601 0)
(-1.00972 13.3193 0)
(-0.853272 13.4556 0)
(-0.714012 13.5723 0)
(-0.590483 13.6705 0)
(-0.48115 13.749 0)
(-0.384407 13.8042 0)
(-0.298867 13.8298 0)
(-0.222839 13.8161 0)
(-0.155414 13.744 0)
(-0.0961418 13.5422 0)
(-0.0452567 12.8749 0)
(-0.0113785 10.9479 0)
(-0.320758 9.86847 0)
(-0.251796 9.89056 0)