/*--------------------------------*- C++ -*----------------------------------*\
  =========                 |
  \\      /  F ield         | OpenFOAM: The Open Source CFD Toolbox
   \\    /   O peration     | Website:  https://openfoam.org
    \\  /    A nd           | Version:  8
     \\/     M anipulation  |
\*---------------------------------------------------------------------------*/
FoamFile
{
    version     2.0;
    format      ascii;
    class       volScalarField;
    location    "0.04";
    object      p;
}
// * * * * * * * * * * * * * * * * * * * * * * * * * * * * * * * * * * * * * //

dimensions      [0 2 -2 0 0 0 0];

internalField   nonuniform List<scalar> 
15677
(
61.4616
61.1051
60.6923
61.1696
60.6805
60.6942
61.1446
60.7077
60.7036
60.5878
61.1193
60.7091
60.7039
60.5969
60.4964
61.0975
60.7114
60.7037
60.5961
60.504
60.4004
61.074
60.7137
60.7034
60.5972
60.5039
60.407
60.286
61.0489
60.7162
60.7025
60.5975
60.5049
60.407
60.2918
60.1495
61.0227
60.7193
60.7011
60.5976
60.5055
60.408
60.292
60.1545
59.9834
60.9954
60.7214
60.6991
60.5974
60.5059
60.4086
60.2929
60.1547
59.9878
59.7804
60.9668
60.7228
60.6965
60.597
60.5063
60.4092
60.2936
60.1558
59.9882
59.7841
59.5326
60.9373
60.7245
60.6932
60.5968
60.5067
60.4098
60.2945
60.1567
59.9894
59.7846
59.5355
59.2319
60.9074
60.7255
60.6899
60.5969
60.5073
60.4107
60.2955
60.1578
59.9905
59.786
59.5362
59.234
58.8697
60.8776
60.7256
60.6864
60.5973
60.5083
60.412
60.2969
60.1593
59.992
59.7874
59.5379
59.2349
58.871
58.4377
60.851
60.7243
60.6829
60.5981
60.5099
60.4139
60.299
60.1614
59.9941
59.7895
59.5398
59.2368
58.872
58.438
57.9279
60.8281
60.7222
60.6794
60.5995
60.5126
60.417
60.3023
60.1646
59.9971
59.7923
59.5424
59.2392
58.8743
58.4394
57.9272
57.3326
60.8081
60.7202
60.6765
60.6015
60.5165
60.4215
60.3071
60.1693
60.0016
59.7964
59.5462
59.2427
58.8774
58.442
57.9288
57.3308
56.6452
60.7907
60.7182
60.6743
60.604
60.5219
60.4281
60.3141
60.1763
60.0082
59.8025
59.5518
59.2477
58.8819
58.4459
57.9318
57.3326
56.6421
55.86
60.7756
60.7162
60.6727
60.607
60.5285
60.4371
60.3241
60.1864
60.0179
59.8116
59.56
59.255
58.8883
58.4515
57.9366
57.3362
56.6442
55.8555
54.9727
60.7625
60.7143
60.6716
60.6104
60.5358
60.4481
60.3378
60.2007
60.032
59.8249
59.572
59.2657
58.8976
58.4596
57.9435
57.3419
56.6483
55.8579
54.9665
53.9803
60.7513
60.7127
60.6711
60.6142
60.5439
60.4601
60.3544
60.2202
60.0517
59.8438
59.5896
59.2814
58.9114
58.4714
57.9536
57.3503
56.6551
55.8625
54.9692
53.9724
52.8819
60.7424
60.7111
60.6711
60.6185
60.5526
60.4732
60.3724
60.2439
60.0787
59.8705
59.6148
59.3043
58.9316
58.4888
57.9682
57.3626
56.6652
55.8704
54.9744
53.9755
52.8721
51.678
60.7355
60.7096
60.6716
60.6231
60.5619
60.4873
60.3922
60.2697
60.1115
59.9069
59.65
59.337
58.9608
58.5141
57.9897
57.3804
56.6798
55.8822
54.9835
53.9811
52.8755
51.6663
50.372
60.7303
60.7082
60.6724
60.6281
60.5716
60.5024
60.4134
60.298
60.1472
59.9512
59.6982
59.3827
59.0026
58.5509
58.0211
57.4065
56.7011
55.8994
54.997
53.9913
52.8815
51.6699
50.3581
48.9684
60.7261
60.7071
60.6734
60.6331
60.5818
60.5181
60.4359
60.3283
60.1863
59.9995
59.7569
59.4454
59.0609
58.6033
58.0665
57.4446
56.7322
55.9243
55.0168
54.0066
52.8928
51.6763
50.3619
48.9522
47.4793
60.7229
60.7061
60.6745
60.6378
60.5918
60.5345
60.4595
60.3605
60.2284
60.0525
59.8209
59.5217
59.141
58.6766
58.1312
57.4997
56.7777
55.9608
55.0455
54.0289
52.9098
51.6885
50.3684
48.956
47.4604
45.9352
60.7203
60.7053
60.6756
60.6421
60.601
60.5505
60.4839
60.3941
60.2729
60.1094
59.8911
59.6051
59.2385
58.7771
58.2217
57.5783
56.8436
56.0142
55.0876
54.0614
52.9344
51.7069
50.3812
48.9621
47.4615
45.8796
44.2755
60.7182
60.7047
60.6768
60.646
60.6094
60.5652
60.5077
60.4289
60.3196
60.1698
59.9668
59.6966
59.3453
58.8999
58.346
57.6884
56.9375
56.0916
55.1492
54.109
52.9704
51.7336
50.4005
48.9751
47.4662
45.8823
44.2083
42.4855
60.7164
60.7042
60.6778
60.6496
60.6169
60.5785
60.5297
60.463
60.3679
60.233
60.047
59.7953
59.4626
59.0344
58.4981
57.8398
57.0693
56.2023
55.2387
54.1789
53.0233
51.7726
50.4287
48.9946
47.4775
45.8831
44.2109
42.4552
40.6381
60.715
60.7038
60.6787
60.6528
60.6236
60.5904
60.5494
60.4943
60.4151
60.2985
60.1311
59.9001
59.5892
59.1825
58.665
58.0254
57.2509
56.3577
55.367
54.2809
53.1014
51.8304
50.4701
49.0234
47.4956
45.8915
44.2052
42.4474
40.6267
38.7395
60.7138
60.7034
60.6794
60.6559
60.6296
60.6011
60.5671
60.5225
60.4585
60.3627
60.2183
60.01
59.7239
59.3424
58.849
58.2294
57.474
56.5724
55.5476
54.4274
53.2157
51.9161
50.5318
49.066
47.5233
45.9069
44.2129
42.4379
40.6097
38.7339
36.5991
60.7129
60.7032
60.6801
60.6586
60.6349
60.6106
60.583
60.5478
60.4977
60.4216
60.3037
60.1241
59.8653
59.5129
59.0482
58.4547
57.7199
56.8368
55.7979
54.6343
53.3804
52.042
50.6239
49.1304
47.5653
45.9319
44.2266
42.4471
40.6011
38.7153
36.5969
34.1882
60.712
60.7029
60.6807
60.6611
60.6396
60.6191
60.5971
60.5704
60.5328
60.4748
60.3823
60.236
60.0123
59.6921
59.2607
58.6991
57.992
57.129
56.1069
54.9217
53.6139
52.2244
50.7604
49.2276
47.6305
45.9719
44.2498
42.4603
40.6107
38.7087
36.5791
34.1879
31.7501
60.7113
60.7027
60.6813
60.6633
60.6439
60.6265
60.6096
60.5905
60.5642
60.5226
60.4533
60.339
60.1567
59.8786
59.4846
58.9604
58.2878
57.453
56.4492
55.2779
53.9395
52.4842
50.9594
49.3729
47.7308
46.0362
44.2882
42.4832
40.624
38.7168
36.5724
34.1712
31.7515
29.3274
60.7107
60.7026
60.6818
60.6652
60.6476
60.6332
60.6207
60.6084
60.5922
60.5652
60.517
60.4322
60.2897
60.0621
59.7179
59.2362
58.6046
57.8061
56.8299
55.6736
54.3445
52.848
51.2444
49.5867
47.883
46.1379
44.3515
42.5208
40.6469
38.7301
36.5772
34.164
31.7368
29.3289
26.9405
60.7024
60.7101
60.6824
60.6669
60.6509
60.6391
60.6305
60.6242
60.617
60.6033
60.574
60.5159
60.4101
60.2314
59.948
59.5242
58.9399
58.1854
57.246
56.1151
54.796
53.3025
51.6455
49.895
48.1093
46.2948
44.4537
42.5834
40.6835
38.7523
36.589
34.1654
31.7295
29.3154
26.9418
24.6022
60.6828
60.7023
60.7093
60.6683
60.6538
60.6443
60.6393
60.6383
60.639
60.637
60.6248
60.5908
60.5184
60.3848
60.1605
59.8089
59.2908
58.5877
57.694
56.599
55.3015
53.8112
52.149
50.3314
48.4383
46.5311
44.614
42.6856
40.7448
38.787
36.6085
34.1745
31.728
29.3069
26.929
24.6027
22.3247
60.6696
60.6835
60.7022
60.7085
60.6564
60.6489
60.647
60.6507
60.6586
60.667
60.67
60.6576
60.6154
60.523
60.3534
60.0723
59.6385
59.0098
58.1707
57.1219
55.8574
54.3827
52.7148
50.8822
48.9071
46.8778
44.8579
42.8477
40.8457
38.8455
36.6393
34.1891
31.7336
29.3019
26.919
24.5905
22.3241
20.1188
60.6586
60.6714
60.6844
60.7022
60.7079
60.653
60.6539
60.6617
60.6759
60.6936
60.7101
60.717
60.7019
60.6469
60.5274
60.3118
59.9609
59.4292
58.6724
57.6798
56.46
55.0134
53.353
51.504
49.5024
47.3754
45.219
43.0969
41.0076
38.9432
36.6926
34.2136
31.7426
29.3027
26.91
24.5785
22.3123
20.117
17.9929
60.6565
60.6617
60.6734
60.6853
60.7021
60.7072
60.6599
60.6715
60.6912
60.7172
60.7456
60.7698
60.779
60.7575
60.6836
60.5282
60.2547
59.8192
59.1724
58.269
57.1052
55.6996
54.0602
52.2083
50.1776
48.0111
45.741
43.4687
41.2589
39.1022
36.7842
34.2584
31.759
29.3046
26.9051
24.5654
22.298
20.1055
17.9899
15.9528
60.665
60.6613
60.6651
60.6755
60.6863
60.702
60.7066
60.6802
60.7048
60.7381
60.7772
60.8166
60.8474
60.8561
60.8232
60.7227
60.5206
60.1754
59.6386
58.8582
57.7891
56.4372
54.8325
52.9918
50.9457
48.7358
46.4121
44.0101
41.6371
39.3519
36.9366
34.3394
31.7929
29.3113
26.8986
24.554
22.2804
20.0885
17.9785
15.9487
14.0027
60.6875
60.672
60.6662
60.6685
60.6775
60.6872
60.702
60.706
60.7169
60.7566
60.8051
60.8581
60.9082
60.9437
60.9477
60.8967
60.7599
60.4984
60.0656
59.4093
58.4756
57.222
55.666
53.851
51.8037
49.5637
47.1809
44.7105
42.1921
39.7317
37.1802
34.4798
31.86
29.3317
26.8937
24.5382
22.2622
20.0666
17.9587
15.9373
13.9976
12.145
60.727
60.6972
60.6789
60.6713
60.6718
60.6795
60.6881
60.7019
60.7055
60.773
60.83
60.895
60.9622
61.0216
61.0586
61.0522
60.9745
60.7897
60.4537
59.9155
59.1199
58.013
56.5565
54.7823
52.7488
50.4927
48.0632
45.5166
42.9142
40.2935
37.5562
34.7106
31.9836
29.3817
26.8985
24.5204
22.2364
20.041
17.9323
15.9146
13.986
12.139
10.3807
60.7868
60.7404
60.7065
60.6859
60.6762
60.6751
60.6814
60.689
60.7019
60.705
60.852
60.9278
61.01
61.0908
61.1571
61.1907
61.1664
61.0513
60.8044
60.3768
59.7137
58.7583
57.458
55.7818
53.7779
51.5208
49.0578
46.4461
43.7497
41.029
38.1176
35.0742
32.1957
29.4846
26.9287
24.5078
22.2046
20.0047
17.8993
15.8837
13.9605
12.1272
10.3739
8.70973
60.8703
60.8049
60.7525
60.7159
60.6927
60.681
60.6783
60.6832
60.6899
60.7018
60.7046
60.9568
61.0527
61.1522
61.2447
61.3139
61.3376
61.2856
61.1201
60.7947
60.2564
59.4474
58.3109
56.7983
54.8875
52.6454
50.1638
47.4991
44.7179
41.8846
38.8583
35.6237
32.538
29.6723
27.0074
24.516
22.1734
19.9583
17.8521
15.8431
13.9251
12.0988
10.3618
8.70224
7.13081
60.9808
60.8945
60.8206
60.765
60.7252
60.6994
60.6856
60.6813
60.685
60.6907
60.7018
60.7042
61.0904
61.2068
61.3224
61.4235
61.49
61.4949
61.4032
61.1717
60.7494
60.0793
59.1026
57.7643
56.0215
53.8641
51.3795
48.6758
45.8203
42.8816
39.7257
36.356
33.0632
29.9851
27.1656
24.5677
22.158
19.9075
17.7905
15.785
13.877
12.0592
10.3307
8.68981
7.12272
5.64206
61.1215
61.0126
60.9144
60.8368
60.7772
60.734
60.7057
60.69
60.6842
60.6867
60.6916
60.7018
60.7038
61.2553
61.3918
61.521
61.6257
61.6816
61.6565
61.5104
61.195
60.655
59.831
58.6644
57.1042
55.1161
52.7038
49.9759
47.0585
44.0227
40.7428
37.221
33.7716
30.4747
27.4415
24.6919
22.1804
19.8676
17.7198
15.708
13.8079
12.0036
10.287
8.65606
7.10995
5.63344
4.2409
61.295
61.1629
61.0378
60.9353
60.8526
60.7888
60.7425
60.7118
60.6943
60.687
60.6883
60.6924
60.7017
60.7035
61.4532
61.6079
61.7465
61.8479
61.8828
61.8141
61.5964
61.1769
60.4968
59.4957
58.1173
56.3171
54.0716
51.3996
48.4338
45.3111
41.9136
38.2425
34.6168
31.1451
27.8852
24.9246
22.2668
19.8587
17.6546
15.6173
13.7157
11.9236
10.224
8.60835
7.07368
5.62034
4.2318
2.92424
61.5034
61.3483
61.1944
61.0643
60.9555
60.8675
60.7998
60.7505
60.7176
60.6983
60.6896
60.6899
60.6932
60.7017
60.7033
61.6849
61.8544
61.996
62.0846
62.0857
61.957
61.648
61.102
60.2581
59.0567
57.4461
55.3903
52.8783
49.9482
46.75
43.2434
39.4264
35.6223
31.9537
28.5045
25.3135
22.4512
19.9046
17.6132
15.5266
13.605
11.8164
10.1336
8.53834
7.02222
5.58169
4.21839
2.91471
1.68873
61.7475
61.5713
61.3875
61.2279
61.0899
60.9744
60.8816
60.8101
60.758
60.723
60.7021
60.6921
60.6913
60.6939
60.7017
60.7031
61.9498
62.1285
62.2647
62.3283
62.2801
62.0721
61.6498
60.9532
59.9213
58.4972
56.6357
54.3116
51.5305
48.3437
44.7378
40.7803
36.7962
32.9234
29.2605
25.8695
22.7777
20.0364
17.6167
15.452
13.489
11.6863
10.0116
8.43768
6.94538
5.52667
4.17751
2.90099
1.6788
0.530888
62.0272
61.8333
61.6197
61.4294
61.26
61.1138
60.9922
60.8947
60.8197
60.765
60.728
60.7055
60.6944
60.6926
60.6945
60.7017
60.7029
62.2456
62.4258
62.5451
62.5691
62.4529
62.144
61.5842
60.7122
59.4681
57.8002
55.6719
53.0727
50.0187
46.4036
42.313
38.1485
34.0639
30.1747
26.5576
23.2593
20.2945
17.693
15.4118
13.3808
11.5451
9.86271
8.30161
6.83492
5.4433
4.11916
2.85802
1.66479
0.520559
-0.552927
62.3402
62.1347
61.893
61.6719
61.4695
61.2899
61.136
61.0086
60.9068
60.8286
60.7715
60.7326
60.7087
60.6965
60.6937
60.695
60.7017
60.7027
62.5682
62.7395
62.8277
62.7941
62.5888
62.1549
61.4322
60.3593
58.88
56.9494
54.5435
51.6602
48.1665
44.0349
39.691
35.387
31.2574
27.3967
23.8654
20.6922
17.8775
15.4305
13.2964
11.4036
9.69685
8.1345
6.68533
5.3235
4.02956
2.79655
1.61987
0.506255
-0.563817
-1.56696
62.6825
62.4741
62.208
61.9577
61.7217
61.5066
61.3174
61.1564
61.0236
60.9178
60.8366
60.7773
60.7367
60.7116
60.6982
60.6946
60.6955
60.7017
60.7026
62.9109
63.06
63.1
62.988
62.6696
62.0852
61.1731
59.8746
58.1387
55.9308
53.2337
49.9063
45.8723
41.4364
36.9056
32.5204
28.3962
24.6105
21.2035
18.1833
15.5378
13.2566
11.275
9.52269
7.94467
6.5008
5.16106
3.90091
2.70105
1.55552
0.459523
-0.578457
-1.57883
-2.51052
63.0478
62.8483
62.5638
62.288
62.0193
61.7675
61.5406
61.3425
61.1749
61.0372
60.9277
60.8438
60.7825
60.7403
60.7139
60.6997
60.6954
60.6959
60.7017
60.7025
63.2646
63.3752
63.3467
63.1327
62.6756
61.9133
60.7859
59.238
57.2275
54.7252
51.5849
47.6984
43.31
38.6314
33.9751
29.5659
25.5018
21.8372
18.5889
15.7454
13.2839
11.1763
9.35034
7.73865
6.28786
4.95993
3.7263
2.56406
1.45446
0.392575
-0.626845
-1.59347
-2.52808
-3.29795
63.4269
63.2517
62.958
62.6625
62.3638
62.0757
61.8092
61.5713
61.365
61.1913
61.0491
60.9363
60.85
60.7868
60.7432
60.7159
60.7009
60.6961
60.6963
60.7017
60.7024
63.6171
63.6701
63.5495
63.2078
62.5841
61.6171
60.2484
58.4305
56.1254
53.1841
49.4676
45.1782
40.4909
35.6336
30.9174
26.5479
22.5985
19.0969
16.037
13.3891
11.1223
9.19316
7.5236
6.051
4.72484
3.50943
2.378
1.30965
0.286306
-0.696104
-1.64317
-2.54203
-3.30429
-3.96145
63.8078
63.6764
63.3857
63.0793
62.7557
62.433
62.1267
61.8467
61.5987
61.3848
61.2056
61.0593
60.9436
60.8551
60.7903
60.7456
60.7176
60.702
60.6967
60.6966
60.7017
60.7023
63.9535
63.9263
63.688
63.1902
62.3723
61.1726
59.5398
57.4295
54.6905
51.1558
46.9914
42.3533
37.4337
32.4687
27.7641
23.4968
19.7117
16.409
13.5611
11.123
9.05756
7.30875
5.79456
4.45832
3.25321
2.14625
1.11282
0.134204
-0.80724
-1.71431
-2.5931
-3.31191
-3.95448
-4.65051
64.1751
64.1115
63.8399
63.5347
63.1937
62.8404
62.4954
62.1723
61.8798
61.6224
61.4017
61.2175
61.0677
60.9494
60.859
60.793
60.7475
60.7189
60.7028
60.6972
60.6968
60.7017
60.7023
64.2555
64.1232
63.7386
63.0561
62.0145
60.5577
58.6356
56.0956
52.7468
48.7274
44.177
39.261
34.1796
29.1799
24.5542
20.4447
16.8656
13.7906
11.1725
8.95338
7.09243
5.52342
4.16206
2.95834
1.86994
0.867067
-0.0727131
-0.966101
-1.82998
-2.66564
-3.36364
-3.96082
-4.65024
-5.39577
64.5101
64.5431
64.3106
64.0225
63.6748
63.2973
62.9166
62.5508
62.2122
61.9081
61.6423
61.4156
61.2271
61.0741
60.9536
60.8619
60.795
60.7489
60.7199
60.7034
60.6975
60.697
60.7017
60.7022
64.5018
64.2369
63.6766
62.7787
61.4872
59.7448
57.3961
54.233
50.3748
45.9481
41.086
35.9572
30.7805
25.8127
21.3253
17.4209
14.0821
11.2565
8.87998
6.88471
5.2282
3.83641
2.62398
1.54813
0.571737
-0.331622
-1.18247
-1.99508
-2.78558
-3.43654
-4.01132
-4.66196
-5.40305
-6.21257
64.7912
64.9541
64.7852
64.5342
64.1939
63.8015
63.3903
62.9839
62.5989
62.246
61.9315
61.6582
61.4263
61.2339
61.0785
60.9565
60.8639
60.7964
60.7499
60.7206
60.7039
60.6978
60.6972
60.7017
60.7022
64.6682
64.242
63.4742
62.3327
60.7593
58.5924
55.6127
51.929
47.6575
42.8974
37.7787
32.4927
27.2812
22.4068
18.1109
14.4515
11.3793
8.81821
6.68994
4.91955
3.46487
2.24597
1.1775
0.22444
-0.644904
-1.45372
-2.2203
-2.95643
-3.56009
-4.08532
-4.71236
-5.41937
-6.2228
-7.1022
64.9928
65.3245
65.2478
65.0582
64.7436
64.3489
63.915
63.4722
63.042
62.6393
62.2735
61.9498
61.67
61.4335
61.2383
61.0812
60.9582
60.865
60.7973
60.7506
60.7211
60.7043
60.6981
60.6973
60.7017
60.7022
64.7281
64.1098
63.1044
61.6833
59.6871
56.8879
53.3883
49.297
44.68
39.6279
34.2955
28.9047
23.7185
18.9967
14.9397
11.5582
8.77207
6.48449
4.6065
3.05888
1.80126
0.749513
-0.180555
-1.01624
-1.78388
-2.50313
-3.18995
-3.73554
-4.2116
-4.78854
-5.47127
-6.24047
-7.11363
-8.06748
65.0868
65.6309
65.6792
65.5802
65.3137
64.933
64.4875
64.0148
63.5425
63.0904
62.6717
62.2945
61.9628
61.6774
61.4375
61.2403
61.0822
60.9588
60.8655
60.7976
60.7509
60.7214
60.7045
60.6983
60.6974
60.7017
60.7022
64.6518
63.8118
62.5289
60.6851
58.0614
54.7523
50.8581
46.416
41.4802
36.1659
30.6623
25.2229
20.1243
15.6123
11.8364
8.75868
6.27137
4.26115
2.63177
1.30221
0.235202
-0.655961
-1.45366
-2.17781
-2.84912
-3.48362
-3.97588
-4.39111
-4.91781
-5.55067
-6.29408
-7.13172
-8.07978
-9.1147
65.0411
65.8476
66.057
66.0828
65.8914
65.5451
65.1025
64.6093
64.1003
63.6008
63.1288
62.6959
62.3087
61.9702
61.6807
61.4386
61.2404
61.082
60.9585
60.8653
60.7976
60.7509
60.7214
60.7048
60.6985
60.6974
60.7017
60.7022
64.4077
63.3066
61.6015
59.1381
56.0199
52.3332
48.0878
43.3081
38.0712
32.5262
26.9003
21.4745
16.528
12.2799
8.82116
6.06649
3.88505
2.15165
0.766088
-0.352212
-1.23608
-1.97381
-2.64574
-3.26425
-3.84443
-4.27835
-4.63704
-5.10188
-5.68346
-6.37699
-7.18693
-8.0988
-9.12753
-10.2508
64.8191
65.9465
66.356
66.5452
66.4607
66.1735
65.7523
65.2514
64.7134
64.1708
63.6466
63.1569
62.7115
62.3159
61.9724
61.6804
61.4372
61.2388
61.0805
60.9574
60.8645
60.797
60.7506
60.7217
60.7051
60.6986
60.6974
60.7017
60.7022
63.9513
62.4464
60.1349
57.1929
53.7152
49.6808
45.086
39.9763
34.4589
28.7222
23.0313
17.6868
12.9571
9.02262
5.91034
3.49159
1.61805
0.157273
-0.991751
-1.9069
-2.61583
-3.20794
-3.76077
-4.2794
-4.65121
-4.94701
-5.35383
-5.87263
-6.51374
-7.27316
-8.15561
-9.1477
-10.2638
-11.4827
64.3701
65.8966
66.5476
66.9435
67.0025
66.8041
66.4268
65.9345
65.3787
64.7992
64.2259
63.6796
63.1743
62.7184
62.3167
61.9702
61.677
61.4337
61.2356
61.078
60.9555
60.8631
60.7961
60.7508
60.7223
60.7053
60.6986
60.6974
60.7017
60.7022
63.1312
61.0612
58.288
55.0013
51.182
46.7928
41.8486
36.4195
30.6494
24.7697
19.0798
13.888
9.43765
5.86003
3.11651
1.04075
-0.527264
-1.72259
-2.64394
-3.36498
-3.90794
-4.36235
-4.80265
-5.10227
-5.33
-5.67194
-6.1312
-6.70859
-7.41417
-8.24507
-9.20615
-10.2848
-11.4958
-12.8178
65.6549
63.5427
66.5989
67.2512
67.4948
67.4196
67.1133
66.65
66.0906
65.4836
64.8661
64.2652
63.6994
63.1809
62.7175
62.3121
61.9642
61.6709
61.4282
61.2312
61.0745
60.9528
60.8611
60.7961
60.7517
60.7226
60.7053
60.6985
60.6973
60.7017
60.7023
61.7975
59.3126
56.2081
52.585
48.4103
43.6609
38.3697
32.6381
26.6526
20.6887
15.0727
10.1067
5.99353
2.80852
0.448984
-1.28224
-2.55076
-3.4898
-4.19348
-4.73037
-5.11648
-5.441
-5.6472
-5.79459
-6.0659
-6.45816
-6.9744
-7.61524
-8.39066
-9.29898
-10.3451
-11.5174
-12.8311
-14.264
66.4708
65.0782
62.1932
67.4362
67.913
67.9993
67.7962
67.3865
66.8416
66.2195
65.5654
64.9135
64.2881
63.7058
63.1778
62.7098
62.3027
61.9548
61.6625
61.4212
61.2256
61.07
60.9494
60.8609
60.7974
60.7521
60.7226
60.7051
60.6983
60.6972
60.7017
60.7024
60.1157
57.3416
53.9071
49.9285
45.3896
40.2764
34.6455
28.6362
22.4826
16.5033
11.0401
6.37104
2.64626
-0.118726
-2.08614
-3.47609
-4.45382
-5.1472
-5.64431
-6.00726
-6.24553
-6.31523
-6.3577
-6.5451
-6.86401
-7.311
-7.88891
-8.59846
-9.44958
-10.4416
-11.5797
-12.8532
-14.2773
-15.8293
67.4614
66.0419
64.0547
60.5118
68.2265
68.5206
68.4567
68.1304
67.6221
67.0006
66.3204
65.6236
64.9411
64.2949
63.7005
63.1666
62.6963
62.2892
61.9426
61.6522
61.4128
61.2187
61.0646
60.9486
60.8626
60.7979
60.7521
60.7223
60.7047
60.6981
60.697
60.7017
60.7025
58.2208
55.1538
51.365
47.0202
42.11
36.6329
30.6753
24.4216
18.1587
12.2423
7.0134
2.70827
-0.585484
-2.91193
-4.48561
-5.54134
-6.23905
-6.69879
-7.00074
-7.19986
-7.16033
-7.05062
-7.12788
-7.35901
-7.72973
-8.23601
-8.88066
-9.66463
-10.5976
-11.68
-12.9176
-14.3002
-15.8426
-17.5218
68.4023
67.221
65.1705
62.7119
58.6303
68.955
69.074
68.8644
68.4199
67.8186
67.1258
66.3926
65.6575
64.9488
64.2873
63.6852
63.1482
62.6778
62.2723
61.928
61.6401
61.4026
61.2105
61.0631
60.9511
60.8634
60.7979
60.7517
60.7217
60.7045
60.6978
60.6968
60.7017
60.7026
56.1138
52.7254
48.5706
43.8503
38.5641
32.7264
26.4609
20.0068
13.7051
7.93766
3.02459
-0.856528
-3.68647
-5.56456
-6.74835
-7.48002
-7.9104
-8.14903
-8.26718
-8.16576
-7.92966
-7.84772
-7.96308
-8.24183
-8.66866
-9.23914
-9.95604
-10.8205
-11.8419
-13.0219
-14.3666
-15.8663
-17.5351
-19.3498
69.2736
68.3538
66.5766
63.9825
61.1577
56.5453
69.6215
69.5698
69.2197
68.6628
67.9745
67.2165
66.4355
65.6674
64.9391
64.2674
63.6612
63.1239
62.6552
62.2525
61.9114
61.6259
61.391
61.2081
61.0664
60.9521
60.8634
60.7974
60.7508
60.7214
60.7043
60.6975
60.6965
60.7017
60.7027
53.766
50.046
45.5149
40.4118
34.7462
28.5539
22.0071
15.4086
9.15091
3.62441
-0.894723
-4.30133
-6.64513
-8.07276
-8.87518
-9.29577
-9.47242
-9.5026
-9.2924
-8.97779
-8.76347
-8.71196
-8.86887
-9.19921
-9.68684
-10.3269
-11.1218
-12.0731
-13.1901
-14.475
-15.9346
-17.5594
-19.363
-21.3215
70.0748
69.4107
67.9418
65.6218
62.5891
59.4029
54.2219
70.2219
70.0044
69.52
68.8576
68.0891
67.2717
66.4493
65.6562
64.9146
64.2372
63.63
63.0945
62.6292
62.2303
61.8921
61.6097
61.3873
61.2125
61.0678
60.9521
60.8626
60.7961
60.7506
60.7214
60.7039
60.6971
60.6962
60.7017
60.7029
51.1684
47.1088
42.1924
36.6989
30.6503
24.1132
17.3213
10.6489
4.53036
-0.660843
-4.71497
-7.60789
-9.45315
-10.4351
-10.8689
-10.993
-10.93
-10.5979
-10.154
-9.85775
-9.66725
-9.64901
-9.85101
-10.2373
-10.7907
-11.506
-12.3852
-13.4302
-14.6499
-16.0473
-17.6298
-19.3881
-21.3341
-23.4483
70.8004
70.3919
69.2244
67.2268
64.4626
61.0235
57.4124
51.6505
70.7517
70.3748
69.7632
69.003
68.1612
67.2919
66.4375
65.627
64.8775
64.1983
63.5928
63.061
62.6002
62.2048
61.8704
61.6044
61.393
61.2143
61.0678
60.9511
60.8608
60.7961
60.7509
60.7211
60.7034
60.6966
60.6959
60.7017
60.703
48.3163
43.9107
38.5987
32.7046
26.2694
19.4019
12.4146
5.75628
-0.118009
-4.88138
-8.40979
-10.7616
-12.1054
-12.6528
-12.7335
-12.5768
-12.1092
-11.518
-11.0873
-10.8112
-10.6468
-10.6647
-10.9157
-11.3625
-11.9872
-12.7836
-13.7537
-14.8995
-16.2294
-17.7471
-19.4602
-21.3593
-23.4569
-26.1286
71.4444
71.2907
70.4269
68.7442
66.3047
63.1534
59.2493
55.1788
48.8273
71.2069
70.6782
69.9481
69.0976
68.1911
67.2811
66.4041
65.5827
64.83
64.1521
63.5507
63.0241
62.5673
62.1764
61.863
61.6117
61.3953
61.2143
61.0664
60.9486
60.8611
60.797
60.7509
60.7206
60.7027
60.696
60.6955
60.7017
60.7033
45.2088
40.4496
34.7275
28.4196
21.5927
14.4177
7.30365
0.765637
-4.75261
-9.00206
-11.9564
-13.7518
-14.6002
-14.7288
-14.4739
-13.8581
-13.0994
-12.5144
-12.0982
-11.844
-11.7081
-11.7654
-12.0695
-12.5818
-13.2835
-14.1675
-15.2353
-16.4891
-17.9368
-19.5823
-21.4334
-23.4821
-26.1422
-29.3218
72.0018
72.0987
71.5431
70.1781
68.0546
65.2474
61.6589
57.2546
52.7035
45.7525
71.5843
70.9127
70.0725
69.1416
68.1837
67.2443
66.3525
65.5259
64.7738
64.1001
63.5045
62.9824
62.5308
62.1664
61.8723
61.6147
61.3953
61.2125
61.0631
60.9494
60.8631
60.7975
60.7506
60.7198
60.7019
60.6954
60.695
60.7017
60.7035
41.8464
36.722
30.57
23.8278
16.6061
9.16275
2.01364
-4.2813
-9.3304
-12.9902
-15.3364
-16.5724
-16.9385
-16.6672
-15.8819
-14.9336
-14.1712
-13.5929
-13.1925
-12.9624
-12.8575
-12.9576
-13.3193
-13.9025
-14.6871
-15.6653
-16.8379
-18.2071
-19.78
-21.5605
-23.5562
-26.1738
-29.3393
-32.577
72.4685
72.8078
72.5637
71.523
69.7167
67.2433
64.0228
59.9635
55.0406
49.9935
42.4283
71.8811
71.0758
70.1362
69.1407
68.1449
67.1856
66.2859
65.4587
64.7107
64.0433
63.4526
62.9364
62.5177
62.1781
61.876
61.6147
61.393
61.2081
61.0646
60.9528
60.8645
60.7976
60.7499
60.7188
60.7009
60.6946
60.6945
60.7017
60.7038
38.2284
32.7215
26.1096
18.909
11.3002
3.65021
-3.41871
-9.3367
-13.8079
-16.8169
-18.5367
-19.2207
-19.1231
-18.2359
-17.0634
-16.0972
-15.3309
-14.7599
-14.3766
-14.1727
-14.1017
-14.2483
-14.6723
-15.3319
-16.2059
-17.2851
-18.5696
-20.0614
-21.7667
-23.6881
-26.2538
-29.3734
-32.5894
-35.8302
72.8414
73.4108
73.4789
72.7683
71.2859
69.1453
66.2833
62.6101
58.0687
52.6166
47.0594
38.8555
72.0939
71.1666
70.1462
69.1021
68.0798
67.1089
66.2068
65.3833
64.642
63.9798
63.3955
62.9196
62.5323
62.1826
61.876
61.6117
61.3872
61.2105
61.0701
60.9555
60.8653
60.7972
60.7489
60.7175
60.6996
60.6936
60.6938
60.7017
60.7042
34.3513
28.4368
21.3225
13.637
5.66363
-2.09865
-8.94558
-14.3474
-18.1436
-20.4592
-21.549
-21.6971
-20.8913
-19.5518
-18.3412
-17.3557
-16.585
-16.0217
-15.6571
-15.4818
-15.4476
-15.6446
-16.1359
-16.8778
-17.8476
-19.0348
-20.4384
-22.0599
-23.903
-26.3959
-29.4613
-32.6196
-35.8407
-39.0642
73.1161
73.9022
74.2788
73.9029
72.7518
70.9471
68.4452
65.1471
61.0096
55.9848
49.9983
43.9117
35.0335
72.2208
71.1929
70.1107
69.0319
67.993
67.0172
66.1179
65.3012
64.5653
63.9099
63.3743
62.9375
62.5378
62.1826
61.8723
61.6043
61.391
61.2188
61.0746
60.9574
60.8654
60.7963
60.7474
60.7158
60.6982
60.6925
60.6931
60.7017
60.7046
30.2074
23.8403
16.1658
7.9708
-0.317619
-8.05675
-14.5104
-19.2579
-22.3009
-23.8999
-24.3694
-23.7021
-22.3738
-20.9742
-19.7225
-18.7159
-17.94
-17.385
-17.0406
-16.8963
-16.9021
-17.1538
-17.7177
-18.5479
-19.6201
-20.9222
-22.4518
-24.2084
-26.6234
-29.6154
-32.7067
-35.8713
-39.0737
-42.2673
73.2897
74.2751
74.9538
74.9158
74.1032
72.6376
70.5017
67.5809
63.8324
59.2317
53.7302
47.2043
40.5616
30.961
72.2707
71.1648
70.0375
68.9357
67.8885
66.9139
66.0211
65.2097
64.4809
63.8837
63.3962
62.9441
62.5378
62.1781
61.8629
61.6098
61.4028
61.2258
61.0781
60.9585
60.865
60.7949
60.7455
60.7138
60.6964
60.6913
60.6924
60.7018
60.705
25.7757
18.8901
10.5828
1.86563
-6.64501
-14.1804
-20.0483
-24.0139
-26.249
-27.1279
-26.6539
-25.3822
-23.9754
-22.5111
-21.2144
-20.1843
-19.4027
-18.8565
-18.5339
-18.4232
-18.4725
-18.7832
-19.425
-20.3497
-21.5309
-22.9547
-24.6158
-26.9448
-29.8587
-32.8652
-35.9594
-39.1056
-42.2757
-45.4192
73.3716
74.5244
75.4916
75.7955
75.3285
74.2053
72.4401
69.9049
66.5448
62.3485
57.2955
51.3275
44.2542
37.0228
26.6285
72.2555
71.0913
69.9329
68.8182
67.7699
66.8013
65.9134
65.1092
64.449
63.9102
63.4041
62.9441
62.5323
62.1663
61.8705
61.6261
61.413
61.2313
61.0805
60.9588
60.8638
60.7929
60.7431
60.7115
60.6944
60.6898
60.6915
60.7018
60.7055
21.0258
13.5332
4.50793
-4.71611
-13.2992
-20.4046
-25.4888
-28.5641
-29.9642
-29.7444
-28.567
-27.1959
-25.7041
-24.1693
-22.8234
-21.7678
-20.9797
-20.443
-20.1438
-20.0695
-20.1657
-20.5398
-21.2651
-22.2903
-23.587
-25.1378
-27.3712
-30.1989
-33.1183
-36.1229
-39.1955
-42.3083
-45.4265
-48.4981
73.3761
74.6611
75.8787
76.5256
76.4154
75.6376
74.2473
72.1071
69.1421
65.3438
60.714
55.2253
48.8012
41.1671
33.3031
22.0153
72.1858
70.9803
69.8029
68.6839
67.6404
66.6759
65.7949
65.0708
64.4807
63.9196
63.4041
62.9375
62.5176
62.1765
61.8924
61.6404
61.4215
61.2357
61.082
60.9581
60.8618
60.7902
60.7402
60.7087
60.6921
60.6883
60.6907
60.7018
60.706
15.9116
7.68882
-2.14334
-11.7983
-20.2376
-26.6459
-30.7583
-32.8637
-32.9793
-31.9338
-30.6301
-29.1514
-27.567
-25.9555
-24.5563
-23.4728
-22.6775
-22.1507
-21.8767
-21.8415
-21.9883
-22.4304
-23.2445
-24.3761
-25.7933
-27.9158
-30.6462
-33.4716
-36.3848
-39.3652
-42.3991
-45.4593
-48.5041
-51.4829
73.3154
74.7026
76.1231
77.0852
77.3436
76.9223
75.9082
74.1738
71.6138
68.2157
63.9948
58.9541
53.0481
46.1755
37.9637
29.4045
17.0913
72.071
70.8388
69.6527
68.5365
67.4959
66.5377
65.7494
65.1085
64.4918
63.9196
63.3961
62.9194
62.531
62.2053
61.9118
61.6525
61.4284
61.2388
61.0822
60.9564
60.8589
60.7867
60.7367
60.7055
60.6896
60.6866
60.6898
60.7019
60.7066
10.3611
1.23396
-9.46964
-19.3897
-27.3863
-32.8037
-35.7821
-36.358
-35.4995
-34.2921
-32.851
-31.2547
-29.5698
-27.8757
-26.419
-25.3054
-24.502
-23.9858
-23.7387
-23.7453
-23.9463
-24.4609
-25.369
-26.6117
-28.5983
-31.2139
-33.9336
-36.7479
-39.6355
-42.574
-45.5505
-48.5369
-51.4876
-54.3531
73.201
74.6643
76.2438
77.4776
78.0848
78.0373
77.4077
76.0889
73.948
70.9571
67.1401
62.5223
57.097
50.7916
43.4757
34.6667
25.3306
11.8157
71.9196
70.6731
69.4869
68.3718
67.3363
66.4842
65.7939
65.1215
64.4918
63.9101
63.3742
62.9366
62.5679
62.2309
61.9285
61.6628
61.4338
61.2404
61.081
60.9535
60.855
60.7824
60.7325
60.702
60.6869
60.6849
60.6889
60.7019
60.7072
4.26241
-6.01694
-17.587
-27.4583
-34.6409
-38.7439
-39.8867
-39.2737
-38.2078
-36.8255
-35.2343
-33.5104
-31.7173
-29.935
-28.4167
-27.2708
-26.4587
-25.9535
-25.735
-25.786
-26.0447
-26.6361
-27.6422
-29.4502
-31.9227
-34.5173
-37.2197
-40.0066
-42.8505
-45.7291
-48.6279
-51.52
-54.3564
-57.0891
73.0427
74.5601
76.2598
77.7208
78.6386
78.9494
78.7195
77.8345
76.1293
73.5591
70.147
65.9382
60.9546
55.1719
48.4836
40.7294
31.299
21.0836
6.1294
71.7393
70.4888
69.3009
68.1893
67.2741
66.5365
65.809
65.1215
64.4807
63.8836
63.3958
62.9832
62.601
62.2532
61.943
61.6712
61.4372
61.2402
61.0784
60.9492
60.8499
60.7773
60.7279
60.6982
60.6841
60.6831
60.688
60.702
60.7079
-2.57482
-14.375
-26.5385
-35.959
-41.7624
-43.6262
-43.3125
-42.4005
-41.1063
-39.5351
-37.7815
-35.9208
-34.0127
-32.1369
-30.5533
-29.3731
-28.5517
-28.0581
-27.8696
-27.9677
-28.2874
-28.9586
-30.5235
-32.8069
-35.2441
-37.8128
-40.4843
-43.2256
-46.0087
-48.8084
-51.6099
-54.388
-57.091
-59.6722
72.8495
74.402
76.1886
77.8324
79.0231
79.6561
79.8032
79.3785
78.1396
76.0087
73.011
69.2035
64.6373
59.3208
53.2081
46.1532
37.9643
27.8819
16.6761
-0.0353738
71.5366
70.2809
69.0942
68.1178
67.3352
66.5538
65.809
65.1085
64.4488
63.9103
63.4536
63.0251
62.63
62.2729
61.9551
61.6771
61.4385
61.2381
61.074
60.9435
60.8437
60.7713
60.7228
60.6941
60.6812
60.6813
60.6871
60.7021
60.7085
-10.4996
-24.1824
-36.4695
-44.4642
-47.6775
-47.6939
-46.9732
-45.7395
-44.19
-42.4169
-40.4912
-38.4857
-36.4568
-34.4831
-32.8312
-31.6149
-30.7837
-30.3023
-30.1453
-30.2925
-30.6755
-31.896
-33.9212
-36.1505
-38.5496
-41.081
-43.7042
-46.3837
-49.088
-51.7904
-54.4759
-57.1213
-59.673
-62.0865
72.6294
74.2012
76.0463
77.8304
79.2562
80.1763
80.6542
80.6688
79.9423
78.2896
75.7233
72.3196
68.1526
63.2666
57.6504
51.2348
43.8269
35.2104
24.4517
12.1678
-6.76016
71.3064
70.0489
69.0125
68.1886
67.3551
66.5538
65.7939
65.0706
64.4813
63.981
63.5058
63.0622
62.656
62.2897
61.9644
61.6804
61.4373
61.2338
61.0676
60.9362
60.8365
60.7648
60.7173
60.6898
60.6781
60.6793
60.6862
60.7021
60.7093
-20.0899
-36.5918
-46.5868
-51.8093
-52.5468
-51.9988
-50.8513
-49.2769
-47.449
-45.462
-43.3578
-41.2014
-39.0475
-36.9729
-35.2504
-33.9968
-33.1555
-32.6868
-32.5625
-32.7601
-33.6873
-35.3474
-37.2936
-39.4688
-41.8207
-44.2986
-46.8576
-49.4585
-52.0666
-54.6541
-57.2063
-59.7014
-62.0859
-64.3172
72.3775
73.9666
75.8477
77.7322
79.3555
80.5287
81.2949
81.6931
81.4739
80.3638
78.2716
75.2833
71.5088
67.023
61.855
55.9723
49.2776
41.5335
32.513
21.0564
7.67127
-14.136
71.0481
69.9566
69.0943
68.2113
67.3551
66.5364
65.7491
65.1097
64.5667
64.0449
63.5521
63.0956
62.6785
62.303
61.9703
61.6806
61.4333
61.2269
61.0592
60.9274
60.8283
60.7577
60.7115
60.6854
60.6749
60.6774
60.6853
60.7022
60.71
-33.7958
-50.1834
-56.6506
-57.9784