/*--------------------------------*- C++ -*----------------------------------*\
  =========                 |
  \\      /  F ield         | OpenFOAM: The Open Source CFD Toolbox
   \\    /   O peration     | Website:  https://openfoam.org
    \\  /    A nd           | Version:  8
     \\/     M anipulation  |
\*---------------------------------------------------------------------------*/
FoamFile
{
    version     2.0;
    format      ascii;
    class       surfaceScalarField;
    location    "0.46";
    object      phi;
}
// * * * * * * * * * * * * * * * * * * * * * * * * * * * * * * * * * * * * * //

dimensions      [0 3 -1 0 0 0 0];

internalField   nonuniform List<scalar> 
31053
(
6.40144e-07
1.27399e-05
8.63159e-07
1.5157e-05
3.57381e-07
1.23825e-05
9.48798e-07
1.75544e-05
5.67563e-07
1.49468e-05
2.75237e-07
1.21072e-05
9.73473e-07
2.02153e-05
6.8232e-07
1.74396e-05
4.71106e-07
1.47509e-05
2.16685e-07
1.18906e-05
9.64854e-07
2.32486e-05
7.4107e-07
2.01566e-05
5.97065e-07
1.73136e-05
3.96995e-07
1.45706e-05
1.72248e-07
1.17183e-05
9.34924e-07
2.66899e-05
7.66158e-07
2.32235e-05
6.72245e-07
2.00814e-05
5.24381e-07
1.71863e-05
3.32868e-07
1.441e-05
1.37924e-07
1.15804e-05
8.89487e-07
3.06654e-05
7.69371e-07
2.66867e-05
7.14364e-07
2.31814e-05
6.05446e-07
2.00003e-05
4.55059e-07
1.70641e-05
2.78653e-07
1.42693e-05
1.10874e-07
1.14695e-05
8.31634e-07
3.51979e-05
7.57163e-07
3.06776e-05
7.34319e-07
2.66668e-05
6.53724e-07
2.31331e-05
5.36132e-07
1.99193e-05
3.91756e-07
1.6951e-05
2.3167e-07
1.41485e-05
8.84028e-08
1.13811e-05
7.6515e-07
4.03865e-05
7.33716e-07
3.52213e-05
7.38563e-07
3.06734e-05
6.79282e-07
2.66412e-05
5.85172e-07
2.30841e-05
4.69118e-07
1.98419e-05
3.33012e-07
1.68496e-05
1.89559e-07
1.40473e-05
6.86999e-08
1.13124e-05
6.92625e-07
4.63525e-05
7.00181e-07
4.042e-05
7.30971e-07
3.52289e-05
6.88119e-07
3.06646e-05
6.11192e-07
2.66152e-05
5.15638e-07
2.30376e-05
4.03633e-07
1.97713e-05
2.7718e-07
1.6762e-05
1.50538e-07
1.39655e-05
5.06182e-08
1.12618e-05
6.15901e-07
5.32167e-05
6.58083e-07
4.63946e-05
7.11882e-07
4.04391e-05
6.83164e-07
3.52338e-05
6.20107e-07
3.06556e-05
5.38948e-07
2.65919e-05
4.44875e-07
2.29963e-05
3.38552e-07
1.97099e-05
2.22885e-07
1.66897e-05
1.13313e-07
1.39028e-05
3.33764e-08
1.12284e-05
5.36941e-07
6.1059e-05
6.09225e-07
5.32656e-05
6.81746e-07
4.64248e-05
6.673e-07
4.0455e-05
6.15295e-07
3.52387e-05
5.44809e-07
3.06498e-05
4.62818e-07
2.65739e-05
3.72128e-07
2.29628e-05
2.72754e-07
1.966e-05
1.69024e-07
1.66339e-05
7.6938e-08
1.38592e-05
1.64646e-08
1.12119e-05
4.57601e-07
7.00613e-05
5.55176e-07
6.1113e-05
6.41656e-07
5.33057e-05
6.41493e-07
4.64506e-05
5.98997e-07
4.04713e-05
5.36681e-07
3.52468e-05
4.62826e-07
3.06498e-05
3.82336e-07
2.65637e-05
2.96344e-07
2.29392e-05
2.05229e-07
1.96238e-05
1.14794e-07
1.65961e-05
4.07186e-08
1.3835e-05
-2.89493e-10
1.12122e-05
3.79576e-07
8.041e-05
4.9735e-07
7.01192e-05
5.92854e-07
6.11618e-05
6.05802e-07
5.33414e-05
5.72318e-07
4.64772e-05
5.16527e-07
4.04914e-05
4.4827e-07
3.52613e-05
3.73961e-07
3.06582e-05
2.96466e-07
2.65636e-05
2.16512e-07
2.29279e-05
1.35288e-07
1.96033e-05
5.9572e-08
1.65772e-05
4.28029e-09
1.38304e-05
-1.7119e-08
1.12294e-05
3.1675e-07
7.62528e-05
4.37046e-07
8.04703e-05
5.36779e-07
7.01752e-05
5.60545e-07
6.12071e-05
5.35531e-07
5.33781e-05
4.85338e-07
4.65084e-05
4.21e-07
4.05187e-05
3.50192e-07
3.52851e-05
2.77204e-07
3.06774e-05
2.04159e-07
2.6576e-05
1.31948e-07
2.29312e-05
6.2399e-08
1.96005e-05
3.01264e-09
1.65785e-05
-3.25931e-08
1.38459e-05
-3.42155e-08
1.12636e-05
2.63444e-07
7.62433e-05
3.85372e-07
7.63045e-05
4.75089e-07
8.0532e-05
5.06437e-07
7.02293e-05
4.88734e-07
6.12539e-05
4.43454e-07
5.342e-05
3.81885e-07
4.65476e-05
3.12759e-07
4.05561e-05
2.41472e-07
3.53208e-05
1.71459e-07
3.07101e-05
1.04682e-07
2.66032e-05
4.21348e-08
2.29515e-05
-1.36593e-08
1.96172e-05
-5.5014e-08
1.66009e-05
-7.00608e-08
1.38817e-05
-5.15486e-08
1.13151e-05
2.18427e-07
7.6235e-05
3.38664e-07
7.629e-05
4.20475e-07
7.63591e-05
4.44684e-07
8.05938e-05
4.32231e-07
7.02859e-05
3.90955e-07
6.13064e-05
3.31211e-07
5.34707e-05
2.62404e-07
4.65979e-05
1.90834e-07
4.06068e-05
1.20972e-07
3.53713e-05
5.59319e-08
3.07589e-05
-2.48993e-09
2.66478e-05
-5.30637e-08
2.29909e-05
-9.28597e-08
1.9655e-05
-1.14473e-07
1.66453e-05
-1.08021e-07
1.39382e-05
-6.89558e-08
1.13841e-05
1.80601e-07
7.62298e-05
2.96521e-07
7.62772e-05
3.69819e-07
7.63407e-05
3.88385e-07
7.64154e-05
3.66878e-07
8.06591e-05
3.27987e-07
7.03488e-05
2.69048e-07
6.13685e-05
1.9931e-07
5.35338e-05
1.25875e-07
4.66629e-05
5.40283e-08
4.06737e-05
-1.21803e-08
3.54394e-05
-6.99239e-08
3.08263e-05
-1.17452e-07
2.67122e-05
-1.53471e-07
2.30515e-05
-1.74922e-07
1.97155e-05
-1.75061e-07
1.67124e-05
-1.46198e-07
1.40154e-05
-8.63029e-08
1.14704e-05
1.49e-07
7.62216e-05
2.58563e-07
7.62678e-05
3.2307e-07
7.63239e-05
3.35157e-07
7.63939e-05
3.0666e-07
7.64756e-05
2.55209e-07
8.07319e-05
1.95512e-07
7.04224e-05
1.23506e-07
6.14443e-05
4.66439e-08
5.3613e-05
-2.89896e-08
4.67459e-05
-9.86261e-08
4.07602e-05
-1.58553e-07
3.55281e-05
-2.06176e-07
3.0915e-05
-2.39896e-07
2.67987e-05
-2.58573e-07
2.31352e-05
-2.59253e-07
1.97997e-05
-2.36259e-07
1.68024e-05
-1.84223e-07
1.41134e-05
-1.0333e-07
1.15737e-05
1.22792e-07
7.62162e-05
2.24444e-07
7.62557e-05
2.80112e-07
7.63107e-05
2.85393e-07
7.63737e-05
2.49385e-07
7.64512e-05
1.88074e-07
7.65428e-05
1.11234e-07
8.08162e-05
3.51193e-08
7.05107e-05
-4.68944e-08
6.15379e-05
-1.28203e-07
5.37122e-05
-2.03279e-07
4.68505e-05
-2.6772e-07
4.08693e-05
-3.18187e-07
3.56401e-05
-3.52359e-07
3.10275e-05
-3.69091e-07
2.69092e-05
-3.67471e-07
2.32434e-05
-3.44968e-07
1.99084e-05
-2.97404e-07
1.69156e-05
-2.21614e-07
1.42316e-05
-1.19848e-07
1.16936e-05
1.01168e-07
7.62116e-05
1.93822e-07
7.62468e-05
2.40808e-07
7.6295e-05
2.3927e-07
7.63569e-05
1.95747e-07
7.64273e-05
1.24236e-07
7.6515e-05
3.38556e-08
7.66201e-05
-6.51341e-08
8.09164e-05
-1.54592e-07
7.06184e-05
-2.4373e-07
6.16534e-05
-3.26473e-07
5.38354e-05
-3.9761e-07
4.69804e-05
-4.53263e-07
4.10044e-05
-4.90446e-07
3.57782e-05
-5.07545e-07
3.11659e-05
-5.03831e-07
2.70455e-05
-4.78867e-07
2.33773e-05
-4.31035e-07
2.0042e-05
-3.57696e-07
1.70517e-05
-2.5786e-07
1.43697e-05
-1.35522e-07
1.18291e-05
8.47089e-08
6.95985e-05
1.664e-07
7.6239e-05
2.05005e-07
7.62826e-05
1.96869e-07
7.63374e-05
1.46138e-07
7.64065e-05
6.4638e-08
7.64869e-05
-3.94163e-08
7.65883e-05
-1.56529e-07
7.67115e-05
-2.75575e-07
8.10374e-05
-3.75405e-07
7.07501e-05
-4.68439e-07
6.17954e-05
-5.48822e-07
5.39867e-05
-6.11974e-07
4.71391e-05
-6.54442e-07
4.11684e-05
-6.74199e-07
3.59448e-05
-6.70213e-07
3.13323e-05
-6.42406e-07
2.72091e-05
-5.91314e-07
2.35376e-05
-5.16223e-07
2.02005e-05
-4.16246e-07
1.72101e-05
-2.92342e-07
1.45265e-05
-1.50163e-07
1.19792e-05
7.21281e-08
6.25566e-05
1.43954e-07
6.96209e-05
1.72577e-07
7.62715e-05
1.58218e-07
7.63213e-05
1.00793e-07
7.63828e-05
9.87428e-09
7.64612e-05
-1.07434e-07
7.65549e-05
-2.42571e-07
7.66743e-05
-3.85091e-07
7.68211e-05
-5.22147e-07
8.11842e-05
-6.28999e-07
7.09107e-05
-7.21735e-07
6.19683e-05
-7.95238e-07
5.41699e-05
-8.45366e-07
4.73301e-05
-8.69911e-07
4.13641e-05
-8.67589e-07
3.61422e-05
-8.38218e-07
3.15281e-05
-7.82916e-07
2.74007e-05
-7.0307e-07
2.37244e-05
-5.99212e-07
2.03835e-05
-4.72079e-07
1.73898e-05
-3.24552e-07
1.47009e-05
-1.633e-07
1.21425e-05
6.23374e-08
5.62278e-05
1.25763e-07
6.25748e-05
1.45827e-07
6.96477e-05
1.23329e-07
7.63064e-05
5.98599e-08
7.63622e-05
-3.96656e-08
7.64323e-05
-1.69404e-07
7.65232e-05
-3.21919e-07
7.66343e-05
-4.87592e-07
7.67768e-05
-6.54179e-07
7.69531e-05
-8.06832e-07
8.1362e-05
-9.1618e-07
7.11051e-05
-1.00363e-06
6.21767e-05
-1.06452e-06
5.43891e-05
-1.09622e-06
4.75564e-05
-1.09745e-06
4.1594e-05
-1.068e-06
3.6372e-05
-1.00918e-06
3.17544e-05
-9.2309e-07
2.76207e-05
-8.12338e-07
2.39375e-05
-6.78562e-07
2.059e-05
-5.24296e-07
1.75896e-05
-3.5353e-07
1.48911e-05
-1.74172e-07
1.23167e-05
5.46015e-08
5.05397e-05
1.10914e-07
5.62426e-05
1.24043e-07
6.25966e-05
9.47543e-08
6.96762e-05
2.34349e-08
7.63428e-05
-8.37234e-08
7.64063e-05
-2.24777e-07
7.64877e-05
-3.93581e-07
7.65949e-05
-5.81535e-07
7.67282e-05
-7.77135e-07
7.68998e-05
-9.66093e-07
7.71123e-05
-1.13058e-06
8.15764e-05
-1.23702e-06
7.13385e-05
-1.31273e-06
6.24249e-05
-1.35488e-06
5.46477e-05
-1.36193e-06
4.78208e-05
-1.33395e-06
4.18599e-05
-1.27257e-06
3.66354e-05
-1.18029e-06
3.20116e-05
-1.0606e-06
2.7869e-05
-9.17129e-07
2.41761e-05
-7.52948e-07
2.08186e-05
-5.71503e-07
1.78075e-05
-3.78627e-07
1.50956e-05
-1.82751e-07
1.24995e-05
4.8408e-08
4.54262e-05
9.87009e-08
5.05519e-05
1.06215e-07
5.62605e-05
7.17317e-08
6.26196e-05
-5.84501e-09
6.97055e-05
-1.22123e-07
7.63812e-05
-2.7317e-07
7.64547e-05
-4.56831e-07
7.65509e-05
-6.65717e-07
7.66791e-05
-8.89245e-07
7.68403e-05
-1.11383e-06
7.70475e-05
-1.32195e-06
7.73037e-05
-1.49357e-06
8.18329e-05
-1.58995e-06
7.16157e-05
-1.64703e-06
6.2717e-05
-1.6633e-06
5.49491e-05
-1.63884e-06
4.81257e-05
-1.57601e-06
4.21634e-05
-1.47788e-06
3.6933e-05
-1.34864e-06
3.22996e-05
-1.19286e-06
2.81447e-05
-1.01563e-06
2.44388e-05
-8.20521e-07
2.10677e-05
-6.12892e-07
1.80418e-05
-3.96348e-07
1.53091e-05
-1.5058e-07
1.265e-05
4.33884e-08
4.0831e-05
8.85871e-08
4.54363e-05
9.15494e-08
5.05666e-05
5.31643e-08
5.6279e-05
-2.89033e-08
6.26426e-05
-1.5215e-07
6.97355e-05
-3.14321e-07
7.64223e-05
-5.11149e-07
7.6509e-05
-7.39214e-07
7.66244e-05
-9.89071e-07
7.67789e-05
-1.24802e-06
7.69745e-05
-1.49901e-06
7.72246e-05
-1.72209e-06
7.75322e-05
-1.89411e-06
8.21371e-05
-1.97277e-06
7.19415e-05
-2.0031e-06
6.30568e-05
-1.98557e-06
5.52958e-05
-1.92299e-06
4.84727e-05
-1.81955e-06
4.2505e-05
-1.68038e-06
3.72647e-05
-1.51097e-06
3.26177e-05
-1.31752e-06
2.84466e-05
-1.10551e-06
2.47238e-05
-8.79995e-07
2.13348e-05
-6.43458e-07
1.82889e-05
-3.91177e-07
1.55497e-05
-1.01765e-07
1.27518e-05
3.9272e-08
3.67001e-05
8.01712e-08
4.08394e-05
7.94257e-08
4.54484e-05
3.81734e-08
5.05816e-05
-4.70007e-08
5.62971e-05
-1.74995e-07
6.26655e-05
-3.45421e-07
6.97666e-05
-5.56164e-07
7.64674e-05
-8.01344e-07
7.65711e-05
-1.07547e-06
7.67108e-05
-1.36695e-06
7.68978e-05
-1.65942e-06
7.71349e-05
-1.93319e-06
7.74357e-05
-2.16475e-06
7.78029e-05
-2.32986e-06
8.24942e-05
-2.38166e-06
7.232e-05
-2.37614e-06
6.34474e-05
-2.31709e-06
5.56899e-05
-2.20956e-06
4.88627e-05
-2.06031e-06
4.2885e-05
-1.87612e-06
3.76299e-05
-1.66437e-06
3.29646e-05
-1.43175e-06
2.87728e-05
-1.18496e-06
2.50287e-05
-9.26549e-07
2.16178e-05
-6.56198e-07
1.85539e-05
-3.67102e-07
1.58151e-05
-8.1672e-08
1.28335e-05
3.58598e-08
3.29894e-05
7.31451e-08
3.67071e-05
6.93717e-08
4.08495e-05
2.60541e-08
4.54606e-05
-6.11577e-08
5.05958e-05
-1.92175e-07
5.63143e-05
-3.68031e-07
6.26881e-05
-5.8893e-07
6.97994e-05
-8.51606e-07
7.65176e-05
-1.14755e-06
7.66432e-05
-1.46921e-06
7.68131e-05
-1.80116e-06
7.70395e-05
-2.1242e-06
7.73259e-05
-2.41464e-06
7.76856e-05
-2.64757e-06
7.81206e-05
-2.79665e-06
8.29092e-05
-2.81118e-06
7.27551e-05
-2.76082e-06
6.38911e-05
-2.6522e-06
5.61326e-05
-2.49352e-06
4.92959e-05
-2.29364e-06
4.33025e-05
-2.06162e-06
3.80271e-05
-1.80554e-06
3.33384e-05
-1.53324e-06
2.91211e-05
-1.24968e-06
2.53519e-05
-9.55407e-07
2.19171e-05
-6.55817e-07
1.88427e-05
-3.45574e-07
1.6079e-05
-7.66918e-08
1.29102e-05
3.30059e-08
2.96509e-05
6.72547e-08
3.29953e-05
6.10196e-08
3.67155e-05
1.62206e-08
4.08593e-05
-7.21982e-08
4.54716e-05
-2.04921e-07
5.06085e-05
-3.84023e-07
5.63303e-05
-6.11487e-07
6.27106e-05
-8.86841e-07
6.98346e-05
-1.20468e-06
7.65747e-05
-1.55371e-06
7.67277e-05
-1.92253e-06
7.69345e-05
-2.29273e-06
7.72081e-05
-2.64071e-06
7.7552e-05
-2.94106e-06
7.79791e-05
-3.16613e-06
7.84901e-05
-3.28835e-06
8.33864e-05
-3.25529e-06
7.32495e-05
-3.15071e-06
6.43896e-05
-2.98518e-06
5.66242e-05
-2.7695e-06
4.97718e-05
-2.51542e-06
4.37563e-05
-2.23303e-06
3.84546e-05
-1.93167e-06
3.37368e-05
-1.61819e-06
2.94896e-05
-1.29591e-06
2.56924e-05
-9.71706e-07
2.22329e-05
-6.51663e-07
1.91487e-05
-3.34813e-07
1.63371e-05
-8.22531e-08
1.29924e-05
3.06008e-08
2.66504e-05
6.2289e-08
2.96558e-05
5.40638e-08
3.30023e-05
8.20059e-09
3.67235e-05
-8.07882e-08
4.08679e-05
-2.14221e-07
4.54809e-05
-3.94908e-07
5.06194e-05
-6.26166e-07
5.6345e-05
-9.09684e-07
6.27335e-05
-1.24337e-06
6.98733e-05
-1.61958e-06
7.66406e-05
-2.02215e-06
7.68273e-05
-2.43673e-06
7.70785e-05
-2.84017e-06
7.74075e-05
-3.20679e-06
7.78177e-05
-3.50787e-06
7.83208e-05
-3.71378e-06
7.89155e-05
-3.79834e-06
8.39294e-05
-3.70679e-06
7.38056e-05
-3.53927e-06
6.49437e-05
-3.30977e-06
5.71645e-05
-3.03265e-06
5.0289e-05
-2.72121e-06
4.42445e-05
-2.38707e-06
3.891e-05
-2.03929e-06
3.41579e-05
-1.68355e-06
2.98772e-05
-1.32806e-06
2.60487e-05
-9.82748e-07
2.2564e-05
-6.49346e-07
1.94633e-05
-3.33781e-07
1.65886e-05
-1.1147e-07
1.31039e-05
2.85607e-08
2.3956e-05
5.80786e-08
2.66546e-05
4.82476e-08
2.96616e-05
1.63279e-09
3.30088e-05
-8.74602e-08
3.67302e-05
-2.20861e-07
4.08746e-05
-4.01894e-07
4.54879e-05
-6.34845e-07
5.06281e-05
-9.23039e-07
5.63583e-05
-1.26697e-06
6.27571e-05
-1.66294e-06
6.99167e-05
-2.09893e-06
7.67174e-05
-2.5545e-06
7.69451e-05
-3.01055e-06
7.72488e-05
-3.44151e-06
7.76423e-05
-3.8178e-06
7.81277e-05
-4.10805e-06
7.87151e-05
-4.28349e-06
7.94006e-05
-4.31861e-06
8.45412e-05
-4.15824e-06
7.44246e-05
-3.91929e-06
6.55532e-05
-3.62029e-06
5.77521e-05
-3.27783e-06
5.08456e-05
-2.90721e-06
4.47646e-05
-2.52041e-06
3.93911e-05
-2.12585e-06
3.46002e-05
-1.73271e-06
3.02819e-05
-1.35242e-06
2.64184e-05
-9.91934e-07
2.29066e-05
-6.50276e-07
1.97798e-05
-4.15645e-07
1.68928e-05
-1.20293e-07
1.32242e-05
2.68205e-08
2.15337e-05
5.44899e-08
2.39596e-05
4.33596e-08
2.66595e-05
-3.75664e-09
2.9667e-05
-9.26312e-08
3.3014e-05
-2.25464e-07
3.67348e-05
-4.05938e-07
4.08786e-05
-6.39021e-07
4.54921e-05
-9.29247e-07
5.06343e-05
-1.27909e-06
5.63705e-05
-1.68796e-06
6.27821e-05
-2.1484e-06
6.99662e-05
-2.64467e-06
7.68076e-05
-3.14978e-06
7.70843e-05
-3.6423e-06
7.74496e-05
-4.09219e-06
7.79166e-05
-4.46657e-06
7.84862e-05
-4.73429e-06
7.91659e-05
-4.86662e-06
7.99486e-05
-4.84079e-06
8.52238e-05
-4.60136e-06
7.51067e-05
-4.28418e-06
6.62171e-05
-3.91087e-06
5.83852e-05
-3.5007e-06
5.14391e-05
-3.07005e-06
4.53142e-05
-2.63077e-06
3.9896e-05
-2.19373e-06
3.50612e-05
-1.77079e-06
3.07003e-05
-1.37173e-06
2.67982e-05
-9.99687e-07
2.3256e-05
-8.05549e-07
2.01697e-05
-4.17136e-07
1.71897e-05
-1.30329e-07
1.33545e-05
2.53287e-08
1.93535e-05
5.1417e-08
2.15368e-05
3.92301e-08
2.39638e-05
-8.18688e-09
2.66639e-05
-9.66246e-08
2.9671e-05
-2.28516e-07
3.3017e-05
-4.07791e-07
3.67366e-05
-6.39874e-07
4.08795e-05
-9.30169e-07
4.5493e-05
-1.28263e-06
5.06378e-05
-1.69907e-06
5.63816e-05
-2.17568e-06
6.28094e-05
-2.70199e-06
7.00235e-05
-3.25614e-06
7.69139e-05
-3.80664e-06
7.72487e-05
-4.32757e-06
7.7685e-05
-4.785e-06
7.82351e-05
-5.14558e-06
7.88975e-05
-5.37744e-06
7.96767e-05
-5.45401e-06
8.05619e-05
-5.35548e-06
8.59779e-05
-5.02864e-06
7.58511e-05
-4.62721e-06
6.69335e-05
-4.17652e-06
5.9061e-05
-3.69767e-06
5.20668e-05
-3.20748e-06
4.58909e-05
-2.71957e-06
4.04219e-05
-2.24687e-06
3.55373e-05
-1.80007e-06
3.11286e-05
-1.38613e-06
2.71846e-05
-1.24142e-06
2.36919e-05
-8.00772e-07
2.05533e-05
-4.19013e-07
1.74783e-05
-1.38122e-07
1.34926e-05
1.73973e-05
2.40444e-08
4.87748e-08
1.93561e-05
3.57242e-08
2.15403e-05
-1.1838e-08
2.39674e-05
-9.96932e-08
2.6667e-05
-2.30398e-07
2.96729e-05
-4.08036e-07
3.30173e-05
-6.38324e-07
3.67351e-05
-9.27264e-07
4.08765e-05
-1.2799e-06
4.54902e-05
-1.69984e-06
5.06386e-05
-2.18616e-06
5.63921e-05
-2.73264e-06
6.284e-05
-3.32338e-06
7.00907e-05
-3.93238e-06
7.70397e-05
-4.52093e-06
7.7442e-05
-5.0593e-06
7.79593e-05
-5.5124e-06
7.86019e-05
-5.84532e-06
7.93654e-05
-6.02771e-06
8.02504e-05
-6.03534e-06
8.12417e-05
-5.85416e-06
8.68034e-05
-5.43233e-06
7.66563e-05
-4.94261e-06
6.76996e-05
-4.41321e-06
5.97765e-05
-3.86624e-06
5.27255e-05
-3.32001e-06
4.64914e-05
-2.78966e-06
4.09647e-05
-2.28711e-06
3.60244e-05
-1.82075e-06
3.15632e-05
-1.72392e-06
2.76671e-05
-1.23365e-06
2.41248e-05
-7.93231e-07
2.09275e-05
-4.1833e-07
1.77585e-05
-1.43159e-07
1.36358e-05
1.73996e-05
4.64911e-08
2.78121e-05
2.19661e-08
3.27344e-08
1.93591e-05
-1.48559e-08
2.15433e-05
-1.02037e-07
2.39698e-05
-2.31403e-07
2.6668e-05
-4.07127e-07
2.9672e-05
-6.35083e-07
3.30141e-05
-9.21669e-07
3.67295e-05
-1.27269e-06
4.08693e-05
-1.6931e-06
4.54835e-05
-2.18419e-06
5.06366e-05
-2.74309e-06
5.64025e-05
-3.35881e-06
6.28755e-05
-4.012e-06
7.01703e-05
-4.66963e-06
7.71884e-05
-5.28586e-06
7.76686e-05
-5.83007e-06
7.8277e-05
-6.26467e-06
7.90212e-05
-6.55554e-06
7.98932e-05
-6.67399e-06
8.0889e-05
-6.60123e-06
8.19888e-05
-6.32797e-06
8.7699e-05
-5.80577e-06
7.75194e-05
-5.22574e-06
6.85121e-05
-4.61797e-06
6.05283e-05
-4.00606e-06
5.34116e-05
-3.4095e-06
4.71112e-05
-2.84242e-06
4.152e-05
-2.31471e-06
3.65183e-05
-2.26553e-06
3.21048e-05
-1.71422e-06
2.81477e-05
-1.21831e-06
2.45499e-05
-7.81178e-07
2.12904e-05
-4.14195e-07
1.80296e-05
-1.45552e-07
1.37813e-05
1.74021e-05
3.01755e-08
2.78157e-05
4.28322e-08
2.8552e-05
1.99882e-08
-1.73581e-08
1.93616e-05
-1.03812e-07
2.15451e-05
-2.31761e-07
2.39701e-05
-4.0541e-07
2.66663e-05
-6.30699e-07
2.96676e-05
-9.14259e-07
3.30066e-05
-1.26242e-06
3.67192e-05
-1.68109e-06
4.08573e-05
-2.17322e-06
4.54725e-05
-2.7386e-06
5.06321e-05
-3.37012e-06
5.64138e-05
-4.054e-06
6.29175e-05
-4.76449e-06
7.02652e-05
-5.46145e-06
7.7364e-05
-6.09429e-06
7.79328e-05
-6.63008e-06
7.86424e-05
-7.03125e-06
7.94969e-05
-7.26451e-06
8.04837e-05
-7.30613e-06
8.15939e-05
-7.14178e-06
8.28026e-05
-6.76917e-06
8.86625e-05
-6.14344e-06
7.84371e-05
-5.47292e-06
6.9367e-05
-4.78961e-06
6.13118e-05
-4.1181e-06
5.41202e-05
-3.47685e-06
4.77457e-05
-2.87815e-06
4.20834e-05
-2.88076e-06
3.71335e-05
-2.25326e-06
3.26439e-05
-1.69188e-06
2.86213e-05
-1.19514e-06
2.49638e-05
-7.64121e-07
2.16403e-05
-4.06665e-07
1.82907e-05
-1.45589e-07
1.39269e-05
1.74042e-05
-1.94416e-08
2.78193e-05
2.66419e-08
2.85555e-05
3.93196e-08
2.93119e-05
1.81132e-08
-1.05144e-07
1.9363e-05
-2.31648e-07
2.1545e-05
-4.03151e-07
2.39679e-05
-6.25586e-07
2.66612e-05
-9.05699e-07
2.9659e-05
-1.25014e-06
3.29944e-05
-1.66552e-06
3.67036e-05
-2.15598e-06
4.08401e-05
-2.72332e-06
4.54573e-05
-3.36356e-06
5.06256e-05
-4.0674e-06
5.64272e-05
-4.81527e-06
6.29683e-05
-5.57489e-06
7.03786e-05
-6.30115e-06
7.75708e-05
-6.93653e-06
7.82392e-05
-7.44869e-06
7.90598e-05
-7.79995e-06
8.00324e-05
-7.9614e-06
8.1139e-05
-7.91328e-06
8.23654e-05
-7.64824e-06
8.36817e-05
-7.1712e-06
8.96902e-05
-6.44082e-06
7.9405e-05
-5.68213e-06
7.02596e-05
-4.92826e-06
6.2122e-05
-4.20279e-06
5.48461e-05
-3.52243e-06
4.83899e-05
-3.58291e-06
4.27856e-05
-2.86538e-06
3.77457e-05
-2.22328e-06
3.31753e-05
-1.65783e-06
2.9084e-05
-1.16451e-06
2.53642e-05
-7.42489e-07
2.19761e-05
-3.9608e-07
1.85412e-05
-1.43692e-07
1.40706e-05
1.74052e-05
-1.06131e-07
2.78211e-05
-2.12239e-08
2.85588e-05
2.33374e-08
2.93152e-05
3.59591e-08
3.00898e-05
1.63421e-08
-2.312e-07
1.93625e-05
-4.0055e-07
2.15424e-05
-6.20056e-07
2.39623e-05
-8.96493e-07
2.6652e-05
-1.23669e-06
2.96456e-05
-1.6477e-06
3.29766e-05
-2.13455e-06
3.66822e-05
-2.70054e-06
4.08173e-05
-3.3441e-06
4.54378e-05
-4.05955e-06
5.06177e-05
-4.83241e-06
5.64444e-05
-5.63713e-06
6.30305e-05
-6.43697e-06
7.05145e-05
-7.17932e-06
7.78136e-05
-7.80202e-06
7.85926e-05
-8.27342e-06
7.95333e-05
-8.55945e-06
8.06304e-05
-8.63451e-06
8.18602e-05
-8.48569e-06
8.32029e-05
-8.11302e-06
8.46235e-05
-7.52843e-06
9.07778e-05
-6.69491e-06
8.04178e-05
-5.85267e-06
7.1184e-05
-5.03391e-06
6.29531e-05
-4.26051e-06
5.55842e-05
-4.38663e-06
4.91937e-05
-3.56439e-06
4.34846e-05
-2.82681e-06
3.83492e-05
-2.17748e-06
3.36949e-05
-1.61328e-06
2.95327e-05
-1.12751e-06
2.57492e-05
-7.16969e-07
2.2297e-05
-3.82989e-07
1.87805e-05
-1.4027e-07
1.42109e-05
1.74045e-05
-2.30521e-07
2.78194e-05
-1.04481e-07
2.85603e-05
-2.27147e-08
2.93183e-05
2.02621e-08
3.0093e-05
3.2753e-08
3.08897e-05
1.46754e-08
-3.97759e-07
1.93597e-05
-6.14341e-07
2.15367e-05
-8.87011e-07
2.39528e-05
-1.22267e-06
2.6638e-05
-1.62864e-06
2.96265e-05
-2.11054e-06
3.29526e-05
-2.6728e-06
3.66545e-05
-3.31568e-06
4.07889e-05
-4.03635e-06
4.54146e-05
-4.82445e-06
5.06098e-05
-5.66013e-06
5.64673e-05
-6.5139e-06
6.31074e-05
-7.34179e-06
7.06769e-05
-8.08569e-06
7.80973e-05
-8.67821e-06
7.89973e-05
-9.09261e-06
8.00665e-05
-9.29732e-06
8.12932e-05
-9.27321e-06
8.26477e-05
-9.01478e-06
8.41047e-05
-8.52942e-06
8.56245e-05
-7.83678e-06
9.19197e-05
-6.90417e-06
8.14693e-05
-5.98402e-06
7.21341e-05
-5.10685e-06
6.37994e-05
-5.30868e-06
5.65062e-05
-4.36543e-06
4.99947e-05
-3.51656e-06
4.41743e-05
-2.76792e-06
3.89396e-05
-2.11786e-06
3.41995e-05
-1.56004e-06
2.99653e-05
-1.08537e-06
2.61176e-05
-6.8841e-07
2.26024e-05
-3.67972e-07
1.90082e-05
-1.35698e-07
1.43466e-05
1.74016e-05
-3.94888e-07
2.78127e-05
-2.23803e-07
2.85582e-05
-1.02423e-07
2.93195e-05
-2.39005e-08
3.00958e-05
1.74196e-08
3.08927e-05
2.97059e-08
3.17096e-05
1.31119e-08
-6.08613e-07
1.9354e-05
-8.77526e-07
2.15272e-05
-1.20853e-06
2.39387e-05
-1.60907e-06
2.66184e-05
-2.08518e-06
2.96012e-05
-2.64205e-06
3.29218e-05
-3.28134e-06
3.66201e-05
-4.00242e-06
4.0755e-05
-4.79826e-06
4.53884e-05
-5.65368e-06
5.06033e-05
-6.54539e-06
5.64988e-05
-7.43712e-06
6.32027e-05
-8.27946e-06
7.08707e-05
-9.00784e-06
7.84269e-05
-9.55329e-06
7.9458e-05
-9.89328e-06
8.06624e-05
-1.00021e-05
8.20222e-05
-9.86798e-06
8.35009e-05
-9.49283e-06
8.50681e-05
-8.8924e-06
8.66801e-05
-8.09384e-06
9.31094e-05
-7.06751e-06
8.25528e-05
-6.07628e-06
7.31035e-05
-6.3679e-06
6.48587e-05
-5.28582e-06
5.74266e-05
-4.30795e-06
5.07861e-05
-3.44329e-06
4.48497e-05
-2.69159e-06
3.95134e-05
-2.047e-06
3.46865e-05
-1.50002e-06
3.03799e-05
-1.0394e-06
2.64686e-05
-6.57656e-07
2.28921e-05
-3.51587e-07
1.92241e-05
-1.30308e-07
1.44769e-05
1.7396e-05
-6.0299e-07
2.77991e-05
-3.8133e-07
2.8551e-05
-2.16561e-07
2.9317e-05
-9.99732e-08
3.00967e-05
-2.47796e-08
3.08953e-05
1.48086e-08
3.17124e-05
2.68212e-08
3.25535e-05
1.16534e-08
-8.68235e-07
1.93447e-05
-1.19459e-06
2.15133e-05
-1.58954e-06
2.39192e-05
-2.05935e-06
2.65926e-05
-2.60974e-06
2.95689e-05
-3.24341e-06
3.28839e-05
-3.96141e-06
3.65791e-05
-4.7593e-06
4.0716e-05
-5.62573e-06
4.53605e-05
-6.5426e-06
5.06005e-05
-7.48031e-06
5.6542e-05
-8.39741e-06
6.33207e-05
-9.23789e-06
7.11007e-05
-9.93401e-06
7.88076e-05
-1.04139e-05
7.99787e-05
-1.06634e-05
8.13237e-05
-1.06635e-05
8.28177e-05
-1.04101e-05
8.44182e-05
-9.91385e-06
8.60895e-05
-9.19876e-06
8.7785e-05
-8.29785e-06
9.43397e-05
-7.18473e-06
8.36612e-05
-7.5839e-06
7.43195e-05
-6.34516e-06
6.5918e-05
-5.21863e-06
5.83373e-05
-4.21908e-06
5.15619e-05
-3.3484e-06
4.55065e-05
-2.60116e-06
4.00675e-05
-1.96746e-06
3.51539e-05
-1.43507e-06
3.07756e-05
-9.90802e-07
2.68018e-05
-6.25493e-07
2.3166e-05
-3.34348e-07
1.94281e-05
-1.2436e-07
1.46013e-05
1.73871e-05
-8.59272e-07
2.77767e-05
-5.8058e-07
2.85367e-05
-3.67056e-07
2.93092e-05
-2.08739e-07
3.00938e-05
-9.71006e-08
3.08959e-05
-2.53523e-08
3.17148e-05
1.24287e-08
3.25562e-05
2.40966e-08
3.34194e-05
1.02967e-08
-1.18108e-06
1.93312e-05
-1.57043e-06
2.14942e-05
-2.03371e-06
2.38935e-05
-2.57699e-06
2.65598e-05
-3.20367e-06
2.95291e-05
-3.91607e-06
3.28385e-05
-4.71182e-06
3.65316e-05
-5.58259e-06
4.06729e-05
-6.51459e-06
4.53325e-05
-7.48388e-06
5.06041e-05
-8.45605e-06
5.66007e-05
-9.38313e-06
6.34659e-05
-1.02056e-05
7.13723e-05
-1.08507e-05
7.92444e-05
-1.12475e-05
8.05628e-05
-1.13917e-05
8.20518e-05
-1.12717e-05
8.36793e-05
-1.08925e-05
8.53968e-05
-1.02737e-05
8.71645e-05
-9.44605e-06
8.89332e-05
-8.44826e-06
9.56032e-05
-8.97855e-06
8.50559e-05
-7.56426e-06
7.55386e-05
-6.26869e-06
6.69681e-05
-5.11311e-06
5.92313e-05
-4.10371e-06
5.23172e-05
-3.23609e-06
4.61414e-05
-2.49988e-06
4.05999e-05
-1.88169e-06
3.56005e-05
-1.36684e-06
3.11516e-05
-9.40657e-07
2.71169e-05
-5.92641e-07
2.34243e-05
-3.16646e-07
1.96204e-05
-1.18085e-07
1.47193e-05
1.73741e-05
-1.16816e-06
2.77431e-05
-8.25642e-07
2.85134e-05
-5.57284e-07
2.92943e-05
-3.52108e-07
3.00855e-05
-2.00424e-07
3.08926e-05
-9.38307e-08
3.17151e-05
-2.56156e-08
3.25583e-05
1.02799e-08
3.34219e-05
2.15354e-08
3.43053e-05
9.04045e-09
-1.55203e-06
1.93128e-05
-2.00874e-06
2.14692e-05
-2.54456e-06
2.38611e-05
-3.16341e-06
2.65195e-05
-3.86853e-06
2.94816e-05
-4.65911e-06
3.27858e-05
-5.52923e-06
3.64783e-05
-6.46859e-06
4.06269e-05
-7.45803e-06
4.53066e-05
-8.46923e-06
5.06173e-05
-9.46148e-06
5.6679e-05
-1.03831e-05
6.36435e-05
-1.1169e-05
7.16906e-05
-1.1745e-05
7.97419e-05
-1.20422e-05
8.12134e-05
-1.20676e-05
8.28476e-05
-1.18188e-05
8.46056e-05
-1.13102e-05
8.64333e-05
-1.05692e-05
8.82876e-05
-9.63313e-06
9.01181e-05
-1.05754e-05
9.72001e-05
-8.96734e-06
8.6459e-05
-7.48002e-06
7.67499e-05
-6.14573e-06
6.80007e-05
-4.97524e-06
6.01029e-05
-3.96698e-06
5.30481e-05
-3.1104e-06
4.6752e-05
-2.39084e-06
4.11091e-05
-1.79182e-06
3.60255e-05
-1.29679e-06
3.15077e-05
-8.89951e-07
2.74142e-05
-5.59621e-07
2.36673e-05
-2.98848e-07
1.98012e-05
-1.11663e-07
1.4831e-05
1.73566e-05
-1.53449e-06
2.76958e-05
-1.12089e-06
2.84787e-05
-7.90912e-07
2.927e-05
-5.33047e-07
3.00698e-05
-3.36432e-07
3.08838e-05
-1.91565e-07
3.17114e-05
-9.01548e-08
3.25583e-05
-2.5577e-08
3.34238e-05
8.3557e-09
3.43077e-05
1.91358e-08
3.52192e-05
7.88329e-09
-1.98475e-06
1.92888e-05
-2.51304e-06
2.14377e-05
-3.12361e-06
2.38213e-05
-3.82036e-06
2.64714e-05
-4.60365e-06
2.94261e-05
-5.46948e-06
3.27261e-05
-6.41033e-06
3.642e-05
-7.411e-06
4.05798e-05
-8.44835e-06
4.52857e-05
-9.48809e-06
5.06439e-05
-1.04859e-05
5.67818e-05
-1.13841e-05
6.38586e-05
-1.21153e-05
7.20609e-05
-1.26046e-05
8.03043e-05
-1.27867e-05
8.19326e-05
-1.26822e-05
8.3711e-05
-1.22988e-05
8.55942e-05
-1.16591e-05
8.75233e-05
-1.07985e-05
8.94529e-05
-1.20808e-05
9.16235e-05
-1.05817e-05
9.88144e-05
-8.87912e-06
8.78581e-05
-7.33982e-06
7.7944e-05
-5.98353e-06
6.9009e-05
-4.8113e-06
6.09472e-05
-3.81382e-06
5.37515e-05
-2.97513e-06
4.73363e-05
-2.27673e-06
4.1594e-05
-1.69975e-06
3.64285e-05
-1.22625e-06
3.1844e-05
-8.39381e-07
2.7694e-05
-5.26939e-07
2.38954e-05
-2.81233e-07
1.99707e-05
-1.0522e-07
1.49362e-05
1.73338e-05
-1.96195e-06
2.76319e-05
-1.47054e-06
2.84301e-05
-1.07227e-06
2.92343e-05
-7.55132e-07
3.00447e-05
-5.07945e-07
3.08674e-05
-3.20098e-07
3.17021e-05
-1.82204e-07
3.25542e-05
-8.6089e-08
3.34235e-05
-2.52335e-08
3.43094e-05
6.65378e-09
3.52214e-05
1.68942e-08
3.61551e-05
6.82185e-09
-2.4828e-06
1.92586e-05
-3.08492e-06
2.1399e-05
-3.77269e-06
2.37736e-05
-4.54732e-06
2.6415e-05
-5.40628e-06
2.93629e-05
-6.34428e-06
3.266e-05
-7.34933e-06
3.63584e-05
-8.40268e-06
4.05342e-05
-9.47557e-06
4.52732e-05
-1.05303e-05
5.06883e-05
-1.15164e-05
5.69141e-05
-1.23733e-05
6.41167e-05
-1.30317e-05
7.2488e-05
-1.34175e-05
8.09351e-05
-1.34711e-05
8.27215e-05
-1.32286e-05
8.46409e-05
-1.27066e-05
8.66417e-05
-1.19368e-05
8.86616e-05
-1.35706e-05
9.09427e-05
-1.21124e-05
9.31542e-05
-1.04961e-05
0.000100431
-8.72374e-06
8.9242e-05
-7.15236e-06
7.91129e-05
-5.78967e-06
6.99873e-05
-4.62729e-06
6.17607e-05
-3.64888e-06
5.44252e-05
-2.8336e-06
4.78931e-05
-2.15991e-06
4.20542e-05
-1.60717e-06
3.68094e-05
-1.15611e-06
3.21608e-05
-7.89627e-07
2.79567e-05
-4.94972e-07
2.41091e-05
-2.63995e-07
2.01295e-05
-9.8865e-08
1.50351e-05
1.73051e-05
-2.4541e-06
2.7548e-05
-1.87811e-06
2.83643e-05
-1.40481e-06
2.91841e-05
-1.02207e-06
3.00077e-05
-7.18128e-07
3.08415e-05
-4.81972e-07
3.16851e-05
-3.03137e-07
3.25444e-05
-1.72352e-07
3.34191e-05
-8.16415e-08
3.43087e-05
-2.45892e-08
3.52229e-05
5.16715e-09
3.61571e-05
1.48057e-08
3.6589e-05
5.86601e-09
-3.04784e-06
1.92215e-05
-3.72634e-06
2.13526e-05
-4.49149e-06
2.37178e-05
-5.34183e-06
2.63506e-05
-6.27384e-06
2.92925e-05
-7.27815e-06
3.25888e-05
-8.3396e-06
3.62953e-05
-9.43419e-06
4.04928e-05
-1.053e-05
4.52729e-05
-1.15834e-05
5.07552e-05
-1.25404e-05
5.70812e-05
-1.3338e-05
6.4423e-05
-1.3906e-05
7.29765e-05
-1.41732e-05
8.16372e-05
-1.40878e-05
8.35807e-05
-1.3701e-05
8.56352e-05
-1.30392e-05
8.77441e-05
-1.50365e-05
9.01275e-05
-1.36374e-05
9.24678e-05
-1.20382e-05
9.46963e-05
-1.03302e-05
0.000102038
-8.51118e-06
9.06008e-05
-6.92651e-06
8.02497e-05
-5.57136e-06
7.09314e-05
-4.42879e-06
6.25406e-05
-3.47617e-06
5.50678e-05
-2.68871e-06
4.84219e-05
-2.0425e-06
4.24895e-05
-1.51524e-06
3.71685e-05
-1.08728e-06
3.24584e-05
-7.41189e-07
2.82029e-05
-4.63965e-07
2.43091e-05
-2.47294e-07
2.02779e-05
-9.26782e-08
1.51278e-05
1.72699e-05
-3.01266e-06
2.74409e-05
-2.34696e-06
2.82788e-05
-1.79253e-06
2.91168e-05
-1.33753e-06
2.99563e-05
-9.70624e-07
3.08035e-05
-6.80178e-07
3.16583e-05
-4.55187e-07
3.25268e-05
-2.85527e-07
3.34087e-05
-1.62035e-07
3.43039e-05
-7.68325e-08
3.52219e-05
-2.36431e-08
3.61584e-05
3.89283e-09
3.65909e-05
1.28861e-08
3.55528e-05
5.03921e-09
-3.68189e-06
1.9177e-05
-4.43713e-06
2.12983e-05
-5.27776e-06
2.36537e-05
-6.20162e-06
2.62784e-05
-7.2014e-06
2.92157e-05
-8.26494e-06
3.25142e-05
-9.37224e-06
3.62333e-05
-1.04965e-05
4.04592e-05
-1.15998e-05
4.52894e-05
-1.26351e-05
5.08499e-05
-1.35453e-05
5.72885e-05
-1.42655e-05
6.47825e-05
-1.47269e-05
7.35302e-05
-1.4863e-05
8.24124e-05
-1.46299e-05
8.45096e-05
-1.40952e-05
8.66912e-05
-1.64684e-05
8.91761e-05
-1.51502e-05
9.16403e-05
-1.3585e-05
9.40146e-05
-1.18708e-05
9.6237e-05
-1.00951e-05
0.000103622
-8.25185e-06
9.19262e-05
-6.67069e-06
8.1349e-05
-5.33531e-06
7.18379e-05
-4.22071e-06
6.32851e-05
-3.29927e-06
5.56784e-05
-2.54305e-06
4.89225e-05
-1.92593e-06
4.29002e-05
-1.42507e-06
3.75063e-05
-1.02039e-06
3.27376e-05
-6.94375e-07
2.84333e-05
-4.34129e-07
2.44959e-05
-2.31256e-07
2.04165e-05
-8.67153e-08
1.52145e-05
1.72277e-05
-3.6397e-06
2.73076e-05
-2.87937e-06
2.81697e-05
-2.23787e-06
2.9029e-05
-1.70475e-06
2.98874e-05
-1.26866e-06
3.07508e-05
-9.17883e-07
3.16193e-05
-6.41214e-07
3.24993e-05
-4.27707e-07
3.33906e-05
-2.6739e-07
3.42932e-05
-1.51308e-07
3.52168e-05
-7.16899e-08
3.61572e-05
-2.24233e-08
3.65919e-05
2.83877e-09
3.55545e-05
1.11818e-08
3.45447e-05
4.32147e-09
-4.38493e-06
1.91248e-05
-5.21524e-06
2.12357e-05
-6.12951e-06