/*--------------------------------*- C++ -*----------------------------------*\
  =========                 |
  \\      /  F ield         | OpenFOAM: The Open Source CFD Toolbox
   \\    /   O peration     | Website:  https://openfoam.org
    \\  /    A nd           | Version:  8
     \\/     M anipulation  |
\*---------------------------------------------------------------------------*/
FoamFile
{
    version     2.0;
    format      ascii;
    class       volScalarField;
    location    "0.38";
    object      nut;
}
// * * * * * * * * * * * * * * * * * * * * * * * * * * * * * * * * * * * * * //

dimensions      [0 2 -1 0 0 0 0];

internalField   nonuniform List<scalar> 
15677
(
0.000539301
0.00103571
0.00357312
0.0061128
0.00840032
0.0106565
0.0130879
0.0157669
0.0189236
0.0225952
0.0269821
0.0314617
0.035529
0.0396433
0.0419828
0.0426191
0.0424991
0.0412957
0.0398083
0.0382277
0.0365439
0.0348315
0.0332298
0.0317944
0.0304563
0.0291026
0.027662
0.0261039
0.0244626
0.0227573
0.0210003
0.0191954
0.0173352
0.0154077
0.0135104
0.000941896
0.00777736
0.0201134
0.0341692
0.0475143
0.0578879
0.0640473
0.0673565
0.0685779
0.069357
0.0701602
0.0683623
0.0656141
0.0632528
0.0619047
0.0607368
0.0593781
0.0579824
0.0570349
0.0571046
0.0561583
0.0553614
0.0546009
0.0540348
0.0531496
0.0524899
0.0511528
0.0495414
0.0481744
0.0472343
0.046575
0.0458949
0.0451758
0.0444597
0.0437137
0.000882233
0.0082595
0.0195396
0.0314261
0.0428285
0.0533052
0.0625567
0.0702536
0.0759366
0.0789435
0.078346
0.0736619
0.065661
0.0568844
0.0498118
0.0444581
0.0418937
0.0411112
0.0414245
0.042963
0.046653
0.0498796
0.0532523
0.056677
0.0601137
0.0630831
0.0643704
0.0636846
0.0614386
0.0583576
0.0551828
0.0522775
0.0494096
0.0467049
0.0445313
0.000771338
0.00560615
0.0133612
0.0215054
0.0293738
0.0366759
0.0431755
0.0483868
0.0519254
0.0534057
0.0542303
0.0533021
0.0515131
0.0488013
0.045777
0.0428825
0.0402189
0.037043
0.0332307
0.0285604
0.0268752
0.0304112
0.0368277
0.0411469
0.0430446
0.0426705
0.0421821
0.0416232
0.0413837
0.0413586
0.0415015
0.0416125
0.0416315
0.0415534
0.0413971
0.000556906
0.00454319
0.00988257
0.0153704
0.0209014
0.0262134
0.0311794
0.035561
0.0390896
0.0412472
0.0423235
0.0420207
0.0400916
0.0366313
0.0329038
0.0293495
0.0258414
0.0224069
0.0196583
0.0195768
0.0217758
0.0251443
0.028069
0.0300479
0.0317924
0.0331789
0.034247
0.0351883
0.0361029
0.0369974
0.0378503
0.038664
0.0394364
0.0401649
0.0408483
0.000282102
0.00126529
0.002897
0.00462673
0.0063715
0.00808741
0.00972578
0.0111551
0.0120481
0.0126406
0.0130937
0.0130234
0.0129565
0.0129956
0.0133383
0.0141057
0.0154183
0.017483
0.0200152
0.0228124
0.0256696
0.0278055
0.0297583
0.0315227
0.0332914
0.0347283
0.035739
0.036498
0.0371227
0.0376956
0.0382868
0.0389458
0.0396795
0.0404325
0.041152
0.000180728
0.000807149
0.00198516
0.00322067
0.00444899
0.005736
0.00714142
0.00874194
0.0105795
0.0127123
0.0151761
0.0179751
0.0211377
0.0246564
0.0281569
0.03142
0.0347075
0.0381849
0.0419285
0.045612
0.0486681
0.0504836
0.0508724
0.0503505
0.049429
0.0484636
0.0476713
0.0471556
0.0469188
0.0469427
0.047193
0.0476196
0.0481611
0.0487544
0.0493452
0.000162057
0.0011851
0.0028961
0.00495597
0.00732163
0.00996341
0.0128525
0.0159864
0.0193817
0.0230583
0.0270329
0.031308
0.0359273
0.0407259
0.0451924
0.0490972
0.052496
0.0552523
0.0573785
0.0589184
0.059842
0.0600228
0.0595167
0.0584722
0.0572051
0.0558656
0.0546022
0.0535667
0.0528134
0.0522936
0.0519507
0.0517324
0.0516054
0.0515571
0.0515675
0.000215172
0.00138337
0.00365227
0.00642845
0.00956831
0.0130442
0.0168336
0.0209127
0.0252486
0.0297957
0.0344948
0.0393239
0.0440894
0.0487418
0.0527561
0.0560108
0.0586741
0.0607957
0.0623528
0.0633014
0.0635867
0.0631682
0.0622334
0.061074
0.0598305
0.0587025
0.0577594
0.0569689
0.0563063
0.0557549
0.055298
0.0549221
0.0546182
0.0543832
0.054212
0.000192533
0.00175793
0.00426494
0.0072761
0.0106995
0.0144946
0.0186295
0.0230631
0.0277414
0.0326034
0.0375885
0.0426021
0.0475378
0.0523264
0.0564689
0.0598748
0.06276
0.0651372
0.0669925
0.0682827
0.0689457
0.0688775
0.0681449
0.0668631
0.0652245
0.0634391
0.0616661
0.0600252
0.0585888
0.05738
0.0563896
0.0555933
0.0549636
0.0544719
0.0540928
0.000223695
0.00169963
0.0043684
0.00763127
0.0113339
0.0154204
0.0198511
0.0245849
0.0295682
0.0347216
0.0399609
0.0451709
0.0502235
0.0550129
0.059037
0.0622534
0.064894
0.0670321
0.0687015
0.0698876
0.0705542
0.0706413
0.0702322
0.0694228
0.0683055
0.0669742
0.06555
0.0641385
0.0628033
0.0615904
0.0605204
0.0595963
0.0588095
0.0581462
0.05759
0.000216842
0.00193654
0.00481198
0.00829739
0.0122464
0.016588
0.0212622
0.0262029
0.0313338
0.0365676
0.0418105
0.0469568
0.0518983
0.0565377
0.060406
0.0634889
0.0660388
0.0681402
0.0698385
0.0711491
0.0720095
0.0723509
0.0721772
0.0715575
0.0706201
0.0694938
0.0682802
0.0670605
0.0658832
0.0647682
0.0637336
0.0627894
0.0619404
0.0611862
0.0605232
0.000229067
0.0018868
0.00481571
0.00840108
0.0124762
0.0169657
0.0218042
0.0269165
0.0322126
0.0375891
0.0429323
0.0481149
0.0530106
0.057515
0.0611826
0.0640454
0.0663739
0.0682689
0.0698244
0.0710711
0.0720064
0.0725322
0.0726413
0.0723901
0.0718473
0.0711003
0.0702296
0.0692946
0.0683415
0.0674038
0.0665055
0.065662
0.0648817
0.0641668
0.0635154
0.000228445
0.0020308
0.00509146
0.00881719
0.0130412
0.0176804
0.0226609
0.0278985
0.0332927
0.0387308
0.0440868
0.049223
0.0540078
0.0583289
0.0617617
0.0643762
0.0664572
0.0681612
0.0695805
0.0707335
0.0716222
0.0722095
0.0724761
0.0724646
0.0722264
0.071803
0.0712382
0.0705756
0.0698542
0.0691061
0.0683554
0.06762
0.0669134
0.0662451
0.0656217
0.000234215
0.00203122
0.00515454
0.0089641
0.0132814
0.0180197
0.0231029
0.0284446
0.033939
0.0394639
0.0448822
0.0500382
0.054781
0.0589771
0.0622048
0.0645693
0.0663704
0.0677747
0.0688745
0.0697707
0.0705223
0.0710673
0.0713952
0.0715188
0.0714574
0.0712391
0.0708957
0.0704593
0.0699587
0.0694205
0.0688667
0.0683144
0.067776
0.0672606
0.0667738
0.00023509
0.00211823
0.00533332
0.00925184
0.0136914
0.0185564
0.0237602
0.0292066
0.0347803
0.0403538
0.0457878
0.0509167
0.0555807
0.0596349
0.0626616
0.0647885
0.0663168
0.067421
0.0682312
0.0688594
0.069353
0.0697022
0.0699152
0.0700004
0.0699674
0.0698285
0.0695999
0.0693003
0.0689491
0.0685642
0.0681616
0.0677547
0.0673542
0.066968
0.0666016
0.000238166
0.0021444
0.00542571
0.00941928
0.0139382
0.0188861
0.0241777
0.0297147
0.0353749
0.0410223
0.0465101
0.0516587
0.0562934
0.0602527
0.0631177
0.0650383
0.0663215
0.0671527
0.067678
0.0679855
0.0681731
0.0682747
0.0683038
0.0682715
0.06818
0.0680324
0.0678347
0.0675955
0.0673248
0.067033
0.0667302
0.066425
0.0661248
0.0658355
0.0655614
0.000239418
0.00220935
0.00556255
0.00964087
0.0142528
0.0192967
0.024681
0.0303021
0.0360319
0.0417306
0.0472508
0.0524031
0.0570034
0.0608773
0.0636036
0.0653488
0.0664207
0.0670098
0.0672654
0.0673006
0.0671879
0.0670091
0.0668023
0.066584
0.0663566
0.0661187
0.0658699
0.0656111
0.0653455
0.065077
0.0648102
0.0645496
0.0642993
0.0640629
0.0638429
0.000241026
0.00224596
0.0056606
0.00980657
0.0144898
0.0196076
0.0250671
0.0307628
0.0365624
0.0423208
0.0478886
0.0530659
0.057658
0.061477
0.0640975
0.0657007
0.0665977
0.0669839
0.067013
0.0668035
0.0664401
0.065998
0.0655581
0.0651409
0.0647503
0.0643844
0.0640394
0.0637127
0.0634026
0.0631086
0.0628311
0.0625709
0.0623289
0.0621063
0.0619038
0.000242075
0.00229869
0.00577558
0.00998889
0.0147424
0.0199307
0.0254585
0.0312186
0.0370751
0.0428796
0.0484854
0.0536838
0.058272
0.0620508
0.0645893
0.06608
0.0668367
0.0670592
0.0669051
0.0664948
0.0659166
0.0652594
0.0646126
0.0640113
0.0634603
0.0629582
0.0625007
0.0620831
0.0617012
0.0613518
0.0610325
0.0607414
0.0604772
0.0602389
0.0600256
0.000243014
0.00233879
0.00587004
0.0101408
0.0149529
0.0201995
0.0257846
0.0315998
0.0375081
0.0433564
0.0490014
0.0542266
0.0588216
0.0625768
0.0650539
0.066457
0.0671029
0.0671949
0.0668964
0.0663315
0.0655886
0.0647612
0.0639416
0.0631886
0.0625064
0.0618862
0.0613249
0.0608177
0.0603597
0.0599466
0.0595742
0.059239
0.058938
0.0586688
0.0584313
0.000243685
0.00238372
0.00596843
0.0102923
0.0151564
0.0204533
0.0260863
0.0319463
0.0378959
0.0437776
0.0494544
0.0547028
0.0593071
0.0630487
0.0654927
0.066836
0.0673886
0.0673711
0.0669563
0.0662704
0.0654049
0.064432
0.063493
0.0626413
0.0618562
0.0611437
0.0604995
0.0599185
0.0593953
0.0589249
0.0585026
0.058124
0.057785
0.0574819
0.0572142
0.000244234
0.00242276
0.00605421
0.0104239
0.0153322
0.0206712
0.0263435
0.0322402
0.038224
0.0441335
0.0498361
0.0551053
0.0597209
0.0634571
0.065861
0.0671277
0.0676094
0.0675203
0.0670267
0.0662581
0.0653065
0.0642324
0.0632176
0.0622912
0.0614429
0.0606755
0.0599761
0.0593427
0.0587729
0.058261
0.0578019
0.0573903
0.0570216
0.0566913
0.0563939
0.000244634
0.00246209
0.00613763
0.0105484
0.0154949
0.0208688
0.0265725
0.032497
0.0385063
0.0444378
0.0501547
0.0554386
0.060062
0.0637959
0.0661614
0.067404
0.0678352
0.0676765
0.0671089
0.066269
0.0652537
0.0641206
0.0630578
0.062089
0.0612077
0.0604124
0.0596793
0.0590182
0.058424
0.0578907
0.0574127
0.0569844
0.0566005
0.0562563
0.0559475
0.000244932
0.00249828
0.00621361
0.0106607
0.01564
0.0210428
0.0267714
0.0327166
0.0387442
0.0446909
0.0504144
0.0557074
0.0603339
0.0640584
0.0664217
0.0676308
0.0680136
0.0677984
0.0671713
0.0662752
0.0652109
0.0640402
0.0629405
0.0619514
0.0610563
0.0602555
0.0595212
0.0588607
0.0582661
0.057733
0.0572556
0.0568283
0.0564456
0.0561025
0.0557943
0.000245139
0.00253345
0.00628586
0.0107656
0.0157733
0.0212002
0.0269479
0.0329073
0.0389463
0.0449007
0.0506223
0.0559182
0.0605472
0.0642667
0.0666148
0.0677968
0.0681414
0.0678798
0.067204
0.066263
0.0651639
0.0639806
0.0628592
0.0618669
0.060968
0.0601729
0.0594564
0.058812
0.0582366
0.0577225
0.0572632
0.0568528
0.0564859
0.0561571
0.055862
0.000245275
0.00256654
0.00635315
0.0108624
0.015895
0.0213418
0.0271042
0.0330726
0.0391169
0.0450725
0.050784
0.0560743
0.0606983
0.0644106
0.0667438
0.0679042
0.0682178
0.0679179
0.0672012
0.0662231
0.0650977
0.0639189
0.0627964
0.0618203
0.0609421
0.0601624
0.0594748
0.0588577
0.0583104
0.0578249
0.0573937
0.0570103
0.0566689
0.0563639
0.0560906
0.000245333
0.00259836
0.00641692
0.0109529
0.0160076
0.0214711
0.0272443
0.0332173
0.0392617
0.0452126
0.0509069
0.0561835
0.0607922
0.0644938
0.0668134
0.0679555
0.0682438
0.0679123
0.0671613
0.0661518
0.0650038
0.0638348
0.0627259
0.0617683
0.0609225
0.0601762
0.0595198
0.0589455
0.058439
0.0579928
0.0575998
0.057253
0.056946
0.0566732
0.0564278
0.000245338
0.00262842
0.00647667
0.0110371
0.0161112
0.0215889
0.02737
0.0333443
0.0393841
0.0453257
0.0509976
0.0562538
0.0608415
0.0645249
0.0668283
0.0679538
0.0682213
0.0678638
0.0670844
0.0660487
0.0648818
0.0637193
0.0626371
0.0616972
0.0608891
0.0601855
0.0595745
0.0590446
0.0585846
0.0581849
0.0578373
0.0575341
0.0572689
0.0570358
0.05683
0.000245235
0.00265637
0.00653177
0.0111144
0.0162061
0.0216958
0.0274828
0.0334557
0.0394868
0.0454155
0.0510618
0.05629
0.0608513
0.0645088
0.066793
0.0679022
0.068152
0.0677736
0.066971
0.065914
0.064733
0.0635711
0.0625201
0.0616025
0.0608321
0.0601723
0.0596086
0.0591275
0.0587168
0.0583658
0.0580654
0.0578074
0.057585
0.0573922
0.0572239
0.011103
0.00850248
0.00627678
0.00447896
0.00315169
0.00226985
0.00167644
0.00135276
0.00127273
0.00104858
0.000773533
0.000715855
0.000679535
0.000903662
0.00123064
0.00147989
0.00167214
0.00181509
0.00193395
0.0020973
0.00238342
0.00276011
0.0425218
0.0401325
0.0367689
0.0327101
0.0286411
0.0246985
0.0210736
0.0179881
0.0155808
0.0137638
0.0123292
0.0113888
0.0106282
0.0103708
0.0104511
0.0107367
0.0111053
0.0114247
0.0116114
0.0116548
0.0115834
0.01151
0.0419903
0.0397528
0.0387529
0.0390217
0.0404338
0.0428296
0.0457233
0.0485579
0.0510778
0.0529846
0.0545207
0.0557635
0.0567839
0.0579883
0.0597165
0.0614125
0.0624857
0.0625272
0.0616403
0.0597223
0.0569975
0.0536732
0.0411195
0.0404804
0.0395513
0.0384375
0.0373239
0.036504
0.0362271
0.0364766
0.037246
0.0385052
0.0406481
0.0436277
0.0463403
0.0476672
0.0473776
0.0464887
0.0461604
0.0466199
0.0473468
0.0479519
0.0482333
0.0481514
0.0416917
0.0427064
0.043729
0.0447712
0.0459177
0.0473908
0.0495752
0.0525735
0.0560139
0.0592598
0.0617938
0.0633751
0.0638999
0.0634491
0.0621108
0.0599236
0.0581645
0.0560273
0.0538641
0.0520773
0.0506844
0.049666
0.0421329
0.0434849
0.0448884
0.046276
0.0476212
0.048922
0.0501649
0.0513057
0.0524269
0.0535461
0.0547336
0.0559938
0.0572046
0.0582022
0.0588809
0.0593415
0.0584558
0.0572784
0.055866
0.0543501
0.052865
0.0515147
0.0499848
0.0507146
0.0514595
0.0521954
0.0528976
0.0535455
0.0541393
0.0547336
0.0552827
0.0558502
0.056481
0.0571823
0.057915
0.0586019
0.0591584
0.0595031
0.0595239
0.0591964
0.0585471
0.0576317
0.0565255
0.0553194
0.0516066
0.0517419
0.0519991
0.0523573
0.0527875
0.053258
0.0537381
0.0542053
0.054646
0.055065
0.0554594
0.0558317
0.0561629
0.0564372
0.0566364
0.0567317
0.0566894
0.0564912
0.0561325
0.0556229
0.0549838
0.0542455
0.0540345
0.0539082
0.0538901
0.0539706
0.0541355
0.0543668
0.0546446
0.0549406
0.0552231
0.0554681
0.0556602
0.0558061
0.0558967
0.0558925
0.0557992
0.055619
0.0553558
0.0550105
0.0545848
0.0540845
0.0535187
0.0528991
0.0536744
0.0532715
0.0530286
0.052935
0.0529737
0.0531223
0.0533534
0.0536344
0.0539278
0.0541923
0.0543866
0.0544546
0.0543875
0.0542375
0.0540082
0.0537068
0.0533402
0.0529185
0.0524502
0.0519442
0.0514104
0.050857
0.0568844
0.0560486
0.0553426
0.0547713
0.0543346
0.0540253
0.053827
0.0537129
0.0536473
0.0536018
0.0535425
0.0534324
0.0532456
0.0529803
0.0526413
0.0522387
0.051785
0.0512906
0.0507742
0.0502491
0.0497245
0.0492242
0.0596547
0.0585404
0.0574791
0.0565004
0.0556259
0.0548678
0.0542297
0.0537079
0.053292
0.0529496
0.0526467
0.0523494
0.0520324
0.0516812
0.0512858
0.0508405
0.0503684
0.0498723
0.0493641
0.0488574
0.0483648
0.0479074
0.0626335
0.0614358
0.060224
0.0590279
0.0578765
0.0567962
0.055806
0.0549148
0.0541236
0.0534242
0.0527995
0.0522296
0.0517007
0.0511959
0.0506864
0.0501816
0.0496719
0.0491614
0.0486498
0.04815
0.0476738
0.0472324
0.0647844
0.0636323
0.0624342
0.0612053
0.0599666
0.0587413
0.0575514
0.0564165
0.0553515
0.0543645
0.0534561
0.0526247
0.051875
0.0511983
0.0505641
0.0499705
0.049408
0.0488689
0.0483451
0.047846
0.0473774
0.0469467
0.0661387
0.065232
0.0642285
0.0631401
0.0619817
0.060772
0.059532
0.0582853
0.0570543
0.0558589
0.0547145
0.0536376
0.0526557
0.0517758
0.0509791
0.0502498
0.0495816
0.0489654
0.048392
0.0478587
0.0473679
0.0469223
0.0661659
0.0655466
0.0648207
0.0639878
0.0630521
0.0620223
0.0609117
0.0597382
0.0585223
0.0572859
0.0560509
0.0548446
0.0537114
0.0526766
0.0517335
0.0508738
0.0500892
0.0493726
0.0487176
0.0481192
0.047575
0.0470848
0.0652871
0.0649196
0.0644546
0.0638857
0.0632083
0.0624218
0.0615297
0.0605404
0.0594667
0.0583253
0.0571358
0.0559274
0.054752
0.0536476
0.0526196
0.0516685
0.050792
0.049987
0.0492497
0.0485791
0.0479682
0.0474165
0.0636754
0.063494
0.0632395
0.0629004
0.0624666
0.0619301
0.0612862
0.060534
0.0596773
0.0587241
0.0576873
0.0565903
0.0554826
0.0544079
0.0533795
0.0524061
0.0514928
0.050642
0.0498539
0.0491282
0.0484639
0.0478631
0.0617783
0.0616913
0.0615609
0.0613748
0.0611205
0.0607858
0.0603602
0.0598355
0.0592071
0.0584743
0.0576411
0.0567221
0.0557578
0.0547899
0.0538361
0.0529098
0.0520211
0.0511769
0.0503818
0.0496388
0.0489497
0.0483162
0.0598892
0.0598138
0.0597225
0.0596052
0.0594503
0.0592449
0.0589761
0.0586316
0.0582008
0.0576758
0.0570524
0.0563353
0.0555524
0.0547386
0.0539113
0.0530854
0.0522734
0.0514851
0.0507281
0.0500079
0.0493287
0.0486935
0.0582485
0.0581214
0.057999
0.0578749
0.0577406
0.0575854
0.0573976
0.0571641
0.0568718
0.0565087
0.0560643
0.0555349
0.0549356
0.0542912
0.0536152
0.0529212
0.0522212
0.0515261
0.0508447
0.0501845
0.049551
0.0489484
0.0569709
0.0567593
0.0565635
0.056381
0.0562076
0.0560368
0.05586
0.0556665
0.0554443
0.0551802
0.0548614
0.0544785
0.0540361
0.053548
0.0530222
0.052468
0.0518953
0.0513135
0.0507314
0.0501568
0.0495963
0.049055
0.056091
0.0557893
0.055506
0.0552395
0.0549922
0.0547617
0.0545439
0.0543321
0.0541176
0.0538893
0.0536349
0.0533434
0.0530126
0.0526473
0.0522492
0.0518223
0.0513725
0.0509065
0.0504315
0.0499542
0.0494812
0.0490174
0.0555984
0.0552032
0.054829
0.054481
0.0541544
0.0538458
0.0535587
0.0532913
0.0530391
0.0527952
0.0525503
0.0522948
0.0520245
0.051738
0.0514316
0.0511044
0.0507579
0.0503952
0.0500206
0.049639
0.0492555
0.0488743
0.0554212
0.0549671
0.0545185
0.0540909
0.0536825
0.053306
0.0529456
0.0526078
0.0522936
0.0520013
0.0517258
0.0514614
0.0512051
0.0509532
0.0506985
0.0504363
0.0501642
0.0498819
0.0495904
0.0492921
0.0489902
0.0486872
0.055484
0.0549985
0.0545102
0.0540271
0.0535596
0.0531084
0.052685
0.0522866
0.051906
0.0515516
0.0512238
0.0509214
0.0506451
0.0503915
0.0501523
0.0499205
0.0496912
0.0494613
0.0492293
0.0489951
0.0487597
0.0485235
0.0557227
0.0552255
0.0547188
0.0542099
0.053708
0.0532152
0.0527361
0.0522821
0.0518535
0.0514398
0.0510544
0.0507014
0.050386
0.050107
0.0498564
0.0496267
0.0494118
0.0492072
0.0490094
0.0488165
0.0486277
0.0484416
0.0560888
0.0556065
0.0551052
0.0545894
0.0540656
0.0535407
0.0530235
0.0525232
0.0520544
0.0516081
0.0511796
0.0507814
0.0504237
0.0501088
0.0498319
0.0495861
0.049365
0.0491636
0.0489778
0.0488046
0.0486419
0.0484869
0.0565286
0.0560808
0.0556093
0.0551165
0.0546062
0.0540831
0.053553
0.0530217
0.0524989
0.0520019
0.0515196
0.0510749
0.0506842
0.0503481
0.0500514
0.0497874
0.0495522
0.0493414
0.049152
0.0489821
0.0488287
0.0486878
0.05697
0.0565795
0.0561594
0.0557114
0.055238
0.0547427
0.0542301
0.0537052
0.0531755
0.0526543
0.0521402
0.0516393
0.0511782
0.050772
0.0504276
0.0501391
0.0498958
0.0496879
0.0495031
0.0493352
0.049185
0.0490509
0.00324889
0.00354375
0.00351637
0.00283131
0.00200227
0.00163953
0.0114697
0.011294
0.0107592
0.00976219
0.00971022
0.0118473
0.0496818
0.0451205
0.0409427
0.0383347
0.0383944
0.0413925
0.047658
0.0468115
0.0462142
0.046236
0.0461354
0.0456267
0.04896
0.0485873
0.0482572
0.047963
0.0478822
0.0481405
0.0502755
0.049231
0.0484111
0.0477957
0.0473612
0.0470355
0.0539883
0.0525961
0.0513099
0.0501747
0.0492093
0.0484068
0.0533257
0.0522611
0.051201
0.0502023
0.0493016
0.0485209
0.0521239
0.0511992
0.0502825
0.0494157
0.0486355
0.0479711
0.0501787
0.049383
0.0486235
0.0479325
0.047338
0.0468626
0.0486131
0.0479346
0.0473216
0.0467992
0.0463897
0.0461106
0.0473676
0.0468217
0.0463618
0.0460073
0.0457738
0.0456726
0.0467533
0.0462914
0.0459201
0.0456566
0.0455131
0.045497
0.0465031
0.0460816
0.0457449
0.0455074
0.0453799
0.0453686
0.0464794
0.0460601
0.0457153
0.0454572
0.0452947
0.0452339
0.0466107
0.0461609
0.0457776
0.0454701
0.0452455
0.0451094
0.0468907
0.0463893
0.0459493
0.0455779
0.045281
0.0450633
0.0472893
0.0467199
0.0462253
0.045794
0.0454306
0.0451395
0.0477185
0.0471114
0.0465744
0.0460959
0.0456804
0.0453322
0.0480891
0.0474889
0.0469268
0.0464221
0.0459777
0.0455974
0.0483543
0.0477709
0.0472179
0.0467145
0.0462707
0.045889
0.0484954
0.0479367
0.0474156
0.0469454
0.0465316
0.0461788
0.0485138
0.0480018
0.0475348
0.047119
0.0467603
0.0464632
0.0484432
0.0479998
0.0476041
0.0472607
0.0469756
0.0467535
0.0483351
0.0479753
0.0476649
0.0474081
0.047211
0.0470771
0.0482479
0.04798
0.0477631
0.0476009
0.0474993
0.0474613
0.0482361
0.0480617
0.0479398
0.0478735
0.0478676
0.0479243
0.0483411
0.0482565
0.0482252
0.0482495
0.0483331
0.0484774
0.0485892
0.0485868
0.0486375
0.0487424
0.0489044
0.0491224
0.0489951
0.0490651
0.0491826
0.0493458
0.0495534
0.0498091
0.00163039
0.00202058
0.00224016
0.00220776
0.00181943
0.00151262
0.00151708
0.00177514
0.00200398
0.00221179
0.00234623
0.00233638
0.00220159
0.00201561
0.00186683
0.00182346
0.00193536
0.00211879
0.00236641
0.00271939
0.00314022
0.00362885
0.0149479
0.0177556
0.0202159
0.0224466
0.0245497
0.0265741
0.0275606
0.0279914
0.0287665
0.0291959
0.0289337
0.0279788
0.0259977
0.0237102
0.0217334
0.0201072
0.0189425
0.0183489
0.0183167
0.0187448
0.0191681
0.0199834
0.0459146
0.0507281
0.0553196
0.0590502
0.0613162
0.0617967
0.0603253
0.0573602
0.0539704
0.0515067
0.0510186
0.0520058
0.053352
0.0542529
0.0544252
0.0538533
0.0527693
0.0514427
0.0501273
0.048977
0.0480622
0.0474064
0.045798
0.046195
0.0466947
0.0472573
0.0479379
0.0486667
0.0498465
0.0510547
0.052152
0.053106
0.0544437
0.0555856
0.0561075
0.0558301
0.054333
0.0520855
0.0500405
0.0485407
0.0473412
0.0462675
0.0449608
0.0435342
0.0477496
0.0473394
0.046918
0.046569
0.0463836
0.0464517
0.0468138
0.0475132
0.0486471
0.0503712
0.0522065
0.0547637
0.057696
0.060305
0.062597
0.0642037
0.0653531
0.0659894
0.065947
0.0651721
0.0635612
0.0613329
0.0467352
0.0464351
0.0461227
0.0458301
0.0455997
0.045482
0.0455429
0.0458686
0.0465626
0.0477164
0.0492568
0.0511412
0.0530597
0.0545438
0.0554563
0.0557364
0.0555315
0.0549614
0.0541607
0.0532616
0.05235
0.0514526
0.0478247
0.0473674
0.0469993
0.0467261
0.0465801
0.0466058
0.0468574
0.0473885
0.0482229
0.0493284
0.0506392
0.0519814
0.0531505
0.0540074
0.054555
0.0548146
0.0548398
0.054727
0.054557
0.0543877
0.0542463
0.054133
0.0479266
0.0474666
0.0471103
0.0468673
0.0467574
0.0467994
0.0470049
0.0473698
0.0478659
0.0484466
0.0490536
0.0496141
0.0500558
0.0503476
0.0505014
0.050549
0.0505399
0.0505362
0.0505829
0.0507123
0.0509488
0.0513142
0.0474627
0.0470933
0.0468415
0.0467219
0.0467451
0.0469148
0.0472235
0.0476527
0.0481771
0.0487674
0.0493955
0.050036
0.0506607
0.0512642
0.0518642
0.0524806
0.053128
0.0538116
0.0545281
0.0552666
0.0560101
0.0567375
0.0465233
0.0463115
0.046222
0.0462605
0.0464272
0.0467172
0.0471205
0.0476236
0.04821
0.0488615
0.0495632
0.0503018
0.0510568
0.0518169
0.0525849
0.0533609
0.0541408
0.0549177
0.0556837
0.056431
0.0571531
0.0578467
0.045972
0.0459512
0.0460565
0.0462885
0.0466441
0.0471169
0.0476967
0.0483722
0.0491305
0.0499583
0.0508433
0.0517667
0.05269
0.0535828
0.0544341
0.0552341
0.0559744
0.0566482
0.057251
0.0577807
0.0582367
0.05862
0.0457062
0.0458334
0.0460731
0.0464225
0.0468754
0.0474229
0.0480537
0.0487543
0.0495093
0.0503026
0.0511172
0.0519295
0.0527008
0.0534062
0.054041
0.0546042
0.0550983
0.0555284
0.0559026
0.0562307
0.0565242
0.0567956
0.0456035
0.0457855
0.0460617
0.0464274
0.0468754
0.0473953
0.047975
0.0486001
0.0492553
0.0499246
0.0505918
0.0512366
0.0518297
0.0523567
0.0528206
0.0532275
0.0535861
0.0539061
0.0541979
0.0544712
0.0547345
0.0549942
0.0454605
0.0456146
0.0458424
0.046139
0.0464973
0.0469078
0.0473595
0.0478404
0.0483377
0.0488392
0.0493336
0.0498082
0.0502457
0.050641
0.0510021
0.0513385
0.051661
0.0519801
0.0523053
0.0526447
0.0530043
0.0533882
0.0452649
0.0453451
0.0454821
0.0456727
0.0459117
0.0461925
0.0465075
0.046849
0.0472095
0.0475823
0.0479631
0.0483474
0.0487273
0.0491022
0.049481
0.0498734
0.0502881
0.0507333
0.0512153
0.0517376
0.052298
0.0528968
0.045062
0.0450582
0.0451002
0.0451869
0.045316
0.0454847
0.0456898
0.0459284
0.0461988
0.0465007
0.0468366
0.0472097
0.0476176
0.048059
0.0485407
0.04907
0.0496433
0.0502753
0.0509629
0.0516992
0.0524742
0.0532723
0.0449397
0.0448646
0.0448301
0.0448378
0.0448884
0.044983
0.0451227
0.0453098
0.0455481
0.0458434
0.0462045
0.0466399
0.0471475
0.0477129
0.0483515
0.0490658
0.0498463
0.0506859
0.0515742
0.0524945
0.053436
0.0544096
0.0449531
0.0448261
0.0447392
0.0446964
0.0447014
0.0447587
0.0448738
0.0450538
0.0453072
0.0456448
0.0460785
0.0466159
0.0472408
0.0479755
0.0487993
0.049703
0.0506813
0.0516944
0.052728
0.053787
0.0548775
0.0559733
0.0451003
0.0449413
0.044826
0.0447605
0.0447515
0.0448072
0.0449369
0.0451516
0.0454638
0.0458853
0.0464176
0.0470896
0.0479043
0.0488304
0.0498364
0.0508942
0.0519787
0.0531042
0.0542659
0.0554409
0.0566019
0.0577348
0.0453421
0.0451736
0.0450561
0.0449981
0.0450092
0.0451007
0.0452876
0.0455796
0.0459903
0.0465128
0.0471992
0.0480555
0.0490405
0.0501068
0.0512246
0.0523901
0.0536046
0.0548334
0.0560598
0.0572678
0.0584485
0.0596001
0.0456369
0.0454843
0.0453934
0.0453748
0.0454403
0.0456031
0.0458757
0.0462647
0.0467834
0.0474688
0.0483195
0.0493145
0.0504243
0.0515891
0.0528136
0.054072
0.0553412
0.0566094
0.0578711
0.0591137
0.0603286
0.0614894
0.0459558
0.045844
0.0458061
0.0458543
0.0460013
0.0462597
0.0466303
0.0471455
0.0478196
0.0486367
0.0496067
0.0507159
0.0519102
0.0531658
0.0544509
0.0557552
0.0570714
0.0583695
0.0596154
0.0607852
0.0618535
0.06282
0.0462947
0.0462423
0.0462829
0.0464217
0.0466677
0.047032
0.047542
0.0481861
0.0489743
0.0499046
0.0509732
0.0521583
0.0534283
0.0547384
0.056079
0.0574086
0.0586736
0.0598506
0.0609228
0.06189
0.0627642
0.0635396
0.04666
0.046693
0.0468304
0.0470693
0.0474353
0.0479246
0.0485473
0.0493042
0.0501943
0.0512117
0.0523493
0.0536029
0.0549346
0.0562743
0.0575651
0.0587575
0.059851
0.0608426
0.0617448
0.0625437
0.0632492
0.0638669
0.0470713
0.047208
0.0474519
0.0478083
0.0482859
0.0488876
0.0496152
0.0504662
0.051433
0.0525153
0.0537178
0.0550167
0.0563229
0.0575514
0.058677
0.0597105
0.0606482
0.0614868
0.0622232
0.0628647
0.0634183
0.063891
0.0475524
0.0477977
0.0481521
0.0486199
0.049204
0.0499042
0.0507151
0.0516316
0.0526579
0.0537961
0.0550145
0.0562519
0.0574268
0.05851
0.0594979
0.0603885
0.0611733
0.061856
0.062443
0.0629414
0.0633591
0.063704
0.0481142
0.0484679
0.0489287
0.0494963
0.050167
0.0509346
0.0518063
0.05278
0.0538532
0.054986
0.0561278
0.057247
0.0582986
0.0592513
0.0601035
0.0608466
0.0614869
0.0620304
0.0624846
0.0628578
0.0631587
0.0633953
0.0487614
0.0492143
0.0497628
0.0503996
0.0511307
0.0519658
0.0528894
0.0538989
0.054954
0.0560108
0.0570586
0.0580692
0.0589991
0.0598243
0.0605397
0.0611503
0.0616624
0.0620839
0.0624233
0.0626894
0.0628912
0.0630364
0.0494794
0.0500003
0.0506071
0.0513157
0.0521184
0.0529971
0.0539468
0.0549369
0.0559268
0.0569067
0.0578592
0.0587615
0.0595743
0.060276
0.0608705
0.0613638
0.0617639
0.0620794
0.0623192
0.0624923
0.0626074
0.0626717
0.0502144
0.0508078
0.0514998
0.052271
0.0531098
0.0540051
0.0549421
0.0558782
0.0568045
0.0577048
0.0585675
0.0593669
0.0600697
0.0606617
0.0611486
0.0615378
0.0618378
0.0620577
0.0622064
0.0622928
0.0623253
0.0623108
0.00409897
0.00449765
0.00496107
0.00550661
0.00614146
0.00686268
0.00765616
0.00850129
0.00939606
0.0104027
0.0116343
0.0132714
0.0156051
0.0189117
0.0226407
0.0261298
0.029469
0.0324148
0.0348747
0.0361546
0.0362818
0.03565
0.0309588
0.0263595
0.0227848
0.0192109
0.0161684
0.0136843
0.0115248
0.00951397
0.00750348
0.00539706
0.00302189
0.000741662
0.000539664
0.0207614
0.0214253
0.0222375
0.0232254
0.0244199
0.0258492
0.0275529
0.029604
0.0319668
0.0343898
0.0366577
0.0390132
0.0418874
0.0455411
0.0502964
0.0552637
0.0592781
0.0614378
0.062671
0.0630508
0.0630057
0.0629588
0.0656481
0.0687822
0.0714248
0.0712611
0.0703665
0.0688517
0.0657195
0.0594532
0.0496404
0.0362206
0.0214108
0.00819611
0.000959014
0.047044
0.046865
0.0468187
0.0469368
0.0472071
0.0476577
0.048249
0.0488515
0.0493827
0.0498066
0.0502911
0.0509462
0.051795
0.0527565
0.0530811
0.0526771
0.0513321
0.05105
0.0507773
0.0504957
0.0506944
0.0542328
0.0609863
0.0684395
0.0740956
0.0761726
0.0745225
0.069881
0.0629579
0.0542366
0.0440689
0.0327156
0.0205851
0.00878383
0.000916465
0.0424209
0.0415962
0.0408431
0.040264
0.0399045
0.0397089
0.0396071
0.0394491
0.0386761
0.0373672
0.0361631
0.0347272
0.0339466
0.0341604
0.0348442
0.0360313
0.0375683
0.0390666
0.0404144
0.042169
0.0443366
0.0466945
0.0488919
0.0503119
0.0510454
0.0507098
0.0491757
0.0465423
0.0419412
0.0359782
0.0290546
0.0214125
0.0134205
0.00569772
0.000789589
0.0591656
0.0572912
0.0551392
0.052711
0.0500368
0.0472068
0.0443905
0.0418377
0.0399504
0.0390465
0.0384951
0.0355395
0.0313743
0.0281189
0.024846
0.0234762
0.0230546
0.0236959
0.0254466
0.0281382
0.0315607
0.0355823
0.0394966
0.0420153
0.0427603
0.0417631
0.0398171
0.0363973
0.0320599
0.0271254
0.0217762
0.0162212
0.0105194
0.0048466
0.000575364
0.0506909
0.0500557
0.0493337
0.0485361
0.0476889
0.0468338
0.0460321
0.045404
0.0449943
0.0446456
0.043859
0.0414902
0.0375228
0.0337233
0.0309785
0.0285572
0.0257811
0.0225919
0.0194904
0.0170447
0.0154518
0.0144717
0.0139306
0.0135843
0.0132778
0.0127451
0.0120442
0.0112151
0.00981062
0.00818602
0.00647525
0.00472633
0.00296265
0.0013014
0.000287654
0.0540353
0.0539517
0.0538403
0.0537142
0.0536274
0.0536382
0.0536712
0.0536063
0.0534299
0.0532502
0.0533249
0.0538321
0.0543469
0.0541989
0.0527474
0.050004
0.0467203
0.0431615
0.0396177
0.0362352
0.0327178
0.028852
0.0249622
0.0214074
0.0182033
0.0153285
0.0127984
0.0105746
0.0086042
0.00685238
0.00527485
0.00378458
0.00230639
0.000922581
0.000195345
0.0516852
0.0520247
0.0524754
0.0530194
0.0535605
0.0540058
0.0545105
0.0553119
0.0563662
0.0576032
0.0588502
0.0599143
0.0605795
0.060651
0.0601498
0.0592911
0.0581438
0.0567391
0.0550208
0.0527529
0.0497888
0.045973
0.0414707
0.0368371
0.0321627
0.0277091
0.0234613
0.0194525
0.0156946
0.0121987
0.00897916
0.00609226
0.00356958
0.00147084
0.000176509
0.0572492
0.0576046
0.0579885
0.0584068
0.0588714
0.0594015
0.0600302
0.0607088
0.0613388
0.0618468
0.0621452
0.0621504
0.0618569
0.0613866
0.0608049
0.0601676
0.0595054
0.0587364
0.057736
0.0563425
0.0543474
0.0514739
0.047641
0.0432977
0.0386005
0.0337007
0.02881
0.0240152
0.0194178
0.0150907
0.011085
0.00744533
0.00423093
0.00161054
0.000231344
0.0583696
0.0587825
0.0592311
0.0596947
0.0601424
0.060526
0.0607802
0.0609729
0.0612323
0.0615503
0.0619024
0.0622643
0.0625916
0.0628093
0.0628558
0.0627153
0.062397
0.0618599
0.0610214
0.0597464
0.0578846
0.0551646
0.0514677
0.0471876
0.0424621
0.0374144
0.0322176
0.0270158
0.0219401
0.0171087
0.0126187
0.00855026
0.00497991
0.00203097
0.00020916
0.0589032
0.0591515
0.0594235
0.0597203
0.0600394
0.0603708
0.0607067
0.0610475
0.061399
0.0617588
0.0621133
0.0624442
0.0627275
0.0629658
0.063174
0.0633312
0.0633719
0.0632001
0.0626984
0.0617236
0.0601021
0.0575531
0.0539129
0.0495819
0.0447144
0.0394774
0.0340367
0.0285598
0.0231894
0.0180523
0.0132548
0.00888838
0.00505299
0.00194938
0.000236648
0.0570323
0.0572721