/*--------------------------------*- C++ -*----------------------------------*\
  =========                 |
  \\      /  F ield         | OpenFOAM: The Open Source CFD Toolbox
   \\    /   O peration     | Website:  https://openfoam.org
    \\  /    A nd           | Version:  8
     \\/     M anipulation  |
\*---------------------------------------------------------------------------*/
FoamFile
{
    version     2.0;
    format      ascii;
    class       volScalarField;
    location    "0.38";
    object      p;
}
// * * * * * * * * * * * * * * * * * * * * * * * * * * * * * * * * * * * * * //

dimensions      [1 -1 -2 0 0 0 0];

internalField   nonuniform List<scalar> 
15677
(
111774
111778
111776
111776
111775
111773
111770
111766
111761
111755
111743
111725
111699
111649
111597
111556
111521
111493
111469
111448
111428
111413
111399
111386
111374
111364
111355
111346
111337
111330
111323
111318
111313
111308
111305
93465
93430.2
93370
93298.8
93232.3
93177.4
93135.5
93103.8
93078
93060
93082.8
93168
93331.6
93546.7
93681.8
93734.7
93725.1
93680.5
93624.8
93559.6
93485.9
93413.8
93341.4
93267
93197.7
93146.3
93116.8
93101.5
93095.2
93093.8
93094.9
93097.8
93102.6
93108.6
93114.1
106040
106037
106029
106010
105976
105920
105839
105732
105607
105479
105380
105329
105323
105375
105450
105491
105527
105596
105687
105806
105948
106064
106147
106208
106257
106288
106312
106352
106400
106451
106500
106547
106592
106634
106674
97625.9
97633.6
97643.5
97652.6
97659.3
97663.8
97664.6
97657.6
97638.4
97606.6
97576.3
97561.3
97575
97600.8
97611.5
97625
97645
97676.7
97711.7
97734.3
97732.7
97705.6
97677.2
97654.1
97636.8
97626.9
97615.5
97594.4
97570.3
97540.1
97507
97474.1
97440.9
97407.8
97376.5
103293
103300
103308
103318
103330
103344
103361
103380
103401
103420
103439
103455
103467
103473
103469
103460
103467
103492
103536
103595
103653
103707
103755
103793
103823
103852
103872
103886
103899
103910
103920
103929
103937
103946
103955
99900.2
99900.7
99898.1
99891.9
99880.5
99862.6
99836.8
99802.1
99758.6
99707.2
99650.9
99604.2
99560.9
99511.6
99463.6
99422.4
99386.1
99352.5
99320.7
99289.9
99259.5
99229.6
99199.7
99171.3
99145.3
99120.2
99096.3
99072.9
99051.9
99034.5
99021
99011.5
99005.5
99002.5
99000.4
102498
102498
102498
102499
102499
102499
102499
102499
102498
102499
102500
102503
102507
102511
102515
102519
102522
102526
102531
102537
102543
102550
102557
102564
102570
102574
102577
102580
102582
102584
102586
102589
102592
102596
102596
100342
100342
100343
100343
100343
100343
100342
100340
100336
100331
100325
100316
100305
100290
100272
100254
100235
100214
100193
100171
100149
100126
100107
100091
100079
100071
100068
100065
100061
100060
100059
100059
100061
100061
100060
101813
101813
101814
101814
101815
101815
101814
101813
101811
101808
101804
101799
101795
101791
101789
101789
101790
101794
101799
101806
101815
101824
101835
101844
101853
101860
101862
101864
101866
101869
101870
101869
101866
101862
101859
100799
100799
100799
100800
100800
100800
100800
100801
100801
100801
100800
100798
100795
100790
100782
100772
100761
100749
100737
100724
100710
100696
100685
100679
100677
100676
100679
100681
100683
100684
100686
100689
100691
100694
100697
101436
101436
101436
101437
101437
101437
101436
101435
101434
101432
101430
101428
101426
101424
101423
101424
101427
101430
101435
101441
101448
101457
101468
101476
101477
101481
101483
101485
101486
101486
101486
101485
101484
101483
101481
101039
101039
101039
101039
101039
101039
101039
101039
101040
101040
101040
101040
101040
101038
101034
101030
101025
101020
101015
101009
101003
100997
100990
100990
100993
100995
100997
100999
101001
101004
101007
101011
101014
101016
101019
101288
101288
101288
101289
101289
101289
101288
101288
101288
101286
101285
101283
101281
101279
101279
101279
101279
101281
101283
101286
101291
101296
101303
101302
101304
101306
101307
101309
101310
101311
101312
101313
101314
101315
101315
101151
101151
101151
101151
101150
101150
101150
101150
101150
101150
101150
101150
101150
101149
101148
101146
101145
101143
101141
101139
101137
101135
101132
101135
101137
101139
101141
101143
101145
101147
101149
101151
101153
101155
101158
101247
101247
101247
101247
101247
101246
101246
101245
101245
101243
101242
101240
101239
101237
101236
101235
101234
101234
101235
101235
101236
101238
101240
101241
101242
101244
101245
101246
101248
101249
101250
101251
101252
101252
101253
101208
101208
101208
101207
101207
101206
101206
101205
101205
101204
101204
101203
101203
101202
101200
101199
101198
101196
101195
101194
101193
101192
101192
101193
101194
101195
101196
101197
101198
101199
101201
101202
101203
101204
101205
101248
101248
101248
101248
101247
101246
101246
101245
101244
101242
101241
101239
101237
101235
101234
101232
101230
101229
101228
101227
101227
101227
101227
101227
101227
101227
101228
101229
101229
101230
101231
101232
101232
101233
101233
101244
101244
101243
101243
101242
101241
101241
101240
101239
101238
101237
101236
101234
101233
101231
101229
101227
101225
101223
101222
101220
101219
101218
101218
101218
101218
101218
101219
101219
101220
101220
101221
101222
101222
101222
101266
101266
101265
101264
101264
101263
101262
101261
101259
101258
101256
101254
101252
101250
101247
101245
101243
101241
101239
101237
101235
101234
101233
101232
101232
101232
101232
101232
101232
101233
101233
101233
101234
101234
101233
101273
101273
101272
101272
101271
101270
101269
101267
101266
101265
101263
101261
101259
101257
101255
101252
101250
101248
101245
101243
101241
101240
101238
101237
101237
101236
101236
101236
101236
101237
101237
101237
101238
101238
101237
101289
101289
101288
101287
101286
101285
101284
101282
101280
101279
101277
101275
101272
101270
101267
101264
101262
101260
101257
101255
101253
101251
101250
101249
101248
101248
101247
101247
101247
101248
101248
101248
101249
101249
101248
101300
101299
101299
101298
101296
101295
101294
101292
101291
101289
101287
101285
101282
101280
101277
101275
101272
101270
101267
101265
101263
101261
101260
101259
101258
101258
101257
101257
101258
101258
101258
101258
101259
101259
101258
101313
101312
101311
101310
101309
101308
101306
101304
101303
101301
101299
101296
101294
101291
101288
101286
101283
101281
101278
101276
101274
101273
101271
101270
101270
101270
101269
101270
101270
101270
101270
101271
101271
101272
101270
101324
101323
101322
101321
101320
101318
101317
101315
101313
101311
101309
101307
101304
101301
101298
101296
101294
101291
101289
101287
101285
101284
101283
101282
101281
101281
101281
101282
101282
101282
101283
101283
101284
101284
101283
101335
101335
101334
101332
101331
101329
101328
101326
101324
101322
101319
101317
101314
101311
101309
101306
101304
101302
101299
101298
101296
101295
101294
101293
101293
101293
101293
101294
101294
101295
101295
101296
101297
101297
101297
101346
101345
101344
101343
101341
101339
101338
101336
101333
101331
101329
101326
101324
101321
101318
101316
101313
101311
101309
101308
101306
101305
101304
101304
101304
101304
101305
101305
101306
101307
101307
101308
101309
101310
101309
101355
101355
101354
101352
101351
101349
101347
101345
101343
101340
101338
101335
101333
101330
101327
101325
101323
101321
101319
101317
101316
101315
101314
101314
101314
101315
101315
101316
101317
101318
101318
101319
101320
101321
101321
101364
101364
101363
101361
101359
101358
101356
101353
101351
101349
101346
101344
101341
101338
101335
101333
101331
101329
101327
101326
101325
101324
101323
101323
101324
101324
101325
101326
101327
101328
101329
101330
101331
101331
101332
101373
101372
101371
101369
101368
101366
101364
101361
101359
101357
101354
101351
101349
101346
101343
101341
101339
101337
101335
101334
101333
101332
101332
101332
101332
101333
101334
101334
101335
101336
101338
101339
101340
101341
101341
101381
101380
101378
101377
101375
101373
101371
101369
101366
101364
101361
101358
101356
101353
101350
101348
101346
101344
101342
101341
101340
101339
101339
101339
101340
101340
101341
101342
101343
101344
101345
101346
101348
101349
101349
111313
111347
111384
111420
111457
111496
111536
111578
111621
111667
111714
111761
111809
111857
111902
111948
111993
112043
112085
112140
112175
112240
93126.9
93118.4
93103.2
93086.9
93066.3
93038.1
92999.5
92950.4
92890.7
92820.7
92746.1
92668.6
92583.4
92494.1
92410.7
92341.6
92282.6
92233.8
92198
92179.1
92175.6
92181.2
106710
106764
106821
106875
106928
106979
107029
107069
107102
107129
107150
107167
107186
107213
107246
107277
107310
107354
107407
107463
107522
107575
97344.5
97293.5
97226.6
97153.4
97080.1
97012
96955
96919.5
96908.3
96921.3
96955.8
97005.2
97065.5
97130.7
97185.2
97216.2
97234.9
97245.5
97253.2
97266.3
97276.5
97291
103956
103959
103964
103970
103977
103986
103997
104010
104021
104039
104072
104116
104160
104192
104197
104174
104135
104093
104052
104010
103966
103919
99007.6
99015.3
99026.8
99042.5
99061.6
99084.6
99109.4
99132.7
99154
99179.9
99206.2
99233.8
99261.4
99293.3
99338.8
99393.2
99446.4
99495.9
99541.6
99584.8
99626.7
99668.5
102598
102595
102598
102601
102603
102602
102597
102583
102556
102520
102481
102439
102400
102363
102328
102294
102261
102230
102200
102173
102148
102122
100073
100085
100098
100112
100129
100149
100172
100201
100236
100272
100308
100342
100375
100406
100434
100462
100491
100519
100548
100576
100604
100636
101846
101826
101805
101783
101761
101737
101713
101689
101663
101640
101615
101590
101568
101547
101527
101507
101488
101472
101458
101445
101434
101424
100710
100723
100736
100750
100764
100779
100795
100811
100827
100844
100863
100881
100898
100915
100931
100945
100958
100970
100981
100992
101003
101015
101470
101458
101446
101433
101420
101406
101392
101377
101362
101346
101331
101317
101304
101292
101282
101273
101265
101258
101252
101247
101242
101237
101026
101036
101046
101056
101066
101075
101085
101094
101103
101111
101119
101126
101132
101137
101141
101144
101148
101150
101153
101155
101157
101159
101310
101304
101299
101293
101288
101283
101278
101272
101266
101261
101255
101249
101244
101239
101235
101231
101226
101222
101219
101215
101212
101207
101162
101168
101173
101178
101184
101190
101195
101200
101204
101208
101211
101213
101215
101216
101216
101216
101215
101214
101213
101211
101209
101206
101251
101249
101247
101247
101246
101246
101245
101244
101244
101243
101242
101241
101240
101239
101238
101236
101234
101231
101229
101226
101223
101219
101208
101211
101214
101217
101220
101223
101226
101228
101231
101233
101235
101237
101238
101239
101239
101238
101238
101236
101235
101233
101231
101226
101234
101233
101233
101233
101234
101234
101235
101236
101238
101239
101240
101241
101242
101243
101243
101243
101243
101242
101241
101239
101238
101234
101225
101225
101226
101228
101229
101231
101232
101234
101236
101238
101239
101241
101243
101244
101245
101246
101246
101246
101245
101245
101244
101241
101236
101234
101234
101234
101235
101235
101236
101237
101238
101240
101241
101243
101244
101246
101247
101248
101249
101249
101250
101250
101249
101248
101240
101238
101238
101238
101239
101239
101240
101240
101241
101243
101244
101246
101247
101249
101250
101251
101252
101253
101254
101254
101254
101254
101251
101248
101247
101247
101246
101246
101246
101246
101247
101248
101249
101250
101251
101253
101254
101255
101256
101258
101258
101259
101260
101261
101261
101258
101257
101256
101255
101255
101254
101254
101254
101255
101255
101256
101257
101258
101259
101260
101262
101263
101264
101265
101266
101267
101274
101270
101269
101267
101266
101265
101265
101264
101264
101263
101264
101264
101265
101265
101266
101267
101268
101269
101270
101271
101272
101275
101286
101283
101281
101280
101278
101277
101276
101275
101274
101274
101273
101273
101273
101274
101274
101275
101276
101277
101278
101278
101279
101282
101299
101296
101294
101292
101291
101290
101288
101287
101286
101285
101284
101284
101284
101284
101284
101284
101285
101285
101286
101286
101287
101290
101311
101308
101307
101305
101304
101302
101301
101299
101298
101297
101296
101295
101295
101294
101294
101294
101294
101294
101295
101295
101296
101299
101323
101320
101319
101317
101316
101314
101313
101312
101310
101309
101308
101307
101306
101305
101305
101305
101304
101304
101304
101304
101305
101308
101333
101331
101330
101328
101327
101326
101325
101323
101322
101321
101320
101319
101318
101317
101316
101315
101315
101315
101314
101314
101314
101317
101342
101341
101340
101339
101338
101337
101336
101334
101333
101332
101331
101330
101329
101328
101327
101326
101326
101325
101324
101324
101323
101326
101350
101349
101348
101348
101347
101346
101345
101344
101344
101343
101342
101341
101340
101339
101338
101337
101336
101335
101335
101334
101333
101335
112261
112251
112256
112256
112250
112265
92203.9
92253.4
92304.1
92340.4
92346.3
92310.7
107629
107701
107760
107798
107812
107775
97313
97315.6
97298.4
97242.9
97158.1
97072.2
103879
103851
103832
103823
103823
103830
99698.7
99717.8
99734.8
99749.6
99761.9
99771.3
102099
102089
102080
102073
102069
102069
100657
100677
100695
100713
100729
100745
101415
101416
101417
101418
101420
101424
101021
101031
101040
101048
101056
101065
101234
101234
101234
101233
101233
101232
101161
101163
101165
101166
101167
101168
101207
101204
101203
101201
101199
101196
101207
101203
101201
101199
101196
101192
101220
101215
101212
101209
101206
101200
101227
101223
101220
101217
101214
101208
101235
101231
101229
101227
101224
101219
101242
101239
101238
101236
101235
101231
101248
101247
101247
101246
101246
101244
101254
101255
101255
101256
101256
101256
101260
101262
101264
101265
101266
101267
101266
101270
101272
101273
101275
101278
101272
101277
101280
101282
101284
101289
101279
101285
101288
101290
101293
101298
101286
101293
101296
101299
101302
101308
101295
101301
101305
101308
101310
101317
101303
101310
101313
101316
101319
101325
101312
101319
101322
101325
101328
101334
101322
101328
101331
101334
101337
101342
101331
101337
101340
101343
101346
101350
112239
112175
112133
112074
112023
111966
111911
111852
111795
111737
111680
111625
111572
111522
111474
111427
111383
111341
111301
111262
111228
111186
92263.9
92225.3
92189.6
92164.8
92158.3
92180.1
92220.4
92282.4
92366.1
92456.4
92547
92626
92692.2
92749.9
92802.2
92849.7
92892.6
92930.7
92964.1
92993.4
93021.1
93042.1
107702
107606
107499
107397
107307
107237
107195
107159
107141
107139
107136
107122
107113
107111
107104
107091
107076
107060
107043
107026
107006
106990
96990.8
96910.2
96850.4
96816.2
96796.4
96778.7
96765.3
96772.1
96780.7
96772
96738.6
96690.6
96639
96593.8
96556.8
96530.3
96516.1
96514.8
96525.8
96548.3
96589.2
96638.5
103858
103902
103944
103987
104033
104085
104143
104193
104219
104216
104189
104140
104071
103989
103904
103827
103763
103715
103685
103677
103679
103687
99762.2
99742.7
99724
99703.3
99679.7
99654.5
99627.8
99597.9
99566.2
99534.9
99503.2
99469.6
99434.9
99401.6
99373.1
99353.3
99341.9
99336.8
99336
99337.7
99340.8
99342.2
102076
102095
102115
102136
102160
102185
102212
102240
102272
102306
102339
102374
102411
102449
102487
102523
102555
102584
102609
102633
102653
102670
100746
100743
100738
100732
100725
100715
100704
100691
100675
100657
100636
100610
100583
100555
100527
100498
100471
100445
100419
100394
100370
100345
101427
101439
101450
101462
101475
101488
101503
101518
101534
101550
101567
101588
101611
101634
101657
101680
101701
101722
101741
101759
101776
101793
101067
101069
101069
101068
101067
101064
101059
101053
101045
101037
101027
101015
101001
100986
100969
100952
100934
100915
100897
100879
100862
100845
101233
101238
101242
101247
101251
101255
101259
101264
101269
101275
101281
101289
101297
101306
101315
101325
101335
101345
101355
101365
101376
101387
101170
101169
101168
101166
101163
101160
101156
101152
101147
101142
101136
101129
101121
101113
101105
101097
101088
101080
101072
101064
101056
101048
101197
101196
101194
101194
101193
101192
101192
101192
101192
101192
101193
101195
101197
101200
101204
101208
101213
101218
101223
101229
101235
101243
101193
101189
101187
101184
101182
101179
101176
101173
101171
101168
101165
101163
101160
101158
101156
101154
101152
101150
101148
101147
101146
101146
101202
101198
101196
101194
101193
101191
101190
101189
101188
101188
101189
101190
101192
101195
101198
101201
101205
101210
101214
101219
101223
101229
101210
101206
101205
101204
101202
101201
101201
101200
101200
101200
101201
101202
101204
101205
101207
101209
101211
101213
101215
101217
101219
101222
101221
101218
101218
101218
101217
101218
101218
101219
101221
101223
101225
101228
101231
101235
101239
101244
101248
101252
101255
101259
101262
101266
101233
101232
101232
101233
101234
101235
101237
101239
101242
101245
101248
101252
101256
101259
101263
101265
101268
101271
101273
101276
101278
101280
101245
101246
101247
101249
101251
101254
101257
101260
101263
101266
101269
101273
101278
101282
101285
101289
101292
101295
101298
101301
101303
101304
101257
101259
101262
101264
101267
101270
101274
101278
101281
101285
101289
101294
101298
101301
101305
101307
101310
101312
101314
101316
101317
101317
101268
101271
101275
101278
101282
101285
101289
101293
101298
101302
101306
101310
101314
101317
101320
101322
101324
101326
101328
101329
101330
101330
101278
101283
101287
101291
101295
101299
101303
101307
101311
101316
101320
101323
101327
101330
101332
101334
101336
101337
101338
101339
101339
101339
101287
101293
101298
101302
101306
101311
101315
101319
101323
101327
101331
101334
101337
101340
101342
101343
101344
101345
101346
101347
101347
101346
101297
101303
101308
101312
101317
101321
101326
101330
101334
101337
101341
101344
101346
101348
101350
101351
101352
101352
101353
101353
101353
101353
101305
101313
101318
101322
101326
101331
101335
101339
101343
101346
101349
101352
101354
101356
101357
101358
101358
101359
101359
101359
101358
101359
101314
101322
101327
101331
101336
101340
101344
101348
101351
101354
101357
101359
101361
101362
101363
101364
101364
101364
101364
101364
101363
101364
101323
101331
101336
101340
101344
101349
101352
101356
101359
101362
101364
101366
101368
101369
101369
101370
101370
101369
101369
101369
101368
101369
101332
101340
101344
101349
101353
101357
101361
101364
101367
101369
101371
101373
101374
101375
101375
101375
101375
101374
101374
101373
101372
101374
101340
101348
101353
101357
101361
101365
101368
101371
101374
101376
101378
101379
101380
101381
101381
101380
101380
101379
101378
101377
101377
101378
101349
101357
101361
101365
101369
101373
101376
101379
101381
101383
101385
101386
101386
101386
101386
101385
101384
101384
101383
101381
101380
101382
111177
111181
111184
111188
111192
111197
111203
111209
111217
111225
111235
111245
111254
111258
111261
111271
111291
111318
111353
111398
111460
111532
111602
111655
111687
111705
111715
111721
111726
111729
111731
111733
111732
111736
111729
93045.8
93047
93046.1
93046.3
93047.9
93050.7
93055.6
93063
93074.2
93090
93111.2
93138.1
93172.4
93215.6
93257.4
93323.6
93419.3
93529.4
93637.8
93713.6
93717.3
93630.2
93458.6
93273.6
93142.9
93111.9
93118.3
93143.6
93176.5
93219.2
93275
93344.4
93421.3
93487.9
93526
106983
106963
106941
106916
106884
106847
106800
106741
106665
106572
106463
106341
106208
106069
105933
105809
105710
105622
105547
105493
105452
105385
105307
105281
105323
105378
105491
105613
105722
105808
105867
105902
105920
105928
105930
96677.1
96729.6
96789.6
96857.2
96936.7
97025.3
97117.1
97212.7
97304.9
97385.7
97453
97505.6
97545.7
97574.5
97593.2
97609.9
97622
97627.5
97627.4
97619.7
97608.9
97605.5
97590.7
97574.8
97566.6
97589.2
97614.7
97634.8
97641.7
97640.5
97635.3
97627.6
97617.8
97607
97598.9
103683
103680
103678
103676
103675
103674
103672
103667
103657
103643
103625
103606
103584
103554
103522
103492
103466
103442
103421
103405
103397
103396
103408
103407
103400
103391
103378
103362
103345
103330
103317
103305
103295
103286
103279
99341.8
99345
99349.1
99352
99353.7
99354.1
99353
99351
99347.7
99344.5
99349.8
99360.6
99374.2
99388.7
99403.5
99418.6
99434.4
99451.9
99471.9
99494.9
99521.3
99554.9
99592.3
99627.3
99658.4
99696.9
99740.5
99778.9
99810.8
99835.3
99852.7
99863.9
99869.8
99872.3
99871.7
102684
102684
102682
102678
102671
102661
102648
102634
102620
102608
102589
102571
102552
102534
102517
102502
102490
102482
102476
102473
102470
102467
102465
102461
102457
102454
102451
102450
102449
102449
102448
102448
102447
102447
102447
100328
100323
100317
100311
100304
100297
100291
100284
100277
100267
100256
100248
100241
100242
100253
100264
100277
100291
100306
100320
100333
100345
100354
100360
100365
100368
100371
100373
100374
100375
100375
100375
100374
100373
100373
101808
101813
101817
101820
101824
101827
101829
101832
101833
101834
101833
101828
101826
101817
101804
101795
101786
101779
101773
101770
101770
101771
101774
101779
101784
101788
101791
101793
101794
101794
101794
101794
101793
101792
101792
100830
100825
100821
100817
100812
100808
100803
100798
100793
100788
100783
100777
100767
100765
100774
100781
100788
100797
100805
100813
100820
100826
100829
100831
100832
100832
100831
100830
100830
100829
100829
100829
100829
100829
100829
101394
101397
101400
101403
101406
101409
101413
101416
101419
101423
101427
101431
101436
101443
101435
101433
101431
101428
101426
101425
101425
101427
101430
101433
101436
101439
101441
101442
101443
101444
101444
101444
101444
101443
101443
101040
101039
101037
101036
101034
101033
101031
101030
101028
101027
101026
101025
101024
101020
101027
101032
101037
101043
101048
101053
101057
101060
101062
101064
101064
101065
101065
101065
101065
101065
101065
101065
101065
101066
101066
101246
101249
101251
101253
101255
101258
101260
101263
101266
101269
101273
101277
101281
101288
101286
101287
101288
101289
101290
101292
101293
101295
101298
101301
101304
101306
101308
101310
101311
101311
101312
101312
101312
101312
101312
101141
101142
101142
101142
101142
101142
101142
101142
101143
101143
101144
101145
101146
101146
101151
101155
101158
101162
101165
101168
101171
101174
101175
101176
101177
101177
101178
101179
101180
101180
101181
101182
101182
101182
101183
101231
101233
101234
101235
101236
101237
101238
101240
101241
101243
101245
101247
101250
101252
101254
101255
101256
101258
101259
101261
101262
101264
101267
101269
101272
101274
101275
101276
101277
101278
101279
101280
101280
101280
101281
101221
101221
101221
101221
101221
101221
101221
101221
101221
101221
101221
101222
101222
101223
101223
101225
101227
101229
101230
101232
101233
101235
101236
101237
101238
101239
101240
101241
101242
101243
101244
101245
101245
101245
101246
101268
101268
101268
101268
101268
101268
101268
101268
101268
101267
101267
101268
101268
101268
101268
101268
101268
101269
101270
101270
101272
101273
101275
101276
101278
101280
101281
101282
101283
101284
101285
101286
101286
101287
101287
101282
101281
101280
101280
101279
101279
101278
101277
101277
101276
101275
101274
101273
101272
101271
101271
101271
101271
101271
101272
101272
101273
101274
101275
101276
101277
101278
101278
101279
101280
101281
101282
101282
101283
101283
101307
101306
101305
101304
101304
101303
101302
101301
101300
101299
101297
101296
101295
101293
101292
101292
101291
101291
101291
101291
101292
101292
101294
101295
101296
101297
101299
101300
101301
101302
101303
101303
101304
101305
101305
101320
101318
101317
101316
101315
101314
101313
101312
101311
101309
101308
101306
101304
101303
101301
101300
101299
101299
101299
101299
101299
101300
101301
101302
101303
101304
101305
101306
101306
101307
101308
101309
101310
101310
101311
101332
101331
101330
101329
101328
101327
101326
101324
101323
101321
101320
101318
101316
101314
101313
101312
101311
101310
101310
101311
101311
101312
101313
101314
101315
101316
101317
101319
101320
101321
101321
101322
101323
101323
101324
101341
101339
101338
101337
101336
101335
101334
101332
101331
101329
101327
101326
101324
101322
101321
101320
101319
101318
101318
101319
101319
101320
101321
101322
101323
101324
101325
101326
101327
101328
101329
101330
101331
101331
101332
101348
101346
101345
101344
101343
101342
101340
101339
101338
101336
101334
101333
101331
101329
101328
101327
101326
101326
101326
101327
101327
101328
101329
101331
101332
101333
101334
101335
101337
101338
101339
101339
101340
101341
101341
101353
101352
101351
101350
101349
101347
101346
101344
101343
101341
101340
101338
101336
101335
101334
101333
101333
101333
101333
101333
101334
101335
101336
101338
101339
101340
101341
101343
101344
101345
101346
101347
101348
101348
101349
101358
101357
101356
101355
101353
101352
101351
101349
101348
101346
101344
101343
101341
101340
101339
101339
101338
101339
101339
101340
101341
101342
101343
101345
101346
101347
101349
101350
101351
101353
101354
101355
101355
101356
101357
101362
101361
101360
101359
101358
101356
101355
101353
101352
101350
101349
101347
101346
101345
101344
101343
101343
101344
101345
101345
101347
101348
101349
101351
101352
101354
101355
101357
101358
101359
101360
101361
101362
101363
101363
101366
101366
101365
101363
101362
101360
101359
101357
101356
101354
101352
101351
101350
101349
101348
101348
101348
101349
101350
101351
101352
101353
101355
101357
101358
101360
101361
101363
101364
101366
101367
101368
101369
101370
101370
101370
101370
101369
101367
101366
101364
101363
101361
101359
101358
101356
101355
101354
101353
101352
101352
101353
101353
101354
101356
101357
101359
101360
101362
101364
101366
101367
101369
101370
101372
101373
101374
101375
101376
101376
101373
101373
101372
101371
101369
101368
101366
101364
101363
101361
101360
101358
101357
101357
101356
101356
101357
101358
101359
101360
101362
101363
101365
101367
101369
101371
101372
101374
101376
101377
101378
101380
101381
101382
101382
101376
101377
101376
101374
101373
101371
101369
101368
101366
101364
101363
101362
101361
101360
101360
101360
101361
101362
101363
101365
101366
101368
101370
101372
101374
101376
101377
101379
101381
101382
101384
101385
101386
101387
101388
101388
101387
101386
101384
101383
101381
101378
101376
101374
101371
101368
101366
101363
101360
101357
101355
101353
101351
101349
101348
101347
101346
101346
101346
101347
101347
101348
101349
101350
101352
101353
101354
101355
101356
101357
101396
101395
101394
101392
101390
101388
101386
101383
101381
101378
101376
101373
101370
101367
101364
101362
101360
101358
101356
101355
101354
101353
101353
101353
101353
101354
101355
101356
101357
101358
101359
101361
101362
101363
101364
101403
101402
101400
101399
101397
101394
101392
101390
101387
101385
101382
101379
101376
101373
101371
101368
101366
101364
101362
101361
101360
101359
101359
101359
101359
101360
101360
101361
101362
101364
101365
101366
101367
101368
101369
101409
101408
101406
101404
101402
101400
101398
101395
101393
101390
101387
101385
101382
101379
101376
101374
101371
101369
101367
101366
101365
101364
101363
101363
101363
101364
101365
101365
101366
101368
101369
101370
101371
101372
101373
101414
101413
101411
101409
101407
101405
101403
101400
101398
101395
101392
101389
101386
101383
101381
101378
101376
101374
101372
101370
101369
101368
101367
101367
101367
101367
101368
101369
101370
101371
101372
101373
101374
101375
101375
101418
101417
101416
101414
101412
101409
101407
101404
101402
101399
101396
101393
101391
101388
101385
101382
101380
101378
101376
101374
101372
101371
101370
101370
101369
101370
101370
101371
101372
101373
101374
101375
101376
101377
101377
101422
101421
101419
101417
101415
101413
101411
101408
101405
101403
101400
101397
101394
101391
101388
101386
101383
101381
101379
101377
101375
101374
101373
101372
101371
101371
101372
101372
101373
101374
101375
101376
101377
101378
101378
101425
101424
101423
101421
101419
101416
101414
101411
101409
101406
101403
101400
101397
101394
101391
101389
101386
101384
101382
101380
101378
101376
101374
101373
101373
101373
101373
101373
101374
101374
101375
101376
101377
101378
101378
101428
101427
101425
101423
101421
101419
101416
101414
101411
101408
101406
101403
101400
101397
101394
101392
101389
101387
101384
101382
101380
101378
101376
101375
101374
101373
101373
101373
101374
101374
101375
101376
101377
101378
101377
101430
101429
101428
101426
101423
101421
101419
101416
101413
101411
101408
101405
101402
101399
101396
101394
101391
101389
101386
101384
101381
101379
101377
101375
101374
101373
101373
101373
101373
101374
101374
101375
101376
101377
101376
101432
101431
101430
101428
101425
101423
101421
101418
101415
101413
101410
101407
101404
101401
101398
101396
101393
101391
101388
101385
101383
101380
101378
101376
101374
101373
101373
101372
101372
101372
101373
101374
101375
101375
101375
101434
101433
101431
101429
101427
101425
101422
101420
101417
101414
101411
101409
101406
101403
101400
101397
101395
101392
101389
101387
101384
101381
101378
101376
101374
101373
101372
101371
101371
101371
101371
101372
101373
101373
101373
101435
101434
101432
101430
101428
101426
101424
101421
101418
101416
101413
101410
101407
101404
101401
101399
101396
101393
101391
101388
101385
101382
101379
101376
101374
101372
101371
101370
101369
101369
101369
101369
101370
101371
101370
101436
101435
101434
101432
101429
101427
101425
101422
101419
101417
101414
101411
101408
101406
101403
101400
101397
101395
101392
101389
101385
101382
101379
101376
101373
101371
101369
101368
101367
101366
101366
101366
101367
101368
101367
101437
101436
101434
101433
101430
101428
101426
101423
101420
101418
101415
101412
101409
101407
101404
101401
101398
101396
101393
101389
101386
101382
101379
101376
101373
101370
101368
101366
101364
101363
101363
101363
101364
101364
101363
101438
101437
101435
101433
101431
101429
101426
101424
101421
101418
101416
101413
101410
101407
101405
101402
101399
101396
101393
101390