/*--------------------------------*- C++ -*----------------------------------*\
  =========                 |
  \\      /  F ield         | OpenFOAM: The Open Source CFD Toolbox
   \\    /   O peration     | Website:  https://openfoam.org
    \\  /    A nd           | Version:  8
     \\/     M anipulation  |
\*---------------------------------------------------------------------------*/
FoamFile
{
    version     2.0;
    format      ascii;
    class       surfaceScalarField;
    location    "0.38";
    object      phi;
}
// * * * * * * * * * * * * * * * * * * * * * * * * * * * * * * * * * * * * * //

dimensions      [1 0 -1 0 0 0 0];

internalField   nonuniform List<scalar> 
31053
(
-6.73894e-06
1.32141e-05
-1.05721e-05
1.15632e-05
-1.47202e-05
1.34443e-05
-1.99442e-05
1.62204e-05
-2.70198e-05
1.98003e-05
-3.63101e-05
2.38564e-05
-4.75048e-05
2.7795e-05
-5.95014e-05
3.08825e-05
-7.01318e-05
3.21056e-05
-7.52402e-05
2.9521e-05
-6.53623e-05
1.78584e-05
-2.93725e-05
-4.52694e-06
4.09451e-05
-3.45121e-05
0.000140017
-5.7923e-05
0.000232929
-5.3134e-05
0.000312654
-3.948e-05
0.000374029
-2.08263e-05
0.000419126
-4.36107e-06
0.000452795
7.19724e-06
0.000478998
1.47563e-05
0.000500744
1.93232e-05
0.000518519
2.02117e-05
0.000530525
2.2719e-05
0.000535066
2.72575e-05
0.000531318
3.29033e-05
0.000520175
3.78929e-05
0.000504944
3.97873e-05
0.000488374
3.91275e-05
0.000471817
3.72808e-05
0.000456
3.48633e-05
0.000441511
3.19872e-05
0.000428613
2.89685e-05
0.000417395
2.59584e-05
0.000407877
2.30189e-05
2.05105e-05
0.000399436
-6.87969e-05
8.2031e-05
-0.000153119
9.59077e-05
-0.000247303
0.000107652
-0.000349429
0.00011837
-0.000457396
0.000127793
-0.000568537
0.000135023
-0.00067909
0.000138379
-0.000783529
0.000135362
-0.000873449
0.00012208
-0.000936455
9.26039e-05
-0.000957316
3.88245e-05
-0.000918238
-4.3469e-05
-0.000811673
-0.000140911
-0.000646765
-0.000222643
-0.00047946
-0.000220269
-0.000317521
-0.00020124
-0.000170603
-0.000167563
-3.97429e-05
-0.000135058
7.8891e-05
-0.000111303
0.000191308
-9.75657e-05
0.000301786
-9.10956e-05
0.000402009
-7.99943e-05
0.000490789
-6.60946e-05
0.000567456
-4.94818e-05
0.000629501
-2.92462e-05
0.000674006
-6.7395e-06
0.00070041
1.32382e-05
0.000710465
2.89209e-05
0.000708586
3.90082e-05
0.000698638
4.46611e-05
0.000683492
4.69902e-05
0.000665299
4.70281e-05
0.000645625
4.55129e-05
0.000625558
4.29802e-05
3.94025e-05
0.000606573
-1.27016e-06
8.3229e-05
2.16943e-06
9.23906e-05
9.18937e-06
0.000100547
1.84556e-05
0.00010901
2.90705e-05
0.000117073
4.03933e-05
0.000123583
5.16923e-05
0.000126949
6.20242e-05
0.000124882
6.98667e-05
0.000114071
7.16848e-05
9.0597e-05
5.97098e-05
5.05875e-05
1.38439e-05
2.15153e-06
-9.15851e-05
-3.5765e-05
-0.000253558
-6.10177e-05
-0.000406008
-6.81759e-05
-0.000530319
-7.72865e-05
-0.000607184
-9.10456e-05
-0.000629353
-0.000113242
-0.000605721
-0.000135286
-0.000552526
-0.000151123
-0.000489825
-0.000154201
-0.000441592
-0.000128627
-0.000412954
-9.51139e-05
-0.000399719
-6.30722e-05
-0.000393902
-3.53907e-05
-0.000390178
-1.07646e-05
-0.000385034
7.81994e-06
-0.000376683
2.03248e-05
-0.000367199
2.93092e-05
-0.000355547
3.28201e-05
-0.000342074
3.33562e-05
-0.000327346
3.21597e-05
-0.00031191
2.99589e-05
-0.000296246
2.72106e-05
2.46162e-05
-0.00028155
3.83851e-05
4.49044e-05
7.66777e-05
5.41607e-05
0.000116546
6.07473e-05
0.00015932
6.63101e-05
0.000205872
7.06075e-05
0.000256399
7.31534e-05
0.000310198
7.32632e-05
0.000365283
6.99284e-05
0.000417407
6.21025e-05
0.00045829
4.98988e-05
0.000472318
3.67752e-05
0.000446957
2.77677e-05
0.000393561
1.79218e-05
0.000328123
4.74099e-06
0.000272238
-1.20057e-05
0.000231721
-3.64824e-05
0.000207403
-6.64301e-05
0.000195783
-0.000101324
0.000192168
-0.000131377
0.000191753
-0.000150413
0.000190712
-0.000152855
0.000185891
-0.000123506
0.000177072
-8.59938e-05
0.000164792
-5.04947e-05
0.000151205
-2.15029e-05
0.000142848
-2.11518e-06
0.000147147
3.80664e-06
0.000164013
3.73257e-06
0.000191813
1.77752e-06
0.000225072
-1.8009e-07
0.000260226
-1.54881e-06
0.000295317
-2.69462e-06
0.000328869
-3.36931e-06
0.000359984
-3.6968e-06
-4.15467e-06
0.000388947
1.73066e-05
2.75786e-05
3.44973e-05
3.69509e-05
5.37756e-05
4.14482e-05
7.49088e-05
4.51545e-05
9.74091e-05
4.80817e-05
0.000120743
4.97903e-05
0.000144329
4.96433e-05
0.000167429
4.67885e-05
0.000189322
4.01613e-05
0.000210689
2.84719e-05
0.000237329
1.00571e-05
0.000271806
-6.80643e-06
0.000313925
-2.43219e-05
0.00036391
-4.54035e-05
0.00040651
-5.47879e-05
0.000432448
-6.25765e-05
0.000433872
-6.79956e-05
0.000403715
-7.13025e-05
0.000344639
-7.24411e-05
0.00026557
-7.14953e-05
0.000181281
-6.87202e-05
0.000117095
-5.94572e-05
8.0904e-05
-4.99227e-05
7.13048e-05
-4.10044e-05
8.31089e-05
-3.34074e-05
0.000108266
-2.73678e-05
0.000134564
-2.25888e-05
0.000157379
-1.91794e-05
0.000175681
-1.66236e-05
0.000189902
-1.44976e-05
0.000200842
-1.25832e-05
0.000208977
-1.09185e-05
0.000215069
-9.54632e-06
0.000219788
-8.49345e-06
-7.54157e-06
0.000223104
3.62948e-05
-8.69871e-06
7.7447e-05
-4.18388e-06
0.000122186
-3.27262e-06
0.000170829
-3.46885e-06
0.000223557
-4.62423e-06
0.000280219
-6.84668e-06
0.000340196
-1.0305e-05
0.000402155
-1.51364e-05
0.000463626
-2.12691e-05
0.000520298
-2.81505e-05
0.000564807
-3.43877e-05
0.000598141
-4.00605e-05
0.000620235
-4.63194e-05
0.000629188
-5.42539e-05
0.000626928
-5.2426e-05
0.000618252
-5.37961e-05
0.000605489
-5.51262e-05
0.000590288
-5.5996e-05
0.000574024
-5.60732e-05
0.000558005
-5.53759e-05
0.00054351
-5.41327e-05
0.000532238
-4.81076e-05
0.000524549
-4.21694e-05
0.000520675
-3.70787e-05
0.000519974
-3.26684e-05
0.000521373
-2.87369e-05
0.000523902
-2.50991e-05
0.000526124
-2.13906e-05
0.000526968
-1.74611e-05
0.000525877
-1.34058e-05
0.000522598
-9.30755e-06
0.000517022
-5.34905e-06
0.000509045
-1.57767e-06
0.000499231
1.3123e-06
3.38931e-06
0.00048829
-1.61189e-06
-7.10844e-06
3.54866e-06
-9.36698e-06
1.15621e-05
-1.13102e-05
2.14723e-05
-1.34053e-05
3.26443e-05
-1.58254e-05
4.4494e-05
-1.8729e-05
5.64417e-05
-2.22895e-05
6.79504e-05
-2.66871e-05
7.873e-05
-3.20965e-05
8.91556e-05
-3.86306e-05
0.000100951
-4.62447e-05
0.000115427
-5.46058e-05
0.000132472
-6.34426e-05
0.000150737
-7.26051e-05
0.000166321
-6.809e-05
0.000179329
-6.68809e-05
0.000189355
-6.52265e-05
0.000196327
-6.30411e-05
0.000200413
-6.02338e-05
0.000201804
-5.68435e-05
0.000200466
-5.28758e-05
0.000196554
-4.42733e-05
0.000190219
-3.59069e-05
0.000181734
-2.86636e-05
0.000171594
-2.25934e-05
0.000160531
-1.77341e-05
0.000149435
-1.40581e-05
0.000139083
-1.10878e-05
0.000130049
-8.47193e-06
0.000122761
-6.15687e-06
0.00011753
-4.11281e-06
0.000114433
-2.28311e-06
0.000113263
-4.37411e-07
0.00011339
1.15881e-06
2.77802e-06
0.000113976
6.61978e-06
-1.37164e-05
1.42529e-05
-1.69881e-05
2.27684e-05
-1.9813e-05
3.22177e-05
-2.2841e-05
4.26892e-05
-2.62817e-05
5.42136e-05
-3.02365e-05
6.67308e-05
-3.47875e-05
8.00749e-05
-4.00093e-05
9.39817e-05
-4.59777e-05
0.000108147
-5.2766e-05
0.000122322
-6.03846e-05
0.000136402
-6.8645e-05
0.000150252
-7.72442e-05
0.000163401
-8.56993e-05
0.000172981
-7.76174e-05
0.000180275
-7.41218e-05
0.000185897
-7.07976e-05
0.000190293
-6.73873e-05
0.000193464
-6.33553e-05
0.000194976
-5.83074e-05
0.000194011
-5.18651e-05
0.000189742
-3.99643e-05
0.000182125
-2.82563e-05
0.000171259
-1.77677e-05
0.000157046
-8.35472e-06
0.00013974
-4.05064e-07
0.000120945
4.75963e-06
0.000101108
8.76832e-06
8.05128e-05
1.21395e-05
5.98034e-05
1.45669e-05
3.96958e-05
1.60073e-05
2.07789e-05
1.6646e-05
3.7585e-06
1.65908e-05
-1.11339e-05
1.60567e-05
1.5166e-05
-2.35186e-05
2.71161e-06
-1.64424e-05
6.21525e-06
-2.05069e-05
1.04628e-05
-2.40768e-05
1.54708e-05
-2.7867e-05
2.11907e-05
-3.20215e-05
2.7557e-05
-3.66252e-05
3.44856e-05
-4.17413e-05
4.18655e-05
-4.74178e-05
4.95367e-05
-5.36812e-05
5.72208e-05
-6.04864e-05
6.451e-05
-6.77143e-05
7.10064e-05
-7.5186e-05
7.62796e-05
-8.25661e-05
7.99038e-05
-8.93754e-05
8.14492e-05
-7.92073e-05
8.07212e-05
-7.3434e-05
7.75506e-05
-6.76626e-05
7.20388e-05
-6.19064e-05
6.42235e-05
-5.55653e-05
5.39789e-05
-4.80839e-05
4.14685e-05
-3.93737e-05
2.90092e-05
-2.7519e-05
1.81703e-05
-1.74262e-05
1.02039e-05
-9.80627e-06
6.16449e-06
-4.31514e-06
5.23996e-06
5.19256e-07
4.48274e-06
5.5165e-06
3.87243e-06
9.38105e-06
3.98006e-06
1.20353e-05
4.83855e-06
1.37125e-05
6.25711e-06
1.4593e-05
8.02815e-06
1.48799e-05
9.93981e-06
1.46831e-05
1.18194e-05
1.4181e-05
1.36157e-05
1.33726e-05
1.98432e-06
-1.84247e-05
3.98106e-06
-2.25017e-05
5.98441e-06
-2.60781e-05
8.08912e-06
-2.99696e-05
1.04177e-05
-3.43477e-05
1.30929e-05
-3.92978e-05
1.623e-05
-4.48755e-05
1.99428e-05
-5.11272e-05
2.43197e-05
-5.80541e-05
2.9402e-05
-6.55641e-05
3.52221e-05
-7.35291e-05
4.17816e-05
-8.17388e-05
4.89937e-05
-8.97692e-05
5.64216e-05
-9.67914e-05
6.19076e-05
-8.46813e-05
6.59684e-05
-7.74813e-05
6.84728e-05
-7.01508e-05
6.9074e-05
-6.24878e-05
6.75106e-05
-5.39786e-05
6.36438e-05
-4.41922e-05
5.72241e-05
-3.2927e-05
4.84758e-05
-1.87435e-05
3.72216e-05
-6.14675e-06
2.42643e-05
3.17987e-06
1.10517e-05
8.92186e-06
-1.92789e-06
1.35233e-05
-1.3079e-05
1.66917e-05
-2.23798e-05
1.87032e-05
-3.01946e-05
1.98697e-05
-3.68673e-05
2.04032e-05
-4.27083e-05
2.04497e-05
-4.79389e-05
2.01241e-05
-5.27657e-05
1.95222e-05
-5.72985e-05
1.87252e-05
1.77354e-05
-6.14078e-05
1.07061e-06
-1.95009e-05
2.45342e-06
-2.38907e-05
4.20078e-06
-2.78324e-05
6.26157e-06
-3.20381e-05
8.5562e-06
-3.66511e-05
1.09935e-05
-4.17451e-05
1.34776e-05
-4.73709e-05
1.5904e-05
-5.35663e-05
1.81602e-05
-6.03246e-05
2.01499e-05
-6.75699e-05
2.17503e-05
-7.51471e-05
2.27671e-05
-8.2775e-05
2.29677e-05
-8.99906e-05
2.217e-05
-9.60161e-05
2.08374e-05
-8.33673e-05
1.87363e-05
-7.53963e-05
1.57156e-05
-6.71446e-05
1.16919e-05
-5.84774e-05
6.70434e-06
-4.90023e-05
1.09191e-06
-3.85881e-05
-4.5165e-06
-2.73246e-05
-8.55851e-06
-1.47052e-05
-9.80429e-06
-4.89967e-06
-9.7313e-06
3.10086e-06
-1.09607e-05
1.01505e-05
-1.23755e-05
1.49382e-05
-1.38283e-05
1.81448e-05
-1.52291e-05
2.01046e-05
-1.65033e-05
2.11454e-05
-1.76118e-05
2.15136e-05
-1.85428e-05
2.13835e-05
-1.93122e-05
2.0897e-05
-1.9947e-05
2.01606e-05
-2.04732e-05
1.92547e-05
1.82783e-05
-2.10126e-05
5.84532e-07
-2.0085e-05
1.07806e-06
-2.4384e-05
1.47099e-06
-2.82253e-05
1.81873e-06
-3.2386e-05
2.19454e-06
-3.70271e-05
2.65226e-06
-4.22032e-05
3.23973e-06
-4.79588e-05
3.99152e-06
-5.43185e-05
4.92475e-06
-6.12583e-05
6.04123e-06
-6.86869e-05
7.32339e-06
-7.64297e-05
8.75649e-06
-8.42084e-05
1.03603e-05
-9.15944e-05
1.21705e-05
-9.78254e-05
1.34968e-05
-8.46918e-05
1.42182e-05
-7.61147e-05
1.408e-05
-6.70016e-05
1.30394e-05
-5.74298e-05
1.12266e-05
-4.71804e-05
8.67979e-06
-3.603e-05
5.23165e-06
-2.38621e-05
7.66773e-07
-1.02257e-05
-5.47231e-06
1.35632e-06
-1.10181e-05
8.66583e-06
-1.5383e-05
1.45318e-05
-1.91619e-05
1.8732e-05
-2.25678e-05
2.15644e-05
-2.57569e-05
2.33062e-05
-2.87949e-05
2.41943e-05
-3.16985e-05
2.44262e-05
-3.44734e-05
2.41665e-05
-3.71158e-05
2.35465e-05
-3.96138e-05
2.26655e-05
-4.19559e-05
2.16032e-05
2.04023e-05
-4.40735e-05
2.93848e-07
-2.03801e-05
6.07161e-07
-2.46986e-05
1.01931e-06
-2.86388e-05
1.5e-06
-3.28682e-05
1.99849e-06
-3.75273e-05
2.47421e-06
-4.26807e-05
2.88119e-06
-4.83679e-05
3.16663e-06
-5.46064e-05
3.27996e-06
-6.13743e-05
3.18331e-06
-6.85932e-05
2.84803e-06
-7.60977e-05
2.21916e-06
-8.3583e-05
1.20679e-06
-9.05857e-05
-2.45275e-07
-9.63771e-05
-1.65468e-06
-8.32854e-05
-3.12228e-06
-7.46497e-05
-4.82991e-06
-6.52965e-05
-6.99217e-06
-5.52699e-05
-9.5158e-06
-4.46586e-05
-1.21051e-05
-3.34419e-05
-1.44631e-05
-2.1505e-05
-1.59471e-05
-8.74179e-06
-1.57609e-05
1.16658e-06
-1.69204e-05
9.82435e-06
-1.82058e-05
1.58167e-05
-1.943e-05
1.99558e-05
-2.05201e-05
2.26543e-05
-2.14505e-05
2.42364e-05
-2.22197e-05
2.49633e-05
-2.28394e-05
2.50455e-05
-2.33295e-05
2.46561e-05
-2.37108e-05
2.39268e-05
-2.40031e-05
2.29572e-05
-2.42284e-05
2.18284e-05
2.06163e-05
-2.44421e-05
2.19048e-08
-2.04009e-05
-7.29342e-08
-2.46026e-05
-2.73756e-07
-2.84366e-05
-5.58922e-07
-3.25815e-05
-9.1889e-07
-3.71656e-05
-1.34573e-06
-4.22519e-05
-1.83689e-06
-4.78745e-05
-2.3937e-06
-5.4047e-05
-3.00471e-06
-6.07604e-05
-3.64263e-06
-6.7952e-05
-4.27139e-06
-7.54652e-05
-4.87778e-06
-8.29723e-05
-5.47694e-06
-8.99817e-05
-6.10521e-06
-9.57432e-05
-6.77676e-06
-8.26084e-05
-7.47806e-06
-7.39429e-05
-8.21277e-06
-6.45561e-05
-9.05717e-06
-5.44194e-05
-1.01113e-05
-4.3598e-05
-1.14154e-05
-3.21309e-05
-1.30035e-05
-1.99093e-05
-1.50139e-05
-6.72398e-06
-1.75884e-05
3.7497e-06
-1.91806e-05
1.14236e-05
-2.04421e-05
1.70845e-05
-2.15184e-05
2.10377e-05
-2.24705e-05
2.36112e-05
-2.33177e-05
2.50876e-05
-2.40821e-05
2.57309e-05
-2.47878e-05
2.57534e-05
-2.54362e-05
2.53064e-05
-2.60213e-05
2.45131e-05
-2.65394e-05
2.34766e-05
-2.69905e-05
2.22812e-05
2.09837e-05
-2.7356e-05
-1.65967e-07
-2.02337e-05
-3.60676e-07
-2.44065e-05
-5.67669e-07
-2.82281e-05
-8.00815e-07
-3.23466e-05
-1.0854e-06
-3.6879e-05
-1.45073e-06
-4.18843e-05
-1.92261e-06
-4.73999e-05
-2.52743e-06
-5.34391e-05
-3.30428e-06
-5.99801e-05
-4.3016e-06
-6.69507e-05
-5.56073e-06
-7.42016e-05
-7.0849e-06
-8.14431e-05
-8.87219e-06
-8.81888e-05
-1.09238e-05
-9.36854e-05
-1.27673e-05
-8.07593e-05
-1.44986e-05
-7.22063e-05
-1.60891e-05
-6.29608e-05
-1.74949e-05
-5.30093e-05
-1.87396e-05
-4.23495e-05
-1.98779e-05
-3.09895e-05
-2.08508e-05
-1.89342e-05
-2.13811e-05
-6.1927e-06
-2.15904e-05
3.95917e-06
-2.18297e-05
1.16626e-05
-2.19556e-05
1.72097e-05
-2.19582e-05
2.10393e-05
-2.18445e-05
2.34959e-05
-2.16281e-05
2.48692e-05
-2.13273e-05
2.54279e-05
-2.09594e-05
2.5383e-05
-2.05384e-05
2.4883e-05
-2.00796e-05
2.40515e-05
-1.95958e-05
2.29908e-05
-1.90986e-05
2.17827e-05
2.0495e-05
-1.86108e-05
-3.0556e-07
-1.99262e-05
-7.38124e-07
-2.39717e-05
-1.27744e-06
-2.76863e-05
-1.93278e-06
-3.16884e-05
-2.70715e-06
-3.61014e-05
-3.59708e-06
-4.09907e-05
-4.60064e-06
-4.63922e-05
-5.71817e-06
-5.23169e-05
-6.95523e-06
-5.87377e-05
-8.3224e-06
-6.55775e-05
-9.83685e-06
-7.26803e-05
-1.15056e-05
-7.97668e-05
-1.33245e-05
-8.63613e-05
-1.53031e-05
-9.16975e-05
-1.71052e-05
-7.8949e-05
-1.88025e-05
-7.05012e-05
-2.03628e-05
-6.13933e-05
-2.17565e-05
-5.16092e-05
-2.29581e-05
-4.11421e-05
-2.39523e-05
-2.99905e-05
-2.47307e-05
-1.81517e-05
-2.5295e-05
-5.62545e-06
-2.56033e-05
4.26936e-06
-2.55769e-05
1.16374e-05
-2.53389e-05
1.69722e-05
-2.49532e-05
2.06535e-05
-2.44751e-05
2.30171e-05
-2.39555e-05
2.43486e-05
-2.3416e-05
2.48869e-05
-2.28603e-05
2.48256e-05
-2.22984e-05
2.43192e-05
-2.17418e-05
2.34927e-05
-2.11984e-05
2.24456e-05
-2.06729e-05
2.12557e-05
1.99813e-05
-2.01604e-05
-4.00879e-07
-1.95235e-05
-9.00145e-07
-2.34703e-05
-1.48588e-06
-2.70981e-05
-2.17785e-06
-3.09936e-05
-2.98323e-06
-3.52928e-05
-3.91262e-06
-4.00576e-05
-4.98528e-06
-4.53154e-05
-6.2273e-06
-5.10701e-05
-7.66584e-06
-5.72937e-05
-9.32851e-06
-6.39087e-05
-1.12419e-05
-7.076e-05
-1.34289e-05
-7.75721e-05
-1.58992e-05
-8.38825e-05
-1.86426e-05
-8.89448e-05
-2.10961e-05
-7.64872e-05
-2.33799e-05
-6.82099e-05
-2.54614e-05
-5.9305e-05
-2.73011e-05
-4.97636e-05
-2.88561e-05
-3.95822e-05
-3.00813e-05
-2.87615e-05
-3.09226e-05
-1.73079e-05
-3.12798e-05
-5.26719e-06
-3.12617e-05
4.25127e-06
-3.09867e-05
1.13616e-05
-3.05001e-05
1.6484e-05
-2.98545e-05
2.0006e-05
-2.90965e-05
2.22569e-05
-2.82644e-05
2.3514e-05
-2.73872e-05
2.40071e-05
-2.64881e-05
2.39236e-05
-2.55867e-05
2.34151e-05
-2.46992e-05
2.26024e-05
-2.38374e-05
2.15813e-05
-2.30106e-05
2.04265e-05
1.91971e-05
-2.22286e-05
-4.99615e-07
-1.90218e-05
-1.16663e-06
-2.2801e-05
-1.96743e-06
-2.62947e-05
-2.89333e-06
-3.00648e-05
-3.94896e-06
-3.42338e-05
-5.14866e-06
-3.88541e-05
-6.50867e-06
-4.3951e-05
-8.04646e-06
-4.95274e-05
-9.7814e-06
-5.55532e-05
-1.1735e-05
-6.19488e-05
-1.39301e-05
-6.85578e-05
-1.63886e-05
-7.51056e-05
-1.91273e-05
-8.11351e-05
-2.21531e-05
-8.59095e-05
-2.48982e-05
-7.37338e-05
-2.7491e-05
-6.56094e-05
-2.9896e-05
-5.6893e-05
-3.20726e-05
-4.75811e-05
-3.3974e-05
-3.76758e-05
-3.55479e-05
-2.71837e-05
-3.6739e-05
-1.61142e-05
-3.74526e-05
-4.55223e-06
-3.7739e-05
4.53787e-06
-3.76713e-05
1.12933e-05
-3.73381e-05
1.61496e-05
-3.68118e-05
1.9478e-05
-3.61515e-05
2.15947e-05
-3.54042e-05
2.27647e-05
-3.4606e-05
2.32068e-05
-3.37844e-05
2.31e-05
-3.29602e-05
2.25889e-05
-3.21486e-05
2.17889e-05
-3.13604e-05
2.07912e-05
-3.0603e-05
1.96673e-05
1.84716e-05
-2.98794e-05
-5.6639e-07
-1.84536e-05
-1.27141e-06
-2.20939e-05
-2.10539e-06
-2.54584e-05
-3.07178e-06
-2.90957e-05
-4.18653e-06
-3.3116e-05
-5.47099e-06
-3.75662e-05
-6.94857e-06
-4.24695e-05
-8.64475e-06
-4.78267e-05
-1.05866e-05
-5.36062e-05
-1.28024e-05
-5.97273e-05
-1.53202e-05
-6.60336e-05
-1.81663e-05
-7.22523e-05
-2.13623e-05
-7.79312e-05
-2.49172e-05
-8.23459e-05
-2.81478e-05
-7.04955e-05
-3.12189e-05
-6.25313e-05
-3.41014e-05
-5.40042e-05
-3.67581e-05
-4.49189e-05
-3.91432e-05
-3.5286e-05
-4.12032e-05
-2.51199e-05
-4.28769e-05
-1.44379e-05
-4.40063e-05
-3.42154e-06
-4.46609e-05
5.19274e-06
-4.49335e-05
1.15655e-05
-4.4903e-05
1.61182e-05
-4.46397e-05
1.92133e-05
-4.42034e-05
2.11569e-05
-4.36441e-05
2.22036e-05
-4.30023e-05
2.25633e-05
-4.23105e-05
2.24066e-05
-4.15943e-05
2.18711e-05
-4.08731e-05
2.10662e-05
-4.0162e-05
2.00785e-05
-3.94717e-05
1.89754e-05
1.78093e-05
-3.88112e-05
-6.40901e-07
-1.78111e-05
-1.45823e-06
-2.12748e-05
-2.41493e-06
-2.44996e-05
-3.51877e-06
-2.79895e-05
-4.78546e-06
-3.18466e-05
-6.23393e-06
-3.61146e-05
-7.88605e-06
-4.08138e-05
-9.76647e-06
-4.59422e-05
-1.19027e-05
-5.14654e-05
-1.43249e-05
-5.72999e-05
-1.70653e-05
-6.32874e-05
-2.01568e-05
-6.91543e-05
-2.36305e-05
-7.44504e-05
-2.7511e-05
-7.84577e-05
-3.10742e-05
-6.69254e-05
-3.45028e-05
-5.90963e-05
-3.77708e-05
-5.07303e-05
-4.08454e-05
-4.18391e-05
-4.36854e-05
-3.24414e-05
-4.62405e-05
-2.25611e-05
-4.84522e-05
-1.22233e-05
-5.01181e-05
-1.75388e-06
-5.12804e-05
6.35583e-06
-5.20221e-05
1.23074e-05
-5.24233e-05
1.65189e-05
-5.25556e-05
1.9345e-05
-5.24816e-05
2.10819e-05
-5.22537e-05
2.19748e-05
-5.19151e-05
2.22237e-05
-5.15003e-05
2.1991e-05
-5.1037e-05
2.14069e-05
-5.05463e-05
2.05747e-05
-5.00447e-05
1.9576e-05
-4.95443e-05
1.84739e-05
1.73171e-05
-4.90535e-05
-6.87939e-07
-1.71218e-05
-1.54102e-06
-2.04201e-05
-2.54011e-06
-2.34987e-05
-3.69631e-06
-2.68312e-05
-5.02819e-06
-3.05124e-05
-6.5581e-06
-3.4582e-05
-8.31153e-06
-3.90574e-05
-1.03168e-05
-4.39335e-05
-1.26049e-05
-4.91734e-05
-1.52093e-05
-5.46911e-05
-1.81656e-05
-6.03261e-05
-2.15107e-05
-6.58036e-05
-2.52812e-05
-7.06738e-05
-2.95097e-05
-7.42225e-05
-3.34095e-05
-6.30197e-05
-3.71883e-05
-5.53118e-05
-4.08277e-05
-4.70857e-05
-4.43019e-05
-3.83601e-05
-4.75761e-05
-2.91629e-05
-5.0606e-05
-1.95275e-05
-5.33374e-05
-9.48886e-06
-5.55156e-05
4.26579e-07
-5.71751e-05
8.01687e-06
-5.83932e-05
1.35264e-05
-5.92434e-05
1.73695e-05
-5.97935e-05
1.98952e-05
-6.01038e-05
2.13922e-05
-6.02266e-05
2.20973e-05
-6.02059e-05
2.22027e-05
-6.0078e-05
2.18631e-05
-5.9873e-05
2.12017e-05
-5.96143e-05
2.0316e-05
-5.93212e-05
1.92825e-05
-5.90082e-05
1.81603e-05
1.69946e-05
-5.86866e-05
-7.35477e-07
-1.63853e-05
-1.64844e-06
-1.95059e-05
-2.71628e-06
-2.24294e-05
-3.94911e-06
-2.55967e-05
-5.36493e-06
-2.90947e-05
-6.98595e-06
-3.29588e-05
-8.83788e-06
-3.72029e-05
-1.09498e-05
-4.18187e-05
-1.33542e-05
-4.67658e-05
-1.60868e-05
-5.19548e-05
-1.91868e-05
-5.7222e-05
-2.26961e-05
-6.22897e-05
-2.66585e-05
-6.67063e-05
-3.11172e-05
-6.97581e-05
-3.52525e-05
-5.88792e-05
-3.92877e-05
-5.12717e-05
-4.32092e-05
-4.31596e-05
-4.69967e-05
-3.45683e-05
-5.06219e-05
-2.55337e-05
-5.40471e-05
-1.60986e-05
-5.72244e-05
-6.30824e-06
-5.98607e-05
3.06565e-06
-6.19716e-05
1.01298e-05
-6.36275e-05
1.51838e-05
-6.4897e-05
1.86402e-05
-6.5844e-05
2.08431e-05
-6.65265e-05
2.20753e-05
-6.69954e-05
2.25668e-05
-6.72946e-05
2.25024e-05
-6.74607e-05
2.20298e-05
-6.75245e-05
2.1266e-05
-6.75109e-05
2.0303e-05
-6.74405e-05
1.92123e-05
-6.7329e-05
1.80488e-05
1.68543e-05
-6.71891e-05
-7.65561e-07
-1.56188e-05
-1.70699e-06
-1.85634e-05
-2.80547e-06
-2.13298e-05
-4.07344e-06
-2.43274e-05
-5.53079e-06
-2.76358e-05
-7.20148e-06
-3.12863e-05
-9.11286e-06
-3.52895e-05
-1.12956e-05
-3.96337e-05
-1.37835e-05
-4.42752e-05
-1.6614e-05
-4.91213e-05
-1.98277e-05
-5.40049e-05
-2.34688e-05
-5.86448e-05
-2.75846e-05
-6.25863e-05
-3.22243e-05
-6.51137e-05
-3.65394e-05
-5.45599e-05
-4.07672e-05
-4.70397e-05
-4.48993e-05
-3.90235e-05
-4.89212e-05
-3.05425e-05
-5.28112e-05
-2.16399e-05
-5.65383e-05
-1.23679e-05
-6.00612e-05
-2.78182e-06
-6.30556e-05
6.06296e-06
-6.55265e-05
1.26032e-05
-6.75379e-05
1.71973e-05
-6.91524e-05
2.02565e-05
-7.04293e-05
2.21215e-05
-7.14233e-05
2.30706e-05
-7.21832e-05
2.33279e-05
-7.27518e-05
2.30721e-05
-7.31658e-05
2.24449e-05
-7.34565e-05
2.15576e-05
-7.36494e-05
2.0497e-05
-7.37664e-05
1.933e-05
-7.38248e-05
1.81077e-05
1.68682e-05
-7.38386e-05
-7.90522e-07
-1.48276e-05
-1.75921e-06
-1.75939e-05
-2.88789e-06
-2.02002e-05
-4.189e-06
-2.30252e-05
-5.68243e-06
-2.61411e-05
-7.39223e-06
-2.95751e-05
-9.34597e-06
-3.33342e-05
-1.15747e-05
-3.74031e-05
-1.41131e-05
-4.17347e-05
-1.69994e-05
-4.62327e-05
-2.02756e-05
-5.07259e-05
-2.39881e-05
-5.49293e-05
-2.8187e-05
-5.83839e-05
-3.29264e-05
-6.03705e-05
-3.73434e-05
-5.01393e-05
-4.1683e-05
-4.26965e-05
-4.59406e-05
-3.47624e-05
-5.01065e-05
-2.63731e-05
-5.41642e-05
-1.75787e-05
-5.80884e-05
-8.44023e-06
-6.18436e-05
9.76821e-07
-6.50853e-05
9.30782e-06
-6.78098e-05
1.53304e-05
-7.00758e-05
1.94658e-05
-7.19411e-05
2.2124e-05
-7.34613e-05
2.36436e-05
-7.46878e-05
2.42989e-05
-7.56675e-05
2.43091e-05
-7.64417e-05
2.38478e-05
-7.70465e-05
2.30512e-05
-7.7513e-05
2.20255e-05
-7.78671e-05
2.08525e-05
-7.81312e-05
1.95951e-05
-7.83232e-05
1.83005e-05
1.70035e-05
-7.8458e-05
-8.02486e-07
-1.40245e-05
-1.78156e-06
-1.66142e-05
-2.92091e-06
-1.90601e-05
-4.2339e-06
-2.17114e-05
-5.74105e-06
-2.4633e-05
-7.46686e-06
-2.78482e-05
-9.43932e-06
-3.13604e-05
-1.16898e-05
-3.51512e-05
-1.4253e-05
-3.91698e-05
-1.71672e-05
-4.33165e-05
-2.04747e-05
-4.74163e-05
-2.42217e-05
-5.11798e-05
-2.8459e-05
-5.41438e-05
-3.32419e-05
-5.55844e-05
-3.77016e-05
-4.56766e-05
-4.20879e-05
-3.83073e-05
-4.63993e-05
-3.0448e-05
-5.06297e-05
-2.21396e-05
-5.47665e-05
-1.34388e-05
-5.87889e-05
-4.41456e-06
-6.26663e-05
4.85762e-06
-6.60448e-05
1.26894e-05
-6.89153e-05
1.82038e-05
-7.13324e-05
2.18856e-05
-7.33503e-05
2.41443e-05
-7.50209e-05
2.53164e-05
-7.6393e-05
2.56731e-05
-7.75116e-05
2.54295e-05
-7.84165e-05
2.47546e-05
-7.91432e-05
2.37796e-05
-7.97223e-05
2.26061e-05
-8.01798e-05
2.13116e-05
-8.05383e-05
1.99548e-05
-8.08163e-05
1.85794e-05
1.7217e-05
-8.1029e-05
-8.09415e-07
-1.32147e-05
-1.79358e-06
-1.56296e-05
-2.93739e-06
-1.79157e-05
-4.25435e-06
-2.03937e-05
-5.76492e-06
-2.31217e-05
-7.49349e-06
-2.61187e-05
-9.46791e-06
-2.9385e-05
-1.17194e-05
-3.28985e-05
-1.42824e-05
-3.66054e-05
-1.71951e-05
-4.04022e-05
-2.04991e-05
-4.41105e-05
-2.42404e-05
-4.74365e-05
-2.84689e-05
-4.9913e-05
-3.32397e-05
-5.08109e-05
-3.7687e-05
-4.12269e-05
-4.20615e-05
-3.39303e-05
-4.63632e-05
-2.61436e-05
-5.05884e-05
-1.79118e-05
-5.4727e-05
-9.29732e-06
-5.87614e-05
-3.77157e-07
-6.26645e-05
8.76383e-06
-6.60814e-05
1.61094e-05
-6.90008e-05
2.1126e-05
-7.14747e-05
2.43622e-05
-7.35545e-05
2.62265e-05
-7.52895e-05
2.70537e-05
-7.67265e-05
2.71123e-05
-7.79086e-05
2.66136e-05
-7.88746e-05
2.57224e-05
-7.9659e-05
2.45658e-05
-8.02921e-05
2.32407e-05
-8.07996e-05
2.18206e-05
-8.1204e-05
2.03604e-05
-8.15237e-05
1.89002e-05
1.74687e-05
-8.17744e-05
-8.087e-07
-1.24057e-05
-1.78839e-06
-1.46495e-05
-2.92567e-06
-1.67779e-05
-4.23447e-06
-1.90844e-05
-5.73529e-06
-2.16202e-05
-7.45243e-06
-2.44008e-05
-9.41348e-06
-2.74231e-05
-1.16492e-05
-3.06619e-05
-1.41935e-05
-3.40599e-05
-1.70836e-05
-3.75109e-05
-2.036e-05
-4.08325e-05
-2.40671e-05
-4.37278e-05
-2.82529e-05
-4.57252e-05
-3.29703e-05
-4.60913e-05
-3.73631e-05
-3.6832e-05
-4.16801e-05
-2.96111e-05
-4.59226e-05
-2.1899e-05
-5.00877e-05
-1.37443e-05
-5.41672e-05
-5.21527e-06
-5.81454e-05
3.60375e-06
-6.19973e-05
1.26187e-05
-6.53741e-05
1.9489e-05
-6.82642e-05
2.40189e-05
-7.07181e-05
2.68188e-05
-7.27854e-05
2.82962e-05
-7.45138e-05
2.87844e-05
-7.59484e-05
2.8549e-05
-7.7131e-05
2.77982e-05
-7.80994e-05
2.66927e-05
-7.88875e-05
2.53555e-05
-7.95246e-05
2.38794e-05
-8.00365e-05
2.23339e-05
-8.0445e-05
2.07702e-05
-8.07687e-05
1.9225e-05
1.77242e-05
-8.10231e-05
-8.04166e-07
-1.16012e-05
-1.77397e-06
-1.36793e-05
-2.89831e-06
-1.56532e-05
-4.19148e-06
-1.77908e-05
-5.67385e-06
-2.01373e-05
-7.36937e-06
-2.27047e-05
-9.30509e-06
-2.54866e-05
-1.15111e-05
-2.8455e-05
-1.40204e-05
-3.15497e-05
-1.68691e-05
-3.46611e-05
-2.00963e-05
-3.76041e-05
-2.37442e-05
-4.00784e-05
-2.78586e-05
-4.16091e-05
-3.2489e-05
-4.14589e-05
-3.67942e-05
-3.25249e-05
-4.10188e-05
-2.53846e-05
-4.51642e-05
-1.77515e-05
-4.92285e-05
-9.67792e-06
-5.3204e-05
-1.23746e-06
-5.70762e-05
7.47838e-06
-6.08213e-05
1.63666e-05
-6.41011e-05
2.27715e-05
-6.69054e-05
2.68258e-05
-6.92837e-05
2.91997e-05
-7.12847e-05
3.02995e-05
-7.29548e-05
3.04567e-05
-7.43382e-05
2.99345e-05
-7.54756e-05
2.89375e-05
-7.6404e-05
2.76229e-05
-7.71565e-05
2.61095e-05
-7.77619e-05
2.44862e-05
-7.82453e-05
2.28187e-05
-7.86284e-05
2.11544e-05
-7.89293e-05
1.9527e-05
1.79592e-05
-7.91632e-05
-7.97095e-07
-1.08039e-05
-1.75033e-06
-1.27258e-05
-2.85461e-06
-1.45486e-05
-4.12472e-06
-1.65202e-05
-5.58073e-06
-1.86808e-05
-7.24598e-06
-2.10389e-05
-9.14678e-06
-2.35852e-05
-1.13123e-05
-2.62888e-05
-1.37744e-05
-2.90867e-05
-1.65677e-05
-3.18667e-05
-1.97298e-05
-3.44409e-05
-2.33004e-05
-3.65065e-05
-2.73224e-05
-3.75856e-05
-3.18414e-05
-3.69382e-05
-3.60352e-05
-2.83294e-05
-4.01426e-05
-2.12754e-05
-4.41652e-05
-1.37272e-05
-4.81007e-05
-5.74043e-06
-5.19422e-05
2.60611e-06
-5.56756e-05
1.1214e-05
-5.92778e-05
1.99713e-05
-6.24242e-05
2.59204e-05
-6.5107e-05
2.9511e-05
-6.73752e-05
3.14702e-05
-6.92765e-05
3.22031e-05
-7.08568e-05
3.20391e-05
-7.21592e-05
3.12389e-05
-7.32238e-05
3.00038e-05
-7.40866e-05
2.84874e-05
-7.47801e-05
2.68044e-05
-7.53325e-05
2.504e-05
-7.57684e-05
2.32558e-05
-7.61087e-05
2.14958e-05
-7.63711e-05
1.97905e-05
1.81598e-05
-7.65706e-05
-7.68661e-07
-1.0035e-05
-1.70137e-06
-1.17928e-05
-2.78429e-06
-1.34653e-05
-4.02996e-06
-1.52742e-05
-5.4572e-06
-1.72531e-05
-7.08836e-06
-1.94072e-05
-8.94876e-06
-2.17242e-05
-1.10665e-05
-2.41704e-05
-1.34724e-05
-2.66801e-05
-1.61997e-05
-2.91384e-05
-1.92842e-05
-3.13554e-05
-2.27634e-05
-3.3026e-05
-2.66773e-05
-3.36704e-05
-3.10673e-05
-3.25466e-05
-3.51334e-05
-2.42617e-05
-3.91073e-05
-1.72998e-05
-4.29903e-05
-9.8425e-06
-4.67802e-05
-1.94874e-06
-5.04701e-05
6.29789e-06
-5.40461e-05
1.47921e-05
-5.74859e-05
2.34134e-05
-6.04802e-05
2.89169e-05
-6.30235e-05
3.20565e-05
-6.51646e-05
3.36135e-05
-6.69506e-05
3.39912e-05
-6.84267e-05
3.35171e-05
-6.96351e-05
3.24491e-05
-7.0615e-05
3.09855e-05
-7.14019e-05
2.92758e-05
-7.20273e-05
2.74312e-05
-7.25189e-05
2.55327e-05
-7.29004e-05
2.36384e-05
-7.31922e-05
2.17886e-05
-7.34114e-05
2.00107e-05
-7.35725e-05
1.83219e-05
0.000378363
3.79023e-05
0.000356527
3.82753e-05
0.000334784
3.80086e-05
0.000313631
3.72937e-05
0.000293128
3.65871e-05
0.000273278
3.59488e-05
0.000254732
3.47177e-05
0.000237452
3.35439e-05
0.000221516
3.23016e-05
0.000208273
2.97033e-05
0.00019588
2.89225e-05
0.000181804
3.04589e-05
0.000166065
3.13447e-05
0.000147266
3.37176e-05
0.000125611
3.59167e-05
0.000102639
3.66109e-05
7.95792e-05
3.60907e-05
5.70455e-05
3.49613e-05
3.54663e-05
3.3443e-05
1.54566e-05
3.13182e-05
-2.11261e-06
2.84201e-05
2.5002e-05
-1.6713e-05
0.000583946
6.03817e-05
0.00056239
5.96767e-05
0.000542144
5.80936e-05
0.000524432
5.48556e-05
0.00051103
4.98505e-05
0.000503797
4.30775e-05
0.000503582
3.48597e-05
0.000511397
2.57026e-05
0.000527242
1.64615e-05
0.000548132
8.8546e-06
0.000573588
3.50069e-06
0.000605131
-1.01579e-06
0.000638915
-2.35369e-06
0.000672286
3.44392e-07
0.000699085
9.10424e-06
0.000715787
1.98702e-05
0.000719436
3.24244e-05
0.000708152
4.62409e-05
0.000681406
6.01873e-05
0.000639032
7.36511e-05
0.000581054
8.6347e-05
9.7877e-05
0.000508135
-0.00026569
4.43665e-05
-0.000251186
4.5021e-05
-0.000236666
4.3423e-05
-0.00022175
3.97983e-05
-0.000206136
3.40953e-05
-0.000189488
2.63141e-05
-0.000171247
1.65498e-05
-0.000155443
9.87614e-06
-0.000142536
3.58799e-06
-0.00013236
-1.22735e-06
-0.000123927
-4.77045e-06
-0.000118669
-6.08546e-06
-0.000116664
-4.18415e-06
-0.000117082
9.1185e-07
-0.000116834
9.00467e-06
-0.000115207
1.83661e-05
-0.000113738
3.10508e-05
-0.000110779
4.33452e-05
-0.000106115
5.55717e-05
-0.000100721
6.82967e-05
-9.56399e-05
8.12936e-05
9.44465e-05
-9.21939e-05
0.000438379
-4.74798e-06
0.000491439
-7.70002e-06
0.000545402
-1.0175e-05
0.000597654
-1.20988e-05
0.000645048
-1.29653e-05
0.000683561
-1.19352e-05
0.000707955
-7.6643e-06
0.000716325
1.607e-06
0.000706507
1.34393e-05
0.000674239
3.10335e-05
0.000617221
5.22349e-05
0.000536857
7.42629e-05
0.000441209
9.14416e-05
0.000338037
0.000104071
0.000236557
0.000110516
0.000143687
0.000111308
6.68454e-05
0.000107965
7.47608e-06
0.000102762
-3.46861e-05
9.77886e-05
-6.07168e-05
9.43468e-05
-7.20373e-05
9.2637e-05
9.21413e-05
-6.97268e-05
0.000221268
-3.02713e-06
0.000216453
-3.00761e-06
0.000209275
-3.12399e-06
0.000200197
-3.15259e-06
0.000190062
-2.96685e-06
0.000180261
-2.27654e-06
0.000173133
-6.79765e-07
0.000171893
2.694e-06
0.000176251
8.90267e-06
0.000185843
2.12425e-05
0.000201181
3.6677e-05
0.000221111
5.41309e-05
0.000243224
6.91717e-05
0.000264971
8.22535e-05
0.000282898
9.26054e-05
0.000294318
9.99562e-05
0.000297908
0.000104453
0.0002942
0.000106541
0.000285163
0.00010689
0.000273397
0.000106182
0.000261073
0.000105035
0.00010397
0.000249317
0.000468248
1.70034e-05
0.000441982
2.32329e-05
0.000408824
2.9997e-05
0.000368738
3.6888e-05
0.000322062
4.36551e-05
0.000269695
5.00263e-05
0.000213308
5.56338e-05
0.000156253
5.96656e-05
0.000103127
6.1938e-05
6.08977e-05
6.33697e-05
3.21406e-05
6.53276e-05
1.79712e-05
6.81904e-05
1.66285e-05
7.04065e-05