/*--------------------------------*- C++ -*----------------------------------*\
  =========                 |
  \\      /  F ield         | OpenFOAM: The Open Source CFD Toolbox
   \\    /   O peration     | Website:  https://openfoam.org
    \\  /    A nd           | Version:  8
     \\/     M anipulation  |
\*---------------------------------------------------------------------------*/
FoamFile
{
    version     2.0;
    format      ascii;
    class       volScalarField;
    location    "0.44";
    object      nut;
}
// * * * * * * * * * * * * * * * * * * * * * * * * * * * * * * * * * * * * * //

dimensions      [0 2 -1 0 0 0 0];

internalField   nonuniform List<scalar> 
15677
(
0.000491289
0.000431857
0.00197693
0.00366885
0.00507907
0.00642216
0.00785999
0.00955051
0.0117362
0.0145961
0.0182547
0.022268
0.0262625
0.0308921
0.0313141
0.0307152
0.0287547
0.0264188
0.0239408
0.0214695
0.0190361
0.0158537
0.012082
0.00931068
0.00719991
0.00558048
0.00436128
0.00346267
0.00281096
0.00234076
0.00200072
0.00175536
0.00157948
0.00145535
0.00136547
0.000774885
0.00627492
0.0171723
0.0288495
0.0386745
0.0463169
0.0521988
0.056813
0.0609508
0.0648592
0.0674895
0.0679395
0.0675719
0.067086
0.0661611
0.0643174
0.0610607
0.056915
0.0527986
0.0491728
0.0461269
0.0437908
0.041813
0.0396585
0.0374893
0.0353829
0.0333747
0.0314766
0.0296889
0.0280079
0.0264207
0.0248973
0.0233993
0.0219176
0.0205103
0.000832052
0.00840269
0.0199509
0.0320704
0.0435875
0.053906
0.0627499
0.0699029
0.0750128
0.0774819
0.0766024
0.0723579
0.0661279
0.0607954
0.0579939
0.0559771
0.0532159
0.0505515
0.0493329
0.0490859
0.0494143
0.0492305
0.0489956
0.0486647
0.0482848
0.0478745
0.0474361
0.0469745
0.0465117
0.0460684
0.0456635
0.045307
0.0450189
0.0448002
0.0446503
0.000747656
0.00541346
0.0130558
0.0210918
0.0288263
0.0359731
0.0422855
0.0474283
0.0510236
0.0530037
0.0545912
0.0549512
0.0547498
0.0542306
0.0540005
0.0539328
0.0531313
0.0513312
0.0476029
0.0423354
0.0367127
0.0334864
0.0321342
0.0320517
0.0328225
0.0342061
0.0355851
0.036756
0.0374486
0.0380691
0.0385151
0.038863
0.0391167
0.0392212
0.0392361
0.000491304
0.00377617
0.00831363
0.013151
0.0182135
0.0232279
0.028071
0.0325429
0.0364463
0.0392537
0.0412244
0.042546
0.0436255
0.0447021
0.0456945
0.0457887
0.0444597
0.0414432
0.0373868
0.0331232
0.0288244
0.0249841
0.0235669
0.0255798
0.028225
0.0307091
0.0328179
0.0343017
0.0350042
0.0354021
0.0361651
0.0373789
0.038936
0.0407031
0.0425638
0.000224851
0.000989683
0.00232928
0.00376236
0.00530512
0.00692462
0.00860121
0.0102817
0.0119772
0.0133843
0.0143903
0.0154845
0.0164915
0.0174911
0.0183988
0.0190317
0.0194926
0.0198948
0.0204628
0.0214113
0.0228703
0.0248275
0.0270677
0.0287918
0.030145
0.0313563
0.0321982
0.0332788
0.0345306
0.0357023
0.036822
0.0378352
0.0387098
0.0394561
0.0401065
0.000261411
0.00163156
0.0037852
0.00549761
0.00673831
0.00758143
0.00828699
0.00926708
0.0106311
0.0123398
0.0143642
0.0166812
0.0196035
0.0227658
0.0257692
0.0284439
0.0308815
0.0331482
0.0352143
0.0371757
0.0389961
0.0407315
0.0422422
0.0435618
0.0447399
0.0458302
0.0468682
0.0478296
0.0486938
0.0494801
0.0502447
0.0509842
0.0516531
0.052203
0.0526083
0.000296742
0.0019956
0.00429041
0.0060367
0.00721751
0.00784242
0.00810959
0.00833015
0.00919933
0.0115793
0.0160698
0.0218832
0.0276321
0.0329526
0.037298
0.041079
0.0443638
0.0471639
0.0493525
0.0508475
0.05161
0.0517551
0.051651
0.051486
0.0513157
0.0511495
0.0510028
0.0508983
0.050826
0.0507558
0.0506947
0.0506366
0.0505902
0.0505553
0.0505344
0.000168097
0.000730453
0.00155613
0.00230058
0.00311078
0.00439098
0.00629602
0.00900512
0.0126323
0.0171645
0.0225434
0.0287483
0.0354976
0.0422136
0.0473694
0.0507903
0.0529569
0.0541396
0.0545423
0.054334
0.053679
0.0527821
0.051917
0.0511747
0.0506377
0.0503337
0.0502624
0.0503658
0.0505645
0.0507922
0.0509886
0.0511369
0.0512544
0.0513618
0.0514657
0.000150458
0.00112175
0.00295421
0.00533967
0.00826304
0.0116194
0.0154004
0.0196345
0.0242918
0.0292905
0.0344779
0.0397047
0.0446722
0.0491342
0.0525658
0.0549355
0.0564379
0.0571776
0.0572652
0.0568153
0.0559648
0.0548784
0.0537753
0.0528029
0.0519683
0.0512438
0.050636
0.050157
0.0497986
0.0495369
0.0493586
0.0492434
0.049175
0.0491402
0.0491293
0.000205044
0.00147329
0.00385746
0.00680101
0.0101614
0.0139253
0.0180614
0.0225336
0.0272948
0.0322798
0.0374179
0.0425606
0.0474884
0.0519707
0.0553269
0.0575021
0.0587086
0.0590827
0.0587763
0.0579444
0.0567314
0.0553387
0.0540145
0.0528577
0.0518985
0.0511337
0.0505405
0.050084
0.0497329
0.0494664
0.0492549
0.049087
0.0489525
0.0488441
0.0487561
0.000198241
0.00176369
0.0044231
0.00768731
0.0114162
0.0155414
0.0200129
0.0247785
0.0297773
0.0349338
0.0401586
0.0453067
0.0502132
0.0546573
0.0580138
0.0602297
0.0615011
0.0619386
0.0616552
0.0607793
0.0594636
0.0579045
0.0563551
0.0549126
0.0536021
0.0524261
0.0514063
0.0505543
0.0498634
0.0493102
0.0488687
0.0485159
0.0482328
0.0480039
0.0478177
0.000211874
0.00171471
0.00441525
0.00774575
0.0115586
0.0157917
0.0203958
0.0253169
0.0304885
0.0358288
0.0412383
0.0465727
0.0516496
0.0562173
0.0596543
0.0619196
0.0632079
0.063628
0.0633018
0.0623551
0.0609271
0.0592265
0.0575365
0.0559805
0.0545966
0.0533882
0.0523463
0.0514548
0.0506937
0.0500486
0.049505
0.0490485
0.0486654
0.0483426
0.0480683
0.000209642
0.00186223
0.00470567
0.00818469
0.012136
0.0164893
0.0211922
0.0261884
0.0314106
0.0367882
0.0422229
0.0475923
0.0527349
0.0574535
0.0610687
0.0634607
0.0648599
0.065403
0.065206
0.0643825
0.0630548
0.061404
0.0596964
0.0580544
0.0565394
0.0551819
0.0539862
0.0529424
0.0520335
0.0512465
0.050572
0.049999
0.0495153
0.0491084
0.0487653
0.000214377
0.00184068
0.00469392
0.0081789
0.0121331
0.0164896
0.0212005
0.0262165
0.0314766
0.0369123
0.0424344
0.0479184
0.0531897
0.0580495
0.0618069
0.0644177
0.066067
0.0668285
0.0668019
0.0661022
0.0648458
0.0632172
0.0615204
0.0599045
0.0584185
0.057079
0.0558874
0.0548372
0.0539176
0.0531155
0.0524168
0.0518076
0.0512754
0.0508095
0.0503998
0.000214093
0.00192007
0.00483002
0.00836379
0.0123608
0.0167502
0.0214793
0.0264949
0.031733
0.03713
0.0426127
0.0480644
0.0533628
0.0583076
0.0622661
0.0650984
0.0669824
0.0679958
0.0682191
0.0677424
0.0666687
0.0651582
0.0634957
0.0618458
0.0603085
0.0589245
0.0576997
0.0566227
0.0556743
0.054835
0.0540919
0.0534335
0.052849
0.0523288
0.0518637
0.000216616
0.00192386
0.00485073
0.00838952
0.0123807
0.0167564
0.0214678
0.0264661
0.0316886
0.0370611
0.0425191
0.0479502
0.0532307
0.0582048
0.0622408
0.0652103
0.067289
0.0685374
0.0690208
0.0688154
0.0680089
0.0667352
0.065248
0.0636915
0.0621617
0.0607219
0.0594102
0.0582421
0.0572146
0.0563198
0.0555394
0.0548565
0.0542563
0.0537271
0.053259
0.000217652
0.00198328
0.00495288
0.00852753
0.012547
0.0169406
0.0216549
0.0266355
0.0318189
0.0371254
0.0424889
0.0478111
0.0529756
0.0578679
0.0618822
0.0649086
0.0671206
0.0685671
0.0692961
0.0693652
0.0688463
0.0678516
0.0666244
0.0653192
0.0640178
0.0627646
0.0615776
0.0604683
0.0594505
0.0585268
0.0576969
0.056956
0.0562967
0.0557107
0.0551897
0.000219662
0.00201186
0.00501906
0.00862184
0.0126612
0.0170675
0.0217868
0.0267609
0.0319216
0.0371811
0.0424551
0.0476618
0.0526903
0.0574164
0.061311
0.0642972
0.0665489
0.0681113
0.0690195
0.0693131
0.0690448
0.0682996
0.0672896
0.066162
0.0650072
0.0638816
0.0628201
0.0618372
0.0609342
0.0601085
0.059356
0.0586719
0.0580508
0.0574873
0.0569761
0.00022138
0.00206277
0.00511487
0.00876204
0.0128442
0.0172877
0.0220326
0.0270142
0.0321576
0.0373706
0.042548
0.047615
0.0524488
0.0569389
0.0606646
0.0635163
0.0657084
0.0672959
0.0683077
0.0687677
0.0687077
0.0681844
0.0673774
0.0664247
0.065416
0.0644091
0.0634392
0.0625258
0.0616776
0.0608974
0.0601842
0.0595351
0.0589464
0.0584139
0.0579332
0.000223316
0.00210378
0.00520624
0.00890421
0.0130357
0.0175242
0.0223055
0.0273088
0.0324512
0.0376348
0.0427425
0.0476748
0.0523299
0.0566053
0.0600416
0.0626749
0.0647175
0.0662352
0.0672611
0.0678115
0.0679026
0.0675653
0.0669438
0.0661613
0.0653016
0.0644214
0.0635582
0.0627341
0.0619611
0.0612445
0.0605857
0.0599836
0.0594355
0.0589384
0.0584884
0.000225281
0.00215527
0.00531773
0.00907712
0.0132699
0.0178163
0.0226469
0.0276844
0.032838
0.0380025
0.0430522
0.04786
0.0523317
0.056345
0.0594905
0.0618846
0.0637015
0.0650624
0.0660137
0.0665727
0.0667455
0.0665431
0.0660743
0.0654433
0.0647256
0.063973
0.0632216
0.0624946
0.0618055
0.0611616
0.0605662
0.0600197
0.0595214
0.0590692
0.05866
0.00022731
0.00220377
0.00542783
0.00925331
0.013514
0.0181263
0.0230159
0.0280991
0.0332775
0.0384365
0.0434452
0.0481593
0.0524606
0.0562402
0.0591194
0.0611818
0.0627451
0.0638871
0.0646871
0.0651746
0.0653554
0.065229
0.0648719
0.0643653
0.0637717
0.0631375
0.0624941
0.0618648
0.0612634
0.0606978
0.0601724
0.0596887
0.0592464
0.0588442
0.05848
0.000229274
0.00225586
0.0055461
0.00944292
0.0137772
0.0184617
0.0234171
0.0285535
0.0337654
0.0389297
0.0439088
0.0485499
0.0527044
0.0562657
0.058868
0.060657
0.0619202
0.0627978
0.0633879
0.0637355
0.0638536
0.0637405
0.0634468
0.0630299
0.0625367
0.0620044
0.0614602
0.0609235
0.0604071
0.0599191
0.059464
0.0590437
0.0586589
0.0583086
0.0579917
0.000231168
0.00230645
0.00566322
0.00963306
0.0140436
0.0188037
0.0238293
0.0290247
0.0342775
0.0394572
0.0444169
0.0489992
0.0530437
0.0564091
0.0587589
0.0602792
0.0612342
0.0618511
0.0621949
0.0623521
0.0623488
0.0621911
0.0619123
0.0615477
0.0611274
0.0606773
0.0602178
0.059764
0.0593264
0.0589119
0.0585246
0.0581666
0.0578387
0.0575406
0.0572712
0.00023293
0.0023574
0.00578129
0.00982494
0.0143127
0.0191495
0.0242468
0.0295037
0.0348019
0.040004
0.0449558
0.0494907
0.0534393
0.0566454
0.0587731
0.0600446
0.0607457
0.0610604
0.0611551
0.0610932
0.0609266
0.0606768
0.0603695
0.0600207
0.0596446
0.0592548
0.0588635
0.0584804
0.0581128
0.0577656
0.0574419
0.0571432
0.0568703
0.0566227
0.0564
0.00023454
0.0024066
0.00589612
0.0100123
0.014576
0.0194887
0.0246573
0.0299763
0.0353221
0.0405516
0.0455041
0.0500057
0.0538774
0.0569493
0.0588727
0.0599164
0.0603955
0.0604589
0.0602922
0.0599964
0.0596442
0.0592688
0.0588982
0.058534
0.0581755
0.0578247
0.0574848
0.0571597
0.0568524
0.0565652
0.0562996
0.0560563
0.0558352
0.0556361
0.0554582
0.000235969
0.00245431
0.00600737
0.0101935
0.0148306
0.0198162
0.0250537
0.0304332
0.0358264
0.0410854
0.0460442
0.050523
0.0543363
0.0572803
0.0590241
0.0599065
0.0601719
0.0600209
0.0596059
0.0590652
0.0585315
0.0580107
0.0575529
0.0571493
0.0567867
0.0564561
0.0561525
0.055873
0.0556164
0.0553818
0.0551686
0.0549762
0.0548037
0.0546504
0.0545152
0.000237203
0.00249962
0.00611293
0.0103653
0.0150715
0.0201261
0.0254286
0.0308655
0.0363042
0.0415928
0.0465606
0.051023
0.0547884
0.0576214
0.0592329
0.0599692
0.0600517
0.0596974
0.0590865
0.0583279
0.057563
0.0569193
0.0563609
0.0559018
0.0555189
0.0551939
0.0549136
0.0546691
0.0544543
0.0542651
0.0540985
0.0539523
0.0538247
0.053714
0.053619
0.000238192
0.00254182
0.00621117
0.0105251
0.0152956
0.0204142
0.0257771
0.0312671
0.0367484
0.0420651
0.0470432
0.0514936
0.0552195
0.0579606
0.0594715
0.0600778
0.0600056
0.0594765
0.0586772
0.0577564
0.0567721
0.055962
0.0553251
0.0548013
0.0543868
0.0540557
0.0537879
0.0535686
0.0533872
0.0532361
0.0531099
0.0530046
0.0529172
0.0528452
0.0527869
0.00128218
0.00123714
0.00122652
0.0012145
0.00119772
0.00119898
0.00124456
0.00138
0.00167382
0.00216986
0.00279448
0.00340039
0.00383286
0.00403943
0.00395426
0.00370305
0.00338513
0.00308464
0.00270834
0.00220791
0.00173602
0.00132923
0.0187066
0.0166139
0.0147345
0.0131618
0.0119664
0.011715
0.0121133
0.0139995
0.0181407
0.0245795
0.0301723
0.034813
0.0375049
0.0381921
0.0373069
0.035773
0.0343941
0.0335248
0.0330054
0.031942
0.0297201
0.0270885
0.0444619
0.0442799
0.0441723
0.0443245
0.0449915
0.0464436
0.0488539
0.0518832
0.0543538
0.055196
0.0538812
0.0502892
0.0454054
0.0418133
0.0419655
0.0453766
0.0503411
0.0548788
0.0580228
0.0593982
0.0589394
0.056992
0.0392383
0.0392092
0.0393492
0.0399303
0.0411795
0.0425006
0.043839
0.0454045
0.0472714
0.0487846
0.048905
0.0468109
0.0438364
0.0416542
0.0411776
0.0421274
0.0434877
0.0446646
0.0455413
0.0463146
0.0468079
0.0472922
0.0452392
0.048835
0.0525857
0.0562233
0.0594337
0.0618221
0.0631444
0.0633574
0.0625307
0.0607518
0.0580347
0.0541315
0.0493673
0.0446454
0.0411636
0.0389704
0.0380238
0.0379999
0.0386021
0.0396188
0.0408631
0.0421867
0.0404038
0.0399839
0.0396719
0.0396849
0.0403269
0.0416177
0.0433782
0.0452635
0.046901
0.0479555
0.048006
0.0470077
0.0449652
0.0422864
0.0392231
0.036465
0.0343704
0.0330761
0.032577
0.0327392
0.0333957
0.0343726
0.0529295
0.0529125
0.0525302
0.0518633
0.0511428
0.050173
0.0491529
0.0482498
0.0475414
0.0469789
0.0464067
0.0456245
0.0444629
0.0429074
0.0410115
0.0388382
0.0365875
0.0344644
0.0325891
0.031086
0.0300565
0.0294622
0.0505417
0.050607
0.0507715
0.0509937
0.0506801
0.0502856
0.0497724
0.0491077
0.0483382
0.0475051
0.0466203
0.0456716
0.0446368
0.0434789
0.0421468
0.0406189
0.0389185
0.0371077
0.035268
0.0334902
0.0318645
0.0304605
0.0516177
0.0518087
0.0519661
0.0520845
0.052133
0.0520961
0.0519646
0.0517306
0.0514931
0.0511956
0.0507336
0.0501006
0.0493058
0.0483662
0.0472785
0.0460371
0.044641
0.0430992
0.0414403
0.0397072
0.0379448
0.0361948
0.0491745
0.0492931
0.0494344
0.0495863
0.0497336
0.0498623
0.0499667
0.0500603
0.049989
0.0497835
0.0495363
0.0492194
0.0488096
0.0483029
0.0476894
0.0469607
0.0461115
0.0451414
0.0440564
0.0428694
0.0415995
0.0402705
0.0486767
0.0486289
0.0486128
0.0486231
0.048651
0.0486851
0.0487115
0.0487149
0.0486697
0.0485415
0.0483098
0.0479903
0.0476215
0.0472067
0.0467411
0.0462186
0.0456321
0.0449728
0.0442378
0.0434306
0.0425595
0.0416358
0.047622
0.0474396
0.0472982
0.0471893
0.0470993
0.0470213
0.0469438
0.0468547
0.0467394
0.0466005
0.0464324
0.0462087
0.0459143
0.0455665
0.0451655
0.0447139
0.0442163
0.0436834
0.0431138
0.0425027
0.0418579
0.041187
0.0477318
0.0473428
0.0469883
0.046665
0.046369
0.0460956
0.0458398
0.0455951
0.0453501
0.0450941
0.044827
0.044533
0.044215
0.0438779
0.0435118
0.0431126
0.042682
0.0422166
0.0417204
0.0412014
0.0406733
0.0401472
0.0483243
0.0477946
0.0473131
0.0468752
0.046468
0.0460759
0.0456826
0.0453011
0.044915
0.0445172
0.0441072
0.0436895
0.0432465
0.0427683
0.0422769
0.0417812
0.0412888
0.0408191
0.0403827
0.0399796
0.0396068
0.0392525
0.0498471
0.0491431
0.0484683
0.0478247
0.047211
0.0466208
0.0460447
0.0454731
0.0449084
0.0443581
0.0438058
0.0432361
0.0426739
0.0421355
0.0416223
0.0411408
0.0406983
0.0402971
0.0399484
0.0396303
0.039331
0.0390633
0.0512302
0.050414
0.0496104
0.0488198
0.0480431
0.0472852
0.0465582
0.045848
0.0451479
0.0444545
0.0437722
0.043111
0.0424978
0.0419514
0.0414699
0.0410379
0.0406694
0.0403442
0.0400569
0.0397923
0.0395683
0.0393867
0.0526024
0.0517387
0.0508803
0.0500293
0.0491982
0.0483807
0.0475622
0.0467568
0.0459627
0.0451822
0.0444198
0.0436875
0.043012
0.0424093
0.0418788
0.041412
0.0410099
0.0406874
0.0404341
0.0402164
0.0400515
0.0399393
0.0544465
0.0534427
0.0524606
0.0514953
0.0505582
0.0496527
0.0487412
0.0478458
0.0469629
0.0460948
0.0452482
0.0444375
0.0436924
0.0430309
0.0424537
0.0419597
0.0415404
0.0411977
0.0409598
0.0407791
0.0406525
0.0405849
0.0562622
0.055278
0.0542515
0.0532068
0.0521574
0.0511189
0.0501052
0.0490901
0.0481044
0.0471463
0.0462143
0.0453233
0.0445052
0.0437791
0.0431454
0.0426043
0.0421546
0.0417906
0.0415068
0.0413332
0.0412163
0.0411676
0.0572999
0.056436
0.0555286
0.0545741
0.0535605
0.0525227
0.0514585
0.0503985
0.0493226
0.0482727
0.0472591
0.0462889
0.0453962
0.0446011
0.0439036
0.0433037
0.0428007
0.0423926
0.0420761
0.0418432
0.0417061
0.041641
0.0579174
0.0571424
0.0563201
0.0554503
0.0545325
0.0535628
0.052556
0.0515218
0.0504753
0.0493932
0.0483171
0.0472821
0.0463215
0.0454587
0.0446947
0.0440298
0.0434636
0.0429947
0.0426208
0.0423381
0.0421435
0.0420321
0.0581677
0.0575048
0.05679
0.0560221
0.0552004
0.0543247
0.0533956
0.0524085
0.0513961
0.0503671
0.0493082
0.048246
0.0472395
0.0463216
0.0454965
0.0447673
0.0441351
0.0435997
0.0431596
0.0428121
0.0425535
0.0423802
0.0580724
0.0575331
0.0569395
0.0562894
0.0555811
0.0548136
0.0539865
0.0531003
0.0521518
0.0511634
0.0501488
0.0491158
0.0481043
0.0471574
0.0462882
0.0455044
0.0448107
0.0442095
0.0437011
0.0432841
0.0429558
0.0427136
0.0576707
0.0572588
0.0567917
0.056267
0.0556821
0.0550347
0.0543233
0.0535472
0.0527066
0.0518018
0.0508436
0.0498578
0.0488785
0.0479349
0.0470473
0.0462278
0.0454853
0.044826
0.044253
0.0437673
0.043368
0.0430539
0.0570333
0.0567433
0.0563996
0.055999
0.0555382
0.0550143
0.0544245
0.0537667
0.0530399
0.0522441
0.0513811
0.0504635
0.0495356
0.0486272
0.0477497
0.0469189
0.0461474
0.0454449
0.0448178
0.0442702
0.0438034
0.0434187
0.0562381
0.0560592
0.0558294
0.0555452
0.0552026
0.054798
0.054328
0.0537894
0.0531796
0.0524969
0.0517413
0.0509208
0.0500661
0.0492124
0.0483727
0.0475582
0.0467798
0.046054
0.0453894
0.0447926
0.0442678
0.0438185
0.0553634
0.0552812
0.055152
0.0549719
0.0547366
0.0544419
0.0540838
0.0536585
0.0531624
0.0525924
0.0519464
0.051229
0.050465
0.0496835
0.0488974
0.0481223
0.0473664
0.0466387
0.0459543
0.0453253
0.0447567
0.0442541
0.0544784
0.0544777
0.0544345
0.0543446
0.0542032
0.0540058
0.053748
0.0534255
0.0530341
0.0525699
0.0520295
0.0514146
0.0507448
0.0500448
0.0493259
0.0486004
0.0478823
0.0471806
0.0465009
0.045854
0.0452583
0.0447173
0.0536326
0.0537013
0.0537318
0.0537195
0.0536592
0.0535462
0.0533757
0.0531434
0.0528447
0.0524753
0.0520311
0.0515119
0.0509328
0.0503149
0.049668
0.0490024
0.0483289
0.0476601
0.0470068
0.0463705
0.0457583
0.0451946
0.0528459
0.0529786
0.0530764
0.0531341
0.0531463
0.053108
0.0530143
0.0528606
0.0526424
0.0523554
0.0519953
0.0515609
0.0510639
0.0505227
0.0499458
0.0493419
0.0487201
0.0480902
0.047463
0.0468509
0.0462507
0.0456734
0.00109623
0.000965755
0.00106961
0.000930697
0.00053029
0.000492977
0.023918
0.0200652
0.0159088
0.0118806
0.00956352
0.0106421
0.0538987
0.0499899
0.0461092
0.0434885
0.0436016
0.0471502
0.0475845
0.0474223
0.0469341
0.0465993
0.0464127
0.0473413
0.0434463
0.0444663
0.0450945
0.0451464
0.0452191
0.0448406
0.0355115
0.0366146
0.0375091
0.038159
0.0386303
0.038947
0.0292051
0.0292337
0.0294987
0.0298938
0.030346
0.0308098
0.0292578
0.0283382
0.0276995
0.027306
0.0271078
0.0270549
0.0345771
0.0330637
0.0317127
0.0305856
0.0296707
0.0289574
0.0388916
0.0374795
0.0361163
0.0348481
0.0337029
0.0327013
0.0405943
0.0394509
0.0383187
0.0372288
0.03621
0.0352886
0.0403877
0.0394851
0.0386075
0.0377787
0.0370214
0.0363581
0.0395286
0.0388562
0.0382418
0.0377006
0.0372491
0.0369039
0.0388397
0.0384243
0.0380862
0.0378403
0.0376988
0.0376707
0.0387992
0.0386069
0.0385075
0.0385096
0.0386187
0.0388371
0.0392513
0.0392404
0.0393258
0.0395121
0.0397989
0.0401819
0.0399029
0.0400214
0.0402321
0.0405345
0.0409257
0.0414186
0.0406082
0.0407918
0.0410606
0.041412
0.0418409
0.0423603
0.0412127
0.0414093
0.0416859
0.042039
0.0424626
0.0429338
0.0416647
0.0418379
0.042086
0.0424013
0.0427828
0.043211
0.0420182
0.0421292
0.0423131
0.042566
0.042882
0.0432553
0.0423053
0.0423381
0.0424427
0.0426156
0.0428513
0.0431455
0.0425666
0.0425145
0.042531
0.0426137
0.042758
0.0429601
0.0428322
0.0426952
0.0426224
0.0426128
0.0426622
0.0427677
0.0431241
0.0429069
0.0427494
0.0426513
0.0426094
0.0426219
0.0434569
0.043168
0.0429341
0.0427555
0.04263
0.0425565
0.0438359
0.0434871
0.0431881
0.0429398
0.0427408
0.042591
0.0442564
0.0438619
0.0435114
0.0432064
0.0429465
0.0427321
0.0447065
0.0442816
0.0438948
0.0435478
0.0432411
0.0429759
0.0451726
0.0447323
0.0443241
0.0439497
0.0436101
0.0433067
0.00060949
0.00100979
0.0018611
0.00252334
0.00289574
0.00297995
0.00290932
0.00262132
0.00207271
0.00144907
0.00100611
0.00079716
0.000720201
0.000705517
0.000733609
0.000821757
0.00097305
0.00114399
0.00132074
0.00150491
0.00172926
0.00204448
0.0132889
0.0150073
0.0159933
0.0169518
0.0171797
0.016918
0.0161036
0.0145624
0.0129219
0.0109436
0.00892847
0.00802772
0.00836077
0.00995364
0.0117697
0.0143325
0.017077
0.0198019
0.0225859
0.0254572
0.0281282
0.0304442
0.0517775
0.0558411
0.0589928
0.0607066
0.0609225
0.0597568
0.0578842
0.056424
0.056107
0.0560833
0.0552186
0.0529413
0.0494568
0.0454942
0.0421491
0.0406827
0.0412228
0.0430062
0.0448692
0.0461176
0.0468503
0.0472921
0.0482784
0.048824
0.049199
0.0494784
0.0499248
0.0508352
0.0522807
0.0537559
0.054417
0.0536032
0.051358
0.0485721
0.0464919
0.0455684
0.0453579
0.0452465
0.0450369
0.0447258
0.0443783
0.0439972
0.0435773
0.043099
0.0446099
0.0445816
0.0448143
0.0453515
0.0462194
0.0474008
0.0488013
0.0502625
0.051592
0.0525983
0.0534504
0.0539698
0.0541936
0.0542581
0.0541199
0.0537381
0.0531092
0.0522242
0.0511869
0.0500846
0.0489657
0.0478463
0.0391057
0.0392182
0.0394267
0.0397604
0.040228
0.0408377
0.0416275
0.0426855
0.044048
0.0454899
0.0465422
0.0473319
0.0478507
0.047959
0.047932
0.0478551
0.0477835
0.0477372
0.0476986
0.0476292
0.0474916
0.0472453
0.0311326
0.0313226
0.03155
0.0318319
0.0321909
0.0326538
0.033238
0.0338842
0.0345616
0.0355667
0.0368903
0.0383364
0.0397525
0.0411664
0.0423136
0.0432017
0.0439076
0.0444662
0.0449065
0.0452464
0.0454964
0.0456713
0.02712
0.027172
0.0272895
0.0274638
0.0277043
0.0280208
0.0284192
0.0288957
0.029446
0.0301035
0.0308805
0.0316848
0.0324767
0.033422
0.0345782
0.0357872
0.0369567
0.038027
0.0389998
0.0398287
0.0405216
0.0410939
0.0285931
0.0284136
0.0283126
0.0282933
0.0283668
0.0285371
0.0288426
0.0292978
0.0299235
0.0307506
0.0318029
0.0330159
0.0343114
0.0356186
0.0368822
0.0380472
0.0390676
0.0400259
0.040921
0.0417521
0.0424878
0.0431564
0.0320615
0.0316581
0.0313419
0.0311267
0.03103
0.0310728
0.0312886
0.0317115
0.0323691
0.0332633
0.0343542
0.0355845
0.0368798
0.0381679
0.039408
0.0405649
0.0416269
0.0425992
0.0434787
0.0442432
0.0449571
0.0456519
0.0346269
0.0341885
0.0338582
0.0336597
0.033618
0.0337575
0.0340991
0.0346445
0.0353693
0.036269
0.0373351
0.0385463
0.0398471
0.0411597
0.042434
0.0436369
0.0447539
0.0457979
0.0468041
0.0478017
0.0488108
0.049841
0.0358888
0.0356213
0.0354886
0.0355106
0.0357019
0.0360659
0.0366009
0.0373036
0.0381856
0.0392433
0.0404983
0.0418492
0.043148
0.0443244
0.0454381
0.0465193
0.0476145
0.048745
0.0499016
0.0510799
0.0522747
0.0534784
0.0367259
0.036737
0.0368902
0.0371909
0.0376367
0.0382321
0.0390041
0.039957
0.0411037
0.042358
0.0436477
0.0448784
0.0461151
0.0473654
0.0486283
0.0499054
0.0511955
0.0524893
0.0537707
0.0550242
0.0562349
0.0573893
0.0377946
0.0380978
0.0385322
0.0390962
0.0398131
0.0406884
0.0417182
0.0428235
0.0439795
0.0451113
0.0462932
0.0475664
0.0488815
0.0501912
0.0514833
0.0527479
0.0539735
0.0551474
0.056256
0.0572869
0.0582294
0.0590756
0.0391915
0.0397162
0.0403602
0.0411294
0.0420212
0.042985
0.0439925
0.0450108
0.0460822
0.0472439
0.0484699
0.0497423
0.0510107
0.0522363
0.0534069
0.0545097
0.0555326
0.0564646
0.0572971
0.0580247
0.0586456
0.0591613
0.0406749
0.0413149
0.0420365
0.042841
0.043708
0.0446087
0.0455725
0.0465918
0.0476544
0.0487554
0.0498845
0.0510202
0.0521147
0.0531332
0.0540644
0.054899
0.0556305
0.0562555
0.0567748
0.0571921
0.0575145
0.0577508
0.041965
0.04262
0.0433353
0.044093
0.0449133
0.0457737
0.0466707
0.0475967
0.0485434
0.0495004
0.0504548
0.0513829
0.0522418
0.0530049
0.0536666
0.0542248
0.054681
0.0550401
0.0553098
0.0554998
0.0556211
0.055685
0.0428874
0.0435116
0.0441773
0.0448798
0.045615
0.0463751
0.0471529
0.0479397
0.0487254
0.0494975
0.0502414
0.0509353
0.051546
0.052058
0.0524729
0.0527958
0.0530344
0.0531988
0.0533001
0.0533502
0.0533609
0.0533431
0.0434395
0.0439988
0.0445841
0.0451914
0.0458151
0.0464482
0.0470829
0.0477096
0.0483176
0.0488948
0.0494281
0.0499008
0.0502915
0.0505957
0.0508206
0.0509762
0.0510737
0.0511252
0.0511428
0.0511381
0.0511216
0.0511023
0.0436759
0.0441408
0.0446213
0.0451131
0.04561
0.0461045
0.0465886
0.0470531
0.0474885
0.0478848
0.0482327
0.0485219
0.0487424
0.0488976
0.0489983
0.0490566
0.0490848
0.0490949
0.049098
0.049104
0.0491212
0.0491559
0.0436515
0.0440111
0.0443796
0.0447516
0.0451207
0.0454797
0.0458213
0.046138
0.0464226
0.0466686
0.046871
0.0470261
0.0471324
0.0471985
0.0472366
0.0472589
0.0472773
0.0473023
0.0473433
0.0474076
0.0475008
0.0476262
0.0434474
0.0437068
0.0439683
0.0442275
0.0444786
0.0447159
0.0449339
0.0451274
0.0452922
0.0454254
0.0455265
0.0455967
0.045641
0.0456702
0.0456963
0.0457306
0.0457834
0.0458633
0.045977
0.0461291
0.0463211
0.0465539
0.0431666
0.0433324
0.0434963
0.043655
0.0438043
0.0439402
0.044059
0.0441584
0.0442369
0.0442951
0.044336
0.044365
0.0443909
0.0444246
0.0444771
0.0445583
0.0446762
0.0448372
0.0450448
0.0453
0.0455956
0.045939
0.0428863
0.0429697
0.0430499
0.0431252
0.0431928
0.0432504
0.0432966
0.0433312
0.0433555
0.0433727
0.0433888
0.0434123
0.0434536
0.0435227
0.043629
0.0437802
0.0439819
0.0442365
0.0445432
0.0448903
0.0452975
0.0457514
0.0426606
0.0426767
0.0426907
0.0427023
0.0427099
0.042713
0.0427121
0.042709
0.0427072
0.0427122
0.0427323
0.0427781
0.0428603
0.0429868
0.0431646
0.0433985
0.0436905
0.0440357
0.0444245
0.0448737
0.0453676
0.0458981
0.0425261
0.042492
0.0424583
0.0424258
0.0423944
0.0423653
0.0423404
0.0423234
0.0423194
0.0423362
0.0423834
0.0424728
0.0426136
0.0428103
0.0430667
0.0433824
0.0437548
0.0441661
0.044636
0.0451584
0.0457214
0.0463149
0.0425044
0.0424364
0.0423724
0.0423144
0.0422637
0.0422226
0.0421945
0.0421844
0.0421989
0.0422469
0.0423381
0.0424824
0.0426858
0.0429478
0.043268
0.043651
0.0440877
0.0445756
0.0451225
0.0457064
0.0463164
0.0469426
0.0426025
0.0425163
0.042439
0.0423735
0.0423224
0.0422879
0.0422734
0.0422841
0.0423263
0.0424064
0.0425354
0.0427279
0.0429899
0.0433205
0.0437208
0.0441832
0.0446894
0.0452416
0.0458342
0.0464522
0.0470859
0.047726
0.0428181
0.0427285
0.0426519
0.0425901
0.0425434
0.0425164
0.0425155
0.0425478
0.0426218
0.0427493
0.0429428
0.0432106
0.0435525
0.0439602
0.0444271
0.0449456
0.0455
0.0460889
0.0467049
0.0473339
0.0479666
0.0485952
0.043129
0.0430395
0.0429664
0.0429136
0.0428858
0.0428876
0.0429245
0.0430036
0.0431337
0.043324
0.043584
0.0439214
0.0443309
0.0447993
0.0453178
0.0458758
0.0464622
0.0470641
0.0476801
0.0482954
0.048902
0.0494932
0.00240664
0.00272744
0.00313425
0.00367493
0.0044009
0.0053844
0.0067203
0.00852787
0.0109515
0.0141665
0.0184179
0.0223962
0.0253441
0.0276514
0.0304829
0.0336139
0.0365847
0.0392363
0.0415241
0.0427685
0.0430196
0.0422128
0.0377746
0.0327116
0.0275141
0.0227634
0.0188869
0.0156312
0.0128611
0.010402
0.00812768
0.00587838
0.00343292
0.000995655
0.000502071
0.0320494
0.0331989
0.0344029
0.0357031
0.0371268
0.0386875
0.0403858
0.042205
0.0441009
0.0459838
0.0476863
0.0495182
0.0517808
0.05452
0.0575463
0.060712
0.0634038
0.0654761
0.0673554
0.068602
0.0690398
0.0696153
0.0711201
0.0730828
0.0744957
0.0736796
0.0726455
0.0706805
0.0663328
0.059
0.0477952
0.0340403
0.0198874
0.00764811
0.000909042
0.0475498
0.0477696
0.0480407
0.0483569
0.0487151
0.0491139
0.0495475
0.0500009
0.0504525
0.0508787
0.0512484
0.051517
0.0515884
0.0515267
0.0512809
0.050878
0.0508917
0.0516895
0.0532019
0.0547206
0.0562164
0.0595288
0.0647572
0.070707
0.0744678
0.0749492
0.0721683
0.0668594
0.0596176
0.0508823
0.0409728
0.0301549
0.0188398
0.00802957
0.000847361
0.0426566
0.0422965
0.0418892
0.0414324
0.0409266
0.0403887
0.0398239
0.0392282
0.0385648
0.0377556
0.0362445
0.03506
0.0335938
0.0331402
0.0342301
0.036824
0.039173
0.0410927
0.0425028
0.043948
0.0455296
0.0472682
0.0490056
0.0501124
0.0505379
0.0494787
0.0478196
0.0445309
0.0397104
0.0337852
0.02709
0.0198664
0.0124067
0.00525783
0.0007291
0.0468958
0.0460742
0.0451322
0.0440549
0.042834
0.0414843
0.0400418
0.0385861
0.0372336
0.0360445
0.0350575
0.0327392
0.0295612
0.0270771
0.0236473
0.0226016
0.0241514
0.0262466
0.0285841
0.0310577
0.0335347
0.0360809
0.0384046
0.0397108
0.0396866
0.0384922
0.0363535
0.0329546
0.0288216
0.0242358
0.0193617
0.0143481
0.00930517
0.00433222
0.000514378
0.0468875
0.0465007
0.0459429
0.0451819
0.044197
0.0430295
0.041747
0.0404195
0.0391346
0.0378903
0.0366304
0.0353029
0.0334353
0.0307323
0.0282328
0.0260916
0.0230853
0.0197755
0.0171789
0.015506
0.014363
0.0135281
0.0128729
0.0123077
0.0117988
0.0112057
0.0105447
0.00968501
0.00841611
0.00699019
0.00550947
0.00401058
0.00252717
0.00110902
0.000251611
0.0457887
0.0458929
0.0459764
0.0460389
0.0460777
0.0460155
0.0457818
0.0452831
0.04442
0.0431649
0.0416859
0.0405058
0.0405224
0.0416221
0.0425746
0.0418944
0.0394244
0.0360985
0.0327706
0.0298027
0.0269315
0.0239314
0.0209406
0.0182192
0.0157048
0.0133961
0.0113034
0.00941726
0.00771306
0.00617716
0.00479064
0.00346522
0.00212073
0.000830853
0.00018229
0.0414782
0.0417598
0.0420031
0.0421824
0.0422682
0.0422969
0.0422823
0.042274
0.0423753
0.042777
0.04375
0.0454976
0.0479131
0.0506608
0.0528747
0.0537197
0.0532666
0.0519066
0.049651
0.0464667
0.0425853
0.0381771
0.0336456
0.029444
0.0255056
0.0218934
0.0185398
0.015426
0.012526
0.00981596
0.0072879
0.00498372
0.00293861
0.0012148
0.00015911
0.0436282
0.0439745
0.0443498
0.0447662
0.0452328
0.0457572
0.0463577
0.0470718
0.0479643
0.049128
0.0506701
0.0526471
0.0549084
0.0568778
0.0581201
0.0584697
0.058004
0.0567727
0.0548777
0.0524165
0.0494302
0.0457959
0.0416231
0.0373449
0.0329938
0.0286763
0.0244604
0.0203953
0.0165339
0.0129138
0.00955947
0.00648384
0.00372452
0.00143156
0.000211206
0.0461648
0.0465438
0.0469871
0.0475016
0.0481092
0.0488527
0.0497843
0.0509594
0.0524246
0.054189
0.0561687
0.058167
0.0600265
0.0616931
0.0627993
0.0628735
0.0620212
0.060481
0.0583726
0.055785
0.0527043
0.048994
0.0447496
0.0403596
0.0358695
0.0313278
0.026843
0.0224719
0.0182805
0.0143316
0.0106694
0.00732867
0.00434867
0.00182047
0.000185731
0.0506251
0.0511976
0.0518501
0.0525947
0.0534444
0.0544104
0.0554962
0.0567023
0.0580302
0.0594631
0.0609528
0.0624165
0.0636709
0.0644812
0.0646455
0.0640591
0.0629134
0.0613268
0.0593699
0.0570308
0.0542375
0.0507835
0.0466989
0.0423398
0.0377604
0.0330485
0.0283358
0.0237108
0.0192616
0.0150501
0.0111295
0.0075476