/*--------------------------------*- C++ -*----------------------------------*\
  =========                 |
  \\      /  F ield         | OpenFOAM: The Open Source CFD Toolbox
   \\    /   O peration     | Website:  https://openfoam.org
    \\  /    A nd           | Version:  8
     \\/     M anipulation  |
\*---------------------------------------------------------------------------*/
FoamFile
{
    version     2.0;
    format      ascii;
    class       volScalarField;
    location    "0.44";
    object      T;
}
// * * * * * * * * * * * * * * * * * * * * * * * * * * * * * * * * * * * * * //

dimensions      [0 0 0 1 0 0 0];

internalField   nonuniform List<scalar> 
15677
(
298.07
298.052
298.119
298.189
298.265
298.35
298.445
298.547
298.652
298.754
298.847
298.93
298.993
299.017
298.987
298.923
298.863
298.826
298.804
298.787
298.771
298.745
298.706
298.673
298.64
298.604
298.568
298.529
298.49
298.45
298.413
298.377
298.343
298.308
298.272
298.165
298.196
298.209
298.235
298.275
298.33
298.399
298.483
298.582
298.705
298.881
299.138
299.452
299.626
299.622
299.497
299.309
299.112
298.945
298.824
298.743
298.692
298.662
298.641
298.622
298.602
298.579
298.554
298.526
298.497
298.468
298.441
298.417
298.397
298.38
300.039
300.013
299.99
299.969
299.944
299.915
299.878
299.828
299.758
299.666
299.561
299.455
299.318
299.095
298.821
298.667
298.614
298.621
298.681
298.762
298.859
298.962
299.069
299.172
299.267
299.353
299.429
299.494
299.548
299.59
299.622
299.643
299.655
299.66
299.659
299.548
299.508
299.496
299.486
299.477
299.467
299.457
299.445
299.433
299.417
299.392
299.343
299.309
299.284
299.288
299.316
299.365
299.453
299.617
299.789
299.914
299.979
299.991
299.979
299.953
299.92
299.887
299.856
299.826
299.798
299.771
299.746
299.722
299.699
299.676
300.545
300.514
300.476
300.433
300.383
300.326
300.262
300.189
300.108
300.021
299.932
299.844
299.764
299.71
299.656
299.586
299.508
299.454
299.445
299.454
299.475
299.508
299.521
299.523
299.517
299.51
299.505
299.505
299.511
299.522
299.537
299.554
299.57
299.586
299.599
300.378
300.365
300.34
300.31
300.277
300.24
300.201
300.161
300.119
300.08
300.041
300.008
299.975
299.943
299.918
299.909
299.911
299.93
299.951
299.972
299.988
299.999
300.004
300.004
300.001
299.995
299.982
299.965
299.948
299.933
299.922
299.915
299.912
299.914
299.918
300.029
300.024
300.023
300.026
300.032
300.04
300.051
300.058
300.06
300.058
300.052
300.044
300.035
300.023
300.01
299.998
299.986
299.974
299.964
299.957
299.952
299.948
299.945
299.944
299.944
299.947
299.955
299.966
299.979
299.993
300.007
300.019
300.029
300.038
300.045
300.068
300.08
300.092
300.108
300.126
300.15
300.179
300.205
300.22
300.225
300.221
300.214
300.203
300.189
300.174
300.16
300.145
300.13
300.116
300.101
300.086
300.071
300.056
300.041
300.028
300.016
300.008
300.003
300.001
300.001
300.002
300.004
300.006
300.007
300.008
300.302
300.272
300.227
300.179
300.137
300.108
300.091
300.083
300.081
300.083
300.087
300.091
300.094
300.095
300.094
300.091
300.086
300.079
300.072
300.063
300.053
300.044
300.036
300.029
300.024
300.02
300.018
300.015
300.014
300.013
300.013
300.013
300.013
300.013
300.014
300.243
300.243
300.241
300.237
300.232
300.226
300.219
300.212
300.204
300.196
300.188
300.179
300.169
300.159
300.149
300.139
300.128
300.117
300.106
300.093
300.08
300.067
300.054
300.043
300.033
300.026
300.02
300.015
300.012
300.009
300.006
300.004
300.002
300
299.999
300.131
300.131
300.132
300.133
300.134
300.135
300.136
300.136
300.136
300.136
300.134
300.132
300.129
300.124
300.118
300.112
300.104
300.096
300.086
300.076
300.065
300.053
300.043
300.035
300.028
300.023
300.019
300.016
300.014
300.013
300.012
300.011
300.01
300.01
300.009
300.206
300.203
300.199
300.195
300.192
300.188
300.184
300.18
300.175
300.171
300.165
300.16
300.153
300.145
300.137
300.129
300.121
300.111
300.102
300.092
300.081
300.071
300.062
300.055
300.049
300.044
300.041
300.038
300.035
300.033
300.032
300.031
300.03
300.029
300.028
300.151
300.151
300.151
300.151
300.152
300.152
300.152
300.151
300.151
300.149
300.148
300.145
300.141
300.136
300.13
300.124
300.117
300.109
300.101
300.093
300.084
300.076
300.069
300.063
300.059
300.057
300.055
300.055
300.055
300.056
300.056
300.057
300.058
300.059
300.059
300.188
300.185
300.183
300.181
300.178
300.176
300.174
300.171
300.169
300.166
300.163
300.159
300.155
300.15
300.144
300.138
300.131
300.124
300.116
300.108
300.1
300.092
300.086
300.081
300.077
300.075
300.073
300.073
300.073
300.073
300.074
300.075
300.076
300.077
300.078
300.17
300.169
300.169
300.168
300.168
300.167
300.167
300.166
300.165
300.163
300.161
300.159
300.156
300.152
300.148
300.143
300.138
300.131
300.125
300.118
300.111
300.104
300.099
300.095
300.092
300.091
300.091
300.092
300.093
300.095
300.097
300.099
300.101
300.103
300.105
300.188
300.186
300.185
300.183
300.182
300.181
300.18
300.178
300.177
300.175
300.173
300.17
300.167
300.163
300.159
300.154
300.148
300.143
300.137
300.13
300.124
300.118
300.113
300.109
300.106
300.105
300.105
300.105
300.106
300.108
300.11
300.112
300.115
300.118
300.12
300.185
300.184
300.183
300.183
300.182
300.182
300.181
300.18
300.18
300.178
300.177
300.175
300.173
300.17
300.166
300.162
300.157
300.152
300.147
300.141
300.135
300.13
300.125
300.122
300.119
300.118
300.118
300.118
300.119
300.121
300.123
300.125
300.128
300.13
300.133
300.196
300.194
300.193
300.192
300.191
300.19
300.189
300.188
300.186
300.185
300.183
300.181
300.179
300.176
300.173
300.17
300.166
300.161
300.157
300.151
300.146
300.141
300.136
300.133
300.13
300.129
300.128
300.128
300.129
300.13
300.131
300.133
300.135
300.138
300.14
300.197
300.196
300.195
300.195
300.194
300.193
300.193
300.192
300.191
300.19
300.189
300.187
300.186
300.183
300.181
300.178
300.174
300.17
300.166
300.161
300.156
300.151
300.146
300.143
300.14
300.138
300.137
300.137
300.137
300.137
300.139
300.14
300.142
300.143
300.145
300.203
300.202
300.201
300.2
300.199
300.198
300.198
300.197
300.196
300.195
300.194
300.193
300.191
300.19
300.187
300.185
300.182
300.178
300.174
300.17
300.165
300.16
300.156
300.152
300.149
300.146
300.145
300.144
300.143
300.143
300.144
300.145
300.146
300.147
300.148
300.208
300.206
300.205
300.205
300.204
300.203
300.203
300.202
300.201
300.2
300.199
300.198
300.197
300.196
300.194
300.192
300.189
300.186
300.182
300.178
300.173
300.168
300.164
300.16
300.157
300.154
300.152
300.151
300.15
300.149
300.149
300.149
300.15
300.15
300.151
300.212
300.21
300.21
300.209
300.208
300.208
300.207
300.206
300.206
300.205
300.204
300.203
300.202
300.201
300.2
300.198
300.196
300.193
300.19
300.186
300.181
300.176
300.172
300.168
300.165
300.162
300.159
300.157
300.156
300.155
300.154
300.154
300.154
300.154
300.154
300.217
300.215
300.214
300.214
300.213
300.212
300.212
300.211
300.21
300.21
300.209
300.208
300.207
300.207
300.205
300.204
300.202
300.2
300.197
300.193
300.189
300.184
300.18
300.176
300.172
300.169
300.166
300.164
300.163
300.161
300.16
300.16
300.159
300.159
300.159
300.22
300.219
300.218
300.218
300.217
300.216
300.216
300.215
300.215
300.214
300.214
300.213
300.212
300.212
300.211
300.21
300.209
300.207
300.204
300.201
300.197
300.192
300.188
300.184
300.18
300.177
300.174
300.172
300.17
300.168
300.167
300.166
300.165
300.165
300.164
300.225
300.224
300.223
300.222
300.221
300.221
300.22
300.22
300.219
300.219
300.218
300.218
300.217
300.217
300.216
300.216
300.215
300.213
300.211
300.208
300.204
300.2
300.195
300.191
300.188
300.184
300.182
300.179
300.177
300.175
300.174
300.173
300.172
300.171
300.17
300.229
300.228
300.227
300.226
300.226
300.225
300.224
300.224
300.223
300.223
300.222
300.222
300.222
300.221
300.221
300.221
300.22
300.219
300.218
300.215
300.211
300.207
300.203
300.199
300.196
300.192
300.189
300.187
300.185
300.183
300.181
300.18
300.179
300.178
300.177
300.233
300.232
300.231
300.23
300.23
300.229
300.229
300.228
300.227
300.227
300.227
300.226
300.226
300.226
300.226
300.226
300.226
300.225
300.224
300.222
300.219
300.215
300.211
300.207
300.204
300.2
300.197
300.195
300.192
300.191
300.189
300.187
300.186
300.185
300.184
300.237
300.236
300.235
300.234
300.234
300.233
300.233
300.232
300.231
300.231
300.231
300.23
300.23
300.23
300.231
300.231
300.231
300.231
300.23
300.229
300.226
300.222
300.219
300.215
300.211
300.208
300.205
300.203
300.2
300.198
300.197
300.195
300.194
300.193
300.192
300.241
300.24
300.239
300.238
300.238
300.237
300.236
300.236
300.235
300.235
300.234
300.234
300.234
300.235
300.235
300.236
300.236
300.237
300.236
300.235
300.233
300.23
300.226
300.223
300.219
300.216
300.213
300.211
300.208
300.206
300.205
300.203
300.202
300.201
300.2
300.245
300.244
300.243
300.242
300.242
300.241
300.24
300.24
300.239
300.239
300.238
300.238
300.238
300.239
300.239
300.24
300.241
300.242
300.242
300.241
300.239
300.237
300.233
300.23
300.227
300.224
300.221
300.218
300.216
300.214
300.213
300.211
300.21
300.209
300.208
298.223
298.166
298.116
298.079
298.062
298.063
298.083
298.128
298.209
298.311
298.412
298.514
298.621
298.732
298.837
298.889
298.865
298.77
298.641
298.503
298.332
298.128
298.356
298.319
298.278
298.238
298.207
298.204
298.232
298.334
298.552
298.824
299.11
299.383
299.62
299.802
299.904
299.902
299.809
299.612
299.386
299.174
298.977
298.775
299.648
299.616
299.565
299.493
299.397
299.277
299.135
298.982
298.831
298.706
298.63
298.616
298.669
298.805
298.996
299.166
299.28
299.377
299.48
299.603
299.741
299.868
299.644
299.593
299.53
299.457
299.379
299.303
299.23
299.163
299.111
299.08
299.071
299.08
299.119
299.188
299.243
299.246
299.198
299.165
299.18
299.218
299.258
299.297
299.612
299.625
299.635
299.644
299.655
299.673
299.7
299.732
299.763
299.786
299.805
299.824
299.84
299.849
299.842
299.83
299.843
299.879
299.914
299.961
300.016
300.074
299.923
299.928
299.93
299.924
299.902
299.869
299.83
299.791
299.752
299.713
299.676
299.641
299.607
299.572
299.536
299.504
299.481
299.472
299.479
299.501
299.537
299.581
300.053
300.061
300.068
300.074
300.081
300.084
300.08
300.067
300.047
300.026
300.004
299.982
299.96
299.939
299.916
299.893
299.87
299.85
299.836
299.828
299.829
299.837
300.009
300.009
300.01
300.01
300.009
300.007
300.003
299.997
299.988
299.976
299.962
299.946
299.929
299.911
299.893
299.874
299.855
299.836
299.818
299.802
299.79
299.781
300.015
300.017
300.018
300.02
300.021
300.023
300.023
300.023
300.021
300.018
300.014
300.008
300
299.992
299.983
299.973
299.962
299.95
299.938
299.927
299.917
299.908
299.998
299.997
299.997
299.997
299.997
299.998
299.998
299.998
299.997
299.996
299.994
299.991
299.987
299.982
299.977
299.971
299.964
299.957
299.949
299.94
299.932
299.924
300.009
300.008
300.009
300.009
300.01
300.011
300.012
300.014
300.015
300.015
300.015
300.014
300.013
300.01
300.007
300.004
300
299.995
299.991
299.986
299.98
299.975
300.027
300.025
300.024
300.023
300.022
300.021
300.02
300.02
300.019
300.018
300.017
300.016
300.014
300.012
300.009
300.005
300.001
299.997
299.993
299.988
299.984
299.979
300.059
300.058
300.057
300.056
300.055
300.053
300.051
300.048
300.046
300.043
300.039
300.036
300.032
300.027
300.023
300.018
300.013
300.008
300.003
299.999
299.994
299.989
300.079
300.079
300.078
300.077
300.076
300.075
300.073
300.071
300.068
300.065
300.062
300.058
300.053
300.048
300.043
300.038
300.032
300.026
300.021
300.015
300.01
300.005
300.107
300.108
300.109
300.11
300.11
300.11
300.109
300.108
300.106
300.103
300.099
300.095
300.089
300.083
300.077
300.07
300.063
300.056
300.049
300.043
300.036
300.03
300.123
300.125
300.128
300.13
300.132
300.133
300.134
300.133
300.132
300.13
300.127
300.122
300.117
300.111
300.104
300.097
300.09
300.082
300.074
300.067
300.059
300.052
300.136
300.139
300.142
300.145
300.148
300.15
300.152
300.153
300.153
300.151
300.149
300.144
300.139
300.132
300.125
300.117
300.109
300.102
300.094
300.086
300.079
300.072
300.142
300.146
300.149
300.153
300.156
300.16
300.163
300.165
300.167
300.167
300.165
300.162
300.157
300.152
300.145
300.137
300.129
300.121
300.112
300.103
300.094
300.085
300.147
300.15
300.154
300.157
300.161
300.166
300.17
300.173
300.176
300.178
300.178
300.176
300.173
300.167
300.16
300.152
300.144
300.134
300.125
300.115
300.106
300.096
300.15
300.152
300.155
300.158
300.162
300.166
300.17
300.174
300.178
300.182
300.184
300.184
300.182
300.178
300.173
300.166
300.158
300.148
300.139
300.129
300.119
300.109
300.152
300.153
300.155
300.158
300.161
300.165
300.169
300.173
300.178
300.182
300.185
300.187
300.188
300.186
300.183
300.177
300.171
300.163
300.154
300.144
300.134
300.124
300.155
300.155
300.156
300.158
300.16
300.163
300.167
300.171
300.176
300.18
300.185
300.188
300.19
300.191
300.19
300.187
300.182
300.175
300.168
300.159
300.15
300.14
300.158
300.158
300.158
300.159
300.16
300.162
300.165
300.169
300.173
300.178
300.182
300.187
300.19
300.193
300.193
300.193
300.19
300.186
300.181
300.174
300.166
300.157
300.163
300.162
300.161
300.161
300.162
300.163
300.165
300.168
300.171
300.175
300.18
300.185
300.189
300.192
300.195
300.196
300.196
300.194
300.19
300.186
300.18
300.172
300.169
300.167
300.166
300.165
300.165
300.165
300.166
300.168
300.17
300.174
300.178
300.182
300.187
300.191
300.195
300.197
300.198
300.199
300.197
300.195
300.191
300.185
300.176
300.173
300.171
300.17
300.169
300.168
300.168
300.169
300.171
300.173
300.177
300.181
300.185
300.189
300.193
300.197
300.199
300.201
300.202
300.201
300.199
300.196
300.183
300.18
300.177
300.175
300.174
300.173
300.172
300.172
300.173
300.174
300.177
300.18
300.184
300.188
300.192
300.196
300.199
300.202
300.204
300.205
300.204
300.203
300.19
300.187
300.184
300.182
300.18
300.178
300.177
300.176
300.176
300.177
300.178
300.181
300.184
300.188
300.192
300.195
300.199
300.202
300.205
300.207
300.208
300.208
300.198
300.195
300.191
300.189
300.186
300.184
300.182
300.181
300.18
300.181
300.181
300.183
300.185
300.188
300.192
300.195
300.199
300.202
300.205
300.208
300.21
300.211
300.206
300.202
300.199
300.196
300.193
300.191
300.188
300.187
300.186
300.185
300.185
300.186
300.188
300.19
300.193
300.196
300.199
300.202
300.206
300.208
300.211
300.213
297.893
297.587
297.193
296.799
296.453
296.433
298.548
298.297
298.016
297.763
297.584
297.595
299.979
300.052
300.09
300.119
300.171
300.174
299.335
299.369
299.387
299.403
299.406
299.405
300.136
300.187
300.21
300.205
300.175
300.132
299.629
299.672
299.699
299.707
299.698
299.677
299.857
299.884
299.912
299.934
299.948
299.953
299.777
299.778
299.783
299.789
299.795
299.798
299.903
299.901
299.903
299.906
299.91
299.915
299.918
299.913
299.911
299.91
299.911
299.913
299.97
299.966
299.962
299.959
299.958
299.958
299.975
299.971
299.968
299.967
299.966
299.967
299.986
299.983
299.981
299.981
299.981
299.981
300.002
299.999
299.997
299.995
299.994
299.992
300.025
300.021
300.017
300.013
300.01
300.008
300.045
300.041
300.037
300.033
300.028
300.024
300.066
300.06
300.052
300.044
300.037
300.03
300.077
300.068
300.059
300.05
300.042
300.035
300.087
300.077
300.068
300.06
300.051
300.044
300.099
300.09
300.08
300.072
300.063
300.056
300.114
300.105
300.096
300.087
300.079
300.071
300.131
300.122
300.113
300.105
300.097
300.09
300.149
300.141
300.133
300.125
300.117
300.11
300.165
300.159
300.152
300.145
300.139
300.132
300.18
300.175
300.17
300.164
300.159
300.153
300.192
300.189
300.185
300.181
300.177
300.172
300.201
300.2
300.197
300.195
300.192
300.188
300.207
300.207
300.207
300.205
300.204
300.202
300.212
300.213
300.213
300.213
300.213
300.212
300.215
300.216
300.218
300.219
300.219
300.219
296.667
297.066
297.451
297.77
298.022
298.216
298.36
298.458
298.522
298.557
298.555
298.53
298.51
298.49
298.469
298.461
298.476
298.505
298.536
298.572
298.603
298.628
297.759
297.942
298.121
298.287
298.438
298.578
298.704
298.802
298.816
298.746
298.65
298.6
298.575
298.549
298.529
298.528
298.544
298.571
298.601
298.629
298.655
298.671
300.15
300.133
300.113
300.085
300.04
299.967
299.854
299.697
299.532
299.398
299.323
299.313
299.365
299.455
299.555
299.645
299.711
299.754
299.779
299.79
299.79
299.783
299.413
299.434
299.47
299.509
299.532
299.523
299.468
299.378
299.284
299.201
299.154
299.141
299.147
299.171
299.205
299.249
299.301
299.357
299.414
299.472
299.529
299.582
300.097
300.075
300.065
300.061
300.058
300.047
300.024
299.987
299.952
299.931
299.917
299.899
299.875
299.844
299.807
299.767
299.728
299.692
299.662
299.638
299.62
299.607
299.655
299.635
299.62
299.61
299.605
299.602
299.601
299.6
299.602
299.608
299.618
299.631
299.644
299.656
299.668
299.679
299.69
299.701
299.711
299.719
299.725
299.732
299.951
299.949
299.947
299.945
299.945
299.947
299.951
299.956
299.963
299.97
299.976
299.981
299.983
299.984
299.982
299.98
299.978
299.974
299.969
299.964
299.96
299.955
299.799
299.799
299.799
299.798
299.798
299.8
299.803
299.807
299.812
299.818
299.825
299.832
299.84
299.847
299.853
299.859
299.864
299.868
299.873
299.877
299.881
299.885
299.92
299.926
299.931
299.936
299.942
299.947
299.954
299.962
299.972
299.981
299.991
300
300.007
300.012
300.014
300.016
300.016
300.016
300.016
300.016
300.017
300.019
299.915
299.918
299.922
299.925
299.929
299.933
299.938
299.943
299.947
299.95
299.953
299.954
299.954
299.953
299.951
299.949
299.948
299.948
299.949
299.952
299.955
299.959
299.96
299.964
299.967
299.971
299.976
299.98
299.983
299.985
299.987
299.988
299.989
299.988
299.988
299.987
299.987
299.988
299.989
299.992
299.996
300.001
300.007
300.013
299.968
299.971
299.973
299.976
299.978
299.979
299.98
299.98
299.979
299.978
299.977
299.976
299.976
299.976
299.977
299.979
299.982
299.986
299.991
299.996
300.001
300.007
299.982
299.984
299.985
299.986
299.988
299.989
299.991
299.992
299.992
299.992
299.991
299.992
299.992
299.994
299.996
299.999
300.003
300.008
300.013
300.018
300.024
300.029
299.991
299.991
299.991
299.992
299.993
299.993
299.993
299.992
299.991
299.99
299.99
299.991
299.992
299.995
299.998
300.003
300.007
300.012
300.018
300.022
300.027
300.032
300.008
300.008
300.008
300.006
300.003
299.999
299.995
299.993
299.992
299.991
299.991
299.993
299.996
299.999
300.004
300.008
300.013
300.018
300.023
300.028
300.033
300.037
300.019
300.015
300.011
300.007
300.003
300
299.997
299.995
299.995
299.995
299.996
299.999
300.003
300.007
300.011
300.016
300.021
300.026
300.03
300.035
300.04
300.045
300.024
300.019
300.015
300.011
300.007
300.004
300.003
300.002
300.002
300.003
300.006
300.009
300.013
300.017
300.021
300.026
300.031
300.036
300.041
300.046
300.051
300.056
300.029
300.025
300.021
300.017
300.015
300.013
300.013
300.013
300.014
300.015
300.018
300.022
300.026
300.03
300.035
300.04
300.045
300.051
300.056
300.061
300.067
300.072
300.038
300.034
300.031
300.029
300.027
300.026
300.026
300.027
300.029
300.031
300.034
300.038
300.043
300.048
300.053
300.059
300.064
300.07
300.076
300.082
300.087
300.093
300.05
300.048
300.045
300.044
300.043
300.043
300.043
300.045
300.047
300.05
300.054
300.059
300.064
300.069
300.075
300.081
300.087
300.093
300.099
300.105
300.111
300.117
300.066
300.064
300.063
300.062
300.062
300.063
300.064
300.067
300.07
300.073
300.078
300.083
300.088
300.094
300.101
300.107
300.113
300.119
300.125
300.131
300.136
300.142
300.085
300.084
300.084
300.084
300.085
300.086
300.088
300.091
300.095
300.099
300.104
300.109
300.115
300.121
300.128
300.134
300.139
300.145
300.151
300.156
300.162
300.167
300.107
300.106
300.107
300.108
300.109
300.111
300.114
300.117
300.121
300.126
300.131
300.137
300.142
300.148
300.154
300.16
300.165
300.171
300.176
300.181
300.185
300.189
300.129
300.129
300.13
300.132
300.134
300.137
300.14
300.143
300.148
300.152
300.157
300.163
300.168
300.174
300.179
300.184
300.189
300.194
300.198
300.201
300.205
300.208
300.151
300.152
300.153
300.155
300.158
300.161
300.164
300.168
300.172
300.176
300.181
300.186
300.191
300.196
300.201
300.205
300.209
300.213
300.216
300.219
300.221
300.223
300.171
300.172
300.174
300.176
300.179
300.182
300.185
300.189
300.193
300.197
300.202
300.206
300.21
300.214
300.218
300.222
300.225
300.228
300.23
300.232
300.234
300.235
300.188
300.189
300.192
300.194
300.197
300.2
300.203
300.207
300.211
300.214
300.218
300.222
300.226
300.229
300.232
300.235
300.237
300.239
300.241
300.242
300.243
300.244
300.201
300.204
300.206
300.209
300.211
300.214
300.218
300.221
300.224
300.228
300.231
300.235
300.238
300.241
300.243
300.245
300.247
300.248
300.249
300.25
300.25
300.25
300.212
300.215
300.217
300.22
300.223
300.226
300.229
300.232
300.235
300.238
300.241
300.244
300.247
300.249
300.251
300.253
300.254
300.255
300.256
300.256
300.256
300.255
300.221
300.223
300.226
300.228
300.231
300.234
300.237
300.24
300.243
300.246
300.249
300.252
300.254
300.256
300.258
300.259
300.26
300.26
300.26
300.26
300.26
300.259
298.649
298.655
298.657
298.658
298.66
298.665
298.676
298.693
298.717
298.746
298.78
298.818
298.856
298.882
298.891
298.883
298.886
298.902
298.941
298.99
299.02
299.01
298.963
298.903
298.841
298.777
298.709
298.639
298.57
298.505
298.445
298.391
298.341
298.291
298.257
298.675
298.676
298.677
298.678
298.679
298.681
298.682
298.684
298.686
298.692
298.701
298.718
298.75
298.811
298.899
299.017
299.158
299.319
299.48
299.604
299.651
299.573
299.31
298.97
298.704
298.53
298.414
298.329
298.263
298.211
298.17
298.139
298.116
298.106
298.105
299.77
299.753
299.732
299.705
299.671
299.629
299.578
299.516
299.442
299.353
299.25
299.133
299.01
298.9
298.812
298.747
298.707
298.699
298.716
298.773
298.897
299.085
299.243
299.358
299.471
299.594
299.703
299.784
299.843
299.887
299.923
299.954
299.984
300.016
300.045
299.621
299.65
299.678
299.706
299.734
299.761
299.786
299.808
299.826
299.84
299.849
299.853
299.852
299.835
299.799
299.739
299.66
299.567
299.477
299.402
299.337
299.316
299.325
299.356
299.399
299.427
299.449
299.47
299.491
299.509
299.525
299.541
299.557
299.578
299.626
299.599
299.593
299.589
299.586
299.584
299.582
299.58
299.578
299.576
299.575
299.575
299.576
299.575
299.569
299.556
299.542
299.533
299.532
299.54
299.56
299.588
299.632
299.697
299.777
299.866
299.957
300.047
300.132
300.209
300.276
300.334
300.386
300.43
300.469
300.503
299.737
299.74
299.744
299.749
299.755
299.764
299.777
299.794
299.816
299.846
299.881
299.92
299.954
299.981
299.998
300.006
300.008
300.008
300.005
300.004
300.005
300.007
300.029
300.052
300.081
300.11
300.143
300.177
300.209
300.239
300.267
300.293
300.315
300.337
300.356
299.95
299.945
299.938
299.931
299.923
299.914
299.905
299.897
299.893
299.895
299.905
299.921
299.941
299.957
299.968
299.974
299.978
299.982
299.986
299.99
299.995
300.002
300.009
300.017
300.025
300.031
300.037
300.042
300.046
300.048
300.049
300.049
300.048
300.047
300.048
299.888
299.89
299.892
299.896
299.9
299.905
299.912
299.922
299.936
299.954
299.978
300.002
300.023
300.04
300.055
300.068
300.081
300.094
300.107
300.12
300.134
300.147
300.16
300.172
300.182
300.19
300.198
300.205
300.211
300.216
300.221
300.225
300.229
300.232
300.232
300.02
300.021
300.022
300.024
300.027
300.031
300.037
300.044
300.053
300.061
300.068
300.073
300.078
300.083
300.087
300.09
300.093
300.095
300.097
300.099
300.101
300.103
300.104
300.103
300.102
300.1
300.098
300.095
300.091
300.088
300.084
300.08
300.076
300.072
300.07
299.963
299.967
299.971
299.976
299.983
299.991
300
300.011
300.023
300.036
300.049
300.061
300.073
300.084
300.093
300.102
300.11
300.118
300.126
300.134
300.143
300.152
300.16
300.168
300.174
300.181
300.187
300.192
300.198
300.203
300.208
300.213
300.218
300.223
300.227
300.018
300.022
300.026
300.03
300.036
300.042
300.048
300.056
300.064
300.071
300.079
300.086
300.093
300.099
300.105
300.11
300.114
300.118
300.122
300.126
300.129
300.132
300.135
300.136
300.137
300.138
300.138
300.137
300.136
300.135
300.134
300.132
300.131
300.129
300.128
300.012
300.015
300.019
300.023
300.028
300.034
300.04
300.047
300.055
300.063
300.071
300.079
300.087
300.095
300.102
300.109
300.116
300.123
300.13
300.137
300.143
300.15
300.156
300.161
300.166
300.171
300.175
300.179
300.183
300.187
300.19
300.194
300.197
300.201
300.205
300.033
300.036
300.039
300.042
300.046
300.051
300.055
300.061
300.066
300.072
300.078
300.085
300.091
300.097
300.104
300.111
300.117
300.123
300.128
300.133
300.138
300.142
300.146
300.15
300.152
300.154
300.156
300.157
300.157
300.158
300.158
300.158
300.158
300.159
300.159
300.035
300.038
300.041
300.044
300.048
300.052
300.056
300.061
300.066
300.072
300.078
300.084
300.09
300.098
300.105
300.112
300.119
300.125
300.131
300.137
300.143
300.149
300.154
300.159
300.163
300.167
300.17
300.174
300.176
300.179
300.182
300.184
300.187
300.189
300.193
300.041
300.044
300.047
300.05
300.054
300.058
300.062
300.066
300.071
300.076
300.082
300.087
300.094
300.1
300.107
300.114
300.12
300.126
300.132
300.138
300.143
300.148
300.153
300.157
300.16
300.163
300.165
300.167
300.169
300.17
300.171
300.172
300.173
300.174
300.175
300.048
300.051
300.054
300.057
300.06
300.064
300.068
300.072
300.077
300.082
300.087
300.093
300.099
300.105
300.112
300.118
300.125
300.131
300.137
300.142
300.148
300.154
300.159
300.164
300.168
300.171
300.174
300.176
300.178
300.18
300.182
300.184
300.186
300.188
300.19
300.06
300.062
300.065
300.068
300.071
300.075
300.079
300.083
300.087
300.092
300.097
300.102
300.107
300.113
300.119
300.125
300.13
300.135
300.141
300.146
300.151
300.157
300.162
300.166
300.17
300.173
300.175
300.177
300.179
300.18
300.181
300.182
300.183
300.185
300.187
300.076
300.079
300.081
300.084
300.087
300.09
300.094
300.097
300.101
300.105
300.109
300.114
300.118
300.123
300.128
300.132
300.137
300.142
300.146
300.151
300.156
300.162
300.167
300.171
300.175
300.178
300.181
300.183
300.186
300.188
300.19
300.191
300.193
300.195
300.197
300.097
300.099
300.101
300.104
300.106
300.109
300.112
300.115
300.118
300.121
300.125
300.128
300.131
300.135
300.138
300.141
300.145
300.149
300.153
300.158
300.162
300.168
300.173
300.177
300.18
300.184
300.186
300.188
300.19
300.192
300.193
300.194
300.196
300.197
300.199
300.12
300.122
300.124
300.126
300.128
300.13
300.132
300.134
300.136
300.139
300.141
300.143
300.145
300.147
300.149
300.151
300.154
300.157
300.16
300.164
300.169
300.174
300.179
300.183
300.187
300.19
300.192
300.194
300.196
300.198
300.199
300.201
300.202
300.204
300.206
300.145
300.146
300.147
300.149
300.15
300.152
300.153
300.154
300.156
300.157
300.158
300.158
300.159
300.159
300.16
300.161
300.163
300.165
300.168
300.172
300.176
300.181
300.185
300.19
300.193
300.196
300.199
300.201
300.203
300.204
300.206
300.207
300.208
300.21
300.212
300.169
300.17
300.17
300.171
300.172
300.172
300.173
300.173
300.173
300.173
300.173
300.172
300.172
300.171
300.17
300.171
300.171
300.173
300.176
300.179
300.183
300.188
300.192
300.196
300.2
300.202
300.205
300.207
300.209
300.21
300.212
300.213
300.214
300.215
300.217
300.191
300.191
300.191
300.191
300.191
300.191
300.191
300.19
300.189
300.188
300.187
300.185
300.183
300.182
300.18
300.179
300.18
300.181
300.183
300.187
300.191
300.195
300.199
300.203
300.206
300.209
300.211
300.213
300.215
300.216
300.218
300.219
300.22
300.222
300.223
300.209
300.209
300.208
300.208
300.207
300.206
300.205
300.204
300.203
300.201
300.198
300.196
300.193
300.191
300.189
300.188
300.188
300.189
300.191
300.194
300.198
300.202
300.206
300.209
300.213
300.215
300.217
300.219
300.221
300.222
300.223
300.225
300.226
300.227
300.228
300.224
300.223
300.222
300.221
300.22
300.219
300.217
300.215
300.213
300.211
300.208
300.205
300.202
300.199
300.197
300.195
300.195
300.196
300.198
300.201
300.204
300.208
300.212
300.216
300.219
300.221
300.223
300.225
300.226
300.228
300.229
300.23
300.231
300.232
300.234
300.235
300.234
300.233
300.232
300.23
300.228
300.227
300.224
300.222
300.219
300.216
300.213
300.209
300.206
300.203
300.202
300.202
300.203
300.205
300.207
300.211
300.215
300.218
300.222
300.224
300.227
300.229
300.23
300.232
300.233
300.234
300.235
300.236
300.237
300.238
300.243
300.242
300.241
300.239
300.238
300.236
300.234
300.231
300.228
300.225
300.222
300.219
300.215
300.212
300.209
300.208
300.208
300.209
300.211
300.214
300.217
300.22
300.224
300.227
300.23
300.232
300.234
300.235
300.237
300.238
300.239
300.24
300.241
300.242
300.243
300.25
300.248
300.247
300.245
300.243
300.241
300.239
300.237
300.234
300.231
300.227
300.224
300.22
300.217
300.215
300.213
300.213
300.214
300.216
300.219
300.222
300.226
300.229
300.232
300.235
300.237
300.238
300.24
300.241
300.242
300.243
300.244
300.245
300.246
300.247
300.254
300.253
300.251
300.25
300.248
300.246
300.243
300.241
300.238
300.235
300.231
300.228
300.225
300.222
300.22
300.218
300.219
300.22
300.222
300.224
300.228
300.231
300.234
300.237
300.239
300.241
300.243
300.244
300.245
300.246
300.247
300.248
300.248
300.249
300.25
300.258
300.256
300.255
300.253
300.251
300.249
300.246
300.244
300.241
300.238
300.235
300.231
300.228
300.226
300.224
300.223
300.223
300.225
300.227
300.229
300.232
300.235
300.238
300.241
300.243
300.245
300.246
300.248
300.249
300.25
300.25
300.251
300.252
300.253
300.254
300.249
300.248
300.247
300.246
300.246
300.245
300.244
300.244
300.243
300.243
300.242
300.242
300.242
300.243
300.244
300.245
300.246
300.247
300.248
300.247
300.246
300.244
300.241
300.238
300.235
300.232
300.229
300.227
300.225
300.223
300.221
300.22
300.218
300.217
300.216
300.253
300.252
300.251
300.251
300.25
300.249
300.249
300.248
300.247
300.247
300.246
300.246
300.246
300.247
300.248
300.25
300.251
300.253
300.253
300.254
300.253
300.251
300.249
300.246
300.243
300.24
300.238
300.235
300.233
300.231
300.23
300.228
300.227
300.226
300.225
300.258
300.256
300.255
300.255
300.254
300.253
300.253
300.252
300.251
300.251
300.25
300.25
300.25
300.251
300.252
300.254
300.256
300.257
300.259
300.259
300.259
300.257
300.255
300.253
300.25
300.248
300.245
300.243
300.241
300.239
300.238
300.236
300.235
300.234
300.233
300.262
300.26
300.259
300.259
300.258
300.257
300.256
300.256