/*--------------------------------*- C++ -*----------------------------------*\
  =========                 |
  \\      /  F ield         | OpenFOAM: The Open Source CFD Toolbox
   \\    /   O peration     | Website:  https://openfoam.org
    \\  /    A nd           | Version:  8
     \\/     M anipulation  |
\*---------------------------------------------------------------------------*/
FoamFile
{
    version     2.0;
    format      ascii;
    class       volScalarField;
    location    "0.11";
    object      epsilon;
}
// * * * * * * * * * * * * * * * * * * * * * * * * * * * * * * * * * * * * * //

dimensions      [0 2 -3 0 0 0 0];

internalField   nonuniform List<scalar> 
15677
(
59.7302
18.3646
52.6883
8.08378
26.0271
50.2356
4.62238
13.3247
31.6573
50.5439
3.17415
7.74945
17.1288
37.3374
51.6382
2.487
5.05428
10.0486
20.8539
42.6854
53.6778
2.14425
3.62772
6.47293
12.1838
24.5739
47.6809
55.7356
1.97932
2.82285
4.52979
7.73512
14.2946
28.273
52.0323
57.6656
1.91149
2.35341
3.40396
5.31556
8.92621
16.4372
31.7676
55.7061
59.3625
1.88406
2.0803
2.72413
3.91176
6.02715
10.1137
18.5442
34.9592
58.7189
60.8596
1.8705
1.93937
2.30738
3.05667
4.36064
6.71175
11.279
20.5722
37.7736
61.1883
62.1247
1.86763
1.87828
2.0565
2.52159
3.34931
4.77882
7.3667
12.4206
22.4596
40.2295
63.1754
63.2355
1.86862
1.84884
1.91655
2.18625
2.71306
3.61649
5.16747
8.00313
13.5058
24.1993
42.3186
64.7958
64.1606
1.86954
1.83871
1.85192
1.9827
2.30709
2.88705
3.85933
5.53739
8.60585
14.5342
25.7569
44.1015
66.0941
64.9941
1.86978
1.83699
1.82112
1.86776
2.05145
2.41847
3.04347
4.08562
5.88223
9.17958
15.4804
27.1507
45.5862
67.1467
65.7191
1.86977
1.83726
1.81051
1.81335
1.89821
2.11765
2.51895
3.18704
4.29286
6.20742
9.70973
16.3522
28.3627
46.8353
68.0042
66.3621
1.86972
1.83753
1.80821
1.78979
1.81542
1.93041
2.17883
2.61073
3.31674
4.48539
6.50538
10.2023
17.1296
29.4183
47.8685
68.7026
66.949
1.86969
1.83763
1.8079
1.78277
1.7757
1.82154
1.9624
2.23535
2.69315
3.43555
4.65961
6.78067
10.6444
17.825
30.312
48.7137
69.2985
67.4509
1.86967
1.83765
1.80791
1.78106
1.76145
1.76617
1.83176
1.99319
2.28634
2.76795
3.54182
4.8188
7.02625
11.0442
18.424
31.0649
49.4072
69.7702
67.9573
1.86966
1.83765
1.80792
1.78073
1.75696
1.74395
1.76039
1.84318
2.02161
2.33258
2.83437
3.63781
4.95929
7.24754
11.3899
18.9415
31.6809
49.9482
70.2131
68.3538
1.86966
1.83764
1.8079
1.7807
1.75568
1.73592
1.72952
1.75744
1.85454
2.04776
2.37363
2.89385
3.72174
5.08457
7.43764
11.6913
19.3659
32.1759
50.3939
70.5403
68.8253
1.86966
1.83763
1.80788
1.78068
1.75535
1.73322
1.71728
1.71804
1.75589
1.8657
2.07124
2.41027
2.94559
3.79578
5.1912
7.6028
11.9377
19.7163
32.5605
50.7121
70.9058
69.1412
1.86966
1.83763
1.80786
1.78067
1.75526
1.73238
1.71265
1.70135
1.70849
1.75583
1.87613
2.09231
2.44217
2.99093
3.85847
5.28294
7.73691
12.1425
19.9807
32.8463
50.9813
71.1467
69.609
1.86966
1.83762
1.80785
1.78064
1.75522
1.73213
1.71102
1.69454
1.68726
1.70092
1.75616
1.88573
2.11088
2.47019
3.02941
3.91205
5.35701
7.84741
12.2943
20.1851
33.0478
51.1476
71.4896
69.8684
1.86966
1.83762
1.80784
1.78062
1.75518
1.73203
1.71045
1.69194
1.678
1.67539
1.69466
1.75694
1.89462
2.12746
2.49427
3.06239
3.95552
5.41756
7.92926
12.4123
20.3139
33.1723
51.2909
71.6874
70.3366
1.86967
1.83762
1.80784
1.7806
1.75515
1.73197
1.71025
1.69097
1.67417
1.66377
1.66492
1.68966
1.75846
1.90292
2.14212
2.51535
3.08991
3.99158
5.46309
7.99146
12.4817
20.3998
33.2419
51.3785
72.0715
70.5868
1.86967
1.83761
1.80784
1.78059
1.75512
1.73192
1.71014
1.69059
1.67266
1.65873
1.65076
1.65645
1.68607
1.76036
1.91089
2.15571
2.53388
3.11352
4.01968
5.49746
8.02896
12.5291
20.4236
33.2447
51.4278
72.3638
430.285
1.86967
1.83761
1.80783
1.78057
1.7551
1.73188
1.71007
1.69041
1.67205
1.65661
1.64434
1.64022
1.64922
1.68343
1.76336
1.91919
2.16855
2.55081
3.13356
4.04262
5.52092
8.05358
12.5344
20.4128
33.2277
51.5243
88.6032
722.582
1.86967
1.8376
1.80783
1.78056
1.75509
1.73185
1.71002
1.6903
1.67178
1.6557
1.64153
1.63257
1.63063
1.64429
1.68344
1.76767
1.92816
2.18171
2.56709
3.15213
4.06135
5.53758
8.05977
12.5252
20.3832
33.1895
52.4055
121.823
1010.55
1.86968
1.8376
1.80783
1.78055
1.75508
1.73182
1.70997
1.69022
1.67162
1.65527
1.64031
1.62906
1.62167
1.62429
1.64089
1.68482
1.77372
1.93881
2.196
2.58414
3.17008
4.078
5.54818
8.05719
12.5035
20.327
33.1957
54.8898
157.577
1267.58
1.86968
1.8376
1.80783
1.78054
1.75507
1.73179
1.70993
1.69015
1.6715
1.65503
1.63973
1.62743
1.61751
1.61426
1.61864
1.64137
1.68852
1.78244
1.95188
2.21265
2.60282
3.1891
4.09383
5.55558
8.0507
12.4662
20.2671
33.2658
59.3854
190.587
1507.59
1.86968
1.83759
1.80784
1.78053
1.75507
1.73177
1.7099
1.69009
1.67141
1.65487
1.63941
1.62663
1.61556
1.60935
1.60768
1.61832
1.64394
1.69581
1.79464
1.96855
2.23257
2.62477
3.21039
4.11122
5.56299
8.03929
12.4271
20.2046
33.4815
64.0498
222.058
1714.55
1.86968
1.83759
1.80784
1.78052
1.75506
1.73175
1.70988
1.69004
1.67133
1.65475
1.6392
1.6262
1.61459
1.60696
1.60236
1.60627
1.62027
1.64988
1.70754
1.81151
1.98982
2.25735
2.65106
3.23602
4.13156
5.57247
8.03015
12.3867
20.1353
33.9014
68.7912
249.987
1874.74
1.86969
1.83758
1.80784
1.78052
1.75506
1.73173
1.70986
1.69
1.67127
1.65465
1.63903
1.62592
1.61405
1.60575
1.59976
1.60024
1.60801
1.62568
1.66121
1.72475
1.83408
2.01719
2.28802
2.6835
3.26689
4.15737
5.58669
8.02293
12.3475
20.0741
34.4166
73.1056
271.833
2001.6
1.86969
1.83758
1.80784
1.78051
1.75506
1.73172
1.70985
1.68996
1.67122
1.65456
1.63889
1.62571
1.61369
1.60508
1.59841
1.59724
1.60188
1.61326
1.63652
1.67877
1.7485
1.86384
2.05172
2.32626
2.72298
3.30526
4.18955
5.60723
8.02325
12.3081
20.0196
34.918
76.4356
289.237
2105.66
1.83758
1.86972
1.80785
1.7805
1.75506
1.7317
1.70984
1.68993
1.67118
1.65449
1.63878
1.62554
1.61342
1.60465
1.59764
1.59571
1.59885
1.60709
1.62395
1.65448
1.70356
1.78039
1.90194
2.09514
2.37305
2.77143
3.3516
4.2303
5.63506
8.02674
12.2677
19.9629
35.2852
78.9917
303.396
2194.23
1.80785
1.83768
1.8698
1.7805
1.75506
1.73169
1.70983
1.68989
1.67115
1.65442
1.63868
1.6254
1.6132
1.60434
1.59714
1.59487
1.59732
1.60411
1.61785
1.64242
1.68031
1.73722
1.82156
1.95011
2.14834
2.43006
2.82937
3.40808
4.27937
5.67084
8.03665
12.2272
19.9001
35.5407
80.9241
315.434
2272.35
1.78049
1.80801
1.83787
1.86987
1.75506
1.73167
1.70983
1.68986
1.67112
1.65436
1.6386
1.62528
1.61301
1.6041
1.59676
1.59435
1.59651
1.60268
1.61504
1.63687
1.66926
1.71576
1.78114
1.8739
2.00939
2.21306
2.49813
2.89875
3.47416
4.33815
5.71957
8.05753
12.1958
19.8308
35.6781
82.4433
325.87
2343.04
1.75506
1.7807
1.80833
1.83807
1.86995
1.73166
1.70982
1.68984
1.6711
1.6543
1.63854
1.62517
1.61285
1.60389
1.59646
1.59398
1.59603
1.60199
1.61384
1.63467
1.66475
1.70645
1.76239
1.83749
1.93876
2.08186
2.28998
2.57865
2.97911
3.55151
4.41384
5.78539
8.08983
12.1697
19.7541
35.7527
83.6319
335.324
2408.54
1.73165
1.75532
1.78111
1.80866
1.83828
1.87003
1.70982
1.68981
1.67109
1.65425
1.63849
1.62507
1.61272
1.60372
1.5962
1.59369
1.5957
1.60164
1.61343
1.63413
1.66365
1.70382
1.75595
1.82279
1.90785
2.01865
2.16847
2.38109
2.67164
3.07218
3.64906
4.51194
5.86393
8.13149
12.1536
19.6761
35.7495
84.6287
343.919
2469.79
1.70981
1.73194
1.75584
1.78154
1.809
1.8385
1.87011
1.68979
1.67107
1.6542
1.63845
1.62498
1.61261
1.60357
1.59599
1.59346
1.59545
1.60142
1.61333
1.63432
1.66409
1.7043
1.75561
1.82
1.89873
1.99537
2.11491
2.27171
2.48691
2.77822
3.18863
3.77377
4.62367
5.95356
8.18295
12.1427
19.5974
35.7293
85.4534
352.012
2527.89
1.68977
1.71015
1.73253
1.75637
1.78198
1.80934
1.83872
1.87019
1.67106
1.65416
1.63842
1.6249
1.61252
1.60344
1.5958
1.59327
1.59525
1.60129
1.61337
1.6348
1.66531
1.70652
1.75866
1.82329
1.90052
1.99256
2.10088
2.23096
2.3924
2.6094
2.91256
3.33518
3.91255
4.74812
6.0531
8.24251
12.1432
19.524
35.6857
86.1944
359.55
2582.86
1.67105
1.69012
1.71083
1.73314
1.75692
1.78244
1.8097
1.83894
1.87028
1.65412
1.63839
1.62482
1.61246
1.60331
1.59564
1.59311
1.59509
1.6012
1.61347
1.63537
1.66675
1.70949
1.76353
1.83024
1.90911
2.00131
2.10626
2.22707
2.36628
2.53357
2.76482
3.08377
3.49968
4.06548
4.88337
6.16135
8.30985
12.1478
19.4555
35.6278
86.8378
366.776
2635.48
1.65408
1.67144
1.69084
1.71153
1.73377
1.75749
1.78291
1.81007
1.83918
1.87036
1.63837
1.62475
1.6124
1.6032
1.59551
1.59297
1.59496
1.60113
1.6136
1.63594
1.66822
1.71258
1.76914
1.83921
1.92159
2.01735
2.12446
2.24412
2.37522
2.52349
2.71262
2.96489
3.27759
3.68224
4.23141
5.02811
6.27696
8.38365
12.1582
19.3951
35.5643
87.4486
373.565
2685.3
1.63836
1.65446
1.67224
1.69159
1.71225
1.73441
1.75807
1.78339
1.81044
1.83942
1.87045
1.62468
1.61236
1.60309
1.5954
1.59286
1.59485
1.60109
1.61374
1.63651
1.66965
1.71558
1.77472
1.84897
1.9364
2.03782
2.15061
2.27505
2.40739
2.54994
2.72325
2.94084
3.19315
3.49459
3.88129
4.4092
5.18103
6.39876
8.46253
12.1767
19.3417
35.5054
87.9989
380.122
2733.14
1.62462
1.63877
1.65527
1.67306
1.69236
1.71298
1.73508
1.75866
1.78388
1.81083
1.83966
1.87054
1.61233
1.60298
1.59531
1.59276
1.59476
1.60106
1.61388
1.63704
1.671
1.7184
1.78007
1.85855
1.95212
2.06128
2.18208
2.31519
2.45489
2.60177
2.77437
2.98283
3.1997
3.44474
3.73331
4.09651
4.59791
5.3409
6.52522
8.54569
12.2007
19.2965
35.4504
88.5392
386.285
2778.23
1.61231
1.62498
1.63963
1.65609
1.67391
1.69315
1.71374
1.73576
1.75927
1.78439
1.81122
1.83992
1.87063
1.60288
1.59525
1.59266
1.59468
1.60104
1.61402
1.63754
1.67227
1.72104
1.78514
1.86771
1.96749
2.08607
2.21761
2.36221
2.51357
2.67145
2.85376
3.06922
3.28233
3.49106
3.71889
3.98922
4.32624
4.79566
5.50596
6.65512
8.63202
12.2295
19.2582
35.4034
89.0361
392.255
2821.56
1.60279
1.61269
1.62578
1.64052
1.65695
1.67478
1.69397
1.71452
1.73647
1.7599
1.78491
1.81163
1.84018
1.87073
1.59521
1.59258
1.59461
1.60102
1.61415
1.638
1.67344
1.72348
1.78989
1.87633
1.9822
2.11046
2.25513
2.41521
2.58164
2.75561
2.95516
3.18938
3.41392
3.62325
3.81423
4.01541
4.2588
4.56768
5.00081
5.67535
6.78726
8.7206
12.2621
19.2274
35.3638
89.531
397.845
2862.15
1.59519
1.60303
1.61351
1.62659
1.64143
1.65784
1.67567
1.69481
1.71532
1.73719
1.76054
1.78545
1.81204
1.84044
1.87081
1.59248
1.59453
1.601
1.61428
1.63843
1.67453
1.72572
1.79432
1.88438
1.99618
2.13398
2.2922
2.47174
2.65876
2.85333
3.07651
3.33913
3.58791
3.81212
4.00654
4.16839
4.33329
4.54054
4.81792
5.21263
5.84766
6.92066
8.81051
12.298
19.2025
35.3321
89.9916
403.272
2901.18
1.59239
1.59546
1.60363
1.61435
1.62745
1.64238
1.65876
1.67659
1.69568
1.71614
1.73794
1.7612
1.786
1.81245
1.84069
1.8709
1.59445
1.60098
1.61439
1.63882
1.67552
1.72779
1.79841
1.89185
2.00938
2.15641
2.32818
2.52843
2.74186
2.96519
3.21845
3.51913
3.80383
4.05688
4.26758
4.43323
4.55258
4.67038
4.83283
5.0719
5.4284
6.02149
7.05419
8.90094
12.3363
19.1842
35.308
90.4521
408.318
2937.48
1.59441
1.59233
1.59603
1.60422
1.61523
1.62834
1.64335
1.65971
1.67754
1.69658
1.71698
1.7387
1.76188
1.78654
1.81285
1.84093
1.87098
1.60095
1.61448
1.63918
1.67643
1.72968
1.80218
1.89877
2.02178
2.17761
2.36284
2.58429
2.82596
3.0876
3.38372
3.73368
4.06749
4.36379
4.60577
4.78537
4.90475
4.96575
5.02451
5.1346
5.32845
5.64576
6.19517
7.18692
8.99114
12.3766
19.1701
35.2896
90.8835
413.235
2972.43
1.60097
1.59421
1.59224
1.59661
1.60486
1.61615
1.62927
1.64435
1.66069
1.6785
1.6975
1.71785
1.73949
1.76254
1.78707
1.81323
1.84116
1.87106
1.61457
1.6395
1.67726
1.73141
1.80565
1.90514
2.03335
2.19753
2.39606
2.63874
2.90939
3.21407
3.56899
3.99038
4.39073
4.74936
5.04044
5.24872
5.37266
5.42313
5.407
5.3937
5.44352
5.58623
5.86336
6.36808
7.31831
9.08054
12.418
19.1617
35.2789
91.3126
417.764
3004.7
1.61471
1.60053
1.59379
1.59211
1.59725
1.60556
1.61709
1.63025
1.64537
1.66172
1.6795
1.69846
1.71873
1.74027
1.76319
1.78759
1.81361
1.84139
1.87114
1.63979
1.67799
1.73299
1.80882
1.91102
2.04411
2.21613
2.42773
2.69124
2.99145
3.3429
3.76517
4.28705
4.79246
5.24286
5.61011
5.86646
6.00511
6.03843
5.99086
5.8755
5.77604
5.75754
5.84376
6.07862
6.53967
7.44768
9.16862
12.4604
19.1559
35.2712
91.7163
422.205
3035.85
1.64013
1.61386
1.59944
1.59329
1.59205
1.59793
1.60632
1.61806
1.63127
1.64643
1.66277
1.68052
1.69943
1.71961
1.74103
1.76383
1.78809
1.81397
1.84162
1.87122
1.67865
1.73441
1.81171
1.91642
2.05406
2.23347
2.45774
2.74142
3.07178
3.47308
3.96835
4.61089
5.28021
5.89164
6.37974
6.71585
6.88309
6.89658
6.79171
6.61011
6.37026
6.16964
6.07473
6.10015
6.28925
6.70849
7.57439
9.25495
12.503
19.1552
35.2713
92.115
426.258
3060.89
1.67937
1.63867
1.61164
1.59824
1.5929
1.59211
1.59864
1.60716
1.61905
1.63234
1.64751
1.66386
1.68156
1.7004
1.72046
1.74176
1.76444
1.78857
1.81433
1.84184
1.87129
1.7357
1.81432
1.92136
2.06325
2.24959
2.48606
2.78907
3.15012
3.60323
4.17571
4.95914
5.84528
6.7296
7.44673
7.91617
8.13831
8.12929
7.94114
7.63882
7.28158
6.88978
6.57256
6.39335
6.35452
6.49483
6.87352
7.69787
9.33914
12.5456
19.1563
35.2733
92.4887
429.718
3082.05
1.73702
1.67715
1.63467
1.60928
1.59717
1.5926
1.59229
1.59934
1.60807
1.62007
1.63346
1.64862
1.66498
1.6826
1.70134
1.72129
1.74248
1.76504
1.78905
1.81467
1.84205
1.87137
1.81672
1.92587
2.0717
2.26455
2.51266
2.83416
3.22624
3.73178
4.38536
5.33301
6.49115
7.74912
8.87577
9.6268
9.95482
9.93214
9.62996
9.1476
8.58105
8.00365
7.43175
6.98273
6.71183
6.60556
6.69492
7.03401
7.81767
9.4209
12.5879
19.1592
35.2778
92.8058
432.561
3104.95
1.81907
1.73382
1.67073
1.6304
1.60713
1.59621
1.59236
1.59268
1.60003
1.60906
1.62112
1.63462
1.64976
1.6661
1.68362
1.70226
1.7221
1.74318
1.76562
1.78951
1.81501
1.84225
1.87144
1.93005
2.07945
2.27842
2.53756
2.87672
3.29986
3.85739
4.59684
5.73398
7.21946
8.94576
10.6368
11.9361
12.5606
12.5601
12.1227
11.3905
10.5133
9.61376
8.77205
7.99297
7.39788
7.02861
6.85217
6.88912
7.18941
7.93341
9.49997
12.6296
19.1646
35.285
93.0701
435.679
3130.04
1.93403
1.81464
1.72394
1.66399
1.62642
1.60515
1.59533
1.59205
1.59324
1.60074
1.61012
1.6222
1.63582
1.6509
1.66718
1.6846
1.70316
1.72289
1.74386
1.76618
1.78995
1.81533
1.84245
1.87147
2.08667
2.29128
2.5608
2.91685
3.37069
3.97921
4.81065
6.16202
8.02489
10.306
12.7018
14.7737
16.0715
16.3263
15.7568
14.7073
13.3985
12.0255
10.727
9.58015
8.56943
7.81562
7.34226
7.09343
7.07705
7.3393
8.04484
9.5762
12.6703
19.1705
35.292
93.3673
439.034
3157.36
2.09334
1.92805
1.79986
1.71368
1.65766
1.62271
1.6033
1.59453
1.59175
1.59392
1.60148
1.61124
1.62332
1.63701
1.65202
1.66824
1.68557
1.70402
1.72365
1.74451
1.76673
1.79039
1.81565
1.84255
1.87147
2.30335
2.58248
2.95464
3.43846
4.09688
5.02766
6.61499
8.89694
11.8068
15.0351
18.0846
20.3729
21.395
20.9618
19.5392
17.6628
15.629
13.6639
11.9071
10.4196
9.15652
8.23346
7.65142
7.32855
7.2584
7.48341
8.15177
9.64938
12.7048
19.1765
35.3014
93.6884
442.76
3187.45
2.31426
2.08552
1.90623
1.78468
1.70404
1.6517
1.6192
1.60159
1.5938
1.59151
1.59469
1.60228
1.61239
1.62446
1.63818
1.65311
1.66927
1.68651
1.70487
1.7244
1.74516
1.76727
1.79081
1.81581
1.84255
1.87147
2.60292
2.99028
3.50306
4.21053
5.24852
7.08893
9.82249
13.4212
17.592
21.8077
25.3806
27.6064
27.9795
26.4714
23.8788
20.9524
18.0493
15.4047
13.1386
11.2813
9.74939
8.64896
7.95481
7.55684
7.43296
7.62162
8.2541
9.71028
12.7346
19.184
35.3132
94.0548
446.768
3220.28
2.621
2.30396
2.05365
1.88411
1.77041
1.69491
1.64602
1.6159
1.60001
1.59316
1.59137
1.59552
1.60314
1.61354
1.62559
1.63931
1.65419
1.67026
1.68742
1.70569
1.72513
1.74578
1.76778
1.79102
1.81581
1.84255
1.87147
3.02413
3.56459
4.32065
5.47341
7.57856
10.7876
15.1218
20.3248
25.8692
30.9991
34.8392
36.6015
35.8559
32.8294
28.7291
24.5303
20.6231
17.2225
14.4052
12.1558
10.3432
9.05971
8.25125
7.7778
7.60057
7.7537
8.33926
9.76243
12.7678
19.1934
35.3293
94.4518
451.235
3256.54
3.05369
2.60771
2.25752
2.0218
1.86335
1.75683
1.68615
1.64058
1.61279
1.59855
1.59262
1.59135
1.59638
1.60406
1.61465
1.62671
1.64041
1.65523
1.67124
1.68831
1.70649
1.72583
1.74638
1.76804
1.79102
1.81581
1.84255
1.87147
3.6235
4.42805
5.70207
8.07787
11.7783
16.8816
23.186
30.19
37.1091
42.946
46.6566
47.4302
45.0101
39.9813
34.0294
28.3456
23.3135
19.0925
15.6916
13.0344
10.9334
9.46348
8.53975
7.99099
7.76115
7.86253
8.41214
9.82009
12.8051
19.2052
35.3496
94.9079
456.049
3296.05
3.67456
3.03615
2.53992
2.21182
1.99193
1.84356
1.74376
1.67771
1.63539
1.60988
1.59721
1.59219
1.59145
1.59722
1.60503
1.61573
1.62781
1.64148
1.65626
1.67218
1.68918
1.70726
1.72652
1.74668
1.76804
1.79102
1.81581
1.84255
1.87147
4.53333
5.93185
8.58076
12.7811
18.6751
26.1299
34.6911
43.5813
51.7374
57.9214
60.958
60.1006
55.382
47.8467
39.7087
32.3453
26.0843
20.9916
16.9838
13.9089
11.5158
9.85835
8.81946
8.19606
7.8946
7.95513
8.49261
9.88395
12.8468
19.2201
35.3766
95.4027
461.452
3339.82
4.62583
3.65193
2.93562
2.47434
2.16903
1.9634
1.82446
1.73114
1.66961
1.63045
1.60716
1.59602
1.59188
1.59171
1.59802
1.60603
1.61679
1.62891
1.64252
1.65726
1.6731
1.69003
1.70802
1.72686
1.74668
1.76804
1.79102
1.81581
1.84255
1.87143
6.16008
9.08299
13.7841
20.4784
29.1133
39.2968
50.287
61.0062
70.1023
76.1106
77.7842
74.5524
66.8676
56.3252
45.6894
36.4765
28.9017
22.899
18.2694
14.7723
12.0867
10.2426
9.08964
8.36687
8.00875
8.05685
8.58156
9.95481
12.8939
19.2386
35.4101
95.9589
467.287
3387.41
4.59577
6.36165
3.49773
2.8407
2.41305
2.12816
1.93586
1.80599
1.71897
1.66185
1.62575
1.60469
1.59496
1.59166
1.59222
1.59878
1.60705
1.61781
1.62998
1.64353
1.65824
1.67399
1.69085
1.70839
1.72686
1.74668
1.76804
1.79102
1.81581
1.84245
1.87136
9.57976
14.7766
22.2702
32.0964
43.9375
57.1055
70.5483
82.877
92.448
97.5955
97.084
90.6582
79.3257
65.3009
51.8916
40.6884
31.735
24.7967
19.5377
15.6186
12.6433
10.6149
9.31546
8.51322
8.1348
8.16879
8.67998
10.0336
12.947
19.2617
35.4534
96.5486
473.885
3440.28
4.3417
6.33292
10.0183
3.35724
2.75229
2.35449
2.08868
1.9092
1.78815
1.70728
1.65443
1.62128
1.60246
1.59404
1.59136
1.59287
1.59952
1.60807
1.61882
1.63104
1.64452
1.65919
1.67487
1.69126
1.70839
1.72686
1.74668
1.76804
1.79102
1.81565
1.84225
1.87129
15.7477
24.0322
35.0452
48.5512
63.9297
80.1789
95.9331
109.486
118.899
122.345
118.713
108.231
92.586
74.65
58.2361
44.934
34.5571
26.6689
20.7801
16.4432
13.1828
10.9268
9.50933
8.6751
8.2742
8.29217
8.78903
10.1213
13.0071
19.2902
35.5062
97.2204
481.018
3497.51
4.1184
5.88458
10.0091
16.6065
3.22788
2.66788
2.29798
2.05048
1.88345
1.77098
1.69606
1.64736
1.6171
1.60049
1.59328
1.59112
1.59359
1.60027
1.60908
1.61981
1.63207
1.64549
1.66013
1.6753
1.69126
1.70838
1.72686
1.74668
1.76804
1.7908
1.81533
1.84204
1.87122
25.7466
37.9311
53.0873
70.6689
89.7405
108.996
126.759
140.992
149.453
150.209
142.44
127.032
106.459
84.247
64.6485
49.171
37.3444
28.503
21.9897
17.2421
13.635
11.1948
9.72423
8.85448
8.42861
8.42842
8.91
10.2193
13.0754
19.3255
35.5728
97.936
489.156
3561.3
3.91707
5.49286
9.19281
16.6614
27.2717
3.10507
2.58654
2.24337
2.0136
1.85865
1.7545
1.68536
1.6407
1.61334
1.59881
1.59264
1.59099
1.59433
1.60103
1.61008
1.62079
1.63307
1.64645
1.66059
1.67529
1.69126
1.70838
1.72686
1.74668
1.76778
1.79038
1.815
1.84183
1.87114
40.7271
57.5049
77.2529
99.1076
121.843
143.872
163.203
177.422
183.973
180.929
167.958
146.789
120.749
93.9712
71.0602
53.3618
40.0773
30.2888
23.1608
17.9108
14.0236
11.4922
9.96282
9.05357
8.59992
8.57916
9.0444
10.3288
13.1531
19.369
35.6535
98.7649
497.948
3629.88
3.72935
5.14085
8.46313
15.2944
27.4902
43.2231
2.98721
2.50811
2.19072
1.9781
1.83484
1.73874
1.67525
1.63465
1.61006
1.59737
1.59213
1.59097
1.59508
1.60181
1.61106
1.62176
1.63407
1.64691
1.66058
1.67529
1.69126
1.70839
1.72686
1.74638
1.76726
1.78994
1.81466
1.84161
1.87106
61.7661
83.6288
108.19
134.309
160.518
184.97
205.307
218.666
222.193
214.137
194.896
167.208
135.261
103.71
77.4101
57.4753
42.74
32.018
24.1407
18.4854
14.4548
11.8227
10.2281
9.27491
8.79029
8.74628
9.19393
10.4514
13.242
19.4226
35.754
99.6539
508.099
3706.61
3.5522
4.81494
7.79977
14.027
25.396
43.7477
65.5727
2.87399
2.43268
2.14012
1.94405
1.81207
1.72384
1.666
1.62927
1.6072
1.59614
1.59176
1.59105
1.59581
1.60261
1.61202
1.62274
1.63456
1.64689
1.66058
1.67529
1.69126
1.70839
1.72651
1.74577
1.76672
1.78949
1.81432
1.84139
1.87098
89.7473
116.926
146.286
176.488
205.879
232.324
252.99
264.483
263.722
249.375
222.847
187.995
149.812
113.361
83.6469
61.4857
45.3196
33.4648
24.9821
19.1223
14.9337
12.1905
10.5236
9.52139
9.00221
8.93194
9.36059
10.5892
13.3437
19.4884
35.8759
100.702
519.002
3788.2
3.38477
4.51053
7.18171
12.8387
23.42
40.7486
66.5796
95.2026
2.76543
2.36039
2.09166
1.91152
1.79054
1.71018
1.65773
1.6245
1.60469
1.5951
1.59151
1.59125
1.59651
1.60344
1.61301
1.6232
1.63454
1.64689
1.66058
1.67529
1.69126
1.70801
1.72582
1.74514
1.76616
1.78903
1.81396
1.84116
1.8709
125.257
157.712
191.663
225.671
257.916
285.869
306.064
314.503
308.045
286.119
251.388
208.864
164.237
122.84
89.7279
65.3722
47.4787
34.7072
25.9145
19.8293
15.4664
12.6002
10.853
9.79632
9.23852
9.13864
9.54663
10.7441
13.4607
19.5693
36.0265
101.838
531.81
3895.67
3.2267
4.22682
6.60168
11.7101
21.5298
37.8917
62.5092
96.8777
132.65
2.66161
2.29139
2.04545
1.88079
1.77079
1.69791
1.65032
1.62025
1.60251
1.59423
1.59133
1.59159
1.59722
1.60435
1.61347
1.62316
1.63454
1.64689
1.66058
1.6753
1.69085
1.70725
1.72511
1.74449
1.7656
1.78855
1.8136
1.84092
1.87081
168.526
205.996
244.229
281.761
316.546
345.471
364.232
368.224
354.551
323.803
280.1
229.556
178.393
132.075
95.6186
68.625
49.3331
36.0842
26.9491
20.6148
16.0592
13.0571
11.2209
10.1035
9.50248
9.36928
9.75484
10.919
13.5953
19.6683
36.2103
103.193
547.815
4026.88
3.07761
3.96398
6.05957
10.6341
19.6973
35.1216
58.6259
91.5788
135.152
178.045
2.56274
2.22583
2.00188
1.85263
1.75304
1.68691
1.64369
1.61646
1.60066
1.59348
1.59112
1.59209
1.59802
1.60477
1.61341
1.62315
1.63454
1.64689
1.66059
1.67486
1.69001
1.70646
1.72438
1.74383
1.76501
1.78807
1.81322
1.84068
1.87072
219.436
261.541
303.762
344.617
381.67
410.948
427.094
425.024
402.55
361.848
308.592
249.845
192.165
141.009
100.545
71.4184
51.3883
37.6117
28.0979
21.4882
16.7197
13.5671
11.6322
10.447
9.79779
9.62717
9.98787
11.1161
13.751
19.79
36.4355
104.975
569.164
4160.63
2.93674
3.72262
5.55716
9.61355
17.9108
32.3973
54.8329
86.5563
128.461
181.463
231.119
2.46907
2.16423
1.96204
1.82736
1.7371
1.67703
1.63776
1.61306
1.59906
1.59285
1.59099
1.5928
1.59834
1.60468
1.6134
1.62315
1.63454
1.64691
1.66012
1.67398
1.68916
1.70566
1.72363
1.74315
1.76442
1.78757
1.81284
1.84043
1.87063
277.589
323.975
370.014
414.133
453.234
482.096
494.145
484.165
451.305
399.697
336.524
269.547
205.457
148.468
104.772
74.5132
53.6682
39.308
29.3748
22.4601
17.456
14.1368
12.0924
10.8319
10.1286
9.91611
10.2503
11.3407
13.9319
19.9391
36.7657
107.343
592.322
4295.96
2.80355
3.50505
5.09543
8.65786
16.1713
29.6986
51.0694
81.6459
122.213
173.181
235.428
291.29
2.38149
2.10809
1.92636
1.80468
1.72279
1.66817
1.63244
1.61005
1.59768
1.5924
1.59118
1.59311
1.59816
1.60468
1.6134
1.62316
1.63456
1.64644
1.65917
1.67307
1.68828
1.70484
1.72286
1.74246
1.76381
1.78706
1.81244
1.84018
1.87054
342.442
392.915
442.854
490.412
531.344
558.713
564.768
544.81
500.068
436.851
363.61
288.514
216.523
154.857
109.451
77.9446
56.1994
41.193
30.795
23.5424
18.2773
14.7736
12.6075
11.2632
10.4997
10.2403
10.5432
11.5969
14.1434
20.1567
37.2363
110.12
617.995
4431
2.67902
3.30716
4.67394
7.76981
14.4861
27.0221
47.2997
76.759
116.141
165.626
225.281
296.314
357.808
2.30211
2.05796
1.89441
1.78432
1.70994
1.66021
1.62767
1.60737
1.59659
1.59236
1.59114
1.59294
1.59814
1.60468
1.61341
1.6232
1.63407
1.64548
1.65821
1.67215
1.68739
1.70399
1.72207
1.74174
1.76318
1.78653
1.81204
1.83992
1.87045
413.463
468.15
522.456
573.877
616.299
640.575
638.2
606.052
548.141
472.885
389.625
304.251
225.982
161.916
114.631
81.7511
59.0112
43.289
32.3755
24.7479
19.1934
15.4853
13.1844
11.7469
10.9162
10.6052
10.8709
11.8893
14.436
20.4708
37.8315
113.311
645.612
4565.22
2.56614
3.1271
4.29434
6.95094
12.8725
24.3765
43.5084
71.8354
110.119
158.38
216.308
283.906
363.201
429.95
2.23165
2.01319
1.8658
1.76606
1.69841
1.65305
1.62339
1.60517
1.5961
1.59216
1.59077
1.59295
1.59814
1.60468
1.61347
1.62273
1.63306
1.6445
1.65723
1.6712
1.68647
1.70312
1.72127
1.74101
1.76253
1.78599
1.81162
1.83966
1.87036
490.313
549.824
609.421
665.301
708.513
727.313
713.514
666.98
594.908
507.458
411.142
317.669
236.403
169.712
120.368
85.9746
62.1357
45.6206
34.1349
26.091
20.2154
16.2806
13.8302
12.2891
11.3836
11.0164
11.2388
12.2839
14.8321
20.8569
38.5538
117.006
676.338
4696.52
2.46605
2.96659
3.95824
6.2071
11.3487
21.7791
39.6961
66.8383
104.054
151.275
207.882
273.34
347.95
435.214
507.23
2.16909
1.97321
1.84018
1.74967
1.68801
1.64659
1.61975
1.60388
1.59563
1.5917
1.59075
1.59295
1.59816
1.60477
1.613
1.62174
1.63204
1.6435
1.65622
1.67023
1.68553
1.70223
1.72044
1.74026
1.76187
1.78544
1.81121
1.83941
1.87027
573.089
638.699
705.063
765.98
808.428
818.312
789.667
726.738
639.859
535.997
429.441
332.401
247.872
178.319
126.718
90.6606
65.6084
48.2147
36.0938
27.5872
21.3549
17.1687
14.5525
12.8966
11.9083
11.479
11.7292
12.7969
15.2857
21.3246
39.4446
121.292
709.35
4824.29
2.37756
2.82464
3.67125
5.54717
9.93368
19.2531
35.8748
61.7486
97.8783
144.175
199.781
263.695
335.519
416.267
511.771
589.695
2.1135
1.93752
1.81724
1.73492
1.67862
1.64104
1.61737
1.60291
1.595
1.59169
1.59074
1.59294
1.59834
1.60435
1.612
1.62076
1.631
1.64248
1.65519
1.66923
1.68457
1.70132
1.71959
1.73948
1.7612
1.7849
1.81082
1.83917
1.87019
662.667
736.54
811.781
877.8
916.406
912.743
865.608
784.58
676.992
560.224
449.47
348.553
260.482
187.811
133.742
95.8579
69.4668
51.1003
38.274
29.2531
22.6245
18.1593
15.3591
13.5761
12.4957
12.0954
12.3556
13.3608
15.8036
21.8878
40.5384
126.241
746.238
4946.05
2.29945
2.69817
3.43482
4.98459
8.65831
16.8255
32.0665
56.5604
91.5399
136.973
191.822
254.685
324.552
401.573
487.891
592.878
678.342
2.06407
1.90565
1.79662
1.7216
1.67049
1.6372
1.61576
1.60202
1.59501
1.59169
1.59076
1.59311
1.59801
1.60342
1.61103
1.61978
1.62994
1.64144
1.65415
1.66821
1.68359
1.70038
1.71873
1.7387
1.76053
1.78437
1.81043
1.83894
1.87011
761.138
846.809
933.431
1003.17
1032.68
1009.78
940.325
832.641
708.516
586.681
471.344
366.226
274.319
198.264
141.505
101.617
73.7512
54.3083
40.6991
31.1063
24.037
19.2621
16.2583
14.3338
13.2748
12.8755
13.0319
13.9778
16.3891
22.5691
41.874
132.05
785.902
5061.3
2.23054
2.58553
3.23602
4.51637
7.55323
14.5401
28.3035
51.28
84.9987
129.574
183.85
246.071
314.686
389.097
470.417
562.31
679.711
775.855
2.02009
1.87713
1.77804
1.71004
1.66465
1.63471
1.61458
1.60202
1.595
1.5917
1.59114
1.5928
1.59721
1.60259
1.61005
1.61879
1.62887
1.64037
1.65308
1.66715
1.68259
1.69942
1.71784
1.73792
1.75988
1.78386
1.81005
1.83871
1.87002
872.889
975.581
1075.87
1145.02
1158.15
1108.31
1003.33
873.59
742.94
615.497
495.167
385.509
289.465
209.752
150.069
107.99
78.5028
57.8708
43.3934
33.1649
25.6057
20.4872
17.2567
15.3337
14.2519
13.707
13.7569
14.6461
17.0528
23.3794
43.5295
138.752
830.427
5167.39
2.16971
2.4856
3.0655
4.1299
6.62331
12.4891
24.6534
45.9296
78.2256
121.888
175.724
237.649
305.608
378.364
456.144
541.461
639.867
775.629
887.873
1.98085
1.85151
1.76188
1.70153
1.66098
1.63317
1.6146
1.60202
1.595
1.59217
1.59119
1.59208
1.59649
1.60178
1.60904
1.61778
1.62777
1.63927
1.65199
1.66608
1.68156
1.69845
1.71697
1.73717
1.75925
1.78337
1.80969
1.83849
1.86995
1005.95
1133.54
1247.32
1310.66
1292.6
1193.55
1057.51
918.483
780.435
646.785
521.026
406.478
305.993
222.343
159.493
115.028
83.7633
61.8204
46.3816
35.4474
27.3439
21.843
18.5687
16.5774
15.2824
14.5837
14.526
15.3683
17.7953
24.3568
45.5299
146.739
878.398
5264.43
2.11583
2.39736
2.91665
3.81204
5.85075
10.7164
21.2592
40.5867
71.2075
113.83
167.294
229.229
297.067
368.967
444.464
525.021
615.047
722.544
887.794
1026.55
1.94574
1.82922
1.74972
1.69631
1.65895
1.63321
1.6146
1.60201
1.59563
1.59236
1.59099
1.59158
1.59579
1.601
1.60803
1.61675
1.62667
1.63815
1.65088
1.66498
1.68051
1.69749
1.71612
1.73644
1.75864
1.78289
1.80933
1.83828
1.86987
1176.36
1338.52
1472.72
1504.34
1413.03
1267.9
1117.55
967.657
821.184
680.649
548.985
429.189
323.958
236.091
169.832
122.779
89.5724
66.1887
49.6881
37.9714
29.2629
23.6186
20.1899
17.8783
16.3569
15.4979
15.3355
16.1382
18.6323
25.5016
48.0171
155.973
932.402
5349.81
2.06791
2.3196
2.78492
3.55324
5.21551
9.21282
18.213
35.4524
64.0038
105.322
158.402
220.601
288.822
360.6
434.827
512.239
596.014
693.115
815.882
1033.23
1216.24
1.91521
1.81223
1.74235
1.69371
1.65903
1.63321
1.61457
1.60291
1.59612
1.5924
1.59112
1.59124
1.59505
1.60024
1.60701
1.6157
1.62556
1.63699
1.64976
1.66386
1.67948
1.69655
1.71529
1.73574
1.75805
1.78242
1.80898
1.83807
1.8698
1419.29
1652.12
1766.14
1682.64
1519.61
1351.62
1184.35
1021.64
865.436
717.202
579.098
453.674
343.393
251.039
181.13
131.284
95.9659
71.0048
53.3351
40.7522
31.7696
25.8021
21.8754
19.2238
17.4649
16.442
16.1791
16.9604
19.5576
26.874
50.9751
167.155
990.705
5424.89
2.02632
2.25108
2.66756
3.34051
4.69589
7.9564
15.521
30.6833
56.8558
96.3649
148.883
211.534
280.616
352.972
426.857
502.367
581.903
671.047
780.752
932.845
1257.73
1523.47
1.89155
1.80213
1.73902
1.69384
1.65902
1.63316
1.61576
1.60391
1.5966
1.59286
1.59133
1.59105
1.5943
1.5995
1.60599
1.61462
1.62444
1.63581
1.64862
1.66275
1.67848
1.69565
1.71449
1.73505
1.75747
1.78197
1.80865
1.83787
1.86972
1851.56
2089.49
2032.34
1841.45
1642.77
1447.35
1259.81
1081.39
913.623
756.604
611.409
479.94
364.306
267.205
193.413
140.573
102.972
76.2931
57.3402
44.3755
34.8404
28.0626
23.6094
20.6009
18.5957
17.4074
17.0542
17.8302
20.5976
28.4568
54.6338
180.1
1056.19
5487.3
1.99375
2.19214
2.56305
3.16113
4.27369
6.91624
13.185
26.3228
49.9824
87.1943
138.637
201.763
272.156
345.795
420.215
494.928
571.73
655.287
755.257
890.108
1105.67
1704.98
2173.98
1.8776
1.79797
1.73921
1.69384
1.65894
1.63472
1.61741
1.60521
1.59771
1.5935
1.59152
1.59097
1.59356
1.59876
1.605
1.61352
1.62332
1.63461
1.64749
1.66169
1.6775
1.69478
1.71371
1.73439
1.7569
1.78153
1.80832
1.83767
1.86969
2522.62
2521.94
2292.82