/*--------------------------------*- C++ -*----------------------------------*\
  =========                 |
  \\      /  F ield         | OpenFOAM: The Open Source CFD Toolbox
   \\    /   O peration     | Website:  https://openfoam.org
    \\  /    A nd           | Version:  8
     \\/     M anipulation  |
\*---------------------------------------------------------------------------*/
FoamFile
{
    version     2.0;
    format      ascii;
    class       volScalarField;
    location    "0.07";
    object      p;
}
// * * * * * * * * * * * * * * * * * * * * * * * * * * * * * * * * * * * * * //

dimensions      [0 2 -2 0 0 0 0];

internalField   nonuniform List<scalar> 
15677
(
79.6939
79.3373
78.9249
79.4019
78.913
78.9275
79.3769
78.9403
78.9369
78.8222
79.3515
78.9416
78.9372
78.8312
78.7324
79.3297
78.9439
78.937
78.8304
78.74
78.6387
79.3063
78.9462
78.9367
78.8315
78.7399
78.6454
78.5276
79.2811
78.9488
78.9358
78.8319
78.7409
78.6454
78.5334
78.3954
79.255
78.9518
78.9344
78.8319
78.7414
78.6463
78.5335
78.4005
78.2352
79.2276
78.9539
78.9324
78.8318
78.7419
78.6469
78.5345
78.4007
78.2396
78.0397
79.199
78.9553
78.9298
78.8313
78.7422
78.6475
78.5352
78.4018
78.2399
78.0434
77.8015
79.1695
78.9568
78.9264
78.831
78.7426
78.6481
78.536
78.4026
78.2411
78.0439
77.8045
77.5129
79.1396
78.9578
78.9231
78.831
78.7432
78.649
78.537
78.4037
78.2422
78.0452
77.8052
77.5151
77.1659
79.1098
78.9577
78.9195
78.8314
78.7441
78.6501
78.5384
78.4052
78.2437
78.0466
77.8068
77.516
77.1673
76.7526
79.083
78.9563
78.9158
78.8321
78.7457
78.652
78.5404
78.4072
78.2457
78.0486
77.8086
77.5179
77.1683
76.7531
76.2656
79.06
78.9541
78.9122
78.8333
78.7481
78.6549
78.5435
78.4102
78.2485
78.0513
77.8112
77.5202
77.1705
76.7544
76.2651
75.6978
79.0399
78.9519
78.9091
78.8351
78.7518
78.6592
78.5481
78.4147
78.2528
78.0553
77.8148
77.5235
77.1735
76.7569
76.2666
75.6962
75.0433
79.0222
78.9498
78.9067
78.8375
78.7569
78.6655
78.5548
78.4214
78.2591
78.0611
77.8201
77.5283
77.1778
76.7606
76.2695
75.698
75.0404
74.297
79.0069
78.9478
78.9049
78.8402
78.7632
78.674
78.5643
78.4311
78.2685
78.0698
77.8279
77.5352
77.1839
76.766
76.2741
75.7014
75.0424
74.2928
73.4553
78.9936
78.9458
78.9036
78.8433
78.7701
78.6845
78.5773
78.4447
78.2819
78.0824
77.8394
77.5454
77.1928
76.7737
76.2807
75.7068
75.0463
74.2951
73.4496
72.5163
78.9822
78.944
78.9029
78.8468
78.7777
78.6959
78.5932
78.4633
78.3007
78.1006
77.8562
77.5605
77.2059
76.785
76.2902
75.7149
75.0528
74.2994
73.4522
72.5089
71.4795
78.9732
78.9423
78.9027
78.8507
78.786
78.7084
78.6105
78.486
78.3265
78.126
77.8802
77.5823
77.2251
76.8015
76.3042
75.7265
75.0623
74.3069
73.4571
72.5118
71.4704
70.3464
78.9662
78.9406
78.9029
78.855
78.7948
78.7219
78.6294
78.5107
78.3579
78.1608
77.9139
77.6135
77.253
76.8256
76.3245
75.7433
75.0762
74.3181
73.4656
72.5171
71.4735
70.3355
69.121
78.9608
78.939
78.9034
78.8596
78.804
78.7363
78.6497
78.5377
78.3921
78.2032
77.9599
77.6571
77.2928
76.8606
76.3543
75.768
75.0963
74.3343
73.4784
72.5266
71.4792
70.3388
69.1081
67.8086
78.9566
78.9377
78.9042
78.8642
78.8137
78.7513
78.6712
78.5667
78.4295
78.2494
78.016
77.7169
77.3484
76.9104
76.3974
75.8041
75.1257
74.3577
73.4969
72.541
71.4897
70.3447
69.1116
67.7936
66.4218
78.9533
78.9366
78.9052
78.8686
78.8232
78.7669
78.6937
78.5975
78.4697
78.3
78.0772
77.7898
77.4247
76.9802
76.4589
75.8564
75.1686
74.3921
73.5239
72.5618
71.5055
70.356
69.1175
67.797
66.4042
64.9914
78.9506
78.9357
78.9061
78.8727
78.8319
78.7821
78.717
78.6297
78.5123
78.3545
78.1443
77.8694
77.5178
77.0759
76.5449
75.9309
75.2309
74.4424
73.5633
72.5921
71.5284
70.373
69.1293
67.8024
66.4049
64.9375
63.4579
78.9484
78.935
78.9071
78.8763
78.8398
78.7962
78.7398
78.663
78.557
78.4122
78.2166
77.9569
77.6197
77.1929
76.663
76.0352
75.3198
74.5154
73.6212
72.6366
71.5618
70.3977
69.147
67.8142
66.4089
64.9398
63.3922
61.8071
78.9466
78.9344
78.908
78.8797
78.847
78.8089
78.7608
78.6956
78.6032
78.4727
78.2934
78.0511
77.7316
77.3211
76.8077
76.1789
75.4444
74.6196
73.7052
72.702
71.611
70.4337
69.1728
67.8319
66.4189
64.9399
63.3947
61.7779
60.1111
78.9451
78.9339
78.9088
78.8827
78.8534
78.8203
78.7797
78.7255
78.6484
78.5354
78.3738
78.1513
77.8526
77.4622
76.9666
76.3551
75.6163
74.7662
73.8256
72.7972
71.6835
70.487
69.2106
67.858
66.4349
64.9468
63.3881
61.77
60.101
58.3774
78.9439
78.9335
78.9095
78.8855
78.859
78.8305
78.7966
78.7525
78.69
78.5969
78.4572
78.2565
77.9812
77.6149
77.1418
76.549
75.8277
74.9689
73.9955
72.9342
71.7898
70.5661
69.2671
67.8966
66.4595
64.9599
63.3942
61.7598
60.084
58.3731
56.4305
78.9429
78.9332
78.91
78.888
78.8641
78.8395
78.8118
78.7768
78.7275
78.6533
78.5391
78.3656
78.1164
77.7776
77.3317
76.7633
76.0608
75.2188
74.2309
73.128
71.9431
70.6825
69.3516
67.9549
66.497
64.9815
63.4054
61.7672
60.0747
58.354
56.4293
54.2507
78.942
78.9329
78.9105
78.8903
78.8686
78.8476
78.8252
78.7984
78.7612
78.7043
78.6143
78.4728
78.257
77.9488
77.5344
76.9959
76.3191
75.4951
74.5221
73.3974
72.1607
70.8514
69.4769
68.0432
66.5553
65.0165
63.4251
61.7778
60.0823
58.3467
56.4113
54.2514
52.0629
78.9413
78.9327
78.911
78.8924
78.8726
78.8548
78.8372
78.8176
78.7912
78.75
78.6823
78.5714
78.3952
78.1271
77.7481
77.2448
76.6002
75.8021
74.845
73.7318
72.4646
71.0922
69.6598
68.1756
66.6455
65.0731
63.4579
61.7967
60.0927
58.3527
56.4042
54.2347
52.0651
49.9028
78.9406
78.9325
78.9114
78.8942
78.8761
78.8611
78.8478
78.8348
78.818
78.7909
78.7434
78.6607
78.5225
78.3027
77.971
77.5079
76.9017
76.137
75.2048
74.1039
72.8433
71.4301
69.9224
68.3706
66.7827
65.1633
63.5127
61.8283
60.1113
58.3628
56.407
54.2274
52.0502
49.9051
47.7881
78.9324
78.9399
78.9119
78.8958
78.8793
78.8667
78.8573
78.8499
78.8418
78.8274
78.798
78.7409
78.6379
78.4648
78.1911
77.7828
77.2211
76.4973
75.5985
74.5199
73.2664
71.8531
70.2927
68.6526
66.9874
65.3032
63.6021
61.8816
60.1414
58.3804
56.4158
54.227
52.0426
49.8912
47.79
45.7293
78.9122
78.9322
78.9391
78.8972
78.8821
78.8717
78.8656
78.8634
78.8629
78.8597
78.8467
78.8127
78.7417
78.6117
78.3945
78.0549
77.5558
76.88
76.0233
74.9767
73.741
72.3276
70.7588
69.0529
67.2859
65.5149
63.7432
61.9696
60.1926
58.4082
56.4307
54.2332
52.0393
49.8826
47.7769
45.7308
43.7366
78.8984
78.9129
78.932
78.9383
78.8845
78.8761
78.873
78.8753
78.8816
78.8885
78.89
78.8767
78.8346
78.7442
78.5793
78.3069
77.8879
77.2823
76.476
75.4712
74.264
72.862
71.284
69.5597
67.7127
65.8266
63.9593
62.1105
60.2781
58.456
56.4544
54.2434
52.0421
49.876
47.767
45.7181
43.7373
41.8184
78.8867
78.9001
78.9137
78.9319
78.9376
78.88
78.8796
78.8859
78.8982
78.914
78.9285
78.9337
78.9177
78.863
78.7461
78.5363
78.1963
77.6826
76.9535
76.0001
74.8325
73.4534
71.8782
70.1336
68.2565
66.2757
64.2807
62.3285
60.4167
58.5371
56.4966
54.2609
52.0468
49.8743
47.7567
45.7066
43.7249
41.8182
39.9806
78.8834
78.8896
78.9021
78.9145
78.9318
78.9369
78.8854
78.8953
78.9129
78.9366
78.9626
78.9843
78.9916
78.9691
78.8958
78.7437
78.4776
78.0553
77.4302
76.5599
75.4427
74.0987
72.5385
70.7858
68.8756
66.8519
64.7473
62.6557
60.6335
58.6709
56.5706
54.2943
52.0564
49.8723
47.7499
45.6926
43.7115
41.8059
39.9795
38.2272
78.8903
78.8879
78.8928
78.9041
78.9153
78.9316
78.9362
78.9036
78.9259
78.9566
78.9928
79.0293
79.0573
79.0637
79.0298
78.9303
78.7325
78.3963
77.8756
77.121
76.0913
74.7944
73.262
71.5138
69.5826
67.5114
65.3501
63.1345
60.962
58.8829
56.6958
54.3571
52.079
49.8726
47.7402
45.6801
43.6937
41.7905
39.9673
38.2253
36.5605
78.9105
78.8969
78.8927
78.8961
78.906
78.9162
78.9315
78.9356
78.9375
78.9744
79.0196
79.0691
79.1156
79.1479
79.1493
79.0974
78.9621
78.7059
78.2841
77.647
76.744
75.5369
74.0456
72.3153
70.3756
68.2682
66.0439
63.7572
61.4468
59.2079
56.8984
54.4686
52.1275
49.8823
47.7299
45.662
43.6752
41.7688
39.9497
38.213
36.5577
34.9813
78.9472
78.9199
78.9035
78.8975
78.8993
78.9079
78.917
78.9314
78.935
78.9901
79.0435
79.1045
79.1674
79.2227
79.2558
79.2467
79.1682
78.9854
78.656
78.1311
77.3584
76.2878
74.886
73.1876
71.2528
69.1213
66.8441
64.4778
62.0817
59.692
57.214
54.6551
52.2211
49.9139
47.725
45.6402
43.6484
41.7441
39.9243
38.1932
36.5454
34.9778
33.4892
79.0033
78.9601
78.9288
78.9103
78.9023
78.9024
78.9097
78.9178
78.9313
78.9345
79.0646
79.136
79.2134
79.2891
79.3505
79.3798
79.3525
79.2367
78.9926
78.5731
77.9258
76.9974
75.7399
74.1277
72.2124
70.07
67.7507
65.3132
62.8204
60.3301
57.6895
54.9526
52.3858
49.9859
47.7374
45.6194
43.6144
41.7084
39.8934
38.1641
36.5234
34.9653
33.485
32.0829
79.0821
79.0208
78.9717
78.9379
78.9169
78.9069
78.9054
78.9115
78.9186
78.9312
78.934
79.1638
79.2543
79.3481
79.4346
79.4983
79.5171
79.4619
79.2959
78.9742
78.4456
77.6555
76.5507
75.0881
73.2522
71.1133
68.7645
66.265
63.6816
61.0774
58.3217
55.4075
52.6572
50.1241
47.7851
45.6111
43.577
41.6619
39.8486
38.1271
36.4907
34.9411
33.4724
32.0782
30.7603
79.1869
79.1054
79.0358
78.9838
78.9468
78.9233
78.9113
78.9084
78.9132
78.9194
78.9311
78.9336
79.2905
79.4006
79.5094
79.6037
79.6638
79.6633
79.5682
79.3365
78.9187
78.2604
77.3058
76.0045
74.3203
72.2502
69.8856
67.3352
64.6685
61.9537
59.0675
56.0192
53.0798
50.3623
47.8928
45.6323
43.5468
41.6073
39.7894
38.0734
36.4477
34.9051
33.4462
32.0653
30.755
29.5188
79.3204
79.2175
79.1246
79.0515
78.9955
78.9554
78.9294
78.9156
78.9112
78.9148
78.9202
78.931
78.9332
79.4472
79.5761
79.6975
79.7944
79.843
79.8121
79.6625
79.3472
78.8128
78.0026
76.8618
75.3449
73.425
71.1145
68.5257
65.7847
62.9638
59.9482
56.7477
53.6561
50.7424
48.0914
45.7061
43.5401
41.5548
39.7176
38.0015
36.3852
34.8562
33.4068
32.0371
30.742
29.513
28.3551
79.4854
79.3603
79.2418
79.1447
79.0667
79.0067
78.9635
78.9353
78.9197
78.9139
78.9164
78.921
78.931
78.9328
79.6352
79.7811
79.9107
80.0033
80.0302
79.955
79.7336
79.3145
78.6412
77.6563
76.3081
74.5583
72.3923
69.8387
67.0338
64.1131
60.9701
57.615
54.3501
51.2701
48.4204
45.8603
43.5775
41.5193
39.6427
37.9127
36.301
34.7852
33.3524
31.9947
30.7119
29.4997
28.3489
27.2658
79.6835
79.5367
79.3907
79.2674
79.1642
79.0811
79.0173
78.9712
78.9408
78.9235
78.9164
78.9179
78.9217
78.9309
78.9325
79.8552
80.0146
80.1461
80.2248
80.217
80.0812
79.7683
79.223
78.3871
77.2047
75.6291
73.6322
71.2129
68.4203
65.4076
62.1408
58.6293
55.1837
51.9141
48.888
46.1307
43.6834
41.5184
39.5779
37.8155
36.1955
34.689
33.2733
31.935
30.6667
29.4679
28.3354
27.2593
26.2475
79.9156
79.7489
79.5746
79.423
79.292
79.1825
79.0946
79.0272
78.9785
78.9461
78.9272
78.9188
78.9192
78.9223
78.9308
78.9323
80.1066
80.2739
80.3985
80.4512
80.393
80.1773
79.7508
79.0553
78.0328
76.6306
74.8101
72.5546
69.8815
66.8542
63.469
59.8005
56.1666
52.6948
49.4675
46.5281
43.8894
41.5734
39.5379
37.7215
36.0766
34.5675
33.1656
31.8481
30.6019
29.42
28.302
27.2455
26.2406
25.2964
80.1812
79.9984
79.7958
79.6151
79.454
79.3151
79.1996
79.1072
79.0365
78.9853
78.9509
78.9305
78.9209
78.9205
78.9229
78.9308
78.9321
80.3868
80.5541
80.6606
80.6723
80.5452
80.2278
79.6633
78.7927
77.5595
75.9172
73.8365
71.3175
68.3895
64.9645
61.1404
57.3113
53.6235
50.1774
47.0303
44.2083
41.711
39.5403
37.6421
35.9538
34.4276
33.0287
31.7295
30.5077
29.3504
28.2516
27.2106
26.2266
25.2891
24.409
80.4781
80.2851
80.0562
79.8463
79.6538
79.4828
79.3365
79.2155
79.1189
79.0451
78.9915
78.9554
78.9336
78.9229
78.9215
78.9235
78.9308
78.9319
80.6916
80.8484
80.9224
80.8752
80.6578
80.2144
79.4865
78.4153
76.9487
75.0477
72.6978
69.9084
66.5645
62.663
58.6327
54.7142
51.0292
47.6524
44.6219
41.9446
39.6067
37.5913
35.8354
34.2766
32.8687
31.578
30.3787
29.2494
28.1775
27.158
26.1903
25.275
24.4013
23.5812
80.8021
80.6077
80.3563
80.119
79.8945
79.6897
79.5094
79.3562
79.23
79.1296
79.0529
78.9971
78.9594
78.9363
78.9246
78.9225
78.9239
78.9307
78.9317
81.0142
81.1472
81.1714
81.0443
80.7124
80.1173
79.1993
77.9029
76.1814
74.0087
71.3771
68.1605
64.3085
60.1481
55.9839
52.0372
48.4051
45.1409
42.2604
39.7502
37.5851
35.7315
34.12
32.6905
31.3989
30.2136
29.1107
28.0701
27.0798
26.1357
25.2374
24.3869
23.5728
22.8127
81.1468
80.9628
80.6951
80.434
80.1786
79.9388
79.7225
79.5337
79.374
79.243
79.1391
79.0598
79.0021
78.9628
78.9386
78.926
78.9232
78.9243
78.9307
78.9316
81.3453
81.4381
81.392
81.1612
80.6888
79.9144
78.7803
77.2346
75.2418
72.7801
69.7159
65.9656
61.7999
57.4497
53.2172
49.3003
45.7731
42.6627
39.9607
37.6352
35.6524
33.964
32.4969
31.1947
30.0163
28.9327
27.9223
26.9663
26.0535
25.1809
24.3481
23.5584
22.8002
22.1753
81.5027
81.3448
81.07
80.7911
80.5077
80.2333
79.9793
79.7523
79.5555
79.3899
79.2546
79.1475
79.0658
79.0063
78.9657
78.9406
78.9272
78.9239
78.9247
78.9307
78.9315
81.6727
81.7058
81.5657
81.2051
80.5642
79.5832
78.2066
76.392
74.1067
71.212
67.592
63.4736
59.0563
54.5849
50.3517
46.5273
43.1561
40.2358
37.7354
35.6075
33.8125
32.2901
30.9655
29.7874
28.7184
27.7324
26.8102
25.9346
25.0952
24.2901
23.5187
22.7862
22.1709
21.6393
81.8578
81.7455
81.4761
81.1884
80.8819
80.5749
80.2828
80.0156
79.7787
79.5747
79.4037
79.2645
79.1546
79.0707
79.0097
78.968
78.9421
78.9282
78.9244
78.925
78.9307
78.9314
81.9811
81.9318
81.6717
81.1525
80.3149
79.0992
77.4578
75.3502
72.6342
69.1625
65.1212
60.6919
56.0936
51.5766
47.417
43.7465
40.5764
37.8759
35.5946
33.6727
32.0676
30.7098
29.5243
28.4661
27.5021
26.6092
25.7706
24.9712
24.2011
23.4594
22.7457
22.1613
21.6443
21.0808
82.1966
82.154
81.9063
81.6219
81.3001
80.9644
80.6356
80.3271
80.0477
79.8017
79.591
79.4153
79.2727
79.1602
79.0746
79.0123
78.9698
78.9434
78.929
78.9249
78.9252
78.9307
78.9313
82.252
82.0951
81.6859
80.9792
79.915
78.44
76.5071
73.9717
70.6579
66.7171
62.3145
57.6484
52.9476
48.4654
44.4497
40.9871
38.055
35.597
33.5463
31.8343
30.4183
29.2218
28.1708
27.2278
26.3638
25.5593
24.8
24.0725
23.3674
22.6854
22.1205
21.6358
21.0809
20.4778
82.5002
82.5562
82.3505
82.0855
81.7591
81.4013
81.0387
80.6895
80.3659
80.0752
79.821
79.6045
79.4246
79.2789
79.1643
79.0774
79.0143
78.9712
78.9444
78.9296
78.9252
78.9254
78.9307
78.9313
82.464
82.1713
81.5832
80.6576
79.3404
77.5766
75.2183
72.0664
68.2459
63.9081
59.2226
54.3952
49.6695
45.2966
41.4861
38.2758
35.6103
33.41
31.596
30.0943
28.864
27.8239
26.9022
26.0689
25.3
24.5792
23.8945
23.2345
22.5907
22.0599
21.5958
21.0687
20.4724
19.8191
82.7465
82.9348
82.7961
82.5706
82.2538
81.8833
81.4923
81.1045
80.7364
80.3988
80.098
79.8366
79.6149
79.4313
79.2832
79.1672
79.0794
79.0157
78.9722
78.9452
78.9301
78.9255
78.9256
78.9307
78.9313
82.5921
82.1346
81.3351
80.1621
78.5595
76.3719
73.3829
69.6999
65.4631
60.8083
55.9068
50.9868
46.3078
42.1113
38.5586
35.636
33.2571
31.3233
29.7472
28.4527
27.4028
26.5133
25.7149
24.9859
24.3069
23.6649
23.0503
22.4539
21.9629
21.5347
21.0286
20.4569
19.8115
19.1037
82.9097
83.2695
83.2268
83.0657
82.7769
82.4063
81.9947
81.5725
81.1613
80.7759
80.4256
80.1158
79.8481
79.6219
79.4355
79.2858
79.1688
79.0805
79.0166
78.9729
78.9457
78.9305
78.9258
78.9257
78.9306
78.9312
82.6095
81.9557
80.9143
79.4583
77.4329
74.6067
71.0754
66.971
62.394
57.4751
52.4137
47.4667
42.9035
38.9453
35.6947
33.0864
31.0066
29.3422
28.0014
26.9087
26.0323
25.2865
24.6053
23.9749
23.3805
22.8127
22.264
21.8231
21.4358
20.9662
20.4157
19.7952
19.0953
18.3296
82.9612
83.5365
83.6235
83.5562
83.3182
82.9638
82.5428
82.0928
81.6415
81.2087
80.8076
80.4462
80.1285
79.8553
79.6259
79.4376
79.2869
79.1695
79.081
79.017
78.9733
78.946
78.9307
78.926
78.9258
78.9306
78.9312
82.486
81.6056
80.2839
78.4041
75.7385
72.3702
68.4226
63.9633
59.0821
53.9407
48.7757
43.8704
39.4926
35.8295
32.9175
30.6417
28.8665
27.4696
26.3584
25.4601
24.7492
24.1399
23.5695
23.0319
22.5171
22.0189
21.6285
21.2933
20.8653
20.3512
19.7528
19.0788
18.3205
17.492
82.8688
83.7097
83.9634
84.0247
83.8647
83.5472
83.1313
82.6629
82.1769
81.6988
81.2465
80.8314
80.4602
80.1358
79.8587
79.6271
79.4378
79.2867
79.1693
79.0808
79.0169
78.9733
78.9461
78.9309
78.9261
78.9258
78.9306
78.9312
82.1895
81.0453
79.299
76.7813
73.5816
69.8087
65.4979
60.7027
55.5441
50.2249
45.0204
40.2311
36.1078
32.7906
30.2451
28.3125
26.8417
25.7064
24.8165
24.1038
23.5498
23.0696
22.6035
22.1531
21.713
21.3774
21.095
20.7199
20.248
19.6859
19.0351
18.3036
17.4825
16.586
82.5957
83.7603
84.2211
84.4502
84.4005
84.1449
83.7526
83.2786
82.7658
82.2465
81.744
81.2742
80.8469
80.4674
80.1382
79.8585
79.6259
79.4363
79.2854
79.1682
79.0801
79.0165
78.973
78.9463
78.9313
78.9262
78.9258
78.9306
78.9313
81.6788
80.1262
77.7505
74.7095
71.1195
66.9803
62.3102
57.1926
51.7884
46.3464
41.1764
36.5816
32.7792
29.8509
27.6914
26.1055
24.9341
24.0517
23.373
22.8364
22.4304
22.0715
21.7033
21.3346
21.0631
20.8388
20.5175
20.0993
19.5802
18.9662
18.2586
17.465
16.5762
15.6066
82.0949
83.6572
84.3676
84.8086
84.9066
84.7428
84.3969
83.9336
83.4049
82.8508
82.3011
81.7768
81.2916
80.8539
80.4685
80.1363
79.8554
79.6226
79.4334
79.283
79.1665
79.0788
79.0156
78.9732
78.9469
78.9314
78.9262
78.9258
78.9307
78.9313
80.7989
78.6541
75.7688
72.3496
68.3944
63.8805
58.8534
53.4321
47.825
42.3279
37.275
32.9548
29.5337
27.0282
25.266
24.0247
23.1436
22.5029
22.0244
21.6538
21.3868
21.1416
20.8651
20.6732
20.5176
20.2559
19.8925
19.4277
18.8577
18.1877
17.4188
16.5583
15.5967
14.5489
83.3613
81.2088
84.3697
85.0733
85.3604
85.3235
85.0514
84.6193
84.089
83.5093
82.9174
82.3403
81.7967
81.2985
80.8534
80.4643
80.1306
79.8497
79.6175
79.4292
79.2798
79.1639
79.077
79.0157
78.9741
78.9471
78.9314
78.9261
78.9257
78.9307
78.9314
79.374
76.765
73.5129
69.73
65.3912
60.4963
55.1192
49.4229
43.6692
38.1972
33.3507
29.3829
26.3951
24.3364
22.975
22.0707
21.4682
21.0567
20.7668
20.5519
20.4147
20.2758
20.1879
20.1181
19.9271
19.625
19.2162
18.7013
18.0762
17.3458
16.5109
15.5784
14.5389
13.4075
84.192
82.7217
79.7648
85.2117
85.7375
85.8663
85.7005
85.3246
84.8109
84.2178
83.5911
82.965
82.3637
81.8036
81.296
80.8462
80.4554
80.1217
79.8417
79.6108
79.4239
79.2755
79.1607
79.0768
79.0169
78.9744
78.9471
78.9313
78.9259
78.9256
78.9307
78.9315
77.5471
74.6127
71.0008
66.8274
62.0928
56.8142
51.1019
45.1722
39.3428
33.9878
29.4401
25.8965
23.3835
21.7854
20.8211
20.2424
19.9046
19.7089
19.5955
19.526
19.5101
19.5764
19.6195
19.5173
19.2882
18.9424
18.4846
17.9156
17.2312
16.4358
15.5299
14.5201
13.3975
12.1771
85.1906
83.7055
81.6058
77.9339
86.0069
86.3486
86.3257
86.0358
85.5609
84.9702
84.3191
83.6498
82.9932
82.3712
81.7991
81.2855
80.8335
80.4426
80.1101
79.8318
79.6028
79.4173
79.2703
79.16
79.0785
79.0174
78.9744
78.9469
78.9309
78.9258
78.9254
78.9307
78.9316
75.4665
72.2086
68.2027
63.6228
58.4826
52.8231
46.8009
40.6936
34.8749
29.7381
25.5804
22.5235
20.5148
19.3813
18.8044
18.5367
18.4487
18.4549
18.506
18.5719
18.7797
18.9896
19.0045
18.8673
18.597
18.2041
17.6934
17.066
16.3179
15.4526
14.4705
13.3782
12.1671
10.8525
86.1391
84.8973
82.7506
80.1228
75.8619
86.7414
86.906
86.736
86.327
85.7584
85.0963
84.3923
83.6847
83.002
82.3646
81.7848
81.2682
80.816
80.4265
80.0962
79.8203
79.5931
79.4095
79.269
79.1624
79.0792
79.0174
78.9741
78.9463
78.9307
78.9255
78.9252
78.9307
78.9317
73.1387
69.5178
65.0992
60.098
54.546
48.5154
42.2204
36.0081
30.3016
25.49
21.808
19.2881
17.8007
17.1266
16.9227
16.9495
17.0952
17.2895
17.4935
17.8022
18.1672
18.3548
18.3393
18.1642
17.8494
17.4057
16.8381
16.148
15.3313
14.391
13.3275
12.1472
10.8425
9.42862
87.019
86.0424
84.1773
81.4359
78.3877
73.5513
87.4145
87.4063
87.0944
86.5721
85.9161
85.1885
84.4366
83.696
82.9937
82.3462
81.7622
81.245
80.7944
80.4076
80.0803
79.8067
79.582
79.4072
79.2722
79.1634
79.0792
79.0169
78.9732
78.946
78.9304
78.9252
78.9249
78.9307
78.9319
70.523
66.5212
61.6719
56.2367
50.27
43.886
37.3707
31.1448
25.6653
21.2873
18.1568
16.2098
15.2485
15.0212
15.1723
15.4754
15.8389
16.2076
16.6776
17.1571
17.5047
17.6683
17.6198
17.4038
17.041
16.5426
15.9139
15.1563
14.2661
13.2458
12.0956
10.822
9.4189
7.90072
87.8292
87.1125
85.562
83.1098
79.8748
76.4215
70.9535
88.0219
87.846
87.3982
86.7695
86.0329
85.2458
84.4523
83.6866
82.9709
82.3176
81.7324
81.217
80.7695
80.3864
80.0619
79.7913
79.5785
79.4114
79.2735
79.1634
79.0785
79.0156
78.973
78.9459
78.9301
78.9248
78.9246
78.9307
78.932
67.601
63.2022
57.9048
52.023
45.642
38.9334
32.2687
26.1408
21.0142
17.174
14.6567
13.303
12.8615
13.0627
13.5479
14.1086
14.6739
15.3368
15.9941
16.4596
16.7886
16.9261
16.842
16.5819
16.1674
15.6102
14.9158
14.086
13.1172
12.0117
10.7696
9.39789
7.89157
6.26215
88.5642
88.1071
86.8654
84.7477
81.7985
78.1142
74.1774
68.049
88.5592
88.2216
87.6454
86.9181
86.1077
85.2683
84.4428
83.6595
82.9358
82.2804
81.6968
81.1849
80.7418
80.362
80.0411
79.7862
79.5839
79.4132
79.2735
79.1624
79.0768
79.0156
78.9733
78.9456
78.9296
78.9244
78.9243
78.9307
78.9323
64.358
59.5467
53.7814
47.4389
40.6496
33.6594
26.9398
21.0424
16.4002
13.1917
11.3318
10.5771
10.6399
11.2462
12.0435
12.8429
13.7373
14.608
15.2556
15.7061
16.0148
16.124
16.0014
15.6938
15.2237
14.6034
13.8388
12.9318
11.8793
10.6834
9.34467
7.87063
6.25584
4.20357
89.2178
89.019
88.089
86.2989
83.6894
80.3124
76.1087
71.6388
64.8234
89.022
88.5305
87.8345
87.0163
86.1406
85.2604
84.4119
83.6176
82.8904
82.2362
81.6564
81.1495
80.7102
80.3347
80.034
79.7933
79.5862
79.4132
79.2721
79.16
79.077
79.0164
78.9732
78.9451
78.929
78.9238
78.9239
78.9308
78.9325
60.7823
55.5394
49.2809
42.4637
35.2787
28.071
21.4201
15.9046
11.8768
9.37764
8.20075
8.03691
8.58057
9.56578
10.6522
11.8265
12.9544
13.8211
14.4584
14.8926
15.1791
15.2576
15.0936
14.7348
14.2051
13.5173
12.6775
11.6883
10.5472
9.25629
7.8165
6.23557
4.1939
1.76824
89.785
89.8396
89.2261
87.7664
85.4886
82.473
78.6113
73.8374
68.7989
61.2656
89.407
88.7708
87.9634
87.064
86.1366
85.2266
84.3631
83.5634
82.8366
82.1863
81.6121
81.1095
80.6752
80.3251
80.043
79.7961
79.5862
79.4114
79.269
79.1607
79.0788
79.0169
78.9729
78.9444
78.9282
78.9232
78.9234
78.9308
78.9328
56.8605
51.1604
44.3781
37.0696
29.5143
22.1849
15.7587
10.7896
7.49613
5.76315
5.27593
5.68236
6.67809
8.01432
9.53673
10.9781
12.1099
12.9727
13.5987
14.0149
14.2773
14.3224
14.1137
13.7
13.1065
12.3465
11.4268
10.3506
9.11615
7.72575
6.18145
4.16962
1.75614
-0.687386
90.2616
90.5607
90.2668
89.1437
87.1995
84.5349
81.0657
76.6714
71.2948
65.6554
57.3631
89.7115
88.9397
88.0319
87.0672
86.1013
85.1712
84.2994
83.4989
82.776
82.1317
81.5623
81.0652
80.6626
80.3364
80.0465
79.7961
79.5839
79.4072
79.2704
79.164
79.0801
79.0169
78.9722
78.9434
78.9272
78.9224
78.9229
78.9309
78.9331
52.5734
46.3838
39.0365
31.2216
23.3478
16.0327
10.0183
5.76392
3.30646
2.37257
2.56311
3.50999
4.92523
6.77275
8.60703
10.064
11.2004
12.0587
12.6722
13.0686
13.3047
13.3138
13.0569
12.5844
11.9227
11.086
10.0817
8.91384
7.58158
6.08869
4.1126
1.72997
-0.695655
-3.12301
90.6443
91.1751
91.2007
90.4197
88.8161
86.5015
83.4148
79.4389
74.489
68.4827
62.2076
53.0972
89.9316
89.0362
88.0467
87.0328
86.0401
85.0979
84.2235
83.4264
82.7098
82.0706
81.5073
81.0491
80.6767
80.3408
80.0465
79.7933
79.5784
79.4095
79.2756
79.1665
79.0808
79.0165
78.9712
78.9421
78.9259
78.9215
78.9223
78.9309
78.9335
47.8961
41.1722
33.209
24.8886
16.7865
9.66541
4.27463
0.895532
-0.650446
-0.778351
0.0627709
1.5131
3.52597
5.73992
7.60688
9.08099
10.2222
11.0753
11.6748
12.0494
12.2568
12.2269
11.9184
11.383
10.6488
9.73082
8.63736
7.37347
5.94056
4.01532
1.66965
-0.718751
-3.1298
-5.52901
90.9285
91.6772
92.0175
91.583
90.327
88.3656
85.6623
82.0932
77.5889
72.0692
65.4089
58.4524
48.4429
90.0657
89.0682
88.0161
86.9669
85.9572
85.0099
84.138
83.3473
82.6359
82.0033
81.4869
81.0664
80.682
80.3408
80.043
79.7862
79.582
79.4174
79.2799
79.1682
79.081
79.0156
78.9697
78.9405
78.9245
78.9204
78.9216
78.931
78.934
42.7926
35.4702
26.8357
18.0355
9.8502
3.15652
-1.38503
-3.75033
-4.34253
-3.68141
-2.22976
-0.0760971
2.36509
4.63081
6.53318
8.02548
9.17132
10.0182
10.6021
10.9529
11.1291
11.057
10.6932
10.0909
9.27978
8.27625
7.08938
5.72665
3.86158
1.56752
-0.777287
-3.15264
-5.53501
-7.89691
91.1108
92.0606
92.7074
92.622
91.7209
90.1157
87.8001
84.639
80.5641
75.5226
69.4251
62.0839
54.3835
43.3687
90.1222
89.0457
87.9477
86.8751
85.8568
84.9103
84.0447
83.2591
82.5546
81.9781
81.5081
81.0728
80.682
80.3364
80.034
79.7914
79.5933
79.424
79.2831
79.1692
79.0805
79.0142
78.9679
78.9385
78.9228
78.9192
78.9209
78.9311
78.9345
37.2028
29.1941
19.8338
10.6237
2.5815
-3.39793
-6.86756
-8.11693
-7.74757
-6.33638
-4.04757
-1.3903
1.12146
3.44291
5.38283
6.89389
8.04402
8.88363
9.45027
9.77494
9.91712
9.79964
9.37677
8.70339
7.8113
6.71801
5.43497
3.64042
1.40733
-0.87967
-3.21049
-5.55819
-7.90206
-10.2131
91.2008
92.3197
93.2579
93.525
92.9854
91.7395
89.8149
87.0684
83.4204
78.8346
73.2558
66.575
58.5179
49.995
37.8225
90.1132
88.9777
87.8481
86.7621
85.7424
84.8016
83.9406
83.162
82.5239
82.0037
81.5158
81.0728
80.6767
80.3251
80.0412
79.807
79.603
79.4293
79.2854
79.1694
79.0793
79.0122
78.9656
78.9362
78.9209
78.9178
78.9202
78.9312
78.935
31.0387
22.2359
12.1082
2.638
-4.94044
-9.8825
-12.0821
-12.1583
-10.8547
-8.43244
-5.54464
-2.79401
-0.20628
2.17393
4.15278
5.68291
6.83678
7.66787
8.21537
8.5114
8.61671
8.45045
7.9647
7.21638
6.23926
5.05344
3.33977
1.17827
-1.04249
-3.31333
-5.6157
-7.92512
-10.2173
-12.4635
91.2126
92.4655
93.6554
94.2752
94.1075
93.2243
91.693
89.3687
86.152
82.0123
76.922
70.8108
63.5388
54.7191
45.2703
31.7219
90.0496
88.8721
87.723
86.6324
85.6171
84.6803
83.826
83.1251
82.5546
82.0128
81.5158
81.0664
80.6625
80.3348
80.0622
79.8206
79.611
79.4335
79.2867
79.1687
79.0773
79.0096
78.9627
78.9336
78.9187
78.9163
78.9194
78.9313
78.9356
24.1849
14.4548
3.56832
-5.89988
-12.5906
-16.1678
-16.9454
-15.8427
-13.2955
-10.1498
-7.13756
-4.28649
-1.61892
0.821843
2.84053
4.38968
5.54656
6.36767
6.89391
7.15867
7.22406
7.00554
6.45323
5.62618
4.56128
2.94648
0.868325
-1.27598
-3.47803
-5.71944
-7.98166
-10.24
-12.4668
-14.6353
91.1587
92.5154
93.9086
94.8509
95.0664
94.5571
93.4192
91.5258
88.7478
85.0527
80.4309
74.8507
68.2129
60.3361
50.6941
40.1767
24.9568
89.9407
88.7359
87.5778
86.4897
85.4771
84.5464
83.7821
83.1617
82.5654
82.0128
81.5081
81.049
80.6754
80.3624
80.0807
79.8321
79.6176
79.4363
79.2868
79.167
79.0744
79.0062
78.9593
78.9305
78.9163
78.9147
78.9186
78.9314
78.9362
16.4612
5.67054
-5.86326
-14.9119
-20.1994
-22.1196
-21.3858
-18.721
-15.282
-11.968
-8.82207
-5.86594
-3.11668
-0.614484
1.4443
3.01209
4.17087
4.98027
5.48299
5.71368
5.73597
5.46174
4.83924
3.93083
2.4392
0.463484
-1.59176
-3.71421
-5.88592
-8.08558
-10.2951
-12.4889
-14.6376
-16.7156
91.0506
92.4849
94.0369
95.2556
95.833
95.7154
94.9783
93.5233
91.1955
87.9481
83.7845
78.7009
72.6493
65.4882
56.9882
46.4488
34.677
17.3553
89.7951
88.5756
87.417
86.3299
85.3224
84.4947
83.8254
83.1743
82.5654
82.0037
81.4868
81.0654
80.7107
80.3869
80.0966
79.842
79.6227
79.4378
79.2856
79.1641
79.0706
79.002
78.9553
78.9271
78.9138
78.9131
78.9177
78.9315
78.9368
7.59031
-4.35445
-16.2038
-24.2374
-27.578
-27.5953
-24.8338
-21.0434
-17.3708
-13.8769
-10.5921
-7.52959
-4.69833
-2.13497
-0.0365727
1.54882
2.70798
3.50366
3.98043
4.17412
4.15006
3.8167
3.12142
1.78943
-0.0580209
-2.00412
-4.03321
-6.12392
-8.25265
-10.3985
-12.5424
-14.6589
-16.7169
-18.6923
90.8983
92.3878
94.0599
95.5078
96.4066
96.6647
96.3436
95.3432
93.4796
90.69
86.9798
82.3711
76.8517
70.3481
62.6632
53.5206
41.9829
28.7285
8.6364
89.6204
88.3965
87.2363
86.1527
85.2622
84.5458
83.8401
83.1743
82.5546
81.978
81.5075
81.1102
80.7425
80.4082
80.1105
79.8499
79.6259
79.4375
79.283
79.16
79.0657
78.997
78.9508
78.9234
78.911
78.9114
78.9169
78.9316
78.9375
-2.89918
-15.7999
-27.3926
-33.7054
-34.4657
-31.8362
-27.5833
-23.4614
-19.542
-15.8635
-12.4402
-9.2725
-6.36081
-3.73796
-1.60157
-0.000350461
1.15718
1.93683
2.38497
2.53869
2.46502
2.06996
0.955303
-0.725303
-2.53455
-4.4494
-6.44424
-8.49078
-10.5648
-12.6445
-14.7104
-16.7373
-18.6927
-20.5544
90.711
92.2363
93.9953
95.6259
96.8061
97.4016
97.4736
96.9528
95.5822
93.2655
90.0134
85.8637
80.8416
74.9146
67.9784
59.7665
49.9636
37.2906
22.2803
-1.69384
89.4232
88.1942
87.0351
86.0833
85.3219
84.5627
83.8401
83.1617
82.5237
82.0036
81.5631
81.1504
80.7703
80.4271
80.122
79.8555
79.627
79.4354
79.2787
79.1544
79.0597
78.9913
78.9459
78.9195
78.9082
78.9096
78.9161
78.9317
78.9383
-15.6724
-28.8831
-39.585
-42.7605
-39.8402
-35.1494
-30.4024
-25.9385
-21.7712
-17.9127
-14.3556
-11.0871
-8.09885
-5.42011
-3.24873
-1.63433
-0.481014
0.279889
0.696603
0.807329
0.681503
-0.12743
-1.58119
-3.21228
-4.98373
-6.86103
-8.80997
-10.8012
-12.8089
-14.8105
-16.7864
-18.7117
-20.5536
-22.289
90.4965
92.0417
93.8594
95.6288
97.0501
97.9457
98.3637
98.2987
97.4662
95.6591
92.8774
89.1826
84.6279
79.2276
72.9213
65.5725
56.8284
46.3493
32.3642
15.3073
-14.4954
89.1987
87.968
86.9558
86.1527
85.3414
84.5627
83.8254
83.1248
82.555
82.0717
81.6133
81.1859
80.7952
80.4431
80.1308
79.8585
79.6257
79.4311
79.2725
79.1474
79.0527
78.985
78.9406
78.9154
78.9053
78.9077
78.9152
78.9318
78.9391
-32.3714
-43.7577
-51.4685
-49.9412
-43.9774
-38.4542
-33.2262
-28.4328
-24.0321
-20.0053
-16.324
-12.9627
-9.90488
-7.17612
-4.97433
-3.35045
-2.20465
-1.46557
-1.08327
-1.01785
-1.55499
-2.69062
-4.08058
-5.66532
-7.39464
-9.22386
-11.1165
-13.0417
-14.9717
-16.8837
-18.7582
-20.5706
-22.2887
-23.8914
90.2504
91.8128
93.6669
95.5348
97.1569
98.3165
99.037
99.3691
99.0664
97.8323
95.5605
92.3259
88.2231
83.303
77.5608
70.9043
63.1624
53.8791
42.7219
27.2146
7.89077
-32.2974
88.9465
87.8782
87.0361
86.175
85.3414
84.5457
83.7818
83.1625
82.6372
82.1332
81.6578
81.218
80.8166
80.4557
80.1363
79.8585
79.6217
79.4244
79.2643
79.1389
79.0448
78.9782
78.935
78.9111
78.9022
78.9059
78.9144
78.932
78.9399
-52.899
-56.5662
-62.6963
-55.1407
-47.9129
-41.6516
-35.9887
-30.9009
-26.2938
-22.1179
-18.3278
-14.8861
-11.7689
-8.99854
-6.77275
-5.14434
-4.01009
-3.29635
-2.95087
-3.29736
-4.15024
-5.20446
-6.53756
-8.07398
-9.75209
-11.5238
-13.3505
-15.199
-17.0404
-18.852
-20.6147
-22.3053
-23.8902
-25.3511
89.9728
91.5456
93.4295
95.3625
97.1441
98.5332
99.5168
100.187
100.361
99.7103
98.026
95.2891
91.6328
87.1644
81.9205
75.8729
68.8929
60.7788
50.9658
39.1374
21.9379
-0.0918518
-54.5148
88.8453