/*--------------------------------*- C++ -*----------------------------------*\
  =========                 |
  \\      /  F ield         | OpenFOAM: The Open Source CFD Toolbox
   \\    /   O peration     | Website:  https://openfoam.org
    \\  /    A nd           | Version:  8
     \\/     M anipulation  |
\*---------------------------------------------------------------------------*/
FoamFile
{
    version     2.0;
    format      ascii;
    class       volScalarField;
    location    "0.24";
    object      p;
}
// * * * * * * * * * * * * * * * * * * * * * * * * * * * * * * * * * * * * * //

dimensions      [0 2 -2 0 0 0 0];

internalField   nonuniform List<scalar> 
15677
(
74.5351
74.1785
73.7658
74.2431
73.754
73.7677
74.2181
73.7812
73.777
73.6613
74.1927
73.7826
73.7773
73.6703
73.5698
74.1709
73.7848
73.7772
73.6695
73.5774
73.4737
74.1475
73.7871
73.7768
73.6706
73.5773
73.4803
73.3592
74.1223
73.7897
73.776
73.6709
73.5783
73.4803
73.365
73.2225
74.0962
73.7928
73.7745
73.671
73.5788
73.4813
73.3651
73.2276
73.0563
74.0689
73.7948
73.7726
73.6709
73.5793
73.4818
73.3661
73.2278
73.0607
72.8531
74.0403
73.7963
73.77
73.6704
73.5796
73.4825
73.3668
73.2289
73.061
72.8567
72.6049
74.0108
73.7979
73.7667
73.6702
73.58
73.4831
73.3676
73.2297
73.0622
72.8572
72.6078
72.3038
73.9808
73.799
73.7633
73.6703
73.5806
73.484
73.3687
73.2309
73.0634
72.8586
72.6085
72.3059
71.9411
73.9511
73.7991
73.7598
73.6707
73.5816
73.4853
73.3701
73.2324
73.0649
72.8601
72.6102
72.3068
71.9424
71.5086
73.9244
73.7978
73.7563
73.6715
73.5833
73.4872
73.3722
73.2345
73.067
72.8621
72.6121
72.3087
71.9434
71.5089
70.998
73.9016
73.7957
73.7528
73.6729
73.586
73.4903
73.3755
73.2376
73.07
72.8649
72.6148
72.3111
71.9458
71.5102
70.9973
70.4019
73.8816
73.7937
73.7499
73.6749
73.5899
73.4949
73.3803
73.2424
73.0744
72.8691
72.6186
72.3146
71.9488
71.5129
70.9989
70.4
69.7135
73.8642
73.7916
73.7477
73.6775
73.5953
73.5014
73.3873
73.2494
73.0811
72.8752
72.6241
72.3196
71.9533
71.5167
71.0019
70.4019
69.7103
68.9271
73.8491
73.7897
73.7461
73.6804
73.602
73.5104
73.3973
73.2595
73.0909
72.8843
72.6323
72.3269
71.9597
71.5224
71.0067
70.4054
69.7124
68.9225
68.0383
73.836
73.7878
73.7451
73.6838
73.6093
73.5214
73.411
73.2738
73.1049
72.8975
72.6444
72.3376
71.9691
71.5305
71.0137
70.4112
69.7165
68.9249
68.0321
67.0443
73.8248
73.7862
73.7446
73.6877
73.6173
73.5334
73.4276
73.2933
73.1246
72.9166
72.662
72.3534
71.9829
71.5423
71.0237
70.4197
69.7233
68.9295
68.0349
67.0364
65.9439
73.8159
73.7846
73.7446
73.6919
73.626
73.5466
73.4457
73.3171
73.1517
72.9432
72.6872
72.3764
72.0031
71.5597
71.0384
70.4319
69.7335
68.9375
68.04
67.0394
65.9342
64.7379
73.8091
73.7831
73.7451
73.6966
73.6353
73.5608
73.4655
73.3429
73.1845
72.9797
72.7225
72.4091
72.0324
71.5851
71.0599
70.4498
69.7481
68.9493
68.0491
67.0451
65.9375
64.7262
63.4294
73.8038
73.7818
73.7459
73.7015
73.6451
73.5758
73.4868
73.3712
73.2203
73.0241
72.7707
72.4549
72.0742
71.6219
71.0914
70.4759
69.7694
68.9665
68.0627
67.0553
65.9436
64.7298
63.4155
62.0229
73.7997
73.7806
73.7469
73.7066
73.6553
73.5916
73.5093
73.4016
73.2595
73.0725
72.8295
72.5176
72.1327
71.6744
71.1368
70.5141
69.8006
68.9915
68.0825
67.0707
65.9549
64.7362
63.4193
62.0068
60.5307
73.7964
73.7796
73.748
73.7113
73.6653
73.6079
73.5329
73.4338
73.3016
73.1255
72.8937
72.5941
72.2128
71.7478
71.2016
70.5693
69.8462
69.0281
68.1113
67.0931
65.9719
64.7484
63.4258
62.0106
60.5118
58.983
73.7938
73.7789
73.7491
73.7156
73.6745
73.624
73.5573
73.4675
73.3462
73.1825
72.964
72.6776
72.3106
71.8485
71.2923
70.648
69.9122
69.0816
68.1535
67.1256
65.9967
64.7669
63.4387
62.0167
60.5129
58.9275
57.3194
73.7917
73.7782
73.7503
73.7195
73.6829
73.6387
73.5812
73.5023
73.3929
73.243
73.0397
72.7692
72.4175
71.9715
71.4168
70.7583
70.0064
69.1592
68.2152
67.1733
66.0327
64.7937
63.4581
62.0298
60.5176
58.9301
57.2523
55.525
73.79
73.7777
73.7513
73.7231
73.6904
73.652
73.6032
73.5365
73.4413
73.3063
73.12
72.868
72.535
72.1062
71.5692
70.91
70.1384
69.27
68.3049
67.2434
66.0858
64.8328
63.4864
62.0494
60.529
58.931
57.2549
55.4948
53.6731
73.7885
73.7773
73.7522
73.7264
73.6971
73.664
73.623
73.5678
73.4886
73.3718
73.2043
72.973
72.6618
72.2545
71.7364
71.0958
70.3203
69.4257
68.4335
67.3456
66.1641
64.8908
63.5279
62.0783
60.5473
58.9395
57.2492
55.487
53.6616
51.7694
73.7874
73.777
73.7529
73.7294
73.7031
73.6747
73.6407
73.596
73.5321
73.4361
73.2915
73.0831
72.7966
72.4147
71.9206
71.3002
70.5438
69.6409
68.6145
67.4925
66.2787
64.9767
63.5898
62.1211
60.575
58.955
57.257
55.4776
53.6447
51.7639
49.6229
73.7864
73.7767
73.7536
73.7322
73.7085
73.6842
73.6566
73.6214
73.5713
73.4951
73.3771
73.1973
72.9383
72.5853
72.1201
71.5259
70.79
69.9058
68.8652
67.6998
66.4438
65.103
63.6823
62.1857
60.6173
58.9802
57.2708
55.4869
53.6362
51.7452
49.6206
47.2044
73.7856
73.7765
73.7542
73.7347
73.7132
73.6926
73.6707
73.644
73.6065
73.5484
73.4558
73.3094
73.0854
72.7648
72.3329
71.7707
71.0626
70.1984
69.1748
67.9878
66.6779
65.2859
63.8192
62.2833
60.6828
59.0205
57.2943
55.5003
53.6459
51.7387
49.6028
47.2041
44.7584
73.7849
73.7763
73.7548
73.7368
73.7174
73.7002
73.6832
73.6641
73.6379
73.5962
73.5269
73.4125
73.23
72.9516
72.5571
72.0323
71.3588
70.523
69.5177
68.3447
67.0042
65.5464
64.0187
62.4292
60.7836
59.0852
57.333
55.5235
53.6594
51.747
49.5962
47.1875
44.7599
42.3274
73.7843
73.7761
73.7554
73.7387
73.7212
73.7068
73.6943
73.682
73.6659
73.639
73.5907
73.5058
73.3632
73.1354
72.7908
72.3086
71.6762
70.8767
69.8992
68.7412
67.41
65.9111
64.3045
62.6437
60.9364
59.1873
57.3968
55.5615
53.6826
51.7605
49.6012
47.1804
44.7453
42.329
39.9316
73.776
73.7836
73.7559
73.7404
73.7245
73.7127
73.7042
73.6979
73.6907
73.677
73.6478
73.5896
73.4837
73.3049
73.0212
72.597
72.012
71.2565
70.3159
69.1835
67.8625
66.3666
64.7066
62.9529
61.1635
59.345
57.4996
55.6245
53.7197
51.783
49.6133
47.1821
44.7381
42.3155
39.9331
37.5838
73.7564
73.7759
73.7828
73.7419
73.7274
73.7179
73.7129
73.712
73.7128
73.7108
73.6986
73.6646
73.5922
73.4585
73.234
72.882
72.3634
71.6594
70.7647
69.6683
68.369
66.8764
65.2114
63.3905
61.4936
59.5823
57.6606
55.7274
53.7814
51.8181
49.6332
47.1914
44.7368
42.3072
39.9204
37.5846
35.2961
73.7432
73.7571
73.7758
73.7821
73.73
73.7226
73.7207
73.7244
73.7323
73.7409
73.7439
73.7315
73.6893
73.5969
73.4272
73.1458
72.7115
72.0822
71.2422
70.192
68.9259
67.449
65.7785
63.9428
61.9639
59.9302
57.9057
55.8905
53.8831
51.8773
49.6645
47.2066
44.7428
42.3024
39.9105
37.5724
35.2959
33.0796
73.7322
73.745
73.758
73.7757
73.7814
73.7267
73.7275
73.7355
73.7497
73.7675
73.784
73.791
73.776
73.7209
73.6014
73.3857
73.0344
72.5022
71.7446
70.7509
69.5295
68.081
66.4182
64.5662
62.5609
60.4296
58.2683
56.141
54.0462
51.9759
49.7186
47.2317
44.7523
42.3037
39.9018
37.5607
35.2841
33.0784
30.9426
73.7302
73.7353
73.747
73.7589
73.7756
73.7808
73.7336
73.7453
73.765
73.7911
73.8196
73.8438
73.8531
73.8317
73.7578
73.6023
73.3286
72.8927
72.2454
71.341
70.1759
68.7685
67.1268
65.2722
63.2379
61.0673
58.7923
56.5146
54.299
52.1362
49.8112
47.2774
44.7695
42.3061
39.8973
37.5478
35.2702
33.0668
30.9404
28.8914
73.7387
73.7349
73.7387
73.7491
73.7598
73.7756
73.7801
73.7539
73.7787
73.812
73.8512
73.8907
73.9217
73.9304
73.8976
73.797
73.5949
73.2494
72.7122
71.931
70.8609
69.5074
67.9007
66.0574
64.008
61.7942
59.4658
57.0584
54.6792
52.3876
49.9651
47.3596
44.8043
42.3136
39.8915
37.537
35.253
33.0504
30.9289
28.8881
26.93
73.7613
73.7457
73.7399
73.7421
73.7511
73.7607
73.7755
73.7796
73.7907
73.8306
73.8792
73.9323
73.9826
74.0182
74.0223
73.9714
73.8345
73.5729
73.1398
72.4829
71.5484
70.2935
68.7357
66.9184
64.8681
62.6245
60.2371
57.7615
55.2369
52.7697
50.2107
47.5017
44.8728
42.3351
39.8874
37.5219
35.2354
33.0288
30.9099
28.8766
26.9257
25.061
73.8008
73.771
73.7526
73.7449
73.7455
73.753
73.7616
73.7755
73.7791
73.847
73.9041
73.9692
74.0366
74.0962
74.1333
74.127
74.0494
73.8645
73.5284
72.9898
72.1937
71.0857
69.6278
67.8515
65.8154
63.5559
61.1222
58.5705
55.9623
53.3347
50.5893
47.7348
44.9984
42.3867
39.8934
37.505
35.2104
33.0041
30.8839
28.8549
26.9142
25.056
23.2858
73.8608
73.8143
73.7803
73.7596
73.7499
73.7487
73.755
73.7626
73.7754
73.7786
73.9261
74.002
74.0845
74.1654
74.2319
74.2657
74.2415
74.1265
73.8796
73.4518
72.7882
71.8321
70.5308
68.8529
66.8466
64.5865
62.1196
59.5032
56.8011
54.0739
51.1544
48.1015
45.2131
42.4918
39.9253
37.4938
35.1797
32.9687
30.8518
28.8245
26.8898
25.0442
23.2799
21.6039
73.9444
73.8789
73.8264
73.7897
73.7665
73.7546
73.7519
73.7568
73.7634
73.7754
73.7782
74.0311
74.1272
74.2269
74.3196
74.3891
74.4129
74.3611
74.1956
73.8702
73.3317
72.5222
71.385
69.8711
67.9583
65.7136
63.2285
60.5595
57.773
54.9334
51.8993
48.6552
45.5589
42.6824
40.0064
37.5038
35.15
32.9235
30.8057
28.785
26.8551
25.0171
23.2679
21.5973
20.0145
74.0551
73.9686
73.8946
73.8389
73.799
73.7731
73.7593
73.7549
73.7586
73.7643
73.7754
73.7778
74.1649
74.2816
74.3975
74.4988
74.5656
74.5706
74.4791
74.2477
73.8253
73.155
72.1778
70.8385
69.0944
66.9348
64.4472
61.7396
58.8792
55.9346
52.7713
49.3924
46.089
42.9992
40.168
37.5582
35.1367
32.8744
30.7455
28.728
26.8082
24.9782
23.2382
21.5851
20.0072
18.5156
74.1961
74.087
73.9886
73.9109
73.8511
73.8079
73.7795
73.7637
73.7579
73.7603
73.7652
73.7753
73.7774
74.3301
74.4669
74.5964
74.7014
74.7575
74.7327
74.5868
74.2715
73.7315
72.9072
71.74
70.1788
68.1891
65.7743
63.0431
60.1213
57.08
53.7932
50.2627
46.8031
43.4943
40.4484
37.6861
35.162
32.8367
30.6766
28.6527
26.7403
24.924
23.1952
21.5529
19.9948
18.5077
17.1045
74.3699
74.2375
74.1122
74.0095
73.9266
73.8627
73.8163
73.7856
73.768
73.7607
73.7619
73.766
73.7753
73.7771
74.5283
74.6834
74.8223
74.924
74.9593
74.8908
74.6734
74.2539
73.5738
72.5725
71.1934
69.3921
67.1448
64.4701
61.5004
58.3729
54.969
51.2899
47.6544
44.1712
40.8983
37.924
35.2525
32.8311
30.6139
28.5639
26.6498
24.8454
23.1338
21.506
19.9601
18.495
17.0961
15.7783
74.5786
74.4232
74.2691
74.1388
74.0297
73.9416
73.8737
73.8243
73.7913
73.772
73.7633
73.7635
73.7667
73.7753
73.7768
74.7604
74.9303
75.0724
75.1613
75.1628
75.0344
74.7256
74.1797
73.3358
72.1342
70.5228
68.4658
65.9519
63.0187
59.8162
56.304
52.4796
48.6664
44.9868
41.525
38.3197
35.4425
32.8815
30.5761
28.476
26.5413
24.74
23.0448
21.4376
19.9095
18.4579
17.0832
15.7695
14.5337
74.8232
74.6466
74.4625
74.3026
74.1644
74.0487
73.9557
73.884
73.8319
73.7967
73.7757
73.7658
73.7649
73.7675
73.7753
73.7766
75.0258
75.205
75.3416
75.4057
75.3578
75.1502
74.7282
74.0318
72.9998
71.5754
69.7132
67.3878
64.6045
61.4143
57.8036
53.8396
49.8471
45.964
42.2889
38.8839
35.7767
33.0195
30.5845
28.4052
26.4282
24.6122
22.9249
21.3385
19.8343
18.4038
17.0439
15.7562
14.5243
13.367
75.1033
74.9091
74.6951
74.5045
74.3348
74.1883
74.0665
73.9688
73.8937
73.8389
73.8018
73.7792
73.7681
73.7662
73.7681
73.7753
73.7764
75.3222
75.5029
75.6227
75.6472
75.5314
75.223
74.6635
73.7916
72.5476
70.8794
68.7503
66.1497
63.0933
59.4744
55.3783
51.2065
47.1124
43.2116
39.581
36.2675
33.286
30.6675
28.3703
26.3242
24.4742
22.7783
21.2045
19.7255
18.3222
16.9865
15.7149
14.5109
13.3572
12.2748
75.4169
75.211
74.9688
74.7474
74.5446
74.3647
74.2105
74.0829
73.9809
73.9026
73.8454
73.8064
73.7824
73.7701
73.7673
73.7686
73.7753
73.7763
75.6455
75.8173
75.9061
75.873
75.6682
75.2348
74.5125
73.4398
71.9606
70.0297
67.6231
64.7382
61.242
57.1061
52.7561
48.4437
44.3034
40.4297
36.8835
33.6937
30.8612
28.3963
26.2454
24.3371
22.6158
21.0399
19.578
18.204
16.8987
15.6544
14.4675
13.3435
12.2643
11.2527
75.7599
75.551
75.2843
75.0336
74.7972
74.5817
74.3922
74.2309
74.0979
73.9919
73.9106
73.8512
73.8105
73.7853
73.7719
73.7682
73.7691
73.7753
73.7761
75.9889
76.1386
76.1792
76.0679
75.7501
75.1662
74.2546
72.9565
71.2206
69.0126
66.3147
62.9857
58.949
54.5084
49.9704
45.5756
41.4393
37.6393
34.2159
31.1779
28.5134
26.2134
24.2144
22.4462
20.8536
19.3961
18.0438
16.7717
15.5607
14.4042
13.2983
12.2504
11.2412
10.3014
76.126
75.9258
75.6408
75.3644
75.0953
74.843
74.6157
74.4173
74.2494
74.1115
74.0018
73.9178
73.8563
73.8141
73.7876
73.7733
73.769
73.7695
73.7753
73.776
76.3434
76.4547
76.4269
76.2136
75.7572
74.9956
73.8687
72.3213
70.3111
67.8085
64.6677
60.7799
56.3885
51.7042
47.0395
42.6193
38.5417
34.8613
31.5954
28.7328
26.2512
24.124
22.2802
20.6523
19.1868
17.8454
16.5994
15.4254
14.305
13.2325
12.2035
11.2273
10.2842
9.50769
76.5059
76.33
76.0356
75.7395
75.4403
75.1517
74.8848
74.6465
74.4399
74.2659
74.1234
74.0105
73.924
73.8607
73.817
73.7896
73.7746
73.7697
73.7698
73.7753
73.7759
76.6969
76.7506
76.6309
76.2899
75.6671
74.7008
73.3328
71.5156
69.2108
66.2697
62.5532
58.2622
53.5709
48.7069
43.981
39.5992
35.6348
32.1161
29.0371
26.369
24.0811
22.1317
20.4439
18.9549
17.614
16.3853
15.2417
14.1619
13.128
12.1353
11.179
10.271
9.5016
8.83884
76.8877
76.7556
76.4641
76.157
75.8328
75.5095
75.2028
74.9223
74.6739
74.4597
74.2801
74.1337
74.0178
73.9291
73.8641
73.8194
73.7913
73.7756
73.7703
73.7701
73.7753
73.7759
77.0343
77.008
76.7706
76.2737
75.4567
74.258
72.6262
70.5165
67.7785
64.2447
60.0798
55.4394
50.515
45.5422
40.8267
36.5457
32.7441
29.4228
26.5546
24.0951
22.0077
20.238
18.7053
17.3526
16.1329
15.0127
13.9674
12.9776
12.026
11.109
10.2214
9.49472
8.84592
8.14366
77.2561
77.1916
76.9191
76.6132
76.2715
75.9176
75.572
75.2484
74.9554
74.6976
74.4766
74.2921
74.1421
74.0235
73.933
73.8669
73.8213
73.7926
73.7764
73.7708
73.7704
73.7753
73.7758
77.3375
77.2062
76.8227
76.1412
75.1008
73.6451
71.7241
69.1857
65.8385
61.8194
57.268
52.3492
47.2624
42.2538
37.6157
33.4909
29.8938
26.7988
24.159
21.9176
20.0338
18.4435
17.0634
15.8432
14.7403
13.7244
12.773
11.8688
10.9952
10.15
9.44441
8.84035
8.14409
7.39167
77.5924
77.6244
77.3909
77.1019
76.7534
76.3752
75.9938
75.6274
75.2883
74.9838
74.7175
74.4905
74.3017
74.1485
74.0278
73.9359
73.8689
73.8227
73.7936
73.7771
73.7711
73.7706
73.7753
73.7758
77.5852
77.3213
76.7623
75.8657
74.5756
72.8345
70.4879
67.327
63.4699
59.0433
54.1801
49.0481
43.8651
38.8871
34.3857
30.4643
27.1059
24.2588
21.8595
19.8409
18.1608
16.7473
15.516
14.4238
13.433
12.517
11.6548
10.8317
10.0318
9.37265
8.79122
8.13321
7.38459
6.56752
77.8748
78.0366
77.8666
77.6145
77.2734
76.8802
76.4682
76.0612
75.6755
75.3221
75.0072
74.7335
74.5012
74.3085
74.1529
74.0307
73.9379
73.8703
73.8237
73.7943
73.7776
73.7714
73.7707
73.7753
73.7757
77.753
77.3281
76.5617
75.4218
73.8501
71.6857
68.7086
65.0266
60.7563
55.9967
50.8768
45.587
40.3682
35.482
31.1702
27.4921
24.3986
21.8145
19.6622
17.8676
16.3888
15.1478
14.0604
13.0911
12.2076
11.3864
10.6089
9.86263
9.25086
8.7184
8.08412
7.36917
6.55748
5.66978
78.0779
78.4084
78.3303
78.1397
77.824
77.4285
76.9938
76.5502
76.1193
75.716
75.3496
75.0255
74.7453
74.5084
74.3129
74.1555
74.0324
73.939
73.8711
73.8244
73.7948
73.7779
73.7717
73.7709
73.7753
73.7757
77.8146
77.1979
76.1941
74.775
72.7816
69.9854
66.4881
62.3989
57.7837
52.7323
47.3985
42.0032
36.8082
32.0729
27.9981
24.5959
21.7867
19.4747
17.5715
15.9988
14.7165
13.6425
12.6935
11.8417
11.0602
10.3289
9.63144
9.07707
8.59384
8.00917
7.31853
6.54072
5.65851
4.69551
78.1737
78.7163
78.7631
78.6629
78.3953
78.0136
77.5672
77.0936
76.6205
76.1677
75.7484
75.3706
75.0385
74.7526
74.5124
74.3149
74.1566
74.033
73.9395
73.8715
73.8247
73.7951
73.7781
73.7719
73.771
73.7753
73.7757
77.7403
76.9021
75.6214
73.7807
71.1603
67.8538
63.9626
59.5235
54.5899
49.2762
43.7707
38.3258
33.2171
28.6895
24.8937
21.7933
19.2813
17.2451
15.5895
14.2341
13.1419
12.2283
11.4117
10.6717
9.98683
9.34058
8.83905
8.416
7.88157
7.2404
6.48835
5.64134
4.68334
3.63828
78.1301
78.9347
79.1424
79.1668
78.9741
78.6267
78.1831
77.689
77.1791
76.6789
76.2062
75.7726
75.3849
75.0458
74.7559
74.5135
74.315
74.1563
74.0327
73.9393
73.8714
73.8247
73.7951
73.7784
73.7721
73.771
73.7753
73.7757
77.4985
76.3998
74.698
72.2382
69.123
65.44
61.1985
56.4222
51.1877
45.6431
40.0145
34.5821
29.6239
25.3583
21.8775
19.0981
16.8901
15.1294
13.7166
12.5718
11.6622
10.9019
10.2113
9.57707
8.9837
8.53937
8.17236
7.69918
7.10924
6.40672
5.58733
4.66525
3.62553
2.49103
77.9105
79.0356
79.4431
79.6306
79.5447
79.2563
78.834
78.332
77.7931
77.2496
76.7247
76.2343
75.7883
75.392
75.0481
74.7557
74.5121
74.3134
74.1548
74.0315
73.9385
73.8709
73.8244
73.7954
73.7788
73.7722
73.771
73.7753
73.7758
77.0452
75.5436
73.2359
70.2973
66.8238
62.794
58.2037
53.0976
47.5825
41.8459
36.1517
30.7994
26.0562
22.1021
18.9656
16.5201
14.6183
13.1289
11.9515
11.0093
10.2743
9.65957
9.08812
8.55409
8.17041
7.86516
7.44948
6.92175
6.27156
5.50241
4.6096
3.6063
2.47803
1.24663
77.4649
78.9879
79.6367
80.0306
80.088
79.8882
79.5096
79.0162
78.4593
77.8789
77.3047
76.7577
76.2516
75.7951
75.3929
75.0459
74.7522
74.5085
74.3102
74.1523
74.0296
73.937
73.8699
73.8246
73.796
73.7789
73.7721
73.771
73.7753
73.7758
76.2293
74.163
71.3935
68.1114
64.2973
59.9131
54.9736
49.5483
43.7805
37.9005
32.2065
27.0056
22.54
18.9406
16.1707
14.0661
12.4682
11.2429
10.2923
9.54358
8.97427
8.49718
8.03842
7.72468
7.48603
7.13412
6.66539
6.07839
5.36294
4.52145
3.54898
2.45802
1.23351
-0.102514
78.7493
76.6418
79.6902
80.3402
80.5819
80.5051
80.1974
79.7328
79.1723
78.5643
77.9458
77.344
76.7774
76.2582
75.7942
75.3882
75.0398
74.7462
74.5031
74.3058
74.1489
74.0269
73.9351
73.87
73.8255
73.7963
73.7789
73.7721
73.7709
73.7753
73.7759
74.9001
72.419
69.3194
65.7018
61.5327
56.7887
51.5024
45.7747
39.7914
33.8267
28.2059
23.2293
19.0991
15.8901
13.5019
11.74
10.4399
9.46966
8.73588
8.17078
7.75805
7.41086
7.18736
7.02676
6.74398
6.34114
5.81474
5.16353
4.37734
3.45746
2.39879
1.21293
-0.115796
-1.56446
79.5651
78.1764
75.2969
80.5273
81.0019
81.0864
80.8817
80.4706
79.9245
79.3012
78.6461
77.9933
77.367
76.7839
76.2552
75.7864
75.3788
75.0304
74.7377
74.4961
74.3002
74.1443
74.0235
73.9348
73.8712
73.8259
73.7963
73.7787
73.7719
73.7707
73.7753
73.7759
73.223
70.4538
67.0251
63.0524
58.5194
53.4118
47.7861
41.7809
35.6294
29.6489
24.1799
19.4988
15.755
12.9638
10.9656
9.54294
8.53212
7.80637
7.27836
6.88674
6.62162
6.53021
6.47126
6.27007
5.93907
5.48081
4.89196
4.17117
3.30829
2.30363
1.15163
-0.136999
-1.57787
-3.14751
80.5554
79.1401
77.1574
73.6204
81.3174
81.6094
81.5437
81.2158
80.7062
80.0834
79.402
78.7042
78.0207
77.3737
76.7785
76.2438
75.7729
75.3653
75.0182
74.7273
74.4876
74.2932
74.1389
74.0228
73.9366
73.8718
73.8259
73.796
73.7784
73.7717
73.7706
73.7753
73.776
71.3339
68.2727
64.49
60.1513
55.2472
49.7761
43.824
37.5747
31.3137
25.3956
20.1598
15.8411
12.5263
10.1714
8.56474
7.47451
6.74224
6.24905
5.91546
5.68724
5.70065
5.78931
5.6949
5.44931
5.06578
4.54747
3.89101
3.09484
2.14895
1.05262
-0.200356
-1.59979
-3.161
-4.86019
81.4959
80.3187
78.2732
75.819
71.7449
82.0457
82.1627
81.9513
81.5053
80.9026
80.2085
79.4743
78.7381
78.0284
77.366
76.7631
76.2255
75.7544
75.3484
75.0036
74.7153
74.4774
74.285
74.1374
74.0252
73.9374
73.8718
73.8255
73.7954
73.7781
73.7714
73.7704
73.7753
73.7761
69.2336
65.851
61.7025
56.9885
51.7089
45.8777
39.6182
33.1687
26.8687
21.099
16.1778
12.2814
9.42828
7.51947
6.30059
5.53267
5.06635
4.79325
4.64278
4.71558
4.92603
4.98613
4.85286
4.55888
4.11843
3.53505
2.80537
1.92764
0.891993
-0.303323
-1.66517
-3.18365
-4.87367
-6.71121
82.3668
81.4511
79.6787
77.0896
74.2699
69.6669
82.712
82.6583
82.3065
81.7481
81.0585
80.2992
79.5171
78.7479
78.0187
77.3461
76.7391
76.2011
75.7318
75.3286
74.9869
74.701
74.4657
74.2826
74.1407
74.0263
73.9374
73.8712
73.8246
73.7951
73.7779
73.7711
73.7701
73.7753
73.7762
66.8925
63.1783
58.6536
53.5572
47.8987
41.7136
35.1733
28.5796
22.3236
16.7939
12.2653
8.84156
6.47247
5.01187
4.17232
3.71379
3.49989
3.4343
3.61234
3.89859
4.08636
4.11514
3.93946
3.59302
3.09087
2.43698
1.62811
0.662255
-0.470335
-1.77229
-3.25104
-4.89703
-6.7246
-8.70902
83.1675
82.5075
81.0432
78.7282
75.7012
72.5211
67.3501
83.3121
83.0928
82.6066
81.9428
81.173
80.3544
79.5308
78.7366
77.9941
77.3158
76.7079
76.1717
75.7057
75.3063
74.9676
74.6848
74.462
74.287
74.1421
74.0263
73.9366
73.8699
73.8244
73.795
73.7775
73.7707
73.7698
73.7753
73.7764
64.3012
60.2475
55.3379
49.8517
43.811
37.2818
30.4971
23.8297
17.7123
12.517
8.45192
5.53994
3.66719
2.65001
2.1771
2.01343
2.03797
2.33446
2.74627
3.01312
3.17606
3.17057
2.94883
2.54551
1.97647
1.24627
0.351886
-0.709084
-1.94612
-3.36256
-4.96645
-6.74862
-8.72184
-10.8658
83.8927
83.4881
82.3251
80.3323
77.5737
74.1415
70.5364
64.785
83.8416
83.4629
82.8498
82.0881
81.245
80.3744
79.5189
78.7074
77.957
77.2768
76.6706
76.1381
75.6767
75.2808
74.9459
74.6795
74.4678
74.2888
74.1421
74.0252
73.9348
73.8699
73.8247
73.7948
73.777
73.7702
73.7694
73.7752
73.7766
61.4551
57.0557
51.7511
45.8652
39.4388
32.5802
25.6005
18.9472
13.0736
8.30508
4.76402
2.39107
1.01756
0.432695
0.310965
0.426578
0.855092
1.41047
1.8079
2.05354
2.18924
2.14646
1.87468
1.40967
0.768226
-0.0444349
-1.0311
-2.19447
-3.54368
-5.08261
-6.81987
-8.74596
-10.8745
-13.5864
84.5363
84.3862
83.5268
81.8489
79.4146
76.27
72.3731
68.3079
61.9677
84.2966
83.7661
83.0344
82.1826
81.2747
80.3635
79.4854
78.663
77.9094
77.2306
76.6284
76.1011
75.6437
75.2523
74.9384
74.6868
74.4701
74.2888
74.1407
74.0227
73.9351
73.8708
73.8247
73.7943
73.7764
73.7696
73.769
73.7752
73.7768
58.3535
53.601
47.8872
41.5886
34.7717
27.6065
20.5005
13.9673
8.44906
4.19313
1.22431
-0.594418
-1.4748
-1.64296
-1.43093
-0.85729
-0.138272
0.409733
0.791473
1.01384
1.11982
1.03642
0.710274
0.178451
-0.541265
-1.44294
-2.52893
-3.80222
-5.27147
-6.94085
-8.81917
-10.8986
-13.6003
-16.8323
85.0933
85.1936
84.6424
83.282
81.1634
78.3625
74.7809
70.3834
65.8375
58.8986
84.6737
84.0004
83.1586
82.2263
81.2672
80.3266
79.4337
78.6061
77.8531
77.1785
76.5821
76.0594
75.6072
75.2423
74.9478
74.6898
74.4701
74.287
74.1374
74.0235
73.937
73.8714
73.8243
73.7935
73.7755
73.769
73.7686
73.7752
73.7771
54.9971
49.8802
43.7377
37.0062
29.7956
22.3628
15.2221
8.93161
3.8816
0.213872
-2.14878
-3.41038
-3.8107
-3.58122
-2.84035
-1.93508
-1.21367
-0.673721
-0.309149
-0.112201
-0.038669
-0.166324
-0.551442
-1.15554
-1.95978
-2.95732
-4.14994
-5.54082
-7.13785
-8.94527
-10.9719
-13.6309
-16.8502
-20.1467
85.5595
85.902
85.6623
84.6261
82.8245
80.3569
77.1429
73.0902
68.174
63.132
55.5801
84.9703
84.1633
83.2222
82.2253
81.2282
80.2678
79.3669
78.5388
77.7899
77.1217
76.5302
76.0133
75.5941
75.254
74.9514
74.6897
74.4677
74.2826
74.1389
74.0269
73.9385
73.8715
73.8236
73.7925
73.7745
73.7682
73.768
73.7752
73.7774
51.3854
45.8872
39.2862
32.0976
24.5012
16.8624
9.80196
3.88792
-0.585352
-3.60391
-5.34228
-6.05415
-5.99315
-5.14976
-4.02311
-3.10134
-2.37741
-1.84622
-1.50033
-1.33115
-1.29307
-1.46883
-1.91785
-2.60003
-3.49535
-4.59584
-5.9026
-7.41863
-9.15094
-11.1028
-13.7101
-16.8834
-20.1595
-23.4652
85.9321
86.5044
86.5768
85.8705
84.3927
82.2574
79.4016
75.7345
71.1994
65.7541
60.2023
52.0134
85.1827
84.2538
83.2319
82.1865
81.163
80.1909
79.2877
78.4632
77.721
77.0581
76.473
75.9964
75.6087
75.2585
74.9514
74.6868
74.462
74.285
74.1444
74.0297
73.9392
73.8711
73.8226
73.7912
73.7733
73.7672
73.7674
73.7753
73.7777
47.5153
41.6108
34.5092
26.8374
18.8773
11.1266
4.28793
-1.11069
-4.91025
-7.23731
-8.34784
-8.52628
-7.75959
-6.46567
-5.30237
-4.36285
-3.63606
-3.11429
-2.78873
-2.64987
-2.65042
-2.87842
-3.3966
-4.16296
-5.15613
-6.36685
-7.79519
-9.44382
-11.3175
-13.8513
-16.9705
-20.1887
-23.4761
-26.7708
86.2064
86.995
87.3759
87.0044
85.8576
84.0578
81.5619
78.2695
74.1376
69.1189
63.1396
57.0594
48.1982
85.3094
84.2799
83.1963
82.1161
81.076
80.0991
79.1987
78.381
77.6442
76.9881
76.4518
76.0144
75.6142
75.2585
74.9477
74.6794
74.4658
74.2933
74.1489
74.0315
73.9394
73.8702
73.8212
73.7895
73.7718
73.7661
73.7667
73.7753
73.7781
43.3793
37.0241
29.3643
21.1844
12.91
5.18244
-1.2635
-6.00875
-9.05657
-10.6691
-11.1617
-10.5276
-9.24065
-7.88824
-6.68541
-5.72642
-4.99629
-4.48466
-4.18123
-4.07536
-4.11795
-4.40263
-4.99545
-5.85232
-6.95032
-8.2785
-9.83582
-11.623
-14.0789
-17.1239
-20.2749
-23.5056
-26.7807
-30.0521
86.3796
87.3673
88.0501
88.0164
87.2081
85.7471
83.6167
80.7013
76.9579
72.3626
66.8673
60.3494
53.7143
44.1333
85.3589
84.2515
83.1228
82.0197
80.9713
79.9956
79.1018
78.2895
77.5598
76.9618
76.4736
76.021
75.6142
75.254
74.9383
74.6849
74.4776
74.3003
74.1524
74.0326
73.9389
73.8688
73.8193
73.7875
73.77
73.7648
73.7659
73.7753
73.7786
38.9569
32.0853
23.7947
15.094
6.5976
-0.926619
-6.78756
-10.752
-12.9935
-13.8881
-13.4407
-12.2048
-10.8407
-9.42525
-8.17927
-7.19883
-6.4649
-5.96423
-5.68474
-5.6147
-5.703
-6.04899
-6.72216
-7.67601
-8.88579
-10.3387
-12.031
-14.4011
-17.3678
-20.4331
-23.593
-26.8117
-30.061
-33.2889
86.4612
87.616
88.587
88.8953
88.4325
87.3136
85.5536
83.0236
79.6681
75.4763
70.4286
64.4673
57.4033
50.1811
39.8099
85.3434
84.1778
83.018
81.902
80.8526
79.8828
78.994
78.1888
77.5278
76.9883
76.4816
76.021
75.6086
75.2422
74.9459
74.7012
74.4878
74.3059
74.1548
74.0329
73.9378
73.8667
73.8169
73.7851
73.768
73.7634
73.7651
73.7753
73.779
34.218
26.7416
17.7351
8.52871
-0.0408306
-7.13565
-12.2139
-15.2893
-16.6976
-16.497
-15.349
-14.0152
-12.5678
-11.0838
-9.79077
-8.7869
-8.04873
-7.5598
-7.30618
-7.27497
-7.4128
-7.82489
-8.58425
-9.64157
-10.97
-12.5536
-14.8289
-17.7097
-20.6875
-23.7566
-26.901
-30.0927
-33.2967
-36.4591
86.4653
87.7523
88.9733
89.6245
89.5185
88.7447
87.3593
85.224
82.2633
78.469
73.8436
68.3603
61.9437
54.3206
46.4681
35.2075
85.2734
84.0665
82.8877
81.7675
80.7228
79.7573
78.8753
78.1504
77.5595
76.9977
76.4816
76.0143
75.594
75.2524
74.9679
74.7155
74.4963
74.3103
74.1563
74.0322
73.9357
73.864
73.8139
73.7824
73.7657
73.7618
73.7642
73.7754
73.7796
29.1168
20.9126
11.1011
1.46456
-6.96317
-13.3615
-17.4692
-19.5757
-19.7031
-18.6799
-17.4069
-15.9671
-14.429
-12.8706
-11.5265
-10.4973
-9.75437
-9.27801
-9.05228
-9.06298
-9.25426
-9.73739
-10.5887
-11.7559
-13.2087
-15.3748
-18.1594
-21.0435
-24.0207
-27.0714
-30.1832
-33.3287
-36.4657
-39.541
86.4043
87.7933
89.2168
90.1832
90.4457
90.0283
89.0187
87.2891
84.7332
81.3387
77.1213
72.0849
66.1849
59.3208
51.1219
42.5772
30.2966
85.1584
83.9247
82.7374
81.6199
80.5782
79.6189
78.8297
78.1881
77.5706
76.9977
76.4736
75.9963
75.6073
75.2812
74.9873
74.7276
74.5033
74.3134
74.1565
74.0305
73.9328
73.8605
73.8104
73.7792
73.7632
73.7602
73.7634
73.7754
73.7801
23.5821
14.4755
3.79426
-6.10775
-14.0961
-19.5039
-22.4786
-23.0582
-22.2147
-21.0308
-19.622
-18.0666
-16.4301
-14.7917
-13.3927
-12.3361
-11.588
-11.1251
-10.9293
-10.985
-11.2338
-11.7928
-12.7419
-14.0241
-16.0574
-18.7293
-21.509
-24.3877
-27.345
-30.3594
-33.4199
-36.4978
-39.5463
-42.5135
86.2895
87.7546
89.3368
90.5747
91.186
91.1424
90.5169
89.2027
87.0657
84.078
80.2639
75.6495
70.2288
63.9302
56.6241
47.8304
38.5126
25.0368
85.0067
83.7588
82.5713
81.455
80.4184
79.5653
78.8743
78.2011
77.5706
76.9883
76.4516
76.0135
75.6443
75.3069
75.004
74.738
74.5086
74.3149
74.1553
74.0276
73.9289
73.8562
73.8063
73.7756
73.7605
73.7585
73.7625
73.7755
73.7807
17.5024
7.24453
-4.30231
-14.1551
-21.3374
-25.4279
-26.5703
-25.9635
-24.9132
-23.5559
-21.9988
-20.318
-18.576
-16.8521
-15.3946
-14.3087
-13.5552
-13.1067
-12.9429
-13.0467
-13.3569
-13.9966
-15.0479
-16.9069
-19.439
-22.0958
-24.8641
-27.7209
-30.6403
-33.6006
-36.589
-39.5781
-42.5173
-45.3554
86.1308
87.65
89.3521
90.8168
91.7389
92.0536
91.8275
90.9469
89.2455
86.6781
83.2684
79.0621
74.0821
68.3046
61.624
53.8811
44.469
34.2763
19.3702
84.826
83.5742
82.3851
81.2723
80.3562
79.6177
78.8893
78.2011
77.5595
76.9617
76.4732
76.0601
75.6774
75.3292
75.0186
74.7463
74.5121
74.3148
74.1527
74.0233
73.9239
73.8511
73.8016
73.7718
73.7577
73.7567
73.7615
73.7755
73.7814
10.6895
-1.09433
-13.2272
-22.6392
-28.4466
-30.2938
-29.9839
-29.0782
-27.8006
-26.2561
-24.539
-22.7239
-20.8698
-19.0557
-17.5363
-16.4196
-15.6604
-15.2273
-15.0975
-15.2523
-15.6279
-16.352
-17.9737
-20.3213
-22.8242
-25.4611
-28.2042
-31.0215
-33.8857
-36.7725
-39.6687
-42.5486
-45.3578
-48.0468
85.9374
87.4915
89.2803
90.9276
92.1225
92.7593
92.9101
92.4896
91.2543
89.126
86.1303
82.3247
77.7611
72.4485
66.3416
59.2957
51.1198
41.0595
29.8816
13.2328
84.623
83.366
82.1781
81.2007
80.4172
79.635
78.8893
78.188
77.5276
76.9884
76.5311
76.1021
75.7065
75.3489
75.0307
74.7523
74.5133
74.3126
74.1483
74.0176
73.9177
73.8451
73.7965
73.7677
73.7548
73.7548
73.7606
73.7756
73.7821
2.79503
-10.8828
-23.1375
-31.1272
-34.349
-34.3468
-33.6301
-32.4033
-30.8717
-29.1273
-27.2409
-25.2841
-23.3124
-21.4042
-19.8204
-18.6717
-17.9067
-17.4901
-17.3962
-17.6049
-18.0486
-19.334
-21.4297
-23.7294
-26.2002
-28.8058
-31.5065
-34.2678
-37.0587
-39.853
-42.6375
-45.3879
-48.048
-50.5688
85.7169
87.2904
89.1375
90.9246
92.3546
93.2786
93.76
93.7786
93.0558
91.4056
88.8409
85.4386
81.2733
76.39
70.7782
64.3693
56.9717
48.37
37.6383
25.3882
6.54894
84.3926
83.1337
82.0964
81.2716
80.4371
79.635
78.8742
78.1501
77.5601
77.0592
76.5834
76.1392
75.7325
75.3658
75.04
74.7556
74.5121
74.3083
74.1419
74.0103
73.9104
73.8386
73.791
73.7635
73.7517
73.7529
73.7597
73.7757
73.7828
-6.75528
-23.303
-33.2141
-38.4572
-39.2077
-38.6341
-37.4911
-35.9247
-34.1163
-32.1605
-30.0989
-27.9949
-25.9018
-23.8969
-22.2471
-21.0657
-20.2954
-19.8964
-19.8402
-20.1045
-21.1049
-22.844
-24.8671
-27.1188
-29.5485
-32.1066
-34.7491
-37.4373
-40.1368
-42.8202
-45.4744
-48.0763
-50.5686
-52.9047
85.4647
87.0554
88.9385
90.8257
92.4529
93.63
94.3998
94.8018
94.5863
93.4786
91.3877
88.4002
84.6268
80.1428
74.9779
69.1003
62.4132
54.6811
45.677
34.2536
20.9083
-0.756224
84.1339
83.0413
82.1782
81.2943
80.4371
79.6176
78.8294
78.1892
77.6456
77.1232
76.6297
76.1727
75.7551
75.3791
75.0459
74.7557
74.5081
74.3015
74.1335
74.0015
73.9022
73.8315
73.7852
73.759
73.7485
73.7509
73.7588
73.7757
73.7835
-20.4447
-36.8964
-43.2284
-44.602
-44.3052
-43.1044
-41.5193
-39.6137
-37.5197
-35.3412
-33.1023
-30.8487
-28.6326
-26.5304
-24.8142
-23.6004
-22.8254
-22.4451
-22.4277
-23.2497
-24.686
-26.3205
-28.2746
-30.4718
-32.8458
-35.3414
-37.9097
-40.5076
-43.0979
-45.6529
-48.1592