/*--------------------------------*- C++ -*----------------------------------*\
  =========                 |
  \\      /  F ield         | OpenFOAM: The Open Source CFD Toolbox
   \\    /   O peration     | Website:  https://openfoam.org
    \\  /    A nd           | Version:  8
     \\/     M anipulation  |
\*---------------------------------------------------------------------------*/
FoamFile
{
    version     2.0;
    format      ascii;
    class       volVectorField;
    location    "0.07";
    object      U;
}
// * * * * * * * * * * * * * * * * * * * * * * * * * * * * * * * * * * * * * //

dimensions      [0 1 -1 0 0 0 0];

internalField   nonuniform List<vector> 
15677
(
(-0.0399015 9.66595 0)
(0.0484951 9.92199 0)
(-0.00181359 9.37829 0)
(0.0206524 9.97702 0)
(0.0198921 9.78866 0)
(0.00731344 9.14125 0)
(0.0258391 9.99515 0)
(0.0165374 9.92467 0)
(0.0111792 9.65398 0)
(0.00649144 8.96067 0)
(0.0263309 10.0025 0)
(0.0205524 9.97871 0)
(0.0165509 9.85203 0)
(0.00912494 9.53081 0)
(0.00515974 8.81703 0)
(0.0255703 10.0057 0)
(0.0215844 10.003 0)
(0.0194061 9.94152 0)
(0.0153648 9.77951 0)
(0.00798047 9.41984 0)
(0.00424055 8.70238 0)
(0.0245088 10.0071 0)
(0.021866 10.0147 0)
(0.0210023 9.98478 0)
(0.0182524 9.90244 0)
(0.0138547 9.70811 0)
(0.00692524 9.32158 0)
(0.00354496 8.61019 0)
(0.023097 10.0075 0)
(0.0217424 10.0205 0)
(0.0218695 10.0069 0)
(0.0201987 9.96497 0)
(0.0169617 9.86193 0)
(0.0124421 9.64084 0)
(0.00596869 9.23643 0)
(0.00295873 8.53616 0)
(0.0214091 10.0074 0)
(0.021191 10.0233 0)
(0.0221527 10.0184 0)
(0.0212882 9.99809 0)
(0.0190534 9.94371 0)
(0.0156081 9.82229 0)
(0.0110793 9.57966 0)
(0.00507714 9.16415 0)
(0.00241897 8.47762 0)
(0.0195159 10.007 0)
(0.0203304 10.0235 0)
(0.02211 10.0241 0)
(0.0217807 10.0162 0)
(0.0202167 9.98814 0)
(0.0177205 9.92275 0)
(0.0141433 9.78537 0)
(0.00968602 9.52575 0)
(0.00419907 9.10454 0)
(0.00188752 8.43309 0)
(0.0175006 10.0063 0)
(0.0192742 10.0223 0)
(0.0216666 10.0271 0)
(0.0218029 10.0261 0)
(0.0207476 10.0131 0)
(0.0188619 9.97855 0)
(0.0161748 9.90359 0)
(0.0125197 9.75241 0)
(0.00820424 9.48009 0)
(0.00328902 9.05739 0)
(0.00133526 8.4016 0)
(0.0153991 10.0056 0)
(0.0179649 10.0206 0)
(0.020934 10.0281 0)
(0.0214568 10.0315 0)
(0.0207807 10.0273 0)
(0.0193198 10.0103 0)
(0.0171886 9.97058 0)
(0.0143588 9.8872 0)
(0.010682 9.72458 0)
(0.0065833 9.44348 0)
(0.0023053 9.02266 0)
(0.000739572 8.38285 0)
(0.013262 10.0048 0)
(0.0164817 10.0185 0)
(0.0198593 10.0274 0)
(0.0207819 10.034 0)
(0.0204002 10.0354 0)
(0.0192416 10.0288 0)
(0.0174628 10.0092 0)
(0.0151335 9.96504 0)
(0.0122005 9.87459 0)
(0.0085685 9.70296 0)
(0.00477191 9.41665 0)
(0.00121368 9.0004 0)
(5.70281e-05 8.37664 0)
(0.0111599 10.0041 0)
(0.0148852 10.0162 0)
(0.0185082 10.0258 0)
(0.0197964 10.0345 0)
(0.0196658 10.0396 0)
(0.0187151 10.0396 0)
(0.0171502 10.0319 0)
(0.0151066 10.0103 0)
(0.0126097 9.96283 0)
(0.00962009 9.86677 0)
(0.00611481 9.68861 0)
(0.00272307 9.40027 0)
(-1.4119e-05 8.99077 0)
(-0.00061345 8.38293 0)
(0.00927047 10.0034 0)
(0.0131865 10.014 0)
(0.0169195 10.0235 0)
(0.0185012 10.0334 0)
(0.018593 10.0412 0)
(0.0177896 10.0456 0)
(0.0163413 10.0453 0)
(0.0144282 10.0371 0)
(0.0121455 10.0145 0)
(0.00951629 9.96483 0)
(0.00653392 9.86473 0)
(0.00326057 9.68249 0)
(0.000399358 9.39496 0)
(-0.00137708 8.99409 0)
(-0.00140156 8.40186 0)
(0.00772504 10.0029 0)
(0.0116233 10.0119 0)
(0.0151328 10.0209 0)
(0.0169105 10.0313 0)
(0.0171824 10.0409 0)
(0.0164841 10.0483 0)
(0.015081 10.053 0)
(0.01319 10.0531 0)
(0.0109513 10.0453 0)
(0.00845674 10.0228 0)
(0.0057464 9.97196 0)
(0.00286058 9.86946 0)
(-5.84535e-05 9.68556 0)
(-0.00225815 9.40137 0)
(-0.00293954 9.01051 0)
(-0.00229125 8.4337 0)
(0.00641354 10.0024 0)
(0.0102309 10.0102 0)
(0.0133939 10.0184 0)
(0.0150542 10.0286 0)
(0.0154381 10.0392 0)
(0.0148022 10.0488 0)
(0.0133873 10.0568 0)
(0.0114344 10.0624 0)
(0.0091164 10.0638 0)
(0.00657207 10.0573 0)
(0.00390791 10.0358 0)
(0.00119469 9.98512 0)
(-0.00147603 9.88195 0)
(-0.00387901 9.69867 0)
(-0.00526395 9.42003 0)
(-0.00469398 9.04031 0)
(-0.00327891 8.47852 0)
(0.00530915 10.002 0)
(0.00897454 10.0087 0)
(0.0118151 10.0162 0)
(0.0131769 10.0257 0)
(0.0133772 10.0364 0)
(0.0127447 10.0475 0)
(0.0112635 10.058 0)
(0.00917554 10.0674 0)
(0.00667912 10.0747 0)
(0.003946 10.0781 0)
(0.00113071 10.0739 0)
(-0.0016336 10.0544 0)
(-0.00424149 10.0052 0)
(-0.00654993 9.90312 0)
(-0.00825813 9.72264 0)
(-0.00864562 9.45135 0)
(-0.00664543 9.08354 0)
(-0.00435943 8.53637 0)
(0.00438518 10.0016 0)
(0.00784225 10.0074 0)
(0.0103573 10.0143 0)
(0.0114384 10.023 0)
(0.0112618 10.0333 0)
(0.0103209 10.0448 0)
(0.00870974 10.0571 0)
(0.00641407 10.0691 0)
(0.00364812 10.0805 0)
(0.000609598 10.0904 0)
(-0.00251183 10.0969 0)
(-0.00553533 10.0959 0)
(-0.00829644 10.0796 0)
(-0.0106545 10.0332 0)
(-0.0124183 9.93383 0)
(-0.0132255 9.75807 0)
(-0.0124201 9.49564 0)
(-0.00879896 9.14033 0)
(-0.00553131 8.60711 0)
(0.00361116 10.0013 0)
(0.00682244 10.0062 0)
(0.00901472 10.0126 0)
(0.00980593 10.0206 0)
(0.00928815 10.0303 0)
(0.00782881 10.0415 0)
(0.00573398 10.0545 0)
(0.00314963 10.0685 0)
(1.95873e-05 10.0828 0)
(-0.00343643 10.0971 0)
(-0.00699963 10.1104 0)
(-0.0104526 10.1208 0)
(-0.0135836 10.1242 0)
(-0.0161978 10.1122 0)
(-0.0181193 10.0698 0)
(-0.0191187 9.9748 0)
(-0.0187945 9.80547 0)
(-0.0165864 9.55306 0)
(-0.0111429 9.21045 0)
(-0.00678167 8.69041 0)
(0.00297847 10.001 0)
(0.00591093 10.0052 0)
(0.00778315 10.011 0)
(0.00828688 10.0184 0)
(0.00742759 10.0274 0)
(0.00550187 10.0381 0)
(0.00269236 10.0509 0)
(-0.000607748 10.0658 0)
(-0.00420798 10.0823 0)
(-0.00820202 10.0997 0)
(-0.012343 10.1178 0)
(-0.0163811 10.1355 0)
(-0.0200665 10.1508 0)
(-0.0231583 10.1595 0)
(-0.0254335 10.1529 0)
(-0.0266884 10.1158 0)
(-0.0266698 10.0266 0)
(-0.0249607 9.86511 0)
(-0.021131 9.62355 0)
(-0.0136689 9.29371 0)
(-0.00810366 8.78583 0)
(0.00247781 10.0008 0)
(0.0050881 10.0044 0)
(0.00666008 10.0096 0)
(0.00688492 10.0164 0)
(0.00569718 10.0247 0)
(0.00331147 10.0347 0)
(-0.000137386 10.047 0)
(-0.00441584 10.0618 0)
(-0.00902045 10.0794 0)
(-0.0136906 10.0992 0)
(-0.0185604 10.1206 0)
(-0.0233458 10.1433 0)
(-0.0277614 10.1664 0)
(-0.0315276 10.1876 0)
(-0.034378 10.2026 0)
(-0.0360709 10.2024 0)
(-0.0363857 10.1718 0)
(-0.0350654 10.0897 0)
(-0.0317019 9.93712 0)
(-0.026025 9.70692 0)
(-0.016346 9.38949 0)
(-0.00947384 8.89256 0)
(0.00209319 10.0007 0)
(0.00438449 10.0037 0)
(0.00563835 10.0084 0)
(0.0056016 10.0145 0)
(0.00410655 10.0221 0)
(0.00128416 10.0314 0)
(-0.00278881 10.043 0)
(-0.00793838 10.0573 0)
(-0.0138575 10.0748 0)
(-0.0198829 10.0958 0)
(-0.0256585 10.1198 0)
(-0.0313771 10.1462 0)
(-0.0367134 10.1745 0)
(-0.0413491 10.2039 0)
(-0.0449808 10.232 0)
(-0.0473282 10.2541 0)
(-0.0481425 10.2612 0)
(-0.0472039 10.2382 0)
(-0.0442733 10.1642 0)
(-0.0389735 10.0213 0)
(-0.0312251 9.80269 0)
(-0.0191538 9.4972 0)
(-0.0108734 9.00988 0)
(0.00179673 10.0006 0)
(0.00381361 10.0032 0)
(0.00475649 10.0074 0)
(0.0044372 10.0129 0)
(0.00266159 10.0198 0)
(-0.000563781 10.0283 0)
(-0.0052258 10.039 0)
(-0.0112196 10.0525 0)
(-0.0183056 10.0695 0)
(-0.0260633 10.0905 0)
(-0.0336118 10.1158 0)
(-0.0404867 10.1449 0)
(-0.0469683 10.1772 0)
(-0.0526935 10.2121 0)
(-0.0573191 10.2487 0)
(-0.0605323 10.2845 0)
(-0.0620523 10.3146 0)
(-0.0616418 10.33 0)
(-0.0591003 10.3152 0)
(-0.0542317 10.2501 0)
(-0.0467103 10.1175 0)
(-0.0366774 9.91027 0)
(-0.0220272 9.61584 0)
(-0.0122373 9.13619 0)
(0.00156401 10.0005 0)
(0.00334879 10.0028 0)
(0.00403409 10.0065 0)
(0.00343729 10.0114 0)
(0.00136639 10.0175 0)
(-0.00222149 10.0253 0)
(-0.00742444 10.0351 0)
(-0.014213 10.0477 0)
(-0.0224252 10.0638 0)
(-0.0317174 10.0841 0)
(-0.0415065 10.1094 0)
(-0.0506423 10.14 0)
(-0.0585457 10.1752 0)
(-0.0656273 10.2143 0)
(-0.0714962 10.2568 0)
(-0.0758025 10.3014 0)
(-0.0782392 10.3457 0)
(-0.0785458 10.3846 0)
(-0.0765173 10.4087 0)
(-0.071997 10.4029 0)
(-0.0648517 10.3472 0)
(-0.0548276 10.225 0)
(-0.0422659 10.0287 0)
(-0.0248507 9.74411 0)
(-0.0132677 9.26963 0)
(0.00137881 10.0005 0)
(0.00296777 10.0025 0)
(0.00344384 10.0059 0)
(0.00262521 10.0102 0)
(0.000272575 10.0156 0)
(-0.00368133 10.0224 0)
(-0.00936793 10.0313 0)
(-0.016886 10.0428 0)
(-0.0261582 10.0578 0)
(-0.0369286 10.0772 0)
(-0.0487005 10.1017 0)
(-0.0606835 10.1322 0)
(-0.0714068 10.1691 0)
(-0.0801817 10.2115 0)
(-0.0876056 10.2584 0)
(-0.0932823 10.3092 0)
(-0.0968725 10.3627 0)
(-0.0981002 10.4161 0)
(-0.0967503 10.4642 0)
(-0.0926765 10.4976 0)
(-0.0857785 10.5011 0)
(-0.0760151 10.455 0)
(-0.0631786 10.343 0)
(-0.0479429 10.157 0)
(-0.0278139 9.8815 0)
(-0.0155948 9.41023 0)
(0.00122959 10.0004 0)
(0.00265312 10.0022 0)
(0.00295992 10.0053 0)
(0.00197073 10.0092 0)
(-0.000597453 10.0139 0)
(-0.00488441 10.0198 0)
(-0.0110443 10.0276 0)
(-0.0192144 10.038 0)
(-0.0294612 10.0517 0)
(-0.0416247 10.0697 0)
(-0.0553062 10.0931 0)
(-0.0698082 10.1228 0)
(-0.0840905 10.1595 0)
(-0.0963131 10.2037 0)
(-0.105695 10.2543 0)
(-0.113098 10.3099 0)
(-0.118145 10.37 0)
(-0.120536 10.4329 0)
(-0.120055 10.4959 0)
(-0.116558 10.5536 0)
(-0.109975 10.5965 0)
(-0.100292 10.6094 0)
(-0.0875372 10.5729 0)
(-0.0716203 10.4706 0)
(-0.0529488 10.294 0)
(-0.024662 10.0216 0)
(-0.0115119 9.49564 0)
(0.0011079 10.0004 0)
(0.00239179 10.002 0)
(0.00256249 10.0049 0)
(0.0014419 10.0083 0)
(-0.0012813 10.0125 0)
(-0.005812 10.0176 0)
(-0.0123856 10.0242 0)
(-0.0211807 10.0332 0)
(-0.0323013 10.0455 0)
(-0.0457495 10.0621 0)
(-0.0612348 10.0839 0)
(-0.078166 10.1123 0)
(-0.0955974 10.1481 0)
(-0.112198 10.192 0)
(-0.125717 10.2446 0)
(-0.135324 10.3043 0)
(-0.142231 10.3696 0)
(-0.146107 10.4395 0)
(-0.146729 10.5124 0)
(-0.143973 10.5853 0)
(-0.137795 10.6527 0)
(-0.128227 10.705 0)
(-0.115315 10.7272 0)
(-0.0992305 10.6999 0)
(-0.0796404 10.6067 0)
(-0.0569439 10.437 0)
(-0.0201566 10.1933 0)
(-0.00294412 9.56137 0)
(0.00100752 10.0003 0)
(0.00217391 10.0018 0)
(0.00223036 10.0045 0)
(0.00101426 10.0076 0)
(-0.0018171 10.0112 0)
(-0.0065136 10.0156 0)
(-0.0133796 10.0212 0)
(-0.0227051 10.0287 0)
(-0.0346537 10.0394 0)
(-0.0492589 10.0543 0)
(-0.0664142 10.0743 0)
(-0.0856472 10.1009 0)
(-0.106123 10.1352 0)
(-0.126599 10.1781 0)
(-0.145426 10.2304 0)
(-0.159915 10.2924 0)
(-0.16923 10.3622 0)
(-0.175032 10.4378 0)
(-0.177091 10.518 0)
(-0.1753 10.6012 0)
(-0.169656 10.6841 0)
(-0.160239 10.7611 0)
(-0.147169 10.8227 0)
(-0.130603 10.8537 0)
(-0.110554 10.835 0)
(-0.086426 10.7501 0)
(-0.0601476 10.5939 0)
(-0.0215661 10.3665 0)
(0.00236571 9.61866 0)
(0.000923907 10.0003 0)
(0.00199165 10.0017 0)
(0.00195462 10.0041 0)
(0.000670518 10.007 0)
(-0.00223563 10.0102 0)
(-0.00703765 10.0139 0)
(-0.0140928 10.0186 0)
(-0.0237846 10.0248 0)
(-0.0364226 10.0336 0)
(-0.0521188 10.0464 0)
(-0.0707864 10.0644 0)
(-0.0921605 10.0889 0)
(-0.115533 10.1211 0)
(-0.13977 10.1623 0)
(-0.1633 10.2135 0)
(-0.184131 10.2752 0)
(-0.199106 10.3477 0)
(-0.207457 10.4284 0)
(-0.211431 10.5148 0)
(-0.210941 10.6057 0)
(-0.20603 10.6993 0)
(-0.19685 10.792 0)
(-0.183597 10.8784 0)
(-0.166515 10.9488 0)
(-0.145665 10.9882 0)
(-0.120894 10.9777 0)
(-0.0920061 10.9018 0)
(-0.062198 10.7636 0)
(-0.0243854 10.5363 0)
(0.00321542 9.6755 0)
(0.000853685 10.0003 0)
(0.00183844 10.0016 0)
(0.00172597 10.0038 0)
(0.000390136 10.0064 0)
(-0.00256128 10.0093 0)
(-0.00742325 10.0125 0)
(-0.0145881 10.0163 0)
(-0.0245088 10.0213 0)
(-0.0376172 10.0284 0)
(-0.0542122 10.0389 0)
(-0.0743052 10.0544 0)
(-0.0976305 10.0764 0)
(-0.123711 10.1061 0)
(-0.151543 10.145 0)
(-0.179656 10.1944 0)
(-0.206112 10.255 0)
(-0.228554 10.3271 0)
(-0.243369 10.411 0)
(-0.249951 10.5033 0)
(-0.251266 10.601 0)
(-0.247416 10.7027 0)
(-0.238634 10.8065 0)
(-0.225227 10.9088 0)
(-0.207537 11.0041 0)
(-0.185801 11.0826 0)
(-0.159987 11.1299 0)
(-0.130618 11.1276 0)
(-0.0974302 11.0617 0)
(-0.0639932 10.9405 0)
(-0.0270484 10.7017 0)
(0.00273208 9.74883 0)
(0.000794302 10.0003 0)
(0.00170889 10.0015 0)
(0.00153631 10.0036 0)
(0.000160291 10.006 0)
(-0.00281453 10.0085 0)
(-0.00770168 10.0112 0)
(-0.0149164 10.0143 0)
(-0.0249606 10.0182 0)
(-0.0383576 10.0238 0)
(-0.0555632 10.0321 0)
(-0.0768257 10.0447 0)
(-0.101995 10.0637 0)
(-0.130561 10.0905 0)
(-0.161776 10.1266 0)
(-0.194292 10.1733 0)
(-0.226257 10.2319 0)
(-0.255334 10.3031 0)
(-0.278828 10.3867 0)
(-0.292674 10.4826 0)
(-0.29655 10.5871 0)
(-0.294276 10.6962 0)
(-0.286193 10.8088 0)
(-0.272743 10.9224 0)
(-0.254411 11.0339 0)
(-0.231612 11.1373 0)
(-0.20457 11.2236 0)
(-0.173749 11.2785 0)
(-0.140354 11.2839 0)
(-0.103567 11.2286 0)
(-0.0666499 11.1197 0)
(-0.0298951 10.8816 0)
(0.00160041 9.8334 0)
(0.000743765 10.0002 0)
(0.00159876 10.0014 0)
(0.0013768 10.0034 0)
(-2.8863e-05 10.0056 0)
(-0.00301104 10.0078 0)
(-0.00789771 10.0101 0)
(-0.0151178 10.0125 0)
(-0.0252067 10.0155 0)
(-0.0387531 10.0197 0)
(-0.0563312 10.0261 0)
(-0.0783894 10.0359 0)
(-0.105073 10.0513 0)
(-0.136001 10.0745 0)
(-0.170342 10.1072 0)
(-0.20703 10.1507 0)
(-0.244321 10.2065 0)
(-0.279933 10.2756 0)
(-0.311148 10.3583 0)
(-0.334954 10.4542 0)
(-0.346863 10.563 0)
(-0.346971 10.6799 0)
(-0.340098 10.8006 0)
(-0.326863 10.9236 0)
(-0.307939 11.0467 0)
(-0.283957 11.1665 0)
(-0.255401 11.2776 0)
(-0.222898 11.3711 0)
(-0.187399 11.433 0)
(-0.150272 11.4454 0)
(-0.11043 11.3997 0)
(-0.0705372 11.3195 0)
(-0.0328326 11.0765 0)
(-0.000159047 9.9272 0)
(0.000700467 10.0002 0)
(0.00150467 10.0013 0)
(0.00124223 10.0032 0)
(-0.000183589 10.0052 0)
(-0.00316314 10.0072 0)
(-0.00803084 10.0091 0)
(-0.0152242 10.011 0)
(-0.0252995 10.0132 0)
(-0.0388912 10.0161 0)
(-0.0566595 10.0207 0)
(-0.0792051 10.0281 0)
(-0.106925 10.0401 0)
(-0.139801 10.0589 0)
(-0.177135 10.0873 0)
(-0.21771 10.127 0)
(-0.260081 10.1792 0)
(-0.302056 10.2452 0)
(-0.340926 10.3258 0)
(-0.373602 10.4212 0)
(-0.396791 10.5303 0)
(-0.405644 10.6523 0)
(-0.400821 10.7817 0)
(-0.388287 10.9137 0)
(-0.368967 11.0467 0)
(-0.343763 11.1786 0)
(-0.313455 11.3062 0)
(-0.278871 11.4243 0)
(-0.241096 11.5243 0)
(-0.201147 11.5921 0)
(-0.160306 11.6103 0)
(-0.118221 11.5933 0)
(-0.0752778 11.5386 0)
(-0.0359991 11.2668 0)
(-0.00209544 10.0278 0)
(0.000663412 10.0002 0)
(0.00142372 10.0013 0)
(0.00112836 10.0031 0)
(-0.000310839 10.0049 0)
(-0.00328032 10.0067 0)
(-0.00811631 10.0083 0)
(-0.0152603 10.0097 0)
(-0.0252805 10.0111 0)
(-0.0388409 10.013 0)
(-0.0566628 10.016 0)
(-0.0794593 10.0211 0)
(-0.107821 10.03 0)
(-0.142042 10.0447 0)
(-0.181864 10.0678 0)
(-0.226194 10.1024 0)
(-0.273339 10.1503 0)
(-0.321428 10.2124 0)
(-0.367807 10.2899 0)
(-0.409336 10.3833 0)
(-0.442584 10.4921 0)
(-0.46405 10.6149 0)
(-0.468598 10.7505 0)
(-0.457613 10.8923 0)
(-0.438336 11.0352 0)
(-0.412015 11.1776 0)
(-0.379789 11.3176 0)
(-0.342764 11.4522 0)
(-0.302168 11.5765 0)
(-0.259267 11.6818 0)
(-0.214973 11.7539 0)
(-0.171348 11.7966 0)
(-0.12662 11.8079 0)
(-0.0804103 11.7537 0)
(-0.0390873 11.4519 0)
(-0.00394559 10.1332 0)
(0.00135349 10.0012 0)
(0.000619474 10.0002 0)
(0.00103101 10.0029 0)
(-0.000415651 10.0046 0)
(-0.00337 10.0062 0)
(-0.00816599 10.0075 0)
(-0.0152454 10.0085 0)
(-0.0251815 10.0093 0)
(-0.0386561 10.0102 0)
(-0.0564313 10.0118 0)
(-0.0793009 10.015 0)
(-0.108001 10.021 0)
(-0.143069 10.0318 0)
(-0.184629 10.0499 0)
(-0.232109 10.0782 0)
(-0.283915 10.1202 0)
(-0.337803 10.1777 0)
(-0.391457 10.251 0)
(-0.441736 10.3413 0)
(-0.485096 10.4484 0)
(-0.517821 10.5715 0)
(-0.536304 10.7084 0)
(-0.535203 10.8575 0)
(-0.516792 11.0114 0)
(-0.489707 11.1646 0)
(-0.455539 11.3157 0)
(-0.415768 11.463 0)
(-0.371877 11.6037 0)
(-0.325288 11.733 0)
(-0.277296 11.842 0)
(-0.230185 11.9364 0)
(-0.183151 12.0038 0)
(-0.134783 12.0202 0)
(-0.0855176 11.9629 0)
(-0.0419722 11.6311 0)
(-0.00571151 10.2413 0)
(0.000945763 10.0028 0)
(0.00127303 10.0012 0)
(0.000567184 10.0002 0)
(-0.000502723 10.0044 0)
(-0.0034378 10.0058 0)
(-0.00818891 10.0069 0)
(-0.0151944 10.0075 0)
(-0.0250273 10.0077 0)
(-0.0383786 10.0077 0)
(-0.0560355 10.0081 0)
(-0.0788476 10.0095 0)
(-0.107657 10.013 0)
(-0.143186 10.0204 0)
(-0.18586 10.0337 0)
(-0.235572 10.056 0)
(-0.291335 10.0906 0)
(-0.35095 10.1413 0)
(-0.411569 10.2097 0)
(-0.4704 10.2956 0)
(-0.523833 10.3998 0)
(-0.567965 10.5216 0)
(-0.598891 10.6595 0)
(-0.613001 10.8107 0)
(-0.604848 10.9731 0)
(-0.577757 11.1387 0)
(-0.541871 11.3013 0)
(-0.49918 11.4602 0)
(-0.451546 11.6137 0)
(-0.400687 11.7594 0)
(-0.348065 11.8921 0)
(-0.296957 12.0225 0)
(-0.246326 12.139 0)
(-0.194449 12.2095 0)
(-0.142482 12.2279 0)
(-0.0903702 12.165 0)
(-0.0445708 11.8041 0)
(-0.00732589 10.3502 0)
(-0.000580156 10.0042 0)
(0.00085703 10.0027 0)
(0.00117534 10.0011 0)
(0.000517447 10.0002 1.85244e-19)
(-0.00348898 10.0055 0)
(-0.00819158 10.0063 0)
(-0.0151184 10.0066 0)
(-0.024837 10.0063 0)
(-0.0380402 10.0056 0)
(-0.0555296 10.0048 0)
(-0.0781907 10.0046 0)
(-0.10694 10.0059 0)
(-0.142638 10.0102 0)
(-0.185943 10.0193 0)
(-0.237117 10.0359 0)
(-0.295723 10.0633 0)
(-0.360265 10.1054 0)
(-0.42785 10.1662 0)
(-0.494951 10.2469 0)
(-0.558319 10.3468 0)
(-0.61391 10.4659 0)
(-0.657543 10.6032 0)
(-0.685231 10.7562 0)
(-0.693484 10.9218 0)
(-0.676865 11.097 0)
(-0.639901 11.2734 0)
(-0.594359 11.4447 0)
(-0.542648 11.6102 0)
(-0.486908 11.7689 0)
(-0.428969 11.9179 0)
(-0.372821 12.0716 0)
(-0.317734 12.2228 0)
(-0.261546 12.3401 0)
(-0.205029 12.4113 0)
(-0.149568 12.4292 0)
(-0.0948553 12.3595 0)
(-0.0468567 11.9704 0)
(-0.00876063 10.4585 0)
(-0.00353666 10.0052 0)
(-0.000642772 10.004 0)
(0.000757769 10.0025 8.27408e-19)
(0.00108182 10.001 -5.86969e-19)
(0.000470116 10.0002 -3.69454e-19)
(-0.00817978 10.0058 0)
(-0.0150251 10.0058 0)
(-0.0246245 10.005 0)
(-0.0376655 10.0037 0)
(-0.0549552 10.002 0)
(-0.0774008 10.0003 0)
(-0.105969 9.99965 0)
(-0.141619 10.0011 0)
(-0.185185 10.0063 0)
(-0.237219 10.0178 0)
(-0.29773 10.0385 0)
(-0.36587 10.0722 0)
(-0.439536 10.1232 0)
(-0.515021 10.1955 0)
(-0.588093 10.29 0)
(-0.65509 10.405 0)
(-0.7116 10.5401 0)
(-0.753266 10.6934 0)
(-0.776149 10.8617 0)
(-0.777019 11.0412 0)
(-0.750552 11.2287 0)
(-0.702639 11.415 0)
(-0.646746 11.5937 0)
(-0.585618 11.7648 0)
(-0.521563 11.927 0)
(-0.45963 12.0969 0)
(-0.398966 12.2709 0)
(-0.337221 12.4216 0)
(-0.275652 12.5375 0)
(-0.214732 12.6076 0)
(-0.155974 12.6234 0)
(-0.0989131 12.5457 0)
(-0.0488388 12.1296 0)
(-0.0100103 10.5646 0)
(-0.00817399 10.0054 0)
(-0.00353664 10.0048 -1.7682e-18)
(-0.000693453 10.0037 -8.72777e-19)
(0.000664266 10.0023 4.12798e-19)
(0.000992199 10.0009 -3.90134e-19)
(0.000425255 10.0001 0)
(-0.0149208 10.0051 0)
(-0.0243988 10.0039 0)
(-0.0372722 10.002 0)
(-0.0543437 9.99941 0)
(-0.0765314 9.99656 0)
(-0.104834 9.99408 0)
(-0.14028 9.99301 0)
(-0.183832 9.99483 0)
(-0.236264 10.0016 0)
(-0.29794 10.0162 0)
(-0.368544 10.042 0)
(-0.446724 10.0832 0)
(-0.529644 10.1444 0)
(-0.612702 10.2298 0)
(-0.690957 10.3395 0)
(-0.760406 10.4709 0)
(-0.816365 10.6227 0)
(-0.85443 10.7922 0)
(-0.870854 10.9758 0)
(-0.86281 11.1687 0)
(-0.825202 11.3675 0)
(-0.76541 11.5625 0)
(-0.698592 11.7476 0)
(-0.627724 11.9226 0)
(-0.559087 12.1057 0)
(-0.491981 12.2958 0)
(-0.423436 12.4688 0)
(-0.355234 12.6169 0)
(-0.288495 12.7298 0)
(-0.223488 12.7973 0)
(-0.161674 12.8096 0)
(-0.102519 12.7232 0)
(-0.0505383 12.2814 0)
(-0.0110818 10.6678 0)
(-0.0148365 10.0044 0)
(-0.00807138 10.0048 3.72903e-18)
(-0.00347698 10.0044 0)
(-0.000739902 10.0034 8.70536e-19)
(0.000577235 10.0021 1.37654e-22)
(0.000906388 10.0009 0)
(0.000382887 10.0001 0)
(-0.0241666 10.003 0)
(-0.0368712 10.0005 0)
(-0.0537179 9.99716 0)
(-0.0756233 9.99321 0)
(-0.103605 9.98915 0)
(-0.138736 9.98585 0)
(-0.182074 9.98459 0)
(-0.234557 9.9872 0)
(-0.296827 9.99616 0)
(-0.368995 10.0147 0)
(-0.450337 10.0467 0)
(-0.53887 10.0967 0)
(-0.630932 10.1698 0)
(-0.720953 10.2699 0)
(-0.803313 10.396 0)
(-0.873776 10.5447 0)
(-0.927511 10.7138 0)
(-0.960215 10.8998 0)
(-0.968486 11.0981 0)
(-0.950038 11.3037 0)
(-0.900108 11.5127 0)
(-0.827649 11.7152 0)
(-0.749438 11.9049 0)
(-0.673319 12.1012 0)
(-0.598695 12.3047 0)
(-0.522223 12.4936 0)
(-0.446027 12.6633 0)
(-0.37163 12.8072 0)
(-0.300033 12.9159 0)
(-0.231278 12.9797 0)
(-0.166677 12.9873 0)
(-0.105674 12.8918 0)
(-0.0519804 12.4255 0)
(-0.0119887 10.7671 0)
(-0.023974 10.0021 0)
(-0.0145841 10.0037 4.92059e-22)
(-0.00783069 10.0042 0)
(-0.00341692 10.0039 -9.1791e-19)
(-0.000776555 10.0031 8.51488e-23)
(0.000496551 10.002 0)
(0.000824517 10.0008 0)
(0.000343019 10.0001 0)
(-0.0364693 9.99919 0)
(-0.0530911 9.99517 0)
(-0.0747055 9.99024 0)
(-0.102333 9.98479 0)
(-0.137077 9.97951 0)
(-0.180059 9.9755 0)
(-0.232338 9.97435 0)
(-0.294769 9.97826 0)
(-0.367801 9.99014 0)
(-0.451221 10.0137 0)
(-0.543773 10.0532 0)
(-0.642748 10.1136 0)
(-0.743568 10.2 0)
(-0.839643 10.3162 0)
(-0.924734 10.4602 0)
(-0.994529 10.6271 0)
(-1.0442 10.8137 0)
(-1.06971 11.0159 0)
(-1.06814 11.2284 0)
(-1.03788 11.4455 0)
(-0.974576 11.6634 0)
(-0.888776 11.8717 0)
(-0.804539 12.0834 0)
(-0.721479 12.3005 0)
(-0.63573 12.5028 0)
(-0.550134 12.6882 0)
(-0.466597 12.8531 0)
(-0.386365 12.9915 0)
(-0.310272 13.095 0)
(-0.238124 13.154 0)
(-0.171013 13.1563 0)
(-0.108398 13.0515 0)
(-0.0531908 12.5619 0)
(-0.0127478 10.8622 0)
(-0.0361337 9.99803 0)
(-0.0235135 10.0011 -2.07187e-18)
(-0.0140745 10.0029 0)
(-0.00759731 10.0036 0)
(-0.00334219 10.0035 2.74549e-18)
(-0.000803593 10.0028 0)
(0.000422255 10.0018 0)
(0.000746695 10.0007 7.71488e-19)
(0.000305679 10.0001 0)
(-0.0524703 9.99342 0)
(-0.0737946 9.98762 0)
(-0.101057 9.98092 0)
(-0.13537 9.97389 0)
(-0.177899 9.96744 0)
(-0.229793 9.96293 0)
(-0.292063 9.9623 0)
(-0.365423 9.96817 0)
(-0.450072 9.98389 0)
(-0.545353 10.0136 0)
(-0.649384 10.062 0)
(-0.758636 10.1344 0)
(-0.867532 10.2358 0)
(-0.968436 10.3696 0)
(-1.05461 10.5325 0)
(-1.12184 10.7181 0)
(-1.16548 10.9224 0)
(-1.18192 11.1403 0)
(-1.16889 11.366 0)
(-1.12554 11.5935 0)
(-1.04792 11.8186 0)
(-0.955123 12.0498 0)
(-0.862802 12.283 0)
(-0.766541 12.4992 0)
(-0.669926 12.6981 0)
(-0.575564 12.8783 0)
(-0.4851 13.037 0)
(-0.399461 13.169 0)
(-0.319257 13.2665 0)
(-0.244075 13.3201 0)
(-0.174726 13.3164 0)
(-0.110722 13.2023 0)
(-0.0541961 12.6906 0)
(-0.0133775 10.9527 0)
(-0.0519515 9.99186 0)
(-0.0353931 9.99673 0)
(-0.022623 10 -2.15618e-18)
(-0.0135856 10.0021 -2.04034e-18)
(-0.00734253 10.003 -3.85901e-18)
(-0.0032527 10.0031 0)
(-0.00082102 10.0025 -1.72323e-18)
(0.0003545 10.0017 -1.62721e-18)
(0.000672938 10.0007 7.67824e-19)
(0.00027082 10.0001 0)
(-0.0728976 9.98529 0)
(-0.0997956 9.9775 0)
(-0.133661 9.96892 0)
(-0.175679 9.96029 0)
(-0.227063 9.95278 0)
(-0.288941 9.94809 0)
(-0.362229 9.94855 0)
(-0.44745 9.95719 0)
(-0.544438 9.97784 0)
(-0.652007 10.0151 0)
(-0.767552 10.074 0)
(-0.886628 10.1599 0)
(-1.0026 10.2779 0)
(-1.1068 10.4307 0)
(-1.19215 10.6133 0)
(-1.25476 10.8179 0)
(-1.29032 11.0396 0)
(-1.29584 11.2725 0)
(-1.26981 11.5103 0)
(-1.21218 11.7465 0)
(-1.12778 11.9957 0)
(-1.02544 12.2496 0)
(-0.917379 12.4825 0)
(-0.808177 12.6955 0)
(-0.701117 12.8891 0)
(-0.598469 13.0627 0)
(-0.501562 13.2143 0)
(-0.410977 13.3391 0)
(-0.327059 13.4299 0)
(-0.249191 13.4775 0)
(-0.177871 13.4676 0)
(-0.112681 13.3442 0)
(-0.0550219 12.8118 0)
(-0.0138948 11.0384 0)
(-0.0721496 9.98324 0)
(-0.0508426 9.99016 -2.30388e-18)
(-0.0339795 9.99531 2.27114e-18)
(-0.0217753 9.99897 -1.17668e-21)
(-0.0130662 10.0013 2.03342e-18)
(-0.00706624 10.0025 1.92279e-18)
(-0.00314898 10.0027 3.63336e-18)
(-0.0008287 10.0023 2.57344e-18)
(0.000293253 10.0015 -8.09723e-19)
(0.000603288 10.0006 0)
(0.000238428 10.0001 0)
(-0.0985574 9.97447 0)
(-0.131977 9.9645 0)
(-0.173461 9.95394 0)
(-0.224256 9.94377 0)
(-0.28558 9.93546 0)
(-0.358502 9.93105 0)
(-0.443798 9.93329 0)
(-0.541698 9.94569 0)
(-0.651591 9.97253 0)
(-0.771663 10.0188 0)
(-0.898485 10.0898 0)
(-1.02662 10.1911 0)
(-1.14834 10.3271 0)
(-1.25403 10.5 0)
(-1.33643 10.703 0)
(-1.39222 10.9267 0)
(-1.41763 11.1652 0)
(-1.41043 11.4122 0)
(-1.36995 11.6604 0)
(-1.30689 11.9221 0)
(-1.21274 12.1955 0)
(-1.09152 12.4501 0)
(-0.967903 12.6801 0)
(-0.846189 12.8878 0)
(-0.729245 13.0746 0)
(-0.618882 13.2407 0)
(-0.516059 13.3844 0)
(-0.421003 13.5015 0)
(-0.333766 13.5852 0)
(-0.253544 13.6264 0)
(-0.180502 13.6101 0)
(-0.114313 13.4776 0)
(-0.055692 12.9255 0)
(-0.0143161 11.1193 0)
(-0.0975291 9.97178 0)
(-0.0705661 9.98104 -3.46632e-21)
(-0.0487298 9.98834 0)
(-0.0326436 9.99394 -1.88988e-21)
(-0.0208849 9.99795 0)
(-0.0125158 10.0005 -2.02613e-18)
(-0.00676927 10.0019 -3.82984e-18)
(-0.00303085 10.0023 8.92281e-23)
(-0.00082681 10.0021 1.70721e-18)
(0.000238239 10.0014 -8.05403e-19)
(0.000537734 10.0005 7.59504e-19)
(0.000208472 10.0001 0)
(-0.130325 9.96059 0)
(-0.171275 9.94832 0)
(-0.221449 9.93578 0)
(-0.282115 9.92423 0)
(-0.354463 9.91547 0)
(-0.439467 9.91195 0)
(-0.537669 9.91687 0)
(-0.648928 9.93419 0)
(-0.772099 9.96866 0)
(-0.904637 10.0256 0)
(-1.0422 10.1105 0)
(-1.1783 10.2286 0)
(-1.30414 10.3841 0)
(-1.40922 10.5781 0)
(-1.48637 10.8018 0)
(-1.53307 11.0443 0)
(-1.5463 11.2989 0)
(-1.52465 11.5582 0)
(-1.47989 11.8336 0)
(-1.40806 12.1212 0)
(-1.29287 12.3969 0)
(-1.15288 12.6493 0)
(-1.01416 12.8741 0)
(-0.880518 13.0749 0)
(-0.754342 13.2538 0)
(-0.636894 13.4115 0)
(-0.528706 13.5467 0)
(-0.429652 13.6558 0)
(-0.339477 13.7321 0)
(-0.257211 13.7668 0)
(-0.182678 13.7439 0)
(-0.115656 13.6027 0)
(-0.0562282 13.032 0)
(-0.0146557 11.1954 0)
(-0.128961 9.95712 0)
(-0.0953438 9.96896 2.55517e-18)
(-0.0675371 9.97872 -2.52497e-18)
(-0.0467451 9.98658 2.38651e-18)
(-0.0312493 9.99262 0)
(-0.0199509 9.99697 0)
(-0.0119364 9.99982 2.01783e-18)
(-0.00645216 10.0014 -1.90602e-18)
(-0.00289841 10.002 1.19292e-22)
(-0.000814968 10.0018 8.49153e-19)
(0.000189538 10.0013 -8.00875e-19)
(0.000476199 10.0005 -7.5417e-19)
(0.00018108 10.0001 0)
(-0.169131 9.94333 0)
(-0.21868 9.92868 0)
(-0.278643 9.91425 0)
(-0.35028 9.90161 0)
(-0.434726 9.89292 0)
(-0.532772 9.89108 0)
(-0.644658 9.89975 0)
(-0.76979 9.92335 0)
(-0.906381 9.96702 0)
(-1.05106 10.0363 0)
(-1.1985 10.1368 0)
(-1.34115 10.2734 0)
(-1.46919 10.4497 0)
(-1.57135 10.6654 0)
(-1.64082 10.9099 0)
(-1.67617 11.1706 0)
(-1.6752 11.4398 0)
(-1.65067 11.728 0)
(-1.59789 12.0313 0)
(-1.50389 12.3232 0)
(-1.36754 12.598 0)
(-1.20923 12.8455 0)
(-1.05606 13.0633 0)
(-0.911225 13.2559 0)
(-0.776519 13.426 0)
(-0.652639 13.5748 0)
(-0.539637 13.7012 0)
(-0.437044 13.8019 0)
(-0.344295 13.8708 0)
(-0.260267 13.8989 0)
(-0.184455 13.8695 0)
(-0.116747 13.7198 0)
(-0.0566513 13.1317 0)
(-0.0149265 11.2668 0)
(-0.167373 9.9389 0)
(-0.126024 9.95352 0)
(-0.0911349 9.96603 2.6558e-18)
(-0.0647066 9.97649 -5.037e-18)
(-0.0446817 9.98491 4.76395e-18)
(-0.029795 9.99137 -4.50362e-18)
(-0.0189769 9.99604 0)
(-0.0113287 9.99914 2.00942e-18)
(-0.00611519 10.0009 -1.89651e-18)
(-0.002753 10.0016 -1.79013e-18)
(-0.000792489 10.0016 0)
(0.000146869 10.0011 7.95227e-19)
(0.000418811 10.0004 0)
(0.000156756 10 0)
(-0.215964 9.92238 0)
(-0.27521 9.90539 0)
(-0.346074 9.88928 0)
(-0.429784 9.87597 0)
(-0.527338 9.86806 0)
(-0.639287 9.86887 0)
(-0.765488 9.88254 0)
(-0.904794 9.91394 0)
(-1.05468 9.96853 0)
(-1.21087 10.052 0)
(-1.367 10.1698 0)
(-1.51448 10.3264 0)
(-1.64253 10.5243 0)
(-1.73929 10.7621 0)
(-1.79859 11.0272 0)
(-1.82029 11.3049 0)
(-1.81819 11.6049 0)
(-1.78669 11.9232 0)
(-1.71029 12.2332 0)
(-1.59364 12.5258 0)
(-1.43636 12.7968 0)
(-1.26044 13.0375 0)
(-1.09366 13.2468 0)
(-0.938441 13.4301 0)
(-0.795935 13.5908 0)
(-0.666277 13.7302 0)
(-0.549004 13.8476 0)
(-0.443304 13.94 0)
(-0.348321 14.0014 0)
(-0.262786 14.0229 0)
(-0.185887 13.9871 0)
(-0.117619 13.8292 0)
(-0.056979 13.2248 0)
(-0.0151386 11.3336 0)
(-0.213753 9.91679 0)
(-0.163515 9.93435 0)
(-0.120323 9.94985 0)
(-0.087224 9.96323 5.29741e-18)
(-0.0617735 9.97438 -5.01309e-18)
(-0.0425386 9.98332 4.74054e-18)
(-0.0282874 9.99018 0)
(-0.0179645 9.99516 -2.11638e-18)
(-0.0106935 9.9985 0)
(-0.00575915 10.0005 1.88626e-18)
(-0.00259347 10.0013 0)
(-0.000760995 10.0014 0)
(0.00011143 10.001 0)
(0.000366843 10.0004 7.68785e-19)
(0.000135533 10 3.70307e-19)
(-0.271838 9.89751 0)
(-0.341901 9.87832 0)
(-0.42479 9.86088 0)
(-0.521623 9.84752 0)
(-0.633213 9.84125 0)
(-0.759796 9.84589 0)
(-0.900756 9.86602 0)
(-1.05429 9.9069 0)
(-1.21705 9.97421 0)
(-1.38379 10.0737 0)
(-1.54712 10.2104 0)
(-1.69743 10.3882 0)
(-1.82308 10.6086 0)
(-1.91184 10.8687 0)
(-1.95843 11.1533 0)
(-1.98116 11.4638 0)
(-1.97352 11.7964 0)
(-1.91707 12.1243 0)
(-1.81618 12.4372 0)
(-1.67681 12.7275 0)
(-1.49914 12.9922 0)
(-1.3065 13.2242 0)
(-1.12707 13.4238 0)
(-0.962355 13.597 0)
(-0.812798 13.7477 0)
(-0.677987 13.8775 0)
(-0.55696 13.986 0)
(-0.448556 14.07 0)
(-0.351648 14.1241 0)
(-0.264837 14.139 0)
(-0.187022 14.097 0)
(-0.118303 13.9314 0)
(-0.0572268 13.3117 0)
(-0.0153002 11.3961 0)
(-0.26912 9.89052 0)
(-0.208779 9.9111 0)
(-0.155957 9.92979 5.90873e-18)
(-0.115054 9.94637 5.59457e-18)
(-0.0831796 9.96059 5.29212e-18)
(-0.0587373 9.97238 -5.00291e-18)
(-0.0403263 9.98182 0)
(-0.0267287 9.98906 0)
(-0.0169149 9.99433 0)
(-0.010032 9.99789 3.97696e-18)
(-0.00538614 10 1.87562e-18)
(-0.00242021 10.001 1.76692e-18)
(-0.000720508 10.0012 0)
(8.25053e-05 10.0009 -8.10564e-19)
(0.000320128 10.0004 -3.91125e-19)
(0.000116934 10 0)
(-0.337796 9.86857 0)
(-0.419812 9.84744 0)
(-0.515811 9.8292 0)
(-0.626749 9.81657 0)
(-0.753191 9.81305 0)
(-0.894974 9.82289 0)
(-1.05091 9.85111 0)
(-1.21845 9.90326 0)
(-1.39334 9.98517 0)
(-1.56937 10.1024 0)
(-1.7381 10.2596 0)
(-1.88898 10.4596 0)
(-2.00971 10.703 0)
(-2.08778 10.9848 0)
(-2.13804 11.3042 0)
(-2.15718 11.6501 0)
(-2.12354 11.9957 0)
(-2.0408 12.3291 0)
(-1.91496 12.6415 0)
(-1.75315 12.9267 0)
(-1.55588 13.1829 0)
(-1.34756 13.4047 0)
(-1.15651 13.5936 0)
(-0.983195 13.7562 0)
(-0.82733 13.8967 0)
(-0.68796 14.0169 0)
(-0.563657 14.1164 0)
(-0.452921 14.1923 0)
(-0.354369 14.2391 0)
(-0.266485 14.2477 0)
(-0.187903 14.1997 0)
(-0.118827 14.0267 0)
(-0.0574057 13.3926 0)
(-0.0154228 11.4544 0)
(-0.334525 9.85992 0)
(-0.262811 9.88344 0)
(-0.198943 9.90545 -1.2431e-17)
(-0.149002 9.92547 1.78174e-20)