/*--------------------------------*- C++ -*----------------------------------*\
  =========                 |
  \\      /  F ield         | OpenFOAM: The Open Source CFD Toolbox
   \\    /   O peration     | Website:  https://openfoam.org
    \\  /    A nd           | Version:  8
     \\/     M anipulation  |
\*---------------------------------------------------------------------------*/
FoamFile
{
    version     2.0;
    format      ascii;
    class       volVectorField;
    location    "0.11";
    object      U;
}
// * * * * * * * * * * * * * * * * * * * * * * * * * * * * * * * * * * * * * //

dimensions      [0 1 -1 0 0 0 0];

internalField   nonuniform List<vector> 
15677
(
(-0.0199314 9.66506 0)
(0.0435747 9.92084 0)
(0.00238183 9.37802 0)
(0.0147383 9.97646 0)
(0.0186124 9.78776 0)
(0.00701904 9.14235 0)
(0.0279632 9.99433 0)
(0.0171077 9.9248 0)
(0.0107326 9.65497 0)
(0.00608266 8.96006 0)
(0.0261104 10.0015 0)
(0.0215039 9.97855 0)
(0.0163935 9.85341 0)
(0.0090191 9.53032 0)
(0.00490802 8.81677 0)
(0.0249569 10.0047 0)
(0.0223768 10.0027 0)
(0.0191811 9.9429 0)
(0.0153703 9.77928 0)
(0.00788296 9.41945 0)
(0.00403767 8.70224 0)
(0.02398 10.0062 0)
(0.0225536 10.0142 0)
(0.0207922 9.9861 0)
(0.0182803 9.90237 0)
(0.0138979 9.70788 0)
(0.00680974 9.32138 0)
(0.00336892 8.60995 0)
(0.02264 10.0067 0)
(0.0223909 10.0199 0)
(0.0216194 10.0081 0)
(0.0201798 9.96496 0)
(0.0170448 9.86186 0)
(0.0124656 9.64076 0)
(0.00586047 9.23618 0)
(0.00280857 8.5359 0)
(0.0209555 10.0067 0)
(0.0218509 10.0223 0)
(0.0219446 10.0195 0)
(0.0212715 9.9981 0)
(0.0190845 9.94373 0)
(0.0156558 9.82234 0)
(0.0110996 9.57952 0)
(0.00498245 9.16388 0)
(0.00229246 8.47738 0)
(0.0190391 10.0063 0)
(0.0210142 10.0226 0)
(0.0218389 10.0255 0)
(0.0217713 10.0162 0)
(0.0202579 9.9882 0)
(0.0177172 9.9229 0)
(0.0141824 9.78535 0)
(0.00970702 9.52557 0)
(0.00411824 9.10427 0)
(0.00178236 8.43286 0)
(0.0169668 10.0057 0)
(0.0199543 10.0218 0)
(0.0213874 10.0284 0)
(0.0218009 10.0263 0)
(0.0208058 10.0132 0)
(0.0188673 9.97875 0)
(0.0161674 9.90366 0)
(0.0125568 9.75234 0)
(0.0082248 9.4799 0)
(0.0032226 9.05714 0)
(0.00124936 8.40137 0)
(0.0147613 10.0051 0)
(0.0186585 10.0203 0)
(0.020629 10.0292 0)
(0.0214817 10.0317 0)
(0.0208567 10.0274 0)
(0.019331 10.0106 0)
(0.017194 9.9707 0)
(0.0143524 9.88722 0)
(0.0107147 9.7245 0)
(0.00660384 9.44329 0)
(0.00225494 9.02242 0)
(0.000671236 8.38264 0)
(0.0124462 10.0044 0)
(0.017228 10.0183 0)
(0.019573 10.0285 0)
(0.0208178 10.0341 0)
(0.0204699 10.0354 0)
(0.0192596 10.0291 0)
(0.0174742 10.0093 0)
(0.0151428 9.96511 0)
(0.0121919 9.8746 0)
(0.00859635 9.70287 0)
(0.00479361 9.41647 0)
(0.00118153 9.00017 0)
(-3.75941e-06 8.37644 0)
(0.0101701 10.0036 0)
(0.0157322 10.0161 0)
(0.0182635 10.0268 0)
(0.0198331 10.0345 0)
(0.0197544 10.0396 0)
(0.0187366 10.0398 0)
(0.0171677 10.032 0)
(0.0151218 10.0104 0)
(0.0126179 9.96288 0)
(0.00960977 9.86676 0)
(0.00613765 9.6885 0)
(0.00274726 9.40009 0)
(-3.29085e-06 8.99056 0)
(-0.000642169 8.38275 0)
(0.00821776 10.0029 0)
(0.0141262 10.0136 0)
(0.016751 10.0245 0)
(0.0185402 10.0335 0)
(0.0186949 10.0411 0)
(0.0178216 10.0457 0)
(0.016366 10.0454 0)
(0.0144497 10.0372 0)
(0.0121587 10.0146 0)
(0.00952268 9.96487 0)
(0.00652336 9.8647 0)
(0.00327599 9.68237 0)
(0.000416667 9.39479 0)
(-0.00136601 8.99389 0)
(-0.00141272 8.4017 0)
(0.00666399 10.0023 0)
(0.0125736 10.0113 0)
(0.0150648 10.0217 0)
(0.0169517 10.0314 0)
(0.0172989 10.0408 0)
(0.0165262 10.0484 0)
(0.0151145 10.0531 0)
(0.0132192 10.0532 0)
(0.0109703 10.0454 0)
(0.00846707 10.0228 0)
(0.005751 9.97198 0)
(0.00285025 9.86942 0)
(-7.72896e-05 9.68545 0)
(-0.00223623 9.4012 0)
(-0.00291391 9.01033 0)
(-0.00228877 8.43355 0)
(0.00550708 10.0018 0)
(0.0111692 10.0093 0)
(0.0134092 10.0189 0)
(0.0150953 10.0286 0)
(0.0155713 10.0391 0)
(0.0148563 10.0488 0)
(0.0134303 10.0569 0)
(0.0114729 10.0625 0)
(0.00914282 10.0638 0)
(0.00658801 10.0574 0)
(0.00391597 10.0358 0)
(0.00120479 9.98514 0)
(-0.00147261 9.88191 0)
(-0.00387503 9.69857 0)
(-0.00522462 9.41987 0)
(-0.00464492 9.04014 0)
(-0.00326316 8.47838 0)
(0.0045397 10.0014 0)
(0.00978762 10.0077 0)
(0.011906 10.0164 0)
(0.0132155 10.0256 0)
(0.0135259 10.0363 0)
(0.0128145 10.0475 0)
(0.0113165 10.058 0)
(0.00922477 10.0674 0)
(0.00671471 10.0747 0)
(0.00396935 10.0782 0)
(0.00114631 10.074 0)
(-0.00162305 10.0545 0)
(-0.00423576 10.0053 0)
(-0.00654777 9.90307 0)
(-0.00824382 9.72253 0)
(-0.00859141 9.45121 0)
(-0.00656883 9.08339 0)
(-0.00433205 8.53624 0)
(0.00375382 10.0011 0)
(0.00854897 10.0064 0)
(0.0104804 10.0143 0)
(0.0114784 10.0229 0)
(0.0114183 10.033 0)
(0.0104108 10.0448 0)
(0.00877344 10.0571 0)
(0.0064749 10.0691 0)
(0.00369451 10.0805 0)
(0.00064208 10.0904 0)
(-0.00248949 10.0969 0)
(-0.00552576 10.096 0)
(-0.00829531 10.0797 0)
(-0.0106563 10.0332 0)
(-0.012417 9.93379 0)
(-0.0132119 9.75797 0)
(-0.0123523 9.49551 0)
(-0.00869274 9.14018 0)
(-0.00549358 8.60699 0)
(0.00311405 10.0009 0)
(0.00743224 10.0053 0)
(0.00917375 10.0124 0)
(0.00984408 10.0204 0)
(0.00944307 10.03 0)
(0.00793497 10.0413 0)
(0.00580946 10.0544 0)
(0.00322095 10.0684 0)
(7.7896e-05 10.0828 0)
(-0.00339308 10.0971 0)
(-0.00697004 10.1104 0)
(-0.0104365 10.1209 0)
(-0.0135799 10.1242 0)
(-0.0162043 10.1122 0)
(-0.0181249 10.0698 0)
(-0.0191158 9.97476 0)
(-0.0187849 9.80537 0)
(-0.0165045 9.55293 0)
(-0.0110049 9.21031 0)
(-0.00673675 8.69028 0)
(0.00258853 10.0008 0)
(0.0064233 10.0045 0)
(0.0079712 10.0108 0)
(0.00832813 10.0182 0)
(0.00757504 10.027 0)
(0.00561673 10.0379 0)
(0.00277634 10.0507 0)
(-0.000526275 10.0657 0)
(-0.00413687 10.0822 0)
(-0.0081457 10.0997 0)
(-0.0123019 10.1177 0)
(-0.0163553 10.1355 0)
(-0.0200549 10.1509 0)
(-0.0231606 10.1595 0)
(-0.0254449 10.1529 0)
(-0.0266964 10.1158 0)
(-0.0266628 10.0266 0)
(-0.0249566 9.86501 0)
(-0.021034 9.62343 0)
(-0.0134977 9.29357 0)
(-0.00805409 8.7857 0)
(0.00217118 10.0006 0)
(0.00551618 10.0038 0)
(0.00686755 10.0095 0)
(0.00693301 10.0162 0)
(0.00583385 10.0243 0)
(0.00343099 10.0344 0)
(-4.79927e-05 10.0468 0)
(-0.00432661 10.0616 0)
(-0.00893619 10.0792 0)
(-0.0136199 10.0991 0)
(-0.0185051 10.1205 0)
(-0.0233073 10.1433 0)
(-0.0277392 10.1664 0)
(-0.0315219 10.1877 0)
(-0.0343864 10.2026 0)
(-0.0360878 10.2024 0)
(-0.0363958 10.1718 0)
(-0.0350525 10.0896 0)
(-0.0317045 9.93703 0)
(-0.0259121 9.7068 0)
(-0.0161407 9.38934 0)
(-0.00942402 8.89243 0)
(0.00185091 10.0005 0)
(0.00474193 10.0032 0)
(0.00586086 10.0083 0)
(0.00566083 10.0144 0)
(0.00423267 10.0218 0)
(0.00140398 10.0311 0)
(-0.00269393 10.0427 0)
(-0.00784456 10.0571 0)
(-0.0137652 10.0746 0)
(-0.0197981 10.0957 0)
(-0.0255873 10.1197 0)
(-0.0313233 10.1461 0)
(-0.0366782 10.1745 0)
(-0.0413323 10.2039 0)
(-0.0449814 10.232 0)
(-0.0473437 10.2541 0)
(-0.048165 10.2613 0)
(-0.0472158 10.2382 0)
(-0.0442544 10.1641 0)
(-0.0389841 10.0213 0)
(-0.0310957 9.80257 0)
(-0.0189132 9.49705 0)
(-0.0108288 9.00972 0)
(0.00160223 10.0005 0)
(0.00411431 10.0028 0)
(0.00498641 10.0073 0)
(0.00451141 10.0127 0)
(0.00277962 10.0195 0)
(-0.000444447 10.028 0)
(-0.00512735 10.0387 0)
(-0.011122 10.0523 0)
(-0.0182089 10.0693 0)
(-0.0259709 10.0903 0)
(-0.0335258 10.1157 0)
(-0.0404158 10.1448 0)
(-0.0469171 10.1771 0)
(-0.0526629 10.2121 0)
(-0.0573083 10.2487 0)
(-0.0605401 10.2845 0)
(-0.0620752 10.3146 0)
(-0.0616704 10.33 0)
(-0.0591147 10.3152 0)
(-0.0542053 10.25 0)
(-0.0467308 10.1174 0)
(-0.0365308 9.91014 0)
(-0.0217572 9.61567 0)
(-0.0122291 9.13598 0)
(0.00140574 10.0004 0)
(0.00360749 10.0025 0)
(0.00426315 10.0065 0)
(0.00352633 10.0113 0)
(0.00147872 10.0173 0)
(-0.00210158 10.025 0)
(-0.00732299 10.0348 0)
(-0.0141131 10.0474 0)
(-0.0223244 10.0635 0)
(-0.0316209 10.0839 0)
(-0.0414134 10.1092 0)
(-0.0505554 10.1398 0)
(-0.0584759 10.1751 0)
(-0.0655796 10.2143 0)
(-0.0714712 10.2568 0)
(-0.0757986 10.3014 0)
(-0.0782543 10.3457 0)
(-0.0785763 10.3846 0)
(-0.0765516 10.4087 0)
(-0.0720128 10.4029 0)
(-0.0648191 10.3472 0)
(-0.0548583 10.2249 0)
(-0.0421059 10.0286 0)
(-0.0245627 9.74389 0)
(-0.0131855 9.2695 0)
(0.00124823 10.0004 0)
(0.00319728 10.0022 0)
(0.00366771 10.0058 0)
(0.00272593 10.0102 0)
(0.000380736 10.0154 0)
(-0.00356094 10.0222 0)
(-0.00926274 10.0311 0)
(-0.0167841 10.0425 0)
(-0.0260546 10.0575 0)
(-0.0368273 10.0769 0)
(-0.0486037 10.1015 0)
(-0.0605896 10.132 0)
(-0.0713196 10.1689 0)
(-0.0801141 10.2114 0)
(-0.087563 10.2583 0)
(-0.0932634 10.3092 0)
(-0.096875 10.3627 0)
(-0.0981219 10.4161 0)
(-0.0967877 10.4642 0)
(-0.0927161 10.4976 0)
(-0.0857977 10.501 0)
(-0.0759727 10.4549 0)
(-0.0632248 10.3429 0)
(-0.0477705 10.1568 0)
(-0.027344 9.88146 0)
(-0.0142543 9.41027 0)
(0.00112031 10.0003 0)
(0.00285971 10.002 0)
(0.00317571 10.0053 0)
(0.00207944 10.0092 0)
(-0.000490668 10.0138 0)
(-0.00476421 10.0197 0)
(-0.0109353 10.0274 0)
(-0.0191099 10.0377 0)
(-0.0293552 10.0514 0)
(-0.0415196 10.0695 0)
(-0.0552043 10.0929 0)
(-0.0697108 10.1226 0)
(-0.0839965 10.1593 0)
(-0.0962274 10.2035 0)
(-0.105631 10.2542 0)
(-0.11306 10.3098 0)
(-0.118131 10.3699 0)
(-0.120545 10.4329 0)
(-0.120084 10.4959 0)
(-0.116603 10.5536 0)
(-0.110021 10.5965 0)
(-0.100313 10.6093 0)
(-0.0874913 10.5728 0)
(-0.071678 10.4704 0)
(-0.0526341 10.2939 0)
(-0.0237264 10.0218 0)
(-0.00927318 9.49562 0)
(0.00101517 10.0003 0)
(0.00258125 10.0018 0)
(0.00276786 10.0048 0)
(0.00155504 10.0083 0)
(-0.00117439 10.0124 0)
(-0.00569185 10.0174 0)
(-0.0122739 10.024 0)
(-0.0210736 10.033 0)
(-0.0321925 10.0453 0)
(-0.0456409 10.0618 0)
(-0.0611284 10.0837 0)
(-0.078063 10.112 0)
(-0.0955003 10.1478 0)
(-0.112105 10.1918 0)
(-0.125632 10.2445 0)
(-0.135262 10.3042 0)
(-0.142198 10.3695 0)
(-0.146101 10.4394 0)
(-0.146746 10.5123 0)
(-0.144009 10.5853 0)
(-0.137847 10.6527 0)
(-0.128277 10.705 0)
(-0.11534 10.7271 0)
(-0.0991615 10.6998 0)
(-0.0796357 10.6066 0)
(-0.0573241 10.4369 0)
(-0.0193833 10.193 0)
(-0.0014566 9.56123 0)
(0.000927788 10.0003 0)
(0.00235033 10.0017 0)
(0.00242543 10.0045 0)
(0.00113207 10.0076 0)
(-0.00171054 10.0112 0)
(-0.0063933 10.0155 0)
(-0.0132662 10.0211 0)
(-0.0225965 10.0286 0)
(-0.0345425 10.0392 0)
(-0.0491464 10.054 0)
(-0.0663034 10.0741 0)
(-0.0855393 10.1006 0)
(-0.10602 10.1349 0)
(-0.126504 10.1779 0)
(-0.145335 10.2302 0)
(-0.159834 10.2923 0)
(-0.169174 10.3621 0)
(-0.175006 10.4377 0)
(-0.177091 10.5179 0)
(-0.175321 10.6011 0)
(-0.169697 10.684 0)
(-0.160295 10.7611 0)
(-0.147223 10.8226 0)
(-0.130618 10.8536 0)
(-0.110448 10.8349 0)
(-0.086621 10.75 0)
(-0.0610864 10.5937 0)
(-0.0213219 10.366 0)
(0.0025944 9.6184 0)
(0.000854472 10.0002 0)
(0.00215795 10.0016 0)
(0.00214026 10.0041 0)
(0.000790935 10.007 0)
(-0.00212893 10.0102 0)
(-0.00691734 10.0139 0)
(-0.013978 10.0185 0)
(-0.0236752 10.0247 0)
(-0.0363109 10.0334 0)
(-0.0520032 10.0462 0)
(-0.0706706 10.0642 0)
(-0.0920474 10.0886 0)
(-0.115424 10.1208 0)
(-0.139668 10.1621 0)
(-0.163206 10.2133 0)
(-0.184043 10.275 0)
(-0.199028 10.3475 0)
(-0.207405 10.4283 0)
(-0.211408 10.5147 0)
(-0.210943 10.6057 0)
(-0.206055 10.6992 0)
(-0.196893 10.792 0)
(-0.183656 10.8784 0)
(-0.166558 10.9487 0)
(-0.14565 10.9881 0)
(-0.120812 10.9777 0)
(-0.0921805 10.9016 0)
(-0.0625121 10.7632 0)
(-0.024664 10.5359 0)
(0.00351608 9.67518 0)
(0.000792465 10.0002 0)
(0.00199679 10.0015 0)
(0.00190238 10.0038 0)
(0.000511915 10.0065 0)
(-0.0024543 10.0093 0)
(-0.00730297 10.0124 0)
(-0.0144724 10.0162 0)
(-0.0243985 10.0212 0)
(-0.0375056 10.0283 0)
(-0.0540962 10.0387 0)
(-0.0741855 10.0542 0)
(-0.0975113 10.0762 0)
(-0.123596 10.1058 0)
(-0.151435 10.1448 0)
(-0.179555 10.1941 0)
(-0.206022 10.2548 0)
(-0.228471 10.3269 0)
(-0.243295 10.4108 0)
(-0.249903 10.5031 0)
(-0.251247 10.6009 0)
(-0.247422 10.7026 0)
(-0.238662 10.8064 0)
(-0.225271 10.9088 0)
(-0.207587 11.004 0)
(-0.185823 11.0826 0)
(-0.160004 11.1299 0)
(-0.130444 11.1275 0)
(-0.0973433 11.0614 0)
(-0.064298 10.9402 0)
(-0.0274069 10.7013 0)
(0.00313907 9.74875 0)
(0.000739665 10.0002 0)
(0.00186097 10.0014 0)
(0.00170587 10.0036 0)
(0.000282795 10.006 0)
(-0.00270715 10.0085 0)
(-0.00758146 10.0112 0)
(-0.0148 10.0143 0)
(-0.0248494 10.0182 0)
(-0.0382456 10.0237 0)
(-0.0554479 10.032 0)
(-0.0767058 10.0445 0)
(-0.101871 10.0634 0)
(-0.130439 10.0903 0)
(-0.16166 10.1263 0)
(-0.194185 10.173 0)
(-0.22616 10.2317 0)
(-0.255248 10.3028 0)
(-0.278748 10.3865 0)
(-0.292602 10.4825 0)
(-0.296506 10.5869 0)
(-0.294261 10.6961 0)
(-0.286201 10.8087 0)
(-0.272771 10.9224 0)
(-0.254448 11.0338 0)
(-0.231651 11.1372 0)
(-0.204637 11.2235 0)
(-0.173837 11.2784 0)
(-0.140028 11.2837 0)
(-0.103326 11.2284 0)
(-0.0669228 11.1194 0)
(-0.0302514 10.8815 0)
(0.00205519 9.83326 0)
(0.000694417 10.0002 0)
(0.00174588 10.0013 0)
(0.0015404 10.0034 0)
(9.25682e-05 10.0056 0)
(-0.00290315 10.0078 0)
(-0.00777764 10.0101 0)
(-0.0150011 10.0126 0)
(-0.0250946 10.0155 0)
(-0.0386406 10.0197 0)
(-0.056216 10.026 0)
(-0.0782705 10.0358 0)
(-0.104949 10.0511 0)
(-0.135873 10.0743 0)
(-0.170218 10.107 0)
(-0.206915 10.1505 0)
(-0.244216 10.2062 0)
(-0.27984 10.2753 0)
(-0.311066 10.358 0)
(-0.334878 10.454 0)
(-0.346796 10.5628 0)
(-0.34693 10.6797 0)
(-0.340083 10.8004 0)
(-0.32687 10.9234 0)
(-0.307962 11.0466 0)
(-0.283988 11.1664 0)
(-0.255478 11.2775 0)
(-0.223024 11.371 0)
(-0.187509 11.4328 0)
(-0.149922 11.4452 0)
(-0.110088 11.3995 0)
(-0.0708048 11.3194 0)
(-0.0332514 11.0764 0)
(0.000358791 9.92683 0)
(0.000655447 10.0002 0)
(0.00164783 10.0012 0)
(0.00140023 10.0032 0)
(-6.30622e-05 10.0053 0)
(-0.00305479 10.0073 0)
(-0.007911 10.0091 0)
(-0.0151073 10.011 0)
(-0.0251868 10.0132 0)
(-0.0387781 10.0161 0)
(-0.0565441 10.0206 0)
(-0.0790866 10.028 0)
(-0.106803 10.0399 0)
(-0.139672 10.0587 0)
(-0.177004 10.0871 0)
(-0.217585 10.1268 0)
(-0.259967 10.1789 0)
(-0.301954 10.2449 0)
(-0.340836 10.3256 0)
(-0.373524 10.4209 0)
(-0.39672 10.53 0)
(-0.405579 10.6521 0)
(-0.40078 10.7815 0)
(-0.388272 10.9135 0)
(-0.368971 11.0465 0)
(-0.343785 11.1785 0)
(-0.313515 11.3061 0)
(-0.278988 11.4242 0)
(-0.241194 11.5241 0)
(-0.201265 11.5919 0)
(-0.160034 11.61 0)
(-0.117874 11.5932 0)
(-0.0755972 11.5385 0)
(-0.0364113 11.2665 0)
(-0.00153634 10.0275 0)
(0.000622063 10.0002 0)
(0.00156365 10.0012 0)
(0.00128107 10.0031 0)
(-0.000190996 10.005 0)
(-0.0031714 10.0067 0)
(-0.00799677 10.0083 0)
(-0.0151433 10.0097 0)
(-0.0251671 10.0111 0)
(-0.0387272 10.013 0)
(-0.056547 10.0159 0)
(-0.0793408 10.0211 0)
(-0.107699 10.0299 0)
(-0.141916 10.0445 0)
(-0.181732 10.0676 0)
(-0.226059 10.1022 0)
(-0.273214 10.1501 0)
(-0.321317 10.2122 0)
(-0.367709 10.2897 0)
(-0.409251 10.3831 0)
(-0.44251 10.4919 0)
(-0.463982 10.6147 0)
(-0.468534 10.7503 0)
(-0.457573 10.8921 0)
(-0.438319 11.035 0)
(-0.412019 11.1774 0)
(-0.379833 11.3175 0)
(-0.342855 11.4521 0)
(-0.302267 11.5763 0)
(-0.259317 11.6816 0)
(-0.215072 11.7536 0)
(-0.171156 11.7965 0)
(-0.126359 11.8079 0)
(-0.0807121 11.7534 0)
(-0.0394874 11.4516 0)
(-0.00336105 10.133 0)
(0.00149034 10.0012 0)
(0.000582295 10.0002 0)
(0.00117854 10.0029 0)
(-0.000296704 10.0047 0)
(-0.00326042 10.0063 0)
(-0.0080467 10.0076 0)
(-0.0151285 10.0085 0)
(-0.0250677 10.0093 0)
(-0.0385419 10.0102 0)
(-0.0563151 10.0118 0)
(-0.0791822 10.0149 0)
(-0.107879 10.021 0)
(-0.142943 10.0317 0)
(-0.184498 10.0497 0)
(-0.231973 10.078 0)
(-0.283778 10.12 0)
(-0.337678 10.1774 0)
(-0.391348 10.2508 0)
(-0.441642 10.341 0)
(-0.485014 10.4482 0)
(-0.517751 10.5712 0)
(-0.536237 10.7082 0)
(-0.535141 10.8573 0)
(-0.516751 11.0112 0)
(-0.489691 11.1644 0)
(-0.455559 11.3155 0)
(-0.415834 11.4628 0)
(-0.37196 11.6035 0)
(-0.325367 11.7328 0)
(-0.277323 11.8417 0)
(-0.23025 11.9363 0)
(-0.183054 12.0037 0)
(-0.13457 12.02 0)
(-0.0858069 11.9627 0)
(-0.042346 11.6309 0)
(-0.005108 10.2411 0)
(0.00108926 10.0028 0)
(0.00140603 10.0011 0)
(0.000534758 10.0002 0)
(-0.000385335 10.0045 0)
(-0.00332797 10.0059 0)
(-0.00806965 10.0069 0)
(-0.0150775 10.0075 0)
(-0.0249132 10.0077 0)
(-0.0382638 10.0078 0)
(-0.0559188 10.0081 0)
(-0.0787286 10.0095 0)
(-0.107535 10.013 0)
(-0.14306 10.0203 0)
(-0.185731 10.0336 0)
(-0.235439 10.0558 0)
(-0.291196 10.0904 0)
(-0.350812 10.1411 0)
(-0.411446 10.2094 0)
(-0.470295 10.2954 0)
(-0.523743 10.3995 0)
(-0.567887 10.5214 0)
(-0.598823 10.6592 0)
(-0.612937 10.8105 0)
(-0.604788 10.9729 0)
(-0.57772 11.1384 0)
(-0.541866 11.3011 0)
(-0.499216 11.46 0)
(-0.451609 11.6135 0)
(-0.400756 11.7592 0)
(-0.348147 11.8918 0)
(-0.297014 12.0224 0)
(-0.246375 12.1389 0)
(-0.194386 12.2092 0)
(-0.142324 12.2277 0)
(-0.0906454 12.1649 0)
(-0.0449191 11.8039 0)
(-0.00673552 10.3501 0)
(-0.000463266 10.0043 0)
(0.000997311 10.0027 0)
(0.00130379 10.001 0)
(0.000489455 10.0001 4.17572e-20)
(-0.00338 10.0056 0)
(-0.00807268 10.0064 0)
(-0.0150012 10.0066 0)
(-0.0247226 10.0063 0)
(-0.0379252 10.0056 0)
(-0.0554126 10.0048 0)
(-0.0780713 10.0046 0)
(-0.106818 10.0059 0)
(-0.142512 10.0101 0)
(-0.185814 10.0192 0)
(-0.236984 10.0358 0)
(-0.295587 10.0631 0)
(-0.360125 10.1052 0)
(-0.427712 10.166 0)
(-0.49483 10.2466 0)
(-0.558217 10.3465 0)
(-0.613823 10.4657 0)
(-0.657467 10.6029 0)
(-0.685165 10.756 0)
(-0.693423 10.9215 0)
(-0.67681 11.0968 0)
(-0.639872 11.2731 0)
(-0.594367 11.4444 0)
(-0.542685 11.61 0)
(-0.486962 11.7686 0)
(-0.429037 11.9176 0)
(-0.37294 12.0714 0)
(-0.317841 12.2227 0)
(-0.261554 12.3398 0)
(-0.204996 12.411 0)
(-0.149469 12.4291 0)
(-0.0951074 12.3594 0)
(-0.0471779 11.9703 0)
(-0.0082112 10.4584 0)
(-0.00342639 10.0053 0)
(-0.000526297 10.004 0)
(0.000893379 10.0025 1.90031e-19)
(0.00120445 10.0009 -1.32389e-19)
(0.000446328 10.0001 -8.19605e-20)
(-0.00806266 10.0059 0)
(-0.0149079 10.0058 0)
(-0.0245093 10.0051 0)
(-0.0375502 10.0037 0)
(-0.054838 10.002 0)
(-0.077281 10.0004 0)
(-0.105846 9.99964 0)
(-0.141493 10.001 0)
(-0.185056 10.0063 0)
(-0.237085 10.0177 0)
(-0.297594 10.0384 0)
(-0.365732 10.072 0)
(-0.439395 10.123 0)
(-0.514883 10.1953 0)
(-0.587975 10.2897 0)
(-0.654992 10.4048 0)
(-0.711515 10.5398 0)
(-0.753192 10.6931 0)
(-0.776084 10.8614 0)
(-0.776961 11.0409 0)
(-0.750504 11.2284 0)
(-0.702621 11.4147 0)
(-0.646758 11.5934 0)
(-0.58565 11.7645 0)
(-0.521618 11.9267 0)
(-0.459726 12.0967 0)
(-0.399118 12.2708 0)
(-0.337339 12.4214 0)
(-0.275641 12.5373 0)
(-0.214737 12.6074 0)
(-0.155931 12.6233 0)
(-0.0991343 12.5456 0)
(-0.0491273 12.1295 0)
(-0.00952361 10.5646 0)
(-0.008055 10.0054 0)
(-0.00342604 10.0049 -4.293e-19)
(-0.00057893 10.0037 -2.00811e-19)
(0.00079528 10.0023 9.32632e-20)
(0.00110869 10.0009 -8.65998e-20)
(0.00040542 10.0001 0)
(-0.0148053 10.0051 0)
(-0.0242831 10.004 0)
(-0.037156 10.002 0)
(-0.0542263 9.99945 0)
(-0.0764115 9.99658 0)
(-0.104711 9.99409 0)
(-0.140153 9.99299 0)
(-0.183702 9.99479 0)
(-0.23613 10.0016 0)
(-0.297803 10.0161 0)
(-0.368405 10.0419 0)
(-0.446585 10.083 0)
(-0.529503 10.1442 0)
(-0.612565 10.2296 0)
(-0.690842 10.3392 0)
(-0.760311 10.4706 0)
(-0.816282 10.6224 0)
(-0.854357 10.7919 0)
(-0.870791 10.9755 0)
(-0.862757 11.1684 0)
(-0.825162 11.3672 0)
(-0.765396 11.5622 0)
(-0.698604 11.7473 0)
(-0.62776 11.9222 0)
(-0.559168 12.1055 0)
(-0.492106 12.2956 0)
(-0.423589 12.4685 0)
(-0.355361 12.6167 0)
(-0.288494 12.7296 0)
(-0.223529 12.7972 0)
(-0.161682 12.8095 0)
(-0.102704 12.7232 0)
(-0.0507899 12.2814 0)
(-0.0106736 10.6679 0)
(-0.0147169 10.0045 0)
(-0.00795313 10.0049 9.07247e-19)
(-0.00336889 10.0044 0)
(-0.000626374 10.0034 1.97043e-19)
(0.000703942 10.0022 3.33054e-23)
(0.00101701 10.0008 0)
(0.000366746 10.0001 0)
(-0.0240525 10.003 0)
(-0.0367539 10.0006 0)
(-0.0535995 9.99721 0)
(-0.0755033 9.99324 0)
(-0.103482 9.98917 0)
(-0.138609 9.98585 0)
(-0.181943 9.98457 0)
(-0.234422 9.98716 0)
(-0.296689 9.9961 0)
(-0.368855 10.0146 0)
(-0.450196 10.0466 0)
(-0.53873 10.0966 0)
(-0.630791 10.1696 0)
(-0.720817 10.2696 0)
(-0.8032 10.3958 0)
(-0.873684 10.5445 0)
(-0.92743 10.7135 0)
(-0.960144 10.8995 0)
(-0.968426 11.0978 0)
(-0.94999 11.3033 0)
(-0.900072 11.5123 0)
(-0.827635 11.7148 0)
(-0.749457 11.9045 0)
(-0.67338 12.101 0)
(-0.598802 12.3045 0)
(-0.522361 12.4933 0)
(-0.446181 12.663 0)
(-0.371779 12.807 0)
(-0.300053 12.9158 0)
(-0.231345 12.9795 0)
(-0.166735 12.9873 0)
(-0.105825 12.8919 0)
(-0.0521939 12.4256 0)
(-0.0116681 10.7673 0)
(-0.0238526 10.0022 0)
(-0.0144663 10.0038 1.1957e-22)
(-0.00771823 10.0043 0)
(-0.00330754 10.004 -2.08203e-19)
(-0.000664752 10.0032 1.96596e-23)
(0.000619144 10.002 0)
(0.000929379 10.0007 0)
(0.000330315 10.0001 0)
(-0.0363537 9.99925 0)
(-0.0529711 9.99522 0)
(-0.0745842 9.99028 0)
(-0.10221 9.98481 0)
(-0.13695 9.97952 0)
(-0.179927 9.9755 0)
(-0.232203 9.97433 0)
(-0.29463 9.97822 0)
(-0.367659 9.99007 0)
(-0.451079 10.0136 0)
(-0.54363 10.053 0)
(-0.642607 10.1134 0)
(-0.743427 10.1998 0)
(-0.839508 10.316 0)
(-0.924624 10.4599 0)
(-0.994439 10.6268 0)
(-1.04412 10.8134 0)
(-1.06964 11.0156 0)
(-1.06809 11.228 0)
(-1.03784 11.4451 0)
(-0.974544 11.6631 0)
(-0.888768 11.8713 0)
(-0.804578 12.0831 0)
(-0.721563 12.3002 0)
(-0.635855 12.5025 0)
(-0.550287 12.6879 0)
(-0.46677 12.8528 0)
(-0.38654 12.9913 0)
(-0.310318 13.0949 0)
(-0.238211 13.154 0)
(-0.171119 13.1563 0)
(-0.108518 13.0516 0)
(-0.0533669 12.5621 0)
(-0.0125181 10.8625 0)
(-0.0360067 9.99809 0)
(-0.0233958 10.0012 -5.06514e-19)
(-0.0139664 10.003 0)
(-0.00748178 10.0037 0)
(-0.00323335 10.0036 6.12993e-19)
(-0.000693746 10.0029 0)
(0.000540842 10.0018 0)
(0.000845842 10.0007 1.63724e-19)
(0.000296151 10.0001 0)
(-0.0523519 9.99347 0)
(-0.0736709 9.98766 0)
(-0.100932 9.98096 0)
(-0.135243 9.97392 0)
(-0.177767 9.96744 0)
(-0.229657 9.96292 0)
(-0.291923 9.96227 0)
(-0.365281 9.96812 0)
(-0.449928 9.98381 0)
(-0.545208 10.0135 0)
(-0.64924 10.0619 0)
(-0.758494 10.1342 0)
(-0.867391 10.2356 0)
(-0.968302 10.3694 0)
(-1.0545 10.5322 0)
(-1.12175 10.7178 0)
(-1.1654 10.922 0)
(-1.18186 11.1399 0)
(-1.16884 11.3656 0)
(-1.1255 11.593 0)
(-1.0479 11.8181 0)
(-0.955131 12.0495 0)
(-0.862852 12.2827 0)
(-0.766641 12.4989 0)
(-0.670071 12.6978 0)
(-0.575748 12.878 0)
(-0.485301 13.0368 0)
(-0.399662 13.1689 0)
(-0.319331 13.2664 0)
(-0.244179 13.32 0)
(-0.17488 13.3165 0)
(-0.110818 13.2025 0)
(-0.0543366 12.6909 0)
(-0.0132363 10.9531 0)
(-0.0518158 9.99192 0)
(-0.0352725 9.9968 0)
(-0.022521 10.0001 -5.00857e-19)
(-0.0134706 10.0022 -4.65058e-19)
(-0.00722783 10.0031 -8.6367e-19)
(-0.00314474 10.0032 0)
(-0.000713277 10.0026 -3.72498e-19)
(0.000469168 10.0017 -3.45988e-19)
(0.000766432 10.0006 1.6068e-19)
(0.00026421 10.0001 0)
(-0.0727756 9.98535 0)
(-0.0996674 9.97754 0)
(-0.133532 9.96895 0)
(-0.175548 9.9603 0)
(-0.226927 9.95278 0)
(-0.2888 9.94808 0)
(-0.362085 9.94851 0)
(-0.447303 9.95713 0)
(-0.544291 9.97776 0)
(-0.651861 10.015 0)
(-0.767406 10.0738 0)
(-0.886485 10.1598 0)
(-1.00246 10.2777 0)
(-1.10667 10.4305 0)
(-1.19204 10.613 0)
(-1.25467 10.8176 0)
(-1.29025 11.0393 0)
(-1.29578 11.2721 0)
(-1.26977 11.5099 0)
(-1.21216 11.746 0)
(-1.12778 11.9954 0)
(-1.02546 12.2493 0)
(-0.917442 12.4821 0)
(-0.808298 12.6951 0)
(-0.701293 12.8888 0)
(-0.59869 13.0625 0)
(-0.501794 13.2141 0)
(-0.411206 13.339 0)
(-0.327166 13.4299 0)
(-0.249309 13.4776 0)
(-0.178069 13.4678 0)
(-0.112761 13.3445 0)
(-0.0551299 12.8121 0)
(-0.0138357 11.0389 0)
(-0.0720024 9.9833 0)
(-0.0507175 9.99023 -5.66595e-19)
(-0.0338839 9.99538 5.29162e-19)
(-0.0216608 9.99905 -2.69502e-22)
(-0.0129513 10.0014 4.56282e-19)
(-0.00695294 10.0025 4.23828e-19)
(-0.00304201 10.0028 7.87196e-19)
(-0.000723267 10.0024 5.48343e-19)
(0.000403967 10.0015 -1.69785e-19)
(0.000691225 10.0006 0)
(0.00023448 10.0001 0)
(-0.0984311 9.97452 0)
(-0.131843 9.96454 0)
(-0.173327 9.95397 0)
(-0.224121 9.94379 0)
(-0.285439 9.93545 0)
(-0.358357 9.93103 0)
(-0.44365 9.93325 0)
(-0.541549 9.94563 0)
(-0.651442 9.97245 0)
(-0.771514 10.0187 0)
(-0.898338 10.0897 0)
(-1.02647 10.1909 0)
(-1.1482 10.3269 0)
(-1.25389 10.4998 0)
(-1.33632 10.7027 0)
(-1.39212 10.9264 0)
(-1.41755 11.1649 0)
(-1.41037 11.4117 0)
(-1.36992 11.6599 0)
(-1.30689 11.9217 0)
(-1.21276 12.1952 0)
(-1.09156 12.4496 0)
(-0.967991 12.6797 0)
(-0.84634 12.8874 0)
(-0.729455 13.0743 0)
(-0.619142 13.2404 0)
(-0.516325 13.3842 0)
(-0.421264 13.5014 0)
(-0.33391 13.5852 0)
(-0.253677 13.6266 0)
(-0.180741 13.6103 0)
(-0.114386 13.478 0)
(-0.0557705 12.9259 0)
(-0.0143295 11.1199 0)
(-0.0973669 9.97184 0)
(-0.0704351 9.9811 -8.53854e-22)
(-0.0486423 9.98841 0)
(-0.0325275 9.99402 -4.34141e-22)
(-0.0207699 9.99804 0)
(-0.0124027 10.0006 -4.47804e-19)
(-0.00665712 10.002 -8.31854e-19)
(-0.00292493 10.0024 1.98546e-23)
(-0.000723874 10.0021 3.58756e-19)
(0.00034527 10.0014 -1.66625e-19)
(0.000620197 10.0005 1.54775e-19)
(0.000206935 10.0001 0)
(-0.130194 9.96064 0)
(-0.171135 9.94835 0)
(-0.22131 9.9358 0)
(-0.281975 9.92423 0)
(-0.354318 9.91546 0)
(-0.439317 9.91192 0)
(-0.537517 9.91682 0)
(-0.648776 9.93412 0)
(-0.771947 9.96857 0)
(-0.904486 10.0255 0)
(-1.04205 10.1103 0)
(-1.17815 10.2284 0)
(-1.30399 10.3839 0)
(-1.40908 10.5778 0)
(-1.48625 10.8015 0)
(-1.53298 11.0439 0)
(-1.54623 11.2985 0)
(-1.5246 11.5577 0)
(-1.47987 11.8332 0)
(-1.40807 12.1208 0)
(-1.29291 12.3964 0)
(-1.15295 12.6488 0)
(-1.01428 12.8737 0)
(-0.880709 13.0745 0)
(-0.754591 13.2535 0)
(-0.637194 13.4113 0)
(-0.52901 13.5466 0)
(-0.429946 13.6557 0)
(-0.33966 13.7322 0)
(-0.257357 13.767 0)
(-0.182953 13.7442 0)
(-0.11573 13.6032 0)
(-0.0562792 13.0326 0)
(-0.0147314 11.1962 0)
(-0.12878 9.95717 0)
(-0.095205 9.96902 6.33031e-19)
(-0.0674605 9.97878 -5.92475e-19)
(-0.0466263 9.98666 5.49065e-19)
(-0.0311322 9.99271 0)
(-0.0198379 9.99706 0)
(-0.0118243 9.99991 4.3948e-19)
(-0.00634129 10.0015 -4.08136e-19)
(-0.0027939 10.0021 2.57865e-23)
(-0.000714865 10.0019 1.76073e-19)
(0.000292883 10.0013 -1.63551e-19)
(0.000553257 10.0005 -1.51899e-19)
(0.000181669 10.0001 0)
(-0.168995 9.94337 0)
(-0.218533 9.92871 0)
(-0.278498 9.91427 0)
(-0.350136 9.90161 0)
(-0.434577 9.89291 0)
(-0.532619 9.89105 0)
(-0.644503 9.89969 0)
(-0.769634 9.92328 0)
(-0.906227 9.96692 0)
(-1.0509 10.0362 0)
(-1.19835 10.1367 0)
(-1.341 10.2732 0)
(-1.46904 10.4494 0)
(-1.57121 10.6651 0)
(-1.6407 10.9095 0)
(-1.67608 11.1702 0)
(-1.67512 11.4393 0)
(-1.65063 11.7276 0)
(-1.59787 12.0309 0)
(-1.50392 12.3226 0)
(-1.36762 12.5974 0)
(-1.20935 12.845 0)
(-1.05624 13.0629 0)
(-0.911464 13.2555 0)
(-0.77681 13.4258 0)
(-0.652981 13.5746 0)
(-0.539982 13.7011 0)
(-0.437374 13.802 0)
(-0.344519 13.871 0)
(-0.260428 13.8992 0)
(-0.184762 13.8699 0)
(-0.116828 13.7203 0)
(-0.0566771 13.1324 0)
(-0.0150551 11.2677 0)
(-0.16717 9.93895 0)
(-0.125876 9.95358 0)
(-0.0910727 9.96609 6.25762e-19)
(-0.064584 9.97656 -1.16321e-18)
(-0.0445612 9.98499 1.07923e-18)
(-0.0296807 9.99145 -1.00151e-18)
(-0.0188649 9.99613 0)
(-0.0112177 9.99923 4.31481e-19)
(-0.00600559 10.001 -4.00551e-19)
(-0.00265043 10.0017 -3.72103e-19)
(-0.000695365 10.0017 0)
(0.000246584 10.0012 1.60516e-19)
(0.00049069 10.0004 0)
(0.000159122 10 0)
(-0.215823 9.92242 0)
(-0.275055 9.90541 0)
(-0.345923 9.88929 0)
(-0.429635 9.87597 0)
(-0.527186 9.86804 0)
(-0.63913 9.86883 0)
(-0.765329 9.88249 0)
(-0.904635 9.91387 0)
(-1.05452 9.96843 0)
(-1.21071 10.0519 0)
(-1.36684 10.1696 0)
(-1.51432 10.3262 0)
(-1.64237 10.5241 0)
(-1.73914 10.7618 0)
(-1.79847 11.0268 0)
(-1.82019 11.3044 0)
(-1.81812 11.6045 0)
(-1.78665 11.9228 0)
(-1.71028 12.2326 0)
(-1.5937 12.5252 0)
(-1.43649 12.7962 0)
(-1.26061 13.037 0)
(-1.0939 13.2464 0)
(-0.938736 13.4298 0)
(-0.796274 13.5905 0)
(-0.666663 13.73 0)
(-0.549392 13.8476 0)
(-0.44367 13.9401 0)
(-0.348587 14.0016 0)
(-0.262962 14.0232 0)
(-0.186221 13.9876 0)
(-0.117713 13.8299 0)
(-0.0569823 13.2256 0)
(-0.015312 11.3346 0)
(-0.213523 9.91683 0)
(-0.163355 9.93441 0)
(-0.120279 9.94991 0)
(-0.0870962 9.9633 1.22851e-18)
(-0.0616485 9.97445 -1.13998e-18)
(-0.0424223 9.9834 1.05796e-18)
(-0.0281743 9.99027 0)
(-0.0178531 9.99525 -4.5585e-19)
(-0.0105836 9.99859 0)
(-0.00565111 10.0005 3.93145e-19)
(-0.0024927 10.0014 0)
(-0.000667234 10.0015 0)
(0.000206879 10.001 0)
(0.000433842 10.0004 1.56039e-19)
(0.00013934 10 7.62094e-20)
(-0.271694 9.89754 0)
(-0.341739 9.87833 0)
(-0.424631 9.86088 0)
(-0.521471 9.84751 0)
(-0.633058 9.84123 0)
(-0.759636 9.84585 0)
(-0.900593 9.86596 0)
(-1.05413 9.90682 0)
(-1.21689 9.97411 0)
(-1.38362 10.0735 0)
(-1.54695 10.2102 0)
(-1.69725 10.388 0)
(-1.82291 10.6083 0)
(-1.91169 10.8683 0)
(-1.9583 11.1528 0)
(-1.98107 11.4634 0)
(-1.97344 11.7961 0)
(-1.91703 12.1237 0)
(-1.81619 12.4365 0)
(-1.67691 12.7269 0)
(-1.49932 12.9916 0)
(-1.30674 13.2236 0)
(-1.12738 13.4234 0)
(-0.962714 13.5967 0)
(-0.813191 13.7475 0)
(-0.67842 13.8775 0)
(-0.557391 13.986 0)
(-0.448959 14.0702 0)
(-0.351958 14.1244 0)
(-0.26503 14.1395 0)
(-0.187379 14.0976 0)
(-0.118414 13.9322 0)
(-0.0572105 13.3126 0)
(-0.0155116 11.3972 0)
(-0.26886 9.89056 0)
(-0.208605 9.91115 0)
(-0.155937 9.92984 1.40579e-18)
(-0.114919 9.94643 1.30334e-18)
(-0.0830486 9.96066 1.20858e-18)
(-0.058618 9.97246 -1.12082e-18)
(-0.0402113 9.98191 0)
(-0.0266161 9.98916 0)
(-0.0168043 9.99443 0)
(-0.00992333 9.99798 8.31328e-19)
(-0.00527983 10.0001 3.85953e-19)
(-0.00232092 10.0011 3.58425e-19)
(-0.000630343 10.0013 0)
(0.000174613 10.001 -1.64878e-19)
(0.000383153 10.0003 -8.05509e-20)
(0.00012193 10 0)
(-0.337651 9.8686 0)
(-0.419642 9.84746 0)
(-0.515644 9.8292 0)
(-0.626594 9.81656 0)
(-0.753034 9.81302 0)
(-0.894809 9.82284 0)
(-1.05074 9.85105 0)
(-1.21828 9.90318 0)
(-1.39317 9.98505 0)
(-1.56919 10.1022 0)
(-1.73791 10.2594 0)
(-1.88879 10.4594 0)
(-2.00952 10.7027 0)
(-2.08761 10.9843 0)
(-2.13793 11.3038 0)
(-2.15707 11.6498 0)
(-2.12345 11.9951 0)
(-2.04077 12.3285 0)
(-1.915 12.6408 0)
(-1.75329 12.9261 0)
(-1.55613 13.1823 0)
(-1.34788 13.4041 0)
(-1.1569 13.5932 0)
(-0.983624 13.7559 0)
(-0.827783 13.8965 0)
(-0.688441 14.0169 0)
(-0.564133 14.1165 0)
(-0.453361 14.1926 0)
(-0.354721 14.2395 0)
(-0.266696 14.2483 0)
(-0.18828 14.2004 0)
(-0.118958 14.0276 0)
(-0.0573735 13.3937 0)
(-0.0156645 11.4556 0)
(-0.334231 9.85995 0)
(-0.262621 9.8835 0)
(-0.198954 9.9055 -2.97412e-18)
(-0.14886 9.92553 4.17711e-21)