/*--------------------------------*- C++ -*----------------------------------*\
  =========                 |
  \\      /  F ield         | OpenFOAM: The Open Source CFD Toolbox
   \\    /   O peration     | Website:  https://openfoam.org
    \\  /    A nd           | Version:  8
     \\/     M anipulation  |
\*---------------------------------------------------------------------------*/
FoamFile
{
    version     2.0;
    format      ascii;
    class       volScalarField;
    location    "0.35";
    object      epsilon;
}
// * * * * * * * * * * * * * * * * * * * * * * * * * * * * * * * * * * * * * //

dimensions      [0 2 -3 0 0 0 0];

internalField   nonuniform List<scalar> 
15677
(
59.7305
18.3648
52.6862
8.0841
26.0233
50.2336
4.62258
13.323
31.6504
50.5421
3.17428
7.7487
17.1247
37.3294
51.6369
2.48708
5.05391
10.0464
20.8482
42.6781
53.6827
2.14429
3.62752
6.47167
12.1804
24.5669
47.6815
55.7433
1.97933
2.82273
4.52907
7.73303
14.2898
28.2695
52.0416
57.6815
1.91149
2.35336
3.40356
5.31424
8.92323
16.4335
31.7685
55.7285
59.3821
1.88406
2.08027
2.72391
3.91089
6.02531
10.1109
18.5424
34.9689
58.7529
60.8856
1.8705
1.93935
2.30727
3.05609
4.35949
6.70974
11.277
20.5749
37.7928
61.2341
62.1542
1.86763
1.87828
2.05645
2.5212
3.34857
4.77738
7.36521
12.4207
22.4682
40.2595
63.2318
63.2682
1.86862
1.84884
1.91654
2.186
2.7126
3.61546
5.16643
8.00244
13.5094
24.215
42.3602
64.861
64.1965
1.86954
1.8387
1.85192
1.98256
2.30681
2.88632
3.85863
5.5366
8.60733
14.5416
25.7816
44.1538
66.1679
65.0295
1.86978
1.83699
1.82114
1.86771
2.05129
2.41797
3.04299
4.08493
5.88291
9.18291
15.4938
27.1841
45.6512
67.2284
65.7544
1.86978
1.83725
1.81054
1.81334
1.89813
2.11732
2.51863
3.1865
4.2932
6.20895
9.71697
16.3711
28.4075
46.9105
68.0929
66.3959
1.86974
1.83751
1.80824
1.7898
1.8154
1.93022
2.17863
2.61034
3.31692
4.48613
6.50949
10.2125
17.157
29.4733
47.9561
68.7971
66.9821
1.86971
1.83761
1.80794
1.78278
1.77574
1.82146
1.96228
2.23509
2.69324
3.43592
4.66208
6.78627
10.6604
17.8597
30.3808
48.8131
69.3992
67.4822
1.8697
1.83762
1.80796
1.78106
1.76152
1.76615
1.83171
1.99303
2.28638
2.76816
3.54335
4.82204
7.03563
11.0644
18.4701
31.1459
49.5206
69.8781
67.9864
1.86969
1.83761
1.80797
1.78072
1.75705
1.74396
1.7604
1.84311
2.02162
2.33271
2.83534
3.63979
4.96497
7.25907
11.4179
18.9967
31.7791
50.0764
70.3271
68.3817
1.86969
1.8376
1.80796
1.78067
1.75578
1.73593
1.72957
1.75742
1.85453
2.04784
2.37422
2.8951
3.72527
5.09139
7.45433
11.7247
19.4362
32.2892
50.5378
70.6646
68.849
1.86969
1.83759
1.80795
1.78065
1.75547
1.7332
1.71737
1.71803
1.75589
1.86575
2.07157
2.41106
2.94779
3.79998
5.20121
7.62228
11.9819
19.7973
32.6944
50.8762
71.0368
69.1637
1.86969
1.83758
1.80793
1.78062
1.75539
1.73235
1.71278
1.70132
1.70851
1.75585
1.87628
2.09278
2.44352
2.99356
3.86453
5.29441
7.76308
12.1929
20.0817
32.9999
51.1624
71.2899
69.6266
1.8697
1.83757
1.80792
1.78059
1.75535
1.73208
1.71117
1.69448
1.68732
1.7009
1.75619
1.88598
2.11163
2.47179
3.03306
3.91896
5.37238
7.87692
12.3589
20.2977
33.2238
51.3558
71.6431
69.8829
1.8697
1.83757
1.80791
1.78056
1.75532
1.73196
1.71063
1.69184
1.6781
1.67531
1.69462
1.75701
1.89494
2.12834
2.49639
3.06656
3.96448
5.43464
7.96696
12.4828
20.4523
33.3766
51.5176
71.8505
70.3462
1.8697
1.83757
1.80791
1.78054
1.75529
1.73189
1.71043
1.69085
1.67433
1.66362
1.66489
1.68963
1.75845
1.90328
2.14322
2.51768
3.09494
4.00138
5.48438
8.03259
12.571
20.5492
33.464
51.6368
72.2523
70.5911
1.8697
1.83756
1.8079
1.78052
1.75526
1.73184
1.71033
1.69046
1.67284
1.65852
1.65079
1.65627
1.68583
1.76037
1.91123
2.15675
2.53647
3.11897
4.03142
5.52072
8.07987
12.6223
20.6063
33.5143
51.7137
72.5514
429.663
1.8697
1.83756
1.8079
1.78051
1.75524
1.73179
1.71026
1.69027
1.67225
1.65637
1.64442
1.63989
1.64893
1.68325
1.76311
1.91932
2.16953
2.55337
3.13949
4.05505
5.54798
8.10685
12.651
20.6118
33.512
51.835
88.8903
718.528
1.8697
1.83756
1.8079
1.7805
1.75522
1.73176
1.7102
1.69015
1.67198
1.65544
1.64165
1.63213
1.63043
1.64388
1.68266
1.76708
1.92793
2.18223
2.56933
3.15787
4.07468
5.56626
8.12377
12.6486
20.5999
33.5156
52.7576
122.252
1000.39
1.8697
1.83756
1.80789
1.78049
1.7552
1.73173
1.71016
1.69007
1.67182
1.65501
1.64045
1.62857
1.62154
1.62352
1.6399
1.68375
1.77259
1.93786
2.19575
2.58557
3.17533
4.09143
5.57943
8.12442
12.6377
20.5725
33.5425
55.3162
157.905
1249.7
1.86971
1.83755
1.80789
1.78049
1.75519
1.73171
1.71011
1.69
1.6717
1.65477
1.63987
1.62693
1.61741
1.61331
1.61794
1.64
1.68685
1.78041
1.94985
2.21112
2.60291
3.19311
4.1068
5.58806
8.12185
12.6152
20.5371
33.6447
59.8902
190.624
1479.48
1.86971
1.83755
1.80789
1.78048
1.75518
1.73169
1.71008
1.68995
1.67161
1.65461
1.63955
1.62613
1.61547
1.60835
1.60702
1.61641
1.64188
1.69308
1.7913
1.96487
2.22911
2.62268
3.21232
4.12262
5.59543
8.11583
12.5879
20.496
33.9028
64.6223
221.696
1674.2
1.86971
1.83755
1.80789
1.78047
1.75517
1.73167
1.71005
1.6899
1.67153
1.65449
1.63934
1.6257
1.61451
1.60595
1.60169
1.60422
1.61784
1.64676
1.70329
1.80622
1.98377
2.25105
2.64581
3.23462
4.14029
5.60386
8.10909
12.5584
20.4514
34.3745
69.4407
249.035
1821.92
1.86971
1.83755
1.80789
1.78047
1.75516
1.73166
1.71002
1.68986
1.67146
1.65439
1.63917
1.62543
1.61397
1.60474
1.59909
1.59813
1.60542
1.62226
1.65632
1.71833
1.82606
2.00779
2.27778
2.67377
3.2609
4.16168
5.61535
8.10364
12.5282
20.4101
34.9394
73.8193
270.278
1936.29
1.86971
1.83755
1.80789
1.78047
1.75516
1.73165
1.71
1.68983
1.6714
1.65431
1.63903
1.62523
1.61362
1.60408
1.59774
1.59512
1.59922
1.60963
1.63129
1.67158
1.73912
1.85208
2.03779
2.31067
2.70725
3.29276
4.18792
5.63126
8.10209
12.4962
20.3787
35.4853
77.2173
287.092
2027.84
1.83755
1.86974
1.80789
1.78046
1.75515
1.73164
1.70998
1.6898
1.67135
1.65424
1.63891
1.62507
1.61335
1.60367
1.59698
1.59359
1.59617
1.60338
1.61849
1.64685
1.69325
1.76693
1.88512
2.0751
2.35037
2.74774
3.33084
4.22022
5.65229
8.1034
12.4615
20.3425
35.9058
79.8335
300.697
2104.01
1.80789
1.83765
1.86982
1.78046
1.75515
1.73163
1.70997
1.68977
1.67131
1.65418
1.63881
1.62493
1.61313
1.60337
1.59649
1.59277
1.59465
1.60038
1.61226
1.63449
1.66941
1.72261
1.80272
1.92664
2.12045
2.3983
2.79556
3.37627
4.25882
5.6787
8.10819
12.4242
20.2984
36.1957
81.8356
312.228
2169.67
1.78046
1.80805
1.83785
1.86989
1.75514
1.73162
1.70995
1.68975
1.67128
1.65413
1.63873
1.62482
1.61294
1.60314
1.59613
1.59227
1.59386
1.59895
1.60943
1.62879
1.65798
1.70038
1.76085
1.84785
1.97724
2.17499
2.45461
2.85197
3.42905
4.30397
5.7143
8.11888
12.3902
20.2416
36.3847
83.4244
322.182
2228.02
1.75514
1.78067
1.80836
1.83805
1.86996
1.73161
1.70994
1.68973
1.67124
1.65408
1.63866
1.62472
1.61279
1.60294
1.59583
1.59192
1.5934
1.59828
1.60827
1.62653
1.65325
1.69058
1.7411
1.80959
1.9034
2.03846
2.2391
2.5208
2.91664
3.48945
4.3616
5.76141
8.13651
12.3593
20.1757
36.4851
84.6908
331.203
2281.08
1.73161
1.75539
1.78109
1.80869
1.83826
1.87004
1.70993
1.68972
1.67122
1.65404
1.6386
1.62462
1.61265
1.60277
1.59558
1.59165
1.59308
1.59794
1.6079
1.62597
1.65206
1.68766
1.73394
1.79351
1.87006
1.97109
2.11085
2.31397
2.59587
2.99011
3.56512
4.43444
5.81627
8.15994
12.332
20.1027
36.5387
85.7698
339.376
2330.06
1.70992
1.7319
1.75591
1.78152
1.80902
1.83848
1.87012
1.6897
1.6712
1.654
1.63854
1.62454
1.61254
1.60263
1.59537
1.59142
1.59285
1.59775
1.60784
1.62616
1.65246
1.68797
1.73324
1.78991
1.85923
1.94454
2.05189
2.196
2.39957
2.68101
3.08124
3.65912
4.51605
5.87816
8.18858
12.3088
20.0268
36.5375
86.6823
347.088
2375.86
1.68969
1.71024
1.7325
1.75643
1.78196
1.80937
1.8387
1.8702
1.67118
1.65397
1.6385
1.62447
1.61244
1.6025
1.59518
1.59124
1.59266
1.59763
1.60791
1.62666
1.65367
1.6901
1.73602
1.79258
1.85981
1.93975
2.03391
2.14789
2.29411
2.49735
2.78574
3.19349
3.76288
4.60496
5.94555
8.22183
12.2893
19.9513
36.5253
87.5162
354.266
2418.76
1.67116
1.69004
1.71091
1.73311
1.75698
1.78242
1.80972
1.83893
1.87028
1.65394
1.63846
1.6244
1.61236
1.60238
1.59502
1.59108
1.59251
1.59754
1.60802
1.62724
1.65511
1.69303
1.74073
1.7991
1.8675
1.94667
2.0363
2.13951
2.25938
2.40694
2.61877
2.91655
3.31613
3.87404
4.69988
6.01722
8.25885
12.2748
19.878
36.5002
88.2598
361.135
2459.37
1.65391
1.67153
1.69078
1.7116
1.73375
1.75753
1.78289
1.81008
1.83917
1.87037
1.63843
1.62435
1.6123
1.60228
1.59489
1.59095
1.59238
1.59749
1.60816
1.62782
1.65657
1.6961
1.74623
1.80776
1.87929
1.96132
2.05192
2.15208
2.26165
2.38679
2.54911
2.77228
3.06119
3.44837
3.9911
4.79908
6.09213
8.29917
12.2636
19.8104
36.4638
88.9651
367.629
2497.51
1.6384
1.6543
1.67232
1.69154
1.71231
1.7344
1.75811
1.78338
1.81046
1.83941
1.87046
1.62429
1.61224
1.60218
1.59478
1.59083
1.59227
1.59744
1.60831
1.62839
1.65799
1.69907
1.75174
1.8173
1.89358
1.98067
2.07596
2.17924
2.28765
2.40359
2.5458
2.72677
2.94332
3.21829
3.58916
4.11367
4.90129
6.16922
8.34166
12.257
19.7475
36.4288
89.6235
373.835
2533.78
1.62425
1.6388
1.65513
1.67313
1.69232
1.71304
1.73507
1.7587
1.78387
1.81084
1.83966
1.87055
1.61219
1.60208
1.59469
1.59073
1.59218
1.59741
1.60845
1.62892
1.65933
1.70187
1.75701
1.8267
1.90888
2.0032
2.10564
2.21613
2.32968
2.44669
2.58332
2.74792
2.92352
3.13041
3.38753
3.73705
4.23967
5.00528
6.24747
8.38593
12.2529
19.691
36.395
90.2525
379.762
2567.72
1.61216
1.62463
1.63964
1.65597
1.67396
1.69312
1.71379
1.73576
1.7593
1.78438
1.81123
1.83991
1.87064
1.602
1.59462
1.59063
1.5921
1.59739
1.60858
1.62941
1.66058
1.70447
1.762
1.8357
1.92389
2.02718
2.1396
2.26025
2.38341
2.50829
2.65003
2.81462
2.97599
3.13837
3.32851
3.56563
3.88978
4.36835
5.11005
6.32599
8.43102
12.2533
19.6407
36.3663
90.8607
385.386
2600.07
1.60192
1.61253
1.62545
1.64051
1.65685
1.67482
1.69395
1.71456
1.73647
1.75992
1.78491
1.81163
1.84018
1.87073
1.59456
1.59054
1.59202
1.59737
1.60871
1.62986
1.66173
1.70688
1.76667
1.84417
1.93828
2.05086
2.17574
2.31055
2.44684
2.58478
2.73921
2.91548
3.079
3.22928
3.37078
3.53635
3.75166
4.04738
4.49845
5.21455
6.40404
8.47659
12.2552
19.596
36.3434
91.436
390.786
2630.18
1.59453
1.6022
1.61333
1.6263
1.64141
1.65776
1.6757
1.6948
1.71535
1.7372
1.76056
1.78545
1.81205
1.84043
1.87081
1.59045
1.59195
1.59735
1.60883
1.63027
1.66279
1.70908
1.77101
1.85207
1.95193
2.07375
2.21158
2.36454
2.51945
2.67498
2.84843
3.04571
3.22377
3.37701
3.50665
3.61876
3.75181
3.93994
4.20729
4.62865
5.31802
6.48092
8.52204
12.2592
19.5571
36.3261
92.0061
395.875
2658.92
1.59037
1.59479
1.60285
1.61416
1.62719
1.64234
1.65869
1.67661
1.69568
1.71617
1.73795
1.76122
1.786
1.81245
1.84069
1.8709
1.59188
1.59733
1.60894
1.63066
1.66376
1.7111
1.77502
1.8594
1.96482
2.09561
2.24642
2.41887
2.59827
2.77931
2.97798
3.20529
3.40861
3.57766
3.7088
3.80685
3.88019
3.97416
4.12925
4.36757
4.75773
5.4195
6.55608
8.56691
12.2656
19.523
36.3155
92.5369
400.768
2685.49
1.59184
1.59036
1.59536
1.60351
1.61502
1.62811
1.6433
1.65966
1.67754
1.69658
1.717
1.73872
1.76189
1.78654
1.81285
1.84093
1.87098
1.59731
1.60904
1.63101
1.66464
1.71294
1.77871
1.86616
1.97692
2.11629
2.27998
2.47255
2.67848
2.89424
3.13011
3.39773
3.63782
3.83483
3.98022
4.07479
4.12858
4.153
4.20121
4.31828
4.52657
4.88462
5.5186
6.62911
8.61093
12.2734
19.494
36.3098
93.072
405.357
2710.9
1.59733
1.5917
1.59036
1.59594
1.60421
1.61591
1.62908
1.64428
1.66066
1.6785
1.69751
1.71786
1.7395
1.76255
1.78708
1.81324
1.84117
1.87106
1.60912
1.63132
1.66544
1.71463
1.78209
1.87239
1.9882
2.13569
2.31214
2.525
2.75833
3.01332
3.30159
3.62977
3.92133
4.16122
4.33411
4.43636
4.47613
4.47073
4.43525
4.43097
4.50576
4.6831
5.00928
5.61486
6.6997
8.6538
12.2824
19.4687
36.3108
93.5615
409.762
2734.25
1.60926
1.59695
1.59138
1.59034
1.59656
1.60498
1.61683
1.63008
1.6453
1.66169
1.67949
1.69847
1.71874
1.74028
1.7632
1.78759
1.81361
1.8414
1.87114
1.63159
1.66615
1.71616
1.78517
1.87812
1.99869
2.1538
2.34278
2.57568
2.8369
3.13471
3.48407
3.89973
4.27555
4.58072
4.79999
4.92205
4.95358
4.91479
4.83252
4.72519
4.66173
4.69059
4.83464
5.1306
5.70786
6.76759
8.69533
12.2923
19.4478
36.3144
94.0612
413.889
2756.63
1.63191
1.60853
1.59601
1.59101
1.59043
1.59721
1.60582
1.61778
1.63113
1.64634
1.66275
1.68051
1.69944
1.71962
1.74104
1.76383
1.78809
1.81397
1.84162
1.87122
1.66679
1.71753
1.78798
1.88337
2.00838
2.17065
2.37185
2.62416
2.91371
3.25758
3.67425
4.19586
4.70684
5.13363
5.43145
5.59248
5.62016
5.54128
5.39328
5.21333
5.02129
4.89201
4.87227
4.98089
5.24783
5.79724
6.83262
8.73535
12.3029
19.4296
36.3231
94.5102
417.836
2774.52
1.66748
1.63058
1.60659
1.59497
1.59072
1.59067
1.59786
1.60673
1.61876
1.63223
1.64742
1.66385
1.68155
1.70041
1.72047
1.74178
1.76444
1.78858
1.81433
1.84184
1.87129
1.71879
1.79053
1.88818
2.01732
2.18631
2.39928
2.67017
2.98855
3.38083
3.86928
4.51449
5.20729
5.85267
6.31684
6.5525
6.58517
6.45138
6.20842
5.9136
5.61242
5.32211
5.12056
5.04984
5.12158
5.36046
5.88278
6.89468
8.77376
12.3138
19.415
36.3319
94.9731
421.04
2789.62
1.72006
1.66547
1.62694
1.6045
1.59404
1.59044
1.59111
1.59851
1.6077
1.61977
1.63336
1.64853
1.66497
1.68259
1.70136
1.7213
1.74249
1.76504
1.78905
1.81467
1.84205
1.87136
1.79286
1.89258
2.02554
2.20083
2.42504
2.71365
3.06127
3.50301
4.06654
4.85555
5.78154
6.7405
7.53117
7.96007
8.02321
7.81842
7.43297
6.96049
6.47619
6.02855
5.62622
5.34634
5.22255
5.2565
5.46817
5.96431
6.95371
8.81047
12.325
19.4023
36.3489
95.3271
423.805
2805.88
1.79513
1.71717
1.65962
1.62309
1.60258
1.5932
1.59011
1.59169
1.59919
1.60873
1.62082
1.63453
1.64968
1.66609
1.6836
1.70227
1.72211
1.74319
1.76562
1.78951
1.81501
1.84226
1.87143
1.89665
2.03309
2.2143
2.44914
2.75464
3.13169
3.62264
4.26474
5.22038
6.43437
7.803
9.07267
9.93346
10.1744
9.89843
9.31458
8.57138
7.79749
7.07915
6.45972
5.93217
5.56842
5.38981
5.3855
5.57081
6.04176
7.00968
8.84545
12.3363
19.3924
36.3596
95.6564
426.708
2823.65
1.90048
1.79115
1.70817
1.65351
1.61951
1.60083
1.59244
1.58982
1.59236
1.59991
1.60981
1.62192
1.63572
1.65083
1.66717
1.68459
1.70317
1.72289
1.74387
1.76618
1.78996
1.81533
1.84245
1.87147
2.04011
2.22679
2.47162
2.79326
3.19952
3.73858
4.46393
5.60994
7.16427
9.03464
10.9306
12.4473
13.2029
13.0276
12.2008
11.0752
9.8613
8.71368
7.71818
6.90323
6.23839
5.78596
5.55122
5.50854
5.66831
6.11512
7.06263
8.87868
12.3476
19.385
36.3757
95.9859
429.988
2842.87
2.04653
1.89515
1.77769
1.69885
1.64778
1.61619
1.59923
1.59174
1.5896
1.59311
1.60068
1.61093
1.62306
1.63691
1.65195
1.66822
1.68556
1.70403
1.72366
1.74453
1.76673
1.79039
1.81565
1.84255
1.87147
2.23851
2.49262
2.82965
3.26447
3.85023
4.665
6.02354
7.96361
10.4172
13.0793
15.4704
17.0583
17.4375
16.5504
14.9265
13.0851
11.288
9.69863
8.38706
7.35571
6.54325
5.99823
5.70648
5.62559
5.76064
6.1844
7.11261
8.91017
12.3572
19.3797
36.3877
96.3889
433.456
2863.96
2.24899
2.0396
1.87531
1.7639
1.69009
1.64239
1.61307
1.59773
1.59114
1.58949
1.5939
1.60154
1.61207
1.62423
1.63807
1.65305
1.66925
1.6865
1.70488
1.7244
1.74517
1.76727
1.79081
1.81581
1.84255
1.87147
2.51239
2.86401
3.32638
3.95755
4.86899
6.4585
8.82091
11.9259
15.479
18.9564
21.6948
23.0642
22.7004
20.7454
18.0527
15.318
12.8309
10.7391
9.07839
7.81344
6.84513
6.20462
5.85538
5.73672
5.84798
6.24986
7.15972
8.93602
12.3656
19.3742
36.4112
96.7918
437.382
2886.77
2.52967
2.23994
2.01071
1.85524
1.75091
1.68178
1.63724
1.61013
1.59634
1.59063
1.58947
1.59472
1.60248
1.61321
1.62538
1.6392
1.65413
1.67024
1.68741
1.7057
1.72513
1.74579
1.76778
1.79102
1.81581
1.84255
1.87147
2.89663
3.3853
4.06108
5.07665
6.91049
9.72285
13.5333
18.0828
22.8379
27.0416
29.8515
30.5887
29.0215
25.5914
21.543
17.7409
14.4664
11.8206
9.78423
8.2726
7.14246
6.40457
5.99781
5.842
5.93011
6.31167
7.19822
8.95795
12.3751
19.3697
36.4293
97.2903
441.544
2911.83
2.9248
2.51819
2.19799
1.98188
1.83635
1.73853
1.6738
1.63232
1.60736
1.59507
1.59023
1.58959
1.59555
1.60348
1.61431
1.62652
1.6403
1.65519
1.67122
1.68831
1.70649
1.72583
1.74639
1.76804
1.79102
1.81581
1.84255
1.87147
3.44151
4.16176
5.28835
7.3741
10.6556
15.2119
20.8418
27.0358
32.9898
37.6939
40.1502
39.711
36.3944
31.0456
25.3514
20.3178
16.1705
12.9286
10.4969
8.72953
7.43378
6.5976
6.1337
5.94169
6.0071
6.36222
7.23077
8.98193
12.3858
19.3652
36.4641
97.7896
446.26
2938.89
3.48958
2.90998
2.45722
2.15674
1.95473
1.81829
1.72659
1.66611
1.62761
1.60478
1.59392
1.58992
1.58991
1.59634
1.60452
1.61539
1.62765
1.64137
1.65621
1.67216
1.68917
1.70727
1.72652
1.74669
1.76804
1.79102
1.81581
1.84255
1.87147
4.26023
5.50237
7.84368
11.6055
16.9352
23.7076
31.4661
39.4071
46.4176
51.23
52.7431
50.4562
44.7745
37.0456
29.4252
23.0117
17.9197
14.0498
11.2092
9.18083
7.71774
6.78336
6.26309
6.03594
6.06973
6.40496
7.26629
9.0082
12.3978
19.3623
36.4924
98.408
451.3
2968.61
4.34591
3.47095
2.82007
2.39825
2.11794
1.92872
1.80082
1.71504
1.65871
1.62311
1.60243
1.59288
1.58965
1.59047
1.5971
1.60557
1.61644
1.62875
1.64241
1.65721
1.67308
1.69002
1.70803
1.72686
1.74669
1.76804
1.79102
1.81581
1.84255
1.87143
5.71533
8.31483
12.5606
18.6782
26.6337
36.046
46.1521
55.8059
63.557
67.8958
67.7067
62.7876
54.0799
43.5134
33.7078
25.7865
19.6926
15.1719
11.9148
9.62349
7.99326
6.96157
6.38602
6.11318
6.12252
6.45157
7.30504
9.03696
12.4116
19.36
36.5427
99.0377
457.003
3000.6
4.32196
5.90207
3.33427
2.73505
2.34281
2.08072
1.90354
1.78389
1.70389
1.6516
1.6188
1.60026
1.59195
1.58932
1.59115
1.59786
1.60662
1.61748
1.62983
1.64344
1.65819
1.67398
1.69084
1.7084
1.72686
1.74669
1.76804
1.79102
1.81581
1.84245
1.87136
8.78282
13.5099
20.419
29.5773
40.6969
53.0865
65.6264
76.7867
84.7619
87.8426
85.0299
76.6056
64.1961
50.3596
38.1409
28.6078
21.47
16.2847
12.6082
10.055
8.25942
7.13204
6.4872
6.17859
6.17996
6.5024
7.34734
9.06853
12.4271
19.3604
36.5876
99.8081
463.169
3035.71
4.09845
5.88318
9.19691
3.20939
2.65531
2.2896
2.04465
1.8791
1.76752
1.69315
1.64479
1.61474
1.59829
1.59116
1.58908
1.59188
1.59864
1.60765
1.61851
1.63088
1.64444
1.65914
1.67486
1.69125
1.7084
1.72685
1.74669
1.76804
1.79102
1.81565
1.84225
1.87129
14.4418
22.1383
32.5014
45.3487
60.083
75.6559
90.55
102.814
110.278
111.109
104.607
91.7527
74.9829
57.4881
42.6681
31.4444
23.2352
17.3791
13.2852
10.4735
8.51547
7.27319
6.57317
6.25011
6.24246
6.55785
7.39353
9.10312
12.445
19.3622
36.659
100.616
470.109
3073.29
3.90217
5.48743
9.20697
15.2691
3.0933
2.57877
2.23806
2.00965
1.85545
1.75173
1.68285
1.63832
1.61098
1.59657
1.59051
1.58896
1.59264
1.59943
1.60867
1.61953
1.6319
1.64542
1.66007
1.67529
1.69124
1.70839
1.72685
1.74669
1.76804
1.79081
1.81533
1.84204
1.87122
23.8164
35.3751
49.9434
67.0323
85.6961
104.498
121.485
134.235
140.22
137.608
126.241
108.022
86.2828
64.8022
47.2363
34.2686
24.9737
18.4481
13.9421
10.8771
8.72851
7.3936
6.6675
6.32834
6.31051
6.61831
7.44396
9.14118
12.4651
19.3672
36.7306
101.583
477.738
3114.46
3.72359
5.14301
8.48233
15.3509
25.3157
2.98227
2.5047
2.18808
1.97578
1.83262
1.73655
1.673
1.63226
1.60764
1.5951
1.59
1.58895
1.59339
1.60026
1.60966
1.62053
1.63291
1.64638
1.66053
1.67528
1.69124
1.70839
1.72685
1.74669
1.76778
1.79038
1.815
1.84183
1.87114
38.1668
54.4342
73.849
95.5845
118.333
140.246
158.876
171.268
174.557
167.123
149.651
125.168
97.9311
72.2087
51.7969
37.0558
26.6739
19.486
14.5762
11.2136
8.91079
7.52625
6.77108
6.41398
6.38464
6.68425
7.49905
9.1829
12.4885
19.3744
36.8298
102.638
486.241
3158.12
3.55568
4.83144
7.83793
14.1012
25.5756
40.6677
2.87515
2.43303
2.13976
1.9431
1.81067
1.72203
1.66372
1.62675
1.60471
1.59385
1.58963
1.58907
1.59412
1.6011
1.61063
1.62152
1.6339
1.64685
1.66052
1.67528
1.69124
1.70839
1.72685
1.74638
1.76725
1.78994
1.81466
1.84161
1.87106
58.7746
80.4683
105.202
131.82
158.658
183.418
203.05
213.978
213.1
199.315
174.486
142.927
109.766
79.6211
56.3071
39.7863
28.3264
20.4883
15.1051
11.502
9.11222
7.67253
6.88493
6.50776
6.46541
6.75615
7.55921
9.22887
12.5149
19.3881
36.9448
103.86
495.794
3205.82
3.39612
4.54116
7.24769
12.9523
23.6269
41.254
62.6597
2.77177
2.36388
2.09319
1.91169
1.78965
1.70829
1.65524
1.62186
1.60216
1.59279
1.58937
1.58933
1.59482
1.60197
1.61158
1.62253
1.63438
1.64684
1.66051
1.67528
1.69124
1.70839
1.72651
1.74577
1.76671
1.78949
1.81431
1.84139
1.87098
86.8261
114.468
144.805
176.395
207.221
234.434
254.203
262.267
255.495
233.729
200.352
161.032
121.633
86.9617
60.7312
42.4435
29.9238
21.3247
15.5584
11.821
9.33501
7.83402
7.01018
6.61054
6.55347
6.83453
7.62491
9.27934
12.5454
19.4076
37.0809
105.265
506.278
3255.65
3.24438
4.26865
6.69462
11.8758
21.7991
38.4046
63.7571
92.4935
2.67226
2.29743
2.0485
1.88164
1.76976
1.6957
1.64765
1.61751
1.59996
1.59189
1.58916
1.58977
1.59549
1.60287
1.61255
1.62301
1.63435
1.64684
1.66051
1.67528
1.69124
1.70801
1.72581
1.74514
1.76616
1.78903
1.81396
1.84116
1.8709
123.299
157.191
193.259
229.835
264.498
293.631
312.397
315.851
301.223
269.821
226.831
179.222
133.394
94.1656
65.0397
45.0143
31.2579
22.0417
16.0599
12.1742
9.58168
8.01246
7.14808
6.72324
6.6495
6.91996
7.69662
9.33489
12.5807
19.4309
37.264
106.825
518.38
3319.45
3.10032
4.01354
6.17378
10.8516
20.0487
35.7049
59.7928
94.2949
131.109
2.57679
2.23384
2.00579
1.85322
1.7515
1.68439
1.64085
1.61362
1.59809
1.59114
1.58891
1.5903
1.59618
1.60383
1.613
1.62298
1.63434
1.64684
1.66051
1.67529
1.69083
1.70725
1.7251
1.7445
1.76559
1.78856
1.8136
1.84092
1.87081
168.886
209.154
251.016
292.615
330.944
361.28
377.528
374.245
349.62
306.994
253.512
197.26
144.933
101.179
69.2087
47.1626
32.4021
22.8354
16.6153
12.5656
9.85499
8.2098
7.30004
6.84687
6.75427
7.01303
7.77486
9.3961
12.6202
19.4708
37.4511
108.718
533.785
3393.68
2.96362
3.77637
5.68566
9.87437
18.3487
33.0834
56.0326
88.9788
133.772
179.098
2.48565
2.17327
1.96546
1.82715
1.73509
1.67424
1.63476
1.61015
1.59648
1.59051
1.58872
1.59092
1.59696
1.60429
1.61292
1.62298
1.63434
1.64683
1.66052
1.67485
1.68999
1.70646
1.72437
1.74383
1.76501
1.78807
1.81322
1.84068
1.87073
223.985
270.685
318.482
365.247
407.041
437.569
449.306
436.763
399.908
344.631
280.006
214.945
156.152
107.959
72.6918
49.0058
33.669
23.7145
17.2309
12.9996
10.158
8.42822
7.46762
6.98257
6.86859
7.11439
7.86019
9.46313
12.6683
19.5086
37.7381
111.029
554.214
3465.83
2.83376
3.55838
5.23174
8.94942
16.6885
30.5022
52.3554
83.9736
126.818
182.689
236.689
2.39914
2.11625
1.92853
1.80373
1.72035
1.66513
1.62932
1.6071
1.5951
1.58997
1.58867
1.59171
1.59726
1.60421
1.6129
1.62298
1.63434
1.64685
1.66005
1.67396
1.68914
1.70566
1.72362
1.74315
1.76441
1.78757
1.81284
1.84043
1.87064
288.76
342.057
396.142
448.373
493.33
522.591
527.222
502.526
451.23
382.13
305.98
232.11
166.974
113.615
75.6788
51.0464
35.0728
24.689
17.9136
13.4813
10.4943
8.6701
7.65253
7.13156
6.99337
7.22466
7.95307
9.53758
12.7192
19.5807
38.0478
114.437
575.966
3534.22
2.71053
3.36076
4.81321
8.08054
15.0687
27.9434
48.706
79.0773
120.374
173.717
241.118
303.816
2.3181
2.06418
1.89542
1.7827
1.7071
1.65696
1.62446
1.60443
1.5939
1.58962
1.58894
1.59205
1.59706
1.60422
1.6129
1.62297
1.63436
1.64636
1.65911
1.67305
1.68826
1.70483
1.72285
1.74245
1.7638
1.78706
1.81244
1.84017
1.87055
363.3
423.654
484.729
542.887
590.475
616.325
610.52
570.483
502.712
418.955
331.155
248.623
175.979
118.459
78.9833
53.3071
36.6293
25.7701
18.6712
14.0159
10.8675
8.93807
7.85662
7.29515
7.12953
7.34463
8.05433
9.61815
12.7853
19.651
38.6466
117.833
600.333
3598.11
2.59502
3.17959
4.43057
7.2695
13.5017
25.4051
45.0522
74.21
114.113
165.598
229.591
308.771
380.279
2.24452
2.01762
1.86576
1.76382
1.69522
1.64965
1.62013
1.60205
1.59297
1.58965
1.58892
1.59188
1.59702
1.60422
1.61291
1.62299
1.63387
1.64539
1.65815
1.67212
1.68737
1.70398
1.72206
1.74174
1.76317
1.78653
1.81204
1.83991
1.87046
447.824
516.233
585.441
650.143
699.311
718.559
698.159
639.47
553.532
454.654
355.314
262.316
183.673
123.808
82.6401
55.8128
38.3561
26.97
19.5123
14.6095
11.2816
9.23498
8.08191
7.47476
7.2781
7.47477
8.1639
9.70898
12.8632
19.8184
39.1733
122.173
626.071
3655.59
2.49016
3.01359
4.08522
6.52103
12.0045
22.898
41.3818
69.3172
107.923
157.823
219.474
293.916
385.162
465.986
2.17911
1.976
1.83918
1.74688
1.68456
1.64308
1.61625
1.60011
1.59259
1.58949
1.58853
1.59189
1.59702
1.60419
1.61296
1.62248
1.63287
1.6444
1.65717
1.67117
1.68645
1.70311
1.72125
1.741
1.76253
1.78599
1.81163
1.83965
1.87037
542.99
621.077
700.254
772.171
820.799
828.752
788.828
708.31
602.968
488.87
375.275
273.983
192.145
129.714
86.6871
58.5907
40.2724
28.3022
20.4462
15.2686
11.7413
9.56385
8.33051
7.67188
7.44007
7.61641
8.28413
9.82355
12.987
19.9583
39.989
126.683
654.802
3706.59
2.39713
2.86471
3.77862
5.84126
10.5937
20.4402
37.6977
64.3661
101.718
150.24
209.993
281.333
365.853
469.881
561.298
2.12096
1.93881
1.81538
1.73169
1.67497
1.63716
1.61299
1.599
1.59216
1.58903
1.58849
1.59188
1.59703
1.60423
1.61249
1.62147
1.63185
1.64339
1.65616
1.67019
1.68551
1.70222
1.72043
1.74025
1.76187
1.78544
1.81122
1.8394
1.87029
649.885
740.488
832.447
911.753
955.76
945.94
881.058
775.899
650.429
517.071
392.236
286.784
201.465
136.23
91.1648
61.6703
42.3994
29.7815
21.483
16.0001
12.2511
9.92785
8.60463
7.88796
7.61655
7.7686
8.43803
9.97213
13.1048
20.1984
40.7863
132.183
685.01
3748.66
2.31484
2.73237
3.51653
5.23767
9.28965
18.0536
34.0135
59.3411
95.4334
142.72
200.951
269.87
350.138
444.448
562.974
667.476
2.06922
1.9056
1.79406
1.71802
1.66631
1.63211
1.61086
1.5981
1.59153
1.58899
1.58848
1.59184
1.59718
1.60375
1.61151
1.62046
1.63081
1.64236
1.65512
1.66919
1.68454
1.70131
1.71958
1.73947
1.76119
1.78489
1.81082
1.83916
1.87021
770.921
879.047
987.208
1072.15
1104.63
1068.84
973.337
841.259
689.544
540.976
410.775
300.805
211.705
143.414
96.116
65.0832
44.7595
31.4236
22.6338
16.8115
12.8159
10.3303
8.90644
8.12464
7.8088
7.96198
8.62638
10.1217
13.26
20.4305
41.8291
138.441
719.113
3778.19
2.24218
2.61415
3.30009
4.72268
8.11319
15.7621
30.3514
54.2388
89.0216
135.156
192.161
259.268
336.287
424.685
528.86
665.552
787.146
2.02317
1.87595
1.77492
1.7057
1.65886
1.62862
1.60933
1.59724
1.59151
1.58898
1.58847
1.59196
1.59684
1.60277
1.61054
1.61944
1.62975
1.6413
1.65407
1.66817
1.68356
1.70037
1.71871
1.73869
1.76053
1.78436
1.81044
1.83892
1.87013
911.488
1044.77
1171.5
1257.04
1267.78
1196.07
1064.13
895.372
722.671
567.022
430.989
316.13
222.935
151.322
101.585
68.8625
47.3769
33.2454
23.91
17.7105
13.4407
10.7743
9.23823
8.38298
8.05658
8.19412
8.81727
10.2862
13.4166
20.7427
43.0592
145.483
757.436
3798.75
2.17804
2.50882
3.1167
4.29385
7.09284
13.6135
26.7424
49.0673
82.4456
127.455
183.464
249.265
323.951
407.875
503.85
618.703
780.015
925.77
1.98219
1.84941
1.75768
1.69504
1.65351
1.62627
1.60813
1.59721
1.59149
1.58895
1.58876
1.59157
1.59604
1.60185
1.60956
1.61842
1.62866
1.64023
1.65299
1.66711
1.68255
1.69941
1.71783
1.73791
1.75988
1.78385
1.81007
1.83869
1.87005
1080.64
1249.11
1394.86
1471.9
1446.43
1325.78
1140.21
941.274
758.698
595.301
452.955
332.827
235.218
160.01
107.616
73.0422
50.2764
35.2647
25.3237
18.705
14.1304
11.2631
9.60147
8.7169
8.35638
8.42927
9.01425
10.4538
13.6042
21.1177
44.3782
154.292
797.986
3804.09
2.12138
2.41544
2.95833
3.93963
6.23538
11.6925
23.253
43.8489
75.6789
119.53
174.711
239.636
312.76
393.531
483.328
586.927
714.441
910.599
1093.66
1.94562
1.82559
1.74272
1.6872
1.65003
1.62472
1.6081
1.59719
1.59144
1.58931
1.58872
1.59075
1.59533
1.60096
1.60855
1.61738
1.62755
1.63913
1.6519
1.66604
1.68152
1.69843
1.71695
1.73715
1.75925
1.78335
1.8097
1.83847
1.86997
1293.85
1510.62
1675.18
1728.01
1641.83
1436.81
1205.03
991.194
797.688
625.866
476.728
350.955
248.611
169.528
114.253
77.6561
53.4833
37.499
26.887
19.8028
14.89
11.799
10.0722
9.12164
8.66205
8.66804
9.21332
10.6342
13.8187
21.5139
46.2188
164.195
842.036
3800.08
2.07115
2.33309
2.81929
3.64788
5.5242
10.0391
20.0188
38.6594
68.7099
111.296
165.749
230.166
302.408
381.114
466.596
561.755
674.097
818.076
1066.81
1306.77
1.91292
1.80491
1.73147
1.68225
1.648
1.6247
1.60807
1.59712
1.59194
1.58939
1.58841
1.5901
1.59463
1.60008
1.60751
1.61633
1.62643
1.638
1.65078
1.66493
1.68047
1.69746
1.7161
1.73642
1.75864
1.78286
1.80935
1.83825
1.8699
1583.31
1874.92
2050.96
2047.19
1813.45
1531.88
1275.6
1045.1
839.63
658.719
502.324
370.544
263.156
179.921
121.534
82.7363
57.0217
39.966
28.6115
21.0114
15.723
12.4943
10.6435
9.5349
8.97177
8.90863
9.41715
10.8269
14.0449
22.0814
47.9793
176.552
887.204
3788.38
2.02647
2.2606
2.69577
3.41061
4.93966
8.64403
17.124
33.6923
61.5978
102.678
156.417
220.631
292.603
370.214
452.837
542.168
643.159
767.163
935.459
1271.93
1606.37
1.88453
1.78914
1.72447
1.67967
1.648
1.62466
1.60797
1.59782
1.59227
1.58931
1.58841
1.58952
1.59391
1.59923
1.60646
1.61526
1.62528
1.63685
1.64964
1.66381
1.67944
1.69652
1.71528
1.7357
1.75805
1.78239
1.80901
1.83804
1.86983
2056.67
2443.52
2630.12
2329.88
1959.58
1634.87
1351.5
1102.8
884.414
693.797
529.717
391.597
278.871
191.218
129.491
88.3108
60.9139
42.6815
30.5082
22.3368
16.8039
13.3383
11.2271
9.95327
9.28319
9.15115
9.6255
11.0265
14.3374
22.6137
50.625
189.502
935.51
3764.06
1.98774
2.19678
2.5856
3.21439
4.46159
7.47727
14.5724
29.095
54.5783
93.6785
146.55
210.787
283.047
360.44
441.497
526.87
620.185
729.201
871.154
1080.45
1578.1
2150.31
1.86253
1.77955
1.72117
1.6797
1.64795
1.62452
1.60896
1.59858
1.59259
1.58962
1.58855
1.58903
1.59315
1.59841
1.60539
1.61418
1.62413
1.63566
1.64849
1.66269
1.67844
1.69561
1.71448
1.73502
1.75747
1.78193
1.80867
1.83783
1.86976
2894.5
3579.87
3104.69
2560.85
2113.81
1743.99
1431.94
1163.91
931.812
730.962
558.825
414.072
295.751
203.434
138.146
94.4013
65.178
45.6594
32.5852
24.0558
18.1155
14.2005
11.8176
10.3732
9.5945
9.39492
9.83679
11.2534
14.6236
23.4002
53.3609
204.926
985.138
3730.8
1.95739
2.14194
2.48759
3.04785
4.07349
6.5128
12.3697
24.9052
47.8598
84.531
136.048
200.361
273.418
351.425
432.064
515.118
603.095
702.241
824.85
998.364
1286.14
2164.03
3309.91
1.84929
1.77542
1.72125
1.67964
1.64777
1.62582
1.61033
1.59962
1.59348
1.5901
1.58874
1.58869
1.59236
1.59761
1.60432
1.61307
1.62297
1.63446
1.64736
1.66162
1.67746
1.69473
1.7137
1.73435
1.75691
1.78149
1.80835
1.83763
1.86972
4981.78
4294.53
3440.97
2785.82
2271
1857.22
1515.94
1227.88