# Forces      
# CofR        : (0.000000e+00 0.000000e+00 0.000000e+00)
# Time        forces(pressure viscous porous)	moments(pressure viscous porous)
0             	((0.000000e+00 0.000000e+00 0.000000e+00) (0.000000e+00 0.000000e+00 0.000000e+00) (0.000000e+00 0.000000e+00 0.000000e+00)) ((0.000000e+00 0.000000e+00 0.000000e+00) (0.000000e+00 0.000000e+00 0.000000e+00) (0.000000e+00 0.000000e+00 0.000000e+00))
0.000119048   	((2.068998e-06 1.304590e+00 7.769963e-19) (-1.933041e-08 3.135862e-05 -3.833068e-20) (0.000000e+00 0.000000e+00 0.000000e+00)) ((1.413038e-20 1.772871e-19 -2.166118e-08) (-5.154365e-22 -3.162777e-21 9.099702e-10) (0.000000e+00 0.000000e+00 0.000000e+00))
0.000260204   	((-2.840646e-06 7.199424e-02 -6.443596e-20) (4.429738e-08 4.484057e-05 4.192986e-22) (0.000000e+00 0.000000e+00 0.000000e+00)) ((-1.183005e-21 3.234204e-22 1.808252e-07) (6.728222e-24 -3.601721e-24 -1.105968e-09) (0.000000e+00 0.000000e+00 0.000000e+00))
0.000428132   	((-6.888778e-07 6.580750e-02 -6.388621e-20) (7.413695e-08 5.431152e-05 5.107763e-22) (0.000000e+00 0.000000e+00 0.000000e+00)) ((-1.190947e-21 2.914739e-22 4.857026e-08) (8.270394e-24 -2.526297e-24 -1.833858e-09) (0.000000e+00 0.000000e+00 0.000000e+00))
0.000627546   	((-1.463056e-07 6.078864e-02 -6.230046e-20) (6.563190e-08 6.070112e-05 6.188057e-22) (0.000000e+00 0.000000e+00 0.000000e+00)) ((-1.161634e-21 2.716099e-22 4.512775e-09) (1.027069e-23 -2.005086e-24 -1.493764e-09) (0.000000e+00 0.000000e+00 0.000000e+00))
0.000861857   	((-1.582335e-07 5.674683e-02 -6.109036e-20) (4.582558e-08 6.540956e-05 7.124024e-22) (0.000000e+00 0.000000e+00 0.000000e+00)) ((-1.138066e-21 2.559473e-22 2.653335e-08) (1.175524e-23 -1.408861e-24 -9.873727e-10) (0.000000e+00 0.000000e+00 0.000000e+00))
0.00113063    	((2.886383e-07 5.348198e-02 -6.013789e-20) (3.175603e-08 6.922940e-05 7.345754e-22) (0.000000e+00 0.000000e+00 0.000000e+00)) ((-1.118404e-21 2.424004e-22 -8.559175e-09) (1.114498e-23 -1.366196e-24 -7.073381e-10) (0.000000e+00 0.000000e+00 0.000000e+00))
0.00143647    	((7.422329e-07 5.084267e-02 -5.950850e-20) (1.819497e-08 7.261942e-05 8.253707e-22) (0.000000e+00 0.000000e+00 0.000000e+00)) ((-1.105550e-21 2.317926e-22 -4.705142e-08) (1.242118e-23 -2.460238e-24 -3.890094e-10) (0.000000e+00 0.000000e+00 0.000000e+00))
0.00177901    	((8.649066e-07 4.860137e-02 -5.885007e-20) (8.420441e-09 7.578212e-05 9.146386e-22) (0.000000e+00 0.000000e+00 0.000000e+00)) ((-1.091655e-21 2.230194e-22 -6.044206e-08) (1.372041e-23 -2.918532e-24 -1.687449e-10) (0.000000e+00 0.000000e+00 0.000000e+00))
0.00215269    	((8.590279e-07 4.667003e-02 -5.807167e-20) (3.609328e-09 7.864561e-05 9.996490e-22) (0.000000e+00 0.000000e+00 0.000000e+00)) ((-1.075064e-21 2.158439e-22 -6.960184e-08) (1.511311e-23 -3.536777e-24 -3.581180e-11) (0.000000e+00 0.000000e+00 0.000000e+00))
0.00256571    	((6.927828e-07 4.488758e-02 -5.702597e-20) (1.151649e-09 8.113879e-05 1.113947e-21) (0.000000e+00 0.000000e+00 0.000000e+00)) ((-1.052610e-21 2.091056e-22 -5.733209e-08) (1.725745e-23 -3.772903e-24 4.621133e-11) (0.000000e+00 0.000000e+00 0.000000e+00))
0.00303035    	((5.306708e-07 4.318543e-02 -5.570877e-20) (4.667577e-09 8.320016e-05 1.233603e-21) (0.000000e+00 0.000000e+00 0.000000e+00)) ((-1.024367e-21 2.024424e-22 -4.784546e-08) (1.951698e-23 -3.753877e-24 4.084003e-11) (0.000000e+00 0.000000e+00 0.000000e+00))
0.00352818    	((4.928050e-07 4.165683e-02 -5.427244e-20) (1.113564e-09 8.483557e-05 1.199846e-21) (0.000000e+00 0.000000e+00 0.000000e+00)) ((-9.937208e-22 1.966245e-22 -4.903868e-08) (1.844221e-23 -3.569415e-24 1.171589e-10) (0.000000e+00 0.000000e+00 0.000000e+00))
0.0040675     	((4.154912e-07 4.025783e-02 -5.276744e-20) (-3.554729e-09 8.603045e-05 1.185796e-21) (0.000000e+00 0.000000e+00 0.000000e+00)) ((-9.618732e-22 1.915064e-22 -4.853338e-08) (1.806068e-23 -3.248298e-24 1.935614e-10) (0.000000e+00 0.000000e+00 0.000000e+00))
0.00460682    	((4.246607e-07 3.905304e-02 -5.132362e-20) (8.597392e-10 8.684140e-05 1.098796e-21) (0.000000e+00 0.000000e+00 0.000000e+00)) ((-9.315276e-22 1.874153e-22 -4.028947e-08) (1.653573e-23 -4.153246e-24 1.342088e-10) (0.000000e+00 0.000000e+00 0.000000e+00))
0.00514614    	((3.370548e-07 3.801061e-02 -4.999176e-20) (-7.446149e-10 8.738560e-05 1.006641e-21) (0.000000e+00 0.000000e+00 0.000000e+00)) ((-9.037490e-22 1.841435e-22 -3.466837e-08) (1.485795e-23 -6.438261e-24 1.807394e-10) (0.000000e+00 0.000000e+00 0.000000e+00))
0.00568545    	((3.549182e-07 3.710583e-02 -4.878001e-20) (-4.308260e-10 8.770885e-05 9.594041e-22) (0.000000e+00 0.000000e+00 0.000000e+00)) ((-8.786380e-22 1.813660e-22 -3.389848e-08) (1.411629e-23 -4.497876e-24 1.647953e-10) (0.000000e+00 0.000000e+00 0.000000e+00))
0.00622477    	((3.107326e-07 3.631679e-02 -4.768817e-20) (-4.027775e-11 8.790180e-05 8.670512e-22) (0.000000e+00 0.000000e+00 0.000000e+00)) ((-8.561579e-22 1.791015e-22 -3.051108e-08) (1.240584e-23 -4.582629e-24 1.586776e-10) (0.000000e+00 0.000000e+00 0.000000e+00))
0.00676409    	((3.614269e-07 3.562516e-02 -4.670145e-20) (4.726713e-10 8.800775e-05 7.564398e-22) (0.000000e+00 0.000000e+00 0.000000e+00)) ((-8.359832e-22 1.773529e-22 -3.067662e-08) (1.029722e-23 -3.541989e-24 1.937908e-10) (0.000000e+00 0.000000e+00 0.000000e+00))
0.00730341    	((3.423063e-07 3.501889e-02 -4.582078e-20) (-1.314099e-09 8.804608e-05 8.764542e-22) (0.000000e+00 0.000000e+00 0.000000e+00)) ((-8.180621e-22 1.759829e-22 -3.242983e-08) (1.257434e-23 -2.944845e-24 1.983451e-10) (0.000000e+00 0.000000e+00 0.000000e+00))
0.00784273    	((2.306801e-07 3.448629e-02 -4.503352e-20) (-4.247747e-09 8.804211e-05 9.160572e-22) (0.000000e+00 0.000000e+00 0.000000e+00)) ((-8.021411e-22 1.749302e-22 -2.666063e-08) (1.332098e-23 -3.834055e-24 2.462695e-10) (0.000000e+00 0.000000e+00 0.000000e+00))
0.00838205    	((2.584165e-07 3.402067e-02 -4.433674e-20) (-3.787457e-09 8.801138e-05 9.876645e-22) (0.000000e+00 0.000000e+00 0.000000e+00)) ((-7.881163e-22 1.741290e-22 -2.789853e-08) (1.462486e-23 -3.247274e-24 2.352009e-10) (0.000000e+00 0.000000e+00 0.000000e+00))
0.00892136    	((2.540585e-07 3.361267e-02 -4.372096e-20) (-4.295742e-09 8.796514e-05 8.605866e-22) (0.000000e+00 0.000000e+00 0.000000e+00)) ((-7.757710e-22 1.735263e-22 -2.628331e-08) (1.247579e-23 -3.053749e-24 2.393044e-10) (0.000000e+00 0.000000e+00 0.000000e+00))
0.00946068    	((2.839404e-07 3.325628e-02 -4.318124e-20) (-3.966607e-09 8.790703e-05 8.326734e-22) (0.000000e+00 0.000000e+00 0.000000e+00)) ((-7.649923e-22 1.730579e-22 -2.718255e-08) (1.200907e-23 -3.283628e-24 2.339308e-10) (0.000000e+00 0.000000e+00 0.000000e+00))
0.01          	((2.336903e-07 3.294701e-02 -4.271142e-20) (-5.017120e-09 8.784528e-05 8.175803e-22) (0.000000e+00 0.000000e+00 0.000000e+00)) ((-7.556258e-22 1.727009e-22 -2.415718e-08) (1.175047e-23 -3.235715e-24 2.506627e-10) (0.000000e+00 0.000000e+00 0.000000e+00))
0.0105556     	((2.323504e-07 3.267338e-02 -4.229739e-20) (-5.381910e-09 8.777577e-05 8.030430e-22) (0.000000e+00 0.000000e+00 0.000000e+00)) ((-7.473842e-22 1.724296e-22 -2.381966e-08) (1.150961e-23 -3.283185e-24 2.568478e-10) (0.000000e+00 0.000000e+00 0.000000e+00))
0.0111111     	((2.395086e-07 3.244064e-02 -4.194835e-20) (-4.791590e-09 8.770629e-05 7.950406e-22) (0.000000e+00 0.000000e+00 0.000000e+00)) ((-7.404306e-22 1.722193e-22 -2.428900e-08) (1.140165e-23 -3.235228e-24 2.429530e-10) (0.000000e+00 0.000000e+00 0.000000e+00))
0.0116667     	((2.546509e-07 3.224380e-02 -4.165655e-20) (-4.214094e-09 8.763531e-05 8.162000e-22) (0.000000e+00 0.000000e+00 0.000000e+00)) ((-7.346040e-22 1.720570e-22 -2.475485e-08) (1.174708e-23 -2.989676e-24 2.302813e-10) (0.000000e+00 0.000000e+00 0.000000e+00))
0.0122222     	((2.512403e-07 3.207954e-02 -4.141818e-20) (-3.523224e-09 8.756108e-05 8.216550e-22) (0.000000e+00 0.000000e+00 0.000000e+00)) ((-7.298237e-22 1.719395e-22 -2.405017e-08) (1.180396e-23 -2.940223e-24 2.182688e-10) (0.000000e+00 0.000000e+00 0.000000e+00))
0.0127778     	((2.367817e-07 3.194377e-02 -4.122665e-20) (-3.676994e-09 8.748225e-05 8.069389e-22) (0.000000e+00 0.000000e+00 0.000000e+00)) ((-7.259553e-22 1.718523e-22 -2.286672e-08) (1.166682e-23 -2.824455e-24 2.163199e-10) (0.000000e+00 0.000000e+00 0.000000e+00))
0.0133333     	((2.228672e-07 3.183321e-02 -4.107649e-20) (-3.677976e-09 8.739792e-05 8.918633e-22) (0.000000e+00 0.000000e+00 0.000000e+00)) ((-7.228862e-22 1.717861e-22 -2.183031e-08) (1.280309e-23 -2.609966e-24 2.134689e-10) (0.000000e+00 0.000000e+00 0.000000e+00))
0.0138889     	((2.123528e-07 3.174529e-02 -4.096371e-20) (-3.605754e-09 8.730685e-05 9.602587e-22) (0.000000e+00 0.000000e+00 0.000000e+00)) ((-7.205391e-22 1.717431e-22 -2.067209e-08) (1.368553e-23 -2.424588e-24 2.067057e-10) (0.000000e+00 0.000000e+00 0.000000e+00))
0.0144444     	((2.033250e-07 3.167624e-02 -4.088164e-20) (-3.320097e-09 8.720929e-05 8.765997e-22) (0.000000e+00 0.000000e+00 0.000000e+00)) ((-7.187819e-22 1.717142e-22 -1.934751e-08) (1.263826e-23 -2.463673e-24 1.969500e-10) (0.000000e+00 0.000000e+00 0.000000e+00))
0.015         	((1.941937e-07 3.162440e-02 -4.082793e-20) (-3.026894e-09 8.710474e-05 9.630758e-22) (0.000000e+00 0.000000e+00 0.000000e+00)) ((-7.175693e-22 1.716841e-22 -1.841368e-08) (1.375584e-23 -2.267242e-24 1.886148e-10) (0.000000e+00 0.000000e+00 0.000000e+00))
0.0155556     	((1.847683e-07 3.158723e-02 -4.079777e-20) (-2.837555e-09 8.699419e-05 9.511053e-22) (0.000000e+00 0.000000e+00 0.000000e+00)) ((-7.168083e-22 1.716612e-22 -1.747968e-08) (1.360664e-23 -2.239186e-24 1.823654e-10) (0.000000e+00 0.000000e+00 0.000000e+00))
0.0161111     	((1.841305e-07 3.156274e-02 -4.078748e-20) (-2.739468e-09 8.687881e-05 9.476236e-22) (0.000000e+00 0.000000e+00 0.000000e+00)) ((-7.164294e-22 1.716341e-22 -1.717549e-08) (1.359095e-23 -2.151325e-24 1.782613e-10) (0.000000e+00 0.000000e+00 0.000000e+00))
0.0166667     	((1.793455e-07 3.154941e-02 -4.079443e-20) (-2.564006e-09 8.676028e-05 9.021910e-22) (0.000000e+00 0.000000e+00 0.000000e+00)) ((-7.163821e-22 1.716152e-22 -1.644441e-08) (1.302535e-23 -2.014257e-24 1.730909e-10) (0.000000e+00 0.000000e+00 0.000000e+00))
0.0172222     	((1.770020e-07 3.154548e-02 -4.081521e-20) (-2.461600e-09 8.664017e-05 8.907826e-22) (0.000000e+00 0.000000e+00 0.000000e+00)) ((-7.166001e-22 1.715983e-22 -1.590759e-08) (1.289767e-23 -1.966279e-24 1.695773e-10) (0.000000e+00 0.000000e+00 0.000000e+00))
0.0177778     	((1.854514e-07 3.154954e-02 -4.084748e-20) (-2.356971e-09 8.651965e-05 8.998384e-22) (0.000000e+00 0.000000e+00 0.000000e+00)) ((-7.170397e-22 1.715872e-22 -1.592279e-08) (1.302875e-23 -1.902074e-24 1.667479e-10) (0.000000e+00 0.000000e+00 0.000000e+00))
0.0183333     	((1.826824e-07 3.156034e-02 -4.088927e-20) (-2.203546e-09 8.640033e-05 9.038075e-22) (0.000000e+00 0.000000e+00 0.000000e+00)) ((-7.176651e-22 1.715712e-22 -1.517675e-08) (1.309627e-23 -1.823789e-24 1.630772e-10) (0.000000e+00 0.000000e+00 0.000000e+00))
0.0188889     	((1.808913e-07 3.157685e-02 -4.093859e-20) (-2.035052e-09 8.628374e-05 9.077636e-22) (0.000000e+00 0.000000e+00 0.000000e+00)) ((-7.184370e-22 1.715637e-22 -1.446859e-08) (1.316366e-23 -1.743910e-24 1.598309e-10) (0.000000e+00 0.000000e+00 0.000000e+00))
0.0194444     	((1.814010e-07 3.159848e-02 -4.099435e-20) (-1.866042e-09 8.617125e-05 9.118462e-22) (0.000000e+00 0.000000e+00 0.000000e+00)) ((-7.193363e-22 1.715713e-22 -1.399116e-08) (1.323250e-23 -1.666114e-24 1.571473e-10) (0.000000e+00 0.000000e+00 0.000000e+00))
0.02          	((1.832455e-07 3.162392e-02 -4.105485e-20) (-1.684497e-09 8.606389e-05 9.158882e-22) (0.000000e+00 0.000000e+00 0.000000e+00)) ((-7.203310e-22 1.715668e-22 -1.353679e-08) (1.330035e-23 -1.590131e-24 1.548182e-10) (0.000000e+00 0.000000e+00 0.000000e+00))
0.0205882     	((1.862338e-07 3.165337e-02 -4.112204e-20) (-1.489788e-09 8.594871e-05 9.416021e-22) (0.000000e+00 0.000000e+00 0.000000e+00)) ((-7.214556e-22 1.715640e-22 -1.315372e-08) (1.366688e-23 -1.448564e-24 1.539741e-10) (0.000000e+00 0.000000e+00 0.000000e+00))
0.0211765     	((1.972761e-07 3.168689e-02 -4.119282e-20) (-1.307937e-09 8.584752e-05 9.455318e-22) (0.000000e+00 0.000000e+00 0.000000e+00)) ((-7.226474e-22 1.715635e-22 -1.354229e-08) (1.373320e-23 -1.373520e-24 1.541632e-10) (0.000000e+00 0.000000e+00 0.000000e+00))
0.0217647     	((2.054046e-07 3.172286e-02 -4.126611e-20) (-1.089693e-09 8.575483e-05 9.492438e-22) (0.000000e+00 0.000000e+00 0.000000e+00)) ((-7.238991e-22 1.715651e-22 -1.352860e-08) (1.379634e-23 -1.302510e-24 1.532593e-10) (0.000000e+00 0.000000e+00 0.000000e+00))
0.0223529     	((2.124388e-07 3.176044e-02 -4.134023e-20) (-8.562764e-10 8.566997e-05 9.527050e-22) (0.000000e+00 0.000000e+00 0.000000e+00)) ((-7.251765e-22 1.715772e-22 -1.338440e-08) (1.385579e-23 -1.236679e-24 1.525676e-10) (0.000000e+00 0.000000e+00 0.000000e+00))
0.0229412     	((2.311552e-07 3.179710e-02 -4.140968e-20) (-6.102643e-10 8.559209e-05 9.557918e-22) (0.000000e+00 0.000000e+00 0.000000e+00)) ((-7.263762e-22 1.716093e-22 -1.422414e-08) (1.390975e-23 -1.178104e-24 1.518604e-10) (0.000000e+00 0.000000e+00 0.000000e+00))
0.0235294     	((2.397066e-07 3.183678e-02 -4.148417e-20) (-3.471203e-10 8.552072e-05 9.587690e-22) (0.000000e+00 0.000000e+00 0.000000e+00)) ((-7.276813e-22 1.716402e-22 -1.419209e-08) (1.396207e-23 -1.122926e-24 1.509380e-10) (0.000000e+00 0.000000e+00 0.000000e+00))
0.0241176     	((2.522942e-07 3.187710e-02 -4.155865e-20) (-6.329545e-11 8.545530e-05 9.615209e-22) (0.000000e+00 0.000000e+00 0.000000e+00)) ((-7.289976e-22 1.716766e-22 -1.435966e-08) (1.401100e-23 -1.072615e-24 1.497469e-10) (0.000000e+00 0.000000e+00 0.000000e+00))
0.0247059     	((2.642859e-07 3.191674e-02 -4.163086e-20) (2.216860e-10 8.539475e-05 9.640168e-22) (0.000000e+00 0.000000e+00 0.000000e+00)) ((-7.302825e-22 1.717104e-22 -1.460562e-08) (1.405610e-23 -1.026993e-24 1.488751e-10) (0.000000e+00 0.000000e+00 0.000000e+00))
0.0252941     	((2.764068e-07 3.195598e-02 -4.170143e-20) (5.108247e-10 8.533792e-05 9.662782e-22) (0.000000e+00 0.000000e+00 0.000000e+00)) ((-7.315484e-22 1.717543e-22 -1.490771e-08) (1.409768e-23 -9.867332e-25 1.485106e-10) (0.000000e+00 0.000000e+00 0.000000e+00))
0.0258824     	((2.848679e-07 3.199413e-02 -4.176972e-20) (7.952599e-10 8.528386e-05 9.683116e-22) (0.000000e+00 0.000000e+00 0.000000e+00)) ((-7.327837e-22 1.717882e-22 -1.497953e-08) (1.413582e-23 -9.502980e-25 1.482649e-10) (0.000000e+00 0.000000e+00 0.000000e+00))
0.0264706     	((2.985384e-07 3.203166e-02 -4.183599e-20) (1.075867e-09 8.523216e-05 9.701267e-22) (0.000000e+00 0.000000e+00 0.000000e+00)) ((-7.339896e-22 1.718338e-22 -1.545832e-08) (1.417059e-23 -9.188222e-25 1.481172e-10) (0.000000e+00 0.000000e+00 0.000000e+00))
0.0270588     	((3.117804e-07 3.206757e-02 -4.189920e-20) (1.350173e-09 8.518246e-05 9.717134e-22) (0.000000e+00 0.000000e+00 0.000000e+00)) ((-7.351486e-22 1.718804e-22 -1.600104e-08) (1.420184e-23 -8.917462e-25 1.481706e-10) (0.000000e+00 0.000000e+00 0.000000e+00))
0.0276471     	((3.239997e-07 3.210167e-02 -4.195926e-20) (1.604869e-09 8.513408e-05 9.730870e-22) (0.000000e+00 0.000000e+00 0.000000e+00)) ((-7.362584e-22 1.719191e-22 -1.654201e-08) (1.422975e-23 -8.681580e-25 1.488071e-10) (0.000000e+00 0.000000e+00 0.000000e+00))
0.0282353     	((3.367094e-07 3.213390e-02 -4.201609e-20) (1.848375e-09 8.508657e-05 9.742549e-22) (0.000000e+00 0.000000e+00 0.000000e+00)) ((-7.373164e-22 1.719520e-22 -1.720880e-08) (1.425438e-23 -8.479860e-25 1.496156e-10) (0.000000e+00 0.000000e+00 0.000000e+00))
0.0288235     	((3.492082e-07 3.216448e-02 -4.206996e-20) (2.059277e-09 8.503995e-05 9.752306e-22) (0.000000e+00 0.000000e+00 0.000000e+00)) ((-7.383258e-22 1.719908e-22 -1.790659e-08) (1.427591e-23 -8.317690e-25 1.511793e-10) (0.000000e+00 0.000000e+00 0.000000e+00))
0.0294118     	((3.600721e-07 3.219330e-02 -4.212080e-20) (2.241409e-09 8.499427e-05 9.760354e-22) (0.000000e+00 0.000000e+00 0.000000e+00)) ((-7.392844e-22 1.720260e-22 -1.863422e-08) (1.429466e-23 -8.184590e-25 1.532095e-10) (0.000000e+00 0.000000e+00 0.000000e+00))
0.03          	((3.719057e-07 3.221952e-02 -4.216718e-20) (2.396993e-09 8.494959e-05 9.766478e-22) (0.000000e+00 0.000000e+00 0.000000e+00)) ((-7.401652e-22 1.720494e-22 -1.941440e-08) (1.431033e-23 -8.077200e-25 1.558536e-10) (0.000000e+00 0.000000e+00 0.000000e+00))
0.0305556     	((3.754548e-07 3.224429e-02 -4.221065e-20) (2.525621e-09 8.491698e-05 9.546508e-22) (0.000000e+00 0.000000e+00 0.000000e+00)) ((-7.409878e-22 1.720722e-22 -1.989541e-08) (1.401312e-23 -9.047470e-25 1.575341e-10) (0.000000e+00 0.000000e+00 0.000000e+00))
0.0311111     	((3.835007e-07 3.226619e-02 -4.224998e-20) (2.613476e-09 8.487860e-05 9.549398e-22) (0.000000e+00 0.000000e+00 0.000000e+00)) ((-7.417465e-22 1.721044e-22 -2.069751e-08) (1.402300e-23 -9.012904e-25 1.606526e-10) (0.000000e+00 0.000000e+00 0.000000e+00))
0.0316667     	((3.802534e-07 3.228651e-02 -4.228660e-20) (2.621246e-09 8.484117e-05 9.551017e-22) (0.000000e+00 0.000000e+00 0.000000e+00)) ((-7.424520e-22 1.721375e-22 -2.117666e-08) (1.403069e-23 -9.002915e-25 1.648845e-10) (0.000000e+00 0.000000e+00 0.000000e+00))
0.0322222     	((3.901029e-07 3.230531e-02 -4.232076e-20) (2.605004e-09 8.480601e-05 9.551482e-22) (0.000000e+00 0.000000e+00 0.000000e+00)) ((-7.431123e-22 1.721695e-22 -2.208335e-08) (1.403638e-23 -9.013871e-25 1.693943e-10) (0.000000e+00 0.000000e+00 0.000000e+00))
0.0327778     	((3.980303e-07 3.232224e-02 -4.235182e-20) (2.562000e-09 8.477363e-05 9.550766e-22) (0.000000e+00 0.000000e+00 0.000000e+00)) ((-7.437155e-22 1.721846e-22 -2.291189e-08) (1.404005e-23 -9.033168e-25 1.741873e-10) (0.000000e+00 0.000000e+00 0.000000e+00))
0.0333333     	((3.818175e-07 3.233817e-02 -4.238115e-20) (2.473779e-09 8.474432e-05 9.549155e-22) (0.000000e+00 0.000000e+00 0.000000e+00)) ((-7.442855e-22 1.722225e-22 -2.244298e-08) (1.404208e-23 -9.083824e-25 1.782110e-10) (0.000000e+00 0.000000e+00 0.000000e+00))
0.0338889     	((3.812393e-07 3.235298e-02 -4.240849e-20) (2.378448e-09 8.471841e-05 9.546631e-22) (0.000000e+00 0.000000e+00 0.000000e+00)) ((-7.448189e-22 1.722695e-22 -2.262115e-08) (1.404243e-23 -9.157050e-25 1.796822e-10) (0.000000e+00 0.000000e+00 0.000000e+00))
0.0344444     	((3.834622e-07 3.236662e-02 -4.243388e-20) (2.248612e-09 8.469628e-05 9.543571e-22) (0.000000e+00 0.000000e+00 0.000000e+00)) ((-7.453148e-22 1.723096e-22 -2.333817e-08) (1.404199e-23 -9.247421e-25 1.828479e-10) (0.000000e+00 0.000000e+00 0.000000e+00))
0.035         	((3.797068e-07 3.237825e-02 -4.245609e-20) (2.079342e-09 8.467772e-05 9.539666e-22) (0.000000e+00 0.000000e+00 0.000000e+00)) ((-7.457493e-22 1.723165e-22 -2.421006e-08) (1.404011e-23 -9.331819e-25 1.880110e-10) (0.000000e+00 0.000000e+00 0.000000e+00))
0.0355556     	((3.800577e-07 3.239073e-02 -4.247980e-20) (1.886188e-09 8.466275e-05 9.535823e-22) (0.000000e+00 0.000000e+00 0.000000e+00)) ((-7.462108e-22 1.723647e-22 -2.479740e-08) (1.403800e-23 -9.446735e-25 1.931075e-10) (0.000000e+00 0.000000e+00 0.000000e+00))
0.0361111     	((3.796066e-07 3.240108e-02 -4.249956e-20) (1.643951e-09 8.465128e-05 9.530842e-22) (0.000000e+00 0.000000e+00 0.000000e+00)) ((-7.465984e-22 1.724156e-22 -2.567107e-08) (1.403391e-23 -9.579188e-25 1.990153e-10) (0.000000e+00 0.000000e+00 0.000000e+00))
0.0366667     	((3.905204e-07 3.241034e-02 -4.251705e-20) (1.334920e-09 8.464331e-05 9.525077e-22) (0.000000e+00 0.000000e+00 0.000000e+00)) ((-7.469417e-22 1.724893e-22 -2.759322e-08) (1.402836e-23 -9.740293e-25 2.069912e-10) (0.000000e+00 0.000000e+00 0.000000e+00))
0.0372222     	((3.864348e-07 3.241862e-02 -4.253350e-20) (9.789372e-10 8.463853e-05 9.519067e-22) (0.000000e+00 0.000000e+00 0.000000e+00)) ((-7.472644e-22 1.725260e-22 -2.833478e-08) (1.402218e-23 -9.881657e-25 2.153693e-10) (0.000000e+00 0.000000e+00 0.000000e+00))
0.0377778     	((3.784535e-07 3.242623e-02 -4.254861e-20) (5.901237e-10 8.463669e-05 9.512532e-22) (0.000000e+00 0.000000e+00 0.000000e+00)) ((-7.475602e-22 1.725874e-22 -2.879506e-08) (1.401497e-23 -1.004880e-24 2.236196e-10) (0.000000e+00 0.000000e+00 0.000000e+00))
0.0383333     	((3.685873e-07 3.243298e-02 -4.256240e-20) (1.665669e-10 8.463739e-05 9.505662e-22) (0.000000e+00 0.000000e+00 0.000000e+00)) ((-7.478302e-22 1.726421e-22 -2.914003e-08) (1.400703e-23 -1.021690e-24 2.317931e-10) (0.000000e+00 0.000000e+00 0.000000e+00))
0.0388889     	((3.573296e-07 3.243901e-02 -4.257492e-20) (-2.799624e-10 8.464018e-05 9.498412e-22) (0.000000e+00 0.000000e+00 0.000000e+00)) ((-7.480749e-22 1.727041e-22 -2.940683e-08) (1.399832e-23 -1.039572e-24 2.396709e-10) (0.000000e+00 0.000000e+00 0.000000e+00))
0.0394444     	((3.451981e-07 3.244429e-02 -4.258615e-20) (-7.552250e-10 8.464481e-05 9.492680e-22) (0.000000e+00 0.000000e+00 0.000000e+00)) ((-7.482944e-22 1.727682e-22 -2.966670e-08) (1.399141e-23 -9.978633e-25 2.481758e-10) (0.000000e+00 0.000000e+00 0.000000e+00))
0.04          	((3.323082e-07 3.244863e-02 -4.259606e-20) (-1.259102e-09 8.465062e-05 9.483843e-22) (0.000000e+00 0.000000e+00 0.000000e+00)) ((-7.484872e-22 1.728053e-22 -2.998227e-08) (1.398010e-23 -1.057429e-24 2.564854e-10) (0.000000e+00 0.000000e+00 0.000000e+00))
0.0405556     	((3.186628e-07 3.245251e-02 -4.260484e-20) (-1.790842e-09 8.465723e-05 9.475357e-22) (0.000000e+00 0.000000e+00 0.000000e+00)) ((-7.486580e-22 1.728747e-22 -3.011619e-08) (1.396906e-23 -1.084706e-24 2.649138e-10) (0.000000e+00 0.000000e+00 0.000000e+00))
0.0411111     	((3.052791e-07 3.245581e-02 -4.261257e-20) (-2.340766e-09 8.466424e-05 9.468209e-22) (0.000000e+00 0.000000e+00 0.000000e+00)) ((-7.488080e-22 1.729484e-22 -3.022737e-08) (1.395964e-23 -1.080194e-24 2.733887e-10) (0.000000e+00 0.000000e+00 0.000000e+00))
0.0416667     	((2.902904e-07 3.245900e-02 -4.262018e-20) (-2.905910e-09 8.467127e-05 9.461317e-22) (0.000000e+00 0.000000e+00 0.000000e+00)) ((-7.489548e-22 1.730288e-22 -3.020230e-08) (1.395043e-23 -1.092893e-24 2.819851e-10) (0.000000e+00 0.000000e+00 0.000000e+00))
0.0422222     	((2.760107e-07 3.246127e-02 -4.262609e-20) (-3.478569e-09 8.467798e-05 9.452968e-22) (0.000000e+00 0.000000e+00 0.000000e+00)) ((-7.490691e-22 1.731105e-22 -3.021558e-08) (1.393908e-23 -1.111650e-24 2.904031e-10) (0.000000e+00 0.000000e+00 0.000000e+00))
0.0427778     	((2.637130e-07 3.246274e-02 -4.263028e-20) (-4.052833e-09 8.468411e-05 9.475965e-22) (0.000000e+00 0.000000e+00 0.000000e+00)) ((-7.491506e-22 1.732144e-22 -3.026319e-08) (1.397009e-23 -1.121010e-24 2.985442e-10) (0.000000e+00 0.000000e+00 0.000000e+00))
0.0433333     	((2.501863e-07 3.246394e-02 -4.263427e-20) (-4.665390e-09 8.468948e-05 9.505871e-22) (0.000000e+00 0.000000e+00 0.000000e+00)) ((-7.492276e-22 1.733065e-22 -3.021919e-08) (1.400931e-23 -1.095459e-24 3.070199e-10) (0.000000e+00 0.000000e+00 0.000000e+00))
0.0438889     	((2.354095e-07 3.246426e-02 -4.263711e-20) (-5.216030e-09 8.469398e-05 1.012243e-21) (0.000000e+00 0.000000e+00 0.000000e+00)) ((-7.492813e-22 1.733700e-22 -3.017865e-08) (1.478596e-23 -1.228485e-24 3.145168e-10) (0.000000e+00 0.000000e+00 0.000000e+00))
0.0444444     	((2.241409e-07 3.246462e-02 -4.263922e-20) (-5.720273e-09 8.469741e-05 9.575048e-22) (0.000000e+00 0.000000e+00 0.000000e+00)) ((-7.493222e-22 1.734987e-22 -3.014708e-08) (1.410114e-23 -1.302351e-24 3.213062e-10) (0.000000e+00 0.000000e+00 0.000000e+00))
0.045         	((2.126293e-07 3.246451e-02 -4.264071e-20) (-6.309570e-09 8.469965e-05 9.545838e-22) (0.000000e+00 0.000000e+00 0.000000e+00)) ((-7.493505e-22 1.736142e-22 -3.005840e-08) (1.405376e-23 -1.205598e-24 3.292279e-10) (0.000000e+00 0.000000e+00 0.000000e+00))
0.0455556     	((2.034129e-07 3.246411e-02 -4.264194e-20) (-6.763455e-09 8.470061e-05 9.603035e-22) (0.000000e+00 0.000000e+00 0.000000e+00)) ((-7.493732e-22 1.737031e-22 -3.006703e-08) (1.413823e-23 -1.131247e-24 3.350541e-10) (0.000000e+00 0.000000e+00 0.000000e+00))
0.0461111     	((1.938080e-07 3.246341e-02 -4.264215e-20) (-7.319897e-09 8.470051e-05 9.543261e-22) (0.000000e+00 0.000000e+00 0.000000e+00)) ((-7.493768e-22 1.738396e-22 -2.992271e-08) (1.404814e-23 -1.254877e-24 3.424143e-10) (0.000000e+00 0.000000e+00 0.000000e+00))
0.0466667     	((1.860836e-07 3.246226e-02 -4.264134e-20) (-7.773697e-09 8.469931e-05 8.920334e-22) (0.000000e+00 0.000000e+00 0.000000e+00)) ((-7.493612e-22 1.739901e-22 -2.985026e-08) (1.322582e-23 -1.540839e-24 3.479048e-10) (0.000000e+00 0.000000e+00 0.000000e+00))
0.0472222     	((1.784687e-07 3.246061e-02 -4.263934e-20) (-8.211727e-09 8.469697e-05 9.538599e-22) (0.000000e+00 0.000000e+00 0.000000e+00)) ((-7.493241e-22 1.741672e-22 -2.972183e-08) (1.404758e-23 -1.251108e-24 3.535638e-10) (0.000000e+00 0.000000e+00 0.000000e+00))
0.0477778     	((1.723825e-07 3.245879e-02 -4.263718e-20) (-8.597132e-09 8.469365e-05 9.645322e-22) (0.000000e+00 0.000000e+00 0.000000e+00)) ((-7.492834e-22 1.743377e-22 -2.960725e-08) (1.419007e-23 -1.221625e-24 3.583516e-10) (0.000000e+00 0.000000e+00 0.000000e+00))
0.0483333     	((1.664759e-07 3.245644e-02 -4.263425e-20) (-8.991778e-09 8.468957e-05 8.996695e-22) (0.000000e+00 0.000000e+00 0.000000e+00)) ((-7.492275e-22 1.744921e-22 -2.945067e-08) (1.331933e-23 -1.467065e-24 3.630569e-10) (0.000000e+00 0.000000e+00 0.000000e+00))
0.0488889     	((1.618214e-07 3.245417e-02 -4.263073e-20) (-9.382545e-09 8.468473e-05 9.551730e-22) (0.000000e+00 0.000000e+00 0.000000e+00)) ((-7.491615e-22 1.747022e-22 -2.926817e-08) (1.405573e-23 -1.513268e-24 3.679865e-10) (0.000000e+00 0.000000e+00 0.000000e+00))
0.0494444     	((1.588598e-07 3.245169e-02 -4.262636e-20) (-9.695069e-09 8.467924e-05 9.534749e-22) (0.000000e+00 0.000000e+00 0.000000e+00)) ((-7.490804e-22 1.749487e-22 -2.912814e-08) (1.403213e-23 -1.541269e-24 3.717120e-10) (0.000000e+00 0.000000e+00 0.000000e+00))
0.05          	((1.573762e-07 3.244898e-02 -4.262154e-20) (-9.972332e-09 8.467316e-05 9.442568e-22) (0.000000e+00 0.000000e+00 0.000000e+00)) ((-7.489908e-22 1.751971e-22 -2.899516e-08) (1.391467e-23 -1.556632e-24 3.747231e-10) (0.000000e+00 0.000000e+00 0.000000e+00))
0.0505556     	((1.574139e-07 3.244613e-02 -4.261655e-20) (-1.016642e-08 8.466665e-05 9.565731e-22) (0.000000e+00 0.000000e+00 0.000000e+00)) ((-7.488978e-22 1.754339e-22 -2.891181e-08) (1.407802e-23 -1.386012e-24 3.768016e-10) (0.000000e+00 0.000000e+00 0.000000e+00))
0.0511111     	((1.572050e-07 3.244310e-02 -4.261033e-20) (-1.037531e-08 8.465996e-05 9.624281e-22) (0.000000e+00 0.000000e+00 0.000000e+00)) ((-7.487830e-22 1.757453e-22 -2.870440e-08) (1.414945e-23 -1.596436e-24 3.792632e-10) (0.000000e+00 0.000000e+00 0.000000e+00))
0.0516667     	((1.582478e-07 3.243993e-02 -4.260354e-20) (-1.054006e-08 8.465295e-05 1.033001e-21) (0.000000e+00 0.000000e+00 0.000000e+00)) ((-7.486580e-22 1.760720e-22 -2.853036e-08) (1.503852e-23 -1.534752e-24 3.810140e-10) (0.000000e+00 0.000000e+00 0.000000e+00))
0.0522222     	((1.611105e-07 3.243648e-02 -4.259626e-20) (-1.067087e-08 8.464579e-05 8.659029e-22) (0.000000e+00 0.000000e+00 0.000000e+00)) ((-7.485233e-22 1.763921e-22 -2.842853e-08) (1.291975e-23 -1.595016e-24 3.819819e-10) (0.000000e+00 0.000000e+00 0.000000e+00))
0.0527778     	((1.641232e-07 3.243312e-02 -4.258819e-20) (-1.080294e-08 8.463856e-05 1.010252e-21) (0.000000e+00 0.000000e+00 0.000000e+00)) ((-7.483751e-22 1.767793e-22 -2.827417e-08) (1.474160e-23 -1.634273e-24 3.832876e-10) (0.000000e+00 0.000000e+00 0.000000e+00))
0.0533333     	((1.687392e-07 3.242964e-02 -4.257923e-20) (-1.085372e-08 8.463133e-05 8.997259e-22) (0.000000e+00 0.000000e+00 0.000000e+00)) ((-7.482111e-22 1.772097e-22 -2.818335e-08) (1.334846e-23 -1.678259e-24 3.837001e-10) (0.000000e+00 0.000000e+00 0.000000e+00))
0.0538889     	((1.739213e-07 3.242612e-02 -4.256957e-20) (-1.077388e-08 8.462411e-05 8.845480e-22) (0.000000e+00 0.000000e+00 0.000000e+00)) ((-7.480345e-22 1.776809e-22 -2.807211e-08) (1.311077e-23 -1.940156e-24 3.819945e-10) (0.000000e+00 0.000000e+00 0.000000e+00))
0.0544444     	((1.783453e-07 3.242271e-02 -4.255927e-20) (-1.085064e-08 8.461695e-05 8.944387e-22) (0.000000e+00 0.000000e+00 0.000000e+00)) ((-7.478473e-22 1.782116e-22 -2.786560e-08) (1.323472e-23 -1.995317e-24 3.827068e-10) (0.000000e+00 0.000000e+00 0.000000e+00))
0.055         	((1.861582e-07 3.241900e-02 -4.254844e-20) (-1.084855e-08 8.460979e-05 8.870196e-22) (0.000000e+00 0.000000e+00 0.000000e+00)) ((-7.476496e-22 1.787279e-22 -2.787452e-08) (1.314178e-23 -1.848683e-24 3.822313e-10) (0.000000e+00 0.000000e+00 0.000000e+00))
0.0555556     	((1.946481e-07 3.241541e-02 -4.253623e-20) (-1.081173e-08 8.460276e-05 8.863773e-22) (0.000000e+00 0.000000e+00 0.000000e+00)) ((-7.474278e-22 1.793528e-22 -2.786372e-08) (1.312902e-23 -2.104533e-24 3.814609e-10) (0.000000e+00 0.000000e+00 0.000000e+00))
0.0561111     	((2.022785e-07 3.241179e-02 -4.252303e-20) (-1.074339e-08 8.459591e-05 8.856018e-22) (0.000000e+00 0.000000e+00 0.000000e+00)) ((-7.471884e-22 1.800370e-22 -2.780986e-08) (1.311678e-23 -2.156683e-24 3.804123e-10) (0.000000e+00 0.000000e+00 0.000000e+00))
0.0566667     	((2.100890e-07 3.240818e-02 -4.250883e-20) (-1.064425e-08 8.458906e-05 9.498078e-22) (0.000000e+00 0.000000e+00 0.000000e+00)) ((-7.469313e-22 1.807849e-22 -2.775608e-08) (1.397169e-23 -1.881051e-24 3.792160e-10) (0.000000e+00 0.000000e+00 0.000000e+00))
0.0572222     	((2.195370e-07 3.240461e-02 -4.249372e-20) (-1.058298e-08 8.458237e-05 8.719734e-22) (0.000000e+00 0.000000e+00 0.000000e+00)) ((-7.466579e-22 1.815955e-22 -2.777089e-08) (1.298352e-23 -2.062146e-24 3.784290e-10) (0.000000e+00 0.000000e+00 0.000000e+00))
0.0577778     	((2.275171e-07 3.240109e-02 -4.247738e-20) (-1.037145e-08 8.457582e-05 9.487868e-22) (0.000000e+00 0.000000e+00 0.000000e+00)) ((-7.463633e-22 1.824942e-22 -2.772983e-08) (1.394640e-23 -2.070583e-24 3.757813e-10) (0.000000e+00 0.000000e+00 0.000000e+00))