/*--------------------------------*- C++ -*----------------------------------*\
  =========                 |
  \\      /  F ield         | OpenFOAM: The Open Source CFD Toolbox
   \\    /   O peration     | Website:  https://openfoam.org
    \\  /    A nd           | Version:  8
     \\/     M anipulation  |
\*---------------------------------------------------------------------------*/
FoamFile
{
    version     2.0;
    format      ascii;
    class       volScalarField;
    location    "0.4";
    object      nut;
}
// * * * * * * * * * * * * * * * * * * * * * * * * * * * * * * * * * * * * * //

dimensions      [0 2 -1 0 0 0 0];

internalField   nonuniform List<scalar> 
15677
(
0.00016825
0.000653022
0.000148429
0.00151378
0.000442416
0.000141521
0.00267567
0.000875634
0.000381061
0.000142388
0.00392155
0.00151862
0.000686349
0.000354163
0.000145464
0.00502454
0.00235575
0.00114583
0.000585367
0.000340148
0.000151193
0.00584099
0.00331697
0.00177987
0.000947166
0.000529029
0.000331905
0.000156966
0.00633518
0.00429831
0.00256643
0.0014623
0.000820305
0.000492256
0.000326883
0.000162381
0.00656293
0.00518746
0.00345149
0.00213015
0.00125609
0.000736724
0.000467264
0.000324006
0.000167133
0.00665852
0.00589332
0.00435393
0.00292032
0.00183983
0.0011113
0.000676967
0.000450293
0.000322439
0.000171334
0.00670557
0.00633815
0.00517965
0.00377698
0.00255474
0.00163016
0.00100377
0.000633802
0.000438595
0.000321872
0.000174875
0.00671445
0.00655338
0.00584449
0.00462333
0.00336018
0.00228422
0.00147124
0.00092357
0.00060202
0.000430681
0.000321817
0.000177995
0.00670997
0.00666146
0.00629513
0.00537547
0.00419429
0.00304249
0.00207573
0.00134786
0.000861833
0.000578488
0.000425259
0.000322275
0.000180594
0.00670633
0.00669873
0.00652928
0.00596324
0.00498175
0.00385424
0.00279308
0.00190993
0.00125043
0.000813881
0.00056087
0.000421764
0.000322943
0.000182917
0.00670544
0.00670435
0.00664666
0.00635616
0.00564809
0.00465285
0.00358031
0.00259114
0.00177651
0.00117248
0.00077635
0.000547729
0.000419506
0.000323772
0.000184965
0.00670548
0.00670283
0.00668783
0.00656245
0.00614066
0.00536586
0.00437819
0.00335407
0.00242608
0.00166714
0.00110951
0.000746702
0.000537819
0.000418144
0.000324759
0.000186775
0.00670563
0.00670158
0.00669639
0.0066563
0.00644593
0.00593168
0.00511815
0.00414558
0.00316621
0.0022885
0.00157746
0.00105806
0.000723306
0.000530396
0.000417546
0.000325612
0.000188386
0.00670572
0.00670109
0.00669718
0.00668471
0.00660442
0.00632049
0.00573512
0.00490101
0.00394845
0.0030075
0.00217418
0.00150277
0.00101655
0.000704782
0.00052509
0.000417068
0.000326725
0.000189918
0.00670575
0.00670096
0.00669684
0.00669143
0.00666356
0.0065405
0.00618658
0.00555456
0.00471191
0.00377939
0.00287396
0.00207778
0.00144116
0.000982681
0.000690388
0.000520806
0.000417376
0.000327665
0.000191154
0.00670575
0.00670093
0.00669661
0.00669242
0.00668234
0.00663405
0.00646677
0.00605627
0.00539151
0.00454658
0.00363516
0.00276021
0.00199729
0.00139012
0.000955336
0.000678768
0.000518227
0.000417564
0.00032873
0.00019254
0.00670575
0.00670093
0.00669654
0.00669227
0.0066875
0.00666867
0.00659749
0.0063884
0.00593302
0.00524526
0.00440308
0.00351109
0.00266431
0.00192992
0.00134814
0.000933202
0.000670219
0.000516077
0.000418294
0.000329714
0.00019352
0.00670575
0.00670093
0.00669654
0.00669206
0.0066886
0.00668024
0.00665128
0.00655549
0.00630959
0.00581856
0.00511531
0.00427811
0.0034055
0.00258338
0.00187401
0.00131404
0.000915826
0.000663364
0.000515143
0.000418854
0.00033079
0.000194874
0.00670575
0.00670092
0.00669655
0.00669194
0.00668873
0.00668348
0.00667193
0.00662978
0.00651042
0.00623249
0.0057136
0.00500042
0.00417071
0.00331584
0.00251585
0.00182839
0.00128657
0.000902131
0.000658832
0.000514368
0.000419963
0.000331887
0.000195634
0.00670575
0.00670091
0.00669656
0.00669187
0.00668871
0.00668411
0.0066791
0.00666067
0.00660575
0.00646478
0.00615918
0.00561926
0.00490047
0.00407877
0.00324058
0.00246052
0.00179153
0.00126529
0.00089226
0.00065532
0.000514662
0.000420791
0.000332825
0.000196982
0.00670575
0.00670091
0.00669656
0.00669183
0.00668869
0.00668408
0.00668133
0.00667228
0.00664867
0.0065803
0.00641849
0.00609247
0.00553558
0.00481379
0.00400119
0.00317901
0.00241611
0.00176333
0.00124932
0.00088482
0.000653752
0.00051493
0.000422176
0.000334219
0.000197685
0.00670575
0.00670091
0.00669655
0.00669181
0.00668868
0.00668396
0.00668192
0.00667611
0.00666656
0.00663473
0.00655354
0.00637661
0.0060306
0.00546191
0.00474095
0.00393831
0.0031297
0.00238188
0.0017418
0.00123806
0.000880846
0.000652884
0.000516132
0.000423034
0.000334993
5.35177e-05
0.00670575
0.00670091
0.00669655
0.0066918
0.00668867
0.00668386
0.00668203
0.00667715
0.00667342
0.00665839
0.00662075
0.00652907
0.00633487
0.00597678
0.00540123
0.00468152
0.00388664
0.00309122
0.00235652
0.00172862
0.0012323
0.0008787
0.000653719
0.00051712
0.000425606
0.000279613
6.3746e-05
0.00670575
0.00670091
0.00669654
0.0066918
0.00668865
0.00668381
0.00668201
0.0066773
0.0066758
0.00666783
0.00665195
0.00660707
0.00650382
0.00630218
0.00593203
0.00534841
0.00463212
0.00384975
0.00306713
0.00234341
0.00172227
0.00122969
0.00087953
0.000655037
0.000519377
0.000417991
0.000213908
7.11787e-05
0.00670575
0.00670092
0.00669652
0.00669181
0.00668862
0.00668378
0.00668196
0.00667724
0.0066765
0.00667124
0.0066654
0.00664432
0.00659386
0.00648529
0.00626905
0.00589108
0.00531193
0.00460372
0.00382817
0.00305288
0.00233616
0.00172051
0.00123116
0.000881871
0.000657244
0.000520134
0.00039605
0.000172585
7.65075e-05
0.00670575
0.00670092
0.00669651
0.00669182
0.00668859
0.00668378
0.00668191
0.00667716
0.00667661
0.00667228
0.00667073
0.00666092
0.00663871
0.00658463
0.00646613
0.00624656
0.00587233
0.00528917
0.0045829
0.00381379
0.00304635
0.00233555
0.00172437
0.00123643
0.000885806
0.000660375
0.000517503
0.000360679
0.000147713
8.03476e-05
0.00670575
0.00670093
0.0066965
0.00669184
0.00668855
0.00668379
0.00668185
0.0066771
0.00667656
0.00667248
0.00667261
0.00666779
0.00665958
0.00663535
0.00657544
0.00645587
0.006239
0.0058565
0.00527337
0.00457134
0.00380987
0.00304983
0.00234383
0.00173461
0.00124482
0.000891991
0.000663573
0.000510246
0.000328308
0.000131815
8.34369e-05
0.00670574
0.00670093
0.00669648
0.00669186
0.00668851
0.00668381
0.00668178
0.00667707
0.00667648
0.00667244
0.00667311
0.00667033
0.00666863
0.00665962
0.00663244
0.00657615
0.00645535
0.0062336
0.00584845
0.00526887
0.00457465
0.00382068
0.00306494
0.00236052
0.00174977
0.00125694
0.000899564
0.000665944
0.000497278
0.00030076
0.00011998
8.58577e-05
0.00670574
0.00670094
0.00669647
0.00669188
0.00668847
0.00668384
0.00668172
0.00667707
0.00667638
0.00667236
0.00667315
0.00667105
0.00667223
0.00667048
0.00666074
0.00664102
0.00657993
0.00645956
0.00623504
0.00585504
0.00528189
0.00459318
0.00384369
0.00309002
0.00238457
0.00177009
0.00127191
0.000908592
0.000667065
0.000482335
0.000276642
0.000111421
8.76453e-05
0.00670574
0.00670094
0.00669645
0.0066919
0.00668843
0.00668387
0.00668164
0.00667708
0.00667628
0.00667228
0.00667307
0.00667115
0.0066734
0.0066749
0.0066739
0.00667354
0.00664772
0.00659005
0.00647089
0.00625278
0.00587808
0.00530937
0.00462562
0.00387883
0.00312493
0.00241591
0.00179493
0.00129028
0.000918575
0.000667084
0.000466593
0.000256363
0.000105678
8.90437e-05
0.00670574
0.00670094
0.00669644
0.00669192
0.00668839
0.00668391
0.00668157
0.00667711
0.00667618
0.00667223
0.00667295
0.00667106
0.00667368
0.00667638
0.00667964
0.00668904
0.00668251
0.00666191
0.00661021
0.00649677
0.00628487
0.00591592
0.00535239
0.00467217
0.00392619
0.0031695
0.00245426
0.00182456
0.00131101
0.000929394
0.000666296
0.000450838
0.000241076
0.000101729
9.02036e-05
0.00670095
0.00670575
0.00669643
0.00669193
0.00668836
0.00668394
0.0066815
0.00667715
0.00667607
0.00667221
0.00667282
0.00667093
0.00667366
0.00667672
0.00668177
0.00669599
0.00669939
0.00669955
0.0066884
0.00664265
0.0065368
0.00633206
0.00597029
0.00541105
0.00473311
0.00398574
0.00322369
0.00249956
0.00185842
0.00133477
0.000942887
0.000664935
0.000438097
0.000229439
9.89279e-05
9.12088e-05
0.00669642
0.00670097
0.00670576
0.00669195
0.00668833
0.00668398
0.00668143
0.00667719
0.00667596
0.00667221
0.00667269
0.0066708
0.00667354
0.00667667
0.00668245
0.00669871
0.00670717
0.00671829
0.00673037
0.00672564
0.00668915
0.0065924
0.00639697
0.00604176
0.00548655
0.00480888
0.00405747
0.00328724
0.00255153
0.0018966
0.00136368
0.000959179
0.000665132
0.000427541
0.0002203
9.69367e-05
9.21176e-05
0.00669196
0.00669644
0.006701
0.00670577
0.0066883
0.00668401
0.00668137
0.00667724
0.00667585
0.00667223
0.00667255
0.0066707
0.00667341
0.00667649
0.00668261
0.00669964
0.00671039
0.00672724
0.00675203
0.0067711
0.00677728
0.00675143
0.0066662
0.00648042
0.00613227
0.00557945
0.00489927
0.00414126
0.00336002
0.00260997
0.00194391
0.00139856
0.00097728
0.000665655
0.000419489
0.000213315
9.54845e-05
9.29528e-05
0.00668827
0.00669201
0.00669647
0.00670104
0.00670578
0.00668404
0.00668131
0.00667729
0.00667575
0.00667227
0.00667241
0.00667064
0.00667327
0.00667629
0.00668258
0.00669988
0.00671163
0.00673122
0.00676297
0.00679532
0.00682674
0.00684495
0.00683244
0.00675894
0.00658442
0.00624186
0.0056904
0.00500508
0.00423694
0.00344155
0.00268187
0.00200258
0.0014361
0.000996579
0.000668736
0.000413067
0.000207516
9.44039e-05
9.37396e-05
0.00668407
0.00668828
0.00669209
0.00669651
0.00670107
0.00670579
0.00668126
0.00667734
0.00667565
0.00667233
0.00667226
0.00667061
0.00667313
0.0066761
0.0066825
0.00669987
0.0067121
0.00673298
0.00676823
0.00680805
0.00685392
0.0068982
0.00693124
0.00693255
0.00687314
0.00670854
0.00637155
0.00581956
0.00512579
0.00434411
0.00354191
0.0027704
0.00206646
0.0014761
0.00101785
0.000673027
0.000408081
0.000202836
9.36062e-05
9.44787e-05
0.00668121
0.00668415
0.00668833
0.00669218
0.00669655
0.00670111
0.0067058
0.00667739
0.00667555
0.00667238
0.00667211
0.00667062
0.00667298
0.00667593
0.00668242
0.00669977
0.00671226
0.00673383
0.00677091
0.00681491
0.0068697
0.00692988
0.00699116
0.00703891
0.00705476
0.00700734
0.00685385
0.0065207
0.00596541
0.00526227
0.00447614
0.00366483
0.00286701
0.00213514
0.00151845
0.00103948
0.000678429
0.000404667
0.000198879
9.30136e-05
9.51842e-05
0.00667743
0.0066812
0.00668429
0.00668838
0.00669227
0.00669659
0.00670114
0.00670582
0.00667547
0.00667244
0.00667196
0.00667066
0.00667281
0.00667581
0.00668234
0.00669965
0.0067123
0.00673431
0.00677249
0.00681881
0.00687898
0.00694913
0.00702819
0.00710641
0.00717263
0.00720243
0.00716569
0.00701819
0.00668785
0.00612796
0.0054288
0.00463966
0.00379989
0.00297063
0.00220807
0.00156327
0.00106217
0.000685253
0.000402272
0.000195605
9.25717e-05
9.58489e-05
0.00667539
0.00667754
0.00668124
0.00668442
0.00668843
0.00669236
0.00669663
0.00670118
0.00670583
0.0066725
0.00667182
0.00667071
0.00667263
0.00667574
0.00668228
0.00669952
0.0067123
0.00673463
0.00677354
0.00682145
0.00688498
0.00696149
0.0070526
0.00715015
0.00724918
0.00733214
0.00737818
0.0073508
0.00720507
0.00687181
0.00632414
0.00563124
0.00481727
0.00394495
0.00308063
0.00228465
0.00161035
0.00108529
0.000693317
0.000400787
0.000192817
9.224e-05
9.64848e-05
0.00667255
0.00667535
0.00667771
0.00668129
0.00668456
0.00668849
0.00669245
0.00669668
0.00670121
0.00670584
0.00667169
0.00667078
0.00667244
0.00667573
0.00668221
0.00669941
0.0067123
0.00673487
0.00677434
0.0068235
0.00688943
0.00697027
0.00706995
0.00718118
0.00730211
0.00742006
0.00752216
0.0075811
0.0075629
0.00741745
0.00709511
0.00655991
0.00584807
0.00500495
0.00409771
0.00319587
0.00236443
0.00165912
0.0011091
0.000701572
0.000400237
0.000190483
9.19955e-05
9.70819e-05
0.00667158
0.00667267
0.00667535
0.00667789
0.00668134
0.0066847
0.00668856
0.00669253
0.00669673
0.00670125
0.00670586
0.00667085
0.00667225
0.00667577
0.00668211
0.0066993
0.00671229
0.00673508
0.00677502
0.00682523
0.00689305
0.00697729
0.0070834
0.00720493
0.00734272
0.00748475
0.00762497
0.00774249
0.00781383
0.00780106
0.00768089
0.00737386
0.00680887
0.00607341
0.00520032
0.00425632
0.00331524
0.00244664
0.00170908
0.00113394
0.0007101
0.000400067
0.000188458
9.18011e-05
9.76523e-05
0.00667092
0.00667146
0.00667285
0.00667536
0.00667807
0.0066814
0.00668484
0.00668863
0.00669262
0.00669678
0.00670129
0.00670587
0.00667206
0.00667585
0.00668198
0.00669921
0.00671228
0.00673527
0.00677562
0.00682677
0.00689616
0.00698336
0.00709471
0.00722435
0.00737631
0.00753782
0.00770549
0.00786368
0.00799699
0.00807677
0.00809551
0.0080048
0.00768117
0.00707973
0.00630561
0.00540007
0.00441829
0.00343722
0.00253058
0.00175999
0.00115927
0.000718785
0.000400494
0.00018675
9.16535e-05
9.81854e-05
0.00667188
0.00667102
0.00667134
0.00667304
0.00667537
0.00667824
0.00668147
0.00668497
0.0066887
0.00669271
0.00669684
0.00670132
0.00670589
0.00667597
0.0066818
0.00669914
0.0067123
0.00673546
0.00677617
0.00682816
0.00689892
0.00698881
0.00710466
0.00724133
0.00740541
0.00758408
0.00777572
0.00796427
0.00814196
0.00828641
0.00840401
0.00846064
0.0083585
0.00800875
0.00736832
0.006546
0.00560127
0.00458197
0.00356099
0.00261557
0.00181146
0.00118488
0.00072762
0.000401273
0.00018526
9.15502e-05
9.8694e-05
0.00667611
0.00667156
0.00667114
0.00667123
0.00667322
0.00667541
0.00667841
0.00668155
0.00668511
0.00668879
0.00669279
0.0066969
0.00670136
0.00670591
0.00668156
0.00669912
0.00671234
0.00673566
0.00677668
0.00682944
0.00690142
0.0069938
0.0071136
0.00725676
0.00743169
0.0076253
0.00784015
0.00805693
0.00826911
0.00846072
0.00864965
0.00881358
0.00886257
0.00873898
0.0083538
0.00766954
0.00679666
0.00580396
0.00474619
0.00368491
0.00270088
0.00186315
0.00121065
0.00073658
0.000402145
0.000183994
9.14632e-05
9.91671e-05
0.00668127
0.00667614
0.00667109
0.00667126
0.00667113
0.0066734
0.00667546
0.00667857
0.00668165
0.00668523
0.00668888
0.00669288
0.00669696
0.00670139
0.00670592
0.00669916
0.0067124
0.00673586
0.00677716
0.00683061
0.00690369
0.00699838
0.00712173
0.00727103
0.00745583
0.00766314
0.00789994
0.00814555
0.00839153
0.00862111
0.00886522
0.00910988
0.00926949
0.00929921
0.00914342
0.00871368
0.00797853
0.00705397
0.00600622
0.00490808
0.00380793
0.00278588
0.0019147
0.00123642
0.000745591
0.000403232
0.000182954
9.14277e-05
9.96181e-05
0.0066993
0.0066803
0.00667611
0.00667061
0.00667138
0.00667108
0.00667356
0.00667554
0.00667872
0.00668176
0.00668536
0.00668898
0.00669297
0.00669703
0.00670143
0.00670594
0.00671249
0.00673606
0.00677759
0.00683168
0.00690577
0.00700258
0.00712915
0.0072843
0.00747808
0.0076985
0.00795649
0.00822939
0.00851195
0.00878227
0.00907462
0.00938544
0.00962948
0.00977184
0.00976963
0.00957016
0.00908613
0.00829329
0.00731535
0.00621184
0.00506765
0.00392929
0.00287
0.00196584
0.00126205
0.000754679
0.000404428
0.000182017
9.13706e-05
0.000100035
0.00671257
0.00669892
0.00667849
0.0066761
0.00667019
0.00667147
0.00667106
0.0066737
0.00667565
0.00667887
0.00668188
0.00668548
0.00668908
0.00669305
0.00669709
0.00670146
0.00670595
0.00673625
0.00677797
0.00683265
0.00690768
0.00700644
0.00713594
0.00729661
0.00749861
0.00773183
0.0080102
0.00830891
0.00862849
0.00894784
0.00929494
0.00966682
0.00998328
0.0102145
0.0103254
0.0102762
0.0100192
0.00946976
0.00861227
0.00757667
0.00641838
0.00522466
0.00404844
0.00295284
0.0020163
0.0012874
0.000763759
0.00040568
0.00018125
9.13783e-05
0.000100433
0.00673643
0.00671162
0.0066981
0.00667675
0.00667601
0.00666986
0.00667151
0.0066711
0.00667381
0.00667578
0.006679
0.00668202
0.0066856
0.00668919
0.00669313
0.00669715
0.00670149
0.00670596
0.00677827
0.00683352
0.00690943
0.00700996
0.00714218
0.007308
0.00751754
0.00776329
0.00806087
0.00838458
0.00874258
0.00911442
0.00952664
0.00997331
0.0103658
0.0106812
0.0108839
0.010942
0.0108243
0.010492
0.00986389
0.00893412
0.00783689
0.00662403
0.00537863
0.0041649
0.00303387
0.00206584
0.00131235
0.000772759
0.000406976
0.000180516
9.13338e-05
0.000100799
0.00677853
0.00673479
0.00670951
0.00669716
0.00667545
0.00667578
0.00666966
0.00667149
0.0066712
0.0066739
0.00667594
0.00667913
0.00668216
0.00668572
0.00668929
0.00669321
0.00669721
0.00670153
0.00670598
0.00683432
0.00691104
0.00701318
0.0071479
0.00731849
0.00753501
0.00779288
0.00810833
0.00845689
0.00885502
0.00928026
0.00975812
0.0103082
0.010816
0.0112329
0.0115259
0.0116654
0.0116352
0.0114192
0.0109897
0.010268
0.00925777
0.00809515
0.0068275
0.00552917
0.00427756
0.00311273
0.00211424
0.0013368
0.000781657
0.000408324
0.000179937
9.13646e-05
0.000101149
0.00683508
0.00677564
0.00673118
0.00670732
0.00669563
0.00667461
0.00667535
0.0066696
0.0066714
0.00667135
0.00667398
0.00667611
0.00667925
0.00668231
0.00668583
0.0066894
0.00669328
0.00669726
0.00670156
0.00670599
0.00691251
0.00701611
0.00715315
0.00732812
0.00755111
0.00782054
0.00815258
0.00852625
0.00896502
0.00944227
0.00998735
0.0106723
0.0113672
0.0119472
0.0123448
0.0125544
0.0125734
0.0124089
0.012061
0.0115112
0.0106809
0.00958216
0.00835062
0.00702766
0.00567777
0.00438654
0.00318916
0.00216134
0.00136067
0.000790325
0.000409621
0.000179395
9.13291e-05
0.00010143
0.00691389
0.00683143
0.00676936
0.0067276
0.0067052
0.00669374
0.0066742
0.00667471
0.00666968
0.00667126
0.00667154
0.00667404
0.00667631
0.00667938
0.00668246
0.00668594
0.00668949
0.00669336
0.00669732
0.00670159
0.006706
0.00701878
0.00715794
0.00733693
0.00756595
0.00784625
0.00819376
0.00859272
0.00907092
0.00959833
0.0102202
0.0110838
0.0120296
0.0128651
0.0134264
0.0137041
0.0137497
0.0135897
0.01325
0.0127419
0.0120523
0.0111005
0.00990603
0.00860253
0.00722296
0.00582344
0.00449182
0.00326303
0.002207
0.00138386
0.000798829
0.000411012
0.000178952
9.13652e-05
0.000101665
0.00702124
0.00690872
0.00682301
0.00676306
0.00672424
0.00670305
0.00669145
0.00667418
0.00667391
0.00666987
0.00667109
0.00667176
0.00667411
0.0066765
0.0066795
0.0066826
0.00668605
0.00668959
0.00669343
0.00669737
0.00670162
0.00670601
0.00716231
0.00734496
0.00757957
0.00787001
0.00823205
0.00865598
0.00917124
0.00974888
0.0104656
0.0115534
0.0127916
0.0139191
0.0147311
0.0151383
0.0152083
0.0150373
0.0146664
0.0141305
0.0134467
0.0126056
0.0115233
0.0102279
0.00885003
0.00741305
0.00596547
0.00459339
0.0033342
0.0022511
0.00140634
0.000807135
0.000412308
0.000178577
9.13462e-05
0.00010192
0.00716632
0.00701419
0.00689636
0.00681462
0.00675702
0.00672108
0.0067012
0.00668867
0.00667446
0.006673
0.00667013
0.00667091
0.006672
0.00667418
0.00667668
0.00667962
0.00668274
0.00668616
0.00668968
0.0066935
0.00669742
0.00670165
0.00670602
0.00735225
0.00759203
0.00789185
0.00826758
0.00871561
0.00926532
0.00989615
0.0107288
0.0120714
0.0136047
0.0150033
0.0160602
0.0166896
0.0168743
0.0167143
0.0163233
0.0157447
0.0150156
0.0141564
0.0131614
0.0119453
0.0105458
0.00909227
0.00759763
0.00610336
0.00469117
0.0034026
0.0022936
0.00142805
0.000815157
0.000413479
0.000178304
9.13877e-05
0.000102196
0.00735886
0.00715675
0.00699651
0.006884
0.00680644
0.00675131
0.00671807
0.00669994
0.00668565
0.00667488
0.00667208
0.00667041
0.00667077
0.00667221
0.00667427
0.00667685
0.00667975
0.00668286
0.00668627
0.00668977
0.00669357
0.00669747
0.00670168
0.00670602
0.00760342
0.00791184
0.00830045
0.00877125
0.00935336
0.0100424
0.0110083
0.0126123
0.0144062
0.0160159
0.0172583
0.0180859
0.0184884
0.0184653
0.0181083
0.0175312
0.0167741
0.0158735
0.0148525
0.0137099
0.0123619
0.010858
0.00932839
0.00777637
0.00623673
0.00478511
0.00346822
0.00233442
0.00144896
0.000821873
0.000414444
0.000177987
9.1365e-05
0.000102498
0.00761373
0.0073464
0.00713175
0.00697878
0.00687193
0.0067985
0.00674584
0.00671521
0.00669892
0.00668262
0.00667532
0.00667125
0.00667064
0.00667068
0.0066724
0.00667438
0.006677
0.00667988
0.00668298
0.00668638
0.00668985
0.00669364
0.00669752
0.0067017
0.00670602
0.0079301
0.00833072
0.00882274
0.00943604
0.0101886
0.0112967
0.0131473
0.0151452
0.0168917
0.0182451
0.0192045
0.019791
0.0200034
0.0198272
0.019329
0.018615
0.0177207
0.0166803
0.0155193
0.0142422
0.0127687
0.0111625
0.00955762
0.00794898
0.0063653
0.0048752
0.003531
0.00237355
0.00146639
0.000827668
0.000415605
0.000177703
9.14275e-05
0.000102826
0.00794649
0.00759743
0.00731174
0.00710669
0.00696143
0.00686018
0.00679072
0.00674057
0.00671255
0.00669798
0.00667978
0.0066756
0.0066706
0.00667078
0.00667067
0.00667255
0.00667451
0.00667714
0.00668002
0.0066831
0.00668648
0.00668994
0.00669371
0.00669754
0.0067017
0.00670602
0.00835851
0.00887014
0.00951412
0.0103342
0.0115839
0.0136524
0.0157926
0.0176065
0.0190026
0.0200252
0.0207274
0.0211288
0.0212118
0.0209418
0.020358
0.0195564
0.018567
0.0174213
0.0161458
0.0147509
0.0131618
0.0114576
0.00977922
0.00811518
0.00648889
0.00496145
0.00359103
0.00240603
0.00148136
0.000834097
0.00041682
0.000177367
9.13993e-05
0.000103184
0.00838344
0.00792595
0.00754972
0.00727694
0.00708215
0.00694451
0.00684871
0.00678303
0.00673567
0.00671001
0.00669703
0.0066774
0.00667558
0.00667019
0.00667083
0.00667073
0.00667266
0.00667465
0.00667727
0.00668016
0.00668321
0.00668658
0.00669001
0.00669374
0.00669754
0.0067017
0.00670602
0.0089137
0.00958818
0.0104774
0.0118604
0.0141128
0.016339
0.0181653
0.0195508
0.0205796
0.0213326
0.0218506
0.0221319
0.0221406
0.021826
0.0212024
0.0203553
0.0193085
0.0180897
0.0167255
0.0152311
0.0135382
0.0117417
0.00999254
0.00827479
0.00660738
0.00504374
0.00364057
0.0024338
0.00149792
0.000841292
0.000418332
0.000177074
9.1487e-05
0.000103574
0.00895262
0.00835729
0.0078612
0.00750188
0.00724281
0.00705821
0.00692801
0.00683749
0.00677539
0.00673111
0.00670748
0.00669586
0.00667594
0.00667521
0.00667001
0.00667079
0.00667084
0.00667276
0.00667481
0.00667739
0.00668029
0.00668331
0.00668669
0.00669005
0.00669374
0.00669754
0.0067017
0.00670602
0.00965857
0.010616
0.0121189
0.014522
0.0167882
0.0185874
0.0199251
0.0209183
0.0216705
0.0222409
0.0226438
0.0228576
0.0228336
0.0225104
0.0218818
0.0210221
0.0199489
0.0186848
0.0172554
0.0156797
0.0138956
0.0120136
0.0101971
0.00842765
0.00672072
0.00511225
0.00368279
0.00246444
0.00151633
0.000849301
0.000419877
0.000176724
9.14516e-05
0.000103999
0.00972302
0.00891988
0.00826949
0.0077962
0.00745493
0.00720948
0.00703487
0.00691191
0.00682651
0.00676784
0.00672674
0.00670488
0.00669378
0.00667524
0.00667457
0.00667001
0.00667069
0.00667099
0.00667284
0.00667497
0.0066775
0.00668043
0.00668341
0.00668674
0.00669005
0.00669374
0.00669754
0.0067017
0.00670602
0.0107481
0.0123604
0.0148798
0.0171505
0.0188968
0.0201634
0.0210932
0.021807
0.0223793
0.0228393
0.0231792
0.0233632
0.0233355
0.0230286
0.0224195
0.0215717
0.020496
0.0192095
0.0177355
0.0160953
0.0142326
0.0122726
0.0103925
0.00857368
0.00681449
0.00517097
0.00372922
0.00249832
0.00153677
0.000858322
0.000421856
0.000176416
9.15712e-05
0.000104464
0.010867
0.00968164
0.00879984
0.00818163
0.00773231
0.00740905
0.00717695
0.00701211
0.00689622
0.00681582
0.00676046
0.00672254
0.00670237
0.00669115
0.0066751
0.00667379
0.00667013
0.00667057
0.00667116
0.00667291
0.00667514
0.00667761
0.00668056
0.00668346
0.00668675
0.00669005
0.00669374
0.00669754
0.0067017
0.00670602
0.0125845
0.0151859
0.017439
0.019117
0.0202994
0.0211488
0.021799
0.0223365
0.0228034
0.023205
0.0235177
0.0236973
0.0236854
0.0234115
0.0228386
0.0220202
0.0209599
0.0196691
0.0181676
0.0164779
0.0145485
0.0125181
0.0105787
0.00869452
0.00689447
0.00523589
0.0037804
0.00253583
0.00155961
0.000868393
0.000423845
0.000176044
9.15275e-05
0.000104968
0.0108202
0.0127819
0.00950457
0.0086819
0.00809509
0.00766983
0.00736421
0.00714521
0.00698994
0.00688098
0.00680556
0.00675317
0.00671872
0.00670025
0.0066881
0.00667527
0.00667296
0.00667029
0.00667044
0.00667134
0.00667297
0.0066753
0.00667771
0.00668064
0.00668345
0.00668675
0.00669005
0.00669374
0.00669754
0.00670168
0.00670601
0.0154441
0.0176664
0.0192687
0.0203608
0.0211208
0.0216917
0.0221688
0.0226054
0.023019
0.0233974
0.0237067
0.023899
0.0239158
0.0236858
0.0231604
0.0223831
0.0213513
0.0200699
0.0185548
0.0168284
0.0148434
0.0127499
0.0107321
0.00879759
0.00698247
0.00530777
0.00383694
0.00257745
0.00158507
0.000879828
0.000426476
0.000175728
9.16869e-05
0.000105519
0.0105496
0.012732
0.0156574
0.00933503
0.00856661
0.00801023
0.00760875
0.00732044
0.00711429
0.0069684
0.00686626
0.00679587
0.00674634
0.00671527
0.00669888
0.00668504
0.00667553
0.00667218
0.00667046
0.00667034
0.00667152
0.00667304
0.00667546
0.00667775
0.00668065
0.00668345
0.00668675
0.00669005
0.00669374
0.00669752
0.00670165
0.006706
0.0178445
0.0193685
0.0203691
0.0210362
0.021519
0.0219191
0.0222986
0.0226864
0.0230818
0.0234602
0.0237819
0.0239984
0.0240529
0.0238741
0.0234031
0.0226747
0.0216802
0.0204182
0.0189005
0.0171484
0.0151176
0.0129392
0.0108625
0.0089109
0.00707944
0.00538747
0.00389952
0.00262372
0.00161369
0.000892652
0.000429081
0.000175348
9.16371e-05
0.000106115
0.0102814
0.0123582
0.0155816
0.0179802
0.00917481
0.00845341
0.00792717
0.00754907
0.00727776
0.00708424
0.00694755
0.00685213
0.00678665
0.00674008
0.0067122
0.00669779
0.00668221
0.00667576
0.00667152
0.00667061
0.00667026
0.00667169
0.00667312
0.00667556
0.00667774
0.00668066
0.00668345
0.00668675
0.00669006
0.00669371
0.00669747
0.00670162
0.00670599
0.0194298
0.0203407
0.0209151
0.0213058
0.021619
0.021923
0.0222566
0.0226307
0.0230311
0.023425
0.02377
0.024019
0.0241176
0.0239944
0.023582
0.0229072
0.0219558
0.0207205
0.0192087
0.0174398
0.015338
0.0130992
0.0110054
0.00903561
0.00718644
0.00547597
0.00396897
0.00267531
0.00164572
0.000907343
0.000432632
0.000175045
9.18494e-05
0.000106768
0.0100296
0.0119465
0.015234
0.01787
0.0194551
0.00902148
0.00834206
0.00784602
0.00749084
0.00723625
0.00705511
0.00692745
0.00683867
0.00677803
0.00673438
0.0067095
0.0066968
0.00667979
0.00667584
0.006671
0.00667071
0.00667022
0.00667185
0.00667313
0.00667558
0.00667773
0.00668066
0.00668345
0.00668674
0.00669002
0.00669364
0.00669742
0.00670159
0.00670598
0.0202876
0.020772
0.0210703
0.0212915
0.021508
0.0217668
0.0220898
0.022474
0.0228948
0.0233145
0.0236907
0.0239787
0.0241263
0.0240618
0.02371
0.0230912
0.0221863
0.0209827
0.0194831
0.0176693
0.0155225
0.0132731
0.0111619
0.00917295
0.00730471
0.0055744
0.00404625
0.00273293
0.00168201
0.000923909
0.000436121
0.000174683
9.18032e-05
0.000107466
0.00979529
0.0115353
0.0147934
0.0176378
0.0192931
0.0202099
0.00887284
0.00823271
0.00776689
0.00743415
0.00719601
0.00702698
0.00690826
0.00682614
0.00677005
0.00672932
0.00670702
0.0066958
0.00667796
0.00667572
0.00667063
0.00667078
0.0066702
0.00667195
0.0066731
0.0066756
0.00667772
0.00668066
0.00668346
0.00668669
0.00668994
0.00669357
0.00669737
0.00670156
0.00670597
0.0206171
0.0208253
0.0209529
0.021075
0.0212448
0.0214937
0.0218305
0.0222408
0.0226925
0.0231455
0.0235593
0.0238918
0.0240922
0.0240881
0.0237977
0.0232356
0.0223788
0.0212101
0.0196945
0.0178591
0.0157207
0.013462
0.0113334
0.00932431
0.00743558
0.00568406
0.00413245
0.00279758
0.00172279
0.000943077
0.000440985
0.000174445
9.20892e-05
0.000108236
0.00957567
0.0111412
0.0142977
0.017328
0.0191351
0.0199963
0.0204461
0.00872782
0.00812568
0.00768993
0.00737913
0.00715713
0.0070001
0.00689043
0.00681466
0.00676266
0.00672495
0.00670468
0.00669449
0.00667682
0.00667541
0.00667038
0.00667083
0.00667018
0.00667198
0.00667308
0.0066756
0.00667773
0.00668065
0.00668342
0.00668659
0.00668986
0.0066935
0.00669732
0.00670153
0.00670596
0.0205793
0.0206149
0.0206396
0.0207114
0.0208693
0.0211335
0.0215012
0.0219483
0.0224379
0.0229302
0.0233875
0.0237695
0.0240257
0.0240828
0.0238534
0.0233477
0.0225396
0.0213804
0.0198671
0.0180599
0.0159331
0.0136668
0.011521
0.00949117
0.00758062
0.00580641
0.0042289
0.00287016
0.00176945
0.000964841
0.000445799
0.000174159
9.20674e-05
0.000109047
0.0093681
0.0107708
0.0137704
0.0169602
0.0189127
0.0198706
0.020181
0.0203229
0.00858619
0.0080213
0.00761533
0.00732593
0.00711997
0.00697513
0.00687418
0.00680415
0.00675574
0.00672105
0.00670245
0.00669263
0.0066762
0.00667498
0.00667024
0.00667085
0.00667015
0.00667199
0.00667308
0.00667559
0.00667775
0.00668058
0.00668332
0.00668648
0.00668978
0.00669343
0.00669726
0.0067015
0.00670595
0.0202852
0.0202128
0.0201818
0.0202374
0.0204093
0.0207072
0.0211172
0.0216082
0.022141
0.0226781
0.0231845
0.0236208
0.0239353
0.0240538
0.0238843
0.0234337
0.0226545
0.0215175
0.0200469
0.0182718
0.0161602
0.0138886
0.0117263
0.00967515
0.00774152
0.00594314
0.0043371
0.00295225
0.00182215
0.000990322
0.000452565
0.000174036
9.24589e-05
0.000110101
0.00917051
0.0104269
0.0132236
0.0165439
0.0186497
0.0196937
0.0200598
0.0200061
0.0199486
0.00844813
0.00791992
0.00754328
0.00727504
0.00708549
0.00695241
0.00685934
0.00679453
0.00674933
0.00671758
0.00670046
0.0066903
0.00667591
0.00667452
0.00667021
0.00667083
0.00667014
0.006672
0.00667309
0.00667558
0.00667771
0.00668044
0.00668322
0.00668638
0.00668969
0.00669336
0.0066972
0.00670146
0.00670593
0.0198017
0.0196673
0.0196137
0.0196792
0.0198851
0.0202289
0.0206888
0.0212284
0.021809
0.0223967
0.0229582
0.0234529
0.0238276
0.0240071
0.0238958
0.0234882
0.0227453
0.0216574
0.0202333
0.0184945
0.0164023
0.0141281
0.0119505
0.00987796
0.00792017
0.00609616
0.00445886
0.00304492
0.00188312
0.00101952
0.000459453
0.000173973
9.253e-05
0.000111367
0.00898141
0.0101107
0.0126652
0.0160803
0.0183572
0.0194913
0.0198958
0.0198723
0.0195798
0.0193938
0.00831388
0.00782198
0.00747444
0.00722785
0.00705414
0.00693172
0.00684583
0.00678583
0.00674337
0.00671459
0.00669914
0.00668793
0.00667578
0.00667416
0.00667028
0.00667082
0.00667015
0.00667199
0.00667313
0.00667549
0.00667761
0.0066803
0.00668312
0.00668627
0.0066896
0.00669329
0.00669714
0.00670143
0.00670592
0.0191749
0.01901
0.0189599
0.0190574
0.0193097
0.0197079
0.0202227
0.0208139
0.0214474
0.0220923
0.022715
0.023272
0.023708
0.0239475
0.0238907
0.023529
0.0228347
0.0217991
0.0204253
0.0187273
0.0166593
0.0143862
0.012195
0.0101013
0.00811862
0.00626764
0.00459631
0.00315078
0.00195246
0.00105415
0.000469005
0.000174036
9.32196e-05
0.000112642