/*--------------------------------*- C++ -*----------------------------------*\
  =========                 |
  \\      /  F ield         | OpenFOAM: The Open Source CFD Toolbox
   \\    /   O peration     | Website:  https://openfoam.org
    \\  /    A nd           | Version:  8
     \\/     M anipulation  |
\*---------------------------------------------------------------------------*/
FoamFile
{
    version     2.0;
    format      ascii;
    class       surfaceScalarField;
    location    "0.34";
    object      phi;
}
// * * * * * * * * * * * * * * * * * * * * * * * * * * * * * * * * * * * * * //

dimensions      [0 3 -1 0 0 0 0];

internalField   nonuniform List<scalar> 
31053
(
6.27968e-07
1.2752e-05
8.50117e-07
1.51579e-05
3.76863e-07
1.23752e-05
9.33099e-07
1.7557e-05
5.9004e-07
1.49447e-05
2.70217e-07
1.2105e-05
9.57075e-07
2.0216e-05
7.08914e-07
1.74381e-05
4.66144e-07
1.47487e-05
2.16752e-07
1.18882e-05
9.48457e-07
2.32486e-05
7.69217e-07
2.01557e-05
5.92502e-07
1.73118e-05
3.97826e-07
1.45677e-05
1.73348e-07
1.17149e-05
9.18942e-07
2.66895e-05
7.95169e-07
2.32227e-05
6.68623e-07
2.00796e-05
5.26434e-07
1.71832e-05
3.35142e-07
1.44059e-05
1.38728e-07
1.15761e-05
8.74033e-07
3.06649e-05
7.98975e-07
2.66857e-05
7.1186e-07
2.31794e-05
6.08955e-07
1.99971e-05
4.58727e-07
1.70596e-05
2.80297e-07
1.42643e-05
1.11507e-07
1.14646e-05
8.16984e-07
3.5197e-05
7.87554e-07
3.06763e-05
7.33107e-07
2.66645e-05
6.58844e-07
2.31295e-05
5.41373e-07
1.99144e-05
3.94454e-07
1.69454e-05
2.3306e-07
1.41428e-05
8.89776e-08
1.13756e-05
7.50826e-07
4.03862e-05
7.64911e-07
3.52197e-05
7.3871e-07
3.06707e-05
6.86161e-07
2.66371e-05
5.92114e-07
2.30788e-05
4.73087e-07
1.98358e-05
3.35348e-07
1.68431e-05
1.90817e-07
1.40409e-05
6.92278e-08
1.13064e-05
6.77209e-07
4.63536e-05
7.32816e-07
4.04183e-05
7.32111e-07
3.52263e-05
6.96919e-07
3.066e-05
6.19992e-07
2.66093e-05
5.21073e-07
2.30308e-05
4.07127e-07
1.9764e-05
2.7929e-07
1.67547e-05
1.51672e-07
1.39585e-05
5.11106e-08
1.12553e-05
5.97731e-07
5.32195e-05
6.93447e-07
4.6393e-05
7.14334e-07
4.0436e-05
6.94523e-07
3.52287e-05
6.30996e-07
3.0649e-05
5.46057e-07
2.65843e-05
4.49742e-07
2.29882e-05
3.41713e-07
1.97016e-05
2.2477e-07
1.66816e-05
1.14365e-07
1.38952e-05
3.38546e-08
1.12214e-05
5.14387e-07
6.10633e-05
6.48595e-07
5.32643e-05
6.86718e-07
4.64206e-05
6.81548e-07
4.0449e-05
6.2863e-07
3.52311e-05
5.53844e-07
3.06412e-05
4.69281e-07
2.65647e-05
3.76549e-07
2.29534e-05
2.75575e-07
1.96508e-05
1.7076e-07
1.66252e-05
7.79606e-08
1.38511e-05
1.69513e-08
1.12045e-05
4.29882e-07
7.00665e-05
5.99786e-07
6.11122e-05
6.50413e-07
5.33006e-05
6.58636e-07
4.64435e-05
6.15103e-07
4.04625e-05
5.47945e-07
3.5237e-05
4.7113e-07
3.06393e-05
3.88234e-07
2.65531e-05
3.00302e-07
2.29286e-05
2.07814e-07
1.96137e-05
1.16469e-07
1.65867e-05
4.17689e-08
1.38263e-05
2.39753e-10
1.12043e-05
3.47997e-07
8.04139e-05
5.47977e-07
7.01183e-05
6.06647e-07
6.11559e-05
6.26164e-07
5.33331e-05
5.91489e-07
4.64671e-05
5.30347e-07
4.04801e-05
4.58684e-07
3.52494e-05
3.81569e-07
3.0646e-05
3.01775e-07
2.65516e-05
2.20143e-07
2.29163e-05
1.37767e-07
1.95924e-05
6.12698e-08
1.65672e-05
5.4012e-09
1.38211e-05
-1.65623e-08
1.12208e-05
2.85723e-07
7.62523e-05
4.93233e-07
8.04686e-05
5.56764e-07
7.01682e-05
5.84545e-07
6.11975e-05
5.58188e-07
5.33664e-05
5.0206e-07
4.64954e-05
4.33817e-07
4.0505e-05
3.59764e-07
3.52712e-05
2.84089e-07
3.06637e-05
2.09046e-07
2.65627e-05
1.35422e-07
2.29187e-05
6.49007e-08
1.95888e-05
4.84831e-09
1.65677e-05
-3.13771e-08
1.38359e-05
-3.35957e-08
1.12544e-05
2.3619e-07
7.62395e-05
4.44008e-07
7.63015e-05
5.02137e-07
8.05233e-05
5.34418e-07
7.02183e-05
5.15415e-07
6.12403e-05
4.63481e-07
5.3405e-05
3.97427e-07
4.65318e-05
3.24578e-07
4.05402e-05
2.5018e-07
3.53051e-05
1.77828e-07
3.06949e-05
1.09359e-07
2.65887e-05
4.56122e-08
2.29379e-05
-1.1013e-08
1.96047e-05
-5.30666e-08
1.65894e-05
-6.87296e-08
1.38711e-05
-5.08797e-08
1.13053e-05
1.96869e-07
7.62293e-05
3.97936e-07
7.62856e-05
4.53416e-07
7.63502e-05
4.769e-07
8.05808e-05
4.63483e-07
7.02703e-05
4.1479e-07
6.1289e-05
3.49836e-07
5.34526e-05
2.76782e-07
4.65796e-05
2.01636e-07
4.05887e-05
1.29064e-07
3.53539e-05
6.20336e-08
3.07422e-05
2.17186e-09
2.66322e-05
-4.94176e-08
2.29763e-05
-9.0034e-08
1.96416e-05
-1.12329e-07
1.6633e-05
-1.0657e-07
1.39268e-05
-6.82347e-08
1.13735e-05
1.65387e-07
7.62235e-05
3.55458e-07
7.62718e-05
4.07884e-07
7.63311e-05
4.24574e-07
7.64025e-05
4.03097e-07
8.06412e-05
3.56229e-07
7.03288e-05
2.91165e-07
6.13477e-05
2.16591e-07
5.35128e-05
1.39074e-07
4.66422e-05
6.41061e-08
4.06537e-05
-4.40897e-09
3.54203e-05
-6.38338e-08
3.08082e-05
-1.12591e-07
2.66954e-05
-1.49596e-07
2.30359e-05
-1.71839e-07
1.97011e-05
-1.72725e-07
1.66992e-05
-1.44628e-07
1.40032e-05
-8.55329e-08
1.14591e-05
1.39946e-07
7.62154e-05
3.16844e-07
7.62621e-05
3.65665e-07
7.6314e-05
3.75165e-07
7.63805e-05
3.47195e-07
7.64584e-05
2.88462e-07
8.07089e-05
2.21601e-07
7.03984e-05
1.44074e-07
6.14202e-05
6.2579e-08
5.35893e-05
-1.66281e-08
4.67229e-05
-8.89092e-08
4.07382e-05
-1.50786e-07
3.55073e-05
-1.99868e-07
3.08955e-05
-2.34756e-07
2.67805e-05
-2.54375e-07
2.31184e-05
-2.55899e-07
1.97843e-05
-2.33729e-07
1.67883e-05
-1.82543e-07
1.41002e-05
-1.0252e-07
1.15616e-05
1.19231e-07
7.62107e-05
2.82041e-07
7.62502e-05
3.26797e-07
7.6301e-05
3.2911e-07
7.63601e-05
2.93876e-07
7.64339e-05
2.25841e-07
7.65211e-05
1.41828e-07
8.07887e-05
5.94063e-08
7.04831e-05
-2.78477e-08
6.15106e-05
-1.13226e-07
5.36859e-05
-1.9132e-07
4.68253e-05
-2.58007e-07
4.08454e-05
-3.10176e-07
3.56176e-05
-3.45708e-07
3.10065e-05
-3.63557e-07
2.68897e-05
-3.62921e-07
2.32255e-05
-3.4134e-07
1.98919e-05
-2.94693e-07
1.69004e-05
-2.1984e-07
1.42175e-05
-1.19003e-07
1.16806e-05
1.02269e-07
7.6207e-05
2.50904e-07
7.62419e-05
2.91271e-07
7.62858e-05
2.86693e-07
7.63434e-05
2.4392e-07
7.641e-05
1.66267e-07
7.64934e-05
6.86209e-08
7.65943e-05
-3.66659e-08
8.08848e-05
-1.32025e-07
7.05872e-05
-2.2577e-07
6.16232e-05
-3.11943e-07
5.38065e-05
-3.8565e-07
4.6953e-05
-4.43262e-07
4.09785e-05
-4.82014e-07
3.57539e-05
-5.0042e-07
3.11433e-05
-4.97858e-07
2.70246e-05
-4.73958e-07
2.33581e-05
-4.27147e-07
2.00244e-05
-3.54828e-07
1.70354e-05
-2.56009e-07
1.43545e-05
-1.34659e-07
1.18152e-05
8.94275e-08
6.95948e-05
2.23259e-07
7.62346e-05
2.58972e-07
7.62742e-05
2.48045e-07
7.63244e-05
1.97829e-07
7.63895e-05
1.10712e-07
7.64656e-05
-6.1576e-10
7.65627e-05
-1.24211e-07
7.66818e-05
-2.49036e-07
8.10018e-05
-3.54051e-07
7.07155e-05
-4.50969e-07
6.17622e-05
-5.34275e-07
5.39551e-05
-5.99665e-07
4.71094e-05
-6.43931e-07
4.11404e-05
-6.65197e-07
3.59187e-05
-6.6255e-07
3.1308e-05
-6.35982e-07
2.71867e-05
-5.8606e-07
2.3517e-05
-5.12108e-07
2.01817e-05
-4.13249e-07
1.71926e-05
-2.90441e-07
1.45103e-05
-1.49281e-07
1.19645e-05
7.96479e-08
6.25538e-05
2.00939e-07
6.96172e-05
2.29743e-07
7.62638e-05
2.13173e-07
7.6309e-05
1.55922e-07
7.63663e-05
5.98032e-08
7.64404e-05
-6.47624e-08
7.65297e-05
-2.06517e-07
7.6645e-05
-3.54879e-07
7.67877e-05
-4.96952e-07
8.11447e-05
-6.08181e-07
7.08727e-05
-7.04222e-07
6.19321e-05
-7.80267e-07
5.41357e-05
-8.32443e-07
4.72979e-05
-8.58718e-07
4.13339e-05
-8.57938e-07
3.6114e-05
-8.3e-07
3.1502e-05
-7.76055e-07
2.73767e-05
-6.97513e-07
2.37024e-05
-5.94907e-07
2.03633e-05
-4.68995e-07
1.73712e-05
-3.22614e-07
1.46836e-05
-1.62467e-07
1.2127e-05
7.20517e-08
5.62256e-05
1.83094e-07
6.25716e-05
2.05523e-07
6.96414e-05
1.82019e-07
7.6295e-05
1.1838e-07
7.63466e-05
1.39727e-08
7.64122e-05
-1.22989e-07
7.64986e-05
-2.82234e-07
7.66054e-05
-4.53813e-07
7.67439e-05
-6.25431e-07
7.69161e-05
-7.82223e-07
8.13187e-05
-8.95281e-07
7.10638e-05
-9.856e-07
6.21375e-05
-1.04882e-06
5.43521e-05
-1.08249e-06
4.75216e-05
-1.08548e-06
4.15615e-05
-1.05768e-06
3.63417e-05
-1.00043e-06
3.17264e-05
-9.1584e-07
2.7595e-05
-8.06521e-07
2.3914e-05
-6.74125e-07
2.05685e-05
-5.21148e-07
1.75697e-05
-3.51636e-07
1.48728e-05
-1.73616e-07
1.23006e-05
6.60538e-08
5.0538e-05
1.68702e-07
5.624e-05
1.85725e-07
6.25914e-05
1.5673e-07
6.96667e-05
8.52818e-08
7.63281e-05
-2.65054e-08
7.6387e-05
-1.7473e-07
7.64639e-05
-3.50379e-07
7.65668e-05
-5.443e-07
7.66959e-05
-7.44925e-07
7.68634e-05
-9.37963e-07
7.70719e-05
-1.10584e-06
8.15293e-05
-1.21549e-06
7.12937e-05
-1.29383e-06
6.23825e-05
-1.33821e-06
5.46078e-05
-1.34727e-06
4.77834e-05
-1.32117e-06
4.1825e-05
-1.26159e-06
3.66029e-05
-1.17105e-06
3.19816e-05
-1.05302e-06
2.78415e-05
-9.11129e-07
2.4151e-05
-7.48409e-07
2.07957e-05
-5.68374e-07
1.77865e-05
-3.76782e-07
1.5076e-05
-1.80487e-07
1.24811e-05
6.12514e-08
4.54248e-05
1.56998e-07
5.05497e-05
1.69502e-07
5.62562e-05
1.36509e-07
6.26116e-05
5.89829e-08
6.9693e-05
-6.14392e-08
7.6363e-05
-2.19592e-07
7.64319e-05
-4.10218e-07
7.65237e-05
-6.25134e-07
7.66476e-05
-8.53672e-07
7.68047e-05
-1.08226e-06
7.70077e-05
-1.29363e-06
7.72597e-05
-1.46806e-06
8.17819e-05
-1.56738e-06
7.15672e-05
-1.62698e-06
6.26712e-05
-1.64553e-06
5.49061e-05
-1.62322e-06
4.80855e-05
-1.56244e-06
4.21258e-05
-1.46632e-06
3.68982e-05
-1.33898e-06
3.22676e-05
-1.18504e-06
2.81154e-05
-1.00948e-06
2.44121e-05
-8.15975e-07
2.10433e-05
-6.09749e-07
1.80194e-05
-3.93791e-07
1.52893e-05
-1.50268e-07
1.26314e-05
5.73588e-08
4.08299e-05
1.47405e-07
4.54344e-05
1.56163e-07
5.0563e-05
1.20325e-07
5.62724e-05
3.85426e-08
6.26321e-05
-8.84101e-08
6.97199e-05
-2.57318e-07
7.64007e-05
-4.61227e-07
7.64829e-05
-6.95387e-07
7.6594e-05
-9.50233e-07
7.67441e-05
-1.2131e-06
7.69355e-05
-1.46718e-06
7.71813e-05
-1.69286e-06
7.74845e-05
-1.86736e-06
8.20818e-05
-1.94884e-06
7.18891e-05
-1.98175e-06
6.30075e-05
-1.96666e-06
5.52495e-05
-1.90644e-06
4.84295e-05
-1.80528e-06
4.24648e-05
-1.6683e-06
3.72275e-05
-1.50099e-06
3.25835e-05
-1.30949e-06
2.84154e-05
-1.09932e-06
2.46954e-05
-8.75366e-07
2.13089e-05
-6.39803e-07
1.82655e-05
-3.89441e-07
1.55284e-05
-1.02454e-07
1.27338e-05
5.41693e-08
3.66992e-05
1.39483e-07
4.08378e-05
1.4515e-07
4.54454e-05
1.07362e-07
5.0576e-05
2.27365e-08
5.62882e-05
-1.08603e-07
6.26523e-05
-2.85409e-07
6.9748e-05
-5.03038e-07
7.64426e-05
-7.54375e-07
7.65419e-05
-1.03346e-06
7.66772e-05
-1.32876e-06
7.68598e-05
-1.62416e-06
7.70925e-05
-1.90032e-06
7.73887e-05
-2.13407e-06
7.77512e-05
-2.3015e-06
8.24345e-05
-2.3562e-06
7.22635e-05
-2.35345e-06
6.33943e-05
-2.29707e-06
5.56402e-05
-2.19215e-06
4.88163e-05
-2.04542e-06
4.28419e-05
-1.86364e-06
3.75901e-05
-1.65414e-06
3.29282e-05
-1.42363e-06
2.87397e-05
-1.17861e-06
2.49987e-05
-9.21461e-07
2.15906e-05
-6.5301e-07
1.8529e-05
-3.6582e-07
1.57918e-05
-7.96314e-08
1.28134e-05
5.15288e-08
3.29886e-05
1.32903e-07
3.67058e-05
1.36023e-07
4.08469e-05
9.6974e-08
4.54558e-05
1.05817e-08
5.05882e-05
-1.23482e-07
5.63031e-05
-3.05424e-07
6.26723e-05
-5.32984e-07
6.9778e-05
-8.01601e-07
7.64898e-05
-1.10249e-06
7.66109e-05
-1.42786e-06
7.67763e-05
-1.76255e-06
7.69982e-05
-2.08774e-06
7.72799e-05
-2.3801e-06
7.76347e-05
-2.61505e-06
7.80647e-05
-2.7665e-06
8.28448e-05
-2.78416e-06
7.26942e-05
-2.73683e-06
6.3834e-05
-2.63118e-06
5.60792e-05
-2.47537e-06
4.92463e-05
-2.27826e-06
4.32565e-05
-2.04883e-06
3.79848e-05
-1.79517e-06
3.32997e-05
-1.52495e-06
2.9086e-05
-1.24302e-06
2.53202e-05
-9.50838e-07
2.18884e-05
-6.53466e-07
1.88167e-05
-3.43552e-07
1.60557e-05
-7.57864e-08
1.28892e-05
4.93223e-08
2.96502e-05
1.27406e-07
3.29941e-05
1.28437e-07
3.67134e-05
8.86467e-08
4.08553e-05
1.29237e-09
4.54651e-05
-1.34233e-07
5.05989e-05
-3.19183e-07
5.63168e-05
-5.53107e-07
6.26924e-05
-8.3417e-07
6.98105e-05
-1.15665e-06
7.65439e-05
-1.50928e-06
7.66923e-05
-1.88066e-06
7.68944e-05
-2.25276e-06
7.71632e-05
-2.60237e-06
7.75022e-05
-2.90443e-06
7.79241e-05
-3.13155e-06
7.84298e-05
-3.25634e-06
8.3317e-05
-3.22673e-06
7.31841e-05
-3.12551e-06
6.43283e-05
-2.96327e-06
5.65671e-05
-2.75077e-06
4.97188e-05
-2.49967e-06
4.37074e-05
-2.22006e-06
3.84097e-05
-1.92114e-06
3.36959e-05
-1.60971e-06
2.94527e-05
-1.28986e-06
2.56593e-05
-9.68062e-07
2.2203e-05
-6.48726e-07
1.91218e-05
-3.32822e-07
1.63127e-05
-8.15676e-08
1.29708e-05
4.74631e-08
2.66499e-05
1.22792e-07
2.96548e-05
1.22116e-07
3.30005e-05
8.19563e-08
3.672e-05
-5.75987e-09
4.08623e-05
-1.41803e-07
4.54727e-05
-3.28149e-07
5.06079e-05
-5.6569e-07
5.63294e-05
-8.54713e-07
6.2713e-05
-1.19275e-06
6.98466e-05
-1.57218e-06
7.66069e-05
-1.97711e-06
7.67888e-05
-2.39333e-06
7.7035e-05
-2.7981e-06
7.7359e-05
-3.1661e-06
7.77639e-05
-3.46889e-06
7.82615e-05
-3.67706e-06
7.88505e-05
-3.76452e-06
8.38548e-05
-3.6768e-06
7.37354e-05
-3.51304e-06
6.48781e-05
-3.28716e-06
5.71035e-05
-3.01347e-06
5.02326e-05
-2.70524e-06
4.41925e-05
-2.37395e-06
3.88625e-05
-2.02868e-06
3.41149e-05
-1.67568e-06
2.98386e-05
-1.32281e-06
2.6014e-05
-9.78689e-07
2.2533e-05
-6.46316e-07
1.94353e-05
-3.32211e-07
1.65634e-05
-1.10507e-07
1.30813e-05
4.58847e-08
2.39556e-05
1.18897e-07
2.66538e-05
1.16837e-07
2.96601e-05
7.65618e-08
3.30059e-05
-1.10734e-08
3.67254e-05
-1.46944e-07
4.08675e-05
-3.33487e-07
4.5478e-05
-5.72566e-07
5.06148e-05
-8.66087e-07
5.63408e-05
-1.21412e-06
6.27343e-05
-1.61294e-06
6.98874e-05
-2.05084e-06
7.66806e-05
-2.50776e-06
7.69032e-05
-2.96482e-06
7.72017e-05
-3.39682e-06
7.75897e-05
-3.77448e-06
7.80694e-05
-4.06666e-06
7.86511e-05
-4.24469e-06
7.93307e-05
-4.28312e-06
8.44611e-05
-4.12704e-06
7.43494e-05
-3.89223e-06
6.54832e-05
-3.59717e-06
5.76872e-05
-3.2584e-06
5.07858e-05
-2.89111e-06
4.47097e-05
-2.50731e-06
3.93412e-05
-2.11582e-06
3.4555e-05
-1.72553e-06
3.02413e-05
-1.34692e-06
2.63823e-05
-9.87813e-07
2.28745e-05
-6.47657e-07
1.97508e-05
-4.13695e-07
1.68666e-05
-1.19696e-07
1.3201e-05
4.4536e-08
2.15333e-05
1.15593e-07
2.39589e-05
1.12412e-07
2.66582e-05
7.21993e-08
2.96645e-05
-1.50426e-08
3.30098e-05
-1.50246e-07
3.67287e-05
-3.36114e-07
4.08701e-05
-5.75191e-07
4.54806e-05
-8.70589e-07
5.06193e-05
-1.22431e-06
5.6351e-05
-1.63571e-06
6.27571e-05
-2.09761e-06
6.99342e-05
-2.59469e-06
7.67675e-05
-3.10048e-06
7.70389e-05
-3.59368e-06
7.73986e-05
-4.04457e-06
7.78598e-05
-4.42053e-06
7.84233e-05
-4.69053e-06
7.90969e-05
-4.82591e-06
7.98735e-05
-4.80387e-06
8.51379e-05
-4.56919e-06
7.50264e-05
-4.25652e-06
6.61425e-05
-3.88746e-06
5.83162e-05
-3.48118e-06
5.13758e-05
-3.05405e-06
4.52564e-05
-2.61822e-06
3.98436e-05
-2.18435e-06
3.50138e-05
-1.76358e-06
3.06579e-05
-1.36621e-06
2.67606e-05
-9.95887e-07
2.32227e-05
-8.02599e-07
2.01397e-05
-4.15755e-07
1.71626e-05
-1.2973e-07
1.33307e-05
4.33772e-08
1.93532e-05
1.12777e-07
2.15362e-05
1.08689e-07
2.39626e-05
6.8662e-08
2.66617e-05
-1.7975e-08
2.96674e-05
-1.5217e-07
3.30117e-05
-3.36745e-07
3.67293e-05
-5.74708e-07
4.08696e-05
-8.70037e-07
4.54801e-05
-1.22619e-06
5.06211e-05
-1.64488e-06
5.63602e-05
-2.12257e-06
6.27821e-05
-2.64916e-06
6.99886e-05
-3.20336e-06
7.68704e-05
-3.75416e-06
7.71994e-05
-4.27571e-06
7.76297e-05
-4.73435e-06
7.81736e-05
-5.09688e-06
7.88297e-05
-5.33151e-06
7.96025e-05
-5.41165e-06
8.04812e-05
-5.3174e-06
8.58861e-05
-4.99576e-06
7.57656e-05
-4.59921e-06
6.68543e-05
-4.15304e-06
5.89881e-05
-3.6783e-06
5.20001e-05
-3.19202e-06
4.58302e-05
-2.70768e-06
4.03669e-05
-2.23767e-06
3.54879e-05
-1.79297e-06
3.10847e-05
-1.38095e-06
2.71457e-05
-1.23727e-06
2.36574e-05
-7.98486e-07
2.05224e-05
-4.17691e-07
1.74506e-05
-1.37663e-07
1.34684e-05
1.7397e-05
4.2378e-08
1.10365e-07
1.93556e-05
1.05543e-07
2.15393e-05
6.57858e-08
2.39655e-05
-2.01103e-08
2.66639e-05
-1.5307e-07
2.96683e-05
-3.35935e-07
3.30109e-05
-5.72003e-07
3.67266e-05
-8.65859e-07
4.08654e-05
-1.22202e-06
4.54759e-05
-1.64398e-06
5.06202e-05
-2.13103e-06
5.63686e-05
-2.67734e-06
6.28102e-05
-3.26753e-06
7.00528e-05
-3.87614e-06
7.69924e-05
-4.4649e-06
7.73886e-05
-5.0041e-06
7.78995e-05
-5.4588e-06
7.85355e-05
-5.79418e-06
7.92923e-05
-5.97989e-06
8.01707e-05
-5.99163e-06
8.11555e-05
-5.81525e-06
8.67056e-05
-5.39905e-06
7.65655e-05
-4.91455e-06
6.76158e-05
-4.38993e-06
5.96997e-05
-3.84741e-06
5.26555e-05
-3.30521e-06
4.64278e-05
-2.7781e-06
4.09073e-05
-2.27814e-06
3.59731e-05
-1.81405e-06
3.15178e-05
-1.71827e-06
2.76267e-05
-1.23024e-06
2.40891e-05
-7.91134e-07
2.08959e-05
-4.17258e-07
1.77302e-05
-1.42798e-07
1.36112e-05
1.73991e-05
1.08286e-07
2.78118e-05
4.05687e-08
1.02874e-07
1.93582e-05
6.34413e-08
2.15417e-05
-2.16347e-08
2.3967e-05
-1.53221e-07
2.6664e-05
-3.34109e-07
2.96665e-05
-5.67761e-07
3.30067e-05
-8.59161e-07
3.67199e-05
-1.21357e-06
4.0857e-05
-1.63579e-06
4.54677e-05
-2.12732e-06
5.06165e-05
-2.68565e-06
5.63769e-05
-3.30029e-06
6.2843e-05
-3.95241e-06
7.01291e-05
-4.60951e-06
7.7137e-05
-5.22615e-06
7.76106e-05
-5.7716e-06
7.82123e-05
-6.20833e-06
7.89497e-05
-6.50226e-06
7.98147e-05
-6.62463e-06
8.08037e-05
-6.55654e-06
8.18968e-05
-6.28857e-06
8.75951e-05
-5.7724e-06
7.74233e-05
-5.19791e-06
6.84238e-05
-4.59523e-06
6.04475e-05
-3.98792e-06
5.33382e-05
-3.39519e-06
4.70449e-05
-2.83124e-06
4.14604e-05
-2.30622e-06
3.64653e-05
-2.25811e-06
3.20576e-05
-1.70949e-06
2.8106e-05
-1.21527e-06
2.45133e-05
-7.79439e-07
2.1258e-05
-4.13387e-07
1.80008e-05
-1.45318e-07
1.37565e-05
1.74013e-05
1.00605e-07
2.78156e-05
1.04498e-07
2.85517e-05
3.88389e-08
6.15252e-08
1.93602e-05
-2.26923e-08
2.15427e-05
-1.52834e-07
2.39666e-05
-3.31595e-07
2.66615e-05
-5.62506e-07
2.96612e-05
-8.5079e-07
3.29983e-05
-1.20221e-06
3.67085e-05
-1.62252e-06
4.08437e-05
-2.11485e-06
4.54552e-05
-2.6793e-06
5.06102e-05
-3.30928e-06
5.63859e-05
-3.9915e-06
6.28821e-05
-4.70073e-06
7.02203e-05
-5.39732e-06
7.73081e-05
-6.03098e-06
7.787e-05
-6.56857e-06
7.85725e-05
-6.9725e-06
7.94199e-05
-7.20946e-06
8.03996e-05
-7.25562e-06
8.15028e-05
-7.0965e-06
8.27047e-05
-6.72965e-06
8.85524e-05
-6.11034e-06
7.83357e-05
-5.44567e-06
6.92742e-05
-4.76762e-06
6.12272e-05
-4.1006e-06
5.40436e-05
-3.46309e-06
4.76767e-05
-2.86758e-06
4.20218e-05
-2.87124e-06
3.70784e-05
-2.24695e-06
3.25951e-05
-1.68774e-06
2.85784e-05
-1.1926e-06
2.49264e-05
-7.62817e-07
2.16075e-05
-4.06134e-07
1.82616e-05
-1.45491e-07
1.3902e-05
1.74029e-05
5.99537e-08
2.78191e-05
9.712e-08
2.85554e-05
1.00821e-07
2.93116e-05
3.71922e-08
-2.33948e-08
1.93609e-05
-1.5207e-07
2.15419e-05
-3.2864e-07
2.39637e-05
-5.56633e-07
2.66556e-05
-8.41394e-07
2.96518e-05
-1.189e-06
3.29851e-05
-1.60586e-06
3.66919e-05
-2.0963e-06
4.08252e-05
-2.66242e-06
4.54384e-05
-3.30071e-06
5.06016e-05
-4.00238e-06
5.63968e-05
-4.74833e-06
6.29297e-05
-5.5068e-06
7.03298e-05
-6.23307e-06
7.75102e-05
-6.86987e-06
7.81713e-05
-7.38448e-06
7.89845e-05
-7.73921e-06
7.99496e-05
-7.90503e-06
8.1049e-05
-7.86205e-06
8.22684e-05
-7.60278e-06
8.35778e-05
-7.13193e-06
8.9574e-05
-6.40831e-06
7.92984e-05
-5.65567e-06
7.01623e-05
-4.90707e-06
6.20337e-05
-4.18603e-06
5.47665e-05
-3.50944e-06
4.83186e-05
-3.57097e-06
4.27215e-05
-2.85718e-06
3.76886e-05
-2.21778e-06
3.31251e-05
-1.65436e-06
2.90402e-05
-1.16258e-06
2.53262e-05
-7.41622e-07
2.1943e-05
-3.95825e-07
1.85119e-05
-1.43714e-07
1.40457e-05
1.74034e-05
-2.38299e-08
2.78206e-05
5.84755e-08
2.85587e-05
9.38687e-08
2.93152e-05
9.72662e-08
3.00896e-05
3.5629e-08
-1.51052e-07
1.93598e-05
-3.2543e-07
2.15387e-05
-5.50438e-07
2.39575e-05
-8.31456e-07
2.66457e-05
-1.17473e-06
2.96375e-05
-1.58709e-06
3.29663e-05
-2.07373e-06
3.66693e-05
-2.63824e-06
4.0801e-05
-3.27951e-06
4.54172e-05
-3.99233e-06
5.05915e-05
-4.7627e-06
5.64112e-05
-5.56558e-06
6.29885e-05
-6.36462e-06
7.04613e-05
-7.10755e-06
7.77479e-05
-7.73236e-06
7.85192e-05
-8.20695e-06
7.94522e-05
-8.49716e-06
8.05418e-05
-8.57727e-06
8.17642e-05
-8.43419e-06
8.30998e-05
-8.06777e-06
8.45137e-05
-7.48976e-06
9.06554e-05
-6.66326e-06
8.0306e-05
-5.82715e-06
7.10824e-05
-5.01363e-06
6.28613e-05
-4.24469e-06
5.55018e-05
-4.37191e-06
4.91195e-05
-3.554e-06
4.34183e-05
-2.8197e-06
3.82905e-05
-2.17286e-06
3.36436e-05
-1.6106e-06
2.94882e-05
-1.12619e-06
2.57108e-05
-7.16526e-07
2.22637e-05
-3.82994e-07
1.87512e-05
-1.40401e-07
1.41861e-05
1.74022e-05
-1.49873e-07
2.78185e-05
-2.17803e-08
2.85599e-05
5.72483e-08
2.93182e-05
9.0832e-08
3.0093e-05
9.38296e-08
3.08895e-05
3.41494e-08
-3.22104e-07
1.93565e-05
-5.44141e-07
2.15324e-05
-8.21334e-07
2.39473e-05
-1.15999e-06
2.66309e-05
-1.5672e-06
2.96177e-05
-2.04874e-06
3.29413e-05
-2.60929e-06
3.66404e-05
-3.24958e-06
4.0771e-05
-3.96721e-06
4.5392e-05
-4.75233e-06
5.05812e-05
-5.58554e-06
5.64311e-05
-6.43778e-06
6.30616e-05
-7.26542e-06
7.06192e-05
-8.0106e-06
7.80262e-05
-8.60601e-06
7.89182e-05
-9.02437e-06
7.99794e-05
-9.23399e-06
8.11985e-05
-9.21557e-06
8.25456e-05
-8.96343e-06
8.39954e-05
-8.48478e-06
8.55087e-05
-7.79905e-06
9.17912e-05
-6.87361e-06
8.13524e-05
-5.95962e-06
7.20284e-05
-5.08772e-06
6.37043e-05
-5.29071e-06
5.64206e-05
-4.35249e-06
4.9918e-05
-3.50757e-06
4.41062e-05
-2.76196e-06
3.88796e-05
-2.11426e-06
3.41473e-05
-1.55817e-06
2.99202e-05
-1.08465e-06
2.60789e-05
-6.88371e-07
2.2569e-05
-3.68218e-07
1.8979e-05
-1.35931e-07
1.4322e-05
1.73988e-05
-3.18762e-07
2.78114e-05
-1.42743e-07
2.85575e-05
-1.93639e-08
2.93192e-05
5.6287e-08
3.00958e-05
8.80223e-08
3.08928e-05
9.05177e-08
3.17094e-05
3.27494e-08
-5.379e-07
1.93503e-05
-8.11287e-07
2.15224e-05
-1.14522e-06
2.39326e-05
-1.54691e-06
2.66106e-05
-2.02251e-06
2.95914e-05
-2.57748e-06
3.29095e-05
-3.21392e-06
3.66047e-05
-3.93163e-06
4.07355e-05
-4.72404e-06
4.53638e-05
-5.57645e-06
5.05721e-05
-6.46597e-06
5.64593e-05
-7.35668e-06
6.31529e-05
-8.19946e-06
7.0808e-05
-8.92991e-06
7.83501e-05
-9.47907e-06
7.93729e-05
-9.8238e-06
8.05693e-05
-9.93826e-06
8.19212e-05
-9.81041e-06
8.33925e-05
-9.44207e-06
8.49527e-05
-8.84873e-06
8.65584e-05
-8.05732e-06
9.29749e-05
-7.03825e-06
8.2431e-05
-6.05324e-06
7.29939e-05
-6.34612e-06
6.47597e-05
-5.26991e-06
5.7338e-05
-4.29674e-06
5.07072e-05
-3.43574e-06
4.478e-05
-2.6869e-06
3.94523e-05
-2.04444e-06
3.46336e-05
-1.49893e-06
3.03345e-05
-1.03924e-06
2.64298e-05
-6.57994e-07
2.28588e-05
-3.52061e-07
1.91952e-05
-1.30635e-07
1.44527e-05
1.73928e-05
-5.31827e-07
2.77974e-05
-3.04776e-07
2.85498e-05
-1.3511e-07
2.93164e-05
-1.65836e-08
3.00965e-05
5.55864e-08
3.08954e-05
8.54352e-08
3.17126e-05
8.73334e-08
3.25533e-05
3.14356e-08
-8.01501e-07
1.93405e-05
-1.13073e-06
2.15079e-05
-1.52674e-06
2.39124e-05
-1.99592e-06
2.65841e-05
-2.54426e-06
2.95582e-05
-3.17484e-06
3.28705e-05
-3.88916e-06
3.65622e-05
-4.68325e-06
4.06947e-05
-5.54619e-06
4.53335e-05
-6.46029e-06
5.05664e-05
-7.3963e-06
5.6499e-05
-8.31306e-06
6.32665e-05
-9.15475e-06
7.10329e-05
-9.85379e-06
7.87248e-05
-1.03382e-05
7.98874e-05
-1.05932e-05
8.12242e-05
-1.05996e-05
8.27104e-05
-1.0353e-05
8.43035e-05
-9.86404e-06
8.5968e-05
-9.15638e-06
8.76574e-05
-8.2628e-06
9.41995e-05
-7.15704e-06
8.35349e-05
-7.5576e-06
7.42054e-05
-6.32574e-06
6.58156e-05
-5.2048e-06
5.82461e-05
-4.20966e-06
5.14811e-05
-3.34242e-06
4.54355e-05
-2.59776e-06
4.00056e-05
-1.96589e-06
3.51005e-05
-1.43471e-06
3.07299e-05
-9.91166e-07
2.67629e-05
-6.26185e-07
2.31329e-05
-3.3503e-07
1.93996e-05
-1.24772e-07
1.45775e-05
1.73834e-05
-7.92104e-07
2.77746e-05
-5.08997e-07
2.85352e-05
-2.90093e-07
2.93083e-05
-1.26945e-07
3.00934e-05
-1.343e-08
3.08958e-05
5.51437e-08
3.17149e-05
8.30712e-08
3.25564e-05
8.42623e-08
3.34192e-05
3.02e-08
-1.11673e-06
1.93265e-05
-1.50708e-06
2.14882e-05
-1.96963e-06
2.38861e-05
-2.5107e-06
2.65505e-05
-3.13409e-06
2.95175e-05
-3.84257e-06
3.28239e-05
-4.63417e-06
3.65132e-05
-5.50103e-06
4.06495e-05
-6.42974e-06
4.53029e-05
-7.39671e-06
5.05668e-05
-8.36785e-06
5.65537e-05
-9.29536e-06
6.34071e-05
-1.01199e-05
7.1299e-05
-1.07688e-05
7.91553e-05
-1.11709e-05
8.04651e-05
-1.13213e-05
8.19458e-05
-1.12082e-05
8.35656e-05
-1.08364e-05
8.52758e-05
-1.02252e-05
8.70369e-05
-9.40525e-06
8.87999e-05
-8.41496e-06
9.54574e-05
-8.94682e-06
8.49241e-05
-7.54066e-06
7.54203e-05
-6.25174e-06
6.68625e-05
-5.10146e-06
5.91379e-05
-4.09619e-06
5.22349e-05
-3.23169e-06
4.60694e-05
-2.49773e-06
4.05374e-05
-1.88107e-06
3.55469e-05
-1.36719e-06
3.1106e-05
-9.41516e-07
2.70783e-05
-5.93656e-07
2.33916e-05
-3.17517e-07
1.95923e-05
-1.1857e-07
1.4696e-05
1.737e-05
-1.10338e-06
2.77406e-05
-7.58113e-07
2.85114e-05
-4.85288e-07
2.92929e-05
-2.74761e-07
3.00847e-05
-1.18303e-07
3.08923e-05
-9.91965e-09
3.17151e-05
5.49543e-08
3.25585e-05
8.09258e-08
3.34222e-05
8.13116e-08
3.43052e-05
2.90402e-08
-1.48819e-06
1.93076e-05
-1.94407e-06
2.14627e-05
-2.47757e-06
2.3853e-05
-3.09296e-06
2.65094e-05
-3.79392e-06
2.94688e-05
-4.58006e-06
3.27698e-05
-5.44591e-06
3.6458e-05
-6.38152e-06
4.06013e-05
-7.3681e-06
4.52743e-05
-8.37763e-06
5.05766e-05
-9.36959e-06
5.6628e-05
-1.02925e-05
6.35797e-05
-1.10813e-05
7.16115e-05
-1.16619e-05
7.96463e-05
-1.19653e-05
8.11091e-05
-1.19975e-05
8.27351e-05
-1.17562e-05
8.44854e-05
-1.12554e-05
8.6306e-05
-1.05223e-05
8.8154e-05
-9.59422e-06
8.99791e-05
-1.0537e-05
9.70476e-05
-8.93866e-06
8.63221e-05
-7.45931e-06
7.66278e-05
-6.13139e-06
6.78924e-05
-4.96587e-06
6.00075e-05
-3.96137e-06
5.29645e-05
-3.10754e-06
4.66792e-05
-2.38988e-06
4.10462e-05
-1.7921e-06
3.59718e-05
-1.2978e-06
3.14622e-05
-8.91263e-07
2.73759e-05
-5.60928e-07
2.3635e-05
-2.99881e-07
1.97736e-05
-1.12211e-07
1.48082e-05
1.73521e-05
-1.47022e-06
2.7693e-05
-1.05584e-06
2.84764e-05
-7.23024e-07
2.92683e-05
-4.6067e-07
3.00687e-05
-2.58734e-07
3.08832e-05
-1.09159e-07
3.17113e-05
-6.05196e-09
3.25585e-05
5.50257e-08
3.34241e-05
7.90048e-08
3.4308e-05
7.84675e-08
3.52191e-05
2.7956e-08
-1.91958e-06
1.92831e-05
-2.44542e-06
2.14305e-05
-3.05239e-06
2.38124e-05
-3.74478e-06
2.64602e-05
-4.52338e-06
2.94121e-05
-5.38462e-06
3.27085e-05
-6.32133e-06
3.63978e-05
-7.31866e-06
4.05519e-05
-8.35376e-06
4.52505e-05
-9.39257e-06
5.05996e-05
-1.03909e-05
5.67264e-05
-1.12913e-05
6.37897e-05
-1.20263e-05
7.19759e-05
-1.2521e-05
8.0202e-05
-1.27099e-05
8.18216e-05
-1.26129e-05
8.35918e-05
-1.22375e-05
8.54674e-05
-1.1606e-05
8.73897e-05
-1.07536e-05
8.93134e-05
-1.20357e-05
9.14778e-05
-1.05467e-05
9.86557e-05
-8.85376e-06
8.77165e-05
-7.32217e-06
7.78186e-05
-5.97189e-06
6.88985e-05
-4.80422e-06
6.08504e-05
-3.81008e-06
5.36671e-05
-2.97375e-06
4.72631e-05
-2.27691e-06
4.1531e-05
-1.70088e-06
3.63749e-05
-1.22786e-06
3.17988e-05
-8.411e-07
2.7656e-05
-5.28499e-07
2.38636e-05
-2.82407e-07
1.99438e-05
-1.05823e-07
1.49141e-05
1.73288e-05
-1.89633e-06
2.76289e-05
-1.40612e-06
2.84275e-05
-1.00694e-06
2.92322e-05
-6.8691e-07
3.00432e-05
-4.3521e-07
3.08665e-05
-2.42071e-07
3.17017e-05
-9.95489e-08
3.25543e-05
-1.84683e-09
3.34238e-05
5.5346e-08
3.43097e-05
7.73018e-08
3.52218e-05
7.57117e-08
3.6155e-05
2.69418e-08
-2.41465e-06
1.92523e-05
-3.01303e-06
2.13912e-05
-3.69627e-06
2.37639e-05
-4.46599e-06
2.64028e-05
-5.32007e-06
2.93476e-05
-6.25358e-06
3.26407e-05
-7.25487e-06
3.63341e-05
-8.30545e-06
4.05035e-05
-9.37683e-06
4.52347e-05
-1.04315e-05
5.06401e-05
-1.1419e-05
5.68541e-05
-1.2279e-05
6.40425e-05
-1.2942e-05
7.23968e-05
-1.33339e-05
8.0826e-05
-1.3395e-05
8.26037e-05
-1.31606e-05
8.45149e-05
-1.2647e-05
8.65084e-05
-1.18857e-05
8.85218e-05
-1.35183e-05
9.0796e-05
-1.20709e-05
9.3002e-05
-1.04649e-05
0.000100267
-8.70189e-06
8.90962e-05
-7.13784e-06
7.89846e-05
-5.78073e-06
6.9875e-05
-4.62244e-06
6.16628e-05
-3.64694e-06
5.43403e-05
-2.83362e-06
4.78198e-05
-2.16116e-06
4.19913e-05
-1.60908e-06
3.67561e-05
-1.15826e-06
3.2116e-05
-7.91706e-07
2.79192e-05
-4.96753e-07
2.40779e-05
-2.65289e-07
2.01033e-05
-9.9513e-08
1.50136e-05
1.72996e-05
-2.38547e-06
2.75451e-05
-1.81248e-06
2.83616e-05
-1.34023e-06
2.91818e-05
-9.56511e-07
3.00059e-05
-6.49604e-07
3.08402e-05
-4.08908e-07
3.16844e-05
-2.24809e-07
3.25442e-05
-8.94989e-08
3.34193e-05
2.67888e-09
3.43091e-05
5.59084e-08
3.52233e-05
7.58225e-08
3.61577e-05
7.30281e-08
3.65889e-05
2.60063e-08
-2.97536e-06
1.92146e-05
-3.64918e-06
2.13441e-05
-4.40922e-06
2.37071e-05
-5.25444e-06
2.63372e-05
-6.18166e-06
2.92757e-05
-7.18182e-06
3.25677e-05
-8.24006e-06
3.62687e-05
-9.33261e-06
4.04593e-05
-1.04278e-05
4.5231e-05
-1.14819e-05
5.0703e-05
-1.24412e-05
5.70164e-05
-1.32427e-05
6.43432e-05
-1.38161e-05
7.2879e-05
-1.40901e-05
8.15211e-05
-1.40128e-05
8.3456e-05
-1.36345e-05
8.55025e-05
-1.29816e-05
8.76043e-05
-1.49765e-05
8.998e-05
-1.3589e-05
9.23141e-05
-1.20009e-05
9.4538e-05
-1.03029e-05
0.000101868
-8.49292e-06
9.04513e-05
-6.91514e-06
8.0119e-05
-5.56507e-06
7.08176e-05
-4.42611e-06
6.24419e-05
-3.47594e-06
5.49826e-05
-2.69004e-06
4.83487e-05
-2.04472e-06
4.2427e-05
-1.51784e-06
3.71157e-05
-1.08991e-06
3.24142e-05
-7.43579e-07
2.81661e-05
-4.65933e-07
2.42786e-05
-2.48687e-07
2.02524e-05
-9.33618e-08
1.51069e-05
1.72639e-05
-2.93965e-06
2.74381e-05
-2.27845e-06
2.82759e-05
-1.72686e-06
2.91144e-05
-1.27284e-06
2.99543e-05
-9.04852e-07
3.0802e-05
-6.11367e-07
3.16573e-05
-3.81822e-07
3.25263e-05
-2.06937e-07
3.34088e-05
-7.90436e-08
3.43043e-05
7.51322e-09
3.52225e-05
5.6691e-08
3.6159e-05
7.4561e-08
3.65915e-05
7.04602e-08
3.55528e-05
2.51688e-08
-3.60408e-06
1.91695e-05
-4.35404e-06
2.12889e-05
-5.18934e-06
2.3642e-05
-6.10813e-06
2.62637e-05
-7.10345e-06
2.91973e-05
-8.16338e-06
3.2491e-05
-9.26816e-06
3.62042e-05
-1.03911e-05
4.04227e-05
-1.14947e-05
4.52438e-05
-1.25316e-05
5.07933e-05
-1.3445e-05
5.72186e-05
-1.41699e-05
6.46969e-05
-1.46374e-05
7.34262e-05
-1.4781e-05
8.22893e-05
-1.45564e-05
8.43779e-05
-1.40308e-05
8.65516e-05
-1.64004e-05
8.90281e-05
-1.50943e-05
9.14853e-05
-1.35409e-05
9.38542e-05
-1.18377e-05
9.60728e-05
-1.00719e-05
0.000103447
-8.23722e-06
9.17734e-05
-6.66243e-06
8.12163e-05
-5.3316e-06
7.17231e-05
-4.22009e-06
6.31861e-05
-3.30064e-06
5.55932e-05
-2.54559e-06
4.88496e-05
-1.92903e-06
4.28382e-05
-1.4283e-06
3.74541e-05
-1.02344e-06
3.26941e-05
-6.97032e-07
2.83972e-05
-4.36251e-07
2.44661e-05
-2.32728e-07
2.03918e-05
-8.7426e-08
1.51944e-05
1.72212e-05
-3.56131e-06
2.7305e-05
-2.80661e-06
2.8167e-05
-2.16945e-06
2.90266e-05
-1.63911e-06
2.98853e-05
-1.20388e-06
3.0749e-05
-8.51925e-07
3.16181e-05
-5.72148e-07
3.24986e-05
-3.54062e-07
3.33904e-05
-1.88557e-07
3.42935e-05
-6.82162e-08
3.52174e-05
1.26341e-08
3.6158e-05
5.76896e-08
3.65926e-05
7.35105e-08
3.55552e-05
6.81229e-08
3.45448e-05
2.44132e-08
-4.30111e-06
1.91166e-05
-5.1259e-06
2.12255e-05
-6.03488e-06
2.35688e-05
-7.02272e-06
2.6183e-05
-8.07991e-06