/*--------------------------------*- C++ -*----------------------------------*\
  =========                 |
  \\      /  F ield         | OpenFOAM: The Open Source CFD Toolbox
   \\    /   O peration     | Website:  https://openfoam.org
    \\  /    A nd           | Version:  8
     \\/     M anipulation  |
\*---------------------------------------------------------------------------*/
FoamFile
{
    version     2.0;
    format      ascii;
    class       volScalarField;
    location    "0.25";
    object      T;
}
// * * * * * * * * * * * * * * * * * * * * * * * * * * * * * * * * * * * * * //

dimensions      [0 0 0 1 0 0 0];

internalField   nonuniform List<scalar> 
15677
(
296.461
296.472
296.536
296.627
296.746
296.896
297.076
297.281
297.502
297.729
297.951
298.163
298.366
298.556
298.702
298.79
298.835
298.841
298.817
298.77
298.712
298.658
298.624
298.621
298.636
298.672
298.715
298.756
298.793
298.823
298.846
298.862
298.871
298.875
298.876
296.752
296.765
296.761
296.789
296.851
296.941
297.051
297.177
297.321
297.493
297.732
298.119
298.721
299.408
299.812
299.99
300.054
300.049
299.966
299.837
299.67
299.479
299.297
299.144
299.026
298.937
298.872
298.823
298.788
298.764
298.75
298.745
298.747
298.751
298.757
300.26
300.202
300.179
300.166
300.152
300.131
300.103
300.057
299.976
299.841
299.641
299.418
299.229
299.028
298.843
298.714
298.667
298.688
298.763
298.853
298.935
299
299.051
299.093
299.128
299.159
299.19
299.222
299.252
299.279
299.303
299.323
299.342
299.358
299.373
299.482
299.411
299.404
299.407
299.416
299.429
299.444
299.462
299.482
299.51
299.556
299.635
299.755
299.92
300.085
300.21
300.282
300.306
300.301
300.278
300.236
300.175
300.098
300.012
299.924
299.842
299.771
299.714
299.673
299.649
299.638
299.636
299.639
299.646
299.653
301.092
301.058
301.019
300.972
300.918
300.854
300.78
300.693
300.592
300.478
300.346
300.217
300.103
300.015
299.951
299.909
299.904
299.905
299.912
299.921
299.929
299.936
299.944
299.953
299.965
299.979
299.995
300.014
300.036
300.061
300.088
300.115
300.141
300.164
300.185
301.011
300.964
300.928
300.892
300.852
300.808
300.759
300.706
300.653
300.602
300.55
300.517
300.507
300.516
300.534
300.539
300.53
300.506
300.481
300.458
300.436
300.413
300.392
300.374
300.36
300.348
300.34
300.335
300.331
300.329
300.326
300.324
300.323
300.322
300.322
301.055
301.071
301.056
301.022
300.977
300.92
300.857
300.791
300.728
300.676
300.634
300.602
300.58
300.566
300.557
300.552
300.545
300.538
300.531
300.522
300.514
300.506
300.5
300.496
300.495
300.496
300.5
300.505
300.511
300.518
300.524
300.53
300.534
300.538
300.541
300.868
300.862
300.849
300.83
300.808
300.783
300.759
300.741
300.725
300.714
300.699
300.684
300.67
300.656
300.643
300.631
300.62
300.609
300.599
300.59
300.582
300.576
300.572
300.569
300.567
300.565
300.564
300.563
300.562
300.561
300.561
300.56
300.56
300.56
300.559
300.697
300.698
300.699
300.7
300.701
300.702
300.703
300.703
300.703
300.702
300.7
300.696
300.69
300.682
300.672
300.663
300.654
300.646
300.638
300.632
300.627
300.623
300.622
300.622
300.624
300.625
300.627
300.629
300.631
300.632
300.633
300.634
300.635
300.635
300.635
300.741
300.738
300.736
300.734
300.731
300.729
300.726
300.723
300.719
300.715
300.71
300.704
300.697
300.689
300.68
300.672
300.664
300.656
300.65
300.645
300.641
300.637
300.635
300.634
300.633
300.633
300.632
300.632
300.632
300.632
300.632
300.632
300.632
300.632
300.632
300.75
300.75
300.75
300.75
300.749
300.748
300.746
300.744
300.741
300.738
300.733
300.728
300.721
300.713
300.705
300.696
300.688
300.681
300.674
300.668
300.664
300.661
300.659
300.657
300.657
300.656
300.656
300.656
300.656
300.656
300.656
300.656
300.656
300.656
300.656
300.769
300.766
300.764
300.762
300.76
300.758
300.756
300.753
300.75
300.746
300.741
300.735
300.729
300.721
300.713
300.705
300.698
300.691
300.684
300.678
300.673
300.669
300.666
300.663
300.662
300.66
300.659
300.658
300.658
300.657
300.657
300.657
300.656
300.656
300.656
300.795
300.792
300.79
300.787
300.785
300.782
300.779
300.776
300.772
300.768
300.763
300.757
300.75
300.742
300.733
300.725
300.717
300.71
300.703
300.697
300.691
300.686
300.682
300.679
300.677
300.675
300.674
300.672
300.672
300.671
300.67
300.67
300.669
300.669
300.668
300.795
300.793
300.792
300.79
300.789
300.787
300.785
300.782
300.779
300.775
300.771
300.766
300.759
300.752
300.745
300.737
300.73
300.722
300.716
300.709
300.703
300.698
300.694
300.69
300.687
300.685
300.683
300.682
300.681
300.679
300.679
300.678
300.677
300.677
300.676
300.821
300.817
300.815
300.812
300.81
300.807
300.804
300.801
300.797
300.793
300.788
300.782
300.776
300.768
300.76
300.753
300.746
300.738
300.732
300.725
300.719
300.714
300.709
300.706
300.703
300.7
300.698
300.697
300.695
300.694
300.693
300.692
300.691
300.691
300.69
300.82
300.819
300.817
300.816
300.814
300.812
300.81
300.807
300.804
300.801
300.797
300.792
300.786
300.779
300.772
300.765
300.758
300.751
300.745
300.738
300.733
300.727
300.723
300.719
300.716
300.713
300.711
300.709
300.708
300.707
300.705
300.704
300.704
300.703
300.702
300.838
300.835
300.833
300.831
300.829
300.826
300.824
300.821
300.817
300.814
300.809
300.804
300.799
300.792
300.785
300.778
300.771
300.765
300.759
300.752
300.747
300.741
300.737
300.733
300.73
300.727
300.725
300.723
300.722
300.72
300.719
300.718
300.717
300.717
300.716
300.843
300.841
300.839
300.837
300.836
300.834
300.831
300.829
300.826
300.823
300.819
300.814
300.809
300.803
300.796
300.79
300.783
300.777
300.771
300.765
300.759
300.754
300.75
300.746
300.743
300.741
300.738
300.736
300.735
300.733
300.732
300.731
300.73
300.729
300.729
300.855
300.852
300.85
300.848
300.846
300.844
300.842
300.839
300.836
300.833
300.829
300.824
300.819
300.813
300.807
300.801
300.795
300.788
300.783
300.777
300.771
300.767
300.762
300.759
300.756
300.753
300.751
300.749
300.748
300.746
300.745
300.744
300.743
300.742
300.741
300.861
300.859
300.857
300.855
300.854
300.852
300.85
300.847
300.845
300.841
300.838
300.833
300.828
300.823
300.817
300.811
300.805
300.799
300.794
300.788
300.783
300.778
300.774
300.771
300.768
300.765
300.763
300.761
300.76
300.758
300.757
300.756
300.755
300.754
300.753
300.87
300.868
300.866
300.864
300.862
300.86
300.858
300.856
300.853
300.85
300.846
300.842
300.838
300.832
300.826
300.82
300.815
300.809
300.804
300.799
300.793
300.789
300.785
300.782
300.779
300.776
300.774
300.772
300.771
300.77
300.768
300.767
300.766
300.766
300.765
300.876
300.874
300.873
300.871
300.87
300.868
300.866
300.863
300.861
300.858
300.854
300.85
300.846
300.84
300.835
300.829
300.824
300.819
300.813
300.808
300.803
300.799
300.795
300.792
300.789
300.787
300.785
300.783
300.782
300.78
300.779
300.778
300.777
300.777
300.776
300.884
300.882
300.88
300.879
300.877
300.875
300.873
300.871
300.868
300.866
300.862
300.858
300.854
300.849
300.843
300.838
300.833
300.827
300.822
300.818
300.813
300.809
300.805
300.802
300.799
300.797
300.795
300.793
300.792
300.791
300.79
300.789
300.788
300.787
300.786
300.891
300.888
300.887
300.885
300.884
300.882
300.88
300.878
300.875
300.873
300.869
300.866
300.861
300.856
300.851
300.846
300.841
300.836
300.831
300.826
300.822
300.818
300.814
300.811
300.809
300.806
300.805
300.803
300.802
300.8
300.799
300.798
300.798
300.797
300.796
300.897
300.895
300.893
300.892
300.89
300.889
300.887
300.885
300.882
300.879
300.876
300.873
300.868
300.863
300.858
300.853
300.848
300.844
300.839
300.834
300.83
300.826
300.823
300.82
300.817
300.815
300.813
300.812
300.811
300.809
300.808
300.808
300.807
300.806
300.805
300.903
300.901
300.899
300.898
300.896
300.895
300.893
300.891
300.888
300.886
300.883
300.879
300.875
300.87
300.865
300.86
300.856
300.851
300.846
300.842
300.838
300.834
300.831
300.828
300.826
300.824
300.822
300.82
300.819
300.818
300.817
300.816
300.815
300.815
300.814
300.909
300.907
300.905
300.904
300.902
300.901
300.899
300.897
300.894
300.892
300.889
300.885
300.881
300.877
300.872
300.867
300.862
300.858
300.854
300.849
300.845
300.841
300.838
300.836
300.833
300.831
300.83
300.828
300.827
300.826
300.825
300.824
300.823
300.823
300.822
300.914
300.912
300.911
300.909
300.908
300.906
300.904
300.902
300.9
300.897
300.894
300.891
300.887
300.883
300.878
300.873
300.869
300.864
300.86
300.856
300.852
300.848
300.845
300.843
300.841
300.839
300.837
300.836
300.834
300.833
300.833
300.832
300.831
300.83
300.83
300.919
300.917
300.916
300.914
300.913
300.911
300.909
300.907
300.905
300.903
300.9
300.896
300.893
300.888
300.884
300.879
300.875
300.871
300.866
300.862
300.859
300.855
300.852
300.849
300.847
300.845
300.844
300.843
300.841
300.84
300.839
300.839
300.838
300.837
300.837
300.924
300.922
300.921
300.919
300.918
300.916
300.914
300.912
300.91
300.908
300.905
300.902
300.898
300.894
300.889
300.885
300.881
300.876
300.872
300.868
300.865
300.861
300.858
300.856
300.854
300.852
300.85
300.849
300.848
300.847
300.846
300.845
300.844
300.844
300.843
298.875
298.868
298.855
298.834
298.804
298.769
298.728
298.681
298.628
298.569
298.504
298.434
298.363
298.295
298.23
298.169
298.112
298.061
298.017
297.98
297.953
297.934
298.763
298.767
298.769
298.77
298.768
298.763
298.755
298.744
298.728
298.709
298.685
298.656
298.624
298.588
298.55
298.509
298.466
298.422
298.378
298.335
298.296
298.261
299.389
299.41
299.435
299.464
299.5
299.542
299.591
299.648
299.711
299.78
299.852
299.927
300.001
300.069
300.132
300.189
300.238
300.282
300.319
300.351
300.38
300.405
299.661
299.667
299.673
299.679
299.684
299.691
299.699
299.709
299.72
299.73
299.74
299.75
299.757
299.763
299.766
299.767
299.766
299.763
299.76
299.755
299.751
299.748
300.207
300.232
300.257
300.28
300.301
300.318
300.332
300.343
300.353
300.363
300.374
300.385
300.398
300.41
300.423
300.436
300.448
300.46
300.471
300.481
300.489
300.496
300.319
300.316
300.313
300.312
300.311
300.311
300.311
300.311
300.311
300.312
300.314
300.316
300.319
300.322
300.325
300.329
300.332
300.335
300.338
300.341
300.344
300.347
300.542
300.542
300.541
300.54
300.54
300.54
300.54
300.541
300.542
300.544
300.545
300.547
300.549
300.551
300.553
300.554
300.556
300.558
300.559
300.56
300.561
300.561
300.558
300.556
300.553
300.551
300.548
300.546
300.544
300.542
300.54
300.539
300.538
300.537
300.536
300.536
300.535
300.535
300.535
300.534
300.534
300.533
300.532
300.531
300.635
300.633
300.632
300.631
300.629
300.628
300.627
300.625
300.624
300.622
300.621
300.619
300.618
300.617
300.615
300.613
300.612
300.61
300.608
300.606
300.604
300.602
300.632
300.631
300.631
300.63
300.629
300.628
300.627
300.625
300.624
300.623
300.621
300.62
300.618
300.617
300.615
300.613
300.611
300.609
300.607
300.605
300.603
300.6
300.656
300.655
300.655
300.654
300.653
300.653
300.652
300.651
300.65
300.649
300.647
300.646
300.644
300.642
300.64
300.638
300.636
300.634
300.632
300.629
300.627
300.624
300.656
300.655
300.655
300.654
300.653
300.653
300.652
300.651
300.65
300.649
300.648
300.647
300.646
300.644
300.643
300.641
300.639
300.637
300.635
300.633
300.631
300.629
300.668
300.666
300.665
300.664
300.663
300.662
300.661
300.66
300.659
300.658
300.657
300.656
300.655
300.653
300.652
300.651
300.649
300.647
300.646
300.644
300.642
300.64
300.675
300.674
300.672
300.671
300.67
300.668
300.667
300.666
300.664
300.663
300.662
300.661
300.659
300.658
300.657
300.655
300.654
300.653
300.651
300.65
300.648
300.647
300.689
300.687
300.685
300.683
300.681
300.679
300.677
300.676
300.674
300.672
300.671
300.669
300.668
300.666
300.665
300.663
300.662
300.661
300.659
300.658
300.656
300.655
300.701
300.698
300.696
300.694
300.692
300.69
300.688
300.686
300.684
300.682
300.68
300.678
300.676
300.674
300.673
300.671
300.67
300.668
300.667
300.666
300.664
300.663
300.714
300.712
300.709
300.707
300.704
300.702
300.699
300.697
300.694
300.692
300.69
300.688
300.686
300.684
300.682
300.68
300.679
300.677
300.676
300.674
300.673
300.672
300.727
300.724
300.722
300.719
300.716
300.713
300.711
300.708
300.706
300.703
300.701
300.698
300.696
300.694
300.692
300.69
300.688
300.686
300.685
300.683
300.682
300.68
300.74
300.737
300.734
300.731
300.728
300.725
300.723
300.72
300.717
300.714
300.711
300.709
300.706
300.704
300.702
300.7
300.698
300.696
300.694
300.693
300.691
300.69
300.752
300.749
300.746
300.743
300.74
300.737
300.734
300.731
300.728
300.725
300.722
300.719
300.717
300.714
300.712
300.709
300.707
300.705
300.704
300.702
300.7
300.699
300.763
300.76
300.757
300.754
300.751
300.748
300.745
300.742
300.739
300.736
300.733
300.73
300.727
300.724
300.722
300.719
300.717
300.715
300.713
300.711
300.709
300.708
300.774
300.771
300.768
300.765
300.762
300.759
300.756
300.752
300.749
300.746
300.743
300.74
300.737
300.734
300.731
300.729
300.726
300.724
300.722
300.72
300.718
300.717
300.784
300.781
300.778
300.775
300.772
300.769
300.766
300.763
300.759
300.756
300.753
300.75
300.746
300.743
300.741
300.738
300.736
300.733
300.731
300.729
300.727
300.725
300.794
300.791
300.788
300.785
300.782
300.779
300.776
300.772
300.769
300.766
300.762
300.759
300.756
300.753
300.75
300.747
300.744
300.742
300.74
300.738
300.735
300.733
300.804
300.801
300.798
300.794
300.791
300.788
300.785
300.781
300.778
300.775
300.771
300.768
300.765
300.761
300.758
300.756
300.753
300.75
300.748
300.746
300.744
300.742
300.812
300.809
300.806
300.803
300.8
300.797
300.793
300.79
300.787
300.783
300.78
300.776
300.773
300.77
300.767
300.764
300.761
300.759
300.756
300.754
300.751
300.749
300.82
300.817
300.814
300.811
300.808
300.805
300.802
300.798
300.795
300.792
300.788
300.785
300.781
300.778
300.775
300.772
300.769
300.766
300.764
300.761
300.759
300.757
300.828
300.825
300.822
300.819
300.816
300.813
300.809
300.806
300.803
300.799
300.796
300.792
300.789
300.786
300.782
300.779
300.777
300.774
300.771
300.769
300.766
300.764
300.835
300.832
300.829
300.826
300.823
300.82
300.817
300.813
300.81
300.806
300.803
300.799
300.796
300.793
300.79
300.787
300.784
300.781
300.778
300.776
300.773
300.771
300.842
300.839
300.836
300.833
300.83
300.827
300.823
300.82
300.817
300.813
300.81
300.806
300.803
300.8
300.796
300.793
300.79
300.788
300.785
300.782
300.78
300.777
297.922
297.918
297.923
297.934
297.944
297.944
298.235
298.227
298.235
298.262
298.304
298.346
300.436
300.473
300.509
300.538
300.561
300.574
299.746
299.747
299.751
299.757
299.765
299.776
300.507
300.519
300.53
300.537
300.542
300.543
300.35
300.355
300.359
300.364
300.368
300.372
300.563
300.566
300.568
300.568
300.568
300.567
300.531
300.53
300.53
300.529
300.529
300.528
300.601
300.599
300.597
300.595
300.592
300.589
300.598
300.595
300.593
300.59
300.588
300.585
300.622
300.62
300.617
300.614
300.611
300.608
300.627
300.624
300.622
300.62
300.617
300.615
300.638
300.637
300.635
300.633
300.632
300.63
300.645
300.644
300.643
300.642
300.64
300.639
300.654
300.653
300.652
300.652
300.651
300.65
300.662
300.662
300.661
300.661
300.66
300.66
300.671
300.671
300.67
300.67
300.67
300.67
300.68
300.68
300.68
300.679
300.68
300.68
300.689
300.689
300.689
300.689
300.689
300.689
300.698
300.698
300.698
300.698
300.698
300.698
300.707
300.707
300.707
300.707
300.707
300.707
300.716
300.716
300.716
300.716
300.716
300.716
300.724
300.724
300.724
300.724
300.724
300.724
300.732
300.732
300.732
300.732
300.732
300.733
300.74
300.74
300.74
300.74
300.74
300.74
300.748
300.748
300.748
300.748
300.748
300.748
300.756
300.756
300.755
300.755
300.755
300.756
300.763
300.763
300.763
300.763
300.763
300.763
300.77
300.769
300.769
300.769
300.769
300.769
300.776
300.776
300.776
300.776
300.776
300.776
297.926
297.899
297.872
297.854
297.853
297.871
297.906
297.954
298.009
298.067
298.124
298.177
298.226
298.269
298.309
298.342
298.368
298.388
298.405
298.417
298.424
298.425
298.377
298.396
298.402
298.4
298.396
298.399
298.414
298.441
298.48
298.527
298.576
298.624
298.668
298.708
298.742
298.773
298.795
298.811
298.82
298.824
298.823
298.816
300.58
300.578
300.563
300.536
300.497
300.449
300.393
300.33
300.263
300.192
300.12
300.049
299.982
299.924
299.873
299.831
299.797
299.774
299.759
299.754
299.757
299.765
299.788
299.799
299.811
299.823
299.836
299.849
299.863
299.878
299.895
299.914
299.934
299.954
299.972
299.984
299.992
299.992
299.985
299.97
299.95
299.929
299.908
299.889
300.544
300.546
300.546
300.544
300.542
300.539
300.537
300.536
300.538
300.542
300.547
300.554
300.56
300.563
300.561
300.554
300.544
300.531
300.516
300.498
300.477
300.453
300.376
300.379
300.382
300.385
300.387
300.389
300.391
300.393
300.394
300.395
300.394
300.393
300.391
300.387
300.383
300.378
300.372
300.367
300.361
300.355
300.349
300.343
300.567
300.567
300.567
300.566
300.565
300.564
300.562
300.559
300.557
300.553
300.55
300.545
300.54
300.535
300.53
300.524
300.517
300.511
300.505
300.499
300.493
300.487
300.527
300.527
300.526
300.525
300.523
300.522
300.52
300.517
300.514
300.512
300.508
300.505
300.502
300.499
300.496
300.493
300.491
300.489
300.488
300.487
300.486
300.486
300.587
300.585
300.583
300.58
300.578
300.575
300.572
300.569
300.566
300.563
300.559
300.556
300.553
300.551
300.549
300.547
300.546
300.545
300.544
300.544
300.545
300.546
300.583
300.581
300.579
300.577
300.575
300.573
300.571
300.569
300.567
300.565
300.563
300.562
300.561
300.561
300.561
300.561
300.562
300.564
300.565
300.567
300.57
300.572
300.606
300.604
300.602
300.601
300.599
300.597
300.596
300.595
300.594
300.593
300.593
300.593
300.594
300.595
300.596
300.597
300.599
300.601
300.603
300.606
300.608
300.61
300.613
300.612
300.611
300.61
300.61
300.609
300.609
300.608
300.609
300.609
300.61
300.611
300.612
300.614
300.616
300.618
300.621
300.623
300.626
300.628
300.631
300.634
300.629
300.628
300.628
300.628
300.628
300.628
300.628
300.629
300.629
300.63
300.632
300.633
300.635
300.637
300.64
300.642
300.644
300.647
300.649
300.652
300.654
300.657
300.639
300.639
300.639
300.64
300.64
300.641
300.642
300.643
300.644
300.646
300.648
300.65
300.652
300.654
300.657
300.659
300.662
300.664
300.667
300.669
300.672
300.675
300.65
300.651
300.652
300.653
300.654
300.655
300.656
300.658
300.659
300.661
300.663
300.666
300.668
300.67
300.673
300.676
300.678
300.681
300.683
300.686
300.688
300.691
300.66
300.661
300.663
300.664
300.665
300.667
300.668
300.67
300.672
300.674
300.676
300.679
300.681
300.684
300.687
300.689
300.692
300.694
300.697
300.699
300.702
300.704
300.671
300.672
300.673
300.675
300.676
300.678
300.68
300.682
300.684
300.686
300.689
300.691
300.694
300.697
300.699
300.702
300.704
300.707
300.71
300.712
300.714
300.717
300.68
300.682
300.683
300.685
300.687
300.689
300.691
300.693
300.695
300.697
300.7
300.703
300.705
300.708
300.711
300.713
300.716
300.719
300.721
300.724
300.726
300.729
300.69
300.691
300.693
300.695
300.697
300.699
300.701
300.703
300.705
300.708
300.711
300.713
300.716
300.719
300.722
300.724
300.727
300.73
300.732
300.735
300.737
300.74
300.699
300.701
300.703
300.705
300.707
300.709
300.711
300.713
300.715
300.718
300.721
300.723
300.726
300.729
300.732
300.735
300.737
300.74
300.743
300.746
300.748
300.751
300.708
300.71
300.712
300.714
300.716
300.718
300.72
300.723
300.725
300.728
300.73
300.733
300.736
300.739
300.742
300.745
300.748
300.751
300.753
300.756
300.759
300.761
300.717
300.719
300.721
300.723
300.725
300.727
300.729
300.732
300.734
300.737
300.74
300.743
300.746
300.749
300.752
300.755
300.758
300.761
300.763
300.766
300.769
300.772
300.725
300.727
300.729
300.731
300.734
300.736
300.738
300.741
300.743
300.746
300.749
300.752
300.755
300.758
300.761
300.764
300.767
300.77
300.773
300.776
300.779
300.782
300.734
300.736
300.738
300.74
300.742
300.744
300.747
300.75
300.752
300.755
300.758
300.761
300.764
300.768
300.771
300.774
300.777
300.78
300.783
300.786
300.788
300.791
300.742
300.744
300.746
300.748
300.75
300.753
300.755
300.758
300.761
300.764
300.767
300.77
300.773
300.776
300.78
300.783
300.786
300.789
300.792
300.795
300.798
300.8
300.749
300.751
300.754
300.756
300.758
300.761
300.763
300.766
300.769
300.772
300.775
300.778
300.782
300.785
300.788
300.791
300.794
300.798
300.801
300.804
300.806
300.809
300.757
300.759
300.761
300.763
300.766
300.768
300.771
300.774
300.777
300.78
300.783
300.786
300.79
300.793
300.796
300.8
300.803
300.806
300.809
300.812
300.815
300.817
300.764
300.766
300.768
300.771
300.773
300.776
300.779
300.781
300.784
300.787
300.791
300.794
300.797
300.801
300.804
300.807
300.81
300.813
300.816
300.819
300.822
300.825
300.771
300.773
300.775
300.778
300.78
300.783
300.786
300.789
300.792
300.795
300.798
300.801
300.805
300.808
300.811
300.814
300.818
300.821
300.824
300.827
300.829
300.832
300.777
300.779
300.782
300.784
300.787
300.79
300.792
300.795
300.798
300.801
300.805
300.808
300.811
300.815
300.818
300.821
300.824
300.827
300.83
300.833
300.836
300.839
298.423
298.419
298.411
298.395
298.37
298.334
298.287
298.231
298.167
298.097
298.04
297.994
297.971
297.966
297.982
298.022
298.08
298.149
298.223
298.311
298.417
298.547
298.603
298.602
298.554
298.487
298.424
298.368
298.317
298.272
298.234
298.202
298.178
298.162
298.158
298.803
298.788
298.769
298.746
298.72
298.69
298.657
298.619
298.576
298.531
298.493
298.466
298.455
298.459
298.489
298.55
298.653
298.817
299.053
299.353
299.678
299.975
300.153
300.119
299.879
299.438
299.004
298.682
298.498
298.407
298.373
298.376
298.402
298.453
298.524
299.774
299.781
299.792
299.804
299.817
299.83
299.839
299.842
299.836
299.816
299.778
299.72
299.638
299.528
299.382
299.204
299.015
298.849
298.723
298.63
298.582
298.59
298.671
298.807
298.906
299.025
299.216
299.466
299.744
300.002
300.236
300.448
300.647
300.85
301.091
299.874
299.861
299.848
299.837
299.827
299.82
299.816
299.816
299.821
299.835
299.861
299.905
299.974
300.063
300.157
300.233
300.269
300.248
300.158
300.042
299.982
300.004
299.905
299.735
299.681
299.828
300.07
300.293
300.482
300.648
300.8
300.943
301.079
301.213
301.32
300.43
300.407
300.381
300.351
300.316
300.277
300.234
300.188
300.142
300.099
300.063
300.036
300.018
300.007
300.007
300.016
300.036
300.063
300.096
300.145
300.221
300.333
300.399
300.367
300.267
300.153
300.065
300.008
299.972
299.949
299.934
299.926
299.922
299.922
299.93
300.338
300.333
300.328
300.323
300.317
300.311
300.305
300.3
300.296
300.293
300.29
300.29
300.298
300.318
300.351
300.396
300.441
300.481
300.508
300.523
300.529
300.529
300.513
300.478
300.425
300.369
300.315
300.266
300.226
300.193
300.167
300.148
300.136
300.13
300.132
300.482
300.477
300.471
300.465
300.458
300.451
300.444
300.435
300.426
300.417
300.411
300.408
300.41
300.418
300.433
300.453
300.475
300.499
300.524
300.549
300.569
300.573
300.563
300.558
300.557
300.559
300.569
300.589
300.618
300.647
300.673
300.694
300.712
300.729
300.745
300.486
300.485
300.484
300.484
300.484
300.484
300.485
300.486
300.489
300.492
300.498
300.505
300.515
300.528
300.546
300.568
300.595
300.627
300.663
300.699
300.73
300.746
300.754
300.761
300.77
300.779
300.788
300.797
300.806
300.813
300.82
300.828
300.835
300.842
300.846
300.546
300.546
300.546
300.545
300.545
300.545
300.545
300.545
300.546
300.547
300.55
300.554
300.56
300.569
300.58
300.595
300.611
300.627
300.643
300.657
300.667
300.673
300.676
300.677
300.676
300.674
300.672
300.669
300.665
300.662
300.658
300.655
300.651
300.648
300.645
300.574
300.575
300.575
300.576
300.578
300.579
300.581
300.583
300.586
300.59
300.595
300.601
300.608
300.617
300.628
300.641
300.654
300.667
300.679
300.691
300.701
300.71
300.717
300.723
300.728
300.733
300.739
300.744
300.75
300.756
300.763
300.77
300.777
300.786
300.796
300.612
300.612
300.613
300.614
300.615
300.616
300.617
300.618
300.62
300.623
300.626
300.63
300.634
300.64
300.648
300.655
300.663
300.671
300.678
300.685
300.691
300.696
300.7
300.702
300.704
300.704
300.704
300.703
300.701
300.7
300.698
300.696
300.693
300.691
300.689
300.635
300.636
300.637
300.638
300.639
300.641
300.642
300.644
300.646
300.649
300.652
300.656
300.661
300.666
300.673
300.68
300.687
300.694
300.702
300.709
300.716
300.722
300.728
300.733
300.738
300.742
300.747
300.751
300.755
300.759
300.764
300.769
300.774
300.779
300.787
300.659
300.659
300.66
300.661
300.662
300.663
300.664
300.666
300.668
300.67
300.673
300.676
300.679
300.684
300.689
300.695
300.7
300.706
300.712
300.717
300.723
300.728
300.733
300.737
300.74
300.742
300.744
300.746
300.747
300.748
300.748
300.749
300.749
300.749
300.75
300.676
300.677
300.678
300.679
300.68
300.681
300.682
300.684
300.686
300.688
300.69
300.693
300.697
300.701
300.706
300.711
300.717
300.723
300.729
300.735
300.741
300.747
300.753
300.759
300.763
300.768
300.772
300.775
300.779
300.782
300.785
300.788
300.791
300.795
300.8
300.692
300.693
300.694
300.694
300.695
300.697
300.698
300.699
300.701
300.703
300.705
300.708
300.711
300.715
300.72
300.725
300.73
300.735
300.74
300.746
300.751
300.757
300.762
300.767
300.771
300.774
300.777
300.779
300.781
300.783
300.784
300.786
300.787
300.788
300.79
300.706
300.706
300.707
300.708
300.709
300.71
300.711
300.713
300.714
300.716
300.719
300.721
300.724
300.728
300.733
300.738
300.743
300.748
300.754
300.759
300.765
300.771
300.777
300.782
300.787
300.791
300.795
300.798
300.801
300.804
300.806
300.809
300.811
300.814
300.817
300.718
300.719
300.72
300.721
300.722
300.723
300.724
300.725
300.727
300.729
300.731
300.734
300.737
300.74
300.745
300.749
300.754
300.76
300.765
300.77
300.776
300.782
300.787
300.792
300.796
300.799
300.802
300.805
300.807
300.809
300.811
300.812
300.814
300.815
300.817
300.73
300.731
300.731
300.732
300.733
300.734
300.735
300.737
300.738
300.74
300.742
300.745
300.748
300.752
300.756
300.761
300.766
300.771
300.776
300.782
300.787
300.793
300.799
300.803
300.808
300.811
300.815
300.818
300.82
300.822
300.824
300.826
300.828
300.83
300.832
300.741
300.742
300.743
300.744
300.744
300.745
300.747
300.748
300.75
300.751
300.754
300.756
300.759
300.763
300.767
300.772
300.776
300.782
300.787
300.792
300.798
300.803
300.809
300.813
300.817
300.821
300.824
300.827
300.829
300.831
300.833
300.835
300.836
300.838
300.84
300.752
300.753
300.754
300.754
300.755
300.756
300.757
300.759
300.76
300.762
300.764
300.767
300.77
300.773
300.777
300.782
300.787
300.792
300.797
300.802
300.808
300.813
300.818
300.823
300.827
300.831
300.834
300.836
300.839
300.841
300.843
300.844
300.846
300.848
300.85
300.763
300.764
300.764
300.765
300.766
300.767
300.768
300.769
300.771
300.773
300.775
300.777
300.78
300.784
300.788
300.792
300.797
300.802
300.807
300.812
300.817
300.822
300.828
300.832
300.836
300.84
300.843
300.845
300.847
300.85
300.851
300.853
300.855
300.857
300.859
300.773
300.774
300.775
300.775
300.776
300.777
300.778
300.779
300.781
300.783
300.785
300.787
300.79
300.793
300.797
300.802
300.806
300.811
300.816
300.821
300.826
300.831
300.836
300.841
300.845
300.848
300.851
300.854
300.856
300.858
300.86
300.861
300.863
300.864
300.866
300.783
300.784
300.785
300.785
300.786
300.787
300.788
300.789
300.791
300.792
300.794
300.797
300.799
300.803
300.807
300.811
300.815
300.82
300.825
300.83
300.835
300.84
300.845
300.849
300.853
300.856
300.859
300.862
300.864
300.866
300.868
300.869
300.871
300.873
300.875
300.793
300.793
300.794
300.795
300.796
300.796
300.798
300.799
300.8
300.802
300.804
300.806
300.809
300.812
300.816
300.82
300.824
300.829
300.833
300.838
300.843
300.848
300.853
300.857
300.861
300.864
300.866
300.869
300.871
300.873
300.875
300.876
300.878
300.879
300.881
300.802
300.803
300.803
300.804
300.805
300.806
300.807
300.808
300.809
300.811
300.812
300.815
300.817
300.82
300.824
300.828
300.832
300.837
300.841
300.846
300.85
300.855
300.86
300.864
300.868
300.871
300.874
300.876
300.878
300.88
300.882
300.883
300.885
300.887
300.889
300.811
300.811
300.812
300.813
300.813
300.814
300.815
300.816
300.818
300.819
300.821
300.823
300.825
300.828
300.832
300.836
300.84
300.844
300.849
300.853
300.858
300.862
300.867
300.871
300.875
300.878
300.88
300.883
300.885
300.886
300.888
300.89
300.891
300.893
300.895
300.819
300.82
300.82
300.821
300.821
300.822
300.823
300.824
300.825
300.827
300.829
300.831
300.833
300.836
300.839
300.843
300.847
300.851
300.856
300.86
300.865
300.869
300.874
300.878
300.881
300.884
300.886
300.889
300.891
300.893
300.894
300.896
300.897
300.899
300.901
300.827
300.827
300.828
300.828
300.829
300.83
300.831
300.832
300.833
300.834
300.836
300.838
300.84
300.843
300.847
300.85
300.854
300.858
300.862
300.867
300.871
300.875
300.88
300.884
300.887
300.89
300.892
300.895
300.897
300.898
300.9
300.901
300.903
300.904
300.906
300.834
300.834
300.835
300.836
300.836
300.837
300.838
300.839
300.84
300.841
300.843
300.845
300.847
300.85
300.853
300.857
300.861
300.865
300.869
300.873
300.877
300.881
300.886
300.889
300.893
300.895
300.898
300.9
300.902
300.904
300.905
300.907
300.908
300.91
300.912
300.84
300.841
300.842
300.842
300.843
300.844
300.844
300.845
300.847
300.848
300.85
300.851
300.854
300.856
300.86
300.863
300.867
300.871
300.875
300.879
300.883
300.887
300.891
300.895
300.898
300.901
300.903
300.905
300.907
300.909
300.91
300.912
300.913
300.915
300.917
300.929
300.927
300.926
300.924
300.923
300.921
300.919
300.918
300.915
300.913
300.91
300.907
300.903
300.899
300.895
300.891
300.887
300.883
300.879
300.875
300.871
300.868
300.865
300.862
300.86
300.858
300.857
300.856
300.854
300.853
300.853
300.852
300.851
300.85
300.85
300.934
300.932
300.931
300.929
300.928
300.926
300.925
300.923
300.921
300.919
300.916
300.913
300.909
300.905
300.901
300.897
300.893
300.889
300.885
300.882
300.878
300.875
300.872
300.869
300.867
300.865
300.864
300.862
300.861
300.86
300.859
300.859
300.858
300.857
300.857
300.939
300.937
300.935
300.934
300.933
300.931
300.93
300.928
300.926
300.924
300.921
300.918
300.915
300.911
300.907
300.903
300.899
300.895
300.892
300.888
300.884
300.881
300.878
300.876
300.874
300.872
300.87
300.869
300.868
300.867
300.866
300.865
300.864
300.863
300.863
300.943
300.941
300.94
300.939
300.937
300.936