/*--------------------------------*- C++ -*----------------------------------*\
  =========                 |
  \\      /  F ield         | OpenFOAM: The Open Source CFD Toolbox
   \\    /   O peration     | Website:  https://openfoam.org
    \\  /    A nd           | Version:  8
     \\/     M anipulation  |
\*---------------------------------------------------------------------------*/
FoamFile
{
    version     2.0;
    format      ascii;
    class       volVectorField;
    location    "0.4";
    object      U;
}
// * * * * * * * * * * * * * * * * * * * * * * * * * * * * * * * * * * * * * //

dimensions      [0 1 -1 0 0 0 0];

internalField   nonuniform List<vector> 
15677
(
(-0.0399015 9.66595 0)
(0.0484951 9.92199 0)
(-0.00181363 9.37829 0)
(0.0206523 9.97702 0)
(0.019892 9.78866 0)
(0.00731341 9.14125 0)
(0.025839 9.99515 0)
(0.0165372 9.92467 0)
(0.0111791 9.65398 0)
(0.00649139 8.96068 0)
(0.0263308 10.0025 0)
(0.0205522 9.97871 0)
(0.0165507 9.85204 0)
(0.00912481 9.53081 0)
(0.00515964 8.81704 0)
(0.0255702 10.0057 0)
(0.0215842 10.003 0)
(0.0194059 9.94152 0)
(0.0153646 9.77951 0)
(0.00798026 9.41985 0)
(0.00424039 8.70239 0)
(0.0245087 10.0071 0)
(0.0218657 10.0147 0)
(0.0210019 9.98479 0)
(0.018252 9.90244 0)
(0.0138543 9.70811 0)
(0.00692493 9.32159 0)
(0.00354478 8.61021 0)
(0.0230969 10.0075 0)
(0.021742 10.0205 0)
(0.021869 10.0069 0)
(0.0201981 9.96498 0)
(0.016961 9.86193 0)
(0.0124415 9.64085 0)
(0.00596832 9.23644 0)
(0.00295851 8.53619 0)
(0.0214089 10.0074 0)
(0.0211905 10.0233 0)
(0.022152 10.0184 0)
(0.0212874 9.99809 0)
(0.0190526 9.94372 0)
(0.0156073 9.8223 0)
(0.0110786 9.57968 0)
(0.0050767 9.16418 0)
(0.00241865 8.47765 0)
(0.0195157 10.007 0)
(0.0203298 10.0235 0)
(0.022109 10.0241 0)
(0.0217796 10.0162 0)
(0.0202156 9.98815 0)
(0.0177193 9.92276 0)
(0.0141422 9.78538 0)
(0.00968514 9.52577 0)
(0.00419845 9.10457 0)
(0.00188707 8.43313 0)
(0.0175003 10.0063 0)
(0.0192734 10.0223 0)
(0.0216654 10.0271 0)
(0.0218016 10.0261 0)
(0.0207461 10.0131 0)
(0.0188604 9.97856 0)
(0.0161733 9.90361 0)
(0.0125184 9.75243 0)
(0.00820305 9.48012 0)
(0.00328815 9.05743 0)
(0.00133469 8.40165 0)
(0.0153988 10.0056 0)
(0.017964 10.0206 0)
(0.0209326 10.0281 0)
(0.0214551 10.0315 0)
(0.0207789 10.0273 0)
(0.0193179 10.0104 0)
(0.0171867 9.97059 0)
(0.014357 9.88722 0)
(0.0106802 9.72461 0)
(0.00658169 9.44351 0)
(0.00230421 9.02271 0)
(0.000738907 8.38291 0)
(0.0132617 10.0048 0)
(0.0164806 10.0185 0)
(0.0198576 10.0274 0)
(0.02078 10.034 0)
(0.020398 10.0354 0)
(0.0192392 10.0289 0)
(0.0174604 10.0092 0)
(0.015131 9.96506 0)
(0.0121981 9.87462 0)
(0.00856615 9.703 0)
(0.00476987 9.4167 0)
(0.00121236 9.00046 0)
(5.62876e-05 8.37671 0)
(0.0111594 10.0041 0)
(0.0148838 10.0162 0)
(0.0185062 10.0258 0)
(0.019794 10.0345 0)
(0.0196632 10.0396 0)
(0.0187123 10.0396 0)
(0.0171472 10.0319 0)
(0.0151034 10.0103 0)
(0.0126065 9.96286 0)
(0.00961691 9.8668 0)
(0.00611183 9.68865 0)
(0.00272057 9.40033 0)
(-1.55751e-05 8.99084 0)
(-0.000614432 8.38302 0)
(0.00927021 10.0034 0)
(0.013185 10.014 0)
(0.0169172 10.0235 0)
(0.0184984 10.0334 0)
(0.0185898 10.0412 0)
(0.0177862 10.0456 0)
(0.0163376 10.0453 0)
(0.0144243 10.0371 0)
(0.0121415 10.0146 0)
(0.0095122 9.96487 0)
(0.0065299 9.86477 0)
(0.00325686 9.68254 0)
(0.0003963 9.39504 0)
(-0.00137901 8.99418 0)
(-0.00140279 8.40197 0)
(0.00772468 10.0029 0)
(0.0116214 10.0119 0)
(0.0151301 10.0209 0)
(0.0169072 10.0313 0)
(0.0171787 10.0409 0)
(0.01648 10.0483 0)
(0.0150766 10.053 0)
(0.0131853 10.0531 0)
(0.0109464 10.0453 0)
(0.00845161 10.0228 0)
(0.00574122 9.972 0)
(0.00285553 9.86951 0)
(-6.30785e-05 9.68563 0)
(-0.00226192 9.40146 0)
(-0.00294196 9.01063 0)
(-0.00229278 8.43383 0)
(0.00641318 10.0024 0)
(0.0102288 10.0102 0)
(0.0133907 10.0184 0)
(0.0150503 10.0286 0)
(0.0154337 10.0392 0)
(0.0147973 10.0488 0)
(0.0133821 10.0569 0)
(0.0114287 10.0624 0)
(0.00911042 10.0638 0)
(0.00656579 10.0574 0)
(0.00390145 10.0358 0)
(0.00118816 9.98518 0)
(-0.00148224 9.88202 0)
(-0.00388465 9.69876 0)
(-0.00526861 9.42014 0)
(-0.004697 9.04044 0)
(-0.00328079 8.47868 0)
(0.00530872 10.002 0)
(0.00897223 10.0087 0)
(0.0118116 10.0162 0)
(0.0131724 10.0257 0)
(0.013372 10.0364 0)
(0.0127389 10.0475 0)
(0.0112573 10.058 0)
(0.00916883 10.0674 0)
(0.00667195 10.0747 0)
(0.00393842 10.0781 0)
(0.0011228 10.074 0)
(-0.00164175 10.0545 0)
(-0.00424959 10.0053 0)
(-0.00655766 9.9032 0)
(-0.0082651 9.72275 0)
(-0.00865143 9.45149 0)
(-0.00664916 9.0837 0)
(-0.00436172 8.53656 0)
(0.00438465 10.0016 0)
(0.00783971 10.0074 0)
(0.0103534 10.0143 0)
(0.0114333 10.0231 0)
(0.0112559 10.0333 0)
(0.0103142 10.0449 0)
(0.00870244 10.0571 0)
(0.00640616 10.0692 0)
(0.00363962 10.0806 0)
(0.000600532 10.0904 0)
(-0.00252137 10.0969 0)
(-0.00554528 10.096 0)
(-0.00830659 10.0797 0)
(-0.0106645 10.0333 0)
(-0.0124278 9.93394 0)
(-0.0132341 9.7582 0)
(-0.0124273 9.4958 0)
(-0.00880352 9.14053 0)
(-0.00553407 8.60733 0)
(0.00361059 10.0013 0)
(0.00681971 10.0062 0)
(0.00901044 10.0126 0)
(0.00980037 10.0206 0)
(0.00928149 10.0303 0)
(0.00782114 10.0415 0)
(0.00572546 10.0545 0)
(0.00314037 10.0685 0)
(9.57884e-06 10.0828 0)
(-0.00344716 10.0971 0)
(-0.00701103 10.1105 0)
(-0.0104646 10.1209 0)
(-0.013596 10.1243 0)
(-0.0162104 10.1123 0)
(-0.0181318 10.0699 0)
(-0.0191306 9.97493 0)
(-0.0188051 9.80562 0)
(-0.0165951 9.55325 0)
(-0.0111484 9.21068 0)
(-0.006785 8.69067 0)
(0.00297762 10.001 0)
(0.00590794 10.0052 0)
(0.00777855 10.011 0)
(0.00828083 10.0184 0)
(0.00742024 10.0274 0)
(0.0054933 10.0381 0)
(0.00268263 10.0509 0)
(-0.000618519 10.0658 0)
(-0.00421968 10.0823 0)
(-0.00821464 10.0998 0)
(-0.0123565 10.1178 0)
(-0.0163954 10.1355 0)
(-0.0200815 10.1509 0)
(-0.0231738 10.1596 0)
(-0.0254491 10.153 0)
(-0.0267038 10.116 0)
(-0.0266844 10.0268 0)
(-0.0249737 9.86529 0)
(-0.0211415 9.62377 0)
(-0.0136755 9.29398 0)
(-0.00810762 8.78614 0)
(0.00247692 10.0008 0)
(0.00508504 10.0044 0)
(0.00665517 10.0096 0)
(0.00687841 10.0164 0)
(0.0056892 10.0247 0)
(0.00330205 10.0347 0)
(-0.000148238 10.047 0)
(-0.00442812 10.0618 0)
(-0.00903402 10.0794 0)
(-0.0137053 10.0992 0)
(-0.0185762 10.1206 0)
(-0.0233628 10.1434 0)
(-0.0277793 10.1665 0)
(-0.0315463 10.1877 0)
(-0.0343972 10.2027 0)
(-0.0360902 10.2025 0)
(-0.0364045 10.172 0)
(-0.0350832 10.0899 0)
(-0.0317176 9.93734 0)
(-0.0260378 9.70718 0)
(-0.0163539 9.3898 0)
(-0.00947855 8.89292 0)
(0.00209219 10.0007 0)
(0.00438122 10.0037 0)
(0.0056332 10.0084 0)
(0.00559467 10.0145 0)
(0.00409798 10.0221 0)
(0.00127394 10.0315 0)
(-0.00280073 10.043 0)
(-0.00795205 10.0573 0)
(-0.013873 10.0748 0)
(-0.0199 10.0959 0)
(-0.025677 10.1199 0)
(-0.0313969 10.1462 0)
(-0.0367345 10.1746 0)
(-0.0413713 10.204 0)
(-0.0450039 10.2321 0)
(-0.0473518 10.2542 0)
(-0.0481661 10.2614 0)
(-0.047227 10.2384 0)
(-0.0442948 10.1644 0)
(-0.0389924 10.0216 0)
(-0.0312403 9.80301 0)
(-0.0191633 9.49757 0)
(-0.010879 9.0103 0)
(0.00179565 10.0006 0)
(0.0038102 10.0032 0)
(0.00475108 10.0074 0)
(0.00442988 10.0129 0)
(0.00265246 10.0198 0)
(-0.000574756 10.0283 0)
(-0.00523871 10.039 0)
(-0.0112345 10.0526 0)
(-0.0183228 10.0695 0)
(-0.0260827 10.0905 0)
(-0.0336331 10.1159 0)
(-0.0405098 10.145 0)
(-0.046993 10.1772 0)
(-0.0527197 10.2122 0)
(-0.0573466 10.2488 0)
(-0.0605608 10.2846 0)
(-0.0620812 10.3148 0)
(-0.0616706 10.3301 0)
(-0.0591282 10.3154 0)
(-0.0542576 10.2504 0)
(-0.0467329 10.1178 0)
(-0.0366956 9.91063 0)
(-0.0220384 9.61627 0)
(-0.0122438 9.13668 0)
(0.00156288 10.0005 0)
(0.00334525 10.0028 0)
(0.00402848 10.0065 0)
(0.00342963 10.0114 0)
(0.00135675 10.0176 0)
(-0.00223315 10.0253 0)
(-0.00743827 10.0351 0)
(-0.0142292 10.0477 0)
(-0.0224439 10.0638 0)
(-0.0317389 10.0842 0)
(-0.0415307 10.1094 0)
(-0.0506689 10.14 0)
(-0.0585745 10.1753 0)
(-0.065658 10.2144 0)
(-0.0715287 10.2569 0)
(-0.0758364 10.3016 0)
(-0.078274 10.3459 0)
(-0.0785811 10.3847 0)
(-0.0765522 10.4089 0)
(-0.0720306 10.4031 0)
(-0.0648827 10.3475 0)
(-0.0548545 10.2253 0)
(-0.0422874 10.0292 0)
(-0.0248639 9.7446 0)
(-0.0132753 9.2702 0)
(0.00137763 10.0005 0)
(0.00296412 10.0025 0)
(0.00343803 10.0059 0)
(0.00261725 10.0102 0)
(0.000262487 10.0156 0)
(-0.00369363 10.0224 0)
(-0.0093826 10.0313 0)
(-0.0169033 10.0428 0)
(-0.0261784 10.0578 0)
(-0.036952 10.0772 0)
(-0.0487273 10.1018 0)
(-0.0607137 10.1322 0)
(-0.07144 10.1691 0)
(-0.0802173 10.2115 0)
(-0.0876435 10.2585 0)
(-0.0933223 10.3093 0)
(-0.096914 10.3629 0)
(-0.0981426 10.4163 0)
(-0.096793 10.4644 0)
(-0.0927186 10.4978 0)
(-0.0858187 10.5014 0)
(-0.076052 10.4554 0)
(-0.0632105 10.3434 0)
(-0.0479683 10.1575 0)
(-0.0278295 9.88206 0)
(-0.0156041 9.41088 0)
(0.00122837 10.0004 0)
(0.00264938 10.0022 0)
(0.00295402 10.0053 0)
(0.00196252 10.0092 0)
(-0.000607913 10.0139 0)
(-0.00489726 10.0198 0)
(-0.0110597 10.0276 0)
(-0.0192327 10.038 0)
(-0.0294828 10.0517 0)
(-0.0416499 10.0698 0)
(-0.0553354 10.0932 0)
(-0.0698416 10.1229 0)
(-0.0841279 10.1595 0)
(-0.0963542 10.2038 0)
(-0.105739 10.2544 0)
(-0.113145 10.31 0)
(-0.118194 10.3701 0)
(-0.120587 10.4331 0)
(-0.120107 10.4961 0)
(-0.11661 10.5538 0)
(-0.110026 10.5968 0)
(-0.10034 10.6097 0)
(-0.087581 10.5733 0)
(-0.0716579 10.4711 0)
(-0.0529786 10.2946 0)
(-0.0246805 10.0223 0)
(-0.0115231 9.49638 0)
(0.00110665 10.0004 0)
(0.00238797 10.002 0)
(0.00255641 10.0049 0)
(0.00143347 10.0083 0)
(-0.00129206 10.0125 0)
(-0.0058253 10.0176 0)
(-0.0124017 10.0242 0)
(-0.0211999 10.0332 0)
(-0.0323241 10.0456 0)
(-0.0457764 10.0621 0)
(-0.0612662 10.084 0)
(-0.0782022 10.1123 0)
(-0.0956388 10.1481 0)
(-0.112244 10.1921 0)
(-0.125767 10.2447 0)
(-0.135378 10.3044 0)
(-0.142288 10.3697 0)
(-0.146167 10.4396 0)
(-0.14679 10.5126 0)
(-0.144035 10.5855 0)
(-0.137856 10.653 0)
(-0.128287 10.7053 0)
(-0.115371 10.7276 0)
(-0.099282 10.7003 0)
(-0.0796845 10.6072 0)
(-0.0569785 10.4376 0)
(-0.0201786 10.194 0)
(-0.00295215 9.5622 0)
(0.00100624 10.0003 0)
(0.00217004 10.0018 0)
(0.0022242 10.0045 0)
(0.00100571 10.0076 0)
(-0.00182812 10.0112 0)
(-0.00652725 10.0156 0)
(-0.0133962 10.0212 0)
(-0.0227251 10.0288 0)
(-0.0346776 10.0394 0)
(-0.0492872 10.0543 0)
(-0.0664475 10.0743 0)
(-0.0856861 10.1009 0)
(-0.106168 10.1352 0)
(-0.12665 10.1782 0)
(-0.145483 10.2304 0)
(-0.159977 10.2925 0)
(-0.169296 10.3624 0)
(-0.175101 10.4379 0)
(-0.177163 10.5182 0)
(-0.175373 10.6014 0)
(-0.16973 10.6843 0)
(-0.160312 10.7614 0)
(-0.14724 10.8231 0)
(-0.13067 10.8542 0)
(-0.110614 10.8356 0)
(-0.0864774 10.7507 0)
(-0.0601876 10.5946 0)
(-0.0215931 10.3673 0)
(0.0023529 9.6196 0)
(0.000922594 10.0003 0)
(0.00198774 10.0017 0)
(0.00194834 10.0041 0)
(0.000661807 10.007 0)
(-0.00224685 10.0102 0)
(-0.0070516 10.0139 0)
(-0.0141098 10.0186 0)
(-0.0238052 10.0248 0)
(-0.0364474 10.0336 0)
(-0.0521484 10.0464 0)
(-0.0708215 10.0645 0)
(-0.0922018 10.0889 0)
(-0.115581 10.1211 0)
(-0.139825 10.1624 0)
(-0.163363 10.2136 0)
(-0.1842 10.2753 0)
(-0.199181 10.3478 0)
(-0.207537 10.4286 0)
(-0.211514 10.515 0)
(-0.211027 10.606 0)
(-0.206118 10.6995 0)
(-0.196938 10.7924 0)
(-0.183684 10.8788 0)
(-0.166598 10.9492 0)
(-0.145743 10.9887 0)
(-0.120965 10.9783 0)
(-0.0920657 10.9025 0)
(-0.062244 10.7644 0)
(-0.0244147 10.5372 0)
(0.00320105 9.67656 0)
(0.000852346 10.0003 0)
(0.00183448 10.0016 0)
(0.00171973 10.0038 0)
(0.000381325 10.0064 0)
(-0.00257267 10.0093 0)
(-0.00743743 10.0125 0)
(-0.0146054 10.0163 0)
(-0.0245298 10.0213 0)
(-0.0376427 10.0284 0)
(-0.0542428 10.0389 0)
(-0.0743417 10.0544 0)
(-0.0976737 10.0764 0)
(-0.123762 10.1062 0)
(-0.151602 10.1451 0)
(-0.179723 10.1944 0)
(-0.206189 10.2551 0)
(-0.228639 10.3272 0)
(-0.243461 10.4111 0)
(-0.250048 10.5034 0)
(-0.251367 10.6012 0)
(-0.24752 10.703 0)
(-0.238739 10.8068 0)
(-0.225331 10.9092 0)
(-0.207639 11.0045 0)
(-0.185899 11.0831 0)
(-0.160078 11.1305 0)
(-0.130699 11.1283 0)
(-0.0974988 11.0625 0)
(-0.0640467 10.9415 0)
(-0.0270821 10.7027 0)
(0.00271656 9.75004 0)
(0.000792942 10.0003 0)
(0.0017049 10.0015 0)
(0.00153002 10.0036 0)
(0.000151294 10.006 0)
(-0.00282607 10.0085 0)
(-0.00771605 10.0112 0)
(-0.014934 10.0143 0)
(-0.024982 10.0182 0)
(-0.0383836 10.0238 0)
(-0.0555946 10.0321 0)
(-0.0768633 10.0447 0)
(-0.10204 10.0637 0)
(-0.130614 10.0906 0)
(-0.161838 10.1266 0)
(-0.194365 10.1734 0)
(-0.22634 10.232 0)
(-0.255427 10.3032 0)
(-0.27893 10.3868 0)
(-0.292785 10.4828 0)
(-0.296667 10.5873 0)
(-0.294397 10.6965 0)
(-0.286316 10.809 0)
(-0.272867 10.9228 0)
(-0.254534 11.0343 0)
(-0.231732 11.1378 0)
(-0.204684 11.2241 0)
(-0.173855 11.2792 0)
(-0.140448 11.2847 0)
(-0.103646 11.2295 0)
(-0.0667121 11.1208 0)
(-0.0299343 10.8828 0)
(0.00158365 9.83477 0)
(0.000742388 10.0002 0)
(0.00159473 10.0014 0)
(0.00137047 10.0034 0)
(-3.79215e-05 10.0056 0)
(-0.00302272 10.0078 0)
(-0.00791224 10.0101 0)
(-0.0151356 10.0125 0)
(-0.0252284 10.0156 0)
(-0.0387794 10.0197 0)
(-0.0563631 10.0261 0)
(-0.0784279 10.036 0)
(-0.105119 10.0513 0)
(-0.136056 10.0745 0)
(-0.170407 10.1073 0)
(-0.207106 10.1508 0)
(-0.244409 10.2066 0)
(-0.280034 10.2756 0)
(-0.31126 10.3584 0)
(-0.335078 10.4544 0)
(-0.346996 10.5632 0)
(-0.34711 10.6801 0)
(-0.340242 10.8008 0)
(-0.327009 10.9239 0)
(-0.308085 11.0471 0)
(-0.284101 11.167 0)
(-0.25554 11.2781 0)
(-0.22303 11.3718 0)
(-0.187521 11.4338 0)
(-0.15038 11.4463 0)
(-0.11052 11.4007 0)
(-0.0706093 11.3207 0)
(-0.0328776 11.0778 0)
(-0.000177903 9.92876 0)
(0.000699075 10.0002 0)
(0.00150061 10.0013 0)
(0.00123587 10.0032 0)
(-0.000192717 10.0052 0)
(-0.00317492 10.0072 0)
(-0.00804549 10.0091 0)
(-0.0152422 10.011 0)
(-0.0253214 10.0132 0)
(-0.0389178 10.0162 0)
(-0.0566918 10.0207 0)
(-0.0792442 10.0281 0)
(-0.106972 10.0401 0)
(-0.139857 10.0589 0)
(-0.177203 10.0873 0)
(-0.21779 10.127 0)
(-0.260173 10.1792 0)
(-0.302162 10.2453 0)
(-0.341047 10.3259 0)
(-0.373737 10.4213 0)
(-0.39694 10.5304 0)
(-0.405802 10.6525 0)
(-0.400986 10.7819 0)
(-0.388457 10.914 0)
(-0.369139 11.0471 0)
(-0.343935 11.1791 0)
(-0.313624 11.3067 0)
(-0.279034 11.425 0)
(-0.241248 11.525 0)
(-0.201287 11.593 0)
(-0.160429 11.6112 0)
(-0.118326 11.5944 0)
(-0.0753611 11.54 0)
(-0.0360511 11.2684 0)
(-0.00211619 10.0296 0)
(0.000662007 10.0002 0)
(0.00141964 10.0013 0)
(0.00112198 10.0031 0)
(-0.000320024 10.0049 0)
(-0.00329218 10.0067 0)
(-0.00813106 10.0083 0)
(-0.0152784 10.0097 0)
(-0.0253025 10.0111 0)
(-0.0388676 10.013 0)
(-0.0566953 10.016 0)
(-0.0794987 10.0212 0)
(-0.107869 10.03 0)
(-0.1421 10.0447 0)
(-0.181933 10.0678 0)
(-0.226276 10.1024 0)
(-0.273435 10.1503 0)
(-0.32154 10.2125 0)
(-0.367935 10.29 0)
(-0.409481 10.3834 0)
(-0.442745 10.4923 0)
(-0.464227 10.6151 0)
(-0.468787 10.7507 0)
(-0.457809 10.8926 0)
(-0.438536 11.0355 0)
(-0.412217 11.178 0)
(-0.37999 11.3181 0)
(-0.34296 11.4528 0)
(-0.302355 11.5772 0)
(-0.259443 11.6827 0)
(-0.215132 11.7549 0)
(-0.17149 11.7978 0)
(-0.12674 11.8092 0)
(-0.0805063 11.7552 0)
(-0.039147 11.4536 0)
(-0.00396967 10.1351 0)
(0.00134938 10.0012 0)
(0.000618058 10.0002 0)
(0.00102461 10.0029 0)
(-0.000424882 10.0046 0)
(-0.00338193 10.0062 0)
(-0.00818082 10.0075 0)
(-0.0152635 10.0085 0)
(-0.0252036 10.0093 0)
(-0.038683 10.0102 0)
(-0.0564639 10.0118 0)
(-0.0793406 10.015 0)
(-0.108049 10.021 0)
(-0.143127 10.0319 0)
(-0.184698 10.0499 0)
(-0.232192 10.0782 0)
(-0.284013 10.1203 0)
(-0.337919 10.1777 0)
(-0.391591 10.2511 0)
(-0.441889 10.3414 0)
(-0.485269 10.4486 0)
(-0.518014 10.5717 0)
(-0.536514 10.7087 0)
(-0.535426 10.8578 0)
(-0.517022 11.0118 0)
(-0.489942 11.165 0)
(-0.455774 11.3162 0)
(-0.416 11.4635 0)
(-0.372103 11.6043 0)
(-0.325503 11.7338 0)
(-0.277496 11.8429 0)
(-0.230369 11.9375 0)
(-0.183316 12.0051 0)
(-0.134922 12.0217 0)
(-0.0856273 11.9646 0)
(-0.04204 11.6331 0)
(-0.00573899 10.2434 0)
(0.000939332 10.0028 0)
(0.00126891 10.0012 0)
(0.000565758 10.0002 0)
(-0.000511991 10.0044 0)
(-0.00344979 10.0058 0)
(-0.0082038 10.0069 0)
(-0.0152126 10.0075 0)
(-0.0250495 10.0077 0)
(-0.0384055 10.0077 0)
(-0.0560682 10.0081 0)
(-0.0788873 10.0095 0)
(-0.107705 10.013 0)
(-0.143244 10.0204 0)
(-0.185931 10.0338 0)
(-0.235657 10.056 0)
(-0.291435 10.0906 0)
(-0.351068 10.1414 0)
(-0.411707 10.2097 0)
(-0.47056 10.2957 0)
(-0.524016 10.3999 0)
(-0.568171 10.5218 0)
(-0.59912 10.6597 0)
(-0.613249 10.811 0)
(-0.605111 10.9735 0)
(-0.578027 11.1391 0)
(-0.542145 11.3018 0)
(-0.499453 11.4608 0)
(-0.451814 11.6144 0)
(-0.400946 11.7602 0)
(-0.34831 11.893 0)
(-0.297187 12.0235 0)
(-0.246539 12.1402 0)
(-0.194639 12.2109 0)
(-0.142641 12.2295 0)
(-0.0904946 12.1669 0)
(-0.0446469 11.8063 0)
(-0.00735681 10.3526 0)
(-0.000589462 10.0042 0)
(0.000850586 10.0027 0)
(0.0011712 10.0011 0)
(0.000516013 10.0002 1.87643e-19)
(-0.00350101 10.0055 0)
(-0.00820651 10.0063 0)
(-0.0151367 10.0066 0)
(-0.0248592 10.0063 0)
(-0.0380672 10.0056 0)
(-0.0555624 10.0048 0)
(-0.0782305 10.0046 0)
(-0.106989 10.006 0)
(-0.142696 10.0102 0)
(-0.186014 10.0193 0)
(-0.237201 10.0359 0)
(-0.295825 10.0633 0)
(-0.360385 10.1055 0)
(-0.427992 10.1663 0)
(-0.495115 10.247 0)
(-0.558508 10.3469 0)
(-0.614126 10.4661 0)
(-0.657786 10.6034 0)
(-0.6855 10.7565 0)
(-0.693776 10.922 0)
(-0.677173 11.0974 0)
(-0.640216 11.2738 0)
(-0.594677 11.4452 0)
(-0.542964 11.6109 0)
(-0.487217 11.7697 0)
(-0.429265 11.9188 0)
(-0.373104 12.0726 0)
(-0.318001 12.224 0)
(-0.261791 12.3415 0)
(-0.205245 12.4129 0)
(-0.149748 12.4311 0)
(-0.0949955 12.3616 0)
(-0.0469416 11.9728 0)
(-0.00879506 10.4611 0)
(-0.00354873 10.0052 0)
(-0.000652096 10.004 0)
(0.000751326 10.0025 8.38127e-19)
(0.00107767 10.001 -5.94571e-19)
(0.000468675 10.0002 -3.74239e-19)
(-0.00819475 10.0058 0)
(-0.0150434 10.0058 0)
(-0.0246467 10.005 0)
(-0.0376925 10.0037 0)
(-0.0549879 10.002 0)
(-0.0774405 10.0004 0)
(-0.106017 9.99966 0)
(-0.141677 10.0011 0)
(-0.185256 10.0064 0)
(-0.237303 10.0178 0)
(-0.297832 10.0385 0)
(-0.365991 10.0722 0)
(-0.439679 10.1232 0)
(-0.515188 10.1956 0)
(-0.588288 10.29 0)
(-0.655314 10.4051 0)
(-0.711854 10.5403 0)
(-0.753552 10.6936 0)
(-0.776464 10.862 0)
(-0.777359 11.0415 0)
(-0.75091 11.2291 0)
(-0.703005 11.4155 0)
(-0.647114 11.5943 0)
(-0.585981 11.7656 0)
(-0.521915 11.9279 0)
(-0.459971 12.0979 0)
(-0.399294 12.272 0)
(-0.337529 12.423 0)
(-0.275932 12.5391 0)
(-0.214977 12.6094 0)
(-0.156176 12.6254 0)
(-0.0990698 12.548 0)
(-0.0489328 12.1323 0)
(-0.0100483 10.5675 0)
(-0.00818901 10.0054 0)
(-0.00354873 10.0048 -1.79111e-18)
(-0.000702768 10.0037 -8.84085e-19)
(0.000657819 10.0023 4.18145e-19)
(0.000988036 10.0009 -3.95188e-19)
(0.000423811 10.0001 0)
(-0.0149391 10.0051 0)
(-0.0244211 10.0039 0)
(-0.0372991 10.002 0)
(-0.0543764 9.99941 0)
(-0.076571 9.99656 0)
(-0.104882 9.99409 0)
(-0.140338 9.99301 0)
(-0.183902 9.99484 0)
(-0.236348 10.0016 0)
(-0.298041 10.0162 0)
(-0.368665 10.042 0)
(-0.446868 10.0832 0)
(-0.529813 10.1444 0)
(-0.612899 10.2299 0)
(-0.691186 10.3396 0)
(-0.760669 10.471 0)
(-0.816664 10.6228 0)
(-0.854764 10.7925 0)
(-0.871222 10.9761 0)
(-0.863207 11.169 0)
(-0.825618 11.368 0)
(-0.765833 11.5631 0)
(-0.699015 11.7483 0)
(-0.628139 11.9234 0)
(-0.559494 12.1067 0)
(-0.492377 12.2969 0)
(-0.423814 12.4701 0)
(-0.355586 12.6184 0)
(-0.288813 12.7316 0)
(-0.223764 12.7993 0)
(-0.161901 12.8118 0)
(-0.102692 12.7257 0)
(-0.0506417 12.2843 0)
(-0.0111233 10.6709 0)
(-0.0148548 10.0044 0)
(-0.00808639 10.0048 3.77735e-18)
(-0.00348904 10.0044 0)
(-0.000749209 10.0034 8.81816e-19)
(0.000570785 10.0021 1.37708e-22)
(0.000902217 10.0009 0)
(0.000381441 10.0001 0)
(-0.0241888 10.003 0)
(-0.0368981 10.0005 0)
(-0.0537505 9.99716 0)
(-0.0756627 9.99321 0)
(-0.103653 9.98916 0)
(-0.138794 9.98586 0)
(-0.182144 9.9846 0)
(-0.234641 9.98721 0)
(-0.296927 9.99617 0)
(-0.369115 10.0147 0)
(-0.45048 10.0467 0)
(-0.539039 10.0968 0)
(-0.631131 10.1698 0)
(-0.721185 10.2699 0)
(-0.803581 10.3961 0)
(-0.874083 10.5449 0)
(-0.927859 10.714 0)
(-0.960604 10.9 0)
(-0.968913 11.0984 0)
(-0.950498 11.3041 0)
(-0.900587 11.5132 0)
(-0.828135 11.7159 0)
(-0.749921 11.9057 0)
(-0.673798 12.1021 0)
(-0.599168 12.3058 0)
(-0.522681 12.4948 0)
(-0.446459 12.6648 0)
(-0.372029 12.8089 0)
(-0.300389 12.9178 0)
(-0.231586 12.9818 0)
(-0.166928 12.9898 0)
(-0.105865 12.8946 0)
(-0.0520936 12.4287 0)
(-0.0120337 10.7705 0)
(-0.0239962 10.0021 0)
(-0.0146024 10.0037 4.91814e-22)
(-0.00784564 10.0042 0)
(-0.00342895 10.0039 -9.29803e-19)
(-0.000785849 10.0031 8.52117e-23)
(0.000490096 10.002 0)
(0.00082034 10.0008 0)
(0.000341573 10.0001 0)
(-0.0364962 9.99919 0)
(-0.0531236 9.99518 0)
(-0.0747448 9.99024 0)
(-0.102381 9.98479 0)
(-0.137135 9.97951 0)
(-0.180128 9.9755 0)
(-0.232422 9.97435 0)
(-0.294868 9.97827 0)
(-0.36792 9.99015 0)
(-0.451363 10.0137 0)
(-0.54394 10.0532 0)
(-0.642946 10.1136 0)
(-0.7438 10.2 0)
(-0.839913 10.3163 0)
(-0.925046 10.4603 0)
(-0.994887 10.6272 0)
(-1.0446 10.8139 0)
(-1.07016 11.0162 0)
(-1.06864 11.2287 0)
(-1.03841 11.4459 0)
(-0.975128 11.664 0)
(-0.889332 11.8725 0)
(-0.805098 12.0842 0)
(-0.722037 12.3015 0)
(-0.636276 12.504 0)
(-0.550656 12.6896 0)
(-0.467087 12.8547 0)
(-0.386813 12.9934 0)
(-0.31067 13.0971 0)
(-0.238465 13.1564 0)
(-0.171289 13.159 0)
(-0.108607 13.0545 0)
(-0.0533138 12.5653 0)
(-0.0127964 10.8658 0)
(-0.0361605 9.99803 0)
(-0.0235357 10.0011 -2.0987e-18)
(-0.0140927 10.0029 0)
(-0.00761219 10.0036 0)
(-0.00335419 10.0035 2.78106e-18)
(-0.000812869 10.0028 0)
(0.000415795 10.0018 0)
(0.000742513 10.0007 7.81481e-19)
(0.000304235 10.0001 0)
(-0.0525027 9.99342 0)
(-0.0738337 9.98762 0)
(-0.101104 9.98092 0)
(-0.135427 9.97389 0)
(-0.177967 9.96744 0)
(-0.229876 9.96293 0)
(-0.292162 9.9623 0)
(-0.365541 9.96817 0)
(-0.450212 9.98389 0)
(-0.545519 10.0136 0)
(-0.649579 10.062 0)
(-0.758865 10.1344 0)
(-0.867801 10.2358 0)
(-0.968749 10.3697 0)
(-1.05497 10.5326 0)
(-1.12226 10.7182 0)
(-1.16595 10.9226 0)
(-1.18244 11.1406 0)
(-1.16946 11.3663 0)
(-1.12614 11.594 0)
(-1.04855 11.8192 0)
(-0.955765 12.0506 0)
(-0.863452 12.2839 0)
(-0.767185 12.5004 0)
(-0.670551 12.6995 0)
(-0.576157 12.8799 0)
(-0.485651 13.0388 0)
(-0.399961 13.1711 0)
(-0.319698 13.2688 0)
(-0.24445 13.3227 0)
(-0.175029 13.3193 0)
(-0.110949 13.2055 0)
(-0.0543291 12.6943 0)
(-0.0134295 10.9566 0)
(-0.0519838 9.99186 0)
(-0.0354198 9.99674 0)
(-0.0226449 10 -2.18409e-18)
(-0.0136037 10.0021 -2.06676e-18)
(-0.00735733 10.003 -3.909e-18)
(-0.00326466 10.0031 0)
(-0.000830272 10.0025 -1.74555e-18)
(0.000348047 10.0017 -1.64829e-18)
(0.000668752 10.0007 7.7777e-19)
(0.00026938 10.0001 0)
(-0.0729366 9.9853 0)
(-0.0998427 9.9775 0)
(-0.133718 9.96891 0)
(-0.175747 9.96028 0)
(-0.227145 9.95278 0)
(-0.289039 9.94809 0)
(-0.362346 9.94854 0)
(-0.447588 9.95718 0)
(-0.544602 9.97783 0)
(-0.6522 10.0151 0)
(-0.767778 10.074 0)
(-0.886893 10.16 0)
(-1.00291 10.2779 0)
(-1.10717 10.4308 0)
(-1.19257 10.6134 0)
(-1.25524 10.8181 0)
(-1.29086 11.0399 0)
(-1.29644 11.2728 0)
(-1.27046 11.5107 0)
(-1.21288 11.747 0)
(-1.12851 11.9965 0)
(-1.02619 12.2505 0)
(-0.918129 12.4837 0)
(-0.808914 12.6969 0)
(-0.701826 12.8906 0)
(-0.599137 13.0645 0)
(-0.502177 13.2163 0)
(-0.411531 13.3414 0)
(-0.327544 13.4325 0)
(-0.249601 13.4804 0)
(-0.178199 13.4707 0)
(-0.112927 13.3477 0)
(-0.0551648 12.8157 0)
(-0.0139503 11.0425 0)
(-0.0721885 9.98324 0)
(-0.0508747 9.99017 -2.33366e-18)
(-0.0340059 9.99531 2.30054e-18)
(-0.021797 9.99898 -1.1765e-21)
(-0.0130841 10.0013 2.05976e-18)
(-0.00708095 10.0025 1.94769e-18)
(-0.00316088 10.0027 3.68043e-18)
(-0.000837928 10.0023 2.60678e-18)
(0.000286783 10.0015 -8.20211e-19)
(0.000599102 10.0006 0)
(0.000236994 10.0001 0)
(-0.0986042 9.97447 0)
(-0.132033 9.9645 0)
(-0.173529 9.95394 0)
(-0.224337 9.94377 0)
(-0.285677 9.93545 0)
(-0.358618 9.93104 0)
(-0.443935 9.93328 0)
(-0.541859 9.94568 0)
(-0.651781 9.97252 0)
(-0.771886 10.0188 0)
(-0.898746 10.0898 0)
(-1.02692 10.1911 0)
(-1.1487 10.3271 0)
(-1.25444 10.5001 0)
(-1.3369 10.7031 0)
(-1.39276 10.9269 0)
(-1.41825 11.1655 0)
(-1.41111 11.4125 0)
(-1.3707 11.6608 0)
(-1.3077 11.9227 0)
(-1.21359 12.1963 0)
(-1.09238 12.4511 0)
(-0.968762 12.6814 0)
(-0.847025 12.8893 0)
(-0.730043 13.0763 0)
(-0.619628 13.2426 0)
(-0.516742 13.3866 0)
(-0.421613 13.5039 0)
(-0.334296 13.5879 0)
(-0.25399 13.6295 0)
(-0.180856 13.6134 0)
(-0.114578 13.4813 0)
(-0.0558448 12.9296 0)
(-0.0143748 11.1237 0)
(-0.0975758 9.97178 0)
(-0.0706046 9.98104 -3.46618e-21)
(-0.0487614 9.98834 0)
(-0.0326695 9.99394 -1.88973e-21)
(-0.0209064 9.99795 0)
(-0.0125336 10.0005 -2.05238e-18)
(-0.00678389 10.0019 -3.87945e-18)
(-0.00304269 10.0023 8.91693e-23)
(-0.000835981 10.0021 1.72933e-18)
(0.000231759 10.0014 -8.15836e-19)
(0.000533554 10.0005 7.69342e-19)
(0.000207043 10.0001 0)
(-0.130381 9.96059 0)
(-0.171342 9.94831 0)
(-0.22153 9.93577 0)
(-0.282211 9.92422 0)
(-0.354577 9.91545 0)
(-0.439602 9.91193 0)
(-0.537828 9.91685 0)
(-0.649115 9.93417 0)
(-0.772318 9.96864 0)
(-0.904893 10.0255 0)
(-1.04249 10.1105 0)
(-1.17865 10.2286 0)
(-1.30455 10.3842 0)
(-1.40969 10.5782 0)
(-1.48691 10.8019 0)
(-1.5337 11.0445 0)
(-1.54701 11.2992 0)
(-1.52543 11.5586 0)
(-1.48075 11.8341 0)
(-1.409 12.1219 0)
(-1.29385 12.3979 0)
(-1.15387 12.6504 0)
(-1.01513 12.8755 0)
(-0.881461 13.0765 0)
(-0.755234 13.2557 0)
(-0.637722 13.4137 0)
(-0.529457 13.5492 0)
(-0.430319 13.6584 0)
(-0.340054 13.7351 0)
(-0.257693 13.7701 0)
(-0.183059 13.7475 0)
(-0.115939 13.6066 0)
(-0.0563909 13.0364 0)
(-0.0147176 11.2 0)
(-0.129017 9.95712 0)
(-0.0953898 9.96895 2.58815e-18)
(-0.0675748 9.97871 -2.55754e-18)
(-0.0467761 9.98658 2.41737e-18)
(-0.0312749 9.99262 0)
(-0.0199722 9.99697 0)
(-0.011954 9.99983 2.04397e-18)
(-0.00646668 10.0014 -1.93071e-18)
(-0.00291017 10.002 1.19256e-22)
(-0.000824091 10.0018 8.60153e-19)
(0.000183065 10.0013 -8.11249e-19)
(0.00047203 10.0005 -7.63938e-19)
(0.000179658 10.0001 0)
(-0.169198 9.94332 0)
(-0.21876 9.92867 0)
(-0.278738 9.91424 0)
(-0.350393 9.90159 0)
(-0.434859 9.8929 0)
(-0.532929 9.89106 0)
(-0.644842 9.89971 0)
(-0.770004 9.92332 0)
(-0.906631 9.96698 0)
(-1.05135 10.0363 0)
(-1.19884 10.1368 0)
(-1.34155 10.2734 0)
(-1.46965 10.4497 0)
(-1.57189 10.6654 0)
(-1.64144 10.91 0)
(-1.67688 11.1708 0)
(-1.676 11.4401 0)
(-1.65157 11.7284 0)
(-1.59889 12.0318 0)
(-1.50497 12.3239 0)
(-1.36866 12.599 0)
(-1.21036 12.8468 0)
(-1.05717 13.0649 0)
(-0.912279 13.2577 0)
(-0.777509 13.4281 0)
(-0.653551 13.5771 0)
(-0.54046 13.7038 0)
(-0.43777 13.8048 0)
(-0.344918 13.874 0)
(-0.260784 13.9024 0)
(-0.184862 13.8733 0)
(-0.117048 13.7239 0)
(-0.0568238 13.1364 0)
(-0.0149916 11.2716 0)
(-0.16744 9.93889 0)
(-0.126079 9.95352 0)
(-0.0911799 9.96602 2.69006e-18)
(-0.0647436 9.97649 -5.10195e-18)
(-0.0447122 9.98491 4.82548e-18)
(-0.0298202 9.99137 -4.56184e-18)
(-0.0189979 9.99604 0)
(-0.0113462 9.99914 2.03543e-18)
(-0.00612958 10.0009 -1.92107e-18)
(-0.00276469 10.0016 -1.81332e-18)
(-0.000801569 10.0016 0)
(0.000140404 10.0011 8.05527e-19)
(0.000414659 10.0004 0)
(0.000155341 10 0)
(-0.216043 9.92237 0)
(-0.275304 9.90537 0)
(-0.346186 9.88926 0)
(-0.429915 9.87594 0)
(-0.527492 9.86802 0)
(-0.639467 9.86883 0)
(-0.765698 9.8825 0)
(-0.905038 9.91389 0)
(-1.05496 9.96848 0)
(-1.2112 10.052 0)
(-1.36738 10.1698 0)
(-1.51493 10.3263 0)
(-1.64306 10.5243 0)
(-1.7399 10.7622 0)
(-1.79929 11.0273 0)
(-1.82109 11.3051 0)
(-1.81911 11.6052 0)
(-1.78774 11.9237 0)
(-1.71144 12.2338 0)
(-1.59488 12.5267 0)
(-1.43764 12.7979 0)
(-1.26171 13.0389 0)
(-1.09489 13.2485 0)
(-0.939612 13.4321 0)
(-0.797026 13.593 0)
(-0.667275 13.7327 0)
(-0.549898 13.8504 0)
(-0.444088 13.9431 0)
(-0.34899 14.0048 0)
(-0.263339 14.0266 0)
(-0.18632 13.9911 0)
(-0.117938 13.8336 0)
(-0.0571611 13.2297 0)
(-0.0152067 11.3387 0)
(-0.213831 9.91678 0)
(-0.16358 9.93434 0)
(-0.120376 9.94985 0)
(-0.087268 9.96323 5.36572e-18)
(-0.0618098 9.97438 -5.07782e-18)
(-0.0425686 9.98332 4.80183e-18)
(-0.0283123 9.99018 0)
(-0.0179852 9.99516 -2.14378e-18)
(-0.0107107 9.9985 0)
(-0.00577342 10.0005 1.91069e-18)
(-0.00260507 10.0013 0)
(-0.000770022 10.0014 0)
(0.00010498 10.001 0)
(0.000362712 10.0004 7.78743e-19)
(0.000134125 10 3.75103e-19)
(-0.271931 9.89749 0)
(-0.342011 9.87829 0)
(-0.42492 9.86085 0)
(-0.521775 9.84748 0)
(-0.63339 9.84121 0)
(-0.760002 9.84584 0)
(-0.900994 9.86597 0)
(-1.05457 9.90684 0)
(-1.21737 9.97414 0)
(-1.38416 10.0736 0)
(-1.54755 10.2103 0)
(-1.69793 10.3882 0)
(-1.82367 10.6086 0)
(-1.91253 10.8687 0)
(-1.95922 11.1534 0)
(-1.98208 11.4639 0)
(-1.97458 11.7967 0)
(-1.91828 12.1248 0)
(-1.8175 12.4378 0)
(-1.67822 12.7284 0)
(-1.50058 12.9934 0)
(-1.30792 13.2257 0)
(-1.12844 13.4257 0)
(-0.963647 13.5992 0)
(-0.813993 13.7502 0)
(-0.679072 13.8803 0)
(-0.557926 13.989 0)
(-0.449399 14.0734 0)
(-0.352364 14.1277 0)
(-0.265425 14.1429 0)
(-0.18748 14.1013 0)
(-0.11864 13.936 0)
(-0.0574183 13.3168 0)
(-0.0153712 11.4014 0)
(-0.269212 9.8905 0)
(-0.208856 9.91108 0)
(-0.156021 9.92978 5.9844e-18)
(-0.115106 9.94636 5.66639e-18)
(-0.0832226 9.96058 5.36021e-18)
(-0.0587728 9.97238 -5.06739e-18)
(-0.0403557 9.98182 0)
(-0.0267532 9.98906 0)
(-0.0169353 9.99433 0)
(-0.010049 9.99789 4.02844e-18)
(-0.00540027 10 1.8999e-18)
(-0.00243171 10.001 1.78981e-18)
(-0.000729477 10.0012 0)
(7.60775e-05 10.0009 -8.21063e-19)
(0.000316019 10.0004 -3.96191e-19)
(0.000115535 10 0)
(-0.337905 9.86854 0)
(-0.41994 9.84741 0)
(-0.51596 9.82916 0)
(-0.626923 9.81652 0)
(-0.753393 9.81299 0)
(-0.895207 9.82282 0)
(-1.05117 9.85103 0)
(-1.21876 9.90318 0)
(-1.3937 9.98507 0)
(-1.56979 10.1023 0)
(-1.73858 10.2595 0)
(-1.88954 10.4595 0)
(-2.01037 10.703 0)
(-2.08855 10.9848 0)
(-2.13895 11.3042 0)
(-2.15824 11.6503 0)
(-2.12476 11.996 0)
(-2.04218 12.3297 0)
(-1.91646 12.6423 0)
(-1.75474 12.9278 0)
(-1.5575 13.1843 0)
(-1.34914 13.4064 0)
(-1.15802 13.5957 0)
(-0.98461 13.7586 0)
(-0.828631 13.8994 0)
(-0.689133 14.0199 0)
(-0.564697 14.1196 0)
(-0.453822 14.1959 0)
(-0.35513 14.243 0)
(-0.267108 14.2519 0)
(-0.188387 14.2042 0)
(-0.119181 14.0316 0)
(-0.0576064 13.398 0)
(-0.0154966 11.4599 0)
(-0.334633 9.85989 0)
(-0.262901 9.88342 0)
(-0.199018 9.90544 -1.25899e-17)
(-0.149064 9.92546 1.78184e-20)
(-0.109661 9.94308 -1.12845e-17)