/*--------------------------------*- C++ -*----------------------------------*\
  =========                 |
  \\      /  F ield         | OpenFOAM: The Open Source CFD Toolbox
   \\    /   O peration     | Website:  https://openfoam.org
    \\  /    A nd           | Version:  8
     \\/     M anipulation  |
\*---------------------------------------------------------------------------*/
FoamFile
{
    version     2.0;
    format      ascii;
    class       volVectorField;
    location    "0.27";
    object      U;
}
// * * * * * * * * * * * * * * * * * * * * * * * * * * * * * * * * * * * * * //

dimensions      [0 1 -1 0 0 0 0];

internalField   nonuniform List<vector> 
15677
(
(-0.0199306 9.66508 0)
(0.0435706 9.92085 0)
(0.00237873 9.37814 0)
(0.0147331 9.97647 0)
(0.0186033 9.78785 0)
(0.00701357 9.14265 0)
(0.0279564 9.99434 0)
(0.0170916 9.92489 0)
(0.0107206 9.65524 0)
(0.0060757 8.96058 0)
(0.0261002 10.0015 0)
(0.0214815 9.97863 0)
(0.0163707 9.85367 0)
(0.00900461 9.53082 0)
(0.0049 8.81753 0)
(0.0249441 10.0047 0)
(0.0223461 10.0027 0)
(0.0191469 9.94316 0)
(0.015342 9.77978 0)
(0.00786599 9.42022 0)
(0.00402918 8.70326 0)
(0.0239629 10.0062 0)
(0.0225154 10.0143 0)
(0.0207451 9.98635 0)
(0.0182372 9.90285 0)
(0.013865 9.70864 0)
(0.00679124 9.32242 0)
(0.00335987 8.61123 0)
(0.0226211 10.0067 0)
(0.0223398 10.02 0)
(0.0215581 10.0083 0)
(0.0201199 9.96543 0)
(0.0169944 9.8626 0)
(0.01243 9.64179 0)
(0.0058409 9.23749 0)
(0.00279896 8.53745 0)
(0.0209331 10.0067 0)
(0.0217884 10.0224 0)
(0.0218668 10.0198 0)
(0.0211931 9.99857 0)
(0.0190146 9.94446 0)
(0.0156009 9.82337 0)
(0.0110619 9.58083 0)
(0.00496191 9.16546 0)
(0.00228226 8.47918 0)
(0.0190121 10.0063 0)
(0.0209408 10.0226 0)
(0.02174 10.0257 0)
(0.0216718 10.0167 0)
(0.020166 9.98893 0)
(0.0176407 9.92391 0)
(0.0141243 9.78665 0)
(0.00966755 9.52716 0)
(0.00409659 9.10613 0)
(0.00177139 8.43492 0)
(0.0169337 10.0057 0)
(0.0198627 10.0218 0)
(0.0212669 10.0287 0)
(0.0216759 10.0267 0)
(0.0206873 10.0139 0)
(0.018766 9.97975 0)
(0.016086 9.90496 0)
(0.0124959 9.75393 0)
(0.00818326 9.48177 0)
(0.00319951 9.05926 0)
(0.00123739 8.4037 0)
(0.0147346 10.0051 0)
(0.0185511 10.0203 0)
(0.0204813 10.0294 0)
(0.0213284 10.0322 0)
(0.0207093 10.0281 0)
(0.0192014 10.0116 0)
(0.017086 9.97199 0)
(0.014267 9.8888 0)
(0.0106507 9.72637 0)
(0.00655962 9.44544 0)
(0.00223003 9.02481 0)
(0.000658057 8.38524 0)
(0.0124102 10.0044 0)
(0.0170893 10.0184 0)
(0.0193971 10.0287 0)
(0.0206325 10.0346 0)
(0.0202912 10.0362 0)
(0.019098 10.0301 0)
(0.0173358 10.0106 0)
(0.0150291 9.96669 0)
(0.0121021 9.87647 0)
(0.00852842 9.70502 0)
(0.00474587 9.41889 0)
(0.0011544 9.00284 0)
(-1.12935e-05 8.37932 0)
(0.0101276 10.0036 0)
(0.0155708 10.0161 0)
(0.0180527 10.0271 0)
(0.0196106 10.035 0)
(0.0195381 10.0403 0)
(0.0185388 10.0408 0)
(0.0169947 10.0333 0)
(0.0149758 10.012 0)
(0.0124982 9.96475 0)
(0.00951454 9.86891 0)
(0.00606453 9.69094 0)
(0.00269514 9.40279 0)
(-2.65324e-05 8.99352 0)
(-0.000657508 8.38593 0)
(0.00816868 10.0029 0)
(0.0139365 10.0137 0)
(0.0165041 10.0247 0)
(0.0182752 10.034 0)
(0.0184358 10.0419 0)
(0.0175822 10.0467 0)
(0.0161535 10.0467 0)
(0.0142667 10.0387 0)
(0.0120046 10.0165 0)
(0.00939564 9.96702 0)
(0.00642105 9.86714 0)
(0.00319633 9.6851 0)
(0.000355101 9.39779 0)
(-0.00139928 8.99716 0)
(-0.00143077 8.40519 0)
(0.00660603 10.0023 0)
(0.0123536 10.0114 0)
(0.0147766 10.0219 0)
(0.0166392 10.0319 0)
(0.0169912 10.0415 0)
(0.0162395 10.0494 0)
(0.014857 10.0543 0)
(0.012994 10.0547 0)
(0.0107768 10.0472 0)
(0.00830334 10.025 0)
(0.00561469 9.97442 0)
(0.00273902 9.87215 0)
(-0.000171003 9.68847 0)
(-0.00230138 9.40451 0)
(-0.00295162 9.01392 0)
(-0.00230889 8.43738 0)
(0.00542541 10.0018 0)
(0.0109216 10.0094 0)
(0.0130787 10.0191 0)
(0.0147295 10.029 0)
(0.0152085 10.0398 0)
(0.0145158 10.0498 0)
(0.0131216 10.0582 0)
(0.0111995 10.064 0)
(0.00890424 10.0657 0)
(0.00638215 10.0595 0)
(0.00374024 10.0383 0)
(0.0010547 9.98787 0)
(-0.00159422 9.88494 0)
(-0.00397356 9.7019 0)
(-0.00529658 9.42351 0)
(-0.00468694 9.04407 0)
(-0.00328555 8.48256 0)
(0.004451 10.0014 0)
(0.00952615 10.0078 0)
(0.0115355 10.0167 0)
(0.0127961 10.0261 0)
(0.0131011 10.0369 0)
(0.0124132 10.0485 0)
(0.0109497 10.0593 0)
(0.00889656 10.0689 0)
(0.00642464 10.0765 0)
(0.0037152 10.0803 0)
(0.000924591 10.0764 0)
(-0.00181595 10.0572 0)
(-0.00439891 10.0083 0)
(-0.00668309 9.90642 0)
(-0.00835282 9.72619 0)
(-0.00867192 9.45518 0)
(-0.00661562 9.08768 0)
(-0.00435685 8.54079 0)
(0.00365457 10.0011 0)
(0.00826071 10.0065 0)
(0.0100751 10.0145 0)
(0.0110085 10.0233 0)
(0.0109305 10.0337 0)
(0.00994059 10.0457 0)
(0.0083407 10.0583 0)
(0.00608429 10.0706 0)
(0.0033457 10.0823 0)
(0.000332642 10.0925 0)
(-0.00276342 10.0993 0)
(-0.00576629 10.0987 0)
(-0.00850562 10.0827 0)
(-0.010837 10.0366 0)
(-0.0125685 9.93747 0)
(-0.0133336 9.76197 0)
(-0.012442 9.49985 0)
(-0.0087446 9.14486 0)
(-0.00552087 8.61192 0)
(0.00300505 10.0009 0)
(0.0071193 10.0054 0)
(0.00873028 10.0127 0)
(0.00932576 10.0208 0)
(0.00889568 10.0306 0)
(0.00739458 10.0423 0)
(0.00530205 10.0556 0)
(0.00275905 10.0699 0)
(-0.000337608 10.0846 0)
(-0.00376567 10.0992 0)
(-0.00730329 10.1128 0)
(-0.0107339 10.1236 0)
(-0.0138439 10.1273 0)
(-0.0164368 10.1156 0)
(-0.018326 10.0735 0)
(-0.0192848 9.97878 0)
(-0.0189204 9.80973 0)
(-0.016604 9.55765 0)
(-0.0110621 9.21538 0)
(-0.00676658 8.69562 0)
(0.00247084 10.0008 0)
(0.00608664 10.0046 0)
(0.00749195 10.0111 0)
(0.0077621 10.0186 0)
(0.00696948 10.0277 0)
(0.00500955 10.0388 0)
(0.00219221 10.0519 0)
(-0.00106812 10.0671 0)
(-0.00462834 10.084 0)
(-0.00859018 10.1017 0)
(-0.0127035 10.1201 0)
(-0.0167177 10.1382 0)
(-0.0203814 10.1539 0)
(-0.0234526 10.1629 0)
(-0.025703 10.1566 0)
(-0.0269201 10.1199 0)
(-0.0268507 10.031 0)
(-0.0251067 9.86975 0)
(-0.0211438 9.62854 0)
(-0.0135604 9.29906 0)
(-0.00808649 8.79146 0)
(0.00204595 10.0006 0)
(0.00515583 10.0039 0)
(0.00635398 10.0097 0)
(0.00632075 10.0166 0)
(0.00517181 10.0249 0)
(0.00275849 10.0353 0)
(-0.000704535 10.0479 0)
(-0.00495004 10.063 0)
(-0.00951373 10.081 0)
(-0.0141461 10.1011 0)
(-0.0189847 10.1229 0)
(-0.0237445 10.146 0)
(-0.0281372 10.1694 0)
(-0.0318826 10.191 0)
(-0.0347104 10.2063 0)
(-0.0363746 10.2064 0)
(-0.0366442 10.1762 0)
(-0.0352606 10.0944 0)
(-0.03187 9.94216 0)
(-0.0260323 9.71232 0)
(-0.0162088 9.39525 0)
(-0.00945897 8.89861 0)
(0.00171934 10.0005 0)
(0.00435904 10.0033 0)
(0.00531433 10.0085 0)
(0.00500364 10.0148 0)
(0.00351575 10.0224 0)
(0.000667667 10.032 0)
(-0.00342094 10.0438 0)
(-0.00854637 10.0585 0)
(-0.0144307 10.0763 0)
(-0.0204172 10.0977 0)
(-0.0261557 10.122 0)
(-0.0318457 10.1487 0)
(-0.0371581 10.1775 0)
(-0.0417719 10.2072 0)
(-0.0453813 10.2357 0)
(-0.0477034 10.2582 0)
(-0.0484832 10.2657 0)
(-0.0474906 10.243 0)
(-0.0444837 10.1693 0)
(-0.0391654 10.0268 0)
(-0.0312266 9.80852 0)
(-0.0189869 9.5034 0)
(-0.0108663 9.01634 0)
(0.00146517 10.0005 0)
(0.00371165 10.0029 0)
(0.00440977 10.0075 0)
(0.0038108 10.0131 0)
(0.00200938 10.0201 0)
(-0.00124199 10.0288 0)
(-0.00592378 10.0398 0)
(-0.0119001 10.0536 0)
(-0.0189587 10.0709 0)
(-0.0266851 10.0922 0)
(-0.0341949 10.1179 0)
(-0.0410353 10.1474 0)
(-0.0474907 10.18 0)
(-0.0531929 10.2154 0)
(-0.0577953 10.2523 0)
(-0.0609836 10.2885 0)
(-0.0624738 10.319 0)
(-0.0620222 10.3348 0)
(-0.0594173 10.3204 0)
(-0.0544564 10.2556 0)
(-0.0469282 10.1234 0)
(-0.0366725 9.91653 0)
(-0.0218367 9.62246 0)
(-0.0122691 9.14304 0)
(0.00126381 10.0004 0)
(0.00318724 10.0025 0)
(0.00366028 10.0067 0)
(0.00278581 10.0117 0)
(0.000656095 10.0179 0)
(-0.00295794 10.0258 0)
(-0.0081863 10.0359 0)
(-0.0149658 10.0487 0)
(-0.0231564 10.0651 0)
(-0.0324259 10.0858 0)
(-0.042186 10.1114 0)
(-0.0512851 10.1424 0)
(-0.0591562 10.1781 0)
(-0.0662129 10.2175 0)
(-0.0720581 10.2604 0)
(-0.0763385 10.3055 0)
(-0.0787455 10.3501 0)
(-0.0790167 10.3894 0)
(-0.0769387 10.4139 0)
(-0.0723442 10.4085 0)
(-0.0650925 10.3531 0)
(-0.0550719 10.2313 0)
(-0.0422583 10.0354 0)
(-0.0246477 9.75114 0)
(-0.0132277 9.277 0)
(0.00110188 10.0004 0)
(0.00275941 10.0023 0)
(0.0030431 10.006 0)
(0.00195048 10.0105 0)
(-0.000488112 10.0159 0)
(-0.00447479 10.023 0)
(-0.0101904 10.0321 0)
(-0.0177088 10.0438 0)
(-0.0269668 10.0591 0)
(-0.0377213 10.0788 0)
(-0.0494751 10.1037 0)
(-0.0614326 10.1345 0)
(-0.0721212 10.1718 0)
(-0.0808653 10.2146 0)
(-0.0882642 10.2619 0)
(-0.0939137 10.3132 0)
(-0.0974725 10.3671 0)
(-0.0986641 10.4209 0)
(-0.097272 10.4694 0)
(-0.0931398 10.5032 0)
(-0.0861585 10.5071 0)
(-0.0762685 10.4614 0)
(-0.0634546 10.3498 0)
(-0.0479337 10.1641 0)
(-0.0274346 9.88916 0)
(-0.0143021 9.41822 0)
(0.000969871 10.0003 0)
(0.00240849 10.0021 0)
(0.00253701 10.0055 0)
(0.00127275 10.0095 0)
(-0.00139939 10.0143 0)
(-0.00573036 10.0204 0)
(-0.0119253 10.0284 0)
(-0.0201044 10.039 0)
(-0.0303451 10.0529 0)
(-0.0425003 10.0713 0)
(-0.0561725 10.095 0)
(-0.070662 10.1251 0)
(-0.0849229 10.1621 0)
(-0.0971126 10.2067 0)
(-0.106462 10.2577 0)
(-0.113837 10.3138 0)
(-0.118851 10.3743 0)
(-0.121205 10.4377 0)
(-0.12068 10.5011 0)
(-0.117133 10.5592 0)
(-0.110482 10.6025 0)
(-0.100703 10.6158 0)
(-0.0878097 10.5797 0)
(-0.0719238 10.4777 0)
(-0.0528079 10.3017 0)
(-0.0238242 10.03 0)
(-0.00932655 9.50404 0)
(0.000860886 10.0003 0)
(0.00211919 10.0019 0)
(0.00210873 10.005 0)
(0.000722171 10.0087 0)
(-0.00211919 10.0129 0)
(-0.0067035 10.0182 0)
(-0.0133212 10.025 0)
(-0.0221354 10.0342 0)
(-0.0332577 10.0468 0)
(-0.0467059 10.0636 0)
(-0.0621912 10.0857 0)
(-0.0791204 10.1144 0)
(-0.0965461 10.1506 0)
(-0.113129 10.1949 0)
(-0.126613 10.248 0)
(-0.136183 10.3082 0)
(-0.143057 10.3738 0)
(-0.146894 10.4441 0)
(-0.14747 10.5175 0)
(-0.144661 10.5909 0)
(-0.138423 10.6587 0)
(-0.128776 10.7115 0)
(-0.11576 10.734 0)
(-0.0995023 10.7071 0)
(-0.0798974 10.6143 0)
(-0.0575057 10.4451 0)
(-0.0194863 10.2017 0)
(-0.00149867 9.57009 0)
(0.000769956 10.0003 0)
(0.00187944 10.0017 0)
(0.00175001 10.0046 0)
(0.0002813 10.0079 0)
(-0.00268639 10.0117 0)
(-0.00744466 10.0162 0)
(-0.0143634 10.022 0)
(-0.0237203 10.0297 0)
(-0.0356804 10.0406 0)
(-0.0502931 10.0557 0)
(-0.0674581 10.0761 0)
(-0.0867004 10.103 0)
(-0.107183 10.1376 0)
(-0.127659 10.1809 0)
(-0.146468 10.2336 0)
(-0.160919 10.2961 0)
(-0.170193 10.3664 0)
(-0.175953 10.4424 0)
(-0.177962 10.5231 0)
(-0.176113 10.6067 0)
(-0.170406 10.6901 0)
(-0.160919 10.7675 0)
(-0.14776 10.8295 0)
(-0.131068 10.861 0)
(-0.110811 10.8427 0)
(-0.0868987 10.7583 0)
(-0.061278 10.6024 0)
(-0.0214342 10.3751 0)
(0.00254694 9.62769 0)
(0.000693462 10.0002 0)
(0.00167963 10.0016 0)
(0.00145934 10.0043 0)
(-7.96225e-05 10.0073 0)
(-0.0031307 10.0106 0)
(-0.00800321 10.0145 0)
(-0.0151186 10.0194 0)
(-0.0248531 10.0258 0)
(-0.0375158 10.0348 0)
(-0.0532288 10.0478 0)
(-0.0719146 10.0661 0)
(-0.0933096 10.0909 0)
(-0.116701 10.1234 0)
(-0.140953 10.165 0)
(-0.164486 10.2167 0)
(-0.185298 10.2788 0)
(-0.200228 10.3518 0)
(-0.208528 10.433 0)
(-0.212448 10.5198 0)
(-0.211896 10.6112 0)
(-0.206916 10.7052 0)
(-0.19766 10.7985 0)
(-0.184328 10.8853 0)
(-0.167133 10.9561 0)
(-0.14613 10.9959 0)
(-0.121197 10.9859 0)
(-0.0924735 10.9103 0)
(-0.0627152 10.7723 0)
(-0.0247779 10.5454 0)
(0.00347016 9.68489 0)
(0.00062868 10.0002 0)
(0.00151203 10.0015 0)
(0.00121625 10.004 0)
(-0.000381372 10.0067 0)
(-0.0034795 10.0097 0)
(-0.00841904 10.0131 0)
(-0.0156507 10.0171 0)
(-0.0256232 10.0223 0)
(-0.038769 10.0296 0)
(-0.0553945 10.0403 0)
(-0.0755157 10.056 0)
(-0.0988716 10.0783 0)
(-0.124985 10.1084 0)
(-0.152847 10.1477 0)
(-0.180978 10.1974 0)
(-0.207439 10.2585 0)
(-0.229858 10.3311 0)
(-0.244617 10.4154 0)
(-0.251135 10.5082 0)
(-0.252383 10.6064 0)
(-0.248458 10.7086 0)
(-0.239593 10.8128 0)
(-0.226097 10.9157 0)
(-0.208306 11.0114 0)
(-0.186436 11.0904 0)
(-0.160512 11.1381 0)
(-0.130849 11.1362 0)
(-0.0976494 11.0705 0)
(-0.0645128 10.9497 0)
(-0.0275276 10.7113 0)
(0.0030969 9.75896 0)
(0.000573491 10.0002 0)
(0.00137063 10.0014 0)
(0.00101119 10.0037 0)
(-0.000627751 10.0063 0)
(-0.00375383 10.0089 0)
(-0.00872411 10.0118 0)
(-0.0160113 10.0151 0)
(-0.0261149 10.0192 0)
(-0.0395596 10.025 0)
(-0.0568096 10.0335 0)
(-0.0781153 10.0463 0)
(-0.103326 10.0656 0)
(-0.131936 10.0927 0)
(-0.163196 10.1291 0)
(-0.195749 10.1763 0)
(-0.227736 10.2353 0)
(-0.256814 10.3069 0)
(-0.280276 10.391 0)
(-0.294054 10.4875 0)
(-0.297852 10.5924 0)
(-0.295496 10.7021 0)
(-0.287321 10.8151 0)
(-0.273773 10.9292 0)
(-0.255332 11.0411 0)
(-0.232417 11.1451 0)
(-0.205287 11.2318 0)
(-0.174373 11.2872 0)
(-0.140453 11.2929 0)
(-0.103646 11.238 0)
(-0.0671496 11.1294 0)
(-0.0303773 10.892 0)
(0.00201576 9.84395 0)
(0.000526206 10.0002 0)
(0.00125069 10.0014 0)
(0.000838097 10.0035 0)
(-0.000830181 10.0059 0)
(-0.00396852 10.0082 0)
(-0.00894369 10.0107 0)
(-0.0162411 10.0133 0)
(-0.0263955 10.0165 0)
(-0.0399985 10.0209 0)
(-0.0576325 10.0274 0)
(-0.0797493 10.0375 0)
(-0.106491 10.0532 0)
(-0.137475 10.0767 0)
(-0.171874 10.1097 0)
(-0.208616 10.1536 0)
(-0.245948 10.2098 0)
(-0.281583 10.2793 0)
(-0.312792 10.3625 0)
(-0.336556 10.4589 0)
(-0.348381 10.5682 0)
(-0.348393 10.6856 0)
(-0.341419 10.8068 0)
(-0.328075 10.9303 0)
(-0.309035 11.0539 0)
(-0.284929 11.1742 0)
(-0.25629 11.2858 0)
(-0.223709 11.3798 0)
(-0.188071 11.442 0)
(-0.150366 11.4548 0)
(-0.110422 11.4095 0)
(-0.0710424 11.3299 0)
(-0.0333801 11.0874 0)
(0.000319286 9.93799 0)
(0.000485506 10.0002 0)
(0.00114832 10.0013 0)
(0.000691469 10.0034 0)
(-0.00099702 10.0055 0)
(-0.00413637 10.0076 0)
(-0.00909768 10.0097 0)
(-0.0163724 10.0118 0)
(-0.0265184 10.0141 0)
(-0.040174 10.0173 0)
(-0.0580081 10.0221 0)
(-0.0806252 10.0297 0)
(-0.108421 10.0419 0)
(-0.141371 10.061 0)
(-0.178776 10.0897 0)
(-0.21942 10.1298 0)
(-0.261853 10.1823 0)
(-0.30387 10.2488 0)
(-0.342757 10.3299 0)
(-0.375419 10.4257 0)
(-0.398552 10.5354 0)
(-0.407302 10.6579 0)
(-0.402362 10.7878 0)
(-0.389709 10.9203 0)
(-0.370262 11.0539 0)
(-0.344928 11.1863 0)
(-0.314514 11.3144 0)
(-0.279846 11.4329 0)
(-0.241913 11.5333 0)
(-0.201853 11.6015 0)
(-0.160498 11.62 0)
(-0.118223 11.6037 0)
(-0.0758432 11.5496 0)
(-0.0365444 11.2781 0)
(-0.00157702 10.0391 0)
(0.000450616 10.0002 0)
(0.00106022 10.0012 0)
(0.000566462 10.0032 0)
(-0.0011348 10.0052 0)
(-0.00426723 10.0071 0)
(-0.00920158 10.0089 0)
(-0.0164304 10.0104 0)
(-0.0265256 10.0121 0)
(-0.0401561 10.0141 0)
(-0.0580521 10.0173 0)
(-0.0809311 10.0227 0)
(-0.109384 10.0318 0)
(-0.143699 10.0467 0)
(-0.183611 10.0701 0)
(-0.228024 10.1051 0)
(-0.275248 10.1534 0)
(-0.323402 10.2159 0)
(-0.369821 10.2939 0)
(-0.41136 10.3878 0)
(-0.44458 10.4971 0)
(-0.465973 10.6204 0)
(-0.470398 10.7565 0)
(-0.459275 10.8989 0)
(-0.439857 11.0423 0)
(-0.413394 11.1852 0)
(-0.381045 11.3257 0)
(-0.343909 11.4608 0)
(-0.303168 11.5855 0)
(-0.260071 11.6913 0)
(-0.215686 11.7637 0)
(-0.17164 11.8071 0)
(-0.126722 11.8189 0)
(-0.0809664 11.765 0)
(-0.039625 11.4637 0)
(-0.00340214 10.145 0)
(0.000983852 10.0012 0)
(0.00040954 10.0002 0)
(0.000458683 10.0031 0)
(-0.00124912 10.0049 0)
(-0.00436869 10.0067 0)
(-0.00926737 10.0081 0)
(-0.0164348 10.0093 0)
(-0.0264496 10.0102 0)
(-0.0399995 10.0113 0)
(-0.0578558 10.0131 0)
(-0.0808173 10.0165 0)
(-0.10962 10.0228 0)
(-0.144799 10.0339 0)
(-0.186472 10.0522 0)
(-0.234058 10.0808 0)
(-0.285957 10.1232 0)
(-0.339929 10.1811 0)
(-0.393648 10.2549 0)
(-0.443962 10.3456 0)
(-0.487318 10.4533 0)
(-0.520001 10.5769 0)
(-0.538391 10.7143 0)
(-0.537146 10.864 0)
(-0.518574 11.0185 0)
(-0.491331 11.1721 0)
(-0.457017 11.3237 0)
(-0.417115 11.4715 0)
(-0.373069 11.6127 0)
(-0.326311 11.7424 0)
(-0.278109 11.8518 0)
(-0.230891 11.9469 0)
(-0.183559 12.0148 0)
(-0.134946 12.0316 0)
(-0.0860687 11.9747 0)
(-0.0424875 11.6435 0)
(-0.00515145 10.2536 0)
(0.00036398 10.003 0)
(0.000897017 10.0011 0)
(0.000360991 10.0002 0)
(-0.00134546 10.0047 0)
(-0.00444706 10.0063 0)
(-0.00930414 10.0075 0)
(-0.0164007 10.0082 0)
(-0.0263156 10.0086 0)
(-0.0397465 10.0088 0)
(-0.0574905 10.0094 0)
(-0.0804024 10.011 0)
(-0.109325 10.0147 0)
(-0.144979 10.0223 0)
(-0.187785 10.036 0)
(-0.237628 10.0585 0)
(-0.293508 10.0935 0)
(-0.353223 10.1446 0)
(-0.413928 10.2134 0)
(-0.472821 10.2999 0)
(-0.526278 10.4045 0)
(-0.570392 10.5269 0)
(-0.601257 10.6653 0)
(-0.615254 10.8171 0)
(-0.606935 10.98 0)
(-0.579662 11.1461 0)
(-0.543605 11.3093 0)
(-0.500756 11.4687 0)
(-0.452956 11.6227 0)
(-0.401917 11.7688 0)
(-0.349131 11.902 0)
(-0.297835 12.033 0)
(-0.247043 12.15 0)
(-0.194909 12.2208 0)
(-0.142713 12.2397 0)
(-0.0909135 12.1774 0)
(-0.0450629 11.817 0)
(-0.00678069 10.363 0)
(-0.00143018 10.0045 0)
(0.000267015 10.0028 0)
(0.000790963 10.0011 0)
(0.000314692 10.0001 4.23343e-20)
(-0.00450818 10.0059 0)
(-0.00931922 10.0069 0)
(-0.0163393 10.0073 0)
(-0.0261429 10.0072 0)
(-0.0394297 10.0067 0)
(-0.0570112 10.0061 0)
(-0.0797788 10.0061 0)
(-0.108651 10.0076 0)
(-0.144486 10.0121 0)
(-0.187938 10.0215 0)
(-0.239263 10.0384 0)
(-0.298016 10.0661 0)
(-0.362685 10.1086 0)
(-0.430373 10.1699 0)
(-0.497558 10.251 0)
(-0.560978 10.3514 0)
(-0.616579 10.471 0)
(-0.660177 10.6088 0)
(-0.687783 10.7624 0)
(-0.695904 10.9285 0)
(-0.679097 11.1044 0)
(-0.641932 11.2813 0)
(-0.596203 11.4531 0)
(-0.544304 11.6191 0)
(-0.488373 11.7783 0)
(-0.430248 11.9277 0)
(-0.373967 12.0821 0)
(-0.318697 12.2339 0)
(-0.262247 12.3515 0)
(-0.205537 12.4231 0)
(-0.149869 12.4416 0)
(-0.0953803 12.3724 0)
(-0.0473231 11.9838 0)
(-0.00825745 10.4716 0)
(-0.00456356 10.0056 0)
(-0.00149924 10.0043 0)
(0.000158235 10.0026 1.92654e-19)
(0.000688049 10.001 -1.34218e-19)
(0.000270654 10.0001 -8.30936e-20)
(-0.00931994 10.0064 0)
(-0.016259 10.0065 0)
(-0.0259454 10.0059 0)
(-0.0390738 10.0047 0)
(-0.05646 10.0032 0)
(-0.0790178 10.0018 0)
(-0.107716 10.0013 0)
(-0.143513 10.0029 0)
(-0.187241 10.0085 0)
(-0.239443 10.0202 0)
(-0.300124 10.0413 0)
(-0.368422 10.0753 0)
(-0.442221 10.1267 0)
(-0.517808 10.1995 0)
(-0.590958 10.2944 0)
(-0.657995 10.41 0)
(-0.714497 10.5456 0)
(-0.756108 10.6994 0)
(-0.778888 10.8683 0)
(-0.779605 11.0484 0)
(-0.752931 11.2364 0)
(-0.704797 11.4233 0)
(-0.64869 11.6025 0)
(-0.587346 11.7741 0)
(-0.52309 11.9368 0)
(-0.460992 12.1073 0)
(-0.400191 12.2819 0)
(-0.338227 12.433 0)
(-0.276357 12.5494 0)
(-0.215292 12.62 0)
(-0.156338 12.6362 0)
(-0.0994107 12.559 0)
(-0.0492732 12.1434 0)
(-0.00957041 10.5782 0)
(-0.00932248 10.0059 0)
(-0.00457115 10.0052 -4.35201e-19)
(-0.00155744 10.004 -2.03581e-19)
(5.51963e-05 10.0025 9.4552e-20)
(0.000589177 10.0009 -8.77964e-20)
(0.00022892 10.0001 0)
(-0.0161683 10.0058 0)
(-0.025733 10.0048 0)
(-0.0386962 10.003 0)
(-0.0558688 10.0006 0)
(-0.0781738 9.99796 0)
(-0.106613 9.99568 0)
(-0.142215 9.99483 0)
(-0.18594 9.9969 0)
(-0.238556 10.004 0)
(-0.300421 10.0189 0)
(-0.371208 10.045 0)
(-0.449555 10.0866 0)
(-0.53261 10.1482 0)
(-0.615764 10.2342 0)
(-0.694088 10.3443 0)
(-0.763562 10.4762 0)
(-0.819493 10.6286 0)
(-0.857481 10.7987 0)
(-0.873779 10.9828 0)
(-0.865562 11.1763 0)
(-0.827726 11.3757 0)
(-0.767685 11.5712 0)
(-0.700629 11.7568 0)
(-0.629532 11.9323 0)
(-0.560706 12.1161 0)
(-0.493428 12.3068 0)
(-0.424703 12.4802 0)
(-0.356278 12.6288 0)
(-0.289229 12.7423 0)
(-0.224095 12.8102 0)
(-0.162096 12.8229 0)
(-0.102983 12.737 0)
(-0.0509358 12.2956 0)
(-0.0107204 10.6818 0)
(-0.0160911 10.0051 0)
(-0.00922869 10.0054 9.19703e-19)
(-0.00452153 10.0048 0)
(-0.00161047 10.0037 1.99758e-19)
(-4.12634e-05 10.0023 3.59409e-23)
(0.000494814 10.0008 0)
(0.000189522 10.0001 0)
(-0.0255151 10.0038 0)
(-0.0383089 10.0015 0)
(-0.0552598 9.99835 0)
(-0.0772878 9.99458 0)
(-0.105412 9.99072 0)
(-0.140707 9.98764 0)
(-0.184227 9.98662 0)
(-0.236907 9.98949 0)
(-0.299383 9.99876 0)
(-0.371757 10.0176 0)
(-0.453293 10.05 0)
(-0.541998 10.1005 0)
(-0.634192 10.174 0)
(-0.7243 10.2745 0)
(-0.806714 10.4013 0)
(-0.877183 10.5505 0)
(-0.930868 10.7202 0)
(-0.963474 10.9067 0)
(-0.971597 11.1056 0)
(-0.952955 11.3117 0)
(-0.90277 11.5213 0)
(-0.830035 11.7243 0)
(-0.751571 11.9145 0)
(-0.675232 12.1115 0)
(-0.600409 12.3156 0)
(-0.523733 12.5049 0)
(-0.447331 12.6752 0)
(-0.372722 12.8196 0)
(-0.300804 12.9288 0)
(-0.23192 12.993 0)
(-0.167153 13.0011 0)
(-0.106104 12.9061 0)
(-0.0523391 12.4402 0)
(-0.0117145 10.7815 0)
(-0.0253273 10.003 0)
(-0.0158494 10.0044 1.03296e-22)
(-0.00900387 10.0047 0)
(-0.00446834 10.0043 -2.11071e-19)
(-0.00165414 10.0034 2.2996e-23)
(-0.000131344 10.0021 0)
(0.000403994 10.0008 0)
(0.000152459 10.0001 0)
(-0.0379221 10.0002 0)
(-0.0546471 9.99635 0)
(-0.0763881 9.99159 0)
(-0.104165 9.98632 0)
(-0.139079 9.98126 0)
(-0.182251 9.97748 0)
(-0.234739 9.97659 0)
(-0.29739 9.98079 0)
(-0.370647 9.99299 0)
(-0.454286 10.0169 0)
(-0.547039 10.0568 0)
(-0.646186 10.1177 0)
(-0.747131 10.2045 0)
(-0.843279 10.3213 0)
(-0.928408 10.4658 0)
(-0.998189 10.6332 0)
(-1.04779 10.8205 0)
(-1.07317 11.0232 0)
(-1.07144 11.2363 0)
(-1.04096 11.4539 0)
(-0.977373 11.6724 0)
(-0.891275 11.8812 0)
(-0.806788 12.0936 0)
(-0.723497 12.3113 0)
(-0.637524 12.5141 0)
(-0.551704 12.7001 0)
(-0.467952 12.8655 0)
(-0.387504 13.0044 0)
(-0.311081 13.1084 0)
(-0.238793 13.1678 0)
(-0.171539 13.1705 0)
(-0.108797 13.0662 0)
(-0.0535106 12.577 0)
(-0.0125636 10.877 0)
(-0.0375882 9.99902 0)
(-0.0248792 10.002 -5.13441e-19)
(-0.0153609 10.0036 0)
(-0.00877736 10.0041 0)
(-0.00440181 10.0039 6.21434e-19)
(-0.00168805 10.0031 0)
(-0.000214255 10.002 0)
(0.000317084 10.0007 1.65989e-19)
(0.000117752 10.0001 0)
(-0.0540425 9.99457 0)
(-0.0754918 9.98894 0)
(-0.102908 9.98243 0)
(-0.137398 9.9756 0)
(-0.180126 9.96937 0)
(-0.232238 9.96511 0)
(-0.294741 9.96476 0)
(-0.368342 9.97094 0)
(-0.453231 9.98701 0)
(-0.548739 10.0171 0)
(-0.652974 10.066 0)
(-0.762393 10.1388 0)
(-0.871403 10.2407 0)
(-0.972365 10.3751 0)
(-1.05856 10.5385 0)
(-1.12575 10.7247 0)
(-1.1693 10.9295 0)
(-1.18559 11.148 0)
(-1.17237 11.3743 0)
(-1.12877 11.6023 0)
(-1.05085 11.8279 0)
(-0.957752 12.0599 0)
(-0.865162 12.2937 0)
(-0.768651 12.5105 0)
(-0.671796 12.7099 0)
(-0.577205 12.8907 0)
(-0.486509 13.0499 0)
(-0.400642 13.1824 0)
(-0.320103 13.2803 0)
(-0.244764 13.3343 0)
(-0.1753 13.331 0)
(-0.111095 13.2174 0)
(-0.0544783 12.7061 0)
(-0.0132807 10.9678 0)
(-0.0535208 9.993 0)
(-0.0368622 9.99771 0)
(-0.0240163 10.0008 -5.07689e-19)
(-0.0148762 10.0027 -4.71425e-19)
(-0.00853284 10.0035 -8.75544e-19)
(-0.0043203 10.0035 0)
(-0.00171214 10.0028 -3.77637e-19)
(-0.00029047 10.0018 -3.50772e-19)
(0.000234643 10.0007 1.62904e-19)
(8.54999e-05 10.0001 0)
(-0.0746124 9.9866 0)
(-0.101662 9.97898 0)
(-0.135711 9.97059 0)
(-0.177937 9.96218 0)
(-0.229547 9.95491 0)
(-0.291669 9.95049 0)
(-0.365211 9.95125 0)
(-0.45069 9.96022 0)
(-0.547929 9.98125 0)
(-0.655731 10.0189 0)
(-0.771477 10.0783 0)
(-0.890712 10.1647 0)
(-1.00678 10.2832 0)
(-1.11102 10.4365 0)
(-1.19637 10.6197 0)
(-1.25891 10.8249 0)
(-1.29436 11.0472 0)
(-1.29971 11.2806 0)
(-1.27347 11.519 0)
(-1.21558 11.7557 0)
(-1.13088 12.0057 0)
(-1.0282 12.2602 0)
(-0.919844 12.4937 0)
(-0.810377 12.7073 0)
(-0.703067 12.9014 0)
(-0.600181 13.0756 0)
(-0.503023 13.2277 0)
(-0.412198 13.353 0)
(-0.327943 13.4442 0)
(-0.249895 13.4922 0)
(-0.178486 13.4826 0)
(-0.113034 13.3597 0)
(-0.0552688 12.8276 0)
(-0.0138787 11.0539 0)
(-0.0738552 9.98452 0)
(-0.0524299 9.99128 -5.7425e-19)
(-0.0354852 9.99625 5.36379e-19)
(-0.0231678 9.99975 -2.52102e-22)
(-0.0143677 10.0019 4.62549e-19)
(-0.00826684 10.0029 4.29653e-19)
(-0.00422427 10.0031 7.98049e-19)
(-0.00172632 10.0025 5.55914e-19)
(-0.000359943 10.0016 -1.72135e-19)
(0.000156711 10.0006 0)
(5.56181e-05 10.0001 0)
(-0.100443 9.97593 0)
(-0.134043 9.96615 0)
(-0.175742 9.9558 0)
(-0.226775 9.94586 0)
(-0.288352 9.9378 0)
(-0.36154 9.93368 0)
(-0.44711 9.93624 0)
(-0.54528 9.949 0)
(-0.655431 9.97625 0)
(-0.775735 10.0229 0)
(-0.902753 10.0945 0)
(-1.03103 10.1962 0)
(-1.15284 10.3328 0)
(-1.25854 10.5063 0)
(-1.34091 10.7098 0)
(-1.39661 10.9341 0)
(-1.42189 11.1732 0)
(-1.4145 11.4207 0)
(-1.37379 11.6694 0)
(-1.31047 11.9319 0)
(-1.216 12.206 0)
(-1.09441 12.4611 0)
(-0.970476 12.6917 0)
(-0.848479 12.9 0)
(-0.731271 13.0874 0)
(-0.62066 13.254 0)
(-0.51757 13.3982 0)
(-0.422263 13.5157 0)
(-0.334688 13.5998 0)
(-0.254261 13.6415 0)
(-0.181154 13.6255 0)
(-0.114655 13.4935 0)
(-0.0559061 12.9417 0)
(-0.0143707 11.1351 0)
(-0.0993971 9.97322 0)
(-0.0722943 9.98229 -8.21663e-22)
(-0.0503654 9.98941 0)
(-0.0341402 9.99485 -4.13407e-22)
(-0.022288 9.9987 0)
(-0.0138293 10.0011 -4.53957e-19)
(-0.00797943 10.0024 -8.43302e-19)
(-0.00411341 10.0027 1.33592e-23)
(-0.00173065 10.0023 3.6371e-19)
(-0.000422641 10.0015 -1.6893e-19)
(8.30055e-05 10.0005 1.56919e-19)
(2.75001e-05 10.0001 0)
(-0.132413 9.96221 0)
(-0.173573 9.95014 0)
(-0.223994 9.93782 0)
(-0.284926 9.92652 0)
(-0.357551 9.91804 0)
(-0.442841 9.91483 0)
(-0.54133 9.92009 0)
(-0.652869 9.93781 0)
(-0.7763 9.97269 0)
(-0.909066 10.0301 0)
(-1.04681 10.1155 0)
(-1.18304 10.2341 0)
(-1.30894 10.3902 0)
(-1.41401 10.5847 0)
(-1.49111 10.8091 0)
(-1.53771 11.0521 0)
(-1.55077 11.3073 0)
(-1.52892 11.5671 0)
(-1.48392 11.8432 0)
(-1.41182 12.1315 0)
(-1.29628 12.4078 0)
(-1.15591 12.6608 0)
(-1.01684 12.8862 0)
(-0.8829 13.0876 0)
(-0.756441 13.2671 0)
(-0.638732 13.4253 0)
(-0.530265 13.561 0)
(-0.430948 13.6704 0)
(-0.340437 13.7472 0)
(-0.257936 13.7823 0)
(-0.183361 13.7597 0)
(-0.115992 13.6189 0)
(-0.056411 13.0486 0)
(-0.0147708 11.2115 0)
(-0.13102 9.95872 0)
(-0.0972405 9.97036 6.41537e-19)
(-0.0693293 9.97993 -6.00444e-19)
(-0.04836 9.98762 5.56529e-19)
(-0.0327557 9.9935 0)
(-0.0213666 9.99769 0)
(-0.0132607 10.0004 4.45523e-19)
(-0.0076715 10.0018 -4.13761e-19)
(-0.00398811 10.0023 1.98163e-23)
(-0.00172517 10.0021 1.78508e-19)
(-0.000478751 10.0014 -1.65816e-19)
(1.42893e-05 10.0005 -1.54003e-19)
(2.61943e-06 10.0001 0)
(-0.171456 9.94511 0)
(-0.221243 9.93068 0)
(-0.281482 9.91649 0)
(-0.353412 9.90412 0)
(-0.438156 9.89573 0)
(-0.536504 9.89423 0)
(-0.648688 9.90326 0)
(-0.774102 9.92727 0)
(-0.910951 9.97139 0)
(-1.05585 10.0412 0)
(-1.20346 10.1422 0)
(-1.34622 10.2793 0)
(-1.4743 10.4561 0)
(-1.57643 10.6724 0)
(-1.64582 10.9175 0)
(-1.68104 11.1788 0)
(-1.67988 11.4485 0)
(-1.65515 11.7375 0)
(-1.60212 12.0414 0)
(-1.50783 12.3339 0)
(-1.37112 12.6093 0)
(-1.2124 12.8575 0)
(-1.05887 13.0759 0)
(-0.913698 13.269 0)
(-0.778686 13.4397 0)
(-0.654532 13.589 0)
(-0.541242 13.7159 0)
(-0.438374 13.817 0)
(-0.345291 13.8863 0)
(-0.261 13.9147 0)
(-0.185162 13.8856 0)
(-0.117084 13.7363 0)
(-0.0568046 13.1486 0)
(-0.0150925 11.2831 0)
(-0.169654 9.94066 0)
(-0.12812 9.95508 0)
(-0.0931161 9.96738 6.34178e-19)
(-0.0664622 9.97766 -1.17887e-18)
(-0.0463049 9.98591 1.09385e-18)
(-0.0313145 9.99221 -1.01515e-18)
(-0.0204038 9.99673 0)
(-0.0126633 9.99969 4.37404e-19)
(-0.00734308 10.0013 -4.06075e-19)
(-0.00384889 10.0019 -3.77237e-19)
(-0.00170942 10.0018 0)
(-0.000528298 10.0012 1.62739e-19)
(-5.01222e-05 10.0004 0)
(-2.01467e-05 10.0001 0)
(-0.218558 9.92435 0)
(-0.278069 9.90759 0)
(-0.349236 9.89174 0)
(-0.433263 9.87872 0)
(-0.531134 9.87113 0)
(-0.643395 9.8723 0)
(-0.769899 9.88637 0)
(-0.909488 9.9182 0)
(-1.05962 9.97325 0)
(-1.21601 10.0572 0)
(-1.37229 10.1755 0)
(-1.51987 10.3327 0)
(-1.64793 10.5312 0)
(-1.74464 10.7696 0)
(-1.80384 11.0351 0)
(-1.82539 11.3134 0)
(-1.82312 11.6142 0)
(-1.7914 11.9332 0)
(-1.71472 12.2437 0)
(-1.59776 12.537 0)
(-1.4401 12.8086 0)
(-1.26374 13.0499 0)
(-1.09658 13.2599 0)
(-0.941003 13.4437 0)
(-0.798168 13.6049 0)
(-0.668221 13.7448 0)
(-0.55065 13.8627 0)
(-0.444664 13.9554 0)
(-0.34935 14.0172 0)
(-0.263525 14.039 0)
(-0.186612 14.0035 0)
(-0.117962 13.8461 0)
(-0.0571051 13.242 0)
(-0.0153473 11.3503 0)
(-0.216285 9.91873 0)
(-0.165842 9.93607 0)
(-0.122529 9.95135 0)
(-0.0891476 9.96453 1.24505e-18)
(-0.0635352 9.9755 -1.15542e-18)
(-0.0441752 9.98428 1.07237e-18)
(-0.0298179 9.99098 0)
(-0.0194018 9.99582 -4.62107e-19)
(-0.0120377 9.99902 0)
(-0.00699498 10.0009 3.98569e-19)
(-0.00369674 10.0016 0)
(-0.00168334 10.0016 0)
(-0.000571059 10.0011 0)
(-0.000106598 10.0004 1.58203e-19)
(-3.9697e-05 10 7.72664e-20)
(-0.274736 9.89967 0)
(-0.345086 9.88073 0)
(-0.428302 9.86357 0)
(-0.525474 9.85052 0)
(-0.637393 9.8446 0)
(-0.764295 9.84962 0)
(-0.905558 9.87017 0)
(-1.05937 9.9115 0)
(-1.22236 9.9793 0)
(-1.38929 10.0793 0)
(-1.55275 10.2165 0)
(-1.70312 10.3949 0)
(-1.82877 10.6158 0)
(-1.91746 10.8765 0)
(-1.96393 11.1616 0)
(-1.98652 11.4729 0)
(-1.97868 11.8063 0)
(-1.922 12.1347 0)
(-1.82081 12.4481 0)
(-1.68111 12.7391 0)
(-1.50304 13.0044 0)
(-1.30994 13.2371 0)
(-1.1301 13.4373 0)
(-0.965006 13.611 0)
(-0.815095 13.7622 0)
(-0.679978 13.8925 0)
(-0.558643 14.0014 0)
(-0.449944 14.0859 0)
(-0.352709 14.1403 0)
(-0.265582 14.1555 0)
(-0.18776 14.1138 0)
(-0.118654 13.9486 0)
(-0.0573283 13.3292 0)
(-0.0155448 11.413 0)
(-0.271933 9.89265 0)
(-0.211369 9.91299 0)
(-0.158428 9.93143 1.4243e-18)
(-0.117176 9.9478 1.32067e-18)
(-0.0851068 9.96184 1.22478e-18)
(-0.0605125 9.97346 -1.13594e-18)
(-0.041973 9.98274 0)
(-0.0282691 9.98983 0)
(-0.0183621 9.99496 0)
(-0.0113854 9.99839 8.42756e-19)
(-0.00662883 10.0004 3.91272e-19)
(-0.00352961 10.0013 3.63375e-19)
(-0.00164894 10.0014 0)
(-0.000607266 10.001 -1.67163e-19)
(-0.000156244 10.0003 -8.16683e-20)
(-5.66118e-05 10 0)
(-0.34103 9.87094 0)
(-0.423349 9.85008 0)
(-0.519695 9.83214 0)
(-0.630991 9.81984 0)
(-0.757772 9.81669 0)
(-0.899874 9.82693 0)
(-1.0561 9.85559 0)
(-1.22391 9.90822 0)
(-1.39902 9.99062 0)
(-1.57521 10.1084 0)
(-1.74404 10.2661 0)
(-1.89497 10.4667 0)
(-2.01567 10.7106 0)
(-2.09366 10.9929 0)
(-2.14383 11.3131 0)
(-2.1628 11.6598 0)
(-2.12893 12.0058 0)
(-2.04594 12.3399 0)
(-1.91978 12.6529 0)
(-1.75762 12.9388 0)
(-1.55994 13.1956 0)
(-1.35113 13.418 0)
(-1.15965 13.6075 0)
(-0.98593 13.7706 0)
(-0.829688 13.9116 0)
(-0.689993 14.0323 0)
(-0.565375 14.1322 0)
(-0.454332 14.2085 0)
(-0.355459 14.2556 0)
(-0.267235 14.2645 0)
(-0.18865 14.2168 0)
(-0.119189 14.0442 0)
(-0.057486 13.4104 0)
(-0.0156956 11.4715 0)
(-0.337645 9.86224 0)
(-0.265694 9.88552 0)
(-0.201719 9.90726 -3.0131e-18)