/*--------------------------------*- C++ -*----------------------------------*\
  =========                 |
  \\      /  F ield         | OpenFOAM: The Open Source CFD Toolbox
   \\    /   O peration     | Website:  https://openfoam.org
    \\  /    A nd           | Version:  8
     \\/     M anipulation  |
\*---------------------------------------------------------------------------*/
FoamFile
{
    version     2.0;
    format      ascii;
    class       volScalarField;
    location    "0.47";
    object      k;
}
// * * * * * * * * * * * * * * * * * * * * * * * * * * * * * * * * * * * * * //

dimensions      [0 2 -2 0 0 0 0];

internalField   nonuniform List<scalar> 
15677
(
0.334001
0.364694
0.294331
0.368623
0.357004
0.280619
0.370647
0.359735
0.365623
0.282407
0.371862
0.361475
0.361161
0.383006
0.288648
0.3726
0.36366
0.35758
0.368091
0.401507
0.300169
0.373035
0.365617
0.357764
0.358011
0.37995
0.41929
0.311732
0.373263
0.367156
0.359415
0.354506
0.360927
0.393203
0.434732
0.322592
0.37335
0.36829
0.36133
0.354723
0.352999
0.36683
0.406112
0.447904
0.332122
0.373351
0.369074
0.363049
0.356309
0.351086
0.353452
0.373513
0.41826
0.458799
0.340546
0.373315
0.369563
0.364433
0.358201
0.351909
0.348764
0.354758
0.380674
0.429114
0.467998
0.347659
0.373275
0.369823
0.365458
0.359949
0.353705
0.348371
0.347137
0.357104
0.387651
0.438877
0.47555
0.353908
0.373248
0.369926
0.366147
0.36139
0.355658
0.349759
0.345354
0.346322
0.359704
0.39446
0.447326
0.482014
0.359119
0.373237
0.369939
0.366548
0.362475
0.357424
0.35172
0.34621
0.342931
0.345894
0.362616
0.400723
0.454832
0.487351
0.363795
0.373236
0.369921
0.366737
0.363209
0.358861
0.353683
0.348078
0.3431
0.340872
0.345911
0.365488
0.406612
0.461209
0.49195
0.367873
0.373237
0.369906
0.366794
0.363636
0.359921
0.355394
0.350164
0.34476
0.340304
0.339204
0.346049
0.368406
0.411818
0.466851
0.495771
0.371473
0.373237
0.369899
0.366794
0.363835
0.360614
0.356743
0.352097
0.346891
0.341713
0.337831
0.337758
0.346385
0.371102
0.416625
0.471545
0.499143
0.374773
0.373237
0.369896
0.366784
0.363892
0.360996
0.357697
0.353701
0.34899
0.343848
0.338936
0.335598
0.336538
0.346791
0.373743
0.420711
0.475676
0.502061
0.377578
0.373237
0.369896
0.366775
0.3639
0.361144
0.358284
0.354901
0.35081
0.346078
0.341032
0.336394
0.333597
0.335474
0.347309
0.376036
0.424403
0.479089
0.504629
0.38042
0.373236
0.369896
0.366768
0.363896
0.361187
0.358554
0.355694
0.352235
0.348088
0.343359
0.338435
0.334073
0.331793
0.334589
0.347761
0.378195
0.427421
0.482073
0.507019
0.382634
0.373236
0.369896
0.366764
0.36389
0.361191
0.358659
0.356093
0.353232
0.34972
0.345533
0.340846
0.336049
0.331965
0.330189
0.333805
0.348249
0.379955
0.430111
0.484541
0.509063
0.385272
0.373236
0.369896
0.36676
0.363886
0.361183
0.358692
0.356266
0.353777
0.350909
0.347354
0.34317
0.338528
0.333882
0.330063
0.32877
0.333145
0.348627
0.381571
0.432202
0.486687
0.511211
0.387031
0.373236
0.369895
0.366758
0.363883
0.361173
0.358697
0.356328
0.354039
0.351592
0.34873
0.345169
0.340989
0.336432
0.331928
0.328391
0.327528
0.332573
0.348998
0.382783
0.434076
0.488481
0.512923
0.389648
0.373236
0.369895
0.366756
0.363881
0.361164
0.358692
0.356341
0.354155
0.351936
0.34956
0.34672
0.343154
0.339033
0.334557
0.330227
0.32693
0.326483
0.332097
0.349267
0.383907
0.435416
0.49008
0.515086
0.391071
0.373236
0.369894
0.366755
0.363878
0.361157
0.358685
0.356335
0.354196
0.352095
0.35001
0.347683
0.344877
0.341371
0.337299
0.332945
0.328763
0.325736
0.325636
0.331754
0.349527
0.384645
0.436699
0.491389
0.51654
0.393696
0.373236
0.369894
0.366754
0.363876
0.361151
0.358678
0.356322
0.354204
0.352153
0.350238
0.348215
0.34599
0.343269
0.339797
0.335842
0.331612
0.327629
0.324808
0.325016
0.331463
0.349717
0.385386
0.437479
0.49278
0.519092
0.395066
0.373237
0.369894
0.366753
0.363874
0.361147
0.358672
0.35631
0.354198
0.352164
0.35034
0.348489
0.34664
0.344509
0.341861
0.338547
0.33471
0.330627
0.326764
0.324151
0.324629
0.331451
0.349984
0.385827
0.438424
0.493682
0.520753
0.504921
0.373237
0.369893
0.366753
0.363872
0.361144
0.358666
0.356299
0.354187
0.352154
0.350375
0.348611
0.347003
0.345232
0.343268
0.340829
0.337586
0.333882
0.329963
0.326362
0.323973
0.324663
0.331546
0.350219
0.386316
0.438872
0.495686
0.529483
0.711464
0.373237
0.369893
0.366753
0.363871
0.361142
0.358662
0.35629
0.354174
0.352137
0.350375
0.348651
0.347183
0.345632
0.344141
0.342362
0.340006
0.337059
0.333659
0.329981
0.326459
0.324127
0.32488
0.331796
0.350541
0.386686
0.439785
0.496299
0.546336
0.887183
0.373237
0.369892
0.366753
0.363869
0.361141
0.358657
0.356284
0.354163
0.35212
0.35036
0.348651
0.347256
0.34583
0.344661
0.343285
0.341765
0.339888
0.33716
0.333881
0.330296
0.326868
0.324589
0.325383
0.332303
0.350995
0.387104
0.440506
0.496025
0.559213
1.02926
0.373238
0.369892
0.366753
0.363868
0.361139
0.358654
0.356278
0.354153
0.352105
0.35034
0.348633
0.347268
0.345912
0.34494
0.343823
0.342924
0.341851
0.340157
0.337632
0.334539
0.331089
0.327767
0.325525
0.326337
0.33313
0.351589
0.387737
0.440264
0.49456
0.56877
1.15204
0.373238
0.369891
0.366753
0.363867
0.361139
0.35865
0.356274
0.354145
0.352093
0.350321
0.34861
0.347251
0.345932
0.345062
0.344113
0.343649
0.3431
0.3423
0.340914
0.33868
0.335875
0.332618
0.329345
0.327044
0.327693
0.334274
0.352444
0.388225
0.439371
0.491473
0.575296
1.2513
0.373238
0.369891
0.366754
0.363866
0.361138
0.358647
0.356271
0.354137
0.352082
0.350304
0.348587
0.347223
0.34592
0.345092
0.344258
0.344069
0.34389
0.3437
0.343317
0.342432
0.340609
0.338045
0.334884
0.331579
0.329102
0.329502
0.335776
0.353483
0.388595
0.437515
0.486088
0.579578
1.32415
0.373238
0.369891
0.366754
0.363865
0.361138
0.358645
0.356268
0.354131
0.352074
0.350289
0.348567
0.347193
0.345891
0.345076
0.344317
0.344274
0.344356
0.344603
0.344957
0.34525
0.344881
0.343413
0.341053
0.33794
0.334495
0.331765
0.331771
0.337643
0.354712
0.38855
0.434277
0.479399
0.58225
1.37929
0.373238
0.36989
0.366754
0.363864
0.361138
0.358642
0.356266
0.354125
0.352067
0.350276
0.348549
0.347166
0.34586
0.345041
0.344321
0.344352
0.344604
0.345155
0.346052
0.347179
0.348132
0.348316
0.34719
0.344997
0.341829
0.338167
0.335036
0.334536
0.339867
0.356055
0.388272
0.430053
0.47262
0.584562
1.42273
0.36989
0.373242
0.366754
0.363863
0.361138
0.35864
0.356265
0.35412
0.352061
0.350264
0.348534
0.347142
0.34583
0.345002
0.344295
0.344366
0.344716
0.345472
0.346755
0.348501
0.350415
0.352107
0.352859
0.352053
0.349934
0.346632
0.342601
0.338962
0.337762
0.342425
0.357647
0.387637
0.425568
0.466315
0.586862
1.45842
0.366755
0.3699
0.37325
0.363862
0.361137
0.358638
0.356263
0.354115
0.352056
0.350254
0.348521
0.347121
0.345802
0.344965
0.344258
0.344346
0.344753
0.345639
0.347191
0.349388
0.352031
0.354836
0.357319
0.358646
0.358082
0.355959
0.352367
0.347854
0.3435
0.341458
0.345632
0.359633
0.386714
0.421238
0.46057
0.589596
1.48891
0.363862
0.366771
0.369921
0.373258
0.361137
0.358636
0.356263
0.354111
0.352052
0.350245
0.34851
0.347103
0.345778
0.344931
0.34422
0.344313
0.344749
0.345717
0.347453
0.349977
0.353167
0.356833
0.360609
0.363926
0.36578
0.365385
0.363098
0.359095
0.353879
0.348664
0.346041
0.349525
0.361743
0.385887
0.41715
0.4556
0.59265
1.51576
0.361137
0.363883
0.366805
0.369942
0.373266
0.358635
0.356262
0.354108
0.352049
0.350237
0.348501
0.347087
0.345757
0.344902
0.344185
0.344278
0.344729
0.345747
0.347608
0.350371
0.353972
0.358303
0.363099
0.367917
0.372059
0.374391
0.374003
0.371425
0.366772
0.360696
0.355041
0.351766
0.353717
0.364036
0.38505
0.413456
0.451268
0.596179
1.54004
0.358633
0.361165
0.363928
0.36684
0.369964
0.373274
0.356261
0.354104
0.352047
0.35023
0.348493
0.347073
0.345739
0.344876
0.344154
0.344245
0.344703
0.345753
0.3477
0.350645
0.354562
0.35941
0.365014
0.37104
0.376919
0.38187
0.384536
0.384027
0.380898
0.375426
0.369082
0.362929
0.358042
0.358183
0.366445
0.384518
0.410097
0.447654
0.59996
1.56228
0.356261
0.358664
0.361221
0.363973
0.366876
0.369986
0.373282
0.354101
0.352045
0.350224
0.348486
0.347061
0.345724
0.344854
0.344127
0.344215
0.344678
0.34575
0.347758
0.350843
0.355021
0.360286
0.366541
0.373545
0.380845
0.387799
0.393442
0.396329
0.395416
0.391556
0.386047
0.379416
0.371535
0.364774
0.362866
0.369032
0.384095
0.407128
0.444555
0.604063
1.58299
0.354099
0.356296
0.358727
0.361278
0.36402
0.366913
0.370009
0.373291
0.352043
0.350218
0.348481
0.34705
0.34571
0.344835
0.344102
0.344189
0.344656
0.345745
0.3478
0.350994
0.355391
0.361023
0.367826
0.375647
0.384128
0.392742
0.40067
0.406918
0.409734
0.408227
0.40463
0.399113
0.390656
0.380737
0.371866
0.367728
0.371721
0.384111
0.404594
0.441958
0.608263
1.60227
0.352041
0.354136
0.35637
0.358792
0.361337
0.364068
0.366951
0.370033
0.3733
0.350213
0.348477
0.34704
0.345699
0.344818
0.344081
0.344166
0.344636
0.345739
0.347834
0.35112
0.355698
0.361658
0.368972
0.377508
0.387005
0.397036
0.40689
0.415724
0.422284
0.424844
0.423942
0.420704
0.413307
0.402647
0.390413
0.379234
0.372727
0.374428
0.384252
0.40243
0.439766
0.612637
1.62045
0.350209
0.352083
0.354214
0.356445
0.358859
0.361397
0.364117
0.366989
0.370057
0.373309
0.348473
0.347031
0.345689
0.344803
0.344063
0.344146
0.344618
0.345735
0.347864
0.35123
0.355965
0.36221
0.370009
0.379246
0.389663
0.400948
0.412479
0.423535
0.432987
0.439687
0.443414
0.443287
0.438159
0.428432
0.415233
0.400446
0.386792
0.377848
0.377159
0.38457
0.400618
0.437959
0.616974
1.63744
0.34847
0.350249
0.352169
0.354294
0.356523
0.358928
0.36146
0.364168
0.367029
0.370082
0.373318
0.347023
0.345681
0.34479
0.344047
0.344129
0.344604
0.345732
0.347892
0.351328
0.356204
0.362704
0.37094
0.380875
0.392236
0.404696
0.417753
0.430779
0.44274
0.452664
0.461205
0.466395
0.464342
0.456758
0.444281
0.428255
0.410717
0.394461
0.38303
0.379895
0.385087
0.399094
0.436454
0.621382
1.65353
0.347016
0.348513
0.350336
0.352258
0.354377
0.356603
0.358999
0.361523
0.36422
0.36707
0.370107
0.373328
0.345674
0.344778
0.344032
0.344114
0.344591
0.34573
0.347917
0.351418
0.356421
0.363152
0.371788
0.38237
0.394715
0.408439
0.422965
0.437833
0.452056
0.464806
0.477142
0.488043
0.49157
0.486845
0.476261
0.460662
0.441559
0.421113
0.402167
0.388218
0.382644
0.38577
0.397858
0.435236
0.625651
1.66854
0.345669
0.347053
0.348605
0.350425
0.35235
0.354462
0.356685
0.359072
0.361589
0.364273
0.367112
0.370134
0.373337
0.344767
0.34402
0.344101
0.34458
0.345728
0.34794
0.3515
0.356619
0.363563
0.372567
0.383752
0.397037
0.412137
0.428307
0.445005
0.461393
0.476742
0.492474
0.507956
0.517681
0.518675
0.510553
0.496449
0.477382
0.454994
0.431527
0.40984
0.393371
0.385376
0.386512
0.396877
0.434248
0.629936
1.68278
0.344758
0.345706
0.347137
0.348699
0.350518
0.352445
0.35455
0.35677
0.359147
0.361656
0.364328
0.367155
0.370161
0.373347
0.344008
0.34409
0.344571
0.345728
0.347962
0.351575
0.356799
0.363938
0.373285
0.385034
0.399214
0.415659
0.433689
0.452538
0.471136
0.489038
0.507987
0.527709
0.542341
0.549874
0.547428
0.535215
0.51709
0.494259
0.468424
0.441864
0.417419
0.398448
0.388101
0.387287
0.396105
0.433465
0.634009
1.69601
0.344
0.344782
0.345786
0.347224
0.348797
0.350613
0.352542
0.354641
0.356856
0.359225
0.361725
0.364385
0.367199
0.370187
0.373356
0.34408
0.344562
0.345727
0.347981
0.351643
0.356963
0.364282
0.373945
0.386224
0.401256
0.418999
0.438895
0.460297
0.481602
0.502189
0.524416
0.548342
0.567549
0.580132
0.58437
0.577551
0.560575
0.537987
0.511129
0.48173
0.452044
0.424852
0.403419
0.390805
0.38809
0.395504
0.432853
0.638071
1.70858
0.344074
0.344008
0.344841
0.345869
0.347315
0.348899
0.350712
0.352642
0.354734
0.356945
0.359304
0.361796
0.364443
0.367242
0.370213
0.373365
0.344553
0.345726
0.347999
0.351704
0.357112
0.364596
0.374551
0.387325
0.403166
0.422158
0.443899
0.467942
0.492571
0.516625
0.542454
0.570895
0.594723
0.612008
0.621182
0.620932
0.608767
0.586374
0.558945
0.527853
0.494812
0.461998
0.432095
0.408259
0.393465
0.388914
0.395047
0.432381
0.641873
1.72019
0.344549
0.34406
0.344031
0.3449
0.345957
0.347409
0.349005
0.350814
0.352746
0.35483
0.357037
0.359386
0.361869
0.364501
0.367284
0.370239
0.373374
0.345724
0.348013
0.35176
0.357248
0.364882
0.375107
0.388342
0.404945
0.425134
0.44869
0.475387
0.50351
0.53209
0.56278
0.596432
0.625401
0.64754
0.661236
0.665426
0.659353
0.640826
0.612389
0.579794
0.544309
0.507585
0.471669
0.439114
0.412949
0.396065
0.389753
0.394702
0.432034
0.645657
1.73125
0.345727
0.344506
0.344032
0.344064
0.344963
0.346052
0.347507
0.349114
0.35092
0.352852
0.35493
0.357131
0.35947
0.36194
0.364557
0.367325
0.370263
0.373382
0.348025
0.35181
0.357372
0.365143
0.375615
0.389278
0.406595
0.427924
0.453254
0.482579
0.514281
0.547896
0.585128
0.626069
0.661346
0.689238
0.707701
0.71568
0.712929
0.699489
0.673517
0.638427
0.600387
0.560398
0.519984
0.481014
0.445881
0.417471
0.398591
0.390596
0.394462
0.43178
0.64915
1.7414
0.348044
0.345643
0.34441
0.343986
0.344113
0.345029
0.346151
0.347608
0.349227
0.351029
0.352961
0.355032
0.357227
0.359553
0.36201
0.364611
0.367365
0.370287
0.373391
0.351853
0.357482
0.36538
0.376078
0.390136
0.408121
0.430531
0.457572
0.489475
0.524837
0.563862
0.608396
0.65959
0.704843
0.740601
0.765108
0.776874
0.776098
0.76388
0.74126
0.706674
0.664331
0.620604
0.576046
0.531959
0.490003
0.452378
0.421815
0.401034
0.39144
0.394289
0.431617
0.652633
1.75109
0.351905
0.347891
0.345444
0.34431
0.343944
0.344173
0.345098
0.346256
0.347714
0.349343
0.351141
0.353073
0.355137
0.357322
0.359634
0.362077
0.364664
0.367403
0.370311
0.373399
0.35758
0.365594
0.376501
0.390923
0.409529
0.432956
0.461637
0.496049
0.535136
0.579836
0.632101
0.695709
0.757075
0.807008
0.840407
0.856928
0.857078
0.843308
0.818473
0.784594
0.740152
0.689972
0.640348
0.591191
0.543474
0.498613
0.458591
0.425973
0.403386
0.392274
0.394193
0.431512
0.655812
1.75885
0.357685
0.351669
0.347517
0.345239
0.344222
0.34391
0.344242
0.345172
0.346366
0.347825
0.349463
0.351258
0.353188
0.355241
0.357415
0.359713
0.362143
0.364716
0.367441
0.370333
0.373406
0.365785
0.376883
0.391643
0.410823
0.435204
0.465446
0.502287
0.545124
0.595614
0.656018
0.73458
0.817827
0.892639
0.943586
0.967293
0.967989
0.949707
0.917753
0.876734
0.829376
0.773818
0.715242
0.659546
0.60579
0.554505
0.506831
0.464513
0.429939
0.405643
0.393096
0.394135
0.431473
0.658558
1.76537
0.365977
0.357338
0.351056
0.34713
0.345055
0.344142
0.343883
0.344318
0.345252
0.34648
0.34794
0.349587
0.351378
0.353302
0.355343
0.357504
0.35979
0.362207
0.364766
0.367477
0.370355
0.373414
0.377228
0.392297
0.412012
0.437284
0.469003
0.50818
0.554741
0.611027
0.680155
0.776791
0.887742
0.996332
1.07984
1.12124
1.12384
1.09894
1.05468
0.999156
0.938393
0.875396
0.807528
0.740052
0.678144
0.61981
0.565038
0.514651
0.470142
0.433712
0.4078
0.393899
0.394135
0.43148
0.660811
1.7724
0.377563
0.365491
0.356389
0.350424
0.346775
0.344885
0.344072
0.343867
0.3444
0.345339
0.346597
0.348061
0.349713
0.351498
0.353412
0.355442
0.357592
0.359864
0.362269
0.364814
0.367513
0.370377
0.373421
0.392893
0.413098
0.439204
0.472314
0.513726
0.56394
0.625983
0.704661
0.82252
0.966041
1.11495
1.24136
1.3202
1.33793
1.30724
1.24736
1.17029
1.08647
1.00286
0.922337
0.841121
0.764318
0.696098
0.633235
0.575068
0.522074
0.475477
0.437293
0.409858
0.394682
0.394143
0.4315
0.663323
1.78004
0.393453
0.376901
0.364072
0.355413
0.349835
0.346443
0.344727
0.344012
0.343861
0.344485
0.345433
0.346719
0.348186
0.349839
0.351615
0.35352
0.355538
0.357677
0.359937
0.362329
0.364862
0.367547
0.370398
0.373425
0.414094
0.440971
0.47539
0.518929
0.572692
0.640457
0.729641
0.871245
1.05029
1.24318
1.41852
1.54671
1.60513
1.58572
1.51124
1.40884
1.29374
1.17809
1.0693
0.969798
0.874421
0.787967
0.713381
0.646053
0.584594
0.529101
0.480525
0.440683
0.411814
0.395344
0.394161
0.431552
0.666023
1.78833
0.415008
0.392581
0.374831
0.362621
0.354498
0.349275
0.34613
0.344581
0.343962
0.343867
0.344572
0.345537
0.346843
0.348313
0.349961
0.35173
0.353625
0.355632
0.357759
0.360008
0.362388
0.364908
0.36758
0.370408
0.373425
0.442603
0.478238
0.523793
0.580987
0.65446
0.755051
0.921928
1.13748
1.37533
1.60229
1.78626
1.89958
1.92322
1.85523
1.72877
1.57844
1.42188
1.27217
1.13675
1.01733
0.907243
0.81093
0.729971
0.658263
0.593621
0.535742
0.48529
0.443887
0.413425
0.395914
0.394199
0.431628
0.669056
1.79737
0.444072
0.413884
0.389611
0.372727
0.361254
0.353621
0.348738
0.345837
0.344447
0.343923
0.34389
0.344661
0.34565
0.346966
0.348438
0.35008
0.351842
0.353727
0.355724
0.35784
0.360077
0.362445
0.364952
0.367597
0.370408
0.373425
0.480886
0.528332
0.58883
0.668003
0.780717
0.973382
1.2249
1.50682
1.78548
2.02809
2.20402
2.28771
2.26407
2.13806
1.95344
1.75161
1.5517
1.36694
1.20424
1.06446
0.939405
0.833147
0.745854
0.669868
0.602161
0.542007
0.489781
0.446511
0.414795
0.39655
0.394252
0.431773
0.672308
1.80717
0.483227
0.442639
0.409677
0.386617
0.37074
0.359938
0.352775
0.34822
0.345566
0.344324
0.343891
0.343939
0.344749
0.345767
0.347086
0.348561
0.350196
0.351951
0.353826
0.355813
0.357918
0.360143
0.3625
0.364975
0.367597
0.370408
0.373425
0.53258
0.596242
0.681097
0.806383
1.02453
1.31052
1.63452
1.96327
2.26454
2.50675
2.66005
2.70094
2.61911
2.42729
2.18003
1.92464
1.68072
1.46084
1.27091
1.11078
0.970739
0.854564
0.761023
0.680876
0.610227
0.547908
0.49345
0.448733
0.416298
0.397259
0.394338
0.43194
0.675976
1.81788
0.536292
0.481427
0.436726
0.405472
0.383784
0.368821
0.358664
0.351958
0.347723
0.345312
0.34421
0.343849
0.344008
0.344837
0.345885
0.347205
0.348681
0.35031
0.352057
0.353923
0.3559
0.357994
0.360208
0.362527
0.364975
0.367597
0.370408
0.373425
0.603267
0.693761
0.831795
1.0745
1.39299
1.7565
2.1327
2.49067
2.7994
3.02726
3.14471
3.13082
2.98124
2.7174
2.40446
2.09465
1.80697
1.55259
1.33602
1.15591
1.00109
0.875137
0.775475
0.691299
0.617833
0.552726
0.496552
0.451161
0.417948
0.398054
0.394448
0.432208
0.679917
1.82946
0.6094
0.534029
0.473134
0.430874
0.401485
0.381042
0.366958
0.357431
0.351171
0.347249
0.345075
0.34411
0.343811
0.344089
0.344926
0.346003
0.347321
0.348799
0.35042
0.352161
0.354017
0.355984
0.358067
0.360241
0.362527
0.364975
0.367597
0.370408
0.373425
0.70601
0.85674
1.12268
1.47145
1.87168
2.29216
2.70355
3.07645
3.37959
3.58035
3.64956
3.56998
3.34452
3.00398
2.62368
2.25953
1.92903
1.64127
1.399
1.19954
1.03034
0.894831
0.789214
0.70115
0.624049
0.556799
0.499935
0.453814
0.419762
0.398944
0.394607
0.432507
0.684388
1.84212
0.716792
0.606581
0.522305
0.46502
0.425315
0.39762
0.378375
0.36515
0.356238
0.350416
0.346803
0.34486
0.34402
0.343786
0.344175
0.345015
0.346119
0.347435
0.348914
0.350529
0.352262
0.354108
0.356066
0.358104
0.360241
0.362527
0.364975
0.367597
0.370408
0.373421
0.881015
1.16866
1.54541
1.97954
2.44089
2.90168
3.33459
3.71025
3.99591
4.15752
4.16686
4.01182
3.70389
3.28354
2.8354
2.41782
2.0459
1.72622
1.45943
1.24145
1.05838
0.913624
0.802244
0.709217
0.629307
0.561239
0.503626
0.456717
0.421757
0.399944
0.3948
0.43295
0.689206
1.85575
0.713378
0.902362
0.589353
0.511053
0.457296
0.419918
0.393854
0.37578
0.363398
0.355089
0.349696
0.346387
0.344665
0.343946
0.343775
0.344262
0.345108
0.346233
0.347549
0.349026
0.350634
0.35236
0.354197
0.356107
0.358104
0.36024
0.362527
0.364975
0.367597
0.370397
0.373414
1.21215
1.61471
2.0799
2.57866
3.08451
3.57219
4.01509
4.38264
4.63969
4.75064
4.68928
4.45035
4.05508
3.55339
3.03801
2.56853
2.15698
1.807
1.51701
1.28145
1.08515
0.931495
0.812942
0.716049
0.635045
0.566084
0.507656
0.459894
0.423955
0.401064
0.395068
0.43344
0.694704
1.87065
0.686404
0.899431
1.24958
0.573332
0.500347
0.449787
0.414655
0.390187
0.373262
0.361705
0.353987
0.349012
0.346002
0.344493
0.343888
0.343777
0.344348
0.345203
0.346344
0.34766
0.349136
0.350737
0.352456
0.354241
0.356106
0.358104
0.36024
0.362527
0.364975
0.36758
0.370376
0.373406
1.67924
2.1729
2.70563
3.25209
3.78884
4.29216
4.73507
5.08464
5.3025
5.35175
5.20982
4.88022
4.39457
3.81151
3.23046
2.71111
2.26191
1.88336
1.57157
1.31946
1.11059
0.946198
0.822023
0.723518
0.641312
0.571371
0.512057
0.463372
0.426378
0.40233
0.395386
0.434133
0.700657
1.88659
0.661771
0.856023
1.24743
1.73415
0.558295
0.489926
0.442462
0.409524
0.386622
0.370824
0.360075
0.352933
0.348371
0.345658
0.344346
0.343847
0.343795
0.344431
0.3453
0.346453
0.34777
0.349242
0.350838
0.352503
0.354241
0.356106
0.358103
0.36024
0.362527
0.364952
0.367546
0.370355
0.373398
2.25866
2.82224
3.40496
3.98497
4.54119
5.05065
5.48498
5.80757
5.97601
5.95301
5.72194
5.29675
4.71953
4.05646
3.4121
2.84529
2.36055
1.95523
1.62305
1.3554
1.1315
0.958694
0.831972
0.731691
0.648161
0.577146
0.516866
0.467183
0.429052
0.40375
0.395809
0.434897
0.707485
1.904
0.639069
0.815347
1.18306
1.73374
2.33121
0.543774
0.479746
0.435322
0.404534
0.383168
0.368473
0.358512
0.351938
0.347788
0.345358
0.344222
0.343816
0.343831
0.344512
0.345399
0.346559
0.347878
0.349347
0.350888
0.352502
0.354241
0.356106
0.358103
0.36024
0.362499
0.364907
0.367512
0.370332
0.37339
2.92891
3.54402
4.16164
4.76311
5.32928
5.83731
6.2559
6.54303
6.65194
6.54685
6.21961
5.69597
5.02784
4.28735
3.58265
2.97099
2.45293
2.0226
1.6714
1.38478
1.14925
0.972401
0.842882
0.74064
0.655651
0.583457
0.522123
0.471361
0.432003
0.405359
0.39631
0.435941
0.714922
1.92242
0.617619
0.777313
1.12003
1.65051
2.33364
3.01845
0.529646
0.469815
0.428379
0.399695
0.379833
0.366213
0.357031
0.351026
0.347266
0.345101
0.344115
0.343786
0.343884
0.34459
0.345499
0.346663
0.347985
0.349397
0.350887
0.352502
0.354241
0.356106
0.358103
0.360207
0.362443
0.36486
0.367476
0.37031
0.373382
3.67006
4.3204
4.95978
5.57261
6.14163
6.64276
7.03955
7.28278
7.32208
7.12596
6.6975
6.07474
5.31809
4.50372
3.74206
3.08835
2.53917
2.08555
1.71072
1.40965
1.1687
0.987447
0.854856
0.750448
0.663848
0.590357
0.527873
0.475943
0.435266
0.407168
0.396957
0.437098
0.723505
1.94252
0.597164
0.741431
1.05849
1.56712
2.23356
3.02415
3.7745
0.515892
0.460158
0.421649
0.395019
0.376626
0.364067
0.355668
0.350207
0.346798
0.344879
0.344026
0.343757
0.343948
0.344667
0.3456
0.346767
0.348037
0.349395
0.350887
0.352501
0.35424
0.356106
0.358066
0.360141
0.362386
0.364812
0.367439
0.370286
0.373374
4.46261
5.13368
5.78359
6.4005
6.96811
7.45888
7.82822
8.01868
7.97827
7.68356
7.15111
6.43079
5.58942
4.70545
3.89053
3.19761
2.61947
2.1365
1.74385
1.43678
1.19
1.00397
0.868007
0.761205
0.672825
0.597905
0.534164
0.480971
0.438874
0.409222
0.397724
0.438638
0.732902
1.96347
0.577597
0.707606
0.998194
1.48359
2.13235
2.90864
3.78253
4.57803
0.502528
0.450802
0.415151
0.390522
0.373576
0.362089
0.35444
0.349472
0.346383
0.344688
0.343952
0.343736
0.344017
0.344745
0.345704
0.346815
0.348035
0.349395
0.350886
0.352501
0.35424
0.356064
0.357991
0.360074
0.362327
0.364763
0.367402
0.370262
0.373365
5.28698
5.96599
6.61829
7.23551
7.80051
8.27873
8.61451
8.7424
8.61251
8.21359
7.57696
6.76263
5.84151
4.89276
4.0284
3.29909
2.68426
2.17931
1.77987
1.46638
1.21335
1.02213
0.882458
0.77301
0.682662
0.606166
0.541049
0.486489
0.442866
0.411537
0.398689
0.440354
0.743836
1.99024
0.558856
0.675869
0.939353
1.39956
2.02989
2.79159
3.65202
4.58579
5.4075
0.489584
0.441779
0.408903
0.386246
0.370765
0.360305
0.353335
0.348813
0.346018
0.344525
0.34389
0.343725
0.34409
0.344828
0.345755
0.346809
0.348035
0.349394
0.350886
0.352501
0.354196
0.355981
0.357914
0.360004
0.362266
0.364713
0.367363
0.370238
0.373356
6.12312
6.80056
7.45113
8.06897
8.6327
9.09624
9.3909
9.44541
9.21721
8.71101
7.9726
7.06954
6.07455
5.06609
4.15611
3.38077
2.73858
2.22568
1.81897
1.49866
1.23892
1.04207
0.898343
0.785971
0.693446
0.615212
0.548589
0.492546
0.447286
0.414166
0.399845
0.442362
0.758023
2.02145
0.540904
0.646251
0.882427
1.31501
1.92568
2.67261
3.52032
4.43941
5.41054
6.24174
0.477099
0.433119
0.402967
0.382305
0.368227
0.358696
0.352341
0.348225
0.345697
0.344384
0.343841
0.343725
0.344174
0.344861
0.345751
0.346808
0.348035
0.349394
0.350886
0.352453
0.354105
0.355896
0.357835
0.359933
0.362203
0.364662
0.367324
0.370213
0.373347
6.95214
7.62281
8.27248
8.89524
9.45999
9.90552
10.1493
10.119
9.78552
9.17192
8.3366
7.35157
6.28904
5.22602
4.25862
3.44913
2.79727
2.27586
1.86141
1.53381
1.2669
1.06396
0.915806
0.800209
0.705274
0.625121
0.556846
0.4992
0.452182
0.41714
0.401251
0.445146
0.776615
2.05179
0.523722
0.618724
0.828005
1.23027
1.81941
2.55117
3.38665
4.29318
5.24576
6.23429
7.06046
0.465115
0.424909
0.397498
0.378747
0.365936
0.357245
0.351448
0.347701
0.345416
0.344263
0.343806
0.343748
0.344213
0.344845
0.345753
0.346807
0.348034
0.349396
0.350836
0.352356
0.354012
0.355808
0.357754
0.35986
0.36214
0.364609
0.367283
0.370187
0.373337
7.75742
8.42174
9.07685
9.71068
10.2787
10.7002
10.8811
10.7547
10.3116
9.59376
8.66866
7.60929
6.48576
5.35383
4.34422
3.52283
2.86062
2.33011
1.90741
1.57206
1.29749
1.088
0.935
0.815851
0.718253
0.635979
0.565893
0.506505
0.457606
0.420516
0.403264
0.448906
0.797339
2.08067
0.507306
0.593197
0.776724
1.14591
1.71105
2.42668
3.25056
4.14582
5.08383
6.04623
7.03523
7.84489
0.453757
0.417366
0.392567
0.375539
0.36387
0.355939
0.350647
0.347234
0.345169
0.344162
0.3438
0.343746
0.344204
0.344842
0.345752
0.346807
0.348035
0.349344
0.350733
0.352256
0.353917
0.355718
0.357671
0.359785
0.362074
0.364554
0.367241
0.37016
0.373327
8.52615
9.19213
9.85931
10.511
11.085
11.473
11.5767
11.3443
10.7911
9.97546
8.96933
7.8437
6.64197
5.4602
4.43625
3.60218
2.92892
2.38869
1.95718
1.61361
1.33088
1.11434
0.956086
0.833034
0.732494
0.647881
0.575801
0.514532
0.463619
0.42506
0.406043
0.453433
0.82025
2.10772
0.491774
0.569509
0.729177
1.0627
1.60072
2.29872
3.11123
3.99704
4.92271
5.86569
6.817
7.79217
8.58097
0.443337
0.410579
0.388122
0.372647
0.362008
0.354765
0.34993
0.346817
0.344957
0.344104
0.343782
0.343717
0.344207
0.344841
0.345749
0.346812
0.347981
0.349237
0.350628
0.352154
0.35382
0.355626
0.357586
0.359708
0.362007
0.364499
0.367198
0.370134
0.373318
9.24972
9.92083
10.6089
11.2873
11.8719
12.2159
12.2258
11.8807
11.2214
10.3173
9.23986
8.02813
6.7713
5.57409
4.53502
3.6875
3.00244
2.45183
2.01096
1.65865
1.36727
1.14318
0.979225
0.851898
0.748117
0.66092
0.586662
0.523348
0.471522
0.430912
0.409353
0.458655
0.845598
2.13256
0.477511
0.547643
0.685862
0.981638
1.48878
2.16705
2.96784
3.84582
4.76235
5.68939
6.61314
7.53585
8.48409
9.26209
0.433988
0.404477
0.38412
0.37004
0.360331
0.353708
0.349284
0.346449
0.344813
0.344055
0.343749
0.343715
0.344205
0.344841
0.345751
0.346762
0.347871
0.349129
0.350521
0.35205
0.35372
0.355532
0.357499
0.35963
0.361937
0.364442
0.367155
0.370107
0.373308
9.92551
10.6181
11.3428
12.0462
12.632
12.9161
12.8181
12.359
11.6019
10.6206
9.45011
8.17976
6.90892
5.69573
4.64081
3.77904
3.08143
2.51976
2.06894
1.70737
1.40683
1.17469
1.00458
0.872585
0.765242
0.675214
0.598554
0.534827
0.481395
0.437332
0.413104
0.464969
0.873809
2.15456
0.464692
0.527908
0.646933
0.903937
1.37584
2.03159
2.81968
3.69099
4.60155
5.51747
6.41883
7.30256
8.18235
9.09229
9.87215
0.425615
0.398991
0.380517
0.367693
0.358822
0.352755
0.34871
0.346172
0.344715
0.34401
0.343748
0.343712
0.3442
0.344853
0.345697
0.346655
0.347761
0.349018
0.350412
0.351943
0.353617
0.355435
0.357409
0.359549
0.361866
0.364384
0.367111
0.370081
0.373299
10.5463
11.2807
12.0629
12.7934
13.3611
13.5611
13.3446
12.7764
11.9339
10.8526
9.62133
8.33975
7.05485
5.82527
4.75383
3.87705
3.16612
2.59269
2.13128
1.75992
1.4497
1.209
1.03228
0.895227
0.783998
0.690847
0.613997
0.548981
0.491877
0.444279
0.417532
0.472431
0.904885
2.1738
0.453201
0.510286
0.613469
0.831784
1.26281
1.89244
2.66614
3.53137
4.43886
5.34852
6.2342
7.08615
7.91286
8.73825
9.61045
10.4022
0.418121
0.394062
0.377277
0.365581
0.357458
0.351905
0.348265
0.345995
0.344652
0.344011
0.343744
0.343709
0.344205
0.344816
0.34559
0.346549
0.34765
0.348905
0.350301
0.351833
0.353512
0.355336
0.357317
0.359466
0.361794
0.364326
0.367069
0.370056
0.37329
11.1118
11.915
12.7718
13.527
14.0496
14.1373
13.7989
13.1331
12.1825
11.0391
9.7999
8.50766
7.20892
5.96274
4.87421
3.98169
3.25668
2.67075
2.19813
1.81642
1.496
1.24624
1.06247
0.919952
0.804468
0.711122
0.632935
0.563798
0.502946
0.451875
0.42253
0.481298
0.939429
2.18871
0.442926
0.494462
0.585197
0.767908
1.1519
1.74993
2.50668
3.36576
4.27267
5.18082
6.05744
6.88656
7.66951
8.42579
9.19015
10.0289
10.8506
0.411414
0.389635
0.374364
0.363674
0.35624
0.351233
0.347991
0.345906
0.344655
0.344007
0.343739
0.343731
0.344161
0.344729
0.345486
0.346441
0.347537
0.348789
0.350187
0.351721
0.353405
0.355235
0.357222
0.359382
0.361722
0.36427
0.367028
0.370032
0.373282
11.627
12.531
13.4747
14.235
14.6811
14.6313
14.1782
13.3926
12.3788
11.2306
9.98473
8.68282
7.37076
6.108
5.00198
4.09306
3.35321
2.75407
2.26957
1.87693
1.54579
1.28648
1.09521
0.946816
0.830932
0.735852
0.652602
0.579244
0.514662
0.460062
0.428335
0.492057
0.978273
2.1988
0.433761
0.480223
0.56104
0.713685
1.04763
1.60572
2.34093
3.19287
4.10116
5.01237
5.88655
6.70131
7.45201
8.15055
8.82651
9.52683
10.3337
11.2151
0.405413
0.385661
0.371738
0.361968
0.355263
0.350829
0.347874
0.345909
0.344649
0.343997
0.343764
0.343726
0.344073
0.344649
0.345382
0.34633
0.347422
0.34867
0.35007
0.351606
0.353294
0.355131
0.357126
0.359299
0.361652
0.364216
0.366988
0.370008
0.373273
12.1018
13.1437
14.1715
14.9012
15.2341
15.0351
14.4436
13.5927
12.576
11.425
10.1743
8.86421
7.53976
6.26075
5.13701
4.21113
3.45575
2.84265
2.3456
1.94144
1.59906
1.32972
1.13051
0.981341
0.862934
0.761306
0.672901
0.595311
0.526984
0.468964
0.434943
0.504651
1.02101
2.20502
0.4256
0.467422
0.54012
0.668348
0.953306
1.4648
2.16998
3.01148
3.92232
4.84084
5.71917
6.52797
7.25679
7.912
8.51445
9.10308
9.73624
10.51
11.494
0.400041
0.382085
0.36939
0.360585
0.354686
0.350677
0.34788
0.345902
0.344636
0.344033
0.343773
0.343695
0.343995
0.344569
0.34528
0.346217
0.347306
0.348549
0.349951
0.351489
0.353181
0.355026
0.35703
0.359218
0.361585
0.364164
0.366949
0.369985
0.373265
12.5539
13.761
14.8571
15.5171
15.6756
15.3025
14.6408
13.7869