/*--------------------------------*- C++ -*----------------------------------*\
  =========                 |
  \\      /  F ield         | OpenFOAM: The Open Source CFD Toolbox
   \\    /   O peration     | Website:  https://openfoam.org
    \\  /    A nd           | Version:  8
     \\/     M anipulation  |
\*---------------------------------------------------------------------------*/
FoamFile
{
    version     2.0;
    format      ascii;
    class       volScalarField;
    location    "0.47";
    object      nut;
}
// * * * * * * * * * * * * * * * * * * * * * * * * * * * * * * * * * * * * * //

dimensions      [0 2 -1 0 0 0 0];

internalField   nonuniform List<scalar> 
15677
(
0.000168172
0.000652154
0.000148197
0.00151199
0.000443121
0.000141294
0.00267183
0.00087829
0.000381119
0.000142193
0.00391603
0.00152286
0.000687507
0.000354393
0.000145336
0.00501876
0.00236055
0.00114829
0.000586255
0.00034039
0.000151137
0.00583656
0.00332127
0.00178337
0.000949074
0.000529758
0.00033213
0.000156959
0.00633335
0.00430117
0.00257043
0.00146522
0.000821903
0.000492836
0.000327084
0.000162427
0.00656228
0.00518816
0.00345531
0.00213387
0.00125881
0.00073799
0.000467723
0.000324204
0.000167225
0.0066582
0.00589318
0.00435698
0.00292443
0.00184359
0.00111354
0.00067796
0.00045067
0.00032263
0.000171467
0.00670541
0.00633804
0.00518169
0.00378097
0.00255924
0.00163354
0.00100562
0.000634577
0.00043888
0.00032207
0.000175049
0.00671435
0.00655334
0.00584559
0.00462676
0.00336497
0.00228862
0.00147415
0.000925071
0.000602555
0.000430918
0.000322018
0.000178195
0.00670989
0.00666148
0.00629565
0.00537804
0.00419886
0.00304757
0.00207969
0.00135035
0.000862906
0.000578872
0.000425433
0.000322496
0.000180819
0.00670625
0.00669875
0.00652955
0.00596491
0.00498564
0.00385951
0.00279788
0.00191351
0.00125231
0.000814662
0.000561061
0.00042193
0.00032314
0.000183173
0.00670535
0.00670439
0.00664675
0.00635705
0.00565105
0.00465776
0.00358554
0.00259569
0.00177929
0.00117391
0.000776728
0.00054784
0.000419576
0.000324052
0.000185226
0.00670539
0.00670288
0.00668783
0.00656299
0.00614266
0.00536992
0.00438336
0.00335927
0.00242973
0.0016694
0.00111027
0.000746865
0.000537717
0.000418334
0.000324902
0.000187039
0.00670554
0.00670167
0.00669634
0.00665658
0.00644711
0.00593462
0.00512276
0.00415091
0.00317053
0.0022916
0.00157878
0.00105844
0.00072309
0.000530417
0.000417448
0.000325951
0.000188701
0.00670562
0.00670121
0.00669707
0.00668492
0.00660502
0.00632229
0.0057388
0.0049059
0.00395308
0.00301127
0.0021761
0.00150347
0.00101632
0.000704545
0.000524676
0.000417316
0.00032689
0.000190113
0.00670564
0.00670113
0.00669665
0.00669169
0.0066638
0.00654152
0.00618917
0.00555855
0.00471642
0.0037835
0.00287641
0.00207891
0.00144102
0.000982136
0.000689611
0.000520789
0.000417247
0.00032797
0.000191544
0.00670564
0.00670115
0.00669634
0.00669278
0.00668232
0.0066347
0.00646838
0.00605908
0.00539551
0.00455062
0.00363796
0.00276173
0.00199729
0.00138931
0.000954173
0.00067821
0.000517666
0.000417759
0.000328952
0.000192659
0.00670562
0.0067012
0.00669619
0.00669276
0.00668726
0.00666924
0.00659837
0.00639012
0.00593625
0.00524876
0.00440598
0.00351286
0.00266444
0.00192891
0.00134656
0.000931817
0.000669029
0.000515914
0.000418169
0.000330022
0.000193987
0.00670561
0.00670123
0.0066961
0.00669268
0.00668814
0.00668094
0.00665161
0.00655655
0.00631194
0.0058212
0.00511807
0.00427997
0.00340577
0.00258221
0.00187198
0.0013117
0.000913785
0.000662429
0.000514459
0.000419073
0.000331053
0.000194872
0.0067056
0.00670125
0.00669605
0.00669267
0.00668806
0.0066844
0.00667177
0.00663064
0.00651194
0.00623407
0.00571607
0.00500213
0.00417104
0.00331456
0.00251342
0.00182516
0.00128348
0.000899899
0.000657187
0.000514131
0.000419787
0.000332091
0.00019619
0.0067056
0.00670125
0.00669601
0.00669268
0.00668787
0.00668526
0.00667851
0.00666168
0.00660651
0.00646573
0.00616128
0.00562057
0.00490082
0.00407752
0.00323794
0.00245649
0.00178722
0.00126133
0.000889181
0.000654031
0.000513804
0.000420955
0.000333232
0.000196907
0.0067056
0.00670125
0.00669599
0.00669269
0.00668772
0.00668543
0.00668036
0.0066736
0.00664868
0.0065811
0.00642021
0.00609317
0.00553606
0.00481278
0.00399851
0.00317422
0.00241057
0.00175759
0.0012445
0.000881681
0.000651581
0.000514488
0.00042186
0.00033415
0.000198228
0.0067056
0.00670125
0.00669599
0.00669269
0.00668763
0.00668544
0.00668066
0.00667778
0.00666586
0.00663583
0.00655462
0.00637662
0.00603153
0.00546111
0.00473813
0.00393298
0.00312341
0.00237471
0.00173501
0.0012322
0.000876467
0.000651033
0.000514964
0.000423288
0.000335591
0.000198918
0.00670561
0.00670124
0.00669599
0.00669267
0.00668758
0.00668542
0.00668057
0.00667909
0.00667215
0.00666001
0.00662088
0.0065291
0.00633632
0.00597566
0.0053984
0.00467663
0.0038806
0.00308293
0.00234749
0.0017195
0.00122491
0.000874258
0.000650719
0.000516443
0.000424203
0.00033635
5.33768e-05
0.00670561
0.00670123
0.00669599
0.00669265
0.00668756
0.00668538
0.00668044
0.00667942
0.00667413
0.00666994
0.00665109
0.00660786
0.00650503
0.00630042
0.00593026
0.00534505
0.00462599
0.00383933
0.00305518
0.00233119
0.0017114
0.00122156
0.000873484
0.000652239
0.000517548
0.000426633
0.0002838
6.33603e-05
0.00670562
0.00670122
0.006696
0.00669263
0.00668755
0.00668533
0.00668036
0.00667942
0.00667459
0.00667367
0.0066638
0.00664601
0.00659393
0.00648374
0.00626911
0.00588827
0.00530442
0.00459273
0.00381574
0.00303908
0.0023221
0.00170805
0.00122087
0.00087528
0.000653887
0.000519645
0.000420212
0.000219682
7.07534e-05
0.00670563
0.00670121
0.00669601
0.00669261
0.00668755
0.00668528
0.00668031
0.00667934
0.0066746
0.00667487
0.0066687
0.00666326
0.00663757
0.00658449
0.00646693
0.00624313
0.00586567
0.00528012
0.00457028
0.0037988
0.00302979
0.00231911
0.00170927
0.00122453
0.000878334
0.000656204
0.00052093
0.000400358
0.000178174
7.62083e-05
0.00670563
0.0067012
0.00669602
0.00669258
0.00668756
0.00668524
0.00668028
0.00667925
0.00667452
0.0066751
0.00667037
0.00667045
0.00665766
0.00663664
0.00657518
0.00645276
0.00623457
0.00584884
0.005262
0.00455607
0.00379133
0.00302931
0.00232365
0.00171662
0.00123103
0.000882934
0.000659513
0.000518792
0.000367619
0.000152651
8.06257e-05
0.00670564
0.00670119
0.00669603
0.00669256
0.00668757
0.00668519
0.00668027
0.00667915
0.00667445
0.00667503
0.0066708
0.00667308
0.00666637
0.00666173
0.00663089
0.00657419
0.00645175
0.00622758
0.00583877
0.0052538
0.00455502
0.00379723
0.00303999
0.00233624
0.00172858
0.00124043
0.000889176
0.00066252
0.000512797
0.000336433
0.000134272
8.40273e-05
0.00670564
0.00670118
0.00669605
0.00669254
0.00668759
0.00668514
0.00668027
0.00667906
0.00667439
0.00667488
0.00667084
0.00667378
0.00666987
0.00667283
0.00665849
0.00664012
0.00657737
0.00645476
0.00622658
0.00584161
0.00526257
0.00456852
0.00381501
0.00305979
0.00235545
0.00174501
0.00125261
0.000896557
0.000665303
0.000501498
0.000306272
0.000121292
8.64388e-05
0.00670564
0.00670117
0.00669606
0.00669252
0.00668761
0.0066851
0.00668027
0.00667898
0.00667435
0.00667472
0.00667078
0.0066738
0.00667105
0.00667726
0.00667161
0.00667326
0.00664603
0.00658635
0.00646392
0.00624107
0.00586029
0.00528478
0.00459491
0.00384372
0.00308832
0.00238116
0.00176537
0.00126742
0.000905039
0.000666502
0.00048616
0.000280205
0.000112777
8.82204e-05
0.00670565
0.00670116
0.00669607
0.0066925
0.00668762
0.00668505
0.00668028
0.0066789
0.00667432
0.00667458
0.00667069
0.00667363
0.00667135
0.00667867
0.00667741
0.00668882
0.0066813
0.00665906
0.00660446
0.00648694
0.00626899
0.00589268
0.00532116
0.00463394
0.00388333
0.00312541
0.00241278
0.00178966
0.00128435
0.000914246
0.00066665
0.000469406
0.000260351
0.000107005
8.95989e-05
0.00670116
0.00670566
0.00669608
0.00669248
0.00668764
0.00668501
0.0066803
0.00667883
0.0066743
0.00667445
0.00667061
0.00667341
0.00667134
0.00667893
0.00667959
0.00669581
0.00669837
0.0066972
0.00668352
0.00663421
0.00652288
0.0063109
0.00594018
0.00537168
0.00468591
0.00393348
0.00317056
0.00245031
0.00181736
0.00130351
0.00092507
0.000665647
0.000454315
0.000245147
0.000102951
9.07154e-05
0.00669609
0.00670116
0.00670568
0.00669246
0.00668766
0.00668498
0.00668031
0.00667876
0.00667429
0.00667433
0.00667054
0.00667321
0.00667125
0.00667881
0.00668029
0.00669854
0.00670621
0.00671622
0.00672606
0.00671816
0.00667679
0.0065733
0.00636869
0.00600285
0.0054369
0.00475039
0.00399405
0.00322371
0.00249304
0.00184844
0.00132718
0.000938138
0.000663981
0.000441561
0.000233288
0.000100073
9.16589e-05
0.00669244
0.00669612
0.00670118
0.00670569
0.00668767
0.00668494
0.00668033
0.0066787
0.00667429
0.00667423
0.00667047
0.00667302
0.00667112
0.00667857
0.00668043
0.00669945
0.00670946
0.00672528
0.00674808
0.00676428
0.006766
0.00673395
0.00663998
0.00644331
0.00608241
0.0055172
0.00482782
0.00406463
0.00328403
0.00254099
0.00188626
0.0013553
0.00095179
0.000662995
0.000430816
0.000223952
9.79703e-05
9.24817e-05
0.00668769
0.00669246
0.00669619
0.0067012
0.00670571
0.00668491
0.00668035
0.00667864
0.00667429
0.00667414
0.00667042
0.00667287
0.006671
0.00667831
0.00668038
0.00669967
0.00671069
0.00672929
0.00675906
0.00678892
0.00681617
0.00682858
0.00680785
0.0067238
0.00653584
0.00617855
0.00561284
0.0049172
0.00414469
0.00335155
0.00259923
0.00193276
0.00138484
0.000966237
0.000662311
0.000422067
0.000216421
9.64439e-05
9.32196e-05
0.00668488
0.00668775
0.0066925
0.00669625
0.00670122
0.00670573
0.00668037
0.00667859
0.0066743
0.00667405
0.00667038
0.00667273
0.00667088
0.00667807
0.00668027
0.00669963
0.00671113
0.00673104
0.00676429
0.00680192
0.00684383
0.00688261
0.00690792
0.00689912
0.00682635
0.00664606
0.00629169
0.00572371
0.00501942
0.00423399
0.00343334
0.0026703
0.00198286
0.00141571
0.000981194
0.00066289
0.000414674
0.000210319
9.53021e-05
9.38903e-05
0.00668039
0.00668489
0.00668785
0.00669254
0.00669632
0.00670123
0.00670575
0.00667854
0.00667431
0.00667397
0.00667034
0.00667261
0.00667076
0.00667786
0.00668014
0.0066995
0.00671125
0.00673186
0.0067669
0.00680887
0.00685991
0.00691487
0.00696853
0.00700637
0.00700927
0.00694655
0.00677408
0.00642122
0.00584869
0.00513318
0.00434238
0.00353312
0.00274656
0.00203575
0.00144761
0.000996901
0.000663936
0.000408722
0.000205229
9.44681e-05
9.45105e-05
0.00667849
0.00668046
0.00668494
0.00668796
0.00669258
0.00669639
0.00670125
0.00670577
0.00667433
0.0066739
0.00667032
0.00667251
0.00667066
0.00667769
0.00668002
0.00669934
0.00671124
0.00673228
0.00676838
0.00681279
0.00686928
0.00693447
0.00700616
0.00707471
0.00712805
0.00714176
0.00708621
0.00691852
0.00656562
0.00598624
0.00527245
0.00447517
0.00363997
0.00282714
0.00209094
0.00148033
0.00101295
0.000666526
0.000403807
0.000200938
9.38342e-05
9.50843e-05
0.00667434
0.00667849
0.0066806
0.006685
0.00668807
0.00669263
0.00669647
0.00670127
0.00670579
0.00667382
0.00667031
0.00667242
0.00667056
0.00667755
0.0066799
0.00669918
0.00671119
0.00673253
0.00676934
0.00681538
0.0068753
0.00694698
0.00703089
0.00711903
0.0072053
0.00727244
0.0072987
0.00724846
0.00707915
0.00672367
0.00615252
0.00543967
0.00461806
0.00375346
0.00291106
0.00214785
0.00151364
0.00102892
0.000669444
0.000399817
0.000197278
9.33779e-05
9.56221e-05
0.00667376
0.00667442
0.00667854
0.00668074
0.00668505
0.00668819
0.00669267
0.00669654
0.00670129
0.00670581
0.0066703
0.00667233
0.00667047
0.00667745
0.00667978
0.00669903
0.00671113
0.00673271
0.00677004
0.00681734
0.00687971
0.00695578
0.00704834
0.00715041
0.0072587
0.00736089
0.00744307
0.00747864
0.00743379
0.00726031
0.00691071
0.00634868
0.00561653
0.00476797
0.00387186
0.0029975
0.00220586
0.00154756
0.00104473
0.000672858
0.000396633
0.000194131
9.30286e-05
9.6122e-05
0.0066703
0.00667373
0.00667456
0.00667859
0.00668089
0.00668511
0.00668831
0.00669272
0.00669662
0.00670131
0.00670584
0.00667225
0.0066704
0.00667739
0.00667964
0.0066989
0.00671108
0.00673285
0.00677061
0.00681895
0.00688323
0.00696272
0.00706176
0.0071743
0.00729952
0.00742586
0.00754602
0.00763979
0.00768326
0.00763992
0.00748401
0.00714105
0.00655449
0.00579981
0.00492173
0.00399268
0.00308554
0.00226448
0.00158172
0.00106047
0.000676793
0.000394042
0.000191402
9.27892e-05
9.65931e-05
0.00667217
0.00667034
0.00667373
0.00667471
0.00667864
0.00668104
0.00668517
0.00668843
0.00669277
0.00669669
0.00670133
0.00670586
0.00667034
0.00667734
0.00667949
0.00669879
0.00671103
0.00673297
0.0067711
0.00682035
0.00688621
0.00696864
0.00707296
0.00719371
0.00733305
0.007479
0.00762649
0.00776055
0.00786509
0.00791251
0.00789212
0.00775647
0.00739142
0.00676794
0.0059846
0.00507719
0.00411503
0.00317419
0.0023232
0.00161581
0.00107595
0.00068113
0.000391987
0.000189018
9.26059e-05
9.70305e-05
0.0066703
0.00667207
0.00667041
0.00667374
0.00667486
0.00667869
0.00668119
0.00668524
0.00668856
0.00669282
0.00669677
0.00670135
0.00670588
0.0066773
0.00667932
0.00669872
0.00671101
0.00673309
0.00677153
0.00682159
0.00688881
0.0069739
0.00708275
0.00721054
0.00736194
0.0075252
0.00769646
0.00786049
0.00800858
0.00811931
0.00819499
0.00820139
0.00804965
0.00765744
0.00699297
0.00617116
0.00523296
0.00423687
0.00326255
0.00238155
0.00164958
0.00109125
0.000685492
0.0003904
0.000186934
9.24956e-05
9.74438e-05
0.00667727
0.00667018
0.00667196
0.00667049
0.00667375
0.00667503
0.00667875
0.00668136
0.0066853
0.00668869
0.00669288
0.00669685
0.00670138
0.0067059
0.00667912
0.0066987
0.00671101
0.0067332
0.00677191
0.00682271
0.00689112
0.00697866
0.00709148
0.0072257
0.00738794
0.00756628
0.00776037
0.00795224
0.00813414
0.00829076
0.00843529
0.00854461
0.00853729
0.00836041
0.007933
0.0072254
0.00635655
0.00538553
0.00435694
0.00334979
0.00243909
0.00168278
0.00110643
0.000689796
0.000389144
0.000185086
9.24121e-05
9.78261e-05
0.00667892
0.00667707
0.00666995
0.00667184
0.00667058
0.00667376
0.0066752
0.00667881
0.00668152
0.00668538
0.00668881
0.00669294
0.00669693
0.0067014
0.00670592
0.00669875
0.00671103
0.00673332
0.00677225
0.00682371
0.00689319
0.00698298
0.00709934
0.00723964
0.00741175
0.00760381
0.00781938
0.00803988
0.00825498
0.00844816
0.00864526
0.00883127
0.00892871
0.00889672
0.00868552
0.00821541
0.00746253
0.006545
0.00553479
0.00447433
0.00343528
0.00249546
0.00171528
0.00112132
0.000694021
0.000388181
0.000183462
9.23804e-05
9.8188e-05
0.00669887
0.00667814
0.00667672
0.00666974
0.00667171
0.00667071
0.00667377
0.00667539
0.00667888
0.00668169
0.00668545
0.00668894
0.006693
0.00669701
0.00670143
0.00670594
0.00671104
0.00673341
0.00677253
0.0068246
0.00689507
0.00698692
0.00710647
0.00725252
0.00743365
0.00763869
0.00787504
0.00812297
0.00837385
0.00860581
0.00884843
0.00909661
0.00927266
0.0093453
0.00927729
0.00902236
0.00850237
0.00769942
0.00673379
0.00568051
0.00458853
0.00351848
0.00255034
0.0017469
0.00113586
0.000698167
0.000387411
0.000181999
9.23578e-05
9.85211e-05
0.00671104
0.00669842
0.00667671
0.00667633
0.0066696
0.00667157
0.00667086
0.00667378
0.00667558
0.00667895
0.00668186
0.00668554
0.00668907
0.00669307
0.00669708
0.00670146
0.00670595
0.00673348
0.00677277
0.0068254
0.00689677
0.00699051
0.00711297
0.00726444
0.00745376
0.00767141
0.00792792
0.00820192
0.00848843
0.00876701
0.00906202
0.00936724
0.00960863
0.00976059
0.00979481
0.00967821
0.00936924
0.00879189
0.0079346
0.00692085
0.00582185
0.0046986
0.00359885
0.00260349
0.00177754
0.00115
0.00070221
0.000386833
0.000180712
9.2374e-05
9.88372e-05
0.00673355
0.00670999
0.0066974
0.00667559
0.00667585
0.00666954
0.0066714
0.00667104
0.00667378
0.00667579
0.00667902
0.00668203
0.00668563
0.00668919
0.00669313
0.00669715
0.00670148
0.00670597
0.00677294
0.00682611
0.00689833
0.00699377
0.00711889
0.00727541
0.00747224
0.00770218
0.00797786
0.00827683
0.00859979
0.00892909
0.00928825
0.00966264
0.00996918
0.0101917
0.0103039
0.0102822
0.0101009
0.00972557
0.00908267
0.00816692
0.00710485
0.00595942
0.00480385
0.00367606
0.0026547
0.00180709
0.00116368
0.000706139
0.000386362
0.000179535
9.23883e-05
9.91267e-05
0.0067731
0.00673187
0.00670774
0.00669582
0.00667485
0.00667524
0.00666958
0.0066712
0.00667124
0.00667379
0.00667599
0.00667911
0.0066822
0.00668572
0.00668931
0.0066932
0.00669721
0.00670151
0.00670598
0.00682677
0.00689975
0.00699674
0.00712431
0.00728549
0.00748922
0.00773107
0.00802461
0.008348
0.0087091
0.00909167
0.00951643
0.0099836
0.0103869
0.0106911
0.0108756
0.0109205
0.0108155
0.0105479
0.0100914
0.00937387
0.00839557
0.00728425
0.0060939
0.00490445
0.00374993
0.00270383
0.00183549
0.00117686
0.000709947
0.000386001
0.0001785
9.24331e-05
9.9402e-05
0.00682741
0.00677025
0.00672829
0.00670553
0.0066939
0.00667447
0.00667448
0.00666971
0.00667099
0.00667146
0.00667382
0.00667619
0.00667921
0.00668236
0.00668582
0.00668942
0.00669327
0.00669727
0.00670154
0.006706
0.00690105
0.00699944
0.00712926
0.00729471
0.00750483
0.00775803
0.0080681
0.00841587
0.00881626
0.00925209
0.00974133
0.0103241
0.010887
0.0113291
0.0115981
0.0116956
0.0116262
0.0114009
0.0110209
0.0104666
0.00966483
0.00861988
0.0074579
0.00622442
0.00500048
0.00382037
0.00275079
0.00186269
0.00118951
0.000713608
0.000385759
0.00017754
9.24702e-05
9.9622e-05
0.00690229
0.00682387
0.00676414
0.00672485
0.00670333
0.0066916
0.00667444
0.00667361
0.00666991
0.00667078
0.00667168
0.00667386
0.00667639
0.00667933
0.00668251
0.00668593
0.00668952
0.00669334
0.00669733
0.00670157
0.00670601
0.00700188
0.00713376
0.00730312
0.00751917
0.00778305
0.00810845
0.00848071
0.00892
0.00940712
0.00996432
0.0106993
0.011486
0.0121614
0.0125753
0.0127226
0.0126595
0.0124206
0.0120363
0.0115181
0.01085
0.00995478
0.00883931
0.00762558
0.00635039
0.00509198
0.00388736
0.00279555
0.00188866
0.0012016
0.000717138
0.00038554
0.000176699
9.2521e-05
9.98065e-05
0.00700414
0.00689731
0.00681573
0.00675809
0.00672163
0.00670139
0.0066888
0.00667466
0.00667268
0.00667014
0.00667059
0.00667189
0.00667393
0.00667657
0.00667945
0.00668265
0.00668603
0.00668962
0.00669341
0.00669738
0.0067016
0.00670602
0.00713784
0.00731076
0.00753231
0.00780613
0.00814585
0.00854241
0.00901875
0.00955558
0.0101925
0.0111261
0.0121932
0.0131607
0.0138212
0.0140802
0.0140137
0.013729
0.0132801
0.0127091
0.0120336
0.011239
0.0102426
0.00905337
0.00778715
0.00647147
0.00517903
0.00395093
0.00283808
0.00191338
0.00121314
0.000720507
0.000385419
0.000176022
9.25604e-05
0.000100005
0.00714159
0.00699738
0.00688538
0.00680764
0.00675234
0.00671859
0.00670008
0.00668578
0.006675
0.00667178
0.00667036
0.00667045
0.00667208
0.00667403
0.00667674
0.00667958
0.00668279
0.00668614
0.00668971
0.00669348
0.00669744
0.00670163
0.00670603
0.00731767
0.00754431
0.0078273
0.00818048
0.00860062
0.00911148
0.00969864
0.0104333
0.0116053
0.0129779
0.0142435
0.0151723
0.0156569
0.0156783
0.0153596
0.014835
0.0141656
0.013399
0.0125578
0.0116295
0.0105269
0.00926157
0.00794247
0.00658743
0.00526168
0.00401111
0.00287839
0.00193685
0.00122412
0.000723738
0.000385294
0.000175477
9.26164e-05
0.00010022
0.00732393
0.0071325
0.00698039
0.00687347
0.00679975
0.00674684
0.00671568
0.00669902
0.00668274
0.00667533
0.00667098
0.00667052
0.00667039
0.00667224
0.00667415
0.00667689
0.00667971
0.00668291
0.00668624
0.0066898
0.00669354
0.00669749
0.00670166
0.00670604
0.00755524
0.00784664
0.00821248
0.008655
0.00919802
0.00983842
0.0106886
0.0121193
0.0137816
0.0153015
0.0164568
0.0171684
0.0174133
0.017198
0.0166487
0.0159075
0.0150354
0.0140835
0.0130798
0.0120169
0.0108061
0.0094634
0.00809147
0.00669817
0.00534006
0.00406804
0.00291653
0.0019591
0.00123454
0.000726415
0.000385212
0.000174887
9.26745e-05
0.000100453
0.00756511
0.00731218
0.00710859
0.00696336
0.00686185
0.00679201
0.00674151
0.00671297
0.00669805
0.00667988
0.00667551
0.00667036
0.00667059
0.0066704
0.00667237
0.00667429
0.00667703
0.00667985
0.00668303
0.00668635
0.00668989
0.00669361
0.00669754
0.00670167
0.00670604
0.00786425
0.00824193
0.00870534
0.0092788
0.00997641
0.0109544
0.0126411
0.0145466
0.0162501
0.0175603
0.0184428
0.018902
0.018933
0.0185325
0.0178068
0.0168952
0.015856
0.0147423
0.0135888
0.0123962
0.0110783
0.00965836
0.00823412
0.00680368
0.00541419
0.00412167
0.00295253
0.00198015
0.00124311
0.000728707
0.000385124
0.000174275
9.27548e-05
0.000100707
0.00788001
0.00754986
0.00727916
0.00708463
0.00694672
0.00685048
0.00678434
0.0067365
0.00671038
0.00669707
0.00667746
0.0066754
0.00666996
0.00667057
0.00667047
0.00667247
0.00667444
0.00667716
0.00667998
0.00668314
0.00668645
0.00668997
0.00669368
0.00669756
0.00670167
0.00670604
0.00826895
0.00875163
0.00935454
0.0101128
0.0112227
0.0131452
0.015234
0.0170469
0.0184384
0.0194217
0.0200341
0.0202879
0.0201649
0.0196424
0.0188004
0.01777
0.0166055
0.0153603
0.0140758
0.0127631
0.0113419
0.00984599
0.00837037
0.006904
0.00548451
0.00417205
0.00298645
0.0019974
0.00125039
0.000731227
0.000385055
0.000173626
9.28367e-05
0.000100981
0.00829311
0.00786093
0.00750464
0.00724603
0.00706119
0.00693045
0.00683933
0.00677672
0.00673186
0.00670779
0.00669592
0.00667593
0.00667494
0.00666979
0.00667049
0.0066706
0.00667256
0.00667459
0.00667728
0.00668012
0.00668325
0.00668655
0.00669005
0.00669371
0.00669756
0.00670167
0.00670604
0.00879408
0.00942586
0.0102465
0.0114848
0.0136133
0.015826
0.017685
0.0190961
0.020117
0.0208159
0.0212251
0.0213382
0.02112
0.020531
0.0196252
0.0185232
0.0172735
0.0159283
0.0145344
0.0131138
0.0115953
0.0100259
0.00850021
0.00699905
0.00555131
0.00421938
0.00301415
0.00201202
0.00125837
0.000734018
0.000384979
0.000172945
9.29479e-05
0.00010128
0.00883177
0.00826914
0.00779978
0.00745927
0.00721355
0.00703828
0.00691453
0.0068284
0.00676913
0.00672741
0.00670511
0.00669382
0.00667516
0.0066742
0.00666979
0.00667036
0.00667074
0.00667264
0.00667475
0.0066774
0.00668025
0.00668336
0.00668665
0.00669009
0.00669371
0.00669756
0.00670167
0.00670604
0.0094932
0.0103758
0.0117333
0.0140353
0.0163208
0.0181779
0.0195632
0.0205731
0.0213013
0.0217993
0.022075
0.0221029
0.0218355
0.0212219
0.0202932
0.0191583
0.017858
0.0164419
0.0149603
0.0134457
0.0118374
0.0101977
0.00862367
0.0070889
0.00561459
0.00425795
0.00303758
0.002028
0.00126713
0.00073709
0.000384927
0.000172225
9.30621e-05
0.000101602
0.00955434
0.00880222
0.00818652
0.00773837
0.00741475
0.00718176
0.00701588
0.00689898
0.00681772
0.00676169
0.00672311
0.00670251
0.0066911
0.00667497
0.00667334
0.00666989
0.00667023
0.0066709
0.00667272
0.0066749
0.00667752
0.00668038
0.00668346
0.0066867
0.00669009
0.00669371
0.00669756
0.00670167
0.00670604
0.0104989
0.0119662
0.0144085
0.0167256
0.0185476
0.019877
0.0208415
0.0215557
0.0220877
0.022459
0.0226554
0.0226383
0.0223543
0.0217455
0.0208238
0.0196852
0.0183626
0.0169007
0.0153517
0.013757
0.0120672
0.0103611
0.0087408
0.0071737
0.00566652
0.00429052
0.00306312
0.00204549
0.00127674
0.000740499
0.000384869
0.000171469
9.32157e-05
0.000101953
0.0106096
0.00951732
0.00869016
0.00810371
0.00767799
0.00737112
0.00715066
0.00699399
0.00688382
0.00680741
0.00675434
0.00671916
0.00670018
0.00668784
0.00667509
0.00667246
0.00667002
0.00667012
0.00667105
0.00667281
0.00667505
0.00667764
0.0066805
0.00668351
0.0066867
0.00669009
0.00669371
0.00669756
0.00670167
0.00670603
0.0121847
0.0147322
0.0170521
0.0188178
0.020073
0.02097
0.0216396
0.0221636
0.0225766
0.0228752
0.0230296
0.0229949
0.0227161
0.0221321
0.021238
0.0201172
0.0187938
0.0173068
0.0157083
0.0140469
0.0122842
0.0105161
0.00885162
0.00724308
0.00571057
0.00432602
0.00309098
0.00206463
0.0012873
0.000744255
0.000384843
0.000170673
9.33755e-05
0.000102329
0.0105677
0.012379
0.00935467
0.00857947
0.00802209
0.00761876
0.00732838
0.00712025
0.00697266
0.00686913
0.00679765
0.00674735
0.00671552
0.0066987
0.00668457
0.0066753
0.00667168
0.00667013
0.00667005
0.00667119
0.00667291
0.00667519
0.00667776
0.00668056
0.0066835
0.0066867
0.00669008
0.00669371
0.00669756
0.00670165
0.00670602
0.0150077
0.0173129
0.0190101
0.0201813
0.0209978
0.0216025
0.0220882
0.0225013
0.0228494
0.0231113
0.0232483
0.0232139
0.0229548
0.0224086
0.0215559
0.0204679
0.0191597
0.0176639
0.0160311
0.0143152
0.0124881
0.0106624
0.00894245
0.00730184
0.00575876
0.00436473
0.0031214
0.00208559
0.00129892
0.000748404
0.000384812
0.000169838
9.35879e-05
0.000102739
0.0103191
0.0123391
0.0152325
0.00919851
0.00847076
0.00794185
0.00756068
0.00728655
0.00709059
0.00695194
0.00685498
0.00678828
0.00674077
0.0067122
0.00669751
0.00668159
0.00667543
0.00667104
0.0066702
0.00667002
0.00667131
0.00667302
0.00667533
0.00667781
0.00668056
0.0066835
0.0066867
0.00669009
0.00669371
0.00669754
0.00670163
0.00670601
0.0175199
0.0191428
0.020226
0.0209556
0.0214828
0.0219091
0.0222909
0.0226472
0.022966
0.0232143
0.0233497
0.0233277
0.0230982
0.0225981
0.0217955
0.02075
0.0194684
0.0179763
0.0163217
0.0145623
0.0126787
0.010782
0.00901947
0.00736605
0.00581152
0.00440698
0.00315463
0.00210857
0.0013117
0.000753039
0.000384821
0.000168962
9.38131e-05
0.000103176
0.0100753
0.0119845
0.0151653
0.0176743
0.00904973
0.00836356
0.00786312
0.00750379
0.00724571
0.00706173
0.00693187
0.00684134
0.00677927
0.00673465
0.00670929
0.00669643
0.00667909
0.00667536
0.00667059
0.00667021
0.00667004
0.00667142
0.00667313
0.00667539
0.0066778
0.00668056
0.0066835
0.00668669
0.00669009
0.00669367
0.00669749
0.0067016
0.006706
0.0192304
0.0202258
0.0208663
0.0213093
0.0216622
0.0219896
0.0223215
0.0226566
0.0229687
0.0232179
0.0233623
0.0233613
0.0231683
0.0227195
0.021972
0.0209751
0.0197277
0.0182487
0.0165825
0.0147889
0.012833
0.0108833
0.00910372
0.00743627
0.00586934
0.00445314
0.00319094
0.00213376
0.00132577
0.000758166
0.000384831
0.000168042
9.41082e-05
0.000103651
0.00984668
0.0116014
0.0148073
0.0175736
0.0192751
0.00890587
0.00825782
0.00778599
0.00744816
0.00720593
0.00703373
0.0069125
0.00682827
0.00677074
0.00672923
0.00670661
0.0066953
0.00667734
0.00667507
0.0066703
0.00667017
0.00667009
0.00667152
0.00667319
0.00667539
0.0066778
0.00668056
0.0066835
0.00668669
0.00669005
0.00669361
0.00669744
0.00670157
0.00670598
0.0201945
0.020747
0.021103
0.021374
0.0216306
0.0219126
0.0222304
0.0225672
0.0228867
0.0231462
0.0233073
0.0233341
0.0231826
0.0227882
0.0220983
0.0211532
0.0199449
0.0184857
0.0168159
0.0149687
0.0129627
0.0109938
0.00919592
0.00751314
0.00593274
0.00450361
0.00323065
0.0021614
0.0013413
0.000763825
0.000384883
0.000167083
9.44289e-05
0.000104151
0.00963254
0.0112244
0.0143629
0.017338
0.0191206
0.020132
0.00876525
0.0081538
0.0077106
0.0073939
0.00716731
0.00700666
0.00689395
0.00681605
0.00676285
0.00672457
0.00670406
0.00669367
0.00667633
0.00667457
0.00667017
0.0066701
0.00667018
0.00667155
0.00667319
0.00667539
0.0066778
0.00668056
0.00668351
0.00668664
0.00668996
0.00669354
0.00669738
0.00670154
0.00670597
0.02061
0.0208792
0.0210639
0.0212388
0.0214517
0.0217244
0.0220519
0.0224046
0.0227399
0.0230164
0.0232005
0.0232608
0.0231548
0.0228164
0.0221849
0.0212929
0.0201264
0.0186916
0.0169966
0.015118
0.013103
0.0111143
0.00929686
0.00759735
0.00600231
0.00455885
0.00327411
0.00219175
0.0013584
0.000770119
0.000384947
0.000166076
9.48422e-05
0.000104694
0.00942979
0.0108664
0.0138727
0.0170158
0.0189585
0.0199219
0.0204506
0.00862731
0.00805181
0.00763712
0.00734116
0.00712996
0.00698075
0.00687668
0.00680487
0.00675545
0.00672041
0.00670168
0.00669146
0.00667585
0.00667392
0.00667014
0.00667001
0.00667025
0.00667152
0.00667319
0.00667539
0.0066778
0.00668056
0.00668345
0.00668654
0.00668988
0.00669347
0.00669733
0.00670151
0.00670595
0.0206486
0.0207461
0.0208325
0.0209624
0.0211678
0.0214562
0.0218086
0.0221856
0.022542
0.0228408
0.023054
0.0231533
0.0230958
0.022814
0.0222404
0.0214012
0.0202778
0.0188463
0.0171447
0.0152773
0.0132545
0.0112457
0.00940739
0.00768965
0.00607871
0.00461937
0.00332171
0.00222508
0.00137728
0.000777086
0.000385049
0.000165031
9.53041e-05
0.000105257
0.00923601
0.0105312
0.013358
0.0166324
0.0187258
0.0197933
0.0201848
0.020401
0.00849215
0.0079522
0.00756575
0.0072901
0.00709421
0.00695666
0.00686094
0.00679466
0.00674861
0.00671678
0.00669966
0.00668881
0.00667572
0.00667322
0.0066702
0.00666988
0.00667028
0.00667151
0.00667319
0.00667539
0.00667781
0.00668049
0.00668335
0.00668644
0.00668979
0.0066934
0.00669727
0.00670148
0.00670593
0.0204303
0.0204255
0.0204632
0.020584
0.020808
0.0211291
0.0215153
0.0219208
0.0223023
0.0226289
0.0228776
0.0230207
0.0230141
0.0227888
0.0222715
0.0214842
0.0203862
0.018971
0.0172998
0.0154466
0.0134179
0.0113888
0.00952841
0.00779091
0.00616266
0.00468574
0.00337389
0.00226171
0.00139812
0.000784805
0.00038518
0.000163934
9.58888e-05
0.000105973
0.00904963
0.01022
0.0128296
0.0161997
0.0184494
0.0196072
0.020059
0.0200791
0.0201003
0.00836011
0.00785532
0.0074967
0.00724121
0.00706102
0.00693473
0.00684661
0.00678546
0.00674233
0.00671361
0.00669831
0.00668611
0.00667576
0.00667252
0.00667034
0.00666976
0.0066703
0.0066715
0.00667318
0.00667538
0.00667775
0.00668036
0.00668324
0.00668633
0.0066897
0.00669333
0.00669721
0.00670145
0.00670591
0.0200273
0.019968
0.019992
0.0201309
0.0203927
0.0207566
0.0211808
0.021617
0.0220274
0.022388
0.0226788
0.0228704
0.0229166
0.0227468
0.022284
0.021537
0.0204718
0.0190988
0.0174615
0.0156258
0.0135936
0.0115444
0.00966089
0.00790202
0.00625496
0.00475861
0.00343111
0.002302
0.00142111
0.00079338
0.000385331
0.000162755
9.66857e-05
0.0001068
0.00887007
0.00993216
0.0122956
0.015719
0.0181416
0.0193927
0.0198843
0.0199364
0.0197213
0.0196243
0.00823143
0.00776163
0.00743062
0.00719584
0.00703083
0.00691479
0.00683361
0.00677723
0.00673666
0.00671077
0.00669718
0.00668358
0.00667587
0.00667194
0.00667049
0.0066697
0.0066703
0.00667152
0.00667318
0.00667531
0.00667763
0.00668023
0.00668313
0.00668623
0.00668961
0.00669326
0.00669715
0.00670143
0.00670589
0.0194869
0.0194069
0.0194448
0.0196235
0.0199347
0.0203464
0.0208093
0.021278
0.0217225
0.0221246
0.0224642
0.0227084
0.0228083
0.0226928
0.0222805
0.0215764
0.0205564
0.0192288
0.0176292
0.0158148
0.0137818
0.0117133
0.00980579
0.00802399
0.00635649
0.0048387
0.00349396
0.00234629
0.00144652
0.00080282
0.000385534
0.000161326
9.77935e-05
0.000107599