/*--------------------------------*- C++ -*----------------------------------*\
  =========                 |
  \\      /  F ield         | OpenFOAM: The Open Source CFD Toolbox
   \\    /   O peration     | Website:  https://openfoam.org
    \\  /    A nd           | Version:  8
     \\/     M anipulation  |
\*---------------------------------------------------------------------------*/
FoamFile
{
    version     2.0;
    format      ascii;
    class       volVectorField;
    location    "0.03";
    object      U;
}
// * * * * * * * * * * * * * * * * * * * * * * * * * * * * * * * * * * * * * //

dimensions      [0 1 -1 0 0 0 0];

internalField   nonuniform List<vector> 
15677
(
(-0.0399025 9.66594 0)
(0.0484972 9.92198 0)
(-0.00181201 9.37824 0)
(0.020655 9.97701 0)
(0.0198958 9.78862 0)
(0.00731622 9.14111 0)
(0.0258425 9.99515 0)
(0.0165443 9.92464 0)
(0.0111851 9.65386 0)
(0.00649612 8.96043 0)
(0.0263355 10.0025 0)
(0.0205617 9.97867 0)
(0.0165617 9.85192 0)
(0.00913427 9.53057 0)
(0.00516772 8.8166 0)
(0.0255762 10.0057 0)
(0.021597 10.0029 0)
(0.0194224 9.94141 0)
(0.0153827 9.77928 0)
(0.00799622 9.41941 0)
(0.00425279 8.70166 0)
(0.0245158 10.0071 0)
(0.0218816 10.0146 0)
(0.0210245 9.98468 0)
(0.0182794 9.90222 0)
(0.0138842 9.70769 0)
(0.00694902 9.32088 0)
(0.00356333 8.60909 0)
(0.0231042 10.0075 0)
(0.0217625 10.0205 0)
(0.0218979 10.0068 0)
(0.0202359 9.96476 0)
(0.0170052 9.86153 0)
(0.0124868 9.64016 0)
(0.00600487 9.23533 0)
(0.00298401 8.53447 0)
(0.0214168 10.0074 0)
(0.0212161 10.0233 0)
(0.0221899 10.0183 0)
(0.0213369 9.99787 0)
(0.0191126 9.94332 0)
(0.015674 9.82163 0)
(0.0111457 9.5786 0)
(0.00512721 9.16253 0)
(0.00245142 8.47524 0)
(0.0195241 10.007 0)
(0.02036 10.0235 0)
(0.0221593 10.024 0)
(0.0218428 10.016 0)
(0.0202933 9.98776 0)
(0.0178097 9.92211 0)
(0.0142402 9.78435 0)
(0.00977825 9.52419 0)
(0.00426421 9.10222 0)
(0.00192775 8.42984 0)
(0.0175105 10.0063 0)
(0.0193102 10.0223 0)
(0.021725 10.027 0)
(0.0218778 10.0259 0)
(0.0208437 10.0127 0)
(0.0189769 9.97792 0)
(0.016305 9.90261 0)
(0.0126547 9.75092 0)
(0.00832625 9.47787 0)
(0.00337095 9.05422 0)
(0.00138716 8.39737 0)
(0.0154109 10.0056 0)
(0.0180081 10.0206 0)
(0.0210071 10.028 0)
(0.0215502 10.0313 0)
(0.0208993 10.0269 0)
(0.0194635 10.0097 0)
(0.0173555 9.96962 0)
(0.0145407 9.88576 0)
(0.0108626 9.72245 0)
(0.00674132 9.44041 0)
(0.00241053 9.01843 0)
(0.000809157 8.37737 0)
(0.0132744 10.0048 0)
(0.0165317 10.0185 0)
(0.0199451 10.0273 0)
(0.0208933 10.0338 0)
(0.0205429 10.035 0)
(0.0194176 10.0282 0)
(0.0176707 10.0082 0)
(0.0153673 9.96364 0)
(0.0124464 9.87254 0)
(0.00880673 9.70002 0)
(0.00497891 9.4125 0)
(0.00135505 8.99483 0)
(0.000163411 8.36957 0)
(0.0111764 10.0041 0)
(0.014944 10.0162 0)
(0.0186078 10.0257 0)
(0.0199292 10.0343 0)
(0.0198366 10.0392 0)
(0.0189273 10.039 0)
(0.0174044 10.0309 0)
(0.0153984 10.0089 0)
(0.0129284 9.96083 0)
(0.00994889 9.86392 0)
(0.00643013 9.68458 0)
(0.00299687 9.39476 0)
(0.000173338 8.98356 0)
(-0.000490811 8.3739 0)
(0.00927827 10.0034 0)
(0.0132514 10.014 0)
(0.0170351 10.0234 0)
(0.0186577 10.0332 0)
(0.0187959 10.0408 0)
(0.018043 10.045 0)
(0.0166476 10.0444 0)
(0.0147856 10.0357 0)
(0.012546 10.0126 0)
(0.00994591 9.96205 0)
(0.00697224 9.86083 0)
(0.00367576 9.67711 0)
(0.000756187 9.38779 0)
(-0.00114016 8.98483 0)
(-0.00125069 8.39049 0)
(0.0077366 10.0029 0)
(0.0117039 10.0119 0)
(0.0152645 10.0208 0)
(0.0170932 10.0312 0)
(0.0174211 10.0405 0)
(0.0167839 10.0477 0)
(0.0154464 10.0521 0)
(0.0136214 10.0518 0)
(0.0114438 10.0434 0)
(0.00899897 10.02 0)
(0.00632087 9.96817 0)
(0.00343716 9.86424 0)
(0.000486608 9.67852 0)
(-0.00179974 9.39216 0)
(-0.00264097 8.99885 0)
(-0.00210243 8.41952 0)
(0.00642403 10.0024 0)
(0.0103167 10.0102 0)
(0.0135449 10.0183 0)
(0.0152655 10.0284 0)
(0.0157164 10.0388 0)
(0.0151543 10.0482 0)
(0.0138194 10.056 0)
(0.0119495 10.0611 0)
(0.0097125 10.0619 0)
(0.00724047 10.0546 0)
(0.00463341 10.0321 0)
(0.00194996 9.98006 0)
(-0.000729346 9.87511 0)
(-0.00318936 9.68964 0)
(-0.00469116 9.4084 0)
(-0.00431661 9.02582 0)
(-0.00304669 8.46094 0)
(0.00532112 10.002 0)
(0.00906861 10.0087 0)
(0.0119803 10.0162 0)
(0.0134165 10.0255 0)
(0.0136988 10.0361 0)
(0.0131548 10.047 0)
(0.0117704 10.0572 0)
(0.00978488 10.0661 0)
(0.00739177 10.0728 0)
(0.00475606 10.0755 0)
(0.00202494 10.0703 0)
(-0.000679825 10.0495 0)
(-0.00326557 9.9986 0)
(-0.00560197 9.89434 0)
(-0.00740309 9.71123 0)
(-0.00794136 9.43695 0)
(-0.00618432 9.06589 0)
(-0.00408983 8.51497 0)
(0.00440047 10.0016 0)
(0.00794311 10.0074 0)
(0.0105365 10.0142 0)
(0.0117025 10.0229 0)
(0.0116253 10.033 0)
(0.0107944 10.0443 0)
(0.00929964 10.0563 0)
(0.00712885 10.0679 0)
(0.00449156 10.0787 0)
(0.00157862 10.0878 0)
(-0.00142844 10.0933 0)
(-0.00436019 10.0911 0)
(-0.00706587 10.0732 0)
(-0.00941751 10.0247 0)
(-0.0112424 9.92275 0)
(-0.0121827 9.74394 0)
(-0.0115702 9.47813 0)
(-0.0082602 9.11905 0)
(-0.0052228 8.58158 0)
(0.00362647 10.0013 0)
(0.00692854 10.0062 0)
(0.00920559 10.0125 0)
(0.010092 10.0205 0)
(0.00968879 10.03 0)
(0.00836355 10.041 0)
(0.0064146 10.0537 0)
(0.0039812 10.0673 0)
(0.00100889 10.081 0)
(-0.00228954 10.0946 0)
(-0.00570435 10.1069 0)
(-0.00903022 10.1161 0)
(-0.0120693 10.1179 0)
(-0.0146404 10.1039 0)
(-0.0165859 10.0591 0)
(-0.0176883 9.96106 0)
(-0.0175443 9.78826 0)
(-0.0155946 9.53205 0)
(-0.0105314 9.18529 0)
(-0.00642948 8.66047 0)
(0.00300443 10.001 0)
(0.00602495 10.0052 0)
(0.00798321 10.011 0)
(0.00859179 10.0183 0)
(0.00786127 10.0272 0)
(0.00609102 10.0377 0)
(0.00346072 10.0502 0)
(0.000351224 10.0647 0)
(-0.00305758 10.0806 0)
(-0.00685731 10.0973 0)
(-0.0108109 10.1143 0)
(-0.0146819 10.1308 0)
(-0.018235 10.1447 0)
(-0.0212428 10.1514 0)
(-0.0235008 10.1424 0)
(-0.0248222 10.1025 0)
(-0.0249592 10.0098 0)
(-0.0234993 9.84447 0)
(-0.0199945 9.59872 0)
(-0.0129618 9.26427 0)
(-0.00769418 8.75096 0)
(0.00250369 10.0008 0)
(0.00520047 10.0044 0)
(0.00686857 10.0096 0)
(0.00720527 10.0163 0)
(0.0061594 10.0245 0)
(0.00394909 10.0344 0)
(0.000708895 10.0463 0)
(-0.00333382 10.0608 0)
(-0.00769487 10.0778 0)
(-0.012128 10.0968 0)
(-0.0167654 10.1173 0)
(-0.0213377 10.1388 0)
(-0.0255745 10.1603 0)
(-0.0292106 10.1797 0)
(-0.0319973 10.1923 0)
(-0.033713 10.1894 0)
(-0.0341505 10.1555 0)
(-0.0330587 10.0695 0)
(-0.0300166 9.91266 0)
(-0.0247162 9.67787 0)
(-0.0155317 9.35546 0)
(-0.00901017 8.85244 0)
(0.00212165 10.0007 0)
(0.00450205 10.0037 0)
(0.00585037 10.0084 0)
(0.00593411 10.0145 0)
(0.00459252 10.022 0)
(0.00196373 10.0311 0)
(-0.00187308 10.0424 0)
(-0.00674718 10.0564 0)
(-0.0123631 10.0733 0)
(-0.018084 10.0936 0)
(-0.0235744 10.1167 0)
(-0.0290259 10.1418 0)
(-0.034129 10.1686 0)
(-0.0385808 10.1961 0)
(-0.0420956 10.222 0)
(-0.0444146 10.2414 0)
(-0.0453076 10.2453 0)
(-0.0445654 10.2184 0)
(-0.0419403 10.1401 0)
(-0.0370256 9.99263 0)
(-0.0297189 9.76905 0)
(-0.0182216 9.45812 0)
(-0.0103571 8.96398 0)
(0.00182621 10.0006 0)
(0.00393279 10.0032 0)
(0.00497261 10.0073 0)
(0.00477807 10.0128 0)
(0.00316626 10.0196 0)
(0.000150764 10.028 0)
(-0.00424993 10.0385 0)
(-0.00993114 10.0517 0)
(-0.0166615 10.0682 0)
(-0.024037 10.0884 0)
(-0.0312144 10.1129 0)
(-0.0377583 10.1408 0)
(-0.0439419 10.1715 0)
(-0.0494191 10.2046 0)
(-0.0538656 10.2389 0)
(-0.0569897 10.272 0)
(-0.058533 10.299 0)
(-0.0582717 10.3105 0)
(-0.0560074 10.2915 0)
(-0.0515204 10.2217 0)
(-0.0444655 10.0841 0)
(-0.0349584 9.87163 0)
(-0.0210021 9.5714 0)
(-0.0117175 9.08466 0)
(0.00159413 10.0005 0)
(0.00346878 10.0028 0)
(0.00425139 10.0065 0)
(0.00378338 10.0113 0)
(0.0018847 10.0174 0)
(-0.00147928 10.0251 0)
(-0.00639842 10.0347 0)
(-0.0128405 10.047 0)
(-0.020648 10.0626 0)
(-0.0294901 10.0823 0)
(-0.0388086 10.1067 0)
(-0.0475054 10.1361 0)
(-0.0550327 10.1698 0)
(-0.0617886 10.2071 0)
(-0.0674039 10.2473 0)
(-0.0715487 10.2893 0)
(-0.0739405 10.3304 0)
(-0.0743345 10.3655 0)
(-0.0725355 10.3853 0)
(-0.0683796 10.3747 0)
(-0.0617164 10.3139 0)
(-0.0522625 10.1864 0)
(-0.0403633 9.98473 0)
(-0.0238254 9.69417 0)
(-0.0130671 9.21318 0)
(0.00140929 10.0005 0)
(0.00308848 10.0025 0)
(0.00366185 10.0058 0)
(0.00297322 10.0101 0)
(0.000799004 10.0155 0)
(-0.0029189 10.0223 0)
(-0.00830225 10.031 0)
(-0.0154434 10.0422 0)
(-0.024266 10.0568 0)
(-0.0345226 10.0756 0)
(-0.0457373 10.0993 0)
(-0.0571548 10.1286 0)
(-0.0673665 10.164 0)
(-0.0757204 10.2045 0)
(-0.0827995 10.2492 0)
(-0.0882272 10.2974 0)
(-0.0916892 10.3477 0)
(-0.0929273 10.3974 0)
(-0.09174 10.4412 0)
(-0.0879889 10.4697 0)
(-0.0815702 10.4678 0)
(-0.0724144 10.4163 0)
(-0.060308 10.2989 0)
(-0.0458602 10.1073 0)
(-0.0266523 9.82525 0)
(-0.0143876 9.34834 0)
(0.00126028 10.0004 0)
(0.00277436 10.0022 0)
(0.00317619 10.0053 0)
(0.00231836 10.0092 0)
(-6.77965e-05 10.0139 0)
(-0.00410998 10.0197 0)
(-0.00994976 10.0274 0)
(-0.0177166 10.0375 0)
(-0.0274734 10.0509 0)
(-0.0390646 10.0684 0)
(-0.0521077 10.091 0)
(-0.0659338 10.1196 0)
(-0.0795438 10.1548 0)
(-0.0911756 10.1972 0)
(-0.1001 10.2455 0)
(-0.107147 10.2985 0)
(-0.111962 10.3553 0)
(-0.114266 10.4145 0)
(-0.113862 10.4732 0)
(-0.110624 10.526 0)
(-0.104488 10.5634 0)
(-0.0954299 10.5704 0)
(-0.0834711 10.5282 0)
(-0.068492 10.4204 0)
(-0.0513752 10.2381 0)
(-0.0294424 9.96328 0)
(-0.0156498 9.48869 0)
(0.00113876 10.0004 0)
(0.00251237 10.002 0)
(0.00277644 10.0049 0)
(0.00178778 10.0083 0)
(-0.000752252 10.0125 0)
(-0.00503284 10.0175 0)
(-0.011274 10.0241 0)
(-0.0196429 10.0329 0)
(-0.0302383 10.0449 0)
(-0.0430616 10.061 0)
(-0.0578337 10.0821 0)
(-0.0739853 10.1095 0)
(-0.090604 10.1439 0)
(-0.106411 10.1861 0)
(-0.119265 10.2364 0)
(-0.128377 10.2934 0)
(-0.134921 10.3554 0)
(-0.138594 10.4215 0)
(-0.139189 10.49 0)
(-0.136607 10.558 0)
(-0.130814 10.6198 0)
(-0.121852 10.666 0)
(-0.109782 10.6819 0)
(-0.0947442 10.6487 0)
(-0.0767098 10.55 0)
(-0.0568264 10.3759 0)
(-0.0321079 10.1069 0)
(-0.0165063 9.6322 0)
(0.00103858 10.0003 0)
(0.00229328 10.0018 0)
(0.00244286 10.0045 0)
(0.00135592 10.0076 0)
(-0.00129135 10.0113 0)
(-0.00573523 10.0156 0)
(-0.0122614 10.0211 0)
(-0.0211439 10.0286 0)
(-0.0325366 10.039 0)
(-0.0464707 10.0534 0)
(-0.0628454 10.0728 0)
(-0.0812033 10.0985 0)
(-0.100734 10.1315 0)
(-0.12024 10.1728 0)
(-0.138146 10.2229 0)
(-0.151884 10.2822 0)
(-0.160674 10.3487 0)
(-0.166126 10.4204 0)
(-0.168028 10.4962 0)
(-0.166296 10.5743 0)
(-0.160951 10.6515 0)
(-0.152087 10.7223 0)
(-0.139862 10.7772 0)
(-0.124438 10.8015 0)
(-0.106082 10.7768 0)
(-0.0848423 10.6864 0)
(-0.0621092 10.5195 0)
(-0.03468 10.2549 0)
(-0.0200257 9.77843 0)
(0.000955136 10.0003 0)
(0.00210923 10.0017 0)
(0.00216402 10.0042 0)
(0.00100671 10.007 0)
(-0.00171522 10.0102 0)
(-0.00626405 10.014 0)
(-0.0129757 10.0186 0)
(-0.0222146 10.0247 0)
(-0.0342742 10.0334 0)
(-0.0492588 10.0458 0)
(-0.0670864 10.0633 0)
(-0.087499 10.0869 0)
(-0.109803 10.118 0)
(-0.132904 10.1576 0)
(-0.155289 10.2068 0)
(-0.175055 10.2658 0)
(-0.189193 10.335 0)
(-0.197003 10.4118 0)
(-0.200652 10.4937 0)
(-0.200076 10.5794 0)
(-0.195346 10.6672 0)
(-0.186635 10.7535 0)
(-0.17419 10.8329 0)
(-0.158287 10.896 0)
(-0.139201 10.9284 0)
(-0.117322 10.9115 0)
(-0.0927326 10.8284 0)
(-0.0668902 10.6673 0)
(-0.0335228 10.4044 0)
(-0.0200578 9.89574 0)
(0.000885023 10.0003 0)
(0.00195408 10.0016 0)
(0.00193107 10.0039 0)
(0.000721667 10.0065 0)
(-0.00204736 10.0094 0)
(-0.00665714 10.0126 0)
(-0.0134779 10.0164 0)
(-0.0229409 10.0214 0)
(-0.0354575 10.0283 0)
(-0.0513112 10.0385 0)
(-0.0705118 10.0536 0)
(-0.0927993 10.0749 0)
(-0.117701 10.1036 0)
(-0.144241 10.1411 0)
(-0.170997 10.1885 0)
(-0.196113 10.2466 0)
(-0.21733 10.3155 0)
(-0.231224 10.3954 0)
(-0.237263 10.483 0)
(-0.238304 10.5754 0)
(-0.234478 10.6713 0)
(-0.226049 10.7684 0)
(-0.213371 10.8636 0)
(-0.196844 10.9511 0)
(-0.176881 11.0218 0)
(-0.153866 11.0614 0)
(-0.12827 11.0514 0)
(-0.100152 10.9747 0)
(-0.0712048 10.8182 0)
(-0.0324413 10.5718 0)
(-0.0144144 10.0269 0)
(0.000825662 10.0003 0)
(0.00182266 10.0015 0)
(0.0017357 10.0036 0)
(0.000487803 10.006 0)
(-0.00230749 10.0086 0)
(-0.00694479 10.0113 0)
(-0.0138169 10.0145 0)
(-0.0234027 10.0184 0)
(-0.0362015 10.0239 0)
(-0.0526482 10.032 0)
(-0.0729796 10.0443 0)
(-0.0970437 10.0627 0)
(-0.124332 10.0886 0)
(-0.154113 10.1234 0)
(-0.185079 10.1683 0)
(-0.215438 10.2245 0)
(-0.242948 10.2926 0)
(-0.265047 10.3724 0)
(-0.277896 10.4637 0)
(-0.281251 10.5626 0)
(-0.278797 10.6657 0)
(-0.270906 10.7714 0)
(-0.258067 10.8777 0)
(-0.24083 10.9811 0)
(-0.219755 11.076 0)
(-0.195393 11.1535 0)
(-0.168203 11.1995 0)
(-0.138695 11.1955 0)
(-0.106895 11.1242 0)
(-0.0753919 10.9731 0)
(-0.0335282 10.7558 0)
(-0.00972488 10.145 0)
(0.000775061 10.0002 0)
(0.00171076 10.0014 0)
(0.00157245 10.0034 0)
(0.000294951 10.0056 0)
(-0.00251105 10.0079 0)
(-0.00715105 10.0103 0)
(-0.0140316 10.0128 0)
(-0.0236641 10.0158 0)
(-0.0366113 10.02 0)
(-0.0534222 10.0262 0)
(-0.0745262 10.0358 0)
(-0.100054 10.0508 0)
(-0.129617 10.0732 0)
(-0.162399 10.1048 0)
(-0.197358 10.1467 0)
(-0.232796 10.2003 0)
(-0.266516 10.2664 0)
(-0.295917 10.3454 0)
(-0.318153 10.4369 0)
(-0.329007 10.5401 0)
(-0.328658 10.6506 0)
(-0.321756 10.7643 0)
(-0.308962 10.8796 0)
(-0.291011 10.9944 0)
(-0.268654 11.1053 0)
(-0.242618 11.2068 0)
(-0.213553 11.2903 0)
(-0.181966 11.3416 0)
(-0.148373 11.3429 0)
(-0.112994 11.2756 0)
(-0.0784766 11.1498 0)
(-0.0344405 10.9567 0)
(-0.00718927 10.2573 0)
(0.000731618 10.0002 0)
(0.00161504 10.0014 0)
(0.00143429 10.0033 0)
(0.000134747 10.0053 0)
(-0.00267021 10.0074 0)
(-0.00729492 10.0093 0)
(-0.0141528 10.0113 0)
(-0.0237759 10.0135 0)
(-0.0367711 10.0165 0)
(-0.0537708 10.021 0)
(-0.0753512 10.0283 0)
(-0.101886 10.04 0)
(-0.133332 10.0582 0)
(-0.168995 10.0857 0)
(-0.207682 10.124 0)
(-0.247975 10.1741 0)
(-0.287749 10.2375 0)
(-0.324408 10.3146 0)
(-0.355009 10.4055 0)
(-0.376459 10.5092 0)
(-0.384226 10.6248 0)
(-0.379067 10.7469 0)
(-0.366733 10.8708 0)
(-0.348204 10.9952 0)
(-0.32447 11.1178 0)
(-0.296489 11.2353 0)
(-0.265116 11.3426 0)
(-0.231092 11.4309 0)
(-0.194927 11.4869 0)
(-0.157401 11.4919 0)
(-0.118534 11.4463 0)
(-0.0810243 11.3489 0)
(-0.0364606 11.1518 0)
(-0.00589012 10.3652 0)
(0.000694366 10.0002 0)
(0.00153268 10.0013 0)
(0.0013169 10.0031 0)
(2.59634e-06 10.005 0)
(-0.00279452 10.0069 0)
(-0.00739126 10.0085 0)
(-0.0142045 10.01 0)
(-0.0237778 10.0115 0)
(-0.0367472 10.0135 0)
(-0.0538041 10.0165 0)
(-0.0756334 10.0216 0)
(-0.102795 10.0303 0)
(-0.135547 10.0445 0)
(-0.173613 10.0669 0)
(-0.215914 10.1004 0)
(-0.26078 10.1465 0)
(-0.306387 10.2062 0)
(-0.350178 10.2804 0)
(-0.389151 10.3696 0)
(-0.420056 10.4732 0)
(-0.439626 10.5897 0)
(-0.443104 10.7178 0)
(-0.431976 10.8512 0)
(-0.413222 10.985 0)
(-0.388153 11.1177 0)
(-0.358025 11.2472 0)
(-0.323967 11.3704 0)
(-0.286957 11.4823 0)
(-0.24777 11.5746 0)
(-0.207098 11.6338 0)
(-0.166363 11.6595 0)
(-0.123911 11.6365 0)
(-0.0836265 11.5465 0)
(-0.0384425 11.338 0)
(-0.00522195 10.4689 0)
(0.00146071 10.0012 0)
(0.00065001 10.0002 0)
(0.0012163 10.003 0)
(-0.000106965 10.0047 0)
(-0.00289123 10.0064 0)
(-0.0074517 10.0078 0)
(-0.0142054 10.0089 0)
(-0.023701 10.0097 0)
(-0.0365918 10.0108 0)
(-0.0536091 10.0124 0)
(-0.0755159 10.0157 0)
(-0.103013 10.0217 0)
(-0.136592 10.0322 0)
(-0.176345 10.0498 0)
(-0.221689 10.0772 0)
(-0.271036 10.1177 0)
(-0.32219 10.173 0)
(-0.372911 10.2434 0)
(-0.42018 10.3297 0)
(-0.460618 10.4319 0)
(-0.490732 10.5488 0)
(-0.507187 10.6784 0)
(-0.505088 10.8189 0)
(-0.486813 10.9632 0)
(-0.460674 11.1061 0)
(-0.428325 11.2462 0)
(-0.391255 11.3817 0)
(-0.350759 11.5095 0)
(-0.307872 11.6251 0)
(-0.263518 11.7201 0)
(-0.219481 11.799 0)
(-0.175364 11.8451 0)
(-0.129278 11.8254 0)
(-0.0858255 11.7387 0)
(-0.0400059 11.5149 0)
(-0.00494976 10.5685 0)
(0.00112822 10.0029 0)
(0.00137775 10.0012 0)
(0.000596991 10.0002 0)
(-0.000198671 10.0045 0)
(-0.00296597 10.006 0)
(-0.00748509 10.0072 0)
(-0.0141701 10.0079 0)
(-0.0235693 10.0082 0)
(-0.0363451 10.0084 0)
(-0.0532535 10.0089 0)
(-0.0751118 10.0104 0)
(-0.102723 10.014 0)
(-0.136759 10.0212 0)
(-0.1776 10.0343 0)
(-0.22511 10.0558 0)
(-0.278277 10.0893 0)
(-0.334931 10.1382 0)
(-0.392308 10.2039 0)
(-0.447712 10.2863 0)
(-0.497682 10.3858 0)
(-0.538514 10.5018 0)
(-0.566569 10.6325 0)
(-0.578553 10.7753 0)
(-0.569541 10.9278 0)
(-0.542954 11.0825 0)
(-0.508527 11.2336 0)
(-0.468231 11.3801 0)
(-0.423773 11.5203 0)
(-0.376558 11.6518 0)
(-0.327725 11.7697 0)
(-0.279786 11.8835 0)
(-0.231956 11.9818 0)
(-0.183741 12.0288 0)
(-0.134229 12.0103 0)
(-0.0877637 11.9238 0)
(-0.0412531 11.6826 0)
(-0.00491557 10.6637 0)
(-0.000280046 10.0043 0)
(0.00103582 10.0027 0)
(0.00127775 10.0011 0)
(0.00054648 10.0002 1.73184e-19)
(-0.00302329 10.0057 0)
(-0.00749781 10.0066 0)
(-0.0141094 10.007 0)
(-0.0234012 10.0068 0)
(-0.036038 10.0063 0)
(-0.0527899 10.0057 0)
(-0.0745091 10.0057 0)
(-0.102072 10.0071 0)
(-0.136282 10.0114 0)
(-0.177747 10.0204 0)
(-0.226683 10.0366 0)
(-0.282609 10.0631 0)
(-0.344018 10.1039 0)
(-0.408083 10.1624 0)
(-0.471383 10.2399 0)
(-0.530789 10.3355 0)
(-0.582435 10.4492 0)
(-0.622384 10.5796 0)
(-0.646957 10.7243 0)
(-0.65303 10.8801 0)
(-0.63576 11.0442 0)
(-0.599753 11.2083 0)
(-0.556218 11.3666 0)
(-0.50742 11.5183 0)
(-0.455228 11.6624 0)
(-0.401162 11.796 0)
(-0.34843 11.9323 0)
(-0.296302 12.0645 0)
(-0.243383 12.1624 0)
(-0.191175 12.2084 0)
(-0.138629 12.1896 0)
(-0.0895893 12.1012 0)
(-0.0422884 11.8413 0)
(-0.00501135 10.7546 0)
(-0.0030771 10.0054 0)
(-0.000349235 10.0041 0)
(0.000930703 10.0025 7.73537e-19)
(0.00118112 10.001 -5.48743e-19)
(0.000498284 10.0002 -3.45403e-19)
(-0.00749556 10.0061 0)
(-0.0140308 10.0062 0)
(-0.0232103 10.0056 0)
(-0.0356942 10.0045 0)
(-0.0522581 10.003 0)
(-0.0737756 10.0016 0)
(-0.101172 10.0011 0)
(-0.135348 10.0026 0)
(-0.17708 10.0079 0)
(-0.226865 10.0192 0)
(-0.28465 10.0394 0)
(-0.34955 10.072 0)
(-0.419484 10.1212 0)
(-0.490833 10.1909 0)
(-0.559497 10.2815 0)
(-0.621958 10.3915 0)
(-0.674022 10.5202 0)
(-0.711617 10.6655 0)
(-0.731162 10.8243 0)
(-0.729843 10.9927 0)
(-0.703002 11.1675 0)
(-0.656557 11.3399 0)
(-0.603218 11.5042 0)
(-0.545478 11.6601 0)
(-0.485349 11.8065 0)
(-0.426989 11.9583 0)
(-0.36956 12.1123 0)
(-0.311359 12.2434 0)
(-0.253611 12.339 0)
(-0.197641 12.3826 0)
(-0.142503 12.3624 0)
(-0.0912609 12.2703 0)
(-0.043136 11.991 0)
(-0.00513263 10.8409 0)
(-0.00749856 10.0057 0)
(-0.00308681 10.005 -1.65304e-18)
(-0.000409657 10.0038 -8.16003e-19)
(0.000831338 10.0024 3.85928e-19)
(0.00108818 10.001 -3.6472e-19)
(0.00045246 10.0001 0)
(-0.0139405 10.0055 0)
(-0.0230054 10.0046 0)
(-0.0353308 10.0029 0)
(-0.0516886 10.0005 0)
(-0.0729633 9.99793 0)
(-0.100112 9.99573 0)
(-0.134102 9.99489 0)
(-0.175835 9.99686 0)
(-0.226024 10.0037 0)
(-0.284958 10.0179 0)
(-0.352264 10.043 0)
(-0.426581 10.083 0)
(-0.505113 10.1421 0)
(-0.583362 10.2243 0)
(-0.656554 10.3294 0)
(-0.72086 10.4549 0)
(-0.771852 10.5992 0)
(-0.805461 10.7596 0)
(-0.818349 10.9323 0)
(-0.808156 11.1125 0)
(-0.770512 11.297 0)
(-0.712738 11.4766 0)
(-0.649032 11.6458 0)
(-0.582061 11.8043 0)
(-0.517122 11.9688 0)
(-0.453458 12.1382 0)
(-0.388782 12.2905 0)
(-0.324845 12.4184 0)
(-0.262615 12.5102 0)
(-0.20326 12.5504 0)
(-0.145842 12.5277 0)
(-0.0926892 12.4307 0)
(-0.0438471 12.1318 0)
(-0.00523962 10.9225 0)
(-0.0138687 10.0049 0)
(-0.00740946 10.0052 3.48569e-18)
(-0.00304183 10.0046 0)
(-0.000465934 10.0035 8.1389e-19)
(0.000738276 10.0022 1.44145e-22)
(0.000999005 10.0009 0)
(0.000409027 10.0001 0)
(-0.0227932 10.0036 0)
(-0.0349587 10.0014 0)
(-0.0511036 9.99835 0)
(-0.0721113 9.99471 0)
(-0.0989573 9.99098 0)
(-0.132655 9.988 0)
(-0.174196 9.98702 0)
(-0.224453 9.98978 0)
(-0.283986 9.9987 0)
(-0.352836 10.0168 0)
(-0.430244 10.048 0)
(-0.514233 10.0965 0)
(-0.60119 10.167 0)
(-0.685677 10.2633 0)
(-0.762274 10.3841 0)
(-0.826953 10.526 0)
(-0.87518 10.6865 0)
(-0.903045 10.8619 0)
(-0.907612 11.0478 0)
(-0.887108 11.2391 0)
(-0.837542 11.4321 0)
(-0.767705 11.6176 0)
(-0.693229 11.7899 0)
(-0.620814 11.9669 0)
(-0.549809 12.149 0)
(-0.477537 12.3163 0)
(-0.406007 12.465 0)
(-0.336722 12.5882 0)
(-0.27046 12.6752 0)
(-0.208082 12.7111 0)
(-0.148637 12.685 0)
(-0.093874 12.5822 0)
(-0.0444174 12.2642 0)
(-0.00535815 10.9994 0)
(-0.022618 10.0028 0)
(-0.0136369 10.0042 4.38703e-22)
(-0.00719216 10.0046 0)
(-0.00299721 10.0042 -8.5815e-19)
(-0.000512949 10.0032 9.47691e-23)
(0.000651334 10.002 0)
(0.000913602 10.0008 0)
(0.000367988 10.0001 0)
(-0.0345844 10.0001 0)
(-0.0505159 9.99644 0)
(-0.0712479 9.99185 0)
(-0.0977594 9.98678 0)
(-0.131094 9.9819 0)
(-0.172304 9.97827 0)
(-0.222384 9.97743 0)
(-0.282098 9.9815 0)
(-0.351816 9.99328 0)
(-0.431278 10.0163 0)
(-0.519204 10.0548 0)
(-0.612896 10.1133 0)
(-0.707839 10.1967 0)
(-0.797604 10.3085 0)
(-0.876186 10.4463 0)
(-0.939516 10.6052 0)
(-0.98312 10.782 0)
(-1.00341 10.9722 0)
(-0.998007 11.1707 0)
(-0.965844 11.3718 0)
(-0.903386 11.5719 0)
(-0.82092 11.7616 0)
(-0.740221 11.9529 0)
(-0.660823 12.1477 0)
(-0.5796 12.3276 0)
(-0.499146 12.491 0)
(-0.42121 12.6343 0)
(-0.347056 12.7518 0)
(-0.277193 12.8332 0)
(-0.212123 12.8643 0)
(-0.150933 12.834 0)
(-0.0947989 12.7248 0)
(-0.0448024 12.3881 0)
(-0.00548067 11.0717 0)
(-0.0342729 9.99903 0)
(-0.0221872 10.0019 -1.93666e-18)
(-0.0131625 10.0034 0)
(-0.00698173 10.004 0)
(-0.00293859 10.0038 2.56672e-18)
(-0.000550909 10.0029 0)
(0.000570563 10.0019 0)
(0.000832073 10.0007 7.21243e-19)
(0.000329369 10.0001 0)
(-0.0499326 9.99474 0)
(-0.0703891 9.98933 0)
(-0.0965543 9.98306 0)
(-0.129482 9.97649 0)
(-0.170269 9.97051 0)
(-0.219994 9.96644 0)
(-0.279578 9.96615 0)
(-0.349649 9.97217 0)
(-0.430346 9.98773 0)
(-0.520975 10.0168 0)
(-0.619634 10.064 0)
(-0.72281 10.1342 0)
(-0.825007 10.2321 0)
(-0.91877 10.3607 0)
(-0.99763 10.5165 0)
(-1.05767 10.693 0)
(-1.09467 10.886 0)
(-1.10553 11.0903 0)
(-1.08858 11.3001 0)
(-1.04355 11.5098 0)
(-0.967384 11.7154 0)
(-0.877692 11.9248 0)
(-0.788892 12.1344 0)
(-0.697367 12.3272 0)
(-0.606382 12.503 0)
(-0.518263 12.6607 0)
(-0.434461 12.7977 0)
(-0.355918 12.9087 0)
(-0.282856 12.9837 0)
(-0.215437 13.0095 0)
(-0.152759 12.9747 0)
(-0.0954313 12.8586 0)
(-0.045031 12.5035 0)
(-0.00559838 11.1393 0)
(-0.0494463 9.99324 0)
(-0.0335738 9.99778 0)
(-0.021348 10.0008 -2.01547e-18)
(-0.0127077 10.0026 -1.90705e-18)
(-0.00675119 10.0034 -3.60735e-18)
(-0.00286589 10.0034 0)
(-0.00057982 10.0027 -1.61108e-18)
(0.000496124 10.0017 -1.52125e-18)
(0.000754455 10.0007 7.17817e-19)
(0.000293119 10.0001 0)
(-0.0695422 9.98709 0)
(-0.0953616 9.97977 0)
(-0.127866 9.9717 0)
(-0.168171 9.96363 0)
(-0.21742 9.95667 0)
(-0.27665 9.95248 0)
(-0.346685 9.9533 0)
(-0.427984 9.96208 0)
(-0.520334 9.98251 0)
(-0.622509 10.019 0)
(-0.731887 10.0764 0)
(-0.84405 10.1598 0)
(-0.952441 10.2738 0)
(-1.0486 10.4206 0)
(-1.12577 10.5951 0)
(-1.18041 10.7893 0)
(-1.20874 10.9981 0)
(-1.20834 11.2156 0)
(-1.17839 11.4357 0)
(-1.11943 11.6522 0)
(-1.03599 11.8786 0)
(-0.936713 12.1072 0)
(-0.833453 12.3152 0)
(-0.730281 12.5038 0)
(-0.630124 12.6736 0)
(-0.534952 12.8246 0)
(-0.445851 12.9545 0)
(-0.363394 13.0583 0)
(-0.287528 13.1266 0)
(-0.218086 13.1467 0)
(-0.154133 13.1069 0)
(-0.0958278 12.984 0)
(-0.0451388 12.611 0)
(-0.00570594 11.2024 0)
(-0.0688373 9.98511 0)
(-0.0483945 9.99161 -2.15437e-18)
(-0.0322337 9.9964 2.12331e-18)
(-0.0205498 9.99978 -1.09369e-21)
(-0.0122239 10.0019 1.90063e-18)
(-0.00650016 10.0029 1.79741e-18)
(-0.00277995 10.003 3.39681e-18)
(-0.000599571 10.0024 2.40597e-18)
(0.00042787 10.0016 -7.57002e-19)
(0.000680804 10.0006 0)
(0.000259227 10.0001 0)
(-0.094189 9.97685 0)
(-0.12627 9.96746 0)
(-0.166071 9.95752 0)
(-0.214766 9.948 0)
(-0.273483 9.94032 0)
(-0.343199 9.93646 0)
(-0.424619 9.9391 0)
(-0.51792 9.95163 0)
(-0.622443 9.97819 0)
(-0.736338 10.0236 0)
(-0.856164 10.0929 0)
(-0.976491 10.1912 0)
(-1.08968 10.3227 0)
(-1.18634 10.4888 0)
(-1.25961 10.6825 0)
(-1.30662 10.8943 0)
(-1.3242 11.1182 0)
(-1.3108 11.3478 0)
(-1.2665 11.5763 0)
(-1.2012 11.815 0)
(-1.10766 12.0619 0)
(-0.990962 12.2894 0)
(-0.87368 12.4933 0)
(-0.759511 12.6758 0)
(-0.650887 12.8386 0)
(-0.549322 12.9819 0)
(-0.455491 13.1041 0)
(-0.369593 13.2002 0)
(-0.2913 13.2616 0)
(-0.220126 13.2759 0)
(-0.155128 13.231 0)
(-0.0960459 13.1013 0)
(-0.0451512 12.7109 0)
(-0.00580094 11.2611 0)
(-0.0932169 9.97426 0)
(-0.0673309 9.98299 -3.28707e-21)
(-0.0463841 9.98984 0)
(-0.0309676 9.99507 -1.77698e-21)
(-0.0197108 9.99878 0)
(-0.011711 10.0011 -1.89384e-18)
(-0.00622954 10.0023 -3.58017e-18)
(-0.00268042 10.0026 5.58584e-23)
(-0.000610284 10.0022 1.5961e-18)
(0.000365828 10.0015 -7.52948e-19)
(0.000611111 10.0006 7.1004e-19)
(0.000227666 10.0001 0)
(-0.124703 9.96369 0)
(-0.163998 9.95211 0)
(-0.212108 9.94031 0)
(-0.27021 9.92951 0)
(-0.339402 9.92147 0)
(-0.420586 9.91858 0)
(-0.514247 9.92392 0)
(-0.620194 9.94138 0)
(-0.737232 9.97552 0)
(-0.862784 10.0314 0)
(-0.992471 10.1144 0)
(-1.11981 10.2293 0)
(-1.23607 10.3796 0)
(-1.33103 10.5658 0)
(-1.39802 10.7789 0)
(-1.43509 11.0078 0)
(-1.43991 11.2459 0)
(-1.41186 11.4859 0)
(-1.36193 11.7382 0)
(-1.28705 11.999 0)
(-1.17385 12.246 0)
(-1.04013 12.4696 0)
(-0.90951 12.6672 0)
(-0.785117 12.8423 0)
(-0.668798 12.9971 0)
(-0.561515 13.1322 0)
(-0.463518 13.2462 0)
(-0.374633 13.3345 0)
(-0.294265 13.3889 0)
(-0.221642 13.3973 0)
(-0.155812 13.3473 0)
(-0.0961198 13.2107 0)
(-0.0450872 12.8037 0)
(-0.00588253 11.3157 0)
(-0.123411 9.96035 0)
(-0.0911342 9.97154 2.39022e-18)
(-0.0644417 9.98074 -2.36181e-18)
(-0.0444962 9.98814 2.23153e-18)
(-0.0296459 9.9938 0)
(-0.0188303 9.99783 0)
(-0.0111702 10.0004 1.8861e-18)
(-0.00594004 10.0018 -1.7818e-18)
(-0.00256759 10.0023 8.5018e-23)
(-0.000611932 10.002 7.93895e-19)
(0.000309854 10.0013 -7.48726e-19)
(0.000545316 10.0005 -7.05053e-19)
(0.00019858 10.0001 0)
(-0.161963 9.9473 0)
(-0.209481 9.93347 0)
(-0.266924 9.9199 0)
(-0.335457 9.90813 0)
(-0.416144 9.90026 0)
(-0.509721 9.89912 0)
(-0.616372 9.90827 0)
(-0.735452 9.93203 0)
(-0.865134 9.97535 0)
(-1.00198 10.0436 0)
(-1.14062 10.142 0)
(-1.27345 10.2749 0)
(-1.39075 10.4453 0)
(-1.48158 10.6522 0)
(-1.53977 10.8845 0)
(-1.5646 11.1298 0)
(-1.55469 11.3804 0)
(-1.52196 11.646 0)
(-1.46271 11.9223 0)
(-1.36675 12.1848 0)
(-1.2341 12.4287 0)
(-1.08409 12.646 0)
(-0.941002 12.8359 0)
(-0.807245 13.0026 0)
(-0.684026 13.1487 0)
(-0.571702 13.2751 0)
(-0.470083 13.3806 0)
(-0.378641 13.4611 0)
(-0.296527 13.5085 0)
(-0.222717 13.511 0)
(-0.156237 13.4558 0)
(-0.0960754 13.3126 0)
(-0.0449634 12.8899 0)
(-0.00595105 11.3664 0)
(-0.160297 9.94304 0)
(-0.12061 9.95688 0)
(-0.0871137 9.9687 2.48431e-18)
(-0.0617426 9.97859 -4.71129e-18)
(-0.0425329 9.98652 4.45459e-18)
(-0.0282667 9.99258 -4.21029e-18)
(-0.0179116 9.99693 0)
(-0.0106027 9.99977 1.87825e-18)
(-0.00563156 10.0013 -1.77292e-18)
(-0.00244143 10.0019 -1.67358e-18)
(-0.000604497 10.0018 0)
(0.000259817 10.0012 7.43443e-19)
(0.000483759 10.0005 0)
(0.000172531 10.0001 0)
(-0.206901 9.9274 0)
(-0.263669 9.91137 0)
(-0.331482 9.89626 0)
(-0.411497 9.88395 0)
(-0.504659 9.87696 0)
(-0.611463 9.87858 0)
(-0.731719 9.89282 0)
(-0.864234 9.92444 0)
(-1.00641 9.9787 0)
(-1.15389 10.0611 0)
(-1.3002 10.1766 0)
(-1.43669 10.3291 0)
(-1.55269 10.5204 0)
(-1.63678 10.7481 0)
(-1.68361 10.9993 0)
(-1.69389 11.2596 0)
(-1.68055 11.5378 0)
(-1.63898 11.8296 0)
(-1.55684 12.1096 0)
(-1.43968 12.3704 0)
(-1.28818 12.6084 0)
(-1.12286 12.8177 0)
(-0.968312 12.9985 0)
(-0.826109 13.1559 0)
(-0.69678 13.2928 0)
(-0.580071 13.4103 0)
(-0.475347 13.5074 0)
(-0.381746 13.5802 0)
(-0.29819 13.6206 0)
(-0.223421 13.6174 0)
(-0.156444 13.5572 0)
(-0.095935 13.4075 0)
(-0.0447933 12.9697 0)
(-0.00600639 11.4134 0)
(-0.204804 9.92202 0)
(-0.156614 9.93865 0)
(-0.11516 9.95333 0)
(-0.0833786 9.966 4.95536e-18)
(-0.0589451 9.97654 -4.6886e-18)
(-0.0404933 9.98498 4.43257e-18)
(-0.0268368 9.99142 0)
(-0.0169565 9.99607 -1.97827e-18)
(-0.010009 9.99914 0)
(-0.00530489 10.0009 1.76335e-18)
(-0.00230344 10.0016 0)
(-0.000587273 10.0016 0)
(0.000215472 10.0011 0)
(0.000427607 10.0004 7.18717e-19)
(0.00014962 10 3.46199e-19)
(-0.260468 9.90378 0)
(-0.327531 9.8857 0)
(-0.406789 9.86941 0)
(-0.499308 9.85719 0)
(-0.605851 9.85199 0)
(-0.72661 9.85757 0)
(-0.860924 9.8784 0)
(-1.00692 9.91961 0)
(-1.16115 9.98669 0)
(-1.31821 10.085 0)
(-1.47059 10.2193 0)
(-1.60859 10.3926 0)
(-1.72072 10.6055 0)
(-1.79534 10.854 0)
(-1.82817 11.1228 0)
(-1.83667 11.4129 0)
(-1.81528 11.72 0)
(-1.74904 12.018 0)
(-1.64354 12.2979 0)
(-1.50552 12.5539 0)
(-1.33607 12.784 0)
(-1.15659 12.9836 0)
(-0.991674 13.1545 0)
(-0.841967 13.302 0)
(-0.707292 13.4294 0)
(-0.586818 13.538 0)
(-0.479467 13.6267 0)
(-0.384073 13.6918 0)
(-0.299347 13.7255 0)
(-0.223815 13.7167 0)
(-0.156469 13.6516 0)
(-0.0957176 13.4957 0)
(-0.0445877 13.0437 0)
(-0.00604975 11.4569 0)
(-0.257892 9.89705 0)
(-0.200057 9.91652 0)
(-0.149388 9.93423 5.52547e-18)
(-0.110124 9.94995 5.23239e-18)
(-0.0795148 9.96344 4.9506e-18)
(-0.0560485 9.97461 -4.67901e-18)
(-0.0383875 9.98353 0)
(-0.025358 9.99034 0)
(-0.015966 9.99526 0)
(-0.00939044 9.99855 3.71745e-18)
(-0.00496123 10.0005 1.7534e-18)
(-0.00215263 10.0013 1.65189e-18)
(-0.000561869 10.0014 0)
(0.000177893 10.001 -7.57779e-19)
(0.000377069 10.0004 -3.65656e-19)
(0.000129429 10 0)
(-0.323638 9.87631 0)
(-0.402084 9.85647 0)
(-0.493848 9.83955 0)
(-0.59984 9.82823 0)
(-0.720584 9.82595 0)
(-0.855882 9.83692 0)
(-1.00448 9.86603 0)
(-1.16372 9.9187 0)
(-1.32921 10.0005 0)
(-1.4945 10.1166 0)
(-1.65098 10.2712 0)
(-1.78804 10.4662 0)
(-1.89358 10.7011 0)
(-1.95587 10.9696 0)
(-1.98905 11.2706 0)
(-1.99074 11.5925 0)
(-1.94302 11.9088 0)
(-1.85116 12.2089 0)
(-1.72231 12.4854 0)
(-1.56415 12.734 0)
(-1.3779 12.9543 0)
(-1.18553 13.1431 0)
(-1.01137 13.3032 0)
(-0.855093 13.4405 0)
(-0.715799 13.5584 0)
(-0.592138 13.6581 0)
(-0.482598 13.7386 0)
(-0.385738 13.7963 0)
(-0.300077 13.8235 0)
(-0.223953 13.8093 0)
(-0.156347 13.7394 0)
(-0.0954396 13.5777 0)
(-0.044354 13.1122 0)
(-0.0060818 11.4972 0)
(-0.32054 9.86797 0)
(-0.251872 9.89021 0)
(-0.190654 9.91105 -1.16244e-17)