/*--------------------------------*- C++ -*----------------------------------*\
  =========                 |
  \\      /  F ield         | OpenFOAM: The Open Source CFD Toolbox
   \\    /   O peration     | Website:  https://openfoam.org
    \\  /    A nd           | Version:  8
     \\/     M anipulation  |
\*---------------------------------------------------------------------------*/
FoamFile
{
    version     2.0;
    format      ascii;
    class       volVectorField;
    location    "0.28";
    object      U;
}
// * * * * * * * * * * * * * * * * * * * * * * * * * * * * * * * * * * * * * //

dimensions      [0 1 -1 0 0 0 0];

internalField   nonuniform List<vector> 
15677
(
(-0.0199342 9.66502 0)
(0.0435836 9.92081 0)
(0.00238051 9.37788 0)
(0.0147484 9.97643 0)
(0.0186141 9.78759 0)
(0.0070149 9.14225 0)
(0.0279784 9.99429 0)
(0.0171115 9.92464 0)
(0.0107265 9.65481 0)
(0.00607396 8.96014 0)
(0.0261329 10.0015 0)
(0.0215117 9.97838 0)
(0.016383 9.85322 0)
(0.00900374 9.53032 0)
(0.00489367 8.81719 0)
(0.0249861 10.0047 0)
(0.0223896 10.0025 0)
(0.019168 9.9427 0)
(0.0153405 9.77923 0)
(0.00785616 9.4198 0)
(0.00402014 8.70313 0)
(0.0240181 10.0061 0)
(0.0225719 10.0141 0)
(0.0207768 9.98589 0)
(0.0182377 9.90228 0)
(0.0138453 9.70815 0)
(0.00677521 9.32222 0)
(0.00334996 8.61136 0)
(0.0226888 10.0066 0)
(0.0224152 10.0197 0)
(0.0216018 10.0079 0)
(0.0201235 9.96485 0)
(0.0169675 9.86206 0)
(0.0123966 9.6415 0)
(0.00582248 9.23758 0)
(0.00279109 8.53783 0)
(0.0210167 10.0066 0)
(0.0218834 10.0221 0)
(0.0219235 10.0193 0)
(0.0212018 9.99798 0)
(0.0189811 9.94389 0)
(0.0155519 9.823 0)
(0.0110224 9.58082 0)
(0.00494716 9.16583 0)
(0.00228002 8.4797 0)
(0.0191139 10.0062 0)
(0.0210558 10.0224 0)
(0.0218136 10.0253 0)
(0.0216857 10.0161 0)
(0.0201264 9.98835 0)
(0.0175755 9.92349 0)
(0.0140643 9.78655 0)
(0.00963394 9.52745 0)
(0.00409298 9.10668 0)
(0.00177892 8.43539 0)
(0.017057 10.0057 0)
(0.0200054 10.0216 0)
(0.0213583 10.0282 0)
(0.0216965 10.0262 0)
(0.0206386 10.0133 0)
(0.0186839 9.97931 0)
(0.0160038 9.90479 0)
(0.0124426 9.75412 0)
(0.00817013 9.48228 0)
(0.00321541 9.05982 0)
(0.00125937 8.40386 0)
(0.0148764 10.005 0)
(0.0187215 10.0201 0)
(0.0205941 10.0289 0)
(0.0213528 10.0316 0)
(0.0206523 10.0276 0)
(0.0191004 10.0111 0)
(0.01698 9.97178 0)
(0.0141916 9.88891 0)
(0.0106262 9.72679 0)
(0.00658345 9.44599 0)
(0.00227451 9.0251 0)
(0.000698903 8.38475 0)
(0.012578 10.0043 0)
(0.0172974 10.0181 0)
(0.0195327 10.0283 0)
(0.0206624 10.034 0)
(0.0202273 10.0356 0)
(0.0189763 10.0296 0)
(0.0172041 10.0104 0)
(0.0149297 9.96674 0)
(0.0120635 9.87679 0)
(0.00855791 9.70552 0)
(0.00482448 9.41923 0)
(0.00123732 9.00252 0)
(5.93722e-05 8.37779 0)
(0.0103191 10.0036 0)
(0.0158139 10.0159 0)
(0.0182144 10.0266 0)
(0.019647 10.0344 0)
(0.019462 10.0398 0)
(0.0183941 10.0404 0)
(0.0168344 10.0331 0)
(0.0148503 10.012 0)
(0.0124438 9.96501 0)
(0.00954719 9.86932 0)
(0.00617515 9.69126 0)
(0.00284724 9.40258 0)
(9.21775e-05 8.99217 0)
(-0.00055786 8.38291 0)
(0.00838234 10.0029 0)
(0.0142188 10.0135 0)
(0.016694 10.0243 0)
(0.0183174 10.0334 0)
(0.0183453 10.0413 0)
(0.0174101 10.0463 0)
(0.0159609 10.0465 0)
(0.0141123 10.0388 0)
(0.011933 10.0167 0)
(0.00943073 9.96737 0)
(0.00656242 9.86742 0)
(0.00341659 9.68494 0)
(0.000606205 9.39662 0)
(-0.00121136 8.99431 0)
(-0.00129927 8.40016 0)
(0.00683836 10.0023 0)
(0.0126712 10.0112 0)
(0.0149972 10.0215 0)
(0.0166871 10.0314 0)
(0.0168835 10.041 0)
(0.0160352 10.049 0)
(0.0146275 10.0541 0)
(0.0128072 10.0547 0)
(0.0106862 10.0474 0)
(0.00834101 10.0253 0)
(0.00578799 9.97464 0)
(0.00302918 9.87199 0)
(0.000209877 9.68743 0)
(-0.00193962 9.40192 0)
(-0.00268787 9.00905 0)
(-0.00213549 8.42976 0)
(0.00565479 10.0018 0)
(0.0112682 10.0093 0)
(0.013327 10.0188 0)
(0.0147829 10.0286 0)
(0.0150799 10.0393 0)
(0.0142738 10.0495 0)
(0.0128493 10.058 0)
(0.0109756 10.0641 0)
(0.00879215 10.0659 0)
(0.0064227 10.0598 0)
(0.00394825 10.0384 0)
(0.00142058 9.98769 0)
(-0.00111489 9.88397 0)
(-0.00343442 9.69953 0)
(-0.00479338 9.41896 0)
(-0.00433491 9.03661 0)
(-0.00306114 8.47174 0)
(0.00469492 10.0014 0)
(0.00991057 10.0077 0)
(0.011806 10.0164 0)
(0.012854 10.0257 0)
(0.0129475 10.0365 0)
(0.0121266 10.0481 0)
(0.0106272 10.0591 0)
(0.00862984 10.069 0)
(0.00628786 10.0767 0)
(0.00375878 10.0806 0)
(0.00117157 10.0766 0)
(-0.00136945 10.057 0)
(-0.003788 10.0073 0)
(-0.0059651 9.90421 0)
(-0.00760603 9.72197 0)
(-0.00799969 9.44812 0)
(-0.00615997 9.07699 0)
(-0.00407266 8.52609 0)
(0.00391071 10.0011 0)
(0.00866992 10.0064 0)
(0.0103734 10.0143 0)
(0.0110691 10.023 0)
(0.0107505 10.0334 0)
(0.00960153 10.0454 0)
(0.00795935 10.0582 0)
(0.00576701 10.0707 0)
(0.00317988 10.0826 0)
(0.00037887 10.0928 0)
(-0.00247389 10.0995 0)
(-0.00523252 10.0985 0)
(-0.00775235 10.0818 0)
(-0.00991622 10.0344 0)
(-0.0115587 9.93351 0)
(-0.0123344 9.75533 0)
(-0.0115703 9.48962 0)
(-0.00816784 9.13025 0)
(-0.00516727 8.59261 0)
(0.0032736 10.0009 0)
(0.007551 10.0053 0)
(0.00904585 10.0124 0)
(0.00938988 10.0205 0)
(0.00868931 10.0303 0)
(0.00699984 10.0421 0)
(0.00485088 10.0556 0)
(0.00238057 10.0701 0)
(-0.000538411 10.0849 0)
(-0.00371813 10.0995 0)
(-0.00696756 10.113 0)
(-0.0101015 10.1234 0)
(-0.0129352 10.1264 0)
(-0.0152971 10.1135 0)
(-0.0170288 10.0697 0)
(-0.0179277 9.97253 0)
(-0.0176227 9.80006 0)
(-0.0154991 9.54358 0)
(-0.0103445 9.19612 0)
(-0.00633334 8.67092 0)
(0.00275264 10.0007 0)
(0.00654055 10.0044 0)
(0.00782301 10.0108 0)
(0.00782459 10.0183 0)
(0.00673549 10.0274 0)
(0.00455904 10.0386 0)
(0.00166297 10.0519 0)
(-0.00151871 10.0674 0)
(-0.00487339 10.0843 0)
(-0.00854417 10.1022 0)
(-0.0123176 10.1204 0)
(-0.0159761 10.1381 0)
(-0.0192993 10.153 0)
(-0.0220723 10.1609 0)
(-0.0240927 10.153 0)
(-0.0251725 10.1139 0)
(-0.0250841 10.0218 0)
(-0.02346 9.85637 0)
(-0.0197677 9.6099 0)
(-0.0126808 9.27436 0)
(-0.00756255 8.76055 0)
(0.00234082 10.0006 0)
(0.00563041 10.0037 0)
(0.00669886 10.0095 0)
(0.00637868 10.0163 0)
(0.0049068 10.0247 0)
(0.00224949 10.0352 0)
(-0.00131034 10.048 0)
(-0.00548061 10.0634 0)
(-0.00981503 10.0814 0)
(-0.0141077 10.1016 0)
(-0.0185464 10.1232 0)
(-0.0228831 10.1459 0)
(-0.0268631 10.1686 0)
(-0.0302348 10.1891 0)
(-0.0327545 10.2028 0)
(-0.0341995 10.2007 0)
(-0.0343644 10.1675 0)
(-0.0330153 10.0817 0)
(-0.0298181 9.92435 0)
(-0.0243447 9.68833 0)
(-0.0151439 9.36429 0)
(-0.00883267 8.86063 0)
(0.00202614 10.0005 0)
(0.0048512 10.0032 0)
(0.00567016 10.0083 0)
(0.0050538 10.0145 0)
(0.00321552 10.0222 0)
(9.75507e-05 10.032 0)
(-0.0041058 10.044 0)
(-0.0091619 10.0589 0)
(-0.0147987 10.0769 0)
(-0.0203972 10.0983 0)
(-0.0256665 10.1225 0)
(-0.0308557 10.1488 0)
(-0.0356725 10.1768 0)
(-0.0398271 10.2054 0)
(-0.0430416 10.2323 0)
(-0.0450562 10.2526 0)
(-0.04564 10.2573 0)
(-0.0445874 10.2309 0)
(-0.0416824 10.1524 0)
(-0.0366482 10.0038 0)
(-0.0291827 9.77836 0)
(-0.0177123 9.4653 0)
(-0.0101259 8.97039 0)
(0.00178262 10.0004 0)
(0.00421746 10.0028 0)
(0.0047737 10.0073 0)
(0.00384978 10.0129 0)
(0.00166934 10.0199 0)
(-0.001879 10.0289 0)
(-0.00669586 10.0401 0)
(-0.0126078 10.0542 0)
(-0.0194032 10.0716 0)
(-0.0266981 10.093 0)
(-0.0336618 10.1186 0)
(-0.039911 10.1477 0)
(-0.0457751 10.1795 0)
(-0.0509201 10.2137 0)
(-0.0550291 10.2491 0)
(-0.0578118 10.2832 0)
(-0.0590077 10.311 0)
(-0.0583956 10.3231 0)
(-0.0557911 10.3042 0)
(-0.0510173 10.2337 0)
(-0.0438791 10.0944 0)
(-0.0342257 9.87933 0)
(-0.0203269 9.57632 0)
(-0.0114018 9.08821 0)
(0.00159058 10.0004 0)
(0.00370353 10.0024 0)
(0.00403208 10.0065 0)
(0.00281051 10.0115 0)
(0.000273275 10.0178 0)
(-0.00366883 10.0259 0)
(-0.00905285 10.0362 0)
(-0.0157756 10.0493 0)
(-0.0236896 10.066 0)
(-0.0324877 10.0868 0)
(-0.0416283 10.1122 0)
(-0.0500283 10.1428 0)
(-0.0571963 10.1778 0)
(-0.0635818 10.2161 0)
(-0.0688199 10.2574 0)
(-0.0725833 10.3004 0)
(-0.0745873 10.3423 0)
(-0.0745904 10.3781 0)
(-0.072404 10.3984 0)
(-0.0678864 10.3875 0)
(-0.0609229 10.3254 0)
(-0.0514224 10.1954 0)
(-0.0393607 9.99031 0)
(-0.0228756 9.69604 0)
(-0.0122257 9.21236 0)
(0.00143657 10.0003 0)
(0.00328444 10.0022 0)
(0.0034208 10.0059 0)
(0.00195913 10.0104 0)
(-0.000916525 10.0159 0)
(-0.0052639 10.0231 0)
(-0.0111595 10.0325 0)
(-0.0186307 10.0445 0)
(-0.0276025 10.0601 0)
(-0.0378501 10.0799 0)
(-0.0489173 10.1047 0)
(-0.0600681 10.1352 0)
(-0.0699111 10.1718 0)
(-0.0778498 10.2135 0)
(-0.0845089 10.2592 0)
(-0.0895128 10.3084 0)
(-0.0925447 10.3596 0)
(-0.0933486 10.41 0)
(-0.0917307 10.4544 0)
(-0.0875581 10.483 0)
(-0.0807511 10.4805 0)
(-0.0712769 10.427 0)
(-0.0591311 10.3062 0)
(-0.0445317 10.1101 0)
(-0.025376 9.82415 0)
(-0.0130811 9.34284 0)
(0.00131124 10.0003 0)
(0.00294038 10.002 0)
(0.00290226 10.0053 0)
(0.0012674 10.0094 0)
(-0.00187373 10.0143 0)
(-0.0065992 10.0206 0)
(-0.0130043 10.0289 0)
(-0.0211494 10.0398 0)
(-0.0310986 10.0541 0)
(-0.0427168 10.0726 0)
(-0.0556413 10.0963 0)
(-0.0692262 10.1261 0)
(-0.0824939 10.1625 0)
(-0.0936972 10.206 0)
(-0.102151 10.2554 0)
(-0.108728 10.3094 0)
(-0.113069 10.3672 0)
(-0.114897 10.4272 0)
(-0.114018 10.4866 0)
(-0.110307 10.5397 0)
(-0.103707 10.577 0)
(-0.094223 10.5829 0)
(-0.0818915 10.5379 0)
(-0.0668511 10.4255 0)
(-0.0488497 10.2379 0)
(-0.0214015 9.9541 0)
(-0.00785434 9.41662 0)
(0.001208 10.0003 0)
(0.00265634 10.0018 0)
(0.00247782 10.0049 0)
(0.000711477 10.0085 0)
(-0.00263569 10.0129 0)
(-0.00764903 10.0184 0)
(-0.0145124 10.0256 0)
(-0.0233148 10.0352 0)
(-0.0341449 10.048 0)
(-0.047032 10.0651 0)
(-0.061716 10.0873 0)
(-0.0776507 10.1158 0)
(-0.09395 10.1514 0)
(-0.109354 10.1947 0)
(-0.121717 10.2462 0)
(-0.130308 10.3042 0)
(-0.136336 10.3672 0)
(-0.139488 10.4342 0)
(-0.13956 10.5035 0)
(-0.136449 10.572 0)
(-0.130131 10.634 0)
(-0.12065 10.6798 0)
(-0.108076 10.6939 0)
(-0.0925576 10.6569 0)
(-0.0740034 10.5526 0)
(-0.0530016 10.3707 0)
(-0.0166831 10.1142 0)
(-0.000316106 9.46989 0)
(0.00112212 10.0002 0)
(0.00242024 10.0017 0)
(0.00213111 10.0045 0)
(0.000249295 10.0078 0)
(-0.00324073 10.0117 0)
(-0.008462 10.0165 0)
(-0.0156623 10.0226 0)
(-0.0250389 10.0308 0)
(-0.0367178 10.0421 0)
(-0.0507519 10.0574 0)
(-0.0670703 10.0779 0)
(-0.0852373 10.1047 0)
(-0.104471 10.1388 0)
(-0.123596 10.1812 0)
(-0.141039 10.2325 0)
(-0.154236 10.2929 0)
(-0.162456 10.3604 0)
(-0.16734 10.433 0)
(-0.168669 10.5097 0)
(-0.166357 10.5885 0)
(-0.160423 10.6661 0)
(-0.150966 10.7369 0)
(-0.13812 10.7909 0)
(-0.122046 10.8128 0)
(-0.102737 10.7834 0)
(-0.0800955 10.6861 0)
(-0.0561405 10.5164 0)
(-0.0180543 10.275 0)
(0.00414964 9.51391 0)
(0.00105005 10.0002 0)
(0.00222258 10.0015 0)
(0.00183945 10.0042 0)
(-0.000134696 10.0072 0)
(-0.00372402 10.0107 0)
(-0.00908765 10.0149 0)
(-0.0165186 10.0201 0)
(-0.0263064 10.0269 0)
(-0.0387125 10.0364 0)
(-0.0538441 10.0498 0)
(-0.0716467 10.0683 0)
(-0.0918963 10.093 0)
(-0.113929 10.1251 0)
(-0.13667 10.1659 0)
(-0.158617 10.2163 0)
(-0.177872 10.2764 0)
(-0.191421 10.3467 0)
(-0.198607 10.4245 0)
(-0.201632 10.5072 0)
(-0.200423 10.5938 0)
(-0.195045 10.6821 0)
(-0.185667 10.7687 0)
(-0.172511 10.8478 0)
(-0.155807 10.9097 0)
(-0.135634 10.9388 0)
(-0.111888 10.9164 0)
(-0.0846837 10.8268 0)
(-0.0568565 10.674 0)
(-0.0211 10.4317 0)
(0.00520048 9.55684 0)
(0.000989127 10.0002 0)
(0.00205608 10.0015 0)
(0.0015933 10.0039 0)
(-0.000448957 10.0067 0)
(-0.00410866 10.0098 0)
(-0.00956568 10.0135 0)
(-0.0171451 10.0178 0)
(-0.0272044 10.0235 0)
(-0.0401228 10.0313 0)
(-0.0561821 10.0424 0)
(-0.0754012 10.0585 0)
(-0.0975532 10.0808 0)
(-0.122211 10.1106 0)
(-0.148416 10.1492 0)
(-0.17476 10.1978 0)
(-0.199395 10.257 0)
(-0.220059 10.3271 0)
(-0.233312 10.408 0)
(-0.238667 10.4967 0)
(-0.239019 10.5899 0)
(-0.234487 10.6864 0)
(-0.225321 10.7841 0)
(-0.211847 10.8793 0)
(-0.194413 10.9663 0)
(-0.173252 11.0353 0)
(-0.148409 11.0713 0)
(-0.12022 11.0557 0)
(-0.0888586 10.9749 0)
(-0.0578163 10.8382 0)
(-0.0233943 10.5831 0)
(0.00484265 9.61287 0)
(0.00093726 10.0002 0)
(0.00191507 10.0014 0)
(0.00138521 10.0037 0)
(-0.000708697 10.0063 0)
(-0.00441443 10.0091 0)
(-0.0099277 10.0122 0)
(-0.0175927 10.0159 0)
(-0.027816 10.0205 0)
(-0.0410649 10.0268 0)
(-0.0577721 10.0358 0)
(-0.0781795 10.0491 0)
(-0.102149 10.0685 0)
(-0.12922 10.0955 0)
(-0.158695 10.1314 0)
(-0.189278 10.1775 0)
(-0.21919 10.2348 0)
(-0.246185 10.3041 0)
(-0.267687 10.385 0)
(-0.279835 10.4773 0)
(-0.282437 10.5772 0)
(-0.279213 10.6811 0)
(-0.270515 10.7875 0)
(-0.256802 10.8941 0)
(-0.238566 10.9974 0)
(-0.216234 11.0916 0)
(-0.190077 11.1672 0)
(-0.16054 11.2096 0)
(-0.128423 11.2005 0)
(-0.0937437 11.1293 0)
(-0.0595186 11.0039 0)
(-0.0257237 10.7465 0)
(0.00380854 9.67842 0)
(0.000892812 10.0002 0)
(0.00179504 10.0013 0)
(0.00120861 10.0035 0)
(-0.000923655 10.0059 0)
(-0.00465777 10.0084 0)
(-0.0101991 10.0111 0)
(-0.0179025 10.0142 0)
(-0.0282083 10.0179 0)
(-0.0416478 10.0228 0)
(-0.0587672 10.0299 0)
(-0.0800021 10.0405 0)
(-0.105493 10.0565 0)
(-0.13488 10.08 0)
(-0.167384 10.1127 0)
(-0.201994 10.1557 0)
(-0.237024 10.2104 0)
(-0.270271 10.2778 0)
(-0.299124 10.358 0)
(-0.320712 10.4505 0)
(-0.330794 10.5548 0)
(-0.3296 10.6662 0)
(-0.321818 10.7806 0)
(-0.308076 10.8965 0)
(-0.289053 11.0115 0)
(-0.265386 11.1223 0)
(-0.237607 11.2231 0)
(-0.206311 11.3048 0)
(-0.172388 11.3529 0)
(-0.136817 11.3497 0)
(-0.0993269 11.2872 0)
(-0.0623934 11.1879 0)
(-0.0282185 10.9218 0)
(0.00225385 9.75215 0)
(0.000854529 10.0002 0)
(0.00169228 10.0012 0)
(0.00105818 10.0033 0)
(-0.0011019 10.0055 0)
(-0.00485142 10.0078 0)
(-0.0104 10.0102 0)
(-0.018107 10.0127 0)
(-0.0284347 10.0156 0)
(-0.0419589 10.0193 0)
(-0.0593094 10.0247 0)
(-0.0810689 10.0329 0)
(-0.107622 10.0455 0)
(-0.138952 10.0648 0)
(-0.17438 10.0934 0)
(-0.212752 10.1328 0)
(-0.25268 10.1841 0)
(-0.292033 10.2487 0)
(-0.328196 10.3271 0)
(-0.358208 10.4192 0)
(-0.378946 10.524 0)
(-0.385849 10.6407 0)
(-0.379725 10.7636 0)
(-0.366366 10.8883 0)
(-0.346695 11.0131 0)
(-0.321617 11.1359 0)
(-0.291932 11.2533 0)
(-0.258457 11.36 0)
(-0.222172 11.447 0)
(-0.184187 11.5001 0)
(-0.145339 11.5016 0)
(-0.105753 11.4653 0)
(-0.066149 11.3884 0)
(-0.0308082 11.0913 0)
(0.00054641 9.83233 0)
(0.000821782 10.0002 0)
(0.00160364 10.0012 0)
(0.000929429 10.0032 0)
(-0.00125 10.0053 0)
(-0.00500544 10.0073 0)
(-0.0105463 10.0094 0)
(-0.0182318 10.0114 0)
(-0.0285371 10.0135 0)
(-0.0420677 10.0162 0)
(-0.0595124 10.02 0)
(-0.0815632 10.0261 0)
(-0.108794 10.0357 0)
(-0.141488 10.051 0)
(-0.179384 10.0745 0)
(-0.221418 10.109 0)
(-0.265963 10.1564 0)
(-0.311207 10.2172 0)
(-0.354566 10.2928 0)
(-0.393014 10.3832 0)
(-0.423274 10.4881 0)
(-0.442048 10.6058 0)
(-0.444541 10.7349 0)
(-0.432297 10.8691 0)
(-0.41233 11.0036 0)
(-0.385878 11.1367 0)
(-0.354087 11.2665 0)
(-0.318033 11.3898 0)
(-0.278878 11.5016 0)
(-0.237831 11.5929 0)
(-0.195933 11.6492 0)
(-0.154606 11.6728 0)
(-0.112726 11.6618 0)
(-0.0701951 11.5837 0)
(-0.0332841 11.2551 0)
(-0.00112239 9.91686 0)
(0.00152667 10.0011 0)
(0.000782804 10.0001 0)
(0.000817904 10.0031 0)
(-0.0013736 10.005 0)
(-0.00512775 10.0069 0)
(-0.0106505 10.0086 0)
(-0.0182971 10.0102 0)
(-0.0285485 10.0117 0)
(-0.0420286 10.0135 0)
(-0.0594662 10.0159 0)
(-0.0816321 10.02 0)
(-0.109241 10.027 0)
(-0.142815 10.0386 0)
(-0.182463 10.0571 0)
(-0.227613 10.0857 0)
(-0.276699 10.1274 0)
(-0.327549 10.1839 0)
(-0.377911 10.2556 0)
(-0.424733 10.3433 0)
(-0.464601 10.4468 0)
(-0.493994 10.565 0)
(-0.509543 10.6958 0)
(-0.506311 10.8373 0)
(-0.486734 10.9825 0)
(-0.459161 11.126 0)
(-0.425166 11.2666 0)
(-0.386197 11.4025 0)
(-0.343654 11.5309 0)
(-0.298929 11.6467 0)
(-0.25324 11.7407 0)
(-0.208702 11.8169 0)
(-0.16441 11.8622 0)
(-0.11937 11.855 0)
(-0.0742031 11.7726 0)
(-0.0355423 11.4126 0)
(-0.00263732 10.0039 0)
(0.000719445 10.003 0)
(0.00143886 10.0011 0)
(0.000736503 10.0001 0)
(-0.00147809 10.0048 0)
(-0.00522492 10.0065 0)
(-0.0107221 10.008 0)
(-0.0183182 10.0092 0)
(-0.0284944 10.0101 0)
(-0.0418841 10.011 0)
(-0.0592414 10.0123 0)
(-0.0813917 10.0147 0)
(-0.109154 10.0192 0)
(-0.143231 10.0274 0)
(-0.184026 10.0415 0)
(-0.231415 10.0642 0)
(-0.284408 10.0988 0)
(-0.340834 10.149 0)
(-0.397927 10.216 0)
(-0.452973 10.2998 0)
(-0.502463 10.4007 0)
(-0.542661 10.5181 0)
(-0.569892 10.6501 0)
(-0.580835 10.7941 0)
(-0.570514 10.9477 0)
(-0.542419 11.1032 0)
(-0.506332 11.255 0)
(-0.464191 11.4021 0)
(-0.417777 11.5432 0)
(-0.368731 11.6754 0)
(-0.318496 11.7937 0)
(-0.269889 11.9067 0)
(-0.22209 12.0021 0)
(-0.173594 12.0491 0)
(-0.125524 12.0431 0)
(-0.0779677 11.9542 0)
(-0.0375538 11.5635 0)
(-0.00401784 10.0917 0)
(-0.00157107 10.0046 0)
(0.000619637 10.0028 0)
(0.00133197 10.001 0)
(0.000692245 10.0001 4.63977e-20)
(-0.00530352 10.0062 0)
(-0.0107686 10.0074 0)
(-0.018307 10.0083 0)
(-0.0283946 10.0087 0)
(-0.0416671 10.0089 0)
(-0.0588927 10.0091 0)
(-0.0809331 10.0099 0)
(-0.108681 10.0122 0)
(-0.142975 10.0174 0)
(-0.184444 10.0274 0)
(-0.233327 10.0447 0)
(-0.289167 10.0725 0)
(-0.350453 10.1144 0)
(-0.414329 10.1744 0)
(-0.477362 10.2532 0)
(-0.536393 10.3503 0)
(-0.587507 10.4655 0)
(-0.626728 10.5974 0)
(-0.650349 10.7436 0)
(-0.655225 10.9006 0)
(-0.636458 11.0657 0)
(-0.598736 11.2306 0)
(-0.553366 11.3897 0)
(-0.502655 11.5423 0)
(-0.448647 11.6874 0)
(-0.393089 11.822 0)
(-0.339516 11.9588 0)
(-0.287243 12.0899 0)
(-0.23448 12.1847 0)
(-0.182023 12.2317 0)
(-0.131072 12.2245 0)
(-0.081375 12.1277 0)
(-0.0392857 11.7076 0)
(-0.00526421 10.1789 0)
(-0.0053751 10.0059 0)
(-0.00164607 10.0043 0)
(0.000510811 10.0026 2.11162e-19)
(0.0012281 10.001 -1.47103e-19)
(0.000649849 10.0001 -9.10682e-20)
(-0.0107978 10.0069 0)
(-0.0182721 10.0075 0)
(-0.0282634 10.0075 0)
(-0.0414025 10.007 0)
(-0.0584623 10.0063 0)
(-0.0803267 10.0057 0)
(-0.107939 10.0061 0)
(-0.142235 10.0086 0)
(-0.184018 10.0149 0)
(-0.233809 10.0272 0)
(-0.291588 10.0485 0)
(-0.356471 10.0824 0)
(-0.426346 10.133 0)
(-0.497542 10.2041 0)
(-0.56594 10.2962 0)
(-0.627988 10.4079 0)
(-0.679436 10.5381 0)
(-0.716184 10.685 0)
(-0.734628 10.8453 0)
(-0.731943 11.0149 0)
(-0.703423 11.1907 0)
(-0.655093 11.3641 0)
(-0.599838 11.5293 0)
(-0.540263 11.6863 0)
(-0.478565 11.8337 0)
(-0.419165 11.9868 0)
(-0.36137 12.1412 0)
(-0.303198 12.2706 0)
(-0.245737 12.3633 0)
(-0.189585 12.4084 0)
(-0.13596 12.3984 0)
(-0.0843705 12.2928 0)
(-0.0407322 11.8447 0)
(-0.00636486 10.2643 0)
(-0.010827 10.0065 0)
(-0.00539659 10.0055 -4.77059e-19)
(-0.00170511 10.004 -2.23137e-19)
(0.00040743 10.0025 1.0363e-19)
(0.00112816 10.0009 -9.62268e-20)
(0.000609378 10.0001 0)
(-0.0182222 10.0068 0)
(-0.0281112 10.0064 0)
(-0.0411084 10.0054 0)
(-0.0579823 10.0038 0)
(-0.0796266 10.002 0)
(-0.107018 10.0006 0)
(-0.14116 10.0007 0)
(-0.182986 10.0037 0)
(-0.233235 10.0115 0)
(-0.292234 10.0269 0)
(-0.359619 10.0533 0)
(-0.434005 10.0945 0)
(-0.512537 10.1551 0)
(-0.590657 10.2389 0)
(-0.663561 10.3457 0)
(-0.727382 10.4729 0)
(-0.777647 10.6189 0)
(-0.810265 10.7809 0)
(-0.821893 10.955 0)
(-0.810171 11.1366 0)
(-0.770693 11.3222 0)
(-0.710934 11.5027 0)
(-0.645335 11.6729 0)
(-0.576696 11.8326 0)
(-0.510534 11.9986 0)
(-0.446246 12.169 0)
(-0.38142 12.3212 0)
(-0.317631 12.4472 0)
(-0.25577 12.5363 0)
(-0.196232 12.5783 0)
(-0.14018 12.5642 0)
(-0.0869441 12.4493 0)
(-0.0419143 11.9746 0)
(-0.00732083 10.3471 0)
(-0.0181827 10.0062 0)
(-0.0107601 10.006 1.00817e-18)
(-0.00535472 10.005 0)
(-0.00176028 10.0037 2.18953e-19)
(0.00031112 10.0023 3.23293e-23)
(0.00103176 10.0008 0)
(0.000571006 10.0001 0)
(-0.0279474 10.0055 0)
(-0.0407969 10.0039 0)
(-0.0574753 10.0015 0)
(-0.0788739 9.99867 0)
(-0.105987 9.99579 0)
(-0.139866 9.99371 0)
(-0.181536 9.99369 0)
(-0.231902 9.99749 0)
(-0.291563 10.0075 0)
(-0.360577 10.0269 0)
(-0.438169 10.0594 0)
(-0.522312 10.1094 0)
(-0.609321 10.1815 0)
(-0.693677 10.2794 0)
(-0.769928 10.4021 0)
(-0.834018 10.5458 0)
(-0.881381 10.708 0)
(-0.9081 10.8851 0)
(-0.911247 11.0726 0)
(-0.889071 11.2652 0)
(-0.837564 11.4593 0)
(-0.765714 11.6457 0)
(-0.689443 11.8191 0)
(-0.615616 11.9976 0)
(-0.54373 12.181 0)
(-0.471068 12.349 0)
(-0.399533 12.4972 0)
(-0.330465 12.6183 0)
(-0.264547 12.7028 0)
(-0.201967 12.7408 0)
(-0.143757 12.7217 0)
(-0.0891112 12.5972 0)
(-0.0428615 12.0972 0)
(-0.00813937 10.4266 0)
(-0.0278088 10.0046 0)
(-0.0179826 10.0055 1.2762e-22)
(-0.0105549 10.0053 0)
(-0.00531081 10.0046 -2.31354e-19)
(-0.0018063 10.0034 1.7492e-23)
(0.000222083 10.0021 0)
(0.000939118 10.0008 0)
(0.000534298 10.0001 0)
(-0.0404786 10.0026 0)
(-0.0569559 9.99957 0)
(-0.0780971 9.99575 0)
(-0.104898 9.99151 0)
(-0.138439 9.98751 0)
(-0.179812 9.98482 0)
(-0.230043 9.98499 0)
(-0.289941 9.99016 0)
(-0.359902 10.0032 0)
(-0.43965 10.0275 0)
(-0.527867 10.0674 0)
(-0.62179 10.1276 0)
(-0.71681 10.2128 0)
(-0.806404 10.3264 0)
(-0.884547 10.4661 0)
(-0.947156 10.6269 0)
(-0.989742 10.8056 0)
(-1.00873 10.9975 0)
(-1.00176 11.1974 0)
(-0.967815 11.3999 0)
(-0.903358 11.6011 0)
(-0.818909 11.7917 0)
(-0.736591 11.9844 0)
(-0.65605 12.1806 0)
(-0.574168 12.3616 0)
(-0.493482 12.5253 0)
(-0.415639 12.6679 0)
(-0.341687 12.7832 0)
(-0.272098 12.8621 0)
(-0.206827 12.8953 0)
(-0.146731 12.8707 0)
(-0.0909 12.7365 0)
(-0.0436034 12.2126 0)
(-0.00883119 10.5024 0)
(-0.0402059 10.0014 0)
(-0.0274206 10.0036 -5.62849e-19)
(-0.017532 10.0046 0)
(-0.0103506 10.0047 0)
(-0.00525428 10.0042 6.81151e-19)
(-0.00184256 10.0032 0)
(0.000140063 10.002 0)
(0.000851096 10.0007 1.81917e-19)
(0.000499345 10.0001 0)
(-0.0564355 9.99784 0)
(-0.0773137 9.99317 0)
(-0.103789 9.98771 0)
(-0.136947 9.98201 0)
(-0.177925 9.97695 0)
(-0.227839 9.97387 0)
(-0.287659 9.97466 0)
(-0.35804 9.98187 0)
(-0.439116 9.99874 0)
(-0.530159 10.0293 0)
(-0.629209 10.0781 0)
(-0.732667 10.15 0)
(-0.834926 10.2498 0)
(-0.928438 10.3805 0)
(-1.00673 10.5382 0)
(-1.0659 10.7167 0)
(-1.10172 10.9116 0)
(-1.11113 11.1176 0)
(-1.09249 11.329 0)
(-1.0456 11.54 0)
(-0.967426 11.7466 0)
(-0.87585 11.9573 0)
(-0.785623 12.1683 0)
(-0.693155 12.3621 0)
(-0.601666 12.5386 0)
(-0.513418 12.6964 0)
(-0.429737 12.8325 0)
(-0.351346 12.9411 0)
(-0.278488 13.0139 0)
(-0.210873 13.0416 0)
(-0.149154 13.0111 0)
(-0.0923441 12.8673 0)
(-0.0441683 12.3209 0)
(-0.00940926 10.5744 0)
(-0.0559882 9.9963 0)
(-0.0395615 10.0001 0)
(-0.0266204 10.0025 -5.56525e-19)
(-0.0170879 10.0038 -5.1676e-19)
(-0.0101289 10.0041 -9.59691e-19)
(-0.00518323 10.0038 0)
(-0.00186898 10.0029 -4.13904e-19)
(6.53215e-05 10.0018 -3.84439e-19)
(0.000767627 10.0007 1.78534e-19)
(0.00046609 10.0001 0)
(-0.0765366 9.99088 0)
(-0.102678 9.98435 0)
(-0.135436 9.97713 0)
(-0.17596 9.96996 0)
(-0.225432 9.96399 0)
(-0.284941 9.96085 0)
(-0.355346 9.96283 0)
(-0.437107 9.9729 0)
(-0.52998 9.99477 0)
(-0.632689 10.0329 0)
(-0.742532 10.0921 0)
(-0.854985 10.1774 0)
(-0.963381 10.2934 0)
(-1.05918 10.4423 0)
(-1.13563 10.6189 0)
(-1.18924 10.8152 0)
(-1.21623 11.0259 0)
(-1.21425 11.2451 0)
(-1.18251 11.4667 0)
(-1.12166 11.6844 0)
(-1.03624 11.9122 0)
(-0.9352 12.142 0)
(-0.830673 12.351 0)
(-0.7267 12.5404 0)
(-0.626143 12.7107 0)
(-0.530887 12.8615 0)
(-0.441894 12.9902 0)
(-0.359535 13.0916 0)
(-0.283809 13.1579 0)
(-0.214178 13.1798 0)
(-0.151084 13.143 0)
(-0.093481 12.9898 0)
(-0.0445828 12.4222 0)
(-0.00988623 10.6422 0)
(-0.0758687 9.98885 0)
(-0.0550045 9.99459 -6.29478e-19)
(-0.0382793 9.99867 5.87978e-19)
(-0.0258368 10.0014 -2.72156e-22)
(-0.0166205 10.003 5.07009e-19)
(-0.00988598 10.0036 4.70938e-19)
(-0.00509757 10.0034 8.74697e-19)
(-0.00188556 10.0026 6.09285e-19)
(-2.4715e-06 10.0017 -1.88652e-19)
(0.000688874 10.0006 0)
(0.00043447 10.0001 0)
(-0.101583 9.98137 0)
(-0.13393 9.97281 0)
(-0.173975 9.96376 0)
(-0.222927 9.9552 0)
(-0.281962 9.94856 0)
(-0.3521 9.94584 0)
(-0.434053 9.94974 0)
(-0.527974 9.96368 0)
(-0.633159 9.99183 0)
(-0.747682 10.039 0)
(-0.868001 10.1102 0)
(-0.988581 10.2106 0)
(-1.10168 10.3443 0)
(-1.19782 10.5126 0)
(-1.27021 10.7085 0)
(-1.31603 10.9223 0)
(-1.33214 11.1482 0)
(-1.31704 11.3795 0)
(-1.27089 11.6094 0)
(-1.2037 11.8497 0)
(-1.10826 12.0979 0)
(-0.989889 12.3263 0)
(-0.871457 12.5309 0)
(-0.756585 12.714 0)
(-0.647619 12.877 0)
(-0.545975 13.0199 0)
(-0.452222 13.1406 0)
(-0.366371 13.2344 0)
(-0.28816 13.2939 0)
(-0.216819 13.3098 0)
(-0.152578 13.2667 0)
(-0.0943495 13.1043 0)
(-0.0448706 12.5168 0)
(-0.0102751 10.706 0)
(-0.100644 9.97872 0)
(-0.0744454 9.98664 -8.47968e-22)
(-0.053075 9.99272 0)
(-0.0370306 9.99726 -4.33395e-22)
(-0.0250229 10.0004 0)
(-0.0161233 10.0022 -4.97577e-19)
(-0.00962194 10.003 -9.24305e-19)
(-0.00499713 10.003 2.19244e-23)
(-0.0018925 10.0024 3.98624e-19)
(-6.32174e-05 10.0015 -1.8514e-19)
(0.000614992 10.0006 1.71971e-19)
(0.000404409 10.0001 0)
(-0.132449 9.96897 0)
(-0.172001 9.95826 0)
(-0.220397 9.9474 0)
(-0.278856 9.93762 0)
(-0.348517 9.9307 0)
(-0.430295 9.92904 0)
(-0.524662 9.93578 0)
(-0.631382 9.95478 0)
(-0.749193 9.99066 0)
(-0.875419 10.0485 0)
(-1.00558 10.1336 0)
(-1.13309 10.2507 0)
(-1.24913 10.4033 0)
(-1.34342 10.5918 0)
(-1.40936 10.8071 0)
(-1.44508 11.0381 0)
(-1.4483 11.2781 0)
(-1.41848 11.5197 0)
(-1.36668 11.7738 0)
(-1.28993 12.0361 0)
(-1.17488 12.284 0)
(-1.03957 12.5083 0)
(-0.907874 12.7064 0)
(-0.782837 12.8819 0)
(-0.666195 13.0366 0)
(-0.55882 13.171 0)
(-0.460864 13.2834 0)
(-0.371981 13.3695 0)
(-0.291648 13.422 0)
(-0.218878 13.4318 0)
(-0.153694 13.3825 0)
(-0.0949873 13.2113 0)
(-0.045053 12.605 0)
(-0.0105876 10.7658 0)
(-0.131183 9.96556 0)
(-0.0986606 9.9759 7.03184e-19)
(-0.0716648 9.98427 -6.58095e-19)
(-0.0512051 9.99092 6.10016e-19)
(-0.0357437 9.99591 0)
(-0.0241676 9.99936 0)
(-0.0155957 10.0015 4.88318e-19)
(-0.00933648 10.0025 -4.53493e-19)
(-0.00488281 10.0026 2.70032e-23)
(-0.00188977 10.0021 1.95637e-19)
(-0.000116935 10.0014 -1.81722e-19)
(0.000546117 10.0005 -1.68773e-19)
(0.000375976 10.0001 0)
(-0.170062 9.95337 0)
(-0.217879 9.94047 0)
(-0.275713 9.9279 0)
(-0.344762 9.91722 0)
(-0.4261 9.91057 0)
(-0.520454 9.91078 0)
(-0.627976 9.92145 0)
(-0.747956 9.94691 0)
(-0.878471 9.99212 0)
(-1.01599 10.0624 0)
(-1.15503 10.163 0)
(-1.28791 10.2983 0)
(-1.40484 10.4711 0)
(-1.49485 10.6803 0)
(-1.55184 10.9149 0)
(-1.57518 11.1624 0)
(-1.56357 11.4148 0)
(-1.52903 11.6823 0)
(-1.4679 11.9605 0)
(-1.37008 12.2241 0)
(-1.23563 12.4688 0)
(-1.08408 12.6866 0)
(-0.939956 12.8766 0)
(-0.805577 13.0433 0)
(-0.682034 13.1891 0)
(-0.569595 13.3147 0)
(-0.467979 13.4186 0)
(-0.376499 13.4967 0)
(-0.294376 13.5423 0)
(-0.220432 13.546 0)
(-0.154484 13.4906 0)
(-0.0954292 13.3109 0)
(-0.0451492 12.6872 0)
(-0.0108353 10.8216 0)
(-0.168413 9.94904 0)
(-0.128499 9.96198 0)
(-0.0947807 9.97292 6.95064e-19)
(-0.0689811 9.98199 -1.29196e-18)
(-0.0492872 9.98919 1.19882e-18)
(-0.0344008 9.9946 -1.1126e-18)
(-0.0232708 9.99839 0)
(-0.0150394 10.0008 4.79399e-19)
(-0.00903042 10.0019 -4.45058e-19)
(-0.00475396 10.0022 -4.13445e-19)
(-0.00187753 10.0019 0)
(-0.000164022 10.0012 1.78348e-19)
(0.00048286 10.0005 0)
(0.000349721 10.0001 0)
(-0.215408 9.93431 0)
(-0.27258 9.91926 0)
(-0.340947 9.90522 0)
(-0.421669 9.89409 0)
(-0.515674 9.88844 0)
(-0.623433 9.89153 0)
(-0.744698 9.90744 0)
(-0.878186 9.94091 0)
(-1.0212 9.99721 0)
(-1.16928 10.0818 0)
(-1.31589 10.1996 0)
(-1.45229 10.3546 0)
(-1.56777 10.5484 0)
(-1.65088 10.7785 0)
(-1.69637 11.0319 0)
(-1.70506 11.2943 0)
(-1.68998 11.5747 0)
(-1.64657 11.8686 0)
(-1.56254 12.1501 0)
(-1.44353 12.4118 0)
(-1.29025 12.6505 0)
(-1.12341 12.8599 0)
(-0.967844 13.0406 0)
(-0.825014 13.1977 0)
(-0.695345 13.3341 0)
(-0.578491 13.4506 0)
(-0.47373 13.546 0)
(-0.380056 13.6164 0)
(-0.296445 13.6551 0)
(-0.221554 13.6527 0)
(-0.155 13.5914 0)
(-0.0957063 13.4037 0)
(-0.0451749 12.7635 0)
(-0.0110274 10.8737 0)
(-0.213317 9.92885 0)
(-0.164867 9.94453 0)
(-0.123225 9.95826 0)
(-0.0910532 9.97007 1.36447e-18)
(-0.0662397 9.97982 -1.26631e-18)
(-0.047296 9.98755 1.1753e-18)
(-0.0330027 9.99336 0)
(-0.0223345 9.99746 -5.06472e-19)
(-0.0144541 10.0001 0)
(-0.00870462 10.0015 4.36822e-19)
(-0.00461102 10.0019 0)
(-0.00185593 10.0017 0)
(-0.000204647 10.0011 0)
(0.000426644 10.0004 1.73371e-19)
(0.000325872 10.0001 8.46726e-20)
(-0.269504 9.91158 0)
(-0.337133 9.89454 0)
(-0.417142 9.87941 0)
(-0.510572 9.86848 0)
(-0.618146 9.86473 0)
(-0.740007 9.87193 0)
(-0.875413 9.89457 0)
(-1.0224 9.93777 0)
(-1.17741 10.007 0)
(-1.33498 10.1077 0)
(-1.48751 10.2444 0)
(-1.62527 10.4202 0)
(-1.73674 10.6356 0)
(-1.81024 10.8866 0)
(-1.84163 11.1576 0)
(-1.8485 11.4503 0)
(-1.82534 11.7597 0)
(-1.75723 12.0594 0)
(-1.64981 12.3407 0)
(-1.50994 12.5975 0)
(-1.33871 12.8278 0)
(-1.1577 13.0273 0)
(-0.991762 13.1978 0)
(-0.841404 13.3448 0)
(-0.706361 13.4715 0)
(-0.58571 13.5789 0)
(-0.478282 13.6658 0)
(-0.382779 13.7286 0)
(-0.297951 13.7606 0)
(-0.222309 13.7524 0)
(-0.155285 13.6853 0)
(-0.0958467 13.4899 0)
(-0.0451439 12.8344 0)
(-0.0111723 10.9222 0)
(-0.26692 9.90475 0)
(-0.208727 9.92321 0)
(-0.157856 9.93991 1.56017e-18)
(-0.118181 9.95472 1.44684e-18)
(-0.0872565 9.96736 1.34192e-18)
(-0.0634048 9.97776 -1.24471e-18)
(-0.0452332 9.98599 0)
(-0.0315523 9.99219 0)
(-0.0213602 9.99659 0)
(-0.0138418 9.99944 9.23605e-19)
(-0.00835892 10.001 4.2881e-19)
(-0.00445513 10.0016 3.98234e-19)
(-0.00182472 10.0015 0)
(-0.000238516 10.001 -1.8319e-19)
(0.000377776 10.0004 -8.94963e-20)
(0.000304136 10.0001 0)
(-0.333387 9.88504 0)
(-0.412595 9.86634 0)
(-0.505316 9.85068 0)
(-0.612418 9.84076 0)
(-0.734351 9.84006 0)
(-0.870841 9.85278 0)
(-1.02055 9.88383 0)
(-1.18074 9.93863 0)
(-1.34691 10.0227 0)
(-1.51257 10.1413 0)
(-1.66906 10.2983 0)
(-1.80575 10.4959 0)
(-1.9105 10.7333 0)
(-1.97158 11.0043 0)
(-2.00329 11.308 0)
(-2.00334 11.6326 0)
(-1.9538 11.951 0)
(-1.86004 12.2528 0)
(-1.72924 12.5304 0)
(-1.5692 12.7796 0)
(-1.38113 12.9998 0)
(-1.1872 13.1881 0)
(-1.01199 13.3476 0)
(-0.855022 13.4842 0)
(-0.715323 13.6012 0)
(-0.591447 13.6996 0)
(-0.48179 13.7782 0)
(-0.384785 13.8336 0)
(-0.298979 13.8591 0)
(-0.222758 13.8452 0)
(-0.155382 13.7726 0)
(-0.0958741 13.5701 0)
(-0.0450664 12.9002 0)
(-0.0112785 10.9673 0)
(-0.330266 9.8766 0)
(-0.261078 9.89776 0)
(-0.199581 9.91752 -3.30017e-18)