/*--------------------------------*- C++ -*----------------------------------*\
  =========                 |
  \\      /  F ield         | OpenFOAM: The Open Source CFD Toolbox
   \\    /   O peration     | Website:  https://openfoam.org
    \\  /    A nd           | Version:  8
     \\/     M anipulation  |
\*---------------------------------------------------------------------------*/
FoamFile
{
    version     2.0;
    format      ascii;
    class       surfaceScalarField;
    location    "0.47";
    object      phi;
}
// * * * * * * * * * * * * * * * * * * * * * * * * * * * * * * * * * * * * * //

dimensions      [0 3 -1 0 0 0 0];

internalField   nonuniform List<scalar> 
31053
(
6.4005e-07
1.27399e-05
8.62999e-07
1.51571e-05
3.56956e-07
1.2383e-05
9.48581e-07
1.75544e-05
5.66705e-07
1.49473e-05
2.7461e-07
1.21084e-05
9.732e-07
2.02154e-05
6.81014e-07
1.74401e-05
4.6976e-07
1.47522e-05
2.15838e-07
1.18925e-05
9.64534e-07
2.32487e-05
7.39278e-07
2.01571e-05
5.94924e-07
1.73149e-05
3.95142e-07
1.45728e-05
1.71271e-07
1.17213e-05
9.34589e-07
2.66899e-05
7.63837e-07
2.32241e-05
6.69223e-07
2.00828e-05
5.21389e-07
1.71887e-05
3.30714e-07
1.44134e-05
1.36939e-07
1.15843e-05
8.89204e-07
3.06654e-05
7.66466e-07
2.66873e-05
7.10336e-07
2.3183e-05
6.01171e-07
2.0003e-05
4.51545e-07
1.70679e-05
2.76455e-07
1.42739e-05
1.09974e-07
1.14744e-05
8.31618e-07
3.51976e-05
7.53599e-07
3.06783e-05
7.29105e-07
2.66685e-05
6.47986e-07
2.31362e-05
5.31068e-07
1.99235e-05
3.88129e-07
1.69562e-05
2.2965e-07
1.41542e-05
8.76836e-08
1.13867e-05
7.65487e-07
4.03861e-05
7.29247e-07
3.52219e-05
7.31897e-07
3.06755e-05
6.71856e-07
2.66447e-05
5.78345e-07
2.30889e-05
4.63845e-07
1.98478e-05
3.29645e-07
1.68562e-05
1.87928e-07
1.4054e-05
6.82426e-08
1.13184e-05
6.93168e-07
4.63523e-05
6.94666e-07
4.04207e-05
7.22394e-07
3.52314e-05
6.78734e-07
3.06686e-05
6.02361e-07
2.66207e-05
5.08488e-07
2.30443e-05
3.98689e-07
1.97788e-05
2.74422e-07
1.67697e-05
1.49475e-07
1.39727e-05
5.04923e-08
1.12679e-05
6.16622e-07
5.32165e-05
6.51536e-07
4.63954e-05
7.01081e-07
4.0442e-05
6.71644e-07
3.52385e-05
6.09005e-07
3.06619e-05
5.29672e-07
2.65995e-05
4.38117e-07
2.30048e-05
3.3444e-07
1.97187e-05
2.21034e-07
1.66981e-05
1.12974e-07
1.39103e-05
3.36487e-08
1.12343e-05
5.37954e-07
6.10587e-05
6.01509e-07
5.32666e-05
6.68696e-07
4.64278e-05
6.53324e-07
4.04603e-05
6.01653e-07
3.52459e-05
5.33125e-07
3.06585e-05
4.53994e-07
2.65836e-05
3.66429e-07
2.29728e-05
2.6991e-07
1.96699e-05
1.68341e-07
1.66428e-05
7.74633e-08
1.38664e-05
1.71941e-08
1.12171e-05
4.59209e-07
7.00607e-05
5.46077e-07
6.11141e-05
6.26219e-07
5.33091e-05
6.24556e-07
4.64566e-05
5.82456e-07
4.04795e-05
5.22264e-07
3.52567e-05
4.5165e-07
3.06608e-05
3.74808e-07
2.65752e-05
2.92292e-07
2.29505e-05
2.04036e-07
1.96342e-05
1.15508e-07
1.66047e-05
4.22407e-08
1.38414e-05
9.49504e-10
1.12161e-05
3.82422e-07
8.04088e-05
4.86605e-07
7.01202e-05
5.74731e-07
6.11656e-05
5.85462e-07
5.33481e-05
5.52373e-07
4.64867e-05
4.98987e-07
4.05028e-05
4.34411e-07
3.5274e-05
3.64332e-07
3.06713e-05
2.90987e-07
2.65765e-05
2.14628e-07
2.29399e-05
1.36084e-07
1.96136e-05
6.19006e-08
1.65851e-05
6.92611e-09
1.38354e-05
-1.53032e-08
1.12315e-05
3.20869e-07
7.62516e-05
4.2422e-07
8.04712e-05
5.15505e-07
7.01794e-05
5.36315e-07
6.12147e-05
5.11623e-07
5.33889e-05
4.64189e-07
4.65215e-05
4.04068e-07
4.05332e-05
3.38152e-07
3.53002e-05
2.70059e-07
3.06922e-05
2.01402e-07
2.65898e-05
1.32697e-07
2.29433e-05
6.55003e-08
1.961e-05
7.16575e-09
1.65848e-05
-2.86863e-08
1.38488e-05
-3.17394e-08
1.12632e-05
2.68483e-07
7.62424e-05
3.70557e-07
7.63052e-05
4.5e-07
8.05367e-05
4.77708e-07
7.0238e-05
4.60252e-07
6.12661e-05
4.18122e-07
5.3435e-05
3.61417e-07
4.65641e-05
2.97948e-07
4.05734e-05
2.32395e-07
3.53378e-05
1.67639e-07
3.0726e-05
1.05252e-07
2.66172e-05
4.59474e-08
2.29628e-05
-7.94404e-09
1.96251e-05
-4.88084e-08
1.6605e-05
-6.47323e-08
1.38818e-05
-4.83386e-08
1.13115e-05
2.24064e-07
7.62344e-05
3.21986e-07
7.6291e-05
3.91724e-07
7.63635e-05
4.10703e-07
8.06037e-05
3.98478e-07
7.02998e-05
3.60786e-07
6.13234e-05
3.06658e-07
5.34897e-05
2.44401e-07
4.66177e-05
1.79519e-07
4.06262e-05
1.15886e-07
3.53896e-05
5.61978e-08
3.0775e-05
1.971e-09
2.66612e-05
-4.57638e-08
2.30006e-05
-8.41989e-08
1.96605e-05
-1.05971e-07
1.66462e-05
-1.01109e-07
1.39346e-05
-6.49309e-08
1.13765e-05
1.86487e-07
7.62296e-05
2.77987e-07
7.62784e-05
3.3753e-07
7.63452e-05
3.49422e-07
7.64248e-05
3.27058e-07
8.06751e-05
2.92243e-07
7.03684e-05
2.3977e-07
6.13903e-05
1.77614e-07
5.35565e-05
1.11962e-07
4.66852e-05
4.74423e-08
4.06947e-05
-1.2344e-08
3.54581e-05
-6.48593e-08
3.08419e-05
-1.08546e-07
2.6724e-05
-1.42237e-07
2.30587e-05
-1.62974e-07
1.97175e-05
-1.64001e-07
1.67091e-05
-1.37526e-07
1.40072e-05
-8.13817e-08
1.14578e-05
1.54763e-07
7.62217e-05
2.38175e-07
7.62694e-05
2.87364e-07
7.63286e-05
2.9131e-07
7.64033e-05
2.61106e-07
7.64907e-05
2.13057e-07
8.07543e-05
1.60776e-07
7.04474e-05
9.75288e-08
6.14704e-05
2.97026e-08
5.36388e-05
-3.73515e-08
4.677e-05
-9.93608e-08
4.07817e-05
-1.52917e-07
3.55462e-05
-1.95612e-07
3.09289e-05
-2.25968e-07
2.68077e-05
-2.42944e-07
2.31386e-05
-2.43644e-07
1.97971e-05
-2.22365e-07
1.67939e-05
-1.73617e-07
1.40994e-05
-9.74297e-08
1.15553e-05
1.2801e-07
7.62168e-05
2.02208e-07
7.62577e-05
2.41117e-07
7.63156e-05
2.36809e-07
7.63831e-05
1.98166e-07
7.64662e-05
1.39855e-07
7.65639e-05
7.01953e-08
8.08449e-05
4.16536e-09
7.05407e-05
-6.73795e-08
6.15675e-05
-1.38679e-07
5.37401e-05
-2.04758e-07
4.68754e-05
-2.61543e-07
4.08903e-05
-3.05887e-07
3.56565e-05
-3.35576e-07
3.10386e-05
-3.49546e-07
2.69143e-05
-3.46949e-07
2.32419e-05
-3.25314e-07
1.99001e-05
-2.80395e-07
1.69007e-05
-2.08893e-07
1.42109e-05
-1.12888e-07
1.16682e-05
1.05454e-07
7.62126e-05
1.69779e-07
7.62492e-05
1.98669e-07
7.63001e-05
1.86113e-07
7.63663e-05
1.38975e-07
7.64423e-05
6.99862e-08
7.65361e-05
-1.319e-08
7.66473e-05
-1.0189e-07
8.09509e-05
-1.79252e-07
7.06526e-05
-2.56743e-07
6.16856e-05
-3.28922e-07
5.38643e-05
-3.90944e-07
4.70048e-05
-4.39132e-07
4.10236e-05
-4.706e-07
3.57915e-05
-4.83796e-07
3.11728e-05
-4.78034e-07
2.70454e-05
-4.52946e-07
2.33696e-05
-4.06932e-07
2.00266e-05
-3.37283e-07
1.70291e-05
-2.42853e-07
1.43408e-05
-1.27429e-07
1.17956e-05
8.79361e-08
6.95995e-05
1.40606e-07
7.62417e-05
1.59897e-07
7.6288e-05
1.39315e-07
7.63469e-05
8.39451e-08
7.64214e-05
4.41308e-09
7.65078e-05
-9.24945e-08
7.66154e-05
-1.9889e-07
7.67443e-05
-3.05194e-07
8.10769e-05
-3.91501e-07
7.07874e-05
-4.72168e-07
6.18288e-05
-5.41761e-07
5.40151e-05
-5.9592e-07
4.71616e-05
-6.31292e-07
4.11843e-05
-6.45891e-07
3.59536e-05
-6.38705e-07
3.13335e-05
-6.09704e-07
2.72021e-05
-5.59453e-07
2.35221e-05
-4.87271e-07
2.01766e-05
-3.92161e-07
1.71784e-05
-2.74886e-07
1.44883e-05
-1.40867e-07
1.19365e-05
7.43062e-08
6.25576e-05
1.16572e-07
6.96236e-05
1.24682e-07
7.62769e-05
9.64517e-08
7.63308e-05
3.33174e-08
7.63976e-05
-5.62575e-08
7.6482e-05
-1.66566e-07
7.65819e-05
-2.90647e-07
7.67071e-05
-4.1961e-07
7.68587e-05
-5.4205e-07
8.12274e-05
-6.34453e-07
7.09496e-05
-7.1446e-07
6.20015e-05
-7.77206e-07
5.41964e-05
-8.18659e-07
4.7349e-05
-8.36637e-07
4.1375e-05
-8.2985e-07
3.61447e-05
-7.98136e-07
3.15219e-05
-7.42625e-07
2.73853e-05
-6.64748e-07
2.36996e-05
-5.65023e-07
2.03495e-05
-4.44051e-07
1.73476e-05
-3.04504e-07
1.46519e-05
-1.52752e-07
1.20892e-05
6.3502e-08
5.62288e-05
9.69431e-08
6.25773e-05
9.55161e-08
6.96527e-05
5.75259e-08
7.63159e-05
-1.27659e-08
7.63769e-05
-1.11636e-07
7.64529e-05
-2.34612e-07
7.65501e-05
-3.75832e-07
7.66671e-05
-5.27232e-07
7.68148e-05
-6.78011e-07
7.69947e-05
-8.14663e-07
8.14076e-05
-9.09016e-07
7.11442e-05
-9.8365e-07
6.2208e-05
-1.03403e-06
5.44117e-05
-1.05755e-06
4.75699e-05
-1.05289e-06
4.15981e-05
-1.01984e-06
3.63664e-05
-9.5968e-07
3.1739e-05
-8.74539e-07
2.75951e-05
-7.67027e-07
2.39016e-05
-6.38761e-07
2.05442e-05
-4.92109e-07
1.75352e-05
-3.30779e-07
1.48299e-05
-1.62323e-07
1.22515e-05
5.47844e-08
5.05407e-05
8.08107e-08
5.62449e-05
7.16517e-08
6.26011e-05
2.53994e-08
6.96848e-05
-5.42218e-08
7.63573e-05
-1.61476e-07
7.64267e-05
-2.96087e-07
7.65144e-05
-4.53465e-07
7.66277e-05
-6.26543e-07
7.67664e-05
-8.05249e-07
7.6942e-05
-9.76639e-07
7.71567e-05
-1.12409e-06
8.16227e-05
-1.21528e-06
7.13758e-05
-1.27832e-06
6.24522e-05
-1.31039e-06
5.46646e-05
-1.3099e-06
4.78269e-05
-1.2769e-06
4.18551e-05
-1.21294e-06
3.66197e-05
-1.12052e-06
3.19849e-05
-1.00312e-06
2.78312e-05
-8.64343e-07
2.41272e-05
-7.07223e-07
2.07593e-05
-5.34959e-07
1.77394e-05
-3.5306e-07
1.50207e-05
-1.69596e-07
1.24211e-05
4.76423e-08
4.54271e-05
6.74627e-08
5.05541e-05
5.20559e-08
5.62645e-05
-7.07365e-10
6.26272e-05
-8.80059e-08
6.97186e-05
-2.05614e-07
7.64015e-05
-3.50622e-07
7.64813e-05
-5.2283e-07
7.65838e-05
-7.16357e-07
7.67175e-05
-9.22035e-07
7.68832e-05
-1.12761e-06
7.7093e-05
-1.31674e-06
7.73493e-05
-1.47055e-06
8.1878e-05
-1.55167e-06
7.16492e-05
-1.5964e-06
6.27382e-05
-1.60318e-06
5.49579e-05
-1.57202e-06
4.8122e-05
-1.5052e-06
4.21474e-05
-1.40574e-06
3.69049e-05
-1.27776e-06
3.22596e-05
-1.12583e-06
2.80927e-05
-9.54946e-07
2.43749e-05
-7.68581e-07
2.09929e-05
-5.71827e-07
1.79581e-05
-3.67936e-07
1.5219e-05
-1.35909e-07
1.2557e-05
4.17133e-08
4.08319e-05
5.63463e-08
4.54383e-05
3.59052e-08
5.05702e-05
-2.19855e-08
5.62858e-05
-1.15047e-07
6.26543e-05
-2.40857e-07
6.97539e-05
-3.97961e-07
7.64488e-05
-5.83414e-07
7.65419e-05
-7.95768e-07
7.66632e-05
-1.02696e-06
7.68224e-05
-1.26559e-06
7.70212e-05
-1.49578e-06
7.7272e-05
-1.69869e-06
7.75775e-05
-1.85233e-06
8.21786e-05
-1.91587e-06
7.19686e-05
-1.93434e-06
6.30694e-05
-1.90812e-06
5.5294e-05
-1.83989e-06
4.84567e-05
-1.73375e-06
4.24754e-05
-1.59473e-06
3.72219e-05
-1.42823e-06
3.2562e-05
-1.24038e-06
2.83781e-05
-1.03655e-06
2.46429e-05
-8.21644e-07
2.12427e-05
-5.97803e-07
1.8188e-05
-3.59843e-07
1.5443e-05
-8.56336e-08
1.26427e-05
3.67396e-08
3.6701e-05
4.70441e-08
4.08412e-05
2.25278e-08
4.54516e-05
-3.93649e-08
5.05876e-05
-1.3668e-07
5.63074e-05
-2.68376e-07
6.26818e-05
-4.34763e-07
6.97907e-05
-6.34853e-07
7.65002e-05
-8.64099e-07
7.66102e-05
-1.11889e-06
7.67551e-05
-1.38891e-06
7.69458e-05
-1.65893e-06
7.71843e-05
-1.91034e-06
7.74836e-05
-2.12072e-06
7.78458e-05
-2.26697e-06
8.25297e-05
-2.30398e-06
7.23383e-05
-2.28728e-06
6.34486e-05
-2.22056e-06
5.56746e-05
-2.1087e-06
4.88317e-05
-1.9583e-06
4.2839e-05
-1.77601e-06
3.75696e-05
-1.56907e-06
3.28907e-05
-1.34404e-06
2.86856e-05
-1.10746e-06
2.49287e-05
-8.61665e-07
2.15066e-05
-6.0596e-07
1.84341e-05
-3.32818e-07
1.56901e-05
-6.43728e-08
1.2707e-05
3.2544e-08
3.29902e-05
3.92258e-08
3.67088e-05
1.13989e-08
4.08524e-05
-5.35824e-08
4.54659e-05
-1.53985e-07
5.06049e-05
-2.89747e-07
5.63288e-05
-4.62541e-07
6.27096e-05
-6.73624e-07
6.98294e-05
-9.2085e-07
7.6557e-05
-1.19696e-06
7.66883e-05
-1.4962e-06
7.68624e-05
-1.80422e-06
7.70911e-05
-2.10288e-06
7.73769e-05
-2.36954e-06
7.77325e-05
-2.58033e-06
7.81592e-05
-2.71019e-06
8.29359e-05
-2.71045e-06
7.27614e-05
-2.64985e-06
6.38779e-05
-2.53485e-06
5.61008e-05
-2.37344e-06
4.92468e-05
-2.17426e-06
4.32372e-05
-1.94617e-06
3.79467e-05
-1.69707e-06
3.32437e-05
-1.4346e-06
2.90127e-05
-1.16347e-06
2.52305e-05
-8.83974e-07
2.17846e-05
-6.01061e-07
1.87023e-05
-3.08445e-07
1.59342e-05
-5.81919e-08
1.27652e-05
2.89959e-08
2.96515e-05
3.26248e-08
3.29968e-05
2.10095e-09
3.67181e-05
-6.5254e-08
4.0864e-05
-1.67826e-07
4.54797e-05
-3.06251e-07
5.06214e-05
-4.83208e-07
5.63495e-05
-7.01688e-07
6.27376e-05
-9.62259e-07
6.98709e-05
-1.26052e-06
7.66205e-05
-1.58636e-06
7.67784e-05
-1.93e-06
7.69882e-05
-2.27402e-06
7.72622e-05
-2.59582e-06
7.76031e-05
-2.87095e-06
7.80231e-05
-3.07304e-06
7.85221e-05
-3.1758e-06
8.34013e-05
-3.1292e-06
7.32408e-05
-3.01558e-06
6.43586e-05
-2.84525e-06
5.65726e-05
-2.62878e-06
4.97013e-05
-2.37758e-06
4.36686e-05
-2.1015e-06
3.83512e-05
-1.80958e-06
3.36187e-05
-1.50838e-06
2.93576e-05
-1.20094e-06
2.55474e-05
-8.93846e-07
2.20774e-05
-5.92423e-07
1.89863e-05
-2.94829e-07
1.61708e-05
-6.19844e-08
1.28272e-05
2.59859e-08
2.6651e-05
2.70306e-08
2.96571e-05
-5.71116e-09
3.30046e-05
-7.48733e-08
3.67277e-05
-1.78904e-07
4.08751e-05
-3.18914e-07
4.54924e-05
-4.98316e-07
5.06365e-05
-7.214e-07
5.63692e-05
-9.90846e-07
6.27662e-05
-1.30547e-06
6.99158e-05
-1.65854e-06
7.66927e-05
-2.03489e-06
7.68833e-05
-2.42174e-06
7.71359e-05
-2.79683e-06
7.74632e-05
-3.13541e-06
7.78676e-05
-3.40995e-06
7.836e-05
-3.59205e-06
7.89383e-05
-3.65705e-06
8.39291e-05
-3.55295e-06
7.37782e-05
-3.37791e-06
6.48913e-05
-3.14559e-06
5.70894e-05
-2.86998e-06
5.01937e-05
-2.564e-06
4.41311e-05
-2.23887e-06
3.87805e-05
-1.90326e-06
3.40136e-05
-1.5625e-06
2.97192e-05
-1.22445e-06
2.5878e-05
-8.98572e-07
2.23835e-05
-5.85615e-07
1.92771e-05
-2.90595e-07
1.63995e-05
-8.49347e-08
1.29122e-05
2.34231e-08
2.39566e-05
2.2273e-08
2.66558e-05
-1.23161e-08
2.96637e-05
-8.28366e-08
3.30126e-05
-1.87779e-07
3.67366e-05
-3.28562e-07
4.08848e-05
-5.09108e-07
4.55032e-05
-7.34664e-07
5.06498e-05
-1.00951e-06
5.63879e-05
-1.335e-06
6.27958e-05
-1.7082e-06
6.99655e-05
-2.11781e-06
7.67757e-05
-2.54436e-06
7.70059e-05
-2.97018e-06
7.73093e-05
-3.37057e-06
7.76984e-05
-3.71702e-06
7.81747e-05
-3.97936e-06
7.87473e-05
-4.13023e-06
7.94115e-05
-4.14586e-06
8.4522e-05
-3.97427e-06
7.43745e-05
-3.72971e-06
6.54754e-05
-3.4303e-06
5.76497e-05
-3.0921e-06
5.07218e-05
-2.72989e-06
4.46221e-05
-2.35514e-06
3.92323e-05
-1.97578e-06
3.44268e-05
-1.60053e-06
3.00953e-05
-1.24035e-06
2.62198e-05
-9.0152e-07
2.26994e-05
-5.81874e-07
1.95684e-05
-3.58723e-07
1.66732e-05
-9.31515e-08
1.30053e-05
2.12315e-08
2.15342e-05
1.82119e-08
2.39606e-05
-1.7933e-08
2.66614e-05
-8.94601e-08
2.96704e-05
-1.949e-07
3.30197e-05
-3.35848e-07
3.67439e-05
-5.16576e-07
4.08922e-05
-7.43005e-07
4.55115e-05
-1.02061e-06
5.06609e-05
-1.35268e-06
5.64055e-05
-1.73933e-06
6.28269e-05
-2.17364e-06
7.00213e-05
-2.64052e-06
7.68718e-05
-3.11382e-06
7.71496e-05
-3.57356e-06
7.75122e-05
-3.99064e-06
7.7972e-05
-4.3333e-06
7.85286e-05
-4.57172e-06
7.91888e-05
-4.67886e-06
7.99445e-05
-4.63388e-06
8.51817e-05
-4.38495e-06
7.50297e-05
-4.06455e-06
6.61096e-05
-3.69371e-06
5.82513e-05
-3.291e-06
5.12829e-05
-2.87212e-06
4.51391e-05
-2.44827e-06
3.97048e-05
-2.0297e-06
3.4856e-05
-1.6277e-06
3.04826e-05
-1.25139e-06
2.65697e-05
-9.03056e-07
2.30206e-05
-7.15385e-07
1.99251e-05
-3.57706e-07
1.69378e-05
-1.02099e-07
1.31074e-05
1.93481e-08
1.93539e-05
1.47317e-08
2.15377e-05
-2.27346e-08
2.39654e-05
-9.49958e-08
2.66669e-05
-2.0062e-07
2.96761e-05
-3.41293e-07
3.30251e-05
-5.21504e-07
3.67488e-05
-7.4763e-07
4.08969e-05
-1.02601e-06
4.55169e-05
-1.3614e-06
5.06696e-05
-1.75627e-06
5.64225e-05
-2.20724e-06
6.28605e-05
-2.7043e-06
7.00851e-05
-3.22605e-06
7.6984e-05
-3.7419e-06
7.73179e-05
-4.22743e-06
7.7749e-05
-4.64969e-06
7.82884e-05
-4.97659e-06
7.89335e-05
-5.17784e-06
7.96878e-05
-5.22878e-06
8.05394e-05
-5.11177e-06
8.59085e-05
-4.77762e-06
7.57428e-05
-4.37589e-06
6.67918e-05
-3.93106e-06
5.88914e-05
-3.46334e-06
5.18741e-05
-2.98868e-06
4.56795e-05
-2.5199e-06
4.0195e-05
-2.06914e-06
3.52975e-05
-1.64636e-06
3.08776e-05
-1.25776e-06
2.69244e-05
-1.1142e-06
2.34194e-05
-7.06097e-07
2.02734e-05
-3.57062e-07
1.71928e-05
-1.08977e-07
1.32164e-05
1.73976e-05
1.77213e-08
1.17376e-08
1.93569e-05
-2.68563e-08
2.15418e-05
-9.96434e-08
2.39701e-05
-2.05223e-07
2.66715e-05
-3.45307e-07
2.96801e-05
-5.24508e-07
3.30281e-05
-7.4949e-07
3.67507e-05
-1.0272e-06
4.0898e-05
-1.36346e-06
4.5519e-05
-1.76254e-06
5.06759e-05
-2.22386e-06
5.64391e-05
-2.74153e-06
6.28977e-05
-3.2999e-06
7.01589e-05
-3.87346e-06
7.71156e-05
-4.42442e-06
7.75149e-05
-4.92459e-06
7.8024e-05
-5.34005e-06
7.86518e-05
-5.63732e-06
7.9393e-05
-5.7879e-06
8.02469e-05
-5.76974e-06
8.11974e-05
-5.57114e-06
8.6702e-05
-5.14476e-06
7.65117e-05
-4.65823e-06
6.7519e-05
-4.13861e-06
5.95666e-05
-3.60692e-06
5.24924e-05
-3.08037e-06
4.624e-05
-2.57308e-06
4.0699e-05
-2.09606e-06
3.57472e-05
-1.65687e-06
3.12767e-05
-1.55501e-06
2.73652e-05
-1.09981e-06
2.38132e-05
-6.94498e-07
2.06109e-05
-3.54305e-07
1.74381e-05
-1.13398e-07
1.33298e-05
1.74002e-05
9.14973e-09
2.78125e-05
1.52033e-08
-3.04051e-08
1.93604e-05
-1.03562e-07
2.15457e-05
-2.08933e-07
2.39738e-05
-3.48214e-07
2.66744e-05
-5.2607e-07
2.96817e-05
-7.49327e-07
3.3028e-05
-1.02532e-06
3.67488e-05
-1.36067e-06
4.08952e-05
-1.76096e-06
4.55174e-05
-2.22777e-06
5.06798e-05
-2.75852e-06
5.64561e-05
-3.34227e-06
6.29401e-05
-3.95994e-06
7.02454e-05
-4.57896e-06
7.72701e-05
-5.15445e-06
7.77448e-05
-5.65752e-06
7.83414e-05
-6.05191e-06
7.90664e-05
-6.30522e-06
7.99103e-05
-6.39086e-06
8.0868e-05
-6.29246e-06
8.19187e-05
-6.00335e-06
8.75606e-05
-5.47997e-06
7.73334e-05
-4.90721e-06
6.82876e-05
-4.31373e-06
6.02735e-05
-3.72172e-06
5.31337e-05
-3.14929e-06
4.68162e-05
-2.60941e-06
4.12123e-05
-2.11096e-06
3.62013e-05
-2.04986e-06
3.17716e-05
-1.53636e-06
2.78018e-05
-1.07877e-06
2.41974e-05
-6.79156e-07
2.09357e-05
-3.48698e-07
1.76734e-05
-1.15395e-07
1.34452e-05
1.74033e-05
-3.34694e-08
2.78163e-05
5.39695e-09
2.85524e-05
1.28032e-08
-1.06877e-07
1.93637e-05
-2.11928e-07
2.15487e-05
-3.50269e-07
2.39758e-05
-5.26567e-07
2.66749e-05
-7.47715e-07
2.96801e-05
-1.0213e-06
3.30239e-05
-1.35445e-06
3.67426e-05
-1.75373e-06
4.0888e-05
-2.22238e-06
4.5512e-05
-2.76037e-06
5.06816e-05
-3.3606e-06
5.64744e-05
-4.00936e-06
6.29895e-05
-4.68108e-06
7.03475e-05
-5.33603e-06
7.74517e-05
-5.92476e-06
7.8012e-05
-6.41634e-06
7.87059e-05
-6.77472e-06
7.95359e-05
-6.96861e-06
8.0488e-05
-6.97666e-06
8.15522e-05
-6.78727e-06
8.27026e-05
-6.40095e-06
8.84816e-05
-5.77808e-06
7.82043e-05
-5.11958e-06
6.90935e-05
-4.45561e-06
6.10073e-05
-3.809e-06
5.37935e-05
-3.19664e-06
4.74034e-05
-2.62948e-06
4.17309e-05
-2.61246e-06
3.67639e-05
-2.02594e-06
3.22611e-05
-1.50647e-06
2.82295e-05
-1.05102e-06
2.45693e-05
-6.59742e-07
2.12468e-05
-3.4024e-07
1.78982e-05
-1.15297e-07
1.35605e-05
1.74061e-05
-1.09694e-07
2.782e-05
-3.72217e-08
2.8556e-05
1.81926e-09
2.93123e-05
1.05266e-08
-2.14348e-07
1.93662e-05
-3.51672e-07
2.15501e-05
-5.26291e-07
2.39756e-05
-7.45097e-07
2.66723e-05
-1.0158e-06
2.96746e-05
-1.34588e-06
3.30154e-05
-1.74258e-06
3.67314e-05
-2.21036e-06
4.0876e-05
-2.75117e-06
4.55028e-05
-3.36096e-06
5.0682e-05
-4.03041e-06
5.64955e-05
-4.7399e-06
6.30483e-05
-5.45724e-06
7.04687e-05
-6.13788e-06
7.76648e-05
-6.72564e-06
7.83213e-05
-7.19041e-06
7.91216e-05
-7.49632e-06
8.00636e-05
-7.61673e-06
8.11281e-05
-7.53465e-06
8.22996e-05
-7.2457e-06
8.35474e-05
-6.75772e-06
8.94612e-05
-6.03498e-06
7.91197e-05
-5.2937e-06
6.99315e-05
-4.56472e-06
6.17631e-05
-3.86955e-06
5.44664e-05
-3.2231e-06
4.79971e-05
-3.25517e-06
4.23736e-05
-2.58225e-06
3.73202e-05
-1.9862e-06
3.27409e-05
-1.46637e-06
2.86448e-05
-1.01708e-06
2.49266e-05
-6.36637e-07
2.15432e-05
-3.29285e-07
1.81122e-05
-1.13498e-07
1.3674e-05
1.74081e-05
-2.16308e-07
2.78221e-05
-1.11818e-07
2.85595e-05
-4.07464e-08
2.93157e-05
-1.58347e-09
3.00902e-05
8.37309e-09
-3.52578e-07
1.93671e-05
-5.25467e-07
2.15493e-05
-7.41812e-07
2.39723e-05
-1.00936e-06
2.66659e-05
-1.33581e-06
2.96645e-05
-1.72884e-06
3.30016e-05
-2.1938e-06
3.67149e-05
-2.73415e-06
4.0859e-05
-3.34821e-06
4.549e-05
-4.03019e-06
5.06818e-05
-4.76545e-06
5.6521e-05
-5.52831e-06
6.31194e-05
-6.28218e-06
7.0613e-05
-6.97512e-06
7.79143e-05
-7.54652e-06
7.86774e-05
-7.96728e-06
7.95925e-05
-8.20544e-06
8.06523e-05
-8.23809e-06
8.18315e-05
-8.05537e-06
8.31093e-05
-7.6605e-06
8.44502e-05
-7.06849e-06
9.04947e-05
-6.24814e-06
8.00741e-05
-5.42931e-06
7.07961e-05
-4.64148e-06
6.2535e-05
-3.90413e-06
5.51474e-05
-3.99169e-06
4.87336e-05
-3.21811e-06
4.30094e-05
-2.53128e-06
3.78652e-05
-1.9326e-06
3.32071e-05
-1.41744e-06
2.90452e-05
-9.78013e-07
2.5268e-05
-6.10505e-07
2.18244e-05
-3.16336e-07
1.83151e-05
-1.10387e-07
1.37844e-05
1.74086e-05
-3.5311e-07
2.78211e-05
-2.15284e-07
2.85613e-05
-1.13635e-07
2.9319e-05
-4.40257e-08
3.00934e-05
-4.80676e-09
3.089e-05
6.33922e-09
-5.24266e-07
1.93659e-05
-7.38115e-07
2.15456e-05
-1.00239e-06
2.39653e-05
-1.32486e-06
2.66549e-05
-1.71351e-06
2.96492e-05
-2.17431e-06
3.29821e-05
-2.71181e-06
3.66925e-05
-3.32618e-06
4.08369e-05
-4.01443e-06
4.54743e-05
-4.76597e-06
5.06823e-05
-5.56066e-06
5.65534e-05
-6.3689e-06
6.32061e-05
-7.14696e-06
7.07849e-05
-7.83748e-06
7.82053e-05
-8.37487e-06
7.9085e-05
-8.73534e-06
8.01224e-05
-8.88985e-06
8.13041e-05
-8.82229e-06
8.25985e-05
-8.53054e-06
8.39793e-05
-8.02544e-06
8.54071e-05
-7.32969e-06
9.15763e-05
-6.4165e-06
8.10613e-05
-5.52637e-06
7.1681e-05
-4.68661e-06
6.33175e-05
-4.83787e-06
5.59936e-05
-3.94756e-06
4.9463e-05
-3.1547e-06
4.36328e-05
-2.46246e-06
3.83951e-05
-1.86733e-06
3.3657e-05
-1.36148e-06
2.94286e-05
-9.35022e-07
2.55925e-05
-5.82141e-07
2.20902e-05
-3.01925e-07
1.85066e-05
-1.06311e-07
1.38907e-05
1.74071e-05
-5.22819e-07
2.78154e-05
-3.47389e-07
2.85598e-05
-2.13814e-07
2.93205e-05
-1.15129e-07
3.00964e-05
-4.7058e-08
3.08931e-05
-7.84686e-09
3.17099e-05
4.42352e-09
-7.34198e-07
1.9362e-05
-9.95162e-07
2.15384e-05
-1.3135e-06
2.39539e-05
-1.69735e-06
2.66388e-05
-2.15309e-06
2.96279e-05
-2.68608e-06
3.29564e-05
-3.29788e-06
3.66642e-05
-3.98766e-06
4.08102e-05
-4.74813e-06
4.54564e-05
-5.56372e-06
5.06854e-05
-6.41089e-06
5.65954e-05
-7.25328e-06
6.33124e-05
-8.04174e-06
7.09891e-05
-8.71258e-06
7.8543e-05
-9.19896e-06
7.95486e-05
-9.48179e-06
8.07144e-05
-9.53833e-06
8.20201e-05
-9.36011e-06
8.3428e-05
-8.9529e-06
8.49068e-05
-8.33597e-06
8.64134e-05
-7.53941e-06
9.26992e-05
-6.53952e-06
8.20745e-05
-5.58551e-06
7.25799e-05
-5.81193e-06
6.42915e-05
-4.78692e-06
5.68329e-05
-3.8707e-06
5.0179e-05
-3.0689e-06
4.42393e-05
-2.37885e-06
3.89066e-05
-1.79291e-06
3.40884e-05
-1.30033e-06
2.97939e-05
-8.89325e-07
2.58997e-05
-5.52308e-07
2.23406e-05
-2.86548e-07
1.86868e-05
-1.01569e-07
1.39922e-05
1.74031e-05
-7.30204e-07
2.78033e-05
-5.10688e-07
2.85536e-05
-3.41115e-07
2.93186e-05
-2.11937e-07
3.00976e-05
-1.16291e-07
3.08959e-05
-4.98354e-08
3.17128e-05
-1.06995e-08
3.25538e-05
2.62913e-09
-9.87909e-07
1.93547e-05
-1.30208e-06
2.15269e-05
-1.68093e-06
2.39375e-05
-2.13108e-06
2.66168e-05
-2.65844e-06
2.96003e-05
-3.26559e-06
3.29241e-05
-3.95342e-06
3.663e-05
-4.71721e-06
4.07793e-05
-5.54517e-06
4.54379e-05
-6.41883e-06
5.06933e-05
-7.30834e-06
5.66504e-05
-8.17213e-06
6.34428e-05
-8.95449e-06
7.12311e-05
-9.58874e-06
7.89328e-05
-1.00056e-05
8.00724e-05
-1.01947e-05
8.13708e-05
-1.01407e-05
8.28008e-05
-9.84322e-06
8.43184e-05
-9.31692e-06
8.58877e-05
-8.5894e-06
8.74634e-05
-7.69647e-06
9.38561e-05
-6.6176e-06
8.31066e-05
-6.93356e-06
7.37016e-05
-5.75506e-06
6.52597e-05
-4.69584e-06
5.76581e-05
-3.76617e-06
5.08763e-05
-2.96472e-06
4.48251e-05
-2.28374e-06
3.93975e-05
-1.71182e-06
3.44999e-05
-1.23572e-06
3.01403e-05
-8.42014e-07
2.61894e-05
-5.21702e-07
2.25757e-05
-2.70657e-07
1.88559e-05
-9.63993e-08
1.40886e-05
1.7396e-05
-9.80783e-07
2.77828e-05
-7.09706e-07
2.85407e-05
-4.97803e-07
2.93117e-05
-3.34205e-07
3.00952e-05
-2.09593e-07
3.08967e-05
-1.17118e-07
3.17153e-05
-5.2353e-08
3.25565e-05
-1.33616e-08
3.34197e-05
9.65792e-10
-1.29086e-06
1.93435e-05
-1.66465e-06
2.15107e-05
-2.10893e-06
2.39154e-05
-2.62997e-06
2.65883e-05
-3.2311e-06
2.95658e-05
-3.91446e-06
3.28852e-05
-4.67739e-06
3.65901e-05
-5.51113e-06
4.07452e-05
-6.40145e-06
4.54205e-05
-7.32408e-06
5.0709e-05
-8.24426e-06
5.67225e-05
-9.11389e-06
6.36022e-05
-9.87378e-06
7.15161e-05
-1.04526e-05
7.93798e-05
-1.07823e-05
8.066e-05
-1.08632e-05
8.20932e-05
-1.06877e-05
8.36453e-05
-1.0265e-05
8.52665e-05
-9.61901e-06
8.69173e-05
-8.78391e-06
8.85508e-05
-7.80094e-06
9.50395e-05
-8.22554e-06
8.43985e-05
-6.87272e-06
7.48192e-05
-5.64938e-06
6.62132e-05
-4.57087e-06
5.84628e-05
-3.63902e-06
5.15506e-05
-2.84631e-06
4.53877e-05
-2.18031e-06
3.98659e-05
-1.62637e-06
3.48906e-05
-1.16917e-06
3.04675e-05
-7.94059e-07
2.64618e-05
-4.90948e-07
2.2796e-05
-2.54592e-07
1.90141e-05
-9.10051e-08
1.41796e-05
1.73852e-05
-1.28e-06
2.77516e-05
-9.49605e-07
2.85193e-05
-6.88303e-07
2.92981e-05
-4.84224e-07
3.00878e-05
-3.26783e-07
3.08939e-05
-2.06822e-07
3.17158e-05
-1.17596e-07
3.25587e-05
-5.46015e-08
3.34221e-05
-1.5839e-08
3.43055e-05
-5.58256e-10
-1.64881e-06
1.93276e-05
-2.08714e-06
2.14889e-05
-2.60148e-06
2.38869e-05
-3.19569e-06
2.65529e-05
-3.87285e-06
2.95242e-05
-4.63189e-06
3.28397e-05
-5.46645e-06
3.65455e-05
-6.36578e-06
4.07096e-05
-7.31033e-06
4.54067e-05
-8.27131e-06
5.07361e-05
-9.20763e-06
5.68163e-05
-1.00675e-05
6.37959e-05
-1.07863e-05
7.18498e-05
-1.12914e-05
7.98889e-05
-1.15175e-05
8.13142e-05
-1.14768e-05
8.28823e-05
-1.11717e-05
8.4552e-05
-1.06211e-05
8.62685e-05
-9.85653e-06
8.79899e-05
-8.91903e-06
8.96689e-05
-9.71383e-06
9.65278e-05
-8.16472e-06
8.56905e-05
-6.75287e-06
7.59227e-05
-5.50239e-06
6.71447e-05
-4.41821e-06
5.9242e-05
-3.4944e-06
5.21987e-05
-2.71763e-06
4.5925e-05
-2.07146e-06
4.0311e-05
-1.53855e-06
3.526e-05
-1.102e-06
3.07754e-05
-7.46314e-07
2.67171e-05
-4.60492e-07
2.30019e-05
-2.38662e-07
1.91618e-05
-8.55396e-08
1.42652e-05
1.737e-05
-1.6336e-06
2.77074e-05
-1.23582e-06
2.8487e-05
-9.17317e-07
2.92757e-05
-6.65924e-07
3.00734e-05
-4.69862e-07
3.08859e-05
-3.18762e-07
3.17125e-05
-2.036e-07
3.25589e-05
-1.17752e-07
3.34241e-05
-5.65996e-08
3.43078e-05
-1.81341e-08
3.52194e-05
-1.9416e-09
-2.06605e-06
1.93065e-05
-2.57356e-06
2.1461e-05
-3.16035e-06
2.38515e-05
-3.83018e-06
2.65102e-05
-4.58317e-06
2.94755e-05
-5.41489e-06
3.27881e-05
-6.3174e-06
3.64971e-05
-7.27506e-06
4.06743e-05
-8.26423e-06
4.53997e-05
-9.2501e-06
5.07786e-05
-1.01879e-05
5.69367e-05
-1.10199e-05
6.40296e-05
-1.16792e-05
7.22376e-05
-1.2093e-05
8.04644e-05
-1.21999e-05
8.20373e-05
-1.20271e-05
8.37377e-05
-1.15872e-05
8.55181e-05
-1.09077e-05
8.73197e-05
-1.00284e-05
8.90993e-05
-1.11281e-05
9.10832e-05
-9.66072e-06
9.80238e-05
-8.03302e-06
8.69707e-05
-6.58295e-06
7.70033e-05
-5.32164e-06
6.80482e-05
-4.24415e-06
5.99917e-05
-3.33715e-06
5.28182e-05
-2.58228e-06
4.64358e-05
-1.95971e-06
4.07322e-05
-1.45005e-06
3.5608e-05
-1.03535e-06
3.10645e-05
-6.99363e-07
2.6956e-05
-4.3075e-07
2.3194e-05
-2.23095e-07
1.92993e-05
-8.0112e-08
1.43453e-05
1.73498e-05
-2.04589e-06
2.76473e-05
-1.57345e-06
2.84415e-05
-1.19029e-06
2.92424e-05
-8.83973e-07
3.00502e-05
-6.42649e-07
3.08708e-05
-4.54801e-07
3.1704e-05
-3.10191e-07
3.25552e-05
-1.99941e-07
3.34239e-05
-1.17562e-07
3.43096e-05
-5.83376e-08
3.52215e-05
-2.02516e-08
3.61552e-05
-3.18902e-09
-2.54661e-06
1.92796e-05
-3.12576e-06
2.14264e-05
-3.78758e-06
2.38089e-05
-4.53309e-06
2.64601e-05
-5.35935e-06
2.94199e-05
-6.26066e-06
3.27314e-05
-7.22463e-06
3.64467e-05
-8.23196e-06
4.0642e-05
-9.25334e-06
4.54029e-05
-1.02504e-05
5.08411e-05
-1.11724e-05
5.70891e-05
-1.19584e-05
6.43088e-05
-1.254e-05
7.26847e-05
-1.28455e-05
8.11099e-05
-1.28202e-05
8.28304e-05
-1.25075e-05
8.4658e-05
-1.19296e-05
8.65399e-05
-1.11232e-05
8.84146e-05
-1.25407e-05
9.05119e-05
-1.10911e-05
9.25136e-05
-9.52251e-06
9.95133e-05
-7.84089e-06
8.82286e-05
-6.37199e-06
7.80536e-05
-5.11471e-06
6.89187e-05
-4.05454e-06
6.07091e-05
-3.17166e-06
5.34076e-05
-2.44334e-06
4.69195e-05
-1.84718e-06
4.11293e-05
-1.36235e-06
3.5935e-05
-9.69981e-07
3.13351e-05
-6.53754e-07
2.7179e-05
-4.02015e-07
2.33729e-05
-2.08039e-07
1.94273e-05
-7.48091e-08
1.44201e-05
1.73241e-05
-2.52091e-06
2.7568e-05
-1.96667e-06
2.83795e-05
-1.51151e-06
2.91952e-05
-1.14315e-06
3.00156e-05
-8.4936e-07
3.08466e-05
-6.18456e-07
3.16882e-05
-4.39067e-07
3.25461e-05
-3.01071e-07
3.34198e-05
-1.95842e-07
3.4309e-05
-1.17046e-07
3.5223e-05
-5.98263e-08
3.61572e-05
-2.21936e-08
3.65891e-05
-4.29632e-09
-3.09243e-06
1.92463e-05
-3.7459e-06
2.13847e-05
-4.48303e-06
2.37589e-05
-5.30202e-06
2.64028e-05
-6.19894e-06
2.93582e-05
-7.16406e-06
3.26708e-05
-8.18169e-06
3.63964e-05
-9.22727e-06
4.06159e-05
-1.02682e-05
4.54207e-05
-1.12601e-05
5.09288e-05
-1.21486e-05
5.72793e-05
-1.28704e-05
6.46392e-05
-1.33565e-05
7.31958e-05
-1.35385e-05
8.18282e-05
-1.33707e-05
8.36936e-05
-1.29124e-05
8.56408e-05
-1.21963e-05
8.7613e-05
-1.39457e-05
8.98196e-05
-1.25301e-05
9.19509e-05
-1.09553e-05
9.39464e-05
-9.31113e-06
0.000100983
-7.59875e-06
8.94554e-05
-6.12905e-06
7.9068e-05
-4.88865e-06
6.97528e-05
-3.85474e-06
6.13922e-05
-3.00171e-06
5.3966e-05
-2.30345e-06
4.73757e-05
-1.7357e-06
4.15027e-05
-1.27642e-06
3.62414e-05
-9.06608e-07
3.15879e-05
-6.0987e-07
2.73869e-05
-3.74464e-07
2.35394e-05
-1.93615e-07
1.95461e-05
-6.96959e-08
1.44898e-05
1.72923e-05
-3.06065e-06
2.74665e-05
-2.41932e-06
2.82986e-05
-1.88572e-06
2.91317e-05
-1.44804e-06
2.99672e-05
-1.09476e-06
3.08111e-05
-8.13781e-07
3.16632e-05
-5.93393e-07
3.25296e-05
-4.22612e-07
3.34102e-05
-2.91416e-07
3.43045e-05
-1.9133e-07
3.52222e-05
-1.16206e-07
3.61584e-05
-6.10647e-08
3.65908e-05
-2.39337e-08
3.55529e-05
-5.24116e-09
-3.70571e-06
1.92061e-05
-4.43398e-06
2.13356e-05
-5.24452e-06
2.37014e-05
-6.13482e-06
2.63387e-05
-7.09724e-06
2.92914e-05
-8.11913e-06
3.26082e-05
-9.17994e-06
3.63491e-05
-1.02521e-05
4.05999e-05
-1.12972e-05
4.54578e-05
-1.2267e-05
5.10472e-05
-1.3104e-05
5.75129e-05
-1.37434e-05
6.50261e-05
-1.41176e-05
7.37748e-05
-1.41637e-05
8.26213e-05
-1.38449e-05
8.46261e-05
-1.32384e-05
8.66829e-05
-1.53354e-05
8.90027e-05
-1.39737e-05
9.12632e-05
-1.24068e-05
9.34025e-05
-1.07336e-05
9.53688e-05
-9.03863e-06
0.000102423
-7.31722e-06
9.06436e-05
-5.86255e-06
8.00419e-05
-4.64995e-06
7.0548e-05
-3.64933e-06
6.20398e-05
-2.8305e-06
5.4493e-05
-2.16486e-06
4.78049e-05
-1.62649e-06
4.18528e-05
-1.19316e-06
3.6528e-05
-8.45727e-07
3.18238e-05
-5.67926e-07
2.75803e-05
-3.48241e-07
2.3694e-05
-1.7991e-07
1.96563e-05
-6.48129e-08
1.45546e-05
1.7254e-05
-3.66742e-06
2.73398e-05
-2.93402e-06
2.81951e-05
-2.31582e-06
2.90486e-05
-1.80258e-06
2.99021e-05
-1.38297e-06
3.07613e-05
-1.04504e-06
3.16265e-05
-7.77137e-07
3.25038e-05
-5.67593e-07
3.33932e-05
-4.05586e-07
3.42944e-05
-2.81271e-07
3.52172e-05
-1.86419e-07
3.61573e-05
-1.15047e-07
3.65918e-05
-6.20612e-08
3.55544e-05
-2.54268e-08
3.45448e-05
-6.04982e-09
-4.38665e-06
1.91587e-05