# y+ ()       
# Time        	patch         	min           	max           	average       
0             	splitter	1.151523e+01	1.444246e+01	1.193225e+01
0             	back	7.887793e+00	1.019306e+01	7.999643e+00
0             	sides	1.122379e+01	1.122676e+01	1.122528e+01
0.01          	splitter	3.278536e+01	5.653653e+01	3.691871e+01
0.01          	back	1.160744e+01	1.884073e+01	1.574740e+01
0.01          	sides	9.691837e+00	2.873189e+01	1.522610e+01
0.02          	splitter	3.308375e+01	5.695992e+01	3.718488e+01
0.02          	back	1.151068e+01	1.734077e+01	1.431912e+01
0.02          	sides	9.715362e+00	2.882100e+01	1.903179e+01
0.03          	splitter	3.327391e+01	5.724494e+01	3.737211e+01
0.03          	back	1.143660e+01	1.565358e+01	1.295903e+01
0.03          	sides	9.715866e+00	2.829249e+01	2.136221e+01
0.04          	splitter	3.341944e+01	5.753478e+01	3.755651e+01
0.04          	back	1.143587e+01	1.445055e+01	1.219960e+01
0.04          	sides	9.715942e+00	2.807426e+01	2.191945e+01
0.05          	splitter	3.346421e+01	5.754221e+01	3.759591e+01
0.05          	back	1.055604e+01	1.361929e+01	1.170651e+01
0.05          	sides	9.715938e+00	2.812986e+01	2.216455e+01
0.06          	splitter	3.346494e+01	5.754616e+01	3.759619e+01
0.06          	back	9.722331e+00	1.300638e+01	1.135723e+01
0.06          	sides	9.715959e+00	2.819493e+01	2.230816e+01
0.07          	splitter	3.346440e+01	5.754611e+01	3.759447e+01
0.07          	back	9.002964e+00	1.260578e+01	1.108673e+01
0.07          	sides	9.715946e+00	2.824613e+01	2.236585e+01
0.08          	splitter	3.346341e+01	5.754552e+01	3.759319e+01
0.08          	back	8.405013e+00	1.240393e+01	1.085520e+01
0.08          	sides	9.715943e+00	2.829874e+01	2.239168e+01
0.09          	splitter	3.346240e+01	5.754564e+01	3.759231e+01
0.09          	back	7.955809e+00	1.225096e+01	1.065724e+01
0.09          	sides	9.715950e+00	2.832635e+01	2.240853e+01
0.1           	splitter	3.346312e+01	5.754505e+01	3.759171e+01
0.1           	back	7.622374e+00	1.215495e+01	1.048879e+01
0.1           	sides	9.715945e+00	2.835746e+01	2.242191e+01
0.11          	splitter	3.346057e+01	5.754471e+01	3.759135e+01
0.11          	back	7.373669e+00	1.208617e+01	1.035974e+01
0.11          	sides	9.715944e+00	2.835699e+01	2.243090e+01
0.12          	splitter	3.346188e+01	5.754470e+01	3.759122e+01
0.12          	back	7.191645e+00	1.203790e+01	1.025628e+01
0.12          	sides	9.715957e+00	2.836680e+01	2.243629e+01
0.13          	splitter	3.346080e+01	5.754674e+01	3.759139e+01
0.13          	back	7.055712e+00	1.199211e+01	1.017574e+01
0.13          	sides	9.715928e+00	2.844618e+01	2.243892e+01
0.14          	splitter	3.346236e+01	5.755050e+01	3.759213e+01
0.14          	back	6.953090e+00	1.197091e+01	1.011537e+01
0.14          	sides	9.715973e+00	2.849527e+01	2.243821e+01
0.15          	splitter	3.346151e+01	5.755414e+01	3.759383e+01
0.15          	back	6.881772e+00	1.197475e+01	1.007152e+01
0.15          	sides	9.715919e+00	2.851994e+01	2.243227e+01
0.16          	splitter	3.345684e+01	5.755810e+01	3.759739e+01
0.16          	back	6.838375e+00	1.197896e+01	1.006142e+01
0.16          	sides	9.715963e+00	2.847004e+01	2.241728e+01
0.17          	splitter	3.345693e+01	5.756078e+01	3.760397e+01
0.17          	back	6.835784e+00	1.201961e+01	1.005843e+01
0.17          	sides	9.715972e+00	2.864729e+01	2.238770e+01
0.18          	splitter	3.345744e+01	5.756312e+01	3.761433e+01
0.18          	back	6.895554e+00	1.207393e+01	1.011485e+01
0.18          	sides	9.715917e+00	2.871594e+01	2.233693e+01
0.19          	splitter	3.346694e+01	5.757598e+01	3.762756e+01
0.19          	back	7.078040e+00	1.217727e+01	1.024379e+01
0.19          	sides	9.716073e+00	2.861027e+01	2.226604e+01
0.2           	splitter	3.347937e+01	5.759511e+01	3.764047e+01
0.2           	back	7.475721e+00	1.237725e+01	1.052655e+01
0.2           	sides	9.715840e+00	2.892423e+01	2.218738e+01
0.21          	splitter	3.349838e+01	5.761362e+01	3.765088e+01
0.21          	back	8.372402e+00	1.332295e+01	1.104908e+01
0.21          	sides	9.716130e+00	2.953264e+01	2.211953e+01
0.22          	splitter	3.348301e+01	5.762153e+01	3.765693e+01
0.22          	back	9.872458e+00	1.478749e+01	1.182509e+01
0.22          	sides	9.715882e+00	3.006540e+01	2.207528e+01
0.23          	splitter	3.346396e+01	5.761291e+01	3.765887e+01
0.23          	back	1.129894e+01	1.622426e+01	1.260372e+01
0.23          	sides	9.716007e+00	3.014990e+01	2.205155e+01
0.24          	splitter	3.346067e+01	5.759023e+01	3.765997e+01
0.24          	back	1.150273e+01	1.713517e+01	1.322342e+01
0.24          	sides	9.716123e+00	2.974567e+01	2.203613e+01
0.25          	splitter	3.347419e+01	5.761636e+01	3.766298e+01
0.25          	back	1.148564e+01	1.716400e+01	1.370100e+01
0.25          	sides	9.715776e+00	2.967876e+01	2.201878e+01
0.26          	splitter	3.350552e+01	5.764040e+01	3.766688e+01
0.26          	back	1.146402e+01	1.706964e+01	1.402348e+01
0.26          	sides	9.716243e+00	2.962102e+01	2.200406e+01
0.27          	splitter	3.348336e+01	5.764097e+01	3.766657e+01
0.27          	back	1.147311e+01	1.808698e+01	1.426860e+01
0.27          	sides	9.715824e+00	2.963969e+01	2.200143e+01
0.28          	splitter	3.345723e+01	5.761906e+01	3.766275e+01
0.28          	back	1.150195e+01	1.879141e+01	1.444048e+01
0.28          	sides	9.716015e+00	3.098000e+01	2.201181e+01
0.29          	splitter	3.345572e+01	5.758879e+01	3.766091e+01
0.29          	back	1.150057e+01	1.891367e+01	1.450089e+01
0.29          	sides	9.716168e+00	3.085844e+01	2.202450e+01
0.3           	splitter	3.347344e+01	5.762286e+01	3.766306e+01
0.3           	back	1.149989e+01	1.812770e+01	1.446850e+01
0.3           	sides	9.715735e+00	3.023855e+01	2.202263e+01
0.31          	splitter	3.350687e+01	5.764413e+01	3.766625e+01
0.31          	back	1.150373e+01	1.748514e+01	1.442944e+01
0.31          	sides	9.716263e+00	2.992711e+01	2.200633e+01
0.32          	splitter	3.348035e+01	5.764118e+01	3.766547e+01
0.32          	back	1.147983e+01	1.828738e+01	1.444263e+01
0.32          	sides	9.715823e+00	2.969547e+01	2.199887e+01
0.33          	splitter	3.345550e+01	5.761772e+01	3.766190e+01
0.33          	back	1.149905e+01	1.882388e+01	1.448692e+01
0.33          	sides	9.716009e+00	3.086564e+01	2.200950e+01
0.34          	splitter	3.345559e+01	5.758960e+01	3.766042e+01
0.34          	back	1.148299e+01	1.886685e+01	1.448727e+01
0.34          	sides	9.716174e+00	3.087805e+01	2.202597e+01
0.35          	splitter	3.347388e+01	5.762331e+01	3.766277e+01
0.35          	back	1.147930e+01	1.804808e+01	1.443327e+01
0.35          	sides	9.715734e+00	3.027050e+01	2.202679e+01
0.36          	splitter	3.350740e+01	5.764393e+01	3.766602e+01
0.36          	back	1.146816e+01	1.746804e+01	1.439071e+01
0.36          	sides	9.716261e+00	2.996252e+01	2.200959e+01
0.37          	splitter	3.347972e+01	5.764076e+01	3.766530e+01
0.37          	back	1.148532e+01	1.826482e+01	1.441800e+01
0.37          	sides	9.715826e+00	2.972765e+01	2.200049e+01
0.38          	splitter	3.345536e+01	5.761726e+01	3.766183e+01
0.38          	back	1.151160e+01	1.880757e+01	1.447117e+01
0.38          	sides	9.716007e+00	3.087525e+01	2.201041e+01
0.39          	splitter	3.345573e+01	5.759004e+01	3.766045e+01
0.39          	back	1.151474e+01	1.884750e+01	1.447537e+01
0.39          	sides	9.716175e+00	3.089720e+01	2.202649e+01
0.4           	splitter	3.347425e+01	5.762365e+01	3.766283e+01
0.4           	back	1.145805e+01	1.802988e+01	1.442073e+01
0.4           	sides	9.715733e+00	3.028174e+01	2.202677e+01
0.41          	splitter	3.350781e+01	5.764405e+01	3.766606e+01
0.41          	back	1.146852e+01	1.747606e+01	1.439290e+01
0.41          	sides	9.716260e+00	2.996573e+01	2.200921e+01
0.42          	splitter	3.347938e+01	5.764059e+01	3.766529e+01
0.42          	back	1.151010e+01	1.827340e+01	1.441970e+01
0.42          	sides	9.715828e+00	2.972464e+01	2.200029e+01
0.43          	splitter	3.345520e+01	5.761691e+01	3.766180e+01
0.43          	back	1.147553e+01	1.881309e+01	1.446658e+01
0.43          	sides	9.716005e+00	3.089444e+01	2.201043e+01
0.44          	splitter	3.345585e+01	5.759046e+01	3.766046e+01
0.44          	back	1.148655e+01	1.884419e+01	1.447502e+01
0.44          	sides	9.716177e+00	3.090261e+01	2.202648e+01
0.45          	splitter	3.347459e+01	5.762400e+01	3.766288e+01
0.45          	back	1.152124e+01	1.801841e+01	1.443112e+01
0.45          	sides	9.715732e+00	3.028093e+01	2.202652e+01
0.46          	splitter	3.350821e+01	5.764417e+01	3.766608e+01
0.46          	back	1.147490e+01	1.748606e+01	1.439619e+01
0.46          	sides	9.716260e+00	2.996306e+01	2.200893e+01
0.47          	splitter	3.347904e+01	5.764042e+01	3.766526e+01
0.47          	back	1.151445e+01	1.828198e+01	1.441596e+01
0.47          	sides	9.715830e+00	2.971974e+01	2.200027e+01
0.48          	splitter	3.345505e+01	5.761655e+01	3.766176e+01
0.48          	back	1.151327e+01	1.881760e+01	1.446716e+01
0.48          	sides	9.716003e+00	3.090869e+01	2.201060e+01
0.49          	splitter	3.345598e+01	5.759086e+01	3.766047e+01
0.49          	back	1.148405e+01	1.883939e+01	1.447385e+01
0.49          	sides	9.716179e+00	3.090577e+01	2.202661e+01
0.5           	splitter	3.347493e+01	5.762434e+01	3.766293e+01
0.5           	back	1.151220e+01	1.800609e+01	1.442411e+01
0.5           	sides	9.715731e+00	3.027955e+01	2.202637e+01
