/*--------------------------------*- C++ -*----------------------------------*\
  =========                 |
  \\      /  F ield         | OpenFOAM: The Open Source CFD Toolbox
   \\    /   O peration     | Website:  https://openfoam.org
    \\  /    A nd           | Version:  8
     \\/     M anipulation  |
\*---------------------------------------------------------------------------*/
FoamFile
{
    version     2.0;
    format      ascii;
    class       volScalarField;
    location    "0.49";
    object      p;
}
// * * * * * * * * * * * * * * * * * * * * * * * * * * * * * * * * * * * * * //

dimensions      [0 2 -2 0 0 0 0];

internalField   nonuniform List<scalar> 
15677
(
71.1764
70.7702
70.4382
70.9245
70.4369
70.3912
70.8445
70.4559
70.4009
70.3486
70.825
70.4561
70.4015
70.3575
70.2828
70.8067
70.4591
70.402
70.3569
70.2906
70.219
70.7839
70.4617
70.4022
70.3574
70.2906
70.2259
70.1496
70.759
70.4633
70.4021
70.3576
70.2915
70.2261
70.1557
70.0639
70.7332
70.4645
70.4014
70.3574
70.2922
70.2269
70.1559
70.0693
69.9552
70.7063
70.4646
70.4004
70.3568
70.2928
70.2277
70.1567
70.0696
69.9599
69.8168
70.6777
70.4634
70.3987
70.3559
70.2932
70.2284
70.1576
70.0705
69.9603
69.8207
69.6409
70.6471
70.4619
70.3964
70.3549
70.2936
70.2291
70.1584
70.0715
69.9614
69.8213
69.6441
69.4193
70.6145
70.4601
70.3939
70.3539
70.2939
70.23
70.1595
70.0726
69.9625
69.8225
69.6448
69.4218
69.1437
70.58
70.4577
70.3913
70.3526
70.2944
70.231
70.1607
70.074
69.964
69.824
69.6463
69.4227
69.1454
68.8058
70.5479
70.4544
70.3886
70.351
70.2951
70.2325
70.1625
70.0759
69.9659
69.8259
69.6481
69.4244
69.1464
68.8065
68.3975
70.5205
70.4499
70.386
70.3493
70.2962
70.2346
70.1649
70.0786
69.9687
69.8285
69.6506
69.4267
69.1485
68.8078
68.3973
67.9112
70.4969
70.4441
70.3837
70.3474
70.2979
70.2376
70.1684
70.0824
69.9725
69.8322
69.6541
69.4299
69.1514
68.8103
68.3987
67.9099
67.3402
70.4763
70.4369
70.3814
70.3457
70.3
70.2416
70.1734
70.0879
69.9781
69.8376
69.6591
69.4345
69.1555
68.8139
68.4016
67.9115
67.3377
66.6789
70.4581
70.4288
70.3787
70.3442
70.3025
70.2471
70.1802
70.0956
69.9861
69.8454
69.6664
69.4411
69.1614
68.819
68.406
67.9149
67.3395
66.675
65.9228
70.4418
70.4203
70.3758
70.343
70.3052
70.2536
70.1895
70.1063
69.9974
69.8565
69.6769
69.4507
69.17
68.8265
68.4124
67.9202
67.3434
66.677
65.9174
65.0691
70.4272
70.4116
70.3727
70.3419
70.3081
70.2606
70.2006
70.1207
70.0129
69.8723
69.6921
69.4647
69.1824
68.8373
68.4217
67.928
67.3497
66.6815
65.9197
65.0621
64.1169
70.4144
70.4029
70.3693
70.3409
70.3111
70.2681
70.2126
70.138
70.0341
69.8942
69.7135
69.4847
69.2004
68.8531
68.4352
67.9394
67.3591
66.6888
65.9247
65.0646
64.1081
63.0672
70.4037
70.3947
70.3656
70.34
70.3144
70.276
70.2256
70.1567
70.0595
69.9238
69.7432
69.5131
69.2264
68.876
68.4548
67.9558
67.3726
66.6998
65.933
65.0701
64.1108
63.0566
61.9233
70.3947
70.3874
70.3618
70.339
70.3178
70.284
70.2393
70.177
70.087
69.9596
69.7836
69.5525
69.2632
68.909
68.4833
67.9798
67.3923
66.7157
65.9456
65.0795
64.1167
63.0593
61.9106
60.695
70.387
70.3809
70.3582
70.3381
70.3212
70.2923
70.2537
70.1986
70.1169
69.9984
69.8324
69.6062
69.3144
68.9558
68.5244
68.0146
67.4211
66.7388
65.964
65.0937
64.127
63.0655
61.9132
60.6788
59.4074
70.3804
70.3752
70.3548
70.3373
70.3241
70.3006
70.2685
70.2212
70.1488
70.0407
69.8855
69.6713
69.3842
69.0209
68.5827
68.0649
67.4629
66.7726
65.9907
65.1144
64.1427
63.0765
61.9193
60.6792
59.3528
58.0052
70.3746
70.3702
70.3517
70.3366
70.3262
70.3085
70.2835
70.2446
70.1823
70.0859
69.9435
69.7421
69.469
69.1098
68.664
68.1362
67.5232
66.8219
66.0297
65.1445
64.1655
63.0933
61.9304
60.684
59.3587
57.9425
56.4717
70.3696
70.3657
70.3488
70.336
70.3277
70.3157
70.2979
70.2684
70.217
70.1334
70.0055
69.8196
69.5615
69.2181
68.7752
68.2359
67.6091
66.8931
66.0866
65.1887
64.1988
63.1178
61.9476
60.6938
59.3606
57.9472
56.4503
54.8729
70.3652
70.3618
70.3461
70.3355
70.3287
70.3219
70.3108
70.2913
70.2524
70.1828
70.071
69.9027
69.6627
69.3364
68.9109
68.3726
67.7292
66.9946
66.1692
65.2534
64.2478
63.1536
61.973
60.7099
59.3675
57.9422
56.4398
54.8664
53.2228
70.3613
70.3582
70.3436
70.3351
70.3292
70.3273
70.3221
70.3119
70.2867
70.2335
70.1391
69.9906
69.7717
69.4663
69.0596
68.5398
67.8944
67.137
66.2873
65.3475
64.3199
63.2068
62.0105
60.7346
59.3814
57.9474
56.4317
54.851
53.2194
51.5243
70.3579
70.3551
70.3414
70.3345
70.3295
70.3319
70.3319
70.3302
70.3177
70.2826
70.2092
70.0822
69.887
69.6062
69.2231
68.7234
68.0969
67.3334
66.4534
65.4826
64.4254
63.2856
62.0667
60.7722
59.4043
57.9605
56.4381
54.8437
53.2026
51.5248
49.6103
70.3548
70.3523
70.3393
70.3339
70.3297
70.3359
70.3404
70.3462
70.3452
70.3271
70.2774
70.1767
70.0077
69.7548
69.3997
68.9257
68.3198
67.5749
66.6832
65.6734
64.5775
63.4017
62.1511
60.8299
59.4407
57.9822
56.4515
54.8513
53.1968
51.5098
49.6116
47.4565
70.3521
70.3497
70.3374
70.3332
70.3298
70.3391
70.3477
70.3602
70.3696
70.3669
70.3394
70.2688
70.1323
69.9104
69.5875
69.1447
68.5662
67.8415
66.9668
65.9382
64.7931
63.57
62.2765
60.9182
59.4987
58.0178
56.4732
54.8655
53.2041
51.5048
49.5984
47.4576
45.2883
70.3497
70.3475
70.3357
70.3325
70.3299
70.3418
70.354
70.3724
70.391
70.4022
70.3949
70.3528
70.254
70.0716
69.7848
69.3783
68.8336
68.1369
67.2808
66.2662
65.0937
63.81
62.4598
61.0512
59.5894
58.0757
56.5085
54.8876
53.2183
51.5106
49.5931
47.4455
45.2897
43.1326
70.3476
70.3454
70.3342
70.3317
70.33
70.3441
70.3594
70.383
70.4097
70.4332
70.4442
70.4282
70.3654
70.2295
69.9897
69.6243
69.1197
68.4585
67.6299
66.6307
65.4676
64.1462
62.7229
61.2478
59.7284
58.1681
56.5666
54.9231
53.2404
51.5237
49.5964
47.4394
45.2791
43.1336
41.0108
70.3436
70.345
70.3328
70.331
70.3301
70.346
70.364
70.3922
70.4261
70.4606
70.4878
70.4954
70.4656
70.3743
70.1908
69.8804
69.4217
68.8035
68.011
67.0372
65.8848
64.5666
63.0938
61.5321
59.9362
58.3117
56.6603
54.9811
53.2751
51.5443
49.6073
47.4399
45.2721
43.1237
41.0113
38.9372
70.3316
70.3414
70.3418
70.3302
70.3302
70.3475
70.3679
70.4002
70.4404
70.4846
70.5263
70.5551
70.5551
70.5048
70.3758
70.1327
69.737
69.1689
68.4212
67.4827
66.3518
65.0375
63.56
61.9356
60.2394
58.5288
56.8074
55.0752
53.3319
51.5767
49.625
47.4472
45.2696
43.1153
41.0015
38.9368
36.9219
70.3295
70.33
70.3386
70.3386
70.3302
70.3488
70.3713
70.4071
70.4529
70.5056
70.5602
70.6078
70.6347
70.6217
70.5429
70.3652
70.0486
69.5516
68.8572
67.9638
66.8655
65.5669
64.0846
62.4458
60.6727
58.8482
57.0317
55.2241
53.4245
51.6302
49.6531
47.4598
45.2726
43.1094
40.9914
38.927
36.9206
34.974
70.3302
70.3284
70.328
70.3358
70.3353
70.3498
70.3742
70.4132
70.4637
70.524
70.59
70.6543
70.7052
70.7258
70.6929
70.5758
70.3366
69.931
69.3153
68.477
67.4223
66.1515
64.6768
63.0227
61.224
59.3078
57.3641
55.4528
53.5726
51.719
49.7009
47.4808
45.2787
43.1072
40.9817
38.9149
36.9107
34.9718
33.1007
70.3506
70.3301
70.3271
70.326
70.3329
70.3319
70.3768
70.4184
70.4732
70.5401
70.6162
70.6952
70.7675
70.8183
70.8269
70.7653
70.5983
70.2829
69.7712
69.0184
68.0186
66.7877
65.3336
63.677
61.8505
59.8961
57.8454
55.7943
53.8023
51.8633
49.7827
47.5193
45.2909
43.1059
40.9735
38.9009
36.8963
34.9615
33.0976
31.3074
70.3789
70.3513
70.3297
70.3256
70.3239
70.3299
70.3285
70.423
70.4816
70.5543
70.6391
70.7313
70.8225
70.9002
70.946
70.9349
70.8342
70.6034
70.1954
69.5591
68.6502
67.4719
66.0516
64.4058
62.5644
60.5681
58.4656
56.2922
54.1482
52.0899
49.9192
47.5896
45.3175
43.1075
40.9635
38.8862
36.8779
34.9447
33.0869
31.3034
29.5974
70.4268
70.3811
70.3514
70.3291
70.3239
70.3216
70.3268
70.3251
70.4889
70.5667
70.6593
70.763
70.871
70.9726
71.0518
71.0861
71.0459
70.8933
70.5831
70.0642
69.2837
68.1998
66.827
65.2061
63.3632
61.3374
59.1775
56.9378
54.6565
52.4351
50.1379
47.7125
45.3728
43.1201
40.9533
38.8668
36.8562
34.9218
33.0676
31.2923
29.5926
27.9726
70.495
70.4308
70.3828
70.3512
70.3283
70.3221
70.3192
70.3236
70.3216
70.5777
70.6771
70.7909
70.9138
71.0366
71.1455
71.2206
71.235
71.154
70.9347
70.5274
69.8779
68.9332
67.6559
66.0744
64.2445
62.2025
59.9966
57.6827
55.3197
52.9468
50.4763
47.9161
45.4773
43.1573
40.9498
38.8434
36.8268
34.893
33.0402
31.2704
29.581
27.967
26.4334
70.5868
70.5015
70.4336
70.3841
70.3507
70.3274
70.3201
70.3167
70.3204
70.318
70.6928
70.8156
70.9515
71.0931
71.2284
71.3399
71.4035
71.3874
71.2518
70.9488
70.4248
69.6241
68.4952
67.0073
65.2056
63.1616
60.9221
58.544
56.0893
53.6191
50.9836
48.2385
45.6597
43.2397
40.9664
38.8222
36.7893
34.8531
33.0042
31.2386
29.5567
27.9549
26.427
24.9792
70.7059
70.5966
70.5061
70.4361
70.3852
70.3501
70.3265
70.318
70.3141
70.317
70.3143
70.8374
70.9849
71.143
71.3016
71.4456
71.5533
71.5958
71.5364
71.3299
70.9241
70.2625
69.2893
67.9567
66.2435
64.213
61.9538
59.5225
56.984
54.4039
51.656
48.729
45.9576
43.3954
41.0232
38.8162
36.7494
34.801
32.9536
31.1953
29.5204
27.9281
26.4145
24.9721
23.6084
70.8556
70.72
70.6037
70.5103
70.4382
70.3858
70.3491
70.3254
70.3157
70.3113
70.3136
70.3106
71.0145
71.1873
71.3665
71.5392
71.6862
71.7815
71.7911
71.6728
71.3769
70.8473
70.0262
68.8594
67.3054
65.3546
63.0908
60.6192
58.0061
55.3217
52.4467
49.3869
46.4192
43.6607
41.1475
38.8448
36.7193
34.7416
32.8866
31.134
29.47
27.8875
26.3853
24.9592
23.6007
22.3191
71.0391
70.8754
70.7303
70.6102
70.514
70.4398
70.3859
70.3479
70.3239
70.3133
70.3083
70.31
70.3068
71.2265
71.4241
71.6222
71.8041
71.9465
72.0183
71.9805
71.7857
71.3796
70.7039
69.7008
68.3203
66.5293
64.3323
61.8346
59.1582
56.3764
53.3779
50.168
47.0473
44.0821
41.3731
38.9334
36.7176
34.6866
32.8074
31.0521
29.3981
27.8301
26.3406
24.9276
23.5875
22.3108
21.1084
71.2591
71.0662
70.8897
70.7397
70.616
70.517
70.4409
70.3855
70.3465
70.3221
70.3106
70.3052
70.3064
70.3031
71.4751
71.696
71.9088
72.0932
72.2208
72.2556
72.1532
71.8616
71.323
70.4778
69.2707
67.658
65.6175
63.1697
60.4426
57.5722
54.4552
51.0957
47.8015
44.6661
41.7442
39.1132
36.7672
34.6532
32.7271
30.9531
29.3013
27.7478
26.2764
24.879
23.5536
22.2972
21.0996
19.9732
71.5176
71.2954
71.0856
70.9028
70.7482
70.6209
70.5193
70.4413
70.3846
70.3447
70.3198
70.3077
70.302
70.3028
70.2995
71.7613
72.002
72.2235
72.401
72.5013
72.4828
72.2961
71.8852
71.1902
70.1522
68.7201
66.8591
64.5603
61.8621
58.9137
55.6849
52.1773
48.7054
45.3766
42.2711
39.4254
36.8964
34.6612
32.6609
30.8474
29.1828
27.6366
26.1839
24.8082
23.5013
22.2611
21.0857
19.9639
18.9103
71.8156
71.5654
71.3212
71.1034
70.9149
70.7555
70.6247
70.5207
70.4411
70.3832
70.3427
70.3173
70.3046
70.2987
70.2993
70.296
72.0845
72.3398
72.5615
72.7202
72.7776
72.6867
72.3937
71.8395
70.9635
69.7096
68.0336
65.9117
63.3504
60.4058
57.0741
53.4219
49.7684
46.2368
42.9222
39.8835
37.1425
34.7361
32.6259
30.748
29.0519
27.499
26.0586
24.706
23.4242
22.2054
21.0475
19.9498
18.9005
17.9162
72.1531
71.8778
71.5993
71.3451
71.12
70.9253
70.7614
70.6274
70.5212
70.4402
70.3813
70.3402
70.3145
70.3013
70.2954
70.2959
70.2927
72.4425
72.7047
72.9156
73.0409
73.0369
72.852
72.4285
71.7056
70.6242
69.133
67.1968
64.8056
61.9807
58.6308
54.8398
51.0021
47.2574
43.719
40.4603
37.5213
34.9105
32.6437
30.669
28.9194
27.3435
25.9028
24.5672
23.3126
22.1223
20.9886
19.9096
18.8862
17.906
16.9873
72.528
72.233
71.9218
71.6309
71.3673
71.1343
70.9337
70.7657
70.6289
70.5209
70.4386
70.3789
70.3373
70.3114
70.2981
70.2922
70.2926
70.2894
72.8313
73.0902
73.2763
73.3504
73.2639
72.9608
72.3811
71.4639
70.1533
68.4056
66.1969
63.5301
60.2867
56.4429
52.42
48.4524
44.6731
41.1745
38.0102
35.2012
32.7421
30.6283
28.7961
27.1782
25.7233
24.3938
23.1611
22.0018
20.8997
19.8477
18.8441
17.8913
16.9766
16.1202
72.9365
72.6297
72.2895
71.963
71.6602
71.3867
71.1461
70.9401
70.7684
70.6291
70.5195
70.4362
70.3759
70.3342
70.3082
70.2948
70.289
70.2893
70.2862
73.2442
73.4869
73.6313
73.6335
73.4406
72.9934
72.2307
71.0938
69.5324
67.5121
65.0199
61.9283
58.1642
54.0367
49.8363
45.7984
42.0371
38.6236
35.5901
32.9375
30.6476
28.6964
27.0111
25.526
24.1913
22.9709
21.8381
20.7709
19.7535
18.7794
17.8476
16.9616
16.1083
15.3124
73.3723
73.0646
72.7017
72.3427
72.0014
71.6859
71.4027
71.1552
70.9444
70.7695
70.6281
70.5171
70.4331
70.3724
70.3308
70.3049
70.2916
70.2859
70.2862
70.2832
73.6725
73.8828
73.9653
73.872
73.5466
72.928
71.9558
70.575
68.7434
66.4357
63.5179
59.8843
55.7853
51.4238
47.1088
43.0601
39.3702
36.0861
33.2165
30.7423
28.6347
26.8523
25.3158
23.9629
22.7462
21.6321
20.5957
19.6167
18.6801
17.7804
16.9163
16.0932
15.2967
14.6431
73.8266
73.5326
73.1559
72.77
72.3924
72.035
71.7072
71.4151
71.1615
70.9465
70.7688
70.6256
70.5136
70.4292
70.3685
70.3271
70.3015
70.2883
70.2828
70.2831
70.2802
74.104
74.2629
74.2604
74.0456
73.5597
72.7419
71.5339
69.8874
67.7675
65.0368
61.5585
57.5405
53.1495
48.6191
44.2575
40.2609
36.6956
33.5816
30.9038
28.6253
26.709
25.0988
23.7109
22.4881
21.3863
20.3748
19.4309
18.5361
17.6764
16.847
16.0467
15.2828
14.6349
14.0795
74.2876
74.0257
73.6476
73.243
72.8338
72.436
72.063
71.724
71.424
71.1648
70.9462
70.7662
70.6217
70.5092
70.4248
70.3644
70.3233
70.2981
70.285
70.2797
70.2801
70.2774
74.5239
74.6092
74.4958
74.131
73.4563
72.4113
70.9433
69.0099
66.4712
63.1625
59.2538
54.8914
50.2753
45.6496
41.3125
37.4298
34.0377
31.1284
28.6646
26.5941
24.8743
23.437
22.1957
21.0997
20.109
19.1958
18.3402
17.5255
16.7386
15.9756
15.2353
14.6267
14.0811
13.4899
74.7403
74.5333
74.1699
73.7581
73.3245
72.89
72.4725
72.0852
71.7361
71.429
71.1651
70.9435
70.7617
70.6165
70.504
70.42
70.3599
70.3194
70.2945
70.2818
70.2767
70.2772
70.2746
74.9139
74.9007
74.6481
74.104
73.2107
71.9127
70.1603
67.8123
64.6793
60.9015
56.6077
51.9717
47.204
42.5564
38.3114
34.5979
31.4202
28.743
26.5091
24.6542
23.1327
21.8668
20.7687
19.7953
18.9112
18.092
17.3203
16.5813
15.8631
15.1628
14.5782
14.0746
13.4885
12.8567
75.1663
75.0417
74.7133
74.3094
73.8617
73.3964
72.9372
72.5017
72.1015
71.7433
71.4301
71.1622
70.9383
70.7555
70.6102
70.4981
70.4147
70.3553
70.3154
70.291
70.2785
70.2738
70.2744
70.2716
75.253
75.1136
74.692
73.9377
72.7983
71.2189
69.0557
66.1
62.4708
58.2829
53.679
48.8379
43.9861
39.3841
35.2914
31.7941
28.8639
26.4389
24.4453
22.8094
21.4849
20.3869
19.4276
18.5719
17.7895
17.0598
16.3674
15.7
15.0465
14.5052
14.0265
13.478
12.8495
12.1656
75.5439
75.534
75.2651
74.8886
74.4404
73.9532
73.4571
72.9752
72.5234
72.1116
71.7454
71.427
71.1561
70.9307
70.7478
70.603
70.4917
70.4091
70.3505
70.3112
70.2874
70.2753
70.2708
70.2714
70.2683
75.5164
75.222
74.5999
73.6059
72.188
70.2007
67.4216
63.9553
59.9068
55.3852
50.5301
45.5405
40.6662
36.1725
32.2853
29.0437
26.3861
24.227
22.4788
21.0617
19.9305
18.9953
18.1695
17.4261
16.7406
16.0954
15.478
14.8781
14.3857
13.9526
13.4297
12.8343
12.1554
11.4127
75.8479
75.99
75.8098
75.4844
75.0534
74.5564
74.0309
73.5064
73.0038
72.5372
72.1151
71.7423
71.4197
71.1469
70.9212
70.7389
70.595
70.4848
70.4032
70.3455
70.307
70.2837
70.2721
70.2677
70.268
70.265
75.6774
75.1974
74.3438
73.0736
71.2497
68.6443
65.3524
61.4704
57.0749
52.2645
47.2012
42.1165
37.281
32.9555
29.3215
26.3675
24.0007
22.1151
20.613
19.4114
18.4678
17.6892
16.991
16.3546
15.7606
15.1953
14.6485
14.213
13.8306
13.3543
12.7846
12.1378
11.4014
10.5962
76.0502
76.3863
76.3284
76.0827
75.691
75.2
74.6556
74.0946
73.544
73.0226
72.5428
72.1121
71.7338
71.4086
71.1352
70.9101
70.7289
70.5864
70.4775
70.3971
70.3403
70.3027
70.28
70.2687
70.2641
70.2646
70.2617
75.7061
75.0099
73.8853
72.2102
69.771
66.6599
62.9644
58.7296
54.0161
48.9457
43.7173
38.5948
33.8621
29.7627
26.4237
23.7824
21.718
20.1083
18.8495
17.8576
17.0946
16.4656
15.8889
15.3535
14.8459
14.3558
13.9772
13.6541
13.2294
12.7067
12.0866
11.3831
10.5843
9.71228
76.119
76.6969
76.7987
76.6663
76.3404
75.8753
75.326
74.7374
74.1437
73.5693
73.0312
72.5401
72.1022
71.7203
71.3942
71.1214
70.8976
70.718
70.5772
70.4698
70.3907
70.335
70.2983
70.2763
70.2648
70.2605
70.2613
70.2585
75.5695
74.6182
73.0933
70.8099
67.8775
64.3795
60.3305
55.7564
50.7406
45.4419
40.0987
35.0026
30.4386
26.6202
23.6119
21.3014
19.5451
18.2095
17.1881
16.3983
15.8078
15.321
14.8591
14.419
13.9928
13.6765
13.4133
13.0489
12.5784
12.0056
11.3307
10.5654
9.69978
8.75549
76.0177
76.8931
77.1956
77.2145
76.986
76.5712
76.0348
75.4309
74.8014
74.1777
73.582
73.0293
72.529
72.0861
71.7027
71.3771
71.1058
70.884
70.7064
70.5675
70.4618
70.3841
70.3297
70.2941
70.2721
70.2608
70.2569
70.2579
70.2553
75.2231
73.889
71.7732
69.011
65.7091
61.8605
57.4582
52.5498
47.2523
41.7658
36.3672
31.3673
27.0382
23.5508
20.9019
18.9338
17.4863
16.4194
15.6271
15.0308
14.6042
14.2517
13.898
13.5475
13.3024
13.1058
12.8026
12.3934
11.8736
11.2465
10.5117
9.68001
8.74266
7.72024
75.6961
76.9428
77.4906
77.7036
77.609
77.2736
76.7722
76.1688
75.5141
74.847
74.1963
73.5819
73.017
72.5099
72.0648
71.6817
71.3577
71.0887
70.8694
70.6942
70.5574
70.4534
70.3774
70.3248
70.2893
70.2677
70.2567
70.2532
70.2546
70.2523
74.5302
72.6445
70.0717
66.9551
63.307
59.0976
54.3389
49.1068
43.5567
37.933
32.5474
27.7174
23.6869
20.5739
18.3057
16.6859
15.5434
14.737
14.1642
13.7517
13.4798
13.2537
13.0017
12.8424
12.7225
12.4877
12.1412
11.6836
11.1105
10.4246
9.62499
8.72191
7.7073
6.60083
76.8016
75.018
77.6511
78.107
78.1873
77.9655
77.5259
76.9426
76.2764
75.5747
74.8736
74.1989
73.5687
72.9947
72.4843
72.0391
71.6576
71.3363
71.0703
70.8539
70.6813
70.5467
70.445
70.3716
70.3195
70.2844
70.2631
70.2526
70.2494
70.2516
70.2496
73.3302
71.0354
68.1277
64.6693
60.6566
56.0777
50.9652
45.4271
39.6634
33.9639
28.6672
24.082
20.409
17.7057
15.8323
14.561
13.7163
13.1601
12.7961
12.5572
12.4308
12.3232
12.2766
12.25
12.0944
11.8182
11.4248
10.9149
10.2844
9.53484
8.66546
7.68586
6.58785
5.39141
77.6355
76.3434
73.8296
78.393
78.6962
78.6267
78.2804
77.7416
77.0813
76.3568
75.6122
74.8807
74.1856
73.5433
72.9644
72.4531
72.0097
71.6311
71.3134
71.0509
70.8377
70.6677
70.5359
70.4381
70.3658
70.314
70.2792
70.2584
70.2483
70.246
70.2488
70.2469
71.7817
69.1953
65.9571
62.132
57.7428
52.7912
47.3327
41.5148
35.5872
29.8835
24.757
20.4897
17.2259
14.9591
13.4874
12.5599
12.0031
11.6857
11.5189
11.4431
11.453
11.5706
11.6676
11.6086
11.4142
11.0932
10.649
10.0828
9.3902
8.57214
7.62777
6.56585
5.37835
4.08595
78.5224
77.3398
75.4416
72.3087
79.1061
79.2341
79.0173
78.552
77.9194
77.1872
76.4091
75.6261
74.8682
74.1572
73.5078
72.9272
72.4174
71.9771
71.6027
71.2891
71.0304
70.8204
70.654
70.5278
70.4317
70.3596
70.3081
70.2737
70.2534
70.2445
70.2427
70.2459
70.2441
70.0124
67.1324
63.5334
59.3275
54.555
49.231
43.4405
37.3781
31.3479
25.7213
20.8492
16.9683
14.1563
12.3437
11.2739
10.6817
10.401
10.3096
10.3282
10.4053
10.6627
10.9387
11.0082
10.914
10.6775
10.308
9.80922
9.18222
8.4227
7.53103
6.50605
5.35576
4.07285
2.67845
79.3807
78.4087
76.6146
74.2194
70.5779
79.7605
79.7156
79.3574
78.7787
78.0579
77.2592
76.4328
75.6162
74.8374
74.1164
73.4639
72.8843
72.3778
71.9421
71.5726
71.2635
71.0085
70.803
70.6443
70.5208
70.4248
70.3529
70.3017
70.268
70.2491
70.2408
70.2393
70.2429
70.2412
68.024
64.8157
60.8413
56.2458
51.0853
45.3929
39.2906
33.0297
26.9706
21.5104
16.9765
13.5431
11.2155
9.86573
9.19236
8.9242
8.90579
9.0273
9.21958
9.56687
9.99928
10.2546
10.2942
10.1618
9.87985
9.4581
8.90033
8.20785
7.37641
6.40572
5.29425
4.04966
2.66538
1.16296
80.1734
79.4534
77.902
75.5722
72.7802
68.6349
80.3504
80.1385
79.6446
78.9586
78.1559
77.2969
76.4277
75.5838
74.7912
74.0651
73.4128
72.8366
72.3352
71.9052
71.5409
71.2362
70.9867
70.7914
70.6367
70.5132
70.4171
70.3455
70.295
70.2631
70.2449
70.2369
70.2358
70.2399
70.2383
65.7805
62.2311
57.872
52.8792
47.3276
41.2739
34.8881
28.4874
22.4856
17.2868
13.1712
10.2365
8.41494
7.52868
7.24179
7.28339
7.51285
7.83411
8.32469
8.86347
9.28132
9.5141
9.52122
9.34747
9.01642
8.5383
7.91708
7.1542
6.24556
5.19027
3.98648
2.64162
1.15001
-0.466364
80.8929
80.4276
79.1749
77.0838
74.3187
71.1351
66.4381
80.8727
80.4997
79.8765
79.0902
78.2126
77.2996
76.3952
75.5326
74.7323
74.0052
73.356
72.7852
72.2902
71.8662
71.5069
71.2088
70.9728
70.7833
70.6284
70.5045
70.4086
70.3376
70.2895
70.2584
70.2405
70.2328
70.2321
70.2368
70.2354
63.269
59.3721
54.6199
49.222
43.2762
36.872
30.2409
23.7741
17.9281
13.0879
9.46346
7.06674
5.7627
5.33368
5.41903
5.75463
6.21718
6.87151
7.57429
8.10245
8.5044
8.71262
8.68457
8.46621
8.08216
7.54333
6.85393
6.01551
5.02423
3.87868
2.5768
1.12583
-0.478772
-2.21603
81.5353
81.322
80.3727
78.5926
76.0578
72.8852
69.2435
63.9744
81.3235
80.7962
80.0512
79.1726
78.2274
77.2692
76.3398
75.4658
74.6627
73.9382
73.2946
72.7308
72.2428
71.8244
71.4728
71.1922
70.9643
70.7743
70.6186
70.4945
70.3994
70.3315
70.2845
70.2535
70.2358
70.2285
70.2284
70.2336
70.2324
60.4852
56.236
51.0807
45.2669
38.9236
32.1851
25.3607
18.9189
13.3375
8.95144
5.88004
4.04848
3.26367
3.27921
3.71986
4.33279
5.17235
6.06478
6.76279
7.27936
7.66399
7.84556
7.77946
7.51291
7.07176
6.46765
5.70512
4.78587
3.70643
2.46506
1.05952
-0.502872
-2.22565
-4.41713
82.0951
82.1314
81.4858
80.0233
77.8031
74.8739
71.2318
67.0923
61.241
81.6992
81.0253
80.1675
79.2048
78.2021
77.2109
76.2652
75.386
74.5845
73.8655
73.2296
72.6736
72.1918
71.7823
71.4531
71.1835
70.9545
70.7632
70.6071
70.4838
70.3927
70.3263
70.2792
70.2482
70.2309
70.224
70.2244
70.2304
70.2294
57.4292
52.8209
47.248
41.0045
34.2593
27.211
20.2648
13.958
8.75685
4.9133
2.44399
1.19227
0.919252
1.3621
2.13919
3.18642
4.29716
5.19287
5.88569
6.38966
6.75543
6.90808
6.80079
6.4823
5.97969
5.3055
4.46475
3.45931
2.28624
0.943688
-0.570609
-2.24943
-4.42988
-7.02191
82.5676
82.8483
82.5094
81.365
79.4665
76.8717
73.495
69.3405
64.6833
58.24
81.9963
81.1855
80.224
79.1887
78.1429
77.1292
76.1749
75.2956
74.4993
73.7886
73.1611
72.612
72.1402
71.759
71.4443
71.173
70.9421
70.7499
70.5946
70.4766
70.3876
70.3208
70.2733
70.2426
70.2256
70.2193
70.2203
70.2271
70.2263
54.1019
49.123
43.1129
36.4186
29.2686
21.9517
14.9791
8.93454
4.23017
1.00674
-0.826098
-1.49587
-1.27167
-0.422242
0.864713
2.2266
3.35179
4.25114
4.93841
5.42864
5.77387
5.89509
5.7433
5.36889
4.80026
4.05104
3.12688
2.02992
0.757958
-0.690655
-2.31785
-4.45867
-7.03819
-9.66404
82.9486
83.4649
83.4349
82.6134
81.0357
78.7818
75.7659
71.8986
67.2132
62.0248
54.9744
82.2126
81.275
80.2225
79.1315
78.0553
77.0284
76.0716
75.1968
74.409
73.7076
73.0876
72.5491
72.1128
71.7503
71.4332
71.1591
70.9269
70.7354
70.587
70.4719
70.382
70.3145
70.267
70.2365
70.2201
70.2143
70.2161
70.2237
70.2233
50.5015
45.136
38.6584
31.4868
23.9399
16.4196
9.54055
3.8976
-0.198271
-2.73899
-3.91717
-4.01345
-3.31251
-1.86125
-0.201965
1.19043
2.33147
3.23496
3.91625
4.3915
4.71429
4.80145
4.60162
4.16708
3.52771
2.69842
1.68564
0.492022
-0.883656
-2.44216
-4.53144
-7.06951
-9.67666
-12.3047
83.2351
83.9746
84.2525
83.7594
82.507
80.5909
77.9429
74.4574
70.0857
64.8605
59.1277
51.445
82.3455
81.2949
80.1711
79.0398
77.9444
76.9119
75.9581
75.0917
74.3144
73.6206
73.0115
72.517
72.1045
71.7386
71.4178
71.1418
70.9101
70.7276
70.5831
70.4667
70.3756
70.3076
70.2601
70.2299
70.2141
70.2091
70.2117
70.2203
70.2202
46.6245
40.8471
33.8591
26.1821
18.263
10.6359
3.99758
-1.09862
-4.48613
-6.30059
-6.82087
-6.36145
-4.95893
-3.06536
-1.35282
0.0728712
1.23143
2.13959
2.81442
3.27331
3.57167
3.62191
3.3703
2.87127
2.15634
1.24187
0.135433
-1.15967
-2.64284
-4.66349
-7.14819
-9.70444
-12.3155
-14.9253
83.4237
84.3718
84.9524
84.7919
83.8712
82.2948
80.014
76.9148
72.9449
68.0682
62.299
56.0032
47.651
82.3954
81.2546
80.078
78.9198
77.8145
76.783
75.8368
74.9823
74.2129
73.5291
72.9742
72.5096
72.0923
71.7216
71.398
71.1223
70.9022
70.7251
70.5787
70.4603
70.3682
70.2999
70.2525
70.2229
70.2078
70.2036
70.2072
70.2169
70.2172
42.4624
36.2294
28.6727
20.4639
12.2256
4.63103
-1.59107
-5.99749
-8.59604
-9.66049
-9.5338
-8.25676
-6.33601
-4.36384
-2.59321
-1.13095
0.0469631
0.960334
1.62817
2.06927
2.34103
2.3513
2.04401
1.47602
0.680629
-0.32399
-1.52895
-2.9294
-4.8747
-7.29031
-9.7831
-12.3419
-14.9351
-17.5196
83.5139
84.651
85.5253
85.6997
85.1171
83.8833
81.9739
79.2616
75.6921
71.2405
65.8654
59.5488
52.6621
43.5904
82.3729
81.1639
79.9506
78.7768
77.6696
76.6446
75.7096
74.8664
74.1026
73.4861
72.968
72.497
72.0736
71.6991
71.3756
71.1147
70.9018
70.722
70.5727
70.4528
70.3599
70.2915
70.2444
70.2153
70.2011
70.1979
70.2025
70.2135
70.2144
37.9933
31.2386
23.0395
14.2852
5.82574
-1.54963
-7.15859
-10.744
-12.4964
-12.8078
-11.7256
-9.84158
-7.82
-5.76228
-3.92809
-2.4257
-1.22652
-0.307369
0.352974
0.774763
1.01755
0.984635
0.617648
-0.0238676
-0.904535
-2.00411
-3.31163
-5.17472
-7.5152
-9.93041
-12.4207
-14.9615
-17.5286
-20.0818
83.5172
84.8099
85.9602
86.4714
86.2326
85.3441
83.8113
81.4933
78.3218
74.2853
69.3645
63.5017
56.6306
49.1178
39.2534
82.2897
81.0316
79.7952
78.6155
77.5132
76.4983
75.5745
74.732
74.0538
73.4818
72.9552
72.4765
72.0482
71.6733
71.3685
71.1171
70.9007
70.717
70.5654
70.4441
70.3506
70.2821
70.2355
70.2072
70.194
70.1919
70.1978
70.2102
70.2118
33.1831
25.8177
16.8877
7.605
-0.916081
-7.84078
-12.632
-15.2865
-16.1637
-15.3537
-13.5576
-11.5483
-9.41674
-7.26559
-5.36194
-3.81573
-2.59328
-1.66768
-1.01536
-0.614526
-0.403198
-0.482657
-0.913467
-1.63303
-2.60365
-3.8023
-5.57273
-7.83111
-10.1652
-12.5722
-15.0419
-17.5549
-20.0897
-22.6036
83.4477
84.8614
86.247
87.0916
87.2055
86.6644
85.5117
83.5983
80.8316
77.2022
72.7146
67.3428
61.0032
53.565
45.3792
34.617
82.1562
80.8655
79.6178
78.4403
77.347
76.3416
75.4233
74.6779
74.0521
73.4687
72.9327
72.4478
72.0185
71.6672
71.3747
71.1188
70.8972
70.7102
70.5565
70.4341
70.3402
70.2719
70.2258
70.1985
70.1865
70.1858
70.1931
70.2071
70.2093
27.9829
19.8822
10.1283
0.397851
-7.95384
-14.1584
-17.9342
-19.58
-19.1358
-17.4812
-15.5291
-13.3828
-11.1308
-8.87784
-6.89869
-5.30482
-4.05694
-3.12419
-2.48049
-2.1023
-1.92507
-2.05458
-2.55333
-3.35534
-4.41997
-6.08132
-8.24594
-10.4933
-12.8148
-15.1989
-17.6368
-20.1154
-22.6104
-25.0782
83.3177
84.8224
86.3967
87.5427
88.0166
87.8314
87.0595
85.5617
83.2116
79.9917
75.9214
71.0067
65.2044
58.3959
50.3733
41.4475
29.6475
81.9818
80.6726
79.4234
78.2532
77.1678
76.1718
75.3602
74.6798
74.039
73.4443
72.9005
72.4138
72.0138
71.6783
71.3801
71.1175
70.8916
70.7016
70.5461
70.4227
70.3286
70.2606
70.2154
70.1893
70.1788
70.1798
70.1886
70.2041
70.207
22.3172
13.3088
2.65319
-7.33524
-15.2158
-20.3976
-22.9908
-23.0676
-21.6184
-19.7683
-17.6452
-15.3487
-12.9654
-10.6021
-8.54132
-6.89578
-5.62028
-4.67971
-4.04522
-3.69144
-3.55112
-3.73424
-4.30495
-5.19338
-6.71914
-8.77173
-10.9203
-13.1515
-15.4497
-17.7995
-20.1985
-22.6354
-25.0839
-27.5009
83.1383
84.7084
86.4283
87.831
88.6418
88.8239
88.439
87.3662
85.4482
82.6469
78.989
74.5053
69.1916
62.9788
55.7062
47.0784
37.3246
24.3002
81.7748
80.4592
79.2144
78.0505
76.9768
76.0973
75.3652
74.6666
74.0123
73.4082
72.8617
72.411
72.0309
71.6884
71.382
71.1137
70.8837
70.6911
70.5339
70.4097
70.3156
70.2483
70.2041
70.1797
70.1711
70.1738
70.1842
70.2013
70.2048
16.0739
5.90439
-5.65241
-15.5597
-22.5863
-26.4302
-27.1224
-25.9768
-24.283
-22.219
-19.9081
-17.4475
-14.922
-12.44
-10.2913
-8.59017
-7.2849
-6.33586
-5.71122
-5.38371
-5.28319
-5.52352
-6.16997
-7.51609
-9.42718
-11.4569
-13.5856
-15.7932
-18.0577
-20.3664
-22.7195
-25.1078
-27.5055
-29.8684
82.9196
84.5332
86.3605
87.975
89.0835
89.6126
89.6245
88.9926
87.5245
85.1573
81.9151
77.848
72.984
67.3004
60.6955
52.9629
43.7038
33.0118
18.5072
81.5429
80.2281
78.9864
77.8372
76.889
76.107
75.352
74.6377
73.972
73.3639
72.8613
72.4354
72.0469
71.6943
71.3806
71.1072
70.8734
70.6783
70.5197
70.395
70.3012
70.2348
70.1924
70.17
70.1634
70.1679
70.1799
70.1985
70.2027
9.0585
-2.62816
-14.8835
-24.1746
-29.8586
-31.3919
-30.5747
-29.092
-27.1298
-24.8322
-22.3163
-19.6781
-16.9998
-14.3909
-12.1485
-10.3879
-9.05078
-8.0927
-7.47868
-7.17935
-7.12163
-7.42277
-8.52121
-10.2433
-12.1217
-14.1264
-16.2305
-18.4059
-20.6302
-22.8918
-25.1928
-27.5282
-29.8721
-32.1816
82.6706
84.309
86.2109
87.9927
89.3603
90.1985
90.5791
90.4089
89.4205
87.5085
84.6935
81.0375
76.5978
71.389
65.3641
58.3846
50.1951
40.2729
28.5148
12.174
81.2897
79.9743
78.7461
77.734
76.9054
76.0944
75.3207
74.5927
73.9216
73.3665
72.8945
72.4588
72.0578
71.6963
71.3761
71.0977
70.8604
70.663
70.5032
70.3784
70.2854
70.2206
70.1804
70.1602
70.1558
70.1621
70.1756
70.1959
70.2009
0.939636
-12.7681
-25.0577
-32.857
-35.9105
-35.5288
-34.2639
-32.4115
-30.1514
-27.601
-24.8644
-22.0359
-19.1949
-16.4516
-14.1099
-12.2865
-10.9158
-9.94837
-9.34586
-9.0767
-9.06508
-9.80948
-11.2705
-12.9465
-14.7923
-16.7697
-18.8425
-20.9798
-23.1593
-25.3691
-27.6139
-29.8939
-32.1843
-34.4377
82.3959
84.0467
85.9956
87.9025
89.4907
90.6015
91.3019
91.5661
91.0989
89.6823
87.3144
84.0738
80.042
75.2697
69.7515
63.4134
56.0742
47.4351
36.8202
23.8784
5.16926
81.0096
79.7059
78.6342
77.759
76.8934
76.0607
75.2707
74.5354
73.9277
73.4098
72.9263
72.4759
72.0642
71.6946
71.368
71.0848
70.8443
70.6449
70.4844
70.36
70.2684
70.206
70.1682
70.1504
70.1481
70.1564
70.1715
70.1933
70.1991
-8.9958
-25.2745
-35.6307
-40.3229
-40.9145
-39.9054
-38.1694
-35.9206
-33.3333
-30.5128
-27.542
-24.5119
-21.4995
-18.6154
-16.17
-14.2809
-12.8753
-11.8985
-11.3086
-11.0721
-11.4967
-12.585
-13.9821
-15.6154
-17.4291
-19.3746
-21.4112
-23.507
-25.6382
-27.7931
-29.9805
-32.2037
-34.44
-36.6413
82.0898
83.7518
85.7291
87.7226
89.4924
90.8416
91.8167
92.456
92.4984
91.6387
89.7632
86.9527
83.3234
78.9591
73.8946
68.1015
61.4753
53.7958
44.7296
33.3879
19.2007
-2.72741
80.7122
79.5818
78.6662
77.7476
76.857
76.0054
75.2058
74.5457
73.9828
73.4517
72.9508
72.4876
72.0661
71.6885
71.3558
71.0681
70.8247
70.6238
70.4631
70.34
70.2508
70.191
70.1559
70.1406
70.1405
70.1507
70.1675
70.1909
70.1975
-22.2626
-39.4473
-45.7961
-46.6693
-46.1815
-44.4726
-42.2473
-39.5891
-36.654
-33.5481
-30.3326
-27.0917
-23.9011
-20.8715
-18.3192
-16.3625
-14.9215
-13.9358
-13.3604
-13.5549
-14.3033
-15.3048
-16.6462
-18.2409
-20.0206
-21.9311
-23.9293
-25.9812
-28.0618
-30.1615
-32.2907
-34.4582
-36.6431
-38.7877
81.7644
83.4194
85.419
87.4708
89.3834
90.9381
92.1474
93.1013
93.6001
93.306