/*--------------------------------*- C++ -*----------------------------------*\
  =========                 |
  \\      /  F ield         | OpenFOAM: The Open Source CFD Toolbox
   \\    /   O peration     | Website:  https://openfoam.org
    \\  /    A nd           | Version:  8
     \\/     M anipulation  |
\*---------------------------------------------------------------------------*/
FoamFile
{
    version     2.0;
    format      ascii;
    class       volScalarField;
    location    "0.01";
    object      alphat;
}
// * * * * * * * * * * * * * * * * * * * * * * * * * * * * * * * * * * * * * //

dimensions      [1 -1 -1 0 0 0 0];

internalField   nonuniform List<scalar> 
15677
(
0.00186251
0.00819915
0.0216762
0.035878
0.0497021
0.0628038
0.0748332
0.0853527
0.0938535
0.100321
0.105747
0.111558
0.118329
0.126375
0.135301
0.144913
0.154865
0.164452
0.173096
0.180379
0.18607
0.189928
0.192004
0.19264
0.192626
0.19222
0.191638
0.191018
0.19039
0.189828
0.189374
0.189039
0.188825
0.18873
0.188747
0.00155266
0.0126642
0.0305248
0.047481
0.0617461
0.0724308
0.0798246
0.0846371
0.0867258
0.0861807
0.0856804
0.0925063
0.103982
0.112826
0.118255
0.123284
0.127741
0.132126
0.136391
0.139154
0.140128
0.139804
0.139375
0.138918
0.13864
0.138589
0.13868
0.138847
0.139022
0.139146
0.139262
0.139278
0.139235
0.139159
0.139074
0.00234822
0.0234065
0.0517434
0.0783026
0.101096
0.119571
0.133457
0.142172
0.144659
0.140089
0.130604
0.122579
0.122522
0.129461
0.132158
0.135102
0.14297
0.151801
0.160645
0.168875
0.177834
0.185864
0.191687
0.196122
0.199743
0.202844
0.205547
0.207876
0.209818
0.211393
0.212659
0.213694
0.214565
0.215317
0.215985
0.0016065
0.0113406
0.0256963
0.0396946
0.0523472
0.0631129
0.0716037
0.0778293
0.0829751
0.0873676
0.0929019
0.100901
0.110632
0.116068
0.111087
0.100967
0.0907494
0.0889729
0.0985285
0.11243
0.127727
0.140824
0.150664
0.158329
0.164076
0.168147
0.170802
0.17235
0.173414
0.174261
0.175049
0.175763
0.176379
0.176888
0.177319
0.00122266
0.00970674
0.0198877
0.0295986
0.0387903
0.0475104
0.0558946
0.0642192
0.0729736
0.0827557
0.0940541
0.106596
0.118238
0.123727
0.119099
0.109154
0.0972818
0.0880401
0.086288
0.100887
0.123041
0.138861
0.150194
0.156462
0.161391
0.1658
0.169708
0.172964
0.175776
0.178245
0.180417
0.182335
0.184034
0.185542
0.186874
0.000815833
0.00525576
0.0111875
0.0170205
0.0227761
0.02853
0.0343339
0.0403051
0.0466104
0.0532782
0.0601665
0.066815
0.0705219
0.0706503
0.0674861
0.0616236
0.0557039
0.0529671
0.0554214
0.0638027
0.0760694
0.0868866
0.0968275
0.104739
0.111103
0.116436
0.120771
0.124292
0.127203
0.129661
0.131771
0.133597
0.135187
0.136578
0.137805
0.000658204
0.00552257
0.011219
0.0166559
0.0219538
0.0272229
0.0325387
0.0378899
0.0431325
0.0479205
0.0517704
0.0537492
0.053842
0.0505039
0.0441163
0.0410331
0.0448787
0.0534874
0.0623887
0.070287
0.0767566
0.0831438
0.0881491
0.0920609
0.0956227
0.0989411
0.101977
0.104689
0.10707
0.109134
0.110898
0.112401
0.113682
0.114789
0.115753
0.000471121
0.00293825
0.00622052
0.00936695
0.01243
0.0153913
0.0182584
0.0209492
0.0233273
0.0251281
0.0257884
0.0265397
0.0262545
0.0255319
0.0244891
0.0271903
0.0337704
0.0443644
0.0533126
0.0588315
0.0614129
0.0629306
0.0645517
0.0664645
0.0685585
0.0705158
0.0722803
0.0738068
0.0751017
0.0762022
0.0771488
0.077965
0.0786691
0.0792743
0.0797968
0.000335528
0.00256665
0.00544013
0.00825728
0.0108259
0.0131576
0.0151358
0.0166286
0.0172633
0.0182467
0.0209533
0.0251745
0.0284703
0.0307553
0.0328631
0.0367533
0.0423192
0.0483551
0.0511738
0.0521974
0.0507715
0.0488985
0.0473184
0.0461107
0.0452373
0.0450283
0.0455697
0.0464377
0.0473354
0.0481283
0.0487709
0.0492594
0.0496101
0.0498514
0.0500151
0.000211737
0.00108894
0.00222612
0.00341111
0.00461157
0.00583988
0.00714151
0.00891128
0.012155
0.0182048
0.0251958
0.0311343
0.034907
0.0367638
0.0385289
0.041004
0.0431913
0.0430039
0.0418481
0.0404831
0.0383202
0.0351601
0.0318194
0.0290141
0.0281165
0.0287838
0.0300762
0.0309355
0.0315565
0.0319755
0.032152
0.0321321
0.0319869
0.0317722
0.0315237
0.000324585
0.00252907
0.00488013
0.00672162
0.00816333
0.00950134
0.0110831
0.013331
0.016362
0.0200346
0.0236463
0.0268881
0.0293485
0.0313764
0.0330004
0.0341106
0.0345335
0.0340922
0.0326459
0.030104
0.0264825
0.022023
0.0166152
0.0134291
0.0161311
0.0196548
0.0222454
0.0235864
0.0244029
0.0247242
0.024709
0.0244884
0.0241229
0.0236879
0.0232257
0.000233996
0.00179603
0.00369734
0.0052638
0.0066977
0.00826291
0.00987311
0.0111796
0.0126414
0.0143964
0.0166668
0.0190413
0.0210216
0.0223386
0.022823
0.02269
0.0218284
0.020248
0.0183709
0.0163815
0.0141157
0.0111786
0.00852574
0.00655691
0.00668588
0.00887247
0.0108426
0.0121383
0.0127017
0.0129214
0.0129865
0.0129848
0.0129258
0.0127809
0.0125692
0.000206393
0.0014211
0.00257626
0.00336564
0.00398999
0.00479095
0.00603552
0.00755198
0.00896907
0.0102131
0.0114019
0.0123557
0.0127245
0.0122018
0.0108234
0.00919728
0.0072168
0.00549083
0.0046185
0.00445968
0.0048119
0.00631838
0.00853064
0.008647
0.00804358
0.00716224
0.0064943
0.00608523
0.00577965
0.00553514
0.00519471
0.00478599
0.00435116
0.00391407
0.00353777
0.000160379
0.000623928
0.0012328
0.00161082
0.00177
0.00200403
0.0030084
0.00447965
0.00587487
0.00695644
0.00773804
0.00807849
0.00767582
0.00640868
0.00474579
0.00352748
0.00295283
0.00287494
0.00386659
0.00538991
0.00751534
0.00880878
0.00748628
0.00661149
0.00639587
0.00535184
0.00459171
0.00393027
0.00333606
0.00283257
0.00251521
0.00234344
0.00230529
0.00246563
0.00291143
9.76231e-05
0.000472859
0.000771656
0.000980642
0.00116493
0.00149839
0.00226309
0.00327111
0.00408515
0.0045216
0.00450549
0.00421479
0.00385137
0.00373337
0.00403397
0.00427614
0.00455757
0.00524882
0.00618805
0.00728441
0.00912016
0.00989183
0.00884853
0.006966
0.00582564
0.00522679
0.0048715
0.00454703
0.00429619
0.00417211
0.00424167
0.00448371
0.0048984
0.00543771
0.00602711
9.14916e-05
0.000346147
0.000655893
0.000921278
0.00120606
0.0016118
0.00218195
0.00282096
0.00339548
0.00377015
0.00395622
0.00402126
0.00416019
0.00479313
0.00592154
0.00695994
0.00757054
0.00784267
0.00795731
0.00801576
0.00812029
0.00826077
0.00825868
0.0079383
0.007487
0.00717134
0.00707961
0.00714717
0.00729146
0.0074433
0.00761147
0.00775928
0.00790477
0.00803939
0.00815162
0.000277444
0.000452857
0.00073434
0.00107796
0.00147124
0.00192128
0.00241412
0.00291195
0.00339435
0.00390604
0.00455386
0.00542792
0.00649061
0.00744959
0.0078747
0.00798952
0.0079748
0.00791677
0.00786213
0.00782311
0.00780096
0.00781262
0.0078468
0.00787206
0.00787523
0.00787004
0.00787511
0.0078941
0.00792125
0.0079504
0.00797915
0.00800677
0.0080344
0.00806326
0.00809082
0.000196261
0.000458856
0.000836283
0.00127284
0.00173893
0.00221526
0.00269255
0.00317561
0.00365046
0.00417473
0.00481587
0.00563186
0.00657896
0.00743174
0.00784779
0.00791882
0.00785193
0.00776588
0.00769979
0.00765914
0.00763802
0.00763363
0.00764023
0.00765349
0.00767426
0.00770595
0.00774737
0.00779058
0.00783354
0.00787313
0.00790817
0.00793881
0.00796551
0.00798798
0.00800462
0.000168487
0.000545079
0.000979223
0.00143511
0.00190454
0.00237833
0.0028572
0.0033483
0.00387766
0.00449131
0.0052419
0.00613445
0.00702034
0.00762715
0.00781973
0.00780504
0.00773863
0.0076815
0.00764379
0.00762265
0.0076133
0.0076137
0.00762143
0.00763586
0.00765769
0.00768651
0.00771888
0.00775068
0.00777893
0.00780252
0.00782095
0.00783482
0.00784502
0.00785272
0.00785872
0.000142616
0.000514339
0.000973879
0.00144933
0.00192563
0.00240328
0.00289479
0.00341232
0.00398385
0.00464428
0.00541346
0.00625268
0.00700989
0.00749375
0.00765078
0.00765903
0.00763084
0.00760437
0.00758623
0.00757483
0.00756904
0.00756728
0.00757057
0.00757981
0.00759799
0.00762431
0.00765526
0.00768758
0.00771825
0.00774468
0.00776675
0.00778505
0.00779993
0.00781189
0.0078202
0.00010664
0.000459428
0.000903287
0.00137347
0.00185596
0.00235101
0.00287068
0.00343609
0.00406946
0.00479533
0.00560704
0.00642845
0.00710151
0.00749024
0.00761043
0.00762369
0.0076096
0.00759525
0.00758595
0.00758051
0.00757702
0.00757509
0.00757663
0.0075836
0.00759681
0.00761648
0.00763935
0.00766167
0.00768175
0.00769812
0.00771054
0.00771946
0.00772599
0.00773075
0.00773431
9.26681e-05
0.00044072
0.000894786
0.00136968
0.00185708
0.00236591
0.00291282
0.00351835
0.00419924
0.00496133
0.00577075
0.00653506
0.00712003
0.00744646
0.00755325
0.00757284
0.00757134
0.00756675
0.00756198
0.00755825
0.00755517
0.00755337
0.00755476
0.00756064
0.00757189
0.00758835
0.0076073
0.0076274
0.00764587
0.00766168
0.00767463
0.00768503
0.00769312
0.00769933
0.00770341
7.32058e-05
0.000380451
0.000786346
0.00123092
0.00170946
0.00222962
0.00280594
0.00345671
0.00418816
0.00499237
0.0058188
0.00656695
0.00711899
0.00742441
0.00753219
0.00756029
0.00756443
0.00756332
0.00756214
0.00756142
0.00756034
0.00755906
0.00755965
0.00756378
0.0075719
0.00758396
0.00759796
0.00761169
0.00762406
0.00763412
0.00764169
0.00764707
0.00765103
0.00765402
0.00765635
6.69843e-05
0.000375285
0.000792028
0.00124521
0.00173446
0.00227286
0.00287598
0.00355658
0.00431366
0.00512314
0.00592375
0.00662104
0.00712332
0.00740344
0.00750815
0.00753974
0.00754829
0.00755068
0.00755113
0.00755129
0.00755119
0.00755118
0.00755265
0.00755671
0.007564
0.00757405
0.00758524
0.00759708
0.00760785
0.00761691
0.00762416
0.00762988
0.00763442
0.0076381
0.00764081
5.71599e-05
0.000322735
0.000688612
0.00110991
0.00158916
0.00213697
0.00276538
0.0034809
0.00427611
0.00511313
0.00592366
0.00661488
0.00710808
0.00738729
0.00749761
0.00753517
0.00754715
0.00755145
0.00755383
0.00755575
0.00755723
0.00755829
0.00756038
0.00756439
0.00757081
0.0075792
0.00758846
0.00759761
0.00760563
0.00761258
0.00761832
0.00762288
0.00762634
0.00762893
0.00763101
5.47118e-05
0.000324913
0.000702529
0.00113582
0.00162879
0.00219367
0.00284077
0.00357164
0.00437076
0.00519722
0.00598142
0.00664047
0.0071094
0.00737892
0.00748951
0.00752906
0.00754358
0.00754935
0.00755296
0.00755587
0.00755871
0.00756165
0.00756538
0.00757051
0.00757732
0.00758547
0.00759411
0.0076024
0.00761003
0.00761673
0.00762248
0.00762725
0.00763124
0.00763469
0.0076374
5.04939e-05
0.000293678
0.000638576
0.00105042
0.0015363
0.00210741
0.00277149
0.00352542
0.00434704
0.00518863
0.00597844
0.00663533
0.00710183
0.00737298
0.0074873
0.00753007
0.00754638
0.00755415
0.00755933
0.00756393
0.00756876
0.00757416
0.00757994
0.00758671
0.00759464
0.00760344
0.0076123
0.0076204
0.00762725
0.00763295
0.00763774
0.00764195
0.00764579
0.00764933
0.00765257
4.94729e-05
0.000294937
0.000646825
0.00106914
0.0015665
0.00214942
0.00282345
0.00358248
0.00440173
0.00523284
0.00600648
0.00664767
0.00710428
0.00737274
0.00748826
0.00753277
0.00755075
0.00755996
0.00756669
0.00757324
0.00758042
0.00758818
0.00759641
0.00760526
0.00761463
0.00762421
0.0076336
0.00764244
0.00765054
0.00765789
0.00766458
0.00767055
0.00767585
0.00768053
0.00768472
4.76451e-05
0.000279917
0.000615595
0.00102706
0.0015209
0.00210767
0.00279116
0.00356227
0.00439253
0.00523059
0.0060064
0.00664726
0.00710409
0.00737458
0.00749289
0.0075399
0.00755988
0.00757087
0.00757917
0.00758761
0.00759717
0.00760779
0.00761902
0.00763074
0.00764275
0.00765474
0.00766642
0.00767753
0.00768791
0.00769749
0.00770623
0.00771414
0.00772127
0.00772771
0.00773355
4.73658e-05
0.00028211
0.000622494
0.00103884
0.00153815
0.00212932
0.00281546
0.00358665
0.00441405
0.00524691
0.00601679
0.00665306
0.00710795
0.0073802
0.00750122
0.00755058
0.0075726
0.00758555
0.00759617
0.00760743
0.00762042
0.00763512
0.0076507
0.00766679
0.00768306
0.00769912
0.00771466
0.00772943
0.00774329
0.00775616
0.00776802
0.00777885
0.00778868
0.00779758
0.00780551
0.188647
0.188473
0.188358
0.188263
0.188187
0.188089
0.187976
0.187844
0.187691
0.187516
0.187313
0.187072
0.186795
0.186491
0.186155
0.185771
0.185336
0.18486
0.184371
0.183913
0.183543
0.183276
0.138971
0.13864
0.13819
0.137684
0.137144
0.136593
0.136083
0.135668
0.135307
0.135076
0.135134
0.135756
0.137171
0.139429
0.142409
0.145036
0.146717
0.147605
0.147968
0.148051
0.148019
0.148012
0.216687
0.217574
0.21869
0.220093
0.221863
0.224096
0.226863
0.230079
0.233465
0.236673
0.239262
0.241045
0.241917
0.241995
0.241314
0.240446
0.239601
0.238654
0.237512
0.236155
0.234608
0.232896
0.177988
0.178699
0.179354
0.180035
0.180767
0.181455
0.182003
0.182407
0.182708
0.183029
0.183448
0.184014
0.184734
0.185516
0.186237
0.186877
0.187425
0.187853
0.188155
0.188349
0.188485
0.188669
0.188731
0.191123
0.19335
0.19538
0.197207
0.198892
0.200491
0.201996
0.203445
0.204881
0.206279
0.207625
0.208895
0.210045
0.211071
0.211975
0.212765
0.213443
0.214012
0.21448
0.214853
0.215113
0.139672
0.142229
0.14477
0.147289
0.149783
0.15225
0.15469
0.157104
0.159496
0.161866
0.164224
0.166562
0.168829
0.170997
0.173056
0.174987
0.17677
0.178406
0.179905
0.181278
0.182536
0.183692
0.117373
0.119713
0.122029
0.124321
0.126597
0.128865
0.131134
0.133413
0.13571
0.138033
0.140392
0.142772
0.145088
0.147297
0.149405
0.151414
0.153326
0.155139
0.156852
0.158469
0.159987
0.161408
0.0809911
0.0829103
0.0848005
0.0866511
0.0884627
0.0902417
0.0920002
0.0937559
0.0955289
0.0973379
0.0992023
0.101126
0.10307
0.105002
0.106921
0.108825
0.110713
0.112583
0.114432
0.116257
0.118052
0.119811
0.0507054
0.0519499
0.0531669
0.0543489
0.0554854
0.0565684
0.0575969
0.0585782
0.0595282
0.0604707
0.061436
0.0624547
0.0635337
0.0646781
0.0659079
0.0672359
0.0686626
0.0701884
0.071811
0.0735265
0.0753281
0.0772018
0.0315039
0.0317079
0.0318665
0.0319961
0.0320853
0.0321251
0.0321096
0.0320376
0.0319097
0.0317271
0.0314943
0.0312168
0.0309032
0.0305694
0.0302384
0.0299503
0.0297683
0.0297599
0.030016
0.0305061
0.0313038
0.0323805
0.0228638
0.0225121
0.0220455
0.0214727
0.0207953
0.0200117
0.0191298
0.0181826
0.0172257
0.0162916
0.0153741
0.0144564
0.0135626
0.0127027
0.0118656
0.0110459
0.0102588
0.00954904
0.00896376
0.00854022
0.00827695
0.00814565
0.01255
0.012611
0.0125063
0.0122411
0.0118306
0.011293
0.010655
0.00993415
0.00914527
0.00831307
0.0074919
0.00672136
0.00603108
0.00543397
0.0049268
0.00450873
0.00419219
0.00404782
0.00418813
0.00453056
0.00494765
0.00537916
0.00331527
0.00325785
0.00330776
0.00343443
0.00355893
0.00362309
0.0036629
0.00367847
0.0036641
0.00365549
0.00366634
0.00368626
0.00370531
0.00369634
0.00363225
0.00351649
0.00339743
0.00336955
0.00358613
0.00408797
0.00483407
0.00592498
0.00327154
0.00361407
0.003695
0.00350759
0.00328439
0.00312152
0.0030286
0.00300024
0.00307141
0.00328075
0.00361292
0.00405345
0.00451876
0.00495299
0.00530731
0.00555987
0.00574259
0.00593966
0.00624272
0.00664844
0.00705677
0.00741214
0.00624833
0.00647249
0.00667925
0.00672988
0.00660509
0.00635164
0.00609198
0.0059016
0.00581989
0.00585936
0.00601321
0.00626197
0.00656024
0.0068707
0.00715633
0.00740109
0.00760377
0.0077817
0.00796177
0.00816309
0.00838563
0.00860803
0.00820025
0.0081767
0.00812262
0.00807103
0.00801742
0.00796631
0.00792373
0.00788976
0.00786042
0.00783833
0.00783243
0.00784935
0.00789098
0.00795804
0.00804937
0.00819334
0.00837269
0.00851653
0.00863964
0.00874624
0.0088425
0.00893787
0.00811734
0.00812059
0.00811903
0.00812079
0.00811606
0.00810071
0.00807561
0.00804367
0.00800881
0.00797561
0.00794957
0.00793636
0.00793963
0.00795898
0.00799269
0.00804063
0.00810523
0.0081837
0.00827193
0.00836371
0.00845377
0.00853852
0.00802483
0.00802515
0.00801033
0.0079986
0.00799012
0.00798355
0.00797574
0.00796473
0.00795057
0.00793547
0.00792367
0.00791948
0.00792594
0.00794342
0.00797264
0.00801311
0.00806425
0.00812552
0.00819719
0.00827956
0.00837003
0.00846847
0.00786969
0.0078822
0.0078929
0.00790062
0.00790448
0.00790196
0.00789298
0.00787827
0.00785958
0.00783981
0.00782244
0.0078114
0.0078097
0.00781815
0.00783666
0.00786442
0.00790024
0.00794305
0.00799217
0.00804778
0.00810878
0.00817199
0.00783126
0.00783546
0.00783302
0.00783131
0.00782986
0.00782662
0.0078199
0.00780912
0.00779465
0.00777835
0.00776301
0.00775191
0.00774804
0.00775247
0.0077651
0.00778583
0.00781367
0.00784788
0.00788813
0.00793449
0.00798719
0.00804614
0.00774243
0.00775378
0.00776303
0.0077694
0.0077722
0.00777069
0.00776462
0.0077542
0.00774033
0.00772455
0.00770887
0.00769578
0.00768772
0.00768629
0.00769183
0.00770412
0.00772242
0.00774562
0.00777276
0.00780349
0.00783755
0.00787407
0.00770995
0.00771527
0.00771766
0.00772001
0.0077213
0.0077202
0.00771582
0.00770806
0.00769736
0.0076848
0.00767191
0.00766058
0.00765288
0.00764968
0.0076513
0.00765768
0.00766888
0.00768428
0.00770324
0.00772542
0.00775066
0.00777947
0.00766171
0.00766927
0.00767555
0.00767978
0.00768189
0.00768125
0.00767757
0.00767091
0.00766172
0.00765085
0.00763942
0.00762879
0.00762042
0.0076155
0.00761442
0.00761712
0.00762326
0.00763247
0.00764443
0.00765882
0.00767554
0.00769421
0.00764445
0.00764815
0.00765076
0.00765287
0.00765378
0.00765286
0.00764965
0.0076441
0.00763653
0.00762758
0.00761802
0.00760888
0.00760128
0.00759595
0.00759318
0.00759307
0.00759548
0.0076003
0.00760726
0.00761621
0.00762701
0.00763978
0.00763364
0.00763591
0.0076372
0.00763787
0.00763747
0.00763561
0.00763202
0.00762663
0.00761965
0.00761156
0.00760296
0.00759464
0.00758743
0.00758186
0.00757812
0.00757625
0.00757622
0.00757794
0.00758133
0.00758626
0.00759271
0.00760041
0.00763911
0.00763897
0.00763798
0.00763639
0.00763394
0.00763042
0.00762567
0.00761965
0.00761253
0.00760465
0.00759644
0.00758847
0.00758138
0.0075755
0.00757098
0.00756786
0.00756612
0.0075657
0.00756655
0.00756861
0.00757186
0.0075763
0.00765366
0.00765207
0.00764956
0.0076463
0.00764195
0.00763662
0.00763034
0.00762309
0.007615
0.00760637
0.00759753
0.00758897
0.00758123
0.00757463
0.00756921
0.00756496
0.00756185
0.00755983
0.00755888
0.00755894
0.00755997
0.00756195
0.00768457
0.0076797
0.00767467
0.00766897
0.00766247
0.0076551
0.00764681
0.00763763
0.00762774
0.00761744
0.00760708
0.00759707
0.00758799
0.00758012
0.00757346
0.00756795
0.0075635
0.00756004
0.00755748
0.00755582
0.00755503
0.00755511
0.00773234
0.00772389
0.00771567
0.00770718
0.0076981
0.00768821
0.00767742
0.00766574
0.00765334
0.00764051
0.00762761
0.00761509
0.00760356
0.00759334
0.00758442
0.00757679
0.00757039
0.00756517
0.00756105
0.0075579
0.00755561
0.00755415
0.00780218
0.00778752
0.00777356
0.00776003
0.0077466
0.00773292
0.00771875
0.00770397
0.00768859
0.00767279
0.00765687
0.0076413
0.0076268
0.00761378
0.00760225
0.00759216
0.00758346
0.00757609
0.00756995
0.00756495
0.00756094
0.00755787
0.183191
0.183108
0.182966
0.182941
0.183041
0.183109
0.148122
0.148263
0.148346
0.14834
0.148245
0.148094
0.231352
0.230237
0.229632
0.229601
0.230147
0.231213
0.188625
0.188499
0.188412
0.188403
0.188472
0.188588
0.215212
0.215218
0.215216
0.21522
0.215231
0.215233
0.184463
0.184768
0.184924
0.184932
0.184793
0.184505
0.162209
0.162373
0.16246
0.162468
0.162398
0.162252
0.120722
0.120768
0.120801
0.120824
0.120835
0.120834
0.0781142
0.0780659
0.0780976
0.0782025
0.0783723
0.0785983
0.0327516
0.0325113
0.0325882
0.0329395
0.0335105
0.0342414
0.0076529
0.00693001
0.00643876
0.00620744
0.00627289
0.00665533
0.00585987
0.00645171
0.0070318
0.00725699
0.00683626
0.00586466
0.0076777
0.00967655
0.0109229
0.0114541
0.0114045
0.0108461
0.00811835
0.00884066
0.00925146
0.00939252
0.00933372
0.0090849
0.00900059
0.0093782
0.00964544
0.00979462
0.00980247
0.00965792
0.0090393
0.0091116
0.00915554
0.00916416
0.0091322
0.0090645
0.00858436
0.00859536
0.00860311
0.00860776
0.00860784
0.00860116
0.00853926
0.00857608
0.00859562
0.00860096
0.00859051
0.00855786
0.00821257
0.00823204
0.00824344
0.00824464
0.00823516
0.00821754
0.00808852
0.00810711
0.00811628
0.00811701
0.00810904
0.00809041
0.00789772
0.0079074
0.00791299
0.00791308
0.00790752
0.00789783
0.00779975
0.00780752
0.00781151
0.0078116
0.00780771
0.00779977
0.00770562
0.00770906
0.00771107
0.007711
0.00770887
0.00770527
0.00764823
0.0076505
0.0076517
0.00765168
0.0076504
0.00764798
0.00760505
0.00760562
0.00760601
0.007606
0.00760557
0.00760496
0.007579
0.00757918
0.00757932
0.00757932
0.00757915
0.00757893
0.00756289
0.00756252
0.00756236
0.00756235
0.00756249
0.00756281
0.00755502
0.00755455
0.00755433
0.00755433
0.00755453
0.00755499
0.0075532
0.00755266
0.0075524
0.00755241
0.00755267
0.00755321
0.00755619
0.00755572
0.00755551
0.00755551
0.00755575
0.00755624
0.183178
0.183427
0.183774
0.184204
0.184662
0.185105
0.185507
0.18586
0.18617
0.186455
0.186725
0.186974
0.18719
0.187376
0.187538
0.187682
0.187809
0.187924
0.188028
0.188137
0.188272
0.188476
0.14799
0.147989
0.148031
0.147979
0.147667
0.146852
0.145262
0.142729
0.139744
0.137452
0.135987
0.13531
0.135225
0.135452
0.135821
0.136237
0.136747
0.137297
0.137836
0.138339
0.138785
0.139112
0.232735
0.23448
0.236057
0.237448
0.238624
0.239596
0.240456
0.241328
0.242055
0.242033
0.241226
0.239506
0.23694
0.233749
0.230378
0.22719
0.224474
0.222299
0.220584
0.219226
0.218144
0.217279
0.188633
0.188455
0.188333
0.18816
0.18788
0.187472
0.186939
0.18631
0.185601
0.18485
0.184161
0.183602
0.183185
0.182873
0.182586
0.182205
0.18167
0.180988
0.180271
0.179603
0.178959
0.178259
0.21514
0.214885
0.214515
0.214044
0.213478
0.212808
0.212029
0.211146
0.210149
0.20904
0.207817
0.206506
0.205136
0.203725
0.20231
0.200847
0.199298
0.197669
0.195883
0.193892
0.191716
0.189385
0.183743
0.182584
0.181324
0.17995
0.178456
0.176833
0.175074
0.173174
0.171155
0.169035
0.166827
0.164531
0.162191
0.159845
0.157485
0.15511
0.152716
0.150301
0.147866
0.145413
0.142947
0.140471
0.161459
0.160039
0.158525
0.156919
0.155222
0.153434
0.151552
0.149581
0.147521
0.145369
0.143121
0.140786
0.138436
0.13613
0.133859
0.131613
0.129384
0.127161
0.124937
0.122702
0.120449
0.118178
0.119958
0.118227
0.116464
0.114673
0.112854
0.11101
0.109145
0.107261
0.105359
0.103445
0.101525
0.0996098
0.0977439
0.0959496
0.0942073
0.0924958
0.0907952
0.0890849
0.087349
0.0855773
0.0837667
0.0819238
0.0778226
0.0760478
0.0743007
0.0725833
0.0708989
0.0692551
0.0676649
0.0661465
0.0647231
0.063421
0.0622538
0.0612197
0.0603131
0.0594982
0.0587212
0.0579383
0.0571158
0.056232
0.0552773
0.0542495
0.0531541
0.0520017
0.0340573
0.0329011
0.031806
0.0307848
0.0298597
0.0290654
0.0284508
0.0280417
0.0278705
0.0280049
0.0284026
0.028997
0.0296962
0.0303886
0.0310182
0.031552
0.0319757
0.0322858
0.0324778
0.0325564
0.0325335
0.0324214
0.00692929
0.00683539
0.00687535
0.00700982
0.007195
0.00732395
0.00746006
0.00779165
0.00851606
0.00967047
0.0111723
0.0128992
0.0147246
0.0165737
0.0183516
0.0199583
0.0213239
0.0223978
0.0232012
0.0237869
0.0242009
0.0244682
0.00520631
0.00495209
0.00462907
0.00435258
0.00410627
0.003658
0.00311907
0.00299849
0.00352881
0.00443505
0.00554925
0.00674085
0.00790289
0.00897953
0.00994513
0.0107693
0.0114486
0.0120436
0.0125488
0.0129099
0.0130741
0.0130398
0.00981723
0.00855282
0.00682331
0.00520957
0.00415189
0.00342986
0.00281195
0.00235102
0.00213214
0.00203585
0.00194693
0.00189831
0.00193018
0.00203857
0.00220055
0.00237992
0.00252975
0.00261014
0.00262368
0.00255488
0.00245029
0.00240883
0.00877682
0.00858595
0.00836015
0.00804317
0.00746936
0.00657793
0.00564686
0.00489079
0.00433016
0.00393176
0.00361751
0.00329205
0.0029643
0.0026808
0.00246069
0.00229492
0.00225673
0.00234617
0.00255194
0.00287413
0.00320766
0.00311412
0.00941949
0.00916865
0.00885992
0.00851104
0.00814529
0.00777602
0.00744284
0.00716454
0.00694334
0.00674448
0.00651783
0.00624457
0.00596931
0.00574956
0.00559485
0.00552391
0.00558493
0.00579407
0.00608488
0.00637269
0.00649844
0.00639617
0.00895544
0.00884449
0.00872838
0.00859836
0.00845353
0.00829535
0.00811823
0.00796283
0.00785871
0.00778538
0.00772659
0.00767763
0.00764683
0.00763461
0.00764397
0.00768081
0.00774705
0.00783501
0.00792891
0.00800862
0.00806051
0.00808621
0.00854018
0.00844438
0.00834422
0.00824515
0.00815043
0.00806317
0.00798905
0.00793205
0.00789138
0.00786599
0.00785602
0.00786157
0.00788058
0.00790836
0.00794085
0.00797431
0.0080047
0.00802791
0.00804138
0.00804724
0.00805427
0.00804881
0.00848174
0.00837368
0.00827209
0.00817674
0.00809014
0.00801382
0.00794988
0.00789977
0.00786413
0.00784359
0.00783746
0.00784462
0.00786166
0.00788291
0.00790441
0.0079235
0.00793939
0.00795273
0.00796605
0.00798169
0.00800015
0.00800332
0.00817533
0.00810634
0.00803872
0.00797653
0.007921
0.00787302
0.00783325
0.00780269
0.0077827
0.00777406
0.00777664
0.00778922
0.00780841
0.00783038
0.00785137
0.0078683
0.00787927
0.00788439
0.00788439
0.00788098
0.00787257
0.00786023
0.00804583
0.0079831
0.00792669
0.00787696
0.00783391
0.00779764
0.00776841
0.00774689
0.00773413
0.00773008
0.00773447
0.00774597
0.00776196
0.0077791
0.00779492
0.00780743
0.00781592
0.00782097
0.00782422
0.00782747
0.00783096
0.00782748
0.0078732
0.00783468
0.00779878
0.00776653
0.00773821
0.00771414
0.00769539
0.00768305
0.00767754
0.00767889
0.00768674
0.00770001
0.00771622
0.00773254
0.00774703
0.00775812
0.00776492
0.00776715
0.00776507
0.00775932
0.00775077
0.00774009
0.0077787
0.00774879
0.0077226
0.00769964
0.00768009
0.00766429
0.00765289
0.00764638
0.00764467
0.00764777
0.00765538
0.00766671
0.00767983
0.00769271
0.00770375
0.00771198
0.00771678
0.00771829
0.00771743
0.00771546
0.00771337
0.00770811
0.00769354
0.00767426
0.0076571
0.0076424
0.0076302
0.00762087
0.00761467
0.00761194
0.00761296
0.00761776
0.00762591
0.00763644
0.007648
0.00765905
0.00766845
0.00767533
0.00767921
0.00768006
0.00767813
0.00767408
0.00766793
0.00766051
0.00763928
0.00762622
0.00761522
0.00760613
0.00759907
0.0075942
0.00759173
0.00759178
0.00759445
0.00759965
0.00760707
0.00761615
0.00762583
0.00763492
0.00764265
0.00764836
0.00765171
0.00765275
0.00765192
0.00764984
0.00764724
0.00764357
0.00760015
0.00759229
0.00758575
0.00758077
0.00757737
0.00757564
0.00757564
0.00757747
0.00758114
0.0075866
0.00759367
0.00760196
0.00761066
0.00761887
0.00762595
0.00763142
0.00763504
0.00763689
0.00763729
0.00763668
0.00763549
0.00763318
0.00757615
0.00757163
0.00756835
0.00756627
0.00756542
0.00756583
0.00756756
0.00757064
0.0075751
0.0075809
0.00758792
0.00759591
0.00760424
0.00761225
0.00761946
0.00762553
0.00763027
0.00763376
0.00763618
0.00763775
0.00763871
0.00763883
0.0075618
0.00755978
0.00755876
0.00755873
0.00755971
0.00756176
0.00756488
0.00756914
0.00757455
0.00758111
0.0075888
0.0075974
0.00760636
0.00761511
0.00762325
0.00763052
0.00763679
0.00764209
0.00764634
0.00764945
0.00765186
0.00765332
0.00755505
0.00755499
0.00755582
0.00755754
0.00756014
0.00756363
0.00756811
0.00757364
0.00758031
0.00758817
0.00759719
0.00760721
0.0076177
0.00762809
0.00763801
0.00764716
0.00765537
0.00766265
0.00766902
0.00767459
0.00767948
0.00768423
0.00755417
0.00755568
0.00755805
0.00756129
0.00756552
0.00757086
0.00757734
0.00758502
0.00759392
0.00760408
0.00761548
0.00762797
0.00764098
0.00765387
0.00766626
0.00767788
0.00768856
0.00769832
0.00770728
0.00771564
0.00772374
0.00773206
0.00755797
0.00756114
0.00756526
0.00757039
0.00757666
0.00758416
0.00759294
0.00760304
0.00761454
0.00762747
0.00764181
0.00765735
0.00767339
0.00768924
0.00770461
0.00771934
0.00773341
0.00774699
0.0077603
0.00777369
0.00778748
0.00780192
0.188609
0.188618
0.188742
0.188985
0.18935
0.189834
0.190426
0.191068
0.191714
0.192311
0.192723
0.192735
0.192089
0.189991
0.186103
0.180379
0.17307
0.16441
0.154827
0.144908
0.135348
0.126479
0.118476
0.111715
0.105888
0.100437
0.09395
0.085434
0.0749008
0.0628588
0.0497458
0.0359122
0.0217019
0.00821221
0.00186231
0.139223
0.139312
0.13939
0.139434
0.139416
0.139296
0.139174
0.138985
0.138807
0.138704
0.138744
0.139018
0.139483
0.139917
0.140234
0.139308
0.136607
0.132366
0.127921
0.123457
0.118439
0.112964
0.104127
0.092642
0.0858123
0.08626
0.0868349
0.0847347
0.0799018
0.0725122
0.0618057
0.0475183
0.0305474
0.0126727
0.00155315
0.216575
0.215901
0.215141
0.214263
0.213221
0.211948
0.210364
0.208412
0.206075
0.203368
0.200273
0.196671
0.192267
0.186497
0.17853
0.169551
0.161203
0.152359
0.143454
0.135438
0.132185
0.129393
0.122431
0.122444
0.130394
0.139845
0.14444
0.141998
0.133318
0.119461
0.101011
0.0782434
0.0517122
0.0233994
0.00234694
0.177598
0.177167
0.176657
0.176042
0.175329
0.174543
0.17371
0.172684
0.17122
0.168659
0.164682
0.159019
0.15143
0.141668
0.128669
0.113338
0.0993664
0.0892525
0.0905614
0.100685
0.110967
0.116116
0.110701
0.100913
0.0928058
0.0871921
0.0827702
0.0776127
0.0714014
0.062938
0.052208
0.0395962
0.0256397
0.0113204
0.00160434
0.187576
0.186267
0.184784
0.18311
0.181219
0.179076
0.176635
0.173853
0.170631
0.166762
0.162403
0.157556
0.151407
0.140261
0.124439
0.102139
0.0866229
0.087724
0.0966542
0.108502
0.11868
0.123443
0.118098
0.106571
0.09398
0.0826436
0.0728251
0.0640477
0.055718
0.0473451
0.0386489
0.0294902
0.0198183
0.00967777
0.0012183
0.138662
0.137467
0.13611
0.134558
0.132771
0.130699
0.128279
0.125405
0.12192
0.117612
0.112285
0.105889
0.0980098
0.0879961
0.077177
0.0647007
0.0559157
0.0530068
0.055357
0.0610522
0.066897
0.070266
0.0701405
0.0666248
0.0600181
0.0531537
0.0464954
0.0401947
0.0342295
0.0284357
0.0226989
0.0169623
0.0111509
0.00524071
0.000812755
0.116606
0.115665
0.114584
0.113328
0.111852
0.110106
0.108049
0.105658
0.102918
0.0998344
0.0964513
0.0928235
0.0888709
0.0838734
0.0775534
0.0712185
0.0633462
0.0543453
0.0453634
0.0408903
0.043481
0.0497656
0.0533264
0.05337
0.051506
0.0477682
0.0430612
0.0378649
0.0325411
0.0272398
0.0219769
0.0166796
0.0112386
0.00553431
0.000657139
0.0807706
0.080259
0.0796559
0.0789424
0.0781038
0.0771337
0.0760075
0.0746917
0.0731206
0.0712659
0.0691929
0.0670167
0.0650849
0.0635195
0.062083
0.0596047
0.0541048
0.0450556
0.0340751
0.0272572
0.0242081
0.025163
0.0258985
0.0262057
0.0255011
0.0248632
0.0231462
0.020809
0.0181524
0.0153121
0.0123715
0.00932532
0.00619378
0.00292539
0.000469954
0.0513793
0.0512351
0.0510044
0.050637
0.0500954
0.0493695
0.0484405
0.0473434
0.0462227
0.0453705
0.0453743
0.0464245
0.0477148
0.0493489
0.0512227
0.0526247
0.051578
0.0487266
0.0425956
0.0369029
0.0329659
0.0308424
0.0285837
0.025252
0.0209785
0.0181068