/*--------------------------------*- C++ -*----------------------------------*\
  =========                 |
  \\      /  F ield         | OpenFOAM: The Open Source CFD Toolbox
   \\    /   O peration     | Website:  https://openfoam.org
    \\  /    A nd           | Version:  8
     \\/     M anipulation  |
\*---------------------------------------------------------------------------*/
FoamFile
{
    version     2.0;
    format      ascii;
    class       volScalarField;
    location    "0.01";
    object      p;
}
// * * * * * * * * * * * * * * * * * * * * * * * * * * * * * * * * * * * * * //

dimensions      [1 -1 -2 0 0 0 0];

internalField   nonuniform List<scalar> 
15677
(
127968
127969
127979
127988
127993
127992
127986
127974
127931
127841
127716
127570
127432
127333
127274
127230
127195
127159
127123
127089
127061
127069
127098
127124
127140
127164
127192
127219
127243
127264
127283
127301
127316
127332
127353
82341.9
82217.9
82014.7
81785.6
81566.2
81358.7
81163.9
80994.5
80904.2
80971.3
81232.2
81661
82068.7
82338
82493.2
82593.4
82667.7
82726
82750.2
82731.1
82654.8
82513.9
82339.4
82151.9
81991.1
81852.7
81729.3
81618.5
81518.8
81429.2
81348.8
81275.6
81210.2
81150.8
81100.5
115281
115269
115236
115150
114989
114757
114471
114162
113887
113719
113656
113673
113677
113641
113695
113746
113822
113944
114068
114194
114327
114466
114589
114696
114795
114887
114970
115042
115100
115146
115181
115212
115241
115269
115295
92222.2
92246.4
92278.2
92306.5
92325.7
92329.6
92312.2
92299.2
92298.8
92279.4
92303.7
92280.3
92153.5
92059.8
92172.3
92494.7
92838.9
93118.6
93268.4
93274.4
93174.6
92987.8
92764.1
92546.3
92349.6
92178.4
92036.1
91924.7
91842.1
91782.4
91742
91707.1
91673.2
91636.8
91607
105493
105513
105539
105572
105610
105655
105705
105753
105799
105864
105949
105991
105880
105686
105534
105464
105555
105754
105922
106030
106133
106261
106399
106537
106668
106789
106900
106999
107087
107169
107241
107311
107378
107441
107493
99671.8
99675.4
99677.2
99677.5
99676.4
99673.6
99668.9
99662.6
99654.6
99645
99633.4
99619.9
99589.6
99531.6
99532.7
99531.8
99509.1
99470.9
99426.1
99363.3
99273.8
99164.9
99051.3
98944.6
98849.1
98766.1
98696
98638.6
98592
98554.2
98524.4
98497.4
98473
98450.8
98432.2
103292
103296
103301
103307
103316
103326
103339
103356
103376
103398
103425
103454
103483
103515
103517
103541
103560
103563
103565
103576
103599
103638
103686
103735
103784
103831
103875
103916
103953
103988
104016
104040
104062
104082
104099
101257
101258
101259
101259
101257
101254
101247
101237
101219
101188
101139
101057
100988
100943
100956
101001
101012
100999
100978
100967
100970
100970
100961
100944
100927
100912
100898
100886
100876
100866
100858
100852
100846
100840
100835
102695
102698
102699
102701
102705
102707
102710
102713
102715
102718
102714
102715
102716
102729
102763
102818
102854
102861
102850
102840
102824
102825
102831
102840
102846
102851
102855
102859
102863
102866
102868
102870
102872
102875
102877
101711
101712
101711
101708
101704
101699
101693
101685
101676
101665
101650
101632
101616
101607
101620
101632
101640
101642
101641
101633
101635
101638
101638
101630
101614
101600
101588
101585
101583
101582
101580
101579
101577
101575
101574
102387
102385
102384
102384
102385
102386
102390
102395
102404
102416
102424
102425
102420
102412
102404
102398
102398
102399
102399
102397
102392
102389
102394
102398
102393
102391
102395
102397
102403
102408
102410
102411
102412
102413
102414
101904
101902
101899
101897
101897
101898
101900
101903
101905
101906
101907
101908
101907
101908
101913
101917
101920
101917
101911
101903
101897
101893
101894
101898
101899
101894
101889
101887
101888
101889
101890
101892
101894
101895
101896
102261
102260
102259
102258
102256
102255
102254
102253
102253
102252
102252
102251
102250
102247
102246
102246
102245
102245
102246
102248
102250
102255
102262
102269
102271
102268
102265
102262
102259
102256
102254
102253
102252
102251
102251
102006
102006
102007
102007
102007
102007
102007
102007
102007
102007
102006
102005
102002
101997
101993
101990
101989
101989
101989
101989
101990
101992
101995
101995
101995
101994
101992
101989
101987
101985
101984
101982
101981
101981
101980
102191
102191
102192
102192
102193
102193
102193
102194
102194
102194
102195
102196
102198
102200
102202
102204
102206
102210
102212
102214
102215
102215
102213
102212
102211
102212
102212
102212
102213
102213
102214
102214
102215
102215
102216
102054
102054
102054
102054
102053
102053
102053
102052
102051
102049
102047
102044
102041
102038
102036
102035
102035
102035
102035
102036
102036
102035
102034
102033
102031
102029
102027
102026
102025
102024
102024
102023
102023
102022
102022
102159
102159
102159
102159
102159
102159
102160
102160
102161
102162
102163
102164
102166
102168
102169
102171
102171
102172
102172
102173
102173
102173
102173
102174
102175
102176
102176
102177
102178
102178
102178
102179
102179
102179
102180
102077
102077
102077
102077
102077
102077
102077
102077
102076
102075
102074
102073
102072
102071
102070
102069
102068
102068
102067
102067
102066
102065
102064
102063
102062
102061
102060
102059
102059
102058
102058
102057
102057
102056
102056
102140
102140
102140
102140
102140
102140
102140
102140
102141
102141
102141
102142
102143
102143
102144
102145
102145
102146
102146
102146
102147
102147
102148
102148
102149
102149
102150
102150
102150
102151
102151
102151
102151
102152
102152
102092
102092
102092
102092
102092
102092
102092
102092
102092
102092
102091
102091
102091
102090
102090
102089
102088
102088
102087
102087
102086
102085
102084
102084
102083
102082
102082
102081
102081
102080
102080
102080
102079
102079
102079
102128
102128
102128
102128
102128
102128
102128
102128
102128
102128
102128
102128
102129
102129
102129
102129
102130
102130
102130
102130
102131
102131
102131
102131
102132
102132
102132
102132
102133
102133
102133
102133
102133
102133
102133
102101
102101
102101
102101
102101
102101
102101
102101
102101
102101
102101
102101
102101
102101
102101
102100
102100
102099
102099
102098
102098
102097
102097
102096
102096
102095
102095
102095
102094
102094
102094
102094
102094
102093
102093
102121
102121
102121
102121
102121
102121
102121
102121
102121
102121
102120
102120
102120
102120
102120
102120
102121
102121
102121
102121
102121
102121
102121
102121
102121
102121
102121
102121
102121
102121
102121
102121
102121
102121
102122
102106
102106
102106
102106
102106
102106
102106
102106
102106
102106
102106
102106
102106
102106
102106
102106
102106
102105
102105
102105
102104
102104
102104
102103
102103
102103
102102
102102
102102
102102
102102
102102
102101
102101
102101
102116
102116
102116
102116
102116
102116
102116
102116
102116
102116
102116
102116
102116
102116
102115
102115
102115
102115
102115
102115
102115
102115
102115
102115
102115
102115
102115
102115
102115
102115
102115
102115
102115
102115
102115
102109
102109
102109
102109
102109
102109
102109
102109
102109
102109
102109
102109
102109
102109
102109
102109
102108
102108
102108
102108
102108
102107
102107
102107
102107
102106
102106
102106
102106
102106
102106
102106
102105
102105
102105
102113
102114
102114
102114
102113
102113
102113
102113
102113
102113
102113
102113
102113
102113
102113
102112
102112
102112
102112
102112
102112
102112
102112
102112
102112
102111
102111
102111
102111
102111
102111
102111
102111
102111
102111
102110
102110
102110
102110
102110
102110
102110
102110
102110
102110
102110
102110
102110
102110
102110
102109
102109
102109
102109
102109
102109
102108
102108
102108
102108
102108
102108
102107
102107
102107
102107
102107
102107
102107
102107
102112
102112
102112
102112
102112
102112
102112
102112
102112
102112
102111
102111
102111
102111
102111
102111
102111
102111
102110
102110
102110
102110
102110
102110
102110
102110
102109
102109
102109
102109
102109
102109
102109
102109
102109
102110
102110
102110
102110
102110
102110
102110
102110
102110
102110
102110
102110
102110
102110
102110
102109
102109
102109
102109
102109
102109
102108
102108
102108
102108
102108
102108
102108
102108
102108
102108
102108
102107
102107
102107
127369
127450
127560
127674
127792
127915
128042
128175
128315
128462
128616
128778
128946
129113
129275
129434
129589
129739
129884
130027
130169
130284
81076.6
80970.5
80822.1
80664
80499.6
80329.6
80159.9
79996.6
79837.6
79679.5
79514.2
79357.3
79212.8
79085
78969
78863.9
78769.9
78683.8
78603.9
78527.5
78454.2
78410
115298
115308
115335
115366
115399
115436
115479
115527
115586
115669
115790
115936
116089
116252
116410
116563
116712
116854
116984
117100
117196
117264
91633.4
91626.1
91601.1
91570.7
91550.5
91547.7
91550.5
91557.1
91573.6
91595.7
91624.8
91664.5
91723.5
91783.8
91846.9
91917.6
91997.2
92080.3
92160.2
92233.3
92301.8
92383.3
107511
107532
107553
107569
107580
107583
107573
107546
107507
107465
107412
107353
107297
107244
107192
107142
107091
107040
106992
106944
106894
106833
98432.1
98442.4
98448.2
98453.3
98459.5
98468.2
98480.1
98496.1
98517.6
98542.9
98572.4
98605.8
98640.1
98674.6
98709.4
98745.8
98784.1
98821
98854.6
98886.5
98919.4
98957.7
104092
104084
104076
104065
104051
104035
104015
103993
103969
103942
103916
103889
103860
103830
103800
103771
103743
103715
103687
103659
103630
103597
100834
100847
100855
100864
100873
100885
100897
100912
100928
100947
100968
100989
101010
101031
101051
101069
101086
101102
101118
101134
101149
101165
102868
102857
102845
102831
102817
102801
102786
102770
102754
102738
102721
102703
102686
102670
102656
102641
102626
102612
102597
102584
102570
102555
101579
101588
101596
101607
101617
101629
101641
101654
101667
101682
101695
101709
101722
101735
101746
101757
101767
101777
101785
101792
101797
101803
102409
102400
102392
102382
102372
102362
102352
102342
102332
102322
102314
102306
102299
102293
102288
102284
102281
102279
102276
102275
102273
102270
101899
101904
101907
101910
101912
101914
101916
101918
101920
101922
101924
101926
101927
101929
101931
101932
101933
101934
101935
101936
101937
101938
102250
102248
102246
102244
102243
102242
102240
102239
102238
102236
102234
102233
102231
102230
102228
102226
102225
102224
102222
102221
102220
102218
101980
101979
101979
101979
101979
101979
101979
101979
101979
101980
101981
101981
101982
101983
101984
101984
101985
101986
101987
101989
101990
101991
102216
102215
102215
102214
102213
102212
102210
102209
102207
102205
102204
102202
102200
102198
102195
102193
102191
102189
102187
102184
102182
102180
102022
102022
102023
102023
102023
102023
102024
102024
102024
102025
102026
102026
102027
102028
102029
102030
102031
102033
102034
102035
102036
102037
102179
102178
102178
102177
102176
102175
102174
102173
102172
102171
102169
102168
102166
102165
102163
102162
102160
102159
102157
102156
102154
102153
102056
102057
102057
102058
102058
102059
102059
102060
102061
102061
102062
102063
102063
102064
102065
102065
102066
102067
102067
102068
102068
102069
102151
102151
102150
102149
102148
102148
102147
102146
102145
102144
102143
102142
102141
102140
102139
102138
102137
102136
102135
102134
102133
102132
102079
102080
102080
102081
102082
102082
102083
102083
102084
102084
102085
102085
102086
102087
102087
102088
102088
102088
102089
102089
102090
102090
102133
102132
102131
102131
102130
102129
102129
102128
102127
102127
102126
102125
102125
102124
102124
102123
102122
102122
102121
102121
102120
102119
102094
102094
102095
102095
102096
102096
102096
102097
102097
102098
102098
102098
102099
102099
102099
102100
102100
102100
102101
102101
102101
102101
102121
102121
102120
102120
102119
102119
102118
102118
102117
102117
102116
102116
102116
102115
102115
102115
102114
102114
102114
102114
102113
102113
102102
102102
102102
102103
102103
102103
102104
102104
102104
102104
102105
102105
102105
102105
102105
102105
102106
102106
102106
102106
102106
102106
102114
102114
102114
102113
102113
102113
102112
102112
102112
102112
102112
102111
102111
102111
102111
102111
102111
102111
102110
102110
102110
102110
102106
102106
102106
102106
102106
102107
102107
102107
102107
102107
102107
102107
102107
102107
102107
102108
102108
102108
102108
102108
102108
102108
102111
102111
102110
102110
102110
102110
102110
102110
102110
102109
102109
102109
102109
102109
102109
102109
102109
102109
102109
102109
102109
102109
102107
102107
102107
102108
102108
102108
102108
102108
102108
102108
102108
102108
102108
102108
102108
102108
102108
102108
102108
102108
102108
102108
102109
102109
102109
102109
102109
102109
102109
102108
102108
102108
102108
102108
102108
102108
102108
102108
102108
102108
102108
102108
102108
102108
102108
102108
102108
102108
102108
102108
102108
102108
102108
102108
102108
102108
102108
102108
102108
102108
102108
102108
102108
102108
102108
102108
130329
130338
130331
130331
130338
130330
78410.1
78405.9
78407
78407
78405.9
78410.7
117277
117325
117347
117348
117329
117284
92454.4
92471.9
92477.3
92477.8
92473.4
92457.6
106789
106781
106777
106777
106781
106789
98989.1
98993.5
98994.8
98994.7
98993.2
98988.7
103579
103578
103578
103578
103578
103579
101177
101176
101175
101175
101176
101177
102548
102547
102546
102545
102545
102544
101804
101803
101802
101802
101801
101802
102270
102271
102271
102270
102269
102268
101939
101939
101939
101939
101939
101939
102217
102217
102216
102216
102216
102216
101992
101993
101993
101994
101994
101994
102178
102178
102178
102177
102177
102177
102037
102038
102038
102038
102038
102038
102152
102152
102152
102152
102152
102152
102069
102069
102069
102069
102069
102069
102132
102132
102132
102132
102132
102132
102090
102090
102090
102090
102090
102090
102119
102120
102120
102120
102120
102119
102101
102101
102101
102101
102101
102101
102113
102113
102113
102113
102113
102113
102106
102106
102106
102106
102106
102106
102110
102110
102110
102110
102110
102110
102108
102108
102108
102108
102108
102108
102109
102109
102109
102109
102109
102109
102108
102108
102108
102108
102108
102108
102108
102108
102108
102108
102108
102108
102108
102108
102108
102108
102108
102108
130283
130167
130024
129881
129736
129586
129432
129274
129113
128948
128781
128617
128461
128313
128173
128040
127913
127791
127674
127561
127452
127373
78413
78457.9
78531.2
78607.3
78686.6
78771.9
78864.7
78967.7
79081.1
79206
79347.5
79506.3
79673.6
79832.4
79991.4
80154.2
80322.9
80491.5
80653.9
80809.5
80955
81058.8
117271
117206
117110
116997
116869
116729
116581
116431
116275
116114
115961
115812
115687
115603
115543
115494
115451
115414
115381
115351
115324
115314
92389
92307.4
92238
92163.7
92082.5
91998
91916.6
91844.4
91780.3
91719.7
91661.9
91622.6
91591.6
91568.8
91552.1
91543.6
91538.7
91539.7
91557.8
91587.8
91613.6
91621.2
106832
106893
106945
106994
107043
107095
107146
107198
107249
107302
107358
107416
107470
107514
107554
107583
107594
107592
107582
107567
107547
107526
98957.6
98918.5
98884.6
98851.7
98817.2
98779.6
98740.6
98703.6
98668.7
98634.6
98600.8
98567.8
98537.1
98510.4
98487.8
98471
98458.6
98449.4
98442.9
98437.5
98431.4
98420.8
103597
103631
103662
103690
103719
103748
103776
103805
103835
103866
103896
103923
103950
103976
104002
104025
104045
104062
104077
104088
104096
104105
101165
101149
101133
101117
101100
101083
101065
101047
101027
101006
100985
100963
100942
100922
100903
100888
100874
100861
100850
100841
100832
100820
102551
102566
102580
102594
102609
102625
102641
102658
102674
102691
102708
102726
102744
102760
102775
102789
102803
102817
102831
102844
102856
102868
101800
101794
101788
101782
101776
101770
101763
101755
101745
101734
101720
101704
101687
101671
101655
101642
101630
101619
101609
101599
101590
101581
102267
102269
102270
102272
102274
102276
102279
102284
102289
102295
102301
102307
102315
102324
102335
102345
102355
102366
102376
102386
102395
102404
101937
101936
101935
101933
101932
101931
101931
101931
101930
101929
101927
101925
101923
101922
101920
101918
101916
101914
101912
101910
101908
101904
102217
102219
102221
102223
102225
102227
102228
102230
102231
102232
102233
102234
102235
102235
102236
102238
102238
102239
102241
102242
102244
102246
101993
101991
101990
101988
101987
101986
101985
101984
101982
101981
101980
101979
101979
101978
101978
101978
101978
101978
101978
101979
101979
101980
102178
102180
102183
102185
102187
102189
102192
102194
102196
102199
102202
102204
102206
102208
102209
102211
102212
102214
102215
102215
102216
102216
102038
102037
102036
102035
102034
102033
102032
102031
102030
102029
102028
102028
102027
102026
102025
102025
102024
102024
102023
102023
102022
102022
102152
102154
102155
102156
102158
102159
102161
102162
102164
102165
102167
102168
102170
102171
102172
102174
102175
102176
102176
102177
102178
102179
102069
102069
102068
102068
102067
102066
102066
102065
102065
102064
102063
102063
102062
102062
102061
102060
102060
102059
102058
102058
102057
102056
102132
102133
102134
102135
102136
102137
102138
102139
102139
102140
102141
102142
102143
102144
102145
102146
102147
102147
102148
102149
102150
102151
102090
102090
102090
102089
102089
102088
102088
102087
102087
102086
102086
102085
102085
102084
102083
102083
102082
102082
102081
102080
102080
102079
102119
102120
102121
102121
102122
102122
102123
102123
102124
102124
102125
102126
102126
102127
102127
102128
102129
102129
102130
102130
102131
102132
102101
102101
102101
102101
102100
102100
102100
102099
102099
102099
102098
102098
102097
102097
102097
102096
102096
102095
102095
102094
102094
102093
102113
102113
102113
102114
102114
102114
102114
102115
102115
102115
102116
102116
102116
102117
102117
102117
102118
102118
102119
102119
102120
102120
102106
102106
102106
102106
102105
102105
102105
102105
102105
102105
102104
102104
102104
102104
102103
102103
102103
102102
102102
102102
102101
102101
102110
102110
102110
102110
102110
102110
102110
102111
102111
102111
102111
102111
102111
102111
102111
102112
102112
102112
102112
102113
102113
102113
102108
102108
102108
102107
102107
102107
102107
102107
102107
102107
102107
102107
102106
102106
102106
102106
102106
102106
102105
102105
102105
102105
102109
102109
102109
102109
102109
102109
102109
102109
102109
102109
102109
102109
102109
102109
102109
102109
102109
102109
102109
102109
102110
102110
102108
102108
102108
102108
102108
102108
102108
102108
102107
102107
102107
102107
102107
102107
102107
102107
102107
102107
102107
102107
102106
102106
102108
102108
102108
102108
102108
102108
102108
102108
102108
102108
102108
102108
102108
102108
102108
102108
102108
102108
102108
102108
102108
102108
102108
102108
102108
102108
102108
102108
102108
102107
102107
102107
102107
102107
102107
102107
102107
102107
102107
102107
102107
102107
102107
102107
127357
127336
127320
127304
127287
127268
127247
127223
127195
127167
127143
127126
127100
127071
127062
127090
127123
127158
127194
127229
127273
127331
127430
127568
127715
127840
127931
127975
127987
127993
127993
127988
127979
127969
127968
81083.1
81133.4
81192.6
81257.9
81331.5
81412.2
81502.2
81602.5
81714.1
81838.5
81978
82140.2
82329.7
82506.5
82650.1
82729
82750.4
82729
82672.6
82600.2
82502.4
82349.8
82084.2
81679.8
81251.6
80989.1
80919.8
81007.5
81175.3
81368.9
81575.6
81794.4
82023
82226
82349.9
115309
115282
115254
115225
115193
115158
115112
115053
114981
114897
114804
114704
114597
114472
114332
114198
114069
113943
113819
113741
113689
113635
113672
113668
113649
113711
113877
114150
114457
114742
114973
115133
115219
115251
115263
91595.9
91625.6
91661.8
91696.3
91731.2
91770.7
91829.3
91911
92021.5
92163.5
92335
92532.6
92752.1
92978.8
93170.2
93275.8
93276.6
93133.8
92859.3
92517
92192.6
92074.4
92166.6
92293.8
92318
92293.8
92313
92313.9
92326.8
92344.1
92340.1
92320.9
92292.6
92260.9
92236.6
107508
107455
107393
107326
107256
107183
107101
107012
106913
106802
106680
106548
106410
106271
106143
106040
105933
105769
105570
105474
105541
105693
105883
105996
105954
105869
105804
105758
105711
105661
105617
105579
105546
105520
105501
98421.4
98439.9
98461.7
98486
98513.2
98542.9
98580.5
98626.9
98684
98753.9
98837
98932.8
99040.5
99155.8
99266.6
99358.1
99423.3
99469.3
99509.2
99534.4
99537.6
99534.3
99592.3
99622.1
99635.2
99646.2
99655.2
99662.7
99668.7
99673.1
99675.9
99676.8
99676.5
99674.7
99671.1
104113
104096
104076
104055
104032
104005
103971
103933
103892
103846
103797
103746
103694
103645
103604
103581
103570
103569
103567
103549
103524
103522
103492
103463
103434
103408
103386
103366
103349
103336
103325
103317
103311
103305
103302
100821
100827
100834
100840
100847
100854
100865
100876
100889
100904
100921
100940
100957
100966
100963
100961
100971
100992
101006
100997
100952
100938
100981
101049
101131
101182
101214
101232
101242
101249
101252
101254
101254
101253
101252
102877
102874
102872
102869
102865
102863
102859
102856
102853
102850
102845
102838
102828
102821
102821
102836
102848
102859
102853
102818
102763
102727
102715
102713
102713
102716
102714
102712
102709
102707
102704
102701
102699
102698
102695
101576
101577
101579
101582
101585
101587
101589
101591
101593
101602
101616
101632
101640
101640
101638
101635
101642
101642
101640
101632
101620
101605
101613
101628
101646
101661
101672
101681
101689
101695
101699
101703
101706
101707
101707
102410
102410
102409
102409
102409
102408
102403
102398
102394
102390
102390
102394
102393
102387
102388
102394
102397
102397
102396
102396
102402
102410
102418
102424
102422
102415
102403
102394
102388
102385
102383
102383
102383
102384
102386
101901
101900
101898
101896
101894
101892
101890
101889
101889
101893
101900
101900
101896
101895
101897
101903
101910
101916
101919
101916
101912
101906
101905
101906
101905
101904
101903
101900
101898
101896
101895
101895
101897
101899
101902
102247
102247
102248
102249
102250
102252
102254
102258
102261
102265
102268
102269
102262
102255
102251
102248
102247
102246
102245
102246
102245
102247
102249
102251
102251
102252
102253
102253
102253
102254
102256
102257
102259
102260
102260
101980
101981
101981
101982
101983
101985
101987
101989
101992
101994
101996
101996
101996
101993
101990
101989
101988
101988
101988
101988
101992
101995
102000
102003
102004
102005
102005
102005
102006
102005
102005
102005
102005
102005
102004
102216
102216
102215
102215
102214
102214
102213
102213
102212
102212
102212
102212
102213
102215
102215
102214
102212
102210
102206
102204
102202
102200
102197
102196
102194
102194
102193
102193
102193
102193
102192
102192
102191
102191
102191
102022
102022
102022
102023
102023
102024
102024
102025
102026
102028
102030
102032
102034
102035
102035
102035
102035
102035
102034
102034
102035
102037
102040
102043
102046
102048
102049
102050
102051
102052
102052
102052
102052
102052
102052
102179
102179
102179
102179
102178
102178
102178
102177
102176
102176
102175
102174
102173
102173
102172
102172
102172
102172
102171
102170
102169
102167
102165
102164
102162
102161
102160
102160
102159
102159
102159
102159
102159
102159
102159
102056
102056
102057
102057
102057
102058
102058
102059
102060
102060
102061
102062
102063
102064
102065
102066
102067
102067
102068
102068
102069
102070
102071
102072
102073
102074
102075
102075
102076
102076
102076
102076
102076
102076
102076
102151
102151
102151
102150
102150
102150
102150
102149
102149
102149
102148
102148
102147
102147
102146
102146
102145
102145
102144
102144
102143
102142
102142
102141
102140
102140
102140
102139
102139
102139
102139
102139
102139
102139
102139
102079
102079
102079
102079
102080
102080
102080
102081
102081
102082
102082
102083
102083
102084
102085
102086
102086
102087
102087
102088
102089
102089
102090
102090
102090
102091
102091
102091
102091
102091
102091
102091
102091
102091
102091
102132
102132
102132
102132
102132
102132
102132
102131
102131
102131
102131
102131
102130
102130
102130
102129
102129
102129
102129
102128
102128
102128
102127
102127
102127
102127
102127
102127
102127
102127
102127
102127
102127
102127
102127
102092
102093
102093
102093
102093
102093
102094
102094
102094
102094
102095
102095
102096
102096
102097
102097
102098
102098
102099
102099
102099
102100
102100
102100
102100
102100
102100
102100
102100
102100
102100
102100
102100
102100
102100
102120
102120
102120
102120
102120
102120
102120
102120
102120
102120
102120
102120
102120
102120
102120
102120
102119
102119
102119
102119
102119
102119
102119
102119
102119
102119
102119
102119
102119
102119
102119
102119
102119
102119
102119
102100
102101
102101
102101
102101
102101
102101
102101
102101
102102
102102
102102
102102
102103
102103
102104
102104
102104
102104
102105
102105
102105
102105
102105
102105
102105
102105
102105
102105
102105
102105
102105
102105
102105
102105
102114
102114
102114
102114
102114
102114
102114
102114
102114
102114
102114
102114
102114
102114
102114
102114
102114
102114
102114
102114
102114
102114
102114
102114
102115
102115
102115
102115
102115
102115
102115
102115
102115
102115
102115
102104
102104
102104
102105
102105
102105
102105
102105
102105
102105
102105
102106
102106
102106
102106
102106
102107
102107
102107
102107
102107
102107
102108
102108
102108
102107
102107
102107
102107
102107
102107
102107
102107
102107
102107
102110
102110
102110
102110
102110
102110
102110
102110
102110
102110
102110
102110
102110
102110
102111
102111
102111
102111
102111
102111
102111
102111
102111
102112
102112
102112
102112
102112
102112
102112
102112
102112
102112
102112
102112
102106
102106
102106
102106
102106
102106
102106
102106
102106
102107
102107
102107
102107
102107
102107
102107
102108
102108
102108
102108
102108
102108
102108
102108
102108
102108
102108
102108
102108
102108
102108
102108
102108
102108
102108
102108
102108
102108
102108
102108
102108
102108
102108
102108
102108
102108
102108
102109
102109
102109
102109
102109
102109
102109
102109
102110
102110
102110
102110
102110
102110
102110
102110
102110
102110
102110
102110
102110
102110
102110
102106
102107
102107
102107
102107
102107
102107
102107
102107
102107
102107
102107
102107
102107
102107
102108
102108
102108
102108
102108
102108
102108
102108
102108
102108
102108
102108
102108
102108
102108
102108
102108
102108
102108
102108
102111
102111
102111
102111
102111
102111
102111
102111
102111
102110
102110
102110
102110
102110
102110
102110
102110
102109
102109
102109
102109
102109
102109
102109
102109
102108
102108
102108
102108
102108
102108
102108
102108
102108
102108
102109
102109
102109
102109
102109
102109
102109
102109
102109
102109
102109
102109
102109
102109
102109
102109
102109
102109
102108
102108
102108
102108
102108
102108
102108
102108
102107
102107
102107
102107
102107
102107
102107
102107
102107
102110
102110
102110
102110
102110
102110
102110
102110
102110
102109
102109
102109
102109
102109
102109
102109
102109
102108
102108
102108
102108
102108
102108
102108
102108
102108
102107
102107
102107
102107
102107
102107
102107
102107
102107
102109
102109
102109
102109
102109
102109
102109
102109
102109
102109
102109
102109
102109
102109
102108
102108
102108
102108
102108
102108
102108
102107
102107
102107
102107
102107
102107
102107
102107
102107
102107
102107
102107
102107
102107
102109
102109
102109
102109
102109
102109
102109
102109
102109
102109
102109
102109
102108
102108
102108
102108
102108
102108
102108
102107
102107
102107
102107
102107
102107
102107
102107
102107
102107
102107
102107
102107
102107
102107
102107
102108
102108
102108
102108
102108
102108
102108
102108
102108
102108
102108
102108
102108
102108
102108
102108
102108
102107
102107
102107
102107
102107
102107
102107
102107
102107
102106
102106
102106
102106
102106
102106
102106
102106
102106
102108
102108
102108
102108
102108
102108
102108
102108
102108
102108
102108
102108
102108
102108
102108
102107
102107
102107
102107
102107
102107
102107
102106
102106
102106
102106
102106
102106
102106
102106
102106
102106
102106
102106
102106
102108
102108
102108
102108
102108
102108
102108
102108
102108
102108
102108
102108
102108
102108
102107
102107
102107
102107
102107
102106
102106
102106
102106
102106
102106
102106
102106
102106
102106
102106
102106
102106
102106
102106
102106
102108
102108
102108
102108
102108
102108
102108
102108
102108
102108
102108
102108
102107
102107
102107
102107
102107
102107
102106
102106
102106
102106
102106
102106
102106
102106
102106
102106
102106
102106
102106
102106
102106
102106
102106
102108
102108
102108
102108
102108
102108
102108
102108
102108
102107
102107
102107
102107
102107
102107
102107
102107
102106
102106
102106
102106
102106
102106
102105
102105
102105
102105
102105
102105
102105
102105
102105
102105
102106
102105
102107
102107
102107
102107
102107
102107
102107
102107
102107
102107
102107
102107
102107
102107
102107
102106
102106
102106
102106
102106
102106
102105
102105
102105
102105
102105
102105
102105
102105
102105
102105
102105
102105
102105
102105
102107
102107
102107
102107
102107
102107
102107
102107
102107
102107
102107
102107
102107
102107
102106
102106
102106
102106
102106
102105
102105
102105
102105
102105
102105
102105
102105
102105
102105
102105
102105
102105
102105
102105
102105
102107
102107
102107
102107
102107
102107
102107
102107
102107
102107
102107
102107
102107
102107
102106
102106
102106
102106
102105
102105
102105
102105
102105
102105
102105
102104
102104
102104
102104
102104
102104
102105
102105
102105
102105
102107
102107
102107
102107
102107
102107
102107
102107
102107
102107
102107
102107
102107
102106
102106
102106
102106
102105
102105
102105
102105
102105
102104
102104
102104
102104
102104
102104
102104
102104
102104
102104
102104
102104
102104
102107
102107
102107
102107
102107
102107
102107
102107
102107
102107
102107
102107
102106
102106
102106
102106
102106
102105
102105
102105
102105
102104
102104
102104
102104
102104
102104
102104
102104
102104
102104
102104
102104
102104
102104
102107
102107
102107
102107
102107
102107
102107
102107
102107
102107
102107
102106
102106
102106
102106
102106
102105
102105
102105
102105
102104