/*--------------------------------*- C++ -*----------------------------------*\
  =========                 |
  \\      /  F ield         | OpenFOAM: The Open Source CFD Toolbox
   \\    /   O peration     | Website:  https://openfoam.org
    \\  /    A nd           | Version:  8
     \\/     M anipulation  |
\*---------------------------------------------------------------------------*/
FoamFile
{
    version     2.0;
    format      ascii;
    class       surfaceScalarField;
    location    "0.01";
    object      phi;
}
// * * * * * * * * * * * * * * * * * * * * * * * * * * * * * * * * * * * * * //

dimensions      [1 0 -1 0 0 0 0];

internalField   nonuniform List<scalar> 
31053
(
-9.69007e-06
5.91303e-06
-1.15233e-05
6.07131e-08
-8.06856e-06
-2.99585e-06
-7.74442e-07
-5.26121e-06
9.26567e-06
-7.24784e-06
2.15237e-05
-9.36514e-06
3.57122e-05
-1.18239e-05
5.17484e-05
-1.48528e-05
7.08496e-05
-1.96508e-05
0.000101909
-3.39395e-05
0.000148153
-5.18401e-05
0.000198143
-5.85878e-05
0.000234314
-4.81432e-05
0.000242966
-2.40389e-05
0.000232869
-3.05484e-06
0.000216508
4.23336e-06
0.000200436
4.78835e-06
0.000186509
3.47306e-06
0.000174901
1.91436e-06
0.000164363
1.50302e-06
0.000154113
2.07412e-06
0.000148917
3.84794e-07
0.000152065
-4.24833e-06
0.000166955
-1.28609e-05
0.000186232
-1.41715e-05
0.00020676
-1.27598e-05
0.000227338
-1.05645e-05
0.000247597
-8.41388e-06
0.000267496
-6.62897e-06
0.000287095
-5.30209e-06
0.000306468
-4.42328e-06
0.000325661
-3.93576e-06
0.00034471
-3.79051e-06
0.000363634
-3.92347e-06
-3.50548e-06
0.000380946
-0.00013997
0.000145874
-0.000307051
0.000167123
-0.000491371
0.00018129
-0.000687292
0.000190614
-0.000888323
0.000193722
-0.00108555
0.000187783
-0.00126599
0.000168519
-0.00141101
0.000130049
-0.00149436
6.35479e-05
-0.00149323
-3.52569e-05
-0.00141047
-0.000134806
-0.00125763
-0.000211661
-0.00106613
-0.000239835
-0.000870048
-0.000220234
-0.00071281
-0.000160346
-0.000566619
-0.000141969
-0.000420883
-0.000140932
-0.000270069
-0.000147316
-0.000112624
-0.000155499
5.07672e-05
-0.000161862
0.000215306
-0.000162452
0.000356303
-0.000140616
0.000468719
-0.000116674
0.000552169
-9.63299e-05
0.000617579
-7.9618e-05
0.000670821
-6.60542e-05
0.000715184
-5.49951e-05
0.000752606
-4.59148e-05
0.000784298
-3.84089e-05
0.000811075
-3.2172e-05
0.000833533
-2.69772e-05
0.000851726
-2.22208e-05
0.000866018
-1.81718e-05
0.000876982
-1.49707e-05
-1.30502e-05
0.00088645
-9.8213e-06
0.000155626
-7.7508e-06
0.000164974
-9.4128e-07
0.000174391
5.78574e-06
0.000183786
8.89181e-06
0.000190496
5.11272e-06
0.000191416
-9.37092e-06
0.000182822
-4.10397e-05
0.000161491
-0.000102458
0.000124676
-0.000206291
6.82079e-05
-0.000372483
3.09271e-05
-0.000589416
4.68036e-06
-0.000807887
-2.19766e-05
-0.000962201
-6.65239e-05
-0.000993207
-0.000129857
-0.000943496
-0.000192132
-0.000842001
-0.00024284
-0.000720274
-0.000269437
-0.000600605
-0.000275539
-0.000494921
-0.000267907
-0.000406201
-0.000251529
-0.000336146
-0.000211002
-0.000281007
-0.000172124
-0.000238154
-0.000139478
-0.000205798
-0.00011225
-0.000182228
-8.98809e-05
-0.000165677
-7.17833e-05
-0.000154507
-5.73067e-05
-0.000147176
-4.59449e-05
-0.000142325
-3.72105e-05
-0.000139248
-3.02234e-05
-0.000136556
-2.50719e-05
-0.00013358
-2.12946e-05
-0.000130261
-1.8423e-05
-1.57458e-05
-0.000127689
7.58003e-05
7.98861e-05
0.000146062
9.47771e-05
0.000214394
0.000106132
0.000282345
0.000115918
0.00034881
0.000124128
0.000409819
0.000130523
0.000457598
0.00013518
0.000478882
0.000140368
0.000451967
0.000151791
0.000344928
0.000175494
0.000167429
0.000208736
-6.07332e-05
0.000233227
-0.000289104
0.000206888
-0.000448782
9.37454e-05
-0.000500576
-7.74848e-05
-0.000470087
-0.00022205
-0.000394908
-0.000317444
-0.000297314
-0.000366459
-0.000197305
-0.000374982
-0.000105826
-0.000358822
-2.28912e-05
-0.000333899
4.33572e-05
-0.000276731
9.28942e-05
-0.000221188
0.000126767
-0.000172915
0.000146202
-0.000131288
0.00015279
-9.61111e-05
0.000148592
-6.72629e-05
0.000135832
-4.42559e-05
0.000116691
-2.65441e-05
9.3127e-05
-1.34165e-05
6.75217e-05
-4.41604e-06
4.00013e-05
2.62948e-06
1.11307e-05
7.73887e-06
-1.81398e-05
1.09921e-05
1.25699e-05
-4.63268e-05
1.57517e-05
6.40888e-05
3.67563e-05
7.37243e-05
6.22884e-05
8.05487e-05
9.04702e-05
8.76802e-05
0.000119733
9.48053e-05
0.000148489
0.000101702
0.000175186
0.000108414
0.000200227
0.000115258
0.000228541
0.000123408
0.000269449
0.000134512
0.000332302
0.000145803
0.000418085
0.000147378
0.000502629
0.000122272
0.000554393
4.19221e-05
0.000525055
-4.82551e-05
0.00041132
-0.000108419
0.000248669
-0.000154878
6.44211e-05
-0.000182314
-0.000122084
-0.000188613
-0.000295168
-0.000185882
-0.000446674
-0.000182538
-0.000561873
-0.000161675
-0.000645591
-0.000137626
-0.000704995
-0.000113667
-0.000745389
-9.10456e-05
-0.000770656
-7.09911e-05
-0.000783849
-5.42076e-05
-0.000787436
-4.07974e-05
-0.000783814
-3.02836e-05
-0.000775192
-2.21464e-05
-0.000763751
-1.59559e-05
-0.000749995
-1.1217e-05
-0.000734699
-7.64179e-06
-0.000718874
-4.90985e-06
-2.68151e-06
-0.000703694
2.63859e-05
3.77573e-05
5.15917e-05
4.85783e-05
7.59518e-05
5.62557e-05
0.000100368
6.33396e-05
0.000125197
7.00633e-05
0.000150622
7.63759e-05
0.000177095
8.2057e-05
0.000205701
8.67856e-05
0.000239464
8.97978e-05
0.000284765
8.93867e-05
0.000347962
8.28082e-05
0.000429186
6.63834e-05
0.000512358
3.93595e-05
0.000548283
6.28116e-06
0.000541452
-4.11673e-05
0.000515062
-8.18233e-05
0.000468801
-0.000108442
0.000405198
-0.000118535
0.000337004
-0.000120223
0.000273707
-0.000122381
0.000216679
-0.000125275
0.000168277
-0.000113012
0.000126544
-9.56215e-05
8.98882e-05
-7.67458e-05
5.72374e-05
-5.81406e-05
2.78019e-05
-4.1317e-05
8.55828e-07
-2.70412e-05
-2.42222e-05
-1.55177e-05
-4.77762e-05
-6.54643e-06
-6.98933e-05
1.36336e-07
-8.97777e-05
4.07745e-06
-0.000107812
6.95126e-06
-0.000124124
8.79135e-06
-0.000138715
9.78704e-06
9.9787e-06
-0.00015128
3.01905e-06
3.47513e-05
9.20939e-06
4.24031e-05
1.71732e-05
4.83099e-05
2.63618e-05
5.41715e-05
3.63954e-05
6.00538e-05
4.70547e-05
6.57442e-05
5.83046e-05
7.08379e-05
7.04973e-05
7.46258e-05
8.43784e-05
7.59484e-05
0.000100897
7.28969e-05
0.000120738
6.29885e-05
0.000141315
4.58147e-05
0.00016115
1.95196e-05
0.000176738
-9.32454e-06
0.000156202
-2.05854e-05
0.000102047
-2.75152e-05
2.51141e-05
-3.13808e-05
-5.76041e-05
-3.57325e-05
-0.00013417
-4.35771e-05
-0.000200874
-5.55836e-05
-0.00025756
-6.84852e-05
-0.000301501
-6.89741e-05
-0.000335239
-6.18095e-05
-0.000360308
-5.1618e-05
-0.000377444
-4.09572e-05
-0.000387575
-3.11493e-05
-0.000391874
-2.2712e-05
-0.000391601
-1.57672e-05
-0.000387866
-1.02642e-05
-0.00038158
-6.13655e-06
-0.000374286
-3.20489e-06
-0.000366397
-9.29851e-07
-0.000358117
5.17556e-07
-0.000349707
1.38162e-06
1.99188e-06
-0.000341715
1.3303e-05
2.14677e-05
2.79738e-05
2.77531e-05
4.46788e-05
3.16266e-05
6.41773e-05
3.46962e-05
8.76224e-05
3.66304e-05
0.000116854
3.6533e-05
0.000154502
3.32029e-05
0.000203695
2.54385e-05
0.00026695
1.26776e-05
0.000342066
-2.27679e-06
0.000423486
-1.85129e-05
0.00049484
-2.5634e-05
0.000532511
-1.82404e-05
0.000507583
1.55784e-05
0.000432574
5.44796e-05
0.000328115
7.70692e-05
0.000221612
7.53018e-05
0.000133119
5.28938e-05
6.91851e-05
2.04427e-05
2.79973e-05
-1.43296e-05
3.54866e-06
-4.39955e-05
-1.26131e-05
-5.27838e-05
-2.47568e-05
-4.96432e-05
-3.46183e-05
-4.17295e-05
-4.29181e-05
-3.26239e-05
-4.98942e-05
-2.41341e-05
-5.58149e-05
-1.67478e-05
-6.10345e-05
-1.05018e-05
-6.59135e-05
-5.33937e-06
-7.08384e-05
-1.16669e-06
-7.54369e-05
1.4368e-06
-7.92792e-05
2.95327e-06
-8.27968e-05
4.07307e-06
-8.61287e-05
4.74829e-06
4.96494e-06
-8.90693e-05
1.0731e-05
1.07381e-05
2.23761e-05
1.61101e-05
3.39413e-05
2.00644e-05
4.54862e-05
2.31573e-05
5.69543e-05
2.51719e-05
6.77908e-05
2.57131e-05
7.69089e-05
2.41141e-05
8.24383e-05
1.99648e-05
8.25385e-05
1.26689e-05
7.89195e-05
1.4596e-06
6.64684e-05
-5.97951e-06
5.06872e-05
-9.8228e-06
4.08631e-05
-8.4166e-06
4.63062e-05
1.00897e-05
6.03024e-05
4.05615e-05
7.87487e-05
5.8743e-05
9.41398e-05
6.00375e-05
9.98692e-05
4.72454e-05
9.41145e-05
2.62458e-05
7.63506e-05
3.45351e-06
4.40741e-05
-1.17024e-05
1.49298e-05
-2.36285e-05
-4.19086e-06
-3.05165e-05
-1.52375e-05
-3.06812e-05
-2.25054e-05
-2.53548e-05
-2.89515e-05
-1.76868e-05
-3.5095e-05
-1.06043e-05
-3.99555e-05
-5.64181e-06
-4.28227e-05
-2.47266e-06
-4.40657e-05
7.60452e-08
-4.4336e-05
1.70601e-06
-4.43829e-05
2.99847e-06
-4.38589e-05
3.54751e-06
-4.27845e-05
3.6724e-06
3.65184e-06
-4.14728e-05
2.03076e-05
-9.55835e-06
4.27884e-05
-6.35513e-06
6.56569e-05
-2.78172e-06
8.77051e-05
1.13749e-06
0.000107985
4.93013e-06
0.000123883
9.86736e-06
0.000132271
1.5789e-05
0.000129617
2.26797e-05
0.000112353
2.998e-05
7.84724e-05
3.53638e-05
3.68698e-05
3.56242e-05
-4.74045e-06
3.17803e-05
-4.04429e-05
2.72675e-05
-5.57978e-05
2.54699e-05
-3.98032e-05
2.45974e-05
-8.2335e-06
2.72125e-05
2.4698e-05
2.71283e-05
4.85731e-05
2.33839e-05
5.77765e-05
1.7043e-05
5.31417e-05
8.07799e-06
5.02871e-05
-8.86327e-06
5.52144e-05
-2.85747e-05
6.51974e-05
-4.05183e-05
7.63991e-05
-4.19026e-05
8.22394e-05
-3.12162e-05
8.054e-05
-1.60091e-05
7.09426e-05
-1.02843e-06
5.74867e-05
7.7934e-06
4.13784e-05
1.36179e-05
2.4882e-05
1.65575e-05
9.27607e-06
1.72995e-05
-4.51146e-06
1.67758e-05
-1.65765e-05
1.56043e-05
-2.70482e-05
1.41372e-05
1.24931e-05
-3.58953e-05
-9.96711e-06
4.076e-07
-1.73581e-05
1.03498e-06
-2.23364e-05
2.19576e-06
-2.53238e-05
4.12471e-06
-2.75344e-05
7.14124e-06
-2.88864e-05
1.12203e-05
-2.91403e-05
1.60447e-05
-2.73616e-05
2.09041e-05
-2.2284e-05
2.49069e-05
-1.42874e-05
2.73699e-05
-6.39215e-06
2.77196e-05
-5.62582e-07
2.59251e-05
3.42374e-06
2.324e-05
6.27558e-06
2.2567e-05
1.01583e-05
2.06763e-05
1.77844e-05
1.9545e-05
2.92472e-05
1.56237e-05
4.26289e-05
9.95451e-06
5.58872e-05
3.73034e-06
6.55592e-05
-1.65102e-06
6.23666e-05
-5.73324e-06
4.15438e-05
-7.80276e-06
9.27013e-06
-8.2871e-06
-2.5351e-05
-7.31829e-06
-5.26016e-05
-4.00178e-06
-6.74612e-05
-1.18449e-06
-7.05866e-05
2.06671e-06
-6.88591e-05
6.03999e-06
-6.41901e-05
8.92698e-06
-5.811e-05
1.04588e-05
-5.16228e-05
1.07967e-05
-4.52292e-05
1.03687e-05
-3.91493e-05
9.51237e-06
-3.34589e-05
8.43573e-06
7.32244e-06
-2.82983e-05
-1.39738e-05
1.43776e-05
-2.72077e-05
1.42646e-05
-3.85311e-05
1.35144e-05
-4.65802e-05
1.21683e-05
-4.97437e-05
1.02987e-05
-4.72136e-05
8.68329e-06
-3.98292e-05
8.65188e-06
-2.97221e-05
1.07868e-05
-1.96368e-05
1.48083e-05
-1.19958e-05
1.97098e-05
-8.77023e-06
2.44693e-05
-1.04271e-05
2.75511e-05
-1.41726e-05
2.69488e-05
-1.25661e-05
2.09238e-05
-1.02176e-06
9.1031e-06
1.81908e-05
3.02736e-07
4.26364e-05
-8.85177e-06
6.72929e-05
-1.47326e-05
8.5969e-05
-1.49794e-05
9.48583e-05
-1.05727e-05
9.24194e-05
-3.32439e-06
7.80413e-05
6.55565e-06
5.13937e-05
1.83433e-05
1.75934e-05
2.64654e-05
-1.42979e-05
2.78742e-05
-3.92594e-05
2.37611e-05
-5.53567e-05
1.81474e-05
-6.26529e-05
1.332e-05
-6.33482e-05
9.60747e-06
-5.95612e-05
6.65869e-06
-5.30547e-05
4.27818e-06
-4.50781e-05
2.38103e-06
-3.65717e-05
9.95818e-07
-2.82022e-05
5.7161e-08
-6.62583e-07
-2.02257e-05
1.23693e-06
1.31371e-05
1.75321e-06
1.37445e-05
1.93139e-06
1.33319e-05
1.89627e-06
1.21985e-05
1.83648e-06
1.03531e-05
1.72792e-06
8.78582e-06
1.77328e-06
8.59989e-06
2.48873e-06
1.00637e-05
4.08531e-06
1.32026e-05
6.18384e-06
1.76005e-05
8.36413e-06
2.2276e-05
1.0361e-05
2.55381e-05
1.20541e-05
2.5236e-05
1.3022e-05
1.99312e-05
1.25886e-05
9.51306e-06
1.02278e-05
2.64079e-06
1.47064e-06
-1.12315e-07
-1.15396e-05
-1.69788e-06
-2.35374e-05
-2.99997e-06
-3.06715e-05
-3.46208e-06
-3.07682e-05
-3.24847e-06
-2.50906e-05
8.61592e-07
-1.54226e-05
8.66166e-06
-3.24728e-06
1.42754e-05
7.94304e-06
1.6671e-05
1.57458e-05
1.59465e-05
2.0362e-05
1.35192e-05
2.29899e-05
1.06813e-05
2.47649e-05
7.82336e-06
2.61308e-05
5.2848e-06
2.72053e-05
3.19676e-06
2.79601e-05
1.62026e-06
2.85157e-05
4.35071e-07
2.88427e-05
-2.74391e-07
-6.49254e-07
2.88254e-05
8.10847e-06
5.02302e-06
1.52559e-05
6.59089e-06
2.08247e-05
7.75619e-06
2.40843e-05
8.93119e-06
2.41676e-05
1.02609e-05
2.12343e-05
1.17089e-05
1.69303e-05
1.28922e-05
1.37668e-05
1.32137e-05
1.39218e-05
1.30319e-05
1.86986e-05
1.28053e-05
2.82306e-05
1.2722e-05
4.16483e-05
1.20938e-05
5.70597e-05
9.7925e-06
7.0701e-05
6.25113e-06
7.64638e-05
3.71331e-06
7.49603e-05
4.10607e-06
6.79256e-05
6.87884e-06
5.58502e-05
1.02913e-05
4.1645e-05
1.11607e-05
2.65789e-05
1.15641e-05
9.827e-06
1.34627e-05
-3.74756e-06
1.43978e-05
-7.58116e-06
1.24596e-05
-3.08051e-06
9.74277e-06
6.4861e-06
7.07597e-06
1.75713e-05
4.83622e-06
2.80106e-05
3.05754e-06
3.69127e-05
1.75911e-06
4.36472e-05
1.07057e-06
4.80536e-05
8.61926e-07
5.02529e-05
9.82476e-07
5.053e-05
1.32978e-06
4.923e-05
1.72295e-06
4.70927e-05
1.85214e-06
1.75583e-06
4.46778e-05
1.50302e-06
3.51926e-06
3.31185e-06
4.78087e-06
5.01492e-06
6.05152e-06
6.37453e-06
7.56953e-06
7.17691e-06
9.45594e-06
7.62124e-06
1.12615e-05
7.83109e-06
1.26787e-05
7.52099e-06
1.35197e-05
6.72812e-06
1.38199e-05
5.77352e-06
1.37541e-05
4.87241e-06
1.36161e-05
3.90853e-06
1.30492e-05
2.3173e-06
1.13734e-05
-1.89882e-07
8.74559e-06
-2.1434e-06
5.65448e-06
-2.60463e-06
4.55502e-06
-1.1026e-06
5.36453e-06
2.03481e-06
7.14009e-06
4.94983e-06
8.23238e-06
7.13062e-06
9.36959e-06
8.96805e-06
1.16116e-05
1.05532e-05
1.28006e-05
1.08836e-05
1.21186e-05
1.04137e-05
1.02019e-05
9.52369e-06
7.95577e-06
8.44424e-06
5.90596e-06
7.27969e-06
4.21314e-06
6.14127e-06
2.88927e-06
5.17225e-06
2.0321e-06
4.45969e-06
1.56772e-06
4.05636e-06
1.37975e-06
4.06151e-06
1.31929e-06
4.51148e-06
1.26822e-06
5.19547e-06
1.16395e-06
1.0238e-06
5.92369e-06
-5.1799e-07
4.0333e-06
1.64996e-08
4.24193e-06
1.53814e-06
4.52489e-06
4.03427e-06
5.0677e-06
7.58268e-06
5.90104e-06
1.19395e-05
6.8973e-06
1.67475e-05
7.86241e-06
2.15127e-05
8.74482e-06
2.58298e-05
9.49177e-06
2.95181e-05
1.00528e-05
3.26919e-05
1.04272e-05
3.50688e-05
1.06548e-05
3.55507e-05
1.08709e-05
3.29909e-05
1.12811e-05
2.8646e-05
9.97558e-06
2.34678e-05
9.70819e-06
1.90437e-05
9.76253e-06
1.60671e-05
1.00893e-05
1.37179e-05
1.05532e-05
1.21713e-05
1.08869e-05
1.30531e-05
1.06999e-05
1.65169e-05
9.30919e-06
2.07711e-05
7.83931e-06
2.4385e-05
6.56522e-06
2.68045e-05
5.51579e-06
2.80048e-05
4.6872e-06
2.81796e-05
4.02152e-06
2.75653e-05
3.48847e-06
2.65351e-05
3.0486e-06
2.54362e-05
2.65412e-06
2.45189e-05
2.28579e-06
2.38775e-05
1.95038e-06
2.34816e-05
1.65479e-06
2.32382e-05
1.39887e-06
1.17079e-06
2.30835e-05
2.79136e-07
3.75336e-06
3.39832e-07
4.18025e-06
3.70148e-07
4.49334e-06
4.69463e-07
4.96691e-06
7.48833e-07
5.61988e-06
1.23525e-06
6.40876e-06
1.83823e-06
7.25692e-06
2.46803e-06
8.11201e-06
3.02751e-06
8.9287e-06
3.41209e-06
9.66392e-06
3.57373e-06
1.02605e-05
3.55141e-06
1.0671e-05
3.46842e-06
1.09465e-05
3.47166e-06
1.12688e-05
3.53538e-06
9.90273e-06
3.70607e-06
9.52791e-06
3.94029e-06
9.51836e-06
4.27238e-06
9.74685e-06
4.76319e-06
1.00517e-05
5.28096e-06
1.0358e-05
5.51973e-06
1.04492e-05
5.42845e-06
9.38875e-06
5.10096e-06
8.1555e-06
4.6746e-06
6.98083e-06
4.27448e-06
5.90576e-06
3.97842e-06
4.97379e-06
3.79167e-06
4.19946e-06
3.70969e-06
3.56232e-06
3.7152e-06
3.0356e-06
3.7669e-06
2.59556e-06
3.82558e-06
2.22082e-06
3.87291e-06
1.89734e-06
3.9065e-06
1.61598e-06
3.93055e-06
1.37012e-06
1.16812e-06
3.92894e-06
1.52789e-06
2.22315e-06
2.79345e-06
2.91206e-06
3.76147e-06
3.5223e-06
4.6007e-06
4.12422e-06
5.49392e-06
4.72269e-06
6.54801e-06
5.35011e-06
7.77221e-06
6.02746e-06
9.12958e-06
6.74859e-06
1.05447e-05
7.50659e-06
1.19084e-05
8.29211e-06
1.30732e-05
9.08627e-06
1.38559e-05
9.87728e-06
1.41145e-05
1.0675e-05
1.37828e-05
1.15851e-05
1.30987e-05
1.05715e-05
1.22659e-05
1.03445e-05
1.15457e-05
1.02212e-05
1.11277e-05
1.01466e-05
1.10914e-05
1.00685e-05
1.14931e-05
9.93586e-06
1.22451e-05
9.67573e-06
1.31051e-05
8.50816e-06
1.39052e-05
7.33626e-06
1.45314e-05
6.33691e-06
1.49325e-05
5.48823e-06
1.51263e-05
4.76495e-06
1.5166e-05
4.14582e-06
1.51012e-05
3.6144e-06
1.49684e-05
3.15672e-06
1.47937e-05
2.75971e-06
1.45919e-05
2.4129e-06
1.43715e-05
2.10883e-06
1.41378e-05
1.84168e-06
1.38945e-05
1.60605e-06
1.39071e-06
1.36653e-05
1.26488e-08
2.20995e-06
1.34576e-07
2.78942e-06
3.38239e-07
3.31772e-06
5.95596e-07
3.86575e-06
8.75358e-07
4.44158e-06
1.17237e-06
5.05149e-06
1.4955e-06
5.70242e-06
1.84393e-06
6.39791e-06
2.20983e-06
7.13799e-06
2.57352e-06
7.92521e-06
2.894e-06
8.76192e-06
3.11682e-06
9.64978e-06
3.19693e-06
1.05892e-05
3.14812e-06
1.16268e-05
3.07417e-06
1.06382e-05
3.05537e-06
1.03554e-05
3.11174e-06
1.01564e-05
3.22766e-06
1.00215e-05
3.37498e-06
9.9112e-06
3.51005e-06
9.78994e-06
3.56407e-06
9.60987e-06
3.51776e-06
8.54276e-06
3.40723e-06
7.43548e-06
3.2763e-06
6.45705e-06
3.15532e-06
5.59897e-06
3.05595e-06
4.85471e-06
2.97796e-06
4.21481e-06
2.9191e-06
3.66491e-06
2.87842e-06
3.18965e-06
2.85493e-06
2.77609e-06
2.8463e-06
2.41496e-06
2.84954e-06
2.0996e-06
2.86134e-06
1.82437e-06
2.87834e-06
1.58406e-06
1.38505e-06
2.87943e-06
1.08972e-07
2.0993e-06
3.16258e-07
2.58022e-06
6.19391e-07
3.01239e-06
1.01266e-06
3.46996e-06
1.47996e-06
3.97138e-06
2.00689e-06
4.52122e-06
2.58185e-06
5.12361e-06
3.19192e-06
5.78338e-06
3.82161e-06
6.50312e-06
4.45389e-06
7.2869e-06
5.07114e-06
8.1376e-06
5.64757e-06
9.06501e-06
6.13705e-06
1.00897e-05
6.49777e-06
1.12541e-05
6.69347e-06
1.04303e-05
6.80296e-06
1.02329e-05
6.88708e-06
1.00584e-05
7.00329e-06
9.89039e-06
7.18482e-06
9.71374e-06
7.44381e-06
9.51392e-06
7.75624e-06
9.27927e-06
8.03735e-06
8.24404e-06
8.24779e-06
7.20837e-06
8.38256e-06
6.30662e-06
8.44454e-06
5.52235e-06
8.4436e-06
4.84205e-06
8.3935e-06
4.2523e-06
8.30696e-06
3.73986e-06
8.19342e-06
3.29251e-06
8.05982e-06
2.89992e-06
7.91146e-06
2.55436e-06
7.75266e-06
2.25024e-06
7.58711e-06
1.98246e-06
7.41801e-06
1.74641e-06
1.53241e-06
7.26448e-06
1.08092e-07
1.9903e-06
2.35137e-07
2.45209e-06
3.90133e-07
2.85609e-06
5.76734e-07
3.28183e-06
7.97535e-07
3.74878e-06
1.05086e-06
4.2658e-06
1.33142e-06
4.84059e-06
1.63002e-06
5.48191e-06
1.92976e-06
6.20001e-06
2.20815e-06
7.00456e-06
2.43775e-06
7.9033e-06
2.59307e-06
8.90409e-06
2.66334e-06
1.00127e-05
2.67372e-06
1.12354e-05
2.6719e-06
1.04238e-05
2.67718e-06
1.02187e-05
2.69569e-06
1.00302e-05
2.72455e-06
9.85113e-06
2.75479e-06
9.67227e-06
2.77392e-06
9.48266e-06
2.76821e-06
9.27188e-06
2.73973e-06
8.25969e-06
2.69961e-06
7.23618e-06
2.65596e-06
6.3386e-06
2.61191e-06
5.55539e-06
2.57006e-06
4.8736e-06
2.53439e-06
4.27836e-06
2.50864e-06
3.75672e-06
2.49403e-06
3.29887e-06
2.48945e-06
2.89694e-06
2.49258e-06
2.54426e-06
2.50125e-06
2.23522e-06
2.51325e-06
1.96463e-06
2.52656e-06
1.7278e-06
1.52942e-06
2.5247e-06
5.39341e-08
1.93466e-06
1.22549e-07
2.38154e-06
2.14608e-07
2.76181e-06
3.36927e-07
3.15697e-06
4.9494e-07
3.58785e-06
6.9136e-07
4.06604e-06
9.2668e-07
4.60141e-06
1.20035e-06
5.20379e-06
1.5114e-06
5.88381e-06
1.8588e-06
6.65119e-06
2.24487e-06
7.51026e-06
2.6607e-06
8.48008e-06
3.0668e-06
9.59693e-06
3.42106e-06
1.08696e-05
3.67236e-06
1.01609e-05
3.87426e-06
1.00046e-05
4.04143e-06
9.85014e-06
4.18848e-06
9.69037e-06
4.32556e-06
9.52061e-06
4.4554e-06
9.3373e-06
4.5719e-06
9.13885e-06
4.65529e-06
8.16029e-06
4.70134e-06
7.17497e-06
4.71075e-06
6.31493e-06
4.68811e-06
5.56467e-06
4.63991e-06
4.90938e-06
4.57172e-06
4.33503e-06
4.48771e-06
3.8301e-06
4.39104e-06
3.38573e-06
4.28439e-06
2.99461e-06
4.16994e-06
2.65046e-06
4.05003e-06
2.34761e-06
3.92699e-06
2.08079e-06
3.8032e-06
1.84536e-06
1.63369e-06
3.69323e-06
1.48521e-07
1.78472e-06
2.98592e-07
2.22981e-06
4.60524e-07
2.59796e-06
6.34708e-07
2.98057e-06
8.20126e-07
3.39987e-06
1.0139e-06
3.8693e-06
1.21161e-06
4.40028e-06
1.40702e-06
5.00444e-06
1.59289e-06
5.69336e-06
1.76229e-06
6.47648e-06
1.90771e-06
7.35863e-06
2.0171e-06
8.36343e-06
2.08578e-06
9.5197e-06
2.1199e-06
1.08253e-05
2.1399e-06
1.01309e-05
2.16026e-06
9.97376e-06
2.17762e-06
9.82175e-06
2.18849e-06
9.66786e-06
2.19004e-06
9.50673e-06
2.17964e-06
9.33462e-06
2.15566e-06
9.14895e-06
2.12356e-06
8.17894e-06
2.08596e-06
7.19983e-06
2.04487e-06
6.34402e-06
2.00442e-06
5.59387e-06
1.96911e-06
4.9342e-06
1.9414e-06
4.353e-06
1.92196e-06
3.84055e-06
1.91044e-06
3.38895e-06
1.9059e-06
2.99154e-06
1.90684e-06
2.64252e-06
1.91155e-06
2.33653e-06
1.91824e-06
2.06826e-06
1.92538e-06
1.83292e-06
1.63398e-06
1.92025e-06
3.18322e-08
1.75101e-06
6.24144e-08
2.1971e-06
1.05915e-07
2.55202e-06
1.65602e-07
2.91811e-06
2.43444e-07
3.31884e-06
3.4167e-07
3.76743e-06
4.62515e-07
4.27525e-06
6.08313e-07
4.85382e-06
7.80937e-07
5.51519e-06
9.79555e-07
6.27146e-06
1.19599e-06
7.1348e-06
1.42947e-06
8.12136e-06
1.68967e-06
9.24947e-06
1.96763e-06
1.05356e-05
2.17645e-06
9.91051e-06
2.32513e-06
9.81314e-06
2.43705e-06
9.69739e-06
2.52659e-06
9.56532e-06
2.59729e-06
9.42241e-06
2.6495e-06
9.26808e-06
2.68052e-06
9.10281e-06
2.68439e-06
8.16056e-06
2.66472e-06
7.20581e-06
2.62741e-06
6.36852e-06
2.57734e-06
5.63197e-06
2.51793e-06
4.9825e-06
2.45143e-06
4.40919e-06
2.37961e-06
3.90288e-06
2.303e-06
3.45681e-06
2.22032e-06
3.06621e-06
2.13081e-06
2.72468e-06
2.03547e-06
2.42517e-06
1.93715e-06
2.16045e-06
1.83945e-06
1.92508e-06
1.71338e-06
1.75498e-06
1.25718e-07
1.62356e-06
2.58067e-07
2.06275e-06
3.96476e-07
2.41132e-06
5.39147e-07
2.77281e-06
6.8298e-07
3.17199e-06
8.23926e-07
3.62302e-06
9.57998e-07
4.13719e-06
1.08149e-06
4.72575e-06
1.19147e-06
5.39992e-06
1.28567e-06
6.17117e-06
1.36353e-06
7.04989e-06
1.42923e-06
8.04749e-06
1.49287e-06
9.17633e-06
1.55965e-06
1.04577e-05
1.61119e-06
9.84819e-06
1.64252e-06
9.77071e-06
1.65796e-06
9.67049e-06
1.66325e-06
9.54812e-06
1.65784e-06
9.4154e-06
1.63776e-06
9.27518e-06
1.59847e-06
9.12847e-06
1.54525e-06
8.20072e-06
1.48623e-06
7.25256e-06
1.42815e-06
6.41511e-06
1.37495e-06
5.67446e-06
1.32874e-06
5.01878e-06
1.29046e-06
4.43827e-06
1.26025e-06
3.92462e-06
1.2377e-06
3.47156e-06
1.22117e-06
3.07561e-06
1.20822e-06
2.73108e-06
1.19788e-06
2.42957e-06
1.18965e-06
2.16322e-06
1.18248e-06
1.92732e-06
1.72154e-06
1.16981e-06
1.4779e-08
1.6069e-06
3.14701e-08
2.04392e-06
5.82546e-08
2.38209e-06
9.53005e-08
2.73297e-06
1.4452e-07
3.11956e-06
2.07797e-07
3.55607e-06
2.86764e-07
4.05401e-06
3.83018e-07
4.62466e-06
4.97615e-07
5.27977e-06
6.30733e-07
6.03167e-06
7.79979e-07
6.89328e-06
9.40282e-07
7.8787e-06
1.10346e-06
9.00331e-06
1.2644e-06
1.02853e-05
1.39545e-06
9.70605e-06
1.50441e-06
9.6504e-06
1.58198e-06
9.58124e-06
1.62617e-06
9.49186e-06
1.64583e-06
9.38323e-06
1.64391e-06
9.26408e-06
1.61828e-06
9.14049e-06
1.57306e-06
8.23295e-06
1.51601e-06
7.29745e-06
1.45366e-06
6.46612e-06
1.38931e-06
5.72825e-06
1.3226e-06
5.07572e-06
1.2517e-06
4.50014e-06
1.17527e-06
3.99274e-06
1.09416e-06
3.54503e-06
1.01192e-06
3.15087e-06
9.31862e-07
2.80474e-06
8.56384e-07
2.49923e-06
7.86135e-07
2.22815e-06
7.21288e-07
1.98736e-06
1.77139e-06
6.6706e-07
9.67491e-08
1.50841e-06
1.96398e-07
1.94228e-06
2.95815e-07
2.2804e-06
3.95214e-07
2.63096e-06
4.91949e-07
3.01984e-06
5.83889e-07
3.4607e-06
6.69777e-07
3.96418e-06
7.49147e-07
4.54076e-06
8.22635e-07
5.20106e-06
8.91669e-07
5.95662e-06
9.58048e-07
6.81996e-06
1.02304e-06
7.80568e-06
1.08589e-06
8.93116e-06
1.14773e-06
1.02126e-05
1.20027e-06
9.64305e-06
1.24339e-06
9.5966e-06
1.26991e-06
9.54375e-06
1.27333e-06
9.47715e-06
1.2518e-06
9.39308e-06
1.20627e-06
9.29749e-06
1.13847e-06
9.19568e-06
1.06082e-06
8.29861e-06
9.81641e-07
7.36542e-06
9.0534e-07
6.53199e-06
8.34082e-07
5.78982e-06
7.6816e-07
5.13269e-06
7.07382e-07
4.55264e-06
6.51957e-07
4.04057e-06
6.02336e-07
3.58767e-06
5.59839e-07
3.18699e-06
5.2582e-07
2.83292e-06
4.99728e-07
2.52002e-06
4.79721e-07
2.24332e-06
4.64151e-07
1.99856e-06
1.7838e-06
4.47759e-07
7.34706e-09
1.49938e-06
2.09073e-08
1.92679e-06
4.35788e-08
2.25551e-06
7.41674e-08
2.59784e-06
1.14119e-07
2.97698e-06
1.64527e-07
3.40696e-06
2.26551e-07
3.89833e-06
3.01032e-07
4.46189e-06
3.88321e-07
5.10873e-06
4.87825e-07
5.85131e-06
5.97697e-07
6.70339e-06
7.14789e-07
7.68085e-06
8.35357e-07
8.80162e-06
9.52634e-07
1.00849e-05
1.03988e-06
9.54572e-06
1.10357e-06
9.5226e-06
1.14433e-06
9.49243e-06
1.15952e-06
9.45109e-06
1.14481e-06
9.39657e-06
1.10153e-06
9.32915e-06
1.0352e-06
9.24995e-06
9.5692e-07
8.36543e-06
8.72963e-07
7.43871e-06
7.85836e-07
6.6092e-06
6.97172e-07
5.86929e-06
6.09338e-07
5.21203e-06
5.24543e-07
4.62961e-06
4.44018e-07
4.11391e-06
3.67838e-07
3.65725e-06
2.96045e-07
3.25274e-06
2.29055e-07
2.89438e-06
1.67236e-07
2.57681e-06
1.10716e-07
2.29525e-06
5.95284e-08
2.04561e-06
1.82299e-06
1.65691e-08
6.34274e-08
1.43442e-06
1.29098e-07
1.85937e-06
1.93787e-07
2.18882e-06
2.58222e-07
2.53111e-06
3.22015e-07
2.91056e-06
3.85112e-07
3.34084e-06
4.4789e-07
3.83208e-06
5.1098e-07
4.3948e-06
5.75222e-07
5.03988e-06
6.41399e-07
5.77981e-06
7.10058e-07
6.62858e-06
7.81341e-07
7.60244e-06
8.54368e-07
8.7203e-06
9.25259e-07
1.00043e-05
9.76601e-07
9.48499e-06
1.00954e-06
9.48006e-06
1.02114e-06
9.47098e-06
1.00774e-06
9.45435e-06
9.67975e-07
9.42588e-06
9.02387e-07
9.38393e-06
8.12756e-07
9.32835e-06
7.12558e-07
8.45501e-06
6.09328e-07
7.53204e-06
5.07116e-07
6.70223e-06
4.08866e-07
5.95903e-06
3.1713e-07
5.29593e-06
2.33632e-07
4.70589e-06
1.59199e-07
4.18173e-06
9.38469e-08
3.71653e-06
3.71868e-08
3.30387e-06
-1.14777e-08
2.93798e-06
-5.29676e-08
2.61371e-06
-8.83162e-08
2.32641e-06
-1.18491e-07
2.07201e-06
1.84742e-06
-1.46363e-07
6.71132e-09
1.42631e-06
2.50884e-08
1.8394e-06
5.26344e-08
2.15944e-06
8.93787e-08
2.49226e-06
1.34172e-07
2.86335e-06
1.8726e-07
3.28499e-06
2.48599e-07
3.76756e-06
3.18194e-07
4.32154e-06
3.95547e-07
4.9583e-06
4.79872e-07
5.69061e-06
5.69804e-07
6.533e-06
6.63207e-07
7.50247e-06
7.56579e-07
8.61927e-06
8.44063e-07
9.90784e-06
9.05496e-07
9.41483e-06
9.43482e-07
9.43312e-06
9.55795e-07
9.44947e-06
9.40563e-07
9.4601e-06
8.96694e-07
9.45996e-06
8.24889e-07
9.44561e-06
7.25823e-07
9.41693e-06
6.12984e-07
8.55792e-06
4.95688e-07
7.6401e-06
3.7946e-07
6.8099e-06
2.67851e-07
6.06273e-06
1.63095e-07
5.3934e-06
6.63745e-08
4.79591e-06
-2.20016e-08
4.26396e-06
-1.02321e-07
3.79122e-06
-1.75206e-07
3.37162e-06
-2.41329e-07
2.99943e-06
-3.01296e-07
2.66941e-06
-3.55512e-07
2.37677e-06
-4.04242e-07
2.11723e-06
-4.46486e-07
1.8865e-06
0.000392328
4.38145e-06
0.000400271
6.49196e-06
0.000406551
7.80217e-06
0.000410739
9.49339e-06
0.000412261
1.17072e-05
0.000410424
1.45565e-05
0.000404522
1.80466e-05
0.000394065
2.19553e-05
0.000379189
2.56467e-05
0.000360146
2.90013e-05
0.000337202
3.20488e-05
0.00031165
3.40646e-05
0.000286465
3.37059e-05
0.000261923
3.32303e-05
0.000238005
3.27796e-05
0.000214705
3.23383e-05
0.000192105
3.18166e-05
0.000170341
3.11604e-05
0.000149561
3.03582e-05
0.00012994
2.93823e-05
0.000111703
2.8181e-05
2.74191e-05
9.3721e-05
0.000912901
-2.21945e-05
0.000943083
-2.38293e-05
0.000974763
-2.40329e-05
0.00100734
-2.3251e-05
0.00103996
-2.11048e-05
0.00107147
-1.71555e-05
0.00110023
-1.09199e-05
0.00112399
-2.03078e-06
0.0011398
9.60061e-06
0.00114492
2.36258e-05
0.00113391
4.27934e-05
0.00110601
6.16812e-05
0.00106241
7.7027e-05
0.00100552
8.98418e-05
0.00093789
0.000100136
0.000861825
0.000108129
0.000779326
0.000114048
0.000692093
0.000118131
0.000601545
0.000120648
0.000508857
0.000121818
0.000414988
0.000121804
0.000120147
0.000322021
-0.000129274
-2.08058e-05
-0.000134392
-1.89128e-05
-0.000140975
-1.76563e-05
-0.000148536
-1.59009e-05
-0.000156529
-1.333e-05
-0.00016402
-9.88912e-06
-0.000169838
-5.33534e-06
-0.000172891
7.78352e-07
-0.000172319
8.77643e-06
-0.000167853
1.8904e-05
-0.000156738
3.14197e-05
-0.000140329
4.50209e-05
-0.000123586
6.00483e-05
-0.000106505
7.25426e-05
-8.95651e-05
8.29956e-05
-7.31189e-05
9.15039e-05
-5.74597e-05
9.82274e-05
-4.27521e-05
0.00010328
-2.90201e-05
0.000106788
-1.61954e-05
0.00010888
-4.16457e-06
0.000109671
0.000109997
5.8917e-06
-8.17858e-05
1.48566e-05
-0.000120144
1.96536e-05
-0.00016212
2.4536e-05
-0.000207011
2.92073e-05
-0.00025386
3.37337e-05
-0.000301346
3.78042e-05
-0.000347621
4.114e-05
-0.000390318
4.36656e-05
-0.000426499
4.51465e-05
-0.000453219
4.58101e-05
-0.000468046
4.64267e-05
-0.000470218
4.7364e-05
-0.000458193
4.81827e-05
-0.0004359
5.03958e-05
-0.000406395
5.36225e-05
-0.000372185
5.7415e-05
-0.00033524
6.13945e-05
-0.000297081
6.52273e-05
-0.000258847
6.86558e-05
-0.000221369
7.14987e-05
-0.000185239
7.3636e-05
7.46536e-05
-0.000149805
-0.000680459
-8.49479e-06
-0.000656437
-4.48822e-06
-0.000631077
-9.49347e-07
-0.000604363
2.36187e-06
-0.000576199
5.43168e-06
-0.0005468
8.26433e-06
-0.000516661
1.08591e-05
-0.000486577
1.34404e-05
-0.000458055
1.6475e-05
-0.00043176
1.93575e-05
-0.000407596
2.20993e-05
-0.000385003
2.4606e-05
-0.000363141
2.61574e-05
-0.000340899
2.79904e-05
-0.000317555
3.01151e-05
-0.00029269
3.23868e-05
-0.000266116
3.46569e-05
-0.000237849
3.67982e-05
-0.000208038
3.86837e-05
-0.000176924
4.02253e-05
-0.00014482
4.13733e-05
4.23638e-05
-0.000112687
-0.000168083
8.45766e-06
-0.000182551
1.01292e-05
-0.000195209
1.18613e-05
-0.000205979
1.32855e-05
-0.000214785
1.43936e-05
-0.000221606
1.52423e-05
-0.000226483
1.58932e-05
-0.000229308
1.64209e-05
-0.000229609
1.69353e-05
-0.000227621
1.75333e-05
-0.000223532
1.81786e-05
-0.00021742
1.86639e-05
-0.000209843
1.87417e-05
-0.000200759
1.90569e-05
-0.000190072
1.95719e-05
-0.0001778
2.02554e-05
-0.000164056
2.10469e-05
-0.000149013
2.18793e-05
-0.000132891
2.26798e-05
-0.000115947
2.33951e-05
-9.84582e-05
2.39938e-05
2.42926e-05
-8.02822e-05
-0.000331433
-1.8173e-06
-0.000320887
-4.1079e-07
-0.000309664
6.42237e-07
-0.000297882
1.50676e-06
-0.000285693
2.20452e-06
-0.000273203
2.7486e-06
-0.000260476
3.16015e-06
-0.000247535
3.46925e-06
-0.00023435
3.73517e-06
-0.000220871
4.03826e-06
-0.000207135
4.4247e-06
-0.000193255
4.75508e-06
-0.000179477
4.92537e-06
-0.000165841
5.38049e-06
-0.000152268
5.95486e-06
-0.00013866
6.6016e-06
-0.000124916
7.25436e-06
-0.000110957
7.86951e-06
-9.67549e-05
8.42522e-06
-8.23189e-05
8.90577e-06
-6.76776e-05
9.29874e-06
9.69695e-06
-5.31354e-05
-9.61747e-05
5.34343e-06
-0.000102783
6.25673e-06
-0.000108985
6.90442e-06
-0.000114587
7.17286e-06
-0.000119406
7.09024e-06