/*--------------------------------*- C++ -*----------------------------------*\
  =========                 |
  \\      /  F ield         | OpenFOAM: The Open Source CFD Toolbox
   \\    /   O peration     | Website:  https://openfoam.org
    \\  /    A nd           | Version:  8
     \\/     M anipulation  |
\*---------------------------------------------------------------------------*/
FoamFile
{
    version     2.0;
    format      ascii;
    class       volScalarField;
    location    "0.09";
    object      epsilon;
}
// * * * * * * * * * * * * * * * * * * * * * * * * * * * * * * * * * * * * * //

dimensions      [0 2 -3 0 0 0 0];

internalField   nonuniform List<scalar> 
15677
(
59.7003
18.3535
52.6122
8.08764
25.8887
50.162
4.62722
13.2619
31.5741
50.4817
3.17784
7.72264
17.0788
37.2617
51.5979
2.48949
5.04241
10.0235
20.8056
42.6337
53.6525
2.14571
3.62248
6.4605
12.1575
24.5334
47.6444
55.7175
1.97986
2.82079
4.52363
7.72126
14.2696
28.241
52.0027
57.6516
1.91169
2.35296
3.40097
5.3082
8.91189
16.4156
31.7406
55.6817
59.3511
1.88417
2.08028
2.72279
3.90785
6.01908
10.1005
18.5253
34.9357
58.6989
60.8497
1.87055
1.9394
2.30686
3.05465
4.35611
6.70383
11.267
20.5551
37.7531
61.1709
62.1162
1.86765
1.87831
2.05634
2.52061
3.34679
4.77413
7.35932
12.4096
22.4442
40.2112
63.1605
63.2273
1.86862
1.84885
1.91652
2.18581
2.71171
3.61374
5.16294
7.99621
13.4958
24.1851
42.3024
64.7821
64.1534
1.86953
1.8387
1.85192
1.98253
2.3064
2.88548
3.85657
5.53303
8.59947
14.5248
25.7441
44.0865
66.0822
64.9868
1.86976
1.83698
1.82112
1.86771
2.05113
2.41761
3.04181
4.08288
5.87817
9.17358
15.4717
27.1386
45.5729
67.1356
65.713
1.86976
1.83725
1.81049
1.81333
1.89808
2.1172
2.51798
3.18533
4.29025
6.20357
9.70419
16.344
28.3517
46.8226
67.9947
66.3554
1.86971
1.83752
1.80818
1.78977
1.81537
1.93019
2.1783
2.6097
3.31507
4.48289
6.50181
10.197
17.1219
29.4076
47.8572
68.6929
66.9436
1.86969
1.83763
1.80788
1.78275
1.77568
1.82145
1.96212
2.23475
2.6921
3.43391
4.65726
6.77727
10.6395
17.8176
30.3023
48.7026
69.2902
67.4445
1.86967
1.83765
1.80789
1.78104
1.76143
1.76613
1.83163
1.99286
2.2857
2.7669
3.54026
4.81656
7.0231
11.0395
18.4172
31.0554
49.3974
69.7612
67.9525
1.86967
1.83765
1.80791
1.78072
1.75695
1.74392
1.76033
1.84301
2.02124
2.33192
2.83335
3.63631
4.9572
7.24452
11.3855
18.9348
31.6724
49.9382
70.2056
68.3475
1.86966
1.83764
1.8079
1.78069
1.75567
1.7359
1.72948
1.75736
1.85434
2.04736
2.37297
2.89284
3.72032
5.08257
7.43484
11.6871
19.3598
32.1673
50.3852
70.5317
68.8207
1.86966
1.83764
1.80788
1.78068
1.75535
1.7332
1.71726
1.718
1.75579
1.86548
2.07083
2.40961
2.94462
3.79442
5.18934
7.60012
11.9338
19.7102
32.5529
50.7026
70.8986
69.1346
1.86966
1.83763
1.80786
1.78067
1.75526
1.73237
1.71263
1.70132
1.70843
1.7557
1.87588
2.09189
2.44152
2.98999
3.85719
5.28118
7.73443
12.1387
19.9752
32.8384
50.9731
71.1384
69.6049
1.86966
1.83763
1.80785
1.78064
1.75522
1.73213
1.711
1.69452
1.68722
1.70085
1.75602
1.88548
2.11045
2.46955
3.02852
3.91083
5.35537
7.84502
12.2908
20.1796
33.0409
51.1382
71.4825
69.861
1.86966
1.83762
1.80784
1.78062
1.75518
1.73204
1.71045
1.69192
1.67797
1.67535
1.69458
1.7568
1.89435
2.12703
2.49365
3.06153
3.95438
5.416
7.92705
12.4088
20.3089
33.1649
51.2829
71.6793
70.3325
1.86967
1.83762
1.80784
1.7806
1.75515
1.73198
1.71025
1.69096
1.67416
1.66375
1.66488
1.68957
1.7583
1.90264
2.1417
2.51475
3.0891
3.9905
5.46164
7.98933
12.4785
20.3948
33.2354
51.3688
72.0605
70.5814
1.86967
1.83761
1.80783
1.78059
1.75513
1.73193
1.71014
1.69059
1.67266
1.65872
1.65073
1.65639
1.68597
1.76019
1.91061
2.15529
2.5333
3.11275
4.01867
5.49608
8.02698
12.5259
20.4189
33.2376
51.419
72.352
430.214
1.86967
1.83761
1.80783
1.78057
1.75511
1.73189
1.71007
1.69042
1.67206
1.65661
1.64432
1.64019
1.64916
1.68332
1.76318
1.91891
2.16815
2.55026
3.13284
4.04166
5.51964
8.05166
12.5314
20.4082
33.2206
51.5178
88.5868
722.496
1.86967
1.8376
1.80783
1.78056
1.75509
1.73185
1.71002
1.6903
1.67178
1.65571
1.64153
1.63256
1.63059
1.64422
1.68332
1.76748
1.92788
2.18131
2.56656
3.15144
4.06047
5.53637
8.058
12.5223
20.3785
33.1838
52.3985
121.8
1010.4
1.86968
1.8376
1.80783
1.78055
1.75508
1.73182
1.70997
1.69022
1.67162
1.65529
1.64032
1.62906
1.62166
1.62425
1.64081
1.6847
1.77353
1.93852
2.19561
2.58364
3.16944
4.07717
5.54705
8.05544
12.5005
20.3223
33.1907
54.8788
157.552
1267.47
1.86968
1.8376
1.80783
1.78054
1.75507
1.7318
1.70993
1.69015
1.67151
1.65505
1.63975
1.62745
1.61751
1.61424
1.61859
1.64129
1.68839
1.78224
1.9516
2.21227
2.60234
3.1885
4.09306
5.55451
8.04896
12.4632
20.263
33.2608
59.3729
190.565
1507.44
1.86968
1.83759
1.80784
1.78053
1.75507
1.73177
1.7099
1.69009
1.67141
1.65489
1.63943
1.62666
1.61558
1.60936
1.60766
1.61827
1.64385
1.69566
1.79444
1.96827
2.23221
2.62432
3.20983
4.1105
5.56194
8.03756
12.4244
20.2005
33.4762
64.0394
222.028
1714.38
1.86968
1.83759
1.80784
1.78052
1.75507
1.73175
1.70988
1.69004
1.67134
1.65476
1.63921
1.62623
1.61462
1.60698
1.60237
1.60624
1.62021
1.64977
1.70738
1.8113
1.98954
2.25701
2.65064
3.2355
4.13088
5.57145
8.02859
12.384
20.1308
33.8961
68.7797
249.96
1874.62
1.86969
1.83759
1.80784
1.78052
1.75506
1.73173
1.70986
1.69
1.67127
1.65466
1.63905
1.62595
1.61408
1.60578
1.59978
1.60024
1.60798
1.62562
1.6611
1.72458
1.83386
2.01693
2.2877
2.68311
3.26641
4.15673
5.5858
8.02152
12.3444
20.0696
34.4109
73.0978
271.797
2001.53
1.86969
1.83758
1.80784
1.78051
1.75506
1.73172
1.70985
1.68996
1.67122
1.65457
1.63891
1.62574
1.61372
1.60511
1.59844
1.59726
1.60187
1.61322
1.63644
1.67864
1.74832
1.86362
2.05146
2.32596
2.72262
3.30482
4.189
5.60646
8.02185
12.305
20.0145
34.9138
76.4275
289.203
2105.6
1.83758
1.86972
1.80785
1.7805
1.75506
1.7317
1.70984
1.68992
1.67118
1.6545
1.63879
1.62557
1.61345
1.60469
1.59768
1.59574
1.59887
1.60709
1.62392
1.6544
1.70342
1.78021
1.90173
2.0949
2.37277
2.7711
3.35124
4.22985
5.63436
8.02536
12.2644
19.9582
35.2816
78.9844
303.361
2194.19
1.80785
1.83768
1.8698
1.7805
1.75506
1.73169
1.70983
1.68989
1.67115
1.65443
1.63869
1.62543
1.61323
1.60438
1.59718
1.59491
1.59736
1.60413
1.61785
1.64238
1.68023
1.73709
1.82138
1.9499
2.14812
2.42981
2.82912
3.4078
4.27901
5.67018
8.03524
12.224
19.8955
35.5376
80.9161
315.4
2272.33
1.78049
1.80801
1.83787
1.86987
1.75506
1.73168
1.70982
1.68986
1.67112
1.65436
1.63861
1.6253
1.61304
1.60413
1.5968
1.5944
1.59656
1.60272
1.61507
1.63687
1.66923
1.71568
1.781
1.87372
2.00919
2.21285
2.49793
2.89856
3.47397
4.33788
5.71887
8.05609
12.1927
19.8266
35.675
82.436
325.835
2343.05
1.75506
1.7807
1.80833
1.83807
1.86995
1.73166
1.70982
1.68984
1.6711
1.65431
1.63855
1.62519
1.61288
1.60393
1.59649
1.59403
1.59608
1.60204
1.61389
1.63471
1.66476
1.70642
1.76231
1.83736
1.93859
2.08167
2.28981
2.57851
2.97901
3.55141
4.41355
5.78477
8.08848
12.1668
19.75
35.7499
83.6238
335.291
2408.58
1.73165
1.75532
1.78112
1.80866
1.83828
1.87003
1.70981
1.68981
1.67109
1.65425
1.6385
1.62509
1.61274
1.60375
1.59624
1.59374
1.59575
1.60169
1.61349
1.63419
1.66369
1.70384
1.75594
1.82273
1.90774
2.0185
2.16832
2.38096
2.67159
3.07218
3.64895
4.51177
5.86352
8.13017
12.1507
19.6723
35.7467
84.6209
343.885
2469.83
1.70981
1.73194
1.75584
1.78154
1.809
1.8385
1.87011
1.68979
1.67107
1.6542
1.63846
1.625
1.61263
1.6036
1.59601
1.5935
1.5955
1.60148
1.6134
1.63439
1.66416
1.70435
1.75563
1.82
1.89868
1.99529
2.1148
2.2716
2.48687
2.77826
3.18861
3.77378
4.62374
5.95327
8.18161
12.14
19.5939
35.7266
85.4447
351.98
2527.96
1.68977
1.71014
1.73253
1.75637
1.78199
1.80934
1.83872
1.87019
1.67106
1.65416
1.63843
1.62491
1.61254
1.60346
1.59583
1.59331
1.5953
1.60134
1.61343
1.63487
1.66539
1.7066
1.75873
1.82333
1.90054
1.99253
2.10083
2.2309
2.39237
2.60945
2.91258
3.33528
3.91281
4.74833
6.05288
8.24125
12.1407
19.5207
35.6829
86.186
359.518
2582.93
1.67105
1.69012
1.71082
1.73314
1.75692
1.78244
1.8097
1.83894
1.87028
1.65412
1.6384
1.62484
1.61247
1.60334
1.59566
1.59314
1.59513
1.60124
1.61353
1.63544
1.66684
1.70959
1.76364
1.83034
1.90919
2.00136
2.10628
2.22706
2.36629
2.53363
2.76485
3.08391
3.50006
4.06593
4.88369
6.16124
8.3087
12.1454
19.4525
35.6252
86.8287
366.746
2635.58
1.65409
1.67144
1.69084
1.71152
1.73377
1.75749
1.78291
1.81007
1.83918
1.87036
1.63838
1.62476
1.61241
1.60322
1.59553
1.593
1.595
1.60118
1.61366
1.63602
1.66831
1.71269
1.76926
1.83934
1.92173
2.01747
2.12456
2.24419
2.3753
2.52359
2.71263
2.96503
3.27802
3.68281
4.232
5.02859
6.277
8.38261
12.156
19.3923
35.5615
87.4396
373.536
2685.4
1.63836
1.65446
1.67224
1.69159
1.71224
1.73441
1.75807
1.78339
1.81044
1.83942
1.87045
1.62469
1.61237
1.60311
1.59542
1.59288
1.59489
1.60113
1.6138
1.63658
1.66974
1.71569
1.77485
1.84912
1.93657
2.038
2.15079
2.27521
2.40757
2.55013
2.72331
2.94097
3.19357
3.49521
3.88204
4.41001
5.18172
6.39895
8.46162
12.1747
19.3392
35.5028
87.9894
380.095
2733.25
1.62463
1.63877
1.65527
1.67306
1.69236
1.71298
1.73508
1.75866
1.78388
1.81083
1.83966
1.87054
1.61234
1.603
1.59533
1.59278
1.59479
1.6011
1.61394
1.6371
1.67109
1.71851
1.78021
1.85872
1.95231
2.0615
2.18233
2.31543
2.45517
2.60206
2.77452
2.98304
3.20014
3.44537
3.73411
4.09749
4.59896
5.34179
6.52557
8.54491
12.1988
19.2942
35.4476
88.53
386.259
2778.34
1.61232
1.62499
1.63963
1.6561
1.67391
1.69315
1.71374
1.73576
1.75927
1.78439
1.81122
1.83992
1.87063
1.60289
1.59527
1.59268
1.5947
1.60107
1.61407
1.6376
1.67235
1.72114
1.78528
1.86787
1.96769
2.08631
2.21791
2.36253
2.51395
2.67185
2.85403
3.06956
3.28291
3.49174
3.7197
3.99027
4.32748
4.79695
5.50705
6.65564
8.6314
12.2277
19.2561
35.4008
89.0265
392.231
2821.69
1.6028
1.61271
1.62579
1.64052
1.65695
1.67478
1.69396
1.71452
1.73647
1.7599
1.78491
1.81163
1.84018
1.87073
1.59522
1.59259
1.59463
1.60105
1.6142
1.63806
1.67352
1.72358
1.79003
1.87649
1.98242
2.11073
2.25547
2.41559
2.58212
2.75614
2.95555
3.18986
3.41468
3.62414
3.81516
4.0165
4.26013
4.56918
5.00234
5.67665
6.78796
8.72013
12.2605
19.2255
35.3612
89.5219
397.822
2862.28
1.59521
1.60305
1.61352
1.6266
1.64143
1.65784
1.67567
1.69481
1.71532
1.73719
1.76054
1.78545
1.81204
1.84044
1.87081
1.59249
1.59455
1.60103
1.61431
1.63848
1.6746
1.72582
1.79445
1.88454
1.9964
2.13426
2.29256
2.47215
2.65933
2.85399
3.07703
3.33976
3.58888
3.81326
4.00777
4.16968
4.33471
4.54216
4.81968
5.2144
5.84918
6.92154
8.81021
12.2965
19.2007
35.3296
89.9822
403.25
2901.32
1.59241
1.59548
1.60364
1.61436
1.62745
1.64238
1.65876
1.67659
1.69568
1.71614
1.73794
1.7612
1.786
1.81245
1.84069
1.8709
1.59447
1.601
1.61442
1.63886
1.67559
1.72788
1.79854
1.89201
2.00961
2.15669
2.32855
2.5289
2.74251
2.96595
3.21909
3.51994
3.80505
4.05832
4.26916
4.43496
4.55431
4.67218
4.83477
5.07393
5.43043
6.02322
7.05524
8.9008
12.335
19.1826
35.3054
90.4432
408.298
2937.61
1.59442
1.59235
1.59604
1.60423
1.61524
1.62834
1.64335
1.65971
1.67753
1.69657
1.71698
1.7387
1.76188
1.78654
1.81285
1.84093
1.87098
1.60097
1.61451
1.63922
1.67649
1.72976
1.8023
1.89892
2.022
2.1779
2.36323
2.58481
2.82667
3.08842
3.38447
3.7347
4.06905
4.36566
4.60782
4.7876
4.90709
4.968
5.02672
5.13688
5.33076
5.64804
6.19711
7.18815
8.99117
12.3754
19.1686
35.2873
90.8745
413.216
2972.58
1.60099
1.59424
1.59225
1.59661
1.60487
1.61615
1.62927
1.64435
1.66069
1.6785
1.6975
1.71785
1.73949
1.76254
1.78707
1.81323
1.84116
1.87106
1.61459
1.63954
1.67731
1.73148
1.80575
1.90529
2.03356
2.1978
2.39646
2.63929
2.91013
3.21495
3.56993
3.99172
4.39273
4.75177
5.04314
5.25165
5.37572
5.42619
5.40984
5.39638
5.44619
5.58883
5.86588
6.37025
7.31972
9.08074
12.4169
19.1604
35.2765
91.3041
417.747
3004.85
1.61474
1.60056
1.59379
1.5921
1.59726
1.60557
1.6171
1.63025
1.64537
1.66171
1.6795
1.69845
1.71873
1.74027
1.76319
1.78758
1.81361
1.84139
1.87114
1.63981
1.67804
1.73305
1.80891
1.91114
2.04431
2.2164
2.42813
2.6918
2.99219
3.34387
3.76643
4.28886
4.795
5.24592
5.6136
5.87036
6.0092
6.04252
5.99479
5.87902
5.77923
5.7606
5.84666
6.08137
6.54204
7.44927
9.16897
12.4594
19.1546
35.269
91.7076
422.187
3035.97
1.64016
1.6139
1.59944
1.59328
1.59205
1.59794
1.60633
1.61806
1.63127
1.64643
1.66277
1.68052
1.69943
1.71961
1.74103
1.76383
1.78809
1.81397
1.84162
1.87122
1.67867
1.73446
1.81179
1.91652
2.05424
2.23371
2.45814
2.74197
3.07252
3.47421
3.96999
4.61305
5.28313
5.89525
6.38404
6.72086
6.88858
6.90215
6.79706
6.61505
6.37455
6.1734
6.07821
6.10336
6.29223
6.71107
7.57614
9.25546
12.5022
19.1541
35.2692
92.1068
426.242
3061.03
1.6794
1.63871
1.61164
1.59821
1.5929
1.59211
1.59864
1.60716
1.61906
1.63234
1.64751
1.66386
1.68156
1.7004
1.72046
1.74176
1.76444
1.78857
1.81433
1.84184
1.87129
1.73571
1.81438
1.92145
2.0634
2.24979
2.48643
2.78959
3.15088
3.60452
4.17758
4.9613
5.8481
6.73337
7.45168
7.92232
8.14541
8.13685
7.94857
7.64571
7.28772
6.89494
6.57694
6.39728
6.35806
6.49803
6.87629
7.69979
9.33981
12.5449
19.1553
35.2712
92.4803
429.706
3082.2
1.73704
1.6772
1.63465
1.60924
1.59716
1.5926
1.59229
1.59934
1.60808
1.62007
1.63346
1.64862
1.66498
1.6826
1.70134
1.72129
1.74248
1.76504
1.78905
1.81467
1.84205
1.87137
1.81672
1.92594
2.07182
2.26472
2.51298
2.83461
3.22699
3.73318
4.38726
5.33484
6.49354
7.75274
8.88111
9.63405
9.96369
9.94205
9.64017
9.1573
8.58976
8.01116
7.43786
6.98776
6.71621
6.60942
6.69835
7.03697
7.81974
9.42172
12.5874
19.1583
35.2758
92.7987
432.544
3105.1
1.81907
1.73386
1.6707
1.63034
1.60712
1.59621
1.59237
1.59268
1.60004
1.60907
1.62112
1.63462
1.64976
1.6661
1.68361
1.70226
1.7221
1.74318
1.76562
1.78951
1.81501
1.84225
1.87144
1.93003
2.07952
2.27855
2.53781
2.87709
3.30057
3.8588
4.59855
5.73532
7.22141
8.94927
10.6425
11.9445
12.5714
12.5727
12.1362
11.404
10.5257
9.62456
8.78107
8.00012
7.40361
7.03346
6.85635
6.89276
7.19254
7.93563
9.50093
12.6291
19.1637
35.2832
93.0627
435.665
3130.19
1.93399
1.81468
1.72388
1.6639
1.62641
1.60515
1.59533
1.59205
1.59324
1.60074
1.61012
1.6222
1.63582
1.6509
1.66718
1.6846
1.70315
1.72289
1.74386
1.76618
1.78995
1.81533
1.84245
1.87147
2.08661
2.29132
2.56097
2.91712
3.37133
3.98052
4.81203
6.16282
8.02643
10.3094
12.7078
14.7831
16.0844
16.3422
15.7745
14.7255
13.4159
12.041
10.7401
9.59083
8.57769
7.82207
7.34759
7.09794
7.08091
7.3426
8.04719
9.57728
12.67
19.1697
35.2901
93.3608
439.025
3157.51
2.09324
1.92805
1.79976
1.71355
1.65764
1.62271
1.6033
1.59453
1.59175
1.59393
1.60148
1.61124
1.62332
1.63701
1.65202
1.66824
1.68556
1.70402
1.72365
1.74451
1.76673
1.79039
1.81565
1.84255
1.87147
2.30319
2.58251
2.9548
3.43901
4.09802
5.0286
6.61517
8.89794
11.8098
15.0409
18.0942
20.3873
21.4141
20.9842
19.5633
17.6866
15.6509
13.6829
11.9228
10.4321
9.16594
8.24066
7.65723
7.33338
7.26248
7.48688
8.15425
9.65059
12.7045
19.1757
35.2998
93.6815
442.754
3187.62
2.31404
2.08546
1.90607
1.7845
1.70401
1.6517
1.6192
1.60159
1.5938
1.59151
1.59469
1.60228
1.61239
1.62446
1.63818
1.65311
1.66926
1.6865
1.70487
1.7244
1.74516
1.76726
1.79081
1.81581
1.84255
1.87147
2.60266
2.99022
3.50346
4.21143
5.24898
7.08839
9.82267
13.4233
17.5968
21.8166
25.395
27.6273
28.0066
26.5023
23.9106
20.9827
18.0763
15.4275
13.1569
11.2956
9.76001
8.65691
7.96111
7.562
7.43725
7.62525
8.25671
9.7116
12.7344
19.1833
35.3115
94.0493
446.763
3220.43
2.62062
2.30383
2.05341
1.88387
1.77035
1.6949
1.64601
1.6159
1.60001
1.59316
1.59138
1.59552
1.60314
1.61354
1.62559
1.63931
1.65418
1.67026
1.68742
1.70569
1.72513
1.74578
1.76778
1.79102
1.81581
1.84255
1.87147
3.0237
3.56468
4.32117
5.47332
7.57721
10.7867
15.1224
20.3277
25.876
31.0116
34.8596
36.6308
35.893
32.8705
28.77
24.5679
20.6558
17.2494
14.4264
12.1721
10.3551
9.06843
8.25804
7.78326
7.60505
7.75745
8.34199
9.76384
12.7677
19.1928
35.3281
94.4452
451.232
3256.69
3.05313
2.60743
2.25717
2.02147
1.86328
1.75682
1.68614
1.64058
1.6128
1.59855
1.59262
1.59135
1.59638
1.60407
1.61465
1.62671
1.64041
1.65523
1.67123
1.68831
1.70649
1.72583
1.74638
1.76804
1.79102
1.81581
1.84255
1.87147
3.62309
4.42795
5.70123
8.07554
11.776
16.8803
23.1864
30.1935
37.118
42.9631
46.6846
47.4702
45.0595
40.0344
34.0806
28.3914
23.3523
19.1237
15.7158
13.0526
10.9465
9.47296
8.54701
7.99675
7.76583
7.86639
8.41496
9.8216
12.805
19.2048
35.3482
94.903
456.047
3296.2
3.67394
3.03573
2.5394
2.2114
1.99182
1.84354
1.74375
1.67771
1.63539
1.60988
1.59722
1.59219
1.59145
1.59723
1.60503
1.61574
1.62782
1.64148
1.65626
1.67218
1.68918
1.70726
1.72652
1.74668
1.76804
1.79102
1.81581
1.84255
1.87147
4.53247
5.93001
8.57714
12.7773
18.6717
26.1273
34.6905
43.585
51.7486
57.9441
60.9957
60.1537
55.4462
47.9137
39.7714
32.4
26.1294
21.0272
17.0109
13.929
11.5301
9.86858
8.82719
8.20212
7.89945
7.95908
8.49552
9.88557
12.8469
19.2197
35.3759
95.3965
461.454
3339.97
4.62458
3.65144
2.93497
2.47379
2.16891
1.96337
1.82445
1.73113
1.66962
1.63045
1.60717
1.59602
1.59189
1.59172
1.59802
1.60603
1.61679
1.62891
1.64252
1.65726
1.6731
1.69003
1.70802
1.72686
1.74668
1.76804
1.79102
1.81581
1.84255
1.87143
6.15721
9.07783
13.7784
20.4727
29.1076
39.2917
50.2843
61.0093
70.1159
76.1404
77.834
74.6216
66.949
56.4078
45.7647
36.5406
28.9534
22.9392
18.2995
14.7943
12.1022
10.2536
9.09781
8.37318
8.01374
8.0609
8.58457
9.95656
12.8941
19.2384
35.409
95.9554
467.289
3387.55
4.59463
6.35821
3.49706
2.8401
2.41286
2.12812
1.93583
1.80598
1.71897
1.66185
1.62575
1.60469
1.59496
1.59166
1.59223
1.59878
1.60705
1.61782
1.62998
1.64353
1.65824
1.67399
1.69085
1.70839
1.72686
1.74668
1.76804
1.79102
1.81581
1.84245
1.87136
9.57325
14.7687
22.2619
32.0875
43.9277
57.0958
70.5417
82.8784
92.4643
97.6341
97.1491
90.7466
79.4268
65.4008
51.9803
40.7623
31.7936
24.8414
19.5709
15.6426
12.6599
10.6266
9.324
8.51973
8.13995
8.17295
8.68311
10.0355
12.9473
19.2614
35.4533
96.5434
473.892
3440.41
4.34056
6.32963
10.0111
3.35676
2.75214
2.35439
2.08865
1.90918
1.78816
1.70728
1.65443
1.62128
1.60246
1.59404
1.59136
1.59288
1.59953
1.60807
1.61882
1.63104
1.64452
1.65919
1.67487
1.69126
1.70839
1.72686
1.74668
1.76804
1.79102
1.81565
1.84225
1.87129
15.7381
24.021
35.0325
48.5365
63.9128
80.1614
95.9195
109.484
118.919
122.394
118.797
108.342
92.7094
74.7686
58.3391
45.0181
34.6227
26.7182
20.8162
16.469
13.2006
10.939
9.51818
8.68184
8.27952
8.29646
8.79229
10.1234
13.0076
19.2903
35.5054
97.2193
481.026
3497.62
4.11772
5.88162
10.002
16.596
3.22799
2.66781
2.29789
2.05047
1.88344
1.77099
1.69607
1.64736
1.6171
1.60049
1.59328
1.59112
1.59359
1.60027
1.60908
1.61982
1.63207
1.64549
1.66012
1.67529
1.69126
1.70838
1.72686
1.74668
1.76804
1.7908
1.81533
1.84204
1.87122
25.7333
37.9142
53.0666
70.6446
89.7121
108.966
126.735
140.985
149.476
150.274
142.547
127.169
106.607
84.3855
64.7662
49.2654
37.4168
28.5569
22.0287
17.2697
13.6536
11.2075
9.73343
8.86147
8.43412
8.43285
8.91339
10.2214
13.0761
19.3255
35.5735
97.9325
489.171
3561.4
3.91723
5.49082
9.18641
16.6509
27.2573
3.10525
2.58647
2.24331
2.0136
1.85865
1.75451
1.68536
1.64071
1.61334
1.59882
1.59264
1.591
1.59433
1.60104
1.61008
1.6208
1.63307
1.64645
1.66058
1.67529
1.69126
1.70838
1.72686
1.74668
1.76778
1.79038
1.815
1.84183
1.87114
40.7076
57.4779
77.2195
99.0681
121.797
143.824
163.164
177.408
184.002
181.013
168.092
146.956
120.923
94.1304
71.1929
53.4665
40.1567
30.3471
23.2026
17.94
14.0431
11.5055
9.97241
9.06085
8.60564
8.58375
9.04794
10.3311
13.154
19.3694
35.6532
98.7671
497.964
3629.94
3.72966
5.14
8.4584
15.2845
27.4759
43.2019
2.98736
2.50804
2.19068
1.97811
1.83484
1.73874
1.67525
1.63465
1.61007
1.59738
1.59214
1.59097
1.59508
1.60182
1.61106
1.62176
1.63407
1.64691
1.66058
1.67528
1.69126
1.70839
1.72686
1.74638
1.76726
1.78994
1.81466
1.84161
1.87106
61.7354
83.5859
108.137
134.246
160.446
184.895
205.247
218.644
222.232
214.245
195.063
167.408
135.463
103.89
77.558
57.5904
42.8262
32.0806
24.1848
18.5158
14.4751
11.8366
10.2382
9.28251
8.79625
8.75104
9.19764
10.4539
13.2431
19.4229
35.7558
99.6526
508.124
3706.65
3.55253
4.81445
7.79675
14.0191
25.3827
43.7265
65.5397
2.87413
2.43261
2.1401
1.94405
1.81207
1.72384
1.66601
1.62928
1.6072
1.59615
1.59177
1.59106
1.59582
1.60262
1.61202
1.62273
1.63456
1.64689
1.66058
1.67528
1.69126
1.70839
1.72651
1.74577
1.76672
1.78949
1.81432
1.84139
1.87098
89.6994
116.859
146.203
176.391
205.769
232.213
252.905
264.455
263.776
249.515
223.051
188.23
150.043
113.563
83.81
61.611
45.4124
33.5311
25.0282
19.1542
14.9551
12.2051
10.5341
9.52935
9.00843
8.9369
9.36449
10.5919
13.3449
19.4893
35.8762
100.709
519.03
3788.23
3.38512
4.51021
7.17932
12.8329
23.4097
40.7294
66.5465
95.1518
2.76555
2.36032
2.09165
1.91152
1.79054
1.71018
1.65773
1.6245
1.6047
1.59511
1.59152
1.59126
1.59653
1.60345
1.613
1.6232
1.63454
1.64689
1.66058
1.67529
1.69126
1.70801
1.72582
1.74514
1.76616
1.78903
1.81396
1.84116
1.8709
125.183
157.609
191.538
225.526
257.754
285.712
305.95
314.473
308.122
286.297
251.634
209.137
164.498
123.064
89.906
65.5075
47.5771
34.7766
25.963
19.8627
15.4888
12.6155
10.8641
9.80468
9.24505
9.14383
9.55074
10.747
13.4622
19.57
36.0297
101.839
531.851
3895.51
3.22706
4.22669
6.59962
11.7051
21.5223
37.877
62.4795
96.8265
132.573
2.66171
2.29132
2.04545
1.88079
1.77079
1.69792
1.65033
1.62026
1.60252
1.59424
1.59135
1.59162
1.59722
1.60434
1.61346
1.62316
1.63454
1.64689
1.66058
1.67529
1.69085
1.70725
1.72511
1.74449
1.7656
1.78855
1.8136
1.84092
1.87081
168.415
205.842
244.044
281.551
316.317
345.257
364.09
368.2
354.661
324.026
280.392
229.867
178.685
132.321
95.8114
68.7687
49.4363
36.1571
27
20.65
16.083
13.0733
11.2326
10.1123
9.50933
9.37471
9.75917
10.9221
13.5969
19.67
36.2113
103.206
547.843
4026.72
3.07793
3.96403
6.05788
10.6295
19.691
35.1107
58.6028
91.5329
135.074
177.93
2.56279
2.22577
2.00189
1.85264
1.75306
1.68692
1.64371
1.61647
1.60068
1.59351
1.59116
1.5921
1.59799
1.60475
1.6134
1.62316
1.63454
1.64689
1.66058
1.67486
1.69001
1.70646
1.72438
1.74383
1.76501
1.78807
1.81322
1.84068
1.87072
219.272
261.316
303.496
344.32
381.356
410.672
426.93
425.019
402.706
362.125
308.933
250.197
192.486
141.276
100.75
71.5693
51.4969
37.6886
28.1517
21.5254
16.7448
13.5843
11.6446
10.4564
9.80501
9.63287
9.99244
11.1194
13.7532
19.7912
36.4409
104.975
569.264
4160.37
2.937
3.72281
5.55584
9.60939
17.9052
32.3887
54.8146
86.5203
128.392
181.347
230.951
2.4691
2.16419
1.96206
1.82738
1.73713
1.67705
1.63778
1.61309
1.5991
1.5929
1.59101
1.59277
1.5983
1.60468
1.6134
1.62316
1.63454
1.64691
1.66012
1.67398
1.68916
1.70566
1.72363
1.74315
1.76442
1.78757
1.81284
1.84043
1.87063
277.353
323.653
369.64
413.725
452.819
481.756
493.972
484.197
451.518
400.033
336.915
269.939
205.809
148.752
104.988
74.6723
53.7828
39.3893
29.4317
22.4996
17.4827
14.1551
12.1055
10.8417
10.1363
9.92212
10.2552
11.3445
13.9342
19.9419
36.7664
107.373
592.406
4295.51
2.80374
3.50545
5.09443
8.65425
16.166
29.6915
51.0547
81.6159
122.159
173.078
235.259
291.051
2.38149
2.10807
1.92639
1.80471
1.72283
1.6682
1.63248
1.6101
1.59775
1.59242
1.59113
1.59306
1.59815
1.60469
1.6134
1.62316
1.63456
1.64644
1.65917
1.67307
1.68828
1.70484
1.72286
1.74246
1.76381
1.78706
1.81244
1.84018
1.87054
342.108
392.464
442.338
489.866
530.818
558.32
564.611
544.902
500.352
437.251
364.054
288.946
216.899
155.158
109.679
78.1128
56.3208
41.2792
30.8555
23.5844
18.3057
14.793
12.6215
11.2737
10.5078
10.2466
10.5483
11.6009
14.1464
20.1582
37.2463
110.136
618.126
4430.29
2.67914
3.30759
4.67319
7.76655
14.4809
27.016
47.2874
76.7339
116.094
165.545
225.133
296.077
357.475
2.30212
2.05797
1.89446
1.78437
1.70999
1.66026
1.62775
1.60747
1.59661
1.59228
1.59105
1.59292
1.59814
1.60469
1.6134
1.6232
1.63406
1.64548
1.65821
1.67215
1.68739
1.70399
1.72207
1.74174
1.76318
1.78653
1.81204
1.83992
1.87045
412.999
467.529
521.76
573.17
615.666
640.16
638.096
606.228
548.507
473.352
390.122
304.717
226.381
162.234
114.873
81.9293
59.14
43.3807
32.4399
24.7927
19.2237
15.506
13.1993
11.758
10.9247
10.6119
10.8762
11.8937
14.4389
20.4757
37.8364
113.356
645.751
4564.2
2.56622
3.12751
4.29387
6.94799
12.8673
24.371
43.4981
71.814
110.079
158.309
216.192
283.699
362.875
429.494
2.23168
2.01324
1.86586
1.76612
1.69847
1.65315
1.62352
1.60521
1.596
1.59205
1.59074
1.59297
1.59814
1.60468
1.61346
1.62273
1.63306
1.6445
1.65723
1.6712
1.68647
1.70312
1.72127
1.74101
1.76253
1.78599
1.81162
1.83966
1.87036
489.679
548.983
608.504
664.42
707.803
726.929
713.508
667.263
595.365
507.996
411.685
318.164
236.825
170.049
120.624
86.1641
62.273
45.7185
34.2038
26.1389
20.2478
16.3028
13.846
12.301
11.3927
11.0235
11.2445
12.2886
14.8365
20.8606
38.5683
117.036
676.555
4695.13
2.46611
2.96696
3.95804
6.20454
11.3436
21.7739
39.6872
66.8197
104.02
151.214
207.779
273.179
347.67
434.773
506.617
2.16916
1.97329
1.84026
1.74975
1.68814
1.64676
1.61981
1.60374
1.59548
1.59167
1.59076
1.59297
1.59815
1.60475
1.61299
1.62174
1.63204
1.6435
1.65622
1.67023
1.68553
1.70223
1.72044
1.74026
1.76187
1.78544
1.81121
1.83941
1.87027
572.236
637.582
703.889
764.938
807.707
818.041
789.808
727.151
640.415
536.599
430.024
332.93
248.322
178.677
126.99
90.8626
65.755
48.3195
36.1676
27.6386
21.3897
17.1925
14.5694
12.9091
11.9178
11.4865
11.7353
12.8024
15.2902
21.3318
39.4537
121.365
709.58
4822.45
2.37762
2.82494
3.67134
5.54508
9.92873
19.248
35.8668
61.7322
97.8479
144.122
199.693
263.551
335.303
415.896
511.187
588.881
2.11361
1.93763
1.81735
1.73508
1.67884
1.64111
1.61719
1.60269
1.59496
1.59171
1.59076
1.59292
1.5983
1.60433
1.61201
1.62077
1.631
1.64248
1.65519
1.66923
1.68457
1.70132
1.71959
1.73948
1.7612
1.7849
1.81082
1.83917
1.87019
661.539
735.099
810.327
876.656
915.815
912.68
865.954
785.146
677.64
560.882
450.098
349.119
260.962
188.193
134.033
96.0738
69.6239
51.2127
38.3533
29.3083
22.6618
18.1848
15.3773
13.5895
12.5058
12.1034
12.3622
13.3666
15.8095
21.8938
40.5608
126.298
746.573
4943.65
2.29954
2.6984
3.4353
4.983
8.65387
16.8202
32.0592
56.5454
91.5126
136.926
191.745
254.564
324.361
401.297
487.412
592.113
677.277
2.06423
1.9058
1.79684
1.72188
1.67058
1.63695
1.61545
1.60195
1.59503
1.59171
1.59074
1.59306
1.59799
1.60343
1.61104
1.61978
1.62994
1.64144
1.65415
1.6682
1.68359
1.70038
1.71873
1.7387
1.76053
1.78437
1.81043
1.83894
1.87011
759.706
845.007
931.694
1002.14
1032.36
1010.08
940.941
833.359
709.249
587.404
472.023
366.833
274.831
198.673
141.816
101.849
73.9197
54.4292
40.7845
31.1658
24.0772
19.2895
16.2776
14.3479
13.2857
12.8841
13.0389
13.9841
16.395
22.5798
41.8918
132.163
786.263
5058.25
2.23067
2.58571
3.23671
4.51528
7.5492
14.5345
28.2966
51.2661
84.9734
129.532
183.782
245.965
314.527
388.853
470.074
561.703
678.72
774.487
2.0203
1.87739
1.7784
1.71015
1.66432
1.63431
1.61449
1.60206
1.59503
1.59166
1.59105
1.59277
1.59721
1.6026
1.61005
1.61879
1.62887
1.64037
1.65308
1.66715
1.68258
1.69942
1.71784
1.73792
1.75988
1.78386
1.81005
1.83871
1.87002
871.131
973.421
1074.14
1144.18
1158.52
1109.17
1004.22
874.451
743.773
616.293
495.905
386.162
290.014
210.189
150.402
108.239
78.6842
58.0011
43.4855
33.2291
25.649
20.5165
17.2773
15.3489
14.2633
13.7158
13.764
14.6524
17.0605
23.3892
43.5642
138.858
830.924
5163.55
2.16992
2.48576
3.06628
4.12936
6.61974
12.4834
24.6465
45.9165
78.2015
121.849
175.662
237.556
305.47
378.166
455.848
541.052
639.118
774.356
886.182
1.98122
1.85195
1.76202
1.70111
1.66045
1.63305
1.61464
1.60206
1.59496
1.59205
1.59113
1.59209
1.59651
1.60179
1.60905
1.61778
1.62778
1.63927
1.65199
1.66608
1.68156
1.69845
1.71697
1.73717
1.75925
1.78337
1.80969
1.83849
1.86995
1003.97
1131.5
1245.3
1311.21
1294.26
1194.96
1058.66
919.516
781.386
647.667
521.828
407.182
306.583
222.811
159.851
115.296
83.9587
61.961
46.4811
35.5166
27.3905
21.8745
18.591
16.5935
15.2941
14.5925
14.5329
15.3751
17.803
24.3724
45.5629
146.918
878.96
5259.73
2.11624
2.39754
2.91744
3.81202
5.84783
10.7107
21.2524
40.5741
71.1841
113.792
167.236
229.143
296.946
368.797
444.23
524.676
614.582
721.655
886.201
1024.69
1.94634
1.82939
1.74918
1.69563
1.6588
1.63327
1.61464
1.60195
1.59548
1.59229
1.59101
1.59161
1.5958
1.60101
1.60803
1.61675
1.62667
1.63815
1.65088
1.66497
1.68051
1.69748
1.71612
1.73644
1.75864
1.78289
1.80933
1.83828
1.86987
1174.83
1335.96
1474.14
1507.84
1415.75
1269.79
1119.01
968.891
822.271
681.628
549.86
429.949
324.592
236.595
170.217
123.067
89.7832
66.3405
49.7955
38.046
29.313
23.6528
20.2137
17.8948
16.3686
15.5064
15.3423
16.1447
18.6421
25.5175
48.0718
156.166
933.111
5344.03
2.0686
2.32
2.7857
3.55379
5.21332
9.20757
18.2061
35.4402
63.9808
105.285
158.347
220.522
288.712
360.452
434.628
511.98
595.635
692.625
814.912
1031.53
1214.56
1.91545
1.81153
1.74149
1.69352
1.65909
1.63327
1.61449
1.60269
1.59602
1.59242
1.59116
1.59125
1.59506
1.60024
1.60701
1.6157
1.62556
1.63699
1.64976
1.66385
1.67948
1.69655
1.71529
1.73574
1.75805
1.78242
1.80898
1.83807
1.8698
1419.11
1659.07
1774.4
1687.81
1523.13
1354.05
1186.16
1023.11
866.679
718.29
580.054
454.496
344.075
251.58
181.544
131.594
96.1933
71.1687
53.451
40.8327
31.8242
25.8389
21.9003
19.2406
17.4762
16.4498
16.1853
16.9672
19.5675
26.8973
51.0346
167.44
991.592
5418.13
2.02661
2.25182
2.66853
3.34148
4.69441
7.95163
15.514
30.6717
56.833
96.3275
148.828
211.458
280.515
352.84
426.688
502.149
581.637
670.673
780.293
931.874
1257.14
1526.15
1.89071
1.80103
1.73878
1.69393
1.65909
1.63305
1.61546
1.60377
1.59663
1.59292
1.59136
1.59106
1.59431
1.5995
1.606
1.61463
1.62444
1.63581
1.64862
1.66275
1.67848
1.69565
1.71449
1.73505
1.75747
1.78197
1.80865
1.83787
1.86972
1868.45
2106.65
2042.28
1847.5
1647.12
1450.35
1262
1083.1
915.041
757.816
612.455
480.83
365.04
267.786
193.858
140.906
103.217
76.4698
57.4654
44.4635
34.8998
28.1016
23.635
20.6175
18.6063
17.4142
17.0597
17.8364
20.6099
28.4824
54.7214
180.441
1057.1
5478.93
1.99273
2.19234
2.5643
3.16262
4.27298
6.91206
13.178
26.3117
49.9601
87.1562
138.581
201.687
272.059
345.673
420.066
494.748
571.515
655.05
754.957
889.785
1105.51
1712.68
2185.5
1.87626
1.79766
1.73933
1.69393
1.65879
1.63432
1.61722
1.60525
1.59778
1.59353
1.59153
1.59097
1.59356
1.59876
1.60501
1.61352
1.62332
1.63462
1.64749
1.66169
1.6775
1.69478
1.71371
1.73439
1.75691
1.78153
1.80832
1.83767
1.86969
2542.26
2536.48
2302.68
2050.37
1797.62
1567.6
1349.74
1150.8
968.184
800.49