/*--------------------------------*- C++ -*----------------------------------*\
  =========                 |
  \\      /  F ield         | OpenFOAM: The Open Source CFD Toolbox
   \\    /   O peration     | Website:  https://openfoam.org
    \\  /    A nd           | Version:  8
     \\/     M anipulation  |
\*---------------------------------------------------------------------------*/
FoamFile
{
    version     2.0;
    format      ascii;
    class       volScalarField;
    location    "0.09";
    object      k;
}
// * * * * * * * * * * * * * * * * * * * * * * * * * * * * * * * * * * * * * //

dimensions      [0 2 -2 0 0 0 0];

internalField   nonuniform List<scalar> 
15677
(
0.333994
0.364682
0.29434
0.368614
0.357021
0.280632
0.370641
0.359745
0.365645
0.282421
0.371857
0.361481
0.361176
0.383035
0.288665
0.372596
0.363665
0.35759
0.368114
0.401533
0.30016
0.373032
0.365622
0.357771
0.358023
0.379975
0.419284
0.311713
0.37326
0.367161
0.359419
0.354513
0.36094
0.39321
0.434704
0.322533
0.373348
0.368293
0.361331
0.354727
0.353002
0.366836
0.406109
0.447824
0.332041
0.373349
0.369076
0.363049
0.356311
0.351084
0.353453
0.373515
0.418218
0.458684
0.340425
0.373314
0.369565
0.364432
0.358201
0.351905
0.34876
0.354755
0.380653
0.429048
0.467826
0.34751
0.373274
0.369824
0.365456
0.359949
0.353699
0.348366
0.347129
0.35709
0.387619
0.43876
0.475339
0.353726
0.373248
0.369927
0.366144
0.36139
0.355652
0.349753
0.345342
0.34631
0.359684
0.394394
0.447171
0.481751
0.358907
0.373237
0.36994
0.366545
0.362474
0.357416
0.351714
0.346196
0.342919
0.345876
0.362579
0.40063
0.45462
0.487049
0.36357
0.373237
0.369922
0.366733
0.363208
0.358852
0.353677
0.348063
0.343089
0.340854
0.345888
0.365437
0.406474
0.46095
0.491601
0.367632
0.373238
0.369907
0.366791
0.363634
0.359911
0.355388
0.350149
0.344748
0.340285
0.339188
0.346019
0.368328
0.411638
0.466533
0.495381
0.371226
0.373239
0.369899
0.366792
0.363832
0.360604
0.356736
0.352082
0.34688
0.341693
0.337818
0.337733
0.346345
0.370994
0.416388
0.471168
0.498719
0.374517
0.37324
0.369896
0.366782
0.363889
0.360986
0.357691
0.353684
0.348979
0.343828
0.338925
0.335576
0.336521
0.34673
0.373596
0.420416
0.475238
0.501598
0.377319
0.37324
0.369894
0.366774
0.363897
0.361135
0.358278
0.354884
0.350799
0.346059
0.341021
0.336374
0.333592
0.33544
0.347236
0.375845
0.424036
0.478583
0.504135
0.380161
0.37324
0.369893
0.36677
0.363892
0.361179
0.358547
0.355677
0.352225
0.348069
0.343349
0.338417
0.334073
0.331774
0.334567
0.347658
0.377948
0.426982
0.481503
0.506487
0.382371
0.37324
0.369892
0.366767
0.363885
0.361185
0.358651
0.356077
0.353223
0.349701
0.345524
0.34083
0.336052
0.331954
0.330197
0.333761
0.348127
0.379654
0.42959
0.483892
0.508496
0.385018
0.37324
0.369891
0.366764
0.363879
0.361179
0.358683
0.356251
0.353769
0.35089
0.347347
0.343157
0.338532
0.333878
0.330089
0.328765
0.33312
0.348469
0.381198
0.431592
0.485967
0.510613
0.386775
0.37324
0.36989
0.366763
0.363875
0.361172
0.358686
0.356316
0.354031
0.351572
0.348725
0.345158
0.340994
0.336436
0.331965
0.32841
0.327566
0.332523
0.348815
0.38235
0.433379
0.487677
0.512283
0.389405
0.37324
0.369889
0.366762
0.363871
0.361166
0.35868
0.356333
0.354145
0.351918
0.349559
0.346707
0.343162
0.339046
0.334601
0.330262
0.327005
0.326515
0.332087
0.349055
0.383389
0.434611
0.48919
0.51442
0.390838
0.37324
0.369889
0.366761
0.363868
0.361161
0.358671
0.35633
0.354183
0.35208
0.350008
0.347668
0.344892
0.341391
0.337346
0.332996
0.328871
0.32583
0.325745
0.331717
0.349282
0.384063
0.435806
0.490422
0.515836
0.393476
0.37324
0.369888
0.36676
0.363865
0.361157
0.358662
0.356322
0.354188
0.352144
0.350234
0.348202
0.346013
0.343287
0.339847
0.335919
0.331754
0.327766
0.324977
0.325119
0.331501
0.349473
0.384729
0.436474
0.491708
0.518353
0.394868
0.37324
0.369888
0.36676
0.363863
0.361154
0.358655
0.356313
0.354178
0.352161
0.350331
0.348482
0.346666
0.34452
0.341927
0.33865
0.33486
0.330775
0.326986
0.324389
0.324905
0.331531
0.349727
0.385104
0.437317
0.49255
0.52001
0.505191
0.373241
0.369888
0.366759
0.363862
0.361151
0.358649
0.356304
0.354165
0.352157
0.350359
0.348613
0.347022
0.345244
0.343356
0.340929
0.337723
0.334078
0.330314
0.326767
0.324401
0.325004
0.331684
0.349974
0.385542
0.437696
0.494463
0.52871
0.713766
0.373241
0.369887
0.366759
0.36386
0.361149
0.358644
0.356297
0.354151
0.352145
0.350355
0.348663
0.347192
0.345654
0.344237
0.342442
0.340185
0.337369
0.334077
0.330424
0.326962
0.324652
0.325341
0.332037
0.350348
0.385862
0.438518
0.494977
0.54557
0.892606
0.373241
0.369887
0.366758
0.363859
0.361147
0.35864
0.356291
0.35414
0.35213
0.350338
0.348671
0.347255
0.345871
0.344748
0.343363
0.342006
0.340216
0.337562
0.334397
0.3309
0.327548
0.325292
0.326044
0.332724
0.350867
0.386265
0.439116
0.494691
0.558653
1.03822
0.373241
0.369887
0.366758
0.363859
0.361146
0.358637
0.356286
0.35413
0.352117
0.350317
0.348658
0.347262
0.345968
0.345002
0.343917
0.343182
0.342167
0.340593
0.338196
0.335246
0.331949
0.328749
0.326535
0.327256
0.333756
0.351584
0.386891
0.438862
0.493228
0.568506
1.16545
0.373241
0.369887
0.366758
0.363858
0.361145
0.358634
0.356282
0.354122
0.352106
0.350298
0.348637
0.347242
0.345996
0.345106
0.344253
0.343911
0.343431
0.342754
0.341535
0.339523
0.336912
0.333845
0.330689
0.328418
0.328932
0.335182
0.352603
0.38741
0.437977
0.490151
0.575331
1.26981
0.373241
0.369887
0.366758
0.363857
0.361144
0.358632
0.356278
0.354116
0.352096
0.350281
0.348616
0.347213
0.345987
0.345131
0.344422
0.344298
0.344225
0.344171
0.344003
0.343371
0.341802
0.339492
0.336554
0.333393
0.330932
0.331157
0.337036
0.35387
0.387866
0.436152
0.484837
0.579902
1.34774
0.373241
0.369887
0.366758
0.363857
0.361143
0.35863
0.356275
0.35411
0.352087
0.350267
0.348596
0.347184
0.345961
0.345114
0.344486
0.344493
0.344684
0.345082
0.345676
0.346254
0.34621
0.345074
0.343032
0.340187
0.336899
0.334174
0.333939
0.339356
0.355393
0.388003
0.433064
0.478208
0.582822
1.4079
0.373241
0.369887
0.366758
0.363856
0.361142
0.358629
0.356273
0.354106
0.35208
0.350255
0.348579
0.347158
0.34593
0.345079
0.344491
0.344573
0.344928
0.34564
0.346791
0.348226
0.349559
0.350167
0.349463
0.347662
0.344803
0.341316
0.338155
0.337342
0.342129
0.357112
0.387907
0.428989
0.471572
0.585329
1.4563
0.369887
0.373245
0.366758
0.363856
0.361142
0.358627
0.35627
0.354102
0.352073
0.350245
0.348564
0.347135
0.3459
0.345041
0.344465
0.344588
0.34504
0.345957
0.34751
0.349578
0.351907
0.354099
0.355395
0.355117
0.353467
0.350526
0.346666
0.342957
0.341334
0.345354
0.359306
0.387616
0.424808
0.465353
0.587737
1.49686
0.366758
0.369897
0.373252
0.363856
0.361141
0.358626
0.356268
0.354098
0.352068
0.350236
0.34855
0.347116
0.345874
0.345005
0.344428
0.344568
0.345077
0.346124
0.347952
0.350487
0.353569
0.356922
0.360052
0.362067
0.362148
0.360587
0.357388
0.353045
0.348545
0.345951
0.349336
0.362014
0.387261
0.42076
0.459756
0.590576
1.53219
0.363856
0.366774
0.369918
0.37326
0.361141
0.358625
0.356267
0.354096
0.352063
0.350229
0.348539
0.347099
0.34585
0.344973
0.344392
0.344536
0.345074
0.346203
0.348215
0.351086
0.354735
0.358987
0.363478
0.36762
0.37033
0.370717
0.369072
0.365506
0.360419
0.354962
0.351767
0.354288
0.365095
0.386944
0.416982
0.454862
0.59361
1.56382
0.36114
0.363877
0.366808
0.369939
0.373267
0.358624
0.356265
0.354093
0.352059
0.350223
0.348529
0.347084
0.34583
0.344945
0.344358
0.344502
0.345054
0.346233
0.348371
0.351484
0.355558
0.360501
0.366065
0.371803
0.37698
0.380365
0.380898
0.379059
0.374845
0.368846
0.362974
0.359112
0.359771
0.368383
0.387001
0.413636
0.450673
0.597173
1.59284
0.358624
0.361167
0.363922
0.366843
0.369961
0.373275
0.356264
0.354091
0.352055
0.350217
0.34852
0.347072
0.345811
0.34492
0.344327
0.34447
0.34503
0.34624
0.348465
0.351761
0.356158
0.361637
0.368047
0.375064
0.382108
0.388345
0.392276
0.392849
0.390521
0.385492
0.379329
0.37303
0.367284
0.365742
0.372118
0.387293
0.410653
0.447111
0.600834
1.61973
0.356263
0.358655
0.361223
0.363968
0.366878
0.369984
0.373284
0.354089
0.352052
0.350212
0.348512
0.347061
0.345796
0.344898
0.344301
0.344441
0.345006
0.346239
0.348524
0.351961
0.356623
0.36253
0.36962
0.377668
0.386229
0.394639
0.401849
0.406247
0.406553
0.403572
0.398708
0.392443
0.384184
0.376203
0.372117
0.375967
0.387919
0.408211
0.444032
0.604895
1.64505
0.354087
0.356299
0.358719
0.36128
0.364015
0.366915
0.370007
0.373292
0.35205
0.350208
0.348506
0.347052
0.345781
0.34488
0.344278
0.344416
0.344985
0.346235
0.348569
0.352115
0.356998
0.363279
0.370935
0.37984
0.389657
0.399859
0.409574
0.417715
0.422282
0.422152
0.419759
0.415225
0.406958
0.396323
0.385767
0.378948
0.379958
0.388961
0.406224
0.441488
0.608907
1.66881
0.352048
0.354125
0.356371
0.358785
0.361338
0.364064
0.366952
0.370031
0.373301
0.350205
0.3485
0.347044
0.345769
0.344865
0.344258
0.344395
0.344967
0.346232
0.348606
0.352244
0.35731
0.363923
0.372104
0.381751
0.392642
0.404363
0.416183
0.427199
0.435983
0.440566
0.441502
0.43998
0.433479
0.422723
0.409324
0.395897
0.386148
0.384123
0.390283
0.404678
0.439321
0.613183
1.69141
0.350201
0.352088
0.354205
0.356446
0.358853
0.361398
0.364114
0.36699
0.370056
0.37331
0.348495
0.347038
0.345758
0.344851
0.34424
0.344376
0.344951
0.34623
0.348639
0.352358
0.357583
0.364485
0.373159
0.383528
0.395381
0.408439
0.422077
0.435549
0.447598
0.456922
0.463305
0.465714
0.462319
0.453278
0.439575
0.423062
0.406502
0.393639
0.38845
0.391872
0.40356
0.437598
0.617294
1.71266
0.348491
0.350243
0.352174
0.354286
0.356523
0.358923
0.36146
0.364165
0.36703
0.370081
0.373319
0.347031
0.345748
0.34484
0.344225
0.34436
0.344938
0.346229
0.34867
0.352462
0.357829
0.364988
0.374107
0.385188
0.398021
0.412317
0.427596
0.443231
0.458095
0.471116
0.483108
0.491914
0.492525
0.48656
0.474417
0.457346
0.4374
0.417477
0.401354
0.392914
0.393557
0.402827
0.436156
0.621568
1.73295
0.347026
0.348533
0.350332
0.352261
0.35437
0.356602
0.358995
0.361523
0.364218
0.36707
0.370107
0.373328
0.34574
0.344831
0.344211
0.344346
0.344926
0.346229
0.348698
0.352557
0.358053
0.365446
0.374971
0.386711
0.400557
0.416171
0.433013
0.450653
0.468038
0.484286
0.500701
0.516292
0.52382
0.521746
0.512475
0.496691
0.475852
0.452193
0.428722
0.409221
0.397528
0.395343
0.402376
0.435057
0.6256
1.75195
0.345732
0.347066
0.348622
0.350423
0.352352
0.354457
0.356684
0.359068
0.361588
0.364272
0.367112
0.370133
0.373338
0.344823
0.344198
0.344333
0.344917
0.34623
0.348726
0.352644
0.358258
0.365868
0.375767
0.388119
0.40293
0.419962
0.438533
0.458145
0.477923
0.497121
0.517481
0.538528
0.553582
0.558814
0.553155
0.539849
0.519884
0.494911
0.467303
0.440137
0.417182
0.40224
0.397223
0.402193
0.434153
0.62973
1.77013
0.344817
0.345766
0.347152
0.348714
0.350517
0.352445
0.354546
0.356768
0.359144
0.361655
0.364327
0.367155
0.37016
0.373347
0.344186
0.344322
0.344908
0.346232
0.348751
0.352724
0.358446
0.366255
0.376502
0.389428
0.405154
0.423566
0.444073
0.465972
0.488164
0.510233
0.53431
0.5604
0.581473
0.594855
0.596675
0.586502
0.568452
0.543783
0.514343
0.482592
0.451627
0.425176
0.407008
0.399177
0.402238
0.433516
0.63357
1.78706
0.344176
0.344844
0.345841
0.347241
0.34881
0.350614
0.352542
0.354637
0.356854
0.359222
0.361724
0.364384
0.367199
0.370187
0.373356
0.344312
0.344901
0.346234
0.348775
0.352798
0.358618
0.36661
0.377179
0.390644
0.407241
0.426979
0.449423
0.474001
0.499092
0.524152
0.551989
0.583055
0.609757
0.629569
0.639982
0.637177
0.621513
0.598032
0.568179
0.533985
0.497937
0.463107
0.433151
0.411791
0.401197
0.402374
0.433018
0.637474
1.80328
0.344306
0.344177
0.344906
0.345917
0.347334
0.348909
0.350714
0.352641
0.354732
0.356943
0.359302
0.361795
0.364442
0.367242
0.370213
0.373365
0.344894
0.346235
0.348796
0.352865
0.358775
0.366936
0.377802
0.391772
0.409193
0.430207
0.454561
0.481883
0.510482
0.53934
0.571269
0.607635
0.640027
0.665913
0.682931
0.688884
0.680096
0.65792
0.628348
0.592888
0.553687
0.513227
0.474499
0.441054
0.416557
0.403257
0.402632
0.432746
0.641058
1.81828
0.344892
0.34429
0.344186
0.344969
0.346
0.34743
0.349013
0.350817
0.352744
0.354828
0.357035
0.359384
0.361867
0.3645
0.367284
0.370239
0.373374
0.346236
0.348815
0.352927
0.358919
0.367233
0.378374
0.392815
0.411013
0.43325
0.459478
0.489535
0.521803
0.555551
0.592873
0.635281
0.674003
0.706264
0.729562
0.741878
0.741559
0.725244
0.695481
0.659169
0.617734
0.573318
0.528365
0.485735
0.448844
0.421274
0.405357
0.402975
0.432548
0.644691
1.83268
0.346243
0.344846
0.344258
0.344197
0.345037
0.346089
0.347529
0.349121
0.350923
0.35285
0.354928
0.357129
0.359468
0.361939
0.364556
0.367325
0.370263
0.373382
0.34883
0.352981
0.359049
0.367505
0.378897
0.393775
0.412702
0.436106
0.464157
0.496912
0.532944
0.572086
0.616481
0.66717
0.713678
0.753607
0.783782
0.801982
0.806986
0.798112
0.772484
0.733988
0.690294
0.642556
0.592761
0.543267
0.496759
0.45648
0.425919
0.407474
0.403382
0.432518
0.647985
1.84592
0.348853
0.346152
0.344741
0.344221
0.344224
0.345107
0.346184
0.347632
0.349232
0.351033
0.352959
0.355031
0.357225
0.359552
0.362009
0.364611
0.367364
0.370287
0.37339
0.353029
0.359166
0.367752
0.379376
0.394658
0.414265
0.438775
0.468583
0.503985
0.543871
0.588738
0.640893
0.703113
0.761732
0.812124
0.851125
0.875703
0.884852
0.878948
0.858683
0.821697
0.773254
0.721547
0.667214
0.611918
0.557865
0.507521
0.463932
0.43047
0.409592
0.403837
0.43255
0.651331
1.85865
0.353084
0.348686
0.345933
0.344628
0.344184
0.344269
0.345178
0.346285
0.347738
0.349348
0.351145
0.353072
0.355136
0.35732
0.359633
0.362076
0.364664
0.367403
0.370311
0.373398
0.359269
0.367975
0.379813
0.395468
0.415708
0.44126
0.472747
0.510732
0.554533
0.605318
0.665672
0.741975
0.819707
0.887935
0.939475
0.972246
0.985117
0.979585
0.958246
0.923305
0.872742
0.813102
0.752772
0.691586
0.630709
0.572101
0.517982
0.471173
0.434909
0.411691
0.404336
0.43263
0.654331
1.86886
0.35938
0.352828
0.348275
0.345703
0.344529
0.344145
0.344329
0.345252
0.346393
0.347848
0.349468
0.351262
0.353187
0.35524
0.357413
0.359712
0.362142
0.364715
0.36744
0.370333
0.373406
0.368174
0.380208
0.39621
0.417036
0.443566
0.47665
0.51714
0.564859
0.621629
0.690757
0.784134
0.88714
0.984693
1.05855
1.10297
1.12044
1.11339
1.08653
1.04481
0.99177
0.925399
0.853347
0.783827
0.715565
0.649063
0.585931
0.528115
0.478183
0.439221
0.413761
0.404859
0.432782
0.65697
1.87747
0.368376
0.359004
0.352161
0.347847
0.345497
0.34444
0.34411
0.344399
0.345329
0.346506
0.347962
0.349592
0.351382
0.353301
0.355342
0.357503
0.359789
0.362206
0.364765
0.367477
0.370355
0.373414
0.380564
0.396883
0.418256
0.4457
0.480295
0.523199
0.574784
0.637546
0.716298
0.830083
0.963821
1.09885
1.21031
1.2783
1.30336
1.29484
1.25929
1.20462
1.13786
1.06357
0.979352
0.893788
0.81458
0.739064
0.666923
0.59932
0.537894
0.484946
0.443394
0.41579
0.405407
0.432942
0.659105
1.88676
0.380913
0.367847
0.357974
0.35147
0.347454
0.345308
0.344359
0.344082
0.344478
0.345412
0.346624
0.348081
0.349719
0.351501
0.353412
0.355441
0.35759
0.359864
0.362268
0.364814
0.367512
0.370377
0.373421
0.397496
0.41937
0.447671
0.483691
0.528904
0.58426
0.653029
0.742464
0.87963
1.04799
1.22542
1.38304
1.49419
1.54195
1.53518
1.49085
1.41942
1.33159
1.23604
1.13793
1.0342
0.934203
0.844902
0.762004
0.684244
0.61224
0.547303
0.491451
0.44742
0.417768
0.405889
0.433106
0.661496
1.89691
0.398078
0.38019
0.366308
0.356911
0.350827
0.347086
0.345131
0.344286
0.344064
0.344563
0.345501
0.346746
0.348205
0.349845
0.351618
0.35352
0.355538
0.357675
0.359937
0.362328
0.364862
0.367546
0.370398
0.373424
0.420392
0.449484
0.486847
0.534255
0.593272
0.668091
0.769276
0.931867
1.13666
1.35855
1.56622
1.72996
1.82521
1.83936
1.79016
1.70219
1.58937
1.4646
1.33763
1.21391
1.08946
0.974359
0.874672
0.784321
0.700988
0.624672
0.556332
0.49769
0.451291
0.419434
0.406321
0.433303
0.664043
1.90793
0.421338
0.397118
0.377942
0.36473
0.355916
0.350216
0.346739
0.344967
0.344223
0.344058
0.344653
0.345598
0.346871
0.34833
0.349968
0.351733
0.353625
0.355632
0.357758
0.360007
0.362387
0.364908
0.36758
0.370408
0.373424
0.451157
0.489768
0.539257
0.60182
0.682751
0.796569
0.985535
1.22679
1.4929
1.75153
1.97169
2.12547
2.19091
2.16011
2.06
1.9226
1.76471
1.60069
1.44083
1.2905
1.14463
1.01402
0.903779
0.805961
0.717125
0.636604
0.564975
0.503658
0.454514
0.420874
0.406812
0.433566
0.666925
1.92004
0.452677
0.420094
0.393891
0.375655
0.363247
0.354964
0.349631
0.346412
0.344815
0.344172
0.344063
0.344745
0.345704
0.346996
0.348453
0.350087
0.351844
0.353727
0.355724
0.357838
0.360076
0.362444
0.364953
0.367596
0.370408
0.373424
0.492481
0.543921
0.609918
0.697012
0.824058
1.03939
1.31594
1.6246
1.933
2.21024
2.42699
2.55684
2.58046
2.4952
2.33756
2.14668
1.94153
1.73723
1.54399
1.36674
1.19924
1.05295
0.932117
0.826873
0.732637
0.648027
0.573227
0.508604
0.457274
0.422478
0.407386
0.43388
0.669979
1.93319
0.494903
0.451078
0.415512
0.390634
0.3735
0.361821
0.354047
0.349071
0.346105
0.344677
0.344132
0.344085
0.344838
0.345815
0.347117
0.348575
0.350204
0.351954
0.353826
0.355813
0.357916
0.360143
0.362499
0.364975
0.367596
0.370408
0.373424
0.548284
0.617588
0.710863
0.851417
1.0924
1.40239
1.75117
2.10691
2.43963
2.72013
2.91984
3.01351
2.98486
2.83722
2.61706
2.37009
2.11672
1.87205
1.64567
1.44178
1.25283
1.09096
0.959591
0.847023
0.747511
0.65894
0.580056
0.512827
0.460326
0.424272
0.408043
0.434284
0.673454
1.94768
0.552132
0.492867
0.444624
0.41093
0.38756
0.371423
0.360443
0.353163
0.348533
0.345822
0.34455
0.3441
0.344132
0.344929
0.345929
0.347235
0.348695
0.350317
0.35206
0.353923
0.3559
0.357992
0.360208
0.362526
0.364975
0.367596
0.370408
0.373424
0.62488
0.724292
0.878344
1.14379
1.48505
1.87122
2.27122
2.65634
2.9986
3.2693
3.43994
3.48652
3.39655
3.18017
2.89392
2.58949
2.28786
2.00346
1.74477
1.51493
1.30504
1.12784
0.986125
0.866381
0.761737
0.667973
0.585881
0.517482
0.463707
0.42628
0.408819
0.43476
0.677138
1.96339
0.631317
0.549528
0.483791
0.438236
0.406602
0.384593
0.369411
0.359111
0.352312
0.348018
0.345559
0.344435
0.344064
0.344199
0.345016
0.346044
0.34735
0.348812
0.350427
0.352164
0.354017
0.355984
0.358066
0.360241
0.362526
0.364975
0.367596
0.370408
0.373424
0.737297
0.904602
1.19301
1.56329
1.98404
2.42494
2.85859
3.25872
3.59806
3.84749
3.97824
3.96803
3.80909
3.51912
3.16462
2.8024
2.45322
2.13023
1.84042
1.58563
1.35554
1.16347
1.01166
0.884927
0.773523
0.67568
0.592295
0.522621
0.467459
0.428538
0.409709
0.435362
0.681368
1.98074
0.748824
0.628012
0.536635
0.474916
0.432193
0.402418
0.381712
0.367459
0.357824
0.351495
0.347528
0.345316
0.344333
0.344029
0.344277
0.345103
0.346159
0.347463
0.348927
0.350535
0.352265
0.354108
0.356067
0.358103
0.360241
0.362526
0.364975
0.367596
0.370408
0.373421
0.929994
1.23974
1.63676
2.08934
2.56774
3.04568
3.49871
3.90182
4.22745
4.44537
4.52648
4.451
4.21696
3.85012
3.4265
3.00705
2.6116
2.25155
1.93205
1.65349
1.40409
1.19771
1.03614
0.900312
0.783586
0.684169
0.599368
0.528302
0.471633
0.431078
0.410766
0.436015
0.685851
1.9995
0.744766
0.952333
0.608893
0.524293
0.466507
0.426346
0.39835
0.378914
0.365571
0.356584
0.350712
0.347067
0.345097
0.344247
0.344006
0.344361
0.345191
0.346273
0.347575
0.34904
0.35064
0.352364
0.354197
0.356107
0.358103
0.360241
0.362526
0.364975
0.367596
0.370398
0.373413
1.28376
1.7054
2.1871
2.69968
3.21764
3.71808
4.17855
4.57446
4.87701
5.05422
5.07699
4.92911
4.61547
4.17004
3.67758
3.20224
2.76226
2.36688
2.01926
1.71824
1.45055
1.23049
1.05645
0.913455
0.794676
0.693534
0.60718
0.534594
0.476284
0.433949
0.411981
0.436791
0.691043
2.02025
0.714734
0.948271
1.3217
0.591157
0.512629
0.458363
0.420658
0.394395
0.376202
0.363747
0.355393
0.349969
0.346641
0.344904
0.344175
0.343995
0.344446
0.34528
0.346385
0.347684
0.34915
0.350742
0.35246
0.354241
0.356107
0.358103
0.360241
0.362526
0.364975
0.36758
0.370377
0.373406
1.76916
2.27752
2.82107
3.37488
3.91722
4.42796
4.886
5.26622
5.53756
5.66585
5.62266
5.39676
5.0007
4.47645
3.91651
3.38723
2.90474
2.47593
2.10186
1.77973
1.49479
1.25763
1.0738
0.92795
0.806916
0.703881
0.615824
0.541576
0.481479
0.437195
0.413428
0.437647
0.696544
2.04259
0.6872
0.900566
1.31782
1.82354
0.574662
0.501326
0.45044
0.415127
0.390559
0.37358
0.361993
0.354254
0.349271
0.34626
0.344738
0.34412
0.343996
0.344532
0.345371
0.346494
0.347792
0.349257
0.350843
0.352507
0.354241
0.356107
0.358103
0.360241
0.362526
0.364952
0.367546
0.370355
0.373398
2.36081
2.93242
3.51813
4.09707
4.65092
5.16196
5.6098
5.96749
6.20052
6.2725
6.15698
5.84909
5.36953
4.76764
4.14246
3.56163
3.03887
2.57861
2.17976
1.83787
1.53122
1.28076
1.09293
0.943954
0.820444
0.71533
0.625405
0.54934
0.487295
0.440888
0.415098
0.438678
0.702982
2.06734
0.661964
0.855527
1.24871
1.8208
2.43117
0.55885
0.490318
0.442738
0.409758
0.386847
0.371053
0.36031
0.353179
0.348636
0.345926
0.344596
0.34408
0.34401
0.344616
0.345464
0.346601
0.347898
0.349362
0.350892
0.352507
0.354241
0.356107
0.358103
0.360241
0.362499
0.364907
0.367511
0.370333
0.37339
3.03425
3.64836
4.25894
4.84908
5.40387
5.90773
6.33973
6.6694
6.85779
6.86695
6.6741
6.28202
5.71958
5.04247
4.35496
3.72531
3.16468
2.67497
2.25297
1.88543
1.56217
1.30621
1.11403
0.961646
0.835419
0.728022
0.636044
0.557989
0.493823
0.445087
0.417096
0.43984
0.709793
2.09378
0.638284
0.813384
1.1808
1.73279
2.43051
3.11952
0.543552
0.479608
0.435266
0.404561
0.383267
0.368626
0.358715
0.352193
0.34807
0.345633
0.344476
0.344052
0.344039
0.344697
0.345558
0.346706
0.348003
0.349414
0.350891
0.352507
0.354241
0.356107
0.358103
0.360208
0.362443
0.36486
0.367476
0.37031
0.373382
3.76645
4.40441
5.0246
5.61437
6.16242
6.65432
7.06675
7.36384
7.50181
7.44254
7.16891
6.69232
6.04922
5.3003
4.55389
3.8784
3.28233
2.76514
2.31256
1.92567
1.59607
1.33421
1.13733
0.981228
0.852018
0.742114
0.647883
0.567649
0.501169
0.449896
0.419415
0.441257
0.717866
2.12318
0.615863
0.773644
1.11455
1.64454
2.32615
3.12144
3.86416
0.528723
0.469218
0.428039
0.399548
0.379827
0.366321
0.357248
0.351308
0.347564
0.345381
0.344374
0.34403
0.344085
0.344776
0.345654
0.346811
0.348054
0.349412
0.350891
0.352507
0.354241
0.356107
0.358066
0.360142
0.362385
0.364813
0.367439
0.370286
0.373374
4.5349
5.17994
5.79675
6.37778
6.91462
7.39239
7.78291
8.0433
8.12544
7.99319
7.63717
7.07767
6.35745
5.5409
4.73942
4.02117
3.39207
2.83823
2.36278
1.96953
1.63319
1.36503
1.16307
1.00292
0.870446
0.757791
0.661085
0.578464
0.509463
0.4554
0.422204
0.44289
0.726371
2.15422
0.594562
0.73623
1.04964
1.55645
2.22053
3.00278
3.86794
4.64083
0.514363
0.459173
0.421074
0.39473
0.376559
0.364199
0.355927
0.350514
0.34711
0.345164
0.344287
0.344004
0.344143
0.344853
0.345754
0.346861
0.348052
0.349412
0.350891
0.352507
0.354241
0.356066
0.357991
0.360074
0.362326
0.364764
0.367402
0.370263
0.373365
5.31725
5.95466
6.55863
7.12613
7.65065
8.11423
8.48116
8.70076
8.722
8.51366
8.07565
7.43651
6.64386
5.76446
4.91191
4.15397
3.48076
2.89968
2.41732
2.01732
1.67384
1.39894
1.19153
1.02698
0.89093
0.775261
0.675839
0.590605
0.518851
0.461752
0.425468
0.444904
0.73662
2.1947
0.574293
0.701199
0.986242
1.468
2.11396
2.88245
3.73632
4.64426
5.42555
0.50049
0.449503
0.414388
0.390155
0.373548
0.362284
0.354737
0.3498
0.346706
0.344977
0.344216
0.343984
0.344208
0.344937
0.345802
0.346856
0.348052
0.349412
0.350891
0.352507
0.354197
0.355983
0.357914
0.360005
0.362266
0.364713
0.367363
0.370238
0.373356
6.09122
6.71017
7.29559
7.84888
8.36297
8.81341
9.15514
9.3295
9.28538
8.9996
8.48204
7.76811
6.90858
5.97141
5.07183
4.26101
3.55518
2.96623
2.47653
2.06937
1.71833
1.43625
1.22298
1.05368
0.913729
0.794762
0.692366
0.604269
0.52952
0.46908
0.429426
0.447257
0.749256
2.24371
0.55499
0.66861
0.924795
1.37912
2.00584
2.76056
3.60339
4.50012
5.42495
6.19531
0.487135
0.440237
0.408044
0.38594
0.37083
0.360557
0.353665
0.34916
0.346348
0.344817
0.344156
0.343974
0.344286
0.344971
0.345797
0.346856
0.348052
0.349412
0.350892
0.352459
0.354107
0.355898
0.357836
0.359934
0.362203
0.364662
0.367324
0.370213
0.373347
6.83684
7.43023
7.99614
8.53852
9.04559
9.48459
9.79881
9.92301
9.81014
9.44775
8.85508
8.07249
7.15215
6.16238
5.20027
4.35064
3.63561
3.03827
2.54074
2.126
1.76696
1.47727
1.25774
1.08331
0.939129
0.816566
0.710917
0.619696
0.541679
0.47761
0.434098
0.450807
0.766439
2.29309
0.536604
0.638466
0.865889
1.29005
1.89576
2.63641
3.46894
4.35592
5.26742
6.18609
6.9286
0.474335
0.431465
0.402204
0.382137
0.368378
0.358999
0.352701
0.348587
0.346034
0.344679
0.344109
0.343989
0.344322
0.344957
0.345799
0.346856
0.348052
0.349414
0.350842
0.352362
0.354014
0.35581
0.357755
0.359861
0.36214
0.364609
0.367283
0.370187
0.373338
7.53616
8.1022
8.65278
9.18912
9.69399
10.1232
10.4062
10.4749
10.2917
9.856
9.19454
8.35024
7.37536
6.315
5.30756
4.4473
3.72246
3.11616
2.61031
2.18755
1.82007
1.52233
1.29614
1.11621
0.967442
0.840972
0.731785
0.637155
0.555597
0.48754
0.440895
0.455432
0.785067
2.34248
0.519101
0.610686
0.810201
1.2013
1.78361
2.5093
3.33223
4.21105
5.11228
6.01253
6.90479
7.60613
0.462217
0.423416
0.396942
0.378709
0.366165
0.357595
0.351834
0.348076
0.345757
0.344561
0.344094
0.343985
0.344313
0.344956
0.345799
0.346856
0.348054
0.349361
0.350741
0.352262
0.35392
0.35572
0.357672
0.359786
0.362074
0.364555
0.367241
0.37016
0.373328
8.17529
8.7182
9.25409
9.78738
10.2945
10.7197
10.9705
10.9792
10.7269
10.2236
9.50103
8.6024
7.55241
6.44198
5.42291
4.5514
3.81612
3.20027
2.68558
2.25434
1.87798
1.57176
1.33852
1.1527
0.999005
0.868318
0.755294
0.656981
0.571584
0.50138
0.450291
0.461693
0.806301
2.39122
0.50258
0.585116
0.758397
1.1136
1.66951
2.3787
3.19229
4.06481
4.95829
5.8454
6.71152
7.56017
8.21352
0.451107
0.416182
0.392201
0.375617
0.36417
0.35633
0.351056
0.347619
0.345516
0.344491
0.344073
0.343958
0.344317
0.344956
0.345797
0.346861
0.348003
0.349255
0.350637
0.35216
0.353823
0.355628
0.357587
0.359709
0.362007
0.364499
0.367198
0.370133
0.373319
8.74399
9.26712
9.80169
10.343
10.8501
11.2661
11.4838
11.431
11.1139
10.5511
9.7758
8.80034
7.69889
6.5779
5.54671
4.66333
3.91698
3.29097
2.76689
2.32669
1.94101
1.62589
1.38519
1.19313
1.03417
0.898954
0.781827
0.679539
0.593432
0.520102
0.461852
0.468791
0.829433
2.43917
0.487428
0.561692
0.711035
1.02791
1.55373
2.24431
3.0482
3.91598
4.80485
5.68252
6.53017
7.34305
8.13222
8.74259
0.441148
0.409682
0.387932
0.372831
0.362371
0.355192
0.350354
0.347215
0.345347
0.344438
0.34404
0.343958
0.344317
0.344957
0.345802
0.34681
0.347896
0.349147
0.350531
0.352056
0.353723
0.355534
0.3575
0.359631
0.361938
0.364442
0.367155
0.370106
0.373309
9.23885
9.74941
10.2936
10.8558
11.3674
11.7609
11.94
11.8273
11.4528
10.8397
9.98842
8.96282
7.85464
6.723
5.67927
4.78345
4.02537
3.38858
2.85454
2.4049
2.00945
1.685
1.43649
1.23785
1.07329
0.933266
0.811747
0.710032
0.622337
0.541862
0.47557
0.477858
0.855935
2.4856
0.473817
0.540676
0.668728
0.945453
1.43679
2.10597
2.89916
3.7633
4.65055
5.52328
6.3575
7.14435
7.88837
8.60413
9.17603
0.432233
0.403841
0.384089
0.370322
0.360751
0.354163
0.34973
0.346913
0.345235
0.344393
0.344042
0.343958
0.344313
0.344971
0.345753
0.346704
0.347789
0.349036
0.350423
0.351949
0.353621
0.355438
0.35741
0.35955
0.361867
0.364384
0.367111
0.37008
0.3733
9.64702
10.159
10.7279
11.3206
11.8392
12.1982
12.3332
12.1676
11.7449
11.0587
10.161
9.13394
8.01958
6.87741
5.82084
4.91204
4.14161
3.49339
2.94882
2.48922
2.08353
1.74935
1.49269
1.28714
1.11671
0.971578
0.851788
0.749594
0.654835
0.56686
0.49251
0.488464
0.88477
2.53033
0.461614
0.522009
0.632339
0.86826
1.31957
1.96373
2.74444
3.60547
4.49383
5.36609
6.19282
6.96008
7.66907
8.33173
8.97036
9.50601
0.424257
0.398593
0.380631
0.368061
0.359286
0.353244
0.349248
0.346727
0.34517
0.344398
0.344042
0.343958
0.344322
0.344936
0.345652
0.346598
0.34768
0.348923
0.350313
0.35184
0.353516
0.355339
0.357318
0.359468
0.361795
0.364326
0.367069
0.370055
0.373292
9.96476
10.4948
11.1059
11.7363
12.2564
12.5691
12.6578
12.4518
11.9601
11.2336
10.3404
9.31311
8.19345
7.04107
5.97151
5.0493
4.26591
3.60564
3.04993
2.57985
2.16346
1.81916
1.554
1.34127
1.16468
1.02226
0.902706
0.792933
0.691033
0.595722
0.512607
0.501913
0.917997
2.57255
0.450698
0.505295
0.601746
0.799603
1.20418
1.81787
2.58346
3.44117
4.33295
5.20911
6.03425
6.78938
7.47093
8.08902
8.66252
9.22181
9.72724
0.417124
0.39388
0.377522
0.366019
0.357975
0.352519
0.34896
0.346641
0.345178
0.344398
0.34404
0.343985
0.344285
0.344852
0.345556
0.346491
0.347571
0.348808
0.350199
0.351729
0.353409
0.355238
0.357224
0.359384
0.361723
0.36427
0.367029
0.37003
0.373283
10.1879
10.7586
11.43
12.0986
12.6065
12.865
12.9105
12.6516
12.1279
11.4118
10.5251
9.49939
8.37566
7.21372
6.13125
5.19528
4.3984
3.72546
3.15801
2.67689
2.24934
1.89452
1.62058
1.40037
1.22736
1.0854
0.957146
0.839838
0.731035
0.628482
0.537044
0.51796
0.954217
2.61215
0.440957
0.490268
0.575808
0.740931
1.09529
1.67006
2.41578
3.26906
4.16604
5.05032
5.87976
6.62993
7.29299
7.87484
8.39277
8.87277
9.34772
9.83014
0.410743
0.389647
0.374716
0.36419
0.356925
0.352096
0.348846
0.346653
0.345178
0.344393
0.344073
0.343989
0.344206
0.344774
0.345461
0.346381
0.347459
0.34869
0.350083
0.351615
0.353299
0.355135
0.357128
0.359301
0.361654
0.364216
0.366989
0.370006
0.373275
10.3145
10.9536
11.7009
12.3927
12.8757
13.0831
13.0686
12.8006
12.2936
11.591
10.7133
9.69142
8.5653
7.39484
6.29978
5.34989
4.53908
3.85288
3.27308
2.78037
2.34116
1.97545
1.6924
1.47657
1.30387
1.15138
1.01452
0.88993
0.774578
0.665475
0.565624
0.538065
0.996167
2.64828
0.432282
0.476749
0.553514
0.691724
0.996324
1.52535
2.24246
3.08785
3.99101
4.88736
5.72707
6.47948
7.13235
7.68823
8.16062
8.57213
8.95533
9.33628
9.80653
0.405032
0.385835
0.372205
0.362709
0.35632
0.351946
0.348863
0.346653
0.34517
0.344438
0.344094
0.343974
0.344141
0.344695
0.345367
0.346268
0.347346
0.348571
0.349965
0.351499
0.353186
0.35503
0.357033
0.35922
0.361586
0.364163
0.366951
0.369983
0.373267
10.3421
11.0869
11.8995
12.6009
13.0447
13.2027
13.1728
12.9377
12.4541
11.7678
10.9026
9.8873
8.76104
7.58355
6.47657