/*--------------------------------*- C++ -*----------------------------------*\
  =========                 |
  \\      /  F ield         | OpenFOAM: The Open Source CFD Toolbox
   \\    /   O peration     | Website:  https://openfoam.org
    \\  /    A nd           | Version:  8
     \\/     M anipulation  |
\*---------------------------------------------------------------------------*/
FoamFile
{
    version     2.0;
    format      ascii;
    class       volScalarField;
    location    "0.11";
    object      nut;
}
// * * * * * * * * * * * * * * * * * * * * * * * * * * * * * * * * * * * * * //

dimensions      [0 2 -1 0 0 0 0];

internalField   nonuniform List<scalar> 
15677
(
0.000168253
0.000653023
0.000148416
0.00151375
0.000442448
0.000141508
0.00267553
0.000875772
0.000381136
0.000142377
0.00392134
0.00151884
0.000686593
0.000354232
0.000145458
0.00502435
0.002356
0.00114629
0.000585578
0.000340243
0.00015121
0.00584086
0.0033172
0.00178058
0.000947623
0.000529256
0.000332007
0.000157002
0.00633517
0.00429848
0.00256736
0.00146305
0.000820802
0.000492455
0.000326983
0.000162448
0.00656294
0.00518755
0.00345256
0.00213121
0.00125696
0.000737141
0.000467429
0.000324116
0.000167225
0.00665852
0.00589339
0.00435502
0.00292165
0.00184112
0.00111207
0.0006773
0.000450433
0.000322547
0.000171452
0.00670554
0.00633825
0.00518061
0.00377847
0.0025564
0.00163138
0.00100441
0.000634046
0.000438688
0.000321994
0.000175015
0.00671441
0.00655347
0.0058452
0.00462483
0.0033621
0.00228592
0.0014723
0.000924059
0.000602136
0.000430763
0.000321936
0.000178152
0.00670993
0.00666152
0.0062956
0.00537679
0.00419631
0.00304459
0.00207725
0.00134872
0.000862084
0.000578538
0.000425297
0.000322419
0.000180763
0.00670629
0.00669875
0.00652958
0.00596424
0.00498365
0.0038566
0.00279502
0.00191125
0.00125093
0.000813981
0.000560794
0.00042182
0.000323053
0.000183109
0.00670539
0.00670439
0.00664681
0.00635677
0.0056497
0.00465522
0.00358256
0.00259292
0.00177732
0.00117273
0.000776183
0.000547635
0.000419467
0.000323971
0.000185149
0.00670542
0.00670289
0.00668788
0.00656284
0.00614188
0.00536798
0.00438056
0.00335622
0.00242722
0.00166764
0.0011093
0.000746429
0.000537543
0.000418249
0.000324814
0.00018696
0.00670556
0.00670168
0.00669638
0.00665653
0.00644672
0.00593333
0.00512042
0.0041479
0.00316766
0.00228928
0.00157728
0.00105762
0.000722735
0.000530284
0.000417366
0.000325866
0.000188613
0.00670563
0.00670122
0.0066971
0.0066849
0.00660483
0.00632157
0.00573708
0.00490325
0.00395013
0.00300853
0.00217407
0.00150218
0.00101565
0.000704267
0.000524561
0.000417247
0.000326796
0.000190026
0.00670564
0.00670113
0.0066967
0.00669166
0.00666371
0.00654116
0.00618806
0.00555647
0.00471369
0.00378059
0.00287396
0.00207712
0.00143992
0.00098159
0.000689381
0.000520701
0.00041717
0.000327878
0.00019145
0.00670562
0.00670115
0.00669639
0.00669274
0.00668229
0.0066345
0.00646774
0.00605766
0.00539325
0.00454782
0.0036353
0.00275951
0.00199574
0.00138839
0.00095372
0.000678029
0.00051758
0.000417692
0.000328851
0.000192566
0.0067056
0.00670119
0.00669624
0.0066927
0.00668727
0.00666911
0.00659802
0.00638928
0.00593456
0.00524637
0.00440336
0.00351038
0.0026625
0.00192758
0.00134579
0.000931447
0.000668875
0.000515848
0.000418091
0.000329921
0.000193887
0.00670559
0.00670122
0.00669617
0.00669259
0.00668819
0.00668081
0.00665142
0.00655608
0.00631083
0.00581938
0.00511574
0.00427746
0.00340357
0.00258052
0.00187084
0.00131105
0.000913482
0.000662306
0.000514382
0.000419001
0.000330945
0.000194775
0.00670558
0.00670123
0.00669612
0.00669256
0.00668815
0.00668424
0.00667169
0.00663035
0.00651124
0.00623288
0.0057142
0.00499983
0.00416879
0.00331261
0.00251195
0.00182419
0.00128294
0.000899638
0.000657072
0.000514076
0.000419706
0.000331979
0.000196083
0.00670558
0.00670124
0.0066961
0.00669255
0.00668799
0.00668507
0.00667851
0.00666144
0.00660609
0.00646499
0.00615994
0.00561867
0.00489872
0.00407547
0.00323621
0.00245523
0.00178639
0.00126087
0.00088898
0.000653947
0.00051373
0.000420876
0.000333118
0.000196806
0.00670558
0.00670124
0.00669608
0.00669255
0.00668787
0.00668519
0.00668043
0.00667335
0.00664844
0.00658063
0.00641927
0.00609179
0.00553429
0.00481079
0.00399665
0.00317273
0.00240948
0.00175688
0.00124414
0.000881499
0.000651491
0.000514442
0.000421778
0.000334026
0.000198112
0.00670559
0.00670123
0.00669607
0.00669254
0.0066878
0.00668517
0.00668079
0.00667749
0.00666575
0.00663547
0.00655396
0.00637571
0.00603015
0.00545935
0.00473632
0.00393136
0.00312211
0.00237377
0.00173443
0.00123187
0.000876349
0.000650988
0.000514892
0.000423204
0.000335472
0.000198804
0.00670559
0.00670122
0.00669607
0.00669253
0.00668776
0.00668512
0.00668074
0.00667875
0.00667215
0.00665966
0.00662044
0.00652848
0.00633528
0.00597422
0.00539678
0.00467501
0.00387914
0.00308176
0.00234668
0.00171898
0.0012247
0.000874147
0.000650656
0.000516415
0.000424128
0.000336223
5.33571e-05
0.0067056
0.00670121
0.00669608
0.00669251
0.00668774
0.00668508
0.00668065
0.00667903
0.00667421
0.00666956
0.00665082
0.00660737
0.00650422
0.00629928
0.00592895
0.00534355
0.00462446
0.00383792
0.00305414
0.0023305
0.00171104
0.00122138
0.000873491
0.000652261
0.000517535
0.000426515
0.000283622
6.3316e-05
0.0067056
0.0067012
0.00669608
0.00669249
0.00668774
0.00668503
0.00668058
0.00667902
0.00667473
0.00667325
0.00666365
0.00664557
0.00659331
0.00648285
0.00626823
0.00588693
0.00530277
0.0045912
0.0038146
0.00303826
0.00232161
0.0017078
0.00122086
0.000875315
0.000653913
0.000519624
0.000420089
0.000219492
7.06881e-05
0.00670561
0.00670119
0.00669609
0.00669247
0.00668773
0.00668499
0.00668054
0.00667893
0.00667477
0.00667443
0.00666863
0.00666283
0.00663707
0.0065838
0.00646623
0.00624172
0.00586407
0.00527871
0.00456903
0.00379783
0.00302915
0.00231877
0.00170918
0.00122461
0.000878424
0.000656272
0.000520855
0.000400215
0.000178036
7.61224e-05
0.00670562
0.00670118
0.00669609
0.00669246
0.00668773
0.00668495
0.00668051
0.00667884
0.00667472
0.00667465
0.00667036
0.00667001
0.00665723
0.00663609
0.00657442
0.00645144
0.00623322
0.00584747
0.0052607
0.00455496
0.00379051
0.00302877
0.00232347
0.00171668
0.0012312
0.000883139
0.000659624
0.000518758
0.000367447
0.00015256
8.0524e-05
0.00670562
0.00670118
0.0066961
0.00669244
0.00668774
0.00668492
0.0066805
0.00667876
0.00667465
0.00667458
0.00667082
0.00667265
0.00666599
0.0066613
0.00663008
0.00657316
0.0064505
0.00622631
0.00583747
0.00525241
0.00455389
0.00379643
0.00303965
0.00233626
0.00172885
0.00124079
0.000889515
0.000662711
0.000512789
0.000336279
0.000134221
8.39142e-05
0.00670563
0.00670117
0.00669611
0.00669242
0.00668774
0.00668489
0.00668048
0.00667869
0.0066746
0.00667445
0.00667087
0.00667336
0.0066695
0.00667247
0.00665746
0.00663921
0.00657623
0.00645345
0.00622523
0.00584006
0.00526119
0.00456748
0.00381442
0.00305969
0.00235576
0.00174554
0.00125323
0.00089705
0.000665547
0.000501483
0.00030618
0.000121258
8.63193e-05
0.00670563
0.00670116
0.00669612
0.00669241
0.00668775
0.00668486
0.00668048
0.00667862
0.00667455
0.00667431
0.00667082
0.00667341
0.00667069
0.00667695
0.00667055
0.00667266
0.00664499
0.00658505
0.00646246
0.00623934
0.00585865
0.00528342
0.004594
0.00384339
0.00308856
0.00238183
0.00176626
0.00126827
0.000905722
0.000666872
0.000486236
0.000280126
0.000112762
8.80988e-05
0.00670564
0.00670115
0.00669612
0.00669239
0.00668776
0.00668483
0.00668047
0.00667857
0.00667451
0.00667419
0.00667074
0.00667326
0.006671
0.00667839
0.00667633
0.00668826
0.00668034
0.0066578
0.00660288
0.00648519
0.00626712
0.00589097
0.00531988
0.00463326
0.00388336
0.00312609
0.00241391
0.00179095
0.00128562
0.000915152
0.000667117
0.000469437
0.000260356
0.000106991
8.94789e-05
0.00670114
0.00670565
0.00669613
0.00669238
0.00668776
0.00668481
0.00668047
0.00667852
0.00667448
0.00667408
0.00667066
0.00667307
0.006671
0.00667868
0.00667853
0.00669527
0.00669746
0.00669591
0.00668188
0.00663234
0.00652088
0.00630889
0.00593846
0.00537056
0.00468556
0.00393398
0.0031718
0.00245201
0.00181919
0.00130512
0.000926277
0.000666233
0.000454562
0.000245162
0.000102943
9.05997e-05
0.00669614
0.00670115
0.00670567
0.00669237
0.00668777
0.00668478
0.00668047
0.00667848
0.00667446
0.00667399
0.00667058
0.00667289
0.00667092
0.00667859
0.00667924
0.00669801
0.00670531
0.00671494
0.0067243
0.00671619
0.00667463
0.00657103
0.00636656
0.00600119
0.00543604
0.00475053
0.00399518
0.00322566
0.00249545
0.00185088
0.00132932
0.000939742
0.000664908
0.000441766
0.000233382
0.000100061
9.15492e-05
0.00669236
0.00669617
0.00670117
0.00670568
0.00668778
0.00668476
0.00668048
0.00667844
0.00667444
0.00667391
0.00667051
0.00667272
0.00667081
0.00667837
0.00667942
0.00669895
0.00670858
0.00672402
0.0067462
0.00676219
0.0067637
0.00673149
0.00663752
0.00644114
0.00608094
0.00551677
0.0048286
0.00406657
0.00328685
0.00254426
0.00188953
0.00135818
0.000953912
0.000663991
0.000431304
0.000224062
9.7956e-05
9.23797e-05
0.00668779
0.00669238
0.00669623
0.00670119
0.0067057
0.00668474
0.00668048
0.0066784
0.00667443
0.00667384
0.00667046
0.00667258
0.0066707
0.00667813
0.0066794
0.00669919
0.00670984
0.00672805
0.0067571
0.00678681
0.00681377
0.00682597
0.00680515
0.00672124
0.00653378
0.00617742
0.00561302
0.00491885
0.00414765
0.00335546
0.00260367
0.00193716
0.00138856
0.000968921
0.000663821
0.000422533
0.000216602
9.64232e-05
9.31262e-05
0.00668473
0.00668784
0.00669243
0.00669629
0.0067012
0.00670572
0.00668049
0.00667836
0.00667442
0.00667378
0.00667041
0.00667247
0.0066706
0.00667791
0.00667932
0.00669917
0.0067103
0.00672983
0.00676234
0.00679981
0.00684134
0.00687985
0.00690507
0.00689631
0.00682387
0.00664428
0.00629114
0.00572477
0.00502218
0.00423825
0.00343876
0.00267631
0.00198862
0.00142042
0.000984562
0.000664476
0.00041541
0.000210519
9.52729e-05
9.38068e-05
0.0066805
0.00668475
0.00668793
0.00669248
0.00669636
0.00670122
0.00670574
0.00667833
0.00667442
0.00667372
0.00667037
0.00667237
0.0066705
0.00667771
0.00667923
0.00669906
0.00671045
0.00673067
0.00676497
0.00680676
0.00685739
0.00691199
0.00696543
0.00700325
0.0070064
0.00694431
0.00677285
0.00642152
0.00585089
0.0051374
0.00434845
0.00354058
0.00275448
0.0020431
0.0014535
0.00100108
0.000666282
0.000409573
0.000205493
9.44309e-05
9.44374e-05
0.0066783
0.00668056
0.00668482
0.00668803
0.00669253
0.00669642
0.00670124
0.00670577
0.00667442
0.00667366
0.00667034
0.00667228
0.00667041
0.00667754
0.00667914
0.00669892
0.00671048
0.00673113
0.00676649
0.00681071
0.00686676
0.00693152
0.00700292
0.00707132
0.00712482
0.00713895
0.00708436
0.00691813
0.00656709
0.00599
0.00527871
0.00448371
0.00364987
0.00283731
0.00210016
0.00148752
0.00101792
0.000669202
0.000404825
0.000201217
9.37837e-05
9.50224e-05
0.00667442
0.00667832
0.00668068
0.00668489
0.00668813
0.00669258
0.00669649
0.00670126
0.00670579
0.00667361
0.00667031
0.0066722
0.00667032
0.00667742
0.00667906
0.00669879
0.00671046
0.00673142
0.00676749
0.00681334
0.0068728
0.006944
0.00702754
0.00711545
0.00720174
0.00726922
0.00729623
0.00724725
0.00707978
0.00672672
0.00615846
0.00544869
0.00462958
0.00376639
0.00292389
0.00215919
0.00152237
0.00103478
0.00067256
0.000401044
0.000197624
9.33181e-05
9.55716e-05
0.00667356
0.00667449
0.00667839
0.0066808
0.00668496
0.00668824
0.00669263
0.00669656
0.00670128
0.00670581
0.0066703
0.00667213
0.00667024
0.00667732
0.00667897
0.00669866
0.00671043
0.00673164
0.00676825
0.00681533
0.00687723
0.00695281
0.00704494
0.00714668
0.00725487
0.00735726
0.00744007
0.00747674
0.00743355
0.00726243
0.00691606
0.00635763
0.00562891
0.00478303
0.00388819
0.00301336
0.00221962
0.00155802
0.00105155
0.000676612
0.000398099
0.000194495
9.29523e-05
9.60834e-05
0.00667029
0.00667356
0.00667461
0.00667846
0.00668093
0.00668504
0.00668834
0.00669269
0.00669663
0.0067013
0.00670583
0.00667206
0.00667018
0.00667725
0.00667887
0.00669855
0.0067104
0.00673182
0.00676888
0.006817
0.00688081
0.00695978
0.00705834
0.00717047
0.00729548
0.00742189
0.00754251
0.00763724
0.00768218
0.00764108
0.00748837
0.00714943
0.00656693
0.00581608
0.00494086
0.00401295
0.00310482
0.00228091
0.00159404
0.00106836
0.000681149
0.000395713
0.000191831
9.27022e-05
9.65664e-05
0.006672
0.00667032
0.00667359
0.00667473
0.00667854
0.00668107
0.00668511
0.00668846
0.00669274
0.00669671
0.00670132
0.00670585
0.00667013
0.00667721
0.00667875
0.00669846
0.00671039
0.00673198
0.00676943
0.00681846
0.00688385
0.00696575
0.00706956
0.00718983
0.00732887
0.00747473
0.00762253
0.00775737
0.00786321
0.00791271
0.00789541
0.00776382
0.0074036
0.00678487
0.00600553
0.00510098
0.00413961
0.00319722
0.00234258
0.00163016
0.00108498
0.000686116
0.000393947
0.000189473
9.25008e-05
9.70159e-05
0.00667009
0.00667192
0.00667037
0.00667363
0.00667487
0.00667861
0.00668121
0.00668519
0.00668857
0.0066928
0.00669678
0.00670135
0.00670588
0.00667717
0.00667862
0.0066984
0.00671039
0.00673213
0.00676991
0.00681977
0.00688652
0.00697108
0.0070794
0.00720666
0.00735768
0.0075207
0.00769209
0.00785673
0.00800591
0.00811854
0.00819714
0.00820748
0.00806069
0.00767423
0.00701511
0.00619712
0.0052617
0.00426617
0.0032897
0.0024041
0.00166609
0.00110154
0.00069106
0.000392608
0.000187454
9.23789e-05
9.74413e-05
0.00667713
0.00666998
0.00667183
0.00667044
0.00667366
0.00667502
0.00667869
0.00668136
0.00668527
0.00668869
0.00669286
0.00669686
0.00670137
0.0067059
0.00667846
0.00669839
0.00671041
0.00673228
0.00677035
0.00682094
0.0068889
0.00697591
0.0070882
0.00722187
0.00738364
0.00756162
0.00775569
0.00794795
0.0081307
0.008289
0.00843627
0.00854931
0.00854686
0.008376
0.00795516
0.00725355
0.00638864
0.00541979
0.00439135
0.00338128
0.00246502
0.00170159
0.00111808
0.000695962
0.000391644
0.000185635
9.22767e-05
9.78355e-05
0.00667829
0.00667693
0.00666976
0.00667173
0.00667053
0.00667369
0.00667518
0.00667876
0.00668152
0.00668535
0.00668882
0.00669293
0.00669693
0.0067014
0.00670592
0.00669845
0.00671044
0.00673242
0.00677073
0.006822
0.00689105
0.00698032
0.00709615
0.00723587
0.00740747
0.00759909
0.0078145
0.00803513
0.00825077
0.00844541
0.00864502
0.00883445
0.00893655
0.00891061
0.00870643
0.00824366
0.00749718
0.0065838
0.00557497
0.00451413
0.00347144
0.00252496
0.0017365
0.00113437
0.000700822
0.000390931
0.000184073
9.22328e-05
9.82093e-05
0.00669857
0.00667758
0.00667658
0.00666957
0.00667163
0.00667064
0.00667372
0.00667536
0.00667884
0.00668168
0.00668543
0.00668894
0.00669299
0.00669701
0.00670143
0.00670594
0.00671047
0.00673254
0.00677107
0.00682296
0.00689301
0.00698435
0.00710338
0.00724885
0.00742943
0.00763397
0.00787004
0.00811784
0.00836899
0.00860214
0.00884695
0.00909815
0.00927853
0.00935707
0.00929623
0.0090493
0.00853742
0.00774121
0.00677985
0.0057272
0.00463414
0.00355948
0.00258357
0.00177063
0.00115036
0.000705612
0.000390453
0.000182642
9.21915e-05
9.85539e-05
0.00671047
0.00669811
0.00667627
0.0066762
0.00666944
0.0066715
0.00667079
0.00667374
0.00667555
0.00667892
0.00668185
0.00668552
0.00668907
0.00669306
0.00669708
0.00670145
0.00670595
0.00673263
0.00677135
0.00682382
0.00689479
0.00698803
0.00710998
0.00726086
0.00744964
0.00766674
0.00792284
0.00819651
0.00848313
0.00876258
0.00905928
0.00936697
0.00961227
0.00976985
0.00981119
0.00970291
0.00940295
0.00883443
0.00798413
0.0069746
0.00587507
0.00474993
0.00364482
0.00264056
0.00180385
0.00116598
0.000710318
0.000390124
0.000181414
9.21953e-05
9.88815e-05
0.00673272
0.00670943
0.006697
0.00667525
0.00667572
0.00666939
0.00667135
0.00667096
0.00667376
0.00667575
0.00667901
0.00668202
0.00668562
0.00668919
0.00669313
0.00669714
0.00670148
0.00670597
0.00677158
0.0068246
0.00689642
0.00699139
0.00711601
0.00727196
0.00746824
0.00769761
0.00797278
0.0082713
0.00859425
0.00892401
0.00928413
0.00966035
0.00997036
0.0101982
0.0103173
0.0103038
0.0101321
0.00976677
0.00913333
0.00822471
0.00716681
0.00602026
0.00486119
0.00372711
0.0026957
0.00183604
0.00118116
0.000714918
0.000389943
0.000180269
9.21915e-05
9.91818e-05
0.00677179
0.00673108
0.00670724
0.00669541
0.00667458
0.00667511
0.00666945
0.00667116
0.00667117
0.00667378
0.00667595
0.0066791
0.00668218
0.00668572
0.0066893
0.0066932
0.00669721
0.00670151
0.00670598
0.00682532
0.00689792
0.00699445
0.00712154
0.00728217
0.00748536
0.00772661
0.00801959
0.00834248
0.00870345
0.00908596
0.00951094
0.00997943
0.0103856
0.0106946
0.0108854
0.0109383
0.0108431
0.0105862
0.0101407
0.00943321
0.00846208
0.00735444
0.00616256
0.004968
0.00380616
0.00274881
0.00186712
0.00119586
0.000719396
0.00038985
0.000179289
9.22241e-05
9.94683e-05
0.00682602
0.00676902
0.00672761
0.00670507
0.00669348
0.00667426
0.00667436
0.00666959
0.00667096
0.00667139
0.00667381
0.00667616
0.00667921
0.00668234
0.00668582
0.00668941
0.00669327
0.00669727
0.00670154
0.006706
0.0068993
0.00699724
0.0071266
0.00729152
0.00750113
0.00775373
0.00806322
0.00841047
0.00881056
0.00924579
0.00973483
0.0103189
0.0108841
0.0113296
0.0116036
0.0117084
0.0116485
0.0114345
0.0110668
0.0105245
0.00973332
0.0086955
0.00753661
0.00630105
0.00507038
0.00388184
0.00279979
0.001897
0.00121002
0.000723738
0.00038986
0.000178363
9.22436e-05
9.96972e-05
0.0069006
0.00682256
0.00676307
0.00672426
0.00670291
0.00669116
0.00667427
0.0066735
0.0066698
0.00667075
0.00667162
0.00667385
0.00667636
0.00667932
0.0066825
0.00668592
0.00668951
0.00669334
0.00669733
0.00670157
0.00670601
0.00699978
0.00713122
0.00730007
0.00751563
0.00777893
0.00810375
0.00847549
0.00891428
0.00940038
0.00995749
0.0106941
0.0114823
0.0121586
0.0125749
0.0127276
0.0126733
0.012446
0.0120754
0.0115715
0.0109168
0.0100328
0.00892432
0.00771304
0.00643509
0.00516832
0.00395409
0.00284855
0.00192566
0.00122364
0.00072793
0.000389889
0.000177585
9.22846e-05
9.98893e-05
0.00700212
0.0068957
0.00681456
0.00675716
0.0067211
0.00670109
0.00668838
0.00667452
0.00667258
0.00667005
0.00667057
0.00667184
0.00667392
0.00667654
0.00667944
0.00668264
0.00668603
0.00668961
0.00669341
0.00669738
0.0067016
0.00670602
0.00713542
0.00730785
0.00752894
0.00780219
0.00814137
0.0085374
0.00901306
0.00954867
0.0101861
0.0111217
0.0121886
0.0131537
0.0138123
0.0140732
0.0140136
0.0137405
0.0133067
0.0127526
0.012094
0.0113146
0.0103303
0.00914795
0.00788349
0.00656428
0.00526184
0.00402289
0.00289508
0.00195305
0.00123668
0.000731978
0.000389952
0.000176941
9.23117e-05
0.000100096
0.00713928
0.00699547
0.00688395
0.0068066
0.00675151
0.00671811
0.00669984
0.00668539
0.00667489
0.00667169
0.00667029
0.00667043
0.00667205
0.00667401
0.00667672
0.00667957
0.00668277
0.00668613
0.00668971
0.00669348
0.00669743
0.00670163
0.00670603
0.00731492
0.00754111
0.00782357
0.00817625
0.00859585
0.0091059
0.00969187
0.0104278
0.0116019
0.0129722
0.0142315
0.0151535
0.0156347
0.0156591
0.0153502
0.0148411
0.014191
0.0134455
0.0126246
0.0117137
0.0106243
0.00936582
0.00804778
0.00668834
0.00535098
0.00408833
0.00293935
0.00197918
0.00124914
0.000735886
0.000390023
0.00017643
9.23579e-05
0.000100321
0.00732132
0.0071303
0.00697869
0.0068722
0.00679881
0.00674609
0.00671527
0.00669882
0.0066824
0.00667525
0.00667089
0.00667047
0.00667036
0.00667222
0.00667413
0.00667687
0.0066797
0.0066829
0.00668624
0.00668979
0.00669354
0.00669748
0.00670166
0.00670604
0.00755223
0.00784312
0.00820851
0.00865048
0.00919261
0.00983208
0.0106844
0.0121169
0.0137744
0.0152843
0.0164284
0.0171314
0.0173733
0.0171632
0.0166273
0.0159057
0.0150577
0.0141314
0.0131519
0.0121093
0.0109131
0.0095773
0.00820575
0.00680714
0.00543571
0.0041503
0.00298136
0.00200403
0.00126103
0.000739134
0.000390103
0.00017588
9.24002e-05
0.000100565
0.00756226
0.0073097
0.00710664
0.00696187
0.00686069
0.00679115
0.00674086
0.00671262
0.00669787
0.00667961
0.00667544
0.00667028
0.00667056
0.00667037
0.00667235
0.00667427
0.00667701
0.00667984
0.00668301
0.00668634
0.00668988
0.00669361
0.00669753
0.00670167
0.00670604
0.00786098
0.00823823
0.00870107
0.00927367
0.00997074
0.0109517
0.0126395
0.0145377
0.0162281
0.0175238
0.0183934
0.0188442
0.0188736
0.0184808
0.0177721
0.0168843
0.0158737
0.0147904
0.0136654
0.0124962
0.0111946
0.00978182
0.00835729
0.00692063
0.00551642
0.00420878
0.00302115
0.00202762
0.00127084
0.000741927
0.000390198
0.000175309
9.24682e-05
0.00010083
0.00787696
0.00754717
0.00727699
0.00708292
0.00694536
0.00684944
0.00678356
0.00673597
0.00671007
0.00669691
0.00667725
0.00667535
0.00666989
0.00667056
0.00667044
0.00667246
0.00667442
0.00667714
0.00667997
0.00668313
0.00668645
0.00668996
0.00669368
0.00669756
0.00670167
0.00670604
0.00826555
0.00874766
0.00934977
0.0101079
0.0112215
0.0131443
0.0152236
0.017021
0.0183953
0.0193628
0.0199627
0.020209
0.0200862
0.019574
0.0187523
0.0177497
0.016618
0.0154077
0.014156
0.01287
0.0114672
0.00997883
0.00850231
0.00702865
0.00559348
0.00426396
0.00305875
0.00204703
0.0012792
0.000745003
0.000390329
0.00017471
9.25302e-05
0.000101118
0.00828998
0.00785809
0.00750228
0.00724413
0.00705964
0.00692923
0.00683841
0.00677602
0.00673143
0.00670753
0.00669576
0.00667577
0.0066749
0.00666973
0.00667048
0.00667057
0.00667255
0.00667458
0.00667727
0.00668011
0.00668324
0.00668655
0.00669004
0.00669371
0.00669756
0.00670167
0.00670604
0.00879044
0.00942155
0.0102426
0.0114849
0.0136128
0.0158142
0.0176559
0.0190483
0.0200517
0.0207352
0.0211327
0.0212394
0.0210231
0.0204467
0.0195641
0.0184935
0.0172805
0.0159744
0.0146174
0.0132271
0.0117292
0.0101679
0.00864075
0.00713114
0.00566683
0.00431598
0.00308956
0.00206351
0.00128839
0.000748428
0.000390485
0.000174079
9.26257e-05
0.000101432
0.00882846
0.00826624
0.00779731
0.00745722
0.00721184
0.0070369
0.00691347
0.00682759
0.00676854
0.00672705
0.0067049
0.00669368
0.00667504
0.00667419
0.00666974
0.00667036
0.00667072
0.00667263
0.00667474
0.00667739
0.00668024
0.00668334
0.00668665
0.00669008
0.00669371
0.00669756
0.00670167
0.00670604
0.00948943
0.0103729
0.0117346
0.0140353
0.0163078
0.0181465
0.0195125
0.0205038
0.0212152
0.0216987
0.0219634
0.0219859
0.0217218
0.0211227
0.0202201
0.0191196
0.0178597
0.0164864
0.0150456
0.0135648
0.0119795
0.0103485
0.00877259
0.00722826
0.00573647
0.00435853
0.00311567
0.00208159
0.00129851
0.000752205
0.000390689
0.000173421
9.27141e-05
0.000101772
0.00955113
0.00879916
0.00818404
0.00773624
0.0074129
0.00718025
0.00701467
0.00689806
0.00681704
0.0067612
0.00672283
0.00670235
0.00669098
0.00667488
0.00667334
0.00666985
0.00667023
0.00667088
0.00667272
0.00667489
0.00667751
0.00668037
0.00668345
0.0066867
0.00669008
0.00669371
0.00669756
0.00670167
0.00670604
0.0104972
0.0119688
0.0144089
0.0167118
0.0185146
0.0198246
0.0207705
0.0214674
0.0219833
0.0223407
0.0225265
0.0225047
0.0222251
0.0216327
0.0207395
0.0196382
0.0183591
0.0169435
0.0154389
0.0138814
0.012217
0.0105205
0.00889787
0.00732016
0.00579375
0.00439457
0.00314421
0.00210142
0.00130966
0.000756429
0.00039093
0.000172727
9.2847e-05
0.000102143
0.0106089
0.00951448
0.00868755
0.00810161
0.00767608
0.0073695
0.00714935
0.00699297
0.00688306
0.00680687
0.00675394
0.00671896
0.00670008
0.00668776
0.00667502
0.00667247
0.00666999
0.00667012
0.00667104
0.0066728
0.00667505
0.00667762
0.0066805
0.0066835
0.0066867
0.00669008
0.00669371
0.00669756
0.00670167
0.00670603
0.0121884
0.014733
0.0170378
0.018784
0.02002
0.0208989
0.0215514
0.0220591
0.0224566
0.0227413
0.0228853
0.0228464
0.0225729
0.0220069
0.0211434
0.0200625
0.0187855
0.0173479
0.0157972
0.0141761
0.0124413
0.0106837
0.00901663
0.00739555
0.0058424
0.00443394
0.00317543
0.0021232
0.00132196
0.000761088
0.000391231
0.00017201
9.29727e-05
0.000102542
0.0105675
0.0123836
0.00935214
0.00857726
0.00802024
0.0076171
0.007327
0.00711916
0.00697183
0.00686853
0.00679725
0.00674705
0.00671537
0.00669863
0.00668454
0.00667525
0.00667169
0.00667012
0.00667004
0.00667119
0.0066729
0.00667519
0.00667774
0.00668057
0.00668349
0.0066867
0.00669008
0.00669371
0.00669756
0.00670166
0.00670602
0.0150088
0.0172984
0.018976
0.0201285
0.0209278
0.0215163
0.0219861
0.0223834
0.022716
0.0229638
0.0230903
0.023052
0.0227991
0.0222721
0.0214519
0.0204061
0.019147
0.0177035
0.0161215
0.014449
0.0126522
0.010838
0.00911415
0.00745951
0.00589572
0.004477
0.00320963
0.00214715
0.00133556
0.000766285
0.000391592
0.00017125
9.31573e-05
0.000102978
0.0103191
0.0123443
0.0152336
0.00919622
0.00846886
0.00794028
0.00755929
0.00728542
0.00708971
0.00695129
0.00685453
0.006788
0.00674057
0.00671211
0.00669747
0.0066816
0.00667541
0.00667105
0.0066702
0.00667001
0.00667132
0.006673
0.00667533
0.00667779
0.00668057
0.00668349
0.0066867
0.00669008
0.00669371
0.00669753
0.00670163
0.00670601
0.0175054
0.0191088
0.0201741
0.0208874
0.0213996
0.0218111
0.0221777
0.0225181
0.0228209
0.0230546
0.0231794
0.0231538
0.022931
0.0224512
0.0216829
0.0206818
0.0194517
0.0180146
0.0164137
0.0147004
0.0128496
0.0109644
0.00919692
0.0075295
0.00595422
0.00452415
0.00324711
0.0021735
0.0013506
0.000772124
0.000392031
0.000170476
9.33365e-05
0.000103444
0.010075
0.0119903
0.0151678
0.0176592
0.00904765
0.00836202
0.00786185
0.00750268
0.00724483
0.00706107
0.00693141
0.00684104
0.00677909
0.00673454
0.00670925
0.00669641
0.00667912
0.00667538
0.00667058
0.00667024
0.00667002
0.00667144
0.00667311
0.00667541
0.00667779
0.00668057
0.00668349
0.0066867
0.00669008
0.00669368
0.00669748
0.0067016
0.00670599
0.0191967
0.0201751
0.0208006
0.0212298
0.0215693
0.0218827
0.0221993
0.0225179
0.0228133
0.0230474
0.0231809
0.0231765
0.0229907
0.0225632
0.0218516
0.0209011
0.0197076
0.0182861
0.0166761
0.0149312
0.0130094
0.0110713
0.00928751
0.00760618
0.00601843
0.00457582
0.00328823
0.00220253
0.00136726
0.000778624
0.000392558
0.000169652
9.35938e-05
0.000103955
0.00984607
0.0116068
0.014814
0.0175604
0.0192421
0.00890414
0.00825666
0.00778504
0.00744734
0.00720531
0.00703329
0.00691221
0.00682811
0.00677066
0.0067292
0.00670662
0.00669532
0.00667735
0.00667512
0.00667029
0.00667022
0.00667007
0.00667155
0.00667317
0.00667541
0.00667778
0.00668057
0.00668349
0.0066867
0.00669004
0.00669361
0.00669743
0.00670157
0.00670598
0.0201452
0.0206841
0.0210276
0.0212866
0.0215308
0.0217988
0.0221007
0.0224201
0.022722
0.0229659
0.0231159
0.0231394
0.0229955
0.0226233
0.0219707
0.021074
0.0199217
0.0185224
0.0169112
0.0151145
0.0131438
0.011188
0.00938672
0.00769024
0.006089
0.00463253
0.0033334
0.00223455
0.00138575
0.000785878
0.000393183
0.000168824
9.38507e-05
0.000104495
0.0096318
0.0112287
0.0143727
0.0173302
0.0190906
0.0200844
0.00876397
0.00815303
0.00770997
0.00739337
0.00716695
0.00700643
0.00689383
0.00681602
0.00676286
0.0067246
0.00670411
0.00669376
0.00667632
0.00667465
0.00667015
0.00667016
0.00667015
0.00667159
0.00667316
0.00667541
0.00667778
0.00668057
0.0066835
0.00668665
0.00668996
0.00669354
0.00669738
0.00670154
0.00670597
0.0205498
0.0208081
0.0209821
0.0211464
0.0213469
0.0216051
0.0219157
0.0222499
0.0225668
0.0228272
0.0230002
0.0230572
0.0229592
0.0226437
0.0220508
0.0212089
0.0201006
0.0187278
0.0170933
0.0152667
0.0132891
0.0113153
0.00949542
0.00778249
0.00616661
0.00469484
0.00338307
0.00226991
0.00140629
0.00079402
0.000393945
0.000167938
9.42117e-05
0.000105087
0.00942919
0.0108694
0.0138844
0.0170136
0.0189339
0.0198783
0.0203932
0.00862652
0.00805144
0.00763682
0.00734092
0.00712984
0.00698072
0.00687672
0.00680494
0.00675554
0.0067205
0.00670176
0.00669163
0.00667583
0.00667404
0.00667011
0.00667009
0.00667022
0.00667157
0.00667316
0.00667541
0.00667779
0.00668057
0.00668345
0.00668655
0.00668988
0.00669347
0.00669732
0.00670151
0.00670595
0.0205815
0.0206699
0.0207476
0.0208669
0.0210594
0.0213322
0.0216665
0.0220238
0.0223612
0.0226436
0.0228457
0.0229417
0.0228924
0.0226342
0.0221003
0.021313
0.0202497
0.0188822
0.0172425
0.0154289
0.0134459
0.0114541
0.00961451
0.00788379
0.00625205
0.00476339
0.00343776
0.00230901
0.00142915
0.000803145
0.000394826
0.000167049
9.45825e-05
0.000105704
0.00923575
0.0105331
0.0133708
0.0166352
0.0187068
0.019755
0.0201322
0.0203378
0.00849185
0.00795221
0.00756577
0.00729014
0.00709433
0.00695681
0.00686111
0.00679483
0.00674878
0.0067169
0.00669974
0.00668903
0.00667569
0.00667337
0.00667016
0.00666999
0.00667024
0.00667156
0.00667316
0.00667541
0.00667779
0.0066805
0.00668334
0.00668644
0.00668979
0.0066934
0.00669727
0.00670148
0.00670594
0.0203592
0.020348
0.0203767
0.0204864
0.0206966
0.0210009
0.0213676
0.0217526
0.0221145
0.0224246
0.0226621
0.022802
0.0228038
0.0226024
0.0221261
0.0213922
0.0203564
0.0190065
0.0173987
0.0156013
0.013615
0.0116052
0.00974501
0.00799512
0.00634619
0.00483892
0.00349807
0.00235229
0.00145462
0.000813404
0.000395916
0.000166064
9.50885e-05
0.000106498
0.00904984
0.0102212
0.0128428
0.0162071
0.0184359
0.0195744
0.0200118
0.0200216
0.0200341
0.0083603
0.00785571
0.00749704
0.00724153
0.00706135
0.00693504
0.0068469
0.00678571
0.00674256
0.00671377
0.0066984
0.00668638
0.00667572
0.00667272
0.0066703
0.00666988
0.00667026
0.00667156
0.00667316
0.00667541
0.00667774
0.00668037
0.00668323
0.00668634
0.0066897
0.00669333
0.00669721
0.00670145
0.00670592
0.0199566
0.0198903
0.019905
0.0200317
0.0202787
0.0206242
0.0210277
0.0214429
0.0218336
0.0221777
0.022457
0.0226453
0.0226998
0.0225545
0.0221337
0.0214419
0.0204403
0.0191339
0.0175616
0.0157838
0.0137967
0.0117695
0.00988797
0.00811753
0.00645001
0.00492224
0.00356465
0.00240028
0.00148305
0.000824961
0.000397153
0.000165102
9.57295e-05
0.000107433
0.00887068
0.00993321
0.0123086
0.0157305
0.0181335
0.0193653
0.0198425
0.0198846
0.0196615
0.019557
0.00823213
0.00776237
0.00743126
0.00719641
0.00703135
0.00691524
0.006834
0.00677756
0.00673695
0.00671095
0.00669729
0.00668392
0.00667583
0.00667218
0.00667044
0.00666982
0.00667026
0.00667157
0.00667317
0.00667533
0.00667762
0.00668024
0.00668312
0.00668623
0.00668961
0.00669327
0.00669714
0.00670143
0.0067059
0.0194167
0.0193298
0.0193574
0.0195232
0.0198178
0.0202095
0.0206514
0.0210986
0.0215235
0.021909
0.0222369
0.0224775
0.0225857
0.0224951
0.0221263
0.0214788
0.0205232
0.0192634
0.0177304
0.0159761
0.0139914
0.0119479
0.0100445
0.00825217
0.00656459
0.00501434
0.00363835
0.00245358