/*--------------------------------*- C++ -*----------------------------------*\
  =========                 |
  \\      /  F ield         | OpenFOAM: The Open Source CFD Toolbox
   \\    /   O peration     | Website:  https://openfoam.org
    \\  /    A nd           | Version:  8
     \\/     M anipulation  |
\*---------------------------------------------------------------------------*/
FoamFile
{
    version     2.0;
    format      ascii;
    class       volVectorField;
    location    "0.11";
    object      U;
}
// * * * * * * * * * * * * * * * * * * * * * * * * * * * * * * * * * * * * * //

dimensions      [0 1 -1 0 0 0 0];

internalField   nonuniform List<vector> 
15677
(
(-0.0199316 9.66506 0)
(0.043576 9.92084 0)
(0.00238278 9.37799 0)
(0.01474 9.97646 0)
(0.0186152 9.78773 0)
(0.00702121 9.14226 0)
(0.0279655 9.99433 0)
(0.0171125 9.92477 0)
(0.0107372 9.65488 0)
(0.00608644 8.95987 0)
(0.0261139 10.0015 0)
(0.0215107 9.97852 0)
(0.0164018 9.85333 0)
(0.00902646 9.53014 0)
(0.00491409 8.81643 0)
(0.0249613 10.0047 0)
(0.0223862 10.0026 0)
(0.0191935 9.94282 0)
(0.015384 9.77911 0)
(0.00789493 9.41913 0)
(0.00404711 8.70168 0)
(0.0239858 10.0062 0)
(0.0225652 10.0142 0)
(0.0208089 9.98602 0)
(0.0183007 9.9022 0)
(0.0139205 9.70758 0)
(0.00682869 9.32085 0)
(0.00338325 8.60906 0)
(0.0226465 10.0067 0)
(0.0224064 10.0199 0)
(0.021641 10.008 0)
(0.0202075 9.9648 0)
(0.0170782 9.86156 0)
(0.0125011 9.64025 0)
(0.005889 9.23532 0)
(0.00282967 8.53457 0)
(0.0209633 10.0066 0)
(0.0218698 10.0223 0)
(0.0219717 10.0195 0)
(0.0213069 9.99794 0)
(0.0191297 9.94344 0)
(0.0157084 9.82185 0)
(0.0111535 9.5787 0)
(0.00502426 9.16257 0)
(0.00232259 8.47541 0)
(0.0190483 10.0063 0)
(0.0210363 10.0226 0)
(0.021873 10.0254 0)
(0.021816 10.0161 0)
(0.020316 9.98792 0)
(0.0177883 9.92242 0)
(0.0142625 9.78456 0)
(0.0097865 9.52431 0)
(0.00417772 9.10235 0)
(0.00182434 8.43007 0)
(0.016978 10.0057 0)
(0.0199816 10.0217 0)
(0.0214284 10.0283 0)
(0.0218561 10.0261 0)
(0.0208793 10.0129 0)
(0.0189589 9.97828 0)
(0.0162758 9.9029 0)
(0.012675 9.75114 0)
(0.00833843 9.47804 0)
(0.00330518 9.05438 0)
(0.00130677 8.3975 0)
(0.0147712 10.0051 0)
(0.0186903 10.0203 0)
(0.0206788 10.0291 0)
(0.0215489 10.0315 0)
(0.020947 10.0271 0)
(0.0194459 10.0101 0)
(0.0173339 9.96996 0)
(0.0145126 9.88606 0)
(0.0108839 9.72272 0)
(0.00676223 9.44062 0)
(0.00236721 9.01858 0)
(0.000747653 8.37739 0)
(0.0124589 10.0044 0)
(0.0172683 10.0183 0)
(0.0196319 10.0284 0)
(0.0208984 10.034 0)
(0.0205782 10.0352 0)
(0.0194004 10.0286 0)
(0.0176492 10.0086 0)
(0.0153495 9.96398 0)
(0.0124217 9.87288 0)
(0.00883248 9.7003 0)
(0.00500959 9.41274 0)
(0.00133171 8.99495 0)
(0.000117498 8.36947 0)
(0.0101848 10.0036 0)
(0.0157785 10.016 0)
(0.0183332 10.0267 0)
(0.0199288 10.0344 0)
(0.0198841 10.0393 0)
(0.0189066 10.0393 0)
(0.0173821 10.0313 0)
(0.0153802 10.0093 0)
(0.0129145 9.96122 0)
(0.00993073 9.86429 0)
(0.00645997 9.68491 0)
(0.00303594 9.395 0)
(0.000184207 8.9836 0)
(-0.000503036 8.37369 0)
(0.00823359 10.0029 0)
(0.0141798 10.0136 0)
(0.0168316 10.0244 0)
(0.0186528 10.0334 0)
(0.0188486 10.0409 0)
(0.0180247 10.0453 0)
(0.0166248 10.0447 0)
(0.0147662 10.0361 0)
(0.0125297 10.013 0)
(0.00993737 9.96248 0)
(0.00696163 9.86125 0)
(0.00370718 9.67747 0)
(0.000794473 9.388 0)
(-0.00111941 8.98479 0)
(-0.00124857 8.39008 0)
(0.00668637 10.0022 0)
(0.0126352 10.0113 0)
(0.0151574 10.0216 0)
(0.0170828 10.0313 0)
(0.0174791 10.0406 0)
(0.0167663 10.048 0)
(0.0154232 10.0524 0)
(0.0136009 10.0521 0)
(0.0114244 10.0438 0)
(0.0089857 10.0205 0)
(0.00631776 9.96865 0)
(0.00343716 9.86471 0)
(0.000513375 9.6789 0)
(-0.00175241 9.3923 0)
(-0.00259442 8.99863 0)
(-0.00208532 8.41887 0)
(0.00553076 10.0017 0)
(0.0112334 10.0093 0)
(0.0135135 10.0188 0)
(0.015246 10.0285 0)
(0.0157806 10.0388 0)
(0.0151376 10.0484 0)
(0.0137949 10.0562 0)
(0.0119279 10.0614 0)
(0.00969021 10.0623 0)
(0.00722264 10.0551 0)
(0.00462465 10.0326 0)
(0.00195957 9.98059 0)
(-0.000698039 9.87561 0)
(-0.00313915 9.68997 0)
(-0.00460333 9.4084 0)
(-0.00424009 9.02533 0)
(-0.00301034 8.46006 0)
(0.00456533 10.0014 0)
(0.00985728 10.0077 0)
(0.0120189 10.0164 0)
(0.0133846 10.0255 0)
(0.0137664 10.036 0)
(0.0131411 10.0471 0)
(0.0117433 10.0574 0)
(0.00976179 10.0664 0)
(0.00736684 10.0732 0)
(0.00473403 10.0759 0)
(0.00201376 10.0708 0)
(-0.000677018 10.0501 0)
(-0.00324026 9.99918 0)
(-0.00555132 9.89481 0)
(-0.00731288 9.71145 0)
(-0.00780787 9.43667 0)
(-0.00606428 9.06489 0)
(-0.00402103 8.51366 0)
(0.00378107 10.0011 0)
(0.00862281 10.0064 0)
(0.0106019 10.0142 0)
(0.0116629 10.0228 0)
(0.0116882 10.0328 0)
(0.0107861 10.0444 0)
(0.00926863 10.0564 0)
(0.00710327 10.0681 0)
(0.00446383 10.079 0)
(0.00155281 10.0882 0)
(-0.00144422 10.0938 0)
(-0.00436296 10.0917 0)
(-0.00704727 10.0738 0)
(-0.00936382 10.0252 0)
(-0.0111448 9.92313 0)
(-0.0120404 9.74389 0)
(-0.0113769 9.47732 0)
(-0.00807137 9.11738 0)
(-0.00511479 8.57947 0)
(0.00314238 10.0009 0)
(0.00750909 10.0053 0)
(0.00930177 10.0124 0)
(0.0100418 10.0203 0)
(0.00973826 10.0298 0)
(0.00835643 10.041 0)
(0.00637859 10.0538 0)
(0.00395018 10.0675 0)
(0.000976901 10.0813 0)
(-0.00231907 10.0949 0)
(-0.00572615 10.1074 0)
(-0.00903628 10.1166 0)
(-0.0120506 10.1185 0)
(-0.0145844 10.1045 0)
(-0.0164738 10.0596 0)
(-0.0175119 9.96122 0)
(-0.0173268 9.78774 0)
(-0.0153036 9.53048 0)
(-0.0102472 9.18251 0)
(-0.00628019 8.6571 0)
(0.00261742 10.0008 0)
(0.00650221 10.0045 0)
(0.00810391 10.0108 0)
(0.00853634 10.0181 0)
(0.00789166 10.0269 0)
(0.00607805 10.0376 0)
(0.00341596 10.0502 0)
(0.00031093 10.0648 0)
(-0.00309468 10.0808 0)
(-0.00689065 10.0976 0)
(-0.0108357 10.1148 0)
(-0.0146894 10.1314 0)
(-0.0182133 10.1452 0)
(-0.0211782 10.152 0)
(-0.0233763 10.1429 0)
(-0.024615 10.1028 0)
(-0.0246659 10.0096 0)
(-0.0231614 9.84322 0)
(-0.01957 9.59603 0)
(-0.0125828 9.26004 0)
(-0.00750889 8.74608 0)
(0.00220015 10.0006 0)
(0.00559617 10.0038 0)
(0.0070031 10.0094 0)
(0.00714882 10.0161 0)
(0.00616777 10.0242 0)
(0.0039266 10.0342 0)
(0.000652104 10.0463 0)
(-0.00338641 10.0608 0)
(-0.00773878 10.078 0)
(-0.0121656 10.0971 0)
(-0.016792 10.1177 0)
(-0.0213443 10.1393 0)
(-0.0255478 10.1609 0)
(-0.0291348 10.1803 0)
(-0.0318545 10.1929 0)
(-0.0334795 10.1898 0)
(-0.0338036 10.1555 0)
(-0.0325937 10.0687 0)
(-0.0295166 9.91041 0)
(-0.0241451 9.67373 0)
(-0.0150456 9.34929 0)
(-0.00877892 8.84554 0)
(0.00187968 10.0005 0)
(0.00482164 10.0032 0)
(0.00599736 10.0083 0)
(0.00588121 10.0143 0)
(0.0045795 10.0217 0)
(0.00192811 10.031 0)
(-0.00194132 10.0424 0)
(-0.00681381 10.0564 0)
(-0.01242 10.0735 0)
(-0.0181282 10.0939 0)
(-0.023603 10.117 0)
(-0.0290305 10.1422 0)
(-0.034096 10.1691 0)
(-0.0384923 10.1967 0)
(-0.041932 10.2225 0)
(-0.0441504 10.2418 0)
(-0.0449154 10.2455 0)
(-0.0440223 10.218 0)
(-0.0412571 10.1385 0)
(-0.0363442 9.98911 0)
(-0.0289818 9.76305 0)
(-0.0176142 9.44966 0)
(-0.0100724 8.95472 0)
(0.0016306 10.0005 0)
(0.00419305 10.0028 0)
(0.00512217 10.0073 0)
(0.00473316 10.0127 0)
(0.00313472 10.0194 0)
(0.000101018 10.0279 0)
(-0.00433023 10.0384 0)
(-0.0100126 10.0517 0)
(-0.0167341 10.0683 0)
(-0.024095 10.0886 0)
(-0.0312483 10.1132 0)
(-0.0377608 10.1412 0)
(-0.0439016 10.1719 0)
(-0.0493175 10.2051 0)
(-0.0536803 10.2394 0)
(-0.0566936 10.2725 0)
(-0.0580954 10.2993 0)
(-0.0576651 10.3104 0)
(-0.0552213 10.2905 0)
(-0.0505886 10.2191 0)
(-0.0435734 10.0789 0)
(-0.0340248 9.86336 0)
(-0.0202299 9.56008 0)
(-0.0113491 9.072 0)
(0.00143362 10.0004 0)
(0.00368709 10.0025 0)
(0.00439741 10.0065 0)
(0.0037463 10.0114 0)
(0.00183734 10.0173 0)
(-0.0015419 10.025 0)
(-0.0064915 10.0346 0)
(-0.0129377 10.0469 0)
(-0.0207364 10.0627 0)
(-0.0295644 10.0825 0)
(-0.0388555 10.1069 0)
(-0.0475093 10.1364 0)
(-0.0549851 10.1703 0)
(-0.0616738 10.2075 0)
(-0.0671976 10.2478 0)
(-0.071222 10.2897 0)
(-0.0734597 10.3307 0)
(-0.0736701 10.3656 0)
(-0.0716673 10.3848 0)
(-0.067312 10.373 0)
(-0.060492 10.3101 0)
(-0.0511167 10.1793 0)
(-0.0391611 9.97372 0)
(-0.0227807 9.67922 0)
(-0.0121753 9.19565 0)
(0.00127548 10.0004 0)
(0.00327403 10.0022 0)
(0.00379673 10.0058 0)
(0.00294195 10.0102 0)
(0.000738395 10.0154 0)
(-0.00299357 10.0222 0)
(-0.00840707 10.0309 0)
(-0.0155563 10.0422 0)
(-0.0243712 10.0568 0)
(-0.0346126 10.0757 0)
(-0.0457998 10.0995 0)
(-0.0571697 10.1289 0)
(-0.0673158 10.1644 0)
(-0.0755937 10.205 0)
(-0.0825741 10.2497 0)
(-0.0878731 10.2978 0)
(-0.0911703 10.3481 0)
(-0.0922104 10.3976 0)
(-0.090802 10.441 0)
(-0.0868152 10.4687 0)
(-0.0801736 10.4653 0)
(-0.0708456 10.411 0)
(-0.0588273 10.2894 0)
(-0.0443356 10.0929 0)
(-0.0252845 9.80682 0)
(-0.013033 9.32568 0)
(0.00114689 10.0003 0)
(0.00293415 10.002 0)
(0.00329941 10.0053 0)
(0.0022895 10.0092 0)
(-0.000138446 10.0138 0)
(-0.00419649 10.0197 0)
(-0.0100656 10.0274 0)
(-0.017844 10.0375 0)
(-0.0275952 10.0509 0)
(-0.0391709 10.0685 0)
(-0.0521847 10.0912 0)
(-0.0659631 10.1199 0)
(-0.0795026 10.1552 0)
(-0.0910442 10.1976 0)
(-0.0998588 10.246 0)
(-0.106769 10.2989 0)
(-0.111411 10.3557 0)
(-0.113508 10.4149 0)
(-0.112868 10.4733 0)
(-0.109369 10.5255 0)
(-0.10296 10.5619 0)
(-0.0936446 10.567 0)
(-0.0814629 10.5212 0)
(-0.0665528 10.4082 0)
(-0.0486609 10.2202 0)
(-0.0213265 9.93629 0)
(-0.00781744 9.39917 0)
(0.00104111 10.0003 0)
(0.00265305 10.0018 0)
(0.00289002 10.0049 0)
(0.00175878 10.0084 0)
(-0.000830576 10.0125 0)
(-0.00513 10.0175 0)
(-0.0114011 10.0241 0)
(-0.0197843 10.0329 0)
(-0.0303758 10.045 0)
(-0.043184 10.061 0)
(-0.0579259 10.0823 0)
(-0.0740278 10.1097 0)
(-0.090577 10.1442 0)
(-0.106291 10.1864 0)
(-0.119017 10.2369 0)
(-0.127984 10.2939 0)
(-0.134352 10.3559 0)
(-0.13781 10.4219 0)
(-0.138155 10.4903 0)
(-0.135288 10.5579 0)
(-0.129187 10.6191 0)
(-0.1199 10.664 0)
(-0.1075 10.6773 0)
(-0.0921354 10.6396 0)
(-0.0737143 10.5347 0)
(-0.0528257 10.3524 0)
(-0.0166282 10.0959 0)
(-0.000297538 9.45222 0)
(0.000953137 10.0003 0)
(0.00241931 10.0017 0)
(0.00254311 10.0045 0)
(0.00132587 10.0077 0)
(-0.00137636 10.0113 0)
(-0.00584163 10.0157 0)
(-0.0123991 10.0212 0)
(-0.0212995 10.0287 0)
(-0.0326897 10.0391 0)
(-0.0466087 10.0535 0)
(-0.062953 10.073 0)
(-0.0812601 10.0987 0)
(-0.100721 10.1318 0)
(-0.120137 10.1731 0)
(-0.137916 10.2233 0)
(-0.151492 10.2827 0)
(-0.160099 10.3492 0)
(-0.16533 10.4209 0)
(-0.16697 10.4966 0)
(-0.164937 10.5745 0)
(-0.159253 10.6513 0)
(-0.150019 10.7212 0)
(-0.137373 10.7744 0)
(-0.121478 10.7956 0)
(-0.102326 10.7655 0)
(-0.0798222 10.6677 0)
(-0.0559785 10.4977 0)
(-0.0180106 10.2563 0)
(0.00415079 9.49613 0)
(0.000879254 10.0002 0)
(0.00222402 10.0016 0)
(0.00225304 10.0042 0)
(0.000977341 10.0071 0)
(-0.00180608 10.0103 0)
(-0.00637867 10.0141 0)
(-0.0131232 10.0187 0)
(-0.0223832 10.0249 0)
(-0.0344437 10.0335 0)
(-0.0494127 10.046 0)
(-0.0672091 10.0635 0)
(-0.0875706 10.0871 0)
(-0.109806 10.1182 0)
(-0.132818 10.158 0)
(-0.155085 10.2072 0)
(-0.174693 10.2663 0)
(-0.188634 10.3356 0)
(-0.196215 10.4124 0)
(-0.199594 10.4942 0)
(-0.198704 10.5799 0)
(-0.193612 10.6673 0)
(-0.184491 10.7531 0)
(-0.171565 10.8315 0)
(-0.155068 10.8926 0)
(-0.135079 10.921 0)
(-0.111496 10.898 0)
(-0.0844328 10.8079 0)
(-0.0567124 10.6549 0)
(-0.0210666 10.4126 0)
(0.00517843 9.53902 0)
(0.000816691 10.0002 0)
(0.00206008 10.0015 0)
(0.00200968 10.0039 0)
(0.000690498 10.0066 0)
(-0.00214284 10.0094 0)
(-0.00677909 10.0127 0)
(-0.0136342 10.0165 0)
(-0.0231209 10.0215 0)
(-0.0356422 10.0285 0)
(-0.0514828 10.0387 0)
(-0.0706506 10.0538 0)
(-0.0928858 10.0751 0)
(-0.117721 10.1039 0)
(-0.144177 10.1414 0)
(-0.170821 10.1889 0)
(-0.195794 10.247 0)
(-0.216825 10.3161 0)
(-0.230479 10.3961 0)
(-0.236238 10.4837 0)
(-0.236953 10.5761 0)
(-0.232749 10.6718 0)
(-0.223878 10.7686 0)
(-0.210669 10.8631 0)
(-0.193475 10.9493 0)
(-0.172528 11.0176 0)
(-0.147875 11.0529 0)
(-0.119854 11.0368 0)
(-0.0886337 10.9555 0)
(-0.0576941 10.8188 0)
(-0.0233718 10.5638 0)
(0.004806 9.5951 0)
(0.000763339 10.0002 0)
(0.00192169 10.0014 0)
(0.00180699 10.0037 0)
(0.000454424 10.0061 0)
(-0.00240725 10.0087 0)
(-0.00707333 10.0115 0)
(-0.0139812 10.0146 0)
(-0.0235928 10.0186 0)
(-0.0363994 10.0241 0)
(-0.0528366 10.0322 0)
(-0.0731374 10.0445 0)
(-0.0971472 10.0629 0)
(-0.124371 10.0889 0)
(-0.154072 10.1237 0)
(-0.184936 10.1687 0)
(-0.215169 10.225 0)
(-0.242515 10.2932 0)
(-0.264393 10.3731 0)
(-0.276953 10.4645 0)
(-0.279971 10.5635 0)
(-0.277121 10.6665 0)
(-0.268762 10.772 0)
(-0.255355 10.8779 0)
(-0.237395 10.9805 0)
(-0.215312 11.074 0)
(-0.189376 11.1489 0)
(-0.160036 11.1907 0)
(-0.128087 11.1811 0)
(-0.0935472 11.1096 0)
(-0.0594228 10.9841 0)
(-0.0257181 10.7269 0)
(0.00375899 9.6608 0)
(0.000717542 10.0002 0)
(0.00180422 10.0013 0)
(0.00163682 10.0035 0)
(0.000257633 10.0058 0)
(-0.00261455 10.008 0)
(-0.00728557 10.0104 0)
(-0.0142033 10.0129 0)
(-0.0238632 10.016 0)
(-0.0368208 10.0202 0)
(-0.0536253 10.0264 0)
(-0.0747027 10.0361 0)
(-0.100179 10.0511 0)
(-0.129677 10.0735 0)
(-0.162383 10.1052 0)
(-0.197253 10.1471 0)
(-0.232584 10.2008 0)
(-0.266166 10.2671 0)
(-0.29538 10.3463 0)
(-0.317356 10.4378 0)
(-0.327863 10.5412 0)
(-0.327098 10.6517 0)
(-0.319706 10.7653 0)
(-0.306316 10.8804 0)
(-0.287612 10.9947 0)
(-0.264231 11.1047 0)
(-0.23671 11.2049 0)
(-0.205642 11.2859 0)
(-0.171917 11.3336 0)
(-0.136514 11.3299 0)
(-0.0991622 11.2671 0)
(-0.0623312 11.1678 0)
(-0.028233 10.902 0)
(0.002193 9.73475 0)
(0.000678034 10.0002 0)
(0.00170397 10.0013 0)
(0.00149233 10.0033 0)
(9.45775e-05 10.0054 0)
(-0.00277714 10.0075 0)
(-0.00743488 10.0095 0)
(-0.0143312 10.0115 0)
(-0.0239831 10.0137 0)
(-0.0369908 10.0167 0)
(-0.0539869 10.0213 0)
(-0.0755442 10.0286 0)
(-0.102032 10.0403 0)
(-0.133418 10.0586 0)
(-0.169008 10.0861 0)
(-0.207616 10.1244 0)
(-0.247825 10.1747 0)
(-0.287493 10.2381 0)
(-0.324001 10.3155 0)
(-0.354386 10.4066 0)
(-0.375526 10.5105 0)
(-0.38287 10.6262 0)
(-0.377193 10.7483 0)
(-0.36424 10.8722 0)
(-0.344937 10.9963 0)
(-0.32019 11.1184 0)
(-0.290803 11.2352 0)
(-0.257594 11.3413 0)
(-0.221542 11.4277 0)
(-0.183758 11.4803 0)
(-0.145075 11.4814 0)
(-0.105626 11.4449 0)
(-0.0661245 11.368 0)
(-0.0308441 11.0714 0)
(0.000475575 9.81522 0)
(0.000644137 10.0002 0)
(0.00161777 10.0012 0)
(0.001369 10.0031 0)
(-4.02127e-05 10.0051 0)
(-0.00290433 10.007 0)
(-0.00753621 10.0087 0)
(-0.014389 10.0102 0)
(-0.0239923 10.0117 0)
(-0.0369761 10.0137 0)
(-0.0540318 10.0168 0)
(-0.0758411 10.0219 0)
(-0.102961 10.0307 0)
(-0.135661 10.0449 0)
(-0.173663 10.0674 0)
(-0.215893 10.1008 0)
(-0.260697 10.1471 0)
(-0.306235 10.2069 0)
(-0.34992 10.2814 0)
(-0.388725 10.3708 0)
(-0.419371 10.4747 0)
(-0.438565 10.5914 0)
(-0.44152 10.7197 0)
(-0.429744 10.8531 0)
(-0.410201 10.9868 0)
(-0.384133 11.1192 0)
(-0.352687 11.2484 0)
(-0.316942 11.3711 0)
(-0.278059 11.4823 0)
(-0.237247 11.5732 0)
(-0.195549 11.629 0)
(-0.15439 11.6523 0)
(-0.112643 11.6411 0)
(-0.0702106 11.5631 0)
(-0.0333422 11.2351 0)
(-0.00120274 9.90009 0)
(0.00154266 10.0012 0)
(0.000603669 10.0002 0)
(0.00126259 10.003 0)
(-0.000152331 10.0049 0)
(-0.00300342 10.0065 0)
(-0.00760109 10.0079 0)
(-0.0143954 10.0091 0)
(-0.0239219 10.01 0)
(-0.0368288 10.011 0)
(-0.0538471 10.0128 0)
(-0.0757369 10.016 0)
(-0.103197 10.022 0)
(-0.13673 10.0327 0)
(-0.176433 10.0502 0)
(-0.221722 10.0777 0)
(-0.271026 10.1184 0)
(-0.322146 10.1738 0)
(-0.372814 10.2444 0)
(-0.419973 10.331 0)
(-0.460212 10.4335 0)
(-0.490012 10.5508 0)
(-0.506002 10.6807 0)
(-0.503257 10.8213 0)
(-0.484171 10.9657 0)
(-0.457043 11.1086 0)
(-0.423448 11.2485 0)
(-0.384837 11.3839 0)
(-0.342611 11.5116 0)
(-0.298162 11.627 0)
(-0.25271 11.7205 0)
(-0.208375 11.7963 0)
(-0.164251 11.8413 0)
(-0.119336 11.8341 0)
(-0.0742598 11.7519 0)
(-0.035624 11.3927 0)
(-0.00272427 9.98748 0)
(0.00116977 10.0029 0)
(0.00145585 10.0011 0)
(0.000555172 10.0002 0)
(-0.000246979 10.0046 0)
(-0.00308047 10.0061 0)
(-0.00763825 10.0073 0)
(-0.014365 10.0081 0)
(-0.0237962 10.0084 0)
(-0.0365894 10.0087 0)
(-0.0535008 10.0092 0)
(-0.0753446 10.0107 0)
(-0.102923 10.0144 0)
(-0.136919 10.0217 0)
(-0.177722 10.0348 0)
(-0.225197 10.0564 0)
(-0.27835 10.09 0)
(-0.335004 10.1391 0)
(-0.392379 10.205 0)
(-0.447741 10.2877 0)
(-0.497583 10.3876 0)
(-0.538172 10.504 0)
(-0.565833 10.6351 0)
(-0.577245 10.7783 0)
(-0.56744 10.931 0)
(-0.539861 11.0857 0)
(-0.50424 11.2369 0)
(-0.462515 11.3835 0)
(-0.416469 11.5239 0)
(-0.367746 11.6557 0)
(-0.317791 11.7735 0)
(-0.269427 11.8861 0)
(-0.221835 11.9811 0)
(-0.173498 12.028 0)
(-0.125543 12.022 0)
(-0.0780679 11.9333 0)
(-0.0376607 11.5437 0)
(-0.00411562 10.0757 0)
(-0.000330396 10.0044 0)
(0.00107333 10.0028 0)
(0.00135004 10.001 0)
(0.000508856 10.0001 4.52804e-20)
(-0.00314125 10.0058 0)
(-0.00765469 10.0068 0)
(-0.0143083 10.0072 0)
(-0.0236333 10.0071 0)
(-0.036289 10.0066 0)
(-0.0530454 10.0061 0)
(-0.0747526 10.0061 0)
(-0.102286 10.0076 0)
(-0.136463 10.0119 0)
(-0.177899 10.0209 0)
(-0.22682 10.0372 0)
(-0.282764 10.0639 0)
(-0.344219 10.1048 0)
(-0.408332 10.1636 0)
(-0.471657 10.2414 0)
(-0.531019 10.3374 0)
(-0.582505 10.4516 0)
(-0.622143 10.5825 0)
(-0.646225 10.7278 0)
(-0.651601 10.884 0)
(-0.633379 11.0483 0)
(-0.5962 11.2125 0)
(-0.551316 11.371 0)
(-0.501035 11.5231 0)
(-0.447405 11.6677 0)
(-0.392173 11.8018 0)
(-0.33889 11.9382 0)
(-0.286866 12.0689 0)
(-0.234303 12.1635 0)
(-0.181996 12.2104 0)
(-0.131147 12.2033 0)
(-0.0815202 12.1068 0)
(-0.0394178 11.688 0)
(-0.00537261 10.1634 0)
(-0.00319595 10.0055 0)
(-0.000400897 10.0042 0)
(0.000963582 10.0026 2.06068e-19)
(0.00124768 10.001 -1.43559e-19)
(0.000464656 10.0001 -8.88758e-20)
(-0.0076573 10.0063 0)
(-0.0142336 10.0064 0)
(-0.0234466 10.0059 0)
(-0.0359511 10.0048 0)
(-0.0525212 10.0033 0)
(-0.0740288 10.002 0)
(-0.101399 10.0015 0)
(-0.135547 10.0031 0)
(-0.177261 10.0085 0)
(-0.227047 10.0198 0)
(-0.284879 10.0402 0)
(-0.349873 10.073 0)
(-0.41992 10.1225 0)
(-0.491362 10.1925 0)
(-0.560067 10.2836 0)
(-0.622466 10.3941 0)
(-0.674314 10.5234 0)
(-0.711512 10.6693 0)
(-0.730452 10.8287 0)
(-0.728302 10.9975 0)
(-0.700361 11.1727 0)
(-0.6526 11.3454 0)
(-0.597848 11.51 0)
(-0.538716 11.6665 0)
(-0.477402 11.8136 0)
(-0.418341 11.9662 0)
(-0.360844 12.1202 0)
(-0.302916 12.2493 0)
(-0.245646 12.3418 0)
(-0.189632 12.387 0)
(-0.136095 12.3771 0)
(-0.0845632 12.272 0)
(-0.0408905 11.8254 0)
(-0.00648408 10.2493 0)
(-0.00766123 10.0059 0)
(-0.00320694 10.0052 -4.65529e-19)
(-0.000463907 10.0039 -2.17758e-19)
(0.00085917 10.0024 1.01133e-19)
(0.00114827 10.0009 -9.39076e-20)
(0.000422607 10.0001 0)
(-0.0141486 10.0057 0)
(-0.0232456 10.0048 0)
(-0.0355924 10.0031 0)
(-0.0519586 10.0009 0)
(-0.0732254 9.99832 0)
(-0.10035 9.99617 0)
(-0.134318 9.99539 0)
(-0.176041 9.99744 0)
(-0.226247 10.0043 0)
(-0.285254 10.0188 0)
(-0.352696 10.0441 0)
(-0.427193 10.0843 0)
(-0.505904 10.1437 0)
(-0.584282 10.2265 0)
(-0.657513 10.3321 0)
(-0.721713 10.4583 0)
(-0.772413 10.6033 0)
(-0.80552 10.7644 0)
(-0.817684 10.9377 0)
(-0.806536 11.1185 0)
(-0.767669 11.3035 0)
(-0.708503 11.4834 0)
(-0.643424 11.6531 0)
(-0.575236 11.8123 0)
(-0.509475 11.9779 0)
(-0.445539 12.148 0)
(-0.381005 12.2998 0)
(-0.317452 12.4256 0)
(-0.25577 12.5146 0)
(-0.196359 12.5568 0)
(-0.140379 12.543 0)
(-0.087186 12.4287 0)
(-0.0421001 11.9556 0)
(-0.00745095 10.3326 0)
(-0.0140761 10.0051 0)
(-0.0075755 10.0053 9.8379e-19)
(-0.00316619 10.0047 0)
(-0.000522114 10.0036 2.1367e-19)
(0.000761325 10.0022 3.49136e-23)
(0.0010528 10.0008 0)
(0.000382724 10.0001 0)
(-0.023039 10.0039 0)
(-0.0352241 10.0017 0)
(-0.0513788 9.9987 0)
(-0.0723815 9.9951 0)
(-0.099207 9.99143 0)
(-0.132886 9.98852 0)
(-0.174425 9.98761 0)
(-0.224713 9.99048 0)
(-0.284342 9.99954 0)
(-0.353366 10.0179 0)
(-0.431013 10.0493 0)
(-0.515269 10.0982 0)
(-0.602464 10.1692 0)
(-0.687096 10.2661 0)
(-0.763702 10.3877 0)
(-0.828208 10.5303 0)
(-0.876048 10.6916 0)
(-0.903302 10.8678 0)
(-0.90703 11.0545 0)
(-0.885467 11.2464 0)
(-0.834603 11.4399 0)
(-0.763369 11.6259 0)
(-0.687631 11.7988 0)
(-0.614275 11.9769 0)
(-0.542805 12.16 0)
(-0.470492 12.3276 0)
(-0.399242 12.4756 0)
(-0.330399 12.5966 0)
(-0.264647 12.681 0)
(-0.202177 12.7192 0)
(-0.144024 12.7005 0)
(-0.0894048 12.5767 0)
(-0.0430758 12.0785 0)
(-0.00828057 10.4127 0)
(-0.0228606 10.0031 0)
(-0.0138488 10.0044 1.05378e-22)
(-0.00736599 10.0047 0)
(-0.00312193 10.0043 -2.25773e-19)
(-0.000571677 10.0033 2.20187e-23)
(0.000669798 10.0021 0)
(0.000961234 10.0008 0)
(0.000345014 10.0001 0)
(-0.034856 10.0004 0)
(-0.0507953 9.99679 0)
(-0.0715243 9.99225 0)
(-0.0980193 9.98724 0)
(-0.131338 9.98242 0)
(-0.172553 9.97887 0)
(-0.222677 9.97814 0)
(-0.282507 9.98236 0)
(-0.352434 9.99436 0)
(-0.432187 10.0177 0)
(-0.520456 10.0565 0)
(-0.614496 10.1156 0)
(-0.709716 10.1997 0)
(-0.799613 10.3122 0)
(-0.878148 10.4509 0)
(-0.941218 10.6107 0)
(-0.98433 10.7884 0)
(-1.0039 10.9794 0)
(-0.997561 11.1786 0)
(-0.964268 11.3804 0)
(-0.900486 11.5812 0)
(-0.816672 11.7714 0)
(-0.734913 11.9636 0)
(-0.654864 12.1595 0)
(-0.573397 12.3401 0)
(-0.493052 12.5036 0)
(-0.415483 12.6461 0)
(-0.341742 12.7613 0)
(-0.272302 12.8404 0)
(-0.207126 12.8738 0)
(-0.147068 12.8496 0)
(-0.0912466 12.7162 0)
(-0.0438473 12.1943 0)
(-0.00898367 10.4891 0)
(-0.0345377 9.99933 0)
(-0.0224365 10.0021 -5.49217e-19)
(-0.0133865 10.0036 0)
(-0.00715517 10.0041 0)
(-0.00306545 10.0039 6.64713e-19)
(-0.000612344 10.0031 0)
(0.000584514 10.0019 0)
(0.000873593 10.0007 1.77538e-19)
(0.000309501 10.0001 0)
(-0.0502189 9.99509 0)
(-0.07067 9.98973 0)
(-0.0968216 9.98352 0)
(-0.129739 9.97702 0)
(-0.170537 9.97112 0)
(-0.220316 9.96716 0)
(-0.280035 9.96702 0)
(-0.350343 9.97326 0)
(-0.431378 9.98913 0)
(-0.522419 10.0186 0)
(-0.621521 10.0663 0)
(-0.725105 10.1372 0)
(-0.827586 10.2359 0)
(-0.921437 10.3654 0)
(-1.00017 10.5221 0)
(-1.05986 10.6996 0)
(-1.09625 10.8936 0)
(-1.1063 11.0988 0)
(-1.08834 11.3095 0)
(-1.04214 11.5199 0)
(-0.964669 11.7261 0)
(-0.873763 11.9364 0)
(-0.784122 12.147 0)
(-0.692148 12.3405 0)
(-0.601067 12.5168 0)
(-0.513149 12.6745 0)
(-0.429727 12.8105 0)
(-0.351529 12.9191 0)
(-0.278803 12.9921 0)
(-0.211264 13.0202 0)
(-0.149564 12.9902 0)
(-0.092746 12.8472 0)
(-0.0444426 12.303 0)
(-0.00957296 10.5616 0)
(-0.0497207 9.9936 0)
(-0.0338487 9.99808 0)
(-0.0216162 10.0011 -5.43035e-19)
(-0.0129283 10.0028 -5.04255e-19)
(-0.00692748 10.0036 -9.36516e-19)
(-0.00299536 10.0035 0)
(-0.00064407 10.0028 -4.03927e-19)
(0.000505603 10.0018 -3.75182e-19)
(0.000789902 10.0007 1.74237e-19)
(0.000276136 10.0001 0)
(-0.0698309 9.9875 0)
(-0.0956339 9.98023 0)
(-0.128132 9.97224 0)
(-0.168457 9.96425 0)
(-0.217769 9.9574 0)
(-0.277148 9.95336 0)
(-0.347447 9.9544 0)
(-0.429124 9.96348 0)
(-0.521945 9.98432 0)
(-0.624648 10.0213 0)
(-0.734547 10.0794 0)
(-0.847143 10.1637 0)
(-0.955793 10.2785 0)
(-1.05197 10.4264 0)
(-1.12892 10.6019 0)
(-1.1831 10.7972 0)
(-1.21074 11.0071 0)
(-1.20945 11.2256 0)
(-1.17843 11.4465 0)
(-1.11831 11.6637 0)
(-1.03365 11.8911 0)
(-0.933313 12.1206 0)
(-0.829378 12.3293 0)
(-0.725894 12.5185 0)
(-0.625734 12.6887 0)
(-0.530792 12.8394 0)
(-0.442039 12.9681 0)
(-0.359854 13.0696 0)
(-0.28424 13.1361 0)
(-0.214665 13.1585 0)
(-0.151569 13.1223 0)
(-0.0939391 12.97 0)
(-0.0448881 12.4047 0)
(-0.0100612 10.63 0)
(-0.0691074 9.98552 0)
(-0.0486838 9.99196 -6.1417e-19)
(-0.0325371 9.9967 5.73728e-19)
(-0.0208099 10 -2.48976e-22)
(-0.0124477 10.0021 4.94761e-19)
(-0.00668041 10.003 4.59565e-19)
(-0.00291146 10.0031 8.53608e-19)
(-0.000666767 10.0025 5.94608e-19)
(0.000432907 10.0016 -1.84111e-19)
(0.000710248 10.0006 0)
(0.000244905 10.0001 0)
(-0.0944709 9.97732 0)
(-0.126543 9.968 0)
(-0.166369 9.95815 0)
(-0.21514 9.94874 0)
(-0.27402 9.94121 0)
(-0.344019 9.93757 0)
(-0.425852 9.9405 0)
(-0.519677 9.95343 0)
(-0.624801 9.98053 0)
(-0.739317 10.0266 0)
(-0.859705 10.0968 0)
(-0.980454 10.196 0)
(-1.09385 10.3286 0)
(-1.19043 10.4958 0)
(-1.26338 10.6906 0)
(-1.30984 10.9036 0)
(-1.32665 11.1286 0)
(-1.31231 11.3592 0)
(-1.26693 11.5886 0)
(-1.20053 11.8284 0)
(-1.10588 12.0762 0)
(-0.988235 12.3044 0)
(-0.870395 12.5088 0)
(-0.756002 12.6918 0)
(-0.647416 12.8547 0)
(-0.546066 12.9977 0)
(-0.452532 13.1185 0)
(-0.366833 13.2124 0)
(-0.288712 13.2722 0)
(-0.217406 13.2886 0)
(-0.153142 13.2462 0)
(-0.0948655 13.0849 0)
(-0.0452076 12.4998 0)
(-0.0104612 10.6944 0)
(-0.0934713 9.97473 0)
(-0.0676223 9.9834 -8.06163e-22)
(-0.0467152 9.99019 0)
(-0.0312564 9.99537 -4.06225e-22)
(-0.0199743 9.99903 0)
(-0.0119391 10.0013 -4.85563e-19)
(-0.00641296 10.0025 -9.02004e-19)
(-0.00281446 10.0027 1.22031e-23)
(-0.00068058 10.0023 3.89023e-19)
(0.00036649 10.0015 -1.80684e-19)
(0.000634632 10.0005 1.67834e-19)
(0.000215773 10.0001 0)
(-0.124988 9.96423 0)
(-0.164304 9.95274 0)
(-0.212499 9.94105 0)
(-0.27078 9.93041 0)
(-0.340275 9.92258 0)
(-0.421899 9.91997 0)
(-0.516129 9.92571 0)
(-0.62274 9.94369 0)
(-0.740486 9.9785 0)
(-0.866713 10.0352 0)
(-0.996961 10.1192 0)
(-1.12467 10.2351 0)
(-1.24107 10.3867 0)
(-1.33586 10.5741 0)
(-1.40243 10.7884 0)
(-1.43887 11.0185 0)
(-1.44286 11.2577 0)
(-1.41384 11.4987 0)
(-1.36289 11.7523 0)
(-1.28699 12.0142 0)
(-1.17276 12.2618 0)
(-1.03818 12.486 0)
(-0.907071 12.6841 0)
(-0.782497 12.8595 0)
(-0.666214 13.0142 0)
(-0.559109 13.1488 0)
(-0.461348 13.2613 0)
(-0.372591 13.3476 0)
(-0.292324 13.4005 0)
(-0.219567 13.4108 0)
(-0.154337 13.3622 0)
(-0.0955619 13.1921 0)
(-0.0454222 12.5885 0)
(-0.0107846 10.7548 0)
(-0.123657 9.9609 0)
(-0.0914179 9.97201 6.86065e-19)
(-0.0647931 9.98114 -6.42092e-19)
(-0.0448036 9.98849 5.95227e-19)
(-0.0299385 9.99409 0)
(-0.0190995 9.99808 0)
(-0.0114024 10.0006 4.76534e-19)
(-0.00612617 10.002 -4.42561e-19)
(-0.00270404 10.0024 1.80971e-23)
(-0.000685469 10.0021 1.90929e-19)
(0.000306213 10.0014 -1.77351e-19)
(0.000563027 10.0005 -1.64715e-19)
(0.00018883 10.0001 0)
(-0.162286 9.94794 0)
(-0.209884 9.93422 0)
(-0.267517 9.9208 0)
(-0.336376 9.90923 0)
(-0.41753 9.90165 0)
(-0.51171 9.90089 0)
(-0.619079 9.91055 0)
(-0.738942 9.93495 0)
(-0.869394 9.97908 0)
(-1.00693 10.0483 0)
(-1.14609 10.1477 0)
(-1.27923 10.2819 0)
(-1.39656 10.4535 0)
(-1.48714 10.6617 0)
(-1.54484 10.8953 0)
(-1.56897 11.1419 0)
(-1.5582 11.3937 0)
(-1.52455 11.6606 0)
(-1.46435 11.9383 0)
(-1.36742 12.2016 0)
(-1.23381 12.4461 0)
(-1.08298 12.6639 0)
(-0.939435 12.854 0)
(-0.805498 13.0208 0)
(-0.682289 13.1667 0)
(-0.570093 13.2924 0)
(-0.468643 13.3965 0)
(-0.377263 13.475 0)
(-0.29518 13.521 0)
(-0.221225 13.5252 0)
(-0.155208 13.4706 0)
(-0.0960635 13.2921 0)
(-0.0455507 12.6712 0)
(-0.0110428 10.8113 0)
(-0.160567 9.94368 0)
(-0.120895 9.95743 0)
(-0.0874806 9.96917 6.78163e-19)
(-0.0620579 9.97899 -1.26058e-18)
(-0.0428449 9.98686 1.16975e-18)
(-0.0285669 9.99287 -1.08567e-18)
(-0.0181854 9.99717 0)
(-0.0108385 9.99997 4.67826e-19)
(-0.00582108 10.0015 -4.34334e-19)
(-0.00258044 10.002 -4.03485e-19)
(-0.000681493 10.0019 0)
(0.000251947 10.0012 1.74059e-19)
(0.000495929 10.0004 0)
(0.000164548 10.0001 0)
(-0.207327 9.92816 0)
(-0.264279 9.91227 0)
(-0.332433 9.89736 0)
(-0.412944 9.88532 0)
(-0.506743 9.8787 0)
(-0.614309 9.8808 0)
(-0.735408 9.89567 0)
(-0.868776 9.92806 0)
(-1.01174 9.98326 0)
(-1.15986 10.0667 0)
(-1.30663 10.1834 0)
(-1.44334 10.3372 0)
(-1.5593 10.5299 0)
(-1.64307 10.759 0)
(-1.68934 11.0115 0)
(-1.6989 11.273 0)
(-1.68475 11.5528 0)
(-1.64233 11.8461 0)
(-1.55927 12.1272 0)
(-1.4412 12.3888 0)
(-1.28877 12.6274 0)
(-1.12264 12.8369 0)
(-0.967626 13.0178 0)
(-0.825213 13.1751 0)
(-0.695848 13.3117 0)
(-0.579206 13.4284 0)
(-0.474582 13.524 0)
(-0.380979 13.5947 0)
(-0.29738 13.6339 0)
(-0.222453 13.6322 0)
(-0.155805 13.5717 0)
(-0.0964007 13.3852 0)
(-0.045609 12.748 0)
(-0.0112452 10.8639 0)
(-0.205161 9.92277 0)
(-0.156934 9.93929 0)
(-0.115555 9.95386 0)
(-0.0836923 9.96646 1.33133e-18)
(-0.0592659 9.97693 -1.23561e-18)
(-0.0408153 9.98531 1.14686e-18)
(-0.0271426 9.99171 0)
(-0.0172344 9.99631 -4.94247e-19)
(-0.0102484 9.99933 0)
(-0.00549734 10.001 4.26301e-19)
(-0.00244532 10.0017 0)
(-0.000667809 10.0017 0)
(0.000203486 10.0011 0)
(0.000434919 10.0004 1.69205e-19)
(0.000143012 10 8.26392e-20)
(-0.261111 9.90468 0)
(-0.328505 9.88679 0)
(-0.408278 9.87077 0)
(-0.501473 9.8589 0)
(-0.608819 9.85417 0)
(-0.73047 9.86035 0)
(-0.865704 9.88192 0)
(-1.01257 9.92402 0)
(-1.16755 9.99213 0)
(-1.3252 10.0916 0)
(-1.47794 10.2272 0)
(-1.61607 10.4018 0)
(-1.7281 10.6162 0)
(-1.80235 10.8661 0)
(-1.83461 11.1363 0)
(-1.84245 11.4281 0)
(-1.82032 11.7368 0)
(-1.75327 12.0361 0)
(-1.64688 12.3172 0)
(-1.50797 12.5739 0)
(-1.3376 12.8044 0)
(-1.15728 13.0041 0)
(-0.991868 13.1748 0)
(-0.841894 13.3221 0)
(-0.707123 13.4491 0)
(-0.58665 13.5567 0)
(-0.479326 13.644 0)
(-0.383864 13.7071 0)
(-0.299019 13.7396 0)
(-0.223315 13.7321 0)
(-0.156172 13.6659 0)
(-0.0966013 13.4719 0)
(-0.0456103 12.8195 0)
(-0.0113998 10.913 0)
(-0.258446 9.89795 0)
(-0.200477 9.91727 0)
(-0.149852 9.93485 1.52217e-18)
(-0.110442 9.95048 1.41168e-18)
(-0.0798354 9.96389 1.30936e-18)
(-0.0563826 9.975 -1.21455e-18)
(-0.0387166 9.98386 0)
(-0.0256689 9.99062 0)
(-0.016248 9.9955 0)
(-0.00963351 9.99874 9.01335e-19)
(-0.00515652 10.0006 4.1848e-19)
(-0.00229768 10.0014 3.88649e-19)
(-0.000645929 10.0015 0)
(0.000161552 10.001 -1.78788e-19)
(0.000380427 10.0004 -8.7347e-20)
(0.000123867 10 0)
(-0.324659 9.8774 0)
(-0.403607 9.85781 0)
(-0.496066 9.84123 0)
(-0.602908 9.83035 0)
(-0.724593 9.82864 0)
(-0.860863 9.84031 0)
(-1.0104 9.87028 0)
(-1.17048 9.92394 0)
(-1.33665 10.0069 0)
(-1.50243 10.1242 0)
(-1.6592 10.2801 0)
(-1.79633 10.4766 0)
(-1.90172 10.7129 0)
(-1.96364 10.9829 0)
(-1.99634 11.2857 0)
(-1.99746 11.6095 0)
(-1.94906 11.9273 0)
(-1.85642 12.2288 0)
(-1.72669 12.5064 0)
(-1.56763 12.7557 0)
(-1.38041 12.9761 0)
(-1.18716 13.1648 0)
(-1.01244 13.3246 0)
(-0.855817 13.4615 0)
(-0.716352 13.5788 0)
(-0.592618 13.6775 0)
(-0.483031 13.7565 0)
(-0.386034 13.8123 0)
(-0.300182 13.8384 0)
(-0.223872 13.8252 0)
(-0.15635 13.7536 0)
(-0.0966887 13.5524 0)
(-0.045565 12.8858 0)
(-0.0115154 10.9587 0)
(-0.32145 9.86905 0)
(-0.252502 9.8911 0)
(-0.191254 9.91178 -3.2198e-18)