/*--------------------------------*- C++ -*----------------------------------*\
  =========                 |
  \\      /  F ield         | OpenFOAM: The Open Source CFD Toolbox
   \\    /   O peration     | Website:  https://openfoam.org
    \\  /    A nd           | Version:  8
     \\/     M anipulation  |
\*---------------------------------------------------------------------------*/
FoamFile
{
    version     2.0;
    format      ascii;
    class       volScalarField;
    location    "0.05";
    object      p;
}
// * * * * * * * * * * * * * * * * * * * * * * * * * * * * * * * * * * * * * //

dimensions      [0 2 -2 0 0 0 0];

internalField   nonuniform List<scalar> 
15677
(
62.0423
61.6857
61.273
61.7503
61.2612
61.2749
61.7253
61.2884
61.2842
61.1685
61.6999
61.2898
61.2845
61.1775
61.077
61.6781
61.292
61.2844
61.1767
61.0846
60.9809
61.6547
61.2943
61.284
61.1778
61.0845
60.9876
60.8665
61.6295
61.2969
61.2832
61.1782
61.0855
60.9876
60.8723
60.7299
61.6034
61.3
61.2817
61.1782
61.086
60.9885
60.8724
60.7349
60.5638
61.5761
61.302
61.2798
61.1781
61.0865
60.9891
60.8734
60.7352
60.5681
60.3606
61.5475
61.3035
61.2772
61.1776
61.0869
60.9897
60.8741
60.7362
60.5685
60.3642
60.1126
61.518
61.3051
61.2739
61.1774
61.0873
60.9904
60.875
60.7371
60.5697
60.3648
60.1155
59.8116
61.488
61.3062
61.2705
61.1775
61.0879
60.9913
60.876
60.7382
60.5708
60.3662
60.1162
59.8138
59.4492
61.4583
61.3063
61.267
61.1779
61.0889
60.9925
60.8774
60.7397
60.5723
60.3676
60.1179
59.8147
59.4505
59.017
61.4316
61.305
61.2635
61.1788
61.0905
60.9945
60.8795
60.7419
60.5744
60.3696
60.1198
59.8166
59.4516
59.0172
58.5067
61.4088
61.3029
61.26
61.1801
61.0932
60.9975
60.8828
60.745
60.5774
60.3725
60.1224
59.819
59.4539
59.0186
58.506
57.9111
61.3888
61.3009
61.2571
61.1821
61.0971
61.0021
60.8876
60.7497
60.5819
60.3766
60.1262
59.8225
59.4569
59.0212
58.5076
57.9092
57.2232
61.3714
61.2988
61.2549
61.1847
61.1025
61.0086
60.8946
60.7567
60.5885
60.3827
60.1318
59.8275
59.4614
59.0251
58.5107
57.911
57.22
56.4374
61.3563
61.2969
61.2533
61.1876
61.1092
61.0177
60.9046
60.7669
60.5983
60.3918
60.14
59.8348
59.4678
59.0307
58.5154
57.9146
57.2222
56.4328
55.5494
61.3432
61.295
61.2523
61.191
61.1165
61.0287
60.9183
60.7811
60.6123
60.4051
60.1521
59.8455
59.4772
59.0388
58.5224
57.9203
57.2262
56.4353
55.5433
54.5563
61.332
61.2934
61.2518
61.1949
61.1245
61.0407
60.9349
60.8007
60.6321
60.4241
60.1697
59.8613
59.491
59.0507
58.5325
57.9288
57.233
56.4399
55.546
54.5484
53.4571
61.3231
61.2918
61.2518
61.1991
61.1332
61.0538
60.953
60.8244
60.6591
60.4507
60.1948
59.8842
59.5112
59.068
58.5471
57.9411
57.2432
56.4478
55.5511
54.5515
53.4473
52.2524
61.3162
61.2903
61.2522
61.2038
61.1425
61.068
60.9728
60.8502
60.6919
60.4872
60.2301
59.9169
59.5405
59.0934
58.5686
57.9589
57.2578
56.4597
55.5602
54.5571
53.4507
52.2406
50.9453
61.311
61.2889
61.2531
61.2087
61.1523
61.083
60.994
60.8785
60.7277
60.5315
60.2783
59.9627
59.5822
59.1303
58.6
57.985
57.2791
56.4768
55.5738
54.5674
53.4568
52.2443
50.9315
49.5406
61.3068
61.2878
61.2541
61.2137
61.1625
61.0988
61.0166
60.9089
60.7668
60.5799
60.3371
60.0254
59.6406
59.1827
58.6455
58.0232
57.3102
56.5018
55.5936
54.5827
53.4681
52.2506
50.9353
49.5245
48.0504
61.3036
61.2868
61.2552
61.2184
61.1725
61.1151
61.0401
60.941
60.8089
60.6328
60.4012
60.1017
59.7207
59.256
58.7102
58.0783
57.3558
56.5383
55.6223
54.6051
53.485
52.2629
50.9418
49.5283
48.0315
46.505
61.301
61.286
61.2563
61.2228
61.1817
61.1311
61.0645
60.9747
60.8535
60.6898
60.4714
60.1852
59.8184
59.3566
58.8008
58.157
57.4217
56.5918
55.6645
54.6375
53.5098
52.2813
50.9546
49.5344
48.0326
46.4495
44.844
61.2989
61.2854
61.2575
61.2267
61.1901
61.1459
61.0884
61.0095
60.9001
60.7503
60.5471
60.2768
59.9252
59.4795
58.9252
58.2672
57.5158
56.6693
55.7262
54.6852
53.5457
52.308
50.974
49.5474
48.0373
46.4522
44.7769
43.0526
61.2971
61.2849
61.2585
61.2303
61.1976
61.1592
61.1103
61.0436
60.9485
60.8135
60.6274
60.3755
60.0426
59.6141
59.0774
58.4187
57.6477
56.78
55.8158
54.7553
53.5988
52.3471
51.0022
49.567
48.0487
46.453
44.7795
43.0223
41.2039
61.2957
61.2845
61.2594
61.2336
61.2043
61.1711
61.1301
61.0749
60.9958
60.8791
60.7116
60.4804
60.1693
59.7623
59.2445
58.6044
57.8295
56.9356
55.9442
54.8573
53.677
52.405
51.0437
49.5959
48.0669
46.4615
44.7738
43.0146
41.1925
39.304
61.2946
61.2842
61.2601
61.2366
61.2103
61.1818
61.1479
61.1032
61.0392
60.9433
60.7988
60.5904
60.3041
59.9224
59.4286
58.8086
58.0527
57.1505
56.125
55.004
53.7914
52.4908
51.1055
49.6386
48.0946
46.4769
44.7816
43.0052
41.1756
39.2985
37.1619
61.2936
61.2839
61.2608
61.2394
61.2156
61.1913
61.1637
61.1285
61.0784
61.0023
60.8843
60.7045
60.4456
60.0929
59.6279
59.0341
58.2988
57.4152
56.3755
55.2111
53.9563
52.6169
51.1978
49.703
48.1368
46.502
44.7953
43.0144
41.167
39.2798
37.1597
34.749
61.2928
61.2836
61.2614
61.2418
61.2204
61.1998
61.1778
61.1511
61.1136
61.0555
60.9629
60.8166
60.5927
60.2723
59.8406
59.2787
58.5711
57.7075
56.6848
55.4988
54.19
52.7995
51.3344
49.8004
48.2021
46.5422
44.8187
43.0277
41.1767
39.2732
37.1418
34.7487
32.3092
61.2921
61.2835
61.262
61.244
61.2246
61.2073
61.1903
61.1712
61.145
61.1033
61.034
60.9197
60.7372
60.4589
60.0647
59.5402
58.8671
58.0318
57.0273
55.8552
54.5159
53.0596
51.5337
49.946
48.3026
46.6067
44.8573
43.0508
41.1901
39.2815
37.1352
34.732
32.3107
29.8849
61.2915
61.2833
61.2626
61.2459
61.2283
61.2139
61.2014
61.1891
61.1729
61.146
61.0978
61.0129
60.8703
60.6426
60.2981
59.8162
59.1842
58.3852
57.4084
56.2513
54.9213
53.4238
51.819
50.1601
48.4551
46.7086
44.9208
43.0886
41.2132
39.2948
37.1402
34.725
32.296
29.8866
27.4965
61.2832
61.2908
61.2631
61.2476
61.2316
61.2198
61.2113
61.205
61.1978
61.184
61.1548
61.0967
60.9908
60.812
60.5284
60.1044
59.5197
58.7647
57.8247
56.6932
55.3732
53.8787
52.2205
50.4688
48.6817
46.8658
45.0232
43.1514
41.25
39.3172
37.1522
34.7265
32.2888
29.873
27.498
25.1564
61.2635
61.283
61.29
61.2491
61.2346
61.2251
61.22
61.219
61.2198
61.2179
61.2056
61.1716
61.0992
60.9655
60.7411
60.3893
59.8709
59.1673
58.2732
57.1775
55.8791
54.3878
52.7245
50.9057
49.0111
47.1025
45.1838
43.2539
41.3115
39.3521
37.1718
34.7358
32.2874
29.8647
27.4852
25.1572
22.877
61.2503
61.2643
61.283
61.2893
61.2371
61.2297
61.2278
61.2315
61.2394
61.2479
61.2508
61.2384
61.1962
61.1038
60.9342
60.6529
60.2188
59.5898
58.7502
57.7007
56.4355
54.9598
53.2909
51.457
49.4805
47.4497
45.4283
43.4164
41.4128
39.4109
37.2029
34.7507
32.2932
29.8598
27.4753
25.145
22.8768
20.6691
61.2394
61.2521
61.2652
61.2829
61.2886
61.2338
61.2346
61.2425
61.2567
61.2745
61.2909
61.2979
61.2828
61.2278
61.1083
60.8926
60.5415
60.0095
59.2523
58.2591
57.0385
55.5911
53.9297
52.0794
50.0764
47.9479
45.7899
43.6661
41.5751
39.509
37.2566
34.7755
32.3026
29.8609
27.4664
25.1332
22.8649
20.6679
18.5411
61.2373
61.2425
61.2542
61.2661
61.2828
61.2879
61.2407
61.2523
61.272
61.298
61.3265
61.3507
61.3599
61.3385
61.2645
61.1091
60.8355
60.3997
59.7526
58.8487
57.6843
56.2778
54.6374
52.7844
50.7523
48.5843
46.3126
44.0386
41.827
39.6686
37.3486
34.8208
32.3194
29.8631
27.4618
25.1202
22.851
20.6562
18.5388
16.499
61.2458
61.242
61.2458
61.2562
61.267
61.2828
61.2873
61.261
61.2857
61.3189
61.3581
61.3976
61.4284
61.4371
61.4043
61.3037
61.1016
60.7562
60.2192
59.4383
58.3687
57.016
55.4104
53.5686
51.5212
49.3098
46.9846
44.5808
42.2059
39.9189
37.5016
34.9023
32.3537
29.8702
27.4557
25.1092
22.8337
20.6398
18.5273
16.4958
14.5471
61.2683
61.2528
61.247
61.2492
61.2582
61.2679
61.2827
61.2868
61.2977
61.3375
61.3861
61.4391
61.4893
61.5248
61.5289
61.4779
61.3411
61.0794
60.6464
59.9898
59.0557
57.8014
56.2445
54.4286
52.38
50.1387
47.7542
45.2821
42.7618
40.2995
37.746
35.0434
32.4214
29.8911
27.4512
25.0938
22.8158
20.6181
18.5082
16.4842
14.5429
12.6878
61.3078
61.2781
61.2596
61.252
61.2526
61.2602
61.2688
61.2826
61.2862
61.3539
61.4109
61.476
61.5433
61.6028
61.6398
61.6334
61.5558
61.3709
61.0348
60.4964
59.7005
58.593
57.1358
55.3606
53.326
51.0686
48.6375
46.0892
43.485
40.8623
38.1228
35.275
32.5458
29.9418
27.4565
25.0765
22.7905
20.5931
18.4821
16.4625
14.5313
12.6827
10.9222
61.3677
61.3213
61.2873
61.2667
61.257
61.2558
61.2621
61.2697
61.2826
61.2858
61.4329
61.5088
61.5912
61.672
61.7384
61.7721
61.7478
61.6327
61.3858
60.958
60.2946
59.3388
58.038
56.361
54.3559
52.0976
49.6331
47.0198
44.3216
41.599
38.6853
35.6396
32.7588
30.0455
27.4874
25.0645
22.7594
20.5573
18.4498
16.4319
14.5068
12.6709
10.9164
9.25012
61.4513
61.3859
61.3334
61.2968
61.2735
61.2617
61.259
61.264
61.2706
61.2826
61.2853
61.5378
61.6338
61.7334
61.826
61.8954
61.9191
61.8672
61.7016
61.3763
60.8377
60.0284
58.8915
57.3783
55.4665
53.2233
50.7402
48.074
45.291
42.4558
39.4273
36.1903
33.1022
30.2342
27.567
25.0735
22.7288
20.5117
18.4033
16.3922
14.4719
12.6437
10.9043
9.24356
7.67038
61.5619
61.4755
61.4015
61.3459
61.306
61.2802
61.2664
61.2621
61.2657
61.2715
61.2825
61.2849
61.6716
61.7881
61.9039
62.0051
62.0717
62.0766
61.9849
61.7534
61.331
60.6608
59.6838
58.3449
56.6014
54.443
51.9571
49.2519
46.3947
43.4542
40.2961
36.9241
33.6288
30.5481
27.7263
25.1261
22.7143
20.4618
18.3426
16.3349
14.4248
12.6046
10.8745
9.23121
7.66318
6.18106
61.7027
61.5937
61.4954
61.4178
61.3581
61.3149
61.2865
61.2708
61.265
61.2674
61.2723
61.2825
61.2846
61.8366
61.9733
62.1026
62.2075
62.2634
62.2385
62.0924
61.777
61.2369
60.4127
59.2457
57.6849
55.696
53.2826
50.5533
47.6343
44.5967
41.3147
37.7906
34.3388
31.0392
28.0035
25.2515
22.7377
20.4227
18.2729
16.259
14.3566
12.5502
10.8313
9.19891
7.65054
6.17326
4.77954
61.8764
61.7441
61.6189
61.5163
61.4335
61.3697
61.3233
61.2926
61.2751
61.2678
61.2691
61.2731
61.2825
61.2843
62.0347
62.1896
62.3283
62.4298
62.4649
62.3963
62.1787
61.7591
61.0789
60.0776
58.6988
56.8979
54.6515
51.9783
49.011
45.8866
42.4871
38.8137
35.1856
31.7114
28.4488
25.4857
22.8254
20.415
18.2087
16.1693
14.2656
12.4713
10.7697
9.15183
7.6158
6.16035
4.77121
3.46269
62.0849
61.9297
61.7757
61.6455
61.5365
61.4485
61.3807
61.3314
61.2984
61.2791
61.2704
61.2706
61.2739
61.2825
61.284
62.2666
62.4363
62.5781
62.6668
62.6681
62.5395
62.2306
61.6845
60.8405
59.6389
58.0278
55.9713
53.4584
50.5269
47.3271
43.8186
39.9994
36.1929
32.5218
29.07
25.8763
23.0113
20.4623
18.1686
16.0798
14.1561
12.3654
10.6804
9.08324
7.56502
6.12327
4.75803
3.45387
2.22717
62.3293
62.1528
61.9689
61.8092
61.6711
61.5555
61.4625
61.391
61.3389
61.3038
61.2828
61.2729
61.2721
61.2746
61.2825
61.2838
62.5317
62.7107
62.847
62.9109
62.8628
62.6549
62.2327
61.5361
60.5041
59.0797
57.2177
54.8929
52.1107
48.9225
45.3148
41.3553
37.3688
33.4935
29.8279
26.4342
23.3397
20.5958
18.1736
16.0066
14.0414
12.2366
10.5599
8.98382
7.48969
6.06899
4.71874
3.44044
2.21789
1.06944
62.6092
62.4151
62.2014
62.0109
61.8413
61.695
61.5733
61.4757
61.4006
61.3459
61.3088
61.2863
61.2752
61.2733
61.2752
61.2824
61.2836
62.8279
63.0083
63.1278
63.152
63.036
62.7273
62.1675
61.2955
60.0513
58.383
56.2542
53.6542
50.5991
46.9825
42.8899
38.7233
34.6361
30.7443
27.1245
23.8234
20.8558
18.2516
15.968
13.9347
12.0968
10.4124
8.84928
7.38055
5.98721
4.66116
3.39905
2.20421
1.0597
-0.0141425
62.9225
62.7168
62.4749
62.2536
62.051
61.8712
61.7172
61.5897
61.4878
61.4095
61.3524
61.3134
61.2895
61.2772
61.2744
61.2758
61.2825
61.2834
63.1507
63.3223
63.4108
63.3774
63.1723
62.7386
62.016
60.943
59.4636
57.5326
55.1263
52.2421
48.7472
44.6139
40.2681
35.9617
31.8295
27.9659
24.4318
21.2557
18.4382
15.9885
13.8519
11.9569
10.248
8.68364
7.23258
5.86878
4.57322
3.3384
2.16085
1.04578
-0.0244978
-1.02786
63.2652
63.0565
62.7901
62.5396
62.3034
62.0881
61.8988
61.7376
61.6047
61.4988
61.4176
61.3582
61.3176
61.2924
61.279
61.2754
61.2762
61.2825
61.2833
63.4938
63.6432
63.6835
63.5718
63.2537
62.6694
61.7574
60.459
58.7228
56.5147
53.817
50.4887
46.4536
42.016
37.4829
33.0951
28.968
25.1793
21.7693
18.7462
16.0979
13.814
11.83
10.0755
8.49543
7.04959
5.70803
4.44598
3.24461
2.09736
1.00059
-0.0387223
-1.03922
-1.97111
63.6309
63.431
63.1462
62.8702
62.6012
62.3492
62.1221
61.9239
61.7561
61.6183
61.5087
61.4248
61.3634
61.3211
61.2947
61.2805
61.2762
61.2766
61.2825
61.2832
63.8479
63.9589
63.9307
63.717
63.2602
62.4981
61.3708
59.823
57.8124
55.3096
52.1689
48.2818
43.8923
39.2116
34.5527
30.1405
26.0733
22.4055
19.1542
16.3078
13.8435
11.7333
9.90498
8.29114
6.83835
5.5085
4.27314
3.10907
1.99804
0.934527
-0.0855927
-1.05343
-1.9881
-2.75772
64.0104
63.8348
63.5408
63.245
62.9461
62.6576
62.391
62.1529
61.9464
61.7725
61.6302
61.5173
61.431
61.3677
61.3241
61.2967
61.2817
61.2768
61.277
61.2825
61.2831
64.201
64.2543
64.1341
63.7927
63.1693
62.2026
60.834
59.0162
56.711
53.7696
50.0531
45.7629
41.0739
36.2141
31.4949
27.1222
23.1695
19.6647
16.6017
13.9509
11.6814
9.7497
8.0779
6.60325
5.27518
4.05791
2.92482
1.85472
0.830018
-0.153942
-1.10165
-2.0016
-2.76379
-3.42048
64.3918
64.26
63.9689
63.6622
63.3382
63.0152
62.7087
62.4285
62.1802
61.9662
61.7868
61.6405
61.5246
61.436
61.3712
61.3265
61.2984
61.2827
61.2774
61.2773
61.2825
61.283
64.5379
64.5111
64.2733
63.7758
62.9582
61.7589
60.1264
58.0161
55.2773
51.7431
47.5783
42.9388
38.017
33.0492
28.3414
24.0707
20.2821
16.9761
14.1252
11.6842
9.61614
7.86492
6.34862
5.01044
3.8035
2.69476
1.65975
0.679443
-0.263301
-1.17185
-2.05122
-2.77109
-3.41357
-4.10937
64.7597
64.6956
64.4235
64.118
63.7766
63.423
63.0776
62.7543
62.4615
62.2039
61.9831
61.7988
61.6489
61.5304
61.44
61.3739
61.3283
61.2997
61.2836
61.2779
61.2775
61.2825
61.283
64.8405
64.7087
64.3246
63.6425
62.6014
61.1449
59.2231
56.6838
53.3358
49.3162
44.7647
39.8469
34.7631
29.7603
25.1311
21.018
17.4354
14.357
11.7359
9.51397
7.65052
6.07928
4.71593
3.51041
2.42029
1.41571
0.474414
-0.420611
-1.28573
-2.12283
-2.82138
-3.41959
-4.10904
-4.85442
65.0954
65.1278
64.8948
64.6063
64.2581
63.8803
63.4992
63.1331
62.7942
62.4899
62.2239
61.997
61.8083
61.6552
61.5346
61.4429
61.3759
61.3298
61.3007
61.2842
61.2783
61.2777
61.2825
61.2829
65.0876
64.8232
64.2634
63.3661
62.0751
60.3332
57.9855
54.8235
50.9653
46.5379
41.6745
36.5437
31.3643
26.393
21.9018
17.9936
14.6511
11.8221
9.44264
7.44469
5.78583
4.392
3.17774
2.10024
1.12222
0.217236
-0.635066
-1.44927
-2.24096
-2.89336
-3.46873
-4.12029
-4.86149
-5.67073
65.3772
65.5395
65.3701
65.1185
64.7777
64.3849
63.9733
63.5665
63.1812
62.828
62.5133
62.2398
62.0077
61.8152
61.6596
61.5375
61.4448
61.3773
61.3308
61.3014
61.2847
61.2786
61.2779
61.2825
61.2829
65.2547
64.8291
64.062
62.9212
61.3485
59.1829
56.2046
52.5211
48.2493
43.4884
38.3684
33.0801
27.8654
22.9871
18.6869
15.0235
11.9476
9.3831
7.25187
5.47893
4.02206
2.80132
1.73121
0.776639
-0.0942055
-0.90457
-1.67255
-2.41023
-3.0151
-3.54178
-4.16941
-4.87723
-5.68072
-6.55966
65.5796
65.9107
65.8333
65.6431
65.328
64.9328
64.4985
64.0552
63.6247
63.2216
62.8555
62.5317
62.2516
62.0149
61.8195
61.6623
61.5392
61.446
61.3782
61.3314
61.3019
61.2851
61.2788
61.278
61.2825
61.2829
65.3156
64.698
63.6933
62.2732
60.2786
57.481
53.9818
49.8906
45.2735
40.2207
34.8866
29.4931
24.3031
19.5769
15.5153
12.1295
9.33949
7.04854
5.16768
3.61768
2.35804
1.30467
0.373146
-0.463883
-1.23291
-1.95363
-2.6418
-3.18897
-3.66627
-4.24457
-4.9279
-5.69777
-6.57086
-7.52408
65.6746
66.2178
66.2654
66.1658
65.8987
65.5175
65.0715
64.5983
64.1256
63.6731
63.2541
62.8766
62.5446
62.259
62.0189
61.8216
61.6634
61.5399
61.4464
61.3785
61.3318
61.3022
61.2853
61.279
61.2781
61.2825
61.2829
65.2403
64.4011
63.1195
61.2776
58.6556
55.3471
51.4535
47.0119
42.0759
36.7606
31.2548
25.8121
20.7093
16.1923
12.4114
9.32918
6.83791
4.82434
3.19222
1.86044
0.791607
-0.100955
-0.89992
-1.62526
-2.29783
-2.93373
-3.42734
-3.84417
-4.37208
-5.00621
-5.75018
-6.58833
-7.53616
-8.57027
65.6301
66.4355
66.6441
66.6692
66.4771
66.1301
65.687
65.1933
64.6838
64.1839
63.7115
63.2783
62.8908
62.552
62.2623
62.02
61.8217
61.6631
61.5395
61.4462
61.3784
61.3318
61.3022
61.2855
61.2792
61.2782
61.2825
61.2829
64.9975
63.8978
62.1947
59.7333
56.616
52.9302
48.6859
43.9066
38.6692
33.1227
27.4941
22.0644
17.1131
12.8596
9.39554
6.63613
4.45067
2.71398
1.3258
0.205477
-0.680014
-1.41892
-2.09192
-2.71146
-3.29278
-3.72808
-4.08813
-4.55451
-5.13726
-5.83195
-6.64236
-7.55449
-8.58294
-9.70512
65.4095
66.5355
66.9441
67.1324
67.0471
66.7593
66.3374
65.8359
65.2975
64.7543
64.2297
63.7396
63.2939
62.898
62.5543
62.262
62.0186
61.82
61.6616
61.5384
61.4454
61.3779
61.3315
61.3025
61.2859
61.2793
61.2782
61.2825
61.2829
64.5432
63.0404
60.731
57.79
54.3137
50.2807
45.6869
40.5772
35.0589
29.3202
23.6261
18.2772
13.5422
9.60187
6.48397
4.06032
2.18272
0.718734
-0.432751
-1.34972
-2.06006
-2.65313
-3.20684
-3.72633
-4.09922
-4.39638
-4.8045
-5.32475
-5.96697
-6.72741
-7.61021
-8.60242
-9.71806
-10.9355
64.9628
66.4869
67.1369
67.5317
67.5899
67.3907
67.0126
66.5197
65.9633
65.3833
64.8094
64.2628
63.757
63.3008
62.8988
62.5521
62.2586
62.0151
61.8169
61.6591
61.5365
61.444
61.377
61.3317
61.3031
61.2861
61.2793
61.2781
61.2825
61.283
63.726
61.6581
58.8861
55.6011
51.7836
47.3957
42.4521
37.0226
31.251
25.3688
19.6751
14.4785
10.0224
6.43866
3.68929
1.60851
0.0364452
-1.16199
-2.08563
-2.80827
-3.35243
-3.80759
-4.24857
-4.54895
-4.77769
-5.1209
-5.58137
-6.1601
-6.8667
-7.69846
-8.65978
-9.73842
-10.9486
-12.2688
66.2473
64.1386
67.1895
67.8406
68.0831
68.007
67.6999
67.2359
66.6758
66.0682
65.4502
64.8487
64.2825
63.7636
63.2999
62.8942
62.546
62.2525
62.0097
61.8125
61.6557
61.5338
61.4421
61.377
61.3325
61.3034
61.2861
61.2792
61.278
61.2825
61.283
62.3951
59.9116
56.809
53.1881
49.015
44.2664
38.9753
33.2427
27.2553
21.2883
15.6682
10.697
6.57779
3.38636
1.02081
-0.715494
-1.98802
-2.93003
-3.63582
-4.17409
-4.56118
-4.88624
-5.09297
-5.24102
-5.51322
-5.90662
-6.42397
-7.06602
-7.84235
-8.75134
-9.79759
-10.9695
-12.282
-13.7127
67.0635
65.6733
62.7919
68.0269
68.5024
68.5877
68.3837
67.9732
67.4276
66.8047
66.15
65.4976
64.8717
64.289
63.7606
63.2921
62.8848
62.5366
62.2441
62.0026
61.8069
61.6511
61.5304
61.4418
61.3783
61.3329
61.3034
61.2859
61.279
61.2779
61.2825
61.2831
60.7156
57.9434
54.5113
50.5345
45.9969
40.8839
35.2525
29.2418
23.0858
17.1031
11.6354
6.96084
3.22977
0.458163
-1.51536
-2.9104
-3.89205
-4.58824
-5.08725
-5.45136
-5.69039
-5.76046
-5.80333
-5.99125
-6.31088
-6.75888
-7.33776
-8.04836
-8.90024
-9.89272
-11.0307
-12.3035
-13.726
-15.2753
68.0541
66.6374
64.6527
61.1131
68.8172
69.1102
69.0452
68.7179
68.2088
67.5865
66.9056
66.2082
65.5252
64.8785
64.2837
63.7493
63.2786
62.8713
62.5244
62.2337
61.9942
61.7999
61.6457
61.5297
61.4436
61.3788
61.3329
61.3031
61.2855
61.2788
61.2777
61.2825
61.2832
58.8236
55.759
51.9722
47.6287
42.7191
37.2417
31.2831
25.0277
18.7619
12.8418
7.60815
3.2973
-0.00292655
-2.33612
-3.91595
-4.97673
-5.67823
-6.1406
-6.44423
-6.64429
-6.60531
-6.49581
-6.57333
-6.80482
-7.17609
-7.68318
-8.32864
-9.11347
-10.047
-11.1297
-12.3668
-13.7483
-15.2887
-16.9645
68.9949
67.8165
65.7691
63.3121
59.2347
69.5458
69.6636
69.4529
69.0075
68.4053
67.7117
66.9779
66.2422
65.5329
64.8708
64.2683
63.7309
63.2602
62.8544
62.5098
62.2217
61.984
61.7917
61.6442
61.5321
61.4444
61.3788
61.3325
61.3025
61.2853
61.2786
61.2775
61.2825
61.2833
56.72
53.3335
49.1801
44.4604
39.1742
33.3358
27.0689
20.6126
14.3079
8.5365
3.61848
-0.268509
-3.10504
-4.98995
-6.17988
-6.9165
-7.35051
-7.59157
-7.71119
-7.61045
-7.37471
-7.29286
-7.40831
-7.68723
-8.11441
-8.68548
-9.40299
-10.268
-11.2899
-12.4697
-13.8136
-15.3117
-16.9779
-18.7887
69.8662
68.9493
67.1752
64.5837
61.7604
57.1533
70.2123
70.1594
69.8082
69.2504
68.5612
67.8024
67.0208
66.252
65.5232
64.851
64.2443
63.7066
63.2375
62.8346
62.4932
62.2074
61.9723
61.7893
61.6476
61.5332
61.4444
61.3783
61.3317
61.3022
61.285
61.2783
61.2773
61.2824
61.2834
54.3751
50.6562
46.1258
41.0227
35.3565
29.1632
22.6147
16.0137
9.75288
4.22226
-0.301933
-3.71452
-6.06497
-7.49944
-8.30792
-8.73333
-8.91344
-8.94584
-8.73683
-8.42269
-8.20861
-8.15702
-8.31383
-8.64413
-9.13185
-9.77221
-10.5675
-11.5192
-12.6362
-13.9206
-15.379
-17.0017
-18.802
-20.7556
70.6672
70.0061
68.5403
66.2231
63.1928
60.0086
54.8329
70.8127
70.594
70.1085
69.4451
68.6758
67.8576
67.0345
66.2408
65.4986
64.8207
64.2131
63.6772
63.2115
62.8124
62.4738
62.1913
61.9686
61.7937
61.6489
61.5332
61.4436
61.377
61.3314
61.3022
61.2847
61.2779
61.277
61.2824
61.2836
51.7794
47.7202
42.8038
37.3098
31.2602
24.7218
17.928
11.2531
5.13118
-0.0642215
-4.12348
-7.02243
-8.87437
-9.86314
-10.3029
-10.4317
-10.3719
-10.0417
-9.59875
-9.3029
-9.11247
-9.09397
-9.29565
-9.6816
-10.2349
-10.9501
-11.8294
-12.8744
-14.0938
-15.4903
-17.071
-18.8264
-20.7683
-22.8764
71.3927
70.9871
69.8227
67.828
65.0665
61.6305
58.0206
52.2633
71.3424
70.9643
70.3517
69.5905
68.7479
67.8777
67.0227
66.2115
65.4615
64.7818
64.1758
63.6437
63.1825
62.7868
62.4521
62.1859
61.9744
61.7955
61.6489
61.5321
61.4418
61.3769
61.3317
61.3019
61.2842
61.2774
61.2766
61.2824
61.2838
48.9281
44.5223
39.2097
33.3147
26.8784
20.0094
13.0201
6.35911
0.481418
-4.28618
-7.81976
-10.1776
-11.5281
-12.0822
-12.1688
-12.0166
-11.5519
-10.9623
-10.5325
-10.2566
-10.0921
-10.1096
-10.3599
-10.8062
-11.4304
-12.2264
-13.1962
-14.3414
-15.6706
-17.1868
-18.8975
-20.7929
-22.8852
-25.5489
72.0366
71.8856
71.0251
69.3454
66.9084
63.7604
59.8591
55.7884
49.4408
71.7976
71.2677
70.5365
69.6851
68.7777
67.867
66.9892
66.1672
65.414
64.7355
64.1336
63.6067
63.1496
62.7584
62.4447
62.1933
61.9767
61.7955
61.6475
61.5296
61.4421
61.3779
61.3318
61.3014
61.2835
61.2768
61.2762
61.2824
61.284
45.8206
41.0605
35.3375
29.0285
22.2004
15.0239
7.90769
1.36692
-4.15475
-8.40842
-11.3679
-13.1694
-14.0244
-14.1596
-13.9104
-13.2988
-12.5428
-11.9593
-11.5438
-11.2898
-11.1535
-11.21
-11.5132
-12.0247
-12.7254
-13.6086
-14.6755
-15.9283
-17.3747
-19.0181
-20.8659
-22.9098
-25.5626
-28.731
72.5938
72.6934
72.1412
70.7792
68.6583
65.8543
62.2688
57.866
53.3134
46.3656
72.1749
71.5022
70.6608
69.729
68.7702
67.8301
66.9376
66.1104
65.3577
64.6835
64.0874
63.565
63.1131
62.7484
62.454
62.1962
61.9767
61.7937
61.6442
61.5304
61.444
61.3784
61.3314
61.3006
61.2827
61.2761
61.2757
61.2824
61.2843
42.4572
37.3316
31.1784
24.4351
17.2121
9.7672
2.61597
-3.68174
-8.73423
-12.3982
-14.7495
-15.9916
-16.3642
-16.0995
-15.3196
-14.3751
-13.6154
-13.0385
-12.6387
-12.4085
-12.303
-12.402
-12.7625
-13.3443
-14.1276
-15.1044
-16.2755
-17.6431
-19.214
-20.9915
-22.9829
-25.5936
-28.7486
-31.9708
73.0603
73.4021
73.1615
72.124
70.3203
67.85
64.6325
60.5751
55.6526
50.6028
43.0402
72.4716
71.6651
70.7245
69.728
68.7313
67.7713
66.8709
66.0431
65.2946
64.6267
64.0356
63.5189
63.1
62.7601
62.4577
62.1962
61.9743
61.7893
61.6457
61.5339
61.4455
61.3785
61.3307
61.2996
61.2817
61.2753
61.2752
61.2824
61.2846
38.8375
33.3293
26.7162
19.5144
11.9043
4.25272
-2.81828
-8.73897
-13.2135
-16.2266
-17.9515
-18.6415
-18.5505
-17.6695
-16.5021
-15.5398
-14.776
-14.2063
-13.8235
-13.6192
-13.5472
-13.6924
-14.1148
-14.7726
-15.6446
-16.7218
-18.0041
-19.4935
-21.1958
-23.1131
-25.6724
-28.7821
-31.9833
-35.205
73.4331
74.0048
74.0765
73.3691
71.8895
69.7517
66.8928
63.2216
58.681
53.2281
47.6672
39.4655
72.6843
71.7558
70.7343
69.6893
68.6662
67.6945
66.7917
65.9676
65.2258
64.5631
63.9784
63.5021
63.1146
62.7646
62.4577
62.1933
61.9686
61.7918
61.6512
61.5366
61.4462
61.3781
61.3297
61.2983
61.2804
61.2744
61.2746
61.2825
61.2849
34.9584
29.0425
21.9271
14.2405
6.26577
-1.49818
-8.34716
-13.7516
-17.551
-19.8706
-20.9655
-21.1196
-20.3201
-18.9865
-17.7811
-16.7994
-16.0312
-15.4691
-15.1046
-14.9286
-14.8931
-15.0884
-15.5775
-16.317
-17.2842
-18.4686
-19.8691
-21.4872
-23.3262
-25.8126
-28.8685
-32.013
-35.2156
-38.4156
73.7077
74.4957
74.876
74.5035
73.3552
71.5533
69.0546
65.7586
61.6219
56.5967
50.6085
44.5175
35.6412
72.8111
71.782
70.6988
69.619
68.5793
67.6028
66.7027
65.8854
65.149
64.4932
63.9572
63.52
63.1201
62.7646
62.454
62.1859
61.9724
61.8
61.6558
61.5384
61.4464
61.3772
61.3283
61.2966
61.2789
61.2733
61.2739
61.2825
61.2853
30.8121
24.444
16.7685
8.57244
0.282581
-7.45832
-13.914
-18.664
-21.71
-23.313
-23.7876
-23.1261
-21.8039
-20.4103
-19.1637
-18.1609
-17.3874
-16.8335
-16.489
-16.3437
-16.3477
-16.5971
-17.1582
-17.9854
-19.0542
-20.3525
-21.878
-23.6299
-26.0381
-29.0203
-32.0986
-35.2457
-38.4253
-41.5901
73.881
74.8683
75.5505
75.5161
74.7064
73.2436
71.1108
68.1923
64.4447
59.8436
54.3406
47.8124
41.1648
31.5661
72.8608
71.7538
70.6254
69.5227
68.4747
67.4993
66.6059
65.7939
65.0646
64.467
63.979
63.5267
63.1201
62.7601
62.4446
62.1913
61.9842
61.807
61.6592
61.5395
61.4459
61.3758
61.3264
61.2947
61.2772
61.272
61.2731
61.2825
61.2858
26.3781
19.4918
11.1837
2.46548
-6.04677
-13.5841
-19.4539
-23.4218
-25.6598
-26.5426
-26.0736
-24.8075
-23.4069
-21.9487
-20.6572
-19.6309
-18.8515
-18.3062
-17.9833
-17.8711
-17.9181
-18.2258
-18.8642
-19.785
-20.9619
-22.3807
-24.0364
-26.358
-29.2615
-32.2547
-35.3321
-38.4568
-41.5987
-44.7067
73.9628
75.1172
76.0877
76.3954
75.9316
74.811
73.0489
70.5163
67.1572
62.9605
57.906
51.9358
44.8597
37.6231
27.231
72.8454
71.6801
70.5207
69.405
68.356
67.3866
66.4982
65.6933
65.0327
64.4934
63.987
63.5267
63.1145
62.7483
62.4522
62.2077
61.9944
61.8126
61.6617
61.5398
61.4447
61.3738
61.324
61.2923
61.2752
61.2706
61.2723
61.2825
61.2862
21.626
14.1331
5.10715
-4.11798
-12.7031
-19.8104
-24.8964
-27.9738
-29.3766
-29.1605
-27.988
-26.6227
-25.1373
-23.6088
-22.2681
-21.2163
-20.4303
-19.8941
-19.5942
-19.5179
-19.6111
-19.9816
-20.7025
-21.7229
-23.0141
-24.5586
-26.7838
-29.6002
-32.5058
-35.4933
-38.5449
-41.6309
-44.7141
-47.7423
73.967
75.2536
76.4742
77.125
77.0182
76.243
74.8558
72.7183
69.7545
65.956
61.3247
55.8336
49.4068
41.7698
33.9005
22.6155
72.7754
71.5689
70.3905
69.2706
68.2263
67.2611
66.3795
65.6549
65.0644
64.5029
63.987
63.52
63.0999
62.7585
62.4741
62.222
62.0029
61.817
61.6631
61.5392
61.4427
61.371
61.321
61.2895
61.2729
61.269
61.2714
61.2826
61.2868
16.5099
8.28708
-1.54558
-11.2018
-19.6437
-26.054
-30.1679
-32.275
-32.3931
-31.3512
-30.0526
-28.58
-27.0022
-25.3972
-24.0032
-22.9235
-22.13
-21.6036
-21.3284
-21.2906
-21.4335
-21.871
-22.6798
-23.8054
-25.2157
-27.3291
-30.0473
-32.858
-35.7532
-38.7122
-41.7199
-44.7467
-47.7484
-50.6739
73.9062
75.2948
76.718
77.684
77.946
77.5275
76.5163
74.7848
72.2263
68.8281
64.6057
59.5627
53.6538
46.778
38.5632
29.999
17.6896
72.6605
71.4272
70.2402
69.1231
68.0817
67.1228
66.334
65.6927
65.0755
64.5029
63.979
63.502
63.1132
62.7873
62.4936
62.2341
62.0098
61.8201
61.6633
61.5374
61.4398
61.3676
61.3175
61.2863
61.2703
61.2674
61.2706
61.2826
61.2873
10.9581
1.8311
-8.87317
-18.7951
-26.7951
-32.2141
-35.1936
-35.7705
-34.9144
-33.7109
-32.2753
-30.6854
-29.0073
-27.32
-25.8685
-24.7586
-23.957
-23.4407
-23.1918
-23.195
-23.3912
-23.9
-24.8016
-26.0369
-28.0137
-30.6163
-33.3204
-36.1157
-38.9808
-41.8922
-44.8359
-47.781
-50.6787
-53.4796
73.7915
75.2563
76.8381
78.0758
78.6867
78.6422
78.0154
76.6997
74.5605
71.5697
67.7514
63.1312
57.7029
51.3942
44.0749
35.2631
25.9226
12.4126
72.5089
71.2614
70.0743
68.9583
67.922
67.0693
66.3785
65.7056
65.0755
64.4934
63.957
63.5191
63.1502
62.8129
62.5103
62.2444
62.0152
61.8217
61.6622
61.5345
61.4359
61.3633
61.3134
61.2828
61.2677
61.2656
61.2697
61.2827
61.2879
4.85873
-5.4206
-16.9919
-26.8657
-34.0532
-38.1563
-39.2997
-38.6873
-37.6238
-36.246
-34.6606
-32.9436
-31.1577
-29.3823
-27.8693
-26.727
-25.9164
-25.4107
-25.1897
-25.2365
-25.4891
-26.0733
-27.0712
-28.8691
-31.328
-33.906
-36.5885
-39.3515
-42.1671
-45.0119
-47.8699
-50.711
-53.4829
-56.1369
73.6329
75.1518
76.8536
78.3182
79.24
79.554
79.3269
78.445
76.7418
74.1719
70.7586
66.5474
61.5608
55.7747
49.0829
41.3252
31.8923
21.6733
6.72585
72.3284
71.0769
69.8881
68.7756
67.8598
67.1216
66.3936
65.7056
65.0643
64.4668
63.9786
63.5657
63.1833
62.8352
62.5248
62.2528
62.0187
61.8215
61.6595
61.5303
61.4309
61.3581
61.3087
61.2789
61.2649
61.2639
61.2688
61.2827
61.2886
-1.97765
-13.7801
-25.9446
-35.3697
-41.1779
-43.0396
-42.7266
-41.8152
-40.5236
-38.9574
-37.2103
-35.3569
-33.4565
-31.5878
-30.0096
-28.8329
-28.0127
-27.518
-27.3262
-27.4188
-27.731
-28.3932
-29.9473
-32.2165
-34.6363
-37.1841
-39.8306
-42.5423
-45.2901
-48.0477
-50.7988
-53.5145
-56.1389
-58.6256
73.4395
74.9934
76.782
78.4291
79.6238
80.2603
80.4102
79.9887
78.752
76.6217
73.6229
69.8131
65.2439
59.9239
53.8075
46.749
38.5567
28.4725
17.2639
0.562836
72.1255
70.8688
69.6812
68.7041
67.9209
67.139
66.3936
65.6926
65.0325
64.4935
64.0365
63.6077
63.2124
62.855
62.537
62.2587
62.0199
61.8194
61.6551
61.5245
61.4247
61.3522
61.3036
61.2749
61.2619
61.262
61.2678
61.2828
61.2893
-9.89978
-23.5903
-35.878
-43.8776
-47.0954
-47.1082
-46.3882
-45.1554
-43.6087
-41.8412
-39.9228
-37.9253
-35.9045
-33.9382
-32.2919
-31.079
-30.2485
-29.7653
-29.6039
-29.7444
-30.1179
-31.3267
-33.337
-35.548
-37.9252
-40.4304
-43.0226
-45.6653
-48.3259
-50.9765
-53.6
-56.1693
-58.6262
-60.9273
73.2192
74.7924
76.6393
78.4262
79.8562
80.7799
81.2608
81.2785
80.5547
78.9028
76.3356
72.9298
68.7598
63.8702
58.2503
51.8309
44.4194
35.7995
25.0399
12.7543
-6.15589
71.8951
70.6366
69.5995
68.7749
67.9408
67.139
66.3785
65.6547
65.065
64.5643
64.0887
63.6448
63.2384
62.8718
62.5462
62.262
62.0187
61.815
61.6488
61.5172
61.4174
61.3457
61.2982
61.2706
61.2589
61.2601
61.2669
61.2829
61.29
-19.4841
-36.0105
-45.9934
-51.2269
-51.9671
-51.414
-50.2671
-48.6942
-46.8692
-44.8886
-42.7927
-40.6451
-38.4998
-36.433
-34.7163
-33.466
-32.6249
-32.1535
-32.0236
-32.2126
-33.1277
-34.7719
-36.6987
-38.8506
-41.1751
-43.6206
-46.1413
-48.6969
-51.2513
-53.7751
-56.2518
-58.6547
-60.9258
-63.0206
72.967
74.5575
76.4403
78.3274
79.9547
81.1317
81.901
82.3023
82.0861
80.9772
78.8843
75.894
72.1166
67.6272
62.4554
56.5689
49.8703
42.1228
33.0988
21.6426
8.25691
-13.5148
71.6365
70.5442
69.6813
68.7977
67.9408
67.1216
66.3337
65.6938
65.1504
64.6283
64.1351
63.6783
63.2609
62.8851
62.5521
62.2622
62.0147
61.8082
61.6403
61.5085
61.4092
61.3386
61.2924
61.2662
61.2557
61.2581
61.266
61.2829
61.2908
-33.1923
-49.6126
-56.056