/*--------------------------------*- C++ -*----------------------------------*\
  =========                 |
  \\      /  F ield         | OpenFOAM: The Open Source CFD Toolbox
   \\    /   O peration     | Website:  https://openfoam.org
    \\  /    A nd           | Version:  8
     \\/     M anipulation  |
\*---------------------------------------------------------------------------*/
FoamFile
{
    version     2.0;
    format      ascii;
    class       volScalarField;
    location    "0.42";
    object      epsilon;
}
// * * * * * * * * * * * * * * * * * * * * * * * * * * * * * * * * * * * * * //

dimensions      [0 2 -3 0 0 0 0];

internalField   nonuniform List<scalar> 
15677
(
59.7016
18.3547
52.6106
8.08833
25.886
50.1598
4.62759
13.2608
31.568
50.4792
3.17805
7.72215
17.0752
37.2537
51.5949
2.48961
5.04218
10.0216
20.8002
42.624
53.6543
2.14578
3.62235
6.45944
12.1544
24.5256
47.6393
55.7212
1.97988
2.8207
4.52304
7.71943
14.2647
28.2343
52.0031
57.6625
1.9117
2.35293
3.40065
5.30707
8.90899
16.4106
31.7357
55.6925
59.3658
1.88417
2.08026
2.72263
3.90711
6.01736
10.0972
18.5205
34.9366
58.72
60.8716
1.87055
1.93939
2.30678
3.05416
4.35505
6.70159
11.2636
20.5527
37.7612
61.2043
62.143
1.86765
1.87831
2.05631
2.52027
3.34613
4.77259
7.35706
12.4068
22.4457
40.2289
63.206
63.2598
1.86862
1.84885
1.91652
2.1856
2.7113
3.61267
5.16148
7.99395
13.495
24.192
42.3316
64.8393
64.1912
1.86953
1.8387
1.85192
1.98242
2.30616
2.88473
3.85561
5.53133
8.59849
14.5266
25.7588
44.1274
66.151
65.027
1.86977
1.83697
1.82114
1.86768
2.051
2.4171
3.04117
4.08163
5.87737
9.1736
15.4784
27.1617
45.6279
67.2155
65.7557
1.86977
1.83723
1.81051
1.81332
1.89802
2.11688
2.51757
3.18444
4.28966
6.20309
9.70729
16.3554
28.3861
46.8898
68.085
66.3991
1.86973
1.83749
1.80821
1.78978
1.81536
1.93001
2.17804
2.60908
3.31464
4.48235
6.50336
10.2024
17.1413
29.4525
47.939
68.7921
66.9889
1.8697
1.83759
1.80791
1.78275
1.77572
1.82138
1.96197
2.23434
2.6918
3.43346
4.65811
6.77989
10.6502
17.8438
30.3616
48.7979
69.3986
67.4902
1.8697
1.83761
1.80794
1.78103
1.7615
1.76612
1.83157
1.99262
2.28549
2.76656
3.54074
4.8179
7.02909
11.0538
18.4546
31.1273
49.5088
69.8795
67.9981
1.86969
1.8376
1.80796
1.7807
1.75703
1.74394
1.76035
1.8429
2.02111
2.3317
2.83361
3.63705
4.96071
7.25233
11.4074
18.981
31.762
50.0658
70.3323
68.3938
1.86969
1.83759
1.80796
1.78065
1.75577
1.73591
1.72955
1.75733
1.85427
2.04723
2.37311
2.89328
3.72244
5.08703
7.44749
11.7138
19.4209
32.2723
50.5301
70.6705
68.8652
1.8697
1.83758
1.80795
1.78063
1.75546
1.7332
1.71737
1.71801
1.75578
1.86542
2.07089
2.40988
2.9459
3.7971
5.19676
7.61525
11.9709
19.7816
32.6789
50.8687
71.0462
69.1795
1.8697
1.83757
1.80793
1.7806
1.75539
1.73235
1.71278
1.70133
1.70848
1.7557
1.8759
2.09205
2.44229
2.99164
3.86159
5.2899
7.75598
12.1816
20.0662
32.984
51.1573
71.2993
69.6472
1.8697
1.83757
1.80792
1.78058
1.75535
1.73208
1.71118
1.69451
1.68732
1.70086
1.75602
1.88557
2.11087
2.47053
3.03112
3.91602
5.3678
7.86959
12.3475
20.2816
33.2091
51.3499
71.6555
69.9016
1.8697
1.83756
1.80792
1.78055
1.75532
1.73197
1.71064
1.69188
1.67813
1.67534
1.69457
1.75682
1.89451
2.12755
2.49513
3.06462
3.96151
5.43001
7.95955
12.471
20.4363
33.3607
51.5137
71.8626
70.3706
1.8697
1.83756
1.80791
1.78053
1.75529
1.7319
1.71045
1.6909
1.67436
1.6637
1.66491
1.68958
1.75827
1.90284
2.14244
2.51644
3.09303
3.99844
5.47972
8.02496
12.5589
20.5324
33.449
51.6311
72.2629
70.6156
1.8697
1.83756
1.80791
1.78051
1.75526
1.73185
1.71035
1.69051
1.67288
1.65862
1.65084
1.65633
1.6858
1.76017
1.91081
2.156
2.53527
3.11711
4.02849
5.516
8.07211
12.6098
20.5894
33.4974
51.7086
72.5619
429.86
1.8697
1.83755
1.8079
1.7805
1.75524
1.7318
1.71027
1.69032
1.67229
1.65647
1.64449
1.64001
1.64898
1.68321
1.76296
1.91893
2.16883
2.55224
3.13769
4.05218
5.54327
8.09895
12.638
20.5935
33.4943
51.8323
88.9054
718.985
1.86971
1.83755
1.8079
1.78049
1.75522
1.73177
1.71021
1.6902
1.67202
1.65555
1.64173
1.63229
1.63052
1.64395
1.68269
1.76696
1.9276
2.18161
2.56829
3.15619
4.07192
5.56158
8.11575
12.6353
20.581
33.4982
52.7544
122.282
1001.17
1.86971
1.83755
1.8079
1.78048
1.7552
1.73174
1.71016
1.69011
1.67185
1.65512
1.64053
1.62874
1.62166
1.62369
1.64003
1.68381
1.77253
1.93763
2.19525
2.58467
3.1738
4.0888
5.57483
8.11623
12.624
20.5527
33.5252
55.3094
157.959
1251.04
1.86971
1.83755
1.8079
1.78048
1.75519
1.73171
1.71012
1.69004
1.67173
1.65487
1.63995
1.62711
1.61753
1.61354
1.61809
1.64017
1.68697
1.78045
1.94974
2.21077
2.6022
3.19178
4.10436
5.58355
8.11361
12.6008
20.5166
33.6265
59.88
190.725
1481.42
1.86971
1.83755
1.8079
1.78047
1.75518
1.73169
1.71008
1.68998
1.67163
1.65471
1.63962
1.62631
1.6156
1.6086
1.6072
1.61669
1.64211
1.69329
1.79146
1.96493
2.22897
2.62221
3.21125
4.12044
5.59109
8.10748
12.5733
20.475
33.8818
64.6162
221.834
1676.93
1.86971
1.83755
1.80789
1.78047
1.75517
1.73168
1.71005
1.68994
1.67155
1.65458
1.6394
1.62587
1.61463
1.6062
1.60189
1.60455
1.61817
1.64709
1.70364
1.80657
1.98405
2.25119
2.64566
3.2339
4.13842
5.59973
8.10099
12.5434
20.4282
34.3531
69.4325
249.241
1825.48
1.86971
1.83755
1.80789
1.78046
1.75516
1.73166
1.71003
1.68989
1.67148
1.65448
1.63922
1.62558
1.61409
1.60499
1.59929
1.59849
1.6058
1.62267
1.6568
1.71887
1.82664
2.00836
2.27827
2.67402
3.26061
4.16024
5.61167
8.09562
12.5125
20.3868
34.9144
73.8176
270.535
1940.67
1.86971
1.83755
1.80789
1.78046
1.75516
1.73165
1.71
1.68986
1.67142
1.65439
1.63908
1.62537
1.61372
1.60432
1.59794
1.59549
1.59963
1.6101
1.63186
1.67225
1.7399
1.85296
2.03874
2.3116
2.708
3.29301
4.18706
5.62812
8.09451
12.4804
20.3532
35.4607
77.2157
287.397
2033.05
1.83754
1.86975
1.80789
1.78046
1.75515
1.73164
1.70999
1.68983
1.67137
1.65431
1.63895
1.6252
1.61344
1.60389
1.59717
1.59395
1.59659
1.60388
1.61911
1.64761
1.69417
1.76803
1.8864
2.07652
2.35185
2.74912
3.33178
4.2201
5.64974
8.09604
12.445
20.3172
35.8783
79.8313
301.068
2109.99
1.80789
1.83764
1.86982
1.78046
1.75515
1.73163
1.70997
1.6898
1.67133
1.65425
1.63885
1.62506
1.61321
1.60358
1.59667
1.59312
1.59506
1.60088
1.61291
1.63531
1.67042
1.72385
1.80422
1.92841
2.12246
2.40047
2.79772
3.37808
4.25953
5.67694
8.10121
12.4083
20.2714
36.1673
81.8353
312.617
2176.49
1.78045
1.80805
1.83784
1.86989
1.75514
1.73162
1.70996
1.68978
1.67129
1.65419
1.63876
1.62493
1.61302
1.60333
1.59628
1.5926
1.59426
1.59945
1.61008
1.62964
1.65905
1.70172
1.76251
1.84987
1.97963
2.17773
2.45764
2.8551
3.43187
4.30572
5.7134
8.1128
12.3742
20.2148
36.3535
83.4167
322.642
2235.61
1.75514
1.78066
1.80837
1.83805
1.86997
1.73162
1.70994
1.68976
1.67126
1.65414
1.63869
1.62482
1.61285
1.60312
1.59597
1.59223
1.59377
1.59876
1.6089
1.62738
1.65436
1.69199
1.74287
1.81179
1.90607
2.04164
2.24276
2.52487
2.92092
3.4935
4.36458
5.76195
8.13135
12.3442
20.1481
36.4528
84.6861
331.663
2289.52
1.73161
1.75539
1.78108
1.80869
1.83826
1.87004
1.70993
1.68974
1.67123
1.65409
1.63863
1.62473
1.61271
1.60294
1.59571
1.59193
1.59344
1.5984
1.60851
1.62682
1.65317
1.6891
1.73579
1.79584
1.87294
1.97461
2.11503
2.31875
2.6012
2.99578
3.57064
4.43923
5.8185
8.15613
12.3174
20.0749
36.5026
85.7529
339.906
2339.27
1.70992
1.7319
1.7559
1.78152
1.80903
1.83848
1.87012
1.68973
1.67121
1.65405
1.63857
1.62464
1.61259
1.60278
1.59548
1.59169
1.59318
1.59819
1.60842
1.62699
1.65357
1.68943
1.73512
1.79231
1.86225
1.9483
2.05645
2.20139
2.40575
2.68784
3.08857
3.66675
4.523
5.88237
8.18623
12.2951
19.9992
36.4999
86.6676
347.613
2385.92
1.68971
1.71025
1.7325
1.75643
1.78196
1.80937
1.8387
1.8702
1.67119
1.65402
1.63853
1.62456
1.61249
1.60265
1.59529
1.59149
1.59297
1.59804
1.60846
1.62746
1.65475
1.69155
1.73792
1.79503
1.86292
1.94365
2.03874
2.15377
2.30103
2.5052
2.79445
3.20315
3.77303
4.61436
5.95189
8.22118
12.2772
19.9232
36.4858
87.4877
354.845
2429.61
1.67117
1.69006
1.71092
1.73312
1.75698
1.78242
1.80972
1.83893
1.87028
1.65399
1.63849
1.62449
1.61241
1.60252
1.59512
1.59131
1.5928
1.59793
1.60856
1.62801
1.65616
1.69446
1.74262
1.80157
1.87067
1.95069
2.04132
2.14566
2.26682
2.41567
2.62871
2.92793
3.32866
3.88694
4.71194
6.026
8.26031
12.2634
19.8509
36.4568
88.2292
361.724
2471.05
1.65396
1.67155
1.6908
1.71161
1.73375
1.75753
1.78289
1.81009
1.83917
1.87037
1.63846
1.62443
1.61234
1.60241
1.59498
1.59116
1.59265
1.59785
1.60867
1.62856
1.65759
1.69749
1.74809
1.81023
1.8825
1.96542
2.05709
2.15849
2.26948
2.39614
2.56017
2.7852
3.07583
3.46419
4.00722
4.81416
6.10362
8.30266
12.2545
19.7829
36.4193
88.924
368.241
2509.98
1.63843
1.65435
1.67233
1.69155
1.71232
1.7344
1.75811
1.78337
1.81046
1.83941
1.87046
1.62437
1.61228
1.6023
1.59486
1.59104
1.59253
1.59779
1.60879
1.62909
1.65898
1.70042
1.75356
1.81973
1.89678
1.98482
2.08124
2.18585
2.29582
2.41346
2.55754
2.74098
2.96
3.23677
3.60874
4.13339
4.9197
6.18362
8.34766
12.2484
19.7208
36.3806
89.5738
374.485
2547.05
1.62432
1.63883
1.65517
1.67314
1.69233
1.71304
1.73507
1.7587
1.78387
1.81084
1.83966
1.87055
1.61224
1.6022
1.59477
1.59092
1.59242
1.59774
1.60891
1.62959
1.66028
1.70318
1.7588
1.8291
1.91205
2.00734
2.11099
2.22289
2.33812
2.45701
2.59578
2.76317
2.94163
3.15111
3.41031
3.76084
4.26343
5.02732
6.265
8.3943
12.2474
19.6648
36.3452
90.198
380.401
2581.79
1.6122
1.6247
1.63967
1.65601
1.67397
1.69313
1.71379
1.73576
1.7593
1.78438
1.81123
1.83991
1.87064
1.60211
1.59469
1.59082
1.59233
1.5977
1.60902
1.63005
1.6615
1.70575
1.76374
1.83805
1.92703
2.03131
2.14497
2.26712
2.39206
2.51898
2.66307
2.83085
2.99563
3.16109
3.35386
3.59338
3.91844
4.39651
5.13594
6.34683
8.4421
12.2487
19.6149
36.3134
90.7906
386.087
2614.89
1.60203
1.61257
1.62552
1.64054
1.65688
1.67483
1.69396
1.71456
1.73647
1.75992
1.78491
1.81163
1.84017
1.87073
1.59463
1.59072
1.59224
1.59767
1.60913
1.63048
1.66262
1.70811
1.76836
1.84647
1.94137
2.05497
2.18111
2.31748
2.45566
2.59578
2.75277
2.93257
3.1
3.25404
3.39883
3.567
3.78458
4.08124
4.53132
5.24459
6.42832
8.4904
12.2521
19.5707
36.289
91.367
391.45
2645.77
1.5946
1.6023
1.61337
1.62636
1.64144
1.65778
1.67571
1.69481
1.71535
1.7372
1.76056
1.78545
1.81205
1.84043
1.87082
1.59062
1.59216
1.59763
1.60923
1.63087
1.66365
1.71028
1.77266
1.85433
1.95498
2.07782
2.21695
2.37151
2.52842
2.68628
2.86246
3.06359
3.24604
3.40366
3.53743
3.65298
3.78854
3.97854
4.24675
4.66653
5.3523
6.50876
8.5386
12.2584
19.5323
36.2688
91.9159
396.617
2675.22
1.59053
1.59486
1.60293
1.61419
1.62724
1.64237
1.65872
1.67662
1.69569
1.71617
1.73795
1.76122
1.786
1.81245
1.84068
1.8709
1.59208
1.5976
1.60932
1.63123
1.66459
1.71226
1.77663
1.86161
1.96782
2.09964
2.25176
2.42588
2.60737
2.79087
2.99245
3.22394
3.43212
3.60614
3.74216
3.84466
3.9214
4.01759
4.17401
4.41285
4.80073
5.45825
6.58757
8.58631
12.2666
19.4988
36.2572
92.4529
401.457
2702.52
1.59203
1.59051
1.59542
1.60358
1.61506
1.62816
1.64332
1.65968
1.67755
1.69659
1.717
1.73872
1.76189
1.78654
1.81285
1.84093
1.87098
1.59757
1.6094
1.63156
1.66544
1.71407
1.78028
1.86833
1.97987
2.12027
2.2853
2.47959
2.6877
2.90603
3.14501
3.41716
3.66265
3.86528
4.01627
4.11617
4.1745
4.20202
4.25193
4.36964
4.57819
4.93328
5.56196
6.66431
8.63318
12.2763
19.4702
36.248
92.9624
406.132
2728.6
1.59758
1.59189
1.59049
1.59599
1.60428
1.61595
1.62912
1.64431
1.66068
1.67851
1.69752
1.71787
1.7395
1.76255
1.78708
1.81323
1.84117
1.87106
1.60947
1.63185
1.66622
1.71572
1.78362
1.87451
1.99111
2.13962
2.31742
2.53207
2.76761
3.02533
3.31696
3.65012
3.94767
4.1939
4.37326
4.48171
4.52695
4.52588
4.4929
4.48954
4.56403
4.74067
5.06363
5.66291
6.73863
8.67891
12.2872
19.4457
36.248
93.4621
410.475
2752.62
1.6096
1.5972
1.59153
1.59045
1.59662
1.60504
1.61687
1.63012
1.64532
1.66171
1.6795
1.69847
1.71874
1.74028
1.7632
1.78759
1.81361
1.8414
1.87114
1.6321
1.66691
1.71723
1.78667
1.88019
2.00154
2.15767
2.34804
2.58275
2.84623
3.14693
3.50004
3.92123
4.30376
4.61613
4.84289
4.97226
5.01025
4.97667
4.89809
4.7923
4.72868
4.7563
4.8984
5.19067
5.76063
6.81025
8.72327
12.2989
19.4251
36.2502
93.9334
414.689
2775.6
1.63242
1.60887
1.59621
1.59113
1.59052
1.59727
1.60587
1.61782
1.63116
1.64636
1.66277
1.68052
1.69945
1.71962
1.74104
1.76383
1.78809
1.81397
1.84162
1.87122
1.66751
1.71857
1.78944
1.88539
2.01118
2.17446
2.37706
2.6312
2.92307
3.27007
3.6909
4.21858
4.7372
5.17245
5.47912
5.64889
5.68433
5.61163
5.468
5.29057
5.09865
4.9678
4.94566
5.05102
5.31362
5.85472
6.87899
8.76609
12.3113
19.4078
36.2554
94.3954
418.572
2794.06
1.66818
1.63108
1.60686
1.59514
1.59084
1.59075
1.59792
1.60677
1.6188
1.63225
1.64744
1.66386
1.68156
1.70042
1.72047
1.74178
1.76444
1.78858
1.81433
1.84184
1.87129
1.71977
1.79195
1.89016
2.02005
2.19005
2.40443
2.67717
2.99794
3.39362
3.88654
4.53827
5.23971
5.89532
6.37041
6.61672
6.65898
6.53281
6.29504
6.00307
5.70261
5.41048
5.20564
5.13109
5.19817
5.43196
5.94491
6.94469
8.80723
12.324
19.3934
36.2653
94.8285
421.852
2809.59
1.72103
1.66616
1.62734
1.60472
1.5942
1.59057
1.59117
1.59857
1.60773
1.6198
1.63338
1.64855
1.66498
1.6826
1.70136
1.7213
1.74249
1.76504
1.78905
1.81467
1.84205
1.87136
1.79421
1.8945
2.02821
2.2045
2.43011
2.72057
3.07067
3.51605
4.08427
4.88018
5.81587
6.78694
7.59112
8.03347
8.10869
7.91375
7.53509
7.06604
6.5823
6.13291
5.72632
5.44105
5.3118
5.33961
5.54533
6.03102
7.0073
8.84662
12.337
19.3816
36.2769
95.1961
424.564
2826.37
1.79645
1.71812
1.66019
1.62342
1.60281
1.59335
1.59023
1.59173
1.59925
1.60876
1.62085
1.63455
1.6497
1.6661
1.68361
1.70228
1.72211
1.74319
1.76562
1.78951
1.81501
1.84225
1.87143
1.89847
2.03568
2.21789
2.45412
2.76147
3.14106
3.63585
4.28277
5.24577
6.47065
7.85319
9.13874
10.0162
10.2726
10.0096
9.43536
8.69741
7.92447
7.20366
6.57939
6.04461
5.67305
5.48715
5.47513
5.65354
6.11298
7.06676
8.88419
12.3499
19.3719
36.2902
95.5015
427.538
2844.66
1.90226
1.79244
1.70896
1.65398
1.61985
1.60105
1.59258
1.58993
1.5924
1.59996
1.60984
1.62195
1.63574
1.65084
1.66718
1.6846
1.70317
1.72289
1.74387
1.76618
1.78996
1.81533
1.84245
1.87147
2.04255
2.23026
2.4765
2.79998
3.20885
3.75187
4.48213
5.6361
7.20255
9.08849
11.0023
12.5381
13.313
13.1549
12.3417
11.2248
10.014
8.86424
7.86263
7.03916
6.3637
5.90073
5.65668
5.60464
5.75649
6.19067
7.12309
8.91992
12.3628
19.3652
36.3012
95.8466
430.756
2864.52
2.0489
1.89688
1.77877
1.6995
1.64826
1.61651
1.59942
1.59188
1.5897
1.59314
1.60073
1.61095
1.62309
1.63693
1.65197
1.66823
1.68556
1.70404
1.72366
1.74453
1.76673
1.79039
1.81565
1.84255
1.87147
2.24177
2.49732
2.83623
3.27373
3.86355
4.6833
6.05042
8.00375
10.4743
13.1556
15.5676
17.1775
17.5784
16.7103
15.1002
13.2663
11.4698
9.87452
8.55269
7.50871
6.68183
6.12328
5.82004
5.7281
5.85423
6.26432
7.17637
8.95382
12.3738
19.36
36.3165
96.2173
434.312
2886.26
2.25216
2.04194
1.87677
1.76481
1.69076
1.64284
1.61336
1.5979
1.59125
1.58957
1.59393
1.60158
1.6121
1.62425
1.63809
1.65307
1.66925
1.6865
1.70488
1.7244
1.74517
1.76727
1.79081
1.8158
1.84255
1.87147
2.51679
2.87034
3.33549
3.97083
4.88737
6.486
8.86252
11.9853
15.5583
19.0572
21.8188
23.2128
22.8738
20.9398
18.2613
15.5328
13.0433
10.9416
9.26611
7.98407
6.99724
6.34
5.97698
5.84549
5.94653
6.33412
7.22667
8.98167
12.3833
19.3553
36.3329
96.6421
438.158
2909.88
2.53396
2.24308
2.0127
1.85649
1.75184
1.68241
1.63765
1.61038
1.59649
1.59073
1.58955
1.59475
1.60251
1.61323
1.6254
1.63921
1.65414
1.67025
1.68742
1.7057
1.72513
1.74579
1.76778
1.79102
1.81581
1.84255
1.87147
2.9026
3.39412
4.07417
5.09502
6.9385
9.76549
13.5941
18.1634
22.9393
27.165
29.9995
30.7646
29.2265
25.821
21.7879
17.9906
14.7106
12.0506
9.99465
8.46121
7.30824
6.55026
6.12733
5.95701
6.03329
6.40008
7.26784
9.00531
12.3941
19.3508
36.3561
97.0981
442.422
2935.76
2.93065
2.52241
2.20068
1.9836
1.83762
1.7394
1.67437
1.63268
1.60759
1.5952
1.59032
1.58965
1.59558
1.60351
1.61433
1.62654
1.64031
1.65519
1.67122
1.68831
1.7065
1.72583
1.74639
1.76804
1.79102
1.81581
1.84255
1.87147
3.44993
4.17442
5.30642
7.40239
10.6988
15.2733
20.9222
27.1347
33.1071
37.8317
40.3141
39.908
36.6275
31.3093
25.6329
20.6032
16.447
13.1866
10.7303
8.93626
7.61324
6.7535
6.27099
6.0628
6.11479
6.45403
7.30268
9.0312
12.4061
19.3473
36.3812
97.6252
447.045
2963.82
3.4979
2.91574
2.46086
2.15911
1.95646
1.81948
1.72738
1.66662
1.62794
1.60498
1.59404
1.59
1.58995
1.59638
1.60454
1.61541
1.62766
1.64138
1.65622
1.67217
1.68918
1.70727
1.72652
1.74669
1.76804
1.79102
1.81581
1.84255
1.87147
4.27241
5.51991
7.87178
11.649
16.9966
23.7865
31.5601
39.5134
46.536
51.366
52.9083
50.6636
45.0296
37.3409
29.7427
23.3329
18.2289
14.3358
11.4656
9.40562
7.91075
6.9493
6.40796
6.16295
6.18118
6.49967
7.34072
9.05956
12.4198
19.3443
36.4163
98.1916
452.199
2994.61
4.35798
3.47911
2.82509
2.40148
2.12031
1.93034
1.80191
1.71575
1.65917
1.6234
1.6026
1.59299
1.58973
1.5905
1.59714
1.60558
1.61646
1.62876
1.64243
1.65722
1.67309
1.69002
1.70803
1.72686
1.74669
1.76804
1.79102
1.81581
1.84255
1.87143
5.73246
8.34237
12.6036
18.739
26.7104
36.1332
46.2434
55.8969
63.6503
68.0043
67.852
62.9905
54.3485
43.8364
34.0598
26.1429
20.0342
15.4858
12.1939
9.86609
8.19958
7.13731
6.53821
6.24504
6.23721
6.54947
7.38227
9.09067
12.4352
19.3433
36.4545
98.8524
457.803
3027.87
4.33371
5.91927
3.34142
2.7396
2.346
2.08292
1.905
1.78487
1.70453
1.65201
1.61906
1.60041
1.59205
1.58939
1.59117
1.5979
1.60663
1.6175
1.62984
1.64345
1.65819
1.67399
1.69084
1.7084
1.72686
1.74669
1.76804
1.79102
1.8158
1.84245
1.87136
8.81018
13.5521
20.4783
29.651
40.7763
53.1601
65.6842
76.8251
84.7908
87.888
85.1274
76.7855
64.4679
50.7055
38.5256
28.9987
21.8435
16.6259
12.9097
10.315
8.47867
7.31723
6.64543
6.31461
6.29822
6.60382
7.42768
9.12482
12.4527
19.344
36.5071
99.5641
464.082
3064.37
4.10883
5.89992
9.22448
3.21593
2.65973
2.29254
2.04664
1.88042
1.7684
1.69372
1.64516
1.61496
1.59842
1.59124
1.58914
1.5919
1.59867
1.60767
1.61853
1.63089
1.64445
1.65914
1.67486
1.69125
1.7084
1.72685
1.74669
1.76804
1.79102
1.81565
1.84225
1.87129
14.4839
22.1958
32.5709
45.4192
60.1376
75.6768
90.5254
102.745
110.189
111.046
104.624
91.8887
75.2464
57.8517
43.083
31.8686
23.6397
17.7469
13.6082
10.7502
8.74711
7.46611
6.73657
6.39072
6.36471
6.66315
7.47732
9.16235
12.4726
19.3464
36.5648
100.401
470.935
3103.56
3.91169
5.50235
9.2336
15.3116
3.0996
2.5828
2.2407
2.01145
1.85663
1.75252
1.68335
1.63864
1.61118
1.59669
1.59058
1.58902
1.59266
1.59946
1.60869
1.61954
1.63191
1.64542
1.66007
1.67529
1.69124
1.70839
1.72685
1.74669
1.76804
1.79081
1.81533
1.84204
1.87122
23.8733
35.4397
50.0031
67.067
85.6793
104.407
121.308
133.989
139.949
137.384
126.14
108.091
86.5263
65.1779
47.6789
34.7246
25.4081
18.8414
14.2857
11.1697
8.97021
7.59314
6.83662
6.47405
6.43721
6.72792
7.5316
9.2036
12.4954
19.3515
36.6427
101.306
478.656
3146.56
3.73262
5.15674
8.50615
15.3922
25.3727
2.98797
2.5083
2.19045
1.97739
1.83368
1.73725
1.67345
1.63253
1.60781
1.5952
1.59006
1.589
1.59341
1.60028
1.60968
1.62054
1.63291
1.64638
1.66053
1.67529
1.69124
1.70839
1.72685
1.74669
1.76778
1.79038
1.815
1.84183
1.87114
38.2288
54.4825
73.8613
95.5298
118.175
139.959
158.457
170.754
174.026
166.682
149.395
125.15
98.1433
72.5912
52.2646
37.542
27.137
19.9036
14.9392
11.519
9.16112
7.73315
6.94659
6.56538
6.51632
6.79865
7.59097
9.249
12.5212
19.3615
36.7302
102.379
487.11
3192.27
3.56378
4.84428
7.85987
14.1394
25.6313
40.7282
2.88022
2.43623
2.14189
1.94453
1.81161
1.72264
1.66411
1.62699
1.60486
1.59394
1.58969
1.58911
1.59415
1.60113
1.61065
1.62153
1.6339
1.64685
1.66052
1.67528
1.69124
1.70839
1.72685
1.74638
1.76725
1.78994
1.81466
1.84161
1.87106
58.8156
80.4579
105.107
131.598
158.263
182.825
202.274
213.092
212.225
198.596
174.038
142.801
109.936
80.0055
56.7974
40.3009
28.8165
20.9287
15.4837
11.8184
9.37214
7.88768
7.06762
6.66554
6.60269
6.8759
7.65592
9.29898
12.5509
19.3749
36.8448
103.548
496.704
3242.41
3.40329
4.55261
7.26792
12.9881
23.6806
41.3132
62.6958
2.77628
2.36672
2.09509
1.91296
1.79048
1.70883
1.65558
1.62207
1.60229
1.59287
1.58943
1.58937
1.59485
1.602
1.61159
1.62253
1.63438
1.64684
1.66052
1.67528
1.69124
1.70839
1.72651
1.74577
1.76671
1.78949
1.81431
1.84139
1.87098
86.8009
114.333
144.516
175.898
206.463
233.397
252.937
260.892
254.19
232.675
199.678
160.779
121.754
87.344
61.2416
42.9846
30.439
21.7833
15.9503
12.1496
9.6057
8.05844
7.20095
6.77548
6.69705
6.96026
7.72698
9.35404
12.5847
19.3955
36.9773
104.941
507.22
3294.91
3.25073
4.27873
6.71255
11.9089
21.8513
38.4657
63.7921
92.458
2.67624
2.29992
2.05018
1.88275
1.77048
1.69617
1.64795
1.6177
1.60007
1.59197
1.58922
1.5898
1.59553
1.60288
1.61255
1.62301
1.63435
1.64684
1.66051
1.67528
1.69124
1.70801
1.72581
1.74514
1.76616
1.78903
1.81396
1.84116
1.8709
123.138
156.84
192.662
228.927
263.22
291.987
310.487
313.868
299.405
268.383
225.904
178.829
133.459
94.5426
65.568
45.5798
31.7932
22.516
16.4667
12.5165
9.86448
8.24734
7.34796
6.89625
6.80018
7.05239
7.80468
9.41472
12.6237
19.4224
37.1451
106.472
519.282
3362.41
3.1059
4.02242
6.18939
10.8811
20.0984
35.7684
59.8384
94.2592
130.931
2.58028
2.23602
2.00726
1.85419
1.75214
1.68481
1.64111
1.61379
1.59819
1.59121
1.58898
1.59034
1.5962
1.60382
1.61299
1.62298
1.63435
1.64684
1.66051
1.67528
1.69083
1.70725
1.7251
1.7445
1.76559
1.78856
1.8136
1.84092
1.87081
168.495
208.465
249.964
291.123
328.955
358.839
374.816
371.538
347.216
305.131
252.311
196.718
144.937
101.548
69.7529
47.7476
32.9547
23.3271
17.0389
12.9233
10.1515
8.4565
7.51023
7.02898
6.91296
7.15298
7.88967
9.48156
12.6684
19.4589
37.3458
108.228
534.834
3441.64
2.96848
3.78419
5.6992
9.89998
18.3947
33.1467
56.0888
88.9692
133.597
178.684
2.48868
2.17517
1.96675
1.82799
1.73565
1.67461
1.635
1.6103
1.59657
1.59059
1.58879
1.59095
1.59695
1.60427
1.61292
1.62298
1.63434
1.64683
1.66051
1.67484
1.68999
1.70646
1.72437
1.74383
1.76501
1.78807
1.81322
1.84068
1.87073
223.241
269.504
316.79
362.957
404.113
434.124
445.633
433.23
396.86
342.313
278.52
214.249
156.093
108.319
73.2482
49.6073
34.2409
24.2259
17.6733
13.3748
10.47
8.68828
7.68945
7.17494
7.03634
7.26278
7.98248
9.55535
12.7196
19.507
37.5901
110.567
555.032
3519.25
2.83795
3.56531
5.24344
8.97134
16.7299
30.5637
52.4169
83.9891
126.694
182.283
235.919
2.40175
2.1179
1.92966
1.80447
1.72084
1.66546
1.62953
1.60725
1.59521
1.59006
1.58872
1.59168
1.59723
1.60421
1.61291
1.62298
1.63434
1.64684
1.66005
1.67395
1.68914
1.70566
1.72362
1.74315
1.76441
1.78757
1.81284
1.84043
1.87064
287.512
340.193
393.58
445.029
489.212
517.935
522.448
498.086
447.5
379.342
304.204
231.261
166.854
113.967
76.2453
51.6662
35.6661
25.2225
18.3773
13.8761
10.8236
8.94527
7.88752
7.33552
7.17135
7.38262
8.084
9.63647
12.779
19.5677
37.9435
113.653
577.185
3593.6
2.71411
3.36677
4.8232
8.09914
15.1053
28.0017
48.7708
79.1084
120.299
173.4
240.37
302.547
2.32033
2.06563
1.89642
1.78336
1.70755
1.65726
1.62466
1.60458
1.59403
1.58967
1.5889
1.59201
1.59706
1.60423
1.6129
1.62297
1.63436
1.64636
1.65911
1.67304
1.68826
1.70483
1.72285
1.74245
1.7638
1.78706
1.81244
1.84017
1.87055
361.362
420.866
481.01
538.193
584.897
610.264
604.535
565.087
498.283
415.697
329.093
247.626
175.807
118.803
79.5606
53.9472
37.2469
26.3286
19.1589
14.4329
11.2165
9.23034
8.10653
7.51225
7.3191
7.5132
8.19442
9.72617
12.8467
19.6629
38.4346
117.152
601.277
3663.72
2.59807
3.18473
4.43907
7.28503
13.5333
25.4592
45.1182
74.2542
114.07
165.365
228.988
307.552
378.342
2.24645
2.0189
1.86664
1.76441
1.69562
1.64992
1.62035
1.60224
1.59304
1.58961
1.58885
1.59188
1.59704
1.60422
1.6129
1.62298
1.63387
1.64538
1.65815
1.67211
1.68736
1.70398
1.72206
1.74174
1.76317
1.78653
1.81204
1.83991
1.87046
444.964
512.214
580.237
643.771
692.011
710.935
690.895
633.102
548.411
450.939
352.979
261.196
183.456
124.142
83.2289
56.4756
39.001
27.5568
20.0272
15.0516
11.653
9.54658
8.34871
7.70672
7.48082
7.65582
8.31574
9.82491
12.9409
19.7994
39.0389
121.12
627.509
3728.4
2.49276
3.01796
4.09243
6.53385
12.0311
22.9471
41.447
69.371
107.91
157.647
219.004
292.921
383.325
463.175
2.1808
1.97715
1.83997
1.74742
1.68493
1.64337
1.6165
1.60022
1.59253
1.5894
1.58853
1.59191
1.59703
1.60419
1.61296
1.62249
1.63287
1.64439
1.65716
1.67116
1.68644
1.70311
1.72125
1.741
1.76253
1.78599
1.81163
1.83965
1.87037
538.906
615.479
693.162
763.771
811.55
819.47
780.275
700.993
597.185
484.725
372.72
272.757
191.875
130.035
87.2883
59.2789
40.9482
28.9209
20.9918
15.7391
12.1378
9.89734
8.61644
7.92067
7.65758
7.80989
8.44822
9.9547
13.0635
19.9796
39.7345
125.641
655.999
3786.03
2.39935
2.86841
3.78477
5.85174
10.6156
20.4837
37.7605
64.4263
101.728
150.118
209.616
280.542
364.357
467.251
557.342
2.12245
1.93984
1.81608
1.73218
1.67536
1.63749
1.61313
1.59892
1.59204
1.58902
1.58853
1.59189
1.59702
1.60423
1.6125
1.62147
1.63185
1.64338
1.65615
1.67018
1.6855
1.70222
1.72042
1.74025
1.76187
1.78544
1.81122
1.8394
1.87029
644.282
732.845
822.978
900.999
944.411
934.987
871.268
767.696
644.036
512.584
389.491
285.438
201.135
136.536
91.7794
62.3869
43.11
30.4363
22.0634
16.5027
12.676
10.2861
8.91222
8.15578
7.85132
7.97622
8.6195
10.1153
13.2059
20.1872
40.5767
130.892
687.101
3836.53
2.31676
2.7355
3.522
5.24621
9.30713
18.0909
34.0722
59.4047
95.4621
142.642
200.661
269.218
348.941
442.337
559.321
662.032
2.07056
1.90652
1.79471
1.71854
1.66675
1.63231
1.61075
1.59794
1.59153
1.58903
1.5885
1.59184
1.59716
1.60375
1.61152
1.62046
1.63081
1.64235
1.65512
1.66918
1.68453
1.7013
1.71958
1.73947
1.7612
1.78489
1.81082
1.83916
1.8702
763.333
868.696
974.855
1058.81
1091.16
1056.31
962.447
832.272
682.684
536.202
407.821
299.324
211.305
143.702
96.7452
65.8317
45.5095
32.1193
23.2535
17.3503
13.273
10.7165
9.23852
8.41401
8.06288
8.18928
8.82736
10.2862
13.361
20.4498
41.5586
136.85
720.326
3875.72
2.24386
2.61681
3.30491
4.72968
8.12687
15.7932
30.4048
54.3032
89.0644
135.115
191.943
258.748
335.291
423.006
526.013
660.542
779.848
2.02439
1.87679
1.77559
1.70628
1.65913
1.62849
1.60911
1.59723
1.59156
1.589
1.58845
1.59193
1.59684
1.60278
1.61055
1.61944
1.62975
1.6413
1.65406
1.66816
1.68355
1.70036
1.71871
1.73869
1.76053
1.78436
1.81044
1.83892
1.87012
901.348
1030.98
1155.83
1241.06
1252.31
1182.25
1052.36
885.82
715.429
561.937
427.803
314.497
222.456
151.59
102.23
69.647
48.1714
33.9876
24.5744
18.2904
13.9342
11.1921
9.59795
8.69666
8.33649
8.44605
9.04141
10.4644
13.5401
20.7536
42.7228
143.952
758.537
3902.32
2.17953
2.5111
3.12096
4.29976
7.10339
13.6383
26.7895
49.1298
82.4981
127.445
183.307
248.851
323.144
406.472
501.63
614.965
773.386
915.999
1.98331
1.85027
1.75842
1.6954
1.65335
1.62599
1.60813
1.59729
1.59153
1.58893
1.58871
1.59156
1.59606
1.60186
1.60956
1.61841
1.62866
1.64022
1.65298
1.6671
1.68254
1.6994
1.71782
1.73791
1.75988
1.78385
1.81007
1.83869
1.87005
1067.25
1231.11
1375.64
1453.22
1429.71
1311.23
1127.88
931.285
751.057
589.881
449.515
331.027
234.652
160.254
108.28
73.8674
51.1215
36.0596
26.0388
19.3314
14.665
11.7166
9.99233
9.06317
8.66859
8.70837
9.26
10.6537
13.7373
21.1223
44.1089
151.964
800.381
3918.47
2.12275
2.4174
2.96209
3.94477
6.24357
11.7117
23.293
43.9073
75.7367
119.544
174.606
239.313
312.101
392.393
481.469
584.129
709.628
902.182
1080.87
1.94677
1.82653
1.74318
1.687
1.64967
1.62472
1.60821
1.59724
1.59142
1.58925
1.5887
1.59078
1.59535
1.60096
1.60855
1.61737
1.62755
1.63912
1.65188
1.66603
1.68151
1.69842
1.71695
1.73715
1.75925
1.78335
1.8097
1.83847
1.86997
1276.6
1487.61
1651.29
1708.81
1625.34
1422.02
1192.35
980.784
789.637
620.091
473.014
348.971
247.949
169.747
114.937
78.5279
54.3861
38.354
27.6597
20.482
15.471
12.2927
10.5047
9.50891
9.00857
8.975
9.48372
10.852
13.9624
21.558
45.7285
161.839
845.286
3917.55
2.07255
2.33481
2.82258
3.65248
5.53073
10.0535
20.0516
38.7118
68.7691
111.327
165.687
229.92
301.876
380.169
465.101
559.402
670.718
812.038
1055.98
1290.52
1.91415
1.80549
1.73122
1.68179
1.64801
1.62485
1.60815
1.59709
1.59185
1.58937
1.58844
1.59013
1.59465
1.60008
1.60751
1.61632
1.62642
1.63799
1.65076
1.66492
1.68046
1.69745
1.7161
1.73641
1.75864
1.78286
1.80935
1.83825
1.8699
1562.47
1843.9
2028.44
2032
1797.72
1517.1
1262.64
1034.3
831.172
652.577
498.32
368.365
262.39
180.113
122.243
83.6616
57.9906
40.8897
29.4499
21.7504
16.3565
13.0417
11.1283
9.96551
9.35392
9.24511
9.7112
11.0626
14.216
22.0694
47.6838
173.672
892.947
3910.04
2.02799
2.26231
2.69867
3.41492
4.94505
8.65477
17.1499
33.7377
61.6549
102.72
156.39
220.452
292.176
369.436
451.581
540.312
640.289
763.258
928.179
1258.38
1588.37
1.88531
1.78882
1.7239
1.67969
1.6482
1.62477
1.60794
1.59769
1.59223
1.58935
1.58846
1.58954
1.59391
1.59923
1.60645
1.61526
1.62527
1.63684
1.64963
1.66379
1.67943
1.69651
1.71528
1.7357
1.75805
1.78239
1.80901
1.83804
1.86982
2027.52
2420.47
2619.44
2318
1944.73
1620.34
1338.39
1091.68
875.567
687.288
525.416
389.212
277.998
191.385
130.232
89.2986
61.959
43.684
31.4216
23.1438
17.5077
13.9534
11.7672
10.429
9.70204
9.5171
9.94301
11.2863
14.5019
22.6861
49.9796
187.337
943.12
3891.56
1.98871
2.19859
2.58835
3.21846
4.4662
7.48523
14.5922
29.1329
54.6304
93.7266
146.548
210.663
282.712
359.799
440.454
525.298
617.993
725.807
866.887
1071.34
1563.55
2138.61
1.86218
1.77883
1.72121
1.67997
1.6481
1.62449
1.60878
1.59853
1.59265
1.58968
1.58858
1.58903
1.59315
1.5984
1.60539
1.61417
1.62412
1.63565
1.64847
1.66268
1.67843
1.6956
1.71448
1.73501
1.75747
1.78194
1.80867
1.83784
1.86976
2886.37
3581.54
3100.8
2551.2
2100.25
1729.97
1418.86
1152.55
922.623
724.103
554.228
411.482
294.771
203.581
138.927
95.4628
66.3115
46.7526
33.5844
24.9548
18.9088
14.8877
12.4156
10.8953
10.0501
9.79003
10.1792
11.5243
14.8316
23.3979
52.8851
202.681
995.831
3860.06
1.95699
2.14303
2.4903
3.05186
4.07768
6.51874
12.3843
24.9358
47.9051
84.5792
136.065
200.282
273.161
350.901
431.188
513.807
601.225
699.765
820.962
993.895
1275.43
2168.61
3330.51
1.84842
1.77547
1.72159
1.67984
1.64772
1.62558
1.61025
1.59971
1.59356
1.59013
1.58876
1.58869
1.59236
1.5976
1.60432
1.61306
1.62296
1.63444
1.64734
1.6616
1.67745
1.69472
1.7137
1.73434
1.75691
1.7815
1.80835
1.83764
1.86972
5026.27
4305.34
3440.78
2778.9
2259.14
1844.04
1503.08
1216.42
972.036
762.82
584.628
435.098
312.675