/*--------------------------------*- C++ -*----------------------------------*\
  =========                 |
  \\      /  F ield         | OpenFOAM: The Open Source CFD Toolbox
   \\    /   O peration     | Website:  https://openfoam.org
    \\  /    A nd           | Version:  8
     \\/     M anipulation  |
\*---------------------------------------------------------------------------*/
FoamFile
{
    version     2.0;
    format      ascii;
    class       volScalarField;
    location    "0.42";
    object      p;
}
// * * * * * * * * * * * * * * * * * * * * * * * * * * * * * * * * * * * * * //

dimensions      [0 2 -2 0 0 0 0];

internalField   nonuniform List<scalar> 
15677
(
80.7215
80.3649
79.9529
80.4294
79.9411
79.9524
80.4044
79.9683
79.9618
79.8446
80.379
79.9696
79.962
79.8536
79.7508
80.3572
79.9719
79.9619
79.8528
79.7583
79.652
80.3338
79.9742
79.9615
79.8539
79.7582
79.6586
79.5351
80.3086
79.9767
79.9607
79.8542
79.7592
79.6586
79.5409
79.3962
80.2825
79.9797
79.9592
79.8543
79.7597
79.6595
79.541
79.4012
79.2284
80.2551
79.9818
79.9571
79.8541
79.7601
79.6601
79.5419
79.4014
79.2327
79.0245
80.2264
79.9836
79.9544
79.8537
79.7604
79.6607
79.5426
79.4025
79.2331
79.0281
78.7771
80.1968
79.9856
79.9512
79.8535
79.7607
79.6613
79.5434
79.4033
79.2343
79.0287
78.7801
78.4785
80.1667
79.987
79.948
79.8536
79.7612
79.662
79.5443
79.4044
79.2353
79.03
78.7807
78.4807
78.1207
80.1365
79.9876
79.9446
79.854
79.7622
79.6632
79.5456
79.4058
79.2368
79.0314
78.7823
78.4815
78.1221
77.696
80.1101
79.9871
79.9413
79.8548
79.7639
79.6651
79.5477
79.4078
79.2387
79.0333
78.7841
78.4834
78.1231
77.6963
77.1966
80.088
79.9854
79.9381
79.8562
79.7666
79.6681
79.5508
79.4108
79.2416
79.036
78.7867
78.4857
78.1253
77.6976
77.1961
76.616
80.0686
79.9832
79.9354
79.8584
79.7705
79.6727
79.5555
79.4154
79.2459
79.04
78.7903
78.4891
78.1283
77.7002
77.1976
76.6143
75.948
80.0519
79.9812
79.9335
79.8611
79.7761
79.6792
79.5624
79.4222
79.2523
79.0459
78.7956
78.4938
78.1325
77.7039
77.2006
76.6161
75.945
75.1877
80.0376
79.9792
79.9322
79.8643
79.7829
79.6883
79.5723
79.4321
79.2618
79.0546
78.8035
78.5008
78.1387
77.7093
77.2051
76.6195
75.9471
75.1833
74.3315
80.0255
79.9773
79.9315
79.868
79.7904
79.6993
79.5859
79.4461
79.2755
79.0674
78.8151
78.5111
78.1476
77.717
77.2117
76.625
75.951
75.1857
74.3256
73.3774
80.0152
79.9756
79.9313
79.8721
79.7987
79.7114
79.6024
79.4654
79.2947
79.0859
78.8321
78.5262
78.1608
77.7283
77.2213
76.633
75.9574
75.19
74.3282
73.37
72.3252
80.007
79.9741
79.9317
79.8767
79.8076
79.7247
79.6205
79.4888
79.3212
79.1118
78.8565
78.5483
78.1802
77.7449
77.2353
76.6447
75.967
75.1976
74.3331
73.3728
72.316
71.1764
80.0008
79.9728
79.9326
79.8818
79.8172
79.739
79.6402
79.5144
79.3535
79.1474
78.8907
78.5799
78.2083
77.7692
77.2558
76.6616
75.9809
75.2087
74.3417
73.3781
72.3191
71.1654
69.9351
79.996
79.9718
79.9338
79.8872
79.8273
79.7542
79.6615
79.5424
79.3886
79.1907
78.9375
78.6241
78.2485
77.8045
77.2857
76.6864
76.0011
75.225
74.3545
73.3877
72.3248
71.1688
69.9221
68.6066
79.9924
79.971
79.9353
79.8926
79.8378
79.7702
79.684
79.5725
79.4271
79.238
78.9947
78.6848
78.3049
77.8548
77.3292
76.7227
76.0306
75.2485
74.3731
73.4021
72.3353
71.1747
69.9256
68.5915
67.2037
79.9897
79.9704
79.9367
79.8978
79.8483
79.7869
79.7076
79.6044
79.4686
79.2899
79.0571
78.7589
78.3821
77.9253
77.3912
76.7753
76.0738
75.283
74.4001
73.423
72.3512
71.186
69.9315
68.5949
67.186
65.7573
79.9876
79.97
79.9382
79.9027
79.8579
79.8032
79.7322
79.6379
79.5126
79.3457
79.1256
78.8399
78.4765
78.0221
77.478
76.8504
76.1364
75.3336
74.4397
73.4534
72.3742
71.203
69.9433
68.6004
67.1867
65.7033
64.2079
79.9859
79.9696
79.9396
79.9071
79.8666
79.8183
79.7562
79.6726
79.5587
79.405
79.1995
78.9289
78.5799
78.1405
77.5973
76.9556
76.2259
75.4069
74.4978
73.498
72.4076
71.2277
69.961
68.6121
67.1907
65.7056
64.1421
62.5413
79.9846
79.9693
79.941
79.9111
79.8745
79.8319
79.7783
79.7066
79.6064
79.4672
79.2779
79.0248
78.6936
78.2703
77.7435
77.1006
76.3515
75.5118
74.5822
73.5635
72.4569
71.2638
69.9869
68.6298
67.2007
65.7056
64.1445
62.5121
60.8299
79.9836
79.9692
79.9423
79.9147
79.8816
79.8442
79.7983
79.7378
79.6533
79.5316
79.3602
79.1269
78.8164
78.4133
77.9042
77.2784
76.5247
75.6593
74.7033
73.6592
72.5297
71.3172
70.0248
68.6559
67.2167
65.7125
64.1379
62.5041
60.8198
59.0812
79.9827
79.969
79.9435
79.918
79.888
79.8552
79.8163
79.7661
79.6964
79.5948
79.4456
79.2341
78.9471
78.568
78.0814
77.4742
76.7378
75.8634
74.8741
73.7969
72.6363
71.3966
70.0814
68.6946
67.2413
65.7256
64.144
62.4939
60.8027
59.0769
57.1183
79.982
79.9689
79.9447
79.9209
79.8937
79.8651
79.8324
79.7915
79.7353
79.653
79.5295
79.3454
79.0846
78.733
78.2735
77.6906
76.973
76.1152
75.111
73.9916
72.7903
71.5133
70.166
68.753
67.2788
65.7472
64.1552
62.5012
60.7933
59.0578
57.1172
54.9218
79.9814
79.9688
79.9458
79.9236
79.8988
79.8739
79.8468
79.8143
79.7703
79.7056
79.6066
79.4549
79.2275
78.9067
78.4786
77.9256
77.2336
76.3937
75.4041
74.2626
73.009
71.6828
70.2916
68.8414
67.3372
65.7821
64.1748
62.5118
60.8009
59.0505
57.0991
54.9226
52.7189
79.9809
79.9687
79.9469
79.9259
79.9033
79.8817
79.8596
79.8345
79.8016
79.7529
79.6765
79.5557
79.3682
79.0876
78.695
78.1772
77.5172
76.703
75.7292
74.5989
73.3144
71.9246
70.4752
68.9741
67.4274
65.8388
64.2075
62.5307
60.8112
59.0564
57.092
54.9059
52.7212
50.5452
79.9805
79.9686
79.9478
79.928
79.9073
79.8886
79.871
79.8526
79.8296
79.7952
79.7393
79.6469
79.4979
79.266
78.9208
78.4432
77.8216
77.0407
76.0915
74.9734
73.6951
72.264
70.7387
69.1697
67.5649
65.929
64.2623
62.5621
60.8298
59.0664
57.0948
54.8985
52.7062
50.5476
48.4186
79.9686
79.9801
79.9487
79.9299
79.9109
79.8948
79.8811
79.8686
79.8544
79.833
79.7955
79.7291
79.6156
79.4307
79.1439
78.7213
78.1441
77.404
76.4882
75.392
74.1204
72.689
71.1105
69.4526
67.7701
66.0691
64.3517
62.6153
60.8598
59.084
57.1035
54.8981
52.6986
50.5336
48.4206
46.3496
79.9495
79.9686
79.9795
79.9315
79.9141
79.9003
79.89
79.8829
79.8765
79.8666
79.8457
79.8027
79.7215
79.5802
79.3502
78.9966
78.4822
77.79
76.9161
75.8517
74.5977
73.1659
71.5785
69.8543
68.0694
66.2811
64.4929
62.7033
60.9109
59.1117
57.1183
54.9042
52.6952
50.5251
48.4074
46.3512
44.3485
79.933
79.9506
79.9688
79.979
79.9169
79.9051
79.898
79.8955
79.8961
79.8964
79.8903
79.8684
79.8165
79.715
79.5377
79.2518
78.8178
78.1959
77.3724
76.3496
75.1239
73.703
72.1061
70.3629
68.4974
66.5935
64.7092
62.8442
60.9962
59.1593
57.1419
54.9144
52.698
50.5183
48.3975
46.3384
44.3493
42.4235
79.9193
79.9351
79.9519
79.9691
79.9785
79.9094
79.9051
79.9067
79.9135
79.9229
79.93
79.9269
79.9013
79.8359
79.7071
79.4841
79.1295
78.5999
77.8537
76.8822
75.6958
74.2976
72.7029
70.939
69.043
67.0437
65.031
63.0623
61.1347
59.2402
57.1839
54.9316
52.7026
50.5167
48.3872
46.3269
44.3368
42.4235
40.5808
79.9131
79.9227
79.9374
79.9532
79.9694
79.9782
79.9113
79.9167
79.929
79.9464
79.9653
79.9789
79.9769
79.9441
79.8592
79.6943
79.4141
78.9763
78.3344
77.446
76.3099
74.9464
73.3664
71.5938
69.6642
67.6213
65.4985
63.3897
61.3514
59.3737
57.2575
54.9649
52.712
50.5145
48.3803
46.3128
44.3234
42.4111
40.5799
38.8241
79.9167
79.9182
79.9265
79.9399
79.9545
79.9697
79.9779
79.9255
79.9427
79.9673
79.9966
80.0251
80.0442
80.0405
79.9954
79.8835
79.6719
79.3207
78.7836
78.0113
76.9626
75.646
74.0935
72.325
70.3737
68.2828
66.1026
63.869
61.6799
59.5855
57.3824
55.0272
52.7343
50.5147
48.3705
46.3003
44.3055
42.3957
40.5675
38.8224
37.1556
79.933
79.924
79.9236
79.9303
79.9423
79.9558
79.97
79.9776
79.9549
79.9859
80.0244
80.0662
80.104
80.1264
80.117
80.053
79.9044
79.6336
79.1958
78.5414
77.6198
76.3929
74.8811
73.1301
71.1697
69.042
66.7981
64.4927
62.165
59.9101
57.5844
55.1381
52.7823
50.524
48.36
46.2821
44.2869
42.374
40.55
38.8099
37.1531
35.5761
79.9651
79.9431
79.9313
79.9291
79.9341
79.9447
79.9571
79.9705
79.9774
80.0023
80.0491
80.1026
80.1571
80.2028
80.2254
80.2045
80.1131
79.9161
79.5712
79.0294
78.2385
77.1483
75.7259
74.0064
72.0504
69.8979
67.6003
65.2146
62.8003
60.394
57.8993
55.3237
52.875
50.5549
48.3546
46.2601
44.2601
42.3493
40.5245
38.7902
37.1405
35.5729
34.0851
80.0161
79.9789
79.9529
79.9389
79.9346
79.9378
79.947
79.9584
79.9709
79.9772
80.0709
80.135
80.2042
80.2707
80.3218
80.3397
80.2998
80.1703
79.9111
79.4751
78.81
77.8625
76.5846
74.9511
73.014
70.85
68.5095
66.0517
63.54
61.0322
58.3741
55.6201
53.0385
50.6258
48.3663
46.2388
44.2258
42.3135
40.4936
38.761
37.1186
35.5601
34.0812
32.681
80.0892
80.0345
79.9916
79.963
79.9463
79.9399
79.9415
79.9494
79.9596
79.9714
79.9771
80.1637
80.2462
80.331
80.4075
80.4601
80.4667
80.3981
80.2174
79.8797
79.3338
78.5248
77.4001
75.9163
74.0583
71.8972
69.5265
67.0058
64.4025
61.7798
59.0057
56.0736
53.3082
50.7623
48.4126
46.2295
44.1879
42.2667
40.4488
38.724
37.0859
35.5361
34.0682
32.6766
31.3617
80.1876
80.1136
80.0508
80.0047
79.9728
79.9536
79.9451
79.9451
79.9517
79.9609
79.972
79.977
80.2834
80.3847
80.4838
80.5672
80.6154
80.6019
80.4925
80.2452
79.8106
79.1339
78.1596
76.8375
75.1313
73.0385
70.6513
68.0788
65.3912
62.6568
59.7511
56.6838
53.7285
50.9981
48.5181
46.2491
44.1566
42.2115
40.3893
38.6702
37.0429
35.4999
34.0422
32.6634
31.3568
30.1244
80.3141
80.2195
80.1343
80.0678
80.0176
79.9824
79.9606
79.9501
79.9486
79.9539
79.9622
79.9725
79.977
80.4323
80.5518
80.6626
80.7479
80.7839
80.739
80.5742
80.2424
79.6902
78.8608
77.6995
76.1608
74.2182
71.8845
69.2727
66.5097
63.6682
60.6318
57.4109
54.3022
51.375
48.7136
46.3202
44.1479
42.1578
40.3169
38.5982
36.9804
35.4512
34.0027
32.6353
31.3433
30.1189
28.9657
80.4715
80.3555
80.2454
80.1559
80.0843
80.0299
79.9916
79.9673
79.955
79.9519
79.9561
79.9634
79.9731
79.977
80.612
80.7477
80.866
80.9461
80.9595
80.8696
80.6321
80.1956
79.5034
78.4984
77.1288
75.3564
73.1671
70.5898
67.7618
64.8193
61.6542
58.2773
54.9938
51.8989
49.0382
46.4704
44.182
42.1198
40.2404
38.5087
36.896
35.3802
33.9484
32.5929
31.3134
30.1052
28.9599
27.8821
80.6613
80.5245
80.3878
80.2728
80.1769
80.1001
80.0417
80.0003
79.9738
79.9597
79.9552
79.9582
79.9646
79.9736
79.9771
80.8231
80.9715
81.0908
81.1563
81.1341
80.9827
80.6528
80.0891
79.2335
78.03
76.4321
74.4119
71.9686
69.1521
66.1162
62.826
59.291
55.8251
52.5391
49.5006
46.7353
44.2831
42.1151
40.1729
38.4098
36.7898
35.2839
33.8694
32.5333
31.2681
30.0737
28.9459
27.876
26.87
80.8845
80.7287
80.5645
80.4221
80.2992
80.1968
80.115
80.0529
80.0087
79.9799
79.9641
79.9583
79.9602
79.9658
79.9742
79.9773
81.0648
81.2203
81.3321
81.3707
81.2973
81.065
80.6205
79.9058
78.8625
77.4384
75.5947
73.3152
70.6176
67.5661
64.1559
60.4622
56.8061
53.316
50.0748
47.1259
44.4823
42.1644
40.1284
38.3127
36.6691
35.1616
33.7617
32.4466
31.2035
30.0257
28.9127
27.8617
26.8635
25.9256
81.1405
80.9695
80.778
80.6073
80.4551
80.3241
80.2155
80.1291
80.0635
80.0165
79.9857
79.9684
79.9612
79.9621
79.9669
79.9747
79.9775
81.3348
81.4896
81.5823
81.5791
81.4358
81.1009
80.5176
79.6267
78.3719
76.7066
74.6019
72.0583
69.1054
65.654
61.8029
57.9495
54.2412
50.7793
47.6211
44.7927
42.2937
40.1241
38.2282
36.5427
35.0196
33.6239
32.3279
31.1095
29.9564
28.8623
27.8271
26.849
25.9189
25.0452
81.4272
81.247
81.0301
80.831
80.6483
80.486
80.3473
80.233
80.1422
80.0733
80.0239
79.9912
79.9723
79.9639
79.9638
79.9679
79.9752
79.9777
81.6286
81.7721
81.8316
81.7685
81.534
81.0722
80.3244
79.232
77.7428
75.8179
73.4433
70.6287
67.2575
63.3272
59.2704
55.3291
51.6259
48.2359
45.1974
42.517
40.1807
38.1696
36.4185
34.8648
33.4617
32.1756
30.9806
29.8556
28.7886
27.7744
26.813
25.9041
25.038
24.2247
81.7404
81.5597
81.3212
81.0956
80.8818
80.6865
80.5147
80.3689
80.2492
80.1544
80.0824
80.0307
79.9962
79.9758
79.9662
79.9654
79.9689
79.9756
79.978
81.9396
82.0585
82.0672
81.9234
81.5735
80.959
80.0201
78.7014
76.9565
74.7592
72.1021
68.8574
64.9753
60.7862
56.5967
52.6292
48.9813
45.7069
42.8218
40.312
38.1521
36.3058
34.7017
33.2793
31.994
30.8145
29.717
28.6814
27.6966
26.7583
25.8668
25.023
24.2169
23.4635
82.0735
81.9042
81.6504
81.4021
81.1582
80.9288
80.7217
80.5411
80.3887
80.2639
80.1654
80.0907
80.0369
80.0007
79.979
79.9683
79.9668
79.9698
79.9761
79.9782
82.2584
82.3363
82.2738
82.0253
81.5339
80.7391
79.5831
78.0142
75.9969
73.5098
70.4172
66.6358
62.4398
58.0616
53.8054
49.8697
46.3297
43.2124
40.5093
38.1879
36.2137
34.5357
33.0785
31.7852
30.6146
29.538
28.5338
27.5835
26.6766
25.8102
24.9845
24.2017
23.4518
22.8335
82.4172
82.275
82.0151
81.75
81.479
81.2158
80.9719
80.7539
80.5651
80.4065
80.2772
80.1754
80.0981
80.0422
80.0045
79.9817
79.9702
79.968
79.9706
79.9765
79.9785
82.5728
82.5901
82.4327
82.0534
81.3924
80.39
78.9906
77.1518
74.8411
71.918
68.2664
64.1162
59.6687
55.1702
50.9152
47.0746
43.6938
40.7702
38.2726
36.1524
34.3696
32.8606
31.5482
30.3808
29.3209
28.3429
27.4275
26.5581
25.7251
24.9264
24.1624
23.437
22.8294
22.3041
82.7594
82.6639
82.4104
82.1374
81.8443
81.5495
81.2684
81.011
80.7828
80.5865
80.4223
80.2889
80.184
80.1043
80.0467
80.0077
79.984
79.9719
79.9692
79.9714
79.977
79.9788
82.8675
82.8014
82.523
81.9842
81.1255
79.8873
78.2221
76.0892
73.3448
69.8415
65.7675
61.306
56.6776
52.1348
47.9556
44.2722
41.0961
38.3963
36.1216
34.2111
32.6218
31.2803
30.1091
29.0633
28.1096
27.2254
26.3944
25.6016
24.838
24.1029
23.3968
22.8186
22.3089
21.7517
83.0844
83.0598
82.8291
82.5606
82.2531
81.9305
81.6135
81.3157
81.0458
80.8083
80.6052
80.436
80.2989
80.1911
80.1095
80.0504
80.0105
79.9861
79.9733
79.9702
79.9721
79.9774
79.9791
83.1238
82.9492
82.5207
81.7932
80.707
79.2085
77.2507
74.6871
71.3417
67.3676
62.9312
58.2324
53.502
48.9959
44.9635
41.4915
38.5575
36.1042
34.0643
32.3676
30.9708
29.7933
28.7588
27.8296
26.977
26.182
25.4306
24.7099
24.0116
23.3363
22.7782
22.299
21.7518
21.1556
83.3735
83.4488
83.2613
83.0132
82.7021
82.3584
82.0085
81.6709
81.3576
81.0762
80.8302
80.6209
80.4473
80.3069
80.1968
80.1135
80.0535
80.0127
79.9878
79.9746
79.971
79.9728
79.9778
79.9795
83.3203
83.0091
82.4006
81.4532
80.1129
78.3246
75.9384
72.755
68.9008
64.5279
59.8075
54.9471
50.193
45.7986
41.975
38.7595
36.0964
33.9052
32.1062
30.6234
29.4157
28.3974
27.4942
26.676
25.9194
25.2087
24.5323
23.8793
23.2423
22.7173
22.2594
21.7385
21.1505
20.5052
83.6044
83.8134
83.6941
83.4867
83.1864
82.8308
82.4534
82.078
81.7212
81.3937
81.1018
80.8484
80.6337
80.456
80.3129
80.2011
80.1167
80.0559
80.0146
79.9893
79.9756
79.9718
79.9734
79.9782
79.9799
83.4322
82.9551
82.1342
80.9384
79.3116
77.0967
74.0763
70.3592
66.0864
61.395
56.4576
51.505
46.7991
42.5842
39.0225
36.0993
33.7276
31.8075
30.2506
28.9789
27.9549
27.0896
26.3116
25.5989
24.933
24.3015
23.6956
23.1062
22.6211
22.1979
21.6987
21.1341
20.4981
19.7996
83.7513
84.1332
84.1113
83.9695
83.6984
83.3437
82.9468
82.5378
82.1387
81.7642
81.4237
81.1226
80.8625
80.643
80.4622
80.3172
80.2041
80.119
80.0577
80.0161
79.9905
79.9765
79.9725
79.974
79.9787
79.9803
83.4324
82.758
81.6942
80.2144
78.1619
75.3047
71.7391
67.5981
62.9832
58.0263
52.9285
47.9494
43.3615
39.3885
36.1337
33.5299
31.4623
29.8164
28.499
27.4328
26.5855
25.8664
25.2072
24.5942
24.0137
23.4567
22.9168
22.482
22.0999
21.6359
21.0932
20.4809
19.7917
19.0368
83.7857
84.3846
84.4937
84.4471
84.2279
83.8907
83.4852
83.0494
82.6111
82.19
81.7995
81.4476
81.1383
80.8724
80.6492
80.4662
80.3199
80.2061
80.1206
80.059
80.0172
79.9914
79.9773
79.9732
79.9747
79.9792
79.9808
83.2907
82.3888
81.0436
79.1373
76.4408
73.0382
69.0537
64.5556
59.6348
54.4541
49.2525
44.3161
39.9163
36.2427
33.3317
31.0659
29.3083
27.9347
26.8512
25.983
25.3043
24.7239
24.1771
23.6579
23.1575
22.6704
22.2879
21.9581
21.5359
21.0284
20.4387
19.7742
19.0282
18.2124
83.6751
84.5412
84.8186
84.902
84.7621
84.4629
84.0636
83.6104
83.1382
82.6727
82.2317
81.8269
81.4649
81.1485
80.8782
80.6525
80.4682
80.3212
80.2072
80.1215
80.0599
80.018
79.9922
79.9781
79.9739
79.9752
79.9797
79.9813
82.9752
81.8087
80.0361
77.4877
74.2538
70.4437
66.0938
61.2579
56.058
50.6984
45.4573
40.6385
36.4965
33.1736
30.6348
28.718
27.2702
26.1633
25.3053
24.6262
24.1074
23.6583
23.2172
22.7861
22.3607
22.0355
21.7603
21.3913
20.9261
20.3717
19.7309
19.0104
18.2035
17.3219
83.3828
84.5744
85.0604
85.3131
85.285
85.0489
84.6744
84.2165
83.7185
83.2126
82.7223
82.2635
81.8461
81.4753
81.1536
80.8804
80.6533
80.4684
80.3213
80.2074
80.1219
80.0603
80.0185
79.9931
79.9791
79.9746
79.9758
79.9802
79.9818
82.4447
80.8671
78.4609
75.3856
71.7586
67.5803
62.8691
57.7087
52.2613
46.778
41.5717
36.9495
33.1322
30.2037
28.0569
26.4929
25.3502
24.5011
23.8585
23.359
22.9911
22.6653
22.3233
21.9747
21.7174
21.5028
21.1895
20.7782
20.2669
19.6618
18.9657
18.1851
17.3127
16.3606
82.8622
84.453
85.1901
85.6564
85.7773
85.6344
85.3075
84.8615
84.3485
83.8087
83.272
82.7595
82.2849
81.8567
81.4795
81.1544
80.8796
80.652
80.4671
80.3204
80.2068
80.1216
80.0603
80.0194
79.9944
79.9799
79.9752
79.9763
79.9807
79.9822
81.5423
79.3684
76.4489
72.9927
68.9986
64.4435
59.3731
53.9067
48.2547
42.7154
37.6271
33.2823
29.8508
27.3509
25.6079
24.3946
23.548
22.9455
22.5074
22.1772
21.9509
21.7407
21.4916
21.3197
21.1778
20.9266
20.5721
20.1154
19.5543
18.8947
18.1392
17.2938
16.3514
15.3242
84.1381
81.9533
85.1746
85.9051
86.2168
86.2021
85.9502
85.5366
85.0231
84.4586
83.8805
83.3161
82.7838
82.2958
81.8595
81.4782
81.1513
80.8761
80.6487
80.4646
80.3185
80.2054
80.1208
80.0612
80.0211
79.9955
79.9805
79.9756
79.9768
79.9812
79.9827
80.0907
77.449
74.1601
70.3384
65.9588
61.0205
55.5974
49.8536
44.0531
38.5386
33.6582
29.6693
26.6762
24.6295
23.2939
22.424
21.8616
21.4932
21.2478
21.0765
20.9827
20.8805
20.8202
20.7701
20.5939
20.3033
19.9045
19.399
18.7844
18.0661
17.2467
16.332
15.3149
14.208
84.9785
83.4769
80.482
86.0267
86.5786
86.7312
86.5871
86.2309
85.7349
85.1581
84.5461
83.9335
83.3443
82.7951
82.2971
81.8557
81.4722
81.1448
80.8702
80.6439
80.4608
80.3155
80.2034
80.1215
80.0634
80.0224
79.9962
79.981
79.976
79.9771
79.9816
79.9832
78.2333
75.264
71.6136
67.3999
62.6223
57.2974
51.5362
45.5562
39.6785
34.2812
29.7018
26.1413
23.6287
22.0493
21.1177
20.5797
20.2877
20.1401
20.0751
20.0523
20.0821
20.1861
20.2571
20.1757
19.9625
19.6295
19.1831
18.625
17.9528
17.1716
16.2838
15.295
14.1987
13.0075
85.9881
84.4709
82.3354
78.6202
86.832
87.1991
87.1993
86.9305
86.4745
85.9011
85.2656
84.6106
83.967
83.3565
82.7948
82.2902
81.8461
81.4622
81.1356
80.8624
80.6376
80.4557
80.3117
80.2038
80.1243
80.0649
80.0232
79.9967
79.9814
79.9763
79.9775
79.982
79.9837
76.1199
72.826
68.7803
64.1579
58.9719
53.2628
47.1882
41.028
35.1598
29.9816
25.7953
22.7265
20.7246
19.6168
19.0794
18.8588
18.8222
18.8811
18.9846
19.1002
19.3554
19.6039
19.648
19.533
19.28
18.9013
18.4037
17.789
17.0551
16.2066
15.2457
14.1782
12.9981
11.7182
86.9476
85.6745
83.4911
80.8237
76.5149
87.5767
87.766
87.6185
87.2298
86.6795
86.0341
85.3452
84.6514
83.981
83.3546
82.7845
82.2764
81.8316
81.4487
81.124
80.8528
80.6296
80.4494
80.3115
80.2074
80.1262
80.0659
80.0237
79.997
79.9817
79.9765
79.9778
79.9825
79.9842
73.7585
70.1006
65.6402
60.5938
54.9924
48.9084
42.5576
36.2899
30.5332
25.682
21.9756
19.4495
17.9757
17.3344
17.177
17.2571
17.4598
17.7114
17.9715
18.3324
18.7463
18.9742
18.9896
18.8383
18.5424
18.1146
17.562
16.8867
16.0868
15.1664
14.1279
12.9771
11.7091
10.3365
87.8385
86.8314
84.9307
82.1487
79.0573
74.1706
88.2602
88.276
87.9857
87.483
86.8447
86.1332
85.3958
84.6684
83.9776
83.3404
82.7656
82.2565
81.813
81.4323
81.1103
80.8411
80.6202
80.4485
80.3161
80.2096
80.1273
80.0663
80.0238
79.9973
79.982
79.9767
79.978
79.9829
79.9848
71.1086
67.0684
62.1748
56.6907
50.6706
44.229
37.654
31.3706
25.8414
21.4266
18.2767
16.33
15.3892
15.2022
15.4068
15.7694
16.195
16.6256
17.1553
17.6892
18.0878
18.2937
18.2779
18.0877
17.7457
17.2652
16.6537
15.9136
15.0432
14.0465
12.9258
11.6875
10.3275
8.85902
88.6599
87.9136
86.3284
83.837
80.5573
77.0594
71.5387
88.8781
88.7253
88.2984
87.6886
86.969
86.1973
85.4177
84.6643
83.9596
83.316
82.7395
82.2317
81.7908
81.4135
81.0939
80.8276
80.6181
80.4543
80.3189
80.2109
80.1276
80.0661
80.0242
79.9979
79.9823
79.9768
79.9782
79.9834
79.9854
68.1518
63.7125
58.3673
52.4323
45.9932
39.2222
32.4942
26.3075
21.1325
17.2597
14.7289
13.3825
12.9691
13.2179
13.7635
14.3896
15.0223
15.7518
16.4718
16.994
17.3763
17.5584
17.5092
17.277
16.8856
16.3487
15.6742
14.865
13.9197
12.8423
11.6352
10.3053
8.85051
7.28231
89.4062
88.9203
87.6448
85.4892
82.4967
78.7658
74.7837
68.5996
89.4259
89.1106
88.5545
87.8454
87.0513
86.2266
85.414
84.6424
83.929
83.2829
82.7074
82.2027
81.7658
81.3914
81.0753
80.8242
80.6254
80.4576
80.3203
80.2111
80.1271
80.0668
80.0253
79.9983
79.9824
79.9768
79.9784
79.9839
79.9861
64.873
60.018
54.2004
47.7999
40.947
33.8895
27.1035
21.1469
16.4591
13.2234
11.3568
10.6169
10.7154
11.3767
12.241
13.1117
14.0795
15.0206
15.7334
16.2432
16.6079
16.7644
16.6793
16.4021
15.9578
15.3607
14.6191
13.7364
12.7119
11.5496
10.2524
8.82788
7.27628
5.30729
90.0713
89.8445
88.8817
87.0548
84.4033
80.9809
76.7299
72.2133
65.3384
89.8994
89.4293
88.7526
87.9517
87.0915
86.225
85.3887
84.6054
83.888
83.2424
82.6704
82.1702
81.7368
81.3665
81.07
80.8332
80.6294
80.4592
80.3204
80.2101
80.1282
80.0686
80.026
79.9985
79.9824
79.9767
79.9786
79.9844
79.9868
61.2594
55.969
49.6532
42.772
35.5173
28.2374
21.5177
15.9442
11.8751
9.35518
8.1793
8.03803
8.62503
9.67256
10.8326
12.0854
13.2914
14.2313
14.9367
15.4331
15.7787
15.9075
15.7839
15.4585
14.9577
14.2965
13.4836
12.5234
11.4156
10.1647
8.77429
7.25408
5.29864
2.98843
90.65
90.6775
90.0322
88.5369
86.2183
83.1583
79.2509
74.4283
69.3412
61.7431
90.295
89.6793
88.8904
88.0073
87.0943
86.1972
85.3453
84.5559
83.8383
83.1962
82.6292
82.133
81.7045
81.3589
81.0812
80.838
80.6311
80.459
80.3187
80.2118
80.131
80.0699
80.0264
79.9985
79.9822
79.9765
79.9787
79.985
79.9875
57.2969
51.5451
44.6994
37.3198
29.6884
22.2823
15.7863
10.762
7.43315
5.68708
5.20908
5.64612
6.69281
8.09851
9.70304
11.2286
12.4414
13.3804
14.0777
14.5595
14.8845
14.9834
14.8185
14.4418
13.8809
13.1517
12.2636
11.2218
10.0271
8.68454
7.2002
5.27306
2.97817
0.680411
91.1382
91.4111
91.0864
89.9289
87.9451
85.2371
81.7234
77.2828
71.8555
66.1643
57.8001
90.6101
89.8579
88.9674
88.018
87.0657
86.1476
85.2867
84.4959
83.7816
83.1451
82.5825
82.0917
81.694
81.3726
81.0868
80.8399
80.6307
80.4564
80.3212
80.2162
80.1333
80.0708
80.0265
79.9982
79.9819
79.9762
79.9787
79.9855
79.9884
52.9661
46.7194
39.3012
31.4081
23.452
16.0559
9.9722
5.66754
3.18219
2.24384
2.45222
3.43779
4.91149
6.83825
8.76139
10.3054
11.526
12.464
13.1524
13.6183
13.921
13.9879
13.7789
13.3476
12.7229
11.9219
10.9548
9.82799
8.54345
7.10847
5.21664
2.95071
0.673647
-1.58066
91.5325
92.0381
92.0339
91.2198
89.5777
87.2205
84.0904
80.07
75.0726
69.0127
62.6814
53.4906
90.8408
89.9637
88.9903
87.9906
87.0106
86.0798
85.2156
84.4276
83.7193
83.0874
82.5308
82.0778
81.7107
81.3793
81.089
80.8392
80.627
80.4601
80.3277
80.2199
80.135
80.0714
80.0264
79.9977
79.9815
79.9758
79.9788
79.9861
79.9892
48.2412
41.4539
33.412
25.0058
16.8145
9.60957
4.15196
0.729518
-0.835321
-0.958327
-0.0905881
1.40643
3.48864
5.78951
7.7482
9.31256
10.5414
11.4781
12.1567
12.6053
12.884
12.9166
12.6607
12.1714
11.4795
10.6032
9.55387
8.33904
6.96384
5.12111
2.89177
0.64844
-1.58586
-3.78272
91.8281
92.5528
92.8645
92.3981
91.105
89.1018
86.3556
82.7435
78.1943
72.6252
65.9075
58.8889
48.7893
90.9849
90.0045
88.9673
87.9314
86.9336
85.997
85.1347
84.3526
83.649
83.0236
82.5128
82.098
81.7186
81.3816
81.0879
80.8339
80.632
80.4693
80.3332
80.2227
80.1362
80.0715
80.0258
79.9969
79.9809
79.9753
79.9787
79.9867
79.9902
43.0857
35.6924
26.97
18.0748
9.79486
3.01713
-1.58631
-3.98586
-4.58669
-3.91088
-2.42384
-0.211364
2.30764
4.663
6.66026
8.24633
9.48381
10.4187
11.0866
11.5164
11.7693
11.7652
11.4596
10.9092
10.1469
9.19224
8.05778
6.75422
4.97172
2.79247
0.591102
-1.6111
-3.78683
-5.91148
92.0215
92.9488
93.5682
93.4522
92.5154
90.8691
88.5111
85.308
81.1903
76.1028
69.9534
62.5499
54.7806
43.664
91.0509
89.9902
88.9061
87.846
86.8388
85.9024
85.0457
84.2684
83.5715
83.001
82.5371
82.1072
81.7211
81.3798
81.0806
80.8408
80.6449
80.4774
80.3378
80.225
80.1369
80.0711
80.0249
79.9957
79.9802
79.9746
79.9786
79.9873
79.9911
37.4375
29.3488
19.8895
10.5754
2.43547
-3.62506
-7.14836
-8.42096
-8.04909
-6.61329
-4.27542
-1.54998
1.04196
3.45599
5.49428
7.1031
8.34937
9.28201
9.93808
10.3477
10.5729
10.5299
10.1717
9.55742
8.72184
7.68618
6.46592
4.75578
2.63806
0.491849
-1.66767
-3.81264
-5.91483
-7.9485
92.1218
93.2199
94.1324
94.3704
93.7967
92.5107
90.5438
87.756
84.0667
79.4378
73.8113
67.0753
58.9495
50.35
38.0605
91.0509
89.93
88.8133
87.739
86.7297
85.7983
84.9459
84.1755
83.5435
83.03
82.5478
82.11
81.7185
81.3708
81.0898
80.8581
80.6562
80.4841
80.3415
80.2264
80.1368
80.0701
80.0235
79.9942
79.9792
79.9739
79.9783
79.9879
79.9921
31.2085
22.3145
12.0747
2.4925
-5.18416
-10.2004
-12.4421
-12.5289
-11.2112
-8.74862
-5.80128
-2.98046
-0.310072
2.16595
4.2471
5.87946
7.13459
8.06445
8.70767
9.09546
9.29114
9.20699
8.79382
8.113
7.2018
6.0845
4.45935
2.41575
0.335841
-1.76687
-3.8686
-5.94068
-7.95136
-9.87677
92.1433
93.3771
94.5432
95.1357
94.9358
94.0136
92.4402
90.0747
86.8177
82.6371
77.5029
71.3418
64.0101
55.1144
45.5794
31.8972
90.9956
89.8317
88.6946
87.615
86.6095
85.6815
84.8359
84.1414
83.5779
83.0423
82.5508
82.1065
81.707
81.3825
81.1127
80.8735
80.6658
80.4898
80.3442
80.227
80.136
80.0685
80.0216
79.9923
79.9778
79.9731
79.9779
79.9885
79.9931
24.2825
14.4472
3.43455
-6.15188
-12.9378
-16.578
-17.3831
-16.2771
-13.6973
-10.4994
-7.42575
-4.50245
-1.74954
0.790629
2.91603
4.5725
5.83645
6.76291
7.39214
7.7566
7.92101
7.79362
7.32326
6.57387
5.58651
4.0667
2.11133
0.110453
-1.92355
-3.96784
-5.99538
-7.97671
-9.87779
-11.6772
92.0985
93.4377
94.8089
95.7259
95.9116
95.3651
94.1852
92.2504
89.4325
85.6981
81.0354
75.4099
68.7192
60.7774
51.0512
40.436
25.0626
90.8947
89.7024
88.5556
87.4777
86.4743
85.5526
84.7949
84.1819
83.5921
83.0455
82.5462
82.092
81.7218
81.4121
81.1332
80.8868
80.6742
80.4943
80.3458
80.2267
80.1345
80.0663
80.0192
79.99
79.9761
79.9724
79.9775
79.9891
79.9942
16.4759
5.5638
-6.10973
-15.2801
-20.6542
-22.6218
-21.898
-19.2079
-15.7221
-12.3541
-9.145
-6.11449
-3.27697
-0.671349
1.49913
3.18
4.45252
5.37484
5.98898
6.32865
6.46015
6.28776
5.75847
4.94016
3.55334
1.70797
-0.198579
-2.1502
-4.12467
-6.0938
-8.02989
-9.9029
-11.6786
-13.3359
91.9989
93.4171
94.949
96.1444
96.6945
96.5422
95.7637
94.2669
91.8992
88.6134
84.4111
79.2861
73.1872
65.9693
57.3985
46.7651
34.8825
17.3812
90.7564
89.5486
88.4006
87.323
86.3248
85.504
84.8425
84.1982
83.5956
83.0398
82.5282
82.1106
81.7595
81.4388
81.151
80.8986
80.681
80.4974
80.3462
80.2253
80.1319
80.0633
80.0162
79.9875
79.9742
79.9716
79.9772
79.9897
79.9952
7.50793
-4.57638
-16.5777
-24.7313
-28.142
-28.1866
-25.4071
-21.5744
-17.8527
-14.303
-10.9533
-7.81418
-4.89146
-2.22019
-0.00444949
1.70063
2.98117
3.89851
4.4965
4.81005
4.90727
4.68854
4.10014
2.88635
1.18016
-0.608724
-2.46119
-4.35132
-6.24934
-8.12663
-9.95428
-11.7029
-13.3358
-14.8347
91.8545
93.3293
94.9829
96.4095
97.2835
97.5099
97.1491
96.1065
94.2025
91.3745
87.6272
82.9801
77.4182
70.8647
63.1185
53.8986
42.2559
28.8741
8.56897
90.5887
89.3757
88.2253
87.1514
86.2679
85.5596
84.8611
84.2019
83.5884
83.0175
82.5512
82.1578
81.7935
81.4622
81.167
80.9085
80.6861
80.4989
80.3452
80.2226
80.1284
80.0595
80.0128
79.9847
79.9721
79.9707
79.9768
79.9902
79.9963
-3.09653
-16.1582
-27.9097
-34.3336
-35.1375
-32.5002
-28.2073
-24.0401
-20.0694
-16.3334
-12.8435
-9.59697
-6.59035
-3.85455
-1.5944
0.134088
1.42183
2.33328
2.9141
3.2005
3.26245
2.99744
2.01879
0.494011
-1.14578
-2.87444
-4.66206
-6.47402
-8.27936
-10.0485
-11.7517
-13.3589
-14.8333
-16.1595
91.6746
93.1864
94.9286
96.5397
97.6974
98.2645
98.2992
97.7365
96.3247
93.9693
90.6807
86.4948
81.434
75.4628
68.4737
60.1956
50.3081
37.5181
22.3599
-1.87044
90.398
89.1792
88.0301
87.0854
86.3325
85.5807
84.865
84.1931
83.5613
83.0456
82.6094
82.2005
81.8236
81.4834
81.1807
80.9162
80.6892
80.4987
80.3426
80.2186
80.1238
80.055
80.0089
79.9816
79.9698
79.9696
79.9763
79.9908
79.9974
-16.0114
-29.4032
-40.2626
-43.5231
-40.6014
-35.8731
-31.0806
-26.5686
-22.348
-18.4306
-14.8054
-11.4557
-8.36879
-5.57144
-3.26894
-1.51855
-0.224778
0.679777
1.24264
1.50123
1.52818
0.879674
-0.398892
-1.8442
-3.41575
-5.075
-6.7818
-8.49996
-10.197
-11.8424
-13.4052
-14.8552
-16.1564
-17.298
91.4671
92.9999
94.8023
96.5539
97.9549
98.8251
99.2088
99.1033
98.2292
96.3824
93.564
89.8343
85.2438
79.804
73.4516
66.0463
57.2309
46.6595
32.5441
15.3152
-14.8023
90.1798
88.9594
87.9544
87.16
86.3564
85.5849
84.8544
84.1604
83.5951
83.1165
82.6622
82.2385
81.851
81.5018
81.1918
80.9214
80.69
80.4963
80.3382
80.2132
80.1182
80.0499
80.0046
79.9783
79.9675
79.9685
79.9759
79.9913
79.9986
-32.8993
-44.4695
-52.3062
-50.8152
-44.8112
-39.2408
-33.9615
-29.1176
-24.6622
-20.5757
-16.8251
-13.3803
-10.2197
-7.36595
-5.0246
-3.25459
-1.95637
-1.05973
-0.515353
-0.283968
-0.63729
-1.57125
-2.7534
-4.11992
-5.61578
-7.1907
-8.80184
-10.4114
-11.9851
-13.4914
-14.899
-16.1769
-17.2934
-18.2407
91.2276
92.7785
94.6186
96.4704
98.0741
99.2113
99.901
100.194
99.8504
98.5757
96.2664
92.9972
88.8606
83.9048
78.1218
71.4167
63.6149
54.2545
42.9974
27.3445
7.82485
-32.7791
89.9344
88.8733
88.0402
87.187
86.3608
85.5722
84.8153
84.2006
83.6804
83.1808
82.7094
82.2732
81.8751
81.517
81.1998
80.9237
80.6883
80.4917
80.3319
80.2063
80.1117
80.0443
80
79.9749
79.965
79.9672
79.9755
79.9919
79.9997
-53.6741
-57.4545
-63.6926
-56.1013
-48.8203
-42.5036
-36.7835
-31.6439
-26.9814
-22.7456
-18.8854
-15.3581
-12.1337
-9.23108
-6.85596
-5.06959
-3.76885
-2.8811
-2.35458
-2.50491
-3.13124
-3.94727
-5.03713
-6.31948
-7.72605
-9.20278
-10.7045
-12.191
-13.6266
-14.9796
-16.218
-17.3121
-18.2347
-18.9797
90.9573
92.5184
94.3895
96.3079
98.0729
99.4423
100.399
101.032
101.166
100.475
98.7515
95.9794
92.2905
87.789
82.5088
76.4189
69.3878
61.2099
51.3142
39.3785
22.0169
-0.235221
-55.2054
89.837
88.9716
88.0705
87.1917
86.3459