/*--------------------------------*- C++ -*----------------------------------*\
  =========                 |
  \\      /  F ield         | OpenFOAM: The Open Source CFD Toolbox
   \\    /   O peration     | Website:  https://openfoam.org
    \\  /    A nd           | Version:  8
     \\/     M anipulation  |
\*---------------------------------------------------------------------------*/
FoamFile
{
    version     2.0;
    format      ascii;
    class       surfaceScalarField;
    location    "0.42";
    object      phi;
}
// * * * * * * * * * * * * * * * * * * * * * * * * * * * * * * * * * * * * * //

dimensions      [0 3 -1 0 0 0 0];

internalField   nonuniform List<scalar> 
31053
(
6.40045e-07
1.274e-05
8.62987e-07
1.51571e-05
3.56948e-07
1.2383e-05
9.48563e-07
1.75544e-05
5.66686e-07
1.49473e-05
2.74601e-07
1.21084e-05
9.73174e-07
2.02154e-05
6.80983e-07
1.74401e-05
4.6974e-07
1.47522e-05
2.1583e-07
1.18926e-05
9.645e-07
2.32487e-05
7.39235e-07
2.01571e-05
5.94891e-07
1.7315e-05
3.95124e-07
1.45729e-05
1.71265e-07
1.17213e-05
9.34545e-07
2.669e-05
7.63779e-07
2.32241e-05
6.69175e-07
2.00829e-05
5.21358e-07
1.71887e-05
3.30701e-07
1.44135e-05
1.36936e-07
1.15844e-05
8.89149e-07
3.06654e-05
7.6639e-07
2.66873e-05
7.1027e-07
2.3183e-05
6.01124e-07
2.00031e-05
4.51521e-07
1.70679e-05
2.76448e-07
1.42739e-05
1.09974e-07
1.14744e-05
8.31553e-07
3.51976e-05
7.53504e-07
3.06783e-05
7.29019e-07
2.66686e-05
6.47922e-07
2.31362e-05
5.31033e-07
1.99236e-05
3.88116e-07
1.69563e-05
2.2965e-07
1.41543e-05
8.76858e-08
1.13867e-05
7.65411e-07
4.03861e-05
7.29127e-07
3.5222e-05
7.31786e-07
3.06755e-05
6.71771e-07
2.66447e-05
5.78295e-07
2.3089e-05
4.63825e-07
1.98479e-05
3.29643e-07
1.68563e-05
1.87933e-07
1.4054e-05
6.82465e-08
1.13185e-05
6.93077e-07
4.63523e-05
6.94517e-07
4.04208e-05
7.22253e-07
3.52315e-05
6.78625e-07
3.06687e-05
6.02294e-07
2.66207e-05
5.08458e-07
2.30443e-05
3.98684e-07
1.97788e-05
2.7443e-07
1.67698e-05
1.49484e-07
1.39728e-05
5.04972e-08
1.1268e-05
6.16513e-07
5.32166e-05
6.51357e-07
4.63955e-05
7.00904e-07
4.04421e-05
6.7151e-07
3.52386e-05
6.08919e-07
3.0662e-05
5.29631e-07
2.65996e-05
4.38108e-07
2.30049e-05
3.34449e-07
1.97188e-05
2.21048e-07
1.66982e-05
1.12985e-07
1.39103e-05
3.3654e-08
1.12343e-05
5.37825e-07
6.10587e-05
6.01294e-07
5.32666e-05
6.6848e-07
4.64279e-05
6.53161e-07
4.04604e-05
6.01546e-07
3.5246e-05
5.3307e-07
3.06586e-05
4.53979e-07
2.65837e-05
3.66439e-07
2.29729e-05
2.69929e-07
1.96699e-05
1.68359e-07
1.66428e-05
7.74752e-08
1.38665e-05
1.71993e-08
1.12171e-05
4.5906e-07
7.00608e-05
5.45821e-07
6.11142e-05
6.2596e-07
5.33091e-05
6.24358e-07
4.64567e-05
5.82325e-07
4.04797e-05
5.22194e-07
3.52569e-05
4.51628e-07
3.06609e-05
3.74817e-07
2.65753e-05
2.92315e-07
2.29505e-05
2.04062e-07
1.96342e-05
1.15528e-07
1.66048e-05
4.22524e-08
1.38414e-05
9.54274e-10
1.12162e-05
3.82254e-07
8.04088e-05
4.86301e-07
7.01203e-05
5.74424e-07
6.11657e-05
5.85223e-07
5.33483e-05
5.52215e-07
4.64868e-05
4.989e-07
4.0503e-05
4.34381e-07
3.52741e-05
3.64339e-07
3.06714e-05
2.91014e-07
2.65766e-05
2.14661e-07
2.29399e-05
1.36113e-07
1.96136e-05
6.19203e-08
1.65851e-05
6.93685e-09
1.38354e-05
-1.52989e-08
1.12315e-05
3.20687e-07
7.62516e-05
4.23858e-07
8.04712e-05
5.15142e-07
7.01796e-05
5.36031e-07
6.12149e-05
5.11433e-07
5.33891e-05
4.64083e-07
4.65216e-05
4.04028e-07
4.05333e-05
3.38157e-07
3.53003e-05
2.7009e-07
3.06923e-05
2.01441e-07
2.65898e-05
1.32734e-07
2.29433e-05
6.5529e-08
1.961e-05
7.18393e-09
1.65849e-05
-2.86768e-08
1.38488e-05
-3.17357e-08
1.12632e-05
2.68286e-07
7.62424e-05
3.70137e-07
7.63053e-05
4.49572e-07
8.05368e-05
4.77371e-07
7.02382e-05
4.60024e-07
6.12663e-05
4.17994e-07
5.34352e-05
3.61367e-07
4.65643e-05
2.97951e-07
4.05735e-05
2.32429e-07
3.5338e-05
1.67686e-07
3.07261e-05
1.05298e-07
2.66173e-05
4.59857e-08
2.29629e-05
-7.9171e-09
1.96251e-05
-4.87921e-08
1.6605e-05
-6.47239e-08
1.38818e-05
-4.83352e-08
1.13115e-05
2.23852e-07
7.62344e-05
3.21512e-07
7.6291e-05
3.91234e-07
7.63636e-05
4.10307e-07
8.06039e-05
3.9821e-07
7.03e-05
3.60633e-07
6.13237e-05
3.06595e-07
5.34899e-05
2.44401e-07
4.66179e-05
1.79555e-07
4.06264e-05
1.15939e-07
3.53897e-05
5.62528e-08
3.07751e-05
2.01906e-09
2.66612e-05
-4.57274e-08
2.30007e-05
-8.41746e-08
1.96605e-05
-1.05956e-07
1.66462e-05
-1.01101e-07
1.39346e-05
-6.49275e-08
1.13765e-05
1.86258e-07
7.62296e-05
2.77462e-07
7.62785e-05
3.36979e-07
7.63453e-05
3.4897e-07
7.6425e-05
3.26745e-07
8.06753e-05
2.92063e-07
7.03686e-05
2.39694e-07
6.13906e-05
1.7761e-07
5.35567e-05
1.12001e-07
4.66854e-05
4.75021e-08
4.06948e-05
-1.22801e-08
3.54582e-05
-6.48015e-08
3.0842e-05
-1.08499e-07
2.6724e-05
-1.42203e-07
2.30587e-05
-1.62952e-07
1.97175e-05
-1.63988e-07
1.67091e-05
-1.37518e-07
1.40072e-05
-8.1378e-08
1.14578e-05
1.54517e-07
7.62217e-05
2.37603e-07
7.62695e-05
2.86756e-07
7.63287e-05
2.90806e-07
7.64034e-05
2.60752e-07
7.6491e-05
2.12846e-07
8.07546e-05
1.60685e-07
7.04476e-05
9.75205e-08
6.14706e-05
2.9745e-08
5.3639e-05
-3.72844e-08
4.67702e-05
-9.92876e-08
4.07818e-05
-1.52849e-07
3.55463e-05
-1.95556e-07
3.0929e-05
-2.25925e-07
2.68077e-05
-2.42914e-07
2.31387e-05
-2.43624e-07
1.97971e-05
-2.22353e-07
1.67939e-05
-1.73609e-07
1.40994e-05
-9.74253e-08
1.15553e-05
1.27746e-07
7.62168e-05
2.01593e-07
7.62578e-05
2.40455e-07
7.63158e-05
2.36255e-07
7.63833e-05
1.97772e-07
7.64664e-05
1.39618e-07
7.65642e-05
7.00876e-08
8.08452e-05
4.15254e-09
7.0541e-05
-6.73338e-08
6.15677e-05
-1.38604e-07
5.37403e-05
-2.04674e-07
4.68756e-05
-2.61465e-07
4.08905e-05
-3.05821e-07
3.56566e-05
-3.35523e-07
3.10386e-05
-3.49507e-07
2.69143e-05
-3.46922e-07
2.3242e-05
-3.25295e-07
1.99001e-05
-2.80382e-07
1.69007e-05
-2.08884e-07
1.42108e-05
-1.12882e-07
1.16681e-05
1.05171e-07
7.62126e-05
1.69127e-07
7.62492e-05
1.97957e-07
7.63002e-05
1.85511e-07
7.63665e-05
1.38544e-07
7.64425e-05
6.97226e-08
7.65363e-05
-1.33126e-08
7.66476e-05
-1.01908e-07
8.09512e-05
-1.79203e-07
7.06529e-05
-2.56659e-07
6.16858e-05
-3.28828e-07
5.38644e-05
-3.90854e-07
4.7005e-05
-4.39055e-07
4.10237e-05
-4.70538e-07
3.57916e-05
-4.83748e-07
3.11729e-05
-4.77999e-07
2.70454e-05
-4.5292e-07
2.33696e-05
-4.06912e-07
2.00266e-05
-3.37268e-07
1.70291e-05
-2.42842e-07
1.43408e-05
-1.27422e-07
1.17956e-05
8.76361e-08
6.95995e-05
1.39921e-07
7.62418e-05
1.59141e-07
7.62881e-05
1.38668e-07
7.63471e-05
8.34766e-08
7.64216e-05
4.12367e-09
7.65081e-05
-9.2632e-08
7.66156e-05
-1.98912e-07
7.67446e-05
-3.05141e-07
8.10772e-05
-3.91408e-07
7.07876e-05
-4.72063e-07
6.1829e-05
-5.4166e-07
5.40152e-05
-5.95832e-07
4.71618e-05
-6.3122e-07
4.11844e-05
-6.45834e-07
3.59537e-05
-6.38661e-07
3.13335e-05
-6.0967e-07
2.72022e-05
-5.59426e-07
2.35221e-05
-4.87249e-07
2.01766e-05
-3.92141e-07
1.71784e-05
-2.74871e-07
1.44883e-05
-1.40858e-07
1.19364e-05
7.39895e-08
6.25576e-05
1.15861e-07
6.96236e-05
1.23884e-07
7.6277e-05
9.57607e-08
7.6331e-05
3.28127e-08
7.63978e-05
-5.65727e-08
7.64823e-05
-1.66719e-07
7.65822e-05
-2.90675e-07
7.67074e-05
-4.19555e-07
7.6859e-05
-5.41947e-07
8.12277e-05
-6.34334e-07
7.09499e-05
-7.14346e-07
6.20017e-05
-7.77106e-07
5.41965e-05
-8.18576e-07
4.73491e-05
-8.36571e-07
4.13751e-05
-8.29798e-07
3.61448e-05
-7.98094e-07
3.1522e-05
-7.4259e-07
2.73853e-05
-6.64718e-07
2.36996e-05
-5.64995e-07
2.03495e-05
-4.44026e-07
1.73475e-05
-3.04485e-07
1.46519e-05
-1.52741e-07
1.20892e-05
6.31695e-08
5.62288e-05
9.62138e-08
6.25773e-05
9.46845e-08
6.96528e-05
5.67929e-08
7.6316e-05
-1.33063e-08
7.63771e-05
-1.11978e-07
7.64532e-05
-2.34781e-07
7.65503e-05
-3.75867e-07
7.66674e-05
-5.27175e-07
7.6815e-05
-6.779e-07
7.6995e-05
-8.14531e-07
8.14079e-05
-9.08888e-07
7.11444e-05
-9.83537e-07
6.22081e-05
-1.03394e-06
5.44119e-05
-1.05747e-06
4.757e-05
-1.05283e-06
4.15981e-05
-1.01979e-06
3.63665e-05
-9.59637e-07
3.1739e-05
-8.745e-07
2.75951e-05
-7.6699e-07
2.39016e-05
-6.38726e-07
2.05442e-05
-4.92079e-07
1.75351e-05
-3.30755e-07
1.48299e-05
-1.62309e-07
1.22515e-05
5.4437e-08
5.05407e-05
8.0067e-08
5.6245e-05
7.07926e-08
6.26012e-05
2.46291e-08
6.9685e-05
-5.4798e-08
7.63575e-05
-1.61844e-07
7.64269e-05
-2.96273e-07
7.65147e-05
-4.53508e-07
7.6628e-05
-6.26485e-07
7.67667e-05
-8.05132e-07
7.69423e-05
-9.76497e-07
7.71569e-05
-1.12395e-06
8.1623e-05
-1.21516e-06
7.1376e-05
-1.27822e-06
6.24524e-05
-1.3103e-06
5.46647e-05
-1.30983e-06
4.7827e-05
-1.27684e-06
4.18552e-05
-1.21289e-06
3.66197e-05
-1.12047e-06
3.1985e-05
-1.00307e-06
2.78312e-05
-8.64297e-07
2.41271e-05
-7.07179e-07
2.07593e-05
-5.3492e-07
1.77393e-05
-3.5303e-07
1.50206e-05
-1.69579e-07
1.24211e-05
4.72805e-08
4.54272e-05
6.67084e-08
5.05541e-05
5.11738e-08
5.62646e-05
-1.51106e-09
6.26273e-05
-8.86152e-08
6.97188e-05
-2.06009e-07
7.64017e-05
-3.50825e-07
7.64815e-05
-5.22881e-07
7.6584e-05
-7.16301e-07
7.67178e-05
-9.21912e-07
7.68835e-05
-1.12746e-06
7.70932e-05
-1.31659e-06
7.73496e-05
-1.47041e-06
8.18782e-05
-1.55155e-06
7.16494e-05
-1.5963e-06
6.27384e-05
-1.6031e-06
5.4958e-05
-1.57196e-06
4.81221e-05
-1.50514e-06
4.21474e-05
-1.40569e-06
3.6905e-05
-1.27771e-06
3.22596e-05
-1.12577e-06
2.80927e-05
-9.54888e-07
2.43748e-05
-7.68526e-07
2.09929e-05
-5.71779e-07
1.7958e-05
-3.679e-07
1.52189e-05
-1.3589e-07
1.25569e-05
4.1338e-08
4.08319e-05
5.55849e-08
4.54383e-05
3.50035e-08
5.05703e-05
-2.28175e-08
5.62859e-05
-1.15687e-07
6.26544e-05
-2.41277e-07
6.9754e-05
-3.98183e-07
7.6449e-05
-5.83475e-07
7.65421e-05
-7.95714e-07
7.66634e-05
-1.02683e-06
7.68227e-05
-1.26543e-06
7.70214e-05
-1.49561e-06
7.72722e-05
-1.69854e-06
7.75777e-05
-1.8522e-06
8.21789e-05
-1.91577e-06
7.19688e-05
-1.93426e-06
6.30696e-05
-1.90804e-06
5.52941e-05
-1.83982e-06
4.84568e-05
-1.73369e-06
4.24754e-05
-1.59466e-06
3.72219e-05
-1.42816e-06
3.2562e-05
-1.24031e-06
2.83781e-05
-1.03648e-06
2.46428e-05
-8.21577e-07
2.12427e-05
-5.97746e-07
1.81879e-05
-3.59801e-07
1.54428e-05
-8.56122e-08
1.26426e-05
3.63527e-08
3.6701e-05
4.62781e-08
4.08412e-05
2.161e-08
4.54517e-05
-4.0221e-08
5.05877e-05
-1.37347e-07
5.63076e-05
-2.68819e-07
6.26819e-05
-4.35002e-07
6.97909e-05
-6.34925e-07
7.65005e-05
-8.64048e-07
7.66104e-05
-1.11876e-06
7.67554e-05
-1.38875e-06
7.6946e-05
-1.65875e-06
7.71846e-05
-1.91018e-06
7.74839e-05
-2.12058e-06
7.78461e-05
-2.26685e-06
8.25299e-05
-2.30388e-06
7.23385e-05
-2.2872e-06
6.34487e-05
-2.22048e-06
5.56747e-05
-2.10862e-06
4.88317e-05
-1.95822e-06
4.2839e-05
-1.77593e-06
3.75697e-05
-1.56898e-06
3.28907e-05
-1.34395e-06
2.86855e-05
-1.10737e-06
2.49286e-05
-8.61583e-07
2.15065e-05
-6.05892e-07
1.8434e-05
-3.32769e-07
1.569e-05
-6.43478e-08
1.27069e-05
3.21489e-08
3.29902e-05
3.84566e-08
3.67088e-05
1.04677e-08
4.08524e-05
-5.44602e-08
4.54659e-05
-1.54676e-07
5.0605e-05
-2.90212e-07
5.63289e-05
-4.62795e-07
6.27097e-05
-6.73705e-07
6.98296e-05
-9.20803e-07
7.65572e-05
-1.19683e-06
7.66885e-05
-1.49603e-06
7.68627e-05
-1.80404e-06
7.70913e-05
-2.10271e-06
7.73771e-05
-2.3694e-06
7.77327e-05
-2.58022e-06
7.81594e-05
-2.71009e-06
8.29362e-05
-2.71036e-06
7.27616e-05
-2.64977e-06
6.3878e-05
-2.53477e-06
5.61009e-05
-2.37335e-06
4.92469e-05
-2.17416e-06
4.32372e-05
-1.94606e-06
3.79468e-05
-1.69696e-06
3.32437e-05
-1.43448e-06
2.90127e-05
-1.16336e-06
2.52304e-05
-8.83877e-07
2.17845e-05
-6.00983e-07
1.87022e-05
-3.08388e-07
1.5934e-05
-5.81634e-08
1.27651e-05
2.85957e-08
2.96516e-05
3.18525e-08
3.29968e-05
1.15777e-09
3.67181e-05
-6.61513e-08
4.08641e-05
-1.6854e-07
4.54798e-05
-3.06734e-07
5.06215e-05
-4.83475e-07
5.63496e-05
-7.01777e-07
6.27378e-05
-9.62215e-07
6.98711e-05
-1.26039e-06
7.66208e-05
-1.58619e-06
7.67787e-05
-1.92981e-06
7.69884e-05
-2.27385e-06
7.72624e-05
-2.59567e-06
7.76034e-05
-2.87083e-06
7.80233e-05
-3.07294e-06
7.85223e-05
-3.17571e-06
8.34015e-05
-3.12911e-06
7.3241e-05
-3.01549e-06
6.43587e-05
-2.84515e-06
5.65727e-05
-2.62867e-06
4.97014e-05
-2.37746e-06
4.36686e-05
-2.10137e-06
3.83512e-05
-1.80944e-06
3.36186e-05
-1.50825e-06
2.93575e-05
-1.20081e-06
2.55473e-05
-8.93734e-07
2.20772e-05
-5.92331e-07
1.89861e-05
-2.94765e-07
1.61706e-05
-6.19507e-08
1.2827e-05
2.55825e-08
2.6651e-05
2.62553e-08
2.96572e-05
-6.66586e-09
3.30046e-05
-7.57879e-08
3.67278e-05
-1.79637e-07
4.08752e-05
-3.19415e-07
4.54925e-05
-4.98595e-07
5.06366e-05
-7.21496e-07
5.63693e-05
-9.90805e-07
6.27664e-05
-1.30534e-06
6.9916e-05
-1.65836e-06
7.6693e-05
-2.0347e-06
7.68835e-05
-2.42156e-06
7.71361e-05
-2.79668e-06
7.74634e-05
-3.13529e-06
7.78678e-05
-3.40985e-06
7.83602e-05
-3.59196e-06
7.89385e-05
-3.65696e-06
8.39293e-05
-3.55285e-06
7.37783e-05
-3.3778e-06
6.48914e-05
-3.14546e-06
5.70895e-05
-2.86984e-06
5.01938e-05
-2.56384e-06
4.41311e-05
-2.2387e-06
3.87804e-05
-1.90309e-06
3.40135e-05
-1.56234e-06
2.97191e-05
-1.2243e-06
2.58779e-05
-8.98442e-07
2.23833e-05
-5.85511e-07
1.92769e-05
-2.90521e-07
1.63992e-05
-8.48878e-08
1.29119e-05
2.3018e-08
2.39566e-05
2.14948e-08
2.66558e-05
-1.32822e-08
2.96638e-05
-8.3767e-08
3.30126e-05
-1.88529e-07
3.67366e-05
-3.29078e-07
4.08848e-05
-5.09398e-07
4.55033e-05
-7.34766e-07
5.06499e-05
-1.00948e-06
5.6388e-05
-1.33487e-06
6.27959e-05
-1.70803e-06
6.99657e-05
-2.11763e-06
7.67759e-05
-2.54419e-06
7.70062e-05
-2.97003e-06
7.73095e-05
-3.37045e-06
7.76986e-05
-3.71693e-06
7.81749e-05
-3.97927e-06
7.87475e-05
-4.13015e-06
7.94117e-05
-4.14577e-06
8.45223e-05
-3.97415e-06
7.43747e-05
-3.72958e-06
6.54755e-05
-3.43014e-06
5.76498e-05
-3.09192e-06
5.07218e-05
-2.7297e-06
4.46221e-05
-2.35494e-06
3.92323e-05
-1.97558e-06
3.44267e-05
-1.60034e-06
3.00951e-05
-1.24017e-06
2.62196e-05
-9.01372e-07
2.26992e-05
-5.81756e-07
1.95681e-05
-3.5862e-07
1.66729e-05
-9.31001e-08
1.3005e-05
2.08251e-08
2.15342e-05
1.74311e-08
2.39606e-05
-1.89101e-08
2.66614e-05
-9.04047e-08
2.96704e-05
-1.95665e-07
3.30197e-05
-3.36377e-07
3.67439e-05
-5.16876e-07
4.08923e-05
-7.43112e-07
4.55116e-05
-1.02057e-06
5.0661e-05
-1.35255e-06
5.64057e-05
-1.73915e-06
6.28271e-05
-2.17346e-06
7.00215e-05
-2.64035e-06
7.6872e-05
-3.11368e-06
7.71498e-05
-3.57345e-06
7.75125e-05
-3.99055e-06
7.79722e-05
-4.33322e-06
7.85289e-05
-4.57165e-06
7.9189e-05
-4.67877e-06
7.99447e-05
-4.63376e-06
8.51819e-05
-4.3848e-06
7.50299e-05
-4.06438e-06
6.61097e-05
-3.69351e-06
5.82514e-05
-3.29078e-06
5.12829e-05
-2.87188e-06
4.51391e-05
-2.44803e-06
3.97047e-05
-2.02947e-06
3.48559e-05
-1.62748e-06
3.04824e-05
-1.25119e-06
2.65694e-05
-9.02888e-07
2.30203e-05
-7.1522e-07
1.99247e-05
-3.57591e-07
1.69374e-05
-1.02042e-07
1.31071e-05
1.89406e-08
1.93539e-05
1.39484e-08
2.15377e-05
-2.37222e-08
2.39654e-05
-9.59531e-08
2.66669e-05
-2.01398e-07
2.96761e-05
-3.41833e-07
3.30252e-05
-5.21812e-07
3.67489e-05
-7.47743e-07
4.08969e-05
-1.02598e-06
4.5517e-05
-1.36128e-06
5.06697e-05
-1.75609e-06
5.64226e-05
-2.20705e-06
6.28606e-05
-2.70413e-06
7.00853e-05
-3.22591e-06
7.69843e-05
-3.7418e-06
7.73182e-05
-4.22736e-06
7.77493e-05
-4.64962e-06
7.82886e-05
-4.97653e-06
7.89337e-05
-5.17776e-06
7.9688e-05
-5.22867e-06
8.05396e-05
-5.11162e-06
8.59087e-05
-4.77743e-06
7.5743e-05
-4.37566e-06
6.67919e-05
-3.9308e-06
5.88914e-05
-3.46307e-06
5.18741e-05
-2.9884e-06
4.56794e-05
-2.51961e-06
4.01949e-05
-2.06886e-06
3.52972e-05
-1.64611e-06
3.08773e-05
-1.25754e-06
2.69241e-05
-1.11397e-06
2.34191e-05
-7.05912e-07
2.0273e-05
-3.56936e-07
1.71923e-05
-1.08915e-07
1.3216e-05
1.73976e-05
1.73129e-08
1.09517e-08
1.93569e-05
-2.78534e-08
2.15418e-05
-1.00612e-07
2.39701e-05
-2.06013e-07
2.66716e-05
-3.45857e-07
2.96802e-05
-5.24823e-07
3.30282e-05
-7.49607e-07
3.67507e-05
-1.02716e-06
4.08981e-05
-1.36333e-06
4.55191e-05
-1.76236e-06
5.0676e-05
-2.22367e-06
5.64393e-05
-2.74136e-06
6.28979e-05
-3.29976e-06
7.01591e-05
-3.87337e-06
7.71158e-05
-4.42436e-06
7.75152e-05
-4.92455e-06
7.80242e-05
-5.34e-06
7.86521e-05
-5.63726e-06
7.93932e-05
-5.7878e-06
8.02471e-05
-5.76959e-06
8.11976e-05
-5.57094e-06
8.67022e-05
-5.14451e-06
7.65118e-05
-4.65794e-06
6.7519e-05
-4.13829e-06
5.95666e-05
-3.60659e-06
5.24923e-05
-3.08004e-06
4.62399e-05
-2.57276e-06
4.06988e-05
-2.09575e-06
3.57469e-05
-1.65658e-06
3.12764e-05
-1.5547e-06
2.73648e-05
-1.09955e-06
2.38127e-05
-6.94294e-07
2.06104e-05
-3.54166e-07
1.74376e-05
-1.13331e-07
1.33293e-05
1.74002e-05
8.36106e-09
2.78125e-05
1.47966e-08
-3.14101e-08
1.93604e-05
-1.04541e-07
2.15457e-05
-2.09732e-07
2.39738e-05
-3.48773e-07
2.66745e-05
-5.26392e-07
2.96817e-05
-7.49447e-07
3.30281e-05
-1.02529e-06
3.67489e-05
-1.36054e-06
4.08953e-05
-1.76078e-06
4.55175e-05
-2.22759e-06
5.06799e-05
-2.75835e-06
5.64562e-05
-3.34214e-06
6.29403e-05
-3.95986e-06
7.02456e-05
-4.57892e-06
7.72704e-05
-5.15443e-06
7.7745e-05
-5.6575e-06
7.83417e-05
-6.05187e-06
7.90667e-05
-6.30514e-06
7.99106e-05
-6.39073e-06
8.08683e-05
-6.29226e-06
8.19189e-05
-6.00309e-06
8.75608e-05
-5.47965e-06
7.73335e-05
-4.90686e-06
6.82876e-05
-4.31335e-06
6.02734e-05
-3.72133e-06
5.31336e-05
-3.1489e-06
4.6816e-05
-2.60904e-06
4.1212e-05
-2.11061e-06
3.62009e-05
-2.04947e-06
3.17711e-05
-1.53601e-06
2.78013e-05
-1.07848e-06
2.41969e-05
-6.78935e-07
2.09352e-05
-3.4855e-07
1.76728e-05
-1.15324e-07
1.34446e-05
1.74033e-05
-3.44813e-08
2.78163e-05
4.60868e-09
2.85524e-05
1.23988e-08
-1.07865e-07
1.93638e-05
-2.12736e-07
2.15487e-05
-3.50836e-07
2.39759e-05
-5.26895e-07
2.6675e-05
-7.47839e-07
2.96801e-05
-1.02127e-06
3.3024e-05
-1.35432e-06
3.67427e-05
-1.75355e-06
4.08881e-05
-2.22219e-06
4.55121e-05
-2.76021e-06
5.06818e-05
-3.36048e-06
5.64746e-05
-4.0093e-06
6.29897e-05
-4.68106e-06
7.03478e-05
-5.33603e-06
7.7452e-05
-5.92477e-06
7.80123e-05
-6.41633e-06
7.87062e-05
-6.77467e-06
7.95362e-05
-6.96849e-06
8.04883e-05
-6.97647e-06
8.15525e-05
-6.78701e-06
8.27029e-05
-6.40061e-06
8.84817e-05
-5.77769e-06
7.82043e-05
-5.11915e-06
6.90934e-05
-4.45516e-06
6.10072e-05
-3.80854e-06
5.37932e-05
-3.19619e-06
4.74032e-05
-2.62906e-06
4.17305e-05
-2.61197e-06
3.67634e-05
-2.0255e-06
3.22606e-05
-1.50609e-06
2.82289e-05
-1.0507e-06
2.45687e-05
-6.59504e-07
2.12461e-05
-3.40082e-07
1.78976e-05
-1.15222e-07
1.35598e-05
1.74061e-05
-1.10689e-07
2.782e-05
-3.8239e-08
2.8556e-05
1.03043e-09
2.93123e-05
1.01249e-08
-2.15164e-07
1.93662e-05
-3.52245e-07
2.15501e-05
-5.26624e-07
2.39756e-05
-7.45224e-07
2.66724e-05
-1.01577e-06
2.96746e-05
-1.34575e-06
3.30155e-05
-1.7424e-06
3.67315e-05
-2.21018e-06
4.08761e-05
-2.75102e-06
4.55029e-05
-3.36086e-06
5.06821e-05
-4.03035e-06
5.64957e-05
-4.73989e-06
6.30485e-05
-5.45727e-06
7.0469e-05
-6.13792e-06
7.76652e-05
-6.72567e-06
7.83217e-05
-7.19039e-06
7.91219e-05
-7.49624e-06
8.0064e-05
-7.61657e-06
8.11284e-05
-7.5344e-06
8.22999e-05
-7.24536e-06
8.35476e-05
-6.7573e-06
8.94613e-05
-6.0345e-06
7.91197e-05
-5.29319e-06
6.99314e-05
-4.56419e-06
6.17628e-05
-3.86903e-06
5.44661e-05
-3.22259e-06
4.79967e-05
-3.25458e-06
4.23731e-05
-2.58171e-06
3.73196e-05
-1.98571e-06
3.27403e-05
-1.46595e-06
2.86441e-05
-1.01674e-06
2.49259e-05
-6.36385e-07
2.15424e-05
-3.29119e-07
1.81115e-05
-1.13419e-07
1.36733e-05
1.74081e-05
-2.1713e-07
2.78222e-05
-1.12822e-07
2.85595e-05
-4.17686e-08
2.93157e-05
-2.37359e-09
3.00902e-05
7.97335e-09
-3.53157e-07
1.93671e-05
-5.25804e-07
2.15493e-05
-7.41941e-07
2.39723e-05
-1.00934e-06
2.66659e-05
-1.33568e-06
2.96646e-05
-1.72866e-06
3.30017e-05
-2.19362e-06
3.67149e-05
-2.734e-06
4.08591e-05
-3.34811e-06
4.54902e-05
-4.03015e-06
5.06819e-05
-4.76546e-06
5.65212e-05
-5.52837e-06
6.31196e-05
-6.28226e-06
7.06133e-05
-6.97519e-06
7.79147e-05
-7.54654e-06
7.86778e-05
-7.96724e-06
7.95929e-05
-8.20531e-06
8.06527e-05
-8.23786e-06
8.18319e-05
-8.05503e-06
8.31096e-05
-7.66007e-06
8.44504e-05
-7.06797e-06
9.04948e-05
-6.24756e-06
8.00741e-05
-5.4287e-06
7.07959e-05
-4.64087e-06
6.25347e-05
-3.90353e-06
5.5147e-05
-3.99098e-06
4.87331e-05
-3.21744e-06
4.30088e-05
-2.53067e-06
3.78646e-05
-1.93208e-06
3.32064e-05
-1.41699e-06
2.90444e-05
-9.77657e-07
2.52672e-05
-6.1024e-07
2.18235e-05
-3.16164e-07
1.83142e-05
-1.10306e-07
1.37836e-05
1.74086e-05
-3.53695e-07
2.78211e-05
-2.16116e-07
2.85613e-05
-1.14646e-07
2.9319e-05
-4.50521e-08
3.00934e-05
-5.59801e-09
3.089e-05
5.94082e-09
-5.24607e-07
1.93659e-05
-7.38246e-07
2.15456e-05
-1.00236e-06
2.39654e-05
-1.32473e-06
2.6655e-05
-1.71333e-06
2.96492e-05
-2.17413e-06
3.29822e-05
-2.71166e-06
3.66926e-05
-3.32609e-06
4.08371e-05
-4.0144e-06
4.54744e-05
-4.76601e-06
5.06825e-05
-5.56074e-06
5.65536e-05
-6.36901e-06
6.32064e-05
-7.14707e-06
7.07852e-05
-7.83755e-06
7.82057e-05
-8.37488e-06
7.90854e-05
-8.73526e-06
8.01229e-05
-8.88966e-06
8.13045e-05
-8.82198e-06
8.25989e-05
-8.53011e-06
8.39796e-05
-8.0249e-06
8.54073e-05
-7.32906e-06
9.15763e-05
-6.41582e-06
8.10612e-05
-5.52567e-06
7.16807e-05
-4.68592e-06
6.33171e-05
-4.83704e-06
5.59931e-05
-3.94677e-06
4.94624e-05
-3.15396e-06
4.36321e-05
-2.46181e-06
3.83943e-05
-1.86677e-06
3.36561e-05
-1.36101e-06
2.94277e-05
-9.34649e-07
2.55916e-05
-5.81866e-07
2.20893e-05
-3.01748e-07
1.85056e-05
-1.06228e-07
1.38898e-05
1.74072e-05
-5.23164e-07
2.78154e-05
-3.47984e-07
2.85599e-05
-2.14656e-07
2.93205e-05
-1.16148e-07
3.00964e-05
-4.80877e-08
3.08931e-05
-8.63877e-09
3.17099e-05
4.02651e-09
-7.34332e-07
1.9362e-05
-9.95137e-07
2.15384e-05
-1.31337e-06
2.3954e-05
-1.69717e-06
2.66388e-05
-2.15291e-06
2.9628e-05
-2.68594e-06
3.29565e-05
-3.29779e-06
3.66643e-05
-3.98764e-06
4.08103e-05
-4.74818e-06
4.54566e-05
-5.56383e-06
5.06856e-05
-6.41104e-06
5.65956e-05
-7.25344e-06
6.33127e-05
-8.04187e-06
7.09895e-05
-8.71265e-06
7.85435e-05
-9.19893e-06
7.95491e-05
-9.48165e-06
8.07149e-05
-9.53805e-06
8.20206e-05
-9.3597e-06
8.34284e-05
-8.95236e-06
8.49071e-05
-8.33532e-06
8.64136e-05
-7.53867e-06
9.26992e-05
-6.53873e-06
8.20743e-05
-5.58472e-06
7.25795e-05
-5.81096e-06
6.4291e-05
-4.78597e-06
5.68323e-05
-3.86982e-06
5.01783e-05
-3.0681e-06
4.42384e-05
-2.37815e-06
3.89057e-05
-1.79231e-06
3.40875e-05
-1.29983e-06
2.97929e-05
-8.88937e-07
2.58987e-05
-5.52025e-07
2.23395e-05
-2.86367e-07
1.86858e-05
-1.01486e-07
1.39913e-05
1.74032e-05
-7.3034e-07
2.78033e-05
-5.11043e-07
2.85536e-05
-3.41722e-07
2.93186e-05
-2.12789e-07
3.00976e-05
-1.17316e-07
3.08959e-05
-5.08674e-08
3.17128e-05
-1.14919e-08
3.25538e-05
2.23515e-09
-9.87884e-07
1.93547e-05
-1.30195e-06
2.1527e-05
-1.68075e-06
2.39376e-05
-2.1309e-06
2.66168e-05
-2.6583e-06
2.96004e-05
-3.26551e-06
3.29242e-05
-3.95342e-06
3.66301e-05
-4.71728e-06
4.07794e-05
-5.5453e-06
4.54381e-05
-6.41901e-06
5.06935e-05
-7.30853e-06
5.66507e-05
-8.17231e-06
6.34432e-05
-8.95462e-06
7.12315e-05
-9.58878e-06
7.89333e-05
-1.00055e-05
8.0073e-05
-1.01945e-05
8.13713e-05
-1.01404e-05
8.28013e-05
-9.8427e-06
8.43188e-05
-9.31626e-06
8.5888e-05
-8.58862e-06
8.74635e-05
-7.69561e-06
9.3856e-05
-6.61671e-06
8.31062e-05
-6.93244e-06
7.3701e-05
-5.75396e-06
6.5259e-05
-4.6948e-06
5.76572e-05
-3.76521e-06
5.08754e-05
-2.96386e-06
4.48241e-05
-2.283e-06
3.93964e-05
-1.71119e-06
3.44988e-05
-1.2352e-06
3.01392e-05
-8.41616e-07
2.61882e-05
-5.21413e-07
2.25746e-05
-2.70473e-07
1.88548e-05
-9.63154e-08
1.40876e-05
1.73961e-05
-9.80759e-07
2.77828e-05
-7.09851e-07
2.85407e-05
-4.98168e-07
2.93117e-05
-3.34822e-07
3.00952e-05
-2.10454e-07
3.08967e-05
-1.18148e-07
3.17153e-05
-5.3387e-08
3.25565e-05
-1.41549e-08
3.34197e-05
5.77469e-10
-1.29073e-06
1.93435e-05
-1.66447e-06
2.15107e-05
-2.10875e-06
2.39154e-05
-2.62983e-06
2.65883e-05
-3.23102e-06
2.95659e-05
-3.91446e-06
3.28853e-05
-4.67747e-06
3.65903e-05
-5.51128e-06
4.07454e-05
-6.40166e-06
4.54207e-05
-7.32431e-06
5.07093e-05
-8.24448e-06
5.67229e-05
-9.11408e-06
6.36026e-05
-9.87389e-06
7.15166e-05
-1.04526e-05
7.93804e-05
-1.07821e-05
8.06606e-05
-1.08629e-05
8.20938e-05
-1.06873e-05
8.36458e-05
-1.02644e-05
8.52669e-05
-9.61822e-06
8.69176e-05
-8.783e-06
8.85509e-05
-7.79995e-06
9.50393e-05
-8.22427e-06
8.43981e-05
-6.87145e-06
7.48185e-05
-5.64816e-06
6.62123e-05
-4.56974e-06
5.84618e-05
-3.63799e-06
5.15495e-05
-2.8454e-06
4.53865e-05
-2.17952e-06
3.98647e-05
-1.62571e-06
3.48893e-05
-1.16864e-06
3.04662e-05
-7.93653e-07
2.64605e-05
-4.90656e-07
2.27948e-05
-2.54408e-07
1.90129e-05
-9.09214e-08
1.41785e-05
1.73852e-05
-1.27987e-06
2.77517e-05
-9.49589e-07
2.85193e-05
-6.88457e-07
2.92981e-05
-4.846e-07
3.00878e-05
-3.27411e-07
3.08939e-05
-2.07692e-07
3.17158e-05
-1.18633e-07
3.25587e-05
-5.56375e-08
3.34221e-05
-1.66341e-08
3.43055e-05
-9.39073e-10
-1.64863e-06
1.93277e-05
-2.08696e-06
2.14889e-05
-2.60135e-06
2.38869e-05
-3.19562e-06
2.6553e-05
-3.87287e-06
2.95243e-05
-4.63198e-06
3.28398e-05
-5.46662e-06
3.65456e-05
-6.36602e-06
4.07097e-05
-7.3106e-06
4.5407e-05
-8.27158e-06
5.07364e-05
-9.20787e-06
5.68167e-05
-1.00677e-05
6.37964e-05
-1.07864e-05
7.18504e-05
-1.12913e-05
7.98896e-05
-1.15172e-05
8.13149e-05
-1.14764e-05
8.28829e-05
-1.11711e-05
8.45526e-05
-1.06203e-05
8.6269e-05
-9.8556e-06
8.79902e-05
-8.91798e-06
8.96689e-05
-9.71243e-06
9.65274e-05
-8.16329e-06
8.56899e-05
-6.75146e-06
7.59218e-05
-5.50106e-06
6.71437e-05
-4.41698e-06
5.92408e-05
-3.4933e-06
5.21974e-05
-2.71667e-06
4.59237e-05
-2.07065e-06
4.03097e-05
-1.53787e-06
3.52586e-05
-1.10146e-06
3.0774e-05
-7.45903e-07
2.67157e-05
-4.60199e-07
2.30005e-05
-2.38478e-07
1.91604e-05
-8.54565e-08
1.4264e-05
1.737e-05
-1.63343e-06
2.77075e-05
-1.2357e-06
2.84871e-05
-9.17307e-07
2.92758e-05
-6.66087e-07
3.00735e-05
-4.70249e-07
3.08859e-05
-3.194e-07
3.17126e-05
-2.04479e-07
3.25589e-05
-1.18794e-07
3.34241e-05
-5.76385e-08
3.43078e-05
-1.89319e-08
3.52194e-05
-2.31457e-09
-2.06587e-06
1.93066e-05
-2.57343e-06
2.1461e-05
-3.16029e-06
2.38516e-05
-3.8302e-06
2.65103e-05
-4.58327e-06
2.94756e-05
-5.41508e-06
3.27882e-05
-6.31765e-06
3.64973e-05
-7.27536e-06
4.06745e-05
-8.26455e-06
4.54e-05
-9.2504e-06
5.07789e-05
-1.01882e-05
5.69371e-05
-1.10201e-05
6.40302e-05
-1.16792e-05
7.22383e-05
-1.20928e-05
8.04652e-05
-1.21996e-05
8.20381e-05
-1.20266e-05
8.37384e-05
-1.15864e-05
8.55187e-05
-1.09068e-05
8.73202e-05
-1.00273e-05
8.90996e-05
-1.11266e-05
9.10831e-05
-9.65913e-06
9.80233e-05
-8.03143e-06
8.69699e-05
-6.58141e-06
7.70022e-05
-5.3202e-06
6.80469e-05
-4.24285e-06
5.99903e-05
-3.33599e-06
5.28168e-05
-2.58128e-06
4.64343e-05
-1.95887e-06
4.07307e-05
-1.44937e-06
3.56065e-05
-1.03481e-06
3.10629e-05
-6.98949e-07
2.69545e-05
-4.30456e-07
2.31925e-05
-2.22912e-07
1.92979e-05
-8.003e-08
1.4344e-05
1.73498e-05
-2.04571e-06
2.76473e-05
-1.57327e-06
2.84415e-05
-1.19017e-06
2.92424e-05
-8.83972e-07
3.00502e-05
-6.42822e-07
3.08709e-05
-4.55198e-07
3.1704e-05
-3.10839e-07
3.25552e-05
-2.00828e-07
3.3424e-05
-1.18608e-07
3.43096e-05
-5.93794e-08
3.52215e-05
-2.1052e-08
3.61552e-05
-3.55511e-09
-2.54648e-06
1.92796e-05
-3.1257e-06
2.14264e-05
-3.78761e-06
2.3809e-05
-4.53321e-06
2.64602e-05
-5.35955e-06
2.942e-05
-6.26094e-06
3.27315e-05
-7.22496e-06
3.64469e-05
-8.23232e-06
4.06423e-05
-9.25369e-06
4.54032e-05
-1.02508e-05
5.08415e-05
-1.11726e-05
5.70897e-05
-1.19585e-05
6.43095e-05
-1.254e-05
7.26855e-05
-1.28452e-05
8.11108e-05
-1.28197e-05
8.28313e-05
-1.25068e-05
8.46588e-05
-1.19287e-05
8.65406e-05
-1.11222e-05
8.84151e-05
-1.25392e-05
9.05121e-05
-1.10894e-05
9.25134e-05
-9.52074e-06
9.95126e-05
-7.83913e-06
8.82276e-05
-6.37033e-06
7.80523e-05
-5.11318e-06
6.89172e-05
-4.05317e-06
6.07075e-05
-3.17046e-06
5.34059e-05
-2.44232e-06
4.69178e-05
-1.84632e-06
4.11276e-05
-1.36166e-06
3.59333e-05
-9.69433e-07
3.13334e-05
-6.53342e-07
2.71774e-05
-4.01724e-07
2.33713e-05
-2.07859e-07
1.94257e-05
-7.47286e-08
1.44187e-05
1.73241e-05
-2.52078e-06
2.75681e-05
-1.9665e-06
2.83796e-05
-1.51135e-06
2.91953e-05
-1.14304e-06
3.00156e-05
-8.49367e-07
3.08467e-05
-6.18639e-07
3.16883e-05
-4.39475e-07
3.25461e-05
-3.01729e-07
3.34199e-05
-1.96737e-07
3.4309e-05
-1.18097e-07
3.5223e-05
-6.08706e-08
3.61572e-05
-2.29954e-08
3.65891e-05
-4.65648e-09
-3.09237e-06
1.92463e-05
-3.74593e-06
2.13847e-05
-4.48316e-06
2.3759e-05
-5.30224e-06
2.64029e-05
-6.19924e-06
2.93584e-05
-7.16441e-06
3.2671e-05
-8.18208e-06
3.63966e-05
-9.22767e-06
4.06163e-05
-1.02686e-05
4.54211e-05
-1.12604e-05
5.09293e-05
-1.21488e-05
5.72799e-05
-1.28705e-05
6.464e-05
-1.33564e-05
7.31967e-05
-1.35382e-05
8.18292e-05
-1.33701e-05
8.36946e-05
-1.29116e-05
8.56417e-05
-1.21953e-05
8.76137e-05
-1.39442e-05
8.98201e-05
-1.25284e-05
9.1951e-05
-1.09534e-05
9.39461e-05
-9.30918e-06
0.000100983
-7.59686e-06
8.94541e-05
-6.12728e-06
7.90664e-05
-4.88704e-06
6.97511e-05
-3.85331e-06
6.13903e-05
-3.00047e-06
5.39641e-05
-2.3024e-06
4.73738e-05
-1.73484e-06
4.15008e-05
-1.27572e-06
3.62396e-05
-9.06062e-07
3.15861e-05
-6.09461e-07
2.73851e-05
-3.74177e-07
2.35377e-05
-1.93438e-07
1.95444e-05
-6.96173e-08
1.44884e-05
1.72924e-05
-3.0606e-06
2.74665e-05
-2.41919e-06
2.82987e-05
-1.88555e-06
2.91318e-05
-1.44787e-06
2.99672e-05
-1.09465e-06
3.08111e-05
-8.13796e-07
3.16632e-05
-5.93586e-07
3.25297e-05
-4.2303e-07
3.34102e-05
-2.92083e-07
3.43045e-05
-1.92232e-07
3.52222e-05
-1.17262e-07
3.61584e-05
-6.21104e-08
3.65908e-05
-2.47358e-08
3.55529e-05
-5.59611e-09
-3.70575e-06
1.92061e-05
-4.43412e-06
2.13357e-05
-5.24476e-06
2.37015e-05
-6.13514e-06
2.63388e-05
-7.09762e-06
2.92916e-05
-8.11955e-06
3.26084e-05
-9.18037e-06
3.63493e-05
-1.02526e-05
4.06002e-05
-1.12976e-05
4.54582e-05
-1.22673e-05
5.10478e-05
-1.31042e-05
5.75136e-05
-1.37434e-05
6.5027e-05
-1.41174e-05
7.37759e-05
-1.41633e-05
8.26224e-05
-1.38442e-05
8.46271e-05
-1.32374e-05
8.66839e-05
-1.5334e-05
8.90035e-05
-1.3972e-05
9.12637e-05
-1.24049e-05
9.34025e-05
-1.07315e-05
9.53684e-05
-9.03651e-06
0.000102422
-7.3152e-06
9.0642e-05
-5.86068e-06
8.00401e-05
-4.64827e-06
7.0546e-05
-3.64786e-06
6.20377e-05
-2.82924e-06
5.44909e-05
-2.1638e-06
4.78028e-05
-1.62562e-06
4.18507e-05
-1.19247e-06
3.6526e-05
-8.45185e-07
3.18218e-05
-5.67522e-07
2.75785e-05
-3.47959e-07
2.36922e-05
-1.79737e-07
1.96545e-05
-6.47365e-08
1.45531e-05
1.72541e-05
-3.66746e-06
2.73399e-05
-2.93397e-06
2.81951e-05
-2.31569e-06
2.90487e-05
-1.80241e-06
2.99022e-05
-1.38281e-06
3.07614e-05
-1.04494e-06
3.16266e-05
-7.77161e-07
3.25039e-05
-5.67796e-07
3.33932e-05
-4.06015e-07
3.42944e-05
-2.81948e-07
3.52172e-05
-1.87327e-07
3.61573e-05
-1.16105e-07
3.65918e-05
-6.31077e-08
3.55544e-05
-2.62283e-08
3.45448e-05
-6.40006e-09
-4.38679e-06
1.91588e-05