/*--------------------------------*- C++ -*----------------------------------*\
  =========                 |
  \\      /  F ield         | OpenFOAM: The Open Source CFD Toolbox
   \\    /   O peration     | Website:  https://openfoam.org
    \\  /    A nd           | Version:  8
     \\/     M anipulation  |
\*---------------------------------------------------------------------------*/
FoamFile
{
    version     2.0;
    format      ascii;
    class       volScalarField;
    location    "0.5";
    object      p;
}
// * * * * * * * * * * * * * * * * * * * * * * * * * * * * * * * * * * * * * //

dimensions      [0 2 -2 0 0 0 0];

internalField   nonuniform List<scalar> 
15677
(
66.0825
65.6767
65.3333
65.831
65.3319
65.2467
65.7507
65.351
65.2563
65.1492
65.7312
65.3511
65.2567
65.1578
65.0113
65.7131
65.3543
65.2572
65.1571
65.0188
64.8593
65.6903
65.3574
65.2574
65.1576
65.0188
64.866
64.6855
65.6657
65.3594
65.2572
65.1578
65.0196
64.8661
64.6913
64.4789
65.6403
65.3608
65.2567
65.1576
65.0203
64.8669
64.6915
64.484
64.2329
65.6138
65.3623
65.2559
65.1572
65.0209
64.8677
64.6923
64.4843
64.2373
63.9407
65.5864
65.3643
65.2551
65.1567
65.0215
64.8686
64.6933
64.4854
64.2378
63.9444
63.5946
65.5585
65.3662
65.2545
65.1564
65.0224
64.8696
64.6944
64.4865
64.239
63.945
63.5975
63.1865
65.5306
65.3676
65.2544
65.1565
65.0237
64.871
64.6958
64.488
64.2405
63.9465
63.5984
63.1887
62.7083
65.5035
65.3685
65.2552
65.1574
65.0259
64.8732
64.6979
64.49
64.2425
63.9484
63.6002
63.1897
62.7097
62.1524
65.4801
65.3686
65.257
65.1592
65.0293
64.8766
64.701
64.493
64.2452
63.951
63.6026
63.1919
62.7107
62.1527
61.5108
65.4612
65.3683
65.2602
65.1623
65.0343
64.8817
64.7057
64.4974
64.2492
63.9546
63.6059
63.1948
62.7136
62.1543
61.5102
60.777
65.4458
65.3685
65.2649
65.1673
65.0415
64.8891
64.7127
64.5039
64.2552
63.96
63.6106
63.1991
62.7172
62.1572
61.512
60.7753
59.9449
65.4337
65.3691
65.2704
65.1739
65.0513
64.8997
64.7229
64.5135
64.264
63.9678
63.6176
63.2052
62.7225
62.1617
61.5155
60.7772
59.9419
59.0098
65.4248
65.3702
65.2767
65.1818
65.0632
64.9141
64.7372
64.5273
64.2768
63.9794
63.6278
63.2141
62.7302
62.1683
61.5209
60.7813
59.9441
59.0053
57.9681
65.4186
65.3718
65.2837
65.1908
65.0764
64.9318
64.7569
64.5466
64.2951
63.9962
63.6427
63.2271
62.7415
62.1779
61.5289
60.7878
59.9488
59.0078
57.9621
56.8182
65.4147
65.3738
65.2914
65.2011
65.091
64.9511
64.7811
64.5731
64.3208
64.0201
63.6644
63.2462
62.7579
62.1918
61.5406
60.7974
59.9564
59.0131
57.9648
56.8105
55.5602
65.4126
65.3768
65.2997
65.2126
65.1069
64.9724
64.8074
64.6054
64.3558
64.0535
63.6952
63.2737
62.7818
62.2121
61.5576
60.8114
59.9677
59.0218
57.9707
56.8135
55.5507
54.1964
65.4123
65.3805
65.3086
65.2251
65.1242
64.9954
64.8365
64.6407
64.3985
64.0992
63.7381
63.3128
62.8162
62.2416
61.5823
60.8318
59.9843
59.035
57.9806
56.82
55.5539
54.185
52.7312
65.4131
65.3846
65.3176
65.2386
65.1426
65.0201
64.868
64.6796
64.4453
64.1549
63.7969
63.3673
62.8652
62.2842
61.6183
60.8614
60.0083
59.0542
57.9956
56.831
55.5608
54.1882
52.7178
51.176
65.4145
65.3887
65.3262
65.2524
65.1622
65.0463
64.9016
64.7218
64.4967
64.2159
63.8685
63.4418
62.9334
62.3446
61.6701
60.9045
60.0433
59.082
58.0175
56.8478
55.5729
54.1955
52.7209
51.159
49.5576
65.4162
65.3929
65.3343
65.2655
65.1818
65.0738
64.9373
64.7668
64.5524
64.2829
63.947
63.5328
63.0267
62.4288
61.7435
60.9666
60.0941
59.1226
58.0493
56.8723
55.5913
54.2084
52.7281
51.1599
49.5017
47.8207
65.4183
65.397
65.3418
65.2777
65.2002
65.1011
64.9746
64.8144
64.6118
64.3555
64.0333
63.6324
63.1407
62.5441
61.8461
61.0548
60.1675
59.1818
58.0957
56.9079
55.6182
54.228
52.7412
51.1659
49.508
47.7569
45.9501
65.4204
65.4009
65.3488
65.289
65.2173
65.1266
65.0116
64.8641
64.6745
64.4329
64.1267
63.7422
63.2657
62.6851
61.9867
61.1779
60.2718
59.2672
58.1634
56.96
55.6573
54.2568
52.7614
51.1777
49.5111
47.7619
45.9277
44.0128
65.4226
65.4045
65.3552
65.2993
65.2329
65.15
65.0461
64.9134
64.74
64.5146
64.2264
63.861
63.4035
62.8399
62.1588
61.3471
60.4176
59.3887
58.2612
57.0362
55.7147
54.2988
52.7913
51.1969
49.52
47.7581
45.9176
44.0058
42.0251
65.4248
65.408
65.3611
65.3087
65.2471
65.1713
65.0777
64.9593
64.8049
64.5999
64.3316
63.9878
63.5527
63.0107
62.3481
61.5545
60.6184
59.5591
58.4009
57.1467
55.7991
54.3609
52.8352
51.2262
49.537
47.7652
45.9104
43.9906
42.0212
39.991
65.4269
65.4111
65.3665
65.3173
65.2601
65.1907
65.1064
65.0012
64.8651
64.6844
64.4414
64.1216
63.7121
63.1959
62.5571
61.7829
60.865
59.7942
58.5973
57.305
55.922
54.4526
52.9008
51.2705
49.5646
47.7814
45.9188
43.9843
42.0047
39.9913
37.7088
65.4289
65.414
65.3715
65.3251
65.2718
65.2083
65.1324
65.0392
64.9201
64.7626
64.55
64.2613
63.8804
63.3939
62.7841
62.0356
61.1371
60.0837
58.8689
57.5281
56.0987
54.5871
52.9986
51.3379
49.6079
47.8079
45.9355
43.994
41.9997
39.9766
37.71
35.1536
65.4308
65.4167
65.376
65.3322
65.2824
65.2241
65.1559
65.0737
64.97
64.834
64.6507
64.3995
64.0562
63.6031
63.0271
62.3104
61.4389
60.4039
59.2044
57.8378
56.3488
54.7815
53.1433
51.4402
49.6759
47.8505
45.962
44.0115
42.0093
39.9725
37.697
35.1547
32.5949
65.4326
65.4192
65.3801
65.3385
65.2919
65.2384
65.1771
65.1047
65.015
64.8988
64.7424
64.5276
64.2301
63.8218
63.2841
62.6051
61.7676
60.7597
59.5764
58.2215
56.6972
55.0579
53.3539
51.5932
49.781
47.9186
46.0045
44.0386
42.027
39.9805
37.6925
35.1428
32.5965
30.0623
65.4342
65.4215
65.3838
65.3443
65.3005
65.2512
65.1961
65.1326
65.0556
64.9572
64.8256
64.6444
64.3914
64.0383
63.5532
62.9173
62.1208
61.1482
59.9908
58.6483
57.1305
55.4446
53.6552
51.8182
49.9406
48.0258
46.073
44.0814
42.0542
39.9972
37.698
35.1374
32.5861
30.0636
27.5792
65.4235
65.4363
65.3871
65.3495
65.3082
65.2627
65.2131
65.1576
65.092
65.0097
64.9006
64.7502
64.5385
64.2393
63.8199
63.2446
62.4957
61.5666
60.4446
59.1252
57.6142
55.928
54.0792
52.1424
50.1778
48.1906
46.1818
44.1501
42.0964
40.0231
37.7125
35.14
32.5799
30.0539
27.5798
25.1607
65.3901
65.4262
65.4389
65.3541
65.3152
65.2731
65.2284
65.18
65.1247
65.0568
64.968
64.8455
64.6717
64.4226
64.0676
63.5695
62.8894
62.0116
60.9343
59.6488
58.1564
56.4695
54.6117
52.6013
50.5223
48.4378
46.3505
44.2595
42.1639
40.063
37.7354
35.1508
32.5795
30.0464
27.5703
25.1605
22.8181
65.3582
65.3942
65.4296
65.4418
65.3214
65.2824
65.2421
65.2001
65.1539
65.099
65.0284
64.9312
64.7918
64.5886
64.2937
63.8717
63.2811
62.4801
61.4567
60.2157
58.7537
57.0787
55.2107
53.1808
51.0132
48.7998
46.6055
44.4303
42.272
40.1273
37.771
35.1685
32.5858
30.0424
27.5609
25.1509
22.817
20.561
65.3269
65.3638
65.3992
65.4331
65.4448
65.2906
65.2544
65.2181
65.18
65.1368
65.0825
65.008
64.8997
64.7384
64.4988
64.1479
63.646
62.9472
62.0081
60.8222
59.4024
57.7521
55.8872
53.8357
51.6365
49.3186
46.9814
44.6902
42.4422
40.2316
37.8296
35.197
32.5971
30.0435
27.553
25.1394
22.8072
20.559
18.3972
65.298
65.3343
65.3706
65.4044
65.4368
65.448
65.2653
65.2342
65.2034
65.1705
65.1309
65.0767
64.9964
64.873
64.6838
64.3986
63.9799
63.3833
62.5595
61.4642
60.0987
58.4862
56.6379
54.5784
52.3442
49.9813
47.5235
45.0758
42.7033
40.3979
37.9268
35.2461
32.6165
30.0472
27.548
25.1271
22.7933
20.5488
18.3943
16.332
65.275
65.3078
65.3433
65.3776
65.4098
65.4406
65.4514
65.2485
65.2243
65.2007
65.1741
65.1381
65.0829
64.9937
64.8501
64.625
64.2835
63.7832
63.0755
62.1083
60.8384
59.2769
57.4593
55.4059
53.1503
50.7374
48.22
45.6355
43.0937
40.656
38.0851
35.3314
32.6534
30.0559
27.5428
25.1154
22.7764
20.5324
18.3835
16.3283
14.3687
65.2611
65.2878
65.3195
65.3525
65.3847
65.4153
65.4446
65.4549
65.2429
65.2277
65.2127
65.193
65.1601
65.1016
64.9993
64.8287
64.558
64.1473
63.5497
62.7127
61.5829
60.1201
58.3477
56.315
54.0522
51.6024
49.0185
46.359
43.6644
41.0456
38.3348
35.4755
32.7231
30.0782
27.5392
25.1005
22.7576
20.5108
18.3645
16.317
14.3643
12.5088
65.2592
65.2777
65.3029
65.3315
65.3618
65.392
65.4209
65.4488
65.4587
65.2516
65.2472
65.2419
65.2291
65.198
65.1327
65.0114
64.8052
64.477
63.9823
63.2696
62.2839
60.9722
59.2989
57.3023
55.0474
52.5745
49.9361
47.1924
44.4067
41.6199
38.7173
35.7093
32.8479
30.129
27.5449
25.0833
22.7323
20.4846
18.3383
16.2953
14.3523
12.5036
10.7523
65.2725
65.2805
65.2967
65.3181
65.3435
65.3712
65.3993
65.4266
65.4531
65.4626
65.2777
65.2857
65.2907
65.284
65.2519
65.175
65.0271
64.7743
64.3747
63.7788
62.9317
61.7772
60.264
58.3642
56.133
53.6521
50.9723
48.1548
45.2661
42.3716
39.2868
36.0747
33.0591
30.2303
27.574
25.0706
22.7006
20.4486
18.3046
16.2644
14.328
12.4911
10.7464
9.09772
65.3043
65.2997
65.3044
65.3159
65.3334
65.3555
65.3807
65.4068
65.4325
65.4575
65.4668
65.3244
65.3458
65.3609
65.3584
65.3212
65.2259
65.0415
64.729
64.2416
63.5256
62.5236
61.1795
59.4465
57.3062
54.8333
52.1265
49.247
46.2638
43.2471
40.0384
36.6261
33.3981
30.4129
27.6481
25.0758
22.6682
20.4018
18.2576
16.2233
14.2925
12.4641
10.7332
9.09118
7.54292
65.358
65.3388
65.3294
65.3283
65.3351
65.3486
65.3676
65.3903
65.4143
65.4385
65.4622
65.4711
65.3945
65.4295
65.4535
65.4518
65.4037
65.281
65.048
64.6604
64.0667
63.2099
62.0314
60.4775
58.5077
56.116
53.3982
50.4699
47.402
44.2691
40.9199
37.3619
33.9183
30.7167
27.7968
25.1196
22.6478
20.3489
18.1953
16.1652
14.244
12.4241
10.7037
9.0774
7.5358
6.08489
65.4365
65.4014
65.3754
65.359
65.3522
65.3541
65.3638
65.3797
65.3999
65.422
65.4447
65.467
65.4756
65.4903
65.5384
65.5685
65.5626
65.4955
65.3343
65.0379
64.5573
63.8368
62.8172
61.4405
59.6575
57.4366
54.7862
51.8242
48.6835
45.4418
41.9561
38.233
34.6217
31.1931
28.0575
25.2296
22.6589
20.3018
18.1215
16.0873
14.1749
12.3684
10.6594
9.0454
7.52143
6.07724
4.72
65.5426
65.4908
65.4462
65.4118
65.3884
65.3758
65.373
65.3789
65.3918
65.4095
65.4297
65.451
65.4719
65.4802
65.6136
65.6728
65.7047
65.6873
65.5909
65.3773
65.0004
64.4066
63.5371
62.3319
60.7358
58.7063
56.2231
53.3108
50.1105
46.7694
43.1527
39.2653
35.4636
31.8486
28.4791
25.4404
22.7265
20.2785
18.0471
15.9925
14.0816
12.2886
10.5966
8.99696
7.48704
6.0623
4.71189
3.44418
65.678
65.61
65.5453
65.4906
65.4479
65.4174
65.399
65.3917
65.394
65.4039
65.4192
65.4376
65.4573
65.4769
65.4846
65.7649
65.8316
65.8589
65.8205
65.6818
65.3994
64.9223
64.1931
63.1512
61.7378
59.9024
57.6116
54.8584
51.6859
48.2566
44.5163
40.4665
36.4704
32.6433
29.0723
25.7973
22.8816
20.3005
17.9881
15.8906
13.966
12.1801
10.5063
8.92736
7.4347
6.02562
4.6964
3.43564
2.25318
65.8437
65.7612
65.676
65.5993
65.5345
65.4832
65.4458
65.4219
65.4101
65.4088
65.4159
65.4289
65.4454
65.4636
65.4817
65.489
65.9438
66.0123
66.0262
65.9547
65.7579
65.3876
64.7883
63.8999
62.6619
61.0182
58.9256
56.3619
53.336
49.9086
46.0541
41.8462
37.6519
33.603
29.8024
26.3151
23.1657
20.3956
17.9626
15.7952
13.8368
12.0441
10.3831
8.82701
7.3586
5.96961
4.65754
3.41962
2.24426
1.14271
66.0394
65.946
65.8409
65.7412
65.6525
65.5773
65.5176
65.4735
65.4442
65.4283
65.4236
65.4279
65.4386
65.4531
65.4696
65.4864
65.4934
66.1477
66.2102
66.1993
66.0797
65.8064
65.3264
64.581
63.5089
62.051
60.1566
57.7919
54.9483
51.6497
47.7743
43.4148
39.0205
34.7397
30.694
26.9645
23.5964
20.6002
17.9943
15.7209
13.7047
11.8879
10.2273
8.68963
7.2486
5.88732
4.5981
3.37871
2.22773
1.13342
0.108285
66.2629
66.1645
66.0417
65.9194
65.8054
65.704
65.6187
65.5509
65.5005
65.4661
65.4461
65.4381
65.4397
65.4479
65.4604
65.4755
65.491
65.4976
66.3724
66.4183
66.3685
66.1827
65.8117
65.1982
64.2815
63.0007
61.3003
59.1373
56.4893
53.3607
49.6007
45.1845
40.59
36.0679
31.7601
27.7672
24.1498
20.9334
18.114
15.6871
13.581
11.7196
10.0449
8.51489
7.09768
5.76816
4.50994
3.31606
2.18487
1.11636
0.0985194
-0.854572
66.5101
66.4152
66.2792
66.1361
65.9964
65.8672
65.7536
65.6586
65.5831
65.5266
65.4874
65.4635
65.4523
65.4509
65.4567
65.4674
65.4811
65.4955
65.5018
66.6112
66.6273
66.5211
66.2486
65.7559
64.9835
63.8696
62.3557
60.3922
57.9458
55.0047
51.4084
47.0805
42.3756
37.6033
33.0157
28.7359
24.8436
21.3773
18.3414
15.718
13.4805
11.5465
9.84082
8.30704
6.90479
5.60437
4.38211
3.22237
2.11927
1.0717
0.0808802
-0.865298
-1.74911
66.7745
66.6948
66.5524
66.3922
66.2283
66.0703
65.9263
65.801
65.6969
65.6142
65.5519
65.5081
65.4804
65.4657
65.4615
65.465
65.4741
65.4865
65.4999
65.5059
66.8547
66.8247
66.6421
66.2591
65.6192
64.661
63.3241
61.5542
59.3096
56.5659
53.1567
48.9716
44.3026
39.3609
34.4757
29.8844
25.6887
21.9439
18.6642
15.8329
13.4201
11.379
9.61896
8.0681
6.67243
5.39423
4.20619
3.08641
2.0204
1.00341
0.0345821
-0.883362
-1.76309
-2.48456
67.0469
66.9976
66.8586
66.6877
66.5025
66.3164
66.1406
65.9825
65.8462
65.7334
65.6439
65.5762
65.5279
65.4962
65.4783
65.4714
65.4729
65.4804
65.4918
65.5042
65.5099
67.0909
66.9955
66.7132
66.194
65.3795
64.2087
62.6238
60.577
58.0343
54.8259
50.81
46.2335
41.2676
36.1556
31.2274
26.6976
22.6419
19.0881
16.0255
13.4178
11.2257
9.38495
7.79852
6.39982
5.13841
3.97971
2.89907
1.87683
0.899705
-0.0361021
-0.930974
-1.78059
-2.49182
-3.10221
67.3153
67.3155
67.1931
67.0204
66.8193
66.6073
66.3996
66.2069
66.0356
65.889
65.7681
65.6722
65.5993
65.5464
65.5108
65.4899
65.4807
65.4804
65.4865
65.4968
65.5084
65.5138
67.3045
67.1214
66.7139
66.0305
65.0136
63.6034
61.7475
59.404
56.4015
52.5696
48.1155
43.1881
37.9931
32.7858
27.8882
23.4845
19.6206
16.2952
13.4741
11.1038
9.13865
7.49902
6.08392
4.83346
3.70154
2.65719
1.67881
0.749053
-0.144287
-1.00371
-1.82929
-2.50475
-3.10097
-3.75158
67.5644
67.6375
67.5487
67.3866
67.1775
66.9439
66.7057
66.4777
66.2691
66.0855
65.9292
65.8008
65.6988
65.6205
65.5632
65.5242
65.5007
65.4895
65.4875
65.4923
65.5017
65.5125
65.5176
67.4771
67.1818
66.621
65.7448
64.497
62.8227
60.6727
57.8744
54.2326
49.9231
45.076
39.8689
34.5195
29.2925
24.4958
20.2769
16.649
13.582
11.0204
8.89648
7.16062
5.72049
4.47289
3.36571
2.35784
1.42245
0.541055
-0.301504
-1.11603
-1.90367
-2.55435
-3.11253
-3.75325
-4.44868
67.7756
67.9496
67.9154
67.7799
67.5739
67.3255
67.0603
66.7976
66.5504
66.327
66.1318
65.9667
65.8311
65.7229
65.6396
65.5785
65.5366
65.5107
65.4977
65.4942
65.4978
65.5064
65.5164
65.5218
67.5876
67.1528
66.4097
65.3108
63.8058
61.8407
59.2402
55.7896
51.6421
46.9137
41.7494
36.3325
30.8978
25.7209
21.0883
17.1044
13.7485
10.9626
8.67258
6.79944
5.2919
4.04758
2.96233
1.99261
1.10309
0.271119
-0.518806
-1.27932
-2.01984
-2.62961
-3.16198
-3.76834
-4.45561
-5.20635
67.9272
68.2348
68.2804
68.1918
68.0035
67.75
67.4633
67.1683
66.8825
66.6174
66.3803
66.1746
66.001
65.8583
65.7444
65.6568
65.5924
65.5479
65.52
65.5054
65.5005
65.5031
65.511
65.5207
65.5264
67.6117
67.0092
66.0531
64.7033
62.9105
60.4982
57.2373
53.2662
48.6904
43.6209
38.1997
32.6308
27.1738
22.1117
17.6992
13.9926
10.9369
8.44815
6.43633
4.81432
3.53149
2.4775
1.54845
0.709993
-0.0670821
-0.801438
-1.5053
-2.18873
-2.74899
-3.23832
-3.81826
-4.47506
-5.216
-6.02827
67.9939
68.4726
68.6278
68.6106
68.4586
68.2129
67.9131
67.5904
67.2674
66.9601
66.6785
66.4288
66.2132
66.0314
65.8821
65.7634
65.6722
65.605
65.5584
65.5287
65.5126
65.5065
65.5082
65.5158
65.5254
65.531
67.5227
66.7228
65.5243
63.8889
61.6512
58.5764
54.7925
50.3968
45.4673
40.1033
34.4691
28.8019
23.385
18.4997
14.3576
10.9633
8.22862
6.04656
4.31491
2.94123
1.87724
1.00671
0.22715
-0.486486
-1.15736
-1.79979
-2.4228
-2.92237
-3.36034
-3.89629
-4.52649
-5.23773
-6.03893
-6.9162
67.9481
68.6399
68.9385
69.022
68.9291
68.708
68.4063
68.0628
67.7063
67.3573
67.03
66.7334
66.472
66.2467
66.0575
65.9028
65.7802
65.686
65.6165
65.5679
65.5367
65.5193
65.5122
65.5135
65.5211
65.5302
65.5357
67.2914
66.2652
64.7865
62.7075
59.8101
56.2194
52.0236
47.2695
42.0171
36.388
30.5836
24.8759
19.5641
14.9154
11.0884
8.03412
5.63431
3.7631
2.30966
1.17878
0.326054
-0.368714
-1.00588
-1.60151
-2.17234
-2.72834
-3.16302
-3.53756
-4.02125
-4.60703
-5.2908
-6.06148
-6.92742
-7.87362
67.7584
68.7107
69.1903
69.4084
69.402
69.2262
68.9377
68.5832
68.1987
67.8106
67.4375
67.0921
66.7815
66.5088
66.275
66.0797
65.9208
65.7949
65.6983
65.6269
65.5767
65.5441
65.5257
65.5183
65.5194
65.5264
65.5349
65.5404
66.8862
65.5966
63.6793
60.9475
57.5468
53.5617
49.0084
43.9114
38.3522
32.489
26.5643
20.8803
15.7406
11.3858
7.91208
5.21857
3.16143
1.60062
0.420124
-0.475617
-1.12569
-1.65296
-2.15531
-2.6397
-3.11645
-3.47752
-3.78364
-4.20269
-4.73533
-5.37439
-6.11599
-6.95067
-7.88528
-8.90514
67.3896
68.6571
69.358
69.7491
69.8613
69.756
69.4994
69.1472
68.743
68.3201
67.9027
67.5077
67.1455
66.8216
66.5391
66.2985
66.0985
65.9362
65.8079
65.7093
65.6362
65.5847
65.5511
65.5328
65.5251
65.5252
65.5316
65.5397
65.545
66.2638
64.5546
62.0023
58.7816
55.0046
50.6665
45.758
40.3232
34.4766
28.4187
22.4327
16.8427
11.943
7.93434
4.84535
2.52665
0.81464
-0.440201
-1.35566
-2.02528
-2.48203
-2.85069
-3.22582
-3.60556
-3.8783
-4.1057
-4.45464
-4.92143
-5.50643
-6.20266
-7.00662
-7.90945
-8.91711
-10.0153
66.7928
68.448
69.4138
70.0205
70.288
70.2832
70.0814
69.7481
69.3355
68.8847
68.4263
67.9823
67.5671
67.1891
66.8539
66.5637
66.3179
66.1143
65.9494
65.8192
65.719
65.6445
65.5921
65.559
65.5406
65.5317
65.5309
65.5368
65.5444
65.5493
65.2592
62.9555
59.9364
56.3553
52.2313
47.5323
42.2654
36.502
30.3956
24.1925
18.2132
12.7917
8.1977
4.58131
1.9011
-0.0348855
-1.40405
-2.36054
-3.0206
-3.47409
-3.7476
-3.96657
-4.22196
-4.38508
-4.51714
-4.78486
-5.17976
-5.69766
-6.33868
-7.0963
-7.96703
-8.94226
-10.0275
-11.2083
68.0406
65.8037
69.3257
70.196
70.66
70.7902
70.6709
70.3771
69.971
69.5019
69.0079
68.5171
68.0485
67.6144
67.2231
66.8791
66.5831
66.3336
66.1274
65.9607
65.8289
65.7273
65.6522
65.601
65.5681
65.5483
65.5381
65.5365
65.542
65.5488
65.5533
63.7059
60.9842
57.625
53.7029
49.2163
44.1474
38.5229
32.4467
26.1178
19.83
13.9333
8.75669
4.52948
1.34364
-0.911101
-2.46228
-3.49483
-4.16277
-4.57834
-4.82666
-4.92709
-5.00521
-5.02608
-5.03879
-5.20786
-5.51884
-5.96294
-6.53552
-7.23648
-8.05978
-9.00155
-10.0536
-11.2206
-12.4877
69.0535
67.2808
64.2626
70.2448
70.9527
71.2568
71.2521
71.0231
70.6419
70.1672
69.6455
69.1119
68.5913
68.1
67.6501
67.2487
66.8982
66.5981
66.3459
66.138
65.9699
65.8369
65.7349
65.6621
65.6116
65.5769
65.5556
65.5444
65.542
65.5466
65.5528
65.5574
61.7961
58.7795
55.0922
50.8071
45.9452
40.5013
34.5249
28.16
21.6569
15.3554
9.62348
4.76665
0.960599
-1.76497
-3.58494
-4.75436
-5.45943
-5.85027
-6.03343
-6.08777
-6.02524
-5.84383
-5.70047
-5.74559
-5.95432
-6.31161
-6.80832
-7.43935
-8.20435
-9.09746
-10.1146
-11.2478
-12.5001
-13.8567
70.1285
68.4655
66.0359
62.3808
71.137
71.66
71.8065
71.6721
71.3383
70.8743
70.3357
69.7657
69.1958
68.6476
68.1375
67.6756
67.2668
66.9119
66.6092
66.3554
66.1462
65.9771
65.844
65.7458
65.6744
65.6217
65.5853
65.5627
65.5505
65.5469
65.5509
65.5569
65.5616
59.6638
56.3583
52.3157
47.6527
42.4066
36.5857
30.2691
23.649
17.0317
10.7979
5.31601
0.849699
-2.48948
-4.73424
-6.11702
-6.91179
-7.3008
-7.4275
-7.3907
-7.26228
-6.91207
-6.54727
-6.42966
-6.50944
-6.7606
-7.16738
-7.72027
-8.41366
-9.2467
-10.2138
-11.3105
-12.5285
-13.869
-15.3176
71.1773
69.733
67.4073
64.4625
60.2881
71.9728
72.3129
72.3071
72.048
71.6147
71.0732
70.4758
69.8614
69.258
68.6871
68.1627
67.6923
67.2785
66.9209
66.6168
66.3619
66.1519
65.9833
65.8558
65.76
65.6861
65.6313
65.5933
65.5696
65.5561
65.5516
65.5552
65.5612
65.5659
57.3198
53.694
49.2806
44.2284
38.5912
32.395
25.7562
18.9251
12.2668
6.19043
1.04406
-2.968
-5.80474
-7.55722
-8.50618
-8.93675
-9.02322
-8.89935
-8.65516
-8.21097
-7.65602
-7.30791
-7.21772
-7.33454
-7.63095
-8.09054
-8.70325
-9.46286
-10.3679
-11.4129
-12.5928
-13.8985
-15.3298
-16.8715
72.1631
70.9795
68.9043
66.0244
62.6693
57.9916
72.7464
72.9088
72.7559
72.3778
71.8509
71.2378
70.586
69.9308
69.2999
68.7119
68.1774
67.7012
67.2846
66.9258
66.6209
66.3654
66.1564
65.9958
65.8723
65.7735
65.697
65.6402
65.6009
65.5761
65.5614
65.5562
65.5597
65.5655
65.5703
54.7325
50.7726
45.9768
40.5254
34.4915
27.9245
20.9897
14.0051
7.39192
1.56895
-3.15952
-6.66332
-8.97286
-10.2297
-10.7532
-10.8331
-10.6316
-10.271
-9.67671
-9.00692
-8.46057
-8.12997
-8.06899
-8.22522
-8.56984
-9.0856
-9.76173
-10.5913
-11.5722
-12.6987
-13.9647
-15.3603
-16.8835
-18.518
73.0786
72.1585
70.3904
67.7567
64.4261
60.6781
55.4541
73.4545
73.4444
73.1502
72.6596
72.0459
71.3665
70.6648
69.976
69.3242
68.724
68.1828
67.7036
67.2858
66.9266
66.6213
66.3675
66.1695
66.0148
65.8878
65.7859
65.707
65.6487
65.6084
65.5823
65.5667
65.5609
65.5642
65.57
65.5749
51.8888
47.5865
42.3971
36.5361
30.0999
23.1708
15.9763
8.91114
2.44208
-3.02848
-7.26383
-10.2169
-11.9848
-12.7499
-12.8608
-12.6054
-12.1312
-11.3795
-10.5339
-9.86783
-9.3301
-9.01796
-8.98795
-9.18603
-9.58181
-10.157
-10.9001
-11.8032
-12.8634
-14.0742
-15.4285
-16.915
-18.5296
-20.2539
73.9194
73.2612
71.805
69.4899
66.3956
62.6542
58.454
52.6618
74.0929
73.9163
73.4878
72.8922
72.1977
71.4574
70.7146
70.0002
69.3335
68.7252
68.1804
67.7002
67.2823
66.9228
66.6203
66.3809
66.1913
66.0325
65.9018
65.797
65.7164
65.6574
65.6158
65.5886
65.5721
65.5655
65.5688
65.5745
65.5796
48.7833
44.1309
38.5354
32.2519
25.4076
18.1299
10.7266
3.67213
-2.54276
-7.56359
-11.2411
-13.6132
-14.8349
-15.1189
-14.8331
-14.2592
-13.3437
-12.3098
-11.4612
-10.7983
-10.2693
-9.97651
-9.97923
-10.2216
-10.6714
-11.3092
-12.1224
-13.1024
-14.2446
-15.5416
-16.9851
-18.562
-20.2637
-22.4049
74.68
74.2821
73.1388
71.1487
68.3749
64.8811
60.6763
55.984
49.6105
74.6574
74.3215
73.7669
73.0733
72.3044
71.5135
70.7393
70.0065
69.3299
68.7173
68.1714
67.6912
67.2734
66.9175
66.6337
66.4059
66.2115
66.0483
65.9142
65.8074
65.7266
65.6665
65.6233
65.5949
65.5776
65.5701
65.5735
65.5792
65.5844
45.4135
40.4021
34.3841
27.6614
20.402
12.7989
5.2573
-1.67572
-7.5194
-11.9996
-15.0672
-16.8406
-17.5209
-17.3393
-16.6753
-15.5971
-14.3613
-13.316
-12.4633
-11.8033
-11.2831
-11.0104
-11.0476
-11.3365
-11.8429
-12.5462
-13.4325
-14.4918
-15.7179
-17.102
-18.6338
-20.2969
-22.4163
-24.865
75.355
75.2135
74.387
72.723
70.2763
67.1203
63.1851
58.475
53.2688
46.2998
75.1442
74.658
73.9849
73.2004
72.3695
71.5398
70.7426
69.9975
69.3154
68.7015
68.1558
67.6758
67.2626
66.9307
66.6626
66.4287
66.2292
66.062
65.9254
65.8194
65.7379
65.6757
65.6307
65.6011
65.5832
65.5747
65.5783
65.584
65.5893
41.7783
36.3954
29.9325
22.7468
15.068
7.17961
-0.405255
-7.08899
-12.4429
-16.3019
-18.7222
-19.8919
-20.0432
-19.4156
-18.1667
-16.7202
-15.4622
-14.4035
-13.5456
-12.888
-12.3764
-12.1245
-12.1975
-12.535
-13.1006
-13.8718
-14.8335
-15.9736
-17.2841
-18.7543
-20.37
-22.4528
-24.8769
-27.2303
75.9399
76.0473
75.5409
74.2089
72.0888
69.2757
65.7037
61.287
56.0514
50.3146
42.7307
75.5507
74.922
74.1385
73.2781
72.3991
71.5407
70.7279
69.9757
69.2919
68.6781
68.1326
67.6583
67.2751
66.9636
66.6886
66.4485
66.2444
66.0738
65.9394
65.8334
65.7492
65.6847
65.6381
65.6073
65.5887
65.5794
65.5831
65.589
65.5944
37.8754
32.1028
25.1625
17.4857
9.39427
1.28496
-6.22298
-12.5176
-17.2677
-20.44
-22.1919
-22.7638
-22.4048
-21.0981
-19.4191
-17.9352
-16.652
-15.5781
-14.7137
-14.0576
-13.5543
-13.3235
-13.4336
-13.8215
-14.4481
-15.289
-16.3272
-17.5485
-18.9424
-20.4941
-22.5292
-24.9162
-27.2393
-29.455
76.431
76.7762
76.5903
75.5969
73.809
71.3357
68.1318
64.1004
59.1872
53.4149
47.1305
38.9032
75.872
75.1098
74.2332
73.3134
72.3986
71.5202
70.6981
69.9433
69.2594
68.6457
68.107
67.6697
67.3126
66.9929
66.7108
66.4652
66.2568
66.0904
65.9569
65.8474
65.7602
65.6936
65.6453
65.6135
65.5943
65.5843
65.5879
65.594
65.5996
33.7001
27.5104
20.047
11.8486
3.36735
-4.8644
-12.1468
-17.906
-21.9499
-24.3892
-25.4667
-25.4564
-24.3201
-22.5113
-20.7739
-19.2486
-17.9372
-16.8456
-15.973
-15.3175
-14.8217
-14.6119
-14.7599
-15.1993
-15.8881
-16.7997
-17.9143
-19.2155
-20.688
-22.6583
-24.9962
-27.278
-29.4626
-31.5081
76.8227
77.3943
77.5252
76.876
75.4279
73.2965
70.4587
66.8146
62.3089
56.8968
50.5808
43.7265
34.8164
76.1034
75.2275
74.2776
73.3129
72.3726
71.482
70.6559
69.9006
69.2164
68.6106
68.1168
67.7123
67.3455
67.0172
66.7292
66.478
66.2769
66.1125
65.9742
65.861
65.771
65.7023
65.6525
65.6194
65.5998
65.5893
65.5926
65.5992
65.6048
29.2423
22.5884
14.5401
5.79138
-3.02746
-11.2402
-18.1179
-23.1958
-26.4505
-28.1305
-28.5422
-27.642
-25.9288
-24.0403
-22.2388
-20.6675
-19.3241
-18.212
-17.3292
-16.6726
-16.183
-15.9937
-16.1798
-16.6711
-17.4226
-18.4042
-19.5935
-20.9697
-22.8594
-25.1308
-27.3579
-29.5018
-31.5145
-33.3605
77.1085
77.8936
78.3357
78.0344
76.9343
75.1488
72.6805
69.4217
65.3191
60.3406
54.434
47.5675
40.1133
30.4674
76.2515
75.2854
74.2794
73.2823
72.3257
71.4291
70.6017
69.8454
69.1703
68.6183
68.1651
67.749
67.3722
67.0366
66.7398
66.5018
66.3039
66.134
65.991
65.8742
65.7816
65.7108
65.6595
65.6252
65.6053
65.5942
65.5974
65.6042
65.6098
24.4786
17.2921
8.58274
-0.733742
-9.79085
-17.7969
-24.0679
-28.3299
-30.7364
-31.6517
-31.0406
-29.4777
-27.6691
-25.6936
-23.8215
-22.1987
-20.8191
-19.6832
-18.7874
-18.1276
-17.6423
-17.4722
-17.6958
-18.2386
-19.0514
-20.1009
-21.3599
-23.1512
-25.3393
-27.494
-29.5813
-31.5556
-33.3668
-34.9829
77.2959
78.2647
79.0085
79.0604
78.3162
76.8811
74.7868
71.9187
68.2139
63.6556
58.2147
51.8217
44.3947
36.3033
25.8443
76.3286
75.2927
74.2455
73.2269
72.2616
71.3624
70.5331
69.7868
69.1753
68.6728
68.2061
67.7782
67.3927
67.0486
66.7677
66.5349
66.3305
66.1547
66.0073
65.8871
65.7918
65.7191
65.6662
65.6309
65.6106
65.5992
65.6019
65.6092
65.6147
19.3748
11.5648
2.10235
-7.76718
-16.9011
-24.4667
-29.9222
-33.2541
-34.7825
-34.5149
-33.1386
-31.4631
-29.5506
-27.4798
-25.5293
-23.849
-22.4284
-21.2646
-20.3523
-19.6865
-19.2027
-19.0498
-19.3091
-19.9013
-20.7726
-21.8846
-23.5555
-25.6409
-27.706
-29.7174
-31.6347
-33.4093
-34.9875
-36.3387
77.3992
78.5161
79.5263
79.9361
79.5607
78.4807
76.7647
74.2955
70.9922
66.843
61.8435
55.9561
49.0846
41.082
32.3031
20.9234
76.3456
75.2576
74.1823
73.1513
72.1814
71.2788
70.4603
69.7885
69.2369
68.7185
68.2379
67.8
67.405
67.0805
66.8084
66.5675
66.3559
66.1747
66.0232
65.8996
65.8017
65.727
65.6728
65.6365
65.6158
65.604
65.6062
65.6139
65.6195
13.8807
5.31996
-4.99304
-15.3333
-24.311
-31.1635
-35.6028
-37.9221
-38.0765
-36.9182
-35.4061
-33.6085
-31.5823
-29.4066
-27.3695
-25.625
-24.1576
-22.9611
-22.0281
-21.3523
-20.8664
-20.7271
-21.019
-21.6566
-22.5806
-24.1002
-26.0588
-28.0132
-29.9302
-31.7702
-33.4861
-35.028
-36.3421
-37.4029
77.4314
78.6652
79.8946
80.6361
80.6462
79.9351
78.5997
76.539
73.646
69.9047
65.3271
59.9082
53.5922
46.2472
37.6501
28.1138
15.6715
76.3124
75.1877
74.0952
73.0569
72.0816
71.1903
70.4583
69.8579
69.2874
68.7531
68.2607
67.8121
67.4419
67.1297
66.8485
66.5986
66.3805
66.1942
66.0384
65.9115
65.8111
65.7346
65.6791
65.6419
65.6206
65.6086
65.6102
65.6185
65.6242
7.92105
-1.56916
-12.8145
-23.432
-31.946
-37.7783
-41.0334
-41.7279
-40.8387
-39.5132
-37.8539
-35.9228
-33.7721
-31.4813
-29.3488
-27.5326
-26.0118
-24.7765
-23.8174
-23.1266
-22.6334
-22.5028
-22.822
-23.4983
-24.8241
-26.6225
-28.4394
-30.239
-31.9818
-33.6193
-35.1018
-36.3813
-37.4039
-38.1507
77.4041
78.7277
80.1326
81.1611
81.5395
81.2203
80.2769
78.6338
76.1638
72.8356
68.6714
63.6911
57.8783
51.1511
43.3358
34.1217
23.7373
10.0446
76.2378
75.0897
73.9863
72.9398
71.9758
71.184
70.5361
69.9138
69.3249
68.7769
68.2723
67.8547
67.5012
67.1784
66.8866
66.6286
66.4043
66.2128
66.0529
65.9228
65.82
65.7417
65.685
65.6469
65.625
65.6131
65.614
65.623
65.6287
1.3818
-9.2999
-21.4816
-32.0268
-39.6856
-44.1761
-45.4831
-44.9145
-43.815
-42.3099
-40.4901
-38.4132
-36.1268
-33.7106
-31.4729
-29.5764
-27.9946
-26.7136
-25.7217
-25.0092
-24.5018
-24.3726
-24.7111
-25.781
-27.373
-29.0155
-30.6682
-32.2889
-33.827
-35.2314
-36.4531
-37.4415
-38.1491
-38.5651
77.3278
78.7178
80.259
81.5295
82.2371
82.2977
81.7689
80.5628
78.531
75.6274
71.8755
67.3158
61.9638
55.7837
48.6616
40.3786
30.5201
19.1747
3.97415
76.13
74.9662
73.851
72.8155
71.9646
71.2712
70.5978
69.9543
69.3497
68.7874
68.3214
67.9256
67.5597
67.2244
66.9232
66.6576
66.4269
66.2304
66.0665
65.9333
65.8282
65.7483
65.6904
65.6514
65.6291
65.6175
65.6177
65.6273
65.6331
-5.9352
-18.1793
-31.0897
-41.011
-47.3123
-49.442
-49.2106
-48.3413
-47.0117
-45.3131
-43.3196
-41.0851
-38.6519
-36.0994
-33.7461
-31.7599
-30.1083
-28.7731
-27.7397
-26.9969
-26.4662
-26.3287
-27.0491
-28.3679
-29.7843
-31.2497
-32.7159
-34.128
-35.4316
-36.576
-37.509
-38.1844
-38.5609
-38.6365
77.212
78.6484
80.2915
81.7592
82.7572
83.1609
83.0297
82.2931
80.7305
78.2686
74.9358
70.7867
65.866
60.175
53.6542
46.1532
37.4045
26.8682
14.4315
-2.63409
75.9922
74.8122
73.7069
72.7989
72.0619
71.339
70.6414
69.9798
69.3586
68.8436
68.4056
67.9957
67.6151
67.2687
66.9585
66.6852
66.4483
66.2468
66.079
65.9429
65.8357
65.7541
65.6951
65.6555
65.6327
65.6215
65.6213
65.6315
65.6375
-14.3647
-28.6975
-41.6618
-50.046
-53.6489
-53.8392
-53.2043
-52.0134
-50.4288
-48.5231
-46.3446
-43.9416
-41.3509
-38.6509
-36.171
-34.0845
-32.3527
-30.9529
-29.8676
-29.0833
-28.5176
-28.7454
-29.6908
-30.8064
-32.0278
-33.2956
-34.5469
-35.7216
-36.7643
-37.6223
-38.2461
-38.593
-38.6299
-38.3635
77.0611
78.5307
80.2468
81.8687
83.1175
83.8289
84.0504
83.7678
82.7253
80.7441
77.845
74.1059
69.5959
64.3517
58.3549
51.5197
43.654
34.4454
23.2012
9.55467
-9.90393
75.8193
74.6474
73.6845
72.9076
72.1361
71.3859
70.6676
69.9867
69.4228
68.9428
68.4886
68.0617
67.6682
67.3112
66.992
66.7111
66.4681
66.2617
66.0903
65.9514
65.8421
65.7591
65.6992
65.6591
65.636
65.6254
65.6247
65.6355
65.6417
-24.6329
-41.6629
-52.6374
-57.8092
-58.8906
-58.5044
-57.4473
-55.9209
-54.0604
-51.9353
-49.5638
-46.9828
-44.2244
-41.3658
-38.7476
-36.5488
-34.7248
-33.2478
-32.0972
-31.2578
-31.0469
-31.4665
-32.171
-33.0664
-34.0739
-35.1171
-36.1259
-37.0378
-37.7958
-38.3483
-38.6477
-38.6576
-38.3546
-37.7538
76.87
78.3699
80.1395
81.8762
83.3363
84.3203
84.8528
84.9708
84.4475
83.0156
80.5921
77.2717
73.1621
68.3321
62.8023
56.5324
49.4069
41.1947
31.5482
19.5625
4.64438
-18.0548
75.633
74.6187
73.8056
72.9891
72.1859
71.4127
70.6717
70.0595
69.5388
69.0406
68.5668
68.125
67.7191
67.3515
67.0232
66.7349
66.486
66.275
66.1001
65.9585
65.8473
65.7632
65.7027
65.6624
65.639
65.6289
65.628
65.6395
65.6458
-38.3239
-56.3267