/*--------------------------------*- C++ -*----------------------------------*\
  =========                 |
  \\      /  F ield         | OpenFOAM: The Open Source CFD Toolbox
   \\    /   O peration     | Website:  https://openfoam.org
    \\  /    A nd           | Version:  8
     \\/     M anipulation  |
\*---------------------------------------------------------------------------*/
FoamFile
{
    version     2.0;
    format      ascii;
    class       volScalarField;
    location    "700";
    object      k;
}
// * * * * * * * * * * * * * * * * * * * * * * * * * * * * * * * * * * * * * //

dimensions      [0 2 -2 0 0 0 0];

internalField   nonuniform List<scalar> 
15677
(
0.991114
0.878328
0.495837
0.398731
0.38043
0.375727
0.374331
0.373838
0.373578
0.373423
0.373331
0.373282
0.373258
0.373248
0.373245
0.373244
0.373242
0.373241
0.373239
0.373238
0.373238
0.373237
0.373237
0.373237
0.373237
0.373237
0.373237
0.373238
0.373238
0.373238
0.373238
0.373238
0.373239
0.373239
0.373239
1.1916
0.830642
0.479792
0.386788
0.3726
0.370441
0.370024
0.369925
0.369987
0.37004
0.370044
0.370012
0.369971
0.369936
0.369915
0.369906
0.369902
0.369899
0.369898
0.369897
0.369896
0.369895
0.369895
0.369894
0.369893
0.369893
0.369892
0.369892
0.369891
0.369891
0.369891
0.36989
0.36989
0.36989
0.369889
1.13856
0.693054
0.41431
0.35854
0.355679
0.359202
0.36205
0.364007
0.365279
0.366077
0.366543
0.366772
0.366849
0.366849
0.366825
0.366804
0.36679
0.36678
0.366774
0.366769
0.366765
0.366762
0.36676
0.366759
0.366758
0.366758
0.366757
0.366757
0.366757
0.366757
0.366757
0.366757
0.366757
0.366757
0.366757
1.04265
0.659321
0.359186
0.317491
0.32987
0.342605
0.350923
0.356113
0.359363
0.361405
0.362667
0.363401
0.363772
0.363918
0.363943
0.363934
0.363919
0.363907
0.363898
0.363891
0.363886
0.363882
0.363878
0.363875
0.363873
0.363871
0.36387
0.363868
0.363867
0.363866
0.363865
0.363864
0.363863
0.363863
0.363862
0.977821
0.668305
0.35852
0.29598
0.309241
0.326922
0.339392
0.347556
0.352857
0.356302
0.35852
0.3599
0.360692
0.36108
0.361209
0.361235
0.361226
0.36121
0.361195
0.361183
0.361173
0.361166
0.361161
0.361156
0.361153
0.361151
0.361149
0.361147
0.361146
0.361145
0.361144
0.361144
0.361143
0.361143
0.361142
0.9364
0.69174
0.36883
0.283164
0.29239
0.312655
0.328235
0.338959
0.346183
0.351027
0.354248
0.356338
0.357619
0.358324
0.358617
0.358716
0.358738
0.358732
0.358718
0.358705
0.358692
0.358682
0.358674
0.358667
0.358661
0.358657
0.358653
0.35865
0.358647
0.358644
0.358642
0.35864
0.358638
0.358636
0.358635
0.910577
0.716359
0.392332
0.284176
0.281993
0.300831
0.318051
0.330696
0.339585
0.34574
0.349951
0.352771
0.354576
0.355636
0.356125
0.356319
0.356381
0.356387
0.356374
0.356356
0.35634
0.356325
0.356314
0.356305
0.356298
0.356292
0.356287
0.356283
0.35628
0.356277
0.356275
0.356273
0.356271
0.35627
0.356269
0.892908
0.732599
0.423949
0.289396
0.275532
0.291606
0.309256
0.323134
0.33332
0.340608
0.345736
0.349265
0.351601
0.353043
0.353761
0.354082
0.354212
0.35425
0.354249
0.354233
0.354214
0.354195
0.35418
0.354167
0.354156
0.354147
0.35414
0.354133
0.354127
0.354122
0.354117
0.354113
0.35411
0.354106
0.354104
0.880803
0.743945
0.456224
0.300396
0.272404
0.284361
0.301645
0.316278
0.327469
0.335721
0.341675
0.345871
0.348725
0.350548
0.3515
0.351951
0.352147
0.352214
0.352223
0.352208
0.352186
0.352164
0.352144
0.352128
0.352114
0.352103
0.352093
0.352085
0.352078
0.352072
0.352067
0.352063
0.352059
0.352056
0.352054
0.871228
0.747436
0.483965
0.31551
0.272842
0.279339
0.295361
0.31022
0.322104
0.33114
0.337819
0.342631
0.345979
0.348183
0.349387
0.349994
0.350285
0.350405
0.350438
0.350431
0.350407
0.350379
0.350353
0.350332
0.350313
0.350298
0.350284
0.350272
0.350262
0.350253
0.350245
0.350237
0.350231
0.350225
0.350219
0.864516
0.750021
0.508006
0.331808
0.274562
0.275749
0.290154
0.30493
0.317264
0.326914
0.334214
0.339582
0.343396
0.345967
0.347408
0.348155
0.348522
0.34868
0.348731
0.34873
0.348707
0.348676
0.348647
0.348621
0.348598
0.348579
0.348562
0.348547
0.348535
0.348524
0.348514
0.348506
0.348499
0.348493
0.348488
0.860479
0.751191
0.527696
0.347885
0.278077
0.273333
0.285879
0.300327
0.312925
0.32306
0.330892
0.336759
0.341003
0.343924
0.345617
0.346538
0.347023
0.347253
0.347337
0.347347
0.347322
0.347284
0.347247
0.347214
0.347186
0.347161
0.347139
0.347121
0.347104
0.347089
0.347076
0.347064
0.347053
0.347042
0.347034
0.858816
0.751296
0.544023
0.363451
0.282872
0.271928
0.282458
0.296395
0.309099
0.319594
0.327874
0.334189
0.338842
0.342109
0.344032
0.345083
0.345637
0.345904
0.346012
0.346038
0.34602
0.345984
0.345944
0.345906
0.345872
0.345843
0.345816
0.345793
0.345773
0.345755
0.345739
0.345725
0.345713
0.345702
0.345694
0.859239
0.751136
0.556213
0.377477
0.288156
0.271344
0.279695
0.293026
0.305747
0.316528
0.325196
0.33192
0.336944
0.34052
0.342689
0.34394
0.344647
0.34501
0.345161
0.345196
0.345175
0.34513
0.345082
0.345038
0.344998
0.344964
0.344933
0.344907
0.344883
0.344862
0.344843
0.344825
0.344809
0.344795
0.344783
0.861058
0.751054
0.566053
0.389855
0.293651
0.271459
0.277579
0.290221
0.302874
0.313867
0.32287
0.329961
0.335354
0.339294
0.341702
0.343052
0.343798
0.344186
0.344375
0.344447
0.344449
0.344414
0.344368
0.344321
0.344279
0.344241
0.344206
0.344176
0.344148
0.344122
0.344099
0.344078
0.344059
0.344042
0.344028
0.86497
0.750858
0.572581
0.400018
0.299034
0.271856
0.275922
0.287881
0.30045
0.311628
0.320942
0.328411
0.334169
0.338343
0.34098
0.342619
0.343596
0.344139
0.344394
0.344487
0.3445
0.344472
0.344429
0.344386
0.344345
0.344308
0.344275
0.344245
0.344218
0.344193
0.34417
0.344149
0.34413
0.344114
0.344102
0.871216
0.750894
0.577943
0.40827
0.30379
0.272609
0.274705
0.28603
0.298483
0.309821
0.319448
0.327236
0.333298
0.337999
0.341016
0.342773
0.343827
0.344424
0.344728
0.344859
0.344896
0.344885
0.344855
0.344821
0.344788
0.344758
0.34473
0.344705
0.344682
0.34466
0.34464
0.344621
0.344604
0.344587
0.344577
0.879441
0.750946
0.580978
0.414766
0.308117
0.273652
0.273855
0.28455
0.296964
0.308494
0.318373
0.32658
0.333246
0.3382
0.341397
0.343338
0.344523
0.345217
0.345598
0.345788
0.345869
0.345892
0.345889
0.345878
0.345865
0.345852
0.34584
0.345827
0.345815
0.345803
0.345791
0.345779
0.345768
0.345756
0.345752
0.889631
0.750891
0.58299
0.419508
0.311619
0.274671
0.273351
0.28359
0.2959
0.307574
0.317945
0.326659
0.333569
0.338857
0.342339
0.344542
0.345944
0.346805
0.347317
0.347609
0.347771
0.347859
0.34791
0.347944
0.347971
0.347993
0.348011
0.348025
0.348036
0.348044
0.348049
0.348052
0.348053
0.348053
0.348063
0.901774
0.750904
0.583209
0.422661
0.314536
0.275741
0.273167
0.282854
0.2953
0.307425
0.318117
0.327125
0.334439
0.340223
0.344165
0.34671
0.348362
0.349423
0.350097
0.350528
0.350813
0.35101
0.351156
0.351275
0.351378
0.351469
0.351548
0.351617
0.351677
0.351728
0.351772
0.351811
0.351845
0.351874
0.351915
0.915823
0.750982
0.58287
0.42478
0.316692
0.276736
0.273279
0.282852
0.295379
0.307681
0.318715
0.32819
0.33615
0.342544
0.346964
0.349887
0.351854
0.353179
0.354081
0.354716
0.355191
0.355564
0.355869
0.356131
0.356364
0.356573
0.356759
0.356924
0.35707
0.357199
0.357314
0.357417
0.357508
0.357589
0.357682
0.931718
0.751144
0.581963
0.42535
0.318347
0.277726
0.273589
0.283054
0.295754
0.30839
0.319977
0.330172
0.338796
0.345849
0.350845
0.354238
0.356608
0.358283
0.359501
0.360431
0.361192
0.361835
0.362389
0.36288
0.363323
0.363724
0.364086
0.364412
0.364704
0.364967
0.365202
0.365415
0.365607
0.365778
0.365958
0.949347
0.751342
0.58019
0.425072
0.319295
0.278666
0.274187
0.283579
0.296582
0.309791
0.322076
0.333002
0.342409
0.350252
0.355948
0.359928
0.362814
0.364955
0.366606
0.367956
0.369135
0.370187
0.371124
0.371972
0.372747
0.373455
0.374099
0.374684
0.375213
0.375693
0.376126
0.376521
0.376877
0.377199
0.37752
0.968595
0.751638
0.577843
0.424288
0.319895
0.279596
0.27505
0.284609
0.29809
0.311935
0.324981
0.336769
0.347098
0.355882
0.362427
0.367137
0.370681
0.373432
0.375675
0.377615
0.379397
0.381049
0.382556
0.383941
0.38522
0.386398
0.387481
0.388471
0.389376
0.390201
0.390953
0.39164
0.392265
0.392834
0.393379
0.989336
0.751994
0.575085
0.422758
0.320017
0.280541
0.276182
0.286103
0.300165
0.314774
0.328721
0.341519
0.35293
0.362834
0.370407
0.376019
0.380396
0.383947
0.386986
0.389738
0.392368
0.39488
0.39722
0.399403
0.401442
0.403338
0.405094
0.406714
0.408203
0.40957
0.410825
0.411976
0.413029
0.413995
0.414895
1.0114
0.752486
0.57199
0.420595
0.319928
0.281535
0.277597
0.288062
0.302853
0.318362
0.333361
0.34733
0.360004
0.371228
0.380037
0.386756
0.392179
0.396769
0.400866
0.404728
0.408543
0.412284
0.415831
0.41918
0.422335
0.425293
0.428056
0.430625
0.433007
0.435209
0.437243
0.439122
0.440853
0.442451
0.443906
1.03468
0.753053
0.568649
0.418127
0.319713
0.282643
0.2793
0.290467
0.306129
0.322687
0.338895
0.354213
0.368347
0.381118
0.391395
0.399454
0.40619
0.412109
0.417594
0.422942
0.428372
0.433809
0.439046
0.44406
0.448845
0.453387
0.457671
0.461691
0.465449
0.468953
0.472214
0.475243
0.478052
0.480661
0.482991
1.05891
0.75375
0.565144
0.415309
0.319304
0.283865
0.281301
0.293343
0.310032
0.327792
0.345379
0.362234
0.378045
0.392612
0.404622
0.414302
0.422672
0.430283
0.43758
0.444911
0.45255
0.460375
0.468056
0.47551
0.482692
0.489559
0.49609
0.502275
0.508109
0.513596
0.518742
0.523558
0.528054
0.53226
0.535964
1.08406
0.754546
0.561529
0.412383
0.31889
0.285245
0.2836
0.296664
0.314518
0.333633
0.352766
0.37135
0.38906
0.405677
0.4197
0.431327
0.44169
0.451416
0.461029
0.470956
0.481543
0.492586
0.503561
0.514337
0.524876
0.535137
0.545073
0.554629
0.563761
0.572447
0.580682
0.588474
0.595838
0.602818
0.608949
1.10975
0.755448
0.557879
0.409279
0.31845
0.286787
0.286194
0.300443
0.319609
0.340237
0.361093
0.381615
0.401468
0.42042
0.436792
0.450753
0.46356
0.475951
0.488557
0.501915
0.516484
0.532027
0.547865
0.563828
0.579769
0.595493
0.610839
0.62572
0.64012
0.654053
0.667538
0.680584
0.693202
0.705414
0.716215
0.373243
0.37325
0.373258
0.373266
0.373274
0.373282
0.373291
0.3733
0.373309
0.373318
0.373328
0.373337
0.373347
0.373356
0.373365
0.373374
0.373382
0.373391
0.373399
0.373406
0.373414
0.373421
0.3699
0.36992
0.369941
0.369963
0.369986
0.370009
0.370032
0.370057
0.370082
0.370107
0.370134
0.370161
0.370187
0.370213
0.370239
0.370263
0.370287
0.370311
0.370333
0.370355
0.370377
0.370398
0.366774
0.366807
0.366842
0.366878
0.366914
0.366952
0.36699
0.36703
0.367071
0.367113
0.367155
0.367199
0.367243
0.367285
0.367325
0.367365
0.367404
0.367441
0.367478
0.367513
0.367547
0.367581
0.363883
0.363928
0.363973
0.36402
0.364068
0.364117
0.364168
0.36422
0.364274
0.364329
0.364386
0.364444
0.364501
0.364557
0.364612
0.364665
0.364716
0.364766
0.364815
0.364862
0.364908
0.364953
0.361169
0.361225
0.361282
0.36134
0.3614
0.361462
0.361526
0.361591
0.361658
0.361727
0.361798
0.36187
0.361941
0.362011
0.362078
0.362144
0.362208
0.36227
0.36233
0.362389
0.362446
0.362501
0.358666
0.358729
0.358794
0.358861
0.35893
0.359001
0.359074
0.359149
0.359226
0.359306
0.359387
0.359471
0.359554
0.359635
0.359714
0.359791
0.359865
0.359938
0.360009
0.360078
0.360145
0.36021
0.356304
0.356376
0.356451
0.356528
0.356607
0.356689
0.356773
0.356859
0.356948
0.357039
0.357133
0.357228
0.357323
0.357416
0.357505
0.357593
0.357678
0.35776
0.357841
0.357919
0.357995
0.358069
0.35414
0.354218
0.354298
0.354381
0.354466
0.354553
0.354644
0.354737
0.354833
0.354932
0.355034
0.355138
0.355242
0.355343
0.355442
0.355539
0.355633
0.355724
0.355814
0.3559
0.355985
0.356067
0.352094
0.352179
0.352266
0.352357
0.35245
0.352547
0.352646
0.352748
0.352854
0.352963
0.353075
0.353189
0.353302
0.353413
0.35352
0.353625
0.353727
0.353826
0.353922
0.354016
0.354108
0.354197
0.350259
0.350345
0.350433
0.350525
0.350619
0.350717
0.350819
0.350923
0.351031
0.351143
0.351259
0.351379
0.351498
0.351615
0.351729
0.351841
0.35195
0.352056
0.352159
0.35226
0.352359
0.352454
0.34853
0.348619
0.348711
0.348807
0.348907
0.349011
0.349118
0.34923
0.349345
0.349464
0.349587
0.349713
0.349838
0.34996
0.350078
0.350194
0.350307
0.350418
0.350526
0.350631
0.350734
0.350835
0.347069
0.347152
0.347237
0.347325
0.347418
0.347514
0.347614
0.347719
0.347828
0.347942
0.348061
0.348186
0.348311
0.348436
0.348558
0.348678
0.348795
0.34891
0.349022
0.349132
0.349238
0.349343
0.345727
0.345804
0.345883
0.345969
0.346061
0.346158
0.346261
0.346369
0.346481
0.346598
0.346718
0.346841
0.346963
0.347083
0.347201
0.347316
0.34743
0.347543
0.347654
0.347764
0.347872
0.347979
0.344804
0.344859
0.344915
0.344976
0.345039
0.345106
0.345178
0.345256
0.34534
0.345433
0.345535
0.345646
0.345762
0.34588
0.345997
0.346112
0.346226
0.346338
0.346446
0.346553
0.346657
0.346761
0.344032
0.34405
0.344079
0.344124
0.344181
0.344248
0.344322
0.344402
0.344485
0.344571
0.344658
0.344746
0.344833
0.34492
0.345009
0.345101
0.345195
0.345292
0.345391
0.345491
0.345592
0.345696
0.344084
0.34405
0.344
0.343955
0.343917
0.343888
0.343869
0.343861
0.343865
0.343886
0.343934
0.344002
0.344082
0.344167
0.344254
0.34434
0.344423
0.344504
0.344583
0.34466
0.344738
0.344821
0.344528
0.344427
0.344322
0.34423
0.344148
0.344075
0.344013
0.343961
0.343921
0.343887
0.343844
0.343805
0.34378
0.343768
0.34377
0.343787
0.343822
0.343875
0.343938
0.344008
0.344082
0.344166
0.345661
0.345458
0.345247
0.34506
0.344888
0.344728
0.34458
0.344444
0.34432
0.344206
0.344105
0.344014
0.34394
0.343882
0.34384
0.34381
0.343781
0.343752
0.343732
0.343722
0.343723
0.343747
0.347903
0.347524
0.347131
0.346774
0.34644
0.346126
0.345832
0.345561
0.345307
0.34507
0.344855
0.34466
0.344488
0.344342
0.344218
0.344112
0.344023
0.34395
0.343889
0.343841
0.343807
0.343802
0.351672
0.351054
0.350417
0.349827
0.349266
0.348728
0.348211
0.347715
0.347243
0.346798
0.346382
0.345999
0.345657
0.345358
0.345102
0.344881
0.344691
0.344528
0.344389
0.344269
0.344169
0.344112
0.357329
0.356376
0.355396
0.354481
0.353605
0.35276
0.351946
0.351161
0.350409
0.349691
0.349011
0.348373
0.347792
0.347273
0.346806
0.346393
0.346029
0.345711
0.345431
0.345186
0.344974
0.344831
0.365466
0.364045
0.362591
0.361226
0.359914
0.358644
0.357415
0.356228
0.355084
0.353986
0.352937
0.351947
0.351039
0.350224
0.349491
0.348835
0.348249
0.347728
0.347264
0.346849
0.346483
0.346208
0.376855
0.374785
0.372681
0.3707
0.368788
0.366933
0.365133
0.363389
0.361704
0.360081
0.358526
0.357051
0.355694
0.354472
0.353371
0.35238
0.351491
0.350693
0.349978
0.349336
0.348764
0.348321
0.392507
0.389542
0.386552
0.38373
0.381
0.378344
0.375762
0.373256
0.37083
0.368489
0.36624
0.364103
0.362133
0.360356
0.358753
0.357308
0.356006
0.354835
0.353783
0.352834
0.351986
0.351315
0.413774
0.409578
0.405383
0.401415
0.397567
0.393818
0.390169
0.386621
0.383184
0.379864
0.37667
0.373634
0.370834
0.368305
0.366022
0.363963
0.362106
0.360434
0.358929
0.357571
0.356355
0.355378
0.44248
0.436589
0.430755
0.425224
0.419853
0.414616
0.40951
0.404543
0.399726
0.395071
0.390592
0.386333
0.382406
0.378861
0.375662
0.372778
0.370178
0.367837
0.36573
0.363829
0.362126
0.360742
0.481205
0.472947
0.464862
0.45718
0.449707
0.442418
0.435312
0.428401
0.421701
0.41523
0.409007
0.403092
0.397643
0.392726
0.388293
0.3843
0.380706
0.377473
0.374566
0.371947
0.3696
0.367676
0.533726
0.522053
0.510851
0.500206
0.489835
0.479703
0.469817
0.460202
0.450884
0.441895
0.433265
0.425083
0.417563
0.410795
0.404707
0.399234
0.394314
0.389894
0.385927
0.382359
0.379166
0.37653
0.606165
0.589009
0.573064
0.558114
0.543666
0.529606
0.515916
0.502609
0.489715
0.477273
0.465325
0.454
0.443606
0.434279
0.425922
0.41844
0.411744
0.405752
0.400388
0.395574
0.391271
0.387685
0.712849
0.685964
0.661428
0.638835
0.617476
0.597112
0.577631
0.558969
0.541087
0.523964
0.507597
0.492106
0.477876
0.465081
0.453606
0.443344
0.434188
0.426035
0.418781
0.412315
0.406565
0.401766
0.373425
0.373425
0.373425
0.373425
0.373425
0.373425
0.370408
0.370408
0.370408
0.370408
0.370408
0.370408
0.367597
0.367597
0.367597
0.367597
0.367597
0.367597
0.364975
0.364975
0.364975
0.364975
0.364975
0.364975
0.362528
0.362528
0.362528
0.362528
0.362528
0.362528
0.360242
0.360242
0.360242
0.360242
0.360242
0.360242
0.358105
0.358105
0.358105
0.358105
0.358105
0.358105
0.356107
0.356107
0.356107
0.356107
0.356107
0.356107
0.354241
0.354241
0.354241
0.354241
0.354241
0.354241
0.352502
0.352501
0.352501
0.352501
0.352501
0.352501
0.350885
0.350884
0.350884
0.350884
0.350884
0.350885
0.349394
0.349392
0.349391
0.349391
0.349392
0.349394
0.348031
0.348029
0.34803
0.34803
0.348029
0.348031
0.346809
0.346804
0.346803
0.346803
0.346803
0.346809
0.345747
0.345743
0.345745
0.345745
0.345743
0.345746
0.344855
0.34484
0.344838
0.344838
0.34484
0.344854
0.344205
0.344197
0.3442
0.3442
0.344196
0.344205
0.343746
0.343719
0.343719
0.343719
0.343718
0.343745
0.343785
0.343754
0.343756
0.343756
0.343753
0.343785
0.344065
0.344023
0.344028
0.344027
0.344022
0.344065
0.344736
0.344677
0.344685
0.344685
0.344676
0.344735
0.346034
0.34595
0.345961
0.345961
0.345949
0.346033
0.348051
0.347942
0.347958
0.347957
0.347941
0.348051
0.350917
0.350774
0.350798
0.350797
0.350773
0.350917
0.354808
0.354623
0.354657
0.354656
0.354622
0.354808
0.359947
0.359713
0.35976
0.35976
0.359712
0.359948
0.366579
0.366285
0.366348
0.366348
0.366284
0.366581
0.375049
0.374689
0.374776
0.374776
0.374688
0.375052
0.385676
0.385227
0.385337
0.385337
0.385226
0.385679
0.399117
0.398558
0.398687
0.398687
0.398557
0.399121
0.373421
0.373414
0.373406
0.373398
0.37339
0.373382
0.373374
0.373365
0.373356
0.373347
0.373337
0.373328
0.373318
0.373309
0.3733
0.373291
0.373282
0.373274
0.373266
0.373258
0.37325
0.373243
0.370397
0.370376
0.370355
0.370333
0.37031
0.370286
0.370262
0.370238
0.370213
0.370187
0.37016
0.370134
0.370107
0.370081
0.370056
0.370031
0.370008
0.369985
0.369963
0.369941
0.36992
0.369899
0.36758
0.367547
0.367512
0.367476
0.36744
0.367402
0.367364
0.367324
0.367284
0.367242
0.367199
0.367155
0.367112
0.36707
0.367029
0.366989
0.36695
0.366913
0.366876
0.366841
0.366807
0.366773
0.364953
0.364908
0.364861
0.364813
0.364764
0.364714
0.364663
0.36461
0.364556
0.3645
0.364443
0.364385
0.364328
0.364272
0.364218
0.364166
0.364115
0.364066
0.364018
0.363972
0.363927
0.363883
0.3625
0.362444
0.362387
0.362328
0.362267
0.362205
0.362142
0.362076
0.362009
0.36194
0.361869
0.361797
0.361725
0.361656
0.361589
0.361523
0.36146
0.361398
0.361338
0.36128
0.361224
0.361169
0.360209
0.360143
0.360076
0.360006
0.359935
0.359863
0.359788
0.359711
0.359633
0.359553
0.35947
0.359387
0.359304
0.359224
0.359146
0.359071
0.358997
0.358927
0.358858
0.358791
0.358727
0.358664
0.358068
0.357993
0.357916
0.357838
0.357757
0.357674
0.357589
0.357502
0.357413
0.357321
0.357227
0.357132
0.357037
0.356945
0.356855
0.356769
0.356685
0.356604
0.356525
0.356448
0.356374
0.356303
0.356066
0.355983
0.355898
0.35581
0.355721
0.355629
0.355535
0.355439
0.35534
0.35524
0.355137
0.355032
0.354929
0.35483
0.354733
0.35464
0.354549
0.354462
0.354377
0.354295
0.354215
0.354138
0.354197
0.354106
0.354014
0.353919
0.353822
0.353722
0.353621
0.353516
0.353409
0.3533
0.353187
0.353073
0.35296
0.35285
0.352744
0.352642
0.352542
0.352446
0.352353
0.352263
0.352176
0.352093
0.352454
0.352357
0.352257
0.352156
0.352052
0.351945
0.351836
0.351725
0.351611
0.351495
0.351377
0.351258
0.351141
0.351028
0.350919
0.350814
0.350713
0.350615
0.35052
0.350429
0.350341
0.350256
0.350835
0.350732
0.350628
0.350522
0.350413
0.350302
0.350189
0.350074
0.349956
0.349835
0.349711
0.349585
0.349461
0.349341
0.349225
0.349113
0.349006
0.348902
0.348803
0.348707
0.348616
0.348527
0.349342
0.349236
0.349128
0.349018
0.348905
0.34879
0.348673
0.348553
0.348431
0.348308
0.348184
0.34806
0.347939
0.347824
0.347715
0.34761
0.34751
0.347414
0.347321
0.347233
0.347148
0.347066
0.347978
0.347869
0.34776
0.34765
0.347538
0.347425
0.347311
0.347196
0.347079
0.34696
0.346839
0.346716
0.346594
0.346477
0.346364
0.346256
0.346153
0.346056
0.345965
0.34588
0.3458
0.345724
0.34676
0.346654
0.346549
0.346442
0.346332
0.346221
0.346107
0.345991
0.345875
0.345759
0.345644
0.345533
0.345431
0.345338
0.345253
0.345176
0.345104
0.345037
0.344974
0.344913
0.344857
0.3448
0.345695
0.345589
0.345487
0.345386
0.345287
0.34519
0.345095
0.345004
0.344916
0.344829
0.344743
0.344656
0.344568
0.344482
0.344398
0.344319
0.344246
0.34418
0.344123
0.344078
0.344049
0.344027
0.34482
0.344735
0.344657
0.344579
0.344499
0.344418
0.344334
0.344249
0.344163
0.344079
0.344
0.343932
0.343885
0.343865
0.343862
0.343872
0.343892
0.343922
0.343959
0.344003
0.344051
0.34408
0.344164
0.344079
0.344005
0.343934
0.34387
0.343818
0.343783
0.343767
0.343765
0.343777
0.343803
0.343842
0.343887
0.343922
0.343965
0.344018
0.344082
0.344156
0.344238
0.344329
0.344431
0.344526
0.343746
0.343721
0.34372
0.34373
0.343751
0.343779
0.343808
0.343838
0.34388
0.343938
0.344012
0.344104
0.344208
0.344325
0.344452
0.34459
0.34474
0.344902
0.345075
0.34526
0.345466
0.345663
0.343801
0.343806
0.34384
0.343889
0.343949
0.344023
0.344112
0.344217
0.344342
0.344488
0.344658
0.344855
0.345075
0.345316
0.345575
0.345851
0.346149
0.346466
0.3468
0.347156
0.347542
0.347911
0.344112
0.344169
0.344269
0.34439
0.344531
0.344693
0.344884
0.345105
0.345361
0.345658
0.345999
0.346384
0.346808
0.347261
0.34774
0.348244
0.348766
0.349307
0.349869
0.350457
0.351086
0.35169
0.344832
0.344976
0.345189
0.345437
0.345718
0.346037
0.346402
0.346815
0.34728
0.347797
0.348375
0.349016
0.349708
0.350438
0.351201
0.351995
0.352818
0.353667
0.354545
0.355457
0.356427
0.357362
0.346209
0.346487
0.346856
0.347274
0.347741
0.348265
0.348852
0.349508
0.350239
0.35105
0.351952
0.352946
0.354013
0.355128
0.356288
0.357489
0.358729
0.360006
0.361321
0.362682
0.364123
0.365521
0.348324
0.348771
0.349349
0.349997
0.350716
0.351517
0.352409
0.353399
0.354497
0.355713
0.35706
0.35854
0.360121
0.361768
0.363475
0.365238
0.367054
0.368919
0.370835
0.372812
0.3749
0.376941
0.35132
0.351998
0.352855
0.353812
0.354871
0.356047
0.357351
0.358796
0.360395
0.362164
0.364118
0.366262
0.368547
0.370921
0.373378
0.375911
0.378514
0.381184
0.38392
0.386737
0.389707
0.392635
0.355386
0.356374
0.357603
0.358973
0.360488
0.362167
0.364028
0.366087
0.368363
0.370879
0.373658
0.376704
0.379946
0.383312
0.386792
0.390375
0.394053
0.397821
0.401677
0.405639
0.409809
0.413955
0.360754
0.362153
0.363876
0.365794
0.367915
0.370266
0.372872
0.375755
0.378946
0.382472
0.386369
0.390639
0.395185
0.399903
0.404777
0.409793
0.414937
0.4202
0.425582
0.431105
0.436907
0.442735
0.367692
0.369639
0.372012
0.374655
0.377582
0.38083
0.384433
0.388425
0.392846
0.397737
0.403144
0.409073
0.415387
0.421944
0.428721
0.435698
0.442855
0.45018
0.457667
0.46534
0.473382
0.481558
0.376553
0.37922
0.382449
0.386051
0.390046
0.394486
0.399418
0.404892
0.410963
0.417695
0.425156
0.433357
0.442111
0.451218
0.46064
0.470345
0.480299
0.490477
0.500866
0.5115
0.522648
0.53421
0.387716
0.391346
0.395698
0.400556
0.405959
0.411981
0.418695
0.426178
0.434514
0.443793
0.454103
0.465453
0.477571
0.490173
0.503209
0.516636
0.53042
0.544543
0.559023
0.573965
0.589844
0.606843
0.401809
0.406668
0.412484
0.419013
0.426323
0.43452
0.443703
0.453969
0.465416
0.478144
0.492259
0.507781
0.524379
0.541722
0.559807
0.578647
0.598276
0.61875
0.64017
0.662762
0.687193
0.713813
0.373239
0.373239
0.373239
0.373238
0.373238
0.373238
0.373238
0.373238
0.373238
0.373238
0.373237
0.373237
0.373237
0.373238
0.373238
0.373239
0.37324
0.373241
0.373242
0.373244
0.373245
0.373248
0.373258
0.373282
0.37333
0.373422
0.373577
0.373837
0.374329
0.375724
0.380424
0.398722
0.495839
0.878482
0.991311
0.369889
0.36989
0.36989
0.36989
0.36989
0.369891
0.369891
0.369892
0.369892
0.369893
0.369893
0.369894
0.369894
0.369895
0.369896
0.369897
0.369898
0.3699
0.369902
0.369906
0.369916
0.369936
0.369971
0.370012
0.370044
0.37004
0.369986
0.369923
0.37002
0.370435
0.37259
0.386772
0.479787
0.830768
1.19167
0.366757
0.366757
0.366757
0.366757
0.366757
0.366757
0.366757
0.366757
0.366757
0.366758
0.366758
0.366759
0.36676
0.366762
0.366765
0.366769
0.366773
0.36678
0.366789
0.366804
0.366824
0.366848
0.366848
0.366771
0.366541
0.366075
0.365276
0.364002
0.362043
0.35919
0.355661
0.358514
0.414294
0.693123
1.13855
0.363862
0.363862
0.363863
0.363863
0.363864
0.363865
0.363866
0.363868
0.363869
0.363871
0.363873
0.363875
0.363878
0.363881
0.363885
0.363891
0.363897
0.363906
0.363918
0.363933
0.363942
0.363917
0.363771
0.363399
0.362665
0.361403
0.359358
0.356106
0.350912
0.342588
0.329845
0.317455
0.359167
0.659426
1.04259
0.361142
0.361143
0.361143
0.361143
0.361144
0.361145
0.361146
0.361147
0.361148
0.36115
0.361152
0.361156
0.36116
0.361165
0.361172
0.361181
0.361193
0.361208
0.361224
0.361233
0.361207
0.361078
0.360689
0.359897
0.358516
0.356296
0.35285
0.347546
0.339377
0.3269
0.30921
0.295951
0.358571
0.668422
0.977729
0.358634
0.358635
0.358637
0.358639
0.358641
0.358643
0.358645
0.358648
0.358651
0.358655
0.35866
0.358665
0.358672
0.35868
0.358691
0.358703
0.358716
0.35873
0.358736
0.358714
0.358614
0.358321
0.357616
0.356334
0.354243
0.351021
0.346174
0.338946
0.328217
0.312631
0.292361
0.28316
0.368901
0.691906
0.936295
0.356268
0.356269
0.35627
0.356272
0.356273
0.356276
0.356278
0.356281
0.356285
0.35629
0.356296
0.356303
0.356311
0.356322
0.356336
0.356353
0.356371
0.356384
0.356378
0.356315
0.356121
0.355632
0.354571
0.352765
0.349944
0.34573
0.339572
0.33068
0.318029
0.300804
0.281969
0.284182
0.392414
0.716433
0.910411
0.354102
0.354105
0.354108
0.354111
0.354115
0.354119
0.354124
0.35413
0.354137
0.354144
0.354153
0.354164
0.354177
0.354192
0.354211
0.35423
0.354245
0.354246
0.354207
0.354077
0.353756
0.353038
0.351595
0.349258
0.345727
0.340597
0.333306
0.323116
0.309233
0.291577
0.27551
0.289425
0.424129
0.732799
0.892736
0.352052
0.352055
0.352057
0.352061
0.352064
0.352069
0.352074
0.352081
0.352089
0.352098
0.352109
0.352123
0.352139
0.352158
0.35218
0.352202
0.352217
0.352208
0.35214
0.351944
0.351493
0.350541
0.348716
0.345861
0.341663
0.335707
0.327451
0.316256
0.301618
0.284333
0.272399
0.300457
0.456381
0.744002
0.880562
0.350217
0.350221
0.350227
0.350233
0.35024
0.350247
0.350256
0.350267
0.350278
0.350292
0.350308
0.350326
0.350348
0.350373
0.350401
0.350424
0.350431
0.350397
0.350277
0.349985
0.349377
0.348173
0.345968
0.342618
0.337805
0.331123
0.322084
0.310196
0.295335
0.279315
0.272844
0.31561
0.484155
0.747534
0.870941
0.348486
0.34849
0.348495
0.3485
0.348507
0.348515
0.348525
0.348537
0.348551
0.348568
0.348588
0.34861
0.348637
0.348666
0.348696
0.348719
0.34872
0.348669
0.348511
0.348143
0.347396
0.345954
0.343382
0.339567
0.334197
0.326894
0.31724
0.304902
0.290123
0.275725
0.274577
0.331927
0.508199
0.750102
0.864178
0.34703
0.347037
0.347046
0.347055
0.347066
0.347078
0.347092
0.347109
0.347128
0.34715
0.347175
0.347204
0.347238
0.347274
0.347312
0.347336
0.347325
0.347239
0.347008
0.346522
0.345601
0.343907
0.340985
0.33674
0.330871
0.323036
0.312898
0.300297
0.28585
0.273318
0.278117
0.348049
0.52791
0.751276
0.860096
0.345689
0.345695
0.345703
0.345712
0.345723
0.345736
0.345752
0.345771
0.345794
0.34582
0.345851
0.345885
0.345924
0.345965
0.346002
0.346019
0.345994
0.345886
0.345619
0.345065
0.344013
0.342089
0.33882
0.334166
0.327849
0.319567
0.309069
0.296362
0.282427
0.271915
0.282923
0.363626
0.544226
0.751334
0.858367
0.344777
0.344786
0.344798
0.34481
0.344824
0.344841
0.34486
0.344883
0.34491
0.344941
0.344978
0.345019
0.345064
0.345113
0.345157
0.345178
0.345141
0.344987
0.344622
0.343913
0.342662
0.340493
0.336917
0.331892
0.325166
0.316496
0.305713
0.292991
0.279666
0.271342
0.288235
0.377697
0.556435
0.751162
0.858762
0.34402
0.344029
0.34404
0.344053
0.344068
0.344085
0.344106
0.344131
0.344161
0.344196
0.344236
0.344282
0.344332
0.344381
0.344418
0.344417
0.344345
0.344159
0.343772
0.343024
0.341673
0.339263
0.335322
0.329928
0.322836
0.313831
0.302838
0.290185
0.277551
0.271461
0.293743
0.390088
0.566272
0.751058
0.860536
0.344094
0.3441
0.344109
0.34412
0.344133
0.344149
0.344168
0.344192
0.344221
0.344255
0.344295
0.34434
0.344388
0.344433
0.344464
0.344452
0.344359
0.344099
0.343555
0.342576
0.340937
0.338305
0.334129
0.32837
0.320902
0.311587
0.300408
0.287842
0.275895
0.271867
0.299156
0.400291
0.572809
0.750822
0.864377
0.344568
0.344572
0.344579
0.344586
0.344594
0.344605
0.34462
0.344638
0.344662
0.344691
0.344724
0.344763
0.344802
0.344838
0.344853
0.344817
0.344686
0.34438
0.343781
0.342726
0.340967
0.337947
0.333253
0.327193
0.319403
0.309776
0.29844
0.28599
0.27468
0.272627
0.303923
0.408545
0.578159
0.750848
0.870568
0.345744
0.345739
0.345739
0.345737
0.345735
0.345734
0.345736
0.345741
0.345751
0.345765
0.345783
0.345803
0.345822
0.345832
0.345815
0.345737
0.345548
0.345166
0.34447
0.343284
0.341341
0.338143
0.333185
0.326521
0.318322
0.308443
0.296914
0.284508
0.273831
0.273682
0.308276
0.415074
0.581206
0.750882
0.878737
0.348058
0.348036
0.34802
0.348
0.347977
0.347954
0.347931
0.34791
0.34789
0.347873
0.347858
0.347841
0.347818
0.347779
0.3477
0.347544
0.347255
0.346743
0.345881
0.344477
0.342274
0.338792
0.333504
0.326596
0.317881
0.307519
0.295851
0.283547
0.27333
0.274707
0.311789
0.419813
0.583207
0.75081
0.888868
0.351917
0.351861
0.351811
0.351753
0.351689
0.35162
0.351548
0.351474
0.351397
0.351317
0.351234
0.351143
0.35104
0.350909
0.350726
0.35045
0.350023
0.34935
0.348288
0.346634
0.344086
0.340146
0.334367
0.327055
0.318049
0.307357
0.29524
0.282809
0.273148
0.275784
0.314724
0.422988
0.583433
0.750816
0.900953
0.357696
0.357585
0.357478
0.357356
0.35722
0.357074
0.356917
0.35675
0.356573
0.356385
0.356184
0.355966
0.355723
0.355439
0.355085
0.354623
0.353995
0.353095
0.351769
0.349799
0.346875
0.342456
0.336066
0.32811
0.318641
0.307611
0.295315
0.2828
0.27326
0.276787
0.316888
0.4251
0.583093
0.75089
0.914946
0.365989
0.365788
0.365585
0.365356
0.365102
0.364826
0.364528
0.364207
0.363863
0.363495
0.363101
0.362675
0.362208
0.361681
0.361063
0.36032