/*--------------------------------*- C++ -*----------------------------------*\
  =========                 |
  \\      /  F ield         | OpenFOAM: The Open Source CFD Toolbox
   \\    /   O peration     | Website:  https://openfoam.org
    \\  /    A nd           | Version:  8
     \\/     M anipulation  |
\*---------------------------------------------------------------------------*/
FoamFile
{
    version     2.0;
    format      ascii;
    class       volScalarField;
    location    "700";
    object      nut;
}
// * * * * * * * * * * * * * * * * * * * * * * * * * * * * * * * * * * * * * //

dimensions      [0 2 -1 0 0 0 0];

internalField   nonuniform List<scalar> 
15677
(
7.48315e-05
0.000154182
0.000258075
0.000722819
0.00180655
0.00331916
0.00477685
0.00581866
0.00636659
0.00658976
0.00667781
0.00671618
0.00671483
0.00670856
0.00670616
0.00670573
0.00670575
0.00670578
0.00670576
0.00670573
0.0067057
0.00670568
0.00670566
0.00670565
0.00670565
0.00670565
0.00670565
0.00670565
0.00670565
0.00670566
0.00670566
0.00670566
0.00670567
0.00670567
0.00670567
8.20519e-05
0.000137573
0.000177804
0.000375034
0.000873857
0.00172063
0.00284137
0.00405913
0.00517076
0.00598093
0.00641389
0.00659624
0.00668359
0.00670344
0.00670347
0.00670188
0.00670116
0.00670102
0.00670105
0.0067011
0.00670113
0.00670114
0.00670115
0.00670115
0.00670115
0.00670115
0.00670115
0.00670114
0.00670114
0.00670113
0.00670113
0.00670112
0.00670111
0.00670111
0.0067011
8.02048e-05
0.000111442
0.000147521
0.000310404
0.000665551
0.00126635
0.00211335
0.00314468
0.00423193
0.00521267
0.00595696
0.00639458
0.0065911
0.00667466
0.0066949
0.00669775
0.0066973
0.00669675
0.00669647
0.00669635
0.00669629
0.00669625
0.00669623
0.00669621
0.00669619
0.00669618
0.00669618
0.00669618
0.00669618
0.00669618
0.00669618
0.00669618
0.00669618
0.00669619
0.00669619
7.67524e-05
0.000108575
0.000125409
0.000257592
0.00056673
0.00106519
0.00176678
0.00264966
0.00364262
0.00462974
0.00548098
0.00609892
0.00645425
0.00661939
0.00667436
0.00668937
0.00669254
0.00669283
0.00669267
0.00669256
0.00669251
0.00669249
0.00669247
0.00669246
0.00669245
0.00669243
0.00669242
0.00669241
0.0066924
0.00669239
0.00669237
0.00669236
0.00669235
0.00669234
0.00669234
7.4328e-05
0.000111402
0.000122935
0.000234048
0.000504742
0.000947329
0.00156267
0.00234438
0.00325129
0.00420198
0.00508686
0.0058004
0.00628312
0.00654086
0.00664236
0.00667623
0.0066861
0.00668832
0.00668853
0.00668836
0.00668821
0.0066881
0.00668803
0.00668799
0.00668795
0.00668793
0.00668791
0.00668789
0.00668788
0.00668787
0.00668787
0.00668787
0.00668787
0.00668787
0.00668787
7.27367e-05
0.000117705
0.000123036
0.000212559
0.000461384
0.000868495
0.00142923
0.00214051
0.00297786
0.00388339
0.00476806
0.00553147
0.00609617
0.00643974
0.00659542
0.00665574
0.00667695
0.00668341
0.00668501
0.00668525
0.0066852
0.00668512
0.00668506
0.006685
0.00668496
0.00668492
0.00668489
0.00668487
0.00668484
0.00668482
0.0066848
0.00668478
0.00668476
0.00668474
0.00668472
7.17268e-05
0.000124131
0.000127111
0.000205301
0.000427959
0.000808182
0.0013326
0.00199453
0.00277812
0.00364112
0.00451156
0.00529892
0.00592073
0.00633609
0.00654059
0.00662898
0.00666416
0.00667661
0.00668038
0.00668125
0.00668129
0.00668116
0.00668104
0.00668095
0.00668088
0.00668082
0.00668077
0.00668073
0.0066807
0.00668068
0.00668066
0.00668064
0.00668063
0.00668063
0.00668062
7.10274e-05
0.000129462
0.000135618
0.000196385
0.000401354
0.000758992
0.00125726
0.00188355
0.00262582
0.00345205
0.00430354
0.00510013
0.00576
0.00622973
0.0064804
0.0065977
0.00664885
0.0066691
0.0066763
0.00667854
0.00667907
0.00667908
0.00667898
0.00667887
0.00667878
0.0066787
0.00667864
0.00667858
0.00667854
0.00667849
0.00667846
0.00667842
0.00667839
0.00667835
0.00667832
7.05444e-05
0.000133924
0.000144973
0.00019205
0.000377305
0.000717628
0.00119521
0.00179525
0.00250589
0.00330159
0.00413359
0.00493115
0.00561582
0.00612728
0.00641792
0.00656287
0.00663057
0.00665942
0.00667055
0.00667434
0.00667538
0.00667552
0.00667542
0.0066753
0.00667518
0.00667507
0.00667498
0.0066749
0.00667483
0.00667477
0.00667472
0.00667469
0.00667466
0.00667463
0.00667462
7.01599e-05
0.0001366
0.000153662
0.000192664
0.000357588
0.000682535
0.00114352
0.00172315
0.00240892
0.00317942
0.00399321
0.00478751
0.00548822
0.00603189
0.00635644
0.00652699
0.00661139
0.00664989
0.00666605
0.00667221
0.00667426
0.00667472
0.0066747
0.00667456
0.00667441
0.00667427
0.00667416
0.00667406
0.00667398
0.00667391
0.00667385
0.00667379
0.00667373
0.00667368
0.00667363
6.98892e-05
0.000139303
0.000161876
0.000195257
0.000340009
0.000648758
0.00109805
0.0016628
0.00232963
0.00307959
0.00387702
0.00466585
0.00537659
0.00594476
0.00629744
0.00649079
0.00659085
0.00663858
0.00665954
0.00666796
0.00667097
0.0066718
0.00667191
0.00667181
0.00667165
0.00667149
0.00667134
0.0066712
0.00667107
0.00667095
0.00667085
0.00667077
0.0066707
0.00667064
0.0066706
6.97259e-05
0.000141482
0.000169141
0.000199187
0.000327657
0.000619682
0.00105729
0.0016108
0.00226306
0.00299684
0.00378035
0.00456301
0.00527982
0.00586675
0.00624302
0.00645667
0.00657173
0.00662934
0.00665613
0.00666761
0.00667201
0.00667334
0.00667357
0.00667346
0.00667327
0.00667306
0.00667289
0.00667274
0.00667261
0.00667251
0.00667242
0.00667234
0.00667226
0.00667219
0.00667212
6.96586e-05
0.00014315
0.000175689
0.000204039
0.000319005
0.000594533
0.00102161
0.00156622
0.00220809
0.00292859
0.00370024
0.00447678
0.00519721
0.00579854
0.00619378
0.00642477
0.00655298
0.00661879
0.00665025
0.00666428
0.00667002
0.00667198
0.00667249
0.0066725
0.00667235
0.00667215
0.00667193
0.00667172
0.00667152
0.00667132
0.00667113
0.00667097
0.00667082
0.0066707
0.0066706
6.96757e-05
0.000144393
0.000181039
0.000209209
0.000313491
0.00057426
0.000990902
0.00152815
0.00216148
0.00287302
0.00363455
0.00440548
0.00512771
0.0057396
0.00615126
0.00639753
0.0065382
0.00661364
0.00665115
0.0066684
0.00667564
0.00667817
0.00667884
0.00667886
0.00667866
0.0066784
0.00667815
0.00667793
0.00667775
0.00667761
0.00667751
0.00667743
0.00667738
0.00667735
0.00667731
6.97495e-05
0.000145372
0.000185822
0.000214309
0.000309978
0.000557786
0.000964826
0.00149609
0.00212319
0.00282692
0.00358199
0.00434743
0.00507073
0.00569231
0.00611558
0.00637478
0.00652574
0.00660668
0.00664804
0.006668
0.00667693
0.00668033
0.00668144
0.00668169
0.00668162
0.00668144
0.00668122
0.006681
0.00668076
0.00668052
0.00668027
0.00668001
0.00667974
0.00667946
0.00667918
6.99078e-05
0.000146044
0.000189428
0.000219076
0.000308407
0.000544338
0.000943079
0.00146962
0.00209266
0.00279095
0.00354028
0.00430297
0.00502704
0.00565213
0.00608557
0.00635689
0.00651953
0.00661174
0.0066598
0.00668316
0.00669395
0.00669828
0.00669982
0.00670026
0.00670026
0.00670011
0.00669991
0.00669969
0.00669948
0.00669929
0.00669913
0.00669901
0.00669894
0.00669894
0.00669904
7.01599e-05
0.000146527
0.000192937
0.000223418
0.000307664
0.000534233
0.000925505
0.00144883
0.00206925
0.00276405
0.00350937
0.0042687
0.00499185
0.00562858
0.00607607
0.00635383
0.00652142
0.00661667
0.00666726
0.00669245
0.0067043
0.00670928
0.00671118
0.00671186
0.00671204
0.00671201
0.00671191
0.00671178
0.00671164
0.00671151
0.0067114
0.00671133
0.00671127
0.00671123
0.00671118
7.04904e-05
0.000146763
0.000195261
0.000227626
0.000308524
0.000527809
0.000912277
0.00143278
0.00205275
0.00274644
0.00348884
0.0042475
0.00497809
0.00561667
0.00606854
0.00635484
0.00652868
0.00662837
0.00668234
0.00670987
0.0067232
0.00672909
0.0067316
0.0067327
0.00673319
0.00673343
0.00673354
0.00673359
0.00673361
0.00673362
0.00673363
0.00673364
0.00673364
0.00673364
0.00673365
7.08976e-05
0.000146724
0.000197267
0.000230973
0.000309591
0.000523283
0.000902908
0.00142321
0.00204281
0.00273548
0.00348
0.00424232
0.00497001
0.00561081
0.00606762
0.00636161
0.00654431
0.00665088
0.00670996
0.00674107
0.00675681
0.00676421
0.00676769
0.00676948
0.00677053
0.00677121
0.0067717
0.00677206
0.00677235
0.00677257
0.00677275
0.00677288
0.00677298
0.00677304
0.00677312
7.13799e-05
0.000146572
0.000198576
0.000234468
0.000311886
0.000521747
0.000897959
0.0014165
0.00203941
0.00273733
0.0034822
0.00424211
0.00497013
0.00561633
0.00608172
0.00638366
0.00657257
0.00668438
0.00674741
0.00678153
0.00679938
0.00680848
0.00681342
0.00681639
0.00681847
0.00682007
0.00682138
0.00682249
0.00682344
0.00682427
0.006825
0.00682565
0.00682624
0.00682678
0.00682735
7.1934e-05
0.00014624
0.000199706
0.000237362
0.00031422
0.000521628
0.000896196
0.00141792
0.00204499
0.00274415
0.00349042
0.00425105
0.00498506
0.00563847
0.00611062
0.00641908
0.00661417
0.00673143
0.00679874
0.00683613
0.00685703
0.00686884
0.00687594
0.00688077
0.00688443
0.00688739
0.00688989
0.00689204
0.00689393
0.00689561
0.00689712
0.0068985
0.00689977
0.00690095
0.0069021
7.25556e-05
0.000145722
0.000200508
0.000239369
0.000317705
0.000524214
0.00089836
0.00142233
0.00205334
0.00275592
0.00350794
0.00427513
0.0050145
0.00567433
0.00615367
0.00646896
0.00667067
0.00679332
0.00686512
0.00690647
0.0069314
0.00694645
0.00695639
0.00696381
0.00696988
0.00697511
0.00697974
0.00698388
0.0069876
0.00699096
0.006994
0.00699677
0.0069993
0.0070016
0.00700376
7.32389e-05
0.000145062
0.000200867
0.000241462
0.000320644
0.000528268
0.000903246
0.00143044
0.00206747
0.00277752
0.0035366
0.00431074
0.00505727
0.00572504
0.00621242
0.0065353
0.00674438
0.00687315
0.00694974
0.00699743
0.00702763
0.00704773
0.00706235
0.00707406
0.007084
0.00709269
0.00710041
0.00710732
0.00711356
0.00711922
0.00712439
0.00712911
0.00713342
0.00713736
0.00714101
7.39777e-05
0.000144283
0.000200927
0.000243506
0.000324126
0.000533337
0.000911068
0.00144362
0.00208832
0.00280835
0.00357521
0.00435793
0.00511341
0.00579057
0.00628733
0.00661979
0.00683608
0.00697023
0.00705547
0.00710998
0.00714695
0.00717358
0.00719424
0.00721159
0.00722691
0.00724079
0.00725349
0.00726515
0.00727584
0.00728562
0.00729456
0.00730272
0.00731015
0.00731691
0.00732307
7.47657e-05
0.000143391
0.000200749
0.000245148
0.000327895
0.000540066
0.000921881
0.00146113
0.00211572
0.00284567
0.00362329
0.00441677
0.00518331
0.00587217
0.00638045
0.00672296
0.00694693
0.00709057
0.00718556
0.00724929
0.00729581
0.00733218
0.00736237
0.0073889
0.00741286
0.00743466
0.00745456
0.00747274
0.00748939
0.00750468
0.00751872
0.0075316
0.00754339
0.00755415
0.00756393
7.55949e-05
0.00014242
0.000200344
0.000246446
0.000332081
0.00054828
0.000935375
0.00148327
0.00214944
0.00289068
0.00368076
0.00448715
0.005267
0.00596934
0.0064922
0.00684478
0.00707734
0.00723456
0.00734064
0.00741606
0.00747501
0.0075241
0.00756651
0.00760458
0.00763958
0.00767218
0.00770269
0.00773125
0.00775786
0.00778252
0.00780528
0.00782618
0.00784531
0.00786275
0.00787842
7.646e-05
0.000141367
0.000199753
0.000247624
0.000336624
0.000557851
0.000951361
0.00150879
0.00218777
0.0029428
0.00374741
0.00456888
0.0053642
0.00608435
0.00662191
0.00698453
0.00723299
0.00740459
0.00752521
0.00761623
0.00769209
0.00775895
0.00781931
0.00787551
0.00792846
0.00797822
0.00802466
0.00806778
0.00810774
0.00814477
0.00817909
0.00821084
0.00824009
0.00826696
0.00829106
7.73501e-05
0.000140269
0.000199003
0.000248567
0.000341267
0.000568515
0.000969503
0.00153823
0.00223118
0.0030019
0.00382295
0.00466174
0.00547581
0.0062153
0.00676821
0.00714468
0.0074123
0.0076006
0.00773909
0.00784966
0.00794739
0.00803803
0.00812247
0.00820189
0.00827682
0.00834777
0.00841532
0.00847979
0.00854111
0.00859898
0.00865306
0.00870316
0.00874926
0.00879154
0.0088292
7.82636e-05
0.00013912
0.000198116
0.000249437
0.000346223
0.000580341
0.000989898
0.0015714
0.00227936
0.00306738
0.00390698
0.00476542
0.0056018
0.00636107
0.00692897
0.00732856
0.00761607
0.00782512
0.00798641
0.00812268
0.00824952
0.00837135
0.00848721
0.008599
0.00870829
0.0088152
0.00891857
0.00901689
0.00910921
0.00919538
0.00927588
0.00935143
0.00942263
0.00948991
0.00955114
7.91858e-05
0.000137954
0.000197126
0.000250114
0.000351342
0.000593086
0.00101207
0.00160779
0.00233228
0.00313923
0.00399906
0.00487964
0.00574112
0.00652036
0.00710839
0.00753394
0.00784451
0.00807861
0.00826792
0.00843605
0.00859971
0.00876386
0.00892718
0.0090901
0.00925036
0.00940501
0.00955303
0.00969573
0.00983527
0.0099732
0.0101097
0.0102435
0.0103729
0.0104962
0.0106071
0.00670568
0.0067057
0.00670571
0.00670573
0.00670574
0.00670576
0.00670578
0.0067058
0.00670582
0.00670584
0.00670586
0.00670588
0.0067059
0.00670592
0.00670594
0.00670595
0.00670597
0.00670598
0.006706
0.00670601
0.00670602
0.00670603
0.00670111
0.00670114
0.00670116
0.00670118
0.0067012
0.00670123
0.00670125
0.00670127
0.00670129
0.00670132
0.00670134
0.00670137
0.0067014
0.00670143
0.00670145
0.00670148
0.00670151
0.00670154
0.00670157
0.0067016
0.00670163
0.00670166
0.00669622
0.00669627
0.00669633
0.00669639
0.00669645
0.00669651
0.00669658
0.00669665
0.00669672
0.00669679
0.00669687
0.00669694
0.00669701
0.00669708
0.00669715
0.00669721
0.00669727
0.00669733
0.00669738
0.00669744
0.00669749
0.00669753
0.00669236
0.00669241
0.00669246
0.00669252
0.00669257
0.00669263
0.00669269
0.00669274
0.0066928
0.00669287
0.00669293
0.006693
0.00669307
0.00669313
0.0066932
0.00669327
0.00669334
0.00669341
0.00669348
0.00669355
0.00669362
0.00669368
0.00668791
0.006688
0.00668809
0.00668818
0.00668828
0.00668838
0.00668849
0.0066886
0.00668872
0.00668884
0.00668896
0.00668908
0.0066892
0.00668931
0.00668942
0.00668952
0.00668962
0.00668971
0.0066898
0.00668989
0.00668997
0.00669005
0.00668475
0.00668482
0.00668489
0.00668497
0.00668504
0.00668512
0.0066852
0.00668528
0.00668536
0.00668544
0.00668553
0.00668563
0.00668573
0.00668583
0.00668593
0.00668603
0.00668614
0.00668624
0.00668635
0.00668645
0.00668655
0.00668665
0.00668067
0.00668078
0.00668089
0.00668101
0.00668113
0.00668126
0.0066814
0.00668155
0.00668171
0.00668187
0.00668203
0.00668219
0.00668235
0.0066825
0.00668264
0.00668277
0.00668289
0.00668301
0.00668313
0.00668324
0.00668334
0.00668345
0.00667834
0.00667841
0.00667849
0.00667856
0.00667863
0.00667871
0.00667878
0.00667886
0.00667894
0.00667902
0.00667911
0.00667921
0.00667932
0.00667944
0.00667956
0.00667969
0.00667983
0.00667996
0.0066801
0.00668023
0.00668036
0.00668048
0.00667466
0.00667475
0.00667485
0.00667497
0.0066751
0.00667525
0.0066754
0.00667558
0.00667576
0.00667596
0.00667615
0.00667635
0.00667653
0.0066767
0.00667685
0.00667699
0.00667712
0.00667724
0.00667736
0.00667748
0.00667759
0.00667771
0.00667362
0.00667365
0.00667368
0.00667371
0.00667373
0.00667375
0.00667377
0.00667378
0.00667379
0.00667381
0.00667385
0.00667391
0.00667399
0.0066741
0.00667423
0.00667438
0.00667453
0.00667469
0.00667484
0.00667499
0.00667514
0.00667528
0.00667059
0.0066706
0.00667062
0.00667067
0.00667075
0.00667086
0.00667101
0.00667119
0.00667139
0.00667161
0.00667182
0.00667201
0.00667217
0.0066723
0.0066724
0.00667249
0.00667257
0.00667265
0.00667273
0.00667283
0.00667293
0.00667304
0.00667203
0.00667193
0.00667183
0.00667172
0.00667158
0.00667141
0.00667122
0.006671
0.00667077
0.00667057
0.00667041
0.00667032
0.00667032
0.00667038
0.00667049
0.00667063
0.00667079
0.00667094
0.00667109
0.00667121
0.00667133
0.00667144
0.00667042
0.00667012
0.00666985
0.00666965
0.00666954
0.00666954
0.00666964
0.00666982
0.00667004
0.00667026
0.00667042
0.0066705
0.00667048
0.00667039
0.00667026
0.00667013
0.00667001
0.00666992
0.00666989
0.00666989
0.00666994
0.00667002
0.00667711
0.00667676
0.00667638
0.0066759
0.00667528
0.00667451
0.00667363
0.00667268
0.00667174
0.00667091
0.00667026
0.00666983
0.00666964
0.00666963
0.00666972
0.00666985
0.00666997
0.00667005
0.00667007
0.00667005
0.00666998
0.00666991
0.00667833
0.00667682
0.00667564
0.00667485
0.00667443
0.00667436
0.00667456
0.00667489
0.00667522
0.0066754
0.00667529
0.00667483
0.0066741
0.00667323
0.00667234
0.00667154
0.00667088
0.00667041
0.00667011
0.00666996
0.00666992
0.00666997
0.00669855
0.00669749
0.00669586
0.0066939
0.00669157
0.00668875
0.0066857
0.00668264
0.00667976
0.00667731
0.00667576
0.00667496
0.00667475
0.00667487
0.00667508
0.00667522
0.00667518
0.00667491
0.00667443
0.00667381
0.00667312
0.00667245
0.00671009
0.0067078
0.00670554
0.00670331
0.00670135
0.00670002
0.00669893
0.00669795
0.00669695
0.00669578
0.00669368
0.00669097
0.00668771
0.00668445
0.00668146
0.00667894
0.00667714
0.00667609
0.0066756
0.00667545
0.00667547
0.00667558
0.00673191
0.00672829
0.00672481
0.00672156
0.00671849
0.00671557
0.00671284
0.00671024
0.00670764
0.00670496
0.00670235
0.0067
0.0066985
0.00669731
0.00669623
0.00669511
0.00669354
0.00669139
0.00668878
0.00668611
0.0066836
0.00668141
0.00677021
0.00676404
0.00675795
0.00675217
0.00674665
0.00674131
0.00673631
0.00673168
0.00672722
0.00672293
0.00671899
0.00671534
0.00671203
0.00670912
0.00670645
0.00670392
0.00670154
0.00669948
0.00669812
0.006697
0.00669596
0.00669493
0.00682375
0.00681556
0.00680743
0.00679952
0.00679177
0.0067841
0.00677647
0.0067689
0.00676148
0.00675414
0.00674716
0.00674061
0.00673451
0.00672911
0.00672446
0.00672032
0.00671668
0.00671353
0.00671068
0.00670817
0.00670589
0.00670391
0.00689705
0.00688509
0.00687315
0.00686153
0.00685017
0.00683904
0.00682813
0.00681748
0.00680721
0.00679748
0.00678815
0.00677916
0.00677067
0.00676281
0.00675544
0.00674863
0.00674236
0.00673672
0.00673156
0.00672692
0.00672281
0.00671935
0.00699696
0.00697995
0.00696292
0.0069463
0.00693006
0.00691419
0.00689868
0.00688358
0.00686895
0.00685485
0.00684127
0.00682825
0.00681608
0.00680494
0.00679476
0.00678558
0.00677739
0.0067699
0.006763
0.00675667
0.00675086
0.0067456
0.00713188
0.00710798
0.00708404
0.00706066
0.00703782
0.00701549
0.00699369
0.00697245
0.0069518
0.00693182
0.00691253
0.00689405
0.00687686
0.00686117
0.00684689
0.00683393
0.0068222
0.00681153
0.00680179
0.00679287
0.00678473
0.00677745
0.0073113
0.00727833
0.00724527
0.00721289
0.00718122
0.00715023
0.00711996
0.00709042
0.00706168
0.0070338
0.00700684
0.00698103
0.00695704
0.00693519
0.00691531
0.00689725
0.00688085
0.00686595
0.00685238
0.00684
0.00682872
0.00681865
0.00754869
0.00750357
0.00745833
0.00741397
0.00737051
0.00732795
0.0072863
0.00724563
0.00720601
0.00716755
0.00713035
0.00709474
0.00706166
0.00703157
0.00700422
0.00697936
0.00695679
0.00693628
0.00691764
0.00690068
0.00688525
0.0068715
0.00785939
0.00779841
0.0077372
0.00767706
0.00761807
0.00756025
0.00750361
0.00744821
0.00739418
0.00734165
0.00729078
0.00724207
0.00719685
0.00715575
0.00711844
0.00708459
0.00705388
0.00702601
0.00700072
0.00697772
0.00695682
0.00693817
0.00826718
0.00818483
0.00810231
0.00802103
0.00794112
0.00786271
0.00778589
0.00771081
0.00763762
0.00756653
0.00749773
0.00743188
0.00737075
0.00731519
0.00726472
0.00721893
0.00717743
0.00713984
0.0071058
0.00707494
0.00704696
0.00702203
0.00879979
0.00868809
0.00857784
0.00846962
0.00836289
0.00825758
0.00815397
0.00805237
0.0079531
0.00785655
0.00776314
0.00767397
0.00759153
0.00751693
0.00744942
0.00738831
0.00733296
0.00728282
0.00723739
0.00719622
0.00715892
0.00712567
0.00951431
0.00935204
0.00919641
0.00904828
0.00890507
0.00876506
0.0086277
0.00849307
0.00836151
0.00823326
0.00810851
0.00798853
0.00787694
0.00777574
0.00768439
0.00760219
0.0075283
0.00746184
0.00740195
0.00734778
0.00729871
0.00725481
0.0105653
0.010317
0.0100735
0.00984546
0.00963191
0.00942983
0.00923676
0.00905105
0.00887203
0.00870041
0.00853652
0.00838062
0.00823581
0.00810362
0.00798288
0.00787298
0.00777353
0.00768413
0.0076041
0.00753255
0.00746852
0.00741179
0.00670604
0.00670604
0.00670604
0.00670604
0.00670604
0.00670604
0.00670167
0.00670167
0.00670167
0.00670167
0.00670167
0.00670167
0.00669756
0.00669756
0.00669756
0.00669756
0.00669756
0.00669756
0.00669371
0.00669371
0.00669371
0.00669371
0.00669371
0.00669371
0.00669009
0.00669008
0.00669008
0.00669008
0.00669008
0.00669009
0.0066867
0.0066867
0.0066867
0.0066867
0.0066867
0.0066867
0.00668349
0.00668349
0.00668349
0.00668349
0.00668349
0.00668349
0.00668055
0.00668055
0.00668055
0.00668055
0.00668055
0.00668055
0.00667776
0.00667776
0.00667775
0.00667775
0.00667776
0.00667776
0.00667535
0.00667535
0.00667535
0.00667535
0.00667535
0.00667535
0.00667309
0.00667309
0.00667309
0.00667309
0.00667309
0.00667309
0.00667147
0.00667145
0.00667144
0.00667144
0.00667145
0.00667147
0.00667008
0.00667011
0.00667013
0.00667013
0.00667011
0.00667008
0.0066698
0.00666968
0.00666963
0.00666963
0.00666969
0.0066698
0.0066701
0.00667024
0.00667033
0.00667033
0.00667024
0.00667009
0.00667189
0.00667155
0.00667139
0.00667139
0.00667155
0.00667189
0.00667591
0.00667626
0.00667645
0.00667645
0.00667626
0.00667591
0.00668
0.00667948
0.00667931
0.00667931
0.00667947
0.00668
0.00669448
0.00669454
0.00669454
0.00669454
0.00669454
0.00669448
0.0067029
0.00670278
0.00670281
0.00670281
0.00670278
0.0067029
0.00671761
0.00671739
0.00671742
0.00671742
0.00671739
0.00671761
0.0067429
0.00674251
0.00674251
0.00674251
0.00674251
0.0067429
0.00677375
0.00677341
0.00677342
0.00677342
0.00677341
0.00677376
0.00681353
0.00681302
0.00681305
0.00681305
0.00681303
0.00681354
0.00686457
0.00686395
0.00686401
0.00686401
0.00686396
0.00686459
0.00692878
0.00692799
0.00692808
0.00692808
0.006928
0.0069288
0.0070096
0.00700869
0.00700884
0.00700884
0.0070087
0.00700963
0.00710916
0.00710814
0.0071084
0.0071084
0.00710816
0.00710921
0.00723291
0.00723154
0.00723178
0.00723179
0.00723156
0.00723297
0.00738412
0.00738277
0.00738314
0.00738315
0.00738281
0.0073842
0.00670603
0.00670602
0.00670601
0.006706
0.00670598
0.00670597
0.00670595
0.00670594
0.00670592
0.0067059
0.00670588
0.00670586
0.00670584
0.00670582
0.0067058
0.00670578
0.00670576
0.00670575
0.00670573
0.00670571
0.0067057
0.00670568
0.00670166
0.00670163
0.0067016
0.00670157
0.00670154
0.00670151
0.00670148
0.00670145
0.00670142
0.0067014
0.00670137
0.00670134
0.00670132
0.00670129
0.00670127
0.00670124
0.00670122
0.0067012
0.00670117
0.00670115
0.00670113
0.00670111
0.00669753
0.00669748
0.00669743
0.00669738
0.00669733
0.00669727
0.00669721
0.00669715
0.00669708
0.00669701
0.00669694
0.00669687
0.00669679
0.00669672
0.00669665
0.00669658
0.00669652
0.00669645
0.00669639
0.00669634
0.00669628
0.00669623
0.00669368
0.00669361
0.00669355
0.00669348
0.00669341
0.00669334
0.00669327
0.0066932
0.00669313
0.00669306
0.00669299
0.00669293
0.00669286
0.0066928
0.00669273
0.00669268
0.00669262
0.00669256
0.0066925
0.00669245
0.00669239
0.00669234
0.00669005
0.00668997
0.00668988
0.0066898
0.00668971
0.00668961
0.00668952
0.00668942
0.00668931
0.0066892
0.00668908
0.00668896
0.00668884
0.00668872
0.0066886
0.00668849
0.00668839
0.00668829
0.00668819
0.0066881
0.00668801
0.00668793
0.00668665
0.00668655
0.00668644
0.00668634
0.00668624
0.00668613
0.00668603
0.00668592
0.00668582
0.00668572
0.00668562
0.00668553
0.00668544
0.00668535
0.00668527
0.00668518
0.0066851
0.00668502
0.00668495
0.00668487
0.0066848
0.00668472
0.00668344
0.00668334
0.00668323
0.00668312
0.00668301
0.00668289
0.00668276
0.00668263
0.00668249
0.00668234
0.00668219
0.00668202
0.00668186
0.0066817
0.00668155
0.0066814
0.00668127
0.00668114
0.00668102
0.0066809
0.00668079
0.00668069
0.00668048
0.00668035
0.00668022
0.00668009
0.00667995
0.00667982
0.00667969
0.00667956
0.00667943
0.00667932
0.00667921
0.00667911
0.00667901
0.00667893
0.00667885
0.00667877
0.00667869
0.00667861
0.00667854
0.00667846
0.00667838
0.00667831
0.00667771
0.00667759
0.00667747
0.00667735
0.00667723
0.00667711
0.00667698
0.00667684
0.00667669
0.00667652
0.00667634
0.00667615
0.00667595
0.00667575
0.00667557
0.0066754
0.00667525
0.00667511
0.00667498
0.00667487
0.00667477
0.00667468
0.00667528
0.00667514
0.00667499
0.00667484
0.00667468
0.00667452
0.00667437
0.00667423
0.0066741
0.00667399
0.00667391
0.00667385
0.00667381
0.0066738
0.00667378
0.00667377
0.00667375
0.00667372
0.00667369
0.00667366
0.00667362
0.00667359
0.00667304
0.00667293
0.00667282
0.00667273
0.00667264
0.00667256
0.00667248
0.0066724
0.00667229
0.00667216
0.006672
0.00667181
0.0066716
0.00667138
0.00667118
0.006671
0.00667086
0.00667076
0.00667068
0.00667064
0.00667062
0.00667061
0.00667143
0.00667133
0.00667121
0.00667108
0.00667093
0.00667078
0.00667062
0.00667048
0.00667037
0.00667032
0.00667033
0.00667042
0.00667059
0.0066708
0.00667102
0.00667124
0.00667144
0.0066716
0.00667172
0.00667183
0.00667192
0.00667201
0.00667002
0.00666994
0.00666989
0.00666989
0.00666992
0.00667001
0.00667013
0.00667027
0.00667039
0.00667048
0.00667049
0.00667041
0.00667024
0.00667003
0.00666981
0.00666963
0.00666954
0.00666955
0.00666967
0.00666987
0.00667014
0.00667042
0.00666991
0.00666999
0.00667005
0.00667007
0.00667004
0.00666996
0.00666984
0.00666971
0.00666963
0.00666964
0.00666984
0.00667028
0.00667095
0.0066718
0.00667275
0.00667371
0.00667459
0.00667535
0.00667595
0.00667641
0.00667678
0.00667712
0.00666996
0.00666992
0.00666996
0.00667011
0.00667042
0.0066709
0.00667156
0.00667236
0.00667324
0.00667411
0.00667483
0.00667528
0.00667539
0.00667521
0.00667488
0.00667455
0.00667436
0.00667445
0.00667489
0.0066757
0.00667687
0.00667833
0.00667245
0.00667314
0.00667383
0.00667445
0.00667492
0.00667518
0.00667522
0.00667507
0.00667486
0.00667476
0.00667497
0.00667578
0.00667738
0.00667988
0.00668281
0.0066859
0.00668897
0.00669178
0.00669406
0.00669598
0.00669754
0.00669857
0.00667557
0.00667547
0.00667544
0.0066756
0.00667611
0.00667718
0.006679
0.00668153
0.00668451
0.00668776
0.00669099
0.00669371
0.00669584
0.00669702
0.00669803
0.00669903
0.00670013
0.00670149
0.00670348
0.0067057
0.00670792
0.00671015
0.00668142
0.00668363
0.00668617
0.00668886
0.00669148
0.00669361
0.00669516
0.00669627
0.00669735
0.00669854
0.00670004
0.00670239
0.00670505
0.00670777
0.0067104
0.00671304
0.00671579
0.00671874
0.0067218
0.00672504
0.00672848
0.00673203
0.00669493
0.00669598
0.00669703
0.00669816
0.00669954
0.00670162
0.006704
0.00670654
0.0067092
0.0067121
0.00671539
0.00671906
0.00672307
0.00672743
0.00673195
0.00673664
0.00674171
0.00674708
0.0067526
0.00675835
0.00676438
0.00677041
0.00670392
0.00670593
0.00670823
0.00671077
0.00671363
0.0067168
0.00672046
0.0067246
0.00672925
0.00673463
0.00674069
0.00674727
0.00675437
0.00676181
0.00676933
0.00677699
0.00678466
0.00679236
0.00680011
0.00680798
0.00681603
0.00682407
0.00671937
0.00672288
0.00672703
0.00673171
0.00673692
0.00674258
0.00674886
0.00675567
0.00676302
0.00677085
0.00677928
0.0067883
0.00679779
0.00680767
0.00681809
0.00682885
0.00683984
0.00685102
0.00686238
0.00687396
0.00688578
0.00689756
0.00674564
0.00675096
0.00675683
0.00676323
0.00677017
0.00677769
0.0067859
0.00679508
0.00680524
0.00681633
0.00682842
0.00684148
0.00685529
0.0068696
0.00688442
0.00689968
0.00691531
0.00693125
0.0069475
0.00696406
0.00698094
0.00699772
0.00677751
0.00678488
0.00679311
0.00680211
0.00681192
0.00682263
0.00683439
0.00684736
0.00686161
0.00687722
0.00689429
0.00691283
0.00693243
0.0069527
0.0069736
0.00699506
0.00701703
0.00703946
0.00706232
0.00708563
0.00710938
0.00713297
0.00681873
0.00682893
0.00684034
0.00685283
0.00686649
0.00688147
0.0068979
0.00691596
0.0069358
0.00695754
0.00698136
0.00700726
0.00703464
0.0070629
0.00709199
0.00712182
0.00715232
0.00718344
0.00721515
0.00724743
0.00728026
0.00731283
0.00687162
0.00688554
0.00690114
0.00691827
0.00693704
0.00695764
0.00698027
0.00700513
0.00703242
0.00706236
0.00709519
0.00713091
0.00716868
0.00720766
0.00724774
0.0072888
0.00733074
0.00737348
0.00741699
0.00746123
0.00750616
0.00755077
0.00693833
0.00695723
0.00697836
0.00700157
0.00702704
0.00705505
0.00708584
0.0071197
0.00715692
0.0071978
0.00724268
0.00729153
0.00734315
0.00739638
0.00745102
0.00750693
0.00756396
0.00762201
0.00768105
0.00774104
0.00780184
0.00786216
0.00702225
0.00704751
0.0070758
0.00710696
0.00714125
0.00717902
0.00722063
0.00726642
0.00731676
0.00737204
0.0074327
0.00749871
0.00756852
0.00764054
0.00771454
0.0077903
0.00786761
0.00794632
0.00802629
0.00810737
0.00818934
0.00827083
0.00712597
0.00715965
0.00719737
0.00723893
0.00728468
0.00733508
0.00739057
0.00745169
0.00751903
0.00759325
0.00767505
0.00776444
0.00785919
0.00795697
0.0080573
0.00815977
0.00826401
0.00836967
0.00847646
0.00858439
0.00869395
0.0088045
0.00725519
0.00729966
0.00734929
0.00740397
0.00746432
0.00753113
0.00760523
0.00768747
0.00777861
0.00787929
0.00798998
0.00811024
0.00823675
0.00836659
0.00849954
0.0086353
0.0087735
0.00891404
0.00905744
0.00920534
0.00936012
0.00952074
0.0074123
0.00746978
0.00753457
0.00760684
0.00768751
0.00777741
0.00787715
0.00798707
0.0081075
0.00823899
0.00838261
0.00853886
0.00870506
0.00887888
0.00905987
0.00924727
0.00944175
0.00964485
0.00985889
0.0100866
0.0103285
0.0105737
0.00670568
0.00670567
0.00670567
0.00670567
0.00670567
0.00670566
0.00670566
0.00670566
0.00670566
0.00670566
0.00670566
0.00670567
0.00670567
0.00670569
0.00670571
0.00670574
0.00670577
0.00670578
0.00670575
0.00670572
0.00670615
0.00670855
0.00671482
0.00671616
0.00667778
0.00658969
0.00636641
0.00581822
0.00477613
0.00331829
0.00180582
0.000722411
0.00025791
0.000154125
7.48191e-05
0.0067011
0.0067011
0.00670111
0.00670111
0.00670111
0.00670112
0.00670112
0.00670113
0.00670113
0.00670113
0.00670114
0.00670114
0.00670114
0.00670113
0.00670112
0.00670109
0.00670105
0.00670102
0.00670116
0.00670188
0.00670348
0.00670345
0.0066836
0.00659621
0.00641378
0.00598065
0.00517026
0.00405849
0.00284071
0.0017201
0.000873512
0.000374858
0.000177726
0.000137546
8.20323e-05
0.0066962
0.0066962
0.0066962
0.00669619
0.00669619
0.00669619
0.00669619
0.00669619
0.0066962
0.0066962
0.00669621
0.00669622
0.00669623
0.00669626
0.00669629
0.00669635
0.00669647
0.00669674
0.0066973
0.00669774
0.00669489
0.00667464
0.00659105
0.00639447
0.00595671
0.00521225
0.00423136
0.00314406
0.00211279
0.00126593
0.000665289
0.000310264
0.000147458
0.000111417
8.01832e-05
0.00669232
0.00669233
0.00669233
0.00669234
0.00669235
0.00669236
0.00669237
0.00669238
0.0066924
0.00669241
0.00669243
0.00669244
0.00669246
0.00669248
0.0066925
0.00669255
0.00669267
0.00669282