/*--------------------------------*- C++ -*----------------------------------*\
  =========                 |
  \\      /  F ield         | OpenFOAM: The Open Source CFD Toolbox
   \\    /   O peration     | Website:  https://openfoam.org
    \\  /    A nd           | Version:  8
     \\/     M anipulation  |
\*---------------------------------------------------------------------------*/
FoamFile
{
    version     2.0;
    format      ascii;
    class       volScalarField;
    location    "0.17";
    object      k;
}
// * * * * * * * * * * * * * * * * * * * * * * * * * * * * * * * * * * * * * //

dimensions      [0 2 -2 0 0 0 0];

internalField   nonuniform List<scalar> 
15677
(
0.333994
0.364682
0.29434
0.368614
0.357021
0.280632
0.370641
0.359745
0.365645
0.282421
0.371857
0.361481
0.361176
0.383035
0.288665
0.372596
0.363665
0.35759
0.368114
0.401533
0.30016
0.373032
0.365622
0.357771
0.358023
0.379975
0.419284
0.311713
0.37326
0.367161
0.359419
0.354513
0.36094
0.39321
0.434704
0.322533
0.373348
0.368293
0.361331
0.354727
0.353002
0.366836
0.406109
0.447824
0.332041
0.373349
0.369076
0.363049
0.356311
0.351084
0.353453
0.373515
0.418218
0.458684
0.340425
0.373314
0.369565
0.364432
0.358201
0.351905
0.34876
0.354755
0.380653
0.429048
0.467826
0.347509
0.373274
0.369824
0.365456
0.359949
0.353699
0.348365
0.347129
0.35709
0.387619
0.43876
0.475339
0.353726
0.373248
0.369927
0.366144
0.36139
0.355652
0.349753
0.345342
0.34631
0.359684
0.394394
0.447171
0.481751
0.358907
0.373237
0.36994
0.366545
0.362474
0.357416
0.351714
0.346196
0.342919
0.345875
0.362579
0.40063
0.45462
0.487049
0.36357
0.373237
0.369922
0.366733
0.363208
0.358852
0.353677
0.348063
0.343089
0.340854
0.345888
0.365437
0.406474
0.46095
0.491601
0.367632
0.373238
0.369907
0.366791
0.363634
0.359911
0.355388
0.350149
0.344748
0.340285
0.339188
0.346019
0.368328
0.411638
0.466532
0.495381
0.371226
0.373239
0.369899
0.366792
0.363832
0.360604
0.356736
0.352082
0.34688
0.341693
0.337818
0.337733
0.346345
0.370994
0.416387
0.471168
0.498719
0.374517
0.37324
0.369896
0.366782
0.363889
0.360986
0.357691
0.353684
0.348979
0.343828
0.338925
0.335576
0.33652
0.34673
0.373595
0.420416
0.475238
0.501597
0.377319
0.37324
0.369894
0.366775
0.363897
0.361135
0.358278
0.354884
0.350799
0.346059
0.341021
0.336373
0.333591
0.33544
0.347236
0.375845
0.424036
0.478583
0.504135
0.380161
0.37324
0.369893
0.36677
0.363892
0.361179
0.358547
0.355677
0.352225
0.348069
0.34335
0.338417
0.334073
0.331774
0.334567
0.347658
0.377948
0.426982
0.481502
0.506486
0.382371
0.37324
0.369892
0.366767
0.363885
0.361185
0.358651
0.356077
0.353223
0.349701
0.345524
0.34083
0.336052
0.331954
0.330197
0.333761
0.348127
0.379654
0.42959
0.483891
0.508496
0.385018
0.37324
0.369891
0.366764
0.363879
0.361179
0.358683
0.356251
0.353769
0.35089
0.347347
0.343157
0.338532
0.333878
0.330089
0.328765
0.33312
0.348469
0.381197
0.431591
0.485966
0.510612
0.386774
0.37324
0.36989
0.366763
0.363875
0.361172
0.358686
0.356316
0.354031
0.351572
0.348725
0.345158
0.340994
0.336436
0.331965
0.32841
0.327566
0.332523
0.348815
0.382349
0.433378
0.487676
0.512282
0.389405
0.37324
0.369889
0.366762
0.363871
0.361166
0.35868
0.356333
0.354145
0.351918
0.349559
0.346707
0.343162
0.339047
0.334601
0.330263
0.327005
0.326515
0.332087
0.349054
0.383388
0.43461
0.489189
0.514419
0.390838
0.37324
0.369888
0.366761
0.363868
0.361161
0.358671
0.35633
0.354183
0.35208
0.350009
0.347668
0.344892
0.341391
0.337346
0.332997
0.328871
0.32583
0.325745
0.331717
0.349281
0.384062
0.435805
0.490421
0.515835
0.393476
0.37324
0.369888
0.36676
0.363865
0.361157
0.358662
0.356322
0.354188
0.352144
0.350234
0.348202
0.346013
0.343287
0.339847
0.335919
0.331754
0.327766
0.324978
0.325119
0.331501
0.349473
0.384728
0.436472
0.491706
0.518352
0.394868
0.373241
0.369888
0.36676
0.363863
0.361154
0.358655
0.356313
0.354178
0.352161
0.350331
0.348482
0.346666
0.34452
0.341927
0.338651
0.334861
0.330775
0.326986
0.32439
0.324906
0.331531
0.349726
0.385103
0.437315
0.492548
0.520009
0.505192
0.373241
0.369888
0.366759
0.363862
0.361151
0.358648
0.356304
0.354165
0.352157
0.350359
0.348613
0.347023
0.345244
0.343356
0.340929
0.337724
0.334078
0.330314
0.326768
0.324402
0.325005
0.331684
0.349973
0.385541
0.437694
0.494461
0.528709
0.713769
0.373241
0.369887
0.366759
0.36386
0.361149
0.358644
0.356297
0.354151
0.352145
0.350355
0.348663
0.347192
0.345654
0.344237
0.342442
0.340186
0.33737
0.334078
0.330425
0.326963
0.324653
0.325342
0.332038
0.350348
0.38586
0.438516
0.494975
0.54557
0.892616
0.373241
0.369887
0.366759
0.363859
0.361147
0.35864
0.356291
0.354139
0.35213
0.350338
0.348671
0.347255
0.345871
0.344748
0.343363
0.342006
0.340217
0.337562
0.334398
0.330901
0.32755
0.325294
0.326046
0.332725
0.350867
0.386264
0.439114
0.494689
0.55865
1.03824
0.373241
0.369887
0.366758
0.363859
0.361146
0.358637
0.356286
0.35413
0.352117
0.350317
0.348658
0.347262
0.345968
0.345002
0.343917
0.343183
0.342168
0.340594
0.338197
0.335248
0.331951
0.328751
0.326538
0.327258
0.333757
0.351584
0.38689
0.438859
0.493226
0.568507
1.16547
0.373241
0.369887
0.366758
0.363858
0.361145
0.358634
0.356282
0.354122
0.352106
0.350298
0.348637
0.347242
0.345996
0.345106
0.344253
0.343911
0.343432
0.342755
0.341537
0.339525
0.336914
0.333848
0.330691
0.328421
0.328935
0.335184
0.352604
0.387409
0.437974
0.49015
0.57533
1.26984
0.373241
0.369887
0.366758
0.363857
0.361144
0.358632
0.356278
0.354116
0.352096
0.350281
0.348616
0.347213
0.345987
0.345131
0.344423
0.344298
0.344226
0.344172
0.344005
0.343373
0.341804
0.339495
0.336557
0.333396
0.330936
0.33116
0.337039
0.353871
0.387864
0.436151
0.484832
0.579902
1.34779
0.373241
0.369887
0.366758
0.363857
0.361143
0.35863
0.356275
0.35411
0.352087
0.350267
0.348596
0.347184
0.345961
0.345114
0.344486
0.344494
0.344685
0.345083
0.345678
0.346256
0.346213
0.345078
0.343036
0.340191
0.336904
0.334179
0.333944
0.33936
0.355394
0.388002
0.43306
0.478209
0.582823
1.40796
0.373241
0.369887
0.366758
0.363856
0.361142
0.358629
0.356273
0.354106
0.35208
0.350255
0.348579
0.347158
0.34593
0.34508
0.344491
0.344573
0.344928
0.345641
0.346792
0.348228
0.349562
0.350171
0.349467
0.347668
0.344809
0.341323
0.338162
0.337348
0.342134
0.357115
0.387906
0.428989
0.471567
0.585328
1.45636
0.369887
0.373245
0.366758
0.363856
0.361142
0.358627
0.35627
0.354102
0.352073
0.350245
0.348564
0.347135
0.345901
0.345041
0.344465
0.344588
0.345041
0.345958
0.347512
0.349581
0.35191
0.354103
0.3554
0.355123
0.353474
0.350533
0.346675
0.342965
0.341342
0.34536
0.35931
0.387617
0.424805
0.465354
0.58774
1.49693
0.366758
0.369897
0.373252
0.363856
0.361141
0.358626
0.356268
0.354098
0.352068
0.350236
0.34855
0.347116
0.345874
0.345005
0.344429
0.344569
0.345078
0.346125
0.347953
0.350489
0.353572
0.356926
0.360057
0.362074
0.362156
0.360596
0.357398
0.353056
0.348556
0.34596
0.349344
0.36202
0.387262
0.420761
0.459752
0.590573
1.53228
0.363856
0.366774
0.369918
0.37326
0.361141
0.358625
0.356267
0.354096
0.352063
0.350229
0.348539
0.347099
0.34585
0.344973
0.344392
0.344536
0.345075
0.346204
0.348217
0.351088
0.354738
0.358991
0.363484
0.367627
0.370339
0.370728
0.369084
0.365519
0.360432
0.354975
0.351779
0.354299
0.365103
0.386948
0.41698
0.454862
0.593614
1.56392
0.36114
0.363877
0.366808
0.369939
0.373267
0.358624
0.356266
0.354093
0.352059
0.350223
0.348529
0.347084
0.34583
0.344945
0.344358
0.344502
0.345055
0.346234
0.348373
0.351487
0.355561
0.360506
0.366071
0.371811
0.37699
0.380377
0.380911
0.379074
0.374862
0.368863
0.362991
0.359129
0.359785
0.368394
0.387006
0.413638
0.450669
0.597168
1.59295
0.358624
0.361167
0.363922
0.366843
0.369961
0.373275
0.356264
0.354091
0.352055
0.350217
0.34852
0.347072
0.345812
0.34492
0.344328
0.34447
0.34503
0.346241
0.348466
0.351763
0.356161
0.361641
0.368053
0.375072
0.382118
0.388357
0.392291
0.392866
0.39054
0.385513
0.379351
0.373052
0.367305
0.365759
0.372131
0.3873
0.410654
0.447111
0.600838
1.61985
0.356263
0.358655
0.361223
0.363968
0.366878
0.369984
0.373284
0.354089
0.352052
0.350212
0.348513
0.347061
0.345796
0.344899
0.344301
0.344442
0.345007
0.34624
0.348526
0.351963
0.356626
0.362534
0.369625
0.377675
0.386239
0.394652
0.401865
0.406267
0.406575
0.403597
0.398735
0.392472
0.384212
0.376229
0.372139
0.375984
0.387929
0.408215
0.444029
0.604888
1.64518
0.354087
0.356299
0.358719
0.36128
0.364015
0.366915
0.370007
0.373292
0.35205
0.350208
0.348506
0.347052
0.345782
0.34488
0.344278
0.344417
0.344986
0.346236
0.34857
0.352117
0.357001
0.363283
0.37094
0.379848
0.389667
0.399873
0.409591
0.417735
0.422307
0.422181
0.419791
0.41526
0.406994
0.396359
0.3858
0.378976
0.379978
0.388974
0.406227
0.441488
0.608911
1.66895
0.352048
0.354125
0.356371
0.358785
0.361338
0.364064
0.366952
0.370031
0.373301
0.350204
0.3485
0.347044
0.345769
0.344865
0.344258
0.344395
0.344967
0.346233
0.348607
0.352246
0.357313
0.363928
0.372109
0.381759
0.392652
0.404377
0.4162
0.427221
0.43601
0.440597
0.441538
0.440021
0.433524
0.422769
0.409369
0.395938
0.386182
0.384148
0.3903
0.404686
0.439318
0.613173
1.69157
0.350201
0.352088
0.354205
0.356446
0.358853
0.361398
0.364114
0.36699
0.370056
0.37331
0.348495
0.347038
0.345758
0.344851
0.344241
0.344377
0.344951
0.346231
0.34864
0.35236
0.357586
0.364489
0.373165
0.383536
0.395391
0.408452
0.422094
0.435571
0.447625
0.456955
0.463345
0.465761
0.462371
0.453334
0.439632
0.423117
0.406551
0.39368
0.38848
0.391892
0.403568
0.437598
0.617295
1.71283
0.348491
0.350243
0.352174
0.354286
0.356523
0.358923
0.36146
0.364165
0.36703
0.370081
0.373319
0.347031
0.345748
0.34484
0.344225
0.34436
0.344938
0.34623
0.348671
0.352464
0.357832
0.364992
0.374112
0.385196
0.398031
0.41233
0.427613
0.443254
0.458123
0.47115
0.483151
0.491966
0.492584
0.486625
0.474486
0.457416
0.437465
0.417535
0.401402
0.392949
0.39358
0.40284
0.436154
0.621556
1.73313
0.347026
0.348533
0.350331
0.352261
0.35437
0.356602
0.358995
0.361523
0.364218
0.36707
0.370107
0.373328
0.34574
0.344831
0.344211
0.344346
0.344927
0.34623
0.3487
0.352559
0.358056
0.36545
0.374977
0.386718
0.400567
0.416184
0.43303
0.450675
0.468067
0.484322
0.500745
0.516347
0.523886
0.52182
0.512556
0.496775
0.475936
0.452271
0.428791
0.409278
0.397569
0.39537
0.402388
0.435057
0.6256
1.75214
0.345733
0.347066
0.348622
0.350423
0.352352
0.354457
0.356684
0.359068
0.361588
0.364272
0.367112
0.370133
0.373338
0.344823
0.344199
0.344334
0.344917
0.346231
0.348727
0.352646
0.358261
0.365872
0.375773
0.388126
0.40294
0.419975
0.43855
0.458167
0.477952
0.497157
0.517526
0.538586
0.553653
0.558897
0.553247
0.539949
0.519986
0.49501
0.467395
0.440218
0.417247
0.402288
0.397253
0.402211
0.434152
0.629715
1.77033
0.344817
0.345766
0.347152
0.348714
0.350517
0.352445
0.354546
0.356768
0.359144
0.361655
0.364327
0.367155
0.37016
0.373347
0.344186
0.344323
0.344909
0.346233
0.348752
0.352726
0.358449
0.366259
0.376507
0.389435
0.405164
0.423579
0.44409
0.465994
0.488192
0.510269
0.534355
0.560458
0.581546
0.594943
0.596777
0.586616
0.568571
0.543904
0.51446
0.4827
0.451721
0.425252
0.407063
0.399213
0.402258
0.433516
0.633567
1.78728
0.344176
0.344845
0.345841
0.347241
0.34881
0.350614
0.352542
0.354637
0.356854
0.359222
0.361724
0.364384
0.367199
0.370187
0.373356
0.344312
0.344902
0.346235
0.348776
0.3528
0.358621
0.366614
0.377184
0.390651
0.407251
0.426992
0.44944
0.474023
0.49912
0.524188
0.552035
0.583114
0.609831
0.629661
0.640092
0.637302
0.62165
0.598175
0.568322
0.534121
0.498062
0.463214
0.433237
0.411853
0.401237
0.402395
0.433018
0.637456
1.80351
0.344306
0.344178
0.344906
0.345918
0.347334
0.348909
0.350714
0.352641
0.354732
0.356943
0.359302
0.361795
0.364442
0.367242
0.370213
0.373365
0.344895
0.346236
0.348798
0.352868
0.358778
0.36694
0.377807
0.391779
0.409203
0.43022
0.454578
0.481905
0.51051
0.539375
0.571315
0.607695
0.640103
0.666007
0.683045
0.689018
0.680247
0.658083
0.628517
0.593055
0.553844
0.51337
0.474621
0.441151
0.416627
0.403301
0.402656
0.432748
0.641052
1.81852
0.344892
0.344291
0.344187
0.344969
0.346
0.34743
0.349013
0.350817
0.352744
0.354828
0.357035
0.359384
0.361867
0.3645
0.367284
0.370239
0.373374
0.346237
0.348817
0.352929
0.358921
0.367237
0.378379
0.392822
0.411022
0.433262
0.459495
0.489557
0.521831
0.555586
0.592918
0.63534
0.674079
0.706359
0.72968
0.742019
0.741722
0.725425
0.695674
0.659365
0.617926
0.573498
0.528526
0.485872
0.448952
0.421352
0.405406
0.403002
0.432551
0.644671
1.83293
0.346244
0.344847
0.344258
0.344197
0.345037
0.346089
0.347529
0.349121
0.350923
0.35285
0.354928
0.357129
0.359468
0.361939
0.364556
0.367325
0.370263
0.373382
0.348832
0.352984
0.359052
0.367509
0.378903
0.393783
0.412712
0.436119
0.464174
0.496934
0.532972
0.572122
0.616527
0.667229
0.713754
0.753703
0.783902
0.802127
0.807158
0.798307
0.772698
0.734213
0.690521
0.642775
0.592964
0.543448
0.496911
0.4566
0.426005
0.407529
0.40341
0.432522
0.647977
1.84618
0.348854
0.346153
0.344742
0.344221
0.344224
0.345107
0.346184
0.347632
0.349232
0.351033
0.352959
0.355031
0.357225
0.359552
0.362009
0.364611
0.367364
0.370287
0.37339
0.353031
0.359169
0.367756
0.379382
0.394666
0.414275
0.438788
0.4686
0.504007
0.543899
0.588774
0.640938
0.703172
0.761809
0.812223
0.851247
0.875852
0.88503
0.879155
0.858915
0.821949
0.773514
0.721806
0.667462
0.612146
0.558066
0.50769
0.464064
0.430564
0.409651
0.403869
0.432554
0.651308
1.85892
0.353087
0.348688
0.345934
0.344629
0.344184
0.344269
0.345178
0.346286
0.347738
0.349348
0.351145
0.353072
0.355136
0.35732
0.359633
0.362076
0.364664
0.367403
0.370311
0.373398
0.359272
0.367979
0.379818
0.395476
0.415718
0.441274
0.472764
0.510754
0.554561
0.605354
0.665718
0.742036
0.819787
0.888036
0.939599
0.972397
0.985299
0.979799
0.958492
0.923578
0.873033
0.8134
0.753066
0.691865
0.630963
0.572323
0.518168
0.471318
0.435012
0.411756
0.40437
0.432635
0.65432
1.86914
0.359383
0.35283
0.348277
0.345704
0.34453
0.344145
0.344329
0.345252
0.346393
0.347848
0.349468
0.351262
0.353187
0.35524
0.357413
0.359712
0.362142
0.364715
0.36744
0.370333
0.373406
0.368178
0.380213
0.396217
0.417046
0.44358
0.476667
0.517163
0.564889
0.621666
0.690804
0.784197
0.887222
0.984795
1.05867
1.10312
1.12062
1.11361
1.08678
1.04509
0.992088
0.925734
0.853686
0.784158
0.715876
0.649344
0.586175
0.528317
0.478341
0.439332
0.413831
0.404896
0.432787
0.656947
1.87776
0.36838
0.359007
0.352163
0.347848
0.345498
0.344441
0.34411
0.3444
0.345329
0.346506
0.347962
0.349592
0.351382
0.353301
0.355342
0.357503
0.359789
0.362206
0.364766
0.367477
0.370355
0.373414
0.38057
0.396891
0.418266
0.445714
0.480313
0.523222
0.574813
0.637583
0.716346
0.83015
0.963906
1.09895
1.21042
1.27844
1.30353
1.29505
1.25954
1.20491
1.13819
1.06394
0.979733
0.894169
0.814948
0.739407
0.667232
0.599586
0.538113
0.485116
0.443514
0.415865
0.405446
0.432949
0.659091
1.88705
0.380919
0.367851
0.357976
0.351472
0.347455
0.345309
0.344359
0.344083
0.344478
0.345412
0.346624
0.348081
0.349719
0.351501
0.353412
0.355441
0.35759
0.359864
0.362268
0.364814
0.367512
0.370377
0.373421
0.397504
0.419381
0.447685
0.48371
0.528927
0.58429
0.653067
0.742515
0.8797
1.04807
1.22552
1.38315
1.49432
1.5421
1.53536
1.49108
1.4197
1.33192
1.23642
1.13835
1.03462
0.934629
0.84531
0.762381
0.684581
0.612529
0.54754
0.491633
0.447549
0.417848
0.405931
0.433113
0.661468
1.89721
0.398086
0.380196
0.366312
0.356914
0.350829
0.347087
0.345132
0.344286
0.344065
0.344563
0.345501
0.346746
0.348205
0.349845
0.351618
0.35352
0.355538
0.357675
0.359937
0.362328
0.364862
0.367546
0.370398
0.373424
0.420402
0.449498
0.486865
0.534278
0.593302
0.66813
0.769329
0.931939
1.13675
1.35864
1.56632
1.73007
1.82533
1.8395
1.79034
1.70243
1.58967
1.46496
1.33805
1.21437
1.08993
0.97483
0.875121
0.784734
0.701353
0.624984
0.556586
0.497885
0.451429
0.41952
0.406364
0.433312
0.664028
1.90824
0.421349
0.397126
0.377948
0.364733
0.355919
0.350218
0.34674
0.344968
0.344224
0.344058
0.344653
0.345598
0.346871
0.34833
0.349968
0.351733
0.353625
0.355632
0.357758
0.360007
0.362387
0.364908
0.36758
0.370408
0.373424
0.451171
0.489786
0.539281
0.601851
0.682791
0.796625
0.98561
1.22688
1.49299
1.75162
1.97177
2.12555
2.191
2.16023
2.06017
1.92284
1.76503
1.60109
1.44129
1.29101
1.14516
1.01454
0.904269
0.806408
0.717519
0.636938
0.565246
0.503866
0.454659
0.420963
0.406858
0.433573
0.666893
1.92037
0.452691
0.420104
0.393898
0.37566
0.36325
0.354966
0.349633
0.346413
0.344816
0.344172
0.344064
0.344745
0.345704
0.346996
0.348453
0.350087
0.351844
0.353727
0.355724
0.357838
0.360076
0.362444
0.364953
0.367596
0.370408
0.373424
0.4925
0.543945
0.609949
0.697054
0.824117
1.03947
1.31603
1.62468
1.93308
2.21031
2.42704
2.55688
2.58051
2.49528
2.33771
2.14692
1.94187
1.73766
1.54449
1.3673
1.19982
1.05352
0.932649
0.827356
0.73306
0.648384
0.573515
0.508823
0.457426
0.422572
0.407433
0.433891
0.669964
1.93353
0.494921
0.451092
0.415521
0.390641
0.373505
0.361825
0.354049
0.349072
0.346106
0.344677
0.344132
0.344085
0.344838
0.345815
0.347117
0.348575
0.350204
0.351954
0.353826
0.355813
0.357916
0.360143
0.362499
0.364975
0.367596
0.370408
0.373424
0.548309
0.61762
0.710906
0.851478
1.09248
1.40248
1.75125
2.10699
2.43968
2.72015
2.91983
3.01349
2.98485
2.83726
2.61717
2.37031
2.11705
1.8725
1.64622
1.44239
1.25346
1.09157
0.960165
0.847541
0.747963
0.659319
0.580359
0.513056
0.460486
0.424371
0.408095
0.434292
0.673416
1.94803
0.552157
0.492885
0.444637
0.410939
0.387567
0.371428
0.360446
0.353165
0.348535
0.345823
0.344551
0.344101
0.344132
0.344929
0.345929
0.347235
0.348695
0.350317
0.35206
0.353923
0.3559
0.357992
0.360208
0.362526
0.364975
0.367596
0.370408
0.373424
0.624913
0.724336
0.878407
1.14387
1.48514
1.8713
2.27128
2.65638
2.9986
3.26926
3.43986
3.48642
3.39646
3.18014
2.89399
2.58969
2.2882
2.00393
1.74535
1.51558
1.30572
1.12851
0.986741
0.866935
0.762217
0.668372
0.586197
0.517721
0.463875
0.426386
0.408872
0.434773
0.677122
1.96376
0.63135
0.549552
0.483808
0.438248
0.406611
0.384599
0.369415
0.359113
0.352314
0.348019
0.34556
0.344436
0.344064
0.344199
0.345016
0.346044
0.34735
0.348812
0.350427
0.352164
0.354017
0.355984
0.358066
0.360241
0.362526
0.364975
0.367596
0.370408
0.373424
0.737342
0.904666
1.19309
1.56337
1.98412
2.425
2.85862
3.25871
3.59799
3.84736
3.97807
3.96783
3.80891
3.51902
3.16464
2.80258
2.45356
2.13073
1.84104
1.58633
1.35626
1.16418
1.01232
0.885516
0.774029
0.676097
0.592626
0.522872
0.467637
0.42865
0.409768
0.435373
0.68132
1.98113
0.748871
0.628044
0.536657
0.474931
0.432204
0.402425
0.381717
0.367463
0.357826
0.351496
0.347529
0.345317
0.344334
0.34403
0.344277
0.345103
0.346159
0.347463
0.348927
0.350535
0.352265
0.354108
0.356067
0.358103
0.360241
0.362526
0.364975
0.367596
0.370408
0.373421
0.930059
1.23982
1.63685
2.08941
2.5678
3.0457
3.49868
3.90173
4.22729
4.44513
4.52619
4.45068
4.21667
3.84993
3.42646
3.0072
2.61194
2.25206
1.9327
1.65424
1.40487
1.19847
1.03684
0.900932
0.784114
0.684606
0.599715
0.528567
0.471821
0.431198
0.410826
0.436029
0.685833
1.99991
0.744811
0.9524
0.608923
0.524314
0.466522
0.426356
0.398357
0.378919
0.365574
0.356586
0.350714
0.347068
0.345097
0.344247
0.344006
0.344361
0.345191
0.346273
0.347575
0.34904
0.35064
0.352364
0.354197
0.356107
0.358103
0.360241
0.362526
0.364975
0.367596
0.370398
0.373413
1.28384
1.70548
2.18717
2.69973
3.21765
3.71804
4.17845
4.57427
4.87673
5.05385
5.07656
4.92865
4.61505
4.16975
3.67748
3.20235
2.76259
2.36741
2.01995
1.71903
1.45137
1.23129
1.05719
0.914103
0.795229
0.693992
0.607547
0.534875
0.476485
0.434077
0.41205
0.436803
0.690984
2.02069
0.714775
0.948336
1.32178
0.591184
0.512648
0.458377
0.420668
0.394402
0.376207
0.363751
0.355395
0.34997
0.346642
0.344905
0.344176
0.343995
0.344446
0.34528
0.346385
0.347684
0.34915
0.350742
0.35246
0.354241
0.356107
0.358103
0.360241
0.362526
0.364975
0.36758
0.370377
0.373406
1.76925
2.27759
2.82111
3.37489
3.91718
4.42784
4.8858
5.26591
5.53714
5.66532
5.62206
5.39614
5.00015
4.47606
3.91635
3.38731
2.90506
2.47647
2.10257
1.78055
1.49566
1.25847
1.07457
0.928627
0.807496
0.704363
0.616212
0.541875
0.481694
0.437335
0.413498
0.437663
0.696524
2.04305
0.687238
0.900628
1.3179
1.82362
0.574687
0.501343
0.450453
0.415136
0.390566
0.373585
0.361996
0.354257
0.349272
0.346261
0.344739
0.344121
0.343997
0.344532
0.345371
0.346494
0.347792
0.349257
0.350843
0.352507
0.354241
0.356107
0.358103
0.360241
0.362526
0.364952
0.367546
0.370355
0.373398
2.36089
2.93247
3.51814
4.09702
4.65079
5.16173
5.60947
5.96703
6.19994
6.27179
6.1562
5.8483
5.36883
4.76714
4.14222
3.56167
3.03919
2.57917
2.1805
1.83873
1.53213
1.28164
1.09373
0.944664
0.821055
0.71584
0.625816
0.549658
0.487526
0.441038
0.41518
0.438692
0.702906
2.06785
0.661999
0.855584
1.24879
1.82088
2.43124
0.558873
0.490334
0.442749
0.409766
0.386853
0.371057
0.360313
0.353181
0.348637
0.345927
0.344597
0.34408
0.34401
0.344616
0.345464
0.346601
0.347898
0.349362
0.350892
0.352507
0.354241
0.356107
0.358103
0.360241
0.362499
0.364907
0.367511
0.370333
0.37339
3.03429
3.64836
4.25888
4.84895
5.40364
5.90739
6.33926
6.66878
6.85703
6.86605
6.67312
6.28104
5.71873
5.04186
4.35465
3.72532
3.16499
2.67554
2.25375
1.88634
1.56311
1.30713
1.11487
0.962394
0.836064
0.728563
0.636483
0.558331
0.494073
0.445253
0.41718
0.439859
0.709768
2.09432
0.638315
0.813437
1.18088
1.73287
2.43059
3.11957
0.543573
0.479624
0.435277
0.404569
0.383272
0.36863
0.358717
0.352195
0.348071
0.345634
0.344476
0.344052
0.344039
0.344697
0.345558
0.346706
0.348003
0.349414
0.350891
0.352507
0.354241
0.356107
0.358103
0.360208
0.362443
0.36486
0.367476
0.37031
0.373382
3.76645
4.40435
5.02446
5.61413
6.16207
6.65384
7.06612
7.36304
7.50084
7.44142
7.16772
6.69116
6.04821
5.29957
4.55351
3.87838
3.28263
2.76573
2.31336
1.9266
1.59705
1.33517
1.13821
0.982016
0.852702
0.742691
0.648354
0.568019
0.501442
0.450076
0.419515
0.441274
0.717768
2.12377
0.615891
0.773692
1.11462
1.64463
2.32623
3.12149
3.86416
0.528743
0.469233
0.428049
0.399555
0.379832
0.366325
0.357251
0.35131
0.347565
0.345382
0.344374
0.34403
0.344085
0.344776
0.345654
0.346811
0.348054
0.349412
0.350891
0.352507
0.354241
0.356107
0.358066
0.360142
0.362385
0.364813
0.367439
0.370287
0.373374
4.53483
5.1798
5.79651
6.37743
6.91414
7.39176
7.7821
8.04231
8.12425
7.99185
7.63576
7.07631
6.35629
5.54006
4.73897
4.02111
3.39236
2.83883
2.3636
1.97049
1.63421
1.36602
1.164
1.00376
0.871172
0.758408
0.661592
0.578865
0.509762
0.455602
0.422308
0.442914
0.726338
2.15485
0.594588
0.736273
1.04971
1.55653
2.22061
3.00283
3.86795
4.64076
0.514381
0.459186
0.421083
0.394737
0.376564
0.364202
0.355929
0.350516
0.347112
0.345165
0.344287
0.344005
0.344143
0.344853
0.345754
0.346861
0.348052
0.349412
0.350891
0.352507
0.354241
0.356066
0.357991
0.360074
0.362326
0.364764
0.367402
0.370263
0.373365
5.31711
5.95442
6.55828
7.12566
7.65003
8.11344
8.48017
8.69956
8.72059
8.51208
8.07401
7.43495
6.64254
5.76351
4.91139
4.15388
3.48105
2.90028
2.41816
2.01832
1.6749
1.39998
1.1925
1.02786
0.891706
0.775923
0.676388
0.591042
0.51918
0.461975
0.425596
0.444929
0.73649
2.19544
0.574317
0.701237
0.986307
1.46809
2.11404
2.88251
3.73634
4.6442
5.4254
0.500507
0.449515
0.414397
0.390161
0.373552
0.362287
0.354739
0.349802
0.346707
0.344977
0.344216
0.343984
0.344208
0.344937
0.345802
0.346856
0.348052
0.349412
0.350891
0.352507
0.354197
0.355983
0.357914
0.360005
0.362266
0.364713
0.367363
0.370238
0.373356
6.09098
6.70983
7.29512
7.84828
8.3622
8.81245
9.15395
9.32808
9.28373
8.99779
8.48017
7.76636
6.90711
5.97036
5.07124
4.26089
3.55546
2.96684
2.47739
2.0704
1.71943
1.43734
1.22401
1.05462
0.914559
0.795477
0.692963
0.60475
0.529885
0.469335
0.42956
0.447289
0.749227
2.24453
0.555011
0.668644
0.924855
1.3792
2.00592
2.76063
3.60342
4.50009
5.42482
6.19508
0.487151
0.440248
0.408051
0.385945
0.370834
0.360559
0.353667
0.349161
0.346349
0.344818
0.344156
0.343974
0.344286
0.344971
0.345798
0.346856
0.348052
0.349412
0.350892
0.352459
0.354107
0.355898
0.357836
0.359934
0.362203
0.364662
0.367324
0.370213
0.373347
6.83651
7.42978
7.99556
8.53778
9.04467
9.48345
9.79744
9.92137
9.80825
9.44569
8.85299
8.07054
7.15052
6.16123
5.19964
4.35049
3.63589
3.03888
2.54162
2.12706
1.76811
1.47842
1.25884
1.08431
0.940021
0.817341
0.71157
0.620227
0.542089
0.477894
0.434265
0.450845
0.76623
2.29406
0.536623
0.638496
0.865944
1.29013
1.89584
2.63649
3.46899
4.35591
5.26733
6.18588
6.92827
0.474349
0.431475
0.402212
0.382143
0.368381
0.359002
0.352703
0.348588
0.346035
0.344679
0.344109
0.343989
0.344322
0.344958
0.345799
0.346856
0.348052
0.349414
0.350842
0.352362
0.354014
0.35581
0.357755
0.359861
0.36214
0.364609
0.367283
0.370187
0.373338
7.53572
8.10163
8.65207
9.18825
9.69293
10.1219
10.4047
10.473
10.2896
9.8537
9.19223
8.34811
7.3736
6.31376
5.30688
4.44712
3.72272
3.11678
2.61121
2.18864
1.82127
1.52354
1.29731
1.11728
0.968405
0.841816
0.732504
0.637746
0.556058
0.487872
0.441078
0.45548
0.785001
2.34358
0.519119
0.610713
0.81025
1.20137
1.7837
2.50938
3.33229
4.21106
5.11221
6.01237
6.90449
7.60571
0.462229
0.423425
0.396948
0.378713
0.366168
0.357597
0.351836
0.348078
0.345758
0.344562
0.344094
0.343985
0.344313
0.344956
0.345799
0.346856
0.348054
0.349361
0.350741
0.352262
0.35392
0.35572
0.357672
0.359786
0.362074
0.364555
0.367241
0.37016
0.373328
8.17475
8.71753
9.25327
9.7864
10.2933
10.7183
10.9687
10.9771
10.7245
10.2211
9.4985
8.60009
7.55053
6.44067
5.42217
4.55118
3.81637
3.20089
2.68649
2.25547
1.87923
1.57304
1.33975
1.15385
1.00005
0.869242
0.756088
0.657643
0.57211
0.501765
0.450541
0.461763
0.806017
2.39253
0.502596
0.58514
0.75844
1.11367
1.66959
2.37879
3.19235
4.06483
4.95825
5.84528
6.71128
7.55978
8.213
0.451119
0.41619
0.392207
0.375622
0.364173
0.356333
0.351057
0.34762
0.345517
0.344492
0.344073
0.343958
0.344317
0.344956
0.345797
0.346861
0.348003
0.349255
0.350637
0.35216
0.353823
0.355628
0.357587
0.359709
0.362007
0.364499
0.367198
0.370133
0.373319
8.74334
9.26634
9.80077
10.3419
10.8488
11.2645
11.4819
11.4287
11.1113
10.5483
9.77306
8.79788
7.69691
6.57651
5.54591
4.66308
3.9172
3.29158
2.76782
2.32786
1.94232
1.62724
1.38651
1.19438
1.03531
0.899969
0.78271
0.680284
0.594046
0.520586
0.462144
0.468861
0.829322
2.44066
0.487443
0.561713
0.711073
1.02797
1.55381
2.2444
3.04827
3.91602
4.80483
5.68243
6.52998
7.34273
8.13175
8.74198
0.441159
0.40969
0.387937
0.372835
0.362374
0.355194
0.350356
0.347216
0.345348
0.344438
0.34404
0.343959
0.344317
0.344958
0.345802
0.34681
0.347896
0.349147
0.350531
0.352056
0.353723
0.355534
0.3575
0.359631
0.361938
0.364442
0.367155
0.370106
0.373309
9.23812
9.74854
10.2926
10.8546
11.366
11.7593
11.9379
11.8248
11.45
10.8367
9.98551
8.96024
7.85255
6.72151
5.6784
4.78315
4.02556
3.38919
2.8555
2.40611
2.01082
1.68643
1.4379
1.23919
1.07453
0.934387
0.812736
0.710896
0.623081
0.542447
0.475965
0.477974
0.855546
2.48736
0.473831
0.540695
0.66876
0.945513
1.43687
2.10606
2.89923
3.76335
4.65056
5.52322
6.35735
7.14409
7.88798
8.60358
9.17534
0.432243
0.403848
0.384094
0.370325
0.360754
0.354165
0.349732
0.346914
0.345236
0.344394
0.344043
0.343959
0.344313
0.344971
0.345753
0.346704
0.347789
0.349036
0.350423
0.351949
0.353621
0.355438
0.35741
0.35955
0.361867
0.364384
0.367111
0.37008
0.3733
9.64622
10.158
10.7268
11.3193
11.8377
12.1965
12.331
12.1649
11.7419
11.0555
10.158
9.13122
8.01737
6.87581
5.81988
4.91168
4.14177
3.494
2.94979
2.49047
2.08498
1.75088
1.4942
1.28859
1.11807
0.972822
0.852922
0.750621
0.65573
0.567592
0.492989
0.488584
0.88459
2.53234
0.461627
0.522026
0.632368
0.868313
1.31964
1.96381
2.74453
3.60553
4.49385
5.36605
6.19271
6.95986
7.66875
8.33127
8.96975
9.50527
0.424266
0.3986
0.380636
0.368065
0.359289
0.353246
0.349249
0.346728
0.345171
0.344399
0.344043
0.343958
0.344322
0.344936
0.345652
0.346598
0.347681
0.348923
0.350313
0.35184
0.353516
0.355339
0.357318
0.359468
0.361795
0.364326
0.367069
0.370055
0.373292
9.96391
10.4939
11.1049
11.735
12.2549
12.5673
12.6555
12.4489
11.9569
11.2303
10.3372
9.31024
8.1911
7.03936
5.97047
5.04887
4.26603
3.60624
3.05092
2.58115
2.16498
1.82078
1.55564
1.34285
1.16618
1.02367
0.904033
0.79415
0.69211
0.59661
0.513239
0.502119
0.917465
2.57494
0.45071
0.505311
0.601771
0.79965
1.20425
1.81795
2.58355
3.44124
4.33299
5.2091
6.03417
6.78921
7.47066
8.08864
8.66201
9.22115
9.72645
0.417132
0.393886
0.377526
0.366022
0.357978
0.352521
0.348962
0.346642
0.345178
0.344399
0.34404
0.343985
0.344285
0.344852
0.345556
0.346491
0.347571
0.348808
0.350199
0.351729
0.353409
0.355238
0.357224
0.359384
0.361723
0.36427
0.367029
0.37003
0.373283
10.1871
10.7576
11.429
12.0974
12.605
12.8631
12.9081
12.6487
12.1246
11.4084
10.5218
9.49637
8.37316
7.21188
6.1301
5.19477
4.39848
3.72605
3.15902
2.67824
2.25094
1.89625
1.62234
1.4021
1.22904
1.08703
0.958693
0.84127
0.732319
0.629576
0.537824
0.518188
0.953926
2.61487
0.440968
0.490283
0.57583
0.740972
1.09536
1.67014
2.41587
3.26914
4.16609
5.05033
5.87971
6.6298
7.29277
7.87452
8.39234
8.87221
9.34702
9.82934
0.41075
0.389653
0.37472
0.364193
0.356927
0.352097
0.348848
0.346654
0.345178
0.344393
0.344073
0.34399
0.344207
0.344774
0.345461
0.346381
0.347459
0.348691
0.350083
0.351615
0.353299
0.355135
0.357128
0.359301
0.361654
0.364216
0.366989
0.370006
0.373275
10.3137
10.9527
11.7
12.3916
12.8741
13.0811
13.0663
12.7976
12.2902
11.5874
10.7098
9.68823
8.56264
7.39286
6.29852
5.3493
4.5391
3.85345
3.27411
2.78177
2.34285
1.97731
1.69431
1.4785
1.30579
1.15326
1.01631
0.891603
0.7761
0.666792
0.566627
0.538437
0.995451
2.65151
0.432292
0.476763
0.553534
0.691759
0.996386
1.52543
2.24255
3.08793
3.99107
4.88738
5.72704
6.47938
7.13217
7.68797
8.16025
8.57166
8.95473
9.33557
9.80574
0.405039
0.385841
0.372209
0.362712
0.356322
0.351948
0.348865
0.346654
0.345171
0.344439
0.344095
0.343974
0.344141
0.344695
0.345367
0.346268
0.347346
0.348571
0.349965
0.351499
0.353186
0.35503
0.357033
0.35922
0.361586
0.364163
0.366951
0.369983
0.373267
10.3413
11.0863
11.8987
12.5998
13.0431
13.2008
13.1705
12.9346
12.4506
11.764
10.8989
9.88394