/*--------------------------------*- C++ -*----------------------------------*\
  =========                 |
  \\      /  F ield         | OpenFOAM: The Open Source CFD Toolbox
   \\    /   O peration     | Website:  https://openfoam.org
    \\  /    A nd           | Version:  8
     \\/     M anipulation  |
\*---------------------------------------------------------------------------*/
FoamFile
{
    version     2.0;
    format      ascii;
    class       volScalarField;
    location    "800";
    object      epsilon;
}
// * * * * * * * * * * * * * * * * * * * * * * * * * * * * * * * * * * * * * //

dimensions      [0 2 -3 0 0 0 0];

internalField   nonuniform List<scalar> 
15677
(
1182.95
450.74
1558.79
85.8082
451.644
1455.67
19.8101
116.596
388.103
1275.63
7.21261
35.9262
104.771
360.502
1158.67
3.82902
14.3043
37.2926
92.6149
360.992
1085.65
2.64035
7.18072
17.1134
35.2351
94.1169
365.861
1041.74
2.1617
4.33781
9.17347
17.2858
33.6963
99.4652
372.516
1011.05
1.97289
3.0344
5.58347
9.92099
17.0561
33.9535
109.106
372.981
991.186
1.90448
2.38279
3.79247
6.2745
10.1567
16.6781
35.4116
119.13
372.095
975.145
1.87844
2.06059
2.83782
4.30794
6.63529
10.1323
16.7244
38.3614
129.209
368.214
964.158
1.86721
1.92147
2.31396
3.19102
4.63767
6.7854
10.0795
17.0222
42.2928
137.102
363.507
957.649
1.86735
1.86801
2.02991
2.53928
3.4468
4.83106
6.8325
10.0839
17.7009
46.4513
143.419
358.922
955.378
1.86899
1.84318
1.89333
2.1598
2.71931
3.62219
4.93486
6.84646
10.1412
18.7161
50.7272
148.01
354.944
956.351
1.86963
1.83738
1.83764
1.94879
2.27423
2.85588
3.73599
4.98897
6.85137
10.2843
19.9475
54.5844
151.472
351.779
959.897
1.86973
1.83717
1.81463
1.84527
2.00979
2.36879
2.95482
3.80793
5.01456
6.86475
10.5478
21.2001
58.1909
153.564
349.405
967.261
1.8697
1.83752
1.8089
1.80067
1.86355
2.06599
2.44308
3.02467
3.85132
5.02529
6.89923
10.8385
22.5444
61.1337
154.949
347.71
978.623
1.86967
1.83768
1.80792
1.78609
1.79397
1.88813
2.11368
2.49977
3.07238
3.87564
5.03174
6.95191
11.1834
23.7703
63.6606
155.453
346.689
993.504
1.86966
1.83771
1.80789
1.782
1.76782
1.79444
1.91111
2.15261
2.5417
3.10373
3.88799
5.03706
7.02334
11.5172
24.9685
65.4809
155.452
346.266
1011.99
1.86965
1.83769
1.80794
1.78102
1.75908
1.75496
1.79654
1.93162
2.18325
2.57192
3.12291
3.8929
5.04507
7.09643
11.8665
25.9859
66.8484
155.182
346.368
1034.13
1.86965
1.83768
1.80794
1.78083
1.75639
1.74003
1.74514
1.80067
1.94889
2.20678
2.59261
3.1337
3.89252
5.05252
7.17674
12.1833
26.8653
67.6565
154.592
346.834
1059.96
1.86965
1.83766
1.80792
1.7808
1.75564
1.73472
1.72374
1.73808
1.80497
1.96291
2.22412
2.60623
3.13786
3.89018
5.06132
7.25099
12.4746
27.5246
68.1082
153.601
347.827
1089.41
1.86965
1.83765
1.80789
1.78077
1.75543
1.733
1.71523
1.7103
1.73262
1.80889
1.97382
2.23655
2.61408
3.13731
3.88548
5.06793
7.31992
12.71
28.0145
68.0587
152.483
349.304
1122.49
1.86966
1.83765
1.80787
1.78073
1.75535
1.73246
1.71207
1.6984
1.69871
1.72846
1.81209
1.98208
2.24489
2.61794
3.13483
3.87846
5.07355
7.37584
12.9016
28.3029
67.8294
151.299
351.219
1158.98
1.86966
1.83764
1.80786
1.7807
1.75529
1.73228
1.71096
1.69363
1.68322
1.68918
1.72495
1.81463
1.98815
2.25035
2.61839
3.12968
3.87067
5.07458
7.41848
13.0239
28.4091
67.3179
150.011
353.492
1198.91
1.86966
1.83763
1.80785
1.78067
1.75524
1.73218
1.71056
1.69181
1.67655
1.67043
1.68081
1.7222
1.81669
1.99267
2.25358
2.61772
3.12351
3.86118
5.07315
7.44597
13.107
28.3633
66.5576
148.614
356.196
1241.93
1.86966
1.83763
1.80785
1.78065
1.7552
1.7321
1.71037
1.69111
1.67381
1.66193
1.65878
1.67414
1.72005
1.81849
1.99623
2.25572
2.6163
3.11642
3.85194
5.06908
7.45698
13.1068
28.2273
65.648
147.222
359.201
1288.05
1.86967
1.83762
1.80784
1.78063
1.75518
1.73204
1.71026
1.69079
1.6727
1.65825
1.64831
1.64951
1.66851
1.71876
1.82067
1.99968
2.25789
2.61441
3.11081
3.84199
5.06158
7.45225
13.0847
27.9629
64.629
145.772
362.596
1336.8
1.86967
1.83762
1.80784
1.78061
1.75515
1.73199
1.71018
1.69062
1.67221
1.65666
1.64356
1.63743
1.64114
1.66465
1.71907
1.82372
2.00375
2.26064
2.61473
3.1056
3.83438
5.0513
7.43929
13.0301
27.6073
63.5096
144.374
366.241
1388.23
1.86967
1.83761
1.80784
1.7806
1.75514
1.73195
1.71012
1.69049
1.67196
1.65594
1.64145
1.63169
1.62724
1.6357
1.66261
1.72068
1.82822
2.00945
2.26548
2.61675
3.1051
3.82811
5.04071
7.41467
12.9309
27.1888
62.3491
142.953
370.214
1441.44
1.86967
1.83761
1.80784
1.78059
1.75512
1.73191
1.71007
1.69039
1.67179
1.65556
1.64048
1.629
1.62051
1.62069
1.63121
1.66343
1.7244
1.83522
2.01777
2.27347
2.6219
3.10712
3.8257
5.03088
7.38305
12.8081
26.7294
61.1485
141.616
374.388
1502.73
1.86968
1.8376
1.80785
1.78057
1.75512
1.73188
1.71003
1.69031
1.67167
1.65532
1.63998
1.6277
1.61731
1.61306
1.61461
1.6315
1.6664
1.73152
1.84559
2.02993
2.2854
2.63207
3.11314
3.82745
5.02291
7.3467
12.6699
26.243
59.9558
140.283
379.35
1572.8
1.86968
1.8376
1.80785
1.78056
1.75511
1.73185
1.70999
1.69024
1.67157
1.65515
1.63967
1.62702
1.61574
1.60925
1.60629
1.61419
1.63387
1.67276
1.74279
1.86055
2.04689
2.30288
2.6482
3.12547
3.83335
5.01797
7.3097
12.5226
25.7457
58.7635
138.923
385.183
1644.22
1.86968
1.83759
1.80785
1.78055
1.7551
1.73182
1.70997
1.69018
1.67148
1.65501
1.63945
1.62661
1.61492
1.60731
1.60215
1.60502
1.61619
1.63973
1.68434
1.75939
1.88116
2.07019
2.32689
2.67139
3.14544
3.84566
5.01922
7.27393
12.3726
25.2474
57.4839
137.467
391.251
1716.52
1.86968
1.83759
1.80785
1.78054
1.7551
1.7318
1.70995
1.69013
1.67142
1.65489
1.63927
1.62632
1.61441
1.60628
1.60002
1.6003
1.60687
1.62179
1.65114
1.70188
1.78241
1.90897
2.10083
2.35901
2.70254
3.17348
3.8667
5.02465
7.24118
12.2238
24.7064
56.1044
136.162
397.506
1789.07
1.83759
1.86972
1.80785
1.78054
1.7551
1.73178
1.70993
1.69008
1.67136
1.65478
1.63912
1.62609
1.61405
1.60567
1.59888
1.59785
1.60208
1.61239
1.63302
1.66934
1.72654
1.81344
1.94505
2.14051
2.39996
2.74306
3.2102
3.89641
5.03648
7.21383
12.0655
24.1297
54.8263
134.937
403.879
1861.31
1.80785
1.83768
1.86979
1.78053
1.7551
1.73176
1.70991
1.69004
1.67131
1.65469
1.639
1.6259
1.61377
1.60524
1.59817
1.59655
1.59961
1.6076
1.6236
1.65179
1.69527
1.75997
1.85371
1.99119
2.19001
2.45138
2.79337
3.25692
3.93461
5.05761
7.19175
11.9005
23.5953
53.6262
133.859
410.326
1932.8
1.78052
1.80801
1.83788
1.86987
1.7551
1.73174
1.7099
1.69
1.67128
1.65461
1.63889
1.62574
1.61353
1.6049
1.59767
1.59578
1.59832
1.6052
1.61893
1.64293
1.6788
1.73063
1.80349
1.90509
2.04838
2.25125
2.51368
2.85473
3.3135
3.98257
5.09065
7.17773
11.7552
23.1025
52.5324
132.867
416.829
2003.06
1.7551
1.78073
1.80833
1.83808
1.86995
1.73173
1.7099
1.68996
1.67125
1.65453
1.63881
1.62559
1.61333
1.60463
1.59728
1.59526
1.59758
1.60401
1.61671
1.63883
1.67101
1.71607
1.77701
1.85898
1.96855
2.11854
2.32447
2.58838
2.92728
3.38095
4.04665
5.13936
7.18045
11.6288
22.6573
51.5223
132.01
423.251
2071.73
1.73172
1.75535
1.78114
1.80866
1.83829
1.87002
1.70989
1.68993
1.67122
1.65446
1.63874
1.62546
1.61316
1.6044
1.59696
1.59486
1.59708
1.60337
1.61575
1.63726
1.66804
1.71015
1.76526
1.83675
1.92829
2.04646
2.20199
2.41152
2.67546
3.01176
3.46773
4.13194
5.20182
7.19149
11.5207
22.2563
50.6122
131.242
429.608
2138.48
1.70988
1.732
1.75587
1.78157
1.809
1.8385
1.87011
1.6899
1.6712
1.6544
1.63868
1.62534
1.61302
1.60419
1.59668
1.59453
1.59672
1.60299
1.61536
1.63692
1.66751
1.70895
1.76218
1.82943
1.91205
2.01405
2.14017
2.30162
2.51169
2.77601
3.11936
3.58003
4.23155
5.27649
7.21454
11.433
21.8998
49.7819
130.595
435.813
2203.1
1.68988
1.71021
1.73259
1.7564
1.78201
1.80935
1.83872
1.87019
1.67118
1.65434
1.63863
1.62522
1.6129
1.60401
1.59644
1.59426
1.59642
1.60272
1.61522
1.63709
1.66818
1.71015
1.76344
1.82978
1.90971
2.00548
2.11846
2.25307
2.41785
2.62828
2.90143
3.25512
3.70702
4.3435
5.36147
7.25184
11.363
21.5842
49.0407
130.028
441.897
2265.36
1.67117
1.69022
1.71089
1.73319
1.75695
1.78246
1.80971
1.83895
1.87027
1.65429
1.63859
1.62512
1.6128
1.60384
1.59623
1.59402
1.59618
1.60253
1.61518
1.63747
1.66932
1.7126
1.76735
1.83505
1.9154
2.00987
2.11802
2.2431
2.38587
2.55406
2.7759
3.06205
3.4079
3.84793
4.46596
5.45621
7.2989
11.3113
21.3066
48.3702
129.561
447.791
2325.15
1.65424
1.67155
1.69093
1.71158
1.73382
1.75751
1.78292
1.81007
1.83918
1.87036
1.63855
1.62502
1.61272
1.60368
1.59605
1.59381
1.59596
1.60237
1.61519
1.6379
1.67059
1.7154
1.77246
1.84312
1.92631
2.02321
2.13211
2.25431
2.38875
2.53985
2.72753
2.96716
3.24522
3.57808
4.0012
4.59816
5.55892
7.35528
11.2732
21.064
47.7748
129.159
453.529
2382.35
1.63853
1.65461
1.67234
1.69167
1.7123
1.73446
1.75809
1.7834
1.81045
1.83942
1.87045
1.62494
1.61265
1.60353
1.59589
1.59363
1.59577
1.60223
1.61522
1.63833
1.67187
1.71821
1.77778
1.85245
1.94033
2.04225
2.1558
2.2814
2.41556
2.5605
2.73478
2.94826
3.18518
3.45101
3.76495
4.16659
4.73841
5.66848
7.4186
11.2508
20.8524
47.2393
128.838
459.052
2436.94
1.62486
1.63893
1.6554
1.67315
1.69243
1.71303
1.73512
1.75869
1.78389
1.81083
1.83967
1.87054
1.61259
1.60338
1.59577
1.59346
1.5956
1.60211
1.61525
1.63874
1.67308
1.72089
1.78296
1.86182
1.95569
2.06505
2.18604
2.31934
2.45957
2.60742
2.78073
2.98796
3.19913
3.42576
3.67727
3.96798
4.34241
4.88575
5.78307
7.48843
11.2373
20.6689
46.7668
128.568
464.398
2488.88
1.61255
1.6252
1.63977
1.65621
1.67399
1.69322
1.71379
1.7358
1.7593
1.7844
1.81123
1.83992
1.87063
1.60325
1.59566
1.5933
1.59545
1.602
1.61528
1.63912
1.67421
1.72337
1.78788
1.87082
1.97089
2.08959
2.22107
2.36535
2.51635
2.67397
2.85571
3.06989
3.28028
3.4814
3.6884
3.91852
4.18545
4.52814
5.03908
5.90208
7.5627
11.2383
20.5103
46.3451
128.363
469.516
2538.18
1.60313
1.61292
1.62597
1.64064
1.65706
1.67485
1.69403
1.71456
1.7365
1.75992
1.78492
1.81163
1.84018
1.87073
1.59559
1.59315
1.5953
1.60189
1.61531
1.63945
1.67525
1.72566
1.79248
1.87929
1.98548
2.11389
2.25847
2.41804
2.58366
2.75656
2.95438
3.1862
3.40808
3.61291
3.79445
3.97345
4.17336
4.41212
4.72223
5.19716
6.02359
7.64078
11.2439
20.3725
45.973
128.196
474.443
2584.87
1.59554
1.60334
1.61371
1.62676
1.64154
1.65793
1.67574
1.69486
1.71536
1.73722
1.76056
1.78546
1.81204
1.84044
1.87081
1.593
1.59516
1.60179
1.61532
1.63975
1.67618
1.72775
1.79674
1.88718
1.99933
2.13733
2.29552
2.47458
2.66068
2.85379
3.07449
3.33365
3.57874
3.79856
3.98679
4.13765
4.27905
4.44113
4.64488
4.92136
5.35771
6.14703
7.72143
11.2559
20.2538
45.643
128.081
479.14
2629.02
1.59288
1.59578
1.60389
1.61453
1.62759
1.64247
1.65884
1.67665
1.69573
1.71618
1.73796
1.76122
1.78601
1.81245
1.84069
1.8709
1.59502
1.60169
1.61533
1.64002
1.67703
1.72964
1.80065
1.89448
2.01237
2.15965
2.33146
2.53137
2.74399
2.96575
3.21619
3.51273
3.79273
4.04033
4.24497
4.40303
4.51009
4.60322
4.72014
4.88251
5.12491
5.52118
6.27153
7.80356
11.2753
20.1519
45.3514
127.992
483.641
2670.68
1.59493
1.59277
1.59631
1.60445
1.61538
1.62846
1.64343
1.65978
1.67759
1.69662
1.71702
1.73873
1.76189
1.78655
1.81285
1.84093
1.87098
1.60159
1.61533
1.64025
1.67778
1.73136
1.80423
1.90119
2.02458
2.18069
2.36604
2.58729
2.82831
3.08846
3.38174
3.72729
4.0557
4.34545
4.58026
4.75239
4.86299
4.91072
4.94398
5.00817
5.12313
5.32761
5.68554
6.39607
7.88656
11.2992
20.0643
45.0927
127.944
487.916
2709.94
1.60156
1.59469
1.59262
1.59684
1.60506
1.61628
1.62938
1.64442
1.66076
1.67855
1.69754
1.71788
1.73951
1.76256
1.78708
1.81324
1.84117
1.87106
1.61532
1.64046
1.67846
1.73291
1.80749
1.90734
2.03593
2.20039
2.39911
2.6417
2.91182
3.21517
3.56755
3.98452
4.37901
4.73013
5.01273
5.21238
5.32775
5.36864
5.33866
5.29941
5.30308
5.36634
5.52861
5.84916
6.51974
7.9696
11.3267
19.9896
44.8645
127.913
491.994
2746.87
1.6154
1.60107
1.59419
1.59242
1.59746
1.60573
1.61721
1.63034
1.64544
1.66177
1.67954
1.69849
1.71876
1.74029
1.76321
1.78759
1.81361
1.8414
1.87114
1.64063
1.67907
1.73432
1.81046
1.91298
2.04643
2.21875
2.43056
2.69405
2.99382
3.34411
3.76429
4.28196
4.78105
5.22297
5.58038
5.82663
5.95561
5.9798
5.92242
5.79313
5.66768
5.60297
5.61041
5.72714
6.01079
6.64168
8.05214
11.3571
19.9258
44.6622
127.915
495.857
2781.59
1.64091
1.6145
1.59989
1.59362
1.59233
1.59811
1.60647
1.61816
1.63134
1.64648
1.66281
1.68055
1.69946
1.71963
1.74105
1.76384
1.78809
1.81398
1.84162
1.87122
1.67958
1.73558
1.81315
1.91814
2.05611
2.23579
2.46031
2.74399
3.07396
3.47435
3.96793
4.60622
5.26866
5.87048
6.34717
6.6715
6.82761
6.8312
6.71748
6.52653
6.27325
6.047
5.9061
5.85381
5.92244
6.16946
6.76127
8.13349
11.3894
19.8717
44.4834
127.927
499.527
2809.85
1.68022
1.63939
1.61216
1.5986
1.59319
1.59234
1.59879
1.60728
1.61913
1.6324
1.64755
1.6639
1.68159
1.70043
1.72048
1.74178
1.76445
1.78858
1.81433
1.84184
1.87129
1.73669
1.81558
1.92286
2.06502
2.25159
2.48831
2.79131
3.15205
3.60446
4.17544
4.95414
5.83248
6.70587
7.40974
7.86525
8.07436
8.05423
7.85709
7.54721
7.18186
6.77766
6.43551
6.21085
6.09522
6.11381
6.3244
6.87782
8.21337
11.4231
19.8258
44.3251
127.953
502.537
2833.72
1.73792
1.67795
1.63525
1.60968
1.5975
1.59286
1.59249
1.59947
1.60817
1.62013
1.6335
1.64866
1.66501
1.68263
1.70137
1.72131
1.7425
1.76505
1.78905
1.81468
1.84205
1.87137
1.81775
1.92715
2.0732
2.26622
2.51454
2.83599
3.22783
3.73283
4.38482
5.32693
6.47623
7.7219
8.83305
9.56717
9.87926
9.84338
9.53148
9.04235
8.47059
7.88704
7.30424
6.8313
6.51571
6.3335
6.30062
6.4751
6.99169
8.29142
11.4578
19.7872
44.1849
127.987
505.097
2859.73
1.81998
1.73467
1.67135
1.63086
1.6075
1.5965
1.59258
1.59283
1.60014
1.60913
1.62117
1.63466
1.64979
1.66612
1.68364
1.70228
1.72212
1.7432
1.76563
1.78951
1.81501
1.84225
1.87144
1.93104
2.08068
2.27978
2.53904
2.87808
3.30103
3.85808
4.59559
5.72636
7.20228
8.91532
10.5887
11.8673
12.4711
12.4536
12.0042
11.2653
10.3849
9.48342
8.63816
7.85006
7.23228
6.81922
6.56769
6.48237
6.61992
7.10219
8.36737
11.4929
19.7547
44.0772
128.025
507.902
2888.08
1.93487
1.8155
1.72458
1.66446
1.62686
1.60548
1.59558
1.59224
1.59336
1.60082
1.61017
1.62224
1.63584
1.65092
1.6672
1.68462
1.70318
1.72291
1.74387
1.76619
1.78996
1.81534
1.84245
1.87147
2.08753
2.29229
2.56188
2.91773
3.37137
3.97931
4.80835
6.1527
8.00578
10.2733
12.6501
14.6977
15.9688
16.1996
15.6132
14.5548
13.2439
11.8725
10.5763
9.42897
8.41137
7.6362
7.12004
6.79695
6.65902
6.7589
7.20892
8.44097
11.5281
19.7313
43.9898
128.072
510.98
2918.99
2.094
1.92884
1.80049
1.71416
1.65814
1.6231
1.60358
1.59474
1.5919
1.59401
1.60154
1.61127
1.62334
1.63703
1.65203
1.66825
1.68558
1.70404
1.72367
1.74453
1.76674
1.79039
1.81565
1.84255
1.87147
2.30387
2.5831
2.95504
3.43862
4.09625
5.02409
6.60393
8.87631
11.773
14.9818
18.0046
20.2606
21.2497
20.7902
19.3529
17.4727
15.443
13.4857
11.7361
10.2516
8.98383
8.04077
7.4169
7.0206
6.83005
6.89208
7.31158
8.51205
11.5585
19.7131
43.899
128.136
514.364
2952.69
2.31454
2.08615
1.90677
1.78512
1.70455
1.65214
1.61954
1.60183
1.59397
1.59163
1.59475
1.60231
1.61241
1.62447
1.63818
1.65312
1.66928
1.68652
1.70489
1.72442
1.74517
1.76728
1.79081
1.81581
1.84255
1.87147
2.60288
2.99009
3.50263
4.20903
5.24361
7.07617
9.80066
13.3872
17.5392
21.7274
25.2639
27.4479
27.782
26.2472
23.6447
20.7219
17.831
15.2014
12.9479
11.0973
9.5629
8.44369
7.70864
7.23803
6.99514
7.01949
7.41005
8.57143
11.5851
19.6954
43.8047
128.215
518.084
2989.46
2.62063
2.30428
2.05401
1.88448
1.77093
1.69539
1.64639
1.61618
1.6002
1.59329
1.59146
1.59555
1.60316
1.61354
1.62559
1.63931
1.65419
1.67027
1.68743
1.7057
1.72514
1.74579
1.7678
1.79102
1.81581
1.84255
1.87147
3.02312
3.56337
4.31812
5.46717
7.56419
10.7648
15.0881
20.2742
25.7923
30.884
34.6755
36.3855
35.5956
32.5448
28.4425
24.2574
20.3725
16.995
14.1963
11.9573
10.1441
8.84278
7.99416
7.44878
7.15406
7.14122
7.49176
8.62245
11.6153
19.6781
43.7082
128.317
522.186
3029.57
3.0523
2.60742
2.25757
2.022
1.86386
1.75733
1.68657
1.6409
1.61303
1.5987
1.59271
1.5914
1.59639
1.60406
1.61464
1.6267
1.6404
1.65523
1.67124
1.68833
1.7065
1.72585
1.7464
1.76805
1.79102
1.81581
1.84255
1.87147
3.62118
4.42416
5.69434
8.06189
11.7546
16.8488
23.1391
30.1197
37.0019
42.7865
46.4331
47.1429
44.6754
39.6282
33.6861
28.0292
23.0311
18.8423
15.4663
12.823
10.7232
9.23608
8.27259
7.65251
7.30663
7.24197
7.56168
8.67895
11.6494
19.6623
43.609
128.442
526.704
3073.36
3.67169
3.03493
2.5394
2.21177
1.99236
1.84407
1.7442
1.67808
1.63566
1.61006
1.59733
1.59225
1.59147
1.59722
1.60501
1.61572
1.6278
1.64147
1.65626
1.67218
1.68919
1.70728
1.72653
1.7467
1.76805
1.79102
1.81581
1.84255
1.87147
4.52787
5.92228
8.56288
12.7568
18.6438
26.0879
34.6301
43.4877
51.5918
57.7042
60.6583
59.7257
54.9599
47.4173
39.3052
31.985
25.7713
20.7208
16.7444
13.6869
11.2962
9.62185
8.54331
7.8489
7.43363
7.32808
7.6388
8.74162
11.6882
19.6476
43.5097
128.599
531.705
3121.12
4.61957
3.64926
2.9343
2.47384
2.16935
1.96387
1.82492
1.73153
1.66992
1.63067
1.6073
1.59609
1.59192
1.59171
1.598
1.606
1.61676
1.62889
1.64251
1.65726
1.6731
1.69004
1.70803
1.72687
1.7467
1.76805
1.79102
1.81581
1.84255
1.87143
6.1486
9.06291
13.7588
20.4489
29.0772
39.2474
50.2113
60.8833
69.906
75.8178
77.3875
74.0706
66.3438
55.8114
45.223
36.0725
28.5602
22.6104
18.0186
14.5421
11.86
9.99866
8.80578
8.01342
7.54248
7.42296
7.72398
8.81127
11.7324
19.6359
43.4091
128.794
537.224
3173.29
4.58978
6.34914
3.49523
2.83966
2.41306
2.12855
1.93629
1.80641
1.71931
1.66211
1.62592
1.60479
1.595
1.59167
1.5922
1.59875
1.60701
1.61778
1.62996
1.64352
1.65823
1.674
1.69086
1.7084
1.72688
1.74669
1.76805
1.79102
1.81581
1.84245
1.87136
9.55778
14.7498
22.2421
32.0668
43.9012
57.0511
70.4554
82.7154
92.1834
97.2028
96.5644
90.0473
78.6852
64.6952
51.36
40.2417
31.3677
24.4934
19.2788
15.3833
12.4117
10.3655
9.02675
8.15477
7.66274
7.52769
7.8182
8.88878
11.7827
19.6267
43.3122
129.032
543.358
3230.2
4.33644
6.32077
9.99554
3.35547
2.75199
2.35465
2.08907
1.90961
1.78853
1.70756
1.65463
1.6214
1.60251
1.59405
1.59134
1.59283
1.59948
1.60802
1.61879
1.63101
1.64451
1.65919
1.67487
1.69127
1.7084
1.72688
1.74669
1.76805
1.79102
1.81565
1.84225
1.87129
15.7201
24.0049
35.0214
48.5288
63.899
80.121
95.8173
109.27
118.541
121.821
118.039
107.466
91.8131
73.9451
57.6378
44.4464
34.1671
26.3548
20.5169
16.2062
12.9496
10.6753
9.217
8.31129
7.7959
7.64351
7.9226
8.9752
11.8403
19.6229
43.2164
129.33
550.149
3292.33
4.11464
5.87391
9.98696
16.5791
3.22724
2.6678
2.29819
2.05087
1.88382
1.7713
1.6963
1.64751
1.61718
1.60051
1.59326
1.59108
1.59354
1.60022
1.60903
1.61978
1.63204
1.64548
1.66012
1.6753
1.69127
1.7084
1.72688
1.7467
1.76805
1.79081
1.81533
1.84204
1.87122
25.7211
37.9122
53.0773
70.6629
89.7214
108.934
126.61
140.699
148.967
149.514
141.576
126.086
105.538
83.4363
63.9826
48.6446
36.9354
28.1823
21.7265
17.0077
13.4039
10.9422
9.42813
8.48498
7.94363
7.77181
8.03845
9.07172
11.9062
19.6251
43.1304
129.689
557.724
3360.06
3.91515
5.48484
9.17309
16.635
27.2492
3.10479
2.58656
2.24363
2.01398
1.85898
1.75477
1.68554
1.64081
1.61338
1.59881
1.5926
1.59094
1.59427
1.60097
1.61003
1.62075
1.63304
1.64643
1.66058
1.67529
1.69127
1.7084
1.72688
1.7467
1.76779
1.79039
1.815
1.84183
1.87114
40.7149
57.5058
77.2692
99.1287
121.841
143.802
163.003
177.018
183.313
180.015
166.862
145.634
119.664
93.0488
70.3265
52.7995
39.6537
29.9665
22.9029
17.6833
13.7952
11.2387
9.66287
8.67808
8.10781
7.91422
8.16727
9.17978
11.982
19.6326
43.0487
130.138
566.146
3433.95
3.72819
5.13557
8.44811
15.2697
27.4702
43.2184
2.98715
2.50821
2.19101
1.97845
1.83513
1.73896
1.67538
1.63472
1.61008
1.59735
1.59208
1.5909
1.59501
1.60175
1.611
1.62171
1.63404
1.64689
1.66057
1.67529
1.69127
1.7084
1.72687
1.74639
1.76727
1.78995
1.81467
1.84161
1.87106
61.7812
83.665
108.247
134.368
160.537
184.883
205.028
218.105
221.302
212.947
193.525
165.817
133.999
102.671
76.6089
56.8804
42.3068
31.7
23.8927
18.2644
14.2295
11.5685
9.92431
8.89315
8.29061
8.07264
8.31074
9.30091
12.0692
19.6495
42.9872
130.68
575.578
3514.35
3.55157
4.81103
7.78886
14.0067
25.3777
43.7484
65.6031
2.8741
2.43284
2.14043
1.94436
1.81231
1.72401
1.6661
1.62931
1.60718
1.5961
1.5917
1.59098
1.59574
1.60255
1.61196
1.62268
1.63452
1.64687
1.66058
1.67529
1.69127
1.7084
1.72653
1.74578
1.76673
1.7895
1.81432
1.84139
1.87098
89.8093
117.016
146.402
176.6
205.922
232.204
252.593
263.703
262.528
247.848
221.157
186.341
148.36
112.201
82.7792
60.8623
44.8827
33.1563
24.7431
18.9083
14.712
11.936
10.2159
9.13319
8.49458
8.24926
8.47099
9.43719
12.1697
19.6797
42.9352
131.355
586.118
3601.86
3.38457
4.50767
7.17298
12.8231
23.4073
40.7517
66.6205
95.2918
2.76565
2.36058
2.09197
1.91179
1.79074
1.71031
1.65779
1.6245
1.60465
1.59504
1.59143
1.59117
1.59645
1.60337
1.61293
1.62314
1.63451
1.64687
1.66058
1.67529
1.69127
1.70803
1.72584
1.74515
1.76618
1.78904
1.81396
1.84116
1.8709
125.39
157.878
191.859
225.849
257.98
285.689
305.49
313.424
306.467
284.188
249.336
206.925
162.583
121.556
88.7956
64.7251
47.0443
34.4068
25.6845
19.6228
15.2489
12.3458
10.5418
9.40166
8.7226
8.44659
8.65004
9.59164
12.2865
19.7239
42.9167
132.177
597.975
3714.6
3.22682
4.22489
6.59458
11.6971
21.5219
37.9018
62.5539
96.9851
132.827
2.6619
2.2916
2.04574
1.88102
1.77096
1.69801
1.65035
1.62023
1.60246
1.59416
1.59126
1.59152
1.59714
1.60426
1.61339
1.62311
1.63451
1.64687
1.66058
1.6753
1.69086
1.70726
1.72512
1.74451
1.76561
1.78856
1.8136
1.84092
1.87081
168.759
206.267
244.53
282.022
316.625
345.186
363.4
366.745
352.496
321.403
277.648
227.31
176.53
130.665
94.6241
67.9624
48.9
35.7909
26.728
20.4163
15.8467
12.8033
10.9063
9.70243
8.97804
8.66772
8.84935
9.7668
12.4221
19.7877
42.9287
133.202
613.793
3850.68
3.07792
3.96283
6.054
10.6228
19.6915
35.1364
58.6799
91.6929
135.359
178.346
2.56304
2.22604
2.00215
1.85284
1.75318
1.68698
1.6437
1.61642
1.6006
1.59342
1.59105
1.592
1.5979
1.60467
1.61333
1.62311
1.63451
1.64687
1.66058
1.67487
1.69003
1.70648
1.72439
1.74385
1.76503
1.78808
1.81323
1.84068
1.87072
219.806
261.952
304.2
344.977
381.743
410.489
425.891
423.023
399.925
358.922
305.709
247.278
190.083
139.472
99.4998
70.7406
50.9539
37.3246
27.886
21.2984
16.5129
13.3148
11.3147
10.0399
9.26472
8.91647
9.07209
9.96558
12.5807
19.8744
42.97
134.677
634.084
3989.76
2.93715
3.7221
5.55293
9.60398
17.9059
32.4138
54.8909
86.6836
128.679
181.807
231.588
2.46938
2.16446
1.9623
1.82754
1.73722
1.67707
1.63775
1.61302
1.59901
1.5928
1.5909
1.59266
1.5982
1.60459
1.61334
1.62311
1.63451
1.64689
1.66011
1.67398
1.68917
1.70568
1.72365
1.74317
1.76443
1.78758
1.81284
1.84043
1.87063
278.143
324.569
370.63
414.603
453.255
481.35
492.422
481.511
448.022
396.199
333.186
266.646
203.152
146.819
103.681
73.8152
53.2298
39.0259
29.1718
22.2796
17.2559
13.8868
11.7726
10.419
9.58706
9.19671
9.32208
10.1916
12.7658
19.9919
43.0812
136.827
656.149
4130.94
2.80399
3.50512
5.0923
8.65024
16.1664
29.7148
51.128
81.7759
122.45
173.541
235.958
291.982
2.38179
2.10834
1.9266
1.80484
1.72288
1.66819
1.63243
1.61002
1.59765
1.59231
1.59101
1.59295
1.59804
1.60461
1.61334
1.62311
1.63453
1.64643
1.65917
1.67308
1.6883
1.70486
1.72288
1.74247
1.76382
1.78707
1.81245
1.84018
1.87054
343.239
393.751
443.688
490.98
531.214
557.505
562.341
541.37
496.06
432.752
359.805
285.27
214.021
153.111
108.304
77.2206
55.7537
40.9145
30.6009
23.3717
18.0848
14.5269
12.2865
10.8454
9.95002
9.513
9.60355
10.449
12.9836
20.1724
43.335
139.392
680.291
4273.16
2.67946
3.30757
4.67174
7.76342
14.4807
27.0369
47.3558
76.8877
116.378
166.012
225.829
297.089
358.795
2.30243
2.05823
1.89464
1.78446
1.71001
1.66023
1.62768
1.60739
1.59651
1.59217
1.59092
1.59281
1.59804
1.60461
1.61334
1.62315
1.63404
1.64546
1.65821
1.67216
1.6874
1.70401
1.72209
1.74176
1.76319
1.78654
1.81204
1.83992
1.87045
414.583
469.3
523.547
574.49
615.837
638.658
634.866
601.72
543.375
468.179
385.348
300.705
223.308
160.058
113.42
80.9946
58.5544
43.0124
32.1899
24.5878
19.0098
15.2432
12.8636
11.3251
10.3592
9.8702
9.92179
10.7433
13.2858
20.4546
43.711
142.503
706.621
4415.18
2.56657
3.12771
4.29299
6.94555
12.8667
24.3888
43.5603
71.9585
110.353
158.763
216.89
284.695
364.294
431.323
2.23199
2.01347
1.86601
1.76618
1.69847
1.65311
1.62345
1.60512
1.59589
1.59192
1.5906
1.59285
1.59804
1.6046
1.6134
1.62269
1.63303
1.64449
1.65723
1.67121
1.68649
1.70315
1.72129
1.74103
1.76255
1.786
1.81163
1.83966
1.87036
491.864
551.378
610.788
665.829
707.44
724.391
709.103
661.717
589.401
502.161
406.458
313.865
233.539
167.728
119.08
85.1786
61.6637
45.344
33.9575
25.942
20.0419
16.0446
13.5111
11.8647
10.8205
10.2744
10.2823
11.1413
13.6972
20.8134
44.2514
146.175
735.427
4555.67
2.46647
2.9673
3.95764
6.20275
11.3427
21.7885
39.7423
66.9527
104.279
151.653
208.454
274.168
349.042
436.715
509.115
2.16945
1.97349
1.84038
1.7498
1.68813
1.64672
1.61973
1.60363
1.59534
1.59153
1.59063
1.59286
1.59805
1.60468
1.61294
1.62171
1.63202
1.64349
1.65623
1.67024
1.68555
1.70226
1.72047
1.74028
1.76189
1.78546
1.81122
1.83942
1.87027
575.215
640.749
706.643
766.142
806.335
814.107
784.122
720.62
633.686
530.219
424.422
328.323
244.801
176.193
125.343
89.8171
65.1163
47.9356
35.9237
27.4498
21.1928
16.9404
14.2372
12.4713
11.3408
10.7308
10.7669
11.662
14.1707
21.268
44.97
150.568
766.965
4693.04
2.37797
2.82535
3.67131
5.5439
9.92783
19.2595
35.9143
61.852
98.0888
144.539
200.345
264.501
336.649
417.733
513.805
592.264
2.11389
1.9378
1.81744
1.73512
1.67883
1.64106
1.61708
1.60254
1.59482
1.59157
1.59063
1.59282
1.59821
1.60427
1.61196
1.62074
1.63098
1.64248
1.6552
1.66925
1.68459
1.70135
1.71962
1.73951
1.76122
1.78491
1.81082
1.83918
1.87019
665.558
739.16
813.327
877.049
912.863
907.118
859.124
777.829
670.354
554.077
444.11
344.185
257.185
185.528
132.268
94.9584
68.9493
50.8158
38.1105
29.1278
22.475
17.941
15.05
13.1524
11.9256
11.3419
11.3922
12.2391
14.716
21.8304
45.9261
155.735
801.473
4825.82
2.29988
2.69881
3.43556
4.98233
8.65337
16.8289
32.099
56.6511
91.7326
137.317
192.365
255.478
325.64
403.07
489.816
595.617
681.836
2.06448
1.90595
1.79692
1.72192
1.67056
1.63686
1.61531
1.6018
1.59489
1.59158
1.59062
1.59296
1.59792
1.60337
1.61099
1.61976
1.62993
1.64144
1.65416
1.66823
1.68362
1.70041
1.71876
1.73873
1.76055
1.78439
1.81043
1.83894
1.8701
765.084
849.914
934.273
1000.9
1027.27
1003.19
933.479
825.662
701.596
580.205
465.653
361.56
270.783
195.808
139.919
100.652
73.2022
54.0151
40.5408
30.9934
23.9017
19.0563
15.958
13.914
12.7045
12.121
12.0744
12.8767
15.3404
22.5271
47.1551
161.889
839.432
4952.35
2.231
2.58612
3.23717
4.51502
7.54883
14.5404
28.329
51.3573
85.1708
129.892
184.367
246.835
315.75
390.516
472.349
564.797
683.403
780.613
2.02054
1.87754
1.7785
1.71018
1.66426
1.63418
1.61434
1.60192
1.5949
1.59154
1.59095
1.59269
1.59715
1.60255
1.61001
1.61877
1.62886
1.64037
1.6531
1.66718
1.68262
1.69946
1.71788
1.73795
1.7599
1.78388
1.81006
1.83872
1.87002
878.122
978.696
1075.22
1139.91
1152.01
1102.27
996.983
866.703
735.9
608.773
489.178
380.55
285.68
207.111
148.358
106.95
77.9157
57.565
43.2387
33.0644
25.4859
20.2965
16.9679
14.922
13.6864
12.9576
12.813
13.5752
16.0547
23.3762
48.7422
169.157
881.073
5071.19
2.17024
2.48615
3.06684
4.12944
6.61951
12.4874
24.6721
45.9933
78.3752
122.177
176.206
238.378
306.632
379.742
457.949
543.906
643.058
780.639
894.425
1.98146
1.85212
1.7621
1.70106
1.66032
1.63291
1.61451
1.60193
1.59483
1.59195
1.59105
1.59202
1.59645
1.60175
1.60902
1.61777
1.62778
1.63928
1.65202
1.66611
1.68159
1.69849
1.717
1.7372
1.75927
1.78339
1.80969
1.8385
1.86994
1012.76
1135.99
1241.89
1305.65
1289.74
1189.97
1052.27
912.153
773.545
639.959
514.804
401.249
301.959
219.505
157.646
113.904
83.1311
61.4978
46.2287
35.3591
27.2414
21.67
18.2973
16.1798
14.7277
13.8466
13.6053
14.3334
16.8634
24.408
50.7558
177.846
927.065
5181.06
2.11657
2.39792
2.91805
3.81238
5.84778
10.7134
21.272
40.6373
71.3338
114.086
167.737
229.914
298.046
370.288
446.196
527.275
618.099
726.653
894.8
1035.74
1.94661
1.82953
1.74916
1.69551
1.65867
1.63315
1.61452
1.60183
1.59538
1.59222
1.59095
1.59155
1.59575
1.60098
1.60801
1.61675
1.62668
1.63817
1.65092
1.66502
1.68056
1.69753
1.71616
1.73648
1.75866
1.78291
1.80933
1.83828
1.86986
1184.79
1335.47
1470.95
1509.42
1417.29
1267.97
1114.55
962.583
814.864
673.952
542.648
423.738
319.687
233.054
167.84
121.561
88.888
65.8446
49.5344
37.8949
29.1796
23.4699
19.9421
17.4999
15.8193
14.7812
14.4477
15.1533
17.775
25.6465
53.3089
188.204
977.956
5280.87
2.06899
2.3204
2.78632
3.55437
5.21347
9.20966
18.2208
35.4913
64.1071
105.542
158.8
221.237
289.748
361.863
436.478
514.367
598.803
696.892
821.274
1043.45
1228.95
1.91569
1.81154
1.74137
1.69341
1.659
1.63316
1.61437
1.60259
1.59595
1.59237
1.59112
1.59121
1.59502
1.60023
1.607
1.61571
1.62558
1.63702
1.6498
1.6639
1.67953
1.6966
1.71533
1.73578
1.75807
1.78245
1.80899
1.83808
1.86979
1430.25
1666.19
1790.8
1704.7
1533.12
1357.89
1185.2
1018.82
860.294
710.981
572.83
448.088
338.917
247.807
178.987
129.964
95.2224
70.6343
53.178
40.6876
31.7111
25.683
21.655
18.87
16.9508
15.7537
15.3342
16.0367
18.7968
27.1269
56.4994
200.648
1034.37
5370.36
2.02696
2.25229
2.66917
3.34224
4.69478
7.95313
15.5245
30.7122
56.938
96.5493
149.232
212.113
281.483
354.174
428.436
504.383
584.476
674.508
785.41
940.149
1274.1
1546.26
1.89076
1.80092
1.73869
1.69386
1.65901
1.63295
1.61538
1.60372
1.5966
1.59288
1.59133
1.59103
1.59428
1.5995
1.60601
1.61465
1.62448
1.63586
1.64867
1.66281
1.67853
1.69571
1.71453
1.7351
1.75749
1.782
1.80865
1.83788
1.86972
1903.53
2155.36
2093.36
1883.23
1670.27
1463.06
1266.64
1082.16
910.494
751.355
605.481
474.355
359.684
263.795
191.12
139.146
102.163
75.8914
57.1773
44.3251
34.8098
27.9754
23.4203
20.2765
18.1116
16.756
16.2602
16.9843
19.9404
28.8812
60.4593
215.596
1096.85
5448.89
1.99285
2.19279
2.56499
3.16353
4.27357
6.91317
13.1855
26.3432
50.0462
87.3445
138.934
202.278
272.955
346.928
421.723
496.851
574.156
658.383
759.611
895.899
1117.08
1736.82
2232.5
1.87614
1.7976
1.7393
1.69388
1.65871
1.63425
1.6172
1.60525
1.59777
1.59352
1.59152
1.59098
1.59356
1.59878
1.60504
1.61356
1.62337
1.63467
1.64755
1.66176
1.67756
1.69484
1.71376
1.73444
1.75693
1.78156
1.80832
1.83768
1.86968
2609.68
2650.54
2389.19
2112
1839.69
1592.67
1362.74
1154.81
966.508
795.514
640.78