/*--------------------------------*- C++ -*----------------------------------*\
  =========                 |
  \\      /  F ield         | OpenFOAM: The Open Source CFD Toolbox
   \\    /   O peration     | Website:  https://openfoam.org
    \\  /    A nd           | Version:  8
     \\/     M anipulation  |
\*---------------------------------------------------------------------------*/
FoamFile
{
    version     2.0;
    format      ascii;
    class       surfaceScalarField;
    location    "800";
    object      phi;
}
// * * * * * * * * * * * * * * * * * * * * * * * * * * * * * * * * * * * * * //

dimensions      [0 3 -1 0 0 0 0];

internalField   nonuniform List<scalar> 
31053
(
1.74482e-06
1.16352e-05
1.36362e-06
1.57612e-05
9.63043e-07
1.06721e-05
1.26622e-06
1.77374e-05
1.5265e-06
1.51977e-05
5.92612e-07
1.00795e-05
1.20175e-06
2.03045e-05
1.50972e-06
1.77542e-05
1.20903e-06
1.45813e-05
4.30953e-07
9.64857e-06
1.13104e-06
2.33107e-05
1.45141e-06
2.03628e-05
1.33681e-06
1.76264e-05
9.70144e-07
1.40421e-05
3.06268e-07
9.3423e-06
1.0575e-06
2.67335e-05
1.39807e-06
2.33641e-05
1.32642e-06
2.03732e-05
1.18639e-06
1.74102e-05
7.46137e-07
1.36023e-05
2.13281e-07
9.12902e-06
9.80599e-07
3.06969e-05
1.34198e-06
2.67896e-05
1.29547e-06
2.3395e-05
1.22232e-06
2.03372e-05
1.00069e-06
1.71556e-05
5.6617e-07
1.32494e-05
1.51732e-07
8.97729e-06
9.00077e-07
3.52205e-05
1.28078e-06
3.07581e-05
1.2586e-06
2.68265e-05
1.20864e-06
2.34087e-05
1.07269e-06
2.02652e-05
8.25784e-07
1.6896e-05
4.29243e-07
1.29719e-05
1.09239e-07
8.86805e-06
8.16322e-07
4.04038e-05
1.21401e-06
3.52873e-05
1.21738e-06
3.07993e-05
1.18047e-06
2.68547e-05
1.07627e-06
2.34051e-05
9.19876e-07
2.01711e-05
6.74295e-07
1.66509e-05
3.22532e-07
1.27586e-05
7.79885e-08
8.79006e-06
7.30134e-07
4.63662e-05
1.14143e-06
4.04763e-05
1.17126e-06
3.53334e-05
1.14552e-06
3.08343e-05
1.05663e-06
2.68743e-05
9.35945e-07
2.3389e-05
7.80502e-07
2.00649e-05
5.42677e-07
1.64308e-05
2.3874e-07
1.25978e-05
5.25527e-08
8.7375e-06
6.42782e-07
5.32274e-05
1.06301e-06
4.64446e-05
1.11925e-06
4.05283e-05
1.10512e-06
3.53738e-05
1.02628e-06
3.08646e-05
9.22014e-07
2.68882e-05
8.04338e-07
2.33652e-05
6.52596e-07
1.9955e-05
4.25984e-07
1.62436e-05
1.70379e-07
1.248e-05
2.8392e-08
8.70911e-06
5.56054e-07
6.10667e-05
9.79072e-07
5.33113e-05
1.06041e-06
4.65034e-05
1.05896e-06
4.05745e-05
9.88743e-07
3.54114e-05
8.93693e-07
3.08929e-05
7.92934e-07
2.68996e-05
6.79146e-07
2.33386e-05
5.32335e-07
1.98487e-05
3.20639e-07
1.60933e-05
1.10406e-07
1.2398e-05
7.41607e-09
8.70169e-06
4.71876e-07
7.00662e-05
8.90346e-07
6.11555e-05
9.94021e-07
5.33777e-05
1.00626e-06
4.65561e-05
9.44822e-07
4.06184e-05
8.56178e-07
3.54489e-05
7.63763e-07
3.09221e-05
6.66814e-07
2.6912e-05
5.5721e-07
2.33138e-05
4.1678e-07
1.97525e-05
2.24216e-07
1.59795e-05
5.67824e-08
1.23486e-05
-1.01469e-08
8.71184e-06
3.92286e-07
8.04116e-05
7.97862e-07
7.01587e-05
9.19888e-07
6.12296e-05
9.46039e-07
5.34379e-05
8.94254e-07
4.66067e-05
8.11125e-07
4.06635e-05
7.2315e-07
3.54895e-05
6.33879e-07
3.0955e-05
5.40549e-07
2.69286e-05
4.36001e-07
2.32945e-05
3.04243e-07
1.96725e-05
1.34955e-07
1.59013e-05
8.05744e-09
1.23304e-05
-2.70174e-08
8.73886e-06
3.3086e-07
7.62514e-05
7.02698e-07
8.05068e-05
8.38462e-07
7.02401e-05
8.77482e-07
6.12981e-05
8.36319e-07
5.34958e-05
7.58722e-07
4.66591e-05
6.73385e-07
4.07132e-05
5.87241e-07
3.55361e-05
5.00886e-07
3.09947e-05
4.11716e-07
2.69529e-05
3.13855e-07
2.32849e-05
1.93776e-07
1.96137e-05
5.12817e-08
1.58581e-05
-3.80074e-08
1.23414e-05
-4.46666e-08
8.78352e-06
2.8022e-07
7.62406e-05
6.21726e-07
7.63324e-05
7.50783e-07
8.05944e-05
8.00143e-07
7.03174e-05
7.70199e-07
6.13643e-05
6.98507e-07
5.3556e-05
6.15046e-07
4.67175e-05
5.29562e-07
4.07709e-05
4.45321e-07
3.55917e-05
3.62341e-07
3.10441e-05
2.78746e-07
2.6988e-05
1.90003e-07
2.32887e-05
8.48742e-08
1.95801e-05
-2.8879e-08
1.5849e-05
-8.2884e-08
1.23796e-05
-6.28108e-08
8.84633e-06
2.38172e-07
7.6232e-05
5.49119e-07
7.63132e-05
6.73384e-07
7.64098e-05
7.14407e-07
8.06802e-05
6.95185e-07
7.03924e-05
6.29804e-07
6.1433e-05
5.4792e-07
5.36232e-05
4.61681e-07
4.67853e-05
3.76648e-07
4.08396e-05
2.94914e-07
3.56591e-05
2.16621e-07
3.11062e-05
1.41002e-07
2.7037e-05
6.4033e-08
2.33095e-05
-2.3372e-08
1.95746e-05
-1.06697e-07
1.58728e-05
-1.27031e-07
1.24438e-05
-8.10624e-08
8.92739e-06
2.03028e-07
7.62271e-05
4.84076e-07
7.62971e-05
6.01671e-07
7.6385e-05
6.37374e-07
7.64868e-05
6.11107e-07
8.07642e-05
5.51934e-07
7.04703e-05
4.71512e-07
6.15094e-05
3.83577e-07
5.37013e-05
2.95806e-07
4.68662e-05
2.12153e-07
4.09224e-05
1.34292e-07
3.57414e-05
6.31002e-08
3.11841e-05
-1.87752e-09
2.71029e-05
-6.46055e-08
2.33508e-05
-1.31233e-07
1.95991e-05
-1.82636e-07
1.59284e-05
-1.70391e-07
1.25331e-05
-9.90236e-08
9.02642e-06
1.73471e-07
7.62196e-05
4.25827e-07
7.62854e-05
5.35503e-07
7.63633e-05
5.64997e-07
7.64573e-05
5.34483e-07
7.65635e-05
4.64641e-07
8.08515e-05
3.85277e-07
7.05565e-05
2.94935e-07
6.1598e-05
2.02872e-07
5.37942e-05
1.14948e-07
4.69634e-05
3.42281e-08
4.10224e-05
-3.72724e-08
3.58418e-05
-9.85442e-08
3.12808e-05
-1.50248e-07
2.71886e-05
-1.95781e-07
2.34153e-05
-2.38423e-07
1.96549e-05
-2.56708e-07
1.60147e-05
-2.12488e-07
1.26466e-05
-1.16479e-07
9.1429e-06
1.48464e-07
7.6215e-05
3.73675e-07
7.62717e-05
4.74648e-07
7.63462e-05
4.97496e-07
7.64308e-05
4.61754e-07
7.65301e-05
3.84968e-07
7.66431e-05
2.89066e-07
8.09477e-05
1.95399e-07
7.06561e-05
9.7665e-08
6.17032e-05
3.36284e-09
5.39058e-05
-8.28654e-08
4.70805e-05
-1.57973e-07
4.11431e-05
-2.20061e-07
3.59633e-05
-2.68421e-07
3.1399e-05
-3.03766e-07
2.72965e-05
-3.28705e-07
2.35056e-05
-3.44205e-07
1.97424e-05
-3.28471e-07
1.61307e-05
-2.53164e-07
1.27833e-05
-1.33204e-07
9.2761e-06
1.27199e-07
7.62113e-05
3.26993e-07
7.62617e-05
4.18862e-07
7.63275e-05
4.34924e-07
7.64088e-05
3.9349e-07
7.6499e-05
3.0929e-07
7.66057e-05
2.01666e-07
7.67305e-05
8.50501e-08
8.10581e-05
-1.99806e-08
7.07737e-05
-1.22704e-07
6.18293e-05
-2.17026e-07
5.404e-05
-2.98586e-07
4.72211e-05
-3.64725e-07
4.12878e-05
-4.13951e-07
3.61089e-05
-4.45929e-07
3.15411e-05
-4.61221e-07
2.74291e-05
-4.61996e-07
2.36234e-05
-4.47706e-07
1.98616e-05
-3.97546e-07
1.62751e-05
-2.92011e-07
1.29421e-05
-1.48906e-07
9.425e-06
1.10478e-07
6.95987e-05
2.85239e-07
7.6253e-05
3.67906e-07
7.63126e-05
3.77248e-07
7.63852e-05
3.30031e-07
7.64723e-05
2.3836e-07
7.657e-05
1.19032e-07
7.66884e-05
-1.45628e-08
7.68301e-05
-1.49674e-07
8.11878e-05
-2.63246e-07
7.09143e-05
-3.68351e-07
6.19806e-05
-4.59357e-07
5.42007e-05
-5.32505e-07
4.73889e-05
-5.85677e-07
4.14595e-05
-6.18085e-07
3.6281e-05
-6.29516e-07
3.17094e-05
-6.20743e-07
2.75878e-05
-5.94143e-07
2.37698e-05
-5.47826e-07
2.00119e-05
-4.63353e-07
1.64464e-05
-3.28586e-07
1.31218e-05
-1.63397e-07
9.5884e-06
9.72954e-08
6.25572e-05
2.51075e-07
6.96329e-05
3.21534e-07
7.62994e-05
3.24385e-07
7.63655e-05
2.71573e-07
7.64436e-05
1.72711e-07
7.65379e-05
4.20531e-08
7.66469e-05
-1.08145e-07
7.6782e-05
-2.66032e-07
7.69465e-05
-4.1753e-07
8.13421e-05
-5.36702e-07
7.10826e-05
-6.40443e-07
6.21617e-05
-7.23938e-07
5.43922e-05
-7.84041e-07
4.75872e-05
-8.19733e-07
4.16612e-05
-8.30574e-07
3.64821e-05
-8.1687e-07
3.19055e-05
-7.80339e-07
2.7774e-05
-7.23335e-07
2.39453e-05
-6.43514e-07
2.01921e-05
-5.25098e-07
1.66429e-05
-3.62334e-07
1.33207e-05
-1.76457e-07
9.76486e-06
8.67277e-08
5.62286e-05
2.23349e-07
6.25849e-05
2.829e-07
6.96715e-05
2.76231e-07
7.63475e-05
2.18217e-07
7.64189e-05
1.12709e-07
7.65036e-05
-2.85752e-08
7.66086e-05
-1.94664e-07
7.67335e-05
-3.74655e-07
7.68906e-05
-5.5528e-07
7.70842e-05
-7.20987e-07
8.15264e-05
-8.41612e-07
7.12838e-05
-9.39312e-07
6.23771e-05
-1.00996e-06
5.46181e-05
-1.05187e-06
4.78194e-05
-1.06465e-06
4.18952e-05
-1.04866e-06
3.67139e-05
-1.00552e-06
3.21307e-05
-9.37639e-07
2.79883e-05
-8.47842e-07
2.41497e-05
-7.33513e-07
2.04005e-05
-5.82066e-07
1.68626e-05
-3.92792e-07
1.35371e-05
-1.87948e-07
9.95281e-06
7.81371e-08
5.05406e-05
2.00652e-07
5.62513e-05
2.51048e-07
6.26168e-05
2.36264e-07
6.97115e-05
1.70007e-07
7.63958e-05
5.85911e-08
7.6473e-05
-9.23344e-08
7.65674e-05
-2.7326e-07
7.66872e-05
-4.74347e-07
7.68331e-05
-6.83204e-07
7.70185e-05
-8.84959e-07
7.72482e-05
-1.06141e-06
8.17462e-05
-1.17836e-06
7.15228e-05
-1.26394e-06
6.2631e-05
-1.31587e-06
5.48821e-05
-1.33338e-06
4.80881e-05
-1.31721e-06
4.21638e-05
-1.26938e-06
3.69777e-05
-1.19256e-06
3.23856e-05
-1.09033e-06
2.82308e-05
-9.65822e-07
2.4382e-05
-8.16749e-07
2.06352e-05
-6.33703e-07
1.71035e-05
-4.19709e-07
1.37688e-05
-1.97764e-07
1.01506e-05
7.10707e-08
4.54271e-05
1.81924e-07
5.05593e-05
2.24644e-07
5.62777e-05
2.03522e-07
6.26495e-05
1.30483e-07
6.9751e-05
1.05095e-08
7.64438e-05
-1.48862e-07
7.65295e-05
-3.43254e-07
7.66374e-05
-5.64064e-07
7.67769e-05
-7.99896e-07
7.69498e-05
-1.03666e-06
7.71702e-05
-1.25656e-06
7.74434e-05
-1.43929e-06
8.20071e-05
-1.54572e-06
7.18046e-05
-1.61252e-06
6.29277e-05
-1.63867e-06
5.51874e-05
-1.62485e-06
4.83957e-05
-1.57391e-06
4.24683e-05
-1.48925e-06
3.72744e-05
-1.3751e-06
3.26704e-05
-1.23593e-06
2.85009e-05
-1.07568e-06
2.46409e-05
-8.923e-07
2.08938e-05
-6.79414e-07
1.73633e-05
-4.4283e-07
1.40139e-05
-2.05822e-07
1.03564e-05
6.5199e-08
4.08319e-05
1.66355e-07
4.54426e-05
2.02639e-07
5.05813e-05
1.76597e-07
5.63046e-05
9.86056e-08
6.26814e-05
-2.80581e-08
6.97896e-05
-1.97907e-07
7.64929e-05
-4.04145e-07
7.65904e-05
-6.42945e-07
7.67163e-05
-9.04097e-07
7.68811e-05
-1.17442e-06
7.70876e-05
-1.43666e-06
7.73503e-05
-1.67068e-06
7.76748e-05
-1.85322e-06
8.23146e-05
-1.94169e-06
7.21338e-05
-1.9817e-06
6.32707e-05
-1.97412e-06
5.55366e-05
-1.92224e-06
4.87441e-05
-1.83069e-06
4.28097e-05
-1.7048e-06
3.76041e-05
-1.55004e-06
3.29845e-05
-1.37231e-06
2.87975e-05
-1.17584e-06
2.49245e-05
-9.59377e-07
2.11737e-05
-7.18771e-07
1.76392e-05
-4.61976e-07
1.427e-05
-2.12109e-07
1.05685e-05
6.02776e-08
3.67009e-05
1.53324e-07
4.08449e-05
1.84206e-07
4.54611e-05
1.54371e-07
5.06035e-05
7.28679e-08
5.63303e-05
-5.83491e-08
6.27117e-05
-2.36021e-07
6.98277e-05
-4.55569e-07
7.65443e-05
-7.10332e-07
7.66578e-05
-9.94737e-07
7.68069e-05
-1.29672e-06
7.70034e-05
-1.59973e-06
7.72507e-05
-1.88397e-06
7.75636e-05
-2.12585e-06
7.79474e-05
-2.30103e-06
8.26739e-05
-2.36253e-06
7.25146e-05
-2.36668e-06
6.36633e-05
-2.3176e-06
5.5932e-05
-2.2208e-06
4.91342e-05
-2.08336e-06
4.31883e-05
-1.91222e-06
3.79663e-05
-1.7147e-06
3.33269e-05
-1.49742e-06
2.91191e-05
-1.26521e-06
2.52303e-05
-1.01738e-06
2.14723e-05
-7.51539e-07
1.79288e-05
-4.771e-07
1.4535e-05
-2.16608e-07
1.07851e-05
5.61214e-08
3.29902e-05
1.42348e-07
3.67119e-05
1.68689e-07
4.08604e-05
1.35952e-07
4.54795e-05
5.20563e-08
5.06244e-05
-8.20457e-08
5.6354e-05
-2.64783e-07
6.27404e-05
-4.94051e-07
6.98662e-05
-7.65732e-07
7.65997e-05
-1.07097e-06
7.6734e-05
-1.40224e-06
7.69124e-05
-1.74395e-06
7.71476e-05
-2.0768e-06
7.74435e-05
-2.3771e-06
7.78148e-05
-2.61985e-06
7.82662e-05
-2.77871e-06
8.30901e-05
-2.80289e-06
7.29508e-05
-2.76218e-06
6.41079e-05
-2.66356e-06
5.63748e-05
-2.51556e-06
4.95664e-05
-2.32741e-06
4.36035e-05
-2.10828e-06
3.83599e-05
-1.86651e-06
3.3696e-05
-1.60964e-06
2.94635e-05
-1.34295e-06
2.55559e-05
-1.06593e-06
2.17867e-05
-7.77647e-07
1.82293e-05
-4.88214e-07
1.48066e-05
-2.19487e-07
1.10046e-05
5.25888e-08
2.96515e-05
1.33048e-07
3.29995e-05
1.55562e-07
3.6725e-05
1.20628e-07
4.08757e-05
3.51973e-08
4.54963e-05
-1.0051e-07
5.06428e-05
-2.86183e-07
5.63754e-05
-5.21637e-07
6.2768e-05
-8.05559e-07
6.9906e-05
-1.13214e-06
7.66609e-05
-1.48991e-06
7.68217e-05
-1.8677e-06
7.70362e-05
-2.24699e-06
7.73178e-05
-2.60419e-06
7.76706e-05
-2.91389e-06
7.81089e-05
-3.14842e-06
7.86359e-05
-3.2802e-06
8.35674e-05
-3.25674e-06
7.34454e-05
-3.16182e-06
6.46061e-05
-3.00627e-06
5.68655e-05
-2.80131e-06
5.00403e-05
-2.55899e-06
4.40542e-05
-2.28981e-06
3.87832e-05
-2.00335e-06
3.40897e-05
-1.70779e-06
2.98284e-05
-1.40842e-06
2.58984e-05
-1.1049e-06
2.2114e-05
-7.97153e-07
1.85382e-05
-4.95541e-07
1.50827e-05
-2.20453e-07
1.1225e-05
4.95689e-08
2.6651e-05
1.25127e-07
2.96595e-05
1.44407e-07
3.30106e-05
1.07825e-07
3.67378e-05
2.15109e-08
4.08894e-05
-1.14836e-07
4.55107e-05
-3.0183e-07
5.06585e-05
-5.40745e-07
5.63945e-05
-8.32447e-07
6.27949e-05
-1.17445e-06
6.99483e-05
-1.55888e-06
7.67298e-05
-1.96963e-06
7.69236e-05
-2.39257e-06
7.71817e-05
-2.80453e-06
7.75181e-05
-3.17988e-06
7.79366e-05
-3.48989e-06
7.84503e-05
-3.70499e-06
7.90607e-05
-3.79891e-06
8.41096e-05
-3.71695e-06
7.40005e-05
-3.55912e-06
6.5159e-05
-3.3397e-06
5.74039e-05
-3.07349e-06
5.05548e-05
-2.77427e-06
4.45387e-05
-2.45417e-06
3.9234e-05
-2.12363e-06
3.45055e-05
-1.79096e-06
3.02109e-05
-1.46137e-06
2.62548e-05
-1.13438e-06
2.24512e-05
-8.10319e-07
1.8853e-05
-4.98843e-07
1.53611e-05
-2.72086e-07
1.14971e-05
4.69738e-08
2.39566e-05
1.18346e-07
2.66578e-05
1.34888e-07
2.9669e-05
9.70862e-08
3.30213e-05
1.03736e-08
3.6749e-05
-1.25899e-07
4.09005e-05
-3.13015e-07
4.55219e-05
-5.53331e-07
5.06711e-05
-8.49369e-07
5.64115e-05
-1.20123e-06
6.28217e-05
-1.605e-06
6.99944e-05
-2.04866e-06
7.68089e-05
-2.51186e-06
7.70429e-05
-2.97575e-06
7.7353e-05
-3.41476e-06
7.7753e-05
-3.79935e-06
7.82461e-05
-4.09822e-06
7.88436e-05
-4.28259e-06
7.95444e-05
-4.32691e-06
8.47196e-05
-4.1762e-06
7.46176e-05
-3.94707e-06
6.57663e-05
-3.65844e-06
5.79888e-05
-3.32743e-06
5.11079e-05
-2.96997e-06
4.50545e-05
-2.59929e-06
3.97097e-05
-2.22611e-06
3.49407e-05
-1.8587e-06
3.06082e-05
-1.50187e-06
2.66223e-05
-1.15469e-06
2.27956e-05
-8.17098e-07
1.91713e-05
-6.16748e-07
1.57057e-05
-2.68384e-07
1.17655e-05
4.47337e-08
2.15342e-05
1.12513e-07
2.39624e-05
1.26729e-07
2.6666e-05
8.80411e-08
2.9678e-05
1.28631e-09
3.30304e-05
-1.34398e-07
3.67575e-05
-3.20764e-07
4.09082e-05
-5.60956e-07
4.55295e-05
-8.58723e-07
5.06804e-05
-1.21616e-06
5.64264e-05
-1.63244e-06
6.28491e-05
-2.10013e-06
7.00459e-05
-2.60351e-06
7.69005e-05
-3.11579e-06
7.71829e-05
-3.61568e-06
7.75539e-05
-4.0732e-06
7.80268e-05
-4.45554e-06
7.86034e-05
-4.7316e-06
7.92926e-05
-4.87266e-06
8.00901e-05
-4.85598e-06
8.53993e-05
-4.62636e-06
7.52969e-05
-4.31932e-06
6.64272e-05
-3.95696e-06
5.86184e-05
-3.5592e-06
5.16972e-05
-3.14351e-06
4.55987e-05
-2.72357e-06
4.02071e-05
-2.31012e-06
3.53921e-05
-1.91103e-06
3.10174e-05
-1.53027e-06
2.69979e-05
-1.166e-06
2.31445e-05
-1.01171e-06
1.95662e-05
-6.08995e-07
1.60463e-05
-2.62098e-07
1.20276e-05
4.27922e-08
1.93539e-05
1.07475e-07
2.15393e-05
1.19709e-07
2.39694e-05
8.03913e-08
2.66736e-05
-6.14883e-09
2.96855e-05
-1.40886e-07
3.30369e-05
-3.25889e-07
3.67626e-05
-5.64855e-07
4.09121e-05
-8.6242e-07
4.55332e-05
-1.22217e-06
5.06864e-05
-1.64568e-06
5.64396e-05
-2.12915e-06
6.28782e-05
-2.66214e-06
7.01045e-05
-3.22292e-06
7.70077e-05
-3.78015e-06
7.73474e-05
-4.30806e-06
7.77887e-05
-4.77277e-06
7.83441e-05
-5.14101e-06
7.90128e-05
-5.38098e-06
7.98009e-05
-5.46617e-06
8.07003e-05
-5.37682e-06
8.61498e-05
-5.06011e-06
7.60377e-05
-4.66938e-06
6.71396e-05
-4.23055e-06
5.92897e-05
-3.76563e-06
5.23193e-05
-3.29285e-06
4.6168e-05
-2.82606e-06
4.07231e-05
-2.37557e-06
3.58567e-05
-1.94823e-06
3.14354e-05
-1.54687e-06
2.73788e-05
-1.44561e-06
2.35784e-05
-1.00016e-06
1.99574e-05
-5.95739e-07
1.638e-05
-2.53928e-07
1.22815e-05
1.73977e-05
4.1104e-08
1.03106e-07
1.93583e-05
1.13646e-07
2.15453e-05
7.3894e-08
2.39759e-05
-1.22509e-08
2.66797e-05
-1.45802e-07
2.96904e-05
-3.29029e-07
3.30401e-05
-5.65999e-07
3.67637e-05
-8.61967e-07
4.09117e-05
-1.2216e-06
4.55326e-05
-1.64831e-06
5.06891e-05
-2.14115e-06
5.64516e-05
-2.69392e-06
6.29099e-05
-3.29083e-06
7.01724e-05
-3.90601e-06
7.71335e-05
-4.50091e-06
7.75403e-05
-5.04592e-06
7.80619e-05
-5.506e-06
7.87091e-05
-5.84634e-06
7.94781e-05
-6.03668e-06
8.03714e-05
-6.05289e-06
8.13764e-05
-5.88105e-06
8.69707e-05
-5.46986e-06
7.68381e-05
-4.99165e-06
6.79008e-05
-4.47536e-06
5.99994e-05
-3.94416e-06
5.29706e-05
-3.41673e-06
4.67586e-05
-2.90652e-06
4.1254e-05
-2.42266e-06
3.63311e-05
-1.97071e-06
3.18592e-05
-1.91979e-06
2.7853e-05
-1.43074e-06
2.40089e-05
-9.79793e-07
2.03415e-05
-5.7821e-07
1.67043e-05
-2.44359e-07
1.25259e-05
1.74015e-05
9.92998e-08
2.78129e-05
3.8245e-08
1.08391e-07
1.93636e-05
6.83531e-08
2.15509e-05
-1.72762e-08
2.3981e-05
-1.49494e-07
2.66834e-05
-3.30682e-07
2.9692e-05
-5.65142e-07
3.30392e-05
-8.58539e-07
3.67603e-05
-1.21631e-06
4.09064e-05
-1.64321e-06
4.55275e-05
-2.1405e-06
5.06884e-05
-2.70534e-06
5.6463e-05
-3.32683e-06
6.29459e-05
-3.98572e-06
7.02521e-05
-4.64912e-06
7.72817e-05
-5.27139e-06
7.77657e-05
-5.82193e-06
7.83778e-05
-6.26324e-06
7.9126e-05
-6.56136e-06
8.00028e-05
-6.68767e-06
8.10062e-05
-6.62354e-06
8.21189e-05
-6.35991e-06
8.78608e-05
-5.84901e-06
7.76955e-05
-5.2815e-06
6.87069e-05
-4.6882e-06
6.07435e-05
-4.09313e-06
5.3647e-05
-3.51471e-06
4.73668e-05
-2.96505e-06
4.17964e-05
-2.45186e-06
3.68122e-05
-2.44773e-06
3.23871e-05
-1.90197e-06
2.83242e-05
-1.40327e-06
2.44324e-05
-9.52376e-07
2.07156e-05
-5.57432e-07
1.70173e-05
-2.33746e-07
1.27596e-05
1.74061e-05
1.03822e-07
2.78193e-05
9.2857e-08
2.85528e-05
3.54829e-08
6.36093e-08
1.93683e-05
-2.14291e-08
2.1555e-05
-1.52234e-07
2.39837e-05
-3.31238e-07
2.6684e-05
-5.62871e-07
2.96898e-05
-8.53046e-07
3.30337e-05
-1.20773e-06
3.67517e-05
-1.63264e-06
4.08958e-05
-2.13069e-06
4.55177e-05
-2.70168e-06
5.06847e-05
-3.33861e-06
5.64748e-05
-4.02777e-06
6.2988e-05
-4.74353e-06
7.03465e-05
-5.44592e-06
7.74563e-05
-6.08449e-06
7.80283e-05
-6.62636e-06
7.87409e-05
-7.03404e-06
7.95986e-05
-7.2744e-06
8.05895e-05
-7.32386e-06
8.17065e-05
-7.16829e-06
8.29273e-05
-6.80566e-06
8.88174e-05
-6.19201e-06
7.8606e-05
-5.53501e-06
6.95537e-05
-4.86696e-06
6.15173e-05
-4.21188e-06
5.43442e-05
-3.58674e-06
4.79885e-05
-3.00214e-06
4.23467e-05
-3.04725e-06
3.74118e-05
-2.42715e-06
3.29123e-05
-1.86739e-06
2.87883e-05
-1.36561e-06
2.48457e-05
-9.19501e-07
2.10777e-05
-5.34206e-07
1.73178e-05
-2.22407e-07
1.29821e-05
1.74101e-05
5.95306e-08
2.78264e-05
9.66749e-08
2.8559e-05
8.65847e-08
2.93127e-05
3.28201e-08
-2.48735e-08
1.93718e-05
-1.54238e-07
2.1557e-05
-3.30999e-07
2.39835e-05
-5.59635e-07
2.66807e-05
-8.46185e-07
2.96829e-05
-1.19695e-06
3.30229e-05
-1.61832e-06
3.67374e-05
-2.11444e-06
4.08796e-05
-2.68711e-06
4.55031e-05
-3.33244e-06
5.06786e-05
-4.04118e-06
5.64882e-05
-4.79388e-06
6.30383e-05
-5.5584e-06
7.0459e-05
-6.28977e-06
7.76615e-05
-6.93063e-06
7.83326e-05
-7.44864e-06
7.91555e-05
-7.80626e-06
8.01305e-05
-7.97473e-06
8.12404e-05
-7.93448e-06
8.24727e-05
-7.6784e-06
8.38e-05
-7.21171e-06
8.98371e-05
-6.49409e-06
7.95651e-05
-5.74949e-06
7.04362e-05
-5.01066e-06
6.23161e-05
-4.30016e-06
5.50576e-05
-3.63336e-06
4.86197e-05
-3.73332e-06
4.30328e-05
-3.02395e-06
3.80086e-05
-2.38528e-06
3.34302e-05
-1.81918e-06
2.92419e-05
-1.31997e-06
2.52461e-05
-8.82484e-07
2.1426e-05
-5.09284e-07
1.76047e-05
-2.10646e-07
1.31927e-05
1.7413e-05
-2.77422e-08
2.78318e-05
5.41908e-08
2.85659e-05
8.97664e-08
2.93188e-05
8.04918e-08
3.00906e-05
3.02578e-08
-1.55677e-07
1.93732e-05
-3.30197e-07
2.15562e-05
-5.55774e-07
2.39796e-05
-8.38487e-07
2.6673e-05
-1.18482e-06
2.96708e-05
-1.60162e-06
3.30062e-05
-2.09389e-06
3.67169e-05
-2.66495e-06
4.08574e-05
-3.3133e-06
4.5484e-05
-4.03332e-06
5.06707e-05
-4.81062e-06
5.6505e-05
-5.61979e-06
6.30997e-05
-6.42418e-06
7.05934e-05
-7.17135e-06
7.79023e-05
-7.7993e-06
7.86832e-05
-8.27636e-06
7.96256e-05
-8.56862e-06
8.07244e-05
-8.65066e-06
8.19566e-05
-8.50976e-06
8.33041e-05
-8.14621e-06
8.47345e-05
-7.57225e-06
9.09153e-05
-6.75186e-06
8.05675e-05
-5.92356e-06
7.13491e-05
-5.11884e-06
6.31348e-05
-4.3585e-06
5.57827e-05
-4.52099e-06
4.94074e-05
-3.70742e-06
4.37162e-05
-2.97432e-06
3.85976e-05
-2.32597e-06
3.3937e-05
-1.76014e-06
2.9682e-05
-1.26822e-06
2.56319e-05
-8.42547e-07
2.17592e-05
-4.83336e-07
1.78774e-05
-1.9872e-07
1.33914e-05
1.7414e-05
-1.56682e-07
2.78335e-05
-2.94197e-08
2.8571e-05
4.91217e-08
2.93254e-05
8.30908e-08
3.00965e-05
7.45788e-08
3.08905e-05
2.77962e-08
-3.29011e-07
1.9372e-05
-5.51548e-07
2.1552e-05
-8.30347e-07
2.39715e-05
-1.17197e-06
2.66602e-05
-1.58354e-06
2.96527e-05
-2.07066e-06
3.2983e-05
-2.63775e-06
3.66896e-05
-3.28515e-06
4.08293e-05
-4.01008e-06
4.54608e-05
-4.80228e-06
5.06624e-05
-5.642e-06
5.65272e-05
-6.49984e-06
6.31754e-05
-7.33197e-06
7.07541e-05
-8.08043e-06
7.81834e-05
-8.678e-06
7.90849e-05
-9.0979e-06
8.01549e-05
-9.30873e-06
8.13825e-05
-9.29155e-06
8.27384e-05
-9.04106e-06
8.41989e-05
-8.56491e-06
8.57272e-05
-7.88295e-06
9.20464e-05
-6.9634e-06
8.16073e-05
-6.05646e-06
7.22867e-05
-5.19191e-06
6.39682e-05
-5.42704e-06
5.66888e-05
-4.49295e-06
5.01929e-05
-3.6495e-06
4.43914e-05
-2.90292e-06
3.91746e-05
-2.25265e-06
3.44295e-05
-1.6928e-06
3.01066e-05
-1.21211e-06
2.60014e-05
-8.00788e-07
2.20767e-05
-4.56916e-07
1.81356e-05
-1.86832e-07
1.35783e-05
1.74126e-05
-3.27575e-07
2.78297e-05
-1.52891e-07
2.85723e-05
-3.07327e-08
2.93302e-05
4.43428e-08
3.01029e-05
7.66637e-08
3.08962e-05
6.88541e-08
3.17104e-05
2.54328e-08
-5.47149e-07
1.93676e-05
-8.2206e-07
2.15437e-05
-1.15887e-06
2.39584e-05
-1.56484e-06
2.66415e-05
-2.04596e-06
2.9628e-05
-2.60745e-06
3.29527e-05
-3.25102e-06
3.66555e-05
-3.9761e-06
4.07953e-05
-4.77573e-06
4.54342e-05
-5.63483e-06
5.06552e-05
-6.53021e-06
5.65575e-05
-7.42567e-06
6.32691e-05
-8.27196e-06
7.09456e-05
-9.00465e-06
7.851e-05
-9.55497e-06
7.95419e-05
-9.90031e-06
8.07465e-05
-1.00152e-05
8.21061e-05
-9.88784e-06
8.35852e-05
-9.52059e-06
8.51546e-05
-8.92928e-06
8.67735e-05
-8.14119e-06
9.32242e-05
-7.12743e-06
8.26783e-05
-6.14842e-06
7.32433e-05
-6.47022e-06
6.50114e-05
-5.39784e-06
5.75936e-05
-4.42633e-06
5.09698e-05
-3.56482e-06
4.50533e-05
-2.81388e-06
3.97358e-05
-2.16851e-06
3.49052e-05
-1.61945e-06
3.0514e-05
-1.15322e-06
2.63539e-05
-7.58111e-07
2.23779e-05
-4.30477e-07
1.83792e-05
-1.75157e-07
1.37534e-05
1.74081e-05
-5.42718e-07
2.78186e-05
-3.16477e-07
2.85681e-05
-1.48619e-07
2.93312e-05
-3.16823e-08
3.01074e-05
3.98543e-08
3.09024e-05
7.04843e-08
3.17159e-05
6.33232e-08
3.25543e-05
2.31721e-08
-8.1384e-07
1.93594e-05
-1.14586e-06
2.15307e-05
-1.54608e-06
2.39396e-05
-2.02073e-06
2.66162e-05
-2.57555e-06
2.95961e-05
-3.21328e-06
3.2915e-05
-3.93502e-06
3.66144e-05
-4.73643e-06
4.0756e-05
-5.60622e-06
4.54056e-05
-6.52639e-06
5.06514e-05
-7.46742e-06
5.65993e-05
-8.38795e-06
6.33851e-05
-9.23209e-06
7.1173e-05
-9.9323e-06
7.88874e-05
-1.04169e-05
8.00585e-05
-1.06715e-05
8.14028e-05
-1.06775e-05
8.28957e-05
-1.04308e-05
8.44954e-05
-9.94226e-06
8.61676e-05
-9.23601e-06
8.78683e-05
-8.34513e-06
9.44419e-05
-7.24391e-06
8.37738e-05
-7.67016e-06
7.44432e-05
-6.44161e-06
6.60551e-05
-5.3224e-06
5.84897e-05
-4.32718e-06
5.17321e-05
-3.45832e-06
4.56978e-05
-2.71112e-06
4.02784e-05
-2.07647e-06
3.53622e-05
-1.5422e-06
3.09029e-05
-1.09285e-06
2.66886e-05
-7.15267e-07
2.26627e-05
-4.04412e-07
1.86085e-05
-1.63801e-07
1.39172e-05
1.74001e-05
-8.05837e-07
2.77982e-05
-5.22319e-07
2.85563e-05
-3.0472e-07
2.93264e-05
-1.43827e-07
3.0108e-05
-3.22498e-08
3.09066e-05
3.56587e-08
3.17218e-05
6.45563e-08
3.25596e-05
5.79784e-08
3.34202e-05
2.10084e-08
-1.13319e-06
1.93467e-05
-1.52766e-06
2.15123e-05
-1.99562e-06
2.39145e-05
-2.54314e-06
2.65838e-05
-3.17368e-06
2.95565e-05
-3.88962e-06
3.28695e-05
-4.68863e-06
3.65666e-05
-5.56249e-06
4.07122e-05
-6.49745e-06
4.53767e-05
-7.46968e-06
5.06537e-05
-8.44486e-06
5.66562e-05
-9.37507e-06
6.3528e-05
-1.02009e-05
7.14416e-05
-1.08499e-05
7.93204e-05
-1.12512e-05
8.06382e-05
-1.14003e-05
8.21257e-05
-1.1286e-05
8.3751e-05
-1.09133e-05
8.54664e-05
-1.03019e-05
8.72335e-05
-9.48269e-06
8.90059e-05
-8.49432e-06
9.56923e-05
-9.04869e-06
8.51523e-05
-7.64506e-06
7.56466e-05
-6.35771e-06
6.70904e-05
-5.20764e-06
5.93702e-05
-4.20129e-06
5.24751e-05
-3.33474e-06
4.63214e-05
-2.59827e-06
4.08002e-05
-1.97919e-06
3.57992e-05
-1.46278e-06
3.12729e-05
-1.03209e-06
2.70054e-05
-6.72909e-07
2.29312e-05
-3.78965e-07
1.88236e-05
-1.52867e-07
1.40701e-05
1.7388e-05
-1.12101e-06
2.77661e-05
-7.73809e-07
2.85351e-05
-5.0109e-07
2.9314e-05
-2.92336e-07
3.01027e-05
-1.38574e-07
3.09068e-05
-3.24516e-08
3.17257e-05
3.17572e-08
3.25653e-05
5.8879e-08
3.34253e-05
5.28293e-08
3.43061e-05
1.89406e-08
-1.50987e-06
1.93289e-05
-1.97112e-06
2.14878e-05
-2.51103e-06
2.38824e-05
-3.13356e-06
2.65437e-05
-3.84201e-06
2.95089e-05
-4.63562e-06
3.28165e-05
-5.50858e-06
3.65127e-05
-6.45062e-06
4.06654e-05
-7.44267e-06
4.53497e-05
-8.45649e-06
5.06653e-05
-9.45143e-06
5.67326e-05
-1.03759e-05
6.37031e-05
-1.1165e-05
7.17567e-05
-1.17446e-05
7.98137e-05
-1.20461e-05
8.12839e-05
-1.20762e-05
8.29158e-05
-1.18328e-05
8.46705e-05
-1.13304e-05
8.64948e-05
-1.05964e-05
8.83472e-05
-9.6683e-06
9.01799e-05
-1.06294e-05
9.7273e-05
-9.03242e-06
8.65396e-05
-7.55415e-06
7.68431e-05
-6.2265e-06
6.81093e-05
-5.06033e-06
6.02292e-05
-4.05435e-06
5.31947e-05
-3.19845e-06
4.69215e-05
-2.47859e-06
4.12996e-05
-1.87889e-06
3.62153e-05
-1.38266e-06
3.16234e-05
-9.71889e-07
2.73044e-05
-6.31451e-07
2.31837e-05
-3.54379e-07
1.90251e-05
-1.42421e-07
1.42125e-05
1.7371e-05
-1.49289e-06
2.77201e-05
-1.07497e-06
2.8502e-05
-7.40739e-07
2.92919e-05
-4.7898e-07
3.00897e-05
-2.79283e-07
3.0901e-05
-1.32829e-07
3.17256e-05
-3.22815e-08
3.25689e-05
2.81535e-08
3.34307e-05
5.34576e-08
3.4311e-05
4.78716e-08
3.522e-05
1.69689e-08
-1.94755e-06
1.93054e-05
-2.47978e-06
2.14565e-05
-3.09387e-06
2.38427e-05
-3.79377e-06
2.64955e-05
-4.57989e-06
2.94532e-05
-5.44833e-06
3.27563e-05
-6.39162e-06
3.64537e-05
-7.39461e-06
4.06173e-05
-8.43425e-06
4.53274e-05
-9.4763e-06
5.06902e-05
-1.04765e-05
5.68331e-05
-1.13773e-05
6.39154e-05
-1.21113e-05
7.21235e-05
-1.2604e-05
8.03717e-05
-1.27901e-05
8.19979e-05
-1.26901e-05
8.37731e-05
-1.23118e-05
8.56519e-05
-1.1678e-05
8.75765e-05
-1.08241e-05
8.9503e-05
-1.21213e-05
9.16718e-05
-1.06309e-05
9.88714e-05
-8.93819e-06
8.79237e-05
-7.40667e-06
7.80233e-05
-6.05589e-06
6.91049e-05
-4.88722e-06
6.10621e-05
-3.89158e-06
5.38878e-05
-3.05344e-06
4.74964e-05
-2.35486e-06
4.17756e-05
-1.77746e-06
3.66101e-05
-1.30309e-06
3.19546e-05
-9.12839e-07
2.75858e-05
-5.91296e-07
2.34206e-05
-3.30811e-07
1.92135e-05
-1.32494e-07
1.4345e-05
1.73486e-05
-1.92514e-06
2.76571e-05
-1.42984e-06
2.84547e-05
-1.02764e-06
2.92578e-05
-7.06671e-07
3.00667e-05
-4.56059e-07
3.08874e-05
-2.65622e-07
3.17193e-05
-1.26622e-07
3.25684e-05
-3.17549e-08
3.34341e-05
2.48354e-08
3.43162e-05
4.82857e-08
3.52247e-05
4.31006e-08
3.61559e-05
1.50889e-08
-2.44979e-06
1.92754e-05
-3.05529e-06
2.1418e-05
-3.74604e-06
2.3795e-05
-4.52332e-06
2.64389e-05
-5.38468e-06
2.93895e-05
-6.32489e-06
3.26896e-05
-7.33202e-06
3.63911e-05
-8.38736e-06
4.05705e-05
-9.46223e-06
4.53133e-05
-1.0519e-05
5.07326e-05
-1.15072e-05
5.6963e-05
-1.23664e-05
6.41705e-05
-1.30274e-05
7.25469e-05
-1.34163e-05
8.09979e-05
-1.34736e-05
8.27815e-05
-1.32353e-05
8.46966e-05
-1.27182e-05
8.66921e-05
-1.19539e-05
8.87063e-05
-1.35991e-05
9.09808e-05
-1.21484e-05
9.31893e-05
-1.054e-05
0.000100473
-8.77637e-06
8.92934e-05
-7.21183e-06
7.91792e-05
-5.85392e-06
7.00716e-05
-4.69457e-06
6.18651e-05
-3.71778e-06
5.45522e-05
-2.90309e-06
4.80446e-05
-2.22941e-06
4.22275e-05
-1.67651e-06
3.69836e-05
-1.22491e-06
3.22667e-05
-8.55536e-07
2.785e-05
-5.52714e-07
2.36425e-05
-3.0834e-07
1.93894e-05
-1.2311e-07
1.44681e-05
1.73201e-05
-2.42132e-06
2.75738e-05
-1.84192e-06
2.83899e-05
-1.36508e-06
2.92089e-05
-9.78783e-07
3.00315e-05
-6.71442e-07
3.08636e-05
-4.32327e-07
3.17051e-05
-2.51384e-07
3.25617e-05
-1.19968e-07
3.34332e-05
-3.0879e-08
3.43192e-05
2.18042e-08
3.52297e-05
4.33614e-08
3.61605e-05
3.85154e-08
3.65898e-05
1.33222e-08
-3.0183e-06
1.92384e-05
-3.69964e-06
2.13716e-05
-4.46727e-06
2.37389e-05
-5.31984e-06
2.63741e-05
-6.25386e-06
2.93185e-05
-7.26001e-06
3.26176e-05
-8.3232e-06
3.6327e-05
-9.41948e-06
4.05277e-05
-1.0517e-05
4.53114e-05
-1.15721e-05
5.07975e-05
-1.2531e-05
5.71276e-05
-1.33306e-05
6.44737e-05
-1.39009e-05
7.30315e-05
-1.41708e-05
8.16951e-05
-1.40889e-05
8.3635e-05
-1.3706e-05
8.56844e-05
-1.30488e-05
8.7787e-05
-1.50545e-05
9.01617e-05
-1.36618e-05
9.24942e-05
-1.20693e-05
9.47186e-05
-1.03683e-05
0.000102065
-8.55734e-06
9.06389e-05
-6.97881e-06
8.03041e-05
-5.62801e-06
7.1005e-05
-4.48815e-06
6.26354e-05
-3.53709e-06
5.51862e-05
-2.75031e-06
4.85655e-05
-2.10431e-06
4.26553e-05
-1.57713e-06
3.73358e-05
-1.14892e-06
3.25601e-05
-8.0039e-07
2.80977e-05
-5.15846e-07
2.385e-05
-2.87034e-07
1.95533e-05
-1.14285e-07
1.45824e-05
1.7285e-05
-2.9832e-06
2.74671e-05
-2.31455e-06
2.8305e-05
-1.75702e-06
2.91427e-05
-1.29881e-06
2.99815e-05
-9.28738e-07
3.08275e-05
-6.35321e-07
3.16806e-05
-4.07841e-07
3.25469e-05
-2.36555e-07
3.34261e-05
-1.12886e-07
3.4318e-05
-2.96704e-08
3.52324e-05
1.90471e-08
3.61652e-05
3.86761e-08
3.65941e-05
3.41716e-08
3.55536e-05
1.17222e-08
-3.65514e-06
1.91939e-05
-4.41272e-06
2.1317e-05
-5.25542e-06
2.36745e-05
-6.1811e-06
2.63013e-05
-7.18253e-06
2.9241e-05
-8.24759e-06
3.25419e-05
-9.35633e-06
3.62638e-05
-1.0482e-05
4.04926e-05
-1.15867e-05
4.5326e-05
-1.26234e-05
5.08899e-05
-1.35352e-05
5.73322e-05
-1.42572e-05
6.48299e-05
-1.47206e-05
7.35812e-05
-1.48591e-05
8.24653e-05
-1.46291e-05
8.45582e-05
-1.40982e-05
8.67338e-05
-1.64771e-05
8.92097e-05
-1.51642e-05
9.16641e-05
-1.36048e-05
9.40297e-05
-1.18968e-05
9.62471e-05
-1.01277e-05
0.000103636
-8.29179e-06
9.19519e-05
-6.7163e-06
8.13924e-05
-5.385e-06
7.19019e-05
-4.27295e-06
6.33713e-05
-3.35305e-06
5.57889e-05
-2.59763e-06
4.90589e-05
-1.98092e-06
4.30591e-05
-1.48037e-06
3.76672e-05
-1.07567e-06
3.28354e-05
-7.47611e-07
2.83295e-05
-4.80812e-07
2.40438e-05
-2.66937e-07
1.97059e-05
-1.06019e-07
1.46884e-05
1.72428e-05
-3.61292e-06
2.73339e-05
-2.85007e-06
2.81964e-05
-2.2059e-06
2.90556e-05
-1.66997e-06
2.99137e-05
-1.23102e-06
3.07762e-05
-8.77459e-07
3.16436e-05
-5.9825e-07
3.25217e-05
-3.82714e-07
3.34108e-05
-2.21244e-07
3.43106e-05
-1.05419e-07
3.52309e-05
-2.81492e-08
3.61676e-05
1.65537e-08
3.65985e-05
3.4285e-08
3.55576e-05
3.02208e-08
3.45455e-05
1.02678e-08
-4.36035e-06
1.91415e-05
-5.19258e-06
2.12542e-05
-6.10852e-06
2.36019e-05
-7.10259e-06