/*--------------------------------*- C++ -*----------------------------------*\
  =========                 |
  \\      /  F ield         | OpenFOAM: The Open Source CFD Toolbox
   \\    /   O peration     | Website:  https://openfoam.org
    \\  /    A nd           | Version:  8
     \\/     M anipulation  |
\*---------------------------------------------------------------------------*/
FoamFile
{
    version     2.0;
    format      ascii;
    class       volScalarField;
    location    "0.36";
    object      nut;
}
// * * * * * * * * * * * * * * * * * * * * * * * * * * * * * * * * * * * * * //

dimensions      [0 2 -1 0 0 0 0];

internalField   nonuniform List<scalar> 
15677
(
0.000168254
0.000653018
0.000148423
0.00151373
0.000442423
0.000141512
0.00267553
0.000875682
0.000381104
0.000142378
0.00392137
0.00151869
0.000686489
0.000354202
0.000145453
0.00502438
0.0023558
0.00114609
0.000585499
0.000340208
0.000151192
0.00584089
0.00331699
0.00178027
0.000947454
0.000529188
0.000331972
0.000156976
0.00633517
0.00429829
0.00256694
0.00146277
0.000820653
0.000492413
0.000326954
0.00016241
0.00656294
0.00518741
0.00345207
0.0021308
0.00125668
0.000737064
0.000467411
0.000324084
0.000167184
0.00665852
0.00589328
0.00435452
0.00292114
0.00184069
0.00111193
0.000677277
0.00045043
0.000322522
0.000171407
0.00670556
0.00633816
0.00518016
0.00377789
0.00255583
0.00163112
0.00100435
0.000634079
0.000438706
0.000321966
0.000174976
0.00671443
0.0065534
0.00584485
0.00462425
0.00336142
0.00228553
0.00147217
0.000924114
0.000602217
0.000430783
0.000321916
0.000178118
0.00670994
0.00666147
0.00629537
0.00537627
0.00419558
0.00304409
0.00207702
0.00134878
0.000862232
0.000578647
0.000425328
0.000322399
0.000180741
0.00670629
0.00669874
0.00652945
0.00596384
0.00498295
0.00385601
0.0027947
0.00191129
0.00125115
0.00081421
0.000560925
0.000421849
0.000323038
0.000183093
0.00670538
0.00670439
0.00664674
0.00635651
0.0056491
0.00465461
0.00358216
0.00259292
0.00177758
0.0011731
0.00077646
0.000547768
0.000419493
0.000323962
0.000185145
0.00670539
0.0067029
0.00668785
0.00656267
0.00614144
0.00536742
0.00438012
0.00335617
0.00242752
0.00166814
0.00110976
0.000746734
0.000537673
0.000418276
0.000324813
0.000186969
0.00670552
0.00670171
0.00669635
0.00665644
0.00644647
0.00593288
0.00511998
0.00414782
0.00316797
0.00228991
0.00157794
0.00105816
0.000723042
0.000530401
0.000417396
0.000325869
0.000188635
0.00670557
0.00670128
0.00669707
0.00668486
0.00660469
0.00632125
0.00573669
0.00490314
0.00395043
0.00300925
0.00217494
0.00150302
0.00101621
0.000704563
0.00052467
0.00041727
0.000326806
0.00019006
0.00670556
0.00670122
0.00669664
0.00669166
0.00666363
0.00654097
0.00618776
0.00555636
0.00471395
0.00378135
0.00287499
0.00207824
0.0014408
0.000982171
0.000689654
0.000520785
0.000417193
0.000327892
0.000191495
0.00670553
0.00670127
0.00669632
0.00669276
0.00668223
0.0066344
0.00646755
0.00605757
0.00539345
0.00454855
0.00363643
0.00276089
0.00199695
0.00138934
0.000954261
0.000678262
0.000517651
0.000417707
0.000328868
0.000192621
0.0067055
0.00670133
0.00669615
0.00669274
0.00668722
0.00666905
0.0065979
0.00638923
0.00593468
0.00524701
0.0044045
0.00351192
0.00266403
0.00192893
0.00134669
0.000931952
0.000669072
0.000515888
0.000418104
0.000329943
0.000193951
0.00670547
0.00670138
0.00669606
0.00669266
0.00668813
0.00668077
0.00665135
0.00655606
0.00631087
0.00581991
0.00511679
0.00427903
0.00340533
0.00258225
0.00187215
0.00131194
0.000913916
0.000662446
0.00051441
0.000419006
0.000330967
0.000194845
0.00670546
0.00670141
0.00669601
0.00669264
0.00668809
0.00668421
0.00667167
0.00663033
0.00651125
0.00623331
0.00571505
0.00500129
0.00417064
0.00331463
0.00251366
0.00182551
0.00128372
0.0009
0.000657176
0.000514069
0.000419707
0.000332005
0.00019616
0.00670546
0.00670142
0.00669597
0.00669266
0.00668792
0.00668504
0.00667852
0.00666139
0.00660609
0.00646531
0.00616051
0.00561991
0.00490051
0.00407759
0.00323824
0.00245698
0.00178758
0.00126157
0.000889258
0.000653987
0.000513717
0.00042087
0.000333141
0.000196886
0.00670546
0.00670142
0.00669595
0.00669267
0.0066878
0.00668517
0.00668046
0.00667327
0.00664849
0.00658083
0.00641958
0.00609276
0.00553583
0.00481282
0.00399884
0.00317483
0.00241111
0.00175798
0.0012447
0.000881695
0.0006515
0.000514384
0.000421763
0.000334052
0.000198199
0.00670547
0.00670142
0.00669595
0.00669266
0.00668773
0.00668515
0.00668085
0.00667737
0.00666587
0.00663555
0.00655415
0.00637646
0.00603126
0.00546108
0.00473849
0.00393364
0.00312409
0.00237528
0.00173535
0.00123231
0.000876435
0.000650916
0.00051484
0.000423189
0.000335495
0.000198892
0.00670548
0.0067014
0.00669595
0.00669265
0.0066877
0.0066851
0.00668082
0.0066786
0.00667233
0.00665962
0.00662062
0.00652902
0.00633596
0.00597556
0.00539872
0.00467723
0.00388131
0.00308359
0.00234798
0.0017197
0.00122495
0.000874168
0.000650578
0.000516302
0.000424087
0.000336242
5.33557e-05
0.00670549
0.00670139
0.00669596
0.00669263
0.00668768
0.00668505
0.00668074
0.00667887
0.00667444
0.00666942
0.00665106
0.00660766
0.00650462
0.00630029
0.00593046
0.00534548
0.00462656
0.00383982
0.00305568
0.00233153
0.00171157
0.00122156
0.00087337
0.000652064
0.000517396
0.000426479
0.000283511
6.32766e-05
0.0067055
0.00670137
0.00669597
0.00669261
0.00668768
0.00668501
0.00668067
0.00667884
0.00667499
0.00667304
0.00666396
0.00664564
0.00659359
0.00648355
0.00626931
0.00588837
0.00530447
0.004593
0.00381636
0.00303962
0.00232245
0.00170814
0.0012208
0.000875121
0.00065371
0.00051949
0.000420004
0.000219331
7.06087e-05
0.00670551
0.00670135
0.00669598
0.00669258
0.00668768
0.00668497
0.00668063
0.00667876
0.00667505
0.00667417
0.00666899
0.00666273
0.00663734
0.00658422
0.00646693
0.00624254
0.00586526
0.00528037
0.00457072
0.00379931
0.00303021
0.00231934
0.00170926
0.0012244
0.000878147
0.000656005
0.000520705
0.000400014
0.000177954
7.60067e-05
0.00670552
0.00670133
0.006696
0.00669256
0.00668768
0.00668493
0.0066806
0.00667867
0.00667499
0.00667438
0.00667073
0.00666982
0.00665751
0.00663627
0.00657476
0.00645182
0.00623404
0.00584867
0.00526212
0.00455634
0.00379158
0.00302936
0.00232363
0.00171644
0.00123081
0.000882712
0.0006593
0.000518538
0.00036717
0.000152529
8.03714e-05
0.00670553
0.00670131
0.00669601
0.00669254
0.00668769
0.0066849
0.00668058
0.00667859
0.00667492
0.00667431
0.00667119
0.00667242
0.00666625
0.00666134
0.00663019
0.00657336
0.00645091
0.00622703
0.00583843
0.00525331
0.00455465
0.00379686
0.00303977
0.00233603
0.00172833
0.00124016
0.000888967
0.000662337
0.000512444
0.000335981
0.000134235
8.37267e-05
0.00670554
0.0067013
0.00669602
0.00669251
0.0066877
0.00668487
0.00668057
0.00667853
0.00667486
0.00667418
0.00667123
0.00667312
0.00666974
0.00667245
0.00665732
0.00663922
0.00657632
0.00645369
0.00622563
0.00584037
0.00526149
0.0045676
0.00381426
0.00305927
0.0023551
0.0017447
0.00125237
0.00089637
0.00066505
0.000501049
0.0003059
0.000121305
8.61017e-05
0.00670555
0.00670128
0.00669604
0.00669249
0.00668771
0.00668484
0.00668056
0.00667848
0.0066748
0.00667406
0.00667116
0.00667317
0.00667088
0.0066769
0.00667023
0.00667268
0.00664487
0.00658489
0.00646233
0.00623902
0.00585832
0.005283
0.00459339
0.00384256
0.00308755
0.00238068
0.00176507
0.00126714
0.000904893
0.000666293
0.000485709
0.000279847
0.000112833
8.78548e-05
0.00670556
0.00670127
0.00669605
0.00669247
0.00668772
0.00668482
0.00668055
0.00667843
0.00667475
0.00667395
0.00667105
0.00667303
0.00667115
0.00667833
0.00667591
0.00668827
0.00668009
0.00665738
0.00660229
0.00648445
0.00626615
0.00588983
0.00531858
0.00463179
0.00388175
0.0031244
0.00241224
0.00178937
0.00128425
0.000914161
0.000666407
0.000468817
0.00026008
0.000107081
8.92114e-05
0.00670125
0.00670558
0.00669606
0.00669245
0.00668773
0.00668479
0.00668055
0.00667839
0.00667471
0.00667385
0.00667095
0.00667285
0.00667112
0.00667863
0.00667802
0.00669522
0.00669708
0.00669527
0.00668095
0.00663115
0.00651939
0.00630708
0.00593637
0.00536825
0.00468311
0.00393149
0.00316937
0.00244975
0.0018172
0.0013034
0.000925061
0.000665354
0.000453836
0.000244902
0.000103049
9.03102e-05
0.00669607
0.00670125
0.0067056
0.00669244
0.00668774
0.00668477
0.00668054
0.00667836
0.00667467
0.00667378
0.00667086
0.00667268
0.00667101
0.00667853
0.00667867
0.00669791
0.00670487
0.00671413
0.00672303
0.00671464
0.00667269
0.00656863
0.00636369
0.00599792
0.00543254
0.00474695
0.00399169
0.0032224
0.00249255
0.00184845
0.00132729
0.000938246
0.000663848
0.000441001
0.000233106
0.00010018
9.12397e-05
0.00669242
0.00669611
0.00670126
0.00670563
0.00668775
0.00668475
0.00668054
0.00667833
0.00667464
0.00667372
0.00667077
0.00667252
0.00667087
0.00667832
0.00667879
0.00669881
0.00670807
0.00672311
0.00674459
0.00676037
0.00676141
0.00672863
0.00663401
0.006437
0.00607631
0.00551189
0.00482375
0.00406196
0.00328267
0.00254067
0.00188652
0.00135577
0.000952126
0.000662801
0.000430417
0.000223798
9.80908e-05
9.2051e-05
0.00668776
0.00669243
0.00669618
0.00670127
0.00670565
0.00668473
0.00668054
0.0066783
0.00667461
0.00667366
0.00667069
0.0066724
0.00667074
0.00667809
0.00667873
0.00669903
0.00670928
0.00672706
0.00675533
0.00678487
0.00681125
0.00682276
0.00680116
0.00671643
0.00652817
0.00617121
0.00560656
0.00491254
0.00414178
0.00335028
0.00259921
0.00193347
0.00138572
0.000966825
0.000662409
0.000421635
0.000216324
9.65681e-05
9.27797e-05
0.00668471
0.00668782
0.00669248
0.00669625
0.00670128
0.00670568
0.00668055
0.00667827
0.00667459
0.00667362
0.00667062
0.00667229
0.00667061
0.00667786
0.00667861
0.00669899
0.0067097
0.00672877
0.00676045
0.00679769
0.00683859
0.00687636
0.00690078
0.00689106
0.00681756
0.00663698
0.00628315
0.00571653
0.00501422
0.00423102
0.00343233
0.0026708
0.00198419
0.00141711
0.000982142
0.000662984
0.000414417
0.000210246
9.54339e-05
9.34432e-05
0.00668055
0.00668474
0.00668791
0.00669252
0.00669632
0.00670129
0.00670571
0.00667825
0.00667457
0.00667358
0.00667056
0.0066722
0.00667049
0.00667767
0.00667849
0.00669886
0.00670982
0.00672957
0.006763
0.00680452
0.00685446
0.00690825
0.00696073
0.00699753
0.00699952
0.00693632
0.00676367
0.00641152
0.00584071
0.0051276
0.00433947
0.00353263
0.00274781
0.00203789
0.00144968
0.000998303
0.000664442
0.000408528
0.000205215
9.46019e-05
9.40578e-05
0.00667823
0.00668061
0.00668481
0.00668802
0.00669256
0.00669639
0.00670129
0.00670573
0.00667456
0.00667354
0.00667051
0.00667213
0.00667038
0.00667751
0.00667838
0.00669871
0.00670982
0.00672999
0.00676445
0.00680836
0.00686368
0.00692757
0.00699796
0.00706521
0.00711744
0.00713017
0.00707424
0.0069069
0.00655498
0.00597766
0.00526668
0.00447257
0.00364021
0.00282941
0.00209409
0.00148321
0.00101485
0.000667262
0.000403735
0.000200941
9.39694e-05
9.46275e-05
0.00667455
0.00667826
0.00668072
0.00668488
0.00668812
0.00669261
0.00669647
0.00670131
0.00670576
0.0066735
0.00667047
0.00667207
0.00667028
0.00667738
0.00667828
0.00669856
0.00670979
0.00673025
0.0067654
0.00681091
0.0068696
0.00693988
0.00702234
0.00710903
0.00719392
0.00725989
0.00728527
0.00723468
0.00706596
0.00671217
0.00614348
0.00543402
0.00461609
0.0037548
0.00291463
0.00215222
0.00151746
0.00103145
0.000670458
0.00039988
0.000197347
9.35141e-05
9.51622e-05
0.00667346
0.0066746
0.00667834
0.00668084
0.00668495
0.00668823
0.00669266
0.00669654
0.00670132
0.00670579
0.00667044
0.00667201
0.00667019
0.00667728
0.00667818
0.00669842
0.00670974
0.00673044
0.00676611
0.00681285
0.00687394
0.00694855
0.00703954
0.00713998
0.0072467
0.00734745
0.00742847
0.00746327
0.00741828
0.00724572
0.00689872
0.00633963
0.00561134
0.00476712
0.00387471
0.00300268
0.00221169
0.00155253
0.00104789
0.000674291
0.000396882
0.000194219
9.31616e-05
9.56603e-05
0.00667042
0.00667347
0.00667471
0.00667842
0.00668097
0.00668502
0.00668834
0.0066927
0.00669662
0.00670133
0.00670581
0.00667195
0.00667011
0.00667721
0.00667807
0.00669831
0.0067097
0.0067306
0.0067667
0.00681446
0.00687744
0.00695541
0.00705278
0.00716354
0.00728699
0.00741166
0.00753034
0.00762302
0.00766584
0.00762276
0.007468
0.00712803
0.00654587
0.00579578
0.00492245
0.00399738
0.00309263
0.00227201
0.00158795
0.00106443
0.00067863
0.000394425
0.000191557
9.29217e-05
9.61304e-05
0.00667189
0.00667043
0.00667352
0.00667482
0.0066785
0.0066811
0.0066851
0.00668846
0.00669276
0.0066967
0.00670135
0.00670584
0.00667005
0.00667715
0.00667795
0.00669821
0.00670968
0.00673075
0.00676722
0.00681588
0.00688042
0.00696129
0.00706387
0.00718271
0.0073201
0.00746413
0.00760986
0.00774249
0.00784597
0.00789311
0.00787325
0.00773915
0.00737765
0.00675965
0.0059821
0.00507986
0.00412199
0.00318352
0.00233266
0.00162349
0.00108075
0.000683464
0.000392597
0.000189197
9.27322e-05
9.65678e-05
0.00667001
0.00667183
0.00667046
0.00667358
0.00667494
0.00667859
0.00668124
0.00668518
0.00668858
0.00669281
0.00669677
0.00670136
0.00670587
0.0066771
0.00667782
0.00669816
0.00670967
0.00673089
0.00676768
0.00681715
0.00688304
0.00696654
0.0070736
0.00719938
0.00734867
0.00750976
0.00767898
0.00784126
0.00798788
0.00809785
0.00817342
0.0081805
0.00803115
0.00764367
0.00698557
0.00617073
0.00523819
0.00424648
0.00327444
0.00239317
0.00165883
0.00109696
0.00068828
0.000391196
0.000187181
9.26196e-05
9.69816e-05
0.00667705
0.00666989
0.00667176
0.00667051
0.00667363
0.00667508
0.00667867
0.00668139
0.00668526
0.0066887
0.00669287
0.00669685
0.00670138
0.00670589
0.00667768
0.00669814
0.00670967
0.00673102
0.00676809
0.0068183
0.00688539
0.00697131
0.00708231
0.00721445
0.00737443
0.00755041
0.00774218
0.00793194
0.00811194
0.00826735
0.00841119
0.00852036
0.00851445
0.0083411
0.00791959
0.00721933
0.00635823
0.00539369
0.00436957
0.00336451
0.00245309
0.00169374
0.00111321
0.000693058
0.000390185
0.000185362
9.25282e-05
9.73652e-05
0.00667755
0.00667684
0.00666967
0.00667168
0.00667057
0.00667368
0.00667523
0.00667875
0.00668154
0.00668534
0.00668882
0.00669293
0.00669693
0.00670141
0.00670591
0.00669819
0.00670969
0.00673114
0.00676846
0.00681934
0.00688751
0.00697567
0.00709018
0.00722834
0.0073981
0.00758764
0.00780064
0.00801862
0.00823135
0.00842286
0.00861871
0.00880373
0.00890162
0.00887213
0.00866565
0.00820272
0.00745845
0.00654938
0.00554626
0.00449031
0.00345311
0.00251203
0.00172807
0.00112921
0.000697802
0.000389416
0.000183804
9.24924e-05
9.77288e-05
0.00669829
0.0066769
0.00667648
0.00666948
0.00667159
0.00667067
0.00667372
0.0066754
0.00667884
0.0066817
0.00668543
0.00668894
0.00669299
0.00669701
0.00670143
0.00670593
0.0067097
0.00673125
0.00676878
0.00682028
0.00688944
0.00697966
0.00709735
0.00724121
0.00741991
0.00762232
0.00785587
0.00810092
0.00834897
0.00857876
0.00881947
0.00906577
0.00924126
0.00931533
0.00925097
0.00900213
0.00849078
0.00769774
0.00674138
0.00569569
0.00460817
0.00353968
0.00256967
0.00176164
0.00114492
0.000702479
0.000388905
0.000182375
9.2461e-05
9.80641e-05
0.00670967
0.00669776
0.00667575
0.00667608
0.00666935
0.00667148
0.0066708
0.00667375
0.00667557
0.00667892
0.00668186
0.00668552
0.00668907
0.00669306
0.00669708
0.00670146
0.00670595
0.00673132
0.00676906
0.00682114
0.0068912
0.00698331
0.0071039
0.00725314
0.00744
0.00765491
0.00790841
0.00817925
0.0084626
0.00873842
0.00903067
0.009333
0.00957272
0.00972493
0.00976165
0.00965008
0.00934881
0.00878177
0.00793575
0.00693209
0.00584113
0.00472227
0.00362363
0.00262572
0.00179432
0.00116028
0.000707083
0.000388522
0.00018115
9.24714e-05
9.83829e-05
0.0067314
0.00670862
0.00669646
0.00667486
0.00667558
0.00666931
0.00667134
0.00667097
0.00667378
0.00667576
0.00667901
0.00668202
0.00668561
0.00668919
0.00669313
0.00669715
0.00670148
0.00670597
0.00676929
0.00682192
0.00689282
0.00698664
0.00710989
0.00726417
0.0074585
0.00768562
0.00795812
0.00825375
0.00857326
0.00889915
0.00925453
0.00962485
0.00992849
0.0101499
0.0102632
0.0102452
0.0100707
0.00970504
0.00907432
0.00817128
0.00712014
0.00598296
0.00483176
0.0037046
0.00267996
0.001826
0.0011752
0.000711585
0.000388324
0.000180009
9.24769e-05
9.8675e-05
0.0067695
0.00672979
0.00670647
0.00669477
0.00667428
0.00667495
0.00666937
0.00667116
0.00667116
0.0066738
0.00667596
0.00667911
0.00668219
0.00668572
0.0066893
0.0066932
0.00669721
0.00670151
0.00670598
0.00682264
0.00689431
0.00698969
0.00711538
0.00727432
0.00747554
0.00771449
0.00800475
0.00832468
0.00868202
0.00906052
0.00948055
0.00994245
0.0103412
0.0106424
0.0108261
0.0108731
0.0107738
0.0105153
0.0100708
0.00936753
0.00840347
0.007304
0.00612208
0.00493679
0.00378237
0.00273222
0.00185659
0.00118966
0.000715973
0.000388176
0.000179031
9.25146e-05
9.89539e-05
0.00682335
0.00676682
0.00672643
0.0067043
0.00669278
0.00667405
0.00667419
0.00666952
0.00667096
0.00667138
0.00667383
0.00667616
0.00667922
0.00668235
0.00668582
0.00668941
0.00669326
0.00669727
0.00670154
0.006706
0.00689568
0.00699246
0.00712041
0.00728363
0.00749123
0.0077415
0.00804821
0.00839245
0.00878872
0.00921991
0.00970377
0.0102803
0.0108366
0.0112728
0.0115381
0.0116354
0.0115699
0.011353
0.0109851
0.0104457
0.00966067
0.00863164
0.00748239
0.00625752
0.00503743
0.00385683
0.00278239
0.00188601
0.00120361
0.000720233
0.000388174
0.00017811
9.25428e-05
9.91764e-05
0.00689698
0.00681994
0.00676101
0.00672316
0.0067022
0.00669033
0.00667412
0.00667332
0.00666974
0.00667075
0.00667161
0.00667388
0.00667636
0.00667933
0.0066825
0.00668592
0.00668952
0.00669333
0.00669733
0.00670157
0.00670601
0.00699499
0.007125
0.00729214
0.00750567
0.00776659
0.0080886
0.00845726
0.0088921
0.00937419
0.00992565
0.0106537
0.0114316
0.0120973
0.0125031
0.0126464
0.0125845
0.0123525
0.0119803
0.0114782
0.0108285
0.00995288
0.00885515
0.00765504
0.00638866
0.00513369
0.00392792
0.0028304
0.00191424
0.00121701
0.000724347
0.000388192
0.00017733
9.25869e-05
9.93634e-05
0.00699731
0.00689214
0.00681207
0.00675525
0.00672008
0.0067006
0.00668751
0.00667441
0.0066724
0.00666999
0.00667057
0.00667184
0.00667394
0.00667655
0.00667945
0.00668264
0.00668603
0.00668961
0.0066934
0.00669738
0.0067016
0.00670602
0.00712919
0.00729988
0.00751892
0.00778977
0.0081261
0.00851899
0.00899059
0.00952222
0.0101533
0.0110792
0.0121355
0.0130898
0.0137371
0.0139865
0.0139166
0.0136356
0.0131975
0.0126432
0.0119884
0.0112164
0.010243
0.00907348
0.00782176
0.00651506
0.00522559
0.00399566
0.00287621
0.00194123
0.00122986
0.000728321
0.000388229
0.000176693
9.26206e-05
9.95647e-05
0.00713302
0.00699074
0.00688055
0.00680423
0.00674972
0.00671714
0.00669945
0.00668453
0.0066748
0.00667151
0.00667024
0.00667043
0.00667204
0.00667403
0.00667672
0.00667958
0.00668278
0.00668613
0.00668971
0.00669347
0.00669744
0.00670163
0.00670603
0.00730693
0.00753105
0.00781107
0.00816088
0.00857729
0.00908318
0.00966517
0.0103937
0.0115577
0.0129183
0.0141682
0.0150798
0.0155489
0.0155601
0.0152391
0.014721
0.0140665
0.0133218
0.0125066
0.0116055
0.0105296
0.00928606
0.00798238
0.00663647
0.00531316
0.00406002
0.00291982
0.00196697
0.00124215
0.000732155
0.000388305
0.000176177
9.26689e-05
9.97838e-05
0.00731329
0.00712415
0.00697418
0.00686896
0.00679653
0.00674438
0.00671438
0.00669847
0.00668159
0.00667515
0.00667074
0.00667042
0.00667035
0.00667221
0.00667415
0.00667688
0.00667971
0.0066829
0.00668624
0.0066898
0.00669354
0.00669749
0.00670165
0.00670604
0.00754212
0.00783056
0.00819305
0.00863178
0.00916969
0.00980508
0.0106489
0.0120717
0.0137215
0.0152246
0.0163605
0.0170527
0.0172807
0.0170549
0.0165046
0.0157723
0.014919
0.013994
0.0130217
0.011991
0.0108108
0.00949233
0.00813678
0.00675274
0.00539651
0.00412115
0.00296124
0.00199148
0.00125387
0.000735353
0.000388362
0.00017564
9.27197e-05
0.000100021
0.00755212
0.0073018
0.00710076
0.00695756
0.00685759
0.00678895
0.00673928
0.00671179
0.00669753
0.0066789
0.00667532
0.00667014
0.00667052
0.00667036
0.00667235
0.00667428
0.00667702
0.00667984
0.00668302
0.00668634
0.00668988
0.00669361
0.00669754
0.00670167
0.00670604
0.00784837
0.00822269
0.00868225
0.00925056
0.00994341
0.0109149
0.0125943
0.0144874
0.0161737
0.0174639
0.0183252
0.0187639
0.0187774
0.0183662
0.0176401
0.0167394
0.0157224
0.0146402
0.0135234
0.0123682
0.0110851
0.00969176
0.00828487
0.0068638
0.00547556
0.00417891
0.00300048
0.00201475
0.00126355
0.000738094
0.00038847
0.000175058
9.27888e-05
0.00010028
0.0078643
0.00753719
0.00726944
0.00707731
0.00694125
0.00684648
0.00678143
0.00673458
0.00670928
0.00669654
0.00667675
0.00667518
0.00666978
0.00667051
0.00667043
0.00667246
0.00667443
0.00667715
0.00667998
0.00668314
0.00668644
0.00668997
0.00669367
0.00669756
0.00670167
0.00670604
0.00824995
0.00872872
0.00932648
0.0100803
0.0111834
0.0130997
0.0151767
0.0169726
0.0183442
0.0193062
0.019897
0.0201297
0.0199886
0.019455
0.0186131
0.0175953
0.0164556
0.0152459
0.0140031
0.0127327
0.0113506
0.00988385
0.00842657
0.00696967
0.00555091
0.00423336
0.00303759
0.0020339
0.0012718
0.000741131
0.000388565
0.000174485
9.28625e-05
0.000100559
0.00827433
0.00784562
0.00749275
0.00723694
0.0070543
0.00692533
0.00683558
0.00677392
0.00673014
0.00670675
0.00669518
0.00667543
0.00667471
0.00666964
0.00667044
0.00667055
0.00667256
0.00667458
0.00667728
0.00668011
0.00668325
0.00668654
0.00669005
0.00669371
0.00669756
0.00670167
0.00670604
0.0087714
0.00939811
0.0102145
0.0114456
0.0135695
0.015771
0.0176135
0.0190054
0.0200062
0.020684
0.0210714
0.0211628
0.0209257
0.0203249
0.0194194
0.0183312
0.0171086
0.0158022
0.0144544
0.013081
0.0116058
0.0100681
0.00856185
0.00707019
0.0056227
0.0042847
0.003068
0.00205017
0.00128087
0.000744494
0.000388751
0.000173827
9.29568e-05
0.000100866
0.00880934
0.00825083
0.00778541
0.00744814
0.007205
0.00703182
0.00690976
0.00682491
0.00676653
0.00672586
0.00670417
0.00669301
0.00667482
0.00667397
0.00666967
0.00667032
0.0066707
0.00667264
0.00667474
0.0066774
0.00668024
0.00668335
0.00668664
0.00669008
0.00669371
0.00669756
0.00670167
0.00670604
0.00946583
0.0103443
0.0116941
0.0139936
0.0162683
0.0181095
0.019477
0.0204683
0.0211772
0.0216546
0.0219081
0.0219133
0.0216258
0.0209994
0.020071
0.0189506
0.0176795
0.0163051
0.0148735
0.0134105
0.0118497
0.0102443
0.00869071
0.00716545
0.00569093
0.0043267
0.00309378
0.00206802
0.00129086
0.000748236
0.000388899
0.000173213
9.30617e-05
0.000101196
0.00952741
0.00878033
0.00816935
0.0077249
0.00740427
0.00717375
0.00700986
0.00689456
0.00681453
0.00675927
0.00672177
0.00670166
0.00669019
0.00667474
0.00667312
0.00666979
0.00667019
0.00667086
0.00667272
0.00667489
0.00667752
0.00668037
0.00668346
0.00668669
0.00669008
0.00669371
0.00669756
0.00670167
0.00670604
0.010468
0.0119277
0.0143691
0.0166758
0.0184825
0.0197955
0.0207436
0.021441
0.0219547
0.0223054
0.0224786
0.0224374
0.0221315
0.0215088
0.020587
0.0194638
0.0181719
0.0167543
0.0152587
0.0137197
0.0120813
0.0104121
0.00881318
0.00725559
0.00574709
0.00436227
0.00312198
0.00208762
0.00130189
0.000752384
0.000389198
0.000172481
9.31895e-05
0.000101558
0.0105792
0.0094911
0.00866962
0.00808762
0.00766531
0.0073613
0.0071432
0.00698843
0.00687977
0.00680458
0.00675216
0.00671801
0.00669962
0.00668694
0.00667493
0.00667226
0.00666993
0.00667009
0.00667102
0.00667281
0.00667504
0.00667764
0.00668049
0.00668351
0.00668669
0.00669008
0.00669371
0.00669756
0.00670167
0.00670603
0.0121471
0.0146948
0.0170049
0.0187559
0.0199964
0.0208793
0.0215349
0.0220437
0.0224389
0.0227162
0.0228459
0.022785
0.0224823
0.0218829
0.0209884
0.0198836
0.0185924
0.0171518
0.0156098
0.0140077
0.0123001
0.0105714
0.00892934
0.00732959
0.00579484
0.00440113
0.00315284
0.00210915
0.00131405
0.000757023
0.000389417
0.000171826
9.33386e-05
0.000101946
0.0105379
0.0123425
0.00933004
0.00856022
0.00800694
0.00760687
0.00731923
0.00711335
0.00696755
0.00686546
0.00679512
0.00674543
0.0067145
0.00669825
0.00668376
0.00667517
0.00667149
0.00667006
0.00667002
0.00667116
0.00667291
0.00667518
0.00667776
0.00668056
0.0066835
0.00668669
0.00669008
0.00669371
0.00669756
0.00670165
0.00670602
0.0149722
0.0172683
0.0189514
0.0201094
0.0209143
0.0215079
0.0219817
0.0223805
0.0227106
0.0229498
0.02306
0.022997
0.0227118
0.0221485
0.0212949
0.0202234
0.0189488
0.0175015
0.0159278
0.0142746
0.012506
0.0107221
0.00902482
0.00739239
0.00584719
0.00444364
0.00318664
0.00213283
0.00132752
0.000762131
0.000389875
0.000171018
9.35117e-05
0.000102373
0.010291
0.0123037
0.0151979
0.00917538
0.00845268
0.00792766
0.00754961
0.00727809
0.00708424
0.00694728
0.00685167
0.00678601
0.00673906
0.00671134
0.00669713
0.00668089
0.00667532
0.00667089
0.00667014
0.00666999
0.00667129
0.00667302
0.00667532
0.00667781
0.00668056
0.0066835
0.00668669
0.00669008
0.00669371
0.00669753
0.00670163
0.00670601
0.0174776
0.0190872
0.0201588
0.0208789
0.0213979
0.0218157
0.0221869
0.022529
0.0228288
0.0230524
0.0231586
0.0231053
0.0228473
0.0223285
0.0215244
0.0204959
0.0192492
0.0178075
0.0162146
0.0145208
0.012699
0.0108457
0.00910591
0.00746112
0.00590464
0.00449018
0.00322371
0.00215891
0.0013424
0.000767962
0.000390196
0.000170326
9.37235e-05
0.000102826
0.0100487
0.0119507
0.0151321
0.0176335
0.00902798
0.00834665
0.0078499
0.00749354
0.00723793
0.00705594
0.00692767
0.00683838
0.00677721
0.00673318
0.00670854
0.00669609
0.00667852
0.00667525
0.00667045
0.00667016
0.00667001
0.0066714
0.00667313
0.00667539
0.0066778
0.00668056
0.0066835
0.00668669
0.00669009
0.00669367
0.00669748
0.0067016
0.006706
0.0191775
0.020163
0.0207961
0.0212335
0.0215809
0.0219014
0.0222232
0.0225436
0.022835
0.0230574
0.0231697
0.0231347
0.0229106
0.0224414
0.0216919
0.0207126
0.0195014
0.0180747
0.0164724
0.0147471
0.0128555
0.0109504
0.00919465
0.0075364
0.00596773
0.00454122
0.0032644
0.00218766
0.00135895
0.000774339
0.000390878
0.000169442
9.39596e-05
0.000103326
0.00982142
0.0115688
0.0147763
0.0175361
0.019225
0.00888557
0.0082421
0.00777375
0.00743872
0.00719883
0.0070285
0.00690873
0.00682562
0.00676889
0.00672802
0.00670595
0.00669496
0.00667694
0.00667495
0.0066702
0.00667013
0.00667007
0.00667151
0.00667319
0.00667539
0.0066778
0.00668056
0.0066835
0.00668669
0.00669005
0.00669361
0.00669743
0.00670157
0.00670598
0.0201357
0.020683
0.0210355
0.0213037
0.0215569
0.0218328
0.0221404
0.0224612
0.0227581
0.0229882
0.0231143
0.023104
0.022919
0.0225025
0.0218102
0.0208834
0.0197126
0.0183075
0.0167036
0.0149271
0.0129871
0.0110646
0.00929184
0.00761895
0.0060371
0.00459724
0.00330912
0.0022194
0.00137726
0.000781676
0.000391349
0.000168719
9.42603e-05
0.000103853
0.00960881
0.0111927
0.0143341
0.0173069
0.0190747
0.0200771
0.00874642
0.00813926
0.00769934
0.00738528
0.00716088
0.00700196
0.00689059
0.00681369
0.00676117
0.00672355
0.00670346
0.00669322
0.00667606
0.00667444
0.00667008
0.00667007
0.00667016
0.00667154
0.00667318
0.00667538
0.0066778
0.00668056
0.0066835
0.00668664
0.00668996
0.00669354
0.00669738
0.00670154
0.00670597
0.0205515
0.0208194
0.0210035
0.0211779
0.0213882
0.0216551
0.0219716
0.022307
0.0226174
0.0228616
0.0230078
0.0230281
0.0228861
0.0225241
0.0218897
0.0210167
0.0198891
0.0185101
0.0168831
0.0150766
0.0131294
0.0111892
0.00939833
0.00770955
0.00611344
0.00465882
0.00335833
0.00225447
0.00139773
0.000789643
0.000392331
0.000167772
9.45875e-05
0.000104434
0.00940776
0.0108356
0.0138453
0.0169901
0.0189183
0.0198719
0.0203971
0.00860994
0.00803846
0.00762683
0.00733335
0.00712419
0.00697656
0.00687371
0.00680278
0.00675395
0.00671955
0.00670119
0.00669094
0.00667568
0.00667381
0.00667008
0.00666999
0.00667024
0.00667151
0.00667318
0.00667538
0.0066778
0.00668056
0.00668345
0.00668654
0.00668988
0.00669347
0.00669733
0.00670151
0.00670596
0.0205955
0.0206946
0.0207831
0.0209133
0.0211165
0.0213988
0.0217393
0.0220971
0.0224263
0.0226899
0.0228621
0.0229185
0.0228226
0.0225157
0.0219389
0.0211195
0.0200364
0.0186625
0.01703
0.015236
0.0132831
0.011325
0.00951505
0.00780908
0.00619753
0.00472662
0.00341256
0.00229332
0.0014204
0.000798941
0.000393037
0.000167021
9.50142e-05
0.000105037
0.00921578
0.010502
0.0133314
0.0166109
0.0186914
0.0197481
0.0201367
0.020354
0.00847622
0.00794001
0.00755642
0.00728308
0.00708908
0.00695296
0.00685832
0.00679283
0.00674726
0.00671608
0.00669934
0.00668831
0.0066756
0.00667312
0.00667015
0.00666987
0.00667027
0.0066715
0.00667318
0.00667538
0.0066778
0.00668049
0.00668335
0.00668644
0.0066898
0.0066934
0.00669727
0.00670148
0.00670594
0.0203864
0.0203864
0.0204266
0.0205482
0.0207701
0.0210846
0.0214577
0.0218421
0.0221938
0.0224823
0.0226868
0.0227841
0.022737
0.0224851
0.0219646
0.0211978
0.0201419
0.0187853
0.0171839
0.0154053
0.0134488
0.0114729
0.009643
0.00791851
0.00629026
0.00480136
0.00347241
0.00233634
0.0014459
0.000809011
0.000394409
0.00016599
9.54726e-05
0.00010582
0.00903122
0.0101925
0.0128031
0.0161813
0.0184203
0.0195671
0.0200149
0.0200378
0.0200631
0.00834559
0.00784428
0.00748832
0.00723497
0.00705647
0.00693147
0.00684431
0.00678391
0.00674117
0.00671302
0.00669806
0.00668566
0.00667568
0.00667245
0.00667031
0.00666975
0.00667029
0.0066715
0.00667318
0.00667539
0.00667774
0.00668036
0.00668324
0.00668634
0.00668971
0.00669333
0.00669721
0.00670145
0.00670592
0.0199969
0.0199424
0.0199695
0.0201093
0.0203691
0.0207256
0.0211353
0.0215485
0.0219265
0.022246
0.0224895
0.0226325
0.0226358
0.0224383
0.0219722
0.021247
0.0202248
0.0189109
0.0173442
0.0155846
0.0136269
0.0116339
0.00978323
0.0080389
0.00639262
0.00488391
0.00353858
0.00238417
0.00147417
0.000820859
0.000395498
0.000165163
9.61865e-05
0.00010674
0.00885324
0.00990736
0.0122696
0.0157023
0.0181175
0.0193575
0.0198445
0.0198986
0.01969
0.0195989
0.00821833
0.0077517
0.00742316
0.00719032
0.00702682
0.00691192
0.00683162
0.00677589
0.00673566
0.00671028
0.00669697
0.00668322
0.00667583
0.00667189
0.00667047
0.00666969
0.00667029
0.00667151
0.00667317
0.00667532
0.00667762
0.00668023
0.00668313
0.00668623
0.00668961
0.00669326
0.00669714
0.00670142
0.0067059
0.0194701
0.0193956
0.0194367
0.019617
0.0199258
0.0203292
0.0207766
0.0212199
0.0216292
0.0219872
0.0222765
0.0224693
0.0225243
0.02238
0.021965
0.0212835
0.0203065
0.0190385
0.0175103
0.0157735
0.0138179
0.0118088
0.00993685
0.00817142
0.0065057
0.00497518
0.00361183
0.00243729
0.00150616