/*--------------------------------*- C++ -*----------------------------------*\
  =========                 |
  \\      /  F ield         | OpenFOAM: The Open Source CFD Toolbox
   \\    /   O peration     | Website:  https://openfoam.org
    \\  /    A nd           | Version:  8
     \\/     M anipulation  |
\*---------------------------------------------------------------------------*/
FoamFile
{
    version     2.0;
    format      ascii;
    class       volScalarField;
    location    "0.34";
    object      k;
}
// * * * * * * * * * * * * * * * * * * * * * * * * * * * * * * * * * * * * * //

dimensions      [0 2 -2 0 0 0 0];

internalField   nonuniform List<scalar> 
15677
(
56.7813
19.7243
28.991
37.9757
44.8937
51.091
57.6486
65.5372
75.4792
87.0237
96.3854
100.6
101.09
100.962
95.555
83.41
70.9469
59.8383
50.4803
42.9477
36.9747
32.9232
30.3092
28.3014
26.7653
25.5498
24.5653
23.7392
23.0016
22.3111
21.6567
21.0472
20.5015
20.0345
19.6488
145.976
219.441
267.806
301.458
329.35
355.404
382.367
412.236
444.354
463.627
434.141
365.971
296.798
257.635
236.78
207.161
171.215
140.441
117.394
102.758
93.555
87.775
84.1346
81.7198
80.0464
78.8112
77.8111
77.1678
76.9294
77.0904
77.7069
78.9195
80.7142
83.0376
85.8212
172.176
339.131
448.662
544.676
637.622
729.249
817.623
892.87
933.03
902.724
777.137
581.34
373.222
235.863
177.745
155.706
145.396
142.477
142.445
140.725
139.23
139.66
143.57
148.574
153.576
158.116
162.086
165.225
167.714
169.66
171.228
173.022
175.402
178.525
182.133
130.791
234.869
314.422
376.162
428.743
473.835
509.823
531.956
531.456
512.116
471.273
421.164
364.853
303.264
258.715
225.906
218.313
200.272
157.244
112.195
86.3383
81.6071
87.1033
98.9707
115.322
135.207
159.91
187.963
215.835
239.562
255.858
262.984
261.966
259.438
257.385
67.285
141.598
190.008
228.212
262.084
293.432
322.251
346.048
356.94
351.768
330.087
297.327
268.303
243.48
222.248
200.419
170.374
138.013
105.09
81.266
72.9453
79.5453
97.7009
123.298
154.21
187.746
222.231
256.438
287.84
313.705
331.154
340.872
344.213
342.864
338.024
19.1378
36.955
55.3403
70.5135
83.6918
95.0792
104.394
110.964
113.493
112.281
108.047
100.765
92.7008
84.2178
76.2818
68.8856
61.936
56.478
52.9813
51.9137
52.3582
55.1663
61.9328
72.0681
82.7792
93.7389
105.13
117.015
129.423
141.607
152.551
161.915
169.605
175.565
179.991
6.48041
6.67902
8.88035
11.0724
13.3027
15.6355
18.1031
20.7101
23.3897
26.0724
28.68
31.1491
33.5412
35.9538
38.4035
40.9412
43.5575
46.1743
48.8482
51.8728
55.7878
61.0413
67.8769
76.7053
87.5752
99.6764
111.175
120.591
127.501
132.123
134.872
136.156
136.836
137.316
137.761
5.55629
10.3561
13.995
16.8559
19.3803
21.7223
23.9489
26.0875
28.181
30.2772
32.4477
34.8123
37.4581
40.4648
43.6062
46.7597
50.0902
53.7199
57.8687
62.8352
68.6815
74.4846
79.3597
83.6717
87.7712
91.7798
95.6187
99.0952
102.034
104.382
106.296
107.932
109.35
110.604
111.732
8.76225
12.5501
16.2759
19.2442
21.8671
24.3294
26.7281
29.1255
31.5675
34.0944
36.7495
39.5845
42.6651
46.0894
49.6199
53.1121
56.7643
60.6926
65.039
69.957
75.5426
81.7031
88.0166
93.9578
99.0667
103.114
106.27
108.672
110.455
111.735
112.604
113.26
113.85
114.445
115.069
6.9844
14.137
18.1894
21.2591
23.9353
26.4343
28.8689
31.3145
33.8324
36.4807
39.3216
42.4344
45.9066
49.8061
53.8725
57.9467
62.2228
66.7628
71.6013
76.7421
82.1162
87.2647
91.6265
95.196
98.2752
100.953
103.3
105.326
107.037
108.477
109.691
110.722
111.608
112.38
113.059
9.33064
14.9876
19.1871
22.4181
25.2332
27.8629
30.4261
33.0033
35.6639
38.479
41.5211
44.8702
48.6112
52.7694
56.9947
61.1434
65.416
69.871
74.5538
79.4739
84.6476
89.841
94.6556
98.8162
102.271
105.1
107.397
109.262
110.801
112.08
113.149
114.044
114.79
115.406
115.919
8.66605
15.9909
20.3644
23.6839
26.5621
29.2382
31.8433
34.4638
37.1685
40.0191
43.063
46.3604
50.0068
54.1338
58.4492
62.7254
67.1121
71.6422
76.3305
81.1522
86.0277
90.6078
94.5543
97.9058
100.789
103.272
105.397
107.207
108.742
110.043
111.143
112.071
112.853
113.511
114.061
9.6477
16.3293
20.8205
24.2382
27.2028
29.9679
32.666
35.3795
38.1588
41.0409
44.0905
47.385
51.0192
55.1067
59.3609
63.5467
67.8213
72.2167
76.748
81.4141
86.192
90.8166
94.9718
98.564
101.606
104.167
106.318
108.126
109.647
110.927
112.003
112.906
113.659
114.283
114.793
9.48807
17.0174
21.5916
25.0322
27.9971
30.7466
33.4176
36.0978
38.8497
41.7157
44.7546
48.0318
51.6312
55.6633
59.8442
63.9816
68.225
72.5876
77.0703
81.6548
86.2973
90.7261
94.6536
98.0839
101.073
103.654
105.86
107.734
109.317
110.648
111.763
112.693
113.464
114.1
114.618
9.89096
17.2816
21.9737
25.4966
28.5236
31.3191
34.0178
36.7037
39.4388
42.2768
45.272
48.485
51.9936
55.8975
59.9056
63.8485
67.8738
72.0135
76.2849
80.6903
85.215
89.6238
93.6423
97.2047
100.31
102.991
105.29
107.25
108.911
110.313
111.491
112.475
113.294
113.97
114.522
9.89627
17.8212
22.5688
26.1141
29.1526
31.9559
34.6613
37.3504
40.0741
42.8767
45.8114
48.9355
52.318
56.047
59.8721
63.603
67.3976
71.2962
75.3239
79.4896
83.784
87.9862
91.8339
95.2936
98.3743
101.084
103.443
105.478
107.22
108.702
109.955
111.008
111.889
112.62
113.223
10.0878
18.077
22.9351
26.5457
29.6297
32.4634
35.1823
37.8615
40.5601
43.3276
46.2085
49.2486
52.5028
56.0439
59.6095
63.0546
66.536
70.1033
73.7936
77.6313
81.6254
85.5872
89.2694
92.6164
95.6194
98.2839
100.624
102.663
104.424
105.937
107.23
108.328
109.259
110.043
110.701
10.1423
18.5233
23.4511
27.0967
30.1981
33.0354
35.7465
38.4131
41.0911
43.8236
46.6473
49.5981
52.7178
56.0615
59.3753
62.5292
65.6796
68.8837
72.1887
75.6299
79.2285
82.8252
86.2009
89.3069
92.13
94.6653
96.9178
98.9004
100.632
102.135
103.432
104.548
105.504
106.322
107.021
10.1992
18.7217
23.7084
27.3952
30.5308
33.3969
36.1306
38.8113
41.4917
44.2104
46.9975
49.879
52.8833
56.0469
59.1115
61.972
64.7804
67.5998
70.4863
73.4875
76.6392
79.8182
82.8359
85.645
88.2285
90.5768
92.6883
94.5692
96.2317
97.6917
98.9678
100.079
101.044
101.881
102.607
10.2228
19.014
24.0692
27.7889
30.9442
33.8222
36.5616
39.2413
41.9119
44.6085
47.3555
50.1704
53.0687
56.0686
58.9099
61.5
63.9847
66.4297
68.8964
71.4411
74.1116
76.82
79.4167
81.8642
84.1446
86.2445
88.157
89.8821
91.4257
92.7981
94.0126
95.0839
96.0269
96.8565
97.5863
10.236
19.2011
24.3109
28.0634
31.2436
34.1416
36.8962
39.5854
42.2574
44.9437
47.6636
50.4269
53.2382
56.0992
58.7456
61.0959
63.288
65.3866
67.4557
69.5574
71.7491
73.9782
76.1342
78.1901
80.1313
81.9433
83.6162
85.1455
86.532
87.7807
88.9
89.8999
90.7915
91.5861
92.2946
10.2354
19.4077
24.5672
28.3448
31.5417
34.4517
37.2143
39.9067
42.5756
45.2498
47.9442
50.6625
53.4001
56.1449
58.6283
60.776
62.7172
64.5129
66.226
67.9208
69.6608
71.424
73.1405
74.7969
76.383
77.8856
79.2933
80.5988
81.7987
82.894
83.8885
84.7883
85.601
86.3345
86.997
10.2146
19.5486
24.7505
28.552
31.7667
34.6909
37.4642
40.1631
42.8328
45.4993
48.1744
50.8565
53.5337
56.1834
58.5334
60.5155
62.2496
63.7921
65.202
66.543
67.881
69.2197
70.5263
71.8014
73.0413
74.2356
75.3732
76.445
77.4453
78.3716
79.2243
80.006
80.7208
81.3739
81.9708
10.1824
19.6793
24.9167
28.7355
31.962
34.8948
37.6741
40.3756
43.0431
45.7008
48.3574
51.0076
53.6339
56.2034
58.4468
60.2967
61.8659
63.2051
64.3688
65.4169
66.4149
67.3866
68.3309
69.2625
70.1845
71.0904
71.9706
72.8156
73.6182
74.3734
75.079
75.735
76.3427
76.9047
77.4244
10.1372
19.7697
25.0348
28.8679
32.1045
35.045
37.8295
40.533
43.1981
45.8473
48.4868
51.1077
53.6873
56.1938
58.35
60.0952
61.5359
62.7177
63.6895
64.5067
65.232
65.9033
66.5454
67.1851
67.8325
68.4854
69.1363
69.7762
70.3971
70.9927
71.5588
72.0931
72.5951
73.0652
73.505
10.0819
19.8399
25.1262
28.9683
32.2106
35.155
37.9412
40.6437
43.3036
45.9417
48.5619
51.1547
53.6973
56.1465
58.2304
59.8925
61.2343
62.2974
63.1254
63.7687
64.2862
64.7247
65.1287
65.5347
65.9591
66.4038
66.8637
67.3306
67.7965
68.2543
68.6983
69.125
69.532
69.9181
70.2836
10.0176
19.8826
25.1839
29.0314
32.2765
35.2217
38.0069
40.7056
43.3583
45.9846
48.5884
51.1559
53.6594
56.0564
58.0787
59.6736
60.9393
61.9144
62.6382
63.1562
63.5233
63.7916
64.0193
64.2501
64.5052
64.7903
65.1023
65.4342
65.7782
66.1266
66.4731
66.8129
67.1424
67.4594
67.7629
9.94514
19.9024
25.213
29.062
32.3071
35.2514
38.0344
40.7288
43.3737
45.987
48.5699
51.1084
53.5741
55.9229
57.891
59.4298
60.636
61.5461
62.1963
62.6281
62.8915
63.0429
63.149
63.258
63.3944
63.5666
63.7736
64.0092
64.2659
64.5358
64.8121
65.0891
65.3624
65.6289
65.8866
9.86975
19.9078
25.2225
29.0702
32.3126
35.2529
38.0301
40.7161
43.349
45.9458
48.5068
51.0163
53.4449
55.7479
57.6666
59.1572
60.3152
61.1767
61.7761
62.1515
62.3455
62.4224
62.4525
62.4847
62.5458
62.6463
62.7865
62.9612
63.1628
63.3835
63.6159
63.8538
64.0922
64.3273
64.5564
9.78421
19.8901
25.2059
29.0499
32.2874
35.2219
37.9914
40.6675
43.2872
45.8665
48.4045
50.8846
53.2765
55.5354
57.408
58.8554
59.9731
60.7972
61.3616
61.6996
61.8514
61.8858
61.8738
61.8647
61.8841
61.9456
62.0502
62.1929
62.3664
62.5624
62.7734
62.9926
63.2146
63.4351
63.6509
19.1743
18.9228
19.1094
19.717
20.6404
21.7459
22.875
23.8471
24.4598
24.4989
23.7756
21.9303
18.8776
15.2339
11.5147
8.30869
6.64155
6.85424
6.50056
4.78902
4.41526
5.22958
89.8546
96.3998
104.852
114.801
125.058
134.631
143.278
151.555
160.952
172.792
186.135
199.773
213.56
223.335
222.875
215.615
200.253
182.721
165.708
149.653
134.785
120.521
187.003
194.846
204.649
215.302
225.675
236.246
246.659
256.702
272.037
297.104
336.928
396.555
480.086
571.801
653.991
703.85
707.604
671.649
605.927
526.97
446.436
372.378
254.79
253.194
254.921
261.273
272.612
286.054
297.018
304.301
307.841
309.226
310.343
317.163
328.841
343.749
360.067
374.473
380.91
380.516
371.697
354.584
335.581
322.286
329.033
312.793
293.75
274.842
260.241
251.901
247.954
246.676
246.821
248.297
251.231
259.138
271.651
287.251
304.269
317.861
322.575
319.785
311.267
300.731
295.241
295.276
185.489
190.913
193.78
194.414
193.187
191.011
189.187
188.049
187.836
188.937
191.694
196.424
203.104
211.152
219.812
228.139
235.3
240.908
244.839
247.38
249.958
253.525
138.973
140.983
142.684
144.026
145.04
145.82
146.533
147.377
148.57
150.36
153.044
156.949
162.25
168.735
175.873
182.796
188.66
193.077
196.201
198.497
200.562
202.871
113.349
115.491
117.623
119.683
121.623
123.449
125.188
126.895
128.644
130.605
132.958
135.859
139.378
143.445
147.884
152.359
156.622
160.461
163.758
166.523
168.866
170.955
115.965
117.278
118.543
119.75
120.928
122.093
123.253
124.431
125.668
127.022
128.574
130.389
132.465
134.76
137.235
139.811
142.385
144.834
147.04
148.93
150.537
151.952
113.877
114.895
115.938
116.974
117.976
118.949
119.914
120.9
121.929
123.036
124.256
125.612
127.093
128.676
130.345
132.073
133.822
135.546
137.194
138.721
140.098
141.315
116.517
117.211
117.884
118.55
119.214
119.878
120.548
121.231
121.941
122.698
123.513
124.392
125.315
126.266
127.255
128.283
129.339
130.406
131.462
132.484
133.452
134.35
114.712
115.473
116.196
116.887
117.55
118.192
118.816
119.427
120.025
120.606
121.186
121.781
122.404
123.049
123.713
124.393
125.085
125.785
126.485
127.177
127.852
128.501
115.349
115.965
116.534
117.059
117.541
117.984
118.387
118.756
119.094
119.409
119.71
120.005
120.3
120.601
120.915
121.244
121.592
121.957
122.34
122.738
123.148
123.566
115.207
115.845
116.412
116.902
117.314
117.647
117.907
118.1
118.231
118.309
118.344
118.348
118.339
118.328
118.329
118.35
118.397
118.474
118.585
118.731
118.913
119.129
115.168
115.879
116.492
117.001
117.403
117.695
117.878
117.952
117.923
117.793
117.575
117.29
116.966
116.635
116.314
116.019
115.763
115.554
115.398
115.3
115.264
115.288
113.999
114.904
115.689
116.343
116.858
117.227
117.442
117.504
117.42
117.195
116.84
116.373
115.834
115.263
114.69
114.136
113.623
113.164
112.772
112.455
112.22
112.069
111.623
112.776
113.807
114.696
115.428
115.987
116.362
116.54
116.534
116.345
115.979
115.453
114.811
114.104
113.367
112.633
111.929
111.277
110.695
110.197
109.792
109.487
108.074
109.466
110.749
111.899
112.895
113.717
114.345
114.763
114.956
114.935
114.696
114.252
113.643
112.924
112.137
111.323
110.514
109.742
109.03
108.399
107.863
107.432
103.768
105.373
106.891
108.297
109.563
110.665
111.577
112.278
112.747
112.966
112.947
112.685
112.212
111.583
110.845
110.042
109.216
108.4
107.625
106.917
106.294
105.773
98.8223
100.603
102.326
103.967
105.496
106.882
108.096
109.11
109.898
110.438
110.705
110.714
110.472
110.03
109.433
108.731
107.967
107.179
106.404
105.671
105.004
104.424
93.5563
95.4422
97.3095
99.1318
100.879
102.519
104.018
105.342
106.46
107.342
107.964
108.298
108.357
108.178
107.804
107.282
106.656
105.968
105.257
104.555
103.892
103.292
88.2344
90.1485
92.0835
94.0159
95.9164
97.7527
99.4898
101.091
102.519
103.739
104.717
105.422
105.827
105.96
105.869
105.592
105.171
104.649
104.064
103.453
102.846
102.272
83.1362
84.9979
86.918
88.8776
90.8506
92.8066
94.7114
96.5276
98.2156
99.7351
101.047
102.109
102.878
103.36
103.581
103.592
103.427
103.124
102.721
102.253
101.754
101.256
78.4811
80.2201
82.0494
83.9556
85.9175
87.909
89.8988
91.8514
93.7272
95.4841
97.0791
98.4608
99.5684
100.388
100.944
101.263
101.378
101.33
101.149
100.871
100.525
100.148
74.4298
75.9933
77.6701
79.4534
81.3279
83.2734
85.2636
87.2671
89.247
91.1621
92.9682
94.6084
96.0067
97.1324
97.998
98.6228
99.0318
99.2519
99.3158
99.2549
99.0975
98.8766
71.0693
72.4267
73.9106
75.5202
77.2469
79.077
80.9911
82.9635
84.9624
86.9502
88.8844
90.7061
92.3288
93.7069
94.8418
95.7433
96.4274
96.9148
97.23
97.398
97.4465
97.4064
68.4166
69.5614
70.8354
72.2435
73.7832
75.4478
77.2251
79.0966
81.0372
83.0153
84.9928
86.9125
88.6825
90.2455
91.5932
92.7259
93.6507
94.3806
94.9329
95.3276
95.5864
95.7346
66.4272
67.3745
68.4451
69.6476
70.9852
72.4572
74.0584
75.778
77.5987
79.4962
81.4391
83.3752
85.2126
86.8865
88.3806
89.687
90.8046
91.7387
92.4995
93.1009
93.5595
93.8928
65.01
65.7916
66.6843
67.6989
68.8421
70.1184
71.5283
73.0681
74.7282
76.4924
78.3373
80.2184
82.0483
83.7596
85.3307
86.747
88.0006
89.09
90.0187
90.7947
91.4292
91.9331
64.0459
64.7039
65.4572
66.3173
67.293
68.3917
69.6183
70.9745
72.4572
74.0579
75.7615
77.5327
79.2928
80.9758
82.5576
84.0197
85.3492
86.539
87.5872
88.4963
89.2725
89.9218
6.86988
5.6776
3.9087
3.51662
3.94893
5.57407
105.952
88.3449
65.2497
48.1758
51.8356
57.7452
303.683
256.742
265.055
348.489
479.492
614.221
317.73
333.512
366.118
413.626
467.266
510.965
301.737
315.594
333.38
348.891
356.806
357.528
258.363
263.476
268.133
272.889
276.632
278.72
205.129
207.509
210.536
214.074
217.802
221.397
172.482
173.642
174.98
176.622
178.584
180.872
152.946
153.61
154.308
155.153
156.239
157.644
142.192
142.741
143.206
143.667
144.213
144.934
135.02
135.428
135.772
136.093
136.448
136.912
128.951
129.186
129.404
129.635
129.921
130.307
123.799
123.849
123.925
124.051
124.264
124.597
119.179
119.063
119.011
119.049
119.209
119.523
115.171
114.914
114.762
114.739
114.875
115.194
111.809
111.439
111.21
111.143
111.263
111.59
109.099
108.634
108.333
108.218
108.303
108.604
106.935
106.383
106.006
105.826
105.848
106.085
105.19
104.561
104.104
103.838
103.77
103.904
103.778
103.082
102.545
102.183
102.007
102.016
102.611
101.865
101.26
100.809
100.521
100.402
101.59
100.82
100.167
99.6452
99.2622
99.0275
100.612
99.8474
99.1746
98.609
98.1574
97.832
99.5788
98.85
98.1886
97.6095
97.1198
96.7337
98.4154
97.7488
97.1272
96.5644
96.0677
95.6519
97.0763
96.4928
95.9345
95.4133
94.9368
94.5197
95.5503
95.0634
94.5851
94.1251
93.6909
93.2963
93.8545
93.4723
93.0852
92.6999
92.3242
91.9704
92.0354
91.7589
91.4675
91.1648
90.8583
90.5584
90.152
89.9786
89.7835
89.5665
89.3354
89.098
7.50129
9.17489
8.74006
6.91546
4.70158
3.46136
2.71183
2.09399
1.57277
1.1363
0.871158
0.836137
1.03288
1.14491
1.09329
1.18317
1.55567
2.13234
2.82599
3.62263
4.50802
5.43983
59.1774
58.615
54.2373
49.0127
43.4949
38.1895
33.1191
28.7718
25.3162
22.6282
20.7334
19.779
19.5513
19.9373
21.1106
23.0273
25.5849
28.6975
32.319
36.4048
40.7039
45.1889
719.256
792.878
834.093
835.159
794.036
713.356
605.226
490.273
398.248
333.162
286.665
249.747
212.338
174.027
140.719
116.264
100.432
91.0955
86.0854
83.7737
83.2894
84.0555
531.149
531.623
516.602
485.893
442.522
388.659
331.074
278.29
233.572
195.986
165.012
141.186
126.553
117.732
111.717
106.659
102.451
98.9073
95.9638
93.3656
91.0799
89.0954
354.455
347.213
337.659
326.82
316.214
307.733
303.023
301.281
300.594
301.407
300.099
293.762
280.623
261.083
237.219
212.229
189.242
170.181
154.992
142.543
132.06
123.097
278.424
276.174
273.179
269.867
267.052
265.382
265.003
265.482
264.022
259.784
251.832
242.078
231.71
221.741
212.8
204.777
196.856
187.151
175.381
161.888
149.383
138.491
223.491
224.302
225.124
226.289
228.194
230.829
233.583
235.579
235.918
234.221
230.233
224.254
217.234
210.189
203.69
197.919
192.812
188.487
185.079
182.492
180.595
179.053
182.524
183.524
184.775
186.299
188.041
189.827
191.359
192.319
192.606
192.22
191.125
189.405
187.221
184.777
182.229
179.686
177.201
174.763
172.269
169.769
167.28
164.802
158.7
159.46
160.486
161.835
163.544
165.525
167.69
169.911
172.045
173.951
175.492
176.54
176.997
176.867
176.206
175.098
173.667
171.971
170.056
167.966
165.743
163.426
145.431
145.799
146.383
147.213
148.298
149.63
151.191
152.934
154.778
156.621
158.345
159.815
160.881
161.461
161.498
161.045
160.081
158.719
157.049
155.157
153.12
151.006
137.207
137.399
137.768
138.36
139.228
140.395
141.838
143.529
145.412
147.399
149.373
151.179
152.635
153.632
154.139
154.162
153.808
153.123
152.206
151.104
149.864
148.527
130.543
130.667
130.944
131.406
132.116
133.1
134.328
135.773
137.388
139.1
140.812
142.402
143.727
144.71
145.336
145.623
145.589
145.293
144.77
144.074
143.232
142.27
124.809
124.912
125.186
125.669
126.383
127.338
128.526
129.923
131.488
133.154
134.841
136.442
137.826
138.916
139.689
140.144
140.289
140.138
139.721
139.07
138.222
137.209
119.758
119.899
120.225
120.761
121.52
122.503
123.695
125.064
126.561
128.118
129.655
131.074
132.255
133.13
133.682
133.909
133.823
133.444
132.792
131.904
130.811
129.556
115.482
115.689
116.089
116.692
117.5
118.504
119.677
120.976
122.345
123.715
125.006
126.128
126.976
127.526
127.757
127.67
127.293
126.652
125.784
124.729
123.521
122.195
111.917
112.172
112.608
113.222
114.006
114.936
115.977
117.078
118.194
119.242
120.154
120.854
121.272
121.392
121.225
120.79
120.119
119.245
118.204
117.031
115.757
114.409
108.923
109.168
109.566
110.116
110.786
111.549
112.366
113.189
113.966
114.638
115.151
115.447
115.49
115.284
114.846
114.205
113.393
112.443
111.386
110.251
109.064
107.845
106.344
106.521
106.819
107.22
107.703
108.235
108.781
109.3
109.746
110.076
110.248
110.228
110
109.577
108.985
108.251
107.404
106.47
105.475
104.443
103.393
102.34
104.058
104.125
104.28
104.506
104.781
105.078
105.366
105.611
105.78
105.839
105.763
105.527
105.131
104.597
103.949
103.209
102.4
101.547
100.667
99.7805
98.9011
98.0386
102.044
101.985
101.988
102.04
102.12
102.206
102.273
102.296
102.25
102.112
101.861
101.487
100.997
100.417
99.7637
99.0583
98.3194
97.5647
96.8096
96.0669
95.3468
94.6544
100.301
100.119
99.981
99.8759
99.7875
99.6975
99.587
99.4365
99.228
98.9451
98.5751
98.1128
97.5722
96.9773
96.3441
95.6889
95.0266
94.3706
93.7316
93.1179
92.535
91.9838
98.8081
98.5163
98.2551
98.0167
97.7876
97.5539
97.3007
97.0138
96.68
96.2883
95.8308
95.3073
94.7359
94.1401
93.5331
92.9278
92.3354
91.7646
91.2218
90.7102
90.2306
89.7799
97.5106
97.1247
96.7592
96.4089
96.0631
95.7109
95.3412
94.9436
94.509
94.0306
93.5046
92.935
92.3432
91.7517
91.1711
90.6105
90.0768
89.574
89.1032
88.663
88.2493
87.8559
96.3328
95.8664
95.4124
94.9677
94.5238
94.0724
93.6056
93.1163
92.599
92.0506
91.471
90.8675
90.2641
89.6813
89.1263
88.6037
88.1153
87.6599
87.2337
86.8306
86.4431
86.0627
95.1923
94.6572
94.1283
93.6041
93.0778
92.5439
91.9973
91.4339
90.8516
90.2506
89.6338
89.0112
88.4068
87.8384
87.3082
86.8157
86.3572
85.9266
85.5157
85.1154
84.7163
84.309
94.0216
93.4285
92.8375
92.248
91.6555
91.0566
90.4489
89.8316
89.2052
88.5726
87.9385
87.3136
86.72
86.1707
85.6623
85.1889
84.7419
84.3114
83.8865
83.4571
83.0135
82.5478
92.7779
92.1387
91.4999
90.8616
90.2213
89.5781
88.9321
88.2846
87.6385
86.998
86.3678
85.757
85.1835
84.6539
84.1599
83.6906
83.2342
82.7787
82.3131
81.8278
81.3152
80.7696
91.4489
90.778
90.1087
89.4413
88.7755
88.1123
87.4537
86.8026
86.1625
85.5374
84.93
84.3454
83.7953
83.2807
82.7887
82.3057
81.8187
81.3161
80.7883
80.2284
79.6318
78.9958
90.0502
89.3654
88.686
88.0125
87.3461
86.6894
86.0453
85.4168
84.8067
84.2164
83.645
83.092
82.5624
82.0525
81.5473
81.0325
80.4964
79.9296
79.3256
78.6809
77.9949
77.2677
88.6186
87.9399
87.2733
86.6185
85.9778
85.3542
84.7502
84.1676
83.6064
83.0643
82.535
82.0118
81.494
80.9754
80.441
79.8785
79.2789
78.6365
77.9489
77.2165
76.4422
75.6288
6.34543
7.08941
7.93391
8.97676
10.2654
11.8931
13.9886
16.746
20.4572
25.2534
31.3795
39.5811
50.2568
63.232
77.1606
90.382
102.318
113.323
122.94
129.914
133.574
134.266
130.609
124.493
112.225
97.1746
84.7235
76.3726
71.4182
68.0698
63.8813
56.7701
45.4637
31.0404
60.0231
48.9907
52.1361
55.7893
59.9929
64.803
70.2917
76.548
83.6775
91.7954
101.171
112.252
125.595
141.633
158.067
171.867
183.8
192.712
199.629
206.515
213.932
230.355
264.738
335.662
428.653
493.394
493.517
477.941
460.714
447.483
434.96
419.086
395.866
360.137
299.868
191.345
85.3824
86.7351
88.5718
90.8293
93.4008
96.294
99.5219
103.095
107.021
111.454
116.674
122.663
127.347
128.345
126.957
123.846
123.175
125.477
132.72
150.471
190.845
286.994
446.106
634.437
805.574
893.119
890.871
835.439
757.747
673.139
587.057
501.134
415.588
316.827
167.456
87.6381
86.496
85.4243
84.4088
83.4408
82.5214
81.6675
80.9171
80.3921
80.1495
80.2445
80.9412
82.5334
85.7239
91.5002
99.4652
109.45
127.088
156.829
195.078
235.297
281.058
337.707
397.225
453.973
498.058
516.123
513.009
488.184
451.434
406.999
356.192
297.371
221.886
121.322
116.449
111.123
105.625
100.027
94.4144
88.879
83.5155
78.407
73.6108
69.1953
65.2169
61.7032
58.6128
55.906
54.025
53.3717
54.7634
60.3084
72.9212
96.5174
132.873
179.621
234.53
282.412
314.126
327.401
325.97
308.199
283.487
256.609
228.31
197.974
163.822
120.849
58.4337
130.635
124.416
118.19
112.08
106.179
100.522
94.9768
88.971
82.3316
75.505
69.0412
63.2412
58.2613
53.9579
50.2787
47.4286
45.5531
44.6935
44.4659
44.955
46.4729
49.7426
54.8225
60.5622
66.591
72.5292
74.9
75.0343
71.2556
65.2852
57.6414
48.549
37.9443
24.9898
13.0898
177.647
175.974
173.616
170.24
165.35
158.55
149.784
139.588
128.685
117.826
107.474
97.7071
88.5197
80.0082
72.2594
65.5274
59.7382
54.6082
49.9919
45.8536
42.2934
39.0865
36.1872
33.5745
31.0921
28.6542
26.2013
23.7514
21.3179
18.9354
16.6114
14.3043
11.8994
9.16319
7.25703
162.829
161.254
159.377
157.091
154.311
150.951
146.887
141.964
136.112
129.359
121.823
113.863
105.963
97.9208
89.3461
80.6482
72.7386
65.9933
60.3227
55.4369
51.0829
46.9765
43.2571
40.0822
37.2636
34.6688
32.2344
29.872
27.5016
25.0679
22.5029
19.7075
16.4887
12.3179
5.82233
161.572
160.124
158.455
156.54
154.358
151.898
149.122
146.001
142.399
138.032
132.476
125.452
117.184
108.24
99.1306
90.5464
82.816
75.8316
69.495
63.7246
58.5056
53.5955
49.1526
45.3584
42.015
38.9885
36.1809
33.5161
30.928
28.3508
25.7039
22.8647
19.5989
15.3571
10.1805
149.347
148.11
146.734
145.205
143.501
141.585
139.424
136.972
134.18
131.013
127.474
123.61
119.394
114.177
106.931
98.5987
90.3457
82.6627
75.6641
69.3087
63.5914
58.1516
53.1728
48.8923
45.1651
41.8338
38.7777
35.9068
33.1419
30.4027
27.5942
24.5785
21.1007
16.5091
8.53531
147.462
146.631
145.652
144.51
143.186
141.654
139.877
137.799
135.342
132.391
128.824
124.473
119.117
112.732
105.163
97.2873
89.9243
83.139
76.9249
71.1851
65.7897
60.4625
55.5034
51.1816
47.3238
43.8092
40.5743
37.5523
34.6648
31.8262
28.9335
25.838
22.2649
17.5495
10.6121
141.495
140.948
140.258
139.392
138.31
136.963
135.292
133.237
130.732
127.715
124.129
119.935
115.126
109.715
103.59
97.0164
90.4934
84.1883
78.2069
72.5586
67.2048
61.9241
56.9343
52.5434
48.5881
44.9938
41.7013
38.6247
35.6801
32.7802
29.8207
26.6493
22.9839
18.1198
9.81482
136.429
135.909
135.256
134.439
133.422
132.16
130.601
128.689
126.358
123.542
120.167
116.154
111.454
105.989
99.938
93.824
87.9591
82.4216
77.1735
72.1285
67.2047
62.2019
57.353
53.0268
49.1211
45.5496
42.2369
39.1197
36.1298
33.187
30.1889
26.9808
23.2714
18.3384
10.5431
128.624
128.056
127.368
126.53
125.507
124.26
122.745
120.914
118.716
116.106
113.04
109.497
105.483
101.029
96.1971
91.2384
86.3683
81.5888
76.8721
72.1738
67.4471
62.5287
57.6959
53.3559
49.4201
45.8045
42.4391
39.2861
36.2747
33.3202
30.3169
27.1085
23.4026
18.4604
10.0907
121.264
120.723
120.071
119.286
118.339
117.201
115.835
114.206
112.277
110.013
107.377
104.339
100.9
97.0605
92.855
88.536
84.2892
80.0639
75.8025
71.4558
66.9888
62.253
57.528
53.2463
49.3478
45.7688
42.4453
39.3142
36.3083
33.3472
30.3336
27.1157
23.3978
18.4301
10.269
113.5
113.002
112.417
111.723
110.899
109.92
108.758
107.388
105.78
103.912
101.762
99.3192
96.5746
93.5197
90.1531
86.5966
82.9473
79.1593
75.1969
71.0412
66.6885
62.0201
57.3351
53.0802
49.1996
45.6265
42.2892
39.1433
36.1376
33.1954
30.212
27.0304
23.3541
18.4303
9.99216
107.055
106.636
106.145
105.568
104.887
104.085
103.143
102.042
100.761
99.2818
97.5866
95.6555
93.4629
90.9671
88.1221
85.0029
81.6918
78.1486
74.3536
70.3087
66.0313
61.4212
56.7856
52.5753
48.7412
45.2211
41.9481
38.8518
35.8847
32.9692
30.0059
26.841
23.1812
18.2678
9.93937
101.68
101.345
100.955
100.501
99.9686
99.3459
98.6183
97.771
96.7879
95.6518
94.3422
92.8318
91.08
89.0233
86.5841
83.7824
80.6835
77.2716
73.5534
69.5562
65.3178
60.7531
56.1749
52.0271
48.2569
44.8009
41.5941
38.572
35.6673
32.8031
29.8809
26.75
23.1202
18.2359
9.74225
97.5188
97.2687
96.9777
96.6378
96.2404
95.776
95.2334
94.6
93.8605
92.9956
91.9784
90.7702
89.3127
87.5197
85.2863
82.6181
79.5958
76.2235
72.5303
68.5611
64.3653
59.8643
55.3653
51.2954
47.5956
44.1997
41.042
38.0593
35.1867
32.3502
29.455
26.3547
22.7652
17.9415
9.54971
94.2553
94.0803
93.8758
93.6358
93.3538
93.0216
92.6293
92.1642
91.6091
90.9402
90.1231
89.1081
87.8231
86.1677
84.0274
81.4035
78.3928
75.0227
71.3412
67.4061
63.2726
58.8637
54.4763
50.515
46.914
43.605
40.5227
37.6057
34.7908
32.006
29.1585
26.1038
22.5601
17.7822
9.35144
91.6831
91.57
91.435
91.2734
91.0793
90.8452
90.5605
90.211
89.7763
89.2276
88.5231
87.6041
86.3893
84.7713
82.6344
79.9917
76.9619
73.5904
69.9377
66.067
62.0327
57.7551
53.5131
49.6843
46.1977
42.9844
39.9808
37.1282
34.3667
31.6271
28.8196
25.8031
22.2997
17.5701
9.17784
89.5469
89.4792
89.3942
89.2873
89.1525
88.9815
88.7626
88.4791
88.1072
87.6134
86.9507
86.0548
84.8407
83.201
81.0277
78.3519
75.3109
71.9625
68.3733
64.6063
60.7103
56.6006
52.5336
48.8592
45.5035
42.3987
39.4845
36.7057
34.0055
31.3179
28.5557
25.5805
22.1173
17.4278
9.0163
87.6591
87.6183
87.5616
87.484
87.3789
87.2368
87.0441
86.782
86.4241
85.9338
85.2612
84.3403
83.0871
81.3995
79.1819
76.4854
73.4614
70.1744
66.6911
63.0695
59.349
55.4386
51.5689
48.0619
44.8437
41.8499
39.0246
36.3169
33.6738
31.0328
28.3101
25.3699
21.9403
17.2859
8.87416
85.8712
85.8385
85.7889
85.7169
85.6146
85.4711
85.2717
84.9964
84.6172
84.0961
83.3829
82.4132
81.1074
79.3725
77.1275
74.4421
71.4754
68.2929
64.9569
61.517
58.0012
54.312
50.6527
47.3198
44.2419
41.3597
38.623
35.9858
33.399
30.8039
28.1193
25.2123
21.813
17.1867
8.748
84.0936
84.0504
83.9875
83.8988
83.776
83.6078
83.3794
83.0676
82.6454
82.0754
81.309
80.2855
78.9323
77.1674
74.9251
72.2897
69.4219
66.3837
63.2298
59.999
56.7074
53.2511
49.8065
46.6466
43.7053
40.9299
38.2765
35.7043
33.1683
30.6135
27.9617
25.0822
21.7076
17.1033
8.63813
82.2856
82.2175
82.1261
82.0051
81.8458
81.6365
81.3615
81.0001
80.5247
79.8994
79.0793
78.0093
76.6249
74.8558
72.6508
70.1041
67.372
64.5099
61.5629
58.5581
55.4995
52.2781
49.0442
46.0508
43.239
40.5635
37.9872
35.4745
32.9848
30.4664
27.8438
24.9886
21.6348
17.0469
8.542
80.445
80.3408
80.2098
80.0456
79.8394
79.5797
79.2512
78.8342
78.3029
77.6246
76.7585
75.6561
74.2617
72.5162
70.381
67.9555
65.3872
62.7229
59.9967
57.2242
54.398
51.4051
48.3715
45.5337
42.8411
40.2562
37.749
35.289
32.8396
30.3523
27.7544
24.919
21.5815
17.0053
8.45789
78.6025
78.454
78.2757
78.0612
77.802
77.4873
77.1027
76.6301
76.0462
75.3218
74.4214
73.3029
71.9194
70.2221
68.183
65.9024
63.5159
61.0602
58.5587
56.0157
53.4135
50.6361
47.7879
45.0917
42.5064
40.0023
37.556
35.142
32.7275
30.2671
27.69
24.8712
21.5471
16.979
8.38326
76.8044
76.6066
76.3765
76.1079
75.793
75.4218
74.9815
74.4559
73.8248
73.0628
72.1395
71.0197
69.6645
68.0343
66.1096
63.988
61.7913
59.5459
57.2642
54.9405
52.5479
49.9686
47.2879
44.7181
42.2272
39.7938
37.4002
35.0257
32.6408
30.2029
27.6431
24.8377
21.5241
16.9613
8.31627
75.0976
74.848
74.564
74.2399
73.8687
73.4416
72.9476
72.3729
71.7001
70.9082
69.9719
68.8624
67.548
65.9972
64.1969
62.2397
60.2323
58.1909
56.1178
53.9979
51.7968
49.3956
46.8631
44.4038
41.9947
39.622
37.2735
34.9325
32.5727
30.1536
27.6081
24.8136
21.5079
16.9478
8.25222
9.69171
19.8565
25.1673
29.0029
32.2318
35.1568
37.9156
40.5787
43.1822
45.7407
48.2524
50.6996
53.0513
55.2627
57.087
58.4906
59.5691
60.3594
60.8956
61.2069
61.3332
61.3468
61.3129
61.2851
61.2854
61.3302
61.4207
61.5519
61.7162
61.9053
62.111
62.3263
62.5453
62.7632
62.9765
9.58306
19.8
25.0983
28.9202
32.1359
35.0476
37.7919
40.4384
43.0219
45.556
48.0377
50.4485
52.7566
54.9175
56.6915
58.0507
59.0912
59.8509
60.3643
60.6596
60.7763
60.7851
60.7488
60.7207
60.7227
60.7712
60.8669
61.0049
61.1773
61.3754
61.5907
61.8158
62.0446
62.2719
62.494
9.46988
19.7222
25.0044
28.8104
32.0111
34.9076
37.6357
40.2638
42.826
45.335
47.7866
50.1616
52.4277
54.541
56.2683
57.587
58.5937
59.3272
59.8226
60.1092
60.2249
60.237
60.2082
60.1885
60.2018
60.2626
60.3715
60.5234
60.7099
60.9221
61.1515
61.3902
61.632
61.8715
62.1048
9.35571
19.6299
24.8913
28.6785
31.8619
34.7414
37.4516
40.0603
42.6005
45.084
47.5059
49.8464
52.0728
54.1417