/*--------------------------------*- C++ -*----------------------------------*\
  =========                 |
  \\      /  F ield         | OpenFOAM: The Open Source CFD Toolbox
   \\    /   O peration     | Website:  https://openfoam.org
    \\  /    A nd           | Version:  8
     \\/     M anipulation  |
\*---------------------------------------------------------------------------*/
FoamFile
{
    version     2.0;
    format      ascii;
    class       volScalarField;
    location    "0.34";
    object      p;
}
// * * * * * * * * * * * * * * * * * * * * * * * * * * * * * * * * * * * * * //

dimensions      [1 -1 -2 0 0 0 0];

internalField   nonuniform List<scalar> 
15677
(
111834
111844
111837
111842
111838
111838
111835
111831
111825
111810
111775
111722
111654
111586
111531
111496
111470
111451
111441
111436
111431
111426
111420
111414
111410
111408
111406
111405
111405
111405
111406
111407
111409
111410
111412
93421.5
93383.1
93315.2
93240.2
93173.9
93115.8
93062.8
93012.5
92967.2
92962.4
93032.9
93169.4
93337.1
93445.2
93422.5
93334
93258.3
93204.7
93167.3
93143
93105.5
93064.6
93027.8
92994.7
92965.9
92939.9
92918.2
92900.7
92885.5
92872.7
92861.9
92852.8
92844.8
92837.5
92828.9
106427
106424
106416
106395
106351
106281
106186
106071
105953
105862
105814
105802
105843
105868
105832
105794
105847
105954
106129
106346
106564
106751
106885
106982
107051
107094
107115
107122
107120
107114
107103
107092
107081
107069
107058
97019.8
97028.9
97040.7
97051.1
97057.9
97059.9
97055.1
97039.1
97007.5
96971.5
96941.2
96940.2
96948
96959.1
96963.1
96948.5
96950.9
97029.2
97133.5
97223.9
97257.4
97233.8
97172.1
97080.1
96963.6
96838.6
96718
96602.8
96501.3
96418.1
96354.2
96310.9
96288.7
96276.5
96265.8
103447
103455
103464
103476
103489
103504
103522
103542
103561
103578
103592
103593
103593
103591
103566
103513
103461
103423
103433
103507
103586
103632
103663
103688
103705
103716
103726
103736
103747
103764
103786
103810
103836
103867
103904
99777.4
99778.9
99777.2
99772
99761.9
99746.1
99724.1
99696
99662.6
99626.2
99591.9
99566.3
99542.1
99518.1
99494.4
99476.1
99461.6
99461.9
99467.5
99474.5
99484.2
99489.8
99493
99497.3
99504.6
99515.5
99529.6
99539.3
99543.1
99540.8
99536.4
99531
99524.6
99515.6
99508.6
102576
102576
102577
102578
102579
102581
102583
102586
102590
102596
102604
102612
102621
102628
102632
102631
102625
102618
102611
102610
102615
102624
102635
102649
102664
102677
102686
102696
102705
102711
102713
102713
102710
102707
102704
100311
100312
100313
100314
100314
100315
100315
100315
100314
100313
100311
100310
100307
100304
100298
100293
100287
100283
100279
100275
100273
100272
100275
100284
100296
100308
100319
100327
100334
100340
100345
100351
100356
100360
100365
101893
101894
101894
101895
101896
101896
101896
101895
101893
101890
101885
101880
101874
101868
101865
101863
101862
101863
101866
101870
101874
101880
101888
101884
101879
101876
101872
101867
101863
101859
101854
101849
101844
101839
101834
100804
100804
100804
100804
100805
100805
100806
100807
100809
100811
100812
100812
100813
100812
100809
100804
100799
100793
100787
100781
100775
100769
100764
100770
100777
100781
100785
100788
100791
100795
100798
100801
100805
100808
100812
101483
101483
101484
101484
101484
101484
101484
101482
101480
101477
101474
101471
101468
101464
101461
101458
101457
101457
101457
101459
101460
101463
101466
101459
101454
101449
101445
101441
101438
101434
101431
101427
101424
101421
101417
101054
101054
101054
101054
101054
101055
101055
101055
101056
101056
101057
101057
101057
101056
101052
101049
101044
101039
101033
101028
101022
101016
101009
101012
101013
101013
101013
101013
101014
101015
101015
101017
101018
101019
101019
101316
101316
101316
101316
101316
101316
101316
101315
101314
101312
101310
101306
101303
101299
101295
101293
101290
101288
101286
101285
101284
101283
101286
101279
101276
101274
101271
101269
101267
101265
101264
101262
101260
101259
101256
101169
101169
101168
101168
101168
101168
101167
101167
101166
101166
101166
101165
101164
101163
101160
101157
101154
101150
101146
101141
101137
101133
101127
101128
101127
101126
101125
101125
101125
101125
101125
101126
101126
101127
101127
101269
101269
101269
101269
101268
101268
101267
101266
101265
101263
101261
101258
101255
101251
101248
101245
101242
101239
101237
101235
101233
101231
101231
101228
101227
101226
101225
101224
101224
101223
101223
101222
101222
101221
101220
101229
101229
101228
101228
101227
101226
101225
101224
101223
101222
101221
101220
101219
101216
101214
101211
101208
101205
101202
101199
101196
101194
101192
101191
101190
101189
101189
101189
101189
101190
101190
101190
101191
101191
101191
101270
101270
101270
101269
101269
101268
101267
101265
101264
101262
101260
101258
101255
101252
101249
101246
101243
101241
101238
101236
101234
101233
101231
101231
101230
101230
101230
101230
101230
101231
101231
101231
101231
101232
101232
101266
101266
101265
101265
101264
101263
101262
101261
101259
101258
101257
101255
101253
101251
101248
101246
101243
101240
101238
101236
101234
101232
101231
101230
101230
101230
101230
101231
101231
101232
101232
101233
101233
101234
101234
101290
101289
101289
101288
101287
101286
101284
101283
101281
101279
101277
101275
101273
101270
101267
101264
101261
101259
101257
101254
101253
101251
101251
101250
101250
101250
101251
101251
101252
101252
101253
101254
101254
101255
101255
101297
101297
101296
101295
101294
101293
101291
101290
101288
101287
101285
101283
101281
101278
101276
101273
101271
101268
101266
101264
101262
101260
101260
101259
101259
101260
101260
101261
101261
101262
101263
101264
101264
101265
101265
101313
101313
101312
101311
101310
101308
101307
101305
101303
101301
101299
101297
101294
101292
101289
101286
101284
101281
101279
101277
101275
101274
101273
101273
101273
101273
101274
101274
101275
101276
101277
101278
101278
101279
101279
101324
101323
101322
101321
101320
101319
101317
101315
101313
101312
101309
101307
101305
101302
101299
101297
101294
101292
101290
101288
101286
101285
101284
101284
101284
101284
101285
101285
101286
101287
101288
101289
101289
101290
101290
101337
101336
101335
101334
101332
101331
101329
101327
101325
101323
101321
101319
101316
101313
101311
101308
101305
101303
101301
101299
101297
101296
101295
101295
101295
101295
101296
101296
101297
101298
101299
101300
101301
101302
101302
101347
101346
101345
101344
101343
101341
101339
101337
101335
101333
101331
101329
101326
101323
101321
101318
101316
101313
101311
101309
101307
101306
101305
101305
101305
101305
101306
101307
101307
101308
101309
101310
101311
101312
101312
101358
101357
101356
101354
101353
101351
101349
101347
101345
101343
101341
101338
101336
101333
101330
101328
101325
101323
101321
101319
101317
101316
101315
101315
101315
101315
101316
101316
101317
101318
101319
101320
101321
101322
101322
101367
101366
101365
101364
101362
101360
101358
101356
101354
101352
101349
101347
101344
101342
101339
101336
101334
101332
101330
101328
101326
101325
101324
101324
101324
101324
101325
101326
101326
101327
101328
101329
101330
101331
101331
101376
101375
101374
101372
101371
101369
101367
101365
101362
101360
101358
101355
101353
101350
101347
101345
101342
101340
101338
101336
101335
101334
101333
101333
101333
101333
101334
101334
101335
101336
101337
101338
101339
101340
101339
101384
101383
101382
101380
101378
101377
101375
101372
101370
101368
101365
101363
101360
101357
101355
101352
101350
101348
101346
101344
101343
101341
101341
101340
101341
101341
101341
101342
101343
101344
101345
101346
101347
101347
101347
101391
101390
101389
101387
101386
101384
101382
101379
101377
101375
101372
101370
101367
101364
101362
101359
101357
101355
101353
101351
101350
101349
101348
101348
101348
101348
101349
101349
101350
101351
101352
101353
101354
101355
101354
101398
101397
101395
101394
101392
101390
101388
101386
101383
101381
101378
101376
101373
101370
101368
101366
101363
101361
101360
101358
101356
101355
101355
101354
101354
101355
101355
101356
101357
101358
101358
101359
101360
101361
101361
111427
111473
111517
111564
111613
111665
111722
111782
111846
111913
111985
112060
112133
112205
112275
112344
112405
112469
112525
112590
112637
112707
92817.5
92790
92752.9
92710.6
92665.7
92617
92562.9
92502.9
92433.8
92347.6
92237.8
92112
91987.1
91868.9
91763
91684.9
91630
91598.2
91595.5
91617.8
91658.1
91707.4
107036
107018
107006
106994
106975
106952
106935
106927
106925
106919
106903
106877
106853
106846
106860
106890
106957
107059
107191
107344
107508
107670
96279.8
96266.7
96251.4
96242.4
96239.1
96245.3
96260.5
96275.8
96285.5
96283.2
96270.9
96241.2
96198.6
96152.7
96115.4
96105.8
96114.1
96141.4
96194.6
96273.4
96369.1
96477.1
103946
103990
104045
104101
104154
104201
104244
104280
104308
104324
104322
104301
104268
104227
104177
104121
104062
104004
103946
103885
103825
103766
99502.3
99503.4
99500.3
99498.9
99501
99506
99512.9
99521
99530
99539.9
99551.4
99565
99582.4
99604.1
99626.8
99647.8
99667.8
99687.9
99707.7
99726.2
99742.9
99758
102686
102672
102657
102640
102621
102601
102579
102556
102532
102506
102480
102453
102425
102395
102363
102329
102294
102258
102222
102187
102152
102115
100382
100405
100428
100451
100474
100499
100523
100547
100572
100597
100621
100646
100669
100688
100706
100723
100738
100752
100765
100776
100784
100791
101820
101803
101786
101768
101749
101730
101710
101690
101669
101648
101626
101606
101586
101569
101554
101539
101525
101512
101499
101487
101475
101463
100829
100845
100861
100877
100894
100911
100928
100945
100962
100978
100994
101009
101023
101036
101047
101057
101066
101074
101081
101087
101092
101097
101410
101399
101388
101377
101366
101355
101344
101334
101324
101314
101304
101295
101286
101279
101273
101268
101263
101259
101256
101253
101250
101248
101029
101036
101044
101052
101060
101069
101077
101085
101094
101102
101110
101118
101124
101130
101136
101140
101145
101149
101153
101156
101160
101164
101253
101245
101239
101233
101228
101222
101217
101212
101207
101203
101200
101197
101194
101192
101191
101190
101190
101190
101190
101190
101191
101193
101132
101134
101136
101139
101142
101144
101147
101150
101152
101155
101158
101160
101162
101164
101167
101169
101171
101173
101175
101177
101179
101183
101219
101215
101211
101208
101205
101202
101199
101197
101194
101192
101191
101189
101188
101188
101188
101187
101188
101188
101189
101189
101190
101193
101194
101194
101194
101194
101195
101195
101195
101195
101195
101196
101196
101196
101196
101196
101196
101196
101197
101197
101198
101198
101199
101201
101232
101229
101227
101225
101224
101222
101221
101219
101218
101217
101216
101215
101214
101213
101213
101213
101212
101212
101212
101212
101212
101213
101236
101235
101234
101234
101233
101233
101232
101232
101231
101231
101230
101230
101229
101229
101228
101228
101227
101227
101226
101226
101226
101226
101256
101254
101253
101252
101251
101250
101249
101248
101247
101247
101246
101245
101244
101243
101243
101242
101242
101241
101240
101240
101239
101239
101267
101265
101265
101264
101264
101263
101263
101262
101261
101261
101260
101259
101259
101258
101257
101256
101256
101255
101254
101253
101252
101251
101281
101279
101278
101278
101277
101276
101276
101275
101275
101274
101273
101273
101272
101271
101271
101270
101269
101268
101267
101266
101265
101263
101292
101290
101290
101289
101289
101288
101288
101287
101287
101286
101286
101285
101285
101284
101283
101282
101281
101280
101279
101278
101277
101275
101304
101302
101301
101300
101300
101299
101299
101299
101298
101298
101297
101297
101296
101296
101295
101294
101293
101292
101291
101290
101288
101286
101314
101312
101311
101311
101310
101310
101310
101309
101309
101309
101308
101308
101307
101307
101306
101305
101304
101303
101302
101301
101300
101297
101324
101322
101321
101321
101320
101320
101320
101319
101319
101319
101319
101318
101318
101317
101317
101316
101315
101314
101313
101312
101310
101308
101333
101331
101331
101330
101330
101329
101329
101329
101329
101328
101328
101328
101328
101327
101327
101326
101325
101324
101323
101322
101320
101318
101342
101340
101339
101339
101339
101338
101338
101338
101338
101338
101337
101337
101337
101337
101336
101335
101335
101334
101333
101332
101330
101328
101350
101348
101347
101347
101347
101347
101346
101346
101346
101346
101346
101346
101346
101346
101345
101345
101344
101343
101342
101341
101340
101338
101357
101355
101355
101355
101354
101354
101354
101354
101354
101354
101354
101354
101354
101354
101354
101353
101353
101352
101351
101350
101349
101347
101364
101362
101361
101361
101361
101361
101361
101361
101362
101362
101362
101362
101362
101362
101362
101362
101361
101360
101360
101358
101357
101356
112739
112730
112737
112737
112732
112745
91773.5
91858.9
91931.6
91963.1
91936.5
91877.6
107827
107987
108100
108169
108170
108119
96589.6
96707.2
96820.4
96913.6
96976.9
97001.2
103727
103708
103707
103719
103741
103774
99767.4
99753.1
99732.5
99704.7
99673.6
99638.3
102091
102070
102052
102038
102027
102015
100792
100780
100767
100752
100735
100716
101456
101450
101445
101440
101436
101431
101098
101096
101094
101092
101089
101086
101245
101245
101245
101245
101245
101245
101164
101166
101168
101170
101171
101175
101191
101195
101197
101199
101201
101206
101181
101186
101189
101192
101195
101200
101192
101196
101199
101202
101205
101210
101200
101205
101207
101210
101213
101217
101213
101216
101219
101221
101223
101226
101226
101228
101230
101232
101234
101236
101239
101241
101243
101244
101245
101246
101252
101253
101254
101255
101256
101256
101264
101265
101266
101267
101268
101267
101276
101277
101278
101278
101279
101278
101288
101288
101289
101289
101290
101289
101299
101299
101300
101300
101301
101299
101309
101310
101310
101311
101312
101310
101319
101320
101321
101322
101322
101321
101329
101330
101331
101332
101332
101332
101338
101339
101341
101341
101342
101342
101347
101349
101350
101351
101352
101352
101355
101357
101359
101360
101361
101361
112725
112658
112618
112559
112512
112455
112408
112353
112303
112250
112198
112145
112093
112042
111995
111950
111907
111867
111827
111791
111754
111714
91833.5
91807.1
91787.7
91783.6
91802.1
91844.8
91902.3
91975.7
92063.8
92150.6
92231.6
92307.6
92376.3
92436.3
92487.4
92531.4
92569.9
92604.5
92635.8
92664.8
92693.1
92714.4
108066
107998
107929
107864
107803
107751
107714
107674
107635
107608
107586
107553
107512
107467
107419
107369
107321
107275
107230
107185
107140
107099
96982.4
96969.4
96965.1
96949.9
96931.1
96914.4
96883.6
96832.8
96759.2
96683
96615.1
96562.9
96536.6
96537.3
96563
96609.3
96662.9
96718.4
96773.8
96827.5
96876.8
96914.5
103828
103892
103954
104014
104075
104135
104188
104218
104210
104173
104126
104077
104037
104010
103995
103992
103996
104001
104007
104013
104020
104027
99594.6
99532.9
99469.4
99402.7
99332.9
99258.7
99178.9
99096.3
99023.1
98966
98922.7
98891.8
98868.3
98849.3
98832.5
98817.8
98806.4
98796.7
98790
98787.5
98786.4
98783.2
102023
102036
102053
102073
102094
102118
102148
102183
102221
102262
102305
102350
102397
102444
102487
102523
102547
102563
102573
102577
102577
102580
100698
100670
100643
100616
100587
100556
100521
100485
100448
100413
100377
100340
100304
100269
100234
100201
100171
100145
100122
100103
100085
100069
101432
101439
101446
101454
101464
101475
101489
101506
101524
101545
101568
101593
101619
101645
101671
101696
101720
101744
101767
101789
101809
101830
101079
101070
101062
101054
101044
101033
101022
101010
100996
100982
100966
100948
100930
100912
100894
100877
100860
100843
100827
100811
100796
100780
101244
101248
101252
101257
101264
101271
101279
101288
101298
101309
101321
101334
101348
101362
101376
101389
101401
101413
101424
101435
101446
101456
101173
101174
101175
101175
101177
101177
101178
101177
101176
101174
101171
101167
101161
101154
101147
101139
101130
101121
101112
101103
101094
101084
101205
101211
101215
101219
101223
101227
101231
101236
101241
101246
101251
101256
101261
101266
101272
101277
101282
101287
101292
101297
101301
101306
101200
101205
101208
101211
101214
101217
101219
101221
101223
101225
101225
101225
101224
101223
101221
101218
101215
101212
101209
101205
101202
101197
101210
101215
101218
101222
101225
101228
101231
101234
101237
101239
101242
101244
101246
101247
101250
101251
101253
101255
101257
101259
101261
101264
101217
101222
101225
101228
101231
101233
101236
101238
101239
101241
101242
101243
101243
101244
101243
101243
101243
101242
101241
101241
101240
101239
101227
101231
101234
101236
101239
101241
101243
101245
101247
101248
101250
101251
101252
101253
101254
101255
101256
101257
101258
101260
101261
101264
101237
101240
101243
101245
101247
101249
101251
101253
101254
101255
101257
101258
101259
101259
101260
101261
101262
101263
101263
101264
101265
101267
101248
101251
101253
101255
101257
101258
101260
101262
101263
101264
101266
101267
101268
101270
101271
101272
101274
101275
101277
101278
101280
101283
101259
101261
101263
101265
101267
101268
101270
101272
101273
101275
101276
101278
101279
101281
101283
101284
101286
101287
101289
101290
101292
101295
101270
101272
101274
101276
101277
101279
101281
101283
101285
101286
101288
101290
101292
101294
101296
101297
101299
101301
101303
101305
101307
101309
101281
101282
101285
101287
101289
101291
101293
101295
101297
101299
101301
101303
101305
101307
101309
101311
101313
101315
101317
101319
101321
101323
101292
101294
101296
101298
101300
101302
101305
101307
101309
101311
101314
101316
101318
101321
101323
101325
101327
101329
101331
101333
101334
101336
101303
101305
101307
101310
101312
101314
101317
101319
101322
101324
101327
101329
101332
101334
101336
101338
101340
101342
101344
101345
101347
101348
101314
101316
101318
101321
101324
101326
101329
101331
101334
101337
101339
101342
101344
101346
101349
101350
101352
101354
101355
101357
101358
101359
101324
101326
101329
101332
101335
101338
101340
101343
101346
101349
101351
101354
101356
101358
101360
101362
101363
101365
101366
101367
101368
101369
101334
101337
101340
101343
101346
101349
101352
101355
101357
101360
101362
101365
101367
101369
101371
101372
101373
101374
101375
101376
101377
101377
101344
101347
101350
101353
101357
101360
101362
101365
101368
101370
101373
101375
101377
101379
101380
101381
101382
101383
101383
101384
101384
101384
101354
101357
101360
101363
101367
101370
101372
101375
101378
101380
101382
101384
101386
101387
101388
101389
101390
101390
101390
101390
101391
101391
101362
101366
101370
101373
101376
101379
101382
101384
101387
101389
101391
101393
101394
101395
101396
101396
101396
101396
101396
101396
101396
101396
111708
111713
111717
111722
111728
111734
111741
111749
111757
111765
111772
111777
111777
111780
111787
111802
111824
111848
111880
111925
111986
112061
112137
112198
112235
112256
112267
112273
112279
112282
112284
112286
112285
112287
112282
92716.1
92718.3
92719.4
92722
92726.8
92734.5
92746
92762.2
92783.5
92809.6
92840.6
92876.8
92916.9
92973.8
93048.6
93137.6
93225.4
93306.3
93370.9
93402.5
93374.3
93265.6
93079.2
92877.2
92732.2
92695.9
92705.5
92735.2
92773.2
92822.5
92887.9
92968
93054.8
93129.6
93173.7
107072
107039
107004
106965
106920
106870
106815
106756
106696
106635
106573
106508
106438
106350
106253
106145
106028
105903
105783
105692
105637
105568
105476
105435
105471
105528
105649
105784
105906
106004
106073
106115
106136
106145
106148
96937.3
96963.4
96990.8
97018.4
97046.3
97074.1
97100.8
97125.5
97146.4
97164.3
97183
97204
97229.5
97259.6
97293.8
97330.4
97366.7
97394.1
97400.4
97395.5
97382.2
97377.7
97365.6
97350.7
97341.3
97363
97389.7
97412.8
97420.8
97420.2
97415
97406.9
97396.5
97384.9
97376.1
104027
104022
104017
104013
104007
103999
103990
103978
103962
103941
103913
103877
103831
103777
103717
103658
103604
103554
103514
103479
103457
103451
103465
103465
103459
103451
103437
103419
103401
103385
103372
103360
103349
103340
103332
98773.5
98776.8
98780.4
98784.1
98788.7
98795.3
98809.9
98832
98861.8
98898.3
98939
98981.6
99025.5
99071
99117.6
99161.8
99203.6
99244.7
99285.8
99328.1
99373.4
99424.9
99478.4
99527.7
99569.4
99615.4
99666.2
99711
99748.2
99776.6
99796.8
99809.9
99817.3
99820.9
99820.6
102574
102565
102552
102540
102531
102524
102517
102510
102505
102500
102494
102485
102476
102465
102455
102447
102442
102440
102440
102441
102444
102446
102449
102450
102449
102448
102448
102448
102449
102449
102449
102449
102448
102447
102447
100055
100055
100055
100055
100055
100055
100055
100057
100060
100063
100067
100071
100083
100101
100123
100149
100177
100204
100230
100255
100277
100297
100312
100323
100331
100338
100343
100346
100348
100350
100350
100350
100350
100349
100348
101847
101850
101853
101855
101857
101858
101857
101853
101846
101837
101827
101819
101804
101782
101765
101752
101740
101732
101725
101720
101718
101719
101724
101729
101735
101740
101743
101746
101747
101748
101748
101747
101746
101746
101746
100768
100764
100761
100757
100752
100748
100744
100740
100736
100732
100728
100724
100720
100723
100735
100746
100758
100770
100781
100792
100802
100811
100816
100820
100822
100824
100824
100824
100823
100823
100823
100823
100823
100824
100824
101467
101467
101467
101467
101467
101466
101465
101464
101462
101460
101457
101454
101450
101451
101436
101426
101419
101413
101408
101405
101402
101402
101404
101407
101410
101412
101414
101416
101417
101418
101418
101418
101418
101417
101417
101078
101075
101072
101069
101066
101063
101060
101056
101053
101050
101046
101042
101039
101033
101038
101041
101045
101049
101053
101057
101060
101063
101065
101066
101066
101067
101067
101068
101068
101068
101068
101069
101069
101069
101069
101312
101312
101312
101312
101312
101312
101311
101310
101310
101309
101308
101307
101306
101305
101303
101299
101296
101294
101292
101291
101291
101292
101293
101296
101298
101300
101301
101303
101304
101305
101305
101306
101306
101306
101306
101194
101193
101192
101191
101190
101188
101187
101185
101183
101182
101180
101178
101176
101174
101173
101175
101176
101177
101178
101180
101181
101182
101183
101183
101184
101184
101185
101186
101187
101188
101189
101189
101190
101190
101190
101265
101266
101266
101266
101266
101266
101265
101265
101265
101265
101265
101265
101265
101265
101266
101265
101265
101265
101265
101266
101267
101268
101270
101272
101274
101276
101277
101278
101280
101281
101282
101282
101283
101283
101283
101238
101237
101237
101237
101236
101236
101235
101235
101235
101234
101234
101234
101234
101233
101233
101235
101236
101237
101238
101239
101241
101242
101243
101244
101245
101246
101247
101249
101250
101251
101252
101253
101254
101254
101255
101263
101264
101264
101264
101264
101264
101264
101264
101264
101265
101265
101265
101266
101267
101268
101269
101270
101271
101272
101274
101275
101277
101279
101281
101283
101284
101286
101288
101289
101290
101291
101292
101293
101293
101294
101265
101266
101266
101265
101265
101265
101265
101265
101265
101265
101266
101266
101267
101267
101268
101270
101271
101272
101274
101275
101277
101278
101280
101281
101282
101283
101285
101286
101287
101288
101289
101290
101291
101292
101292
101282
101282
101282
101282
101282
101282
101282
101282
101283
101283
101283
101284
101284
101285
101286
101288
101289
101290
101292
101293
101295
101297
101299
101300
101302
101304
101306
101307
101309
101310
101311
101312
101313
101314
101315
101294
101294
101294
101294
101294
101293
101293
101293
101293
101293
101293
101294
101294
101295
101296
101297
101298
101299
101301
101302
101303
101305
101307
101308
101310
101311
101313
101314
101316
101317
101318
101319
101320
101321
101322
101309
101309
101309
101309
101308
101308
101308
101308
101307
101307
101307
101308
101308
101308
101309
101310
101311
101312
101313
101315
101316
101318
101320
101322
101323
101325
101327
101328
101330
101331
101333
101334
101335
101336
101336
101323
101323
101322
101322
101321
101321
101321
101320
101320
101319
101319
101319
101319
101319
101320
101320
101321
101322
101323
101324
101326
101327
101329
101331
101333
101334
101336
101337
101339
101340
101342
101343
101344
101345
101345
101336
101336
101335
101335
101334
101334
101333
101332
101332
101331
101331
101330
101330
101330
101330
101331
101331
101332
101333
101334
101336
101337
101339
101341
101343
101345
101346
101348
101349
101351
101352
101354
101355
101355
101356
101349
101348
101347
101346
101346
101345
101344
101343
101343
101342
101341
101340
101340
101340
101340
101340
101340
101341
101342
101343
101344
101346
101348
101349
101351
101353
101355
101356
101358
101359
101361
101362
101363
101364
101365
101359
101359
101358
101357
101356
101355
101354
101353
101352
101351
101350
101349
101349
101348
101348
101348
101348
101349
101350
101351
101352
101354
101356
101358
101360
101361
101363
101365
101366
101368
101369
101371
101372
101373
101373
101369
101368
101367
101366
101365
101364
101363
101362
101361
101360
101358
101357
101357
101356
101356
101356
101356
101356
101357
101358
101360
101361
101363
101365
101367
101369
101370
101372
101374
101375
101377
101378
101379
101380
101381
101377
101376
101375
101374
101373
101372
101370
101369
101368
101367
101365
101364
101363
101363
101362
101362
101362
101363
101364
101365
101366
101368
101370
101372
101374
101375
101377
101379
101381
101382
101384
101385
101386
101387
101388
101384
101383
101382
101381
101380
101378
101377
101376
101374
101373
101372
101370
101369
101369
101368
101368
101368
101369
101370
101371
101372
101374
101376
101378
101380
101381
101383
101385
101387
101388
101390
101391
101392
101393
101394
101390
101389
101388
101387
101385
101384
101383
101381
101380
101378
101377
101376
101375
101374
101373
101373
101374
101374
101375
101376
101378
101379
101381
101383
101385
101387
101389
101391
101392
101394
101396
101397
101398
101399
101400
101395
101394
101393
101392
101390
101389
101387
101386
101384
101383
101381
101380
101379
101378
101378
101378
101378
101379
101380
101381
101383
101384
101386
101388
101390
101392
101394
101396
101397
101399
101401
101402
101403
101404
101405
101404
101403
101402
101400
101398
101396
101394
101392
101389
101387
101384
101382
101379
101377
101374
101372
101370
101368
101366
101364
101363
101362
101361
101361
101361
101361
101362
101362
101363
101364
101365
101366
101367
101367
101367
101410
101409
101408
101406
101404
101402
101400
101398
101395
101393
101391
101388
101385
101383
101380
101378
101376
101374
101372
101371
101369
101368
101367
101367
101367
101367
101368
101368
101369
101370
101371
101372
101373
101373
101373
101416
101415
101413
101412
101410
101408
101405
101403
101401
101398
101396
101393
101391
101388
101386
101384
101381
101380
101378
101376
101375
101374
101373
101372
101372
101372
101373
101373
101374
101375
101376
101376
101377
101378
101378
101420
101419
101418
101416
101414
101412
101410
101408
101405
101403
101400
101398
101395
101393
101390
101388
101386
101384
101382
101381
101379
101378
101377
101377
101377
101377
101377
101377
101378
101379
101379
101380
101381
101382
101382
101424
101423
101422
101420
101418
101416
101414
101411
101409
101406
101404
101401
101399
101396
101394
101392
101390
101388
101386
101385
101383
101382
101381
101380
101380
101380
101380
101381
101381
101382
101382
101383
101384
101385
101384
101427
101426
101425
101423
101421
101419
101417
101414
101412
101410
101407
101405
101402
101400
101397
101395
101393
101392
101390
101388
101386
101385
101384
101383
101383
101383
101383
101383
101383
101384
101385
101385
101386
101387
101386
101430
101429
101427
101426
101424
101422
101419
101417
101415
101412
101410
101407
101405
101402
101400
101398
101396
101394
101393
101391
101389
101388
101386
101385
101385
101385
101384
101385
101385
101385
101386
101386
101387
101388
101387
101432
101431
101430
101428
101426
101424
101422
101419
101417
101414
101412
101410
101407
101405
101403
101401
101399
101397
101395
101393
101391
101390
101388
101387
101386
101386
101386
101386
101386
101386
101387
101387
101388
101388
101388
101434
101433
101431
101430
101428
101425
101423
101421
101419
101416
101414
101411
101409
101407
101404
101402
101401
101399
101397
101395
101393
101391
101390
101388
101387
101387
101386
101386
101386
101386
101387
101387
101388
101388
101388
101435
101434
101433
101431
101429
101427
101425
101422
101420
101418
101415
101413
101411
101408
101406
101404
101402
101400
101398
101396
101394
101392
101391
101389
101388
101387
101386
101386
101386
101386
101386
101387
101387
101388
101387
101436
101435
101434
101432
101430
101428
101426
101424
101421
101419
101417
101414
101412
101410
101407
101405
101404
101402
101400
101397
101395
101393
101391
101390
101388
101387
101386
101386
101385
101385
101385
101386
101386
101386
101386
101437
101436
101435
101433
101431
101429
101427
101425
101422
101420
101418
101415
101413
101411
101409
101407
101405
101403
101401
101398
101396
101394
101392
101390
101388
101387
101385
101385
101384
101384
101384
101384
101384
101385
101384
101438
101437
101435
101433
101432
101430
101427
101425
101423
101421
101418
101416
101414
101412
101409
101407
101406
101403
101401
101399
101397
101394
101392
101390
101388
101386
101385
101383
101383
101382
101382
101382
101382
101383
101382
101438
101437
101436
101434
101432
101430
101428
101426
101424
101421
101419
101417
101415
101412
101410
101408
101406
101404
101402
101400
101397
101394
101392
101389
101387
101385
101383
101382
101381
101380
101380
101380
101380
101380
101379
101438
101437
101436
101434
101432
101430
101428
101426
101424
101422
101420
101417
101415
101413
101411
101409
101407
101405
101403
101400
101397
101395
101392
101389
101387
101384
101382
101380
101379
101378
101377
101377
101377
101377
101376
101438
101438
101436
101435
101433
101431
101429
101427
101424
101422
101420
101418
101415
101413
101411
101409
101407
101405
101403
101400