/*--------------------------------*- C++ -*----------------------------------*\
  =========                 |
  \\      /  F ield         | OpenFOAM: The Open Source CFD Toolbox
   \\    /   O peration     | Website:  https://openfoam.org
    \\  /    A nd           | Version:  8
     \\/     M anipulation  |
\*---------------------------------------------------------------------------*/
FoamFile
{
    version     2.0;
    format      ascii;
    class       volScalarField;
    location    "0.34";
    object      T;
}
// * * * * * * * * * * * * * * * * * * * * * * * * * * * * * * * * * * * * * //

dimensions      [0 0 0 1 0 0 0];

internalField   nonuniform List<scalar> 
15677
(
297.68
297.682
297.773
297.864
297.962
298.069
298.19
298.323
298.469
298.622
298.765
298.885
298.94
298.908
298.79
298.675
298.588
298.516
298.446
298.39
298.366
298.368
298.382
298.411
298.452
298.492
298.531
298.565
298.591
298.61
298.621
298.627
298.629
298.628
298.626
297.975
298.068
298.092
298.122
298.168
298.24
298.344
298.485
298.673
298.934
299.279
299.642
299.834
299.828
299.629
299.338
299.023
298.747
298.558
298.464
298.426
298.416
298.42
298.431
298.447
298.464
298.479
298.492
298.504
298.516
298.53
298.547
298.57
298.597
298.627
300.073
300.006
299.972
299.945
299.919
299.888
299.847
299.789
299.712
299.621
299.521
299.373
299.115
298.664
298.427
298.372
298.45
298.585
298.725
298.874
299.005
299.107
299.185
299.238
299.267
299.274
299.262
299.233
299.188
299.136
299.078
299.018
298.959
298.903
298.854
299.629
299.566
299.541
299.519
299.499
299.481
299.463
299.448
299.433
299.412
299.356
299.296
299.226
299.188
299.229
299.358
299.536
299.782
300.016
300.18
300.263
300.277
300.266
300.237
300.19
300.127
300.046
299.952
299.85
299.747
299.652
299.568
299.499
299.444
299.403
300.772
300.72
300.666
300.607
300.54
300.466
300.382
300.287
300.184
300.077
299.97
299.868
299.794
299.745
299.677
299.585
299.509
299.493
299.505
299.535
299.604
299.639
299.658
299.664
299.659
299.646
299.628
299.612
299.604
299.603
299.612
299.629
299.652
299.677
299.704
300.607
300.572
300.54
300.509
300.476
300.442
300.407
300.371
300.333
300.296
300.264
300.237
300.214
300.199
300.184
300.189
300.208
300.236
300.26
300.276
300.28
300.273
300.255
300.23
300.201
300.174
300.15
300.13
300.112
300.094
300.073
300.051
300.029
300.009
299.991
300.268
300.267
300.269
300.27
300.269
300.268
300.263
300.257
300.249
300.239
300.23
300.22
300.211
300.202
300.194
300.19
300.19
300.194
300.201
300.208
300.217
300.227
300.236
300.243
300.249
300.251
300.252
300.252
300.251
300.251
300.251
300.251
300.252
300.252
300.251
300.438
300.441
300.441
300.439
300.436
300.432
300.428
300.423
300.416
300.409
300.4
300.391
300.379
300.365
300.351
300.337
300.323
300.31
300.296
300.282
300.268
300.256
300.247
300.241
300.236
300.231
300.224
300.217
300.21
300.202
300.195
300.189
300.183
300.177
300.171
300.271
300.274
300.278
300.283
300.287
300.291
300.295
300.299
300.302
300.305
300.306
300.307
300.306
300.303
300.299
300.294
300.288
300.282
300.275
300.268
300.261
300.254
300.247
300.24
300.234
300.229
300.225
300.22
300.216
300.212
300.209
300.205
300.202
300.198
300.195
300.44
300.436
300.431
300.426
300.421
300.415
300.409
300.403
300.396
300.388
300.38
300.371
300.361
300.35
300.337
300.325
300.312
300.299
300.286
300.272
300.258
300.245
300.233
300.223
300.214
300.205
300.197
300.189
300.182
300.176
300.17
300.165
300.16
300.156
300.153
300.322
300.323
300.325
300.327
300.328
300.33
300.331
300.332
300.332
300.331
300.33
300.327
300.322
300.316
300.309
300.3
300.291
300.281
300.27
300.259
300.247
300.235
300.223
300.213
300.204
300.196
300.188
300.182
300.176
300.171
300.166
300.162
300.158
300.154
300.151
300.404
300.4
300.396
300.392
300.388
300.384
300.38
300.375
300.37
300.365
300.358
300.351
300.343
300.332
300.321
300.31
300.298
300.285
300.272
300.258
300.244
300.231
300.218
300.207
300.196
300.187
300.178
300.171
300.164
300.158
300.152
300.147
300.143
300.139
300.136
300.351
300.351
300.351
300.351
300.35
300.35
300.349
300.348
300.347
300.344
300.341
300.336
300.33
300.322
300.313
300.302
300.291
300.28
300.268
300.255
300.241
300.228
300.216
300.205
300.195
300.186
300.179
300.172
300.165
300.16
300.155
300.15
300.146
300.143
300.14
300.388
300.385
300.382
300.379
300.377
300.374
300.371
300.368
300.364
300.36
300.355
300.348
300.341
300.332
300.321
300.31
300.298
300.286
300.273
300.259
300.246
300.232
300.22
300.209
300.199
300.19
300.182
300.175
300.169
300.163
300.158
300.154
300.15
300.147
300.143
300.372
300.37
300.37
300.369
300.368
300.366
300.365
300.363
300.36
300.357
300.353
300.348
300.342
300.333
300.324
300.313
300.302
300.29
300.277
300.264
300.251
300.239
300.227
300.217
300.208
300.2
300.193
300.186
300.181
300.176
300.171
300.168
300.164
300.161
300.158
300.391
300.388
300.387
300.385
300.383
300.382
300.38
300.377
300.374
300.371
300.366
300.36
300.353
300.344
300.333
300.322
300.31
300.298
300.285
300.273
300.26
300.248
300.237
300.227
300.219
300.211
300.205
300.199
300.194
300.19
300.186
300.183
300.18
300.178
300.175
300.389
300.388
300.387
300.386
300.385
300.384
300.383
300.381
300.379
300.375
300.371
300.366
300.359
300.351
300.341
300.33
300.318
300.306
300.294
300.282
300.27
300.258
300.248
300.239
300.231
300.225
300.219
300.214
300.21
300.207
300.204
300.201
300.199
300.197
300.195
300.403
300.401
300.399
300.397
300.395
300.393
300.391
300.389
300.386
300.383
300.379
300.374
300.367
300.359
300.349
300.339
300.328
300.316
300.304
300.292
300.28
300.269
300.26
300.251
300.244
300.238
300.233
300.229
300.225
300.222
300.22
300.218
300.216
300.215
300.214
300.408
300.406
300.405
300.404
300.403
300.401
300.4
300.398
300.395
300.392
300.388
300.383
300.376
300.368
300.359
300.348
300.338
300.326
300.315
300.303
300.291
300.281
300.271
300.264
300.257
300.252
300.247
300.243
300.24
300.238
300.236
300.234
300.233
300.232
300.231
300.416
300.414
300.413
300.412
300.411
300.409
300.408
300.406
300.403
300.4
300.396
300.392
300.386
300.378
300.368
300.358
300.348
300.337
300.325
300.314
300.303
300.292
300.284
300.276
300.27
300.265
300.26
300.257
300.254
300.252
300.25
300.249
300.248
300.247
300.246
300.425
300.423
300.422
300.42
300.419
300.418
300.416
300.414
300.412
300.409
300.405
300.401
300.395
300.387
300.378
300.368
300.358
300.347
300.336
300.325
300.315
300.304
300.296
300.289
300.283
300.278
300.274
300.271
300.268
300.266
300.264
300.263
300.262
300.261
300.261
300.432
300.43
300.429
300.428
300.427
300.425
300.424
300.422
300.42
300.417
300.414
300.409
300.403
300.396
300.387
300.378
300.368
300.358
300.347
300.337
300.326
300.316
300.308
300.301
300.296
300.291
300.287
300.284
300.282
300.28
300.278
300.277
300.276
300.275
300.275
300.44
300.438
300.437
300.436
300.434
300.433
300.432
300.43
300.428
300.425
300.422
300.417
300.412
300.405
300.397
300.388
300.378
300.368
300.358
300.348
300.338
300.328
300.32
300.314
300.308
300.304
300.3
300.297
300.295
300.293
300.292
300.291
300.29
300.289
300.289
300.446
300.445
300.444
300.443
300.441
300.44
300.439
300.437
300.435
300.433
300.429
300.425
300.42
300.413
300.405
300.397
300.388
300.378
300.369
300.359
300.349
300.34
300.333
300.326
300.321
300.317
300.313
300.311
300.309
300.307
300.306
300.304
300.304
300.303
300.303
300.453
300.451
300.45
300.449
300.448
300.447
300.446
300.444
300.442
300.44
300.437
300.433
300.428
300.421
300.414
300.406
300.397
300.388
300.379
300.369
300.36
300.351
300.344
300.338
300.333
300.329
300.326
300.324
300.322
300.32
300.319
300.318
300.317
300.317
300.316
300.459
300.458
300.457
300.456
300.455
300.453
300.452
300.451
300.449
300.446
300.443
300.44
300.435
300.429
300.421
300.414
300.406
300.397
300.388
300.379
300.37
300.362
300.356
300.35
300.345
300.342
300.339
300.336
300.335
300.333
300.332
300.331
300.331
300.33
300.33
300.465
300.463
300.462
300.461
300.46
300.459
300.458
300.457
300.455
300.452
300.45
300.446
300.441
300.436
300.429
300.421
300.414
300.405
300.397
300.388
300.38
300.373
300.366
300.361
300.357
300.353
300.351
300.348
300.347
300.346
300.345
300.344
300.343
300.343
300.342
300.47
300.469
300.468
300.467
300.466
300.465
300.464
300.462
300.46
300.458
300.455
300.452
300.448
300.442
300.435
300.429
300.421
300.413
300.405
300.397
300.389
300.382
300.376
300.371
300.367
300.364
300.361
300.36
300.358
300.357
300.356
300.355
300.355
300.355
300.354
300.475
300.474
300.473
300.472
300.471
300.47
300.469
300.467
300.466
300.463
300.461
300.458
300.453
300.448
300.442
300.435
300.428
300.42
300.413
300.405
300.398
300.391
300.385
300.38
300.377
300.374
300.371
300.37
300.368
300.367
300.367
300.366
300.366
300.365
300.365
300.479
300.478
300.477
300.476
300.475
300.474
300.473
300.472
300.47
300.468
300.466
300.463
300.459
300.453
300.447
300.441
300.434
300.427
300.42
300.412
300.405
300.399
300.393
300.389
300.385
300.383
300.38
300.379
300.378
300.377
300.376
300.375
300.375
300.375
300.375
298.625
298.624
298.622
298.619
298.612
298.601
298.587
298.572
298.557
298.541
298.523
298.494
298.444
298.383
298.308
298.226
298.181
298.159
298.113
297.936
297.555
297.168
298.667
298.725
298.793
298.871
298.957
299.049
299.143
299.232
299.307
299.355
299.36
299.306
299.181
298.984
298.762
298.563
298.403
298.275
298.161
298.042
297.904
297.731
298.794
298.728
298.672
298.632
298.611
298.613
298.639
298.7
298.792
298.908
299.051
299.181
299.29
299.381
299.464
299.551
299.638
299.713
299.766
299.787
299.782
299.749
299.357
299.312
299.282
299.265
299.263
299.273
299.289
299.299
299.29
299.257
299.213
299.166
299.126
299.105
299.107
299.115
299.11
299.092
299.061
299.023
298.99
298.97
299.737
299.779
299.825
299.871
299.912
299.947
299.974
299.99
299.997
299.995
299.994
300.012
300.057
300.118
300.172
300.213
300.245
300.269
300.283
300.287
300.284
300.272
299.966
299.937
299.914
299.894
299.876
299.86
299.844
299.829
299.817
299.809
299.807
299.814
299.83
299.853
299.877
299.901
299.92
299.935
299.942
299.942
299.933
299.916
300.247
300.238
300.225
300.21
300.196
300.183
300.171
300.161
300.152
300.144
300.138
300.136
300.138
300.144
300.154
300.167
300.182
300.198
300.211
300.221
300.226
300.224
300.164
300.156
300.146
300.134
300.122
300.11
300.097
300.084
300.07
300.058
300.046
300.036
300.03
300.026
300.026
300.03
300.035
300.042
300.05
300.056
300.061
300.062
300.192
300.188
300.182
300.177
300.171
300.164
300.156
300.148
300.139
300.13
300.121
300.112
300.105
300.099
300.096
300.094
300.095
300.097
300.101
300.106
300.111
300.115
300.149
300.144
300.14
300.135
300.13
300.125
300.12
300.114
300.107
300.101
300.094
300.087
300.08
300.075
300.07
300.067
300.066
300.065
300.066
300.067
300.069
300.071
300.148
300.144
300.14
300.136
300.132
300.128
300.124
300.12
300.116
300.111
300.106
300.102
300.097
300.093
300.089
300.086
300.083
300.082
300.081
300.082
300.082
300.084
300.132
300.128
300.124
300.12
300.116
300.112
300.108
300.104
300.101
300.097
300.094
300.09
300.087
300.084
300.082
300.079
300.078
300.076
300.076
300.076
300.076
300.077
300.136
300.131
300.127
300.122
300.118
300.114
300.11
300.107
300.103
300.1
300.096
300.093
300.09
300.088
300.086
300.084
300.082
300.081
300.079
300.078
300.078
300.078
300.139
300.134
300.129
300.125
300.12
300.116
300.111
300.107
300.103
300.1
300.096
300.093
300.091
300.088
300.086
300.085
300.083
300.082
300.081
300.08
300.079
300.079
300.154
300.149
300.143
300.138
300.132
300.127
300.122
300.117
300.113
300.108
300.104
300.1
300.097
300.094
300.092
300.09
300.088
300.086
300.085
300.083
300.082
300.082
300.172
300.166
300.161
300.156
300.151
300.145
300.14
300.135
300.13
300.125
300.12
300.115
300.111
300.107
300.104
300.101
300.098
300.096
300.094
300.092
300.09
300.089
300.192
300.188
300.183
300.178
300.173
300.168
300.163
300.158
300.154
300.149
300.144
300.139
300.134
300.13
300.126
300.122
300.118
300.115
300.112
300.109
300.106
300.104
300.211
300.207
300.203
300.199
300.195
300.191
300.186
300.182
300.178
300.173
300.169
300.164
300.16
300.156
300.152
300.148
300.144
300.14
300.136
300.133
300.129
300.126
300.228
300.225
300.222
300.218
300.215
300.212
300.208
300.205
300.201
300.198
300.194
300.19
300.187
300.183
300.179
300.175
300.171
300.167
300.163
300.16
300.156
300.152
300.244
300.241
300.238
300.235
300.232
300.23
300.227
300.224
300.222
300.219
300.216
300.214
300.211
300.208
300.205
300.201
300.198
300.195
300.191
300.187
300.184
300.18
300.259
300.256
300.253
300.25
300.248
300.246
300.243
300.241
300.24
300.238
300.236
300.234
300.232
300.23
300.228
300.225
300.223
300.22
300.217
300.214
300.211
300.207
300.273
300.27
300.267
300.265
300.262
300.26
300.258
300.257
300.255
300.254
300.253
300.251
300.25
300.249
300.248
300.247
300.245
300.243
300.241
300.239
300.236
300.233
300.287
300.284
300.281
300.278
300.276
300.274
300.272
300.27
300.269
300.268
300.267
300.267
300.266
300.266
300.265
300.265
300.264
300.263
300.262
300.26
300.258
300.256
300.301
300.297
300.294
300.292
300.289
300.287
300.285
300.283
300.282
300.281
300.28
300.28
300.28
300.28
300.28
300.28
300.28
300.279
300.279
300.278
300.277
300.276
300.314
300.311
300.308
300.305
300.302
300.3
300.297
300.296
300.294
300.293
300.292
300.292
300.292
300.292
300.293
300.293
300.293
300.294
300.294
300.294
300.293
300.292
300.328
300.324
300.321
300.318
300.315
300.312
300.31
300.308
300.306
300.305
300.304
300.304
300.303
300.304
300.304
300.305
300.305
300.306
300.306
300.306
300.307
300.306
300.341
300.337
300.334
300.331
300.328
300.325
300.323
300.32
300.318
300.317
300.316
300.315
300.314
300.314
300.315
300.315
300.316
300.316
300.317
300.318
300.318
300.318
300.353
300.349
300.346
300.343
300.34
300.337
300.335
300.332
300.33
300.328
300.327
300.326
300.325
300.325
300.325
300.325
300.326
300.326
300.327
300.328
300.328
300.329
300.363
300.36
300.357
300.354
300.352
300.349
300.346
300.344
300.342
300.34
300.338
300.337
300.336
300.335
300.335
300.335
300.335
300.336
300.336
300.337
300.337
300.338
300.373
300.37
300.367
300.365
300.362
300.359
300.357
300.355
300.352
300.35
300.349
300.347
300.346
300.345
300.345
300.345
300.345
300.345
300.345
300.345
300.346
300.346
296.858
296.648
296.568
296.605
296.864
297.142
297.53
297.37
297.349
297.414
297.592
297.686
299.705
299.699
299.802
299.977
300.064
300.08
298.968
299.014
299.085
299.162
299.22
299.27
300.255
300.23
300.197
300.158
300.122
300.095
299.891
299.858
299.822
299.788
299.76
299.741
300.216
300.2
300.179
300.158
300.139
300.126
300.059
300.051
300.038
300.025
300.011
300.001
300.118
300.12
300.12
300.119
300.117
300.115
300.072
300.073
300.073
300.073
300.072
300.071
300.086
300.088
300.09
300.092
300.093
300.095
300.078
300.08
300.081
300.083
300.085
300.086
300.078
300.079
300.08
300.081
300.082
300.084
300.079
300.079
300.08
300.081
300.082
300.083
300.082
300.082
300.083
300.083
300.084
300.085
300.088
300.089
300.089
300.09
300.091
300.092
300.103
300.103
300.104
300.105
300.106
300.107
300.125
300.125
300.126
300.127
300.128
300.129
300.151
300.151
300.152
300.153
300.154
300.155
300.179
300.179
300.18
300.181
300.182
300.184
300.206
300.207
300.209
300.21
300.211
300.213
300.232
300.234
300.236
300.237
300.239
300.24
300.256
300.258
300.26
300.262
300.264
300.266
300.276
300.279
300.281
300.283
300.286
300.288
300.293
300.296
300.299
300.302
300.304
300.307
300.308
300.311
300.314
300.317
300.32
300.323
300.32
300.324
300.327
300.33
300.333
300.336
300.331
300.334
300.338
300.341
300.344
300.347
300.34
300.344
300.347
300.351
300.354
300.357
300.348
300.352
300.356
300.359
300.362
300.365
297.343
297.485
297.594
297.69
297.779
297.85
297.887
297.882
297.837
297.772
297.717
297.731
297.803
297.896
297.982
298.063
298.136
298.202
298.26
298.31
298.358
298.391
297.726
297.765
297.808
297.855
297.879
297.868
297.823
297.781
297.744
297.735
297.742
297.81
297.922
298.039
298.142
298.225
298.292
298.35
298.393
298.42
298.438
298.445
300.083
300.083
300.068
300.025
299.946
299.831
299.682
299.503
299.312
299.145
299.039
299.011
299.061
299.161
299.282
299.399
299.497
299.573
299.63
299.67
299.696
299.712
299.321
299.375
299.432
299.482
299.508
299.492
299.43
299.339
299.245
299.16
299.112
299.101
299.125
299.169
299.219
299.273
299.326
299.377
299.423
299.464
299.497
299.525
300.084
300.081
300.083
300.081
300.073
300.055
300.027
299.99
299.969
299.971
299.996
300.013
300.016
300.006
299.985
299.958
299.926
299.891
299.859
299.833
299.815
299.802
299.734
299.734
299.738
299.744
299.75
299.754
299.755
299.755
299.757
299.765
299.777
299.791
299.803
299.813
299.82
299.827
299.829
299.825
299.819
299.812
299.806
299.802
300.12
300.12
300.123
300.128
300.131
300.133
300.13
300.124
300.115
300.105
300.094
300.083
300.073
300.061
300.048
300.032
300.017
300.005
299.995
299.987
299.981
299.978
299.995
299.993
299.993
299.994
299.995
299.995
299.992
299.988
299.981
299.974
299.966
299.957
299.949
299.942
299.936
299.931
299.928
299.928
299.929
299.933
299.94
299.948
300.113
300.114
300.116
300.117
300.119
300.12
300.12
300.119
300.117
300.113
300.108
300.101
300.095
300.089
300.084
300.08
300.077
300.076
300.076
300.078
300.081
300.085
300.07
300.069
300.069
300.069
300.069
300.068
300.066
300.064
300.06
300.056
300.051
300.045
300.04
300.036
300.033
300.031
300.031
300.032
300.035
300.039
300.045
300.051
300.095
300.096
300.096
300.097
300.097
300.097
300.097
300.096
300.094
300.092
300.09
300.088
300.086
300.085
300.084
300.086
300.088
300.092
300.097
300.102
300.108
300.115
300.086
300.086
300.086
300.086
300.085
300.084
300.083
300.082
300.08
300.078
300.076
300.074
300.074
300.074
300.075
300.078
300.082
300.087
300.093
300.099
300.106
300.113
300.085
300.086
300.087
300.088
300.089
300.09
300.09
300.09
300.09
300.09
300.091
300.092
300.094
300.097
300.101
300.106
300.112
300.118
300.125
300.131
300.138
300.145
300.084
300.085
300.086
300.087
300.089
300.09
300.091
300.093
300.095
300.097
300.1
300.104
300.108
300.113
300.119
300.125
300.131
300.138
300.145
300.151
300.158
300.164
300.086
300.088
300.089
300.091
300.093
300.096
300.099
300.102
300.107
300.112
300.117
300.124
300.131
300.138
300.146
300.153
300.161
300.169
300.176
300.183
300.19
300.197
300.093
300.096
300.099
300.102
300.106
300.11
300.115
300.121
300.127
300.133
300.14
300.148
300.156
300.164
300.172
300.179
300.187
300.194
300.201
300.208
300.215
300.221
300.109
300.113
300.117
300.122
300.127
300.133
300.139
300.145
300.152
300.159
300.167
300.175
300.184
300.192
300.2
300.207
300.215
300.222
300.229
300.235
300.241
300.246
300.132
300.137
300.142
300.147
300.153
300.16
300.166
300.173
300.181
300.189
300.197
300.205
300.213
300.221
300.229
300.236
300.243
300.249
300.255
300.261
300.266
300.271
300.159
300.164
300.17
300.176
300.183
300.189
300.196
300.204
300.211
300.219
300.227
300.235
300.243
300.251
300.258
300.264
300.27
300.276
300.281
300.286
300.29
300.294
300.187
300.193
300.2
300.206
300.213
300.22
300.227
300.235
300.242
300.25
300.257
300.265
300.272
300.279
300.285
300.29
300.296
300.3
300.305
300.309
300.312
300.315
300.217
300.223
300.229
300.236
300.243
300.25
300.257
300.264
300.271
300.278
300.285
300.292
300.298
300.304
300.309
300.314
300.318
300.322
300.325
300.328
300.331
300.333
300.244
300.251
300.257
300.264
300.271
300.277
300.284
300.291
300.297
300.303
300.31
300.316
300.321
300.326
300.33
300.334
300.337
300.34
300.342
300.344
300.346
300.348
300.27
300.276
300.282
300.289
300.295
300.302
300.308
300.314
300.32
300.325
300.331
300.336
300.34
300.344
300.348
300.35
300.353
300.355
300.356
300.358
300.359
300.359
300.292
300.298
300.304
300.31
300.316
300.322
300.328
300.333
300.339
300.343
300.348
300.352
300.356
300.359
300.362
300.364
300.365
300.367
300.368
300.368
300.369
300.369
300.311
300.317
300.323
300.328
300.334
300.339
300.344
300.349
300.354
300.358
300.362
300.366
300.369
300.371
300.373
300.374
300.375
300.376
300.376
300.377
300.377
300.377
300.327
300.332
300.338
300.343
300.348
300.353
300.358
300.363
300.367
300.37
300.374
300.377
300.379
300.381
300.382
300.383
300.383
300.383
300.383
300.383
300.383
300.383
300.34
300.345
300.35
300.356
300.36
300.365
300.369
300.373
300.377
300.38
300.383
300.386
300.387
300.389
300.389
300.39
300.39
300.389
300.389
300.389
300.389
300.388
300.351
300.356
300.361
300.366
300.371
300.375
300.379
300.383
300.386
300.389
300.391
300.393
300.394
300.395
300.395
300.395
300.395
300.394
300.394
300.394
300.393
300.393
300.361
300.366
300.37
300.375
300.379
300.383
300.387
300.39
300.393
300.396
300.398
300.399
300.4
300.4
300.4
300.4
300.399
300.399
300.398
300.398
300.398
300.398
300.369
300.374
300.378
300.383
300.387
300.391
300.394
300.397
300.4
300.402
300.403
300.404
300.404
300.404
300.404
300.404
300.403
300.403
300.402
300.402
300.402
300.402
298.417
298.429
298.437
298.443
298.449
298.453
298.46
298.471
298.488
298.511
298.541
298.575
298.607
298.635
298.655
298.676
298.718
298.791
298.886
298.97
299.018
299.016
298.951
298.84
298.72
298.595
298.473
298.355
298.242
298.136
298.037
297.945
297.857
297.764
297.695
298.442
298.435
298.428
298.421
298.417
298.415
298.415
298.418
298.426
298.439
298.461
298.498
298.561
298.673
298.832
299.027
299.228
299.422
299.597
299.731
299.812
299.783
299.599
299.211
298.782
298.461
298.236
298.079
297.969
297.895
297.852
297.834
297.835
297.845
297.818
299.713
299.708
299.697
299.678
299.651
299.613
299.563
299.498
299.417
299.319
299.202
299.063
298.914
298.792
298.712
298.667
298.648
298.642
298.644
298.664
298.733
298.912
299.153
299.304
299.417
299.534
299.654
299.744
299.804
299.842
299.864
299.88
299.899
299.932
300.01
299.544
299.556
299.568
299.581
299.593
299.606
299.618
299.63
299.643
299.658
299.676
299.695
299.716
299.743
299.781
299.821
299.851
299.863
299.834
299.77
299.679
299.586
299.488
299.435
299.42
299.417
299.423
299.434
299.451
299.469
299.486
299.504
299.525
299.552
299.624
299.796
299.793
299.791
299.79
299.791
299.791
299.792
299.793
299.795
299.796
299.795
299.789
299.774
299.749
299.721
299.696
299.677
299.664
299.652
299.651
299.666
299.704
299.767
299.853
299.95
300.051
300.154
300.251
300.338
300.416
300.485
300.545
300.599
300.647
300.694
299.802
299.803
299.807
299.816
299.83
299.851
299.879
299.913
299.948
299.982
300.012
300.037
300.06
300.08
300.1
300.118
300.134
300.148
300.159
300.167
300.172
300.177
300.186
300.208
300.234
300.266
300.303
300.342
300.381
300.418
300.453
300.484
300.512
300.537
300.561
299.976
299.974
299.972
299.972
299.973
299.977
299.984
299.994
300.007
300.021
300.035
300.046
300.057
300.067
300.076
300.085
300.092
300.098
300.105
300.111
300.12
300.131
300.144
300.156
300.167
300.177
300.187
300.195
300.201
300.206
300.21
300.211
300.212
300.213
300.214
299.956
299.962
299.969
299.978
299.988
300
300.014
300.03
300.046
300.063
300.08
300.099
300.119
300.139
300.16
300.18
300.2
300.219
300.237
300.255
300.273
300.292
300.31
300.326
300.34
300.352
300.363
300.373
300.382
300.39
300.397
300.403
300.409
300.413
300.415
300.088
300.09
300.093
300.096
300.1
300.104
300.108
300.113
300.118
300.124
300.13
300.138
300.147
300.158
300.168
300.178
300.187
300.197
300.207
300.216
300.225
300.232
300.239
300.243
300.245
300.246
300.245
300.244
300.241
300.238
300.235
300.232
300.228
300.224
300.222
300.056
300.061
300.066
300.071
300.078
300.086
300.095
300.105
300.116
300.128
300.14
300.152
300.166
300.179
300.193
300.207
300.221
300.234
300.248
300.261
300.275
300.288
300.3
300.311
300.321
300.329
300.337
300.345
300.351
300.358
300.364
300.37
300.376
300.382
300.388
300.12
300.123
300.127
300.131
300.136
300.141
300.146
300.152
300.159
300.166
300.173
300.181
300.188
300.197
300.206
300.215
300.224
300.233
300.242
300.251
300.26
300.269
300.276
300.282
300.286
300.288
300.29
300.291
300.292
300.292
300.291
300.29
300.289
300.288
300.288
300.118
300.121
300.126
300.13
300.135
300.141
300.147
300.154
300.162
300.17
300.179
300.188
300.198
300.209
300.22
300.231
300.242
300.253
300.264
300.274
300.285
300.295
300.305
300.313
300.321
300.327
300.333
300.338
300.343
300.348
300.352
300.357
300.361
300.366
300.371
300.15
300.154
300.157
300.161
300.165
300.17
300.175
300.181
300.187
300.194
300.201
300.208
300.216
300.225
300.234
300.243
300.252
300.261
300.27
300.279
300.288
300.297
300.305
300.311
300.317
300.321
300.324
300.327
300.329
300.33
300.332
300.332
300.333
300.333
300.335
300.169
300.172
300.175
300.178
300.182
300.186
300.191
300.196
300.202
300.208
300.215
300.223
300.23
300.239
300.248
300.257
300.267
300.277
300.287
300.297
300.307
300.317
300.326
300.333
300.34
300.345
300.349
300.353
300.356
300.359
300.362
300.365
300.368
300.371
300.375
300.201
300.203
300.206
300.209
300.212
300.215
300.218
300.222
300.226
300.231
300.236
300.242
300.248
300.255
300.263
300.271
300.279
300.288
300.297
300.307
300.316
300.325
300.334
300.34
300.346
300.35
300.353
300.356
300.358
300.36
300.361
300.363
300.364
300.365
300.368
300.224
300.227
300.229
300.231
300.233
300.236
300.239
300.242
300.246
300.249
300.254
300.258
300.264
300.27
300.277
300.284
300.292
300.301
300.31
300.319
300.329
300.338
300.347
300.354
300.36
300.365
300.37
300.373
300.376
300.379
300.381
300.384
300.386
300.388
300.391
300.25
300.252
300.253
300.255
300.257
300.259
300.261
300.263
300.266
300.269
300.272
300.275
300.279
300.284
300.29
300.297
300.305
300.313
300.321
300.331
300.34
300.349
300.357
300.364
300.37
300.374
300.378
300.381
300.383
300.385
300.387
300.388
300.389
300.39
300.393
300.274
300.275
300.276
300.277
300.279
300.28
300.281
300.283
300.284
300.286
300.288
300.29
300.294
300.298
300.303
300.309
300.316
300.324
300.333
300.342
300.35
300.359
300.368
300.374
300.38
300.384
300.388
300.391
300.394
300.396
300.398
300.4
300.402
300.405
300.408
300.297
300.297
300.298
300.298
300.299
300.299
300.3
300.301
300.301
300.302
300.303
300.305
300.307
300.311
300.315
300.321
300.328
300.336
300.344
300.353
300.361
300.37
300.378
300.385
300.39
300.394
300.398
300.401
300.403
300.405
300.407
300.409
300.41
300.412
300.414
300.317
300.317
300.317
300.317
300.317
300.317
300.317
300.317
300.317
300.317
300.317
300.318
300.32
300.323
300.327
300.333
300.339
300.347
300.355
300.364
300.372
300.38
300.388
300.394
300.399
300.404
300.407
300.41
300.412
300.414
300.416
300.417
300.419
300.421
300.423
300.334
300.333
300.333
300.333
300.332
300.332
300.331
300.33
300.33
300.33
300.33
300.33
300.332
300.334
300.338
300.344
300.35
300.358
300.366
300.374
300.382
300.39
300.398
300.404
300.409
300.413
300.416
300.419
300.421
300.423
300.424
300.426
300.427
300.429
300.431
300.348
300.347
300.347
300.346
300.345
300.344
300.343
300.342
300.341
300.341
300.341
300.341
300.342
300.345
300.349
300.354
300.361
300.368
300.376
300.384
300.392
300.4
300.407
300.413
300.417
300.421
300.424
300.426
300.429
300.43
300.432
300.433
300.435
300.436
300.438
300.359
300.358
300.358
300.357
300.356
300.354
300.353
300.352
300.351
300.35
300.35
300.351
300.352
300.354
300.359
300.364
300.371
300.378
300.386
300.393
300.401
300.409
300.415
300.421
300.425
300.429
300.432
300.434
300.436
300.438
300.439
300.441
300.442
300.443
300.445
300.368
300.368
300.367
300.365
300.364
300.363
300.362
300.361
300.36
300.359
300.359
300.359
300.361
300.364
300.368
300.373
300.38
300.387
300.395
300.402
300.41
300.417
300.423
300.428
300.432
300.436
300.438
300.441
300.443
300.444
300.446
300.447
300.448
300.449
300.451
300.376
300.375
300.374
300.373
300.372
300.37
300.369
300.368
300.367
300.367
300.367
300.368
300.369
300.372
300.377
300.382
300.389
300.396
300.403
300.41
300.417
300.424
300.43
300.435
300.439
300.442
300.445
300.447
300.449
300.45
300.452
300.453
300.454
300.455
300.457
300.382
300.381
300.38
300.379
300.378
300.377
300.376
300.375
300.374
300.374
300.374
300.375
300.377
300.38
300.385
300.391
300.397
300.404
300.411
300.418
300.425
300.431
300.437
300.441
300.445
300.448
300.451
300.453
300.454
300.456
300.457
300.458
300.459
300.461
300.462
300.388
300.387
300.386
300.385
300.384
300.383
300.382
300.381
300.381
300.381
300.381
300.382
300.385
300.388
300.393
300.399
300.405
300.412
300.418
300.425
300.431
300.437
300.443
300.447
300.451
300.454
300.456
300.458
300.46
300.461
300.462
300.463
300.464
300.466
300.467
300.393
300.392
300.391
300.39
300.389
300.388
300.388
300.387
300.387
300.387
300.388
300.389
300.392
300.395
300.4
300.406
300.412
300.419
300.425
300.431
300.437
300.443
300.448
300.453
300.456
300.459
300.461
300.463
300.464
300.466
300.467
300.468
300.469
300.47
300.471
300.397
300.397
300.396
300.395
300.394
300.394
300.393
300.393
300.393
300.393
300.394
300.396
300.399
300.402
300.407
300.413
300.419
300.425
300.431
300.437
300.443
300.449
300.453
300.457
300.461
300.463
300.465
300.467
300.469
300.47
300.471
300.472
300.473
300.474
300.475
300.402
300.401
300.401
300.4
300.399
300.399
300.398
300.398
300.398
300.399
300.4
300.402
300.405
300.409
300.413
300.419
300.425
300.431
300.437
300.442
300.448
300.453
300.458
300.462
300.465
300.467
300.469
300.471
300.473
300.474
300.475
300.476
300.477
300.478
300.479
300.484
300.483
300.482
300.481
300.48
300.479
300.478
300.477
300.475
300.473
300.471
300.468
300.464
300.459
300.453
300.447
300.441
300.434
300.427
300.42
300.413
300.407
300.402
300.397
300.394
300.391
300.389
300.388
300.386
300.386
300.385
300.384
300.384
300.384
300.384
300.488
300.487
300.486
300.486
300.485
300.484
300.483
300.481
300.48
300.478
300.476
300.473
300.469
300.465
300.459
300.453
300.447
300.441
300.434
300.427
300.421
300.415
300.409
300.405
300.402
300.399
300.397
300.396
300.395
300.394
300.393
300.393
300.392
300.392
300.392
300.492
300.491
300.49
300.49
300.489
300.488
300.487
300.486
300.484
300.483
300.48
300.478
300.474
300.47
300.465
300.459
300.453
300.447
300.44
300.434
300.427
300.421
300.416
300.412
300.409
300.406
300.404
300.403
300.401
300.4
300.4
300.399
300.399
300.398
300.398
300.495
300.495
300.494
300.493
300.493
300.492
300.491
300.49
300.488
300.487
300.485