/*--------------------------------*- C++ -*----------------------------------*\
  =========                 |
  \\      /  F ield         | OpenFOAM: The Open Source CFD Toolbox
   \\    /   O peration     | Website:  https://openfoam.org
    \\  /    A nd           | Version:  8
     \\/     M anipulation  |
\*---------------------------------------------------------------------------*/
FoamFile
{
    version     2.0;
    format      ascii;
    class       volVectorField;
    location    "0.28";
    object      U;
}
// * * * * * * * * * * * * * * * * * * * * * * * * * * * * * * * * * * * * * //

dimensions      [0 1 -1 0 0 0 0];

internalField   nonuniform List<vector> 
15677
(
(-0.0399049 9.66592 0)
(0.0485062 9.92197 0)
(-0.00180519 9.37797 0)
(0.0206695 9.97699 0)
(0.0199139 9.78839 0)
(0.00732698 9.14048 0)
(0.0258595 9.99513 0)
(0.0165786 9.92443 0)
(0.0112095 9.65325 0)
(0.00651136 8.95935 0)
(0.026359 10.0025 0)
(0.0206097 9.97848 0)
(0.0166067 9.85134 0)
(0.00916541 9.52951 0)
(0.00518366 8.815 0)
(0.025606 10.0057 0)
(0.0216633 10.0028 0)
(0.0194918 9.94085 0)
(0.0154418 9.77825 0)
(0.00803054 9.41783 0)
(0.00426909 8.69957 0)
(0.0245516 10.0071 0)
(0.0219661 10.0145 0)
(0.0211187 9.98413 0)
(0.0183687 9.9012 0)
(0.0139503 9.70613 0)
(0.00698496 9.31875 0)
(0.00357889 8.60649 0)
(0.0231416 10.0075 0)
(0.0218713 10.0204 0)
(0.0220222 10.0062 0)
(0.0203597 9.96375 0)
(0.017106 9.85998 0)
(0.0125559 9.63803 0)
(0.00604049 9.23269 0)
(0.00300087 8.53146 0)
(0.0214579 10.0074 0)
(0.0213555 10.0232 0)
(0.0223518 10.0178 0)
(0.0215005 9.99686 0)
(0.0192533 9.94178 0)
(0.0157801 9.81952 0)
(0.0112151 9.57595 0)
(0.00516456 9.15939 0)
(0.00247201 8.47173 0)
(0.0195675 10.0069 0)
(0.0205268 10.0234 0)
(0.0223743 10.0234 0)
(0.0220517 10.0149 0)
(0.0204789 9.98621 0)
(0.0179585 9.92001 0)
(0.0143482 9.78169 0)
(0.0098512 9.521 0)
(0.00430743 9.09857 0)
(0.00195516 8.4258 0)
(0.0175634 10.0063 0)
(0.0195147 10.0222 0)
(0.0219898 10.0264 0)
(0.0221353 10.0249 0)
(0.0210821 10.0111 0)
(0.0191743 9.97583 0)
(0.016458 9.89996 0)
(0.0127683 9.74771 0)
(0.00840934 9.47415 0)
(0.00342563 9.05001 0)
(0.00142206 8.39261 0)
(0.015471 10.0056 0)
(0.0182564 10.0204 0)
(0.0213371 10.0274 0)
(0.0218673 10.0303 0)
(0.0211941 10.0254 0)
(0.0197165 10.0076 0)
(0.0175604 9.96697 0)
(0.0147018 9.88255 0)
(0.0109897 9.7187 0)
(0.00684231 9.43613 0)
(0.00247897 9.01357 0)
(0.000850352 8.37183 0)
(0.0133558 10.0048 0)
(0.0168248 10.0184 0)
(0.0203377 10.0268 0)
(0.021276 10.0328 0)
(0.0209022 10.0334 0)
(0.0197333 10.0262 0)
(0.0179347 10.0056 0)
(0.0155832 9.96044 0)
(0.0126243 9.86879 0)
(0.00895605 9.6957 0)
(0.00510158 9.40761 0)
(0.00143514 8.98926 0)
(0.000216256 8.36316 0)
(0.0112294 10.0041 0)
(0.0152796 10.0161 0)
(0.0190707 10.0252 0)
(0.020391 10.0333 0)
(0.0202701 10.0377 0)
(0.0193144 10.0369 0)
(0.0177357 10.0283 0)
(0.0156769 10.0057 0)
(0.0131644 9.95708 0)
(0.0101529 9.8596 0)
(0.00660718 9.67968 0)
(0.00314309 9.3892 0)
(0.000267757 8.97715 0)
(-0.000433535 8.36658 0)
(0.00935356 10.0035 0)
(0.0136785 10.0139 0)
(0.0175748 10.0229 0)
(0.0192096 10.0323 0)
(0.0193177 10.0393 0)
(0.0185118 10.0429 0)
(0.0170556 10.0418 0)
(0.0151355 10.0326 0)
(0.0128482 10.0089 0)
(0.0102122 9.95775 0)
(0.00720981 9.85594 0)
(0.00388677 9.67158 0)
(0.000927596 9.38145 0)
(-0.00102931 8.97751 0)
(-0.00118422 8.38207 0)
(0.00781583 10.0029 0)
(0.0121847 10.0118 0)
(0.0159042 10.0203 0)
(0.017747 10.0302 0)
(0.0180437 10.039 0)
(0.0173472 10.0457 0)
(0.0159419 10.0495 0)
(0.0140526 10.0486 0)
(0.0118215 10.0397 0)
(0.00933646 10.0157 0)
(0.00662765 9.96329 0)
(0.00371957 9.85873 0)
(0.000738902 9.67226 0)
(-0.00159046 9.38494 0)
(-0.00250453 8.99042 0)
(-0.00202391 8.40986 0)
(0.00651686 10.0024 0)
(0.0108618 10.0101 0)
(0.014274 10.0178 0)
(0.016036 10.0274 0)
(0.0164539 10.0374 0)
(0.0158256 10.0462 0)
(0.0144147 10.0534 0)
(0.0124732 10.058 0)
(0.0101765 10.0582 0)
(0.00765966 10.0504 0)
(0.0050198 10.0272 0)
(0.00231276 9.97456 0)
(-0.000389564 9.8689 0)
(-0.00288012 9.68253 0)
(-0.0044297 9.40012 0)
(-0.00415574 9.0161 0)
(-0.00295191 8.44997 0)
(0.00543373 10.0019 0)
(0.00967346 10.0085 0)
(0.0127985 10.0157 0)
(0.0143039 10.0246 0)
(0.0145657 10.0347 0)
(0.0139492 10.045 0)
(0.0124795 10.0546 0)
(0.0104139 10.063 0)
(0.00795422 10.0691 0)
(0.00526883 10.0712 0)
(0.00250289 10.0654 0)
(-0.000224741 10.044 0)
(-0.00282698 9.99242 0)
(-0.0051825 9.8873 0)
(-0.00701415 9.7031 0)
(-0.00761515 9.42737 0)
(-0.00598656 9.05455 0)
(-0.00396352 8.50239 0)
(0.00452627 10.0016 0)
(0.00860426 10.0072 0)
(0.0114366 10.0137 0)
(0.0126998 10.022 0)
(0.0126242 10.0316 0)
(0.0117277 10.0424 0)
(0.010138 10.0537 0)
(0.00787745 10.0648 0)
(0.00516618 10.0751 0)
(0.0021985 10.0836 0)
(-0.000845393 10.0885 0)
(-0.0037989 10.0856 0)
(-0.00651577 10.067 0)
(-0.0088752 10.0177 0)
(-0.0107121 9.91474 0)
(-0.0116893 9.73455 0)
(-0.0111591 9.46691 0)
(-0.00800011 9.10583 0)
(-0.00505642 8.56692 0)
(0.0038052 10.0012 0)
(0.0076525 10.006 0)
(0.0101801 10.012 0)
(0.0111931 10.0196 0)
(0.0108121 10.0286 0)
(0.00943864 10.0391 0)
(0.00739871 10.0512 0)
(0.00486525 10.0642 0)
(0.00181091 10.0774 0)
(-0.00154729 10.0904 0)
(-0.00500081 10.1021 0)
(-0.00834676 10.1107 0)
(-0.0113914 10.1117 0)
(-0.0139601 10.0969 0)
(-0.0159008 10.0511 0)
(-0.0170106 9.95185 0)
(-0.0169151 9.77732 0)
(-0.0150575 9.51887 0)
(-0.0101827 9.16965 0)
(-0.00621717 8.64319 0)
(0.00319753 10.001 0)
(0.00677986 10.005 0)
(0.00903021 10.0104 0)
(0.00978967 10.0174 0)
(0.00910422 10.0258 0)
(0.00730054 10.0358 0)
(0.00459343 10.0477 0)
(0.00138796 10.0617 0)
(-0.00211123 10.077 0)
(-0.00597572 10.0931 0)
(-0.00996956 10.1096 0)
(-0.0138583 10.1254 0)
(-0.0174108 10.1385 0)
(-0.0204059 10.1444 0)
(-0.0226444 10.1345 0)
(-0.0239475 10.0934 0)
(-0.0240903 9.99919 0)
(-0.0226825 9.83162 0)
(-0.0192934 9.58312 0)
(-0.0125243 9.24579 0)
(-0.00743824 8.73072 0)
(0.00272034 10.0008 0)
(0.00601404 10.0041 0)
(0.00797176 10.0091 0)
(0.00849366 10.0155 0)
(0.0075165 10.0232 0)
(0.00528905 10.0326 0)
(0.00198296 10.044 0)
(-0.00214155 10.0578 0)
(-0.00658566 10.0743 0)
(-0.0110884 10.0927 0)
(-0.0157668 10.1126 0)
(-0.0203538 10.1334 0)
(-0.0245833 10.1542 0)
(-0.0281963 10.1728 0)
(-0.0309496 10.1845 0)
(-0.0326256 10.1804 0)
(-0.0330315 10.145 0)
(-0.0319378 10.0571 0)
(-0.0289647 9.89752 0)
(-0.0238354 9.65943 0)
(-0.0149925 9.33356 0)
(-0.00869578 8.82864 0)
(0.00235604 10.0007 0)
(0.00536916 10.0035 0)
(0.00701729 10.0079 0)
(0.00730425 10.0137 0)
(0.00605778 10.0208 0)
(0.00342971 10.0294 0)
(-0.000461229 10.0402 0)
(-0.00540684 10.0535 0)
(-0.0110881 10.0699 0)
(-0.0168659 10.0896 0)
(-0.0223974 10.112 0)
(-0.0278593 10.1365 0)
(-0.0329477 10.1626 0)
(-0.0373659 10.1893 0)
(-0.0408339 10.2142 0)
(-0.0430948 10.2325 0)
(-0.0439262 10.235 0)
(-0.0431363 10.2064 0)
(-0.040515 10.1257 0)
(-0.0357128 9.97485 0)
(-0.0286362 9.74728 0)
(-0.0175655 9.43236 0)
(-0.00997089 8.93623 0)
(0.00207535 10.0006 0)
(0.00484711 10.003 0)
(0.00619068 10.0069 0)
(0.00622646 10.012 0)
(0.00473368 10.0185 0)
(0.00173786 10.0264 0)
(-0.0027041 10.0364 0)
(-0.00844624 10.049 0)
(-0.0152288 10.0649 0)
(-0.0226372 10.0845 0)
(-0.029836 10.1083 0)
(-0.0363847 10.1355 0)
(-0.0425452 10.1655 0)
(-0.047978 10.1977 0)
(-0.052364 10.2312 0)
(-0.0554139 10.2632 0)
(-0.0568723 10.2889 0)
(-0.0565283 10.2989 0)
(-0.054212 10.2777 0)
(-0.0497538 10.2049 0)
(-0.0428562 10.0632 0)
(-0.0336405 9.84602 0)
(-0.0201776 9.54115 0)
(-0.0111972 9.05186 0)
(0.00185556 10.0005 0)
(0.00442287 10.0026 0)
(0.00551358 10.0061 0)
(0.00529885 10.0106 0)
(0.00354788 10.0164 0)
(0.000224013 10.0235 0)
(-0.00472277 10.0326 0)
(-0.0112147 10.0443 0)
(-0.0190613 10.0594 0)
(-0.0279175 10.0785 0)
(-0.0372249 10.1022 0)
(-0.0458985 10.1309 0)
(-0.0533931 10.1639 0)
(-0.0600932 10.2003 0)
(-0.0656339 10.2396 0)
(-0.0696894 10.2805 0)
(-0.0719777 10.3204 0)
(-0.0722639 10.3541 0)
(-0.0703711 10.3721 0)
(-0.0661709 10.3589 0)
(-0.0595578 10.2944 0)
(-0.0503083 10.1621 0)
(-0.0387307 9.95474 0)
(-0.0227112 9.65861 0)
(-0.0120863 9.17366 0)
(0.00168106 10.0004 0)
(0.00407606 10.0023 0)
(0.00496335 10.0054 0)
(0.00454842 10.0095 0)
(0.00254875 10.0145 0)
(-0.00110527 10.0208 0)
(-0.00650125 10.029 0)
(-0.0136806 10.0397 0)
(-0.0225293 10.0537 0)
(-0.0327817 10.0718 0)
(-0.0439585 10.0949 0)
(-0.0553109 10.1235 0)
(-0.0654544 10.1582 0)
(-0.0737403 10.1979 0)
(-0.0807302 10.2416 0)
(-0.0860535 10.2887 0)
(-0.0893966 10.3378 0)
(-0.0905076 10.3861 0)
(-0.0891983 10.4283 0)
(-0.0853487 10.4546 0)
(-0.0788905 10.4498 0)
(-0.0698074 10.3938 0)
(-0.0579176 10.2706 0)
(-0.0438535 10.0722 0)
(-0.0253588 9.7842 0)
(-0.0141821 9.30167 0)
(0.00154081 10.0004 0)
(0.00379 10.0021 0)
(0.00451296 10.0049 0)
(0.00394441 10.0085 0)
(0.00175611 10.0129 0)
(-0.0021957 10.0183 0)
(-0.0080286 10.0255 0)
(-0.0158211 10.0351 0)
(-0.025591 10.0479 0)
(-0.0371601 10.0648 0)
(-0.0501394 10.0868 0)
(-0.0638657 10.1147 0)
(-0.0773566 10.1492 0)
(-0.088879 10.1907 0)
(-0.0976983 10.2381 0)
(-0.104625 10.2899 0)
(-0.109307 10.3456 0)
(-0.111471 10.4035 0)
(-0.110925 10.4606 0)
(-0.107553 10.5115 0)
(-0.101311 10.5464 0)
(-0.0922124 10.5499 0)
(-0.0803083 10.5024 0)
(-0.0655399 10.3876 0)
(-0.0482541 10.1976 0)
(-0.0218169 9.91159 0)
(-0.00989215 9.37328 0)
(0.00142686 10.0003 0)
(0.0035523 10.0019 0)
(0.00414253 10.0045 0)
(0.00345829 10.0077 0)
(0.00113596 10.0115 0)
(-0.00303209 10.0162 0)
(-0.00924319 10.0223 0)
(-0.01762 10.0306 0)
(-0.0282149 10.0421 0)
(-0.0409985 10.0575 0)
(-0.0556818 10.0781 0)
(-0.0717001 10.1047 0)
(-0.0881578 10.1384 0)
(-0.103797 10.1797 0)
(-0.116496 10.2291 0)
(-0.125474 10.285 0)
(-0.131874 10.3459 0)
(-0.135392 10.4107 0)
(-0.135831 10.4777 0)
(-0.133088 10.544 0)
(-0.127145 10.6037 0)
(-0.11806 10.647 0)
(-0.105906 10.6587 0)
(-0.0908767 10.6192 0)
(-0.0726657 10.5123 0)
(-0.0516263 10.3279 0)
(-0.016836 10.0697 0)
(-0.00140754 9.42442 0)
(0.00133337 10.0003 0)
(0.00335332 10.0017 0)
(0.00383595 10.0041 0)
(0.00306637 10.007 0)
(0.000652457 10.0104 0)
(-0.00366003 10.0143 0)
(-0.0101361 10.0194 0)
(-0.0190045 10.0264 0)
(-0.0303777 10.0363 0)
(-0.0442548 10.0501 0)
(-0.0605166 10.0689 0)
(-0.0787088 10.0939 0)
(-0.0980386 10.1262 0)
(-0.117329 10.1666 0)
(-0.135016 10.2158 0)
(-0.148566 10.274 0)
(-0.157198 10.3394 0)
(-0.162483 10.4098 0)
(-0.164213 10.4842 0)
(-0.162305 10.5607 0)
(-0.15678 10.636 0)
(-0.147739 10.7043 0)
(-0.135327 10.7559 0)
(-0.119727 10.7753 0)
(-0.100968 10.7432 0)
(-0.0784765 10.6434 0)
(-0.0541617 10.4714 0)
(-0.0178459 10.2283 0)
(0.00396682 9.4664 0)
(0.00125597 10.0003 0)
(0.0031858 10.0016 0)
(0.00358225 10.0038 0)
(0.00274971 10.0064 0)
(0.000277096 10.0094 0)
(-0.00412482 10.0127 0)
(-0.0107696 10.017 0)
(-0.019975 10.0226 0)
(-0.0319919 10.0308 0)
(-0.0468967 10.0427 0)
(-0.0645881 10.0596 0)
(-0.0848041 10.0825 0)
(-0.10687 10.1128 0)
(-0.129708 10.1517 0)
(-0.151822 10.1999 0)
(-0.171329 10.2579 0)
(-0.185253 10.326 0)
(-0.192884 10.4015 0)
(-0.196349 10.482 0)
(-0.195583 10.5662 0)
(-0.190654 10.6521 0)
(-0.181731 10.7364 0)
(-0.169033 10.8131 0)
(-0.152821 10.8724 0)
(-0.133182 10.899 0)
(-0.109976 10.8739 0)
(-0.08302 10.7818 0)
(-0.0554191 10.6268 0)
(-0.0202501 10.3824 0)
(0.00505656 9.50732 0)
(0.00119132 10.0003 0)
(0.00304405 10.0015 0)
(0.00337001 10.0036 0)
(0.00249301 10.0059 0)
(-1.30297e-05 10.0085 0)
(-0.00446263 10.0114 0)
(-0.0112026 10.0148 0)
(-0.0206159 10.0194 0)
(-0.0330692 10.0259 0)
(-0.0488164 10.0356 0)
(-0.0678523 10.05 0)
(-0.0899134 10.0707 0)
(-0.11454 10.0987 0)
(-0.140775 10.1353 0)
(-0.167211 10.1818 0)
(-0.192014 10.2389 0)
(-0.212943 10.3068 0)
(-0.226601 10.3854 0)
(-0.232443 10.4717 0)
(-0.23328 10.5626 0)
(-0.229241 10.6567 0)
(-0.220573 10.752 0)
(-0.207603 10.8448 0)
(-0.190688 10.9293 0)
(-0.170078 10.9957 0)
(-0.14576 11.029 0)
(-0.11828 11.0108 0)
(-0.0873555 10.9275 0)
(-0.0563744 10.7886 0)
(-0.0224066 10.5313 0)
(0.00466323 9.56074 0)
(0.00113687 10.0002 0)
(0.00292361 10.0014 0)
(0.00319148 10.0033 0)
(0.00228545 10.0055 0)
(-0.000236302 10.0078 0)
(-0.00470242 10.0102 0)
(-0.0114823 10.0129 0)
(-0.0210049 10.0165 0)
(-0.0337232 10.0215 0)
(-0.0500397 10.0292 0)
(-0.0701745 10.0409 0)
(-0.0939775 10.0586 0)
(-0.120957 10.0839 0)
(-0.150392 10.1178 0)
(-0.180992 10.1619 0)
(-0.210991 10.2172 0)
(-0.238158 10.2842 0)
(-0.259945 10.3628 0)
(-0.272535 10.4528 0)
(-0.275674 10.5502 0)
(-0.272989 10.6517 0)
(-0.264841 10.7556 0)
(-0.251683 10.8598 0)
(-0.234014 10.9606 0)
(-0.212256 11.0522 0)
(-0.186643 11.1252 0)
(-0.157655 11.165 0)
(-0.1265 11.1533 0)
(-0.0923164 11.0795 0)
(-0.0580766 10.9518 0)
(-0.0246911 10.6918 0)
(0.00360776 9.62388 0)
(0.00109066 10.0002 0)
(0.00282087 10.0013 0)
(0.00304155 10.0032 0)
(0.00211673 10.0052 0)
(-0.000407131 10.0072 0)
(-0.00486714 10.0091 0)
(-0.0116461 10.0113 0)
(-0.0212043 10.014 0)
(-0.0340566 10.0177 0)
(-0.0507175 10.0235 0)
(-0.0715972 10.0326 0)
(-0.0968267 10.047 0)
(-0.126041 10.0687 0)
(-0.158439 10.0996 0)
(-0.19299 10.1406 0)
(-0.228024 10.1932 0)
(-0.261355 10.2583 0)
(-0.290391 10.3362 0)
(-0.312291 10.4264 0)
(-0.322862 10.5283 0)
(-0.322265 10.6372 0)
(-0.315087 10.7491 0)
(-0.301957 10.8624 0)
(-0.283554 10.975 0)
(-0.260514 11.0831 0)
(-0.233321 11.1813 0)
(-0.202604 11.2604 0)
(-0.169308 11.306 0)
(-0.134792 11.3001 0)
(-0.0978848 11.2349 0)
(-0.0609334 11.1329 0)
(-0.0271029 10.864 0)
(0.00200846 9.69537 0)
(0.00105113 10.0002 0)
(0.00273296 10.0012 0)
(0.00291522 10.003 0)
(0.00197864 10.0048 0)
(-0.000537184 10.0066 0)
(-0.00497487 10.0082 0)
(-0.0117236 10.0099 0)
(-0.0212632 10.0117 0)
(-0.0341514 10.0143 0)
(-0.0509847 10.0185 0)
(-0.0723178 10.0252 0)
(-0.0985215 10.0364 0)
(-0.129577 10.054 0)
(-0.164812 10.0807 0)
(-0.203053 10.1181 0)
(-0.242902 10.1674 0)
(-0.282249 10.2297 0)
(-0.318498 10.3058 0)
(-0.348712 10.3955 0)
(-0.369798 10.498 0)
(-0.377247 10.612 0)
(-0.37179 10.7324 0)
(-0.359105 10.8545 0)
(-0.340116 10.9768 0)
(-0.315722 11.097 0)
(-0.286696 11.2118 0)
(-0.253856 11.316 0)
(-0.218271 11.4004 0)
(-0.180934 11.4507 0)
(-0.143084 11.4495 0)
(-0.104203 11.4102 0)
(-0.064596 11.3303 0)
(-0.0296558 11.0307 0)
(0.000255449 9.7731 0)
(0.00101749 10.0002 0)
(0.00265732 10.0012 0)
(0.00280827 10.0029 0)
(0.00186549 10.0046 0)
(-0.000635597 10.0061 0)
(-0.00503973 10.0075 0)
(-0.0117378 10.0086 0)
(-0.02122 10.0098 0)
(-0.0340724 10.0114 0)
(-0.0509492 10.014 0)
(-0.0725121 10.0187 0)
(-0.0993166 10.0269 0)
(-0.131642 10.0405 0)
(-0.169235 10.0622 0)
(-0.211045 10.0948 0)
(-0.255432 10.1401 0)
(-0.300579 10.1988 0)
(-0.343926 10.2721 0)
(-0.382471 10.3601 0)
(-0.412962 10.4625 0)
(-0.43213 10.5777 0)
(-0.435235 10.7041 0)
(-0.423735 10.8358 0)
(-0.404519 10.9676 0)
(-0.37882 11.0981 0)
(-0.347761 11.2252 0)
(-0.312425 11.346 0)
(-0.274013 11.4552 0)
(-0.233754 11.5439 0)
(-0.192511 11.5974 0)
(-0.152117 11.6179 0)
(-0.11098 11.6038 0)
(-0.0685746 11.5228 0)
(-0.0321034 11.1915 0)
(-0.00144904 9.85518 0)
(0.00259166 10.0011 0)
(0.000976489 10.0002 0)
(0.00271686 10.0027 0)
(0.00177257 10.0043 0)
(-0.000709392 10.0057 0)
(-0.00507272 10.0068 0)
(-0.0117063 10.0075 0)
(-0.0211045 10.0081 0)
(-0.0338701 10.0088 0)
(-0.0506958 10.0101 0)
(-0.0723205 10.0129 0)
(-0.0994384 10.0184 0)
(-0.132562 10.0284 0)
(-0.171803 10.0453 0)
(-0.216611 10.072 0)
(-0.265438 10.1117 0)
(-0.316103 10.166 0)
(-0.366354 10.2355 0)
(-0.413167 10.3207 0)
(-0.453155 10.4218 0)
(-0.482817 10.5375 0)
(-0.498815 10.6656 0)
(-0.496268 10.8044 0)
(-0.477519 10.9469 0)
(-0.450777 11.0877 0)
(-0.417599 11.2257 0)
(-0.379428 11.359 0)
(-0.337702 11.4847 0)
(-0.293796 11.5978 0)
(-0.248948 11.6892 0)
(-0.205115 11.7622 0)
(-0.161672 11.8043 0)
(-0.117449 11.7941 0)
(-0.0725086 11.7088 0)
(-0.0343459 11.3461 0)
(-0.0029674 9.93984 0)
(0.00263736 10.0026 0)
(0.00251468 10.0011 0)
(0.000926346 10.0002 0)
(0.00169561 10.0041 0)
(-0.000763877 10.0053 0)
(-0.0050822 10.0062 0)
(-0.011643 10.0066 0)
(-0.0209397 10.0066 0)
(-0.0335833 10.0065 0)
(-0.0502907 10.0066 0)
(-0.0718538 10.0077 0)
(-0.0990684 10.0109 0)
(-0.132624 10.0176 0)
(-0.172924 10.0301 0)
(-0.219859 10.051 0)
(-0.272464 10.0837 0)
(-0.328597 10.1317 0)
(-0.385484 10.1965 0)
(-0.440414 10.2779 0)
(-0.48991 10.3763 0)
(-0.530257 10.4911 0)
(-0.557806 10.6206 0)
(-0.56926 10.7619 0)
(-0.559704 10.9127 0)
(-0.532524 11.0653 0)
(-0.497347 11.2144 0)
(-0.4561 11.3589 0)
(-0.410581 11.4972 0)
(-0.362435 11.6269 0)
(-0.313064 11.7424 0)
(-0.265305 11.8523 0)
(-0.218311 11.9444 0)
(-0.170653 11.9884 0)
(-0.12343 11.9793 0)
(-0.076206 11.8873 0)
(-0.0363516 11.4942 0)
(-0.00434627 10.0254 0)
(0.00162792 10.0039 0)
(0.00255198 10.0025 0)
(0.00241832 10.001 0)
(0.000878849 10.0001 2.04463e-19)
(-0.000803809 10.005 0)
(-0.00507414 10.0056 0)
(-0.011558 10.0057 0)
(-0.020743 10.0053 0)
(-0.0332419 10.0045 0)
(-0.0497849 10.0036 0)
(-0.0711982 10.0032 0)
(-0.0983494 10.0042 0)
(-0.132061 10.0079 0)
(-0.172959 10.0164 0)
(-0.221291 10.0319 0)
(-0.276623 10.0578 0)
(-0.337476 10.0978 0)
(-0.401029 10.1555 0)
(-0.463843 10.232 0)
(-0.522765 10.3266 0)
(-0.573909 10.4392 0)
(-0.61332 10.5685 0)
(-0.637313 10.7119 0)
(-0.642768 10.8662 0)
(-0.624849 11.0285 0)
(-0.588135 11.1905 0)
(-0.543761 11.3468 0)
(-0.494043 11.4967 0)
(-0.441022 11.6391 0)
(-0.386427 11.771 0)
(-0.333717 11.9047 0)
(-0.282329 12.0325 0)
(-0.230516 12.1242 0)
(-0.178887 12.168 0)
(-0.128812 12.1577 0)
(-0.0795555 12.058 0)
(-0.0380766 11.6357 0)
(-0.00557041 10.1104 0)
(-0.000840672 10.0047 0)
(0.00157099 10.0037 0)
(0.00245479 10.0023 9.13267e-19)
(0.00232652 10.0009 -6.47842e-19)
(0.000833546 10.0001 -4.07783e-19)
(-0.00505364 10.0052 0)
(-0.0114585 10.005 0)
(-0.0205275 10.0041 0)
(-0.0328685 10.0027 0)
(-0.049217 10.0009 0)
(-0.0704199 9.99914 0)
(-0.097393 9.99825 0)
(-0.131054 9.99937 0)
(-0.1722 10.0042 0)
(-0.221358 10.0149 0)
(-0.278523 10.0344 0)
(-0.342842 10.0663 0)
(-0.412242 10.1148 0)
(-0.483095 10.1836 0)
(-0.551274 10.2733 0)
(-0.613228 10.3823 0)
(-0.66474 10.5099 0)
(-0.701727 10.6541 0)
(-0.720605 10.8115 0)
(-0.718572 10.9783 0)
(-0.690987 11.1513 0)
(-0.643764 11.3217 0)
(-0.589608 11.4841 0)
(-0.531124 11.6383 0)
(-0.470491 11.783 0)
(-0.412063 11.933 0)
(-0.355177 12.084 0)
(-0.297983 12.2103 0)
(-0.241572 12.2998 0)
(-0.186258 12.3418 0)
(-0.133547 12.3288 0)
(-0.0825052 12.2204 0)
(-0.039522 11.7702 0)
(-0.0066318 10.1936 0)
(-0.00503919 10.0048 0)
(-0.000835227 10.0044 -1.95219e-18)
(0.00152214 10.0034 -9.63353e-19)
(0.00236284 10.0022 4.55614e-19)
(0.00223763 10.0009 -4.30604e-19)
(0.000790452 10.0001 0)
(-0.0113497 10.0043 0)
(-0.0203014 10.0031 0)
(-0.0324798 10.0011 0)
(-0.0486167 9.99849 0)
(-0.0695693 9.99558 0)
(-0.0962847 9.99301 0)
(-0.129747 9.99176 0)
(-0.170878 9.99327 0)
(-0.220422 9.99955 0)
(-0.278717 10.0132 0)
(-0.345425 10.0377 0)
(-0.419195 10.0769 0)
(-0.497221 10.1353 0)
(-0.574989 10.2167 0)
(-0.647682 10.3209 0)
(-0.711437 10.4454 0)
(-0.761808 10.5887 0)
(-0.794721 10.748 0)
(-0.80685 10.9192 0)
(-0.795856 11.0979 0)
(-0.757407 11.2805 0)
(-0.698862 11.458 0)
(-0.634468 11.6253 0)
(-0.567011 11.7822 0)
(-0.50193 11.945 0)
(-0.438663 12.1122 0)
(-0.374862 12.2611 0)
(-0.312123 12.3839 0)
(-0.251388 12.4698 0)
(-0.192728 12.5089 0)
(-0.137628 12.492 0)
(-0.085046 12.3743 0)
(-0.0407107 11.8976 0)
(-0.00753512 10.2744 0)
(-0.0112602 10.0038 0)
(-0.00493546 10.0043 4.11702e-18)
(-0.000774776 10.004 0)
(0.00147807 10.0031 9.60902e-19)
(0.00227716 10.002 1.27553e-22)
(0.00215179 10.0008 0)
(0.000749558 10.0001 0)
(-0.0200703 10.0022 0)
(-0.0320858 9.99974 0)
(-0.0480051 9.99639 0)
(-0.0686847 9.99244 0)
(-0.0950897 9.98837 0)
(-0.128249 9.98501 0)
(-0.169175 9.9836 0)
(-0.218773 9.98589 0)
(-0.277653 9.99427 0)
(-0.345893 10.0118 0)
(-0.422747 10.0424 0)
(-0.506231 10.0902 0)
(-0.592714 10.16 0)
(-0.676718 10.2555 0)
(-0.752778 10.3755 0)
(-0.816839 10.5164 0)
(-0.864357 10.6759 0)
(-0.891431 10.8501 0)
(-0.89515 11.0346 0)
(-0.873784 11.2242 0)
(-0.823408 11.4153 0)
(-0.752887 11.5987 0)
(-0.677921 11.7692 0)
(-0.605295 11.9444 0)
(-0.534542 12.1245 0)
(-0.463021 12.2893 0)
(-0.392617 12.4342 0)
(-0.324665 12.5521 0)
(-0.25995 12.6335 0)
(-0.198302 12.6686 0)
(-0.141081 12.6468 0)
(-0.0871917 12.5196 0)
(-0.0416698 12.0178 0)
(-0.00829253 10.3519 0)
(-0.0198768 10.0014 0)
(-0.011014 10.0031 5.59032e-22)
(-0.00469993 10.0037 0)
(-0.000714182 10.0036 -1.01336e-18)
(0.00144238 10.0029 6.81868e-23)
(0.00219768 10.0019 0)
(0.00206905 10.0007 0)
(0.000710879 10.0001 0)
(-0.0316922 9.99852 0)
(-0.0473948 9.99454 0)
(-0.0677935 9.98966 0)
(-0.0938573 9.98427 0)
(-0.126644 9.97904 0)
(-0.16723 9.97501 0)
(-0.21664 9.97373 0)
(-0.275689 9.97731 0)
(-0.34479 9.98858 0)
(-0.423695 10.011 0)
(-0.511123 10.0489 0)
(-0.604356 10.1069 0)
(-0.698841 10.1896 0)
(-0.788096 10.3007 0)
(-0.866077 10.4377 0)
(-0.9287 10.5957 0)
(-0.971495 10.7715 0)
(-0.990898 10.9604 0)
(-0.984578 11.1573 0)
(-0.951529 11.3567 0)
(-0.888312 11.5549 0)
(-0.805307 11.7424 0)
(-0.724314 11.9317 0)
(-0.645029 12.1245 0)
(-0.564408 12.3021 0)
(-0.484976 12.4626 0)
(-0.408365 12.602 0)
(-0.335608 12.7141 0)
(-0.267297 12.7901 0)
(-0.203021 12.8205 0)
(-0.143943 12.7932 0)
(-0.0889657 12.6564 0)
(-0.0424278 12.1309 0)
(-0.00891943 10.4259 0)
(-0.0313611 9.99744 0)
(-0.0194329 10.0005 -2.28755e-18)
(-0.0105208 10.0024 0)
(-0.00447246 10.0032 0)
(-0.000640324 10.0032 3.03097e-18)
(0.00141504 10.0026 0)
(0.00212436 10.0017 0)
(0.00198953 10.0007 8.51478e-19)
(0.000674411 10.0001 0)
(-0.0467913 9.9929 0)
(-0.0669111 9.9872 0)
(-0.092623 9.98064 0)
(-0.124995 9.97374 0)
(-0.16515 9.96739 0)
(-0.214196 9.96291 0)
(-0.273108 9.96218 0)
(-0.342556 9.96773 0)
(-0.422697 9.9828 0)
(-0.512838 10.0114 0)
(-0.611058 10.058 0)
(-0.713808 10.1277 0)
(-0.815534 10.225 0)
(-0.90873 10.353 0)
(-0.986901 10.508 0)
(-1.04613 10.6835 0)
(-1.08221 10.8755 0)
(-1.0921 11.0785 0)
(-1.07419 11.2868 0)
(-1.02829 11.4946 0)
(-0.951466 11.6981 0)
(-0.861362 11.9053 0)
(-0.772519 12.1126 0)
(-0.681441 12.3031 0)
(-0.59134 12.4762 0)
(-0.504458 12.6308 0)
(-0.422116 12.7637 0)
(-0.345007 12.8693 0)
(-0.273499 12.9392 0)
(-0.206944 12.9643 0)
(-0.146268 12.9312 0)
(-0.0904005 12.7848 0)
(-0.0430127 12.237 0)
(-0.00943262 10.4961 0)
(-0.0462836 9.99145 0)
(-0.0306512 9.99625 0)
(-0.0185759 9.99954 -2.38053e-18)
(-0.0100483 10.0016 -2.25265e-18)
(-0.0042251 10.0026 -4.26028e-18)
(-0.000553949 10.0028 0)
(0.00139606 10.0024 -1.90205e-18)
(0.00205726 10.0016 -1.79592e-18)
(0.00191313 10.0006 8.47427e-19)
(0.000640022 10.0001 0)
(-0.0660431 9.98503 0)
(-0.0914057 9.97743 0)
(-0.123349 9.96905 0)
(-0.163015 9.96064 0)
(-0.211578 9.95331 0)
(-0.270129 9.94871 0)
(-0.339537 9.9491 0)
(-0.420282 9.95743 0)
(-0.512155 9.97742 0)
(-0.613914 10.0135 0)
(-0.722901 10.0705 0)
(-0.834639 10.1534 0)
(-0.942516 10.2668 0)
(-1.03803 10.4131 0)
(-1.11439 10.5868 0)
(-1.16812 10.7801 0)
(-1.19543 10.9878 0)
(-1.194 11.2039 0)
(-1.16306 11.4223 0)
(-1.10329 11.6369 0)
(-1.01923 11.861 0)
(-0.919733 12.0871 0)
(-0.816744 12.2925 0)
(-0.714301 12.4784 0)
(-0.615262 12.6454 0)
(-0.521489 12.793 0)
(-0.433946 12.9186 0)
(-0.352958 13.0171 0)
(-0.278646 13.0806 0)
(-0.210145 13.1 0)
(-0.148113 13.0608 0)
(-0.0915317 12.9052 0)
(-0.0434504 12.3363 0)
(-0.00984777 10.5623 0)
(-0.0653147 9.9831 0)
(-0.0452245 9.98988 -2.54349e-18)
(-0.0292964 9.99494 2.50762e-18)
(-0.017761 9.99858 -1.22752e-21)
(-0.00954815 10.0009 2.24496e-18)
(-0.00395829 10.0021 2.12268e-18)
(-0.000454893 10.0025 4.01098e-18)
(0.00138546 10.0021 2.84042e-18)
(0.00199629 10.0014 -8.9366e-19)
(0.0018395 10.0006 0)
(0.000607698 10.0001 0)
(-0.0902111 9.97458 0)
(-0.121727 9.9649 0)
(-0.160883 9.95465 0)
(-0.208887 9.94478 0)
(-0.26692 9.93673 0)
(-0.336006 9.93248 0)
(-0.416875 9.93472 0)
(-0.50971 9.94685 0)
(-0.613839 9.97304 0)
(-0.727378 10.0181 0)
(-0.846827 10.0871 0)
(-0.966698 10.185 0)
(-1.0793 10.316 0)
(-1.1752 10.4815 0)
(-1.24755 10.6745 0)
(-1.29353 10.8853 0)
(-1.31001 11.1081 0)
(-1.29553 11.3362 0)
(-1.25027 11.563 0)
(-1.18413 11.7995 0)
(-1.09008 12.0439 0)
(-0.973433 12.2685 0)
(-0.856705 12.4695 0)
(-0.743515 12.6491 0)
(-0.636202 12.8088 0)
(-0.536163 12.9486 0)
(-0.443972 13.0663 0)
(-0.359578 13.1573 0)
(-0.282843 13.2142 0)
(-0.212702 13.2276 0)
(-0.149538 13.1823 0)
(-0.0923988 13.0176 0)
(-0.0437638 12.429 0)
(-0.0101798 10.6246 0)
(-0.089213 9.97206 0)
(-0.0638057 9.98106 -3.5088e-21)
(-0.0432055 9.98819 0)
(-0.0280168 9.99369 -1.93344e-21)
(-0.0169064 9.99765 0)
(-0.00901897 10.0002 -2.23684e-18)
(-0.00367339 10.0017 -4.22789e-18)
(-0.000343368 10.0021 1.11135e-22)
(0.00138305 10.0019 1.88432e-18)
(0.00194174 10.0013 -8.88894e-19)
(0.0017688 10.0005 8.38229e-19)
(0.000577364 10 0)
(-0.120138 9.96121 0)
(-0.158784 9.94934 0)
(-0.206198 9.93722 0)
(-0.263611 9.92608 0)
(-0.332171 9.91768 0)
(-0.412807 9.91443 0)
(-0.506013 9.91942 0)
(-0.611585 9.93655 0)
(-0.7283 9.97039 0)
(-0.853522 10.0261 0)
(-0.982812 10.1088 0)
(-1.10963 10.2233 0)
(-1.2252 10.3733 0)
(-1.31928 10.5589 0)
(-1.38523 10.7713 0)
(-1.42116 10.9992 0)
(-1.42482 11.2361 0)
(-1.39567 11.4744 0)
(-1.34471 11.7248 0)
(-1.26902 11.9832 0)
(-1.15552 12.2273 0)
(-1.02212 12.4477 0)
(-0.892308 12.6421 0)
(-0.769119 12.8141 0)
(-0.654274 12.9656 0)
(-0.548626 13.097 0)
(-0.452338 13.2065 0)
(-0.364998 13.2899 0)
(-0.286197 13.3399 0)
(-0.214693 13.3474 0)
(-0.1506 13.296 0)
(-0.0930384 13.1226 0)
(-0.0439733 12.5155 0)
(-0.0104419 10.683 0)
(-0.118817 9.95795 0)
(-0.0871333 9.96942 2.82081e-18)
(-0.060917 9.97891 -2.78736e-18)
(-0.0413098 9.98658 2.63469e-18)
(-0.0266828 9.99249 0)
(-0.0160109 9.99676 0)
(-0.00846324 9.99959 2.22761e-18)
(-0.00336994 10.0012 -2.10409e-18)
(-0.000219957 10.0018 1.3531e-22)
(0.00138943 10.0017 9.37215e-19)
(0.00189299 10.0012 -8.83876e-19)
(0.0017007 10.0005 -8.32334e-19)
(0.000549278 10 0)
(-0.156726 9.94462 0)
(-0.203545 9.9305 0)
(-0.260295 9.91662 0)
(-0.328195 9.90451 0)
(-0.408337 9.89632 0)
(-0.501467 9.89487 0)
(-0.607762 9.90373 0)
(-0.726548 9.92723 0)
(-0.855942 9.97035 0)
(-0.992451 10.0384 0)
(-1.13063 10.1366 0)
(-1.26285 10.2694 0)
(-1.37934 10.4394 0)
(-1.46917 10.6457 0)
(-1.52621 10.8773 0)
(-1.54981 11.1216 0)
(-1.53868 11.3708 0)
(-1.50474 11.6346 0)
(-1.44442 11.9088 0)
(-1.3478 12.1686 0)
(-1.21508 12.4092 0)
(-1.06564 12.6231 0)
(-0.923597 12.8095 0)
(-0.791241 12.9728 0)
(-0.669645 13.1154 0)
(-0.559052 13.238 0)
(-0.459207 13.3392 0)
(-0.369351 13.4148 0)
(-0.288811 13.458 0)
(-0.216197 13.4595 0)
(-0.151351 13.4021 0)
(-0.0934853 13.2204 0)
(-0.0440974 12.5959 0)
(-0.0106462 10.7375 0)
(-0.155028 9.94045 0)
(-0.116025 9.95457 0)
(-0.0831248 9.9667 2.93173e-18)
(-0.0582186 9.97686 -5.55994e-18)
(-0.0393402 9.98504 5.25853e-18)
(-0.0252922 9.99135 -4.97144e-18)
(-0.0150784 9.99592 0)
(-0.00788154 9.99898 2.21819e-18)
(-0.00304905 10.0008 -2.09354e-18)
(-8.54334e-05 10.0015 -1.97605e-18)
(0.00140474 10.0015 0)
(0.0018507 10.0011 8.77632e-19)
(0.00163523 10.0004 0)
(0.000523879 10 0)
(-0.200942 9.92454 0)
(-0.257016 9.90821 0)
(-0.324194 9.8928 0)
(-0.403666 9.88018 0)
(-0.496388 9.87292 0)
(-0.602852 9.87428 0)
(-0.722839 9.88831 0)
(-0.855102 9.91976 0)
(-0.996988 9.97391 0)
(-1.14407 10.0562 0)
(-1.28984 10.1716 0)
(-1.4256 10.3239 0)
(-1.54068 10.515 0)
(-1.62364 10.7422 0)
(-1.6692 10.9925 0)
(-1.67819 11.2517 0)
(-1.66348 11.5284 0)
(-1.62062 11.8183 0)
(-1.53751 12.0959 0)
(-1.41987 12.3536 0)
(-1.26852 12.5881 0)
(-1.104 12.7936 0)
(-0.950721 12.9707 0)
(-0.810096 13.1245 0)
(-0.682526 13.2578 0)
(-0.567637 13.3715 0)
(-0.464743 13.4642 0)
(-0.37277 13.5321 0)
(-0.290788 13.5686 0)
(-0.217284 13.5642 0)
(-0.151842 13.5011 0)
(-0.0937701 13.3114 0)
(-0.0441522 12.6707 0)
(-0.0108019 10.7884 0)
(-0.198813 9.91925 0)
(-0.151362 9.93617 0)
(-0.110599 9.95115 0)
(-0.0794009 9.96411 5.84735e-18)
(-0.0554238 9.97491 -5.53392e-18)
(-0.0372955 9.98359 5.23301e-18)
(-0.0238518 9.99027 0)
(-0.0141102 9.99513 -2.33627e-18)
(-0.00727458 9.9984 0)
(-0.00271198 10.0003 2.08218e-18)
(6.15778e-05 10.0012 0)
(0.00142799 10.0013 0)
(0.00181442 10.001 0)
(0.00157351 10.0004 8.48447e-19)
(0.000501257 10 4.08688e-19)
(-0.253793 9.90074 0)
(-0.320221 9.88237 0)
(-0.398937 9.86581 0)
(-0.491023 9.85333 0)
(-0.597239 9.84791 0)
(-0.71775 9.8533 0)
(-0.851842 9.874 0)
(-0.997589 9.91513 0)
(-1.15148 9.98216 0)
(-1.30807 10.0805 0)
(-1.45979 10.2147 0)
(-1.59694 10.3879 0)
(-1.70803 10.6005 0)
(-1.7814 10.8486 0)
(-1.8129 11.1165 0)
(-1.81991 11.4054 0)
(-1.79704 11.7109 0)
(-1.72956 12.0067 0)
(-1.62321 12.2839 0)
(-1.48489 12.5365 0)
(-1.31581 12.7627 0)
(-1.13736 12.9582 0)
(-0.973915 13.1252 0)
(-0.825945 13.2689 0)
(-0.693154 13.3927 0)
(-0.574583 13.4973 0)
(-0.469112 13.5817 0)
(-0.375382 13.6422 0)
(-0.292222 13.6721 0)
(-0.218019 13.662 0)
(-0.152117 13.5932 0)
(-0.0939212 13.3961 0)
(-0.0441508 12.7402 0)
(-0.0109167 10.8358 0)
(-0.251183 9.89411 0)
(-0.194088 9.91387 0)
(-0.144171 9.93189 6.51879e-18)
(-0.105585 9.94791 6.17344e-18)
(-0.0755511 9.96166 5.83985e-18)
(-0.0525313 9.97308 -5.52134e-18)
(-0.0351856 9.98223 0)
(-0.0223636 9.98926 0)
(-0.0131076 9.99439 0)
(-0.00664382 9.99787 4.38985e-18)
(-0.00236009 9.99997 2.07035e-18)
(0.000219462 10.0009 1.95031e-18)
(0.00145904 10.0012 0)
(0.00178371 10.001 -8.94539e-19)
(0.00151661 10.0004 -4.3165e-19)
(0.000480995 10 0)
(-0.316308 9.87311 0)
(-0.394216 9.85301 0)
(-0.48555 9.83585 0)
(-0.591225 9.82433 0)
(-0.711738 9.82189 0)
(-0.846841 9.83274 0)
(-0.995219 9.8618 0)
(-1.15417 9.91447 0)
(-1.31923 9.99631 0)
(-1.48394 10.1125 0)
(-1.63966 10.2671 0)
(-1.77575 10.462 0)
(-1.88015 10.6967 0)
(-1.94111 10.9647 0)
(-1.97275 11.2648 0)
(-1.97282 11.5854 0)
(-1.92364 11.9 0)
(-1.83061 12.1976 0)
(-1.70105 12.471 0)
(-1.54276 12.716 0)
(-1.3571 12.932 0)
(-1.16598 13.1164 0)
(-0.993469 13.2724 0)
(-0.839069 13.4058 0)
(-0.701772 13.5199 0)
(-0.580087 13.6157 0)
(-0.47247 13.6919 0)
(-0.377303 13.7451 0)
(-0.293199 13.7687 0)
(-0.218461 13.7531 0)
(-0.152215 13.6789 0)
(-0.0939625 13.4747 0)
(-0.0441034 12.8047 0)
(-0.011 10.8798 0)
(-0.313178 9.86488 0)
(-0.245191 9.8874 0)
(-0.184729 9.90856 -1.37163e-17)
(-0.137554 9.92786 1.75739e-20)