/*--------------------------------*- C++ -*----------------------------------*\
  =========                 |
  \\      /  F ield         | OpenFOAM: The Open Source CFD Toolbox
   \\    /   O peration     | Website:  https://openfoam.org
    \\  /    A nd           | Version:  8
     \\/     M anipulation  |
\*---------------------------------------------------------------------------*/
FoamFile
{
    version     2.0;
    format      ascii;
    class       volScalarField;
    location    "0.37";
    object      epsilon;
}
// * * * * * * * * * * * * * * * * * * * * * * * * * * * * * * * * * * * * * //

dimensions      [0 2 -3 0 0 0 0];

internalField   nonuniform List<scalar> 
15677
(
434919
61015.4
37046.3
33242.7
29897.3
25847.4
22491.6
21160.8
22226.9
25627.8
30787.3
36235.2
38654.9
37876.3
36856.1
34540.7
31388.6
27642.7
24213.5
21000.6
17823.7
14596.1
11529.8
8887.27
6880.96
5293.75
4022.66
3039.14
2305.74
1772.34
1388.43
1112.55
909.144
763.993
645.419
2.36615e+06
668851
373945
268510
219881
198368
192524
197455
212446
234605
248731
223709
161463
108625
81852.1
68660.8
60795.9
54443.2
49695.1
45881.3
42119.9
39917.1
38588.5
37114.7
34635.4
31415.6
28285.4
25607.2
23293.6
21275.7
19512.8
17964.1
16593.9
15374.1
14282.6
2.03886e+06
781599
573454
522274
529715
567898
623223
689673
751150
769991
689477
500657
301003
152993
77586.4
49252.4
37463.7
31846.9
29036.3
27958.6
27718.4
27967.4
28809.6
30721.2
33781.9
35901.6
33099.5
27444.6
22891.9
19900.5
17976.6
16694.2
15785.5
15086.6
14475
1.33223e+06
606489
461975
416012
401451
400622
404585
407224
398613
370173
319510
256943
196913
144911
108759
87584.8
67153
47903.3
33435.5
27085.4
26845.4
28036.9
28043.5
25760.4
21173.2
18645.3
17615.7
17134.8
16741.3
16420.3
16249.3
16198.8
16228.8
16333.1
16528.3
471864
251052
212401
200135
197031
198920
204157
211275
216427
210724
193049
166131
134416
98862.3
71053.8
49864.1
33134.1
20775
13315
9503.28
7713.45
7160.29
7161.22
7352.78
7723.51
8247.51
8893.36
9668.69
10580.9
11636
12827.7
14142.2
15559
17051.4
18580.1
58694.8
46301
46844.3
48527.1
50245.5
51464.3
51794
51283.5
49523.1
45428.4
39168.7
32543.4
26400
20560
15786.2
12189.1
9466.52
7525.48
6250.98
5515.54
5217.52
5216.26
5336.81
5651
6255.88
7148.12
8275.12
9554.46
10903.2
12250.6
13553.9
14833.9
16169.5
17662.7
19315.7
18010.5
5160.39
3600.46
3286.14
3286.87
3390.29
3523.28
3646.39
3736.99
3777.96
3767.69
3723.33
3658.32
3587.61
3544.43
3551.39
3611.91
3740.11
3973.59
4371.41
5027.8
6074.28
7560.1
9544.9
12038.4
15119.7
18799.6
22992.2
27537.9
32194
36600.9
40510.7
43801.1
46409.8
48400.6
13028.1
6583.41
4936.61
4183.93
3740.61
3445.58
3241.02
3093.58
2986.4
2911.65
2871
2870.64
2904.4
2982.89
3119.56
3314.88
3592.09
3990.15
4553.33
5348.81
6463.06
7914.7
9627.06
11568.6
13801.9
16433.7
19372.4
22500.5
25680.8
28776.4
31680.8
34328.3
36688.2
38757.2
40550.5
29883.9
9625.43
6075.66
4770.85
4093.19
3681.49
3414.41
3239.72
3132.41
3080.6
3080.45
3129.54
3244.06
3435.16
3701.53
4037.22
4476.28
5045.84
5778.75
6716.34
7946.98
9535.07
11456.1
13724.7
16265.9
18895.9
21459.8
23893.5
26187.1
28351.6
30411.5
32358.8
34169
35849.9
37400.1
22472
9249.25
6253.03
4985.9
4287.81
3854.6
3573.6
3395.03
3294.8
3261.35
3289.94
3384.24
3556.49
3820.33
4177.58
4613.09
5157.41
5831.87
6657.29
7693.81
8984.27
10451.5
11893
13189
14527.7
16014.8
17623.4
19297.2
20981.2
22633.5
24235.8
25787.6
27287
28729.2
30108.5
33341.4
11129.4
7067.32
5498.43
4669.42
4166.96
3846.21
3644.67
3532.93
3497.65
3534.05
3645.08
3835.58
4115.07
4482.49
4916.64
5429.6
6030.15
6746.68
7623.01
8706.63
9991.61
11362.4
12759.7
14149.3
15545.6
16931
18311.7
19679.8
21024.2
22333.4
23596.7
24806.8
25956.6
27040
30743.9
11236.2
7278.69
5678.74
4820.3
4299.78
3970.53
3767.31
3659.23
3632.26
3678.63
3797.49
3999.19
4300.38
4688.14
5131.53
5649.89
6244.12
6925.98
7712.7
8615.81
9596.73
10587.8
11586.2
12611.2
13658.9
14715.5
15769.3
16811.7
17835.6
18834.6
19802.7
20732.6
21619.5
22460.2
35490.1
12036.9
7652.99
5927.53
5014
4465.65
4122.05
3909.82
3795.2
3760.8
3801.07
3917.96
4118.27
4414.96
4789.77
5209.45
5683.56
6216.86
6815.21
7485.89
8245.4
9084.13
9951.94
10832.9
11709.3
12568.5
13416.2
14249
15061.8
15849.5
16607.1
17329.9
18016.3
18665.2
19275.8
34838
12243
7820.61
6051.15
5107.79
4539.69
4184.04
3968.92
3858.37
3831.46
3882.34
4012.18
4228.03
4542.16
4931.78
5359.21
5828.52
6335.97
6880.01
7462.51
8080.49
8710.91
9321
9927.67
10536.9
11145.9
11750
12344.3
12924.3
13486.2
14027
14544.7
15038.3
15507.5
15953
36811.9
12628.7
8027.37
6203.74
5234.97
4651.35
4283.8
4057.83
3937.26
3903.48
3949.42
4076.25
4290.73
4604.93
4995.24
5421.12
5882.88
6371.74
6880.85
7406.37
7946.33
8480.34
8989.23
9472.1
9932.91
10377.9
10810.1
11230.2
11637.3
12029.7
12405.4
12762.5
13100.5
13419.4
13719.9
36802.8
12845.1
8173.02
6305.56
5312.01
4715.29
4342.15
4115.01
3994.3
3960.3
4006.2
4133.73
4349.9
4667.17
5062.62
5495.58
5965.05
6458.78
6963.41
7466.43
7958.45
8414.42
8816.14
9176.11
9507.47
9817.64
10111.4
10391.6
10659.2
10914.8
11158.4
11389.8
11609.3
11817.1
12013.6
37650.3
13030.9
8293.47
6402.5
5396.46
4790.73
4409.04
4171.98
4043.22
4003.37
4044.55
4168.27
4381.48
4696.03
5090.51
5525.18
5998.89
6497.9
7006.78
7509.42
7991.25
8423.64
8789.95
9098.95
9363.11
9594.71
9802.63
9992.91
10169.4
10334.6
10489.6
10635.3
10772.2
10900.5
11020.7
37800.1
13213.1
8420.83
6501.12
5476.48
4857.05
4464.77
4220.7
4086.67
4042.03
4077.69
4195
4400.81
4710.27
5102.74
5538.24
6016.23
6523.6
7044.36
7560.41
8053.37
8485.89
8836.78
9117.78
9344.89
9530.49
9685.35
9817.87
9934.04
10037.9
10132
10218.1
10297.3
10370.4
10438
37962.9
13283.4
8474.75
6547.69
5519.12
4896.89
4501.95
4254.76
4116.93
4067.74
4097.29
4206.99
4403.46
4701.21
5082.48
5510.41
5985.99
6497.35
7028.75
7560.93
8072.55
8522.98
8885.88
9169.13
9387.58
9556.63
9688.89
9793.43
9877.31
9946.15
10004
10053.5
10096.5
10133.9
10166.8
37977.9
13371.4
8554.76
6615.56
5577.21
4947.19
4545.66
4292.28
4148.17
4092.28
4113.2
4211.94
4395.31
4676.61
5040.95
5454.64
5920.37
6428.35
6964.34
7509.47
8041.31
8514.74
8898.02
9196.93
9424.95
9596.22
9723.44
9817.79
9888.13
9940.78
9980.2
10009.9
10032.4
10049.3
10061.8
38001.7
13428.6
8609.25
6664.66
5621.61
4987.38
4581.7
4323.7
4174.03
4111.54
4123.34
4210.03
4376.96
4637.15
4978.01
5369.33
5815.51
6309.26
6838.77
7386.99
7932.25
8427.72
8836.11
9157.73
9403.88
9588.22
9724
9822.83
9893.84
9944.16
9979.29
10003.2
10018.7
10027.7
10031.5
37973.8
13493.7
8673.89
6721.68
5671.66
5031.4
4620.12
4356.43
4200.23
4130.34
4132.1
4205.4
4354.29
4590.43
4903.14
5265.76
5684.09
6153.41
6664.66
7203.31
7749.46
8256.52
8684.24
9029.34
9299.1
9504.43
9657.44
9769.23
9849.52
9906.08
9944.87
9970.33
9985.92
9994.02
9996.66
37943.2
13545.8
8728.03
6770.94
5716.02
5071.23
4655.51
4387
4224.89
4147.54
4139.82
4199.54
4329.64
4539.95
4821.21
5150.24
5533.8
5969.59
6451.34
6967.35
7500.18
8004.86
8439.15
8797.13
9084.18
9309.11
9481.67
9611.58
9707.62
9777.23
9826.48
9860.29
9882.43
9895.74
9902.34
37898.4
13600.1
8784.49
6821.67
5761.16
5111.4
4691
4417.63
4249.69
4165.02
4148.2
4194.59
4306.08
4490.19
4738.6
5031.3
5375.61
5771.3
6214.7
6697.05
7203.74
7692.78
8121.69
8482.05
8776.54
9011.9
9196.58
9339.35
9448.31
9530.59
9592.06
9637.3
9669.9
9692.68
9707.82
37850.2
13647.6
8835.25
6867.97
5802.87
5148.97
4724.62
4447.07
4274
4182.72
4157.68
4191.78
4285.36
4443.96
4659.64
4915.17
5218.01
5569.6
5968.61
6409.06
6879.35
7341.45
7754.15
8107.27
8401.29
8640.94
8833.09
8985.21
9104.51
9197.37
9269.21
9324.44
9366.56
9398.34
9421.97
37794.3
13692.4
8883.67
6912.1
5842.63
5184.87
4756.91
4475.62
4298
4200.85
4168.42
4191.25
4268.56
4403.36
4587.76
4806.96
5068.23
5374.29
5725.77
6119.23
6545.97
6972.56
7360.2
7697.71
7983.8
8221.42
8415.82
8573.18
8699.64
8800.79
8881.47
8945.72
8996.79
9037.28
9069.32
37729.9
13730.1
8926.46
6951.74
5878.78
5217.89
4787.02
4502.69
4321.3
4219.2
4180.47
4193.48
4256.26
4369.5
4525
4709.95
4931.21
5192.46
5495.87
5840.22
6219.5
6605.1
6961.45
7276.98
7549.05
7779.08
7970.88
8129.3
8259.42
8366
8453.24
8524.7
8583.31
8631.46
8671.08
37651.4
13760.7
8963.74
6986.91
5911.24
5247.88
4814.71
4527.99
4343.62
4237.48
4193.55
4198.28
4248.53
4342.78
4472.34
4626
4810.06
5028.82
5285.71
5581.35
5912.17
6254.29
6575.85
6865.35
7119.22
7337.59
7522.97
7679.02
7809.77
7919.13
8010.65
8087.37
8151.85
8206.19
8252.21
37556.9
13781
8993.83
7016.59
5939.31
5274.3
4839.53
4551.08
4364.56
4255.29
4207.07
4205.21
4245.09
4322.96
4429.88
4555.75
4706.19
4885.91
5099.32
5348.58
5632.24
5930.93
6216.65
6478.33
6711.75
6916.04
7092.6
7244
7373.32
7483.64
7577.85
7658.47
7727.69
7787.14
7838.51
37419.3
13789.5
9017.03
7040.98
5963
5296.99
4861.19
4571.62
4383.67
4272.17
4220.46
4213.65
4244.98
4309.4
4397.14
4498.93
4619.74
4764.54
4938.46
5144.97
5384.45
5641.71
5892.55
6126.52
6339
6528.36
6695.03
6840.65
6967.39
7077.59
7173.49
7257.1
7330.18
7394.22
7450.5
507.527
389.654
286.256
199.773
129.948
82.4893
66.2515
70.5129
60.2133
64.6659
102.182
178.445
303.312
523.877
926.462
1603.57
2531.61
3621.41
4761.71
5859.67
6903.9
8003.8
12914.5
11247.1
9607.57
8006.6
6453.31
4987.91
3849.53
3066.71
2584.76
2444.19
2572.55
3291.18
4614.96
5926.13
9353.8
18128.5
31479.7
46794.3
63177.9
79490.9
91275
95563.5
13718.4
12876.4
12254.4
12028
12366
13578.9
16250.6
21739.5
32448.1
52072.7
84346.5
126517
163381
181699
190917
209698
250401
325226
445807
623318
845281
1.07722e+06
16866.8
17464.4
18285.9
19379
20787.4
22544.1
24522.9
26613.3
28848.6
31338.1
34424.4
38732.9
43053.5
49404
60180.5
77973.7
105555
145799
201498
272888
356447
444473
20657.1
23685.9
27333.6
31690
36840.1
43007.6
50489.5
59594.8
71249.6
86565.4
105776
126166
142545
151947
155290
155719
156712
160853
169771
183863
202819
226404
21506.5
24837.6
29229.9
34952.8
42240.1
51228.8
61633.5
71606.4
80240.6
87448.1
93881.5
100726
108530
116656
124577
132037
138536
143562
148110
153917
161216
169801
50275
51975.2
53615.5
55604.8
58150.3
61355.8
65274.7
69962.9
75267.2
80968.8
86959.8
93418.8
100145
106592
112300
116941
120421
122955
124911
126717
128696
131209
42780.5
45524
48241.8
50971.7
53752.9
56648.1
59677.9
62824.2
66142.7
69745.7
73567.5
77494.3
81248.7
84630.6
87576.9
90125.4
92359.6
94279.3
95933.7
97405.7
98784.3
100149
39461.9
42212.5
45081
48035.3
51037.9
54051.8
57045.9
59994
62878.1
65673.1
68309.7
70671
72653.4
74217.8
75402.2
76271.6
76914.9
77402.4
77777.8
78100.4
78425.1
78741.6
32021.3
34645.9
37447.9
40387.5
43408.7
46441.5
49402.6
52195.1
54696.4
56854
58694.9
60226.5
61389.6
62199.7
62720
63024.1
63176.6
63229
63231
63222.1
63230.5
63270.7
28538
30644.8
32937.6
35402.4
38007.3
40700.4
43424.9
46076.6
48549.1
50717.3
52519.6
53887.8
54779.6
55225.7
55334.9
55201
54903.9
54519.4
54108.4
53717.1
53376.8
53106.2
23675.8
25419.4
27328.8
29396.9
31606.7
33937.5
36334.5
38727.5
41040.8
43194.5
45100.8
46665.4
47801
48503.4
48819.7
48833.6
48612.2
48228.4
47749.5
47233.4
46725.6
46262.8
20176.9
21507.7
22980.8
24600.6
26365
28264.7
30280.7
32370.9
34481.6
36536.8
38464.1
40173.1
41556.7
42571.5
43231.9
43571.7
43637.3
43484
43167.3
42742.5
42259.6
41765.7
16642.5
17685.3
18846.5
20133.6
21550.9
23096.6
24760.9
26523.7
28354.6
30212.2
32044.9
33778.5
35307.4
36568
37548.5
38252.1
38695.5
38906.2
38919.6
38781
38521.1
38188.7
14193.3
14933.4
15769.8
16712.2
17768
18942.2
20235.6
21642.7
23149.9
24734.2
26362.5
27979.9
29493.9
30835.9
31980.6
32908.3
33635.4
34170.8
34518.8
34702.1
34745
34684.3
12332.9
12843.7
13427.4
14093.9
14851.6
15708.5
16670.3
17740.2
18916.2
20190.3
21546.5
22949.4
24326.5
25616.2
26791.4
27831.5
28724.3
29464.9
30054
30498.8
30811.2
31011
11216
11539.6
11918.1
12360.4
12874.4
13467.9
14148.3
14921.7
15792.1
16759.7
17820.3
18954.8
20111.8
21242.1
22321.8
23330.2
24250.9
25072.1
25786.9
26393.1
26892.7
27292.2
10548.6
10738.9
10968.8
11246.2
11578.2
11971.9
12434.8
12973.6
13594.3
14301.1
15095.5
15969.3
16888.2
17816.2
18735.4
19628.5
20480.4
21278.1
22012.1
22675.8
23266.3
23781.7
10219.1
10314.7
10437.8
10595
10792.6
11037.5
11336.3
11695.7
12122
12620.8
13196.2
13845.9
14547.7
15276.5
16019.5
16764.2
17498.6
18211.4
18893.3
19536.9
20137.1
20687.3
10080.1
10116.6
10169.9
10245.7
10349.8
10488.5
10668.3
10895.5
11176.3
11516.8
11921.9
12392.6
12914.9
13471.1
14052.8
14650.9
15256.6
15861.4
16457.4
17037.8
17597.7
18128.4
10035.5
10043.1
10058
10084.9
10129.5
10197.4
10295
10428.4
10603.9
10827.5
11104.9
11438.5
11820.1
12237.4
12684.5
13154.9
13642.4
14140.6
14643.3
15145.2
15642
16124.8
10000.9
10004.8
10008
10014.4
10028.8
10056.7
10103.9
10176.5
10280.8
10423
10608.8
10842.2
11118.7
11430
11771.7
12139.4
12528.5
12934.1
13351.8
13777.3
14207.2
14633.4
9916.73
9936.14
9948.84
9957.74
9966.68
9980.41
10004.3
10044.3
10106.5
10197.2
10322.6
10487.3
10689.8
10924.5
11188.7
11478.9
11791.9
12124.1
12472
12832.3
13202.4
13575.2
9742.57
9792.38
9830.51
9859.28
9881.91
9902.34
9925.09
9955.59
9999.85
10064.2
10155.1
10277.6
10432.3
10615.7
10826.4
11062
11320.2
11598.1
11893.2
12202.8
12525
12853.6
9477.63
9560.66
9630.45
9688.37
9736.84
9778.66
9816.78
9855.67
9900.82
9958.19
10034.9
10136.4
10264.2
10416.8
10593.7
10793.5
11014.6
11255.1
11512.9
11785.8
12072.4
12367.5
9144.51
9259.87
9361.74
9450.41
9526.96
9593.65
9653.63
9711.39
9770.62
9836.16
9914.13
10010.2
10126.7
10263.5
10421.1
10599.1
10796.8
11012.6
11245.1
11492.6
11753.8
12024.6
8763.1
8907.47
9039.73
9159.42
9266.72
9362.64
9449.15
9529.22
9606.66
9685.9
9772.68
9872.06
9986.56
10116.8
10264.4
10429.7
10612.5
10812.1
11027.3
11256.9
11499.9
11753
8357.33
8524.5
8682
8828.73
8964.11
9088.21
9201.92
9307.05
9406.41
9503.78
9603.94
9711.69
9829.44
9958.5
10101.2
10258.7
10431.5
10619.4
10821.8
11037.7
11266.3
11505.3
7952.71
8135.44
8311.48
8479.37
8637.9
8786.39
8924.85
9054.08
9175.82
9292.82
9408.92
9528.09
9652.28
9783.19
9923.85
10076.3
10241.5
10419.9
10611.3
10815.2
11030.9
11257.2
7570.56
7762
7949.83
8132.42
8308.17
8475.86
8634.79
8784.91
8927
9062.79
9195.05
9326.71
9458.87
9593.27
9733.45
9882.03
10040.7
10210.5
10391.7
10584.1
10787.3
11001.1
9659.28
10738.7
10756.6
7964.45
4180.8
2541.99
98541
102128
103950
102748
97114.2
81815.8
1.29773e+06
1.43393e+06
1.42779e+06
1.29047e+06
1.05893e+06
787595
534150
607591
650317
656918
625065
555368
253266
279397
299502
311419
313750
307597
179425
188342
195198
199218
200228
198556
133963
136195
137758
138316
137810
136334
101056
101150
100969
100394
99406
98064.2
78702.7
78021.2
77311.2
76492.3
75528.4
74432
63005.9
62238.4
61493.5
60733.2
59943.4
59103.9
52593
51766.4
51005.8
50281.6
49575.1
48867.8
45592.9
44708.1
43893.2
43147.4
42458.1
41810.4
41035.7
40104.2
39235.9
38443.7
37724.7
37076.6
37573.1
36730.4
35910.7
35139.7
34427.7
33786
34299.4
33654.7
32995.5
32349.6
31734
31168.7
30874.7
30471.2
30018.5
29549.3
29083.3
28647
27359.5
27171.8
26923.7
26647.1
26357.9
26071.6
23994.8
23961
23887.6
23782.6
23659.9
23528.9
20988.3
21065.1
21115.7
21141.9
21153.7
21154.5
18466.1
18613.7
18748.2
18867.7
18980
19084.7
16467.7
16659.1
16849.9
17036.1
17224.4
17412
14965.6
15186.4
15416.8
15651.8
15897.2
16148.7
13892.3
14134.4
14393.9
14664.6
14951.1
15247.6
13155.9
13412.8
13691
13983.9
14293.9
14615.1
12656
12919.1
13204
13503.3
13818.1
14141.7
12299.4
12558.6
12837
13127.3
13429.1
13735.9
12012.9
12258.2
12518.3
12786.7
13061.7
13337.7
11748.6
11971.8
12205
12442.6
12682.2
12919.6
11481.7
11677.9
11879.4
12081.8
12282.2
12477.9
11205.7
11372.6
11540.7
11707
11868.6
12021.5
2292.89
3046.39
3991.49
4369.37
2693.15
636.727
342.084
415.678
516.328
621.048
719.883
798.536
845.05
828.706
711.743
612.131
537.822
498.656
495.025
535.227
626.273
771.452
60896.1
41045.6
27803.5
24514.3
25167
30407
37420.4
45119.6
53171.5
61128.1
67855.9
72995.6
76361.5
72205.3
57041
44322.8
34275.6
26979.4
21746.1
18065.1
15557.8
14005.1
552961
371749
244402
179316
184235
253943
371154
526456
701630
859006
940712
903120
748112
557348
395562
278069
201693
154064
123792
103274
87670
74884.1
464452
377144
311583
268721
249443
254276
280073
320847
359439
381798
382935
368840
335492
288686
234662
182381
139171
106294
81902.9
66629
58731.9
55667.6
293161
278161
259024
241239
229895
227428
230204
233630
230482
218589
204534
191307
178796
167356
158207
153406
154882
165822
186900
210259
230930
244253
194061
188304
182673
177927
173157
167122
159989
152374
144172
135741
127938
121389
116434
113246
111559
111054
111515
110471
107320
101608
93133.1
81816.8
133536
129750
125858
121904
117761
113186
108010
102554
97131.4
91979.5
87325
83257.7
79725.5
76512.1
73298.8
69856.1
66026.5
61738.3
57119.8
52383.5
47709.3
43273.9
95998.1
93189
90261.1
87198.2
83959
80514.9
76880.1
73160.2
69460.3
65847
62333.3
58895.9
55540.6
52255.3
49000.5
45773.7
42596.1
39508.5
36561
33799
31258.4
28978.6
72920.8
70919.9
68863.3
66724.3
64471.5
62091.9
59626.7
57115.7
54584.8
52044.6
49492.1
46935.6
44436.2
42042.1
39758.9
37597.1
35566.3
33672.5
31915.7
30289.4
28780.1
27372.7
57947.9
56416.2
54816.1
53142.6
51395.6
49585.4
47728.2
45838.9
43929.8
42010.7
40089.9
38189.8
36369.9
34668.3
33087.7
31621.1
30263.2
29007.6
27848.3
26778
25797.6
24911.7
47930.3
46736.3
45504.8
44237.3
42936.6
41609.7
40265.4
38913.4
37563.4
36225.1
34907.7
33628.7
32425.9
31317.2
30297.2
29348.1
28459.5
27622.4
26829.7
26075.9
25357.2
24677.7
41017.9
40063.9
39098.8
38124.6
37142.1
36153.7
35163.4
34176.1
33196.7
32230.4
31281.1
30357.9
29483.7
28668.4
27902.4
27177.3
26487
25827.4
25196.8
24595.6
24022.4
23474.6
36355.5
35553.5
34764.7
33991.1
33232.6
32490.1
31765
31059.3
30374.7
29712
29070.7
28452.2
27866.6
27315.1
26787.5
26276.2
25776
25284.5
24801.4
24328.5
23868.1
23423.5
33103
32387.3
31700.4
31045.6
30423.5
29834.6
29279.4
28757.4
28267
27804.9
27365.7
26945.2
26546.3
26167.4
25802.4
25446.2
25092.8
24740.3
24388.5
24038.1
23689.1
23341
30546.1
29901.6
29293.8
28727.5
28204.3
27724.9
27288.9
26894.3
26536
26204.3
25889.8
25586.4
25295.7
25018
24756
24509.7
24275.8
24048.9
23824.1
23596.2
23360.1
23111.7
28112.7
27534.6
26991.7
26487.4
26024.1
25603.3
25225.5
24889.7
24593.5
24334.1
24112.2
23926.1
23775.4
23654
23552.2
23459.8
23367.1
23264.9
23144.9
22999.6
22823.7
22614.3
25640.6
25137.1
24666.8
24238.4
23860.1
23533.5
23256.3
23028.1
22848.2
22718.1
22637.6
22603.7
22606.4
22630.2
22659.5
22675.2
22663.1
22611.4
22505.8
22342.3
22118.9
21836.2
23226.6
22829.2
22468.6
22149.2
21876.7
21656.1
21491.4
21384.8
21337.7
21347.4
21408.4
21514.6
21638.6
21753.3
21835.6
21866.1
21833.4
21725.4
21533.9
21263.7
20920
20510.6
20979.2
20695.8
20453.7
20256.5
20110.5
20021.2
19992.2
20021.6
20111.1
20253.4
20431.4
20621.2
20787.9
20900.6
20939
20892.9
20752.1
20513.4
20185.9
19779.3
19305.7
18778.5
19028.4
18868.5
18752.3
18685.3
18672.9
18715.3
18817.1
18971.4
19167
19386
19603.2
19786.1
19898.1
19916.1
19834.2
19642.8
19348.2
18962.1
18498.1
17971.5
17397.7
16792.1
17463
17421.3
17428.2
17483.6
17591
17746
17941.8
18164.8
18395.8
18609.7
18777
18865.5
18848.7
18720
18476.7
18130.6
17695.9
17189.4
16628.4
16029.6
15408.5
14779
16293.7
16356.5
16466.6
16617.3
16804.3
17018.1
17244.3
17463.9
17653.4
17786.9
17837.7
17782.4
17607.8
17320.4
16933.9
16465.3
15933.1
15355.8
14750.5
14132.6
13514.8
12907.6
15462.9
15601.6
15776.5
15974.6
16186.2
16397.1
16589.5
16742.7
16834.9
16844.9
16753.3
16546.2
16226.2
15813
15325.3
14782.7
14204
13606.2
13003.8
12409
11831.2
11276.8
14867.8
15042.8
15236.2
15431.1
15615
15772
15884.6
15935
15907.4
15786.4
15560.9
15227.5
14800.6
14306.8
13765.8
13196.5
12615.4
12036.3
11470.2
10925.5
10408.3
9921.59
14399.5
14570.8
14741.2
14892.6
15012.3
15084.8
15098.6
15039.6
14896.7
14662.2
14332.6
13911.9
13422.1
12891.6
12339
11779.9
11227.6
10692.2
10181.1
9699.5
9250.55
8834.59
13971.9
14108.7
14227.5
14311.4
14349.4
14332.5
14249.6
14092.4
13855.7
13537.5
13139.7
12671.2
12157.3
11625.5
11091.1
10566.5
10061.1
9581.74
9132.77
8716.69
8334.55
7984.89
13534.4
13618.5
13670.9
13681.3
13640.4
13540.5
13375.8
13142.4
12839.5
12469.2
12036.5
11553
11044.3
10535.2
10037.5
9560.2
9109.47
8689.25
8301.56
7947.02
7625.21
7333.56
13068.5
13092.6
13080.8
13022.3
12911.8
12744.9
12519.1
12234.1
11891.9
11497
11056.1
10581.4
10097.2
9624.91
9173.02
8747.46
8351.87
7988.01
7656.24
7355.89
7085.65
6842.44
12577.3
12546.3
12476
12360
12195.3
11980.2
11714.6
11400.4
11041.4
10643.1
10212.9
9762.39
9313.77
8884.72
8481.02
8106.19
7761.92
7448.5
7165.15
6910.47
6682.66
6478.51
12075.8
11997.3
11880
11720.9
11518.7
11273.5
10986.8
10661.7
10302.9
9916.2
9508.62
9090.92
8682.52
8297.86
7940.51
7612.21
7313.3
7043.08
6800.14
6582.7
6388.79
6215.32
923.612
1063.31
1236.42
1452.67
1718.04
2041.46
2432.49
2908.92
3512.26
4274.82
5169.4
6258.4
7638.46
9372.54
11493.5
14062.8
17136.6
20858.6
25319.5
30380.4
33993.6
35656.5
37836.3
37990.3
33411.9
27167.9
22700
20325.6
19958.7
21237.3
23516
26027.5
29638.8
54330.4
452546
13418.7
13114.4
13025.3
13105.7
13369.8
13816.2
14437.3
15218.2
16121.9
17133.7
18289
19641.6
21286
23404.3
26381.8
30539.7
35973.9
44001.5
56119.2
69888.3
81421.3
102309
148304
221883
273370
268568
247029
225368
213290
213687
228299
270428
370210
662136
2.38006e+06
66140.8
59860.2
54192.8
49167.9
44814
41130.9
38124.5
35765.3
34005.8
32789.4
32212.2
32212.2
32439.8
32832.1
33097.4
33219.9
33349.8
34190.4
36690
43593.9
65112.3
133477
280486
492337
706898
825675
826961
767268
694633
632443
590316
575658
624342
845432
2.21359e+06
55074.6
54953.3
55838
56785.5
54639.1
47508.8
38494.2
30208.5
23870.5
19293
16135.6
14419.8
13956.1
15221.1
20618.2
32326
47623.7
62167.5
72237.6
88290
116387
160266
215258
273532
335878
390877
423794
434145
432895
429488
431006
446871
496212
653375
1.44494e+06
245585
241022
228311
205763
174570
138128
100508
67503.9
42353.1
25697.1
16008.6
11127.8
9431.34
9528.04
11499.9
15936.7
23337.5
33921.9
46160.8
59478
73694.9
91915.2
119185
155743
192741
218812
229240
227087
217597
209839
206414
208535
221418
262588
494232
71558.4
63575.8
54469.3
44879.9
35874.2
27824.6
21390.4
16585.5
13132.7
10700.4
8942.6
7627.7
6941.97
6721.05
6769.82
7196.55
8130.56
9550.78
11470.7
13975.4
17122.5
21175
26455.2
32515.4
39130.4
45763.1
50465.2
52576.6
53173.6
52852.3
51608.3
49877.4
48287.2
47840.5
60785.7
40471.2
38744.2
37058.6
35314
33241
30604.1
27359.7
23361.1
19046.4
14926.8
11688.3
9524.88
8128.4
7152.27
6400.61
5833.43
5396.65
5042.34
4744.98
4497.61
4312.22
4213.43
4176.57
4171.05
4175.47
4161.4
4108.63
4016.57
3897.07
3771.11
3691.97
3748
4182.78
6116.88
21505.3
27405.3
26301
25156.8
23975.5
22752
21405.6
19914.2
18351.2
16824.5
15440
14177
13008.4
11748.2
10160.4
8597.91
7298.09
6297.06
5524.04
4904.24
4405.13
4011.68
3696.99
3493.59
3373.04
3326.77
3335.18
3401.95
3521.87
3697.93
3950.34
4312.3
4851.27
5756.51
7751.94
15907.9
26419.2
25762.4
25133
24534.4
23949.8
23327.2
22593.7
21716.2
20630.4
19230.3
17541.7
15586
13623.3
11869.2
10332.3
9014.18
7902.77
6951.6
6140.83
5456.84
4885
4402.66
4041.26
3806.66
3671.66
3620.63
3640.34
3737.35
3923.94
4229.21
4716.59
5537.08
7134.85
11467.6
36063.8
24272.1
23785.2
23252.3
22662.2
22010.2
21290.1
20494.8
19619.6
18665
17662.4
16672
15728.9
14739
13467.3
11989.8
10520.8
9203.13
8051.8
7055.74
6200.39
5476.73
4858.73
4383.99
4061.63
3856.8
3752.51
3738.07
3814.76
3993.26
4299.93
4791.51
5596.93
7067.77
10558
26134.5
24164
23750.9
23289.2
22775.5
22207.3
21581.4
20894.8
20143.7
19322.3
18419.5
17413.3
16293.2
15026.8
13656.2
12254.4
10899.2
9654.59
8523.84
7511.96
6621.71
5854.32
5186.51
4662.74
4296.75
4050.98
3915.35
3882.15
3950.58
4133.33
4462.83
5010.7
5945.04
7744.68
12430.6
37985.3
23046.1
22705.1
22318
21883.6
21400.7
20867.7
20282.7
19643.3
18946.6
18189.6
17367.8
16471.9
15474.9
14309.4
12960.1
11553.1
10212.2
8978.84
7874.36
6906.09
6072.9
5350.62
4786.44
4393.1
4128.9
3977.6
3930.18
3985.93
4156.68
4473.73
5004.85
5906.81
7611.82
11844.9
32785.5
23063.9
22764.8
22424.8
22041.6
21612.4
21133.8
20601
20007
19342
18592
17737.9
16755.7
15617
14323.3
12920.8
11502.3
10176.2
8962.46
7874.18
6916.71
6089.26
5368.74
4804.21
4411.44
4153.11
4007
3962.63
4019.7
4191.18
4510.89
5050.43
5976.57
7761.78
12363.3
37027.3
23048.9
22804.4
22534
22220.6
21854.6
21428.2
20932.2
20355.8
19687
18912.3
18017.7
16992.2
15829.8
14527.7
13092.7
11634.3
10267.7
9020.26
7907.1
6932.87
6095.22
5369.32
4802.72
4408.51
4146.67
3992.52
3935.74
3980.57
4141.51
4450.97
4977.24
5880.56
7607.95
11964.5
34175.1
22897.2
22716.8
22494.3
22222.8
21894
21496.6
21017.6
20442.6
19756.4
18943.6
17991.1
16886.9
15625.3
14211.8
12693.2
11209
9853.95
8642.06
7577.38
6656.25
5870.88
5194.29
4668.49
4305.1
4068.08
3936.3
3899.96
3958.71
4126.93
4438.29
4962.53
5860.54
7583.92
11977.3
35100.8
22428.5
22281.8
22089.7
21842.2
21527.9
21134.7
20650.1
20059.5
19343
18486.5
17479.2
16318.7
15015.7
13596.8
12112.3
10680.6
9386.99
8242.17
7245.08
6388.3
5661.19
5036.53
4552.14
4218.35
4001.9
3883.23
3853.12
3911.38
4077.71
4385.99
4904.07
5788.88
7475.99
11727.4
33577.5
21597.2
21427.9
21213.5
20942.9
20603.9
20183.2
19666.6
19039.9
18290.4
17409
16392.4
15245.8
13983.2
12627.3
11224.9
9894.79
8714.76
7683.94
6794.18
6033.46
5388.92
4834.75
4404.15
4107.96
3918.67
3820.98
3808.99
3883.67
4060.87
4374.26
4892.89
5773.56
7448.82
11670.9
33616.5
20191.9
19986.5
19735.9
19431.1
19062.2
18618.2
18087.9
17460.4
16726.5
15880.3
14921.1
13855.5
12698.7
11475.4
10229.6
9062.49
8034.08
7139.24
6367.61
5706.63
5144.2
4657.98
4278.43
4017.6
3853.13
3773.02
3773.53
3857.1
4042.02
4360.56
4879.69
5753.13
7405.35
11545.8
32800.9
18395.6
18165.2
17892.9
17571.7
17193.7
16750.3
16233.2
15634.9
14949.4
14173.8
13309.8
12364.7
11353.1
10296.4
9231.11
8240.3
7371.06
6615.52
5962.13
5398.96
4915.72
4494.17
4162.64
3934.77
3793.35
3729.65
3741.61
3833.91
4025.07
4347.44
4867.55
5737.76
7377.82
11478.1
32522.6
16374.9
16137.4
15864
15549.5
15187.5
14771.9
14296.5
13756.5
13148.2
12470.9
11727.1
10924.3
10074.8
9196.12
8316.69
7501.89
6786.27
6160.52
5614.24
5137.7
4723.43
4357.65
4067.54
3868.38
3747.34
3698.36
3720.69
3821.31
4018.2
4343.41
4863.97
5730.93
7357.28
11396.7
32007.7
14362.7
14135.3
13878.7
13588.8
13261.2
12891.5
12475.3
12009.3
11491.8
10922.9
10305.6
9646.21
8954.56
8243.56
7533.97
6875.36
6293.2
5778.77
5323.35
4919.79
4563.5
4244.83
3990.09
3815.79
3712.69
3676.94
3709.19
3817.21
4019.25
4348.29
4871.13
5737.78
7358.15
11371.9
31794.4
12519
12313.6
12085
11830.4
11546.4
11230
10878.5
10489.8
10063
9598.94
9100.23
8571.81
8021.04
7456.09
6891.9
6364.86
5893.49
5470.22
5088.53
4743.94
4434.63
4154.5
3929.28
3776.23
3688.87
3665.19
3706.1
3821.25
4029.29
4363.06
4889.57
5758.34
7376.64
11368.1
31596.2
10931.2
10753.2
10557.2
10341
10102.4
9839.34
9550.04
9233.38
8889.05
8517.89
8122.06
7705.11
7271.84
6827.71
6381.63
5959.95
5576.31
5224.76
4901
4603.03
4331.39
4082.85
3882.49
3747.77
3674.25
3661.41
3710.23
3832.34
4046.07
4384.48
4914.87
5786.54
7405.2
11384.6
31494.2
9624.64
9474.31
9310.23
9130.69
8934.15
8719.27
8484.98
8230.67
7956.35
7662.78
7351.53
7024.96
6685.9
6337.09
5983.34
5643.26
5327.18
5030.8
4751.86
4490.45
4249
4026.46
3847.25
3728.63
3667.81
3664.39
3720.82
3849.63
4069.02
4412.49
4947.68
5824
7446.47
11421.6
31441.4
8584.98
8459.88
8324.19
8176.61
8016.13
7841.89
7653.3
7450.06
7232.32
7000.7
6756.24
6500.27
6234.08
5958.31
5674.73
5396.32
5131.26
4876.79
4632.4
4399.84
4182.94
3982.25
3821.35
3716.9
3667.25
3672.74
3736.61
3871.79
4096.59
4445.06
4985.12
5866.45
7493.86
11469.1
31431.9
7777.43
7673.58
7561.47
7440.12
7308.87
7167.24
7014.9
6851.79
6678.09
6494.26
6300.9
6098.53
5887.24
5666.16
5434.87
5202.39
4975.57
4752.98
4535.5
4326.13
4129.63
3947.73
3803.13
3711.78
3672.28
3685.74
3756.68
3897.95
4128.07
4481.62
5026.94
5914.14
7548.28
11528.1
31452.9
7161.4
7074.38
6980.78
6879.85
6771.21
6654.6
6529.92
6397.21
6256.69
6108.64
5953.33
5790.67
5619.89
5439.05
5246.24
5047.8
4849.74
4651.7
4455.63
4265.38
4086.31
3920.94
3790.93
3711.33
3681.48
3702.4
3780.02
3927.06
4162.27
4520.79
5071.39
5964.69
7606.36
11593.7
31500
6698.46
6623.96
6544.05
6458.18
6366.17
6267.92
6163.47
6052.95
5936.58
5814.54
5686.82
5552.94
5411.52
5259.91
5095.29
4922.15
4746.01
4567.32
4388.78
4214.77
4050.98
3900.44
3783.77
3715.03
3694.08
3721.9
3805.77
3958.28
4198.36
4561.72
5117.57
6017.16
7666.93
11663.6
31561
6356.07
6290.14
6219.59
6144.06
6063.48
5977.9
5887.47
5792.37
5692.84
5589.01
5480.7
5367.16
5246.64
5116.08
4972.09
4817.99
4658.93
4495.94
4332.18
4172.34
4022.23
3885.21
3780.93
3722.13
3709.35
3743.53
3833.22
3990.83
4235.51
4603.48
5164.41
6070.12
7727.95
11734.5
31629.9
6108.6
6047.73
5982.76
5913.46
5839.9
5762.22
5680.64
5595.46
5506.92
5415.14
5319.87
5220.22
5114.25
4998.67
4869.83
4730.3
4584.88
4434.98
4284.01
4136.77
3999.04
3874.36
3781.3
3731.78
3726.54
3766.58
3861.69
4023.95
4272.95
4645.32
5211.13
6122.75
7788.19
11803.1
31683.6
37284.7
13793.3
9035.14
7061.48
5983.5
5317.14
4880.96
4590.91
4402.19
4289.2
4234.86
4224.06
4248.13
4300.66
4370.61
4449.75
4542.23
4653.12
4788.17
4952.08
5146.98
5361.9
5576.63
5781.56
5971.82
6145.11
6300.98
6440.14
6563.89
6673.81
6771.45
6858.31
6935.71
7004.81
7066.62
37087.9
13777.1
9041.11
7072.67
5997.15
5332.17
4896.77
4607.19
4418.63
4305.18
4249.4
4235.97
4254.64
4297.61
4352.69
4412.18
4479.35
4559.31
4658.32
4782.18
4934.71
5109
5288.87
5465.67
5634.45
5792.35
5938.11
6071.58
6193.22
6303.79
6404.21
6495.38
6578.17
6653.38
6721.75
36837.9
13740.4
9034.48
7074.55
6002.54
5339.81
4906.3
4618.19
4430.62
4317.68
4261.72
4247.17
4262.75
4299.45
4344.13
4388.94
4436.62
4492.15
4562.16
4653.34
4770.98
4911.66
5062.71
5216.48
5368
5514
5652.59
5782.84
5904.47
6017.55
6122.39
6219.37
6308.93
6391.52
6467.62
36541.1
13683.4
9014.37
7066.49
6000.34
5341.03
4909.81
4623.6
4437.79
4326.3
4271.2
4256.77
4271.2
4304.47
4342.39
4377.03
4410.42
4447.41
4494.88
4560.25
4650.09
4763.97
4892.24
5028.16
5166.88
5304.81
5439.5
5569.4
5693.54
5811.39
5922.68
6027.33
6125.38
6216.96
6302.28
36213.4
13612.8
8984.44
7050.28
5991.01
5336.05
4907.98
4624.21
4440.4
4330.8
4277.45
4264.14
4278.98
4311.14
4345.44
4373.69
4397.3
4420.93
4451.6
4497.35
4565.85
4659.17
4770.23
4893.19
5023.33