/*--------------------------------*- C++ -*----------------------------------*\
  =========                 |
  \\      /  F ield         | OpenFOAM: The Open Source CFD Toolbox
   \\    /   O peration     | Website:  https://openfoam.org
    \\  /    A nd           | Version:  8
     \\/     M anipulation  |
\*---------------------------------------------------------------------------*/
FoamFile
{
    version     2.0;
    format      ascii;
    class       volScalarField;
    location    "0.37";
    object      rho;
}
// * * * * * * * * * * * * * * * * * * * * * * * * * * * * * * * * * * * * * //

dimensions      [1 -3 0 0 0 0 0];

internalField   nonuniform List<scalar> 
15677
(
1.3014
1.3013
1.30097
1.30069
1.30036
1.3
1.2996
1.29916
1.29868
1.29818
1.29763
1.29699
1.29621
1.2954
1.29486
1.29467
1.29468
1.29477
1.29482
1.29478
1.29473
1.29467
1.29466
1.29471
1.29485
1.29505
1.2952
1.29531
1.29536
1.29536
1.29533
1.29528
1.29522
1.29518
1.29513
1.09228
1.09183
1.09114
1.09027
1.08941
1.08863
1.08793
1.08727
1.08659
1.08593
1.08537
1.0854
1.08598
1.08724
1.08828
1.08883
1.08903
1.08901
1.08881
1.08843
1.08796
1.08747
1.08696
1.08649
1.0861
1.0858
1.08552
1.08527
1.08505
1.08487
1.08474
1.08465
1.08459
1.08454
1.08448
1.22755
1.22769
1.22771
1.2276
1.22731
1.2268
1.22603
1.22508
1.22407
1.22322
1.22291
1.22285
1.22354
1.22511
1.22645
1.22712
1.22794
1.22901
1.23024
1.23163
1.23281
1.23362
1.23409
1.23433
1.23434
1.23409
1.23393
1.23388
1.23393
1.23411
1.23438
1.23469
1.23504
1.23541
1.23575
1.13268
1.13298
1.13317
1.13333
1.13347
1.13357
1.13363
1.1336
1.13341
1.13313
1.13288
1.1329
1.1331
1.13303
1.13264
1.13245
1.13234
1.13232
1.13223
1.13203
1.13184
1.13174
1.13173
1.13178
1.13187
1.13191
1.13182
1.13166
1.13151
1.1313
1.13107
1.13082
1.13058
1.13034
1.13012
1.19394
1.19417
1.19443
1.19473
1.19507
1.19545
1.19589
1.1964
1.19695
1.19749
1.19799
1.19848
1.19883
1.19906
1.19897
1.19902
1.19927
1.19972
1.20019
1.20073
1.20132
1.20187
1.20237
1.20284
1.20327
1.20362
1.20383
1.20397
1.20408
1.20418
1.20425
1.20431
1.20437
1.20442
1.20446
1.15578
1.15587
1.15594
1.15597
1.15595
1.15587
1.15572
1.15549
1.15517
1.15478
1.15437
1.15401
1.15364
1.15316
1.15264
1.15218
1.15176
1.15136
1.15097
1.15058
1.15018
1.14976
1.14935
1.14894
1.14854
1.14817
1.14783
1.14752
1.14727
1.14708
1.14695
1.14688
1.14684
1.14682
1.1468
1.1862
1.1862
1.18621
1.18621
1.18622
1.18623
1.18625
1.18628
1.18632
1.18636
1.18643
1.18651
1.18658
1.18664
1.18667
1.18668
1.18669
1.18672
1.18676
1.18681
1.1869
1.18703
1.18718
1.18731
1.18744
1.18757
1.18768
1.18778
1.18787
1.18797
1.18806
1.18816
1.18824
1.18832
1.18839
1.16189
1.1619
1.16191
1.16193
1.16195
1.16197
1.16198
1.16199
1.16198
1.16196
1.16194
1.1619
1.16183
1.16173
1.16161
1.16147
1.16131
1.16112
1.16092
1.16071
1.16048
1.16025
1.16007
1.15994
1.15985
1.15985
1.15986
1.15989
1.15992
1.15995
1.15998
1.16001
1.16005
1.16007
1.16009
1.1786
1.17859
1.17858
1.17858
1.17857
1.17855
1.17854
1.17851
1.17848
1.17844
1.17839
1.17833
1.17828
1.17825
1.17825
1.17827
1.17833
1.17842
1.17853
1.17866
1.17881
1.179
1.17921
1.17943
1.17965
1.17976
1.17989
1.18001
1.18011
1.1802
1.18026
1.1803
1.18033
1.18035
1.18035
1.16715
1.16717
1.16718
1.1672
1.16722
1.16725
1.16727
1.1673
1.16733
1.16736
1.16738
1.16739
1.16739
1.16738
1.16734
1.16728
1.1672
1.16713
1.16705
1.16696
1.16687
1.16679
1.16671
1.16673
1.16677
1.16686
1.16693
1.167
1.16707
1.16713
1.1672
1.16727
1.16733
1.16739
1.16745
1.17442
1.17442
1.17442
1.17441
1.17441
1.1744
1.17439
1.17438
1.17436
1.17434
1.17432
1.17431
1.17429
1.17428
1.1743
1.17434
1.1744
1.17448
1.17456
1.17467
1.17479
1.17493
1.17511
1.17516
1.17523
1.17529
1.17535
1.1754
1.17545
1.17549
1.17552
1.17555
1.17558
1.1756
1.17561
1.16992
1.16994
1.16995
1.16996
1.16997
1.16999
1.17
1.17002
1.17004
1.17006
1.17007
1.17009
1.17011
1.17012
1.17012
1.17011
1.17009
1.17008
1.17006
1.17005
1.17004
1.17003
1.17
1.17007
1.17013
1.17019
1.17025
1.17031
1.17037
1.17042
1.17048
1.17054
1.17059
1.17064
1.17069
1.17278
1.17279
1.17279
1.17279
1.17279
1.17279
1.17279
1.17279
1.17278
1.17277
1.17276
1.17274
1.17273
1.17273
1.17275
1.17277
1.1728
1.17284
1.17289
1.17295
1.17302
1.17309
1.17319
1.1732
1.17323
1.17327
1.1733
1.17333
1.17335
1.17338
1.1734
1.17341
1.17342
1.17343
1.17343
1.17121
1.17122
1.17123
1.17124
1.17124
1.17125
1.17125
1.17125
1.17126
1.17127
1.17128
1.17129
1.1713
1.17132
1.17132
1.17133
1.17133
1.17134
1.17134
1.17135
1.17136
1.17137
1.17136
1.17142
1.17146
1.17149
1.17152
1.17155
1.17159
1.17162
1.17164
1.17167
1.1717
1.17172
1.17175
1.17231
1.17232
1.17232
1.17232
1.17232
1.17232
1.17231
1.17231
1.1723
1.17229
1.17228
1.17227
1.17226
1.17225
1.17226
1.17226
1.17227
1.17229
1.17231
1.17233
1.17236
1.17239
1.17242
1.17243
1.17245
1.17246
1.17247
1.17249
1.1725
1.17251
1.17252
1.17252
1.17252
1.17252
1.17252
1.17186
1.17186
1.17187
1.17187
1.17187
1.17186
1.17186
1.17185
1.17185
1.17185
1.17185
1.17185
1.17186
1.17186
1.17186
1.17186
1.17186
1.17187
1.17187
1.17187
1.17187
1.17187
1.17187
1.17189
1.1719
1.17191
1.17192
1.17193
1.17194
1.17195
1.17196
1.17197
1.17198
1.17198
1.17198
1.1723
1.17231
1.17231
1.17231
1.1723
1.17229
1.17229
1.17228
1.17227
1.17226
1.17225
1.17224
1.17223
1.17222
1.17221
1.17221
1.17221
1.17221
1.17221
1.17221
1.17222
1.17222
1.17222
1.17222
1.17222
1.17222
1.17222
1.17222
1.17222
1.17222
1.17222
1.17223
1.17223
1.17223
1.17221
1.17223
1.17223
1.17223
1.17223
1.17223
1.17222
1.17222
1.17221
1.17221
1.1722
1.1722
1.17219
1.17219
1.17218
1.17217
1.17217
1.17216
1.17216
1.17215
1.17215
1.17214
1.17213
1.17213
1.17212
1.17212
1.17212
1.17212
1.17211
1.17211
1.17211
1.17211
1.17211
1.17212
1.17211
1.1721
1.17246
1.17247
1.17246
1.17246
1.17245
1.17245
1.17244
1.17243
1.17242
1.17241
1.17239
1.17238
1.17237
1.17235
1.17234
1.17234
1.17233
1.17232
1.17232
1.17231
1.17231
1.1723
1.1723
1.17229
1.17228
1.17228
1.17228
1.17227
1.17227
1.17226
1.17226
1.17226
1.17226
1.17225
1.17224
1.17252
1.17253
1.17252
1.17252
1.17251
1.1725
1.17249
1.17248
1.17247
1.17246
1.17245
1.17244
1.17243
1.17242
1.17241
1.1724
1.17239
1.17239
1.17238
1.17237
1.17237
1.17236
1.17235
1.17235
1.17234
1.17234
1.17234
1.17233
1.17233
1.17233
1.17232
1.17232
1.17232
1.17232
1.17231
1.17267
1.17267
1.17267
1.17266
1.17265
1.17264
1.17263
1.17262
1.17261
1.1726
1.17258
1.17257
1.17255
1.17254
1.17253
1.17252
1.17251
1.1725
1.1725
1.17249
1.17249
1.17248
1.17248
1.17248
1.17248
1.17247
1.17247
1.17247
1.17247
1.17247
1.17247
1.17246
1.17247
1.17246
1.17245
1.17276
1.17276
1.17276
1.17275
1.17274
1.17273
1.17272
1.17271
1.1727
1.17268
1.17267
1.17266
1.17264
1.17263
1.17262
1.17261
1.1726
1.17259
1.17259
1.17258
1.17258
1.17258
1.17258
1.17258
1.17258
1.17258
1.17258
1.17258
1.17258
1.17258
1.17258
1.17259
1.17259
1.17259
1.17258
1.17287
1.17287
1.17287
1.17286
1.17285
1.17284
1.17283
1.17282
1.1728
1.17279
1.17277
1.17276
1.17274
1.17273
1.17271
1.1727
1.17269
1.17269
1.17268
1.17268
1.17268
1.17268
1.17268
1.17269
1.17269
1.17269
1.1727
1.1727
1.17271
1.17271
1.17271
1.17272
1.17272
1.17272
1.17272
1.17296
1.17296
1.17296
1.17295
1.17294
1.17293
1.17291
1.1729
1.17289
1.17287
1.17286
1.17284
1.17283
1.17281
1.1728
1.17279
1.17278
1.17277
1.17277
1.17277
1.17277
1.17277
1.17277
1.17278
1.17279
1.17279
1.1728
1.17281
1.17281
1.17282
1.17283
1.17283
1.17284
1.17284
1.17285
1.17305
1.17305
1.17305
1.17304
1.17303
1.17301
1.173
1.17299
1.17297
1.17296
1.17294
1.17292
1.17291
1.17289
1.17288
1.17287
1.17286
1.17285
1.17285
1.17284
1.17285
1.17285
1.17286
1.17287
1.17288
1.17288
1.17289
1.1729
1.17291
1.17292
1.17293
1.17294
1.17294
1.17295
1.17296
1.17313
1.17313
1.17313
1.17312
1.1731
1.17309
1.17308
1.17306
1.17305
1.17303
1.17301
1.173
1.17298
1.17297
1.17295
1.17294
1.17293
1.17292
1.17292
1.17292
1.17292
1.17292
1.17293
1.17294
1.17295
1.17296
1.17297
1.17298
1.17299
1.17301
1.17302
1.17302
1.17303
1.17304
1.17305
1.17321
1.17321
1.1732
1.17319
1.17318
1.17316
1.17315
1.17313
1.17312
1.1731
1.17308
1.17307
1.17305
1.17303
1.17302
1.173
1.17299
1.17299
1.17298
1.17298
1.17298
1.17299
1.17299
1.173
1.17302
1.17303
1.17304
1.17305
1.17307
1.17308
1.17309
1.1731
1.17311
1.17312
1.17313
1.17327
1.17327
1.17326
1.17325
1.17324
1.17323
1.17321
1.17319
1.17318
1.17316
1.17314
1.17313
1.17311
1.17309
1.17308
1.17306
1.17305
1.17304
1.17304
1.17303
1.17304
1.17304
1.17305
1.17306
1.17307
1.17308
1.1731
1.17311
1.17312
1.17314
1.17315
1.17316
1.17317
1.17318
1.17319
1.17333
1.17333
1.17332
1.17331
1.1733
1.17328
1.17327
1.17325
1.17323
1.17322
1.1732
1.17318
1.17316
1.17315
1.17313
1.17312
1.17311
1.1731
1.17309
1.17308
1.17308
1.17309
1.1731
1.17311
1.17312
1.17313
1.17314
1.17316
1.17317
1.17319
1.1732
1.17321
1.17322
1.17324
1.17325
1.17338
1.17338
1.17338
1.17336
1.17335
1.17333
1.17332
1.1733
1.17328
1.17326
1.17325
1.17323
1.17321
1.1732
1.17318
1.17317
1.17315
1.17314
1.17313
1.17313
1.17313
1.17313
1.17314
1.17315
1.17316
1.17317
1.17319
1.1732
1.17321
1.17323
1.17324
1.17326
1.17327
1.17328
1.17329
1.29527
1.29585
1.29642
1.29706
1.29775
1.29845
1.29913
1.29978
1.30045
1.30121
1.30186
1.30236
1.30269
1.30293
1.30329
1.3037
1.30425
1.30493
1.30566
1.3065
1.30729
1.3083
1.08446
1.08423
1.08398
1.08377
1.08362
1.0835
1.0834
1.08333
1.08327
1.08312
1.08276
1.08217
1.08132
1.08036
1.07917
1.0777
1.07634
1.07513
1.07416
1.07345
1.07315
1.07314
1.23603
1.2365
1.23705
1.23763
1.23827
1.23893
1.23978
1.24065
1.24169
1.24292
1.24429
1.24566
1.24675
1.24748
1.24785
1.24794
1.24777
1.24743
1.24703
1.24665
1.24638
1.24623
1.12995
1.12965
1.12921
1.1287
1.12813
1.12746
1.1267
1.12587
1.12503
1.12418
1.12347
1.12306
1.12308
1.1235
1.12408
1.1247
1.1253
1.12588
1.12638
1.12674
1.12695
1.12714
1.20442
1.20437
1.20433
1.20426
1.20416
1.20401
1.20382
1.20356
1.20327
1.20303
1.20283
1.20278
1.20311
1.20377
1.20465
1.20564
1.20657
1.20733
1.20785
1.20796
1.20757
1.20689
1.14692
1.14695
1.14696
1.14697
1.14698
1.14694
1.14689
1.14685
1.14684
1.14687
1.14695
1.14713
1.14731
1.14756
1.1479
1.14836
1.14895
1.14967
1.15044
1.15133
1.1523
1.15328
1.18848
1.18845
1.18848
1.18854
1.18859
1.18859
1.18854
1.18841
1.1882
1.1879
1.18744
1.18687
1.18629
1.18574
1.18525
1.1848
1.18438
1.18398
1.18362
1.18329
1.18299
1.18272
1.16022
1.16039
1.16055
1.16073
1.16094
1.16118
1.16143
1.1617
1.16199
1.16232
1.16268
1.16306
1.16343
1.1638
1.16416
1.16452
1.16489
1.16526
1.16564
1.16603
1.16642
1.1668
1.18022
1.18006
1.17989
1.17971
1.1795
1.17927
1.17901
1.17874
1.17845
1.17814
1.17781
1.17747
1.17715
1.17684
1.17656
1.1763
1.17607
1.17586
1.17567
1.17551
1.17536
1.17523
1.16761
1.16782
1.16804
1.16825
1.16848
1.1687
1.16891
1.16913
1.16935
1.16956
1.16977
1.16996
1.17014
1.1703
1.17045
1.17059
1.17072
1.17084
1.17095
1.17105
1.17115
1.17123
1.17553
1.17545
1.17537
1.17529
1.1752
1.1751
1.175
1.17488
1.17474
1.17458
1.17442
1.17425
1.17408
1.17391
1.17375
1.1736
1.17347
1.17335
1.17324
1.17315
1.17306
1.17297
1.1708
1.17095
1.1711
1.17125
1.1714
1.17156
1.17172
1.17186
1.17199
1.17211
1.17221
1.17229
1.17234
1.17238
1.17239
1.17239
1.17237
1.17235
1.17232
1.17228
1.17224
1.17218
1.17339
1.17336
1.17333
1.17331
1.17328
1.17326
1.17326
1.17325
1.17324
1.17321
1.17318
1.17314
1.1731
1.17304
1.17298
1.17292
1.17285
1.17277
1.1727
1.17263
1.17255
1.17245
1.17181
1.17189
1.17197
1.17205
1.17213
1.1722
1.17228
1.17236
1.17243
1.1725
1.17256
1.17261
1.17265
1.17267
1.17267
1.17266
1.17264
1.17261
1.17257
1.17253
1.17247
1.17239
1.17253
1.17251
1.17251
1.17251
1.17252
1.17253
1.17255
1.17256
1.17258
1.17261
1.17263
1.17265
1.17266
1.17267
1.17267
1.17267
1.17266
1.17264
1.17261
1.17257
1.17253
1.17246
1.17203
1.17205
1.17208
1.17212
1.17216
1.1722
1.17224
1.17228
1.17232
1.17237
1.17241
1.17245
1.17249
1.17252
1.17254
1.17256
1.17257
1.17257
1.17256
1.17255
1.17253
1.17249
1.17224
1.17221
1.17221
1.17222
1.17222
1.17223
1.17224
1.17226
1.17228
1.17231
1.17234
1.17237
1.1724
1.17243
1.17246
1.17248
1.1725
1.17251
1.17252
1.17253
1.17252
1.17251
1.17214
1.17212
1.17212
1.17213
1.17214
1.17215
1.17216
1.17218
1.1722
1.17223
1.17225
1.17228
1.17231
1.17234
1.17237
1.1724
1.17243
1.17245
1.17247
1.17248
1.17249
1.17251
1.17226
1.17223
1.17221
1.1722
1.1722
1.17219
1.17219
1.17219
1.1722
1.17221
1.17223
1.17225
1.17227
1.1723
1.17232
1.17235
1.17238
1.1724
1.17243
1.17245
1.17246
1.1725
1.17233
1.1723
1.17228
1.17227
1.17226
1.17225
1.17224
1.17223
1.17223
1.17223
1.17224
1.17225
1.17227
1.17229
1.17231
1.17233
1.17235
1.17238
1.1724
1.17242
1.17245
1.17249
1.17247
1.17243
1.17241
1.17239
1.17237
1.17235
1.17234
1.17232
1.17231
1.1723
1.1723
1.1723
1.17231
1.17232
1.17233
1.17235
1.17237
1.17239
1.17241
1.17243
1.17245
1.1725
1.17259
1.17256
1.17254
1.17252
1.1725
1.17247
1.17245
1.17244
1.17242
1.1724
1.17239
1.17239
1.17238
1.17239
1.17239
1.1724
1.17241
1.17243
1.17244
1.17246
1.17248
1.17253
1.17272
1.1727
1.17268
1.17265
1.17263
1.17261
1.17259
1.17257
1.17255
1.17253
1.17251
1.1725
1.17249
1.17248
1.17248
1.17248
1.17249
1.1725
1.17251
1.17252
1.17253
1.17258
1.17285
1.17283
1.17281
1.17279
1.17277
1.17275
1.17272
1.1727
1.17268
1.17266
1.17264
1.17263
1.17261
1.1726
1.17259
1.17259
1.17259
1.17259
1.1726
1.1726
1.17261
1.17265
1.17295
1.17294
1.17292
1.17291
1.17289
1.17288
1.17286
1.17283
1.17281
1.17279
1.17277
1.17275
1.17274
1.17273
1.17272
1.17271
1.1727
1.1727
1.1727
1.1727
1.17271
1.17274
1.17305
1.17304
1.17303
1.17301
1.173
1.17298
1.17297
1.17295
1.17294
1.17292
1.1729
1.17288
1.17287
1.17285
1.17284
1.17283
1.17282
1.17282
1.17281
1.17281
1.17281
1.17284
1.17313
1.17312
1.17311
1.17311
1.1731
1.17309
1.17307
1.17306
1.17305
1.17303
1.17302
1.173
1.17299
1.17297
1.17296
1.17295
1.17294
1.17293
1.17293
1.17292
1.17292
1.17294
1.17319
1.17319
1.17319
1.17319
1.17318
1.17317
1.17317
1.17316
1.17315
1.17314
1.17312
1.17311
1.1731
1.17308
1.17307
1.17306
1.17305
1.17304
1.17304
1.17303
1.17302
1.17303
1.17325
1.17325
1.17325
1.17325
1.17325
1.17325
1.17324
1.17324
1.17323
1.17323
1.17322
1.17321
1.1732
1.17318
1.17317
1.17316
1.17315
1.17315
1.17314
1.17313
1.17312
1.17312
1.1733
1.1733
1.1733
1.17331
1.17331
1.17331
1.17331
1.17331
1.17331
1.1733
1.1733
1.17329
1.17328
1.17327
1.17326
1.17326
1.17325
1.17324
1.17323
1.17322
1.17321
1.1732
1.30897
1.30933
1.30987
1.31045
1.31109
1.31226
1.07339
1.07404
1.07501
1.07606
1.07713
1.07815
1.24607
1.24635
1.2469
1.24764
1.24842
1.24899
1.1274
1.12761
1.12781
1.1279
1.12804
1.12829
1.20613
1.20551
1.20481
1.20403
1.20324
1.20247
1.15403
1.15471
1.15531
1.15585
1.1563
1.1567
1.18255
1.18255
1.18251
1.18245
1.1824
1.18239
1.16707
1.16731
1.16753
1.1677
1.16784
1.16796
1.17517
1.17514
1.17511
1.17509
1.17507
1.17507
1.1713
1.17131
1.17133
1.17133
1.17132
1.17129
1.17295
1.17288
1.17283
1.17278
1.17273
1.17265
1.17217
1.17208
1.17201
1.17194
1.17186
1.17176
1.17243
1.17232
1.17224
1.17216
1.17208
1.17197
1.17237
1.17227
1.17219
1.17211
1.17204
1.17193
1.17244
1.17236
1.1723
1.17224
1.17217
1.17208
1.17247
1.17242
1.17238
1.17233
1.17229
1.17223
1.17249
1.17248
1.17246
1.17244
1.17241
1.17238
1.17248
1.17249
1.17249
1.17248
1.17248
1.17248
1.17246
1.1725
1.17251
1.17252
1.17253
1.17255
1.17245
1.17251
1.17253
1.17254
1.17256
1.17261
1.17245
1.17252
1.17255
1.17257
1.1726
1.17266
1.17247
1.17256
1.17259
1.17262
1.17265
1.17272
1.17253
1.17261
1.17264
1.17267
1.17271
1.17279
1.1726
1.17268
1.17272
1.17275
1.17279
1.17286
1.1727
1.17277
1.17281
1.17284
1.17288
1.17295
1.1728
1.17287
1.17291
1.17294
1.17298
1.17304
1.17292
1.17297
1.17301
1.17304
1.17307
1.17312
1.17302
1.17307
1.1731
1.17314
1.17317
1.1732
1.17313
1.17317
1.1732
1.17323
1.17325
1.17328
1.17322
1.17325
1.17328
1.17331
1.17333
1.17335
1.31219
1.3114
1.31043
1.30915
1.30773
1.30596
1.30476
1.30389
1.30311
1.30241
1.3018
1.3013
1.30084
1.30047
1.30001
1.29951
1.29895
1.29836
1.29777
1.29718
1.29659
1.29591
1.07897
1.07988
1.08017
1.07997
1.07917
1.07837
1.07783
1.07744
1.07711
1.07693
1.07702
1.07723
1.07733
1.07769
1.07856
1.07968
1.08094
1.08216
1.08329
1.0843
1.0852
1.08589
1.24923
1.24919
1.24894
1.24833
1.24704
1.24548
1.24399
1.24266
1.24161
1.24093
1.2406
1.24066
1.24086
1.24124
1.24176
1.24236
1.24279
1.24309
1.24332
1.24347
1.24352
1.24354
1.12828
1.12802
1.1277
1.12727
1.12666
1.12584
1.12489
1.12399
1.12334
1.12303
1.1229
1.12289
1.12293
1.12283
1.12269
1.12257
1.12239
1.12222
1.12205
1.12189
1.12174
1.12158
1.20196
1.20166
1.20144
1.20138
1.20157
1.20201
1.20261
1.20333
1.20408
1.20481
1.20554
1.20629
1.207
1.20752
1.20776
1.20777
1.20762
1.20734
1.20695
1.20644
1.2059
1.20544
1.1568
1.15682
1.15687
1.15696
1.15699
1.15698
1.15698
1.15695
1.15688
1.15673
1.1565
1.15623
1.15592
1.15559
1.15528
1.15499
1.1547
1.15441
1.15417
1.15397
1.15379
1.15355
1.18245
1.18267
1.18289
1.18315
1.18344
1.18374
1.18401
1.18426
1.18452
1.18478
1.18506
1.18534
1.18565
1.18598
1.18631
1.18664
1.18693
1.1872
1.18742
1.18762
1.18778
1.18796
1.16794
1.16787
1.1678
1.16772
1.16761
1.16749
1.16736
1.16719
1.16698
1.16671
1.1664
1.16604
1.16565
1.16525
1.16484
1.16444
1.16404
1.16365
1.16328
1.16293
1.1626
1.16228
1.17512
1.17521
1.17529
1.17537
1.17544
1.17552
1.1756
1.17568
1.17578
1.1759
1.17603
1.17619
1.17637
1.17656
1.17676
1.17697
1.17717
1.17738
1.17759
1.1778
1.178
1.1782
1.17126
1.17114
1.17103
1.17091
1.17078
1.17064
1.17047
1.1703
1.1701
1.1699
1.16968
1.16945
1.16921
1.16897
1.16874
1.16852
1.16832
1.16812
1.16793
1.16775
1.16758
1.16741
1.17265
1.17259
1.17256
1.17253
1.1725
1.17248
1.17247
1.17247
1.17249
1.17252
1.17256
1.17263
1.17272
1.17282
1.17294
1.17308
1.17322
1.17336
1.17351
1.17366
1.17381
1.17396
1.17173
1.17162
1.17153
1.17143
1.17134
1.17125
1.17115
1.17105
1.17096
1.17086
1.17077
1.17067
1.17058
1.1705
1.17042
1.17034
1.17027
1.17019
1.17012
1.17005
1.16999
1.16994
1.17196
1.17188
1.17183
1.17178
1.17174
1.1717
1.17168
1.17166
1.17166
1.17168
1.17171
1.17176
1.17182
1.17189
1.17198
1.17207
1.17216
1.17226
1.17236
1.17245
1.17255
1.17266
1.17192
1.17184
1.17178
1.17174
1.1717
1.17166
1.17162
1.17159
1.17157
1.17156
1.17154
1.17154
1.17153
1.17153
1.17153
1.17154
1.17155
1.17156
1.17157
1.17158
1.17158
1.17158
1.17207
1.17202
1.17199
1.17197
1.17195
1.17194
1.17194
1.17195
1.17197
1.172
1.17204
1.1721
1.17215
1.17221
1.17227
1.17232
1.17239
1.17245
1.17251
1.17258
1.17264
1.1727
1.17223
1.1722
1.17219
1.17218
1.17218
1.17218
1.17219
1.1722
1.17221
1.17223
1.17225
1.17228
1.17231
1.17234
1.17237
1.1724
1.17243
1.17246
1.17249
1.17251
1.17253
1.17254
1.17236
1.17235
1.17235
1.17234
1.17234
1.17235
1.17237
1.1724
1.17243
1.17246
1.17251
1.17255
1.17261
1.17266
1.17271
1.17276
1.17281
1.17286
1.1729
1.17294
1.17298
1.173
1.17245
1.17246
1.17248
1.17249
1.17251
1.17253
1.17256
1.17259
1.17262
1.17266
1.1727
1.17274
1.17279
1.17283
1.17288
1.17292
1.17295
1.17299
1.17301
1.17304
1.17305
1.17305
1.17251
1.17255
1.17257
1.17259
1.17262
1.17265
1.17269
1.17272
1.17277
1.17281
1.17286
1.17291
1.17296
1.17301
1.17305
1.17309
1.17313
1.17316
1.17319
1.17321
1.17322
1.17322
1.17257
1.17262
1.17265
1.17268
1.17272
1.17276
1.1728
1.17284
1.17289
1.17294
1.173
1.17305
1.1731
1.17314
1.17318
1.17321
1.17324
1.17326
1.17327
1.17328
1.17329
1.17328
1.17261
1.17269
1.17272
1.17276
1.17281
1.17285
1.1729
1.17295
1.17301
1.17306
1.17311
1.17316
1.17321
1.17324
1.17328
1.1733
1.17332
1.17333
1.17334
1.17335
1.17335
1.17335
1.17267
1.17276
1.1728
1.17285
1.1729
1.17295
1.173
1.17306
1.17311
1.17316
1.17321
1.17326
1.17329
1.17332
1.17335
1.17337
1.17338
1.17338
1.17339
1.17338
1.17338
1.17338
1.17275
1.17284
1.17289
1.17294
1.17299
1.17305
1.1731
1.17316
1.17321
1.17325
1.1733
1.17333
1.17336
1.17339
1.1734
1.17341
1.17342
1.17342
1.17341
1.17341
1.1734
1.1734
1.17284
1.17293
1.17298
1.17304
1.17309
1.17314
1.1732
1.17325
1.17329
1.17333
1.17337
1.1734
1.17342
1.17343
1.17344
1.17344
1.17344
1.17344
1.17343
1.17342
1.17341
1.17342
1.17293
1.17302
1.17308
1.17313
1.17318
1.17323
1.17328
1.17332
1.17336
1.1734
1.17342
1.17345
1.17346
1.17347
1.17347
1.17347
1.17346
1.17346
1.17345
1.17344
1.17343
1.17343
1.17303
1.17312
1.17317
1.17322
1.17327
1.17332
1.17336
1.17339
1.17343
1.17345
1.17347
1.17349
1.17349
1.1735
1.17349
1.17349
1.17348
1.17347
1.17346
1.17345
1.17344
1.17344
1.17313
1.17321
1.17326
1.1733
1.17335
1.17339
1.17342
1.17345
1.17348
1.1735
1.17351
1.17352
1.17352
1.17352
1.17351
1.17351
1.1735
1.17348
1.17347
1.17346
1.17345
1.17346
1.17323
1.17329
1.17334
1.17338
1.17342
1.17345
1.17348
1.1735
1.17352
1.17354
1.17355
1.17355
1.17355
1.17354
1.17353
1.17352
1.17351
1.1735
1.17349
1.17347
1.17346
1.17347
1.17331
1.17337
1.17341
1.17344
1.17348
1.1735
1.17353
1.17355
1.17356
1.17357
1.17358
1.17358
1.17357
1.17356
1.17355
1.17354
1.17353
1.17351
1.1735
1.17348
1.17347
1.17349
1.17339
1.17343
1.17347
1.1735
1.17353
1.17355
1.17357
1.17359
1.1736
1.1736
1.1736
1.1736
1.17359
1.17358
1.17357
1.17356
1.17354
1.17353
1.17351
1.1735
1.17349
1.1735
1.2956
1.29548
1.29535
1.29521
1.29505
1.29488
1.2947
1.29451
1.29432
1.29412
1.29393
1.29378
1.29365
1.29354
1.29344
1.2934
1.29342
1.29348
1.2935
1.29352
1.29366
1.29418
1.29516
1.29626
1.29723
1.29804
1.2987
1.29928
1.29979
1.30025
1.30067
1.30105
1.30137
1.30175
1.30168
1.08622
1.08643
1.0866
1.08672
1.08682
1.0869
1.08699
1.08709
1.08722
1.08737
1.08757
1.08782
1.08813
1.08842
1.08861
1.08867
1.08863
1.0885
1.08835
1.08829
1.08802
1.08712
1.08571
1.0848
1.08463
1.08531
1.08622
1.08712
1.08794
1.08875
1.0896
1.09053
1.0915
1.09231
1.09295
1.24354
1.24346
1.24338
1.24329
1.24312
1.24288
1.24257
1.24221
1.24179
1.24129
1.24073
1.24002
1.23908
1.23778
1.236
1.23383
1.23204
1.23084
1.23003
1.22965
1.22941
1.22798
1.22604
1.225
1.22497
1.22514
1.22596
1.22702
1.22804
1.2289
1.22952
1.22986
1.23
1.22998
1.22978
1.12131
1.12121
1.12107
1.12096
1.12103
1.12132
1.12183
1.12255
1.12347
1.12446
1.12544
1.12633
1.1271
1.12775
1.12819
1.12845
1.12857
1.1287
1.12908
1.1298
1.13011
1.13003
1.12974
1.12943
1.12931
1.12962
1.12996
1.1302
1.13028
1.13025
1.13015
1.13001
1.12984
1.12964
1.12932
1.20498
1.20457
1.20424
1.20398
1.20373
1.20351
1.20337
1.2033
1.20324
1.20313
1.20293
1.20269
1.20241
1.20211
1.20177
1.20136
1.20109
1.20109
1.20134
1.2016
1.20169
1.20152
1.20122
1.20084
1.20035
1.19981
1.19922
1.19863
1.19807
1.19758
1.19716
1.19679
1.19646
1.19619
1.19594
1.15341
1.15335
1.1533
1.15319
1.15306
1.15293
1.15273
1.15246
1.15214
1.1518
1.15152
1.15129
1.15111
1.151
1.1509
1.15082
1.15082
1.15089
1.15104
1.15127
1.15155
1.1518
1.15212
1.15241
1.15263
1.15294
1.15329
1.15359
1.15383
1.15399
1.15407
1.1541
1.15407
1.154
1.1539
1.18817
1.18826
1.18836
1.18845
1.18849
1.18847
1.18842
1.18834
1.18827
1.18824
1.18814
1.18804
1.18796
1.18788
1.18783
1.18783
1.18788
1.18796
1.18804
1.18808
1.18806
1.188
1.1879
1.18778
1.18768
1.18758
1.1875
1.18745
1.1874
1.18737
1.18735
1.18734
1.18732
1.18731
1.1873
1.16201
1.16192
1.16183
1.16174
1.16164
1.16155
1.16144
1.16134
1.16121
1.16103
1.1609
1.16078
1.16072
1.16073
1.16074
1.16077
1.16082
1.16087
1.16092
1.16098
1.16104
1.16109
1.16111
1.16113
1.16112
1.16112
1.16111
1.1611
1.16108
1.16106
1.16104
1.16101
1.16099
1.16097
1.16096
1.17833
1.17839
1.17845
1.17852
1.17859
1.17865
1.17872
1.17878
1.17884
1.17889
1.17893
1.17898
1.17893
1.17886
1.1788
1.17874
1.17869
1.17865
1.17863
1.17863
1.17864
1.17867
1.17873
1.1788
1.17887
1.17893
1.17898
1.17901
1.17904
1.17906
1.17907
1.17908
1.17908
1.17909
1.1791
1.1672
1.16715
1.16712
1.16707
1.16703
1.16698
1.16694
1.16689
1.16685
1.16681
1.16675
1.16665
1.16662
1.16667
1.16672
1.16677
1.16683
1.16689
1.16694
1.16699
1.16703
1.16705
1.16705
1.16704
1.16701
1.16697
1.16694
1.1669
1.16686
1.16683
1.16681
1.16678
1.16676
1.16674
1.16671
1.17403
1.17408
1.17413
1.17418
1.17423
1.17429
1.17434
1.1744
1.17446
1.17452
1.17457
1.17462
1.17468
1.1746
1.17456
1.17451
1.17446
1.17442
1.17438
1.17436
1.17436
1.17436
1.1744
1.17443
1.17446
1.17449
1.17451
1.17453
1.17455
1.17456
1.17457
1.17457
1.17457
1.17457
1.17458
1.16985
1.16985
1.16984
1.16983
1.16981
1.1698
1.16979
1.16978
1.16977
1.16976
1.16975
1.16973
1.16969
1.16973
1.16977
1.16981
1.16985
1.16988
1.16991
1.16994
1.16995
1.16996
1.16995
1.16994
1.16992
1.16991
1.16989
1.16987
1.16985
1.16983
1.16982
1.1698
1.16978
1.16977
1.16975
1.17271
1.17275
1.17277
1.1728
1.17282
1.17285
1.17288
1.17291
1.17294
1.17296
1.17299
1.17301
1.17303
1.17304
1.17298
1.17295
1.17291
1.17288
1.17285
1.17283
1.17282
1.17281
1.17282
1.17283
1.17285
1.17286
1.17287
1.17288
1.17289
1.17289
1.1729
1.1729
1.1729
1.1729
1.17289
1.17154
1.17153
1.17153
1.17152
1.17152
1.17151
1.17151
1.1715
1.17149
1.17147
1.17146
1.17144
1.17142
1.17139
1.1714
1.1714
1.1714
1.17139
1.17138
1.17138
1.17136
1.17135
1.17133
1.17132
1.1713
1.17129
1.17128
1.17128
1.17128
1.17127
1.17127
1.17126
1.17126
1.17125
1.17123
1.17275
1.17275
1.17276
1.17276
1.17277
1.17278
1.17278
1.17278
1.17278
1.17277
1.17276
1.17275
1.17273
1.17271
1.17267
1.17262
1.17258
1.17254
1.17251
1.17248
1.17245
1.17244
1.17243
1.17243
1.17244
1.17244
1.17245
1.17245
1.17246
1.17246
1.17246
1.17247
1.17247
1.17247
1.17246
1.17256
1.17255
1.17254
1.17254
1.17253
1.17252
1.17251
1.1725
1.17248
1.17246
1.17243
1.1724
1.17236
1.17232
1.17227
1.17224
1.17221
1.17218
1.17215
1.17212
1.17209
1.17207
1.17204
1.17203
1.17201
1.172
1.17199
1.17199
1.172
1.172
1.172
1.172
1.172
1.17199
1.17198
1.17305
1.17304
1.17303
1.17303
1.17303
1.17302
1.17301
1.17299
1.17297
1.17295
1.17292
1.17289
1.17285
1.1728
1.17276
1.17271
1.17266
1.17262
1.17258
1.17254
1.17252
1.17249
1.17248
1.17247
1.17247
1.17247
1.17247
1.17247
1.17247
1.17248
1.17248
1.17248
1.17249
1.17248
1.17248
1.17308
1.17306
1.17306
1.17305
1.17304
1.17303
1.17301
1.17299
1.17297
1.17294
1.17291
1.17287
1.17283
1.17278
1.17273
1.17268
1.17264
1.17259
1.17256
1.17252
1.17249
1.17246
1.17244
1.17242
1.17241
1.1724
1.1724
1.1724
1.1724
1.17239
1.17239
1.17239
1.17239
1.17239
1.17239
1.17326
1.17324
1.17323
1.17323
1.17322
1.1732
1.17319
1.17317
1.17314
1.17311
1.17308
1.17304
1.173
1.17296
1.17291
1.17286
1.17281
1.17277
1.17274
1.1727
1.17267
1.17265
1.17263
1.17262
1.17262
1.17262
1.17262
1.17262
1.17262
1.17262
1.17263
1.17263
1.17263
1.17263
1.17263
1.1733
1.17328
1.17327
1.17327
1.17325
1.17324
1.17322
1.1732
1.17318
1.17315
1.17312
1.17308
1.17304
1.17299
1.17295
1.1729
1.17286
1.17282
1.17278
1.17275
1.17273
1.1727
1.17268
1.17267
1.17266
1.17266
1.17265
1.17266
1.17266
1.17266
1.17266
1.17267
1.17267
1.17267
1.17266
1.17336
1.17334
1.17333
1.17332
1.17331
1.17329
1.17328
1.17326
1.17323
1.1732
1.17317
1.17314
1.1731
1.17306
1.17302
1.17298
1.17294
1.1729
1.17287
1.17284
1.17282
1.1728
1.17279
1.17278
1.17277
1.17277
1.17277
1.17278
1.17278
1.17279
1.17279
1.17279
1.17279
1.17279
1.17279
1.17337
1.17336
1.17335
1.17334
1.17333
1.17331
1.17329
1.17327
1.17325
1.17322
1.1732
1.17316
1.17313
1.17309
1.17305
1.17302
1.17298
1.17295
1.17292
1.1729
1.17288
1.17286
1.17285
1.17284
1.17283
1.17283
1.17283
1.17284
1.17284
1.17285
1.17285
1.17285
1.17286
1.17286
1.17285
1.17338
1.17338
1.17337
1.17336
1.17334
1.17333
1.17331
1.17329
1.17327
1.17324
1.17322
1.17319
1.17316
1.17313
1.17309
1.17306
1.17303
1.173
1.17298
1.17296
1.17294
1.17292
1.17291
1.17291
1.17291
1.17291
1.17291
1.17292
1.17292
1.17293
1.17294
1.17294
1.17294
1.17294
1.17294
1.17339
1.17339
1.17338
1.17336
1.17335
1.17333
1.17332
1.1733
1.17328
1.17326
1.17323
1.17321
1.17318
1.17315
1.17312
1.17309
1.17307
1.17304
1.17302
1.173
1.17299
1.17298
1.17297
1.17297
1.17297
1.17297
1.17297
1.17298
1.17298
1.17299
1.173
1.173
1.17301
1.17301
1.17301
1.17339
1.17339
1.17338
1.17337
1.17336
1.17334
1.17333
1.17331
1.17329
1.17327
1.17325
1.17322
1.1732
1.17317
1.17315
1.17312
1.1731
1.17308
1.17306
1.17305
1.17304
1.17303
1.17302
1.17302
1.17302
1.17303
1.17303
1.17304
1.17305
1.17306
1.17306
1.17307
1.17307
1.17308
1.17307
1.1734
1.1734
1.17339
1.17338
1.17337
1.17335
1.17334
1.17332
1.1733
1.17328
1.17326
1.17324
1.17322
1.1732
1.17317
1.17315
1.17313
1.17312
1.1731
1.17309
1.17308
1.17307
1.17307
1.17307
1.17307
1.17308
1.17309
1.17309
1.1731
1.17311
1.17312
1.17313
1.17313
1.17314
1.17313
1.17341
1.17341
1.1734
1.17339
1.17338
1.17336
1.17335
1.17333
1.17331
1.1733
1.17328
1.17326
1.17324
1.17322
1.1732
1.17318
1.17316
1.17315
1.17314
1.17313
1.17312
1.17311
1.17311
1.17312
1.17312
1.17313
1.17314
1.17315
1.17316
1.17317
1.17317
1.17318
1.17319
1.17319
1.17319
1.17342
1.17343
1.17342
1.1734
1.17339
1.17338
1.17336
1.17335
1.17333
1.17331
1.17329
1.17328
1.17326
1.17324
1.17322
1.17321
1.17319
1.17318
1.17317
1.17316
1.17316
1.17315
1.17315
1.17316
1.17316
1.17317
1.17318
1.17319
1.1732
1.17321
1.17322
1.17323
1.17324
1.17324
1.17324
1.17343
1.17344
1.17343
1.17342
1.1734
1.17339
1.17338
1.17336
1.17334
1.17333
1.17331
1.17329
1.17328
1.17326
1.17325
1.17323
1.17322
1.17321
1.1732
1.17319
1.17319
1.17319
1.17319
1.1732
1.1732
1.17321
1.17322
1.17324
1.17325
1.17326
1.17327
1.17328
1.17329
1.17329
1.17329
1.17344
1.17345
1.17345
1.17343
1.17342
1.1734
1.17339
1.17338
1.17336
1.17334
1.17333
1.17331
1.1733
1.17328
1.17327
1.17326
1.17325
1.17324
1.17323
1.17322
1.17322
1.17322
1.17322
1.17323
1.17324
1.17325
1.17326
1.17327
1.17329
1.1733
1.17331
1.17332
1.17333
1.17333
1.17334
1.17344
1.17344
1.17343
1.17341
1.1734
1.17338
1.17337
1.17335
1.17333
1.17331
1.1733
1.17328
1.17326
1.17324
1.17323
1.17321
1.1732
1.17319
1.17318
1.17317
1.17317
1.17317
1.17318
1.17319
1.1732
1.17321
1.17322
1.17324
1.17325
1.17327
1.17328
1.17329
1.17331
1.17332
1.17333
1.17349
1.17348
1.17348
1.17346
1.17345
1.17343
1.17341
1.1734
1.17338
1.17336
1.17334
1.17332
1.17331
1.17329
1.17328
1.17326
1.17325
1.17324
1.17323
1.17322
1.17321
1.17321
1.17322
1.17322
1.17323
1.17325
1.17326
1.17327
1.17329
1.1733
1.17332
1.17333
1.17335
1.17336
1.17336
1.17353
1.17353
1.17352
1.1735
1.17349
1.17347
1.17345
1.17343
1.17342
1.1734
1.17338
1.17336
1.17335
1.17333
1.17331
1.1733
1.17329
1.17328
1.17326
1.17326
1.17325
1.17325
1.17325
1.17326
1.17326
1.17328
1.17329
1.1733
1.17332
1.17333
1.17335
1.17336
1.17338
1.17339
1.17339
1.17356
1.17356
1.17355
1.17354
1.17352
1.1735
1.17349
1.17347
1.17345