/*--------------------------------*- C++ -*----------------------------------*\
  =========                 |
  \\      /  F ield         | OpenFOAM: The Open Source CFD Toolbox
   \\    /   O peration     | Website:  https://openfoam.org
    \\  /    A nd           | Version:  8
     \\/     M anipulation  |
\*---------------------------------------------------------------------------*/
FoamFile
{
    version     2.0;
    format      ascii;
    class       volScalarField;
    location    "0.07";
    object      nut;
}
// * * * * * * * * * * * * * * * * * * * * * * * * * * * * * * * * * * * * * //

dimensions      [0 2 -1 0 0 0 0];

internalField   nonuniform List<scalar> 
15677
(
0.00109976
0.0055759
0.0140348
0.0225753
0.0306343
0.0380879
0.044847
0.0506078
0.0557038
0.0604081
0.0648911
0.069038
0.0720244
0.0734401
0.0723271
0.0700349
0.0677336
0.0669319
0.0682785
0.0704583
0.0741109
0.0786747
0.0825654
0.085689
0.087864
0.0891032
0.0896352
0.0895683
0.0890034
0.0881821
0.0872492
0.0863142
0.0854499
0.0846964
0.0840681
0.00165175
0.0141024
0.0313397
0.0463091
0.0576456
0.0647961
0.0681821
0.0691657
0.0700055
0.0749804
0.0859065
0.0977853
0.106885
0.110687
0.109266
0.105305
0.101806
0.0995281
0.0982926
0.0982457
0.0990997
0.100069
0.100994
0.101794
0.102417
0.102841
0.103078
0.103127
0.103014
0.102791
0.102503
0.102202
0.101919
0.101666
0.101444
0.00133428
0.0116278
0.0240945
0.0346238
0.0427704
0.0484828
0.051161
0.0521451
0.0518544
0.0567806
0.0711831
0.0902711
0.102905
0.108658
0.115103
0.121823
0.127669
0.131321
0.133323
0.133762
0.1331
0.132596
0.133078
0.134278
0.135663
0.136792
0.137495
0.137578
0.137083
0.136269
0.135397
0.1346
0.133916
0.133344
0.132861
0.000736651
0.00430929
0.0092043
0.0140934
0.018378
0.0223541
0.0260613
0.0293035
0.0334242
0.0437689
0.0604257
0.0779743
0.0894686
0.0931739
0.0928963
0.0967259
0.106707
0.119553
0.13049
0.139647
0.144078
0.143818
0.140283
0.136919
0.134888
0.133992
0.133837
0.134079
0.13447
0.134789
0.135006
0.135082
0.135046
0.134933
0.134769
0.00106794
0.00950009
0.0207993
0.0308864
0.0392314
0.0457482
0.0500673
0.0534184
0.0569731
0.0618439
0.0690796
0.075115
0.0757068
0.0713925
0.0668907
0.0715483
0.0884571
0.107103
0.120074
0.128702
0.134203
0.138195
0.139808
0.140095
0.139518
0.138875
0.1385
0.138369
0.138403
0.13858
0.138793
0.138998
0.139176
0.139317
0.139424
0.000843322
0.00748616
0.0169301
0.0258361
0.0332682
0.0391905
0.0436725
0.0465297
0.0484228
0.0490131
0.0482852
0.0468494
0.0448007
0.0433416
0.0453877
0.0522447
0.0640693
0.0779922
0.0921403
0.104014
0.112619
0.118233
0.121741
0.124131
0.125931
0.127416
0.12871
0.129861
0.130889
0.131805
0.132615
0.133326
0.133944
0.134478
0.134934
0.000594317
0.00514556
0.0107315
0.015696
0.0196099
0.0221746
0.023541
0.0237739
0.0232496
0.0229422
0.0234773
0.0249758
0.0281091
0.0345914
0.0456042
0.0600611
0.0745653
0.0868811
0.0967738
0.104751
0.111275
0.116677
0.119915
0.122449
0.12425
0.125656
0.126824
0.127824
0.12869
0.129442
0.130093
0.130654
0.131136
0.131549
0.131903
0.000300246
0.00118424
0.00254101
0.00356992
0.00446377
0.00533839
0.00660264
0.00795254
0.00978175
0.0121144
0.0151254
0.0190374
0.023547
0.0292664
0.0363642
0.0451166
0.0551189
0.065641
0.076003
0.0855755
0.0938394
0.100391
0.105316
0.10909
0.112052
0.11442
0.116344
0.117927
0.119241
0.120344
0.121278
0.122073
0.122754
0.123341
0.123846
0.000209169
0.00101555
0.00249364
0.00402374
0.00553682
0.00705779
0.00864946
0.0104511
0.0127899
0.0161494
0.0209515
0.0266754
0.0327497
0.0387482
0.0447869
0.0512516
0.0584503
0.0661022
0.0737819
0.0810754
0.087716
0.0933372
0.0978076
0.101342
0.104172
0.106465
0.108343
0.109899
0.1112
0.112298
0.113231
0.114032
0.114721
0.115317
0.115834
0.000262896
0.00225527
0.00491739
0.00752246
0.00993746
0.0120056
0.0136017
0.0147507
0.0161382
0.0190314
0.0239812
0.0301788
0.0367705
0.0435393
0.0500291
0.0562378
0.0624145
0.0684567
0.0742345
0.0796315
0.0845791
0.0888741
0.0924158
0.0953268
0.0977321
0.0997239
0.101383
0.102774
0.103947
0.104944
0.105796
0.10653
0.107166
0.107722
0.10821
0.000316522
0.00282889
0.00707656
0.0116654
0.0160557
0.0200244
0.0234753
0.0264986
0.0292056
0.0319326
0.0351363
0.0388658
0.0431638
0.0482381
0.0536898
0.0590076
0.0642358
0.069262
0.0739891
0.0783786
0.0824036
0.0858945
0.0887613
0.0910999
0.0930275
0.0946333
0.0959845
0.0971301
0.0981082
0.0989481
0.0996735
0.100304
0.100854
0.101338
0.101765
0.000237493
0.00194897
0.00444596
0.00727977
0.010511
0.0141938
0.0183011
0.0227457
0.0274114
0.0322109
0.0371129
0.0421095
0.047251
0.052646
0.0577921
0.0624551
0.0667933
0.0708114
0.0745147
0.0779193
0.0810395
0.0837652
0.0860328
0.0879157
0.0894893
0.0908131
0.0919338
0.0928888
0.0937068
0.094411
0.0950206
0.0955508
0.0960144
0.0964216
0.0967807
0.000250216
0.00212673
0.00500731
0.00820033
0.0116341
0.0153349
0.0193361
0.023653
0.0282699
0.0331404
0.038208
0.0434217
0.0487284
0.054146
0.0591403
0.0635184
0.0674808
0.0710701
0.0743176
0.0772552
0.0799111
0.0822039
0.0840923
0.0856455
0.0869374
0.0880232
0.0889439
0.0897305
0.090407
0.0909919
0.0914999
0.0919429
0.0923308
0.0926715
0.0929719
0.00024194
0.00213474
0.00492803
0.00801799
0.0113821
0.0150713
0.0191361
0.0236001
0.0284424
0.0335965
0.038963
0.0443962
0.0497855
0.0551836
0.0599807
0.0640569
0.0676499
0.0708411
0.0736919
0.0762499
0.0785523
0.080538
0.0821772
0.0835327
0.0846637
0.0856153
0.0864219
0.0871099
0.0877001
0.0882091
0.0886502
0.0890339
0.0893688
0.0896622
0.0899198
0.000185753
0.00173616
0.00423357
0.00714445
0.0103785
0.0139434
0.0178627
0.0221578
0.026835
0.0318709
0.0372034
0.0427309
0.048332
0.0538921
0.0587946
0.0629005
0.0664568
0.0695615
0.0722922
0.0747097
0.0768612
0.0786997
0.080207
0.0814466
0.082476
0.0833396
0.0840712
0.0846957
0.0852321
0.0856952
0.0860966
0.0864456
0.0867501
0.0870163
0.0872496
0.000188583
0.00183606
0.00446705
0.00751687
0.0108919
0.0145779
0.018578
0.0228924
0.0275064
0.0323893
0.03748
0.0426721
0.0479122
0.053124
0.0577257
0.0615907
0.0649472
0.0678825
0.0704668
0.0727561
0.0747945
0.0765375
0.0779685
0.0791478
0.0801299
0.0809549
0.0816534
0.0822489
0.0827595
0.0831995
0.0835803
0.083911
0.084199
0.0844506
0.0846708
0.000157457
0.00161756
0.00392559
0.00665571
0.00975104
0.0131998
0.0170019
0.021163
0.0256755
0.0304953
0.0355511
0.0407498
0.0459906
0.0511734
0.0557351
0.0595494
0.0628478
0.0657213
0.0682426
0.0704701
0.0724502
0.0741425
0.0755319
0.0766777
0.0776321
0.0784332
0.0791115
0.07969
0.0801862
0.080614
0.0809844
0.0813062
0.0815866
0.0818316
0.082046
0.000157895
0.00163578
0.00400395
0.00681807
0.0099879
0.0134783
0.0172709
0.0213464
0.0256794
0.0302328
0.0349503
0.0397886
0.0446792
0.0495382
0.0538464
0.0574735
0.0606286
0.0633911
0.0658252
0.0679825
0.0699059
0.0715543
0.0729107
0.0740312
0.0749661
0.0757528
0.0764195
0.0769883
0.0774761
0.0778966
0.0782605
0.0785767
0.0788525
0.0790936
0.0793049
0.000135439
0.00151202
0.003672
0.00623812
0.00916172
0.0124357
0.0160478
0.0199778
0.0241914
0.0286399
0.0332625
0.037992
0.0427549
0.0474763
0.0516555
0.0551709
0.0582293
0.0609089
0.0632725
0.0653709
0.067245
0.0688545
0.0701811
0.0712782
0.0721946
0.072966
0.07362
0.0741782
0.0746573
0.0750705
0.0754286
0.0757399
0.0760116
0.0762493
0.0764579
0.000135704
0.00148318
0.00365234
0.00624008
0.00916152
0.0123842
0.0158864
0.0196463
0.0236378
0.0278224
0.0321591
0.0366055
0.0410942
0.0455613
0.0495347
0.0528917
0.0558239
0.058402
0.0606826
0.062713
0.064531
0.0660956
0.0673875
0.0684576
0.0693526
0.0701071
0.0707474
0.0712941
0.0717634
0.0721682
0.0725189
0.0728241
0.0730905
0.0733239
0.0735289
0.000120705
0.00142303
0.00344305
0.00584069
0.00856775
0.0116083
0.0149457
0.0185561
0.0224059
0.0264519
0.0306444
0.0349313
0.0392514
0.0435448
0.0473613
0.0505865
0.0534061
0.0558885
0.0580887
0.0600507
0.0618101
0.0633262
0.0645797
0.0656191
0.0664892
0.0672231
0.0678462
0.0683785
0.0688358
0.0692304
0.0695724
0.0698699
0.0701297
0.0703574
0.0705575
0.000120635
0.00135232
0.00332503
0.00567823
0.00833833
0.0112779
0.0144778
0.0179173
0.0215702
0.0253998
0.0293685
0.0334318
0.0375327
0.041616
0.0452539
0.0483347
0.0510335
0.0534142
0.0555279
0.0574161
0.059112
0.0605754
0.0617865
0.0627916
0.0636333
0.0643436
0.0649469
0.0654623
0.0659049
0.0662868
0.0666178
0.0669058
0.0671574
0.0673782
0.0675726
0.000112096
0.00129023
0.00314447
0.00535469
0.00786619
0.0106583
0.0137128
0.0170066
0.0205099
0.0241846
0.0279897
0.0318801
0.0358026
0.0397055
0.0431819
0.046127
0.0487089
0.0509889
0.0530159
0.0548289
0.0564589
0.0578668
0.0590326
0.0600006
0.0608113
0.0614954
0.0620765
0.0625729
0.0629991
0.0633668
0.0636855
0.0639629
0.0642055
0.0644185
0.0646062
0.000109653
0.00122594
0.00301298
0.00514692
0.00756341
0.0102386
0.0131546
0.0162911
0.0196222
0.0231131
0.026728
0.0304254
0.0341548
0.037868
0.0411784
0.0439856
0.0464495
0.048628
0.0505669
0.052303
0.0538653
0.0552155
0.056334
0.0572626
0.0580403
0.0586965
0.0592536
0.0597294
0.0601378
0.0604902
0.0607956
0.0610615
0.0612942
0.0614986
0.0616791
0.000103791
0.00117015
0.00286393
0.00488701
0.00718373
0.00973268
0.012516
0.0155122
0.0186943
0.0220272
0.025475
0.0289978
0.0325485
0.0360824
0.0392337
0.0419077
0.0442568
0.0463355
0.0481874
0.0498468
0.0513408
0.0526324
0.0537023
0.0545904
0.055334
0.0559611
0.0564932
0.0569475
0.0573373
0.0576734
0.0579648
0.0582185
0.0584406
0.058636
0.0588086
0.00010058
0.00111217
0.00273658
0.00467818
0.00687791
0.00931342
0.0119674
0.01482
0.017846
0.0210126
0.0242871
0.027632
0.0310034
0.0343601
0.0373555
0.0398992
0.0421357
0.0441167
0.0458828
0.0474661
0.0488922
0.0501252
0.0511462
0.0519934
0.0527022
0.0532995
0.053806
0.0542381
0.0546086
0.0549281
0.0552048
0.0554458
0.0556569
0.0558426
0.0560069
9.60547e-05
0.00105911
0.00260381
0.004452
0.00654816
0.00887034
0.0114008
0.0141193
0.0170007
0.0200135
0.0231266
0.0263047
0.0295068
0.032695
0.0355409
0.0379593
0.0400872
0.0419734
0.0436561
0.0451653
0.0465248
0.0476998
0.0486724
0.0494787
0.0501527
0.0507201
0.0512007
0.0516102
0.0519611
0.0522633
0.0525249
0.0527528
0.0529522
0.0531278
0.0532832
9.25677e-05
0.00100612
0.00248208
0.00424841
0.00624898
0.00846202
0.0108706
0.0134559
0.016194
0.0190552
0.0220107
0.0250263
0.0280643
0.0310894
0.0337914
0.0360892
0.0381127
0.0399077
0.04151
0.0429476
0.0442426
0.0453612
0.0462863
0.0470524
0.0476918
0.0482294
0.048684
0.0490707
0.0494015
0.0496861
0.0499321
0.0501461
0.0503334
0.0504982
0.0506441
8.86011e-05
0.00095446
0.00235687
0.00403804
0.00594358
0.0080517
0.0103453
0.0128052
0.0154083
0.0181259
0.0209311
0.0237914
0.0266721
0.0295413
0.0321057
0.0342884
0.0362124
0.0379206
0.0394464
0.0408156
0.0420487
0.0431131
0.0439923
0.0447191
0.0453247
0.0458327
0.0462613
0.046625
0.0469354
0.0472018
0.0474316
0.047631
0.0478053
0.0479584
0.048094
8.50309e-05
0.000904707
0.00223977
0.00384187
0.00565721
0.00766413
0.00984571
0.0121834
0.0146544
0.0172318
0.0198912
0.0226011
0.0253304
0.0280501
0.0304834
0.032557
0.0343868
0.036013
0.0374665
0.0387711
0.0399456
0.0409585
0.0417937
0.0424827
0.0430553
0.0435341
0.0439368
0.0442773
0.0445667
0.0448142
0.0450268
0.0452108
0.0453709
0.0455112
0.0456352
0.0832774
0.0822556
0.0812498
0.0802764
0.0793502
0.0784882
0.0777125
0.0770484
0.0765221
0.076156
0.0759635
0.0759403
0.0760562
0.0762683
0.0765169
0.0767297
0.076829
0.0767316
0.0763761
0.0757906
0.0750485
0.074222
0.101099
0.100647
0.100257
0.0999583
0.0997664
0.0996868
0.0997142
0.0998473
0.100139
0.100645
0.10142
0.102373
0.103626
0.105048
0.106198
0.107072
0.107662
0.107983
0.108057
0.107883
0.107432
0.106669
0.132207
0.131362
0.130525
0.129677
0.128799
0.127876
0.126898
0.125852
0.124727
0.123496
0.122118
0.120528
0.118783
0.117041
0.115487
0.114073
0.112727
0.111419
0.110163
0.108966
0.107825
0.106734
0.134508
0.134043
0.133475
0.132817
0.132085
0.131297
0.130473
0.129632
0.12879
0.127965
0.127176
0.126466
0.125807
0.125089
0.124153
0.123121
0.122087
0.121052
0.12002
0.118996
0.117987
0.116996
0.139536
0.139579
0.139545
0.139426
0.139212
0.138895
0.138473
0.137947
0.137325
0.136618
0.135838
0.135005
0.134163
0.133341
0.13255
0.131778
0.131011
0.130242
0.129464
0.128676
0.127875
0.127063
0.135513
0.136187
0.136789
0.137306
0.137727
0.138045
0.138256
0.138358
0.13835
0.138218
0.137998
0.137663
0.137222
0.13668
0.136031
0.135323
0.134601
0.133894
0.133215
0.132573
0.131966
0.131389
0.132405
0.133054
0.133671
0.134253
0.134784
0.135252
0.135666
0.136006
0.136264
0.136437
0.136524
0.136523
0.136438
0.136281
0.136062
0.135788
0.13547
0.135124
0.134765
0.134406
0.134053
0.133705
0.124606
0.125593
0.126539
0.127439
0.128287
0.129079
0.12981
0.130476
0.131075
0.131602
0.132057
0.132437
0.132737
0.132964
0.133133
0.133257
0.133345
0.133397
0.133414
0.133397
0.133349
0.133277
0.116625
0.117703
0.118762
0.119797
0.120804
0.12178
0.122719
0.123617
0.12447
0.125272
0.12602
0.126705
0.127311
0.127833
0.128283
0.128669
0.128999
0.12928
0.129518
0.129717
0.12988
0.130012
0.108977
0.110049
0.11112
0.112186
0.113243
0.114288
0.115316
0.116323
0.117304
0.118255
0.119171
0.120042
0.120843
0.121564
0.122212
0.122793
0.123316
0.123784
0.124205
0.124582
0.124921
0.125224
0.102447
0.103415
0.104396
0.105387
0.106386
0.10739
0.108396
0.1094
0.110399
0.111388
0.112365
0.113316
0.114214
0.115044
0.115808
0.116514
0.117163
0.117762
0.118314
0.118822
0.11929
0.119722
0.0973588
0.0981892
0.0990396
0.0999084
0.100794
0.101695
0.102608
0.103532
0.104464
0.105399
0.106334
0.107259
0.108147
0.10898
0.109761
0.110494
0.111181
0.111825
0.11243
0.112997
0.113528
0.114027
0.0934596
0.0941622
0.0948827
0.0956212
0.0963777
0.097152
0.0979434
0.0987509
0.0995733
0.100409
0.101256
0.102106
0.102932
0.103719
0.104467
0.105178
0.105852
0.106491
0.107097
0.107672
0.108217
0.108733
0.0903461
0.090964
0.0915964
0.0922435
0.0929056
0.0935826
0.0942746
0.0949816
0.0957033
0.0964394
0.0971891
0.0979458
0.0986876
0.0993994
0.100082
0.100735
0.101361
0.101959
0.10253
0.103076
0.103597
0.104095
0.0876475
0.0882269
0.088815
0.0894126
0.0900202
0.0906384
0.0912676
0.0919083
0.0925608
0.0932251
0.0939015
0.0945847
0.0952556
0.0959012
0.0965224
0.0971194
0.0976929
0.0982433
0.0987713
0.0992776
0.099763
0.100228
0.0850641
0.0856441
0.0862291
0.0868194
0.0874154
0.0880175
0.0886262
0.0892418
0.0898648
0.0904953
0.0911336
0.0917751
0.0924024
0.0930042
0.0935815
0.0941355
0.094667
0.0951769
0.095666
0.0961351
0.0965851
0.0970166
0.08245
0.0830552
0.0836629
0.0842732
0.0848864
0.0855025
0.0861218
0.0867446
0.0873709
0.0880008
0.0886343
0.089267
0.0898816
0.0904673
0.091026
0.0915594
0.092069
0.0925563
0.0930224
0.0934685
0.0938958
0.094305
0.0797265
0.0803698
0.0810151
0.0816621
0.0823104
0.08296
0.0836106
0.084262
0.0849137
0.0855658
0.0862181
0.0868657
0.0874914
0.0880847
0.0886478
0.0891828
0.0896915
0.0901756
0.0906367
0.0910762
0.0914953
0.0918953
0.0768986
0.0775832
0.0782706
0.0789602
0.0796512
0.0803431
0.0810351
0.0817268
0.0824178
0.0831076
0.0837958
0.0844769
0.0851326
0.0857519
0.0863375
0.0868916
0.0874165
0.0879141
0.0883862
0.0888343
0.0892601
0.0896649
0.0739872
0.0747117
0.0754401
0.0761719
0.0769062
0.0776424
0.0783795
0.0791168
0.0798536
0.0805889
0.0813221
0.0820471
0.0827441
0.0834012
0.0840213
0.0846069
0.0851601
0.0856833
0.0861783
0.0866469
0.0870908
0.0875116
0.071031
0.0717917
0.0725582
0.0733297
0.0741054
0.0748844
0.0756658
0.0764486
0.0772319
0.0780145
0.0787957
0.0795685
0.0803116
0.0810123
0.0816732
0.082297
0.0828859
0.0834422
0.0839679
0.0844649
0.0849351
0.08538
0.0680591
0.0688526
0.0696537
0.0704618
0.0712758
0.0720948
0.0729179
0.0737441
0.0745722
0.075401
0.0762295
0.0770503
0.0778406
0.0785864
0.0792905
0.0799553
0.0805832
0.0811764
0.081737
0.0822669
0.082768
0.083242
0.0651032
0.0659254
0.0667572
0.0675978
0.0684463
0.0693018
0.0701632
0.0710294
0.0718993
0.0727717
0.0736451
0.074512
0.075348
0.0761382
0.0768851
0.0775911
0.0782587
0.0788899
0.0794869
0.0800515
0.0805858
0.0810913
0.0621846
0.0630321
0.0638911
0.0647607
0.0656402
0.0665285
0.0674246
0.0683275
0.0692359
0.0701485
0.0710639
0.0719741
0.0728534
0.0736859
0.0744739
0.07522
0.0759262
0.0765949
0.077228
0.0778275
0.0783953
0.078933
0.0593208
0.0601904
0.0610733
0.0619687
0.0628758
0.0637937
0.0647213
0.0656575
0.0666011
0.0675507
0.068505
0.0694555
0.0703754
0.0712476
0.0720746
0.0728586
0.0736019
0.0743066
0.0749747
0.0756081
0.0762086
0.0767781
0.0565242
0.0574131
0.058317
0.0592353
0.0601672
0.0611116
0.0620677
0.0630342
0.0640101
0.0649938
0.065984
0.0669719
0.0679295
0.068839
0.0697026
0.0705225
0.0713008
0.0720397
0.0727411
0.0734069
0.074039
0.074639
0.0538039
0.0547094
0.0556318
0.0565703
0.0575242
0.0584925
0.0594744
0.0604687
0.061474
0.0624892
0.0635127
0.0645354
0.0655283
0.0664727
0.0673707
0.0682244
0.0690358
0.0698071
0.0705401
0.0712367
0.0718987
0.0725279
0.0511665
0.0520859
0.0530239
0.05398
0.0549534
0.0559432
0.0569485
0.057968
0.0590007
0.060045
0.0610995
0.0621547
0.0631807
0.064158
0.0650884
0.0659741
0.066817
0.067619
0.068382
0.0691079
0.0697984
0.0704553
0.048616
0.0495463
0.0504971
0.0514681
0.0524584
0.0534672
0.0544936
0.0555364
0.0565943
0.0576658
0.0587494
0.0598354
0.0608928
0.0619012
0.0628625
0.0637786
0.0646515
0.065483
0.0662748
0.0670288
0.0677466
0.0684298
0.0461547
0.0470923
0.0480528
0.0490355
0.05004
0.0510653
0.0521106
0.0531745
0.0542559
0.055353
0.0564643
0.0575797
0.0586673
0.0597057
0.0606967
0.0616421
0.0625438
0.0634036
0.0642233
0.0650046
0.065749
0.0664582
0.0732399
0.0718266
0.0702919
0.0688836
0.0677744
0.0670596
0.105656
0.104354
0.102707
0.100684
0.098374
0.096232
0.105586
0.10435
0.103105
0.101861
0.100633
0.0994393
0.116034
0.115115
0.114213
0.113325
0.112449
0.11158
0.126253
0.125468
0.124693
0.123925
0.123174
0.122446
0.130823
0.130275
0.129759
0.129263
0.128767
0.128258
0.133338
0.132962
0.132576
0.132184
0.131795
0.131416
0.133132
0.132921
0.132697
0.132468
0.13224
0.132019
0.130013
0.129895
0.129768
0.129638
0.129507
0.129376
0.125358
0.125333
0.125291
0.125236
0.12517
0.125092
0.119956
0.119997
0.120017
0.120019
0.120003
0.11997
0.114316
0.114395
0.114453
0.114491
0.11451
0.11451
0.109043
0.109141
0.109219
0.109278
0.109318
0.109339
0.104401
0.104507
0.104595
0.104664
0.104717
0.104751
0.10052
0.100628
0.100718
0.100792
0.100849
0.10089
0.0972909
0.0973961
0.0974857
0.0975597
0.0976184
0.0976619
0.0945658
0.0946659
0.0947514
0.0948223
0.0948786
0.0949206
0.0921473
0.092241
0.092321
0.0923872
0.0924398
0.0924786
0.0899152
0.0900023
0.0900761
0.0901363
0.0901832
0.0902164
0.0877656
0.087846
0.0879132
0.087967
0.0880074
0.0880342
0.0856421
0.0857159
0.0857764
0.0858235
0.085857
0.0858771
0.0835148
0.0835824
0.0836365
0.083677
0.0837036
0.083717
0.0813764
0.0814381
0.0814861
0.0815204
0.0815407
0.0815475
0.0792311
0.0792873
0.0793298
0.0793583
0.0793729
0.0793737
0.0770891
0.0771405
0.0771779
0.0772013
0.0772107
0.0772061
0.0749628
0.0750097
0.0750427
0.0750615
0.0750663
0.0750571
0.072864
0.072907
0.072936
0.0729509
0.0729517
0.0729384
0.0708031
0.0708427
0.0708682
0.0708796
0.0708771
0.0708603
0.0687888
0.0688252
0.0688477
0.0688561
0.0688507
0.0688311
0.0668276
0.066861
0.0668806
0.0668864
0.0668787
0.066857
0.0668511
0.0670808
0.0676409
0.0685258
0.0697177
0.0711916
0.0729191
0.0748691
0.0770084
0.0792998
0.0817048
0.0841775
0.0866253
0.0889867
0.0912406
0.093363
0.0953334
0.0971379
0.0987706
0.100232
0.101528
0.102688
0.0944504
0.0932895
0.0925885
0.0923956
0.0927088
0.0934778
0.0946233
0.0960585
0.0977052
0.0995029
0.101412
0.103395
0.105386
0.107334
0.109231
0.111069
0.112842
0.114546
0.116176
0.117732
0.119212
0.120616
0.0984499
0.0977326
0.0972055
0.0969152
0.096894
0.0971472
0.0976488
0.0983458
0.0991736
0.100079
0.101039
0.10206
0.103145
0.10429
0.105493
0.106739
0.108021
0.109333
0.110673
0.112036
0.113418
0.114809
0.110919
0.110474
0.110061
0.109702
0.10942
0.109239
0.109182
0.109271
0.109535
0.109991
0.110615
0.111375
0.112218
0.11327
0.114461
0.115691
0.116918
0.118126
0.119319
0.120503
0.121683
0.122855
0.121914
0.121558
0.121221
0.120908
0.120623
0.120376
0.120175
0.120034
0.119976
0.12
0.120101
0.120293
0.120585
0.120782
0.120936
0.121145
0.121449
0.121851
0.122342
0.12291
0.123544
0.124244
0.127837
0.127513
0.127175
0.126835
0.126506
0.126211
0.125975
0.125805
0.125671
0.12555
0.125452
0.125378
0.125329
0.125305
0.125313
0.125358
0.125444
0.125568
0.125731
0.125927
0.126154
0.126408
0.131111
0.130881
0.130662
0.130458
0.130272
0.130104
0.129949
0.129803
0.129662
0.129528
0.1294
0.129269
0.129146
0.129036
0.128943
0.128859
0.12879
0.128736
0.128695
0.128667
0.128651
0.128645
0.131801
0.131591
0.131387
0.131185
0.130976
0.130747
0.130478
0.130155
0.12979
0.129399
0.129004
0.128618
0.128245
0.127886
0.127537
0.127195
0.12686
0.126533
0.126215
0.125905
0.125602
0.125304
0.129167
0.128883
0.128588
0.12828
0.127956
0.127613
0.12725
0.126866
0.126462
0.126039
0.125598
0.125139
0.124675
0.124211
0.123747
0.123281
0.122814
0.122344
0.121871
0.121397
0.120922
0.120449
0.12488
0.124537
0.124177
0.123802
0.123408
0.122995
0.122561
0.122103
0.121621
0.12111
0.120568
0.119996
0.119405
0.11881
0.11821
0.117607
0.117003
0.116398
0.115795
0.115193
0.114596
0.114005
0.119754
0.11936
0.11895
0.11852
0.118069
0.117595
0.117098
0.116575
0.116026
0.115448
0.114839
0.114202
0.113553
0.112905
0.11226
0.11162
0.110985
0.110357
0.109737
0.109126
0.108527
0.107938
0.114301
0.113889
0.113461
0.113014
0.112546
0.112057
0.111547
0.111013
0.110455
0.109872
0.109261
0.108627
0.107985
0.10735
0.106723
0.106107
0.105502
0.104911
0.104333
0.103769
0.10322
0.102685
0.109143
0.108739
0.108319
0.107882
0.107426
0.106953
0.10646
0.105948
0.105416
0.104864
0.104291
0.103699
0.103105
0.102521
0.101949
0.101389
0.100841
0.100306
0.0997821
0.0992704
0.0987702
0.098281
0.104578
0.104204
0.103816
0.103413
0.102995
0.102561
0.102111
0.101644
0.101159
0.100656
0.100134
0.0995957
0.099055
0.0985232
0.0980002
0.0974861
0.0969809
0.0964844
0.0959961
0.0955155
0.0950421
0.0945755
0.100738
0.100397
0.100044
0.0996767
0.0992947
0.0988974
0.0984844
0.0980548
0.0976078
0.0971423
0.0966569
0.0961536
0.0956449
0.0951412
0.0946422
0.0941474
0.0936563
0.0931684
0.092683
0.0921996
0.0917176
0.0912368
0.0975258
0.0972152
0.0968906
0.0965511
0.0961959
0.0958242
0.0954348
0.0950268
0.0945987
0.0941489
0.0936754
0.0931794
0.0926725
0.0921652
0.091657
0.0911476
0.0906366
0.0901239
0.0896095
0.0890934
0.0885755
0.0880562
0.094791
0.094494
0.0941814
0.0938523
0.0935053
0.093139
0.0927518
0.0923417
0.0919067
0.0914448
0.0909534
0.0904338
0.0898982
0.0893578
0.0888127
0.0882628
0.0877082
0.0871492
0.0865861
0.0860193
0.0854492
0.0848764
0.0923475
0.0920487
0.0917315
0.0913948
0.0910369
0.0906561
0.0902504
0.0898178
0.0893558
0.0888618
0.0883331
0.0877703
0.0871869
0.0865953
0.0859962
0.0853903
0.0847783
0.0841609
0.0835391
0.0829139
0.0822863
0.0816572
0.0900746
0.0897584
0.0894209
0.0890606
0.0886756
0.0882639
0.0878234
0.0873516
0.0868461
0.0863039
0.0857221
0.0851017
0.0844578
0.0838046
0.0831434
0.0824753
0.0818015
0.0811235
0.0804426
0.07976
0.0790769
0.0783943
0.0878754
0.0875303
0.0871608
0.0867653
0.0863418
0.0858881
0.085402
0.0848809
0.0843223
0.0837234
0.083081
0.082397
0.0816884
0.0809713
0.0802474
0.0795183
0.0787856
0.0780508
0.0773154
0.0765807
0.075848
0.0751187
0.0856968
0.0853148
0.0849057
0.0844678
0.083999
0.0834973
0.0829602
0.0823854
0.0817703
0.0811121
0.0804081
0.0796606
0.0788889
0.0781106
0.0773278
0.0765421
0.0757554
0.0749692
0.0741851
0.0734046
0.0726288
0.0718591
0.0835131
0.08309
0.0826375
0.0821539
0.0816373
0.0810856
0.0804964
0.0798674
0.0791962
0.0784804
0.0777171
0.0769095
0.0760789
0.0752443
0.0744077
0.0735711
0.0727362
0.0719047
0.0710782
0.0702579
0.0694452
0.0686413
0.0813193
0.0808536
0.0803568
0.0798273
0.0792631
0.0786621
0.0780222
0.0773412
0.0766168
0.0758467
0.0750284
0.0741656
0.0732813
0.0723958
0.0715112
0.0706294
0.0697522
0.0688811
0.0680177
0.0671632
0.0663189
0.0654858
0.0791215
0.0786138
0.0780737
0.0774996
0.0768896
0.0762418
0.075554
0.0748243
0.0740505
0.0732304
0.0723617
0.0714488
0.0705161
0.0695851
0.0686577
0.0677359
0.0668213
0.0659156
0.06502
0.0641358
0.0632641
0.0624058
0.0769312
0.0763832
0.0758018
0.0751855
0.0745324
0.0738407
0.0731085
0.0723338
0.0715145
0.0706487
0.0697342
0.0687759
0.0677996
0.0668277
0.0658621
0.0649046
0.063957
0.0630206
0.0620968
0.0611866
0.0602911
0.0594112
0.0747609
0.0741748
0.0735547
0.0728989
0.0722058
0.0714735
0.0707001
0.0698839
0.0690229
0.0681152
0.067159
0.0661593
0.0651436
0.0641347
0.0631348
0.0621454
0.0611682
0.0602047
0.0592559
0.0583229
0.0574066
0.056508
0.0726225
0.0720008
0.0713446
0.0706521
0.0699217
0.0691517
0.0683403
0.0674858
0.0665863
0.0656401
0.0646455
0.0636081
0.0625563
0.0615138
0.0604826
0.0594645
0.0584608
0.0574729
0.0565021
0.0555491
0.054615
0.0537003
0.0705262
0.0698714
0.0691814
0.0684547
0.0676895
0.0668843
0.0660375
0.0651473
0.064212
0.0632302
0.0622
0.0611276
0.0600425
0.0589691
0.0579094
0.056865
0.0558375
0.054828
0.0538377
0.0528675
0.0519181
0.0509902
0.0684801
0.0677944
0.0670726
0.0663135
0.0655156
0.0646773
0.0637971
0.0628733
0.0619045
0.0608891
0.0598255
0.0587203
0.0576041
0.056502
0.0554159
0.0543476
0.0532986
0.05227
0.0512629
0.0502782
0.0493165
0.0483784
0.0664909
0.0657751
0.0650229
0.0642329
0.0634037
0.0625339
0.0616219
0.0606662
0.0596652
0.0586177
0.0575222
0.0563857
0.0552399
0.0541108
0.0530002
0.0519101
0.0508418
0.0497967
0.0487757
0.0477795
0.0468088
0.045864
0.103517
0.104136
0.10485
0.105636
0.10646
0.107279
0.108044
0.108717
0.109279
0.109749
0.11017
0.110578
0.11094
0.111106
0.110816
0.10982
0.108067
0.10552
0.102079
0.0980258
0.0937779
0.0888294
0.0849186
0.081657
0.0784278
0.0744317
0.0690048
0.0621473
0.0541824
0.0453664
0.0359182
0.0259943
0.0157759
0.00602976
0.00111702
0.121704
0.122547
0.123435
0.124371
0.125361
0.12642
0.127562
0.128762
0.129902
0.130876
0.131603
0.13197
0.131837
0.130703
0.128986
0.126674
0.122674
0.115291
0.105073
0.0941856
0.0851599
0.0782455
0.0807477
0.088431
0.0969067
0.103717
0.107175
0.109159
0.106652
0.0964854
0.0801792
0.0596449
0.0370032
0.0153755
0.00176345
0.115941
0.116858
0.11787
0.118971
0.120141
0.121348
0.122543
0.123674
0.124658
0.125365
0.125572
0.124951
0.122957
0.118441
0.109757
0.0967572
0.0803759
0.0659807
0.055022
0.0480158
0.0493728
0.0626022
0.0758554
0.0880085
0.0970751
0.100623
0.098666
0.0925491
0.0835023
0.0719773
0.0585697
0.0437268
0.0276166
0.0119726
0.00147287
0.123785
0.124543
0.125383
0.126297
0.127267
0.128257
0.129197
0.129962
0.130339
0.130079
0.128601
0.12509
0.118559
0.105893
0.0849661
0.0647408
0.0473537
0.0356355
0.0334937
0.0342686
0.0362702
0.0402076
0.0449216
0.0488514
0.0515782
0.0519057
0.051174
0.048176
0.042339
0.0350727
0.0267295
0.0182763
0.0109471
0.00471243
0.000866484
0.124862
0.125386
0.126015
0.126766
0.127651
0.128666
0.12977
0.130852
0.13166
0.131834
0.131209
0.130043
0.128581
0.126995
0.12514
0.12148
0.114724
0.103787
0.0899069
0.0755955
0.0617905
0.0493979
0.0396111
0.0330374
0.0286981
0.0257272
0.0235497
0.0211935
0.0182294
0.0152549
0.0123991
0.00965047
0.00676222
0.00325845
0.000539654
0.126601
0.126737
0.126897
0.127097
0.127347
0.127659
0.128049
0.128528
0.129098
0.12973
0.130333
0.130736
0.130632
0.129607
0.127351
0.123929
0.119675
0.114461
0.107539
0.0986657
0.0876015
0.0743324
0.0599933
0.0479056
0.0390259
0.0346824
0.0335337
0.0332093
0.0319379
0.0295683
0.0254918
0.0199502
0.0131419
0.00572537
0.000693038
0.128645
0.128663
0.128687
0.128721
0.128769
0.128836
0.128916
0.128995
0.129044
0.128986
0.128715
0.128146
0.127211
0.12576
0.123767
0.121169
0.117909
0.113751
0.108254
0.100657
0.0897635
0.0745001
0.0545377
0.034322
0.0190165
0.0140688
0.0163731
0.0188046
0.0196493
0.0189
0.0167614
0.0133698
0.00902808
0.00411324
0.000529829
0.1251
0.124991
0.124871
0.124739
0.124595
0.124437
0.124262
0.124064
0.123832
0.123547
0.123162
0.1226
0.121716
0.120326
0.118204
0.115269
0.111645
0.107296
0.102016
0.0953394
0.0869043
0.0759807
0.0626183
0.0481991
0.0336651
0.0201223
0.0106801
0.0067384
0.00508687
0.00446004
0.00411737
0.00316921
0.00207657
0.000949297
0.000240213
0.120136
0.119983
0.119811
0.119619
0.119405
0.119162
0.118883
0.118553
0.11815
0.117629
0.116927
0.115951
0.114634
0.112926
0.110765
0.108155
0.10514
0.101638
0.0975229
0.0926154
0.0866583
0.0790378
0.0698122
0.0607586
0.0522309
0.0443918
0.0371662
0.030653
0.0247657
0.0193775
0.0144786
0.00997314
0.00585011
0.00230837
0.000276318
0.113618
0.113428
0.113215
0.112978
0.11271
0.112404
0.112051
0.111639
0.11115
0.110564
0.109848
0.108959
0.107825
0.106344
0.104401
0.101996
0.0992202
0.0960531
0.092447
0.0882875
0.0833956
0.0773674
0.0702465
0.0628127
0.0552444
0.0477148
0.0403845
0.0333655
0.0268007
0.0207732
0.0153073
0.0103964
0.00607227
0.00246106
0.000234931
0.10756
0.107382
0.107182
0.106958
0.106707
0.106423
0.106095
0.105713
0.105259
0.104704
0.10401
0.103135
0.102031
0.100643
0.0989101
0.0968235
0.0944254
0.0916614
0.0884466
0.0846481
0.0800764
0.0743286
0.0674224
0.060106
0.0526102
0.0452116
0.0380578
0.0313347
0.0251408
0.0194995
0.0143938
0.00980097
0.00572883
0.0023052
0.000254409
0.102348
0.102198
0.10203
0.101839
0.101619
0.101363
0.101063
0.100707
0.100278
0.0997586
0.0991235
0.0983413
0.0973679
0.0961363
0.0945584
0.0926071
0.090334
0.0877008
0.0846239
0.0809744
0.0765842
0.0710884
0.0645358
0.057644
0.0506173
0.0436974
0.0369703
0.0305859
0.0246278
0.0191465
0.0141623
0.00967996
0.00571265
0.00235475
0.000219323
0.0979726
0.0978366
0.0976831
0.0975083
0.0973075
0.0970746
0.0968015
0.0964769
0.0960854
0.095605
0.0950062
0.0942563
0.0933113
0.0921121
0.0905914
0.088753
0.0866145
0.0840959
0.0811054
0.0775163
0.0731582
0.0676712
0.0611135
0.0542318
0.0472665
0.0404312
0.033884
0.0277774
0.0221864
0.0171349
0.0126123
0.00859154
0.00505483
0.0020695
0.000212455
0.0942797
0.0941493
0.0940003
0.0938286
0.0936292
0.0933954
0.0931189
0.0927888
0.092391
0.0919071
0.0913135
0.0905788
0.0896606
0.0885001
0.0870238
0.0852088
0.0830652
0.0805395
0.077564
0.074028
0.0697792
0.0644881
0.0582306
0.0517092
0.0451386
0.0386859
0.0324787
0.0266677
0.02133
0.0165
0.0121779