/*--------------------------------*- C++ -*----------------------------------*\
  =========                 |
  \\      /  F ield         | OpenFOAM: The Open Source CFD Toolbox
   \\    /   O peration     | Website:  https://openfoam.org
    \\  /    A nd           | Version:  8
     \\/     M anipulation  |
\*---------------------------------------------------------------------------*/
FoamFile
{
    version     2.0;
    format      ascii;
    class       surfaceScalarField;
    location    "0.07";
    object      phi;
}
// * * * * * * * * * * * * * * * * * * * * * * * * * * * * * * * * * * * * * //

dimensions      [1 0 -1 0 0 0 0];

internalField   nonuniform List<scalar> 
31053
(
-7.1878e-06
5.73659e-06
-7.11781e-06
4.78929e-07
-1.20189e-06
-3.23491e-06
1.05807e-05
-7.53271e-06
2.9615e-05
-1.38659e-05
6.00283e-05
-2.48122e-05
0.000110097
-4.44395e-05
0.000191301
-7.58653e-05
0.000304495
-0.00010839
0.000442908
-0.000134286
0.000594969
-0.000148781
0.000746282
-0.000149326
0.000866125
-0.000119147
0.000917906
-5.23697e-05
0.000917787
-3.28409e-07
0.000888675
2.84151e-05
0.000841793
4.61326e-05
0.000782376
5.76208e-05
0.000714921
6.5875e-05
0.00065178
6.28165e-05
0.000603889
4.79424e-05
0.000569145
3.65554e-05
0.000542299
3.07907e-05
0.000519638
2.86585e-05
0.000498838
2.86604e-05
0.000478974
2.93546e-05
0.00046087
2.89701e-05
0.000444995
2.78546e-05
0.00043161
2.62206e-05
0.000420811
2.42478e-05
0.000412587
2.20522e-05
0.000406881
1.97029e-05
0.000403582
1.72616e-05
0.000402544
1.47881e-05
1.30757e-05
0.000402113
-9.22359e-05
9.80127e-05
-0.000198794
0.000107088
-0.000309985
0.000108024
-0.000418655
0.000101218
-0.000515479
8.30574e-05
-0.00058823
4.80628e-05
-0.00062241
-1.01049e-05
-0.000609769
-8.83136e-05
-0.00053773
-0.000180187
-0.000411828
-0.00025992
-0.000257311
-0.000303012
-9.92147e-05
-0.00030688
5.46448e-05
-0.000272636
0.00020532
-0.00020267
0.000307398
-0.000101825
0.000388856
-5.24022e-05
0.000465464
-2.97077e-05
0.000549562
-2.52525e-05
0.000641794
-2.57685e-05
0.000730893
-2.60084e-05
0.000804415
-2.50248e-05
0.000865569
-2.41529e-05
0.000919617
-2.28128e-05
0.000967434
-1.87338e-05
0.00100735
-1.08679e-05
0.00103713
-8.81635e-08
0.00105521
1.11791e-05
0.00106251
2.08092e-05
0.0010589
3.00468e-05
0.00104763
3.56951e-05
0.00103104
3.88036e-05
0.00101082
4.00519e-05
0.000988303
3.98951e-05
0.00096448
3.87074e-05
3.63484e-05
0.000941288
5.07954e-05
4.74195e-05
0.000106768
5.13271e-05
0.000164249
5.07747e-05
0.000217841
4.78847e-05
0.000259923
4.12588e-05
0.000279488
2.88109e-05
0.000253785
1.59561e-05
0.000160214
5.67879e-06
-1.94596e-05
-2.81147e-09
-0.000273575
-5.23461e-06
-0.000565323
-1.06956e-05
-0.00084505
-2.65238e-05
-0.00105276
-6.41141e-05
-0.00111849
-0.000135977
-0.00104065
-0.000178934
-0.00089193
-0.000200542
-0.00072035
-0.000200866
-0.000556318
-0.000188969
-0.000414236
-0.000167578
-0.000299634
-0.00014034
-0.000212602
-0.000111926
-0.00016299
-7.34948e-05
-0.000144855
-4.06857e-05
-0.000142761
-2.05934e-05
-0.000146439
-6.99105e-06
-0.000149389
3.03589e-06
-0.000148859
1.08012e-05
-0.000144081
1.61648e-05
-0.000133392
1.94715e-05
-0.00011874
2.11402e-05
-0.00010172
2.18663e-05
-8.34977e-05
2.19017e-05
-6.51795e-05
2.16407e-05
-4.72172e-05
2.08002e-05
2.00164e-05
-3.08376e-05
0.000103647
-5.64092e-05
0.000206683
-5.18949e-05
0.000306907
-4.96378e-05
0.000401638
-4.70371e-05
0.000483382
-4.06778e-05
0.000537867
-2.58712e-05
0.000549018
4.59541e-06
0.000509755
4.46688e-05
0.000411647
9.77666e-05
0.000265082
0.000140925
0.000103555
0.000150309
-3.19879e-05
0.00010843
-0.000115455
1.87293e-05
-0.000114559
-0.000137548
-6.24166e-05
-0.000231562
9.81176e-06
-0.0002731
8.24507e-05
-0.00027376
0.000146904
-0.000253599
0.000200407
-0.000221218
0.000237972
-0.000178038
0.000251201
-0.000125336
0.000236962
-5.93955e-05
0.000197696
-1.58049e-06
0.00014639
3.05543e-05
8.75063e-05
5.17504e-05
2.82781e-05
6.21365e-05
-2.57904e-05
6.47572e-05
-7.28382e-05
6.31132e-05
-0.000112852
5.93937e-05
-0.000146609
5.48137e-05
-0.000174979
5.01612e-05
-0.000198872
4.57212e-05
-0.000218774
4.14719e-05
-0.000235509
3.74724e-05
3.34619e-05
-0.000249009
-5.02488e-05
-6.20207e-06
-9.48294e-05
-7.36453e-06
-0.000136544
-7.97494e-06
-0.000175783
-7.86053e-06
-0.000210301
-6.22018e-06
-0.000234076
-2.16343e-06
-0.000235235
5.67189e-06
-0.000212022
2.13749e-05
-0.000153867
3.95216e-05
-6.5193e-05
5.21419e-05
3.47078e-05
5.02748e-05
0.00012364
1.93246e-05
0.000173948
-3.17591e-05
0.00011864
-8.2532e-05
-4.38587e-06
-0.000108806
-0.000154369
-0.000123295
-0.0003023
-0.000125952
-0.000434058
-0.000121922
-0.000543818
-0.00011149
-0.000627808
-9.40258e-05
-0.000682534
-7.05497e-05
-0.000699855
-4.20032e-05
-0.00068472
-1.66197e-05
-0.000659512
5.43786e-06
-0.000627436
1.97695e-05
-0.000595446
3.02564e-05
-0.000564896
3.43154e-05
-0.000536243
3.45656e-05
-0.00050956
3.28151e-05
-0.000484764
3.01196e-05
-0.000461588
2.70842e-05
-0.000439829
2.40546e-05
-0.000419472
2.11993e-05
-0.000400522
1.86013e-05
1.65822e-05
-0.000383569
-4.74789e-05
4.13239e-05
-9.79685e-05
4.31725e-05
-0.000149163
4.32721e-05
-0.000198287
4.13204e-05
-0.000240714
3.62742e-05
-0.000269817
2.7023e-05
-0.00027685
1.28124e-05
-0.000250323
-5.01007e-06
-0.000181528
-2.91093e-05
-7.94896e-05
-4.97109e-05
3.78361e-05
-6.68428e-05
0.000135381
-7.80268e-05
0.000191674
-8.79414e-05
0.000212922
-0.000103598
0.000203348
-9.90762e-05
0.000177148
-9.69668e-05
0.000144426
-9.313e-05
0.000109102
-8.65022e-05
7.17758e-05
-7.40568e-05
3.28507e-05
-5.50096e-05
-8.53163e-06
-2.91095e-05
-4.97154e-05
-8.07458e-07
-8.21662e-05
1.58077e-05
-0.00010189
2.51352e-05
-0.000112621
3.04701e-05
-0.000115723
3.33156e-05
-0.000116098
3.46416e-05
-0.000116457
3.48745e-05
-0.000117974
3.42779e-05
-0.000120974
3.30652e-05
-0.000125364
3.14195e-05
-0.000130858
2.94962e-05
-0.000137128
2.7421e-05
-0.00014386
2.52918e-05
2.29949e-05
-0.000150309
1.53043e-05
2.60039e-05
3.10091e-05
2.74512e-05
4.78684e-05
2.63945e-05
6.50019e-05
2.41665e-05
8.11115e-05
2.01416e-05
9.46723e-05
1.34367e-05
0.000104166
3.29369e-06
0.000105366
-6.2333e-06
9.19365e-05
-1.5702e-05
6.85318e-05
-2.63311e-05
3.9776e-05
-3.81141e-05
1.16424e-05
-4.99213e-05
-1.74993e-05
-5.88196e-05
-5.92811e-05
-6.1827e-05
-0.00010826
-5.00956e-05
-0.000161444
-4.37816e-05
-0.000214642
-3.99373e-05
-0.000264181
-3.69771e-05
-0.000305684
-3.2574e-05
-0.000335185
-2.55258e-05
-0.000347518
-1.67956e-05
-0.000343989
-4.3215e-06
-0.000335036
6.89102e-06
-0.000326236
1.63923e-05
-0.000318114
2.24143e-05
-0.000309911
2.51816e-05
-0.000301237
2.60355e-05
-0.000292006
2.57105e-05
-0.000282326
2.46618e-05
-0.000272391
2.31919e-05
-0.000262415
2.15018e-05
-0.000252571
1.97071e-05
-0.000242995
1.78958e-05
-0.000233795
1.61399e-05
1.46361e-05
-0.000225392
3.24162e-05
-6.42601e-06
6.62621e-05
-6.40977e-06
0.000100194
-7.55267e-06
0.000133433
-9.08996e-06
0.000164307
-1.07511e-05
0.000189886
-1.21626e-05
0.00020596
-1.28057e-05
0.000213061
-1.33631e-05
0.000214712
-1.73857e-05
0.000211971
-2.36192e-05
0.000204736
-3.0915e-05
0.000191355
-3.65843e-05
0.000168809
-3.6345e-05
0.000134314
-2.742e-05
9.64686e-05
-1.23312e-05
5.89261e-05
-6.2987e-06
2.45483e-05
-5.62411e-06
-6.83022e-06
-5.67023e-06
-3.6038e-05
-3.43482e-06
-6.34162e-05
1.79734e-06
-8.9358e-05
9.08199e-06
-0.00010755
1.38066e-05
-0.000117882
1.71633e-05
-0.000120986
1.94347e-05
-0.00011969
2.10612e-05
-0.000116775
2.22139e-05
-0.000113666
2.28751e-05
-0.000111038
2.30338e-05
-0.00010918
2.2757e-05
-0.000108163
2.21301e-05
-0.000107932
2.12294e-05
-0.000108366
2.01022e-05
-0.000109306
1.88013e-05
-0.00011061
1.74134e-05
1.59007e-05
-0.000111902
8.4637e-06
-1.48892e-05
1.87623e-05
-1.67082e-05
2.86548e-05
-1.74462e-05
3.73749e-05
-1.78109e-05
4.42918e-05
-1.76691e-05
4.89698e-05
-1.68403e-05
5.13169e-05
-1.51498e-05
5.05454e-05
-1.25891e-05
4.29163e-05
-9.74675e-06
2.7708e-05
-8.41457e-06
5.2318e-06
-8.56434e-06
-2.31291e-05
-8.01362e-06
-5.12397e-05
-8.15842e-06
-7.09067e-05
-7.6883e-06
-7.70057e-05
-6.14974e-06
-7.81549e-05
-5.06399e-06
-8.01248e-05
-3.5603e-06
-8.45206e-05
-1.17947e-06
-9.01391e-05
2.27692e-06
-9.50721e-05
6.82171e-06
-9.99433e-05
1.40571e-05
-0.00010504
1.89905e-05
-0.00010946
2.1663e-05
-0.000112899
2.29453e-05
-0.000114969
2.31966e-05
-0.000115555
2.28588e-05
-0.000114764
2.21345e-05
-0.000112753
2.10691e-05
-0.000109735
1.97803e-05
-0.000105944
1.83762e-05
-0.000101617
1.69352e-05
-9.69937e-05
1.55069e-05
-9.22808e-05
1.41153e-05
-8.76348e-05
1.2793e-05
1.16511e-05
-8.33615e-05
7.79832e-06
-2.27027e-05
1.45727e-05
-2.34995e-05
2.07354e-05
-2.36277e-05
2.63539e-05
-2.34511e-05
3.12076e-05
-2.25476e-05
3.46591e-05
-2.032e-05
3.56514e-05
-1.61751e-05
3.23448e-05
-9.31497e-06
2.20557e-05
5.03984e-07
6.42695e-06
7.19331e-06
-1.34312e-05
1.14002e-05
-3.43271e-05
1.26607e-05
-5.41223e-05
1.15512e-05
-7.10639e-05
9.18161e-06
-8.32384e-05
5.95805e-06
-9.2407e-05
4.03077e-06
-9.9662e-05
3.61733e-06
-0.000105487
4.56274e-06
-0.000109654
6.36212e-06
-0.000111588
8.67591e-06
-0.000109312
1.17003e-05
-0.000104273
1.38764e-05
-9.82102e-05
1.55311e-05
-9.21291e-05
1.68015e-05
-8.65205e-05
1.75325e-05
-8.15207e-05
1.78094e-05
-7.71718e-05
1.77404e-05
-7.3494e-05
1.73502e-05
-7.04808e-05
1.67299e-05
-6.80975e-05
1.59588e-05
-6.62855e-05
1.50924e-05
-6.49703e-05
1.41638e-05
-6.40764e-05
1.31966e-05
-6.35227e-05
1.22173e-05
1.11932e-05
-6.30842e-05
-1.88191e-05
-3.87224e-06
-3.77155e-05
-4.59103e-06
-5.58406e-05
-5.48979e-06
-7.28394e-05
-6.43861e-06
-8.8089e-05
-7.28288e-06
-0.000100583
-7.80954e-06
-0.000108828
-7.91056e-06
-0.00011069
-7.42941e-06
-0.000103957
-6.19987e-06
-9.25119e-05
-4.21586e-06
-7.8952e-05
-2.11286e-06
-6.54952e-05
-7.46932e-07
-5.33139e-05
-5.68724e-07
-4.32386e-05
-8.19141e-07
-3.66143e-05
-5.94637e-07
-3.27514e-05
2.42794e-07
-3.08328e-05
1.77102e-06
-3.01414e-05
3.94344e-06
-3.1294e-05
7.5865e-06
-3.41048e-05
1.15579e-05
-3.77592e-05
1.5423e-05
-4.1163e-05
1.73404e-05
-4.38189e-05
1.82387e-05
-4.55349e-05
1.85622e-05
-4.63966e-05
1.84327e-05
-4.6499e-05
1.79452e-05
-4.5892e-05
1.71623e-05
-4.46581e-05
1.61412e-05
-4.29006e-05
1.49937e-05
-4.07486e-05
1.38248e-05
-3.83373e-05
1.26971e-05
-3.57927e-05
1.16334e-05
-3.32155e-05
1.06322e-05
-3.0679e-05
9.69256e-06
8.86547e-06
-2.83406e-05
1.15959e-07
-3.99267e-06
-2.16242e-07
-4.26382e-06
-1.16422e-06
-4.54739e-06
-2.78294e-06
-4.82632e-06
-5.08117e-06
-4.99201e-06
-7.9818e-06
-4.91734e-06
-1.14402e-05
-4.46199e-06
-1.53965e-05
-3.48425e-06
-1.98623e-05
-1.74681e-06
-2.38621e-05
-2.3041e-07
-2.73104e-05
1.31811e-06
-3.05835e-05
2.50376e-06
-3.45689e-05
3.37552e-06
-3.98618e-05
4.44499e-06
-4.53529e-05
4.86784e-06
-5.07331e-05
5.59169e-06
-5.55014e-05
6.5053e-06
-5.92925e-05
7.69934e-06
-6.10035e-05
9.2625e-06
-6.06635e-05
1.11818e-05
-5.86465e-05
1.33683e-05
-5.57126e-05
1.43713e-05
-5.23913e-05
1.4885e-05
-4.89878e-05
1.51291e-05
-4.57158e-05
1.5134e-05
-4.27228e-05
1.4928e-05
-4.01124e-05
1.45293e-05
-3.79479e-05
1.39554e-05
-3.62198e-05
1.32463e-05
-3.48739e-05
1.24616e-05
-3.38412e-05
1.16489e-05
-3.30597e-05
1.08381e-05
-3.24797e-05
1.00401e-05
-3.20577e-05
9.25994e-06
8.47575e-06
-3.16775e-05
-3.11864e-06
-8.65771e-07
-6.23398e-06
-1.13917e-06
-9.38576e-06
-1.38492e-06
-1.2558e-05
-1.64218e-06
-1.56417e-05
-1.89416e-06
-1.84279e-05
-2.11599e-06
-2.05924e-05
-2.27897e-06
-2.1721e-05
-2.33384e-06
-2.11987e-05
-2.23882e-06
-1.94468e-05
-1.92071e-06
-1.67587e-05
-1.33184e-06
-1.3856e-05
-3.61354e-07
-1.13194e-05
8.94791e-07
-9.38788e-06
2.55701e-06
-8.65276e-06
4.17086e-06
-8.94603e-06
5.92132e-06
-1.01199e-05
7.71429e-06
-1.19603e-05
9.57439e-06
-1.42355e-05
1.15717e-05
-1.67074e-05
1.36866e-05
-1.92071e-05
1.58994e-05
-2.12814e-05
1.64728e-05
-2.27914e-05
1.6418e-05
-2.37168e-05
1.60742e-05
-2.40828e-05
1.55172e-05
-2.39374e-05
1.47976e-05
-2.33455e-05
1.39505e-05
-2.24069e-05
1.30282e-05
-2.12306e-05
1.20801e-05
-1.98994e-05
1.11391e-05
-1.84713e-05
1.02286e-05
-1.69894e-05
9.36303e-06
-1.54929e-05
8.5499e-06
-1.40198e-05
7.79253e-06
7.11482e-06
-1.26538e-05
-3.60028e-06
2.73086e-06
-6.92405e-06
2.18071e-06
-1.00797e-05
1.76652e-06
-1.3118e-05
1.39165e-06
-1.6063e-05
1.04548e-06
-1.89421e-05
7.58177e-07
-2.16517e-05
4.23084e-07
-2.41988e-05
2.03842e-07
-2.66131e-05
1.59474e-07
-2.89188e-05
3.39712e-07
-3.10663e-05
7.96199e-07
-3.30128e-05
1.57053e-06
-3.4656e-05
2.52388e-06
-3.59777e-05
3.86244e-06
-3.66078e-05
4.7868e-06
-3.67438e-05
6.04325e-06
-3.64786e-05
7.43499e-06
-3.58527e-05
8.93475e-06
-3.48357e-05
1.05413e-05
-3.34136e-05
1.22509e-05
-3.15757e-05
1.4048e-05
-2.96326e-05
1.4517e-05
-2.77376e-05
1.45116e-05
-2.59612e-05
1.42876e-05
-2.43352e-05
1.38819e-05
-2.28667e-05
1.33208e-05
-2.157e-05
1.26462e-05
-2.04563e-05
1.19074e-05
-1.95232e-05
1.11404e-05
-1.87575e-05
1.03675e-05
-1.81383e-05
9.60406e-06
-1.76416e-05
8.86158e-06
-1.72439e-05
8.14799e-06
-1.69242e-05
7.46898e-06
6.81387e-06
-1.66266e-05
1.15302e-06
1.58194e-06
2.12457e-06
1.21364e-06
2.95938e-06
9.36536e-07
3.65788e-06
6.98545e-07
4.21079e-06
4.98495e-07
4.56932e-06
4.06045e-07
4.62434e-06
3.75853e-07
4.39884e-06
4.38379e-07
3.94367e-06
6.24845e-07
3.31946e-06
9.75018e-07
2.44764e-06
1.68128e-06
1.3026e-06
2.7307e-06
-2.80394e-07
4.12347e-06
-2.38935e-06
5.98976e-06
-4.48088e-06
6.89493e-06
-6.54657e-06
8.1247e-06
-8.53344e-06
9.43662e-06
-1.04236e-05
1.08388e-05
-1.21766e-05
1.23077e-05
-1.37511e-05
1.3838e-05
-1.51153e-05
1.54241e-05
-1.60691e-05
1.54814e-05
-1.66207e-05
1.50724e-05
-1.68159e-05
1.44909e-05
-1.66989e-05
1.3772e-05
-1.63281e-05
1.29564e-05
-1.57635e-05
1.20874e-05
-1.50553e-05
1.12044e-05
-1.4245e-05
1.03348e-05
-1.33695e-05
9.49634e-06
-1.24608e-05
8.69915e-06
-1.15452e-05
7.94938e-06
-1.0644e-05
7.24993e-06
-9.77349e-06
6.60127e-06
6.01318e-06
-8.9703e-06
-6.5664e-07
2.23719e-06
-1.95822e-06
2.51375e-06
-3.70694e-06
2.68365e-06
-5.80861e-06
2.79839e-06
-8.16591e-06
2.85369e-06
-1.06179e-05
2.8556e-06
-1.30794e-05
2.83438e-06
-1.54772e-05
2.83283e-06
-1.77475e-05
2.89112e-06
-1.98332e-05
3.0562e-06
-2.15471e-05
3.38982e-06
-2.27892e-05
3.96677e-06
-2.35658e-05
4.8934e-06
-2.39251e-05
6.34164e-06
-2.39814e-05
6.9448e-06
-2.38113e-05
7.94867e-06
-2.34441e-05
9.06388e-06
-2.28959e-05
1.02854e-05
-2.21591e-05
1.15661e-05
-2.12203e-05
1.28946e-05
-2.00908e-05
1.42901e-05
-1.89614e-05
1.43482e-05
-1.78934e-05
1.40011e-05
-1.68824e-05
1.3477e-05
-1.59171e-05
1.28042e-05
-1.50178e-05
1.20549e-05
-1.42104e-05
1.12781e-05
-1.35027e-05
1.0495e-05
-1.28911e-05
9.72179e-06
-1.23663e-05
8.97017e-06
-1.19166e-05
8.2483e-06
-1.15298e-05
7.56158e-06
-1.11941e-05
6.91333e-06
-1.08992e-05
6.30555e-06
5.73309e-06
-1.06198e-05
7.86287e-07
1.45288e-06
1.71277e-06
1.58942e-06
2.67385e-06
1.72496e-06
3.5942e-06
1.88074e-06
4.3879e-06
2.06304e-06
4.96662e-06
2.28037e-06
5.24811e-06
2.55688e-06
5.15701e-06
2.92849e-06
4.63807e-06
3.41523e-06
3.66624e-06
4.03388e-06
2.24671e-06
4.81589e-06
4.12362e-07
5.80833e-06
-1.78835e-06
7.10195e-06
-4.26052e-06
8.82215e-06
-6.39282e-06
9.08433e-06
-8.29661e-06
9.85907e-06
-9.93906e-06
1.07123e-05
-1.12932e-05
1.16449e-05
-1.23722e-05
1.265e-05
-1.3198e-05
1.37251e-05
-1.377e-05
1.48664e-05
-1.40253e-05
1.46072e-05
-1.40121e-05
1.39912e-05
-1.37985e-05
1.32664e-05
-1.34397e-05
1.24481e-05
-1.29716e-05
1.15894e-05
-1.24273e-05
1.07361e-05
-1.18339e-05
9.90377e-06
-1.12131e-05
9.10298e-06
-1.05826e-05
8.34144e-06
-9.9565e-06
7.6239e-06
-9.34621e-06
6.95283e-06
-8.76067e-06
6.32919e-06
-8.20657e-06
5.7527e-06
5.22604e-06
-7.69841e-06
-8.81222e-07
2.33387e-06
-1.86085e-06
2.56883e-06
-2.92446e-06
2.78833e-06
-4.06161e-06
3.01763e-06
-5.25675e-06
3.25787e-06
-6.49676e-06
3.51999e-06
-7.75998e-06
3.81962e-06
-9.00427e-06
4.17217e-06
-1.01844e-05
4.59458e-06
-1.12633e-05
5.11196e-06
-1.22162e-05
5.76775e-06
-1.30395e-05
6.63052e-06
-1.37314e-05
7.79262e-06
-1.42909e-05
9.38037e-06
-1.47019e-05
9.49428e-06
-1.49915e-05
1.01478e-05
-1.51442e-05
1.08642e-05
-1.51426e-05
1.16425e-05
-1.49858e-05
1.24924e-05
-1.46984e-05
1.34369e-05
-1.42911e-05
1.44583e-05
-1.38024e-05
1.41178e-05
-1.32307e-05
1.3419e-05
-1.26068e-05
1.2642e-05
-1.19873e-05
1.18282e-05
-1.14016e-05
1.10032e-05
-1.08546e-05
1.01889e-05
-1.03488e-05
9.39773e-06
-9.88461e-06
8.63861e-06
-9.46024e-06
7.91696e-06
-9.07253e-06
7.23611e-06
-8.7182e-06
6.59845e-06
-8.39417e-06
6.00511e-06
-8.09748e-06
5.45595e-06
4.94769e-06
-7.81919e-06
6.33231e-07
1.70187e-06
1.21397e-06
1.98945e-06
1.73196e-06
2.27186e-06
2.15625e-06
2.59505e-06
2.44427e-06
2.97177e-06
2.55029e-06
3.41616e-06
2.43016e-06
3.94224e-06
2.05214e-06
4.55303e-06
1.39799e-06
5.25191e-06
4.60142e-07
6.05338e-06
-7.58175e-07
6.98999e-06
-2.23349e-06
8.11011e-06
-3.91357e-06
9.47725e-06
-5.70716e-06
1.11787e-05
-7.17693e-06
1.09681e-05
-8.42042e-06
1.13948e-05
-9.441e-06
1.18879e-05
-1.02386e-05
1.24427e-05
-1.08202e-05
1.30764e-05
-1.1209e-05
1.38277e-05
-1.14185e-05
1.46696e-05
-1.1418e-05
1.41189e-05
-1.12489e-05
1.3251e-05
-1.0967e-05
1.23612e-05
-1.06117e-05
1.14738e-05
-1.02088e-05
1.06012e-05
-9.77447e-06
9.75532e-06
-9.32234e-06
8.94633e-06
-8.86361e-06
8.18055e-06
-8.40789e-06
7.46187e-06
-7.96385e-06
6.79265e-06
-7.53839e-06
6.17353e-06
-7.13642e-06
5.60361e-06
-6.76112e-06
5.08106e-06
4.60477e-06
-6.41787e-06
-5.67683e-07
2.26994e-06
-1.18038e-06
2.60262e-06
-1.83674e-06
2.92877e-06
-2.52739e-06
3.28633e-06
-3.24027e-06
3.68538e-06
-3.95845e-06
4.13516e-06
-4.66089e-06
4.64559e-06
-5.33293e-06
5.2261e-06
-5.97222e-06
5.89236e-06
-6.58823e-06
6.67067e-06
-7.19282e-06
7.59602e-06
-7.79449e-06
8.71337e-06
-8.3988e-06
1.00833e-05
-9.00758e-06
1.17894e-05
-9.52526e-06
1.14874e-05
-9.96401e-06
1.18351e-05
-1.03071e-05
1.22323e-05
-1.05491e-05
1.26859e-05
-1.06927e-05
1.32208e-05
-1.07122e-05
1.38479e-05
-1.05727e-05
1.45305e-05
-1.03127e-05
1.38593e-05
-9.9855e-06
1.29239e-05
-9.61963e-06
1.19954e-05
-9.23218e-06
1.10864e-05
-8.83875e-06
1.02078e-05
-8.45155e-06
9.36812e-06
-8.07769e-06
8.57248e-06
-7.72146e-06
7.82432e-06
-7.38646e-06
7.12688e-06
-7.07497e-06
6.48116e-06
-6.78755e-06
5.88611e-06
-6.52366e-06
5.3397e-06
-6.28198e-06
4.83933e-06
4.38112e-06
-6.05838e-06
2.92583e-07
1.97827e-06
5.01848e-07
2.39438e-06
6.48192e-07
2.78359e-06
7.18614e-07
3.21724e-06
6.91999e-07
3.71351e-06
5.48537e-07
4.28036e-06
2.72982e-07
4.92312e-06
-1.47387e-07
5.64871e-06
-7.22776e-07
6.47026e-06
-1.45511e-06
7.40582e-06
-2.33444e-06
8.47845e-06
-3.33957e-06
9.72187e-06
-4.43711e-06
1.11845e-05
-5.57505e-06
1.29311e-05
-6.49783e-06
1.24134e-05
-7.2747e-06
1.26148e-05
-7.91378e-06
1.28738e-05
-8.41968e-06
1.31939e-05
-8.78557e-06
1.35884e-05
-8.98903e-06
1.40528e-05
-9.01657e-06
1.45592e-05
-8.90889e-06
1.37524e-05
-8.71853e-06
1.27342e-05
-8.46971e-06
1.1747e-05
-8.18241e-06
1.07995e-05
-7.87183e-06
9.89751e-06
-7.5491e-06
9.0456e-06
-7.22491e-06
8.24848e-06
-6.90923e-06
7.50878e-06
-6.6079e-06
6.82569e-06
-6.3236e-06
6.19696e-06
-6.05736e-06
5.61997e-06
-5.80934e-06
5.09173e-06
-5.57902e-06
4.60907e-06
4.16916e-06
-5.36701e-06
-3.36009e-07
2.3149e-06
-7.00717e-07
2.75982e-06
-1.09358e-06
3.17729e-06
-1.50706e-06
3.63168e-06
-1.93095e-06
4.1385e-06
-2.35771e-06
4.70836e-06
-2.78498e-06
5.35181e-06
-3.21587e-06
6.08122e-06
-3.65629e-06
6.9125e-06
-4.11263e-06
7.86422e-06
-4.5928e-06
8.96093e-06
-5.10522e-06
1.02368e-05
-5.65623e-06
1.17383e-05
-6.24702e-06
1.35248e-05
-6.76161e-06
1.29306e-05
-7.20678e-06
1.30623e-05
-7.56975e-06
1.32388e-05
-7.84876e-06
1.34746e-05
-8.03647e-06
1.37776e-05
-8.11577e-06
1.41333e-05
-8.07773e-06
1.45221e-05
-7.94501e-06
1.36203e-05
-7.75048e-06
1.25401e-05
-7.51645e-06
1.15132e-05
-7.25984e-06
1.0543e-05
-6.9941e-06
9.63186e-06
-6.7302e-06
8.78173e-06
-6.47537e-06
7.99366e-06
-6.23299e-06
7.26639e-06
-6.00447e-06
6.59715e-06
-5.7903e-06
5.98277e-06
-5.59032e-06
5.41996e-06
-5.40402e-06
4.9054e-06
-5.23083e-06
4.43583e-06
4.00783e-06
-5.06954e-06
4.93793e-08
2.26626e-06
5.05058e-08
2.75954e-06
1.01453e-08
3.21861e-06
-7.69107e-08
3.71985e-06
-2.19087e-07
4.28194e-06
-4.25458e-07
4.91619e-06
-7.04906e-07
5.63292e-06
-1.06496e-06
6.44316e-06
-1.51072e-06
7.36039e-06
-2.04485e-06
8.40074e-06
-2.6644e-06
9.58313e-06
-3.35771e-06
1.09331e-05
-4.10291e-06
1.24866e-05
-4.86289e-06
1.42882e-05
-5.47627e-06
1.35469e-05
-5.99264e-06
1.35813e-05
-6.41709e-06
1.36656e-05
-6.74991e-06
1.38094e-05
-6.98353e-06
1.40129e-05
-7.11281e-06
1.4264e-05
-7.13872e-06
1.45491e-05
-7.07341e-06
1.35559e-05
-6.94484e-06
1.24121e-05
-6.7747e-06
1.13435e-05
-6.57918e-06
1.03478e-05
-6.37048e-06
9.42336e-06
-6.15718e-06
8.56858e-06
-5.94452e-06
7.7811e-06
-5.73573e-06
7.05768e-06
-5.53322e-06
6.39469e-06
-5.33883e-06
5.7884e-06
-5.15394e-06
5.23509e-06
-4.97961e-06
4.73108e-06
-4.81653e-06
4.27274e-06
3.85671e-06
-4.66542e-06
-2.09655e-07
2.47653e-06
-4.35363e-07
2.98596e-06
-6.77444e-07
3.4615e-06
-9.35219e-07
3.97856e-06
-1.20821e-06
4.556e-06
-1.49668e-06
5.20588e-06
-1.80185e-06
5.93949e-06
-2.12711e-06
6.77001e-06
-2.47765e-06
7.71275e-06
-2.85976e-06
8.78489e-06
-3.27962e-06
1.00053e-05
-3.73988e-06
1.13959e-05
-4.23349e-06
1.29831e-05
-4.74249e-06
1.48002e-05
-5.16912e-06
1.39762e-05
-5.5445e-06
1.39591e-05
-5.86681e-06
1.399e-05
-6.1274e-06
1.40719e-05
-6.31526e-06
1.42024e-05
-6.42344e-06
1.43736e-05
-6.44906e-06
1.45759e-05
-6.40016e-06
1.35078e-05
-6.29814e-06
1.23107e-05
-6.16041e-06
1.12062e-05
-6.00027e-06
1.0188e-05
-5.8276e-06
9.25092e-06
-5.64943e-06
8.39058e-06
-5.47064e-06
7.60244e-06
-5.29478e-06
6.8819e-06
-5.12442e-06
6.22439e-06
-4.96139e-06
5.62542e-06
-4.80689e-06
5.08063e-06
-4.66164e-06
4.58584e-06
-4.52593e-06
4.13705e-06
3.7304e-06
-4.39962e-06
-4.72488e-08
2.52435e-06
-1.2448e-07
3.06386e-06
-2.30151e-07
3.56794e-06
-3.67139e-07
4.11643e-06
-5.40568e-07
4.73044e-06
-7.56712e-07
5.42319e-06
-1.02212e-06
6.20623e-06
-1.34134e-06
7.09075e-06
-1.7148e-06
8.08793e-06
-2.13828e-06
9.21032e-06
-2.60387e-06
1.04731e-05
-3.09919e-06
1.18937e-05
-3.6087e-06
1.34953e-05
-4.12253e-06
1.5317e-05
-4.54916e-06
1.44053e-05
-4.92118e-06
1.43335e-05
-5.23777e-06
1.43087e-05
-5.49453e-06
1.43306e-05
-5.686e-06
1.43955e-05
-5.8081e-06
1.44971e-05
-5.85862e-06
1.46276e-05
-5.8412e-06
1.34914e-05
-5.77363e-06
1.22438e-05
-5.67099e-06
1.11042e-05
-5.54487e-06
1.00623e-05
-5.40403e-06
9.1104e-06
-5.25499e-06
8.2418e-06
-5.10265e-06
7.4503e-06
-4.95069e-06
6.7301e-06
-4.80185e-06
6.07569e-06
-4.65816e-06
5.48184e-06
-4.52104e-06
4.94361e-06
-4.39145e-06
4.45632e-06
-4.26993e-06
4.01559e-06
3.61735e-06
-4.15683e-06
-1.45629e-07
2.67047e-06
-3.09172e-07
3.22796e-06
-4.89878e-07
3.74929e-06
-6.89378e-07
4.31668e-06
-9.0845e-07
4.95038e-06
-1.14759e-06
5.66333e-06
-1.4076e-06
6.46737e-06
-1.68906e-06
7.37352e-06
-1.99195e-06
8.39231e-06
-2.31575e-06
9.53583e-06
-2.66014e-06
1.08194e-05
-3.02661e-06
1.22623e-05
-3.4177e-06
1.38887e-05
-3.83226e-06
1.57341e-05
-4.19069e-06
1.47661e-05
-4.51174e-06
1.46566e-05
-4.79096e-06
1.45899e-05
-5.02307e-06
1.45644e-05
-5.20269e-06
1.45768e-05
-5.32549e-06
1.46214e-05
-5.38827e-06
1.46917e-05
-5.39118e-06
1.34953e-05
-5.34834e-06
1.22018e-05
-5.2724e-06
1.10288e-05
-5.17341e-06
9.96377e-06
-5.05924e-06
8.99663e-06
-4.93602e-06
8.1189e-06
-4.80844e-06
7.32299e-06
-4.6801e-06
6.60198e-06
-4.55368e-06
5.94945e-06
-4.4311e-06
5.35943e-06
-4.31374e-06
4.82637e-06
-4.20245e-06
4.34514e-06
-4.09775e-06
3.91099e-06
3.51952e-06
-3.99984e-06
-8.48483e-08
2.75573e-06
-1.93769e-07
3.33737e-06
-3.22764e-07
3.87885e-06
-4.74352e-07
4.46892e-06
-6.51831e-07
5.12861e-06
-8.57235e-07
5.8696e-06
-1.09048e-06
6.70161e-06
-1.35024e-06
7.63444e-06
-1.63582e-06
8.67921e-06
-1.94762e-06
9.84912e-06
-2.28604e-06
1.11595e-05
-2.65034e-06
1.26285e-05
-3.03877e-06
1.42793e-05
-3.4463e-06
1.6144e-05
-3.79402e-06
1.51159e-05
-4.10346e-06
1.49681e-05
-4.37316e-06
1.48615e-05
-4.60046e-06
1.47934e-05
-4.78208e-06
1.47599e-05
-4.91478e-06
1.47555e-05
-4.99565e-06
1.47738e-05
-5.02184e-06
1.35225e-05
-5.0049e-06
1.21857e-05
-4.95579e-06
1.09804e-05
-4.8834e-06
9.89193e-06
-4.79486e-06
8.90855e-06
-4.69585e-06
8.02028e-06
-4.59085e-06
7.21833e-06
-4.48334e-06
6.49476e-06
-4.37598e-06
5.84234e-06
-4.27076e-06
5.25443e-06
-4.16913e-06
4.72492e-06
-4.07207e-06
4.24825e-06
-3.98025e-06
3.81931e-06
3.43346e-06
-3.89406e-06
-1.13886e-07
2.86996e-06
-2.45942e-07
3.46983e-06
-3.92407e-07
4.02578e-06
-5.51952e-07
4.62901e-06
-7.2456e-07
5.30184e-06
-9.11252e-07
6.05701e-06
-1.11404e-06
6.90524e-06
-1.33535e-06
7.85671e-06
-1.57778e-06
8.92275e-06
-1.84382e-06
1.01164e-05
-2.13533e-06
1.14524e-05
-2.45319e-06
1.2948e-05
-2.79682e-06
1.46248e-05
-3.16302e-06
1.65123e-05
-3.48111e-06
1.54358e-05
-3.76904e-06
1.52578e-05
-4.02477e-06
1.51189e-05
-4.2457e-06
1.50159e-05
-4.42885e-06
1.49445e-05
-4.57109e-06
1.4899e-05
-4.66928e-06
1.48732e-05
-4.71769e-06
1.35719e-05
-4.72543e-06
1.21943e-05
-4.70191e-06
1.09576e-05
-4.65494e-06
9.84557e-06
-4.591e-06
8.84512e-06
-4.51538e-06
7.9451e-06
-4.43234e-06
7.13566e-06
-4.34526e-06
6.408e-06
-4.25676e-06
5.75413e-06
-4.16886e-06
5.16678e-06
-4.08304e-06
4.63933e-06
-4.00036e-06
4.16577e-06
-3.92155e-06
3.74067e-06
3.35912e-06
-3.84705e-06
-7.60172e-08
2.94625e-06
-1.70886e-07
3.56502e-06
-2.82761e-07
4.13803e-06
-4.12345e-07
4.75903e-06
-5.60388e-07
5.45039e-06
-7.27607e-07
6.22483e-06
-9.14902e-07
7.09322e-06
-1.12383e-06
8.06643e-06
-1.35597e-06
9.15582e-06
-1.61233e-06
1.03739e-05
-1.89321e-06
1.17346e-05
-2.19837e-06
1.32546e-05
-2.52684e-06
1.49549e-05
-2.8762e-06
1.68634e-05
-3.18047e-06
1.57418e-05
-3.45811e-06
1.5537e-05
-3.70818e-06
1.53704e-05
-3.92898e-06
1.52382e-05
-4.11828e-06
1.51352e-05
-4.27336e-06
1.50554e-05
-4.39116e-06
1.49922e-05
-4.46317e-06
1.36449e-05
-4.49645e-06
1.22284e-05
-4.49901e-06
1.09609e-05
-4.47774e-06
9.82492e-06
-4.43849e-06
8.80641e-06
-4.38614e-06
7.89322e-06
-4.32474e-06
7.07467e-06
-4.25758e-06
6.34121e-06
-4.18728e-06
5.68416e-06
-4.1159e-06
5.09568e-06
-4.04501e-06
4.56869e-06
-3.97578e-06
4.09677e-06
-3.90907e-06
3.67416e-06
3.29569e-06
-3.84546e-06
-7.80727e-08
3.02454e-06
-1.73139e-07
3.66034e-06
-2.80562e-07
4.24575e-06
-4.00361e-07
4.87917e-06
-5.33691e-07
5.58413e-06
-6.82134e-07
6.37374e-06
-8.47599e-07
7.25924e-06
-1.03206e-06
8.25154e-06
-1.23749e-06
9.362e-06
-1.46562e-06
1.06029e-05
-1.71784e-06
1.19878e-05
-1.99498e-06
1.35329e-05
-2.29706e-06
1.52583e-05
-2.62284e-06
1.71907e-05
-2.91092e-06
1.60313e-05
-3.17812e-06
1.58056e-05
-3.42351e-06
1.56171e-05
-3.64564e-06
1.54616e-05
-3.84256e-06
1.53333e-05
-4.01174e-06
1.52258e-05
-4.15014e-06
1.51317e-05
-4.24644e-06
1.37422e-05
-4.30573e-06
1.22886e-05
-4.33476e-06
1.09906e-05
-4.33949e-06
9.83028e-06
-4.32516e-06
8.79262e-06
-4.29627e-06
7.86481e-06
-4.25669e-06
7.03551e-06
-4.20959e-06
6.29449e-06
-4.15763e-06
5.63253e-06
-4.10289e-06
5.04125e-06
-4.04706e-06
4.51313e-06
-3.9914e-06
4.04136e-06
-3.93688e-06
3.61986e-06
-3.8842e-06
3.24321e-06
0.000386184
3.00377e-05
0.000367362
3.16325e-05
0.000347477
3.22404e-05
0.000326521
3.28129e-05
0.000304468
3.33593e-05
0.000281289
3.38886e-05
0.000256934
3.44191e-05
0.000231369
3.49405e-05
0.000204552
3.54571e-05
0.00017638
3.60358e-05
0.000146713
3.67485e-05
0.000116361
3.6882e-05
8.76753e-05
3.51595e-05
6.05268e-05
3.37194e-05
3.46392e-05
3.25743e-05
9.85601e-06
3.16407e-05
-1.39182e-05
3.08148e-05
-3.66922e-05
2.99465e-05
-5.82452e-05
2.8965e-05
-7.85337e-05
2.78683e-05
-9.73657e-05
2.65639e-05
2.55589e-05
-0.000115642
0.000910954
6.04933e-05
0.000879674
6.30264e-05
0.000846074
6.5948e-05
0.00081046
6.85246e-05
0.000773147
7.0761e-05
0.000734378
7.27348e-05
0.000694312
7.45523e-05
0.00065301
7.6299e-05
0.00061045
7.80626e-05
0.000566526
7.99919e-05
0.000520968
8.23259e-05
0.000473353
8.45024e-05
0.000423676
8.48292e-05
0.000371628
8.57489e-05
0.000317219
8.69544e-05
0.000260523
8.8299e-05
0.000201635
8.96533e-05
0.000140644
9.08892e-05
7.77875e-05
9.17566e-05
1.33391e-05
9.22211e-05
-5.24001e-05
9.23057e-05
9.12538e-05
-0.000118143
-7.40945e-06
3.71411e-05
1.29819e-05
4.27078e-05
3.17711e-05
4.72289e-05
4.89169e-05
5.1447e-05
6.43557e-05
5.53893e-05
7.80024e-05
5.91543e-05
8.97774e-05
6.28432e-05
9.95722e-05
6.65702e-05
0.000107241
7.04601e-05
0.000112625
7.46751e-05
0.000115626
7.93937e-05
0.00011689
8.33081e-05
0.000118157
8.36318e-05
0.000119856
8.41201e-05
0.000122188
8.46965e-05
0.00012533
8.5236e-05
0.000129448
8.56209e-05
0.000134695
8.57392e-05
0.000141195
8.5355e-05
0.000149024
8.45051e-05
0.000158203
8.32597e-05
8.224e-05
0.000167355
-0.000255457
4.34994e-05
-0.000255702
4.28528e-05
-0.000251534
4.29579e-05
-0.000243486
4.3292e-05
-0.00023213
4.39218e-05
-0.000218026
4.49325e-05
-0.000201708
4.64027e-05
-0.00018364
4.83738e-05
-0.000164199
5.08842e-05
-0.000143646
5.39763e-05
-0.00012214
5.77338e-05
-0.000100604
6.16088e-05
-8.11244e-05
6.39861e-05
-6.35569e-05
6.63802e-05
-4.75641e-05
6.85271e-05
-3.28829e-05
7.03752e-05
-1.93388e-05
7.18964e-05
-6.85248e-06
7.30724e-05
4.43127e-06
7.38884e-05
1.44364e-05
7.43239e-05
2.31496e-05
7.43733e-05
7.35991e-05
3.16242e-05
-0.000363089
2.31416e-05
-0.000344487
2.43849e-05
-0.000326645
2.52593e-05
-0.000309465
2.62647e-05
-0.000292825
2.74438e-05
-0.000276589
2.88729e-05
-0.000260577
3.0578e-05
-0.000244651
3.26458e-05
-0.000228798
3.52423e-05
-0.000213133
3.8531e-05
-0.000197703
4.25271e-05
-0.000182137
4.62792e-05
-0.000165876
4.79676e-05
-0.000148838
4.95847e-05
-0.000131183
5.11137e-05
-0.000113039
5.24713e-05
-9.45069e-05
5.36033e-05
-7.56717e-05
5.44732e-05
-5.66058e-05
5.50551e-05
-3.73883e-05
5.5334e-05
-1.80903e-05
5.52996e-05
5.52623e-05
4.71596e-07
-0.000156528
2.93021e-05
-0.00016202
2.98105e-05
-0.000167507
3.0672e-05
-0.000172863
3.15375e-05
-0.000177931
3.24223e-05
-0.000182503
3.33495e-05
-0.000186243
3.42138e-05
-0.000188767
3.50575e-05
-0.00018972
3.60756e-05
-0.000188715
3.73989e-05
-0.000185414
3.90921e-05
-0.000179939
4.06676e-05
-0.000173219
4.11166e-05
-0.000165477
4.17174e-05
-0.000156878
4.23933e-05
-0.000147618
4.30959e-05
-0.000137909
4.37834e-05
-0.000127968
4.44273e-05
-0.000118009
4.49962e-05
-0.0001082
4.54303e-05
-9.86896e-05
4.5699e-05
4.56116e-05
-8.91231e-05
-0.000215688
1.96723e-05
-0.000206775
2.09783e-05
-0.000198084
2.20679e-05