/*--------------------------------*- C++ -*----------------------------------*\
  =========                 |
  \\      /  F ield         | OpenFOAM: The Open Source CFD Toolbox
   \\    /   O peration     | Website:  https://openfoam.org
    \\  /    A nd           | Version:  8
     \\/     M anipulation  |
\*---------------------------------------------------------------------------*/
FoamFile
{
    version     2.0;
    format      ascii;
    class       volVectorField;
    location    "0.07";
    object      U;
}
// * * * * * * * * * * * * * * * * * * * * * * * * * * * * * * * * * * * * * //

dimensions      [0 1 -1 0 0 0 0];

internalField   nonuniform List<vector> 
15677
(
(-0.142234 -138.738 0)
(-0.140403 -135.682 0)
(-0.0887553 -128.61 0)
(0.0651292 -121.623 0)
(0.352775 -114.625 0)
(0.787088 -107.562 0)
(1.48555 -100.54 0)
(2.69653 -93.9254 0)
(4.5324 -88.4935 0)
(6.93783 -84.5251 0)
(9.72374 -82.0487 0)
(12.6176 -81.1955 0)
(15.4644 -82.2339 0)
(17.0023 -84.516 0)
(17.2675 -91.8649 0)
(16.9483 -96.856 0)
(16.2411 -98.6198 0)
(15.2303 -96.9228 0)
(13.997 -94.5889 0)
(12.7311 -95.3403 0)
(11.6569 -99.7595 0)
(10.9265 -102.013 0)
(10.3815 -102.429 0)
(9.93343 -101.728 0)
(9.53113 -100.343 0)
(9.15024 -98.5349 0)
(8.79239 -96.5194 0)
(8.47145 -94.4816 0)
(8.19523 -92.5445 0)
(7.96681 -90.7878 0)
(7.78708 -89.2585 0)
(7.65531 -87.9802 0)
(7.56831 -86.9592 0)
(7.52308 -86.1888 0)
(7.53514 -85.6541 0)
(-1.73789 118.357 0)
(-4.32742 112.228 0)
(-7.39266 104.159 0)
(-10.5479 95.3454 0)
(-13.5861 85.1308 0)
(-16.1008 72.6406 0)
(-17.6616 56.9099 0)
(-18.0371 38.4907 0)
(-16.6828 21.978 0)
(-13.6992 12.6171 0)
(-9.58648 11.66 0)
(-5.02031 18.2609 0)
(-0.545242 31.6993 0)
(3.92522 50.2272 0)
(7.56262 67.5728 0)
(10.1486 78.2787 0)
(12.3216 83.5731 0)
(14.5325 84.3065 0)
(17.1197 83.8321 0)
(19.8811 83.8672 0)
(22.2733 84.8852 0)
(24.184 85.7729 0)
(25.8645 86.2746 0)
(27.3847 86.6411 0)
(28.7175 87.0961 0)
(29.8121 87.5849 0)
(30.5553 87.6963 0)
(30.965 87.6158 0)
(31.0439 87.4478 0)
(30.8414 87.265 0)
(30.4435 87.0917 0)
(29.913 86.9113 0)
(29.2957 86.6909 0)
(28.6212 86.3913 0)
(27.8992 85.9723 0)
(0.848069 34.9565 0)
(1.8698 26.5817 0)
(3.20186 16.1681 0)
(4.50611 4.2421 0)
(5.62556 -10.3867 0)
(6.41234 -28.1512 0)
(6.4997 -48.1393 0)
(5.17801 -67.04 0)
(2.10775 -83.0352 0)
(-3.18216 -92.4775 0)
(-9.99284 -92.2362 0)
(-16.9083 -86.5544 0)
(-22.8167 -79.95 0)
(-25.9089 -75.3997 0)
(-25.6419 -73.0513 0)
(-22.3556 -71.4435 0)
(-18.5305 -70.1625 0)
(-14.5419 -69.3998 0)
(-10.9548 -68.9636 0)
(-7.99317 -68.8942 0)
(-5.67279 -69.4433 0)
(-4.10409 -70.6805 0)
(-3.40644 -71.9558 0)
(-3.23394 -72.4608 0)
(-3.28034 -71.6744 0)
(-3.38525 -69.3885 0)
(-3.42143 -65.7539 0)
(-3.37433 -61.6761 0)
(-3.19489 -57.6807 0)
(-2.89834 -54.0411 0)
(-2.52917 -50.7939 0)
(-2.1228 -47.9628 0)
(-1.70272 -45.5503 0)
(-1.28133 -43.5216 0)
(-0.875978 -41.8281 0)
(1.87325 7.15623 0)
(4.63352 14.939 0)
(7.6 19.0923 0)
(10.4956 22.6968 0)
(13.1591 27.4709 0)
(15.201 34.7775 0)
(16.2276 45.2066 0)
(15.7673 56.7072 0)
(13.8794 68.7308 0)
(9.94651 75.5831 0)
(5.08463 73.8692 0)
(0.494539 64.5988 0)
(-2.75055 50.2721 0)
(-3.79593 30.4292 0)
(-2.79562 14.7553 0)
(-0.834801 7.65886 0)
(1.38988 6.30328 0)
(3.41458 8.52844 0)
(5.15797 13.5267 0)
(6.57728 20.6351 0)
(7.39128 29.1341 0)
(7.39237 38.1427 0)
(6.65635 46.2913 0)
(5.22984 51.8713 0)
(3.54447 55.3871 0)
(1.74839 57.1855 0)
(0.0246872 57.6603 0)
(-1.48664 57.4137 0)
(-2.76876 56.8412 0)
(-3.87134 56.1609 0)
(-4.79293 55.5879 0)
(-5.55856 55.1577 0)
(-6.20813 54.7722 0)
(-6.76027 54.4144 0)
(-7.24212 54.0813 0)
(-1.0511 -64.9595 0)
(-2.05907 -61.483 0)
(-3.23049 -57.5191 0)
(-4.35278 -53.1762 0)
(-5.38991 -48.0354 0)
(-6.23274 -41.6788 0)
(-6.63614 -33.5051 0)
(-6.29445 -23.5127 0)
(-5.21947 -14.5723 0)
(-3.03102 -10.0097 0)
(-0.255137 -11.5597 0)
(2.28178 -20.4525 0)
(4.56391 -34.4842 0)
(4.73286 -46.1192 0)
(1.94332 -52.5216 0)
(-2.11078 -54.5722 0)
(-6.38263 -53.5844 0)
(-10.2073 -51.6361 0)
(-13.5048 -49.618 0)
(-16.1821 -47.1876 0)
(-18.0771 -44.0512 0)
(-19.0303 -40.2902 0)
(-18.9834 -35.975 0)
(-18.3159 -30.9223 0)
(-17.4988 -26.3504 0)
(-16.5987 -22.8559 0)
(-15.7361 -20.3843 0)
(-14.9279 -18.7362 0)
(-14.1703 -17.6849 0)
(-13.4674 -17.0393 0)
(-12.8163 -16.6633 0)
(-12.2047 -16.4576 0)
(-11.6332 -16.3649 0)
(-11.0903 -16.3439 0)
(-10.5781 -16.368 0)
(-0.961259 48.5468 0)
(-2.33522 45.8208 0)
(-3.91823 42.9788 0)
(-5.48808 40.1769 0)
(-6.95316 37.2815 0)
(-8.13312 34.2046 0)
(-8.73786 30.6555 0)
(-8.46388 26.8662 0)
(-6.92516 23.1893 0)
(-4.1568 20.5931 0)
(-0.573521 19.1383 0)
(3.09334 19.2676 0)
(5.47824 19.6187 0)
(6.60378 18.5839 0)
(6.66316 16.8602 0)
(5.99222 15.2499 0)
(5.06863 13.8242 0)
(3.95937 13.1137 0)
(2.81498 13.8088 0)
(1.63729 15.8151 0)
(0.406849 18.8141 0)
(-0.903309 21.9788 0)
(-2.11876 24.2274 0)
(-2.94956 25.6312 0)
(-3.41985 26.398 0)
(-3.61171 26.911 0)
(-3.64204 27.3512 0)
(-3.63946 27.7368 0)
(-3.66395 28.0602 0)
(-3.73455 28.3184 0)
(-3.85228 28.5138 0)
(-4.00929 28.6522 0)
(-4.19662 28.7411 0)
(-4.41093 28.7883 0)
(-4.63716 28.8034 0)
(0.321181 13.2196 0)
(0.730851 9.47566 0)
(1.25379 5.21694 0)
(1.79195 0.598202 0)
(2.31174 -4.76191 0)
(2.77845 -11.0205 0)
(3.18755 -17.9341 0)
(3.39121 -24.4085 0)
(3.19999 -29.0592 0)
(2.55685 -31.8304 0)
(1.68719 -33.0514 0)
(0.756703 -33.2645 0)
(-0.066704 -33.0818 0)
(-1.09812 -32.5469 0)
(-2.58608 -31.1443 0)
(-4.22167 -29.2347 0)
(-5.91632 -27.1534 0)
(-7.55296 -25.1622 0)
(-9.00287 -23.2801 0)
(-10.153 -21.3292 0)
(-10.8046 -19.2321 0)
(-10.8971 -16.9495 0)
(-10.6209 -14.3651 0)
(-10.3319 -12.0263 0)
(-10.0678 -10.1409 0)
(-9.81177 -8.64428 0)
(-9.5477 -7.45582 0)
(-9.26611 -6.51097 0)
(-8.96804 -5.7625 0)
(-8.65879 -5.17383 0)
(-8.34543 -4.71476 0)
(-8.03447 -4.35962 0)
(-7.72933 -4.08686 0)
(-7.42814 -3.87881 0)
(-7.13728 -3.72114 0)
(0.612263 13.6894 0)
(1.7179 15.3319 0)
(2.89365 15.0834 0)
(4.04563 14.7283 0)
(5.1665 14.6391 0)
(6.1663 15.0675 0)
(6.88259 16.2168 0)
(7.26768 17.5554 0)
(7.36424 17.484 0)
(7.3407 16.4835 0)
(7.17016 14.7193 0)
(6.84466 12.94 0)
(6.23685 12.2962 0)
(5.2659 13.0901 0)
(3.9911 13.9534 0)
(2.63336 13.7968 0)
(1.38996 12.8474 0)
(0.286751 11.7459 0)
(-0.743763 11.1134 0)
(-1.72146 11.1325 0)
(-2.65498 11.5841 0)
(-3.42629 12.1662 0)
(-3.92452 12.6531 0)
(-4.14408 13.0767 0)
(-4.15266 13.507 0)
(-4.06529 13.9375 0)
(-3.9545 14.3534 0)
(-3.85264 14.7465 0)
(-3.7743 15.1087 0)
(-3.72454 15.4347 0)
(-3.70319 15.7182 0)
(-3.70729 15.941 0)
(-3.7328 16.095 0)
(-3.77824 16.1875 0)
(-3.82748 16.2257 0)
(0.143168 -17.4595 0)
(0.491727 -18.2222 0)
(0.859273 -18.2434 0)
(1.18992 -18.2628 0)
(1.4705 -18.3905 0)
(1.67702 -18.6848 0)
(1.79492 -19.1889 0)
(1.84976 -19.8712 0)
(1.71202 -20.5219 0)
(1.2939 -20.7227 0)
(0.620654 -20.0925 0)
(-0.325499 -18.6381 0)
(-1.38982 -16.7732 0)
(-2.29331 -14.9212 0)
(-2.68949 -13.4171 0)
(-2.75165 -12.2321 0)
(-2.77587 -11.1913 0)
(-2.89013 -10.1654 0)
(-3.0848 -9.08548 0)
(-3.27506 -7.96067 0)
(-3.43985 -6.7806 0)
(-3.61614 -5.6622 0)
(-3.79287 -4.6916 0)
(-3.93688 -3.86732 0)
(-4.0341 -3.13786 0)
(-4.08249 -2.45631 0)
(-4.07974 -1.83543 0)
(-4.02909 -1.29837 0)
(-3.93876 -0.840888 0)
(-3.81736 -0.451544 0)
(-3.6728 -0.120382 0)
(-3.51173 0.157692 0)
(-3.34575 0.380126 0)
(-3.17614 0.560585 0)
(-3.0052 0.715656 0)
(0.186109 -5.82685 0)
(0.434878 -4.45245 0)
(0.683094 -2.55393 0)
(0.906237 -0.560557 0)
(1.10624 1.64825 0)
(1.27524 4.17085 0)
(1.36531 7.06124 0)
(1.33779 10.2125 0)
(1.10264 13.0958 0)
(0.576552 14.5214 0)
(-0.145332 14.4941 0)
(-0.943536 13.529 0)
(-1.73001 12.1702 0)
(-2.43224 10.7552 0)
(-2.96549 9.5953 0)
(-3.36375 8.72612 0)
(-3.66809 8.08607 0)
(-3.91536 7.65381 0)
(-4.10612 7.40697 0)
(-4.2389 7.35199 0)
(-4.23889 7.44726 0)
(-4.08121 7.62513 0)
(-3.85987 7.85628 0)
(-3.6192 8.12618 0)
(-3.3954 8.36763 0)
(-3.1944 8.58485 0)
(-3.01482 8.80186 0)
(-2.86148 9.00499 0)
(-2.73392 9.18716 0)
(-2.63125 9.34501 0)
(-2.55157 9.47733 0)
(-2.49209 9.58421 0)
(-2.45081 9.66628 0)
(-2.42776 9.72401 0)
(-2.41139 9.76074 0)
(-0.446803 -19.3692 0)
(-1.15552 -18.3374 0)
(-1.89388 -17.3202 0)
(-2.58426 -16.3737 0)
(-3.23439 -15.4167 0)
(-3.79004 -14.3789 0)
(-4.20526 -13.3009 0)
(-4.42746 -12.1494 0)
(-4.31894 -10.8636 0)
(-3.89918 -9.41637 0)
(-3.39531 -8.20149 0)
(-2.83717 -7.40313 0)
(-2.32045 -6.94133 0)
(-1.87631 -6.65156 0)
(-1.55577 -6.37179 0)
(-1.35113 -5.99934 0)
(-1.24509 -5.50618 0)
(-1.19386 -4.91595 0)
(-1.20102 -4.25786 0)
(-1.28565 -3.57246 0)
(-1.42253 -2.88293 0)
(-1.56736 -2.21715 0)
(-1.69248 -1.60167 0)
(-1.781 -1.03883 0)
(-1.83088 -0.529605 0)
(-1.85066 -0.0773904 0)
(-1.84101 0.3065 0)
(-1.80405 0.617756 0)
(-1.74384 0.876712 0)
(-1.66559 1.10276 0)
(-1.57417 1.30832 0)
(-1.47499 1.49608 0)
(-1.37265 1.6642 0)
(-1.26723 1.81516 0)
(-1.16264 1.9547 0)
(0.00415758 11.6641 0)
(0.00356999 10.6369 0)
(-0.0244778 9.56616 0)
(-0.0783025 8.62051 0)
(-0.161142 7.82469 0)
(-0.276925 7.20715 0)
(-0.409432 6.78244 0)
(-0.568252 6.52015 0)
(-0.752573 6.36503 0)
(-0.93758 6.24528 0)
(-1.09321 6.06228 0)
(-1.2276 5.74221 0)
(-1.37198 5.35647 0)
(-1.56571 5.04067 0)
(-1.80087 4.83305 0)
(-2.03764 4.6834 0)
(-2.25459 4.57237 0)
(-2.44441 4.51266 0)
(-2.56755 4.51194 0)
(-2.59334 4.57586 0)
(-2.53761 4.6808 0)
(-2.42755 4.80962 0)
(-2.29247 4.95735 0)
(-2.14737 5.11913 0)
(-2.00441 5.28649 0)
(-1.87083 5.45249 0)
(-1.75035 5.61139 0)
(-1.64819 5.7499 0)
(-1.56627 5.86059 0)
(-1.50179 5.95061 0)
(-1.45196 6.02843 0)
(-1.41348 6.09963 0)
(-1.38455 6.16224 0)
(-1.36594 6.21174 0)
(-1.35385 6.24774 0)
(-0.0832952 -14.4358 0)
(-0.211378 -13.2393 0)
(-0.351412 -12.0045 0)
(-0.491626 -10.8559 0)
(-0.632332 -9.75954 0)
(-0.764542 -8.71431 0)
(-0.878214 -7.73102 0)
(-0.955497 -6.81188 0)
(-0.967557 -5.96443 0)
(-0.91089 -5.19903 0)
(-0.805557 -4.51571 0)
(-0.673763 -3.9312 0)
(-0.548851 -3.42773 0)
(-0.447614 -2.97816 0)
(-0.389717 -2.60839 0)
(-0.379992 -2.28209 0)
(-0.414689 -1.94986 0)
(-0.484673 -1.60347 0)
(-0.579183 -1.23385 0)
(-0.686873 -0.85131 0)
(-0.799626 -0.458581 0)
(-0.902944 -0.0756648 0)
(-0.984276 0.275744 0)
(-1.03929 0.594527 0)
(-1.06793 0.884153 0)
(-1.07308 1.14539 0)
(-1.05643 1.37345 0)
(-1.0214 1.56953 0)
(-0.97361 1.73906 0)
(-0.917321 1.88728 0)
(-0.855625 2.01923 0)
(-0.790774 2.13888 0)
(-0.724182 2.24882 0)
(-0.655793 2.35065 0)
(-0.587579 2.44701 0)
(-0.108692 11.79 0)
(-0.256707 10.4836 0)
(-0.40852 9.25355 0)
(-0.55191 8.13197 0)
(-0.69356 7.09357 0)
(-0.831386 6.1476 0)
(-0.963507 5.31045 0)
(-1.08745 4.59686 0)
(-1.20346 4.01543 0)
(-1.31443 3.56147 0)
(-1.42022 3.22484 0)
(-1.51727 2.98595 0)
(-1.60182 2.82172 0)
(-1.67274 2.72192 0)
(-1.71729 2.67913 0)
(-1.73451 2.68172 0)
(-1.7306 2.7155 0)
(-1.70933 2.76936 0)
(-1.67133 2.84424 0)
(-1.61374 2.94187 0)
(-1.53625 3.06021 0)
(-1.44539 3.19368 0)
(-1.35425 3.33092 0)
(-1.26651 3.46633 0)
(-1.18614 3.59618 0)
(-1.1129 3.71593 0)
(-1.04743 3.82294 0)
(-0.990289 3.91812 0)
(-0.941823 4.00261 0)
(-0.901839 4.07629 0)
(-0.869252 4.13934 0)
(-0.842894 4.19208 0)
(-0.821978 4.23505 0)
(-0.806973 4.26905 0)
(-0.794547 4.29461 0)
(0.0323164 -6.74794 0)
(0.0862257 -6.68819 0)
(0.130569 -6.33518 0)
(0.167007 -5.89124 0)
(0.197838 -5.39122 0)
(0.221606 -4.8572 0)
(0.231964 -4.30877 0)
(0.226643 -3.76369 0)
(0.208799 -3.24097 0)
(0.181549 -2.75349 0)
(0.14457 -2.30824 0)
(0.0950393 -1.90756 0)
(0.0285977 -1.54548 0)
(-0.0642201 -1.2062 0)
(-0.170764 -0.892844 0)
(-0.274918 -0.603962 0)
(-0.375908 -0.324398 0)
(-0.472621 -0.0489904 0)
(-0.563831 0.223449 0)
(-0.646889 0.492968 0)
(-0.720817 0.758046 0)
(-0.779205 1.00717 0)
(-0.816212 1.23264 0)
(-0.835042 1.43637 0)
(-0.83716 1.61722 0)
(-0.824479 1.77245 0)
(-0.800706 1.9043 0)
(-0.768753 2.01807 0)
(-0.730629 2.11838 0)
(-0.68838 2.20853 0)
(-0.643751 2.29065 0)
(-0.598205 2.36654 0)
(-0.552752 2.43743 0)
(-0.507699 2.50418 0)
(-0.462912 2.56819 0)
(-0.0109602 7.59521 0)
(-0.0654156 7.01026 0)
(-0.14798 6.34699 0)
(-0.250646 5.7031 0)
(-0.369977 5.07296 0)
(-0.498153 4.46518 0)
(-0.628258 3.89668 0)
(-0.756945 3.38314 0)
(-0.880177 2.93823 0)
(-0.995964 2.57088 0)
(-1.09725 2.28245 0)
(-1.17467 2.07052 0)
(-1.22661 1.92729 0)
(-1.25367 1.84597 0)
(-1.26304 1.81775 0)
(-1.26067 1.82304 0)
(-1.24552 1.85948 0)
(-1.22126 1.92311 0)
(-1.18799 2.0059 0)
(-1.14411 2.10478 0)
(-1.08868 2.22037 0)
(-1.0283 2.34557 0)
(-0.970476 2.46853 0)
(-0.916069 2.58277 0)
(-0.863609 2.68571 0)
(-0.814277 2.77876 0)
(-0.769004 2.86213 0)
(-0.728994 2.93618 0)
(-0.69425 3.00126 0)
(-0.664376 3.05777 0)
(-0.638763 3.1061 0)
(-0.61669 3.14671 0)
(-0.5979 3.18013 0)
(-0.582244 3.20688 0)
(-0.568243 3.22764 0)
(0.0243847 -3.7436 0)
(0.0700682 -3.29125 0)
(0.124229 -2.89929 0)
(0.176755 -2.55343 0)
(0.225517 -2.23529 0)
(0.264147 -1.93904 0)
(0.28857 -1.65725 0)
(0.29421 -1.38485 0)
(0.276843 -1.12612 0)
(0.234596 -0.884665 0)
(0.166932 -0.658415 0)
(0.0752973 -0.444563 0)
(-0.0381169 -0.234513 0)
(-0.170533 -0.0165843 0)
(-0.299129 0.193072 0)
(-0.411364 0.38639 0)
(-0.510346 0.57399 0)
(-0.593815 0.758473 0)
(-0.660736 0.938261 0)
(-0.713776 1.11485 0)
(-0.753153 1.29139 0)
(-0.775918 1.46111 0)
(-0.782354 1.61714 0)
(-0.775001 1.75343 0)
(-0.759134 1.86427 0)
(-0.736091 1.95723 0)
(-0.707355 2.04014 0)
(-0.675568 2.11417 0)
(-0.641622 2.18052 0)
(-0.606607 2.2404 0)
(-0.571555 2.29483 0)
(-0.537115 2.34458 0)
(-0.503812 2.39026 0)
(-0.47156 2.43246 0)
(-0.440247 2.4718 0)
(-0.0298447 4.85398 0)
(-0.081533 4.37306 0)
(-0.142016 3.93877 0)
(-0.206485 3.54997 0)
(-0.275404 3.19198 0)
(-0.347118 2.86324 0)
(-0.421315 2.56639 0)
(-0.495396 2.30599 0)
(-0.567069 2.08324 0)
(-0.633638 1.89688 0)
(-0.693232 1.74514 0)
(-0.744998 1.62762 0)
(-0.789575 1.54536 0)
(-0.824837 1.49825 0)
(-0.85308 1.48704 0)
(-0.874493 1.50055 0)
(-0.887175 1.53406 0)
(-0.89237 1.58558 0)
(-0.88703 1.65483 0)
(-0.873487 1.73981 0)
(-0.85352 1.8371 0)
(-0.827355 1.93859 0)
(-0.796215 2.03435 0)
(-0.760423 2.12205 0)
(-0.723391 2.20091 0)
(-0.687487 2.2709 0)
(-0.654247 2.33361 0)
(-0.623237 2.38943 0)
(-0.5946 2.43861 0)
(-0.568505 2.48146 0)
(-0.544719 2.51824 0)
(-0.522864 2.54943 0)
(-0.503006 2.57559 0)
(-0.485107 2.59727 0)
(-0.468435 2.61499 0)
(0.0243563 -1.28386 0)
(0.0595966 -0.977996 0)
(0.0937387 -0.746456 0)
(0.12328 -0.5468 0)
(0.145701 -0.365499 0)
(0.158325 -0.196797 0)
(0.157963 -0.0391346 0)
(0.142167 0.103835 0)
(0.109676 0.230199 0)
(0.0598091 0.341834 0)
(-0.00778618 0.444507 0)
(-0.0925439 0.545204 0)
(-0.191899 0.649036 0)
(-0.301839 0.761091 0)
(-0.403431 0.87311 0)
(-0.487401 0.978321 0)
(-0.557782 1.08161 0)
(-0.613919 1.18413 0)
(-0.656918 1.28799 0)
(-0.686416 1.39971 0)
(-0.70543 1.51884 0)
(-0.711871 1.63008 0)
(-0.706035 1.72392 0)
(-0.691489 1.80479 0)
(-0.671216 1.87638 0)
(-0.647645 1.93944 0)
(-0.621577 1.99493 0)
(-0.593739 2.04395 0)
(-0.56539 2.08742 0)
(-0.536921 2.12594 0)
(-0.5088 2.1601 0)
(-0.481698 2.19066 0)
(-0.456031 2.21828 0)
(-0.431528 2.24356 0)
(-0.408165 2.26705 0)
(-0.0210077 3.02157 0)
(-0.0584197 2.78956 0)
(-0.0999698 2.57834 0)
(-0.144189 2.39107 0)
(-0.190539 2.22106 0)
(-0.237868 2.06778 0)
(-0.284618 1.93182 0)
(-0.32977 1.81188 0)
(-0.372607 1.70669 0)
(-0.413476 1.61641 0)
(-0.453317 1.54199 0)
(-0.492789 1.48383 0)
(-0.532302 1.44284 0)
(-0.57182 1.42068 0)
(-0.609153 1.41932 0)
(-0.640885 1.43283 0)
(-0.66693 1.459 0)
(-0.685884 1.49659 0)
(-0.698339 1.54808 0)
(-0.704857 1.61579 0)
(-0.700983 1.69432 0)
(-0.687187 1.7681 0)
(-0.667493 1.83337 0)
(-0.644457 1.89408 0)
(-0.619548 1.94918 0)
(-0.59373 1.99831 0)
(-0.567813 2.04166 0)
(-0.542865 2.07946 0)
(-0.518864 2.11196 0)
(-0.496034 2.13996 0)
(-0.474747 2.16431 0)
(-0.455133 2.18564 0)
(-0.436991 2.20443 0)
(-0.420443 2.22104 0)
(-0.405133 2.23566 0)
(0.0140217 0.180854 0)
(0.0291681 0.380642 0)
(0.0413756 0.50963 0)
(0.0489516 0.615134 0)
(0.0507475 0.708617 0)
(0.0447547 0.791531 0)
(0.0300538 0.863266 0)
(0.00583235 0.923834 0)
(-0.0288662 0.975432 0)
(-0.0746933 1.02126 0)
(-0.131162 1.06368 0)
(-0.197236 1.1053 0)
(-0.271024 1.14883 0)
(-0.349745 1.19689 0)
(-0.421115 1.24621 0)
(-0.479886 1.2948 0)
(-0.528789 1.34522 0)
(-0.568659 1.39919 0)
(-0.59906 1.45916 0)
(-0.61933 1.52554 0)
(-0.627265 1.59525 0)
(-0.623535 1.66196 0)
(-0.612817 1.72109 0)
(-0.597363 1.77332 0)
(-0.578432 1.8194 0)
(-0.557592 1.85987 0)
(-0.535689 1.89521 0)
(-0.513 1.92611 0)
(-0.490491 1.95338 0)
(-0.46907 1.97774 0)
(-0.448726 1.99977 0)
(-0.429599 2.01984 0)
(-0.411697 2.03823 0)
(-0.395037 2.05513 0)
(-0.37931 2.07057 0)
(-0.0122411 2.11691 0)
(-0.0392088 2.07266 0)
(-0.0663238 1.99492 0)
(-0.0960205 1.92043 0)
(-0.126919 1.85094 0)
(-0.15815 1.78629 0)
(-0.189414 1.72624 0)
(-0.220743 1.67093 0)
(-0.252541 1.62087 0)
(-0.285359 1.57608 0)
(-0.319556 1.53716 0)
(-0.35588 1.50537 0)
(-0.394879 1.48233 0)
(-0.436788 1.46976 0)
(-0.477758 1.46888 0)
(-0.513499 1.47664 0)
(-0.54307 1.49286 0)
(-0.566575 1.51767 0)
(-0.583878 1.55197 0)
(-0.594162 1.59413 0)
(-0.595622 1.64116 0)
(-0.588917 1.6891 0)
(-0.57657 1.73372 0)
(-0.560608 1.77427 0)
(-0.542393 1.81063 0)
(-0.523121 1.84282 0)
(-0.503495 1.87116 0)
(-0.484321 1.89641 0)
(-0.46608 1.91926 0)
(-0.448785 1.93991 0)
(-0.432527 1.95841 0)
(-0.417321 1.97484 0)
(-0.403152 1.98929 0)
(-0.390033 2.00185 0)
(-0.377765 2.01264 0)
(0.00374427 0.975241 0)
(0.00442417 1.11951 0)
(0.00321677 1.1941 0)
(-0.00192274 1.24702 0)
(-0.0107094 1.28834 0)
(-0.0242051 1.32142 0)
(-0.0430535 1.34786 0)
(-0.0679743 1.36862 0)
(-0.0992833 1.38471 0)
(-0.137375 1.39727 0)
(-0.182484 1.40741 0)
(-0.233812 1.41667 0)
(-0.29023 1.42701 0)
(-0.349433 1.4402 0)
(-0.402306 1.45479 0)
(-0.445991 1.46996 0)
(-0.482324 1.48848 0)
(-0.511812 1.51271 0)
(-0.533912 1.54332 0)
(-0.54804 1.57877 0)
(-0.554033 1.61747 0)
(-0.552151 1.65635 0)
(-0.544299 1.69231 0)
(-0.532469 1.72478 0)
(-0.518094 1.75385 0)
(-0.502274 1.77978 0)
(-0.485811 1.80298 0)
(-0.469234 1.82386 0)
(-0.452852 1.84261 0)
(-0.436868 1.85938 0)
(-0.421447 1.87435 0)
(-0.406716 1.88766 0)
(-0.392769 1.8995 0)
(-0.379645 1.91002 0)
(-0.367283 1.91941 0)
(-0.00962521 1.80677 0)
(-0.0264923 1.84686 0)
(-0.0461531 1.83001 0)
(-0.0663867 1.80449 0)
(-0.088147 1.77658 0)
(-0.111194 1.74794 0)
(-0.135467 1.71936 0)
(-0.161215 1.69148 0)
(-0.188848 1.6649 0)
(-0.218739 1.63999 0)
(-0.251601 1.61689 0)
(-0.287692 1.59602 0)
(-0.327279 1.57796 0)
(-0.368793 1.56292 0)
(-0.406796 1.55372 0)
(-0.43959 1.55088 0)
(-0.468311 1.55466 0)
(-0.492401 1.56531 0)
(-0.510983 1.58241 0)
(-0.523208 1.60481 0)
(-0.528728 1.63118 0)
(-0.527496 1.65909 0)
(-0.521039 1.68582 0)
(-0.511001 1.71053 0)
(-0.498629 1.73302 0)
(-0.484866 1.75333 0)
(-0.4704 1.77156 0)
(-0.455707 1.78787 0)
(-0.441122 1.80241 0)
(-0.426892 1.81529 0)
(-0.413196 1.82666 0)
(-0.400157 1.83664 0)
(-0.387856 1.84536 0)
(-0.376351 1.85298 0)
(-0.365621 1.8596 0)
(-0.00153162 1.40554 0)
(-0.00707214 1.51853 0)
(-0.0150752 1.56298 0)
(-0.0255639 1.58922 0)
(-0.038954 1.60655 0)
(-0.0557345 1.61787 0)
(-0.0765931 1.62434 0)
(-0.102014 1.62688 0)
(-0.13225 1.62614 0)
(-0.166951 1.62265 0)
(-0.205721 1.61672 0)
(-0.24779 1.60846 0)
(-0.291632 1.59825 0)
(-0.335878 1.58756 0)
(-0.376346 1.57984 0)
(-0.410905 1.57659 0)
(-0.440783 1.57817 0)
(-0.465726 1.58478 0)
(-0.485251 1.59622 0)
(-0.498902 1.61175 0)
(-0.506422 1.63049 0)
(-0.50762 1.65064 0)
(-0.503701 1.67013 0)
(-0.496141 1.68824 0)
(-0.486087 1.70476 0)
(-0.474411 1.71966 0)
(-0.461769 1.73301 0)
(-0.448647 1.74489 0)
(-0.435412 1.75542 0)
(-0.422339 1.76473 0)
(-0.409633 1.77292 0)
(-0.397443 1.78014 0)
(-0.385865 1.78649 0)
(-0.374963 1.79209 0)
(-0.364843 1.79705 0)
(-0.00797515 1.76228 0)
(-0.0203538 1.83732 0)
(-0.0368977 1.84599 0)
(-0.0541202 1.84019 0)
(-0.0733522 1.82898 0)
(-0.0942223 1.8153 0)
(-0.117108 1.80029 0)
(-0.141987 1.78384 0)
(-0.168793 1.76541 0)
(-0.197523 1.74473 0)
(-0.228123 1.72214 0)
(-0.260622 1.69828 0)
(-0.295326 1.67401 0)
(-0.332363 1.65123 0)
(-0.367713 1.63403 0)
(-0.39888 1.62286 0)
(-0.426457 1.61701 0)
(-0.449981 1.61625 0)
(-0.468938 1.62012 0)
(-0.482868 1.62794 0)
(-0.491431 1.6389 0)
(-0.494251 1.6516 0)
(-0.492224 1.66436 0)
(-0.486623 1.67644 0)
(-0.478482 1.68755 0)
(-0.468617 1.69757 0)
(-0.457663 1.7065 0)
(-0.446112 1.71437 0)
(-0.434341 1.72126 0)
(-0.422633 1.72726 0)
(-0.4112 1.73247 0)
(-0.400188 1.73697 0)
(-0.389689 1.74087 0)
(-0.379781 1.74423 0)
(-0.37072 1.74714 0)
(-0.00409743 1.65784 0)
(-0.0133142 1.76097 0)
(-0.025005 1.79282 0)
(-0.0383603 1.80823 0)
(-0.0542939 1.8152 0)
(-0.0729631 1.81599 0)
(-0.0943288 1.81154 0)
(-0.11826 1.80263 0)
(-0.144645 1.7897 0)
(-0.173557 1.77328 0)
(-0.205094 1.75396 0)
(-0.239181 1.73252 0)
(-0.275717 1.70983 0)
(-0.314435 1.68719 0)
(-0.350877 1.6683 0)
(-0.382668 1.65441 0)
(-0.410729 1.64501 0)
(-0.434843 1.63994 0)
(-0.454704 1.63881 0)
(-0.469986 1.64105 0)
(-0.480392 1.64596 0)
(-0.485417 1.65252 0)
(-0.485694 1.65945 0)
(-0.482354 1.66612 0)
(-0.476354 1.67222 0)
(-0.468467 1.67763 0)
(-0.459309 1.68232 0)
(-0.44937 1.68634 0)
(-0.439032 1.68973 0)
(-0.42859 1.69258 0)
(-0.41827 1.69496 0)
(-0.408232 1.69695 0)
(-0.398577 1.69861 0)
(-0.389398 1.7 0)
(-0.381146 1.70118 0)
(-0.00636072 1.82897 0)
(-0.0182162 1.92038 0)
(-0.0329706 1.93659 0)
(-0.0484334 1.93643 0)
(-0.0655022 1.92972 0)
(-0.0838315 1.91892 0)
(-0.103704 1.90464 0)
(-0.125407 1.88684 0)
(-0.14907 1.86582 0)
(-0.17509 1.8421 0)
(-0.203633 1.81621 0)
(-0.234854 1.78868 0)
(-0.268786 1.76023 0)
(-0.305271 1.73198 0)
(-0.340201 1.70798 0)
(-0.371215 1.68945 0)
(-0.399062 1.67549 0)
(-0.423499 1.66575 0)
(-0.444235 1.65972 0)
(-0.460952 1.65679 0)
(-0.47333 1.65625 0)
(-0.480705 1.65731 0)
(-0.483433 1.65903 0)
(-0.4825 1.66082 0)
(-0.478786 1.66237 0)
(-0.473021 1.66356 0)
(-0.465804 1.66436 0)
(-0.457623 1.66479 0)
(-0.448867 1.6649 0)
(-0.439843 1.66476 0)
(-0.430788 1.66443 0)
(-0.421873 1.66395 0)
(-0.413203 1.66337 0)
(-0.404892 1.66274 0)
(-0.397621 1.66209 0)
(-0.00439312 1.8285 0)
(-0.0129727 1.93099 0)
(-0.0246304 1.95573 0)
(-0.0374978 1.96231 0)
(-0.0525946 1.96038 0)
(-0.0696337 1.95274 0)
(-0.0888306 1.9405 0)
(-0.110257 1.92433 0)
(-0.134122 1.90461 0)
(-0.160573 1.8817 0)
(-0.189674 1.85597 0)
(-0.221424 1.82792 0)
(-0.255768 1.79828 0)
(-0.292551 1.76812 0)
(-0.327781 1.74161 0)
(-0.359229 1.72029 0)
(-0.387774 1.70323 0)
(-0.413268 1.69005 0)
(-0.435494 1.68024 0)
(-0.45418 1.67317 0)
(-0.469019 1.66811 0)
(-0.479186 1.66447 0)
(-0.484758 1.66161 0)
(-0.486588 1.65901 0)
(-0.485481 1.65638 0)
(-0.482124 1.65362 0)
(-0.477097 1.65073 0)
(-0.470884 1.64773 0)
(-0.46388 1.64468 0)
(-0.456404 1.64164 0)
(-0.448712 1.63865 0)
(-0.440989 1.63577 0)
(-0.43335 1.63302 0)
(-0.42593 1.63042 0)
(-0.41968 1.62801 0)
(-0.00456221 1.91101 0)
(-0.014306 2.01204 0)
(-0.0260588 2.03232 0)
(-0.0389461 2.03414 0)
(-0.0534317 2.02772 0)
(-0.0695125 2.01594 0)
(-0.0874423 1.99994 0)
(-0.107431 1.98022 0)
(-0.129713 1.95711 0)
(-0.154505 1.93092 0)
(-0.181987 1.90198 0)
(-0.212288 1.8708 0)
(-0.245465 1.83805 0)
(-0.281463 1.80475 0)
(-0.316455 1.77522 0)
(-0.348177 1.75105 0)
(-0.377478 1.7311 0)
(-0.404222 1.71491 0)
(-0.428217 1.70188 0)
(-0.449203 1.69131 0)
(-0.466869 1.68243 0)
(-0.480215 1.67476 0)
(-0.489013 1.66789 0)
(-0.493972 1.66136 0)
(-0.495819 1.65494 0)
(-0.495194 1.64855 0)
(-0.492655 1.64221 0)
(-0.488681 1.63597 0)
(-0.483675 1.62989 0)
(-0.477969 1.62405 0)
(-0.471839 1.61847 0)
(-0.465489 1.61321 0)
(-0.459039 1.60828 0)
(-0.45265 1.60371 0)
(-0.447585 1.5995 0)
(7.64581 -85.1982 0)
(7.37093 -84.8641 0)
(7.01982 -84.6962 0)
(6.66914 -84.6917 -3.40352e-17)
(6.30055 -84.8492 0)
(5.9065 -85.1639 0)
(5.48798 -85.6284 0)
(5.04347 -86.23 0)
(4.57148 -86.9426 3.45459e-17)
(4.06965 -87.7317 0)
(3.53119 -88.5532 0)
(2.95402 -89.3496 -3.44607e-17)
(2.36962 -90.0636 0)
(1.80809 -90.6965 -3.57077e-17)
(1.26328 -91.2787 0)
(0.690428 -91.8372 0)
(0.170483 -92.4275 0)
(-0.247304 -93.1086 3.75597e-17)
(-0.665698 -93.9112 0)
(-1.08375 -94.8146 1.91732e-17)
(-1.45878 -95.787 0)
(-1.82101 -96.7828 0)
(26.9423 85.2296 0)
(26.1417 84.4285 0)
(25.3316 83.7348 0)
(24.424 83.1684 4.55838e-17)
(23.444 82.7357 0)
(22.4081 82.4382 0)
(21.3311 82.2793 -8.96967e-17)
(20.1976 82.2443 0)
(19.0174 82.3124 -1.37403e-16)
(17.7886 82.4842 9.07572e-17)
(16.5052 82.7696 9.08148e-17)
(15.1643 83.1907 4.72091e-17)
(13.7512 83.7549 0)
(12.2467 84.4249 4.8587e-17)
(10.6417 85.1823 0)
(8.93754 86.0191 0)
(7.13824 86.9353 0)
(5.2457 87.9204 -1.4915e-16)
(3.26976 88.9546 0)
(1.24288 89.9955 -2.61958e-17)
(-0.916633 90.9889 0)
(-3.13363 91.814 -5.23416e-17)
(-0.336539 -39.8758 0)
(0.195867 -37.7645 0)
(0.647273 -35.9605 0)
(1.07609 -34.5002 0)
(1.46695 -33.3732 0)
(1.81953 -32.527 6.85016e-17)
(2.13231 -31.9006 6.62378e-17)
(2.40373 -31.4267 0)
(2.62969 -31.036 6.70656e-17)
(2.80585 -30.6551 -6.74579e-17)
(2.92557 -30.2019 -6.7747e-17)
(2.98947 -29.5938 0)
(3.02705 -28.7881 0)
(3.07025 -27.8136 0)
(3.12834 -26.7116 7.47815e-17)
(3.20479 -25.5342 0)
(3.30473 -24.3397 0)
(3.42841 -23.1903 7.40578e-17)
(3.58104 -22.2182 0)
(3.78121 -21.4181 0)
(4.01457 -20.7634 0)
(4.23228 -20.2767 3.95026e-17)
(-7.6491 53.6629 0)
(-7.78139 53.1841 0)
(-7.74432 52.746 0)
(-7.5888 52.3762 -8.25279e-17)
(-7.32853 52.0886 0)
(-6.97528 51.8902 8.1433e-17)
(-6.54387 51.7791 0)
(-6.0508 51.7486 0)
(-5.50675 51.7888 0)
(-4.91878 51.8952 0)
(-4.29162 52.0715 -1.74303e-16)
(-3.63565 52.3283 0)
(-3.00198 52.6663 0)
(-2.42762 53.0322 0)
(-1.90237 53.3892 8.81312e-17)
(-1.41735 53.7353 1.84819e-16)
(-0.964678 54.0684 0)
(-0.535102 54.3849 0)
(-0.128837 54.6786 0)
(0.206107 54.9437 0)
(0.493315 55.1636 9.65452e-17)
(0.820044 55.3183 0)
(-10.056 -16.44 -1.37291e-16)
(-9.56283 -16.5012 0)
(-9.11283 -16.5119 -1.48618e-16)
(-8.67263 -16.4552 7.33001e-17)
(-8.24638 -16.3154 0)
(-7.83131 -16.0645 -1.49214e-16)
(-7.41961 -15.6736 -1.53916e-16)
(-7.00857 -15.1306 -1.55182e-16)
(-6.59572 -14.4236 0)
(-6.18348 -13.5457 0)
(-5.77634 -12.4968 1.54968e-16)
(-5.37073 -11.2882 0)
(-4.95098 -9.97551 0)
(-4.5002 -8.63984 0)
(-4.0216 -7.32611 -3.28138e-16)
(-3.52071 -6.06757 -1.63937e-16)
(-3.00091 -4.8894 0)
(-2.46488 -3.81138 -1.70848e-16)
(-1.9143 -2.84983 0)
(-1.34935 -2.01816 1.73649e-16)
(-0.773724 -1.32636 -8.55172e-17)
(-0.228381 -0.784666 0)
(-4.86705 28.7945 1.64368e-16)
(-5.08464 28.7483 -1.73018e-16)
(-5.27631 28.6852 3.49817e-16)
(-5.47269 28.6106 1.74471e-16)
(-5.66715 28.5264 0)
(-5.85209 28.4342 0)
(-6.01904 28.3062 1.78904e-16)
(-6.15215 28.1574 1.79592e-16)
(-6.24506 28.0374 0)
(-6.28057 27.9915 0)
(-6.24362 28.015 0)
(-6.12741 28.0631 0)
(-5.95262 28.1386 0)
(-5.73873 28.251 1.83634e-16)
(-5.4879 28.4032 1.87778e-16)
(-5.20913 28.5859 -1.86862e-16)
(-4.908 28.79 0)
(-4.5915 29.007 1.9224e-16)
(-4.26741 29.2275 0)
(-3.94501 29.4436 -2.60163e-18)
(-3.62781 29.648 1.9276e-16)
(-3.2833 29.8344 -1.99761e-16)
(-6.85463 -3.55385 -1.63786e-16)
(-6.59117 -3.36001 1.73148e-16)
(-6.34612 -3.16601 -1.74082e-16)
(-6.10497 -2.96847 1.68463e-18)
(-5.87219 -2.76173 1.77521e-16)
(-5.64295 -2.53826 0)
(-5.42893 -2.3267 0)
(-5.23647 -2.1209 0)
(-5.05176 -1.8763 0)
(-4.88373 -1.58063 3.62549e-16)
(-4.72398 -1.22457 0)
(-4.568 -0.802861 0)
(-4.40303 -0.328616 0)
(-4.21785 0.174149 -1.84413e-16)
(-4.00988 0.694563 0)
(-3.77877 1.22304 3.76351e-16)
(-3.52578 1.75032 0)
(-3.25135 2.27207 0)
(-2.95292 2.78084 0)
(-2.63728 3.25202 -1.91669e-16)
(-2.31085 3.6699 -1.92403e-16)
(-1.99595 4.03526 1.99371e-16)
(-3.87525 16.2259 1.88444e-16)
(-3.92275 16.1946 0)
(-3.93474 16.1628 0)
(-3.94252 16.1333 -4.00772e-16)
(-3.94351 16.1069 -1.18111e-18)
(-3.93437 16.085 -2.00477e-16)
(-3.91431 16.0685 -4.01559e-16)
(-3.88406 16.0527 0)
(-3.84204 16.0396 -4.02616e-16)
(-3.78436 16.0339 -2.35424e-18)
(-3.70521 16.0394 -4.02841e-16)
(-3.60287 16.0596 4.02824e-16)
(-3.48891 16.0963 0)
(-3.37281 16.1471 0)
(-3.25329 16.2096 0)
(-3.12801 16.2814 2.06617e-16)
(-2.99733 16.3602 0)
(-2.8621 16.4503 0)
(-2.71829 16.5662 0)
(-2.56692 16.7082 0)
(-2.41325 16.8563 0)
(-2.2428 16.9992 0)
(-2.85933 0.906792 0)
(-2.7482 1.13427 0)
(-2.6502 1.35335 2.13721e-16)
(-2.55584 1.56979 -8.59187e-19)
(-2.46819 1.78772 2.14955e-16)
(-2.38847 2.00686 6.4178e-16)
(-2.31608 2.22648 4.26858e-16)
(-2.25059 2.44603 0)
(-2.19168 2.66466 4.26918e-16)
(-2.14011 2.88033 -4.26834e-16)
(-2.09462 3.0989 4.2603e-16)
(-2.05082 3.32813 1.6641e-18)
(-1.99957 3.5632 0)
(-1.93324 3.79737 0)
(-1.85123 4.02856 0)
(-1.75419 4.25466 1.65706e-18)
(-1.64261 4.47319 0)
(-1.51707 4.68172 0)
(-1.37705 4.87886 0)
(-1.22076 5.06417 0)
(-1.05067 5.23495 0)
(-0.888577 5.38555 0)
(-2.37916 9.78591 0)
(-2.33018 9.81628 2.37454e-16)
(-2.25915 9.85056 -4.75392e-16)
(-2.18455 9.88747 2.37874e-16)
(-2.10495 9.92532 -4.75352e-16)
(-2.01871 9.96146 -1.24108e-18)
(-1.92613 9.99239 -4.7301e-16)
(-1.82703 10.0177 0)
(-1.72085 10.0402 0)
(-1.60825 10.0605 0)
(-1.48903 10.0791 0)
(-1.36366 10.0982 -4.69206e-16)
(-1.23982 10.1196 0)
(-1.12348 10.1432 0)
(-1.01363 10.1686 0)
(-0.908837 10.1956 -4.83095e-16)
(-0.808216 10.2239 0)
(-0.710533 10.2536 -4.85671e-16)
(-0.615236 10.2862 -4.86921e-16)
(-0.522055 10.3243 2.43883e-16)
(-0.428537 10.3698 0)
(-0.332734 10.4249 2.52048e-16)
(-1.08035 2.14234 0)
(-1.02338 2.37616 -5.14214e-16)
(-0.970624 2.60172 2.567e-16)
(-0.914142 2.81778 0)
(-0.857218 3.02751 0)
(-0.800526 3.23318 -5.11316e-16)
(-0.744131 3.43654 5.10307e-16)
(-0.688703 3.63936 -5.1003e-16)
(-0.634089 3.84423 5.08729e-16)
(-0.580337 4.04895 0)
(-0.529021 4.2417 0)
(-0.479385 4.41021 0)
(-0.425278 4.55519 0)
(-0.362287 4.68802 0)
(-0.29121 4.8141 -5.16469e-16)
(-0.212807 4.93288 0)
(-0.127387 5.0427 0)
(-0.0358114 5.14169 5.2278e-16)
(0.0622616 5.22828 5.24106e-16)
(0.16712 5.30097 -2.62416e-16)
(0.276943 5.35798 -2.62915e-16)
(0.379462 5.39687 -2.7082e-16)
(-1.31665 6.27644 0)
(-1.25854 6.31167 2.80666e-16)
(-1.18621 6.35057 0)
(-1.10759 6.39376 5.59282e-16)
(-1.02256 6.44083 0)
(-0.930862 6.49048 0)
(-0.832349 6.54176 0)
(-0.726831 6.59409 5.54692e-16)
(-0.613814 6.64723 -5.52941e-16)
(-0.492937 6.70078 5.5047e-16)
(-0.363799 6.75185 0)
(-0.229103 6.79696 5.46066e-16)
(-0.0980245 6.83405 0)