/*--------------------------------*- C++ -*----------------------------------*\
  =========                 |
  \\      /  F ield         | OpenFOAM: The Open Source CFD Toolbox
   \\    /   O peration     | Website:  https://openfoam.org
    \\  /    A nd           | Version:  8
     \\/     M anipulation  |
\*---------------------------------------------------------------------------*/
FoamFile
{
    version     2.0;
    format      ascii;
    class       volScalarField;
    location    "0.5";
    object      epsilon;
}
// * * * * * * * * * * * * * * * * * * * * * * * * * * * * * * * * * * * * * //

dimensions      [0 2 -3 0 0 0 0];

internalField   nonuniform List<scalar> 
15677
(
59.7306
18.3649
52.6862
8.08415
26.0235
50.2335
4.6226
13.3231
31.6503
50.5418
3.17429
7.74874
17.1247
37.3289
51.6364
2.48708
5.05394
10.0464
20.848
42.677
53.6819
2.14429
3.62753
6.47168
12.1802
24.5662
47.6798
55.7425
1.97933
2.82274
4.52908
7.73297
14.2895
28.2682
52.0396
57.6809
1.91149
2.35336
3.40357
5.31422
8.92304
16.4328
31.7668
55.7265
59.3818
1.88406
2.08028
2.72391
3.91088
6.02521
10.1105
18.5413
34.9669
58.7512
60.8857
1.8705
1.93936
2.30727
3.05608
4.35943
6.70951
11.2764
20.5735
37.7907
61.233
62.1547
1.86763
1.87828
2.05646
2.52119
3.34854
4.77725
7.36484
12.4198
22.4666
40.2575
63.2313
63.2694
1.86862
1.84884
1.91654
2.186
2.71258
3.61537
5.16621
8.00192
13.5083
24.2132
42.3584
64.8613
64.1981
1.86954
1.8387
1.85192
1.98256
2.3068
2.88627
3.85849
5.53627
8.60667
14.5403
25.7798
44.1524
66.1689
65.0318
1.86978
1.83699
1.82114
1.86771
2.05129
2.41794
3.0429
4.08473
5.88249
9.18212
15.4924
27.1824
45.6502
67.2302
65.7572
1.86978
1.83725
1.81053
1.81334
1.89813
2.1173
2.51857
3.18637
4.29293
6.20845
9.71606
16.3697
28.4058
46.91
68.0955
66.3993
1.86974
1.83751
1.80824
1.7898
1.8154
1.93021
2.17859
2.61026
3.31674
4.4858
6.50891
10.2115
17.1555
29.4717
47.9561
68.8004
66.986
1.86971
1.83761
1.80794
1.78278
1.77574
1.82146
1.96226
2.23503
2.69312
3.43571
4.6617
6.78562
10.6593
17.8581
30.3793
48.8135
69.4032
67.4866
1.8697
1.83762
1.80796
1.78106
1.76152
1.76615
1.8317
1.993
2.2863
2.76802
3.54311
4.82162
7.03491
11.0632
18.4685
31.1446
49.5214
69.8828
67.9913
1.86969
1.83761
1.80797
1.78072
1.75705
1.74396
1.7604
1.84309
2.02157
2.33262
2.83517
3.63951
4.96451
7.2583
11.4167
18.995
31.7778
50.0776
70.3324
68.3871
1.86969
1.8376
1.80796
1.78067
1.75578
1.73593
1.72958
1.75741
1.85451
2.04779
2.37412
2.89492
3.72497
5.0909
7.4535
11.7234
19.4345
32.288
50.5394
70.6703
68.8549
1.86969
1.83759
1.80795
1.78065
1.75547
1.73321
1.71738
1.71804
1.75588
1.86572
2.07151
2.41095
2.94759
3.79967
5.20068
7.62141
11.9805
19.7956
32.6934
50.878
71.0431
69.1699
1.8697
1.83758
1.80793
1.78062
1.75539
1.73235
1.71279
1.70133
1.70851
1.75584
1.87625
2.09272
2.4434
2.99336
3.8642
5.29387
7.76217
12.1914
20.0799
32.9989
51.1644
71.2965
69.6333
1.8697
1.83757
1.80792
1.78059
1.75535
1.73208
1.71118
1.69449
1.68733
1.70091
1.75618
1.88595
2.11157
2.47167
3.03286
3.91862
5.3718
7.87597
12.3574
20.2958
33.2229
51.358
71.6503
69.8899
1.8697
1.83757
1.80791
1.78056
1.75532
1.73197
1.71064
1.69185
1.67812
1.67533
1.69463
1.75701
1.89491
2.12827
2.49627
3.06636
3.96414
5.43406
7.96598
12.4813
20.4503
33.3756
51.5199
71.8579
70.3537
1.8697
1.83757
1.80791
1.78054
1.75529
1.7319
1.71044
1.69086
1.67434
1.66364
1.66491
1.68964
1.75845
1.90326
2.14316
2.51757
3.09475
4.00104
5.48379
8.03157
12.5693
20.5472
33.463
51.6392
72.2602
70.5989
1.8697
1.83756
1.8079
1.78052
1.75526
1.73184
1.71034
1.69047
1.67286
1.65855
1.65081
1.6563
1.68585
1.76037
1.91122
2.1567
2.53638
3.11879
4.03109
5.52012
8.07883
12.6206
20.6042
33.513
51.7161
72.5594
429.743
1.8697
1.83756
1.8079
1.78051
1.75524
1.7318
1.71027
1.69028
1.67226
1.65639
1.64444
1.63992
1.64896
1.68328
1.76314
1.91932
2.1695
2.5533
3.13933
4.05473
5.54739
8.10579
12.6492
20.6095
33.5106
51.8373
88.9
718.711
1.8697
1.83756
1.8079
1.7805
1.75522
1.73176
1.71021
1.69016
1.67199
1.65546
1.64167
1.63217
1.63046
1.64392
1.68271
1.76712
1.92795
2.18223
2.56928
3.15774
4.0744
5.56568
8.12268
12.6468
20.5975
33.5141
52.7599
122.266
1000.73
1.8697
1.83755
1.8079
1.78049
1.75521
1.73173
1.71016
1.69008
1.67183
1.65503
1.64047
1.62861
1.62158
1.62357
1.63996
1.68381
1.77265
1.93792
2.19578
2.58556
3.17524
4.09118
5.57888
8.12333
12.6358
20.5699
33.5409
55.3183
157.93
1250.22
1.86971
1.83755
1.80789
1.78048
1.75519
1.73171
1.71012
1.69001
1.67171
1.65479
1.63989
1.62697
1.61744
1.61337
1.61799
1.64007
1.68693
1.78051
1.94994
2.2112
2.60295
3.19307
4.1066
5.58753
8.12076
12.6132
20.5343
33.6428
59.8923
190.663
1480.21
1.86971
1.83755
1.80789
1.78048
1.75518
1.73169
1.71008
1.68995
1.67162
1.65463
1.63957
1.62617
1.6155
1.60841
1.60707
1.6165
1.64197
1.6932
1.79143
1.96501
2.22924
2.62278
3.21234
4.12247
5.59496
8.11474
12.5859
20.4931
33.9006
64.6247
221.75
1675.18
1.86971
1.83755
1.80789
1.78047
1.75517
1.73167
1.71005
1.68991
1.67154
1.65451
1.63935
1.62574
1.61454
1.60601
1.60175
1.60432
1.61795
1.64689
1.70345
1.80641
1.98397
2.25125
2.64598
3.23472
4.14022
5.60344
8.10805
12.5563
20.4483
34.372
69.4436
249.113
1823.11
1.86971
1.83755
1.80789
1.78047
1.75517
1.73166
1.71003
1.68987
1.67147
1.65441
1.63918
1.62546
1.614
1.6048
1.59914
1.59823
1.60554
1.62239
1.6565
1.71854
1.82631
2.00806
2.27806
2.67404
3.2611
4.16171
5.61502
8.10261
12.5261
20.4069
34.9366
73.824
270.37
1937.7
1.86971
1.83755
1.80789
1.78047
1.75516
1.73165
1.71
1.68983
1.67141
1.65433
1.63904
1.62526
1.61364
1.60414
1.59779
1.59522
1.59933
1.60978
1.63148
1.67181
1.73939
1.8524
2.03816
2.31106
2.70763
3.29308
4.18806
5.63103
8.10118
12.4941
20.3753
35.4824
77.222
287.204
2029.45
1.83755
1.86974
1.80789
1.78046
1.75515
1.73164
1.70999
1.68981
1.67136
1.65426
1.63892
1.6251
1.61337
1.60372
1.59703
1.59369
1.59628
1.60352
1.61867
1.64709
1.69355
1.76729
1.88554
2.07557
2.35088
2.74826
3.33129
4.22051
5.65219
8.10255
12.4594
20.3391
35.9023
79.8398
300.822
2105.8
1.80789
1.83765
1.86982
1.78046
1.75515
1.73163
1.70997
1.68978
1.67132
1.65419
1.63882
1.62496
1.61315
1.60342
1.59654
1.59286
1.59476
1.60051
1.61245
1.63473
1.66972
1.72299
1.80318
1.92718
2.12106
2.39896
2.79623
3.3769
4.25927
5.67876
8.10744
12.4222
20.2947
36.1923
81.8418
312.364
2171.64
1.78046
1.80805
1.83785
1.86989
1.75515
1.73162
1.70996
1.68976
1.67128
1.65414
1.63874
1.62484
1.61296
1.60318
1.59617
1.59236
1.59396
1.59908
1.60961
1.62903
1.65829
1.70077
1.76133
1.84843
1.97792
2.17576
2.45544
2.85284
3.42988
4.30462
5.71456
8.11835
12.3882
20.2381
36.3808
83.4308
322.333
2230.16
1.75514
1.78066
1.80836
1.83805
1.86996
1.73162
1.70994
1.68974
1.67125
1.65409
1.63867
1.62474
1.6128
1.60298
1.59587
1.592
1.5935
1.59841
1.60844
1.62677
1.65356
1.69098
1.7416
1.8102
1.90413
2.03931
2.24006
2.52185
2.91774
3.49051
4.3625
5.76195
8.13616
12.3576
20.172
36.4812
84.6976
331.357
2283.4
1.73161
1.75539
1.78109
1.80869
1.83826
1.87004
1.70993
1.68972
1.67123
1.65405
1.63861
1.62465
1.61267
1.60281
1.59562
1.59172
1.59318
1.59807
1.60806
1.6262
1.65236
1.68806
1.73445
1.79415
1.87083
1.97202
2.11192
2.31516
2.59716
2.99147
3.56648
4.43569
5.81711
8.15988
12.3303
20.0991
36.5343
85.775
339.551
2332.54
1.70992
1.7319
1.75591
1.78152
1.80903
1.83848
1.87012
1.68971
1.6712
1.65401
1.63855
1.62456
1.61255
1.60267
1.5954
1.5915
1.59294
1.59787
1.608
1.62639
1.65276
1.68836
1.73375
1.79055
1.86003
1.94551
2.05304
2.19732
2.40104
2.68259
3.08294
3.66088
4.51767
5.87937
8.18879
12.3073
20.0232
36.5329
86.6893
347.253
2378.51
1.6897
1.71025
1.7325
1.75644
1.78196
1.80937
1.8387
1.8702
1.67118
1.65398
1.63851
1.62449
1.61246
1.60254
1.59521
1.59131
1.59275
1.59774
1.60806
1.62688
1.65396
1.69049
1.73653
1.79323
1.86063
1.94075
2.03512
2.14932
2.29574
2.49915
2.7877
3.19562
3.76508
4.60703
5.94714
8.22239
12.2881
19.9476
36.5205
87.5188
354.461
2421.57
1.67116
1.69005
1.71092
1.73311
1.75698
1.78242
1.80972
1.83893
1.87028
1.65395
1.63847
1.62442
1.61238
1.60242
1.59505
1.59115
1.59259
1.59765
1.60817
1.62745
1.65539
1.69341
1.74123
1.79975
1.86832
1.94769
2.03755
2.141
2.26112
2.40893
2.62099
2.91902
3.31877
3.87674
4.70242
6.01926
8.25977
12.2738
19.8746
36.4947
88.2661
361.311
2462.35
1.65392
1.67154
1.69078
1.71161
1.73375
1.75754
1.78289
1.81009
1.83917
1.87037
1.63844
1.62437
1.61231
1.60231
1.59492
1.59101
1.59246
1.59759
1.6083
1.62803
1.65685
1.69647
1.74673
1.80841
1.88012
1.96236
2.0532
2.15363
2.26348
2.38892
2.55158
2.77507
3.06425
3.4516
3.99436
4.80216
6.09463
8.30046
12.2629
19.8068
36.4586
88.9652
367.838
2500.63
1.63841
1.65431
1.67233
1.69154
1.71232
1.7344
1.75811
1.78338
1.81046
1.83941
1.87046
1.62431
1.61226
1.60221
1.59481
1.59089
1.59235
1.59754
1.60844
1.62858
1.65826
1.69943
1.75222
1.81793
1.8944
1.98172
2.07726
2.18084
2.28956
2.40584
2.54843
2.72985
2.9468
3.22204
3.59306
4.11757
4.90494
6.17222
8.34338
12.2564
19.7442
36.4225
89.6277
374.027
2537.07
1.62427
1.63881
1.65514
1.67313
1.69232
1.71304
1.73507
1.7587
1.78387
1.81084
1.83966
1.87055
1.61221
1.60212
1.59472
1.59079
1.59225
1.59751
1.60858
1.62911
1.65959
1.70222
1.75749
1.82733
1.9097
2.00424
2.10696
2.21776
2.33166
2.44905
2.58612
2.75123
2.92731
3.13462
3.39207
3.7417
4.24426
5.00955
6.25101
8.38805
12.2529
19.6878
36.389
90.251
379.979
2571.15
1.61217
1.62465
1.63965
1.65598
1.67397
1.69312
1.71379
1.73576
1.7593
1.78438
1.81123
1.83991
1.87064
1.60203
1.59464
1.59069
1.59217
1.59748
1.60871
1.62959
1.66083
1.70482
1.76246
1.83631
1.9247
2.02822
2.14092
2.26191
2.38545
2.51074
2.65297
2.81816
2.98011
3.14302
3.33356
3.57103
3.89527
4.37368
5.11497
6.33009
8.4336
12.2534
19.6376
36.3595
90.8617
385.592
2603.66
1.60195
1.61254
1.62547
1.64052
1.65686
1.67482
1.69395
1.71456
1.73647
1.75993
1.78491
1.81163
1.84017
1.87073
1.59459
1.5906
1.59209
1.59746
1.60884
1.63004
1.66198
1.70721
1.76712
1.84477
1.93907
2.0519
2.17707
2.31224
2.44892
2.58731
2.74228
2.91922
3.08343
3.23436
3.3764
3.54236
3.75798
4.05376
4.50458
5.22017
6.4087
8.47962
12.2556
19.593
36.3367
91.4329
391.009
2633.91
1.59455
1.60223
1.61334
1.62632
1.64142
1.65776
1.6757
1.6948
1.71535
1.7372
1.76056
1.78545
1.81205
1.84043
1.87081
1.5905
1.59202
1.59744
1.60895
1.63045
1.66304
1.70941
1.77145
1.85266
1.95272
2.07478
2.21291
2.36623
2.52157
2.67759
2.85163
3.04966
3.2285
3.3825
3.51284
3.62549
3.75888
3.94725
4.21463
4.63562
5.32433
6.48616
8.52552
12.2599
19.5542
36.3188
92.0037
396.095
2662.79
1.59042
1.59481
1.60287
1.61417
1.6272
1.64235
1.6587
1.67661
1.69568
1.71617
1.73795
1.76122
1.786
1.81245
1.84069
1.8709
1.59194
1.59742
1.60906
1.63083
1.664
1.71142
1.77545
1.85998
1.96559
2.09663
2.24774
2.42058
2.60043
2.78199
2.98131
3.20944
3.41363
3.58357
3.71554
3.81431
3.88815
3.98239
4.13761
4.37589
4.76555
5.42654
6.56192
8.57085
12.2666
19.5202
36.3081
92.5322
400.996
2689.49
1.5919
1.59041
1.59538
1.60353
1.61503
1.62812
1.6433
1.65966
1.67754
1.69658
1.717
1.73872
1.76189
1.78655
1.81285
1.84093
1.87098
1.59739
1.60915
1.63118
1.66488
1.71326
1.77913
1.86674
1.97768
2.11729
2.2813
2.47426
2.68067
2.89699
3.13357
3.40209
3.64316
3.84118
3.98755
4.083
4.13748
4.16233
4.2107
4.32775
4.53595
4.89338
5.5264
6.63555
8.61532
12.2747
19.4912
36.3019
93.0662
405.589
2715.03
1.59741
1.59176
1.59041
1.59596
1.60423
1.61592
1.62909
1.64429
1.66066
1.67851
1.69751
1.71786
1.7395
1.76255
1.78708
1.81324
1.84117
1.87106
1.60923
1.63148
1.66567
1.71494
1.78251
1.87296
1.98895
2.13669
2.31345
2.52672
2.76053
3.01614
3.30517
3.63436
3.92703
4.16808
4.34212
4.4454
4.48603
4.48127
4.44608
4.4418
4.51639
4.69346
5.01897
5.62342
6.70673
8.65864
12.2841
19.4661
36.3028
93.5551
409.995
2738.5
1.60937
1.59703
1.59143
1.59038
1.59658
1.605
1.61684
1.63009
1.6453
1.6617
1.67949
1.69847
1.71874
1.74028
1.7632
1.78759
1.81361
1.8414
1.87114
1.63175
1.66638
1.71646
1.78559
1.87867
1.99943
2.15479
2.34409
2.5774
2.83913
3.13759
3.48778
3.90456
4.28166
4.58818
4.80881
4.93211
4.96468
4.92667
4.84488
4.73765
4.67398
4.70246
4.84602
5.14123
5.71717
6.77521
8.70062
12.2943
19.4452
36.3062
94.052
414.131
2761
1.63207
1.60864
1.59608
1.59106
1.59046
1.59723
1.60584
1.61779
1.63114
1.64635
1.66276
1.68051
1.69945
1.71962
1.74104
1.76383
1.78809
1.81397
1.84162
1.87122
1.66701
1.71783
1.78839
1.88392
2.00911
2.17163
2.37315
2.62588
2.91596
3.26052
3.67808
4.20095
4.71343
5.14187
5.44132
5.60386
5.6328
5.55486
5.40743
5.22772
5.0355
4.90574
4.88541
4.99331
5.25938
5.80731
6.84083
8.74108
12.3051
19.4272
36.3144
94.502
418.074
2778.99
1.66769
1.63073
1.60669
1.59504
1.59076
1.5907
1.59788
1.60674
1.61877
1.63223
1.64742
1.66386
1.68155
1.70042
1.72047
1.74178
1.76444
1.78858
1.81433
1.84184
1.87129
1.71908
1.79093
1.88872
2.01804
2.18727
2.40057
2.67189
2.99081
3.38382
3.87321
4.51984
5.21443
5.86185
6.32808
6.56561
6.59984
6.46719
6.22492
5.93036
5.62905
5.33818
5.13584
5.06427
5.13505
5.37292
5.89358
6.90346
8.77991
12.3163
19.4126
36.3231
94.9609
421.29
2794.17
1.72035
1.66567
1.62708
1.60459
1.5941
1.59049
1.59113
1.59853
1.60771
1.61978
1.63336
1.64854
1.66498
1.68259
1.70136
1.7213
1.74249
1.76504
1.78905
1.81467
1.84205
1.87136
1.79326
1.89311
2.02625
2.20179
2.42632
2.71536
3.06354
3.50603
4.07058
4.86119
5.78928
6.75074
7.54403
7.97534
8.04048
7.83716
7.45259
6.98038
6.49586
6.04761
5.64427
5.36322
5.23828
5.27101
5.48154
5.97584
6.96304
8.81703
12.3278
19.4001
36.3394
95.3171
424.048
2810.53
1.79551
1.71744
1.65981
1.62322
1.60267
1.59325
1.59015
1.59171
1.59921
1.60874
1.62083
1.63453
1.64968
1.66609
1.68361
1.70228
1.72211
1.74319
1.76562
1.78951
1.81501
1.84226
1.87143
1.89717
2.03379
2.21525
2.45041
2.75635
3.13396
3.6257
4.26889
5.22632
6.44276
7.81434
9.08721
9.95112
10.1947
9.92075
9.33815
8.59539
7.82122
7.10204
6.4814
5.95229
5.58693
5.40686
5.40106
5.58507
6.05399
7.01956
8.85241
12.3393
19.3902
36.3507
95.6421
426.964
2828.39
1.901
1.79153
1.70842
1.65368
1.61963
1.60091
1.59249
1.58986
1.59238
1.59992
1.60982
1.62193
1.63573
1.65083
1.66717
1.6846
1.70317
1.72289
1.74387
1.76618
1.78996
1.81533
1.84245
1.87147
2.04081
2.22773
2.47289
2.79497
3.2018
3.74169
4.46819
5.61621
7.17329
9.04704
10.9467
12.4672
13.2263
13.0538
12.229
11.1043
9.89023
8.74163
7.74455
6.92769
6.26066
5.80613
5.56958
5.52513
5.68343
6.12804
7.07303
8.88602
12.3509
19.3829
36.3657
95.9752
430.232
2847.73
2.04722
1.89565
1.77803
1.69908
1.64794
1.6163
1.5993
1.59179
1.58964
1.59312
1.6007
1.61094
1.62307
1.63692
1.65196
1.66822
1.68556
1.70403
1.72366
1.74453
1.76673
1.79039
1.81565
1.84255
1.87147
2.23944
2.49387
2.83136
3.26676
3.85338
4.66937
6.03013
7.97324
10.4306
13.0969
15.4923
17.0845
17.4675
16.5833
14.9611
13.1202
11.3223
9.73113
8.41714
7.38308
6.56774
6.02009
5.72614
5.6432
5.7766
6.19795
7.12351
8.91788
12.3607
19.3776
36.3786
96.3712
433.721
2868.93
2.24991
2.04027
1.87576
1.76421
1.69031
1.64254
1.61317
1.59779
1.59118
1.58952
1.59391
1.60155
1.61208
1.62423
1.63808
1.65306
1.66925
1.6865
1.70488
1.7244
1.74517
1.76727
1.79081
1.81581
1.84255
1.87147
2.51363
2.86571
3.32867
3.96073
4.87348
6.4654
8.83109
11.9401
15.4977
18.9798
21.7231
23.0971
22.7374
20.7854
18.0941
15.3594
12.8709
10.7764
9.11233
7.84382
6.87187
6.22817
5.87633
5.75532
5.86476
6.2641
7.1711
8.94403
12.3693
19.3723
36.4003
96.7809
437.627
2891.9
2.53091
2.24083
2.01132
1.85566
1.7512
1.68198
1.63738
1.61022
1.59639
1.59067
1.5895
1.59473
1.60249
1.61321
1.62539
1.6392
1.65414
1.67025
1.68742
1.7057
1.72513
1.74579
1.76778
1.79102
1.81581
1.84255
1.87147
2.89832
3.3876
4.06429
5.08125
6.91767
9.73352
13.5482
18.1024
22.8624
27.0711
29.886
30.628
29.0654
25.6386
21.5916
17.789
14.5123
11.8628
9.82215
8.30605
7.17148
6.42979
6.02002
5.86156
5.9476
6.32656
7.21001
8.96621
12.3789
19.3677
36.4204
97.2675
441.821
2917.1
2.92648
2.51939
2.1988
1.98243
1.83673
1.73879
1.67398
1.63244
1.60744
1.59512
1.59026
1.58962
1.59556
1.60349
1.61432
1.62653
1.6403
1.65519
1.67122
1.68831
1.7065
1.72583
1.74639
1.76804
1.79102
1.81581
1.84255
1.87147
3.44381
4.16501
5.29304
7.38153
10.6666
15.2274
20.862
27.0608
33.0195
37.7283
40.1897
39.7559
36.4446
31.0998
25.4072
20.3727
16.2223
12.9759
10.5388
8.76608
7.46507
6.62448
6.15716
5.96221
6.02528
6.37763
7.24292
8.99048
12.3899
19.3634
36.4518
97.7791
446.506
2944.35
3.49189
2.9116
2.45831
2.15748
1.95524
1.81864
1.72683
1.66627
1.62772
1.60485
1.59396
1.58995
1.58993
1.59635
1.60452
1.61539
1.62765
1.64137
1.65621
1.67216
1.68918
1.70727
1.72652
1.74669
1.76804
1.79102
1.81581
1.84255
1.87147
4.26351
5.50715
7.85133
11.6169
16.951
23.7281
31.4911
39.4361
46.4504
51.2669
52.7851
50.5047
44.8299
37.1064
29.4882
23.0735
17.9776
14.1021
11.2552
9.22048
7.7513
6.81188
6.28776
6.0574
6.08849
6.42082
7.27881
9.01706
12.4021
19.3604
36.4838
98.379
451.591
2974.25
4.34921
3.47319
2.82154
2.39923
2.11861
1.92918
1.80114
1.71526
1.65885
1.62321
1.60249
1.59292
1.58968
1.59048
1.59712
1.60557
1.61645
1.62875
1.64242
1.65722
1.67309
1.69002
1.70803
1.72686
1.74669
1.76804
1.79102
1.81581
1.84255
1.87143
5.72018
8.32267
12.5723
18.6943
26.6542
36.0704
46.1795
55.8355
63.5887
67.9308
67.7475
62.8369
54.1389
43.5801
33.7776
25.855
19.7566
15.2294
11.9648
9.66622
8.02905
6.99169
6.41186
6.1354
6.14178
6.46793
7.31799
9.04618
12.4161
19.3584
36.5286
99.027
457.248
3006.48
4.32516
5.907
3.33627
2.73638
2.3437
2.08133
1.90395
1.78418
1.70408
1.65173
1.61889
1.60031
1.59199
1.58935
1.59116
1.59787
1.60662
1.61749
1.62983
1.64344
1.65819
1.67398
1.69084
1.7084
1.72686
1.74669
1.76804
1.79102
1.81581
1.84245
1.87136
8.79081
13.5218
20.4351
29.5975
40.7203
53.1115
65.6516
76.811
84.7861
87.8697
85.0645
76.6524
64.2568
50.4312
38.2173
28.683
21.5401
16.3472
12.6623
10.1008
8.29739
7.16372
6.51403
6.20148
6.19977
6.5193
7.36076
9.07812
12.432
19.3588
36.5796
99.7715
463.478
3041.82
4.10129
5.88796
9.20497
3.21118
2.6565
2.29041
2.0452
1.87948
1.76778
1.69332
1.64491
1.61481
1.59833
1.59119
1.58911
1.59189
1.59864
1.60766
1.61851
1.63088
1.64444
1.65914
1.67486
1.69125
1.7084
1.72686
1.74669
1.76804
1.79102
1.81565
1.84225
1.87129
14.4538
22.1545
32.5213
45.3708
60.1051
75.6756
90.5653
102.824
110.285
111.12
104.629
91.7929
75.0431
57.5638
42.7506
31.5262
23.3112
17.4466
13.3432
10.5222
8.55558
7.30618
6.60085
6.27374
6.26289
6.57534
7.40746
9.11316
12.45
19.3606
36.6422
100.606
470.355
3079.7
3.90468
5.49165
9.21474
15.2812
3.0949
2.57984
2.23878
2.01014
1.85578
1.75195
1.683
1.63842
1.61105
1.59661
1.59053
1.58898
1.59265
1.59944
1.60867
1.61953
1.63191
1.64542
1.66007
1.67529
1.69124
1.70839
1.72685
1.74669
1.76804
1.79081
1.81533
1.84204
1.87122
23.8325
35.3944
49.9639
67.0512
85.7098
104.504
121.479
134.22
140.2
137.593
126.244
108.051
86.3401
64.8808
47.3245
34.3566
25.0555
18.5204
14.0039
10.9287
8.77041
7.42772
6.69612
6.35278
6.33163
6.63646
7.45847
9.15165
12.4707
19.3649
36.7233
101.536
478.067
3121.16
3.72581
5.14673
8.48917
15.3626
25.3316
2.98371
2.50566
2.18872
1.97621
1.83292
1.73675
1.67314
1.63234
1.60769
1.59514
1.59002
1.58897
1.5934
1.60026
1.60967
1.62053
1.63291
1.64638
1.66053
1.67528
1.69124
1.70839
1.72685
1.74669
1.76778
1.79038
1.815
1.84183
1.87114
38.1854
54.453
73.8643
95.5918
118.327
140.224
158.836
171.213
174.496
167.072
149.627
125.182
97.9832
72.2892
51.8904
37.15
26.7613
19.563
14.6417
11.2677
8.95424
7.56163
6.80075
6.43932
6.40652
6.70313
7.5142
9.19396
12.4941
19.3747
36.8102
102.628
486.492
3165.2
3.55764
4.8347
7.84394
14.1118
25.5909
40.6855
2.87642
2.43388
2.14033
1.94349
1.81093
1.7222
1.66384
1.62683
1.60476
1.59388
1.58965
1.58908
1.59413
1.60111
1.61063
1.62152
1.6339
1.64686
1.66052
1.67528
1.69124
1.70839
1.72685
1.74638
1.76725
1.78995
1.81466
1.84161
1.87106
58.7915
80.4799
105.203
131.804
158.619
183.352
202.957
213.865
212.982
199.216
174.427
142.921
109.81
79.7025
56.4054
39.8863
28.4193
20.5699
15.1737
11.5581
9.15739
7.70932
6.91577
6.53412
6.48815
6.77583
7.57507
9.24042
12.5216
19.3851
36.9376
103.802
496.143
3213.29
3.39785
4.54402
7.25297
12.9618
23.6411
41.2709
62.6748
2.77289
2.36463
2.0937
1.91203
1.78988
1.70845
1.65534
1.62193
1.6022
1.59281
1.58939
1.58934
1.59483
1.60198
1.61158
1.62253
1.63438
1.64684
1.66051
1.67528
1.69124
1.70839
1.72651
1.74577
1.76671
1.78949
1.81431
1.84139
1.87098
86.834
114.462
144.778
176.34
207.131
234.303
254.035
262.075
255.303
233.569
200.251
161.002
121.669
87.0433
60.8339
42.5491
30.022
21.4101
15.6297
11.8794
9.38211
7.87238
7.04233
6.63802
6.57717
6.85511
7.64154
9.29167
12.5517
19.4084
37.0585
105.253
506.547
3263.6
3.2459
4.27114
6.69923
11.8843
21.812
38.4206
63.771
92.4981
2.67324
2.29809
2.04894
1.88194
1.76996
1.69583
1.64773
1.61756
1.59999
1.59192
1.58918
1.58978
1.5955
1.60287
1.61255
1.62301
1.63435
1.64684
1.66051
1.67528
1.69124
1.70801
1.72581
1.74514
1.76616
1.78903
1.81396
1.84116
1.8709
123.287
157.155
193.189
229.722
264.334
293.412
312.129
315.557
300.94
269.589
226.682
179.165
133.42
94.2467
65.1464
45.1252
31.3605
22.1305
16.1342
12.2352
9.63092
8.05258
7.1817
6.75197
6.67428
6.94153
7.71413
9.34777
12.5886
19.4282
37.256
106.757
518.743
3328
3.10163
4.0157
6.17778
10.8591
20.0604
35.7198
59.8065
94.2979
131.092
2.57766
2.23441
2.00617
1.85347
1.75167
1.68451
1.64092
1.61367
1.59812
1.59116
1.58892
1.59031
1.59618
1.60383
1.613
1.62298
1.63434
1.64684
1.66051
1.67528
1.69083
1.70725
1.7251
1.7445
1.76559
1.78856
1.8136
1.84092
1.87081
168.841
209.07
250.883
292.42
330.679
360.943
377.133
373.827
349.229
306.68
253.308
197.174
144.946
101.259
69.3192
47.278
32.5085
22.9278
16.6929
12.6295
9.90664
8.25189
7.33531
6.87702
6.78025
7.03571
7.79331
9.41001
12.6275
19.4722
37.4274
108.68
534.085
3403.07
2.96476
3.77822
5.68909
9.88083
18.3592
33.0972
56.0459
88.9834
133.753
179.046
2.48639
2.17377
1.96578
1.82737
1.73524
1.67434
1.63482
1.61019
1.5965
1.59052
1.58873
1.59093
1.59696
1.60429
1.61292
1.62298
1.63434
1.64683
1.66052
1.67485
1.68999
1.70646
1.72437
1.74383
1.76501
1.78807
1.81322
1.84068
1.87073
223.888
270.534
318.262
364.943
406.643
437.08
448.753
436.196
399.393
344.226
279.745
214.827
156.153
108.038
72.8053
49.1249
33.7796
23.8109
17.3122
13.0667
10.2124
8.47252
7.50474
7.0143
6.89592
7.1383
7.87976
9.47764
12.6775
19.5064
37.7254
110.946
554.565
3476.08
2.83473
3.55997
5.23467
8.95492
16.6979
30.515
52.3682
83.9791
126.804
182.635
236.584
2.39978
2.11667
1.92881
1.80391
1.72047
1.66521
1.62937
1.60714
1.59512
1.58998
1.58868
1.59171
1.59726
1.60421
1.6129
1.62298
1.63434
1.64684
1.66005
1.67396
1.68914
1.70566
1.72362
1.74315
1.76441
1.78757
1.81284
1.84043
1.87064
288.594
341.816
395.808
447.928
492.765
521.915
526.479
501.788
450.579
381.628
305.658
231.96
166.962
113.692
75.7948
51.1697
35.188
24.79
17.999
13.552
10.5516
8.71689
7.69173
7.16506
7.02221
7.24996
7.97377
9.55342
12.7278
19.5816
38.0241
114.342
576.406
3545.4
2.71136
3.36211
4.81568
8.08523
15.077
27.955
48.7182
79.0835
120.363
173.672
241.013
303.64
2.31864
2.06454
1.89566
1.78285
1.70721
1.65703
1.62451
1.60445
1.59392
1.58963
1.58894
1.59205
1.59706
1.60422
1.61291
1.62297
1.63436
1.64636
1.65911
1.67305
1.68826
1.70483
1.72285
1.74245
1.7638
1.78706
1.81244
1.84017
1.87055
363.042
423.296
484.249
542.263
589.699
615.421
609.556
569.555
501.915
418.353
330.771
248.441
175.955
118.535
79.102
53.435
36.7497
25.8762
18.7612
14.0906
10.9282
8.98766
7.89817
7.33064
7.16008
7.37146
8.07642
9.63473
12.7958
19.6505
38.6167
117.766
600.693
3610.23
2.59572
3.18072
4.43263
7.27345
13.5089
25.4156
45.0638
74.2168
114.104
165.559
229.501
308.599
380.013
2.24498
2.01792
1.86596
1.76395
1.69531
1.64971
1.62017
1.60208
1.59298
1.58966
1.58892
1.59188
1.59703
1.60422
1.61291
1.62299
1.63387
1.64539
1.65815
1.67212
1.68736
1.70398
1.72206
1.74174
1.76317
1.78653
1.81204
1.83991
1.87046
447.451
515.73
584.78
649.296
698.276
717.384
696.945
638.336
552.584
453.951
354.869
262.106
183.64
123.882
82.7617
55.9457
38.4822
27.0817
19.6075
14.6888
11.3462
9.28772
8.1261
7.51249
7.31056
7.50334
8.18745
9.72709
12.8741
19.8153
39.1634
121.997
626.659
3668.77
2.49076
3.01453
4.08693
6.52432
12.0107
22.9074
41.3927
69.3244
107.917
157.79
219.396
293.768
384.906
465.61
2.1795
1.97626
1.83935
1.74699
1.68464
1.64313
1.61628
1.60013
1.5926
1.5895
1.58854
1.59189
1.59702
1.60419
1.61296
1.62248
1.63287
1.64439
1.65716
1.67117
1.68645
1.70311
1.72125
1.741
1.76253
1.78599
1.81163
1.83965
1.87037
542.472
620.395
699.365
771.044
819.45
827.266
787.34
706.964
601.867
488.067
374.778
273.749
192.101
129.786
86.8118
58.7292
40.4049
28.4202
20.5471
15.353
11.8101
9.62014
8.37767
7.71213
7.47468
7.64673
8.30947
9.84309
12.9982
19.9648
39.9343
126.624
655.242
3720.68
2.39762
2.86549
3.78001
5.84396
10.5989
20.4486
37.7079
64.3736
101.714
150.212
209.926
281.204
365.634
469.524
560.786
2.12128
1.93903
1.81552
1.73178
1.67503
1.6372
1.61301
1.59902
1.59217
1.58903
1.5885
1.59188
1.59703
1.60423
1.61249
1.62147
1.63185
1.64338
1.65616
1.67019
1.6855
1.70222
1.72043
1.74025
1.76187
1.78544
1.81122
1.8394
1.87029
649.2
739.585
831.27
910.281
954.039
944.103
879.281
774.337
649.178
516.184
391.694
286.523
201.408
136.299
91.2929
61.815
42.539
29.9065
21.5905
16.0902
12.3247
9.98814
8.65514
7.93103
7.65361
7.80093
8.46551
9.99331
13.1207
20.1894
40.7882
131.94
685.804
3763.91
2.31525
2.73302
3.51768
5.23987
9.29392
18.0609
34.0229
59.3488
95.4317
142.697
200.893
269.758
349.948
444.147
562.497
666.801
2.06949
1.90578
1.79418
1.7181
1.66636
1.63214
1.61088
1.59811
1.59154
1.58899
1.58848
1.59184
1.59717
1.60374
1.61151
1.62046
1.63081
1.64235
1.65512
1.66919
1.68454
1.70131
1.71958
1.73947
1.76119
1.78489
1.81082
1.83916
1.8702
770.028
877.858
985.668
1070.26
1102.48
1066.62
971.266
839.485
688.169
540.017
410.184
300.514
211.634
143.48
96.2477
65.2349
44.9073
31.5566
22.7486
16.908
12.895
10.395
8.96071
8.17089
7.84859
7.99688
8.65643
10.1461
13.2717
20.4442
41.7552
138.351
719.685
3794.42
2.24252
2.61469
3.30102
4.72445
8.11665
15.7684
30.36
54.2467
89.0217
135.137
192.111
259.17
336.121
424.425
528.466
664.928
786.279
2.0234
1.8761
1.77502
1.70577
1.6589
1.62865
1.60934
1.59724
1.59151
1.58898
1.58847
1.59195
1.59684
1.60276
1.61054
1.61944
1.62975
1.6413
1.65407
1.66816
1.68355
1.70037
1.71871
1.73869
1.76053
1.78436
1.81044
1.83892
1.87013
910.334
1043.22
1169.5
1254.63
1265.14
1193.45
1061.77
893.425
721.191
565.985
430.343
315.805
222.847
151.385
101.721
69.022
47.5337
33.3875
24.0331
17.8143
13.5259
10.8441
9.29672
8.43277
8.09996
8.23225
8.85037
10.3108
13.4376
20.7301
43.0568
145.235
758.311
3815.8
2.17832
2.50927
3.11746
4.29526
7.09562
13.6188
26.7502
49.0751
82.4473
127.441
183.421
249.179
323.805
407.649
503.514
618.207
779.23
924.653
1.98238
1.84953
1.75776
1.6951
1.65354
1.62629
1.60814
1.59721
1.59149
1.58895
1.58875
1.59157
1.59603
1.60185
1.60955
1.61841
1.62866
1.64022
1.65299
1.66711
1.68255
1.6994
1.71783
1.73791
1.75988
1.78385
1.81007
1.83869
1.87005
1079.15
1247.09
1392.29
1468.89
1443.26
1322.78
1137.61
939.181
757.104
594.178
452.251
332.466
235.113
160.069
107.757
73.2105
50.4435
35.4169
25.4561
18.817
14.2225
11.3386
9.66468
8.77138
8.40417
8.4709
9.04951
10.4831
13.6172
21.1325
44.3091
154.086
799.056
3821.8
2.12161
2.41581
2.95895
3.94076
6.2376
11.6969
23.2598
43.8565
75.6819
119.52
174.675
239.56
312.632
393.332
483.038
586.51
713.832
909.645
1092.24
1.94578
1.82569
1.74278
1.68725
1.65005
1.62473
1.6081
1.59719
1.59144
1.5893
1.58871
1.59075
1.59533
1.60095
1.60854
1.61737
1.62755
1.63912
1.65189
1.66603
1.68152
1.69843
1.71695
1.73715
1.75925
1.78335
1.8097
1.83847
1.86997
1291.93
1507.98
1671.86
1724.28
1638.11
1433.49
1202.24
988.946
795.973
624.652
475.959
350.554
248.487
169.584
114.399
77.8344
53.662
37.6628
27.03
19.924
14.9898
11.8809
10.1417
9.18193
8.71442
8.71297
9.25211
10.6623
13.8426
21.5068
46.1817
163.997
843.391
3817.9
2.07134
2.3334
2.8198
3.64878
5.52597
10.0425
20.0247
38.6666
68.714
111.289
165.719
230.1
302.295
380.939
466.343
561.398
673.595
817.35
1065.64
1304.94
1.91305
1.80499
1.73152
1.68228
1.64802
1.6247
1.60807
1.59711
1.59193
1.58938
1.5884
1.59009
1.59463
1.60007
1.60751
1.61632
1.62642
1.638
1.65077
1.66493
1.68047
1.69746
1.7161
1.73642
1.75864
1.78286
1.80935
1.83825
1.8699
1580.82
1871.4
2046.68
2042.66
1809.3
1528.3
1272.61
1042.69
837.788
657.409
501.487
370.102
263.012
179.973
121.686
82.9262
57.2138
40.143
28.7666
21.1432
15.8316
12.5846
10.7207
9.60121
9.02872
8.95727
9.45749
10.8601
14.0623
22.0859
47.9502
176.292
889.242
3806.17
2.02662
2.26085
2.69618
3.41132
4.94105
8.64678
17.1289
33.699
61.6029
102.674
156.394
220.575
292.502
370.058
452.613
541.858
642.736
766.573
934.611
1270.46
1604.05
1.88463
1.78921
1.72451
1.67969
1.64801
1.62466
1.60797
1.59781
1.59226
1.5893
1.5884
1.58951
1.5939
1.59922
1.60645
1.61526
1.62528
1.63684
1.64964
1.6638
1.67944
1.69652
1.71528
1.7357
1.75805
1.78239
1.80901
1.83804
1.86983
2053.09
2438.72
2624.53
2324.72
1955.1
1631.03
1348.3
1100.23
882.442
692.388
528.811
391.112
278.707
191.268
129.652
88.5143
61.1213
42.8736
30.677
22.4804
16.924
13.4391
11.3123
10.0257
9.34475
9.2028
9.66931
11.0587
14.3597
22.6247
50.5295
189.568
937.696
3781.69
1.98786
2.19697
2.58593
3.21497
4.46268
7.47944
14.5765
29.101
54.5838
93.6773
146.531
210.74
282.96
360.302
441.298
526.598
619.82
728.711
870.473
1079.47
1576.18
2147.11
1.86261
1.7796
1.72119
1.67971
1.64795
1.62452
1.60895
1.59857
1.59257
1.58961
1.58854
1.58901
1.59314
1.5984
1.60538
1.61417
1.62412
1.63566
1.64849
1.66269
1.67843
1.69561
1.71448
1.73501
1.75747
1.78194
1.80867
1.83783
1.86976
2889.27
3572.74
3098.22
2555.26
2109.02
1739.91
1428.55
1161.18
929.713
729.455
557.849
413.544
295.568
203.482
138.318
94.6208
65.4033
45.8688
32.7696
24.2153
18.2502
14.3124
11.9111
10.4517
9.66036
9.45
9.88177
11.2883
14.6494
23.3881
53.3831
204.782
988.352
3747.36
1.95748
2.1421
2.48785
3.0483
4.07433
6.51449
12.3731
24.9105
47.8654
84.532
136.035
200.322
273.342
351.302
431.886
514.875
602.775
701.821
824.291
997.585
1284.97
2161.43
3304.84
1.84934
1.77545
1.72126
1.67965
1.64776
1.62581
1.61031
1.5996
1.59346
1.59008
1.58873
1.58867
1.59235
1.5976
1.60431
1.61307
1.62296
1.63445
1.64735
1.66161
1.67746
1.69473
1.7137
1.73435
1.75691
1.78149
1.80835
1.83763
1.86972
4972.89
4286.33
3434.03
2779.91
2265.94