# Residuals   
# Time        	p             	Ux            	Uy            	k             	epsilon       
0             	N/A	N/A	N/A	N/A
1e-05         	1.000000e+00	0.000000e+00	1.000000e+00	1.000000e+00	2.023051e-02
2e-05         	3.323285e-02	3.448962e-01	8.631588e-01	2.440253e-01	6.876463e-02
3e-05         	3.264624e-01	3.329942e-01	2.234357e-01	9.571699e-02	1.047014e-01
4e-05         	4.138849e-01	1.506736e-01	8.314548e-02	6.673728e-03	9.746736e-03
5e-05         	3.781469e-01	5.116011e-02	2.343647e-02	5.055936e-03	2.492748e-03
6e-05         	3.547176e-01	2.633722e-02	1.138672e-02	4.277228e-03	2.127700e-03
7e-05         	3.002436e-01	2.444682e-02	1.199148e-02	7.336463e-03	2.102497e-03
8e-05         	2.805775e-01	4.125418e-02	1.942375e-02	3.594145e-01	2.300525e-03
9e-05         	2.747216e-01	2.155243e-02	9.439711e-03	7.916420e-02	2.275022e-03
