/*--------------------------------*- C++ -*----------------------------------*\
  =========                 |
  \\      /  F ield         | OpenFOAM: The Open Source CFD Toolbox
   \\    /   O peration     | Website:  https://openfoam.org
    \\  /    A nd           | Version:  8
     \\/     M anipulation  |
\*---------------------------------------------------------------------------*/
FoamFile
{
    version     2.0;
    format      ascii;
    class       volScalarField;
    location    "0.21";
    object      epsilon;
}
// * * * * * * * * * * * * * * * * * * * * * * * * * * * * * * * * * * * * * //

dimensions      [0 2 -3 0 0 0 0];

internalField   nonuniform List<scalar> 
15677
(
59.7003
18.3535
52.6122
8.08764
25.8887
50.162
4.62722
13.2619
31.5741
50.4817
3.17784
7.72265
17.0788
37.2617
51.5979
2.48949
5.04242
10.0235
20.8056
42.6337
53.6525
2.14571
3.62249
6.4605
12.1575
24.5334
47.6444
55.7176
1.97986
2.8208
4.52362
7.72126
14.2696
28.241
52.0027
57.6516
1.91169
2.35296
3.40097
5.3082
8.91189
16.4156
31.7406
55.6817
59.3511
1.88416
2.08028
2.72279
3.90785
6.01908
10.1005
18.5253
34.9357
58.6989
60.8497
1.87055
1.9394
2.30686
3.05465
4.3561
6.70383
11.267
20.5551
37.7531
61.1709
62.1161
1.86765
1.87831
2.05634
2.52061
3.34679
4.77413
7.35932
12.4096
22.4442
40.2112
63.1605
63.2273
1.86862
1.84885
1.91652
2.18582
2.7117
3.61374
5.16293
7.99621
13.4957
24.1851
42.3024
64.7821
64.1534
1.86953
1.8387
1.85192
1.98254
2.3064
2.88548
3.85657
5.53304
8.59946
14.5248
25.744
44.0865
66.0822
64.9869
1.86976
1.83698
1.82112
1.86771
2.05113
2.41761
3.04181
4.08288
5.87816
9.17357
15.4717
27.1386
45.5728
67.1356
65.713
1.86976
1.83725
1.81049
1.81333
1.89808
2.1172
2.51798
3.18534
4.29025
6.20357
9.70417
16.3439
28.3517
46.8225
67.9946
66.3554
1.86971
1.83752
1.80818
1.78977
1.81537
1.93019
2.1783
2.6097
3.31507
4.48289
6.5018
10.197
17.1219
29.4075
47.8571
68.6929
66.9436
1.86969
1.83763
1.80788
1.78275
1.77568
1.82145
1.96212
2.23475
2.6921
3.43391
4.65725
6.77726
10.6395
17.8176
30.3022
48.7025
69.2901
67.4445
1.86967
1.83765
1.80789
1.78104
1.76143
1.76613
1.83163
1.99286
2.2857
2.7669
3.54025
4.81656
7.02308
11.0395
18.4171
31.0553
49.3973
69.7612
67.9525
1.86966
1.83765
1.80791
1.78072
1.75695
1.74392
1.76033
1.84301
2.02124
2.33192
2.83334
3.63631
4.95719
7.24451
11.3855
18.9348
31.6722
49.938
70.2055
68.3475
1.86966
1.83764
1.8079
1.78069
1.75567
1.7359
1.72948
1.75736
1.85434
2.04737
2.37297
2.89284
3.72032
5.08257
7.43482
11.6871
19.3597
32.1672
50.385
70.5316
68.8207
1.86966
1.83764
1.80788
1.78068
1.75535
1.7332
1.71726
1.718
1.75579
1.86548
2.07083
2.4096
2.94462
3.79442
5.18933
7.6001
11.9337
19.7101
32.5527
50.7024
70.8985
69.1346
1.86966
1.83763
1.80786
1.78067
1.75526
1.73237
1.71263
1.70132
1.70843
1.7557
1.87588
2.09188
2.44152
2.98999
3.85718
5.28116
7.73439
12.1386
19.975
32.8382
50.9728
71.1382
69.6049
1.86966
1.83763
1.80785
1.78064
1.75522
1.73213
1.711
1.69452
1.68722
1.70085
1.75602
1.88548
2.11045
2.46955
3.02852
3.91083
5.35535
7.84499
12.2907
20.1794
33.0406
51.1379
71.4823
69.861
1.86966
1.83762
1.80784
1.78062
1.75518
1.73204
1.71045
1.69192
1.67797
1.67535
1.69458
1.7568
1.89435
2.12703
2.49365
3.06153
3.95437
5.41598
7.92699
12.4087
20.3087
33.1646
51.2826
71.6791
70.3325
1.86967
1.83762
1.80784
1.7806
1.75515
1.73198
1.71025
1.69097
1.67416
1.66375
1.66488
1.68957
1.7583
1.90264
2.1417
2.51474
3.08909
3.99049
5.46161
7.98927
12.4784
20.3946
33.235
51.3683
72.0603
70.5814
1.86967
1.83761
1.80783
1.78059
1.75513
1.73193
1.71015
1.6906
1.67266
1.65872
1.65073
1.65639
1.68597
1.76019
1.91061
2.15529
2.5333
3.11274
4.01865
5.49605
8.0269
12.5258
20.4186
33.2372
51.4185
72.3517
430.217
1.86967
1.83761
1.80783
1.78057
1.75511
1.73189
1.71007
1.69042
1.67206
1.65661
1.64432
1.64019
1.64916
1.68332
1.76318
1.91891
2.16815
2.55025
3.13283
4.04165
5.51961
8.05158
12.5312
20.4079
33.2201
51.5173
88.5863
722.506
1.86967
1.8376
1.80783
1.78056
1.75509
1.73185
1.71002
1.69031
1.67178
1.65571
1.64153
1.63256
1.63059
1.64422
1.68332
1.76748
1.92788
2.18131
2.56656
3.15144
4.06045
5.53633
8.05789
12.5221
20.3781
33.1832
52.3979
121.8
1010.42
1.86968
1.8376
1.80783
1.78055
1.75508
1.73182
1.70997
1.69022
1.67162
1.65529
1.64032
1.62906
1.62166
1.62425
1.64081
1.6847
1.77353
1.93853
2.19562
2.58364
3.16944
4.07716
5.547
8.05533
12.5003
20.3219
33.1901
54.878
157.551
1267.51
1.86968
1.8376
1.80783
1.78054
1.75507
1.7318
1.70993
1.69015
1.67151
1.65505
1.63975
1.62745
1.61751
1.61424
1.6186
1.64129
1.68839
1.78224
1.9516
2.21228
2.60234
3.1885
4.09304
5.55446
8.04884
12.4629
20.2625
33.2601
59.3718
190.564
1507.51
1.86968
1.83759
1.80784
1.78053
1.75507
1.73177
1.7099
1.6901
1.67141
1.65489
1.63943
1.62666
1.61558
1.60936
1.60766
1.61827
1.64385
1.69566
1.79444
1.96828
2.23222
2.62433
3.20983
4.11049
5.56189
8.03744
12.4241
20.2
33.4754
64.0383
222.03
1714.48
1.86968
1.83759
1.80784
1.78052
1.75506
1.73175
1.70988
1.69005
1.67134
1.65476
1.63921
1.62623
1.61462
1.60698
1.60237
1.60625
1.62021
1.64978
1.70739
1.81131
1.98956
2.25703
2.65066
3.23551
4.13087
5.57141
8.02846
12.3837
20.1303
33.8953
68.7784
249.96
1874.74
1.86968
1.83759
1.80784
1.78052
1.75506
1.73173
1.70986
1.69
1.67127
1.65466
1.63904
1.62595
1.61408
1.60578
1.59978
1.60024
1.60799
1.62562
1.66111
1.72459
1.83388
2.01695
2.28773
2.68314
3.26642
4.15673
5.58576
8.02139
12.3441
20.069
34.4098
73.096
271.802
2001.67
1.86969
1.83758
1.80784
1.78051
1.75506
1.73172
1.70985
1.68996
1.67122
1.65457
1.63891
1.62574
1.61372
1.60511
1.59844
1.59727
1.60188
1.61323
1.63645
1.67866
1.74834
1.86365
2.05149
2.32599
2.72266
3.30485
4.18902
5.60643
8.02173
12.3047
20.0138
34.9126
76.426
289.205
2105.79
1.83758
1.86972
1.80785
1.7805
1.75506
1.7317
1.70984
1.68993
1.67118
1.6545
1.63879
1.62557
1.61345
1.60469
1.59768
1.59575
1.59887
1.6071
1.62393
1.65442
1.70345
1.78024
1.90176
2.09493
2.37282
2.77115
3.35129
4.22988
5.63434
8.02523
12.264
19.9575
35.2803
78.982
303.369
2194.39
1.80785
1.83768
1.8698
1.7805
1.75506
1.73169
1.70983
1.68989
1.67115
1.65443
1.63869
1.62543
1.61322
1.60438
1.59718
1.59492
1.59736
1.60414
1.61786
1.6424
1.68025
1.73712
1.82142
1.94994
2.14817
2.42987
2.82918
3.40787
4.27906
5.67019
8.03512
12.2237
19.8948
35.5361
80.9143
315.403
2272.58
1.78049
1.80801
1.83787
1.86987
1.75506
1.73168
1.70982
1.68986
1.67112
1.65436
1.63861
1.6253
1.61303
1.60413
1.5968
1.5944
1.59656
1.60273
1.61508
1.63689
1.66925
1.71571
1.78104
1.87377
2.00925
2.21292
2.49801
2.89865
3.47406
4.33796
5.71889
8.056
12.1923
19.8258
35.6735
82.4328
325.845
2343.32
1.75506
1.7807
1.80833
1.83808
1.86995
1.73166
1.70982
1.68984
1.6711
1.65431
1.63855
1.62519
1.61287
1.60393
1.59649
1.59403
1.59608
1.60205
1.6139
1.63473
1.66479
1.70645
1.76235
1.83741
1.93866
2.08175
2.28991
2.57862
2.97914
3.55154
4.41367
5.78484
8.08841
12.1665
19.7491
35.7481
83.6215
335.293
2408.89
1.73165
1.75532
1.78111
1.80866
1.83828
1.87003
1.70982
1.68981
1.67109
1.65425
1.6385
1.62509
1.61274
1.60375
1.59624
1.59374
1.59575
1.6017
1.6135
1.6342
1.66371
1.70387
1.75598
1.82279
1.90781
2.01858
2.16843
2.38109
2.67174
3.07234
3.64912
4.51194
5.86364
8.13014
12.1503
19.6714
35.7449
84.6168
343.896
2470.16
1.70981
1.73194
1.75584
1.78154
1.809
1.8385
1.87011
1.68979
1.67107
1.6542
1.63846
1.625
1.61263
1.6036
1.59602
1.59351
1.5955
1.60149
1.61341
1.6344
1.66418
1.70438
1.75567
1.82005
1.89875
1.99538
2.11492
2.27174
2.48703
2.77845
3.18882
3.77401
4.62397
5.95345
8.18163
12.1398
19.593
35.7247
85.4418
351.983
2528.33
1.68977
1.71015
1.73253
1.75637
1.78199
1.80934
1.83872
1.87019
1.67106
1.65416
1.63842
1.62491
1.61254
1.60346
1.59583
1.59331
1.5953
1.60135
1.61345
1.63489
1.66541
1.70663
1.75877
1.82339
1.90061
1.99262
2.10095
2.23104
2.39255
2.60966
2.91283
3.33556
3.91313
4.74864
6.05314
8.24134
12.1404
19.5198
35.6809
86.1809
359.53
2583.33
1.67105
1.69012
1.71083
1.73314
1.75692
1.78244
1.8097
1.83895
1.87028
1.65412
1.6384
1.62483
1.61247
1.60334
1.59566
1.59315
1.59514
1.60125
1.61355
1.63546
1.66686
1.70962
1.76368
1.83039
1.90926
2.00145
2.1064
2.22721
2.36648
2.53386
2.76512
3.08424
3.50044
4.06634
4.88411
6.16159
8.30886
12.1452
19.4516
35.6229
86.8249
366.749
2636.02
1.65409
1.67144
1.69084
1.71152
1.73377
1.75749
1.78291
1.81007
1.83918
1.87036
1.63838
1.62476
1.61241
1.60322
1.59553
1.59301
1.595
1.60119
1.61367
1.63604
1.66834
1.71272
1.7693
1.83939
1.9218
2.01756
2.12468
2.24435
2.3755
2.52383
2.71293
2.9654
3.27845
3.68331
4.23253
5.02912
6.27746
8.38286
12.1558
19.3914
35.5592
87.4336
373.549
2685.87
1.63836
1.65446
1.67224
1.69159
1.71224
1.73441
1.75807
1.78339
1.81044
1.83942
1.87045
1.62469
1.61237
1.60311
1.59542
1.59289
1.59489
1.60114
1.61381
1.63659
1.66976
1.71572
1.77489
1.84917
1.93664
2.03809
2.15091
2.27536
2.40777
2.55038
2.72362
2.94137
3.19405
3.49578
3.88266
4.41067
5.18238
6.39953
8.46197
12.1746
19.3382
35.5003
87.9846
380.097
2733.76
1.62463
1.63877
1.65527
1.67306
1.69236
1.71298
1.73508
1.75866
1.78388
1.81083
1.83966
1.87054
1.61234
1.603
1.59533
1.59278
1.5948
1.6011
1.61395
1.63712
1.67111
1.71854
1.78025
1.85877
1.95238
2.06159
2.18245
2.31559
2.45537
2.60231
2.77485
2.98346
3.20066
3.44599
3.73483
4.09828
4.59978
5.3426
6.52628
8.54537
12.1988
19.2933
35.4451
88.523
386.272
2778.88
1.61232
1.62499
1.63963
1.6561
1.67391
1.69315
1.71374
1.73576
1.75927
1.78439
1.81122
1.83992
1.87063
1.60289
1.59527
1.59269
1.59471
1.60108
1.61408
1.63761
1.67237
1.72117
1.78532
1.86793
1.96776
2.0864
2.21803
2.36269
2.51415
2.67211
2.85436
3.06999
3.28346
3.49241
3.72049
3.99116
4.32845
4.79795
5.50803
6.6565
8.63198
12.2278
19.2552
35.398
89.0208
392.232
2822.27
1.6028
1.6127
1.62578
1.64052
1.65695
1.67478
1.69397
1.71452
1.73647
1.7599
1.78491
1.81163
1.84018
1.87073
1.59522
1.5926
1.59463
1.60106
1.61421
1.63807
1.67354
1.72361
1.79007
1.87655
1.98249
2.11082
2.25559
2.41575
2.58232
2.7564
2.95589
3.1903
3.41525
3.62485
3.81602
4.01748
4.26122
4.57037
5.00356
5.67782
6.78898
8.72085
12.2606
19.2246
35.3584
89.5138
397.834
2862.88
1.59521
1.60305
1.61352
1.6266
1.64143
1.65784
1.67567
1.69481
1.71532
1.73719
1.76054
1.78545
1.81204
1.84044
1.87081
1.5925
1.59456
1.60104
1.61432
1.63849
1.67462
1.72585
1.79448
1.88459
1.99647
2.13435
2.29268
2.47231
2.65953
2.85425
3.07737
3.34021
3.58947
3.814
4.00868
4.17075
4.33593
4.54349
4.8211
5.21585
5.85055
6.92273
8.81106
12.2968
19.1999
35.3266
89.9755
403.251
2901.97
1.59241
1.59548
1.60364
1.61436
1.62745
1.64238
1.65876
1.67659
1.69568
1.71614
1.73794
1.7612
1.786
1.81245
1.84069
1.8709
1.59447
1.60101
1.61443
1.63888
1.67561
1.7279
1.79857
1.89206
2.00967
2.15678
2.32867
2.52905
2.74271
2.96621
3.21943
3.52039
3.80565
4.05908
4.27011
4.4361
4.55564
4.67365
4.83637
5.0756
5.43212
6.02482
7.05662
8.9018
12.3353
19.1818
35.3025
90.4341
408.31
2938.29
1.59443
1.59236
1.59604
1.60423
1.61524
1.62834
1.64335
1.65971
1.67753
1.69658
1.71698
1.7387
1.76188
1.78654
1.81285
1.84093
1.87098
1.60098
1.61452
1.63924
1.67651
1.72979
1.80234
1.89897
2.02206
2.17799
2.36335
2.58497
2.82687
3.08868
3.38481
3.73516
4.06965
4.36643
4.60879
4.78879
4.9085
4.96962
5.0285
5.13877
5.3327
5.64999
6.19893
7.18973
8.99233
12.3758
19.1678
35.2841
90.8668
413.216
2973.29
1.601
1.59424
1.59225
1.59661
1.60487
1.61615
1.62927
1.64435
1.66069
1.6785
1.6975
1.71785
1.73949
1.76254
1.78707
1.81323
1.84116
1.87106
1.6146
1.63955
1.67733
1.73151
1.80579
1.90534
2.03363
2.19789
2.39658
2.63945
2.91033
3.21521
3.57027
3.99218
4.39334
4.75255
5.04414
5.25289
5.37721
5.42793
5.41179
5.39849
5.4484
5.59107
5.86813
6.37233
7.32151
9.08206
12.4175
19.1597
35.2734
91.2941
417.758
3005.59
1.61475
1.60057
1.5938
1.5921
1.59726
1.60557
1.61709
1.63025
1.64537
1.66171
1.6795
1.69845
1.71873
1.74027
1.76319
1.78758
1.81361
1.84139
1.87114
1.63982
1.67806
1.73308
1.80895
1.91119
2.04437
2.21649
2.42825
2.69196
2.9924
3.34414
3.76678
4.28932
4.79561
5.24672
5.61462
5.87164
6.01076
6.04436
5.9969
5.88135
5.78171
5.76316
5.84922
6.08389
6.54439
7.45128
9.17046
12.4601
19.1539
35.2657
91.699
422.187
3036.75
1.64018
1.61391
1.59944
1.59329
1.59206
1.59794
1.60633
1.61806
1.63127
1.64643
1.66277
1.68052
1.69943
1.71961
1.74103
1.76382
1.78809
1.81397
1.84162
1.87122
1.67869
1.73448
1.81182
1.91657
2.0543
2.2338
2.45826
2.74212
3.07273
3.47448
3.97034
4.61353
5.28376
5.89608
6.38509
6.72217
6.8902
6.90409
6.79931
6.61759
6.3773
6.17629
6.08114
6.10626
6.29504
6.71369
7.57837
9.25712
12.503
19.1535
35.2658
92.0959
426.253
3061.83
1.67942
1.63873
1.61165
1.59822
1.5929
1.59211
1.59864
1.60716
1.61906
1.63234
1.64751
1.66386
1.68156
1.7004
1.72046
1.74176
1.76444
1.78857
1.81433
1.84184
1.87129
1.73574
1.81442
1.9215
2.06346
2.24988
2.48655
2.78975
3.15109
3.6048
4.17794
4.96179
5.84875
6.73422
7.45274
7.92365
8.14705
8.13884
7.95092
7.64841
7.29072
6.89815
6.58025
6.40061
6.36131
6.50115
6.87919
7.70224
9.34164
12.5458
19.1547
35.2678
92.4708
429.706
3083.02
1.73707
1.67722
1.63467
1.60925
1.59717
1.59261
1.5923
1.59934
1.60808
1.62007
1.63346
1.64862
1.66498
1.6826
1.70134
1.72129
1.74248
1.76504
1.78905
1.81467
1.84205
1.87137
1.81676
1.92599
2.07189
2.26481
2.5131
2.83477
3.2272
3.73346
4.38762
5.33535
6.49423
7.75362
8.88218
9.63536
9.96529
9.94401
9.64254
9.16011
8.59296
8.01467
7.44158
6.99153
6.71995
6.61305
6.70178
7.04014
7.82242
9.42372
12.5884
19.1577
35.2724
92.7872
432.553
3105.94
1.81911
1.73389
1.67072
1.63036
1.60712
1.59622
1.59237
1.59268
1.60004
1.60907
1.62112
1.63462
1.64976
1.6661
1.68361
1.70226
1.7221
1.74318
1.76562
1.78951
1.81501
1.84225
1.87144
1.93008
2.07959
2.27864
2.53793
2.87725
3.30079
3.85908
4.59893
5.73586
7.22213
8.95019
10.6436
11.9457
12.5729
12.5745
12.1385
11.4067
10.529
9.62828
8.78513
8.00436
7.40787
7.03764
6.86036
6.89652
7.196
7.93854
9.50311
12.6302
19.1632
35.2796
93.0523
435.663
3131.06
1.93404
1.81472
1.72391
1.66391
1.62642
1.60516
1.59534
1.59206
1.59325
1.60074
1.61012
1.6222
1.63582
1.6509
1.66718
1.6846
1.70316
1.72289
1.74386
1.76618
1.78995
1.81533
1.84245
1.87147
2.08667
2.29141
2.56109
2.91728
3.37154
3.98081
4.81242
6.16339
8.0272
10.3104
12.7089
14.7842
16.0856
16.3437
15.7764
14.7279
13.419
12.0447
10.7444
9.59546
8.58248
7.82684
7.35222
7.10234
7.08499
7.34634
8.05033
9.57963
12.6712
19.1693
35.2866
93.3484
439.035
3158.4
2.09331
1.9281
1.7998
1.71357
1.65765
1.62272
1.60331
1.59454
1.59175
1.59393
1.60148
1.61124
1.62332
1.63701
1.65202
1.66824
1.68556
1.70402
1.72365
1.74451
1.76673
1.79039
1.81565
1.84255
1.87147
2.30328
2.58263
2.95496
3.43923
4.09832
5.02901
6.61577
8.89875
11.8108
15.042
18.0953
20.3883
21.4151
20.9855
19.565
17.6891
15.6543
13.6871
11.9276
10.4373
9.17131
8.24595
7.66232
7.33817
7.26688
7.4909
8.15761
9.65311
12.7059
19.1753
35.296
93.6707
442.749
3188.55
2.31413
2.08553
1.90612
1.78453
1.70403
1.65171
1.61922
1.6016
1.59381
1.59152
1.59469
1.60228
1.61239
1.62446
1.63818
1.65311
1.66926
1.6865
1.70487
1.7244
1.74516
1.76726
1.79081
1.81581
1.84255
1.87147
2.60277
2.99038
3.50368
4.21173
5.2494
7.08903
9.82354
13.4244
17.5979
21.8175
25.3957
27.6278
28.007
26.503
23.9121
20.9851
18.0799
15.4321
13.1623
11.3014
9.76596
8.66273
7.96666
7.56718
7.44198
7.62955
8.26031
9.71426
12.7358
19.1829
35.3079
94.0357
446.773
3221.39
2.62074
2.30392
2.05347
1.88391
1.77038
1.69493
1.64603
1.61591
1.60002
1.59316
1.59138
1.59552
1.60314
1.61354
1.62559
1.63931
1.65418
1.67026
1.68742
1.70569
1.72513
1.74578
1.76778
1.79102
1.81581
1.84255
1.87147
3.02386
3.5649
4.32148
5.47376
7.57788
10.7876
15.1234
20.3288
25.8769
31.012
34.8595
36.6303
35.8923
32.8703
28.7708
24.5701
20.6594
17.2543
14.4323
12.1785
10.3616
9.07479
8.26405
7.78884
7.6101
7.76201
8.34578
9.76664
12.7692
19.1925
35.324
94.4339
451.223
3257.72
3.05329
2.60755
2.25725
2.02153
1.86332
1.75685
1.68616
1.64059
1.61281
1.59856
1.59262
1.59135
1.59638
1.60407
1.61465
1.62671
1.64041
1.65523
1.67123
1.68831
1.70649
1.72583
1.74638
1.76804
1.79102
1.81581
1.84255
1.87147
3.62331
4.42826
5.70168
8.07624
11.777
16.8814
23.1875
30.1944
37.1182
42.9624
46.683
47.4678
45.0571
40.0328
34.0805
28.3932
23.3559
19.1289
15.7221
13.0595
10.9536
9.47986
8.5535
8.00272
7.77122
7.87116
8.41892
9.82454
12.8067
19.2045
35.3446
94.8879
456.058
3297.25
3.67416
3.03589
2.53951
2.21148
1.99188
1.84358
1.74378
1.67773
1.63541
1.60989
1.59722
1.5922
1.59145
1.59723
1.60503
1.61574
1.62782
1.64148
1.65626
1.67218
1.68918
1.70726
1.72652
1.74668
1.76804
1.79102
1.81581
1.84255
1.87147
4.53279
5.93047
8.57787
12.7783
18.6729
26.1285
34.6913
43.5851
51.7475
57.9415
60.9917
60.1488
55.4414
47.9103
39.7701
32.4012
26.133
21.0326
17.0177
13.9366
11.5378
9.87601
8.83414
8.20848
7.90511
7.96404
8.49968
9.88867
12.8487
19.2195
35.3715
95.3844
461.439
3341.11
4.62491
3.65166
2.93512
2.47389
2.16898
1.96342
1.82448
1.73116
1.66963
1.63046
1.60718
1.59603
1.59189
1.59172
1.59802
1.60603
1.61679
1.62891
1.64252
1.65726
1.6731
1.69003
1.70802
1.72686
1.74668
1.76804
1.79102
1.81581
1.84255
1.87143
6.15769
9.07859
13.7794
20.4739
29.1088
39.2924
50.2841
61.0077
70.1125
76.1348
77.8265
74.6131
66.941
56.402
45.762
36.541
28.9567
22.9448
18.3068
14.8024
12.1105
10.2616
9.10522
8.37987
8.01965
8.06608
8.58894
9.95984
12.896
19.2382
35.4053
95.9375
467.302
3388.72
4.59495
6.3587
3.49726
2.84024
2.41295
2.12818
1.93588
1.80602
1.71899
1.66187
1.62577
1.6047
1.59497
1.59167
1.59223
1.59878
1.60705
1.61782
1.62998
1.64353
1.65824
1.67399
1.69085
1.70839
1.72686
1.74668
1.76804
1.79102
1.81581
1.84245
1.87136
9.57404
14.7698
22.2631
32.0887
43.9284
57.0955
70.5397
82.8741
92.4573
97.6241
97.1368
90.7335
79.4149
65.3921
51.9757
40.7617
31.7966
24.8472
19.5785
15.6512
12.6688
10.6351
9.33179
8.52671
8.14613
8.17837
8.68773
10.039
12.9494
19.2614
35.4485
96.5298
473.871
3441.69
4.34085
6.33012
10.0119
3.35695
2.75227
2.35448
2.08871
1.90923
1.78819
1.7073
1.65445
1.62129
1.60247
1.59405
1.59136
1.59288
1.59953
1.60807
1.61882
1.63104
1.64453
1.65919
1.67487
1.69126
1.70839
1.72686
1.74668
1.76804
1.79102
1.81565
1.84225
1.87129
15.7392
24.0222
35.0337
48.5372
63.9124
80.1592
95.9147
109.476
118.907
122.379
118.779
108.323
92.6926
74.7564
58.3323
45.0164
34.6253
26.7241
20.8243
16.4782
13.21
10.9479
9.52632
8.68915
8.28601
8.30216
8.79717
10.1271
13.0099
19.2902
35.5016
97.1978
481.04
3498.96
4.11798
5.88206
10.0028
16.5971
3.22816
2.66793
2.29797
2.05052
1.88348
1.77102
1.69609
1.64738
1.61711
1.60049
1.59328
1.59113
1.59359
1.60027
1.60909
1.61982
1.63207
1.64549
1.66012
1.67529
1.69126
1.70838
1.72686
1.74668
1.76804
1.7908
1.81533
1.84204
1.87122
25.7346
37.9154
53.0673
70.6441
89.7096
108.961
126.726
140.971
149.458
150.251
142.521
127.143
106.585
84.3694
64.757
49.2624
37.419
28.5629
22.0371
17.2794
13.6635
11.2168
9.74196
8.86915
8.44096
8.43887
8.9186
10.2254
13.0786
19.3258
35.5681
97.9171
489.14
3562.88
3.91747
5.49122
9.18715
16.652
27.2587
3.10541
2.58658
2.24338
2.01365
1.85869
1.75453
1.68538
1.64072
1.61335
1.59882
1.59264
1.591
1.59434
1.60104
1.61009
1.6208
1.63307
1.64645
1.66058
1.67529
1.69126
1.70838
1.72686
1.74668
1.76778
1.79038
1.815
1.84183
1.87114
40.7088
57.4786
77.2189
99.0654
121.791
143.814
163.149
177.387
183.975
180.98
168.057
146.922
120.894
94.11
71.1811
53.4622
40.1584
30.3531
23.2114
17.9501
14.0534
11.5153
9.98138
9.06895
8.61288
8.59014
9.0535
10.3354
13.1567
19.3696
35.6493
98.741
497.98
3631.5
3.72987
5.14037
8.45907
15.2856
27.4773
43.2032
2.98751
2.50814
2.19075
1.97816
1.83488
1.73877
1.67527
1.63467
1.61008
1.59738
1.59214
1.59098
1.59508
1.60182
1.61106
1.62176
1.63407
1.64691
1.66058
1.67528
1.69126
1.70839
1.72686
1.74638
1.76726
1.78994
1.81466
1.84161
1.87106
61.7361
83.5852
108.134
134.24
160.435
184.879
205.224
218.614
222.195
214.202
195.017
167.365
135.427
103.865
77.5434
57.5846
42.8273
32.0866
24.1938
18.5263
14.4859
11.8469
10.2476
9.29109
8.80395
8.75786
9.20361
10.4586
13.2461
19.4236
35.7497
99.6349
508.079
3708.39
3.55272
4.81478
7.79736
14.0201
25.3841
43.7278
65.5404
2.87426
2.4327
2.14016
1.9441
1.8121
1.72387
1.66602
1.62929
1.60721
1.59615
1.59177
1.59106
1.59582
1.60262
1.61202
1.62273
1.63456
1.64689
1.66058
1.67528
1.69126
1.70839
1.72651
1.74577
1.76672
1.78949
1.81432
1.84139
1.87098
89.6987
116.856
146.197
176.38
205.752
232.189
252.873
264.413
263.725
249.459
222.994
188.177
150.001
113.533
83.7924
61.6038
45.413
33.5371
25.0375
19.1651
14.9664
12.2159
10.5441
9.53848
9.01666
8.94421
9.37094
10.597
13.3483
19.4897
35.8723
100.677
519.047
3790.09
3.3853
4.5105
7.17988
12.8339
23.4111
40.7309
66.5473
95.1511
2.76567
2.3604
2.09171
1.91156
1.79057
1.71021
1.65775
1.62451
1.6047
1.59512
1.59152
1.59126
1.59653
1.60345
1.613
1.6232
1.63454
1.64689
1.66058
1.67529
1.69126
1.70801
1.72582
1.74514
1.76616
1.78903
1.81396
1.84116
1.8709
125.18
157.602
191.527
225.509
257.73
285.678
305.906
314.418
308.058
286.227
251.564
209.073
164.447
123.029
89.8855
65.4986
47.5771
34.7826
25.9725
19.8741
15.5007
12.627
10.8748
9.81444
9.25387
9.1517
9.55774
10.7526
13.466
19.5712
36.0226
101.819
531.786
3897.67
3.22722
4.22695
6.60012
11.7061
21.5236
37.8786
62.4806
96.8261
132.57
2.66182
2.2914
2.04551
1.88083
1.77082
1.69794
1.65035
1.62027
1.60253
1.59425
1.59136
1.59162
1.59723
1.60434
1.61346
1.62316
1.63455
1.64689
1.66058
1.67529
1.69085
1.70725
1.72511
1.74449
1.7656
1.78855
1.8136
1.84092
1.87081
168.408
205.831
244.027
281.526
316.283
345.212
364.033
368.131
354.581
323.94
280.308
229.793
178.626
132.281
95.7877
68.7585
49.4358
36.1631
27.0098
20.6619
16.0955
13.0855
11.244
10.1227
9.51886
9.38324
9.76682
10.9283
13.6013
19.6708
36.2073
103.166
547.874
4029.12
3.07808
3.96426
6.05833
10.6303
19.6923
35.1124
58.6042
91.5332
135.072
177.923
2.5629
2.22584
2.00194
1.85268
1.75308
1.68694
1.64372
1.61648
1.60069
1.59352
1.59116
1.5921
1.59799
1.60475
1.6134
1.62316
1.63455
1.64689
1.66058
1.67486
1.69001
1.70646
1.72438
1.74383
1.76501
1.78807
1.81322
1.84068
1.87072
219.261
261.299
303.471
344.286
381.311
410.614
426.858
424.933
402.608
362.022
308.835
250.111
192.419
141.231
100.724
71.5579
51.4959
37.6945
28.1618
21.5378
16.7581
13.5973
11.6568
10.4676
9.81534
9.64217
10.0008
11.1263
13.758
19.7934
36.4324
104.953
569.145
4163.25
2.93713
3.72302
5.55624
9.61015
17.9064
32.3904
54.8162
86.521
128.391
181.341
230.94
2.46919
2.16425
1.96211
1.82741
1.73715
1.67707
1.63779
1.6131
1.59911
1.5929
1.59101
1.59277
1.5983
1.60468
1.6134
1.62316
1.63454
1.64691
1.66012
1.67398
1.68916
1.70566
1.72363
1.74315
1.76442
1.78757
1.81284
1.84043
1.87063
277.335
323.628
369.606
413.68
452.762
481.684
493.884
484.093
451.402
399.913
336.802
269.841
205.733
148.702
104.96
74.6595
53.7812
39.3951
29.4422
22.5126
17.4967
14.169
12.1186
10.854
10.1475
9.93232
10.2645
11.3522
13.94
19.9433
36.7633
107.314
592.425
4298.74
2.80386
3.50563
5.09477
8.65492
16.1671
29.6931
51.0565
81.6171
122.158
173.074
235.249
291.034
2.38158
2.10814
1.92644
1.80474
1.72285
1.66821
1.63249
1.61011
1.59775
1.59242
1.59113
1.59306
1.59815
1.60469
1.6134
1.62316
1.63456
1.64644
1.65917
1.67307
1.68828
1.70484
1.72286
1.74246
1.76381
1.78706
1.81244
1.84018
1.87054
342.083
392.43
442.294
489.81
530.747
558.233
564.506
544.78
500.217
437.113
363.926
288.836
216.817
155.103
109.648
78.0983
56.3184
41.2849
30.8663
23.598
18.3206
14.8079
12.6357
11.287
10.5201
10.2578
10.5586
11.6098
14.1527
20.1621
37.2349
110.106
617.958
4434.15
2.67925
3.30776
4.6735
7.76715
14.482
27.0176
47.2893
76.7355
116.094
165.542
225.125
296.061
357.451
2.3022
2.05803
1.8945
1.7844
1.71001
1.66027
1.62776
1.60748
1.59662
1.59229
1.59105
1.59293
1.59814
1.60469
1.6134
1.6232
1.63406
1.64548
1.65821
1.67215
1.68739
1.70399
1.72207
1.74174
1.76318
1.78653
1.81204
1.83992
1.87045
412.966
467.486
521.705
573.102
615.583
640.058
637.974
606.086
548.353
473.197
389.978
304.598
226.291
162.174
114.838
81.9131
59.1368
43.3862
32.4511
24.8071
19.2397
15.5221
13.2148
11.7726
10.9383
10.6245
10.8877
11.9037
14.4471
20.4783
37.8332
113.277
645.754
4568.57
2.56632
3.12766
4.29414
6.94851
12.8683
24.3725
43.5
71.8158
110.08
158.307
216.186
283.687
362.853
429.462
2.23175
2.01329
1.8659
1.76614
1.69849
1.65317
1.62353
1.60522
1.59601
1.59205
1.59074
1.59297
1.59814
1.60468
1.61346
1.62273
1.63306
1.6445
1.65723
1.6712
1.68647
1.70312
1.72127
1.74101
1.76253
1.78599
1.81162
1.83966
1.87036
489.637
548.931
608.439
664.341
707.708
726.813
713.369
667.101
595.191
507.823
411.529
318.036
236.729
169.985
120.586
86.1457
62.2687
45.7238
34.2153
26.1542
20.2649
16.3202
13.8629
12.317
11.4078
11.0376
11.2573
12.3005
14.8458
20.8672
38.5548
116.992
676.323
4700.35
2.46621
2.96709
3.95827
6.205
11.3444
21.7753
39.6891
66.8217
104.021
151.214
207.774
273.169
347.652
434.744
506.577
2.16922
1.97334
1.8403
1.74978
1.68816
1.64677
1.61982
1.60375
1.59548
1.59167
1.59076
1.59297
1.59815
1.60475
1.61299
1.62174
1.63204
1.6435
1.65622
1.67023
1.68553
1.70223
1.72044
1.74026
1.76187
1.78544
1.81121
1.83941
1.87027
572.185
637.52
703.815
764.851
807.601
817.911
789.651
726.971
640.223
536.411
429.857
332.792
248.218
178.607
126.948
90.8419
65.7495
48.3245
36.1795
27.6547
21.4081
17.2114
14.588
12.9269
11.9347
11.5023
11.7502
12.8164
15.3026
21.337
39.451
121.259
709.553
4828.38
2.37771
2.82506
3.67154
5.54547
9.92952
19.2493
35.8687
61.7343
97.8497
144.123
199.69
263.543
335.289
415.872
511.149
588.832
2.11368
1.93767
1.81738
1.73511
1.67886
1.64112
1.61719
1.60269
1.59496
1.59171
1.59076
1.59292
1.5983
1.60433
1.61201
1.62077
1.631
1.64248
1.65519
1.66923
1.68457
1.70132
1.71959
1.73948
1.7612
1.7849
1.81082
1.83917
1.87019
661.479
735.03
810.247
876.562
915.701
912.535
865.779
784.948
677.433
560.682
449.919
348.97
260.849
188.116
133.987
96.0504
69.617
51.2174
38.3656
29.3255
22.6816
18.2054
15.3977
13.6092
12.5247
12.1217
12.3799
13.3837
15.8235
21.9047
40.5457
126.234
746.257
4950.7
2.29962
2.69851
3.43548
4.98334
8.65454
16.8215
32.0611
56.5477
91.5147
136.927
191.743
254.558
324.349
401.277
487.381
592.067
677.219
2.06428
1.90584
1.79687
1.7219
1.6706
1.63696
1.61546
1.60196
1.59504
1.59171
1.59074
1.59306
1.59799
1.60343
1.61104
1.61978
1.62994
1.64144
1.65415
1.6682
1.68359
1.70038
1.71873
1.7387
1.76053
1.78437
1.81043
1.83894
1.87011
759.638
844.933
931.613
1002.05
1032.23
1009.92
940.753
833.148
709.029
587.19
471.831
366.672
274.709
198.589
141.765
101.822
73.9113
54.4334
40.7973
31.184
24.0986
19.312
16.3002
14.3699
13.3074
12.9056
13.0599
14.0042
16.4135
22.5896
41.8907
132.021
786.175
5066.27
2.23074
2.58582
3.23687
4.51556
7.54978
14.5356
28.2983
51.2684
84.9758
129.533
183.781
245.961
314.518
388.837
470.048
561.665
678.666
774.42
2.02035
1.87743
1.77843
1.71017
1.66434
1.63433
1.6145
1.60207
1.59503
1.59167
1.59105
1.59277
1.59721
1.6026
1.61005
1.61879
1.62887
1.64037
1.65308
1.66715
1.68258
1.69942
1.71784
1.73792
1.75988
1.78386
1.81005
1.83871
1.87002
871.058
973.35
1074.06
1144.08
1158.36
1109.01
1004.03
874.23
743.539
616.065
495.698
385.988
289.881
210.097
150.345
108.209
78.6739
58.0048
43.4988
33.2486
25.6722
20.5412
17.3024
15.3741
14.2888
13.7411
13.7887
14.6767
17.0812
23.407
43.549
138.761
830.502
5173.08
2.16998
2.48585
3.06642
4.1296
6.62023
12.4844
24.6481
45.9187
78.204
121.851
175.662
237.553
305.463
378.153
455.826
541.02
639.073
774.293
886.109
1.98127
1.85199
1.76205
1.70113
1.66047
1.63306
1.61465
1.60207
1.59496
1.59205
1.59113
1.59209
1.59651
1.60179
1.60905
1.61778
1.62778
1.63927
1.65199
1.66608
1.68156
1.69845
1.71697
1.73717
1.75925
1.78337
1.80969
1.83849
1.86995
1003.9
1131.43
1245.25
1311
1294.17
1194.83
1058.47
919.285
781.137
647.422
521.605
406.994
306.438
222.711
159.788
115.262
83.9464
61.9641
46.495
35.5375
27.4158
21.9018
18.6194
16.6228
15.3238
14.6221
14.562
15.4032
17.8299
24.3896
45.5659
146.727
878.759
5270.52
2.1163
2.39763
2.91756
3.81224
5.84825
10.7116
21.2539
40.5762
71.1867
113.795
167.237
229.142
296.94
368.786
444.213
524.649
614.545
721.603
886.128
1024.6
1.94638
1.82942
1.74921
1.69565
1.65881
1.63328
1.61465
1.60196
1.59548
1.59229
1.59101
1.59161
1.5958
1.60101
1.60803
1.61675
1.62667
1.63815
1.65088
1.66497
1.68051
1.69748
1.71612
1.73644
1.75864
1.78289
1.80933
1.83828
1.86987
1174.74
1336.02
1473.72
1508.02
1415.76
1269.68
1118.81
968.647
822.004
681.364
549.62
429.747
324.435
236.484
170.148
123.029
89.7686
66.343
49.81
38.0686
29.3407
23.6835
20.2466
17.9288
16.4031
15.5407
15.376
16.1782
18.6722
25.5453
48.0595
156.018
932.568
5356.86
2.06866
2.32008
2.78582
3.55397
5.21367
9.20829
18.2074
35.4423
63.9834
105.287
158.348
220.522
288.708
360.443
434.613
511.957
595.604
692.581
814.854
1031.44
1214.42
1.91549
1.81156
1.74152
1.69354
1.65911
1.63328
1.6145
1.6027
1.59602
1.59243
1.59116
1.59126
1.59506
1.60025
1.60701
1.6157
1.62556
1.63699
1.64976
1.66386
1.67948
1.69655
1.71529
1.73574
1.75805
1.78242
1.80898
1.83807
1.86979
1419.18
1658.18
1775.69
1688.23
1523.2
1353.95
1185.94
1022.84
866.385
718.003
579.793
454.276
343.904
251.46
181.467
131.551
96.1762
71.1705
53.4662
40.8571
31.8551
25.8742
21.9381
19.2798
17.5159
16.4894
16.2246
17.0051
19.6054
26.9251
51.0448
167.185
991.174
5432.45
2.02666
2.25189
2.66864
3.34164
4.69471
7.95225
15.5151
30.6736
56.8356
96.3304
148.83
211.459
280.512
352.833
426.676
502.13
581.61
670.637
780.241
931.81
1256.98
1526.06
1.89075
1.80106
1.73881
1.69395
1.65911
1.63306
1.61547
1.60377
1.59664
1.59292
1.59136
1.59106
1.59431
1.5995
1.606
1.61463
1.62444
1.63581
1.64862
1.66275
1.67848
1.69565
1.71449
1.73505
1.75747
1.78197
1.80865
1.83787
1.86972
1867.41
2111.38
2043.78
1847.95
1647.15
1450.17
1261.69
1082.77
914.703
757.497
612.17
480.592
364.855
267.654
193.773
140.859
103.198
76.471
57.4815
44.4905
34.935
28.1419
23.6782
20.6623
18.6517
17.4596
17.1045
17.8813
20.6518
28.5239
54.7143
180.217
1056.51
5496.1
1.99278
2.1924
2.5644
3.16276
4.27323
6.91258
13.1791
26.3134
49.9626
87.1591
138.584
201.689
272.058
345.668
420.056
494.732
571.493
655.019
754.916
889.724
1105.44
1712.16
2187.35
1.87629
1.79769
1.73935
1.69395
1.65881
1.63433
1.61723
1.60526
1.59779
1.59354
1.59153
1.59098
1.59357
1.59876
1.60501
1.61352
1.62332
1.63462
1.64749
1.66169
1.6775
1.69478
1.71371
1.73439
1.75691
1.78153
1.80832
1.83767
1.86969
2552.75