/*--------------------------------*- C++ -*----------------------------------*\
  =========                 |
  \\      /  F ield         | OpenFOAM: The Open Source CFD Toolbox
   \\    /   O peration     | Website:  https://openfoam.org
    \\  /    A nd           | Version:  8
     \\/     M anipulation  |
\*---------------------------------------------------------------------------*/
FoamFile
{
    version     2.0;
    format      ascii;
    class       volScalarField;
    location    "1200";
    object      p;
}
// * * * * * * * * * * * * * * * * * * * * * * * * * * * * * * * * * * * * * //

dimensions      [0 2 -2 0 0 0 0];

internalField   nonuniform List<scalar> 
15677
(
84.7134
81.6987
81.6767
81.9024
81.8661
81.8043
81.7633
81.7252
81.6847
81.6428
81.5998
81.5562
81.5125
81.4694
81.4314
81.3999
81.3728
81.3496
81.3295
81.3123
81.2975
81.2852
81.2755
81.2678
81.2616
81.2566
81.2525
81.2491
81.2463
81.2439
81.2419
81.2401
81.2387
81.2374
81.2363
81.7886
80.8302
81.3485
81.402
81.3449
81.344
81.3508
81.3518
81.351
81.3497
81.3473
81.3432
81.3367
81.3277
81.3172
81.3067
81.2962
81.2862
81.2767
81.2681
81.2602
81.2534
81.2479
81.2435
81.2399
81.2369
81.2345
81.2324
81.2307
81.2293
81.2281
81.227
81.2261
81.2253
81.2246
81.2511
81.0645
81.2662
81.1938
81.1801
81.1922
81.1947
81.1946
81.195
81.1955
81.1959
81.1962
81.1963
81.196
81.1953
81.1945
81.1935
81.1926
81.1917
81.191
81.1905
81.1902
81.1901
81.1901
81.1903
81.1905
81.1908
81.1911
81.1914
81.1917
81.192
81.1922
81.1924
81.1926
81.1927
81.1016
81.0836
81.1247
81.085
81.0975
81.1012
81.0992
81.0985
81.0982
81.098
81.0981
81.0987
81.0999
81.1018
81.1044
81.1073
81.1106
81.1143
81.1184
81.1228
81.1275
81.1322
81.1367
81.1408
81.1446
81.1479
81.151
81.1537
81.1561
81.1582
81.16
81.1617
81.1631
81.1643
81.1653
80.9595
80.9662
80.9692
80.9613
80.9721
80.9723
80.9732
80.9751
80.9771
80.9796
80.9829
80.9873
80.993
81.0003
81.0085
81.017
81.0259
81.0353
81.0451
81.0552
81.0657
81.0758
81.0851
81.0935
81.1011
81.1078
81.1137
81.119
81.1237
81.1278
81.1315
81.1346
81.1374
81.1399
81.1419
80.8393
80.8455
80.8448
80.8466
80.8516
80.8524
80.8546
80.8572
80.86
80.8637
80.8686
80.8751
80.8839
80.8952
80.9084
80.9223
80.937
80.9525
80.9687
80.9855
81.0026
81.0193
81.0345
81.0482
81.0604
81.0713
81.0809
81.0895
81.097
81.1037
81.1096
81.1148
81.1193
81.1233
81.1266
80.7166
80.7205
80.7215
80.7245
80.727
80.729
80.7316
80.7343
80.7377
80.7423
80.7486
80.7572
80.7689
80.7844
80.8028
80.8225
80.8437
80.8662
80.8898
80.9143
80.9395
80.9641
80.9865
81.0067
81.0247
81.0408
81.0551
81.0678
81.079
81.0889
81.0976
81.1053
81.1121
81.1181
81.123
80.5726
80.5751
80.5775
80.5801
80.5823
80.5851
80.588
80.5914
80.5958
80.6018
80.6101
80.6215
80.6372
80.6583
80.6835
80.7107
80.7401
80.7715
80.8045
80.8389
80.8743
80.9088
80.9405
80.9689
80.9944
81.0172
81.0374
81.0553
81.0712
81.0853
81.0977
81.1086
81.1183
81.1269
81.1339
80.4007
80.4025
80.4052
80.4079
80.4104
80.4137
80.4172
80.4215
80.4272
80.4351
80.446
80.4613
80.4822
80.5104
80.5443
80.5811
80.621
80.6637
80.7088
80.7558
80.8043
80.8518
80.8952
80.9344
80.9695
81.0008
81.0286
81.0534
81.0753
81.0947
81.1119
81.1271
81.1405
81.1524
81.1622
80.194
80.1955
80.1982
80.2012
80.2042
80.208
80.2123
80.2178
80.2253
80.2356
80.25
80.2699
80.2974
80.3347
80.3797
80.4285
80.4818
80.5389
80.5992
80.6623
80.7275
80.7913
80.8498
80.9026
80.9499
80.9922
81.0299
81.0633
81.093
81.1193
81.1425
81.1632
81.1814
81.1976
81.2109
79.9448
79.9461
79.9489
79.9523
79.9558
79.9603
79.9656
79.9727
79.9823
79.9956
80.0143
80.0402
80.076
80.1246
80.1833
80.2472
80.3171
80.3922
80.4717
80.5549
80.641
80.7254
80.8028
80.8728
80.9357
80.9918
81.0419
81.0864
81.1259
81.1609
81.1919
81.2194
81.2438
81.2654
81.2831
79.6457
79.6468
79.6495
79.6533
79.6575
79.6628
79.6694
79.6782
79.6904
79.7074
79.7313
79.7646
79.8105
79.8729
79.9484
80.0309
80.1213
80.2185
80.3216
80.4297
80.5417
80.6516
80.7527
80.8441
80.9262
80.9997
81.0652
81.1235
81.1753
81.2213
81.262
81.2981
81.3303
81.3587
81.382
79.2884
79.2891
79.2917
79.2961
79.301
79.3074
79.3154
79.3263
79.3416
79.3631
79.3932
79.4353
79.4933
79.5723
79.6682
79.7731
79.8881
80.0122
80.144
80.2823
80.4259
80.5671
80.697
80.8147
80.9206
81.0154
81.1001
81.1754
81.2424
81.3019
81.3547
81.4015
81.4432
81.4802
81.5103
78.8643
78.8647
78.8673
78.8722
78.8781
78.8857
78.8955
78.9089
78.9278
78.9545
78.992
79.0444
79.1168
79.2154
79.3353
79.4667
79.6111
79.7671
79.9331
80.1078
80.2893
80.4681
80.633
80.7825
80.9172
81.038
81.1459
81.242
81.3276
81.4037
81.4712
81.5312
81.5846
81.6321
81.6705
78.366
78.3662
78.3689
78.3743
78.3814
78.3904
78.4022
78.4185
78.4415
78.4742
78.5202
78.5845
78.6734
78.7947
78.9425
79.1047
79.2834
79.4767
79.683
79.9004
80.1268
80.3503
80.5567
80.7443
80.9135
81.0654
81.2013
81.3226
81.4306
81.5267
81.6121
81.688
81.7557
81.8158
81.8643
77.7871
77.7871
77.7898
77.7958
77.8041
77.8148
77.8288
77.8482
77.8758
77.9151
77.9706
78.0483
78.1558
78.3028
78.4823
78.6797
78.8976
79.134
79.3868
79.6537
79.9325
80.2082
80.4635
80.6959
80.9059
81.0948
81.264
81.4152
81.55
81.67
81.7768
81.8718
81.9566
82.032
82.0924
77.1216
77.1214
77.1241
77.1307
77.1403
77.1528
77.1691
77.1919
77.2244
77.2708
77.3367
77.4291
77.5573
77.7328
77.9476
78.1844
78.4465
78.7316
79.0372
79.3607
79.6996
80.0355
80.3474
80.6319
80.8896
81.1217
81.3301
81.5165
81.6829
81.8313
81.9634
82.0811
82.1863
82.2798
82.3542
76.3646
76.3641
76.3668
76.374
76.3849
76.3992
76.418
76.4442
76.4818
76.5359
76.6129
76.7211
76.8714
77.0779
77.3314
77.6117
77.9227
78.2619
78.6264
79.0135
79.4202
79.8246
80.2012
80.5455
80.8581
81.1404
81.3941
81.6215
81.8249
82.0065
82.1684
82.3127
82.4419
82.5567
82.6476
75.5122
75.5114
75.5141
75.5219
75.5341
75.5502
75.5715
75.6012
75.6441
75.706
75.7944
75.9191
76.093
76.3326
76.6275
76.9546
77.3186
77.7168
78.1462
78.6036
79.0857
79.5668
80.0162
80.4283
80.8035
81.143
81.4489
81.7236
81.9697
82.1897
82.3861
82.5615
82.7187
82.8584
82.9682
74.5622
74.561
74.5637
74.5721
74.5856
74.6035
74.6272
74.6602
74.7082
74.7779
74.8779
75.0196
75.2178
75.4918
75.8301
76.2066
76.627
77.0885
77.5878
78.1217
78.6864
79.2522
79.7824
80.2704
80.7158
81.12
81.4851
81.8136
82.1085
82.3727
82.6088
82.82
83.0097
83.178
83.3093
73.5141
73.5125
73.5152
73.5241
73.5387
73.5583
73.5841
73.6202
73.673
73.7503
73.8617
74.0203
74.2429
74.5516
74.9346
75.3622
75.8414
76.3694
76.9429
77.5584
78.2121
78.8698
79.4887
80.0601
80.5836
81.06
81.4914
81.8806
82.2307
82.5448
82.8263
83.0783
83.3051
83.5062
83.6617
72.3688
72.3669
72.3695
72.3788
72.3944
72.4154
72.443
72.4818
72.539
72.6232
72.7454
72.9202
73.1666
73.5098
73.9374
74.4166
74.9559
75.5525
76.203
76.9041
77.6521
78.4081
79.1224
79.7847
80.3935
80.9493
81.4542
81.9109
82.3226
82.693
83.0254
83.3236
83.5926
83.8308
84.013
71.129
71.1267
71.1292
71.1388
71.1553
71.1773
71.2063
71.2473
71.3081
71.3984
71.5304
71.7201
71.989
72.3653
72.8364
73.3666
73.9657
74.6313
75.3603
76.1495
76.9955
77.8547
78.6704
79.4298
80.1307
80.7729
81.358
81.8889
82.3688
82.8014
83.1905
83.5403
83.8567
84.1364
84.3477
69.799
69.7964
69.7987
69.8085
69.8256
69.8483
69.8782
69.9206
69.984
70.0792
70.2195
70.4226
70.7119
71.1188
71.6309
72.2099
72.8672
73.6006
74.4077
75.2856
76.2315
77.1973
78.1187
78.9805
79.7791
80.5137
81.1854
81.7966
82.3508
82.8517
83.3031
83.71
84.0789
84.4045
84.6467
68.3849
68.3818
68.3839
68.3938
68.4111
68.4342
68.4643
68.5073
68.5722
68.6709
68.8177
69.0318
69.3386
69.7727
70.3221
70.9463
71.6584
72.4567
73.3394
74.3046
75.3502
76.4237
77.4534
78.4211
79.322
80.154
80.9176
81.6148
82.2488
82.8234
83.3425
83.8115
84.2382
84.6136
84.8877
66.8937
66.8903
66.892
66.9018
66.9191
66.942
66.9717
67.0142
67.0794
67.1799
67.3311
67.5534
67.8743
68.331
68.9126
69.5771
70.3388
71.1971
72.151
73.1998
74.3424
75.5225
76.6609
77.7363
78.7421
79.675
80.5345
81.3221
82.0406
82.6936
83.2851
83.8209
84.3101
84.739
85.0449
65.3341
65.3303
65.3317
65.3411
65.3581
65.3803
65.4087
65.4498
65.5139
65.6143
65.7674
65.9946
66.3254
66.7994
67.4071
68.1054
68.91
69.8214
70.84
71.9663
73.2007
74.4837
75.7285
76.911
78.0224
79.058
80.016
80.8971
81.7036
82.4388
83.1064
83.7128
84.2686
84.7538
85.0893
63.7153
63.7112
63.7121
63.721
63.7373
63.7582
63.7846
63.8231
63.8845
63.9829
64.1351
64.3639
64.6997
65.1849
65.8116
66.5359
67.375
68.3308
69.4055
70.6007
71.9189
73.298
74.6444
75.9308
77.1463
78.2841
79.3412
80.3171
81.2133
82.0329
82.7791
83.4589
84.0848
84.628
84.9885
62.0479
62.0434
62.0439
62.0521
62.0673
62.0863
62.1099
62.1448
62.202
62.2962
62.4448
62.6711
63.007
63.4968
64.1343
64.8757
65.7396
66.7297
67.8495
69.1027
70.494
71.9597
73.4003
74.7849
76.1002
77.3373
78.4916
79.5613
80.5473
81.4518
82.2773
83.0314
83.7291
84.3297
84.7048
60.3412
60.3363
60.3362
60.3434
60.3571
60.3737
60.3936
60.4237
60.4751
60.563
60.7051
60.925
61.2557
61.743
62.3823
63.1309
64.0088
65.0211
66.1734
67.4714
68.9222
70.4616
71.9847
73.4576
74.8646
76.1951
77.4425
78.6033
79.6768
80.6641
81.567
82.3941
83.1636
83.819
84.1915
81.2351
81.2336
81.2322
81.2309
81.2296
81.2284
81.2273
81.2262
81.2252
81.2243
81.2234
81.2226
81.222
81.2214
81.2209
81.2205
81.2202
81.2199
81.2197
81.2195
81.2194
81.2193
81.2238
81.2231
81.2223
81.2216
81.221
81.2203
81.2198
81.2192
81.2187
81.2182
81.2178
81.2175
81.2172
81.2169
81.2167
81.2165
81.2164
81.2163
81.2162
81.2162
81.2162
81.2162
81.1931
81.1938
81.1945
81.1952
81.1959
81.1966
81.1973
81.198
81.1987
81.1993
81.2
81.2007
81.2013
81.2018
81.2023
81.2028
81.2032
81.2036
81.2039
81.2042
81.2045
81.2048
81.1669
81.169
81.1711
81.1731
81.1751
81.1771
81.1791
81.181
81.1828
81.1846
81.1863
81.1879
81.1894
81.1908
81.192
81.193
81.1939
81.1947
81.1954
81.196
81.1965
81.1969
81.1449
81.1485
81.1521
81.1557
81.1592
81.1626
81.1659
81.1692
81.1723
81.1753
81.1781
81.1808
81.1832
81.1853
81.1871
81.1887
81.1901
81.1913
81.1923
81.1931
81.1937
81.1943
81.1315
81.1368
81.1422
81.1474
81.1526
81.1576
81.1625
81.1672
81.1716
81.1759
81.1799
81.1836
81.187
81.1898
81.1923
81.1944
81.1962
81.1976
81.1988
81.1997
81.2004
81.2009
81.1301
81.1374
81.1449
81.1522
81.1593
81.1661
81.1727
81.179
81.185
81.1906
81.1958
81.2006
81.2048
81.2084
81.2114
81.2139
81.2159
81.2175
81.2187
81.2195
81.22
81.2203
81.1439
81.1535
81.1634
81.1732
81.1825
81.1915
81.2001
81.2082
81.2159
81.223
81.2296
81.2355
81.2405
81.2447
81.2482
81.2509
81.253
81.2545
81.2555
81.2561
81.2561
81.2559
81.1758
81.1883
81.2013
81.2139
81.226
81.2376
81.2485
81.2588
81.2683
81.2771
81.2851
81.2921
81.298
81.3027
81.3065
81.3092
81.3112
81.3124
81.3129
81.3129
81.3122
81.311
81.2293
81.2452
81.2619
81.2781
81.2935
81.3081
81.3218
81.3346
81.3463
81.3569
81.3664
81.3746
81.3813
81.3864
81.3902
81.3928
81.3944
81.3949
81.3946
81.3936
81.3918
81.3893
81.3075
81.3276
81.3489
81.3694
81.3889
81.4071
81.4241
81.4398
81.454
81.4668
81.4779
81.4872
81.4946
81.5
81.5037
81.5058
81.5065
81.506
81.5045
81.5021
81.4985
81.4942
81.414
81.4391
81.466
81.4918
81.5161
81.5388
81.5597
81.5788
81.596
81.611
81.6239
81.6345
81.6424
81.6478
81.651
81.6523
81.6518
81.6498
81.6465
81.642
81.6362
81.6293
81.5518
81.5831
81.6167
81.6491
81.6792
81.7071
81.7328
81.7559
81.7764
81.7941
81.809
81.8207
81.8291
81.8343
81.8367
81.8366
81.8344
81.8302
81.8245
81.8174
81.8086
81.7984
81.7238
81.7625
81.8044
81.8447
81.8819
81.9162
81.9474
81.9753
81.9997
82.0205
82.0375
82.0504
82.0591
82.0638
82.0649
82.063
82.0584
82.0515
82.0426
82.0321
82.0194
82.005
81.9321
81.9797
82.0319
82.0816
82.1275
82.1695
82.2073
82.2409
82.27
82.2943
82.3138
82.328
82.3368
82.3405
82.3399
82.3355
82.3279
82.3174
82.3045
82.2897
82.2722
82.2526
82.1781
82.2365
82.3011
82.3625
82.4188
82.47
82.5159
82.5563
82.5909
82.6194
82.6416
82.6572
82.666
82.6685
82.6657
82.6582
82.6467
82.6318
82.614
82.5938
82.5705
82.5444
82.4618
82.5333
82.6131
82.6886
82.7575
82.82
82.8757
82.9244
82.9656
82.9991
83.0246
83.0418
83.0505
83.0515
83.0459
83.0345
83.0183
82.998
82.9743
82.9477
82.9174
82.8836
82.7816
82.8691
82.9674
83.0601
83.1446
83.2207
83.2884
83.3471
83.3964
83.436
83.4656
83.4847
83.4934
83.4926
83.4837
83.4678
83.4461
83.4193
83.3885
83.3544
83.3156
83.2727
83.1342
83.2411
83.362
83.4758
83.5791
83.6721
83.7544
83.8254
83.8847
83.9319
83.9666
83.9884
83.9972
83.9945
83.9818
83.9607
83.9325
83.8983
83.8592
83.8162
83.7678
83.7141
83.5138
83.6443
83.7931
83.9325
84.059
84.1726
84.2728
84.3591
84.4309
84.4876
84.5289
84.5542
84.5637
84.559
84.5423
84.5153
84.4798
84.4371
84.3886
84.3354
84.2757
84.2098
83.9124
84.0717
84.2543
84.4251
84.5799
84.7188
84.8413
84.9465
85.0338
85.1026
85.1525
85.1828
85.1936
85.1873
85.1664
85.133
85.0893
85.0371
84.9779
84.9132
84.8409
84.761
84.3189
84.513
84.7371
84.9461
85.1355
85.3056
85.4555
85.5842
85.6911
85.7753
85.8363
85.8735
85.8871
85.8797
85.8546
85.8145
85.762
85.6992
85.6282
85.5507
85.4643
85.3686
84.7193
84.9555
85.2298
85.4852
85.717
85.9252
86.109
86.2671
86.3985
86.5023
86.578
86.6247
86.6428
86.6354
86.6066
86.5598
86.498
86.4239
86.3399
86.2482
86.1461
86.0329
85.0962
85.3828
85.7179
86.0295
86.3128
86.5678
86.7932
86.9877
87.1498
87.2787
87.3736
87.4334
87.4585
87.4528
87.4212
87.3679
87.2966
87.2104
87.1125
87.0055
86.8863
86.7538
85.4295
85.7759
86.1839
86.5631
86.9086
87.2205
87.497
87.7364
87.937
88.0977
88.2173
88.2948
88.3304
88.3289
88.296
88.2369
88.1561
88.0576
87.945
87.8215
87.6839
87.5304
85.6953
86.1117
86.6067
87.0667
87.4871
87.8679
88.2067
88.5013
88.7497
88.9504
89.1019
89.2031
89.2537
89.2595
89.2275
89.164
89.0743
88.9634
88.8355
88.6947
88.5375
88.3614
85.8677
86.3645
86.9624
87.5179
88.0276
88.491
88.9052
89.2672
89.5746
89.8253
90.0177
90.1499
90.2214
90.2389
90.211
90.145
90.0477
89.9247
89.7815
89.6228
89.4449
89.2447
85.9184
86.5056
87.2243
87.8923
88.5076
89.0694
89.574
90.0176
90.3971
90.7098
90.9535
91.1258
91.2256
91.2606
91.2409
91.1754
91.0723
90.9384
90.7801
90.6032
90.404
90.1787
85.8164
86.5008
87.3593
88.1584
88.8974
89.5753
90.1874
90.729
91.1962
91.5853
91.8936
92.1174
92.2549
92.3146
92.3086
92.2477
92.1415
91.9982
91.8256
91.6306
91.4098
91.1582
85.5249
86.3165
87.336
88.2886
89.1732
89.9885
90.7283
91.3865
91.9581
92.4389
92.8257
93.1138
93.2998
93.3933
93.4082
93.3573
93.252
93.1022
92.9172
92.705
92.4629
92.1858
81.2192
81.2192
81.2193
81.2194
81.2196
81.2198
81.2162
81.2163
81.2164
81.2165
81.2166
81.2169
81.205
81.2051
81.2053
81.2054
81.2055
81.2057
81.1973
81.1976
81.1978
81.198
81.198
81.1981
81.1947
81.1952
81.1956
81.1958
81.1958
81.1957
81.2014
81.2021
81.2026
81.2028
81.2028
81.2025
81.2208
81.2219
81.2225
81.2228
81.2226
81.2221
81.2563
81.2578
81.2586
81.2589
81.2587
81.2578
81.3112
81.3132
81.3144
81.3147
81.3143
81.313
81.389
81.3918
81.3932
81.3936
81.393
81.3911
81.4933
81.4969
81.4988
81.4992
81.4983
81.4956
81.6275
81.6323
81.6346
81.6351
81.6339
81.6303
81.7954
81.8015
81.8044
81.805
81.8033
81.7985
82.0004
82.0082
82.0118
82.0125
82.0102
82.0039
82.246
82.2558
82.2602
82.2609
82.2581
82.2499
82.5354
82.5476
82.5529
82.5537
82.5501
82.5397
82.8716
82.8866
82.893
82.8939
82.8894
82.8763
83.2571
83.2755
83.2831
83.2842
83.2786
83.2622
83.6943
83.7167
83.7257
83.7268
83.72
83.6999
84.1851
84.2121
84.2227
84.2239
84.2157
84.1912
84.7308
84.7631
84.7754
84.7767
84.767
84.7373
85.332
85.3705
85.3847
85.3861
85.3747
85.339
85.9893
86.0348
86.0511
86.0527
86.0393
85.9967
86.7023
86.7559
86.7745
86.7761
86.7607
86.7103
87.4703
87.533
87.5541
87.5558
87.538
87.4787
88.292
88.3649
88.3888
88.3906
88.3702
88.3008
89.1651
89.2496
89.2764
89.2783
89.2552
89.1743
90.0882
90.1855
90.2155
90.2175
90.1914
90.0978
91.056
91.1675
91.2008
91.2029
91.1737
91.066
92.0719
92.1974
92.2345
92.2367
92.2038
92.0823
81.2201
81.2203
81.2206
81.221
81.2214
81.2219
81.2224
81.2231
81.2238
81.2246
81.2255
81.2266
81.2277
81.2289
81.2301
81.2314
81.2327
81.2341
81.2356
81.2371
81.2386
81.2402
81.217
81.2172
81.2174
81.2176
81.2179
81.2182
81.2185
81.2189
81.2194
81.2199
81.2205
81.2211
81.2218
81.2226
81.2233
81.2241
81.2249
81.2257
81.2266
81.2274
81.2283
81.2292
81.2057
81.2056
81.2055
81.2054
81.2053
81.2051
81.205
81.2048
81.2046
81.2043
81.204
81.2037
81.2034
81.203
81.2026
81.2021
81.2017
81.2012
81.2007
81.2002
81.1997
81.1992
81.1979
81.1977
81.1974
81.197
81.1966
81.1961
81.1955
81.1947
81.1939
81.1929
81.1918
81.1906
81.1892
81.1878
81.1863
81.1847
81.183
81.1813
81.1795
81.1777
81.1759
81.174
81.1955
81.1952
81.1947
81.1942
81.1935
81.1926
81.1916
81.1904
81.189
81.1873
81.1854
81.1832
81.1808
81.1782
81.1755
81.1726
81.1696
81.1665
81.1634
81.1601
81.1568
81.1534
81.2023
81.2021
81.2017
81.2011
81.2003
81.1992
81.1979
81.1962
81.1942
81.1919
81.1891
81.186
81.1825
81.1787
81.1747
81.1705
81.166
81.1614
81.1566
81.1517
81.1467
81.1418
81.2219
81.2221
81.2219
81.2215
81.2207
81.2196
81.2181
81.2161
81.2137
81.2108
81.2072
81.2031
81.1985
81.1934
81.188
81.1823
81.1762
81.1699
81.1633
81.1565
81.1495
81.1427
81.2578
81.2586
81.259
81.2589
81.2584
81.2574
81.2559
81.2538
81.2511
81.2476
81.2434
81.2383
81.2324
81.226
81.219
81.2115
81.2036
81.1952
81.1865
81.1774
81.1681
81.1591
81.3133
81.3151
81.3163
81.317
81.317
81.3165
81.3153
81.3132
81.3103
81.3065
81.3015
81.2954
81.2883
81.2803
81.2716
81.2621
81.2519
81.2412
81.2298
81.218
81.2058
81.1941
81.392
81.3952
81.3977
81.3994
81.4005
81.4007
81.4
81.3983
81.3954
81.3913
81.3857
81.3786
81.3701
81.3605
81.3497
81.3378
81.325
81.3114
81.2969
81.2817
81.266
81.2511
81.4973
81.5025
81.5069
81.5102
81.5126
81.514
81.5142
81.5131
81.5106
81.5063
81.5003
81.4922
81.4822
81.4706
81.4574
81.4429
81.4269
81.4098
81.3915
81.3721
81.3521
81.3332
81.6329
81.6409
81.6477
81.6531
81.6574
81.6605
81.6621
81.662
81.6601
81.656
81.6496
81.6405
81.6289
81.6151
81.5992
81.5814
81.5617
81.5404
81.5175
81.493
81.4677
81.444
81.8025
81.814
81.8239
81.8322
81.8391
81.8444
81.8479
81.8494
81.8484
81.8448
81.8381
81.828
81.8147
81.7984
81.7793
81.7576
81.7335
81.7071
81.6785
81.6478
81.616
81.5865
82.0096
82.0255
82.0395
82.0514
82.0616
82.0699
82.076
82.0794
82.0799
82.077
82.0702
82.0591
82.0439
82.0247
82.0019
81.9757
81.9462
81.9136
81.8782
81.84
81.8001
81.7635
82.2578
82.2792
82.2982
82.3146
82.329
82.341
82.3503
82.3564
82.3588
82.3569
82.3503
82.3382
82.3207
82.2982
82.271
82.2392
82.2032
82.1633
82.1195
82.072
82.0223
81.9772
82.5502
82.5783
82.6034
82.6254
82.6449
82.6616
82.6749
82.6843
82.6891
82.6886
82.6822
82.6689
82.6489
82.6224
82.5899
82.5515
82.5077
82.4588
82.4049
82.3461
82.2844
82.2289
82.89
82.9261
82.9585
82.9871
83.0128
83.035
83.0532
83.0666
83.0744
83.0757
83.0696
83.055
83.0319
83.0006
82.9617
82.9153
82.8619
82.8019
82.7357
82.6632
82.5867
82.5185
83.2798
83.3253
83.3664
83.4028
83.4358
83.4647
83.4886
83.5067
83.518
83.5213
83.5155
83.4992
83.4722
83.4351
83.3882
83.332
83.2669
83.1935
83.1121
83.0227
82.9282
82.8446
83.7219
83.7785
83.8296
83.8751
83.9165
83.9531
83.9837
84.0072
84.0224
84.0279
84.0222
84.0036
83.9717
83.9272
83.8705
83.8021
83.7227
83.6327
83.5328
83.4228
83.3061
83.2037
84.2183
84.2876
84.3501
84.4061
84.4572
84.5025
84.5406
84.5702
84.5896
84.5972
84.5911
84.5693
84.5311
84.4772
84.4082
84.3248
84.2275
84.1173
83.9946
83.8594
83.7155
83.5901
84.7703
84.8539
84.9294
84.9971
85.0592
85.1143
85.1607
85.1968
85.2206
85.2301
85.2229
85.1964
85.1498
85.084
84.9996
84.8974
84.7782
84.6429
84.4922
84.3262
84.149
83.9957
85.3786
85.4784
85.5684
85.6493
85.7234
85.7892
85.8446
85.8876
85.9158
85.9265
85.9169
85.8839
85.8263
85.7452
85.6414
85.5157
85.3693
85.2032
85.0182
84.8145
84.5967
84.4094
86.0438
86.1615
86.2675
86.3628
86.4501
86.5275
86.5924
86.6423
86.6743
86.6853
86.6715
86.6292
86.5571
86.4564
86.3281
86.1733
85.9932
85.7891
85.5623
85.3128
85.0456
84.8172
86.7654
86.9029
87.0264
87.1373
87.2388
87.3284
87.403
87.4595
87.4945
87.504
87.4835
87.4285
87.3373
87.2116
87.0526
86.8614
86.6398
86.3892
86.1114
85.8063
85.4793
85.2016
87.5428
87.7018
87.8441
87.9718
88.0882
88.1903
88.2745
88.3369
88.3734
88.379
88.3484
88.276
88.1599
88.0025
87.8049
87.5689
87.2962
86.9891
86.6494
86.2775
85.8786
85.5423
88.3747
88.5568
88.719
88.8643
88.9962
89.1109
89.204
89.271
89.3067
89.3052
89.2599
89.1643
89.0163
88.8187
88.5732
88.2819
87.9469
87.5712
87.1571
86.7053
86.2205
85.8156
89.2588
89.4655
89.6487
89.8123
89.9598
90.0867
90.1876
90.2571
90.2889
90.2759
90.2101
90.0838
89.8948
89.6469
89.3422
88.9832
88.5729
88.1148
87.612
87.0655
86.4792
85.9955
90.1935
90.426
90.6308
90.8128
90.9756
91.1136
91.2204
91.2894
91.3131
91.2829
91.1894
91.0233
90.7826
90.4723
90.0951
89.6542
89.1535
88.5972
87.9894
87.3313
86.6256
86.0534
91.1739
91.4331
91.6601
91.8604
92.0376
92.185
92.2949
92.3595
92.3696
92.3149
92.1843
91.967
91.6612
91.2739
90.8085
90.2692
89.6608
88.9886
88.2576
87.4694
86.6256
85.9582
92.2023
92.4875
92.736
92.9537
93.1436
93.2976
93.4066
93.4611
93.4504
93.3623
93.1838
92.9026
92.5177
92.0377
91.4671
90.8106
90.0742
89.2645
88.3885
87.4478
86.4446
85.6724
81.2415
81.2426
81.244
81.2455
81.2474
81.2495
81.252
81.2551
81.2587
81.2631
81.2684
81.2749
81.283
81.2931
81.3057
81.321
81.3387
81.3591
81.3827
81.41
81.4419
81.4801
81.5234
81.5673
81.6111
81.6541
81.6961
81.7366
81.7748
81.8158
81.8776
81.9139
81.6882
81.7102
84.7251
81.23
81.2306
81.2314
81.2324
81.2335
81.2349
81.2365
81.2384
81.2407
81.2434
81.2467
81.2507
81.2555
81.2615
81.2687
81.2771
81.2862
81.2961
81.3065
81.3173
81.3282
81.3389
81.3482
81.3548
81.3591
81.3615
81.3629
81.3637
81.3627
81.3559
81.3568
81.4139
81.3604
80.8422
81.8004
81.1988
81.1986
81.1984
81.1982
81.198
81.1978
81.1977
81.1976
81.1976
81.1977
81.1978
81.1981
81.1985
81.1992
81.2001
81.2012
81.2024
81.2038
81.2052
81.2066
81.2078
81.2088
81.2094
81.2095
81.2094
81.209
81.2086
81.2082
81.2083
81.2058
81.1937
81.2074
81.2798
81.0782
81.2647
81.1724
81.1713
81.17
81.1686
81.167
81.1653
81.1634
81.1613
81.1589
81.1563
81.1534
81.1502
81.1467
81.1428
81.1388
81.1348
81.131
81.1275
81.1244
81.1216
81.1191
81.117
81.1153
81.1143
81.1139
81.1139
81.1141
81.1144
81.1152
81.1172
81.1135
81.101
81.1407
81.0996
81.1176
81.1504
81.1483
81.1458
81.143
81.1399
81.1365
81.1326
81.1282
81.1234
81.1179
81.1117
81.1049
81.0972
81.0886
81.0793
81.0697
81.0603
81.0512
81.0425
81.0341
81.0262
81.0184
81.0116
81.0061
81.0019
80.9987
80.9963
80.9943
80.9924
80.9915
80.9913
80.9805
80.9884
80.9854
80.9787
81.1371
81.1336
81.1296
81.1251
81.1201
81.1144
81.1081
81.1009
81.0928
81.0838
81.0735
81.0621
81.0493
81.035
81.0193
81.0031
80.9873
80.9719
80.9571
80.943
80.9298
80.9172
80.9063
80.8978
80.8915
80.8867
80.8831
80.8803
80.8778
80.8755
80.8748
80.8698
80.868
80.8687
80.8625
81.1358
81.1308
81.1249
81.1182
81.1107
81.1022
81.0927
81.082
81.07
81.0564
81.0411
81.0239
81.0047
80.9833
80.9599
80.9358
80.9124
80.8897
80.8681
80.8477
80.8287
80.811
80.7959
80.7846
80.7762
80.7701
80.7656
80.7622
80.7595
80.7569
80.755
80.7525
80.7495
80.7485
80.7446
81.1495
81.1424
81.134
81.1245
81.1138
81.1018
81.0882
81.073
81.0557
81.0363
81.0145
80.9901
80.9627
80.9323
80.8991
80.865
80.8318
80.7999
80.7696
80.7411
80.7147
80.6903
80.6697
80.6544
80.6432
80.6351
80.6292
80.6249
80.6215
80.6186
80.6159
80.6137
80.6111
80.6087
80.6062
81.181
81.1713
81.1596
81.1464
81.1316
81.115
81.0962
81.075
81.0511
81.0242
80.994
80.9601
80.9222
80.8802
80.8343
80.7873
80.7417
80.6979
80.6563
80.6174
80.5816
80.5485
80.5209
80.5005
80.4856
80.4748
80.467
80.4614
80.4571
80.4536
80.4504
80.4479
80.4452
80.4425
80.4407
81.2334
81.2203
81.2044
81.1866
81.1665
81.1438
81.1183
81.0895
81.0571
81.0205
80.9795
80.9335
80.8822
80.8254
80.7633
80.6998
80.6383
80.5794
80.5236
80.4716
80.4238
80.3798
80.3432
80.3162
80.2966
80.2824
80.2722
80.2649
80.2594
80.2551
80.2513
80.2483
80.2454
80.2426
80.2412
81.3098
81.2924
81.2712
81.2473
81.2205
81.1903
81.1562
81.1177
81.0744
81.0257
80.9709
80.9097
80.8414
80.7658
80.6834
80.5992
80.5177
80.4399
80.3663
80.2977
80.235
80.1773
80.1296
80.0944
80.0688
80.0504
80.0372
80.0277
80.0207
80.0153
80.0109
80.0074
80.004
80.0013
80
81.4132
81.3904
81.3626
81.3311
81.2958
81.256
81.2112
81.1606
81.1036
81.0396
80.9678
80.8874
80.798
80.699
80.5913
80.4814
80.3753
80.274
80.1785
80.0897
80.0085
79.9341
79.8726
79.8274
79.7945
79.7709
79.754
79.7419
79.7332
79.7266
79.7214
79.7172
79.7134
79.7107
79.7096
81.5465
81.5171
81.4808
81.44
81.3942
81.3425
81.2843
81.2187
81.1449
81.062
80.969
80.8652
80.7497
80.622
80.4833
80.3421
80.206
80.0762
79.9541
79.8407
79.7373
79.6428
79.5647
79.5074
79.4658
79.436
79.4147
79.3996
79.3887
79.3807
79.3744
79.3695
79.3651
79.3625
79.3618
81.7121
81.6745
81.628
81.5757
81.5169
81.4507
81.3761
81.2921
81.1977
81.0917
80.973
80.8406
80.6935
80.5312
80.3552
80.1763
80.0041
79.8404
79.6865
79.544
79.4143
79.2958
79.1983
79.1267
79.0749
79.0377
79.0112
78.9925
78.9791
78.9693
78.9618
78.9559
78.951
78.9484
78.948
81.9116
81.8642
81.8053
81.7389
81.6644
81.5805
81.4861
81.3799
81.2607
81.1269
80.9773
80.8106
80.6258
80.4222
80.2018
79.9782
79.7637
79.5599
79.3689
79.1923
79.0319
78.8857
78.7657
78.6777
78.6139
78.5683
78.5359
78.513
78.4968
78.4851
78.4761
78.469
78.4636
78.461
78.4607
82.1458
82.0867
82.0128
81.9295
81.8361
81.7311
81.613
81.4802
81.3313
81.1645
80.9782
80.771
80.5416
80.2895
80.0171
79.7416
79.4777
79.2278
78.9939
78.7783
78.5829
78.4053
78.2596
78.153
78.076
78.0209
77.9819
77.9545
77.9352
77.9212
77.9105
77.9023
77.8963
77.8936
77.8936
82.4141
82.3412
82.2494
82.146
82.0302
81.9001
81.7539
81.5897
81.4058
81.2001
80.9708
80.7162
80.4351
80.1267
79.7944
79.4591
79.139
78.8365
78.5543
78.2947
78.0601
77.8473
77.6733
77.5462
77.4545
77.3891
77.3429
77.3106
77.288
77.2716
77.2592
77.2497
77.2431
77.2404
77.2406
82.7142
82.6252
82.5124
82.3853
82.2431
82.0834
81.9042
81.7034
81.4787
81.2279
80.9488
80.6396
80.2989
79.9262
79.5258
79.1231
78.7397
78.3785
78.0425
77.7343
77.4565
77.2052
77.0004
76.8512
76.7439
76.6674
76.6136
76.5762
76.5501
76.5313
76.517
76.5062
76.499
76.4963
76.4968
83.0419
82.9342
82.7969
82.642
82.4691
82.2751
82.0578
81.8145
81.5428
81.2401
80.9041
80.5326
80.1244
79.6793
79.2026
78.7248
78.2714
77.8458
77.4511
77.0902
76.7659
76.4734
76.2357
76.0631
75.9393
75.8514
75.7898
75.7472
75.7176
75.6964
75.6803
75.6681
75.6603
75.6576
75.6584
83.3904
83.2616
83.0959
82.9089
82.7004
82.467
82.2058
81.914
81.5887
81.2272
80.8268
80.3853
79.9017
79.376
78.8151
78.2551
77.7257
77.2305
76.7729
76.3559
75.9825
75.6468
75.3749
75.1782
75.0375
74.9381
74.8688
74.821
74.788
74.7645
74.7466
74.7332
74.7248
74.7221
74.7232
83.7506
83.5979
83.3997
83.1758
82.9268
82.6485
82.3375
81.9908
81.6052
81.1776
80.7053
80.1862
79.6194
79.0056
78.3531
77.7045
77.0939
76.525
76.0012
75.5258
75.1016
74.7216
74.4151
74.1942
74.0367
73.9259
73.8492
73.7966
73.7606
73.7348
73.7153
73.7007
73.6919
73.6892
73.6907
84.1099
83.9308
83.6959
83.4302
83.1353
82.8063
82.4394
82.0313
81.5785
81.0778
80.5263
79.9223
79.2651
78.5561
77.8059
77.0635
76.3677
75.7221
75.1303
74.5952
74.1197
73.6954
73.3548
73.1102
72.9367
72.8152
72.7315
72.6746
72.6359
72.6084
72.5874
72.5719
72.5626
72.56
72.5619
84.4528
84.245
83.969
83.6563
83.3102
82.9248
82.4959
82.02
81.4933
80.9126
80.2751
79.5793
78.8253
78.0154
77.1624
76.3225
75.5391
74.8156
74.1552
73.5607
73.0347
72.5673
72.1939
71.927
71.7386
71.6075
71.5178
71.4574
71.4165
71.3876
71.3656
71.3492
71.3396
71.3372
71.3394
84.7602
84.522
84.2006
83.8357
83.4329
82.9854
82.4887
81.9388
81.332
80.6651
79.9355
79.1423
78.2863
77.3711
76.412
75.4727
74.6012
73.8001
73.0723
72.4202
71.8459
71.3379
70.9342
70.6472
70.4457
70.3064
70.2119
70.1488
70.1066
70.0768
70.0541
70.0371
70.0273
70.0251
70.0277
85.01
84.7403
84.3695
83.9473
83.4827
82.9679
82.3977
81.7683
81.0759
80.3173
79.4907
78.5956
77.634
76.611
75.5446
74.5062
73.5479
72.6718
71.8797
71.1734
70.5544
70.0096
69.5791
69.2749
69.0626
68.9169
68.819
68.7545
68.7117
68.6817
68.6587
68.6414
68.6316
68.6296
68.6326
85.1759
84.875
84.4512
83.9669
83.436
82.8492
82.2009
81.4873
80.7048
79.8506
78.9234
77.9237
76.8548
75.7236
74.551
73.4162
72.375
71.4282
70.5769
69.8215
69.1628
68.5864
68.1337
67.8158
67.5955
67.4457
67.3461
67.2813
67.239
67.2095
67.1867
67.1695
67.1598
67.1581
67.1615
85.2291
84.8993
84.4197
83.8693
83.2682
82.6057
81.8756
81.0743
80.1985
79.2461
78.2165
77.1115
75.9359
74.6986
73.4238
72.1977
71.0797
70.069
69.1652
68.3677
67.6759
67.074
66.6045
66.2771
66.0522
65.9007
65.8013
65.7378
65.697
65.6687
65.6466
65.6298
65.6205
65.6191
65.6229
85.1369
84.7828
84.2459
83.626
82.9519
82.2112
81.3971
80.5063
79.5361
78.4849
77.3532
76.1445
74.8654
73.527
72.1566
70.8474
69.6612
68.5953
67.6479
66.8166
66.0996
65.4794
64.9994
64.6673
64.4412
64.2908
64.1936
64.1328
64.0947
64.0684
64.0477
64.0316
64.0228
64.0218
64.026
84.8614
84.4937
83.9002
83.209
82.461
81.6414
80.7427
79.7624
78.6986
77.5504
76.3199
75.0117
73.6348
72.2027
70.7463
69.3648
68.1214
67.0112
66.0304
65.1753
64.442
63.8118
63.3279
62.9963
62.773
62.6264
62.5336
62.4772
62.4427
62.4193
62.4005
62.3854
62.3774
62.377
62.3814
84.3552
83.9914
83.344
82.5817
81.7613
80.8647
79.8836
78.8161
77.6614
76.4204
75.0967
73.6971
72.2324
70.7184
69.1891
67.7489
66.4616
65.32
64.318
63.4499
62.7104
62.0792
61.5986
61.2728
61.0562
60.9165
60.8302
60.7797
60.7501
60.7304
60.7141
60.7005
60.6934
60.6937
60.6985
58.4159
58.4112
58.4104
58.4166
58.4285
58.4419
58.4573
58.4811
58.5247
58.6034
58.7351
58.9436
59.2627
59.7391
60.3706
61.1159
61.9966
63.0195
64.192
65.5227
67.0217
68.6254
70.2255
71.7851
73.2855
74.712
76.054
77.3051
78.4633
79.5292
80.5047
81.4004
82.2379
82.9389
83.2878
56.2641
56.2588
56.2572
56.2622
56.2717
56.2808
56.2898
56.3048
56.3374
56.403
56.5191
56.7096
57.0085
57.4621
58.0711
58.7973
59.663
60.6768
61.8487
63.1902
64.7155
66.3639
68.0245
69.6549
71.2297
72.7295
74.1424
75.4632
76.6912
77.8278
78.8744
79.8431
80.7598
81.5176
81.8194
54.1047
54.099
54.0964
54.0995
54.1059
54.1099
54.1113
54.116
54.1356
54.1849
54.2813
54.4481
54.7188
55.1379
55.7093
56.399
57.2293
58.2102
59.3541
60.676
62.193
63.8471
65.5238
67.175
68.7746
70.3069
71.7643
73.1431
74.4417
75.6581
76.7898
77.8477
78.8603
79.6907
79.9597
51.9644
51.9584
51.9549
51.956
51.9591
51.9576