/*--------------------------------*- C++ -*----------------------------------*\
  =========                 |
  \\      /  F ield         | OpenFOAM: The Open Source CFD Toolbox
   \\    /   O peration     | Website:  https://openfoam.org
    \\  /    A nd           | Version:  8
     \\/     M anipulation  |
\*---------------------------------------------------------------------------*/
FoamFile
{
    version     2.0;
    format      ascii;
    class       volScalarField;
    location    "0.05";
    object      alphat;
}
// * * * * * * * * * * * * * * * * * * * * * * * * * * * * * * * * * * * * * //

dimensions      [1 -1 -1 0 0 0 0];

internalField   nonuniform List<scalar> 
3919
(
2.48846e-05
0.00480977
0.000200018
2.50969e-05
0.00263983
0.00558583
0.000250757
0.000202063
2.52722e-05
0.0018967
0.00514735
0.00567693
0.000271112
0.000256162
0.000204199
2.54075e-05
0.00161356
0.00466221
0.00570193
0.00566751
0.000268223
0.000279111
0.000261646
0.000206332
2.55146e-05
0.00150799
0.00424439
0.00563761
0.00575024
0.00565416
0.000264282
0.000276786
0.00028737
0.000267622
0.000208567
2.5602e-05
0.00148591
0.00390764
0.00550195
0.00580781
0.00571866
0.00564349
0.000325079
0.000270238
0.000286101
0.000296633
0.000273464
0.00021085
2.56157e-05
0.00150474
0.00362533
0.00532016
0.00582891
0.00577005
0.00566883
0.00560929
0.000618582
0.000325859
0.000277387
0.000296901
0.000305934
0.000280169
0.000212852
2.56033e-05
0.00155304
0.00337316
0.00511084
0.00580697
0.00579675
0.00565923
0.00548512
0.0053163
0.0013242
0.00061122
0.000327056
0.000286286
0.000308366
0.00031648
0.000286118
0.000214929
2.5554e-05
0.00162381
0.00314806
0.00488414
0.00573849
0.00578669
0.00560141
0.00526017
0.00448221
0.00225303
0.00239025
0.00130394
0.00060119
0.000329005
0.000296536
0.000321256
0.000327082
0.000292616
0.000216909
2.54968e-05
0.00168164
0.00294579
0.00464758
0.00562244
0.00572987
0.00547939
0.00493662
0.00371512
0.00118001
1.76384e-05
0.00352579
0.00235902
0.00127723
0.00058862
0.000331898
0.000308674
0.000334886
0.000338324
0.000299122
0.000219044
2.53954e-05
0.00173268
0.00278853
0.00440206
0.0054605
0.00561395
0.00528587
0.00448684
0.00299297
0.000844905
9.05392e-05
2.12806e-05
0.00449036
0.00348656
0.00231779
0.00124425
0.00057466
0.000336263
0.000322195
0.000349717
0.000349676
0.000306076
0.000221013
2.52991e-05
0.00177708
0.00267244
0.0041596
0.00525274
0.00543519
0.00498953
0.00398091
0.00220537
0.000601348
0.000308655
0.000266459
1.89312e-05
0.00517929
0.00444301
0.00343812
0.00226702
0.00120656
0.000559506
0.000342103
0.000337688
0.000364989
0.000361661
0.000312883
0.000223121
2.51745e-05
0.00181779
0.00259038
0.00393046
0.00500684
0.00518016
0.00462692
0.00331187
0.00166152
0.000427128
0.000576735
0.000575563
0.000260983
1.70504e-05
0.00560356
0.00512115
0.00438864
0.00338099
0.00220806
0.00116427
0.000544489
0.00035016
0.000354315
0.000381437
0.000373381
0.000320094
0.000225089
2.50017e-05
0.00185832
0.00253252
0.00372689
0.00471926
0.00486582
0.00414266
0.00275314
0.00108526
0.000372319
0.000690209
0.000826502
0.000623091
0.000252715
1.59858e-05
0.00578181
0.00553044
0.00505989
0.00432791
0.00331583
0.00214061
0.00111914
0.000530217
0.000360143
0.000372803
0.000397973
0.000385929
0.00032702
0.000226789
2.48164e-05
0.00190037
0.00249965
0.00354063
0.00442625
0.00446105
0.00365188
0.00209088
0.000820476
0.00031978
0.00076462
0.000890543
0.000977502
0.000618331
0.000244971
1.46323e-05
0.0058186
0.00569587
0.00545765
0.0049966
0.00426099
0.00324254
0.00206692
0.0010701
0.000517484
0.000372776
0.000392187
0.000415486
0.000397772
0.000333536
0.000228472
2.46149e-05
0.00194818
0.00248408
0.00338548
0.00407223
0.00406779
0.00304304
0.00163347
0.000555705
0.000341276
0.000814337
0.000856781
0.00125452
0.000998652
0.00060634
0.000236192
1.31034e-05
0.00576137
0.00573145
0.0056176
0.00538634
0.00493076
0.0041878
0.00316189
0.00198815
0.00101951
0.000507002
0.000387637
0.000412991
0.000433173
0.000409621
0.000340192
0.000230067
2.43754e-05
0.00199168
0.00247995
0.00322112
0.00374995
0.00352186
0.00256944
0.00116974
0.000445062
0.000365701
0.000844053
0.000835019
0.00135899
0.00135359
0.000992495
0.000591759
0.000224977
1.1378e-05
0.00563213
0.00567144
0.00564711
0.00554135
0.00531365
0.00486213
0.00410835
0.00307444
0.00190504
0.000968578
0.000499261
0.00040505
0.000434678
0.000451146
0.000421582
0.000346688
0.000231392
2.41361e-05
0.00247976
0.00204549
0.00306947
0.00334152
0.00309793
0.00190883
0.000880162
0.000354678
0.000427051
0.000861876
0.000840837
0.00131507
0.00164343
0.00137213
0.000976953
0.000570751
0.000211175
9.68592e-06
0.0054313
0.00554319
0.00558992
0.00556596
0.00546358
0.00524106
0.00479191
0.00402434
0.00298022
0.00181853
0.000918418
0.000494977
0.000424726
0.000457316
0.000468987
0.000433709
0.000352722
0.000232711
2.3843e-05
0.00289314
0.0024589
0.00210291
0.00301104
0.00248973
0.00151796
0.000593247
0.00032066
0.000522623
0.00087862
0.000862152
0.00123582
0.00182626
0.00172428
0.00136364
0.000949404
0.000543037
0.000196273
8.15927e-06
0.00518173
0.00535216
0.00545897
0.00550699
0.00548607
0.00538842
0.00517131
0.0047192
0.00393596
0.00288099
0.00172965
0.00087087
0.000494453
0.00044666
0.000480268
0.000487713
0.000445345
0.000358801
0.000233664
2.35215e-05
0.00260466
0.00264444
0.00242834
0.00212985
0.00209305
0.00104779
0.000469186
0.000317982
0.00062976
0.000888134
0.00089873
0.00117982
0.00188528
0.00202421
0.00173776
0.00133487
0.000909548
0.000511772
0.000181383
6.79189e-06
0.00488758
0.00511291
0.00527767
0.00538239
0.00542638
0.00541176
0.00531509
0.00510021
0.00464116
0.00384359
0.0027754
0.00164065
0.000826459
0.000498115
0.000470237
0.000504308
0.000505591
0.00045714
0.000364239
0.00023442
2.3196e-05
0.00155583
0.0021604
0.00236174
0.00231723
0.0021244
0.000788914
0.000359661
0.000362671
0.000742609
0.00091
0.00094388
0.00115672
0.00185939
0.00225295
0.00208609
0.00171509
0.00128662
0.000862469
0.00047953
0.000166535
5.56063e-06
0.00457352
0.00483478
0.00505002
0.00520829
0.00530916
0.00535269
0.00533619
0.00524332
0.00502839
0.00455962
0.00374616
0.00266455
0.00155213
0.000786799
0.000505961
0.000495876
0.000528244
0.000523333
0.000468142
0.000369373
0.000235123
2.28494e-05
0.000534171
0.00116209
0.0017558
0.00201959
0.0021776
0.00209689
0.000329168
0.000429657
0.000852188
0.000952492
0.000993794
0.00116052
0.00180361
0.0023952
0.00239381
0.00208108
0.0016635
0.0012261
0.000812621
0.000446557
0.00015151
4.43737e-06
0.00428374
0.00454052
0.00478804
0.00499253
0.00514348
0.00523993
0.00528164
0.00526395
0.00517228
0.00495763
0.00447442
0.00364306
0.0025479
0.00146365
0.000752634
0.000518363
0.000522523
0.000552736
0.000540747
0.000478925
0.000374455
0.000235637
2.24511e-05
0.000336597
0.000431415
0.000804029
0.00134187
0.00175167
0.00200239
0.00203876
0.000547943
0.000943444
0.00101596
0.00104789
0.00118468
0.00175209
0.00245781
0.00264956
0.00242367
0.00203266
0.00159324
0.00116014
0.000760736
0.000412528
0.000135761
3.3897e-06
0.00402386
0.00427021
0.00451308
0.00474666
0.00493988
0.00508285
0.00517426
0.00521327
0.00519506
0.00510558
0.00488632
0.00438331
0.00353436
0.00242934
0.00137568
0.000724454
0.000534685
0.000550777
0.000576934
0.000557892
0.000489738
0.000379193
0.000235699
2.20386e-05
0.000700111
0.000417187
0.00037315
0.000572642
0.00107202
0.00150778
0.00180675
0.00195052
0.00104703
0.00108959
0.00111457
0.00122464
0.00171773
0.00246354
0.00283947
0.00273491
0.00238744
0.00195742
0.00151393
0.00109027
0.000706552
0.000376154
0.000118016
2.93538e-06
0.00378251
0.00402707
0.00426135
0.00449044
0.00470994
0.00489152
0.00502597
0.00511178
0.00514758
0.00512877
0.00503733
0.0048133
0.00428968
0.00342131
0.00230909
0.00129032
0.000702728
0.000555156
0.000579708
0.000601535
0.000575078
0.000499975
0.000383109
0.000235606
2.16471e-05
0.00111123
0.000877709
0.000569851
0.000412581
0.000486515
0.000844239
0.00131894
0.00164242
0.00186104
0.00117817
0.0011888
0.00128145
0.00170348
0.00243851
0.00296358
0.00300519
0.00272288
0.00231388
0.00186857
0.00142828
0.00101654
0.000648311
0.000334276
0.000106168
4.13091e-06
0.0035584
0.00379939
0.00403414
0.00425647
0.00447188
0.00467726
0.0048469
0.00497243
0.00505215
0.00508444
0.00506413
0.00496947
0.00473962
0.00419248
0.00330258
0.00218747
0.00120934
0.000688067
0.000579176
0.000609424
0.000626065
0.000591809
0.00050901
0.000386766
0.000235559
2.12263e-05
0.0012713
0.00119779
0.00107893
0.000786545
0.000542681
0.000483763
0.000713743
0.00117394
0.00151954
0.0017681
0.00127303
0.00135676
0.00171029
0.00240366
0.00303141
0.00322515
0.00303127
0.00265766
0.00222058
0.00177072
0.00133697
0.000937103
0.00058183
0.000299565
0.000115798
2.9347e-06
0.00332491
0.00358932
0.0038198
0.00404451
0.0042549
0.00445673
0.00464798
0.00480549
0.00492179
0.00499509
0.00502355
0.0050008
0.00490368
0.00466533
0.00408911
0.00318031
0.00206613
0.0011346
0.000680686
0.000606189
0.000639918
0.000649806
0.000607017
0.000517954
0.000390459
0.000235142
2.07886e-05
0.00137316
0.00138285
0.00133116
0.00124883
0.000983098
0.000703347
0.000544441
0.000659819
0.00105639
0.00142682
0.00168779
0.00144583
0.00173955
0.00237209
0.00305597
0.0033903
0.00330549
0.00298307
0.00256498
0.00211421
0.00166502
0.00123854
0.000847572
0.000523113
0.000303715
0.000106152
3.39277e-06
0.00308444
0.00336615
0.00362312
0.00384325
0.00405761
0.00425604
0.00444433
0.0046215
0.0047668
0.00487365
0.00494029
0.00496455
0.004939
0.00483847
0.00458846
0.00398004
0.00305046
0.00194642
0.00106746
0.000680647
0.000635924
0.000670821
0.000672603
0.00062284
0.000526926
0.000393306
0.000234421
2.03848e-05
0.0015453
0.0015024
0.00152056
0.00148098
0.00139138
0.0011811
0.000894372
0.000672976
0.000672402
0.000979186
0.00137284
0.00162511
0.00179124
0.00235242
0.00305171
0.00350266
0.00353903
0.00328452
0.00289739
0.00245489
0.0019977
0.0015506
0.00112884
0.000767733
0.000515508
0.000299523
0.000118072
4.44446e-06
0.00286027
0.00313512
0.00341085
0.00365917
0.00386918
0.00407293
0.00425926
0.00443411
0.00459729
0.00473036
0.00482765
0.00488748
0.00490728
0.00487858
0.00477312
0.00451102
0.00386954
0.00291508
0.00182937
0.00100927
0.000687859
0.000668207
0.000700717
0.000695579
0.000638493
0.000534592
0.000395431
0.000233786
1.99744e-05
0.00186506
0.00167662
0.00165831
0.00167482
0.00163679
0.00154632
0.0013738
0.00108523
0.000826529
0.000737333
0.000956584
0.00133266
0.00159117
0.00235095
0.00303209
0.00356963
0.00372753
0.00355621
0.00321304
0.0027889
0.00233199
0.00187116
0.00142429
0.00103213
0.000748774
0.000523043
0.000334396
0.000135877
5.57648e-06
0.00265397
0.00291964
0.00318984
0.00345835
0.00369689
0.00389708
0.00408979
0.00426403
0.0044255
0.00457482
0.00469574
0.00478347
0.00483641
0.00485158
0.0048192
0.00470773
0.00442734
0.00375541
0.00277586
0.00171188
0.000961072
0.000702002
0.000701554
0.000732092
0.000718884
0.000652372
0.000541268
0.000397582
0.000232885
1.95674e-05
0.00237228
0.00197732
0.00184194
0.00182638
0.0018422
0.0018086
0.00171191
0.00153478
0.00125841
0.00100338
0.000848424
0.00097655
0.0013106
0.00158301
0.00300985
0.00360135
0.00387
0.00379274
0.0035068
0.00311201
0.00266452
0.00219773
0.00173246
0.00131553
0.00100432
0.000767642
0.000582004
0.00037642
0.000151707
0.00247273
0.00271989
0.00298415
0.00324747
0.00350802
0.00373584
0.00392625
0.00410781
0.00426981
0.00441799
0.00455366
0.00466257
0.00474083
0.00478688
0.00479726
0.00476075
0.00464234
0.00433833
0.00363658
0.00263485
0.00159888
0.00092302
0.00072269
0.000736156
0.000763307
0.000739301
0.000665262
0.000548004
0.000398991
0.000231768
1.91669e-05
0.00299572
0.00242987
0.00212332
0.00201836
0.00200786
0.00202575
0.0019899
0.00187771
0.00169773
0.00144401
0.00117514
0.000975339
0.00103472
0.00132017
0.00158741
0.00360821
0.00396916
0.00399006
0.00377338
0.00341953
0.00299138
0.00252727
0.00205121
0.00161655
0.0012819
0.00103203
0.000847803
0.000648749
0.000412968
0.00232236
0.00254304
0.00279309
0.0030512
0.00330755
0.00355942
0.00377544
0.0039564
0.00412638
0.00427608
0.00441115
0.00453343
0.00463058
0.00469952
0.00473872
0.00474426
0.00470302
0.00457663
0.00424458
0.00351179
0.00249355
0.001492
0.000896894
0.000747634
0.000773319
0.000791302
0.000759968
0.000678353
0.000553537
0.000399708
0.000230496
1.87877e-05
0.00360156
0.00300094
0.0025324
0.00229005
0.00221029
0.00220229
0.00221494
0.00217348
0.00204724
0.00186197
0.0015999
0.00132987
0.00112059
0.00112282
0.00135231
0.00160567
0.00403076
0.0041463
0.00400781
0.00370632
0.00330809
0.00285604
0.00237764
0.00193291
0.00158008
0.00131543
0.00112913
0.000937711
0.000707267
0.00220063
0.00239424
0.00262146
0.0028674
0.00312135
0.0033698
0.00361176
0.0038156
0.00398683
0.00414504
0.00428248
0.00440462
0.00451383
0.00459951
0.00465935
0.00469186
0.00469237
0.00464612
0.0045099
0.00414497
0.00338354
0.00235259
0.00139515
0.000880883
0.000779139
0.00080861
0.000820275
0.00078081
0.000689798
0.000557931
0.000399901
0.000229203
1.84028e-05
0.00406305
0.00359273
0.00304563
0.00266199
0.0024749
0.00241216
0.00240342
0.00241194
0.00236061
0.00221949
0.00201906
0.00175681
0.00149524
0.00126368
0.00122293
0.00141516
0.00163794
0.00426236
0.00420613
0.00396711
0.00360959
0.00317963
0.002708
0.00226138
0.00189631
0.00161648
0.00142466
0.00123934
0.00101754
0.00210344
0.00227257
0.00247541
0.00270362
0.00294687
0.00319443
0.00343346
0.00366521
0.00385569
0.00401718
0.00416355
0.00428874
0.00439816
0.00449465
0.0045692
0.00462024
0.00464616
0.00464173
0.00458969
0.00444134
0.00404121
0.00324726
0.00221526
0.0013102
0.000877363
0.000813074
0.000844545
0.000850467
0.000799611
0.000699717
0.000561471
0.000399846
0.000227642
1.80514e-05
0.00434212
0.00407955
0.00359909
0.00312454
0.00281834
0.00267217
0.00261994
0.00260913
0.00260947
0.00254731
0.00238823
0.00217292
0.0019129
0.00163656
0.0013982
0.00133887
0.00148876
0.00168675
0.00202655
0.0043662
0.0041969
0.00389037
0.00349287
0.00303775
0.00259778
0.00222698
0.00193288
0.00173293
0.00155161
0.00133825
0.00217708
0.00235599
0.00256327
0.00279098
0.00303038
0.00326956
0.00349867
0.00371858
0.00389568
0.00404743
0.00418172
0.00429468
0.00439163
0.00447574
0.00453956
0.00458209
0.00460172
0.00459212
0.00453346
0.00437149
0.0039304
0.00310431
0.00208165
0.00123894
0.000884002
0.000849082
0.00088354
0.000876771
0.000816698
0.000708612
0.000564494
0.000399007
0.000226254
1.76831e-05
0.00448843
0.0044026
0.00408507
0.00363405
0.00323655
0.00299366
0.00287634
0.00283031
0.00281471
0.00280481
0.00272745
0.00255199
0.00232451
0.00205934
0.00176539
0.0015343
0.00144897
0.00157742
0.00174986
0.00193436
0.00210035
0.00439175
0.0041448
0.00379
0.00336151
0.00293702
0.00256745
0.00226141
0.00205179
0.00187236
0.00166662
0.00226089
0.00244821
0.00265747
0.00288373
0.0031168
0.00334699
0.00356468
0.00377253
0.00393599
0.00407749
0.00419955
0.0043003
0.00438493
0.00445706
0.00451054
0.00454497
0.00455843
0.00454359
0.00447758
0.00429855
0.00381294
0.00295999
0.00194858
0.00118263
0.000899109
0.000890153
0.00091738
0.000902219
0.000832908
0.000716713
0.000566062
0.000398426
0.00022465
1.73358e-05
0.0045496
0.00459396
0.00443452
0.00410181
0.0037016
0.00337514
0.00318041
0.00308313
0.00303948
0.00301678
0.00299276
0.00289829
0.00270725
0.00246866
0.00218841
0.00190048
0.00164862
0.00157178
0.00167192
0.0018286
0.00201168
0.00218649
0.00436773
0.00406488
0.00367321
0.00327312
0.00291212
0.00259789
0.00237834
0.00219914
0.00199958
0.00235653
0.00254814
0.00275868
0.00298097
0.00320669
0.00342634
0.00363181
0.00382656
0.00397652
0.00410759
0.00421717
0.00430561
0.00437816
0.00443864
0.00448222
0.00450887
0.00451643
0.00449622
0.00442084
0.00422347
0.00369591
0.00281142
0.00182535
0.00114141
0.000924277
0.00093069
0.000951855
0.000927357
0.000847978
0.000722584
0.00056793
0.000397319
0.000223236
1.69908e-05
0.00455536
0.00469588
0.00466116
0.0044573
0.00414174
0.00379906
0.00353174
0.00337266
0.00328878
0.00324419
0.00321144
0.00316982
0.00305883
0.00285595
0.00260643
0.00231926
0.00201596
0.00177791
0.00168775
0.00177331
0.0019214
0.00210299
0.00228587
0.00431142
0.00396617
0.00359934
0.00325457
0.00293721
0.00270883
0.00252889
0.00233416
0.00246227
0.00265715
0.0028662
0.00308333
0.00329994
0.00350793
0.00370192
0.00388091
0.00401772
0.00413795
0.00423477
0.00431093
0.00437148
0.00442065
0.0044547
0.00447398
0.00447583
0.00444942
0.00436442
0.00414065
0.00357441
0.00267002
0.00171502
0.00111607
0.000955879
0.000970591
0.000986664
0.000950689
0.000860049
0.000728763
0.000568868
0.000396677
0.000221752
1.66623e-05
0.00452445
0.00473729
0.00479904
0.00470211
0.00448985
0.0042081
0.00391952
0.00369894
0.00356588
0.00349012
0.00344119
0.00339451
0.00333425
0.00320884
0.00299529
0.00273299
0.00243676
0.00213706
0.00189874
0.00180766
0.00188449
0.00202692
0.00220887
0.00239728
0.00423357
0.00390827
0.00358754
0.00327341
0.00303871
0.00285786
0.00266695
0.00257862
0.00277434
0.00298078
0.00319077
0.00339704
0.00359334
0.00377421
0.00393769
0.00406161
0.00416907
0.00425297
0.00431657
0.00436518
0.00440328
0.0044282
0.00444044
0.00443647
0.00440394
0.00430602
0.00404955
0.00345161
0.00253423
0.00161752
0.00110561
0.000991367
0.00101415
0.00101968
0.000970534
0.000872404
0.000733542
0.000570597
0.000395867
0.000220612
1.63513e-05
0.00446903
0.00473751
0.00487412
0.00486237
0.00473985
0.00454129
0.00429795
0.00405555
0.00387104
0.00375651
0.00368417
0.00362722
0.00356362
0.00348559
0.00335055
0.00312135
0.00284652
0.00254266
0.00224578
0.00201505
0.00193354
0.0020051
0.00214608
0.00232869
0.00252065
0.00419227
0.00390317
0.00359971
0.0033626
0.00318161
0.00299403
0.00270485
0.00290065
0.00310227
0.003304
0.0034999
0.00368238
0.00385151
0.00399655
0.00410835
0.00420195
0.00427221
0.00432295
0.0043596
0.00438684
0.00440295
0.00440838
0.0043988
0.0043587
0.00424599
0.00395564
0.00332505
0.00239973
0.00153833
0.00110839
0.00103179
0.00105469
0.00104855
0.000990691
0.00088292
0.000739495
0.00057182
0.000396092
0.000219496
1.59747e-05
0.00444413
0.00470962
0.00490499
0.0049603
0.00491109
0.00478814
0.00461307
0.00440565
0.0042008
0.00404371
0.00394149
0.00386812
0.00379989
0.00371839
0.00362477
0.00347969
0.00323366
0.00294793
0.00264059
0.00234682
0.00213447
0.0020629
0.00213773
0.00227931
0.00246182
0.00265527
0.00419335
0.00390872
0.0036744
0.00349499
0.00331092
0.00284215
0.00303597
0.00323177
0.00342502
0.00360807
0.00377946
0.00393271
0.00405837
0.00415844
0.00423692
0.00429293
0.00433056
0.00435511
0.00437165
0.00437922
0.00437807
0.00436249
0.0043136
0.00418579
0.00385398
0.00319192
0.00227394
0.00147662
0.00112217
0.00107546
0.00109147
0.00107799
0.00100876
0.000895034
0.000744268
0.000575104
0.000396261
0.000218142
1.56863e-05
0.00445049
0.00469982
0.00490488
0.00501298
0.00502202
0.00496246
0.00485236
0.00470219
0.00452538
0.00435035
0.00421353
0.00411815
0.0040396
0.00395781
0.00385978
0.00375264
0.003592
0.00333275
0.00303913
0.00273033
0.00244827
0.00225394
0.00220318
0.00228311
0.00242601
0.00260758
0.00280272
0.0041928
0.00396746
0.00379223
0.00361257
0.0029904
0.00318082
0.00337083
0.00355291
0.00372514
0.00387983
0.00401722
0.00412529
0.0042116
0.00427425
0.00431568
0.00433967
0.00435204
0.00435803
0.00435726
0.00434964
0.00432747
0.00426959
0.00412182
0.00374708
0.0030672
0.00215529
0.00143205
0.00114749
0.00111696
0.00113072
0.00110483
0.00102888
0.000904929
0.000752497
0.000577919
0.000396581
0.000216973
1.49216e-05
0.00444472
0.00470891
0.00490901
0.00503315
0.0050879
0.00507917
0.00502525
0.00493213
0.00480408
0.0046522
0.00450035
0.00437765
0.00428413
0.00419722
0.00410028
0.00398806
0.00386851
0.00368965
0.00342007
0.00312114
0.00281699
0.00255119
0.00238769
0.0023537
0.00244004
0.00258694
0.00276846
0.0029627
0.00423494
0.00406717
0.00389343
0.00314941
0.00333663
0.00351783
0.00369024
0.00384799
0.00398726
0.00410666
0.00419863
0.00426781
0.00431443
0.00434036
0.00435048
0.00435072
0.00434627
0.00433743
0.00432311
0.00429441
0.00422496
0.00405495
0.00364513
0.00294174
0.00205114
0.00140607
0.00117696
0.00116106
0.00116701
0.00113426
0.00104543
0.000919937
0.000759406
0.00058203
0.000395905
0.000211673
0.00447046
0.00470049
0.00491873
0.00504801
0.00512071
0.00515161
0.00514343
0.0051015
0.00502426
0.0049143
0.00478218
0.00464775
0.0045337
0.00443781
0.00434111
0.00422792
0.00410366
0.00396932
0.00377457
0.00349738
0.00319783
0.00290424
0.00266543
0.00252693
0.00251418
0.00261134
0.00276662
0.0029435
0.00313438
0.00431374
0.0041479
0.00332036
0.00350145
0.00367447
0.0038345
0.00397713
0.00410108
0.00420021
0.00427526
0.00432734
0.00435664
0.00436682
0.00436316
0.00435134
0.00433681
0.00431985
0.00429913
0.00426254
0.00418021
0.00398968
0.00354178
0.00282715
0.00196381
0.0013921
0.00121262
0.00120335
0.00120682
0.00115862
0.0010687
0.000932454
0.000769806
0.000582656
0.000388145
0.00452677
0.00471112
0.00490973
0.00505863
0.00514274
0.00519088
0.00521835
0.00521914
0.00518942
0.00512495
0.00502912
0.00491221
0.00479003
0.00467981
0.00457859
0.00446967
0.00434247
0.00420634
0.00405794
0.00384922
0.00356794
0.00327366
0.00300052
0.00278822
0.00267877
0.00269221
0.00280347
0.00295853
0.00313107
0.0033186
0.00437082
0.00350088
0.00367554
0.00383811
0.00398432
0.00411216
0.00421671
0.00429754
0.00435497
0.00438825
0.00440006
0.00439498
0.00437772
0.00435434
0.00432982
0.0043052
0.00427733
0.00423259
0.00413655
0.00391704
0.00344113
0.0027225
0.00188848
0.00139091
0.00124987
0.00125069
0.00124009
0.00119071
0.00108849
0.000951564
0.000772619
0.000574947
0.00455839
0.0047398
0.0049064
0.00504874
0.00515432
0.00521706
0.00526014
0.00529463
0.00530586
0.00528581
0.00523076
0.00514558
0.00503978
0.00492523
0.00481482
0.00470568
0.00458577
0.00444411
0.00429412
0.00413332
0.00391628
0.00363638
0.00335629
0.00310534
0.00292813
0.00285565
0.0028953
0.00301066
0.00316319
0.00333171
0.00351257
0.00369007
0.00385597
0.00400627
0.0041383
0.00424762
0.00433408
0.00439687
0.00443449
0.00444887
0.00444451
0.00442455
0.00439447
0.00435987
0.004326
0.00429333
0.00425877
0.00420446
0.00409336
0.00384172
0.00334412
0.00261729
0.00182784
0.00139853
0.0012943
0.00129163
0.00128071
0.00121968
0.00111807
0.00095811
0.000768921
0.00474023
0.00490719
0.00503465
0.00514347
0.00522952
0.00528841
0.00533707
0.00538137
0.00540099
0.00538748
0.00533894
0.00526133
0.0051629
0.0050518
0.00493803
0.00482108
0.00468616
0.00453471
0.0043724
0.00419949
0.00398026
0.00370951
0.00344612
0.00322794
0.00309137
0.00305119
0.00311127
0.00323099
0.00338142
0.00354197
0.00371446
0.00388453
0.00403955
0.00417588
0.00429054
0.00438289
0.00445122
0.00449349
0.00451117
0.00450936
0.00448931
0.00445565
0.00441349
0.0043686
0.00432539
0.00428553
0.0042428
0.00417912
0.00405004
0.00376733
0.00324773
0.00251791
0.00178216
0.00141571
0.00133545
0.00133732
0.00132186
0.00125999
0.00113044
0.000962492
0.00487689
0.00501506
0.00512215
0.00521774
0.00530161
0.00536636
0.00542395
0.00547657
0.00550155
0.0054918
0.00544729
0.00537447
0.00527996
0.0051689
0.00505043
0.00492339
0.00477381
0.004611
0.00444205
0.00426157
0.00404701
0.00378821
0.0035531
0.00337212
0.00326892
0.00326619
0.00334102
0.00346532
0.0036086
0.00375864
0.00392005
0.00408047
0.00422197
0.00434219
0.00444098
0.00451506
0.00456229
0.00458394
0.00458633
0.0045686
0.0045345
0.00448836
0.0044354
0.00438069
0.00432932
0.00428098
0.00423135
0.00415479
0.00400836
0.00369219
0.00315286
0.00243036
0.00174505
0.00143594
0.00138022
0.00139121
0.00137272
0.00128113
0.00114693
0.00496287
0.00508984
0.00519221
0.00528903
0.00538015
0.00545387
0.00551947
0.00557742
0.00560494
0.00559672
0.0055541
0.00548351
0.00538992
0.00527676
0.00515145
0.00501335
0.00485218
0.00467888
0.00450388
0.00432473
0.00411838
0.00388274
0.00367987
0.00353855
0.00347557
0.00349669
0.00358544
0.00370687
0.00384192
0.00397804
0.00412653
0.00427367
0.00439878
0.00450505
0.00458497
0.00463731
0.00466362
0.00467162
0.00465835
0.00462665
0.00458022
0.00452323
0.0044605
0.0043975
0.00433707
0.0042821
0.00422187
0.00413341
0.00396665
0.00361402
0.00306759
0.00234544
0.00171248
0.00146198
0.00143323
0.0014501
0.00140233
0.00131289
0.00502438
0.00515337
0.00526134
0.00536689
0.00546813
0.00554997
0.00562097
0.00568134
0.00570913
0.00570062
0.00565801
0.00558736
0.00549254
0.00537508
0.00524243
0.00509336
0.00492061
0.004744
0.00456496
0.00439166
0.00420328
0.00399484
0.00382921
0.00372574
0.00369674
0.00374364
0.00383472
0.00395103
0.00407483
0.00419574
0.0043277
0.00445805
0.00457099
0.00465766
0.00471524
0.00474829
0.00476131
0.00475429
0.00472736
0.00468396
0.00462703
0.00456077
0.00449014
0.00441849
0.00435117
0.00428602
0.00421672
0.00411363
0.00392312
0.0035446
0.00298029
0.00225491
0.00169152
0.00149665
0.00149471
0.00149726
0.00145019
0.00508128
0.0052199
0.00533811
0.00545431
0.0055646
0.00565217
0.00572586
0.00578627
0.0058126
0.00580228
0.00575801
0.00568557
0.00558754
0.00546513
0.00532245
0.00516398
0.00498281
0.00480758
0.00462858
0.00446946
0.00430345
0.00412789
0.00399843
0.00392996
0.00393459
0.00399244
0.00408481
0.0041924
0.00430223
0.00440565
0.00451768
0.00463649
0.00473193
0.00479319
0.00483298
0.00485205
0.00485249
0.00483209
0.00479439
0.00474107
0.00467573
0.00460235
0.00452405
0.00444609
0.0043688
0.00429553
0.00421404
0.004093
0.00387964
0.00346509
0.00288613
0.00217664
0.00168016
0.00154089
0.00156781
0.00155035
0.00514525
0.00529595
0.00542484
0.00555034
0.0056671
0.00575787
0.00583199
0.00589067
0.00591418
0.0059008
0.00585358
0.00577783
0.00567545
0.00554684
0.00539695
0.0052247
0.00504315
0.00487091
0.00470066
0.00456037
0.00442204
0.00427944
0.00418709
0.00415293
0.0041766
0.00424167
0.00432956
0.0044259
0.00451928
0.00460143
0.00470042
0.00480416
0.00486896
0.00491528
0.00494247
0.00494798
0.00493693
0.00490686
0.00485985
0.00479915
0.00472773
0.00464804
0.0045645
0.00447779
0.00439297
0.00430776
0.00421267
0.00407377
0.00382503
0.00339598
0.00278915
0.00210526
0.00167737
0.00160659
0.00161567
0.00522065
0.00538243
0.00552019
0.00565247
0.00577306
0.00586491
0.00593778
0.00599338
0.00601305
0.00599566
0.0059444
0.00586434
0.0057585
0.00562144
0.0054655
0.00528247
0.00510557
0.00493852
0.0047837
0.00466711
0.00455712
0.00444882
0.00438805
0.00438103
0.00441826
0.00448396
0.0045643
0.00464625
0.00471926
0.00478846
0.00487225
0.00494185
0.00499354
0.00502904
0.00503922
0.0050389
0.00501762
0.00497867
0.00492536
0.00485974
0.00478353
0.00469995
0.0046094
0.00451656
0.00441988
0.00432345
0.00421136
0.00405004
0.00377903
0.0033013
0.00268841
0.00203487
0.00169075
0.00167345
0.00530704
0.0054774
0.00562157
0.00575813
0.00588036
0.0059717
0.00604204
0.00609361
0.00610868
0.00608654
0.0060305
0.00594626
0.00583459
0.00569036
0.00552686
0.00534187
0.00517277
0.00501455
0.00488008
0.00478833
0.0047077
0.0046301
0.00459752
0.00460932
0.00465224
0.00471473
0.00478412
0.00484723
0.00490902
0.00496299
0.00501036
0.00506674
0.0051103
0.00512644
0.00513525
0.0051239
0.00509394
0.00504974
0.00499264
0.00492373
0.00484512
0.0047565
0.00466148
0.004558
0.00445179
0.00433804
0.0042086
0.00403375
0.00370119
0.00322261
0.00257788
0.00195716
0.00175181
0.00540189
0.00557808
0.00572639
0.00586519
0.00598741
0.00607704
0.00614397
0.00619086
0.0062008
0.00617336
0.00611231
0.00602633
0.0059036
0.00575548
0.00558381
0.00540398
0.0052454
0.00510119
0.00498897
0.00492283
0.00486901
0.00481894
0.00480841
0.0048299
0.00487406
0.00493032
0.0049826
0.00503609
0.00508112
0.00510138
0.00513497
0.00518558
0.0052082
0.00522439
0.00522395
0.00520317
0.00516893
0.00512198
0.00506298
0.00499312
0.00491144
0.00482008
0.00471614
0.00460517
0.00448172
0.00435333
0.00421126
0.00399009
0.00364605
0.00311685
0.00244119
0.00194914
0.00550224
0.00568193
0.00583256
0.00597205
0.00609304
0.00618013
0.00624304
0.00628483
0.00628924
0.00625627
0.0061933
0.00609527
0.00596925
0.00581636
0.0056413
0.00547007
0.00532491
0.00519798
0.00510915
0.00506678
0.00503668
0.005009
0.00501178
0.00503838
0.00507917
0.00512059
0.00516487
0.00520134
0.00521911
0.00522572
0.00525473
0.00528369
0.0053067
0.00531668
0.00530485
0.00528076
0.00524469
0.00519706
0.00513841
0.00506731
0.00498449
0.00488611
0.00477665
0.00464963
0.00451358
0.00437118
0.00419306
0.00396888
0.00354364
0.0029917
0.00233076
0.00560557
0.00578693
0.00593849
0.00607754
0.00619646
0.00628044
0.00633898
0.00637534
0.00637401
0.00633714
0.00626646
0.00616017
0.00603187
0.00587515
0.00570081
0.00554105
0.00541102
0.00530378
0.00523751
0.00521603
0.00520513
0.00519269
0.00520358
0.00522992
0.00526096
0.00529473
0.00532423
0.00533948
0.00534394
0.00534532
0.00535275
0.00538232
0.00540135
0.00539825
0.00538402
0.0053589
0.00532319
0.00527702
0.00521871
0.00514788
0.00505988
0.00495773
0.00483378
0.00469658
0.00454442
0.00437385
0.00418684
0.00390219
0.00346313
0.00282691
0.00570989
0.00589156
0.00604305
0.00618086
0.00629716
0.00637772
0.00643156
0.00646225
0.00645578
0.0064155
0.00632876
0.00622351
0.00608994
0.00593258
0.00576301
0.00561658
0.0055028
0.00541609
0.00537031
0.00536573
0.00536801
0.00536563
0.00537928
0.00540029
0.00542543
0.00544884
0.00546078
0.00546304
0.00546037
0.00544292
0.00545138
0.00547799
0.00548316
0.00547827
0.0054637
0.0054398
0.00540649
0.00536198
0.00530508
0.00523068
0.0051404
0.00502534
0.00489327
0.00473755
0.00456437
0.00437903
0.00415959
0.00384699
0.00330831
0.00581372
0.00599472
0.00614541
0.00628148
0.00639487
0.00647169
0.00652056
0.00654562
0.00653704
0.00647684
0.00639198
0.00628122
0.00614416
0.0059888
0.00582764
0.00569568
0.00559849
0.00553167
0.0055033
0.0055105
0.00552126
0.00552411
0.00553598
0.00555307
0.00557107
0.0055799
0.00558027
0.00557451
0.00555712
0.00554143
0.00554702
0.00555981
0.00556355
0.00555887
0.00554624
0.00552553
0.00549492
0.00545273
0.00539359
0.00531803
0.00521624
0.00509451
0.00494224
0.00477258
0.00457836
0.00437483
0.00413056
0.00371706
0.00591592
0.00609561
0.00624507
0.00637912
0.00648931
0.00656212
0.00660565
0.00662872
0.00660116
0.00653856
0.0064493
0.00633256
0.00619439
0.00604344
0.00589375
0.00577685
0.00569569
0.005647
0.00563193
0.00564668
0.00566151
0.00566566
0.00567564
0.00568908
0.00569504