/*--------------------------------*- C++ -*----------------------------------*\
  =========                 |
  \\      /  F ield         | OpenFOAM: The Open Source CFD Toolbox
   \\    /   O peration     | Website:  https://openfoam.org
    \\  /    A nd           | Version:  8
     \\/     M anipulation  |
\*---------------------------------------------------------------------------*/
FoamFile
{
    version     2.0;
    format      ascii;
    class       volScalarField;
    location    "0.05";
    object      CH4;
}
// * * * * * * * * * * * * * * * * * * * * * * * * * * * * * * * * * * * * * //

dimensions      [0 0 0 0 0 0 0];

internalField   nonuniform List<scalar> 
3919
(
9.78154e-09
0.999652
1.51091e-08
1.58837e-08
0.998871
0.999948
2.84093e-08
2.39765e-08
2.54327e-08
0.997892
0.999823
0.999987
6.66515e-08
4.37138e-08
3.75383e-08
4.01516e-08
0.996802
0.999648
0.999953
0.999994
1.89746e-07
9.87011e-08
6.63774e-08
5.79972e-08
6.24708e-08
0.995641
0.999421
0.999901
0.999977
0.999992
6.46711e-07
2.69094e-07
1.44222e-07
9.95195e-08
8.83661e-08
9.58125e-08
0.994405
0.999139
0.999827
0.99995
0.999969
0.999977
2.41611e-06
8.76403e-07
3.76302e-07
2.08086e-07
1.47224e-07
1.32854e-07
1.44781e-07
0.993092
0.9988
0.999728
0.999908
0.999931
0.999914
0.999916
7.81863e-06
3.13967e-06
1.16938e-06
5.19326e-07
2.96376e-07
2.15085e-07
1.96953e-07
2.15596e-07
0.99169
0.998401
0.999599
0.999847
0.999872
0.999817
0.999701
0.999597
1.91209e-05
9.82132e-06
4.01334e-06
1.53789e-06
7.07579e-07
4.17027e-07
3.10177e-07
2.8802e-07
3.16436e-07
0.990204
0.997934
0.999435
0.999762
0.999787
0.999677
0.999389
0.99864
0.995855
3.85855e-05
2.3418e-05
1.21612e-05
5.0518e-06
1.99547e-06
9.52594e-07
5.7983e-07
4.41715e-07
4.15511e-07
4.57989e-07
0.988678
0.997395
0.99923
0.999645
0.999671
0.999489
0.998983
0.99738
0.987962
0.686628
7.1648e-05
4.6333e-05
2.83586e-05
1.4858e-05
6.26966e-06
2.55754e-06
1.26796e-06
7.96925e-07
6.21184e-07
5.91636e-07
6.53596e-07
0.987133
0.996778
0.998979
0.999492
0.999515
0.99925
0.998487
0.995877
0.97989
0.662099
0.511479
0.000130779
8.458e-05
5.51361e-05
3.3982e-05
1.79277e-05
7.68066e-06
3.2414e-06
1.66994e-06
1.08284e-06
8.63134e-07
8.31292e-07
9.2046e-07
0.985591
0.996084
0.998673
0.999294
0.999314
0.998953
0.997893
0.994179
0.971436
0.654622
0.529084
0.499732
0.000243458
0.00015199
9.90989e-05
6.50655e-05
4.03215e-05
2.13799e-05
9.30059e-06
4.06681e-06
2.17694e-06
1.45558e-06
1.18474e-06
1.15357e-06
1.27899e-06
0.984066
0.995308
0.998302
0.999041
0.999057
0.998587
0.997197
0.992176
0.962832
0.65846
0.543912
0.507793
0.492588
0.000472399
0.000278801
0.000175496
0.00011531
7.61859e-05
4.74019e-05
2.5224e-05
1.11444e-05
5.05541e-06
2.81125e-06
1.93546e-06
1.60786e-06
1.58052e-06
1.75428e-06
0.982571
0.99445
0.997853
0.998723
0.998731
0.998135
0.996333
0.989844
0.953497
0.665984
0.557044
0.515893
0.499524
0.486096
0.000922749
0.0005334
0.000317433
0.000201434
0.000133312
8.85573e-05
5.52451e-05
2.94545e-05
1.32302e-05
6.2326e-06
3.59693e-06
2.54785e-06
2.15673e-06
2.13912e-06
2.37694e-06
0.981121
0.993504
0.997313
0.99832
0.998316
0.997558
0.99526
0.986854
0.943255
0.674528
0.568682
0.524079
0.505734
0.492726
0.478748
0.00171693
0.00102829
0.000599123
0.000359508
0.000229932
0.000153207
0.000102238
6.38561e-05
3.40701e-05
1.55781e-05
7.62507e-06
4.56292e-06
3.32027e-06
2.86115e-06
2.86188e-06
3.18331e-06
0.979713
0.992458
0.996661
0.997815
0.997778
0.996813
0.993823
0.98305
0.932067
0.682913
0.578972
0.532279
0.511886
0.498538
0.48536
0.469744
0.00313125
0.00189216
0.00114033
0.000669693
0.000405157
0.000261123
0.000175098
0.000117275
7.32349e-05
3.90631e-05
1.82108e-05
9.26419e-06
5.74054e-06
4.28585e-06
3.7559e-06
3.78696e-06
4.21606e-06
0.978305
0.991296
0.995874
0.997172
0.997089
0.99581
0.991885
0.978
0.919817
0.691364
0.588658
0.540417
0.518278
0.504157
0.491136
0.476454
0.458407
0.00561578
0.00341551
0.00207584
0.00125892
0.000745197
0.000454543
0.000295166
0.000199075
0.000133705
8.3364e-05
4.44257e-05
2.11564e-05
1.11827e-05
7.16577e-06
5.48148e-06
4.88175e-06
4.95831e-06
5.5262e-06
0.989973
0.976426
0.994915
0.996358
0.996167
0.994471
0.989198
0.971393
0.906496
0.699294
0.598305
0.548566
0.52496
0.50996
0.496686
0.482339
0.465382
0.445383
0.00993588
0.00606758
0.00370988
0.00226782
0.00138411
0.00082582
0.000507872
0.000332188
0.000225229
0.000151551
9.42093e-05
5.01566e-05
2.44444e-05
1.34185e-05
8.87726e-06
6.9513e-06
6.28414e-06
6.42856e-06
7.17007e-06
0.993721
0.987989
0.974412
0.995297
0.994953
0.992592
0.985494
0.963038
0.892265
0.706811
0.608093
0.556906
0.53196
0.516093
0.50239
0.487994
0.471524
0.452755
0.431695
0.0173955
0.0106397
0.0065299
0.00401424
0.00246815
0.00151613
0.000911763
0.000565276
0.000372317
0.000253639
0.000170799
0.000105731
5.62505e-05
2.81108e-05
1.6011e-05
1.09214e-05
8.74154e-06
8.01753e-06
8.25481e-06
9.21743e-06
0.993908
0.991742
0.98572
0.972172
0.993286
0.990002
0.98041
0.952753
0.877444
0.713839
0.618072
0.565664
0.539357
0.52263
0.508415
0.493801
0.477424
0.459271
0.439545
0.417541
0.0302034
0.0184648
0.0113507
0.0070025
0.00432844
0.00267708
0.00165507
0.00100317
0.000626924
0.000415681
0.000284343
0.000191417
0.000117858
6.27164e-05
3.21945e-05
1.90058e-05
1.33448e-05
1.09082e-05
1.01402e-05
1.05083e-05
1.17488e-05
0.991017
0.991383
0.989322
0.98319
0.969651
0.986387
0.973612
0.940601
0.862258
0.720137
0.628166
0.575071
0.547265
0.529632
0.514857
0.499929
0.483474
0.465522
0.446505
0.425972
0.403099
0.0510758
0.0317638
0.0195264
0.0120672
0.00748487
0.00465249
0.00289471
0.00180115
0.00110029
0.000693
0.000462379
0.000317357
0.000213316
0.000130507
6.95681e-05
3.67385e-05
2.24497e-05
1.62051e-05
1.35113e-05
1.27254e-05
1.32715e-05
1.48515e-05
0.981409
0.986613
0.988133
0.986512
0.980381
0.96679
0.964853
0.926749
0.847247
0.725519
0.638356
0.585039
0.55579
0.537167
0.521783
0.506481
0.489848
0.471914
0.453165
0.433462
0.412235
0.388746
0.0815407
0.0531644
0.0332762
0.0205778
0.0127885
0.00797661
0.00498665
0.00312118
0.00195462
0.00120336
0.000763638
0.000512489
0.000352649
0.000236403
0.000143571
7.68251e-05
4.17873e-05
2.64015e-05
1.95626e-05
1.66257e-05
1.58577e-05
1.66337e-05
1.86209e-05
0.953967
0.972136
0.980857
0.984166
0.983265
0.977285
0.963556
0.911495
0.833023
0.729794
0.648572
0.595439
0.564968
0.545313
0.529253
0.513527
0.496651
0.478629
0.459954
0.440598
0.420357
0.398591
0.37479
0.122674
0.0839786
0.0551179
0.0347377
0.0216175
0.013514
0.00847788
0.00533087
0.00335671
0.00211568
0.00131248
0.00083897
0.000566069
0.000390181
0.000260523
0.000156945
8.45209e-05
4.73976e-05
3.09187e-05
2.3493e-05
2.0337e-05
1.9628e-05
2.06931e-05
2.31697e-05
0.895487
0.936909
0.960711
0.973669
0.979404
0.979615
0.973908
0.959955
0.820243
0.732844
0.658657
0.606255
0.574769
0.554124
0.537326
0.521128
0.503959
0.485775
0.46706
0.447837
0.428043
0.407425
0.385308
0.361403
0.174486
0.124999
0.0861416
0.0569383
0.0361479
0.0226452
0.0142439
0.00898857
0.00568526
0.00360133
0.00228438
0.00142782
0.000919084
0.000623116
0.000429833
0.000285478
0.000170539
9.27056e-05
5.36287e-05
3.6076e-05
2.80818e-05
2.47385e-05
2.4138e-05
2.55699e-05
2.86153e-05
0.809274
0.875036
0.918952
0.947569
0.965153
0.973919
0.975582
0.970248
0.955959
0.734978
0.668326
0.617428
0.585145
0.56361
0.546055
0.529331
0.511831
0.493431
0.474594
0.455379
0.435791
0.415728
0.394905
0.372615
0.354195
0.235571
0.175982
0.126877
0.0880483
0.0586323
0.0375085
0.0236616
0.0149778
0.0095088
0.00604977
0.00385513
0.00246084
0.00154942
0.00100403
0.000683534
0.000471434
0.00031103
0.000184296
0.000101446
6.05509e-05
4.19596e-05
3.34242e-05
2.99357e-05
2.95175e-05
3.13909e-05
3.50582e-05
0.736335
0.797962
0.857125
0.901546
0.933739
0.955632
0.967801
0.971204
0.966299
0.951535
0.677395
0.628801
0.596047
0.573735
0.555469
0.538183
0.520316
0.501658
0.482637
0.463338
0.443813
0.424037
0.40388
0.383127
0.366122
0.361401
0.303537
0.235383
0.176864
0.128357
0.0897239
0.0602106
0.0388235
0.0246674
0.0157162
0.0100383
0.00642422
0.00411801
0.00264491
0.00167727
0.00109373
0.000747183
0.000514688
0.000336927
0.000198188
0.000110826
6.82551e-05
4.86698e-05
3.96326e-05
3.60702e-05
3.59021e-05
3.82643e-05
4.26058e-05
0.685741
0.73759
0.789866
0.842709
0.885943
0.920124
0.945546
0.961192
0.966549
0.962068
0.94662
0.640172
0.607403
0.584434
0.565558
0.547715
0.529454
0.510508
0.491254
0.471797
0.45223
0.432578
0.41279
0.392952
0.377321
0.372616
0.37484
0.3756
0.300844
0.234464
0.177228
0.129498
0.091199
0.0616871
0.040097
0.0256637
0.0164588
0.0105767
0.00680827
0.00438947
0.0028364
0.00181127
0.00118807
0.000813851
0.000559259
0.000362883
0.000212247
0.000120952
7.68554e-05
5.63243e-05
4.68582e-05
4.32869e-05
4.34076e-05
4.63127e-05
5.1356e-05
0.651293
0.694902
0.739375
0.784472
0.831609
0.87273
0.90748
0.935492
0.954332
0.961686
0.95753
0.941117
0.619128
0.595621
0.576273
0.557937
0.539274
0.520021
0.500497
0.480823
0.461127
0.441478
0.421876
0.402648
0.387758
0.383132
0.385361
0.38888
0.448644
0.36977
0.297379
0.232963
0.177173
0.13036
0.0925064
0.0630754
0.041334
0.0266513
0.017205
0.0111231
0.00720091
0.00466894
0.00303491
0.00195119
0.00128681
0.000883225
0.000604723
0.000388576
0.000226564
0.000131961
8.64773e-05
6.50864e-05
5.52597e-05
5.17094e-05
5.21755e-05
5.56534e-05
6.13536e-05
0.630856
0.664129
0.703448
0.74198
0.781246
0.82353
0.862185
0.896587
0.926118
0.947459
0.956669
0.952658
0.934905
0.607188
0.587524
0.568819
0.549788
0.530225
0.510412
0.490474
0.470574
0.450826
0.431271
0.412456
0.39801
0.392959
0.394959
0.398723
0.403302
0.51953
0.439323
0.363203
0.293342
0.231027
0.1768
0.131005
0.0936775
0.0643897
0.0425383
0.0276298
0.0179535
0.0116759
0.00760095
0.00495552
0.00323981
0.00209654
0.0013896
0.000954864
0.000650622
0.000413803
0.000241292
0.000144032
9.72917e-05
7.51322e-05
6.49678e-05
6.15065e-05
6.23442e-05
6.63436e-05
7.26161e-05
0.618947
0.64462
0.676724
0.711414
0.74528
0.779935
0.818093
0.85423
0.88775
0.917818
0.940889
0.951569
0.947368
0.927831
0.59919
0.580289
0.560978
0.541131
0.521026
0.500795
0.480632
0.460696
0.44107
0.422518
0.40832
0.402657
0.403935
0.407556
0.412432
0.585564
0.506729
0.429368
0.356145
0.288931
0.2288
0.176203
0.131489
0.0947421
0.0656413
0.043712
0.0285983
0.0187017
0.0122327
0.00800658
0.00524794
0.00345038
0.00224684
0.00149598
0.00102833
0.000696498
0.000438444
0.000256722
0.000157334
0.000109519
8.66068e-05
7.61917e-05
7.28405e-05
7.39815e-05
7.84154e-05
8.51135e-05
0.611114
0.632711
0.658983
0.688081
0.719034
0.749234
0.780246
0.814824
0.848625
0.881053
0.91098
0.93489
0.946369
0.941493
0.919753
0.592229
0.57279
0.552727
0.532354
0.511821
0.491353
0.471153
0.451352
0.432932
0.418833
0.412468
0.412846
0.415858
0.420549
0.644746
0.569674
0.493414
0.419053
0.348838
0.284328
0.226408
0.175466
0.131861
0.095724
0.0668384
0.0448556
0.0295533
0.0194462
0.0127907
0.00841549
0.00554462
0.00366574
0.00240146
0.0016054
0.00110312
0.000741873
0.000462623
0.000273131
0.000172183
0.000123335
9.97658e-05
8.91203e-05
8.57893e-05
8.71352e-05
9.18526e-05
9.87725e-05
0.604485
0.625004
0.647696
0.671965
0.698523
0.726464
0.753752
0.78183
0.813436
0.845181
0.876325
0.90558
0.929446
0.940872
0.934777
0.910231
0.585123
0.564966
0.544385
0.523568
0.502776
0.482254
0.462187
0.443789
0.429661
0.42253
0.421933
0.424164
0.428229
0.695971
0.626456
0.553356
0.479902
0.408663
0.341499
0.27969
0.223962
0.174663
0.132161
0.0966404
0.0679851
0.045966
0.0304902
0.0201823
0.0133458
0.00882485
0.00584381
0.00388474
0.00255974
0.0017173
0.00117853
0.00078643
0.000486612
0.000290963
0.000188824
0.000139024
0.000114839
0.000103839
0.000100421
0.000101804
0.000106585
0.000113454
0.597831
0.618788
0.640324
0.661372
0.683848
0.708271
0.733764
0.758729
0.784483
0.813662
0.843476
0.8731
0.901179
0.924224
0.934815
0.926761
0.898952
0.577763
0.55708
0.536033
0.514924
0.494047
0.47364
0.455166
0.4409
0.432946
0.431328
0.432702
0.435971
0.739039
0.676116
0.607751
0.536971
0.46649
0.398437
0.334306
0.275145
0.221555
0.173846
0.132417
0.0975014
0.0690802
0.0470378
0.0314022
0.0209037
0.0138935
0.00923157
0.0061435
0.00410631
0.00272095
0.00183094
0.00125394
0.000829959
0.000510831
0.00031066
0.000207562
0.000156887
0.000131908
0.000120446
0.000116753
0.000117919
0.00012246
0.000129033
0.590982
0.612749
0.634612
0.654382
0.673887
0.694834
0.717462
0.740987
0.764116
0.788049
0.815075
0.843137
0.871417
0.898193
0.91962
0.928174
0.917346
0.885843
0.774458
0.570358
0.549179
0.5278
0.506564
0.485767
0.46714
0.452639
0.443802
0.441126
0.441598
0.443985
0.718421
0.655759
0.589016
0.520823
0.453439
0.388571
0.327404
0.270803
0.219248
0.173052
0.132644
0.0983081
0.0701177
0.0480619
0.0322805
0.0216035
0.0144286
0.00963219
0.00644179
0.00432926
0.00288444
0.00194572
0.00132893
0.000872244
0.000535982
0.000332653
0.000228788
0.000177012
0.000151123
0.000138983
0.000134711
0.000135303
0.000139339
0.00014533
0.584096
0.606599
0.629289
0.649138
0.667215
0.685429
0.705059
0.726218
0.748183
0.7699
0.792363
0.817805
0.844418
0.87126
0.896326
0.915331
0.920838
0.906405
0.870857
0.815638
0.753744
0.562933
0.541375
0.519815
0.49861
0.479775
0.464961
0.455179
0.451405
0.45094
0.452394
0.697144
0.635313
0.570587
0.505193
0.440957
0.379216
0.320909
0.266722
0.217079
0.172298
0.132844
0.0990539
0.0710863
0.0490265
0.033115
0.0222739
0.0149457
0.0100235
0.00673676
0.00455267
0.0030497
0.00206132
0.00140301
0.000913769
0.000562824
0.000357459
0.000252694
0.000199614
0.000172556
0.000159361
0.000154088
0.000153805
0.000157004
0.000162253
0.577178
0.60042
0.623958
0.644467
0.662338
0.678965
0.696115
0.714659
0.734661
0.755432
0.776109
0.797482
0.821628
0.846913
0.872171
0.895102
0.91098
0.912523
0.893823
0.854023
0.79549
0.732172
0.555582
0.533782
0.51219
0.493125
0.477938
0.467152
0.462237
0.460804
0.461282
0.675628
0.615147
0.552763
0.490304
0.429201
0.370486
0.314871
0.262942
0.215061
0.171583
0.133008
0.0997235
0.0719699
0.0499175
0.0338944
0.0229067
0.0154396
0.0104023
0.00702691
0.00477594
0.00321609
0.00217752
0.00147643
0.000955188
0.000592148
0.000385511
0.00027949
0.000224795
0.000196086
0.00018133
0.000174704
0.000173157
0.000175345
0.000179627
0.570308
0.594197
0.618609
0.639899
0.658209
0.674322
0.689782
0.70606
0.723792
0.742918
0.762861
0.78268
0.803223
0.826274
0.85023
0.873736
0.894015
0.906091
0.902968
0.879504
0.835482
0.774161
0.71015
0.548407
0.526503
0.507221
0.491628
0.479786
0.473687
0.471254
0.47072
0.654278
0.595586
0.535783
0.476319
0.418278
0.362424
0.30932
0.259459
0.213185
0.170889
0.133112
0.100295
0.0727488
0.050719
0.0346071
0.0234944
0.0159057
0.0107664
0.00731134
0.00499833
0.00338344
0.0022943
0.0015493
0.000997212
0.000624809
0.000417026
0.000309348
0.000252395
0.000221411
0.000204671
0.000196233
0.000193218
0.000194176
0.000197198
0.563579
0.587987
0.613198
0.635334
0.654304
0.670583
0.685251
0.699814
0.715454
0.732598
0.75117
0.770397
0.789562
0.809438
0.831467
0.854037
0.875454
0.892588
0.900228
0.891901
0.863438
0.815465
0.752041
0.688106
0.5415
0.522062
0.506067
0.493134
0.48581
0.482349
0.480768
0.633444
0.576891
0.519826
0.463338
0.408218
0.355034
0.304229
0.256247
0.211409
0.170177
0.133122
0.100738
0.0734004
0.0514148
0.0352423
0.0240301
0.0163405
0.0111144
0.00759001
0.00522011
0.00355178
0.00241153
0.00162171
0.00104104
0.000661429
0.000452205
0.000342043
0.000282033
0.000248251
0.000228977
0.000218479
0.000213769
0.000213353
0.0002144
0.557083
0.581871
0.607764
0.6307
0.650445
0.667207
0.681751
0.695301
0.709227
0.724444
0.741248
0.759389
0.778033
0.79669
0.815952
0.836939
0.857924
0.876878
0.890308
0.892984
0.879122
0.845707
0.794296
0.729571
0.666422
0.537609
0.521255
0.507228
0.498648
0.494134
0.491478
0.613419
0.559262
0.504987
0.451378
0.399
0.34826
0.299543
0.25323
0.20967
0.169392
0.132993
0.10102
0.0739007
0.0519891
0.0357906
0.0245092
0.0167422
0.0114464
0.00786377
0.00544205
0.00372135
0.00252928
0.00169448
0.00108772
0.000702252
0.000490883
0.00037709
0.000313342
0.000276089
0.00025397
0.000241157
0.000234771
0.000232386
0.000230051
0.553776
0.575928
0.602373
0.626018
0.646527
0.66394
0.67875
0.691907
0.704651
0.718175
0.733186
0.749843
0.767554
0.785756
0.803963
0.822569
0.842386
0.861491
0.877517
0.886717
0.884026
0.864546
0.826511
0.772371
0.707171
0.645424
0.537149
0.522067
0.512225
0.506643
0.50289
0.594433
0.542804
0.491275
0.440393
0.390532
0.342006
0.295143
0.250305
0.207884
0.168465
0.132673
0.101104
0.0742264
0.052429
0.0362458
0.0249295
0.0171112
0.0117638
0.00813418
0.00566546
0.00389328
0.00264848
0.00176815
0.00113801
0.000747405
0.000532375
0.000414002
0.000345642
0.00030452
0.000279256
0.000264337
0.00025579
0.000250393
0.000242537
0.553655
0.573051
0.597092
0.621339
0.642551
0.660644
0.675941
0.689137
0.701246
0.713461
0.7268
0.741813
0.758291
0.775678
0.793515
0.811241
0.82906
0.847477
0.864315
0.876917
0.881427
0.873144
0.848225
0.806154
0.750106
0.685219
0.625378
0.537612
0.526532
0.519887
0.515028
0.576604
0.52752
0.478624
0.430258
0.382674
0.336119
0.290894
0.247352
0.20595
0.167315
0.132107
0.100954
0.0743581
0.052726
0.0366056
0.0252924
0.0174504
0.0120697
0.00840416
0.00589264
0.00406923
0.00276927
0.00184363
0.00119229
0.000795971
0.000575929
0.000451825
0.000378345
0.000332984
0.000305006
0.000287629
0.000276258
0.000265825
0.00024766
0.553778
0.573131
0.594569
0.61672
0.638552
0.657297
0.673151
0.686648
0.698578
0.709946
0.721871
0.73523
0.750301
0.766607
0.783743
0.801219
0.818345
0.835159
0.851849
0.865974
0.874676
0.874149
0.860264
0.830345
0.785004
0.727906
0.664032
0.606424
0.541525
0.533847
0.527894
0.559947
0.513337
0.466888
0.420797
0.375241
0.330417
0.286624
0.244225
0.203755
0.165863
0.131238
0.100541
0.0742835
0.0528777
0.0368731
0.0256029
0.0177652
0.0123694
0.00867731
0.00612581
0.00424987
0.00289245
0.00192106
0.00124979
0.000846737
0.00062022
0.000489712
0.000410638
0.000361733
0.000330884
0.000310816
0.000294656
0.000274795
0.557105
0.573052
0.594669
0.614535
0.634577
0.653919
0.670333
0.684238
0.696284
0.707268
0.718158
0.730003
0.743531
0.758608
0.774789
0.791696
0.808727
0.825048
0.840554
0.855121
0.866074
0.870468
0.864721
0.845475
0.811209
0.763458
0.70613
0.643785
0.588598
0.548464
0.541459
0.544394
0.500102
0.455865
0.411793
0.368005
0.32469
0.282143
0.240786
0.201189
0.164028
0.130025
0.0998461
0.0740006
0.0528903
0.0370573
0.0258703
0.0180638
0.012669
0.00895723
0.00636662
0.00443578
0.00301733
0.0019994
0.00130902
0.000897903
0.000664001
0.000526477
0.000442803
0.000390529
0.000357041
0.000332418
0.000307547
0.563629
0.575945
0.594569
0.614644
0.632714
0.650546
0.667491
0.681838
0.694137
0.70506
0.715373
0.726001
0.737936
0.751655
0.766724
0.782807
0.799432
0.815849
0.831084
0.844911
0.856923
0.864276
0.864072
0.85314
0.828994
0.791174
0.741889
0.685006
0.624562
0.571846
0.555657
0.52979
0.487597
0.445313
0.402992
0.360727
0.318716
0.277286
0.236896
0.19815
0.161755
0.128444
0.0988683
0.0735197
0.0527785
0.0371733
0.0261078
0.0183566
0.012975
0.00924798
0.00661592
0.00462608
0.00314151
0.00207678
0.00136761
0.000947515
0.000705571
0.00056232
0.000474806
0.000419858
0.000382089
0.000349586
0.570375
0.581915
0.597107
0.614535
0.632824
0.648976
0.664648
0.679433
0.692044
0.70307
0.713154
0.72302
0.733563
0.745697
0.759549
0.774633
0.790593
0.806797
0.822347
0.836145
0.847884
0.85692
0.860329
0.855405
0.839532
0.811114
0.770592
0.720579
0.66467
0.606341
0.556025
0.515919
0.475569
0.434968
0.394131
0.353169
0.31231
0.271899
0.232438
0.194571
0.159021
0.126496
0.0976249
0.0728651
0.0525667
0.0372416
0.0263315
0.0186545
0.0132954
0.00955185
0.00687372
0.00481783
0.00326167
0.00215023
0.00142239
0.00099327
0.000744799
0.000597597
0.000507365
0.000448559
0.00040387
0.588046
0.602411
0.616733
0.632714
0.649081
0.663335
0.677032
0.689976
0.701188
0.711233
0.720708
0.730303
0.740895
0.753207
0.767189
0.782293
0.798019
0.813581
0.827943
0.839911
0.849152
0.854845
0.854091
0.844513
0.824123
0.792171
0.749806
0.699725
0.64515
0.589004
0.54093
0.502527
0.463751
0.424554
0.384969
0.345143
0.305308
0.265857
0.227346
0.19044
0.155835
0.124211
0.0961538
0.0720744
0.0522867
0.0372873
0.0265589
0.0189692
0.0136346
0.00986978
0.00713747
0.00500596
0.00337332
0.00221463
0.00147039
0.00103434
0.000782618
0.00063309
0.000539793
0.000475227
0.607816
0.621373
0.634589
0.648977
0.663431
0.675932
0.687928
0.699366
0.709478
0.718778
0.727824
0.737283
0.747973
0.760448
0.774564
0.789604
0.804905
0.819531
0.832336
0.842073
0.848446
0.850523
0.845548
0.831553
0.807221
0.772534
0.729064
0.679416
0.62637
0.572368
0.526311
0.489351
0.451869
0.41383
0.375321
0.336478
0.297586
0.259109
0.221626
0.185782
0.152245
0.121646
0.0945112
0.0711957
0.0519763
0.0373369
0.0268074
0.0193086
0.0139946
0.0101988
0.00740031
0.00518364
0.00346834
0.00226576
0.00150989
0.00107189
0.000819907
0.00066894
0.000571461
0.626064
0.638582
0.650557
0.663336
0.676019
0.686994
0.697587
0.707825
0.717081
0.72582
0.73457
0.743976
0.754756
0.767404
0.7816
0.796413
0.811019
0.824368
0.835228
0.842363
0.845571
0.843895
0.834793
0.816783
0.789165
0.752493
0.708525
0.659633
0.608192
0.556201
0.511912
0.47612
0.439679
0.402621
0.365018
0.327056
0.289116
0.25168
0.215324
0.180668
0.148333
0.118882
0.0927658
0.0702843
0.0516749
0.037416
0.0270893
0.0196765
0.0143717
0.01053
0.00765248
0.00533935
0.00353902
0.00230123
0.00154145
0.00110783
0.000858196
0.000705286
0.642591
0.653947
0.664659
0.675934
0.68707
0.696779
0.706244
0.715534
0.724122
0.732434
0.740977
0.75035
0.76123
0.774024
0.788172
0.802509
0.816107
0.82781
0.836351
0.840571
0.840442
0.835005
0.822026
0.800502
0.770276
0.732265
0.688238
0.640296
0.59042
0.540257
0.497472
0.462594
0.427014
0.390764
0.353946
0.316874
0.279939
0.24364
0.20854
0.175213
0.144209
0.116011
0.0909948
0.069396
0.0514181
0.0375422
0.0274104
0.0200682
0.0147545
0.010849
0.0078782
0.00546082
0.00358131
0.00232054
0.00156865
0.00114586
0.000897826
0.657335
0.667517
0.677044
0.686997
0.696841
0.705525
0.714093
0.722629
0.730684
0.738659
0.74704
0.756385
0.767352
0.780224
0.794081
0.807657
0.819908
0.829594
0.835487
0.836591
0.833065
0.824001
0.807506
0.783026
0.75081
0.711978
0.668193
0.62126
0.57284
0.524293
0.482757
0.448609
0.413726
0.378144
0.342123
0.305986
0.270146
0.23512
0.201417
0.169552
0.139993
0.113136
0.0892726
0.0685785
0.0512302
0.0377226
0.0277631
0.0204681
0.0151222
0.0111351
0.00806256
0.00553729
0.00359238
0.00232752
0.00159827
0.00118549
0.670368
0.679457
0.687939
0.696781
0.705573
0.713433
0.721281
0.729202
0.736817
0.744509
0.752734
0.762047
0.773051
0.78581
0.799114
0.811622
0.822168
0.829497
0.832508
0.8304
0.823544
0.811097
0.79152
0.764626
0.730957
0.691682
0.648297
0.602351
0.555232
0.508085
0.467602
0.434027
0.399696
0.364798
0.329619
0.294495
0.259901
0.226288
0.194121
0.163835
0.135812
0.11035
0.0876596
0.0678622
0.0511181
0.0379449
0.0281259
0.0208477
0.0154485
0.0113678
0.00818309
0.00556231
0.00357417
0.00233205
0.00163216
0.681872
0.689999
0.697598
0.705528
0.713465
0.720657
0.727912
0.735311
0.742542
0.749964
0.75803
0.767273
0.778183
0.790577
0.803064
0.814164
0.822663
0.827376
0.827363
0.822066
0.812054
0.796546
0.774335
0.745526
0.710821
0.671343
0.628421
0.583378
0.537389
0.491461
0.451871
0.418741
0.384969
0.350806
0.316539
0.282597
0.24939
0.217331
0.18682
0.158209
0.131777
0.107726
0.0861906
0.0672507
0.0510609
0.038177
0.0284568
0.0211703
0.0157004
0.0115152
0.00823379
0.00553336
0.00353668
0.00234771
0.692077
0.699388
0.706254
0.713436
0.720671
0.727303
0.734049
0.740984
0.747849
0.754997
0.762876
0.771957
0.782583
0.794361
0.805708
0.815068
0.821242
0.823161
0.820092
0.81173
0.798809
0.780597
0.75618
0.725872
0.69042
0.650875
0.60841
0.564155
0.51914
0.47429
0.43548
0.402787
0.369633
0.336277
0.303099
0.270489
0.238814
0.208439
0.179685
0.152803
0.127969
0.105299
0.0848625
0.0667104
0.0510106
0.0383592
0.0287034
0.0213881
0.0158397
0.0115699
0.00820502
0.00545634
0.00351079
0.70122
0.707846
0.714102
0.720659
0.727297
0.73344
0.739726
0.746219
0.752714
0.759566
0.767189
0.775964
0.786099
0.796955
0.806838
0.814176
0.817818
0.816863
0.810803
0.799578
0.784034
0.763469
0.737225
0.705722
0.669713
0.630162
0.588096
0.544511
0.500365
0.45652
0.418451
0.386256
0.353805
0.321431
0.289512
0.258384
0.228379
0.199794
0.172853
0.147701
0.124424
0.103057
0.0836257
0.0661712
0.0508838
0.0384175
0.0287995
0.021453
0.0158481
0.0115139
0.00810079
0.00537002
0.709508
0.715554
0.721289
0.727305
0.73341
0.739103
0.744949
0.750997
0.757101
0.7636
0.770857
0.779157
0.788545
0.798155
0.806302
0.811391
0.812379
0.808561
0.799652
0.785806
0.767927
0.745332
0.717556
0.685074
0.648619
0.609067
0.56733
0.524353
0.48104
0.438149
0.400871
0.369278
0.337701
0.306499
0.275995
0.246497
0.218279
0.191542
0.166408
0.142933
0.121114
0.100932
0.0823851
0.0655223
0.0505796
0.0382619
0.0286833
0.0213312
0.015706
0.0113584
0.00795387
0.71711
0.722646
0.727918
0.733441
0.739047
0.744302
0.749703
0.755283
0.760949
0.767008
0.773759
0.781379
0.7897
0.797819
0.803994
0.806678
0.804975
0.79838
0.786813
0.770595
0.750649
0.726288
0.697196
0.663879
0.627035
0.587457
0.546035
0.503663
0.461147
0.419257
0.382883
0.352062
0.321563
0.291703
0.262773
0.23503
0.208658
0.183762
0.160373
0.138457
0.117952
0.0988025
0.0810017
0.0646327
0.0499804
0.0378141
0.028305
0.0210103
0.0154235
0.0111296
0.724149
0.729217
0.734053
0.739102
0.744216
0.749022
0.753956
0.759027
0.76418
0.769683
0.775761
0.782443
0.78944
0.795837
0.799865
0.800065
0.795705
0.786469
0.772448
0.754095
0.732303
0.706376
0.676125
0.642064
0.604848
0.565273
0.524188
0.482416
0.440759
0.400006
0.364692
0.334855
0.305624
0.277271
0.250047
0.224124
0.199593
0.176466
0.154688
0.134164
0.114791
0.0965036
0.0793173
0.0633587
0.0489921
0.0370108
0.0276587
0.0204867
0.0150435
0.730708
0.735323
0.739726
0.744298
0.748904
0.753236
0.757662
0.762157
0.7667
0.771508
0.776706
0.782198
0.787654
0.792148
0.793918
0.791622
0.78469
0.77297
0.756695
0.736403
0.712934
0.685593
0.654292
0.619539
0.582013
0.542493
0.501784
0.460698
0.420063
0.380594
0.346547
0.317904
0.29011
0.263406
0.237959
0.21385
0.19108
0.169578
0.149226
0.129887
0.111446
0.0938551
0.077169
0.0615941
0.0475406
0.0358475
0.0267388
0.0198467
0.736836
0.740989
0.744944
0.749014
0.753083
0.756898
0.760757
0.76459
0.768402
0.772347
0.776447
0.780521
0.784266
0.786738
0.786201
0.781445
0.772049
0.758002
0.739645
0.717567
0.69255
0.663908
0.631632
0.596274
0.558521
0.519135
0.478917
0.438702
0.399247
0.361272
0.328705
0.301432
0.275224
0.250244
0.226568
0.204191
0.183031
0.162953
0.143799
0.12542
0.107718
0.0906829
0.074442
0.0592621
0.0456286
0.0343317
0.025685
0.742552
0.746216
0.74969
0.753223
0.756709
0.75995
0.763163
0.766228
0.769169
0.772064
0.774852
0.777328
0.779249
0.77963
0.776782
0.769628
0.757882
0.741649
0.721348
0.697602
0.671133
0.641278
0.608131
0.572279
0.534415
0.495309
0.455781
0.416616
0.378571
0.342311
0.311388
0.285639
0.261098
0.237837
0.21585
0.195046
0.175282
0.156387
0.138189
0.120557
0.103431
0.0868689
0.0710688
0.0563794
0.0432861
0.0326652
0.747847
0.750982
0.753934
0.75688
0.759724
0.762315
0.764787
0.766963
0.768874
0.77053
0.771798
0.772577
0.772609
0.770873
0.765732
0.756249
0.742257
0.723954
0.70182
0.676495
0.648658
0.617704
0.583819
0.547616
0.509813
0.471203
0.432577
0.394712
0.358317
0.32393
0.294793
0.270652
0.247775
0.22615
0.205687
0.186238
0.16762
0.149654
0.132185
0.11512
0.0984681
0.0823622
0.0670826
0.0530075
0.0407926
0.752697
0.755255
0.75763
0.759926
0.762054
0.763908
0.76553
0.766678
0.767391
0.767612
0.767235
0.766264
0.764379
0.760512
0.753105
0.741359
0.725209
0.704932
0.681056
0.654238
0.625143
0.593234
0.558775
0.522418
0.484913
0.447042
0.409585
0.373274
0.3387
0.306322
0.279043
0.256508
0.235211
0.215057
0.195897
0.177545
0.159815
0.142542
0.125612
0.109004
0.0927973
0.077214
0.06258
0.0495163
0.757066
0.758984
0.760714
0.762287
0.763612
0.76463
0.76528
0.765251
0.764591
0.763198
0.76115
0.758416
0.754589
0.748578
0.738933
0.724982
0.706749
0.684583
0.659057
0.630858
0.600651
0.567968
0.533152
0.496897
0.459958
0.423106
0.387085
0.352519
0.319909
0.289604
0.264169
0.243158
0.223274
0.204366
0.186249
0.168735
0.151653
0.134882
0.118379
0.102189
0.086489
0.0715542
0.0580243
0.760894
0.762099
0.763109
0.763874
0.764305
0.764378
0.76392
0.762554
0.760336
0.75728
0.75357
0.749055
0.743244
0.735084
0.723227
0.707124
0.686882
0.662918
0.635856
0.606428
0.575298
0.542073
0.50717
0.471304
0.435226
0.399675
0.365297
0.332627
0.302053
0.273801
0.250115
0.230461
0.211766
0.193846
0.176514
0.1596
0.142978
0.126597
0.110478
0.0947679
0.0797002
0.0659368
0.764105
0.764517
0.764724
0.764593
0.764029
0.763033
0.761322
0.758449
0.754551
0.749892
0.744525
0.738165
0.730338
0.720025
0.705988
0.687788
0.66562
0.639974
0.611535
0.581077
0.549265
0.515778
0.481091
0.445921
0.410996
0.376969
0.344397
0.313702
0.285148
0.258848
0.236737
0.218217
0.200455
0.183268
0.166488
0.149991
0.133722
0.11769
0.10202
0.0869166
0.0730701
0.766605
0.766142
0.765461
0.76434
0.762669
0.760472
0.757349
0.752804
0.747301
0.741082
0.733976
0.725721
0.715854
0.703396
0.687213
0.666989
0.643008
0.61584
0.586233
0.554996
0.522791
0.489353
0.455197
0.421026
0.38749
0.35516
0.324482
0.295753
0.269123
0.244599
0.223834
0.206194
0.189115
0.172435
0.156033
0.139854
0.123902
0.108287
0.0931953
0.0793519
0.768292
0.766869
0.765211
0.762999
0.7601
0.756557
0.751851
0.745654
0.738671
0.730793
0.721883
0.711697
0.69978
0.685195
0.666924
0.64478
0.619143
0.590665
0.560147
0.528428
0.496147
0.46308
0.429766
0.39684
0.364877
0.334342
0.305556
0.278704
0.253826
0.230849
0.211173
0.194171
0.177558
0.16122
0.145104
0.129213
0.113649
0.0985872
0.0847884
0.76905
0.766584
0.763855
0.760443
0.756185
0.751139
0.744787
0.737164
0.728582
0.718969
0.708211
0.696074
0.682112
0.665442
0.645177
0.621262
0.594177
0.56465
0.533524
0.501648
0.469618
0.437235
0.405015
0.373527
0.343245
0.314511
0.287539
0.262401
0.239056
0.217371
0.198539
0.181966
0.165664
0.149585
0.133733
0.118208
0.103175
0.0894344
0.768756
0.765165
0.761268
0.756536
0.750775
0.744111
0.736408
0.727233
0.716968
0.705568
0.692936
0.678847