/*--------------------------------*- C++ -*----------------------------------*\
  =========                 |
  \\      /  F ield         | OpenFOAM: The Open Source CFD Toolbox
   \\    /   O peration     | Website:  https://openfoam.org
    \\  /    A nd           | Version:  8
     \\/     M anipulation  |
\*---------------------------------------------------------------------------*/
FoamFile
{
    version     2.0;
    format      ascii;
    class       surfaceScalarField;
    location    "0.17";
    object      phi;
}
// * * * * * * * * * * * * * * * * * * * * * * * * * * * * * * * * * * * * * //

dimensions      [0 3 -1 0 0 0 0];

internalField   nonuniform List<scalar> 
31053
(
6.4018e-07
1.27398e-05
8.63228e-07
1.5157e-05
3.57467e-07
1.23824e-05
9.489e-07
1.75543e-05
5.67739e-07
1.49467e-05
2.75381e-07
1.2107e-05
9.73611e-07
2.02153e-05
6.82591e-07
1.74395e-05
4.71409e-07
1.47507e-05
2.16918e-07
1.18901e-05
9.65028e-07
2.32486e-05
7.41442e-07
2.01564e-05
5.97541e-07
1.73133e-05
3.97484e-07
1.45701e-05
1.72584e-07
1.17175e-05
9.35131e-07
2.66899e-05
7.66642e-07
2.32234e-05
6.72914e-07
2.00811e-05
5.25155e-07
1.71857e-05
3.33588e-07
1.44091e-05
1.38398e-07
1.15791e-05
8.89716e-07
3.06654e-05
7.6998e-07
2.66866e-05
7.15251e-07
2.3181e-05
6.06536e-07
1.99997e-05
4.56206e-07
1.70631e-05
2.79668e-07
1.42678e-05
1.11514e-07
1.14676e-05
8.31858e-07
3.51979e-05
7.57918e-07
3.06775e-05
7.35465e-07
2.66663e-05
6.55171e-07
2.31324e-05
5.37752e-07
1.99181e-05
3.93374e-07
1.69493e-05
2.33047e-07
1.41463e-05
8.92529e-08
1.13783e-05
7.65368e-07
4.03865e-05
7.34656e-07
3.52211e-05
7.40023e-07
3.06729e-05
6.81133e-07
2.66404e-05
5.87319e-07
2.30828e-05
4.71403e-07
1.98401e-05
3.35211e-07
1.68472e-05
1.91387e-07
1.40441e-05
6.98046e-08
1.13085e-05
6.92872e-07
4.63525e-05
7.01329e-07
4.04198e-05
7.3282e-07
3.52283e-05
6.90427e-07
3.06636e-05
6.1393e-07
2.66138e-05
5.18661e-07
2.30356e-05
4.06743e-07
1.97686e-05
2.80105e-07
1.67585e-05
1.52916e-07
1.3961e-05
5.20313e-08
1.12565e-05
6.16195e-07
5.32167e-05
6.59439e-07
4.63944e-05
7.1417e-07
4.04385e-05
6.85977e-07
3.52328e-05
6.23508e-07
3.0654e-05
5.42797e-07
2.65896e-05
4.48994e-07
2.29933e-05
3.42692e-07
1.9706e-05
2.26695e-07
1.66847e-05
1.16358e-07
1.38967e-05
3.51591e-08
1.12213e-05
5.37275e-07
6.10589e-05
6.10812e-07
5.32653e-05
6.84472e-07
4.64241e-05
6.70691e-07
4.04538e-05
6.19438e-07
3.52368e-05
5.49584e-07
3.06473e-05
4.68059e-07
2.65706e-05
3.77611e-07
2.29584e-05
2.78153e-07
1.96545e-05
1.73908e-07
1.66271e-05
8.07775e-08
1.38511e-05
1.86766e-08
1.12026e-05
4.57941e-07
7.00613e-05
5.57027e-07
6.11127e-05
6.44843e-07
5.33049e-05
6.45556e-07
4.64492e-05
6.03978e-07
4.04692e-05
5.42499e-07
3.52439e-05
4.69327e-07
3.0646e-05
3.89312e-07
2.65589e-05
3.03499e-07
2.29331e-05
2.12155e-07
1.96163e-05
1.20956e-07
1.6587e-05
4.54903e-08
1.38243e-05
2.3991e-09
1.12002e-05
3.79838e-07
8.04101e-05
4.995e-07
7.01189e-05
5.96542e-07
6.1161e-05
6.10619e-07
5.33399e-05
5.78258e-07
4.64749e-05
5.23522e-07
4.04882e-05
4.56189e-07
3.52571e-05
3.8261e-07
3.06527e-05
3.05571e-07
2.65568e-05
2.25695e-07
2.29195e-05
1.44035e-07
1.95932e-05
6.72355e-08
1.65652e-05
1.01199e-08
1.38166e-05
-1.38734e-08
1.12141e-05
3.16927e-07
7.62529e-05
4.39545e-07
8.04701e-05
5.41028e-07
7.01744e-05
5.66195e-07
6.12054e-05
5.42557e-07
5.33756e-05
4.93665e-07
4.65048e-05
4.30517e-07
4.05139e-05
3.60721e-07
3.5279e-05
2.88487e-07
3.06698e-05
2.15842e-07
2.65667e-05
1.43552e-07
2.292e-05
7.32817e-08
1.95872e-05
1.24076e-08
1.65629e-05
-2.55325e-08
1.38282e-05
-3.03143e-08
1.12444e-05
2.63591e-07
7.62433e-05
3.88181e-07
7.63043e-05
4.7997e-07
8.05311e-05
5.13005e-07
7.02276e-05
4.9697e-07
6.1251e-05
4.53283e-07
5.3416e-05
3.93203e-07
4.65421e-05
3.25405e-07
4.05492e-05
2.55203e-07
3.53122e-05
1.85932e-07
3.06997e-05
1.19446e-07
2.65908e-05
5.65794e-08
2.29367e-05
-3.03882e-10
1.95999e-05
-4.3631e-08
1.6581e-05
-6.16003e-08
1.38595e-05
-4.69206e-08
1.12913e-05
2.18587e-07
7.6235e-05
3.41741e-07
7.62898e-05
4.25916e-07
7.63583e-05
4.52256e-07
8.05919e-05
4.418e-07
7.02827e-05
4.0246e-07
6.13018e-05
3.44553e-07
5.34646e-05
2.77432e-07
4.65901e-05
2.07315e-07
4.05971e-05
1.38574e-07
3.53596e-05
7.42167e-08
3.07449e-05
1.58934e-08
2.66314e-05
-3.53247e-08
2.29717e-05
-7.66573e-08
1.96329e-05
-1.00837e-07
1.66203e-05
-9.79963e-08
1.39106e-05
-6.35248e-08
1.13549e-05
1.80821e-07
7.62298e-05
2.9984e-07
7.62769e-05
3.75754e-07
7.63399e-05
3.96836e-07
7.64137e-05
3.7789e-07
8.06558e-05
3.41339e-07
7.03439e-05
2.84646e-07
6.13617e-05
2.17008e-07
5.3525e-05
1.45446e-07
4.6652e-05
7.51452e-08
4.06605e-05
1.0049e-08
3.54238e-05
-4.71554e-08
3.0808e-05
-9.48667e-08
2.6691e-05
-1.31941e-07
2.3027e-05
-1.55505e-07
1.96876e-05
-1.58906e-07
1.66812e-05
-1.34441e-07
1.39815e-05
-7.99972e-08
1.14349e-05
1.4933e-07
7.62215e-05
2.62097e-07
7.62675e-05
3.29437e-07
7.63232e-05
3.44398e-07
7.63924e-05
3.18934e-07
7.64727e-05
2.70558e-07
8.07266e-05
2.13592e-07
7.04149e-05
1.44175e-07
6.14346e-05
6.96753e-08
5.36008e-05
-3.92779e-09
4.6731e-05
-7.19709e-08
4.07425e-05
-1.30879e-07
3.55075e-05
-1.78197e-07
3.08913e-05
-2.1248e-07
2.67715e-05
-2.32758e-07
2.31043e-05
-2.3624e-07
1.97649e-05
-2.17319e-07
1.6764e-05
-1.70577e-07
1.40721e-05
-9.60777e-08
1.15309e-05
1.23295e-07
7.6216e-05
2.28166e-07
7.62554e-05
2.86845e-07
7.63101e-05
2.95323e-07
7.63723e-05
2.628e-07
7.64485e-05
2.05167e-07
7.65381e-05
1.31995e-07
8.08082e-05
5.90528e-08
7.05e-05
-2.00201e-08
6.15243e-05
-9.87296e-08
5.36956e-05
-1.7166e-07
4.68307e-05
-2.34546e-07
4.08462e-05
-2.84184e-07
3.56135e-05
-3.18399e-07
3.09972e-05
-3.36209e-07
2.6875e-05
-3.36863e-07
2.32049e-05
-3.17989e-07
1.98656e-05
-2.75424e-07
1.68689e-05
-2.05923e-07
1.41819e-05
-1.11585e-07
1.16425e-05
1.01844e-07
7.62115e-05
1.97679e-07
7.62465e-05
2.47833e-07
7.62944e-05
2.49781e-07
7.63556e-05
2.10165e-07
7.64249e-05
1.4291e-07
7.65108e-05
5.69599e-08
7.66131e-05
-3.76788e-08
8.09049e-05
-1.23501e-07
7.06035e-05
-2.09364e-07
6.16349e-05
-2.8931e-07
5.38132e-05
-3.58275e-07
4.69544e-05
-4.12514e-07
4.09745e-05
-4.49182e-07
3.57443e-05
-4.66814e-07
3.11278e-05
-4.64835e-07
2.70029e-05
-4.42973e-07
2.33299e-05
-3.99718e-07
1.99899e-05
-3.32426e-07
1.69954e-05
-2.39988e-07
1.43103e-05
-1.2619e-07
1.17687e-05
8.54848e-08
6.95984e-05
1.70356e-07
7.62388e-05
2.12237e-07
7.62821e-05
2.07847e-07
7.63364e-05
1.6141e-07
7.64044e-05
8.47041e-08
7.64831e-05
-1.41914e-08
7.65819e-05
-1.25998e-07
7.67014e-05
-2.3994e-07
8.10213e-05
-3.35676e-07
7.07298e-05
-4.25132e-07
6.17707e-05
-5.02612e-07
5.39576e-05
-5.63672e-07
4.71056e-05
-6.05002e-07
4.11303e-05
-6.24709e-07
3.59022e-05
-6.21902e-07
3.12849e-05
-5.96659e-07
2.71566e-05
-5.49635e-07
2.34798e-05
-4.80223e-07
2.01377e-05
-3.87469e-07
1.71429e-05
-2.7216e-07
1.44563e-05
-1.39713e-07
1.19084e-05
7.29599e-08
6.25565e-05
1.4799e-07
6.96207e-05
1.79947e-07
7.62711e-05
1.69545e-07
7.63204e-05
1.16762e-07
7.6381e-05
3.11314e-08
7.6458e-05
-8.03364e-08
7.65493e-05
-2.09258e-07
7.66652e-05
-3.45493e-07
7.6807e-05
-4.76648e-07
8.11623e-05
-5.78968e-07
7.08837e-05
-6.67915e-07
6.1936e-05
-7.38515e-07
5.41324e-05
-7.86781e-07
4.72874e-05
-8.10625e-07
4.13162e-05
-8.08888e-07
3.60891e-05
-7.81532e-07
3.14698e-05
-7.29786e-07
2.73368e-05
-6.55154e-07
2.36547e-05
-5.5821e-07
2.03084e-05
-4.39582e-07
1.73103e-05
-3.01958e-07
1.46185e-05
-1.51699e-07
1.20601e-05
6.32005e-08
5.62278e-05
1.2985e-07
6.25747e-05
1.53279e-07
6.96474e-05
1.34894e-07
7.63057e-05
7.6365e-08
7.63608e-05
-1.74308e-08
7.64296e-05
-1.40703e-07
7.65183e-05
-2.86151e-07
7.66262e-05
-4.44414e-07
7.67641e-05
-6.03655e-07
7.6934e-05
-7.4958e-07
8.13329e-05
-8.5404e-07
7.10698e-05
-9.37593e-07
6.21351e-05
-9.95746e-07
5.43414e-05
-1.02598e-06
4.75027e-05
-1.02714e-06
4.15345e-05
-9.9912e-07
3.63067e-05
-9.43335e-07
3.16833e-05
-8.61987e-07
2.75436e-05
-7.57745e-07
2.38543e-05
-6.32263e-07
2.05011e-05
-4.87927e-07
1.74963e-05
-3.2845e-07
1.47953e-05
-1.6139e-07
1.22215e-05
5.54823e-08
5.05397e-05
1.15031e-07
5.62426e-05
1.31525e-07
6.25964e-05
1.06445e-07
6.96758e-05
4.03146e-08
7.63418e-05
-6.07308e-08
7.64041e-05
-1.94756e-07
7.64836e-05
-3.55711e-07
7.65879e-05
-5.352e-07
7.6717e-05
-7.22077e-07
7.68825e-05
-9.0256e-07
7.7087e-05
-1.05952e-06
8.15384e-05
-1.16081e-06
7.1293e-05
-1.2327e-06
6.23721e-05
-1.27245e-06
5.45879e-05
-1.27863e-06
4.77542e-05
-1.25143e-06
4.17868e-05
-1.19253e-06
3.65559e-05
-1.10453e-06
3.19259e-05
-9.90962e-07
2.77768e-05
-8.55479e-07
2.40775e-05
-7.01128e-07
2.07143e-05
-5.31124e-07
1.76989e-05
-3.5099e-07
1.49849e-05
-1.68802e-07
1.23903e-05
4.92979e-08
4.54262e-05
1.02831e-07
5.05519e-05
1.13683e-07
5.62604e-05
8.34566e-08
6.26194e-05
1.12347e-08
6.97049e-05
-9.85969e-08
7.63796e-05
-2.42127e-07
7.64515e-05
-4.17233e-07
7.65452e-05
-6.16683e-07
7.66694e-05
-8.30198e-07
7.68251e-05
-1.04465e-06
7.70246e-05
-1.24315e-06
7.72706e-05
-1.40648e-06
8.17841e-05
-1.49764e-06
7.15579e-05
-1.55113e-06
6.26507e-05
-1.56555e-06
5.48748e-05
-1.54108e-06
4.80439e-05
-1.48011e-06
4.20744e-05
-1.38577e-06
3.68372e-05
-1.26226e-06
3.21972e-05
-1.1142e-06
2.80356e-05
-9.46612e-07
2.4323e-05
-7.62978e-07
2.09461e-05
-5.68408e-07
1.79164e-05
-3.66168e-07
1.51823e-05
-1.35302e-07
1.25256e-05
4.42839e-08
4.0831e-05
9.27112e-08
4.54363e-05
9.89691e-08
5.05666e-05
6.48502e-08
5.6279e-05
-1.1762e-08
6.26424e-05
-1.28337e-07
6.97347e-05
-2.82557e-07
7.64201e-05
-4.70214e-07
7.65045e-05
-6.87968e-07
7.66164e-05
-9.26621e-07
7.67658e-05
-1.17387e-06
7.69543e-05
-1.41325e-06
7.71947e-05
-1.62557e-06
7.74897e-05
-1.78868e-06
8.20751e-05
-1.8622e-06
7.1869e-05
-1.88941e-06
6.29746e-05
-1.87085e-06
5.52046e-05
-1.80937e-06
4.83731e-05
-1.70917e-06
4.23978e-05
-1.57534e-06
3.71502e-05
-1.41338e-06
3.24963e-05
-1.22943e-06
2.83184e-05
-1.02887e-06
2.45889e-05
-8.16629e-07
2.11944e-05
-5.94863e-07
1.81451e-05
-3.58425e-07
1.54054e-05
-8.5253e-08
1.26109e-05
4.01735e-08
3.67001e-05
8.42616e-08
4.08395e-05
8.67688e-08
4.54485e-05
4.97612e-08
5.05817e-05
-2.99022e-08
5.62972e-05
-1.51088e-07
6.26652e-05
-3.1327e-07
6.97654e-05
-5.14293e-07
7.64641e-05
-7.48392e-07
7.65649e-05
-1.01024e-06
7.67001e-05
-1.28857e-06
7.68805e-05
-1.56756e-06
7.71086e-05
-1.82823e-06
7.73974e-05
-2.04798e-06
7.7749e-05
-2.20364e-06
8.24165e-05
-2.25063e-06
7.22302e-05
-2.24273e-06
6.33465e-05
-2.18376e-06
5.55789e-05
-2.07876e-06
4.87427e-05
-1.93441e-06
4.27568e-05
-1.75741e-06
3.74943e-05
-1.55504e-06
3.28219e-05
-1.3339e-06
2.86234e-05
-1.10054e-06
2.48728e-05
-8.57318e-07
2.14568e-05
-6.03567e-07
1.83902e-05
-3.31796e-07
1.56519e-05
-6.42321e-08
1.26751e-05
3.67679e-08
3.29894e-05
7.71754e-08
3.67072e-05
7.66065e-08
4.08496e-05
3.75053e-08
4.54608e-05
-4.41777e-08
5.0596e-05
-1.68316e-07
5.63144e-05
-3.35752e-07
6.26876e-05
-5.4656e-07
6.97976e-05
-7.9747e-07
7.65132e-05
-1.08019e-06
7.66348e-05
-1.3874e-06
7.67989e-05
-1.70414e-06
7.70171e-05
-2.01185e-06
7.72922e-05
-2.28774e-06
7.76371e-05
-2.50786e-06
7.80532e-05
-2.64715e-06
8.28131e-05
-2.65748e-06
7.2645e-05
-2.60581e-06
6.37685e-05
-2.49872e-06
5.59989e-05
-2.34431e-06
4.91526e-05
-2.15128e-06
4.31507e-05
-1.92854e-06
3.78678e-05
-1.68405e-06
3.31721e-05
-1.42543e-06
2.89483e-05
-1.15744e-06
2.51729e-05
-8.80393e-07
2.17336e-05
-5.99283e-07
1.86577e-05
-3.07858e-07
1.58955e-05
-5.83004e-08
1.27334e-05
3.39195e-08
2.96508e-05
7.12101e-08
3.29954e-05
6.81164e-08
3.67157e-05
2.75246e-08
4.08596e-05
-5.53854e-08
4.5472e-05
-1.81212e-07
5.06089e-05
-3.51807e-07
5.63305e-05
-5.68961e-07
6.271e-05
-8.32085e-07
6.98323e-05
-1.13585e-06
7.65689e-05
-1.46928e-06
7.67167e-05
-1.82132e-06
7.69161e-05
-2.17416e-06
7.71794e-05
-2.50499e-06
7.75095e-05
-2.78932e-06
7.79186e-05
-3.00076e-06
7.84068e-05
-3.11309e-06
8.32687e-05
-3.07675e-06
7.31159e-05
-2.97226e-06
6.42421e-05
-2.81003e-06
5.64646e-05
-2.60071e-06
4.96021e-05
-2.35577e-06
4.35779e-05
-2.08508e-06
3.82688e-05
-1.79774e-06
3.35444e-05
-1.50033e-06
2.92912e-05
-1.19591e-06
2.54884e-05
-8.9112e-07
2.20255e-05
-5.91298e-07
1.89411e-05
-2.94706e-07
1.61319e-05
-6.23591e-08
1.27958e-05
3.1517e-08
2.66504e-05
6.61696e-08
2.96559e-05
6.10059e-08
3.30025e-05
1.93611e-08
3.67239e-05
-6.41681e-08
4.08684e-05
-1.90728e-07
4.54815e-05
-3.6289e-07
5.062e-05
-5.83734e-07
5.63452e-05
-8.5475e-07
6.27327e-05
-1.17379e-06
6.98702e-05
-1.53338e-06
7.6633e-05
-1.91778e-06
7.68132e-05
-2.31315e-06
7.70551e-05
-2.69704e-06
7.73714e-05
-3.04463e-06
7.77648e-05
-3.32841e-06
7.82462e-05
-3.52004e-06
7.88138e-05
-3.59484e-06
8.37868e-05
-3.50126e-06
7.36449e-05
-3.3356e-06
6.47676e-05
-3.11158e-06
5.69755e-05
-2.84327e-06
5.00896e-05
-2.54361e-06
4.40365e-05
-2.22388e-06
3.8695e-05
-1.89279e-06
3.39369e-05
-1.5557e-06
2.9651e-05
-1.22053e-06
2.58178e-05
-8.96753e-07
2.23309e-05
-5.85173e-07
1.92316e-05
-2.90967e-07
1.63606e-05
-8.57227e-08
1.28815e-05
2.9476e-08
2.3956e-05
6.18892e-08
2.66547e-05
5.50349e-08
2.96619e-05
1.26508e-08
3.30092e-05
-7.10423e-08
3.67307e-05
-1.97628e-07
4.08753e-05
-3.70167e-07
4.54888e-05
-5.92685e-07
5.06289e-05
-8.68251e-07
5.63587e-05
-1.19721e-06
6.27561e-05
-1.57586e-06
6.99127e-05
-1.99245e-06
7.67076e-05
-2.42717e-06
7.69272e-05
-2.8615e-06
7.72195e-05
-3.27066e-06
7.75975e-05
-3.62618e-06
7.80626e-05
-3.89796e-06
7.86242e-05
-4.05864e-06
7.92776e-05
-4.08441e-06
8.43699e-05
-3.92367e-06
7.4233e-05
-3.68877e-06
6.53448e-05
-3.39785e-06
5.75301e-05
-3.06706e-06
5.0613e-05
-2.7112e-06
4.45238e-05
-2.3418e-06
3.9144e-05
-1.96685e-06
3.4348e-05
-1.59512e-06
3.00256e-05
-1.23761e-06
2.61587e-05
-9.00648e-07
2.26464e-05
-5.82155e-07
1.95228e-05
-3.59854e-07
1.66347e-05
-9.42462e-08
1.29757e-05
2.77315e-08
2.15337e-05
5.8234e-08
2.39597e-05
5.00018e-08
2.66597e-05
7.11091e-09
2.96674e-05
-7.64194e-08
3.30146e-05
-2.02513e-07
3.67356e-05
-3.74563e-07
4.08797e-05
-5.97256e-07
4.54933e-05
-8.74834e-07
5.06355e-05
-1.20955e-06
5.63711e-05
-1.6007e-06
6.2781e-05
-2.04092e-06
6.99612e-05
-2.51488e-06
7.67954e-05
-2.99634e-06
7.70621e-05
-3.46456e-06
7.74134e-05
-3.89048e-06
7.78618e-05
-4.24244e-06
7.84071e-05
-4.49063e-06
7.90561e-05
-4.60798e-06
7.98011e-05
-4.57356e-06
8.50198e-05
-4.33586e-06
7.48801e-05
-4.02537e-06
6.59723e-05
-3.66319e-06
5.81262e-05
-3.26794e-06
5.11698e-05
-2.85538e-06
4.50374e-05
-2.43678e-06
3.96139e-05
-2.02247e-06
3.47754e-05
-1.62378e-06
3.04117e-05
-1.24989e-06
2.65079e-05
-9.03166e-07
2.29674e-05
-7.16741e-07
1.98797e-05
-3.59529e-07
1.69e-05
-1.03491e-07
1.30792e-05
2.62327e-08
1.93535e-05
5.50979e-08
2.15369e-05
4.57396e-08
2.3964e-05
2.52383e-09
2.66643e-05
-8.06206e-08
2.96716e-05
-2.0586e-07
3.30179e-05
-3.76802e-07
3.67378e-05
-5.98583e-07
4.0881e-05
-8.76287e-07
4.54948e-05
-1.21361e-06
5.06396e-05
-1.61214e-06
5.63825e-05
-2.06806e-06
6.28081e-05
-2.5711e-06
7.00174e-05
-3.0999e-06
7.68989e-05
-3.62388e-06
7.72214e-05
-4.11796e-06
7.76409e-05
-4.5493e-06
7.81686e-05
-4.88587e-06
7.88023e-05
-5.09735e-06
7.95455e-05
-5.15902e-06
8.03866e-05
-5.05305e-06
8.5737e-05
-4.73048e-06
7.55852e-05
-4.33889e-06
6.6648e-05
-3.90283e-06
5.87611e-05
-3.44258e-06
5.1757e-05
-2.97415e-06
4.55747e-05
-2.51046e-06
4.01019e-05
-2.06373e-06
3.52153e-05
-1.64401e-06
3.08059e-05
-1.25755e-06
2.68623e-05
-1.11572e-06
2.33664e-05
-7.08533e-07
2.02287e-05
-3.59561e-07
1.7156e-05
-1.10648e-07
1.31899e-05
1.73973e-05
2.4939e-08
5.23964e-08
1.93562e-05
4.21134e-08
2.15405e-05
-1.28308e-09
2.39678e-05
-8.38969e-08
2.66676e-05
-2.08038e-07
2.96738e-05
-3.77451e-07
3.30186e-05
-5.97555e-07
3.67368e-05
-8.74016e-07
4.08787e-05
-1.21158e-06
4.54928e-05
-1.61359e-06
5.0641e-05
-2.07902e-06
5.63935e-05
-2.60168e-06
6.28387e-05
-3.16595e-06
7.00834e-05
-3.74649e-06
7.70215e-05
-4.30565e-06
7.74091e-05
-4.81464e-06
7.79062e-05
-5.23958e-06
7.85223e-05
-5.54705e-06
7.9252e-05
-5.70845e-06
8.00949e-05
-5.7016e-06
8.10352e-05
-5.51453e-06
8.65211e-05
-5.10006e-06
7.63464e-05
-4.62386e-06
6.73691e-05
-4.11305e-06
5.94316e-05
-3.58875e-06
5.23716e-05
-3.06827e-06
4.61326e-05
-2.56584e-06
4.0604e-05
-2.09258e-06
3.56639e-05
-1.65613e-06
3.12044e-05
-1.55656e-06
2.73031e-05
-1.10283e-06
2.37607e-05
-6.97993e-07
2.05671e-05
-3.57447e-07
1.74028e-05
-1.15334e-07
1.33052e-05
1.73996e-05
5.00575e-08
2.78121e-05
2.28319e-08
3.90153e-08
1.93593e-05
-4.45162e-09
2.15437e-05
-8.64445e-08
2.39703e-05
-2.09336e-07
2.66689e-05
-3.7695e-07
2.96733e-05
-5.94859e-07
3.30159e-05
-8.69114e-07
3.67319e-05
-1.2052e-06
4.08724e-05
-1.60779e-06
4.5487e-05
-2.07796e-06
5.064e-05
-2.61282e-06
5.64046e-05
-3.20144e-06
6.28742e-05
-3.82491e-06
7.01618e-05
-4.45095e-06
7.71668e-05
-5.0349e-06
7.76293e-05
-5.54721e-06
7.82139e-05
-5.95167e-06
7.8927e-05
-6.21584e-06
7.97594e-05
-6.313e-06
8.07063e-05
-6.22651e-06
8.17471e-05
-5.94942e-06
8.73704e-05
-5.43823e-06
7.71607e-05
-4.8759e-06
6.81319e-05
-4.29118e-06
6.0134e-05
-3.70641e-06
5.30097e-05
-3.13981e-06
4.67065e-05
-2.6045e-06
4.11159e-05
-2.10947e-06
3.61172e-05
-2.05125e-06
3.16991e-05
-1.53989e-06
2.77402e-05
-1.08326e-06
2.4146e-05
-6.83668e-07
2.08933e-05
-3.52451e-07
1.764e-05
-1.17568e-07
1.34228e-05
1.74023e-05
3.63591e-08
2.78159e-05
4.62744e-08
2.8552e-05
2.08213e-08
-7.09725e-09
1.93619e-05
-8.84176e-08
2.15456e-05
-2.09979e-07
2.3971e-05
-3.75636e-07
2.66676e-05
-5.91024e-07
2.96694e-05
-8.62426e-07
3.30092e-05
-1.19584e-06
3.67226e-05
-1.59686e-06
4.08614e-05
-2.0682e-06
4.54772e-05
-2.60952e-06
5.06367e-05
-3.2137e-06
5.64169e-05
-3.86718e-06
6.29164e-05
-4.54468e-06
7.02556e-05
-5.20688e-06
7.73388e-05
-5.80454e-06
7.78866e-05
-6.30599e-06
7.85682e-05
-6.67517e-06
7.93863e-05
-6.8807e-06
8.03271e-05
-6.90098e-06
8.13808e-05
-6.72413e-06
8.25219e-05
-6.35026e-06
8.82824e-05
-5.73979e-06
7.80246e-05
-5.09173e-06
6.89325e-05
-4.4364e-06
6.0864e-05
-3.79678e-06
5.36667e-05
-3.18994e-06
4.7292e-05
-2.62699e-06
4.16334e-05
-2.61347e-06
3.66794e-05
-2.02986e-06
3.21891e-05
-1.51194e-06
2.81689e-05
-1.05693e-06
2.45192e-05
-6.65221e-07
2.12061e-05
-3.44551e-07
1.78669e-05
-1.17689e-07
1.35405e-05
1.74045e-05
-9.31626e-09
2.78196e-05
3.26027e-08
2.85557e-05
4.26336e-08
2.93119e-05
1.89106e-08
-8.99377e-08
1.93635e-05
-2.10138e-07
2.15458e-05
-3.73769e-07
2.39691e-05
-5.86453e-07
2.6663e-05
-8.54593e-07
2.96616e-05
-1.18451e-06
3.29979e-05
-1.58246e-06
3.67081e-05
-2.05234e-06
4.08456e-05
-2.59579e-06
4.54635e-05
-3.20871e-06
5.06317e-05
-3.88189e-06
5.64316e-05
-4.59604e-06
6.29678e-05
-5.31936e-06
7.03681e-05
-6.00768e-06
7.7542e-05
-6.60503e-06
7.81857e-05
-7.08047e-06
7.89735e-05
-7.39805e-06
7.99036e-05
-7.53094e-06
8.0957e-05
-7.46184e-06
8.21185e-05
-7.186e-06
8.33576e-05
-6.71086e-06
8.92535e-05
-6.00061e-06
7.89335e-05
-5.26969e-06
6.97658e-05
-4.54912e-06
6.16163e-05
-3.86063e-06
5.43374e-05
-3.2193e-06
4.78843e-05
-3.25556e-06
4.22755e-05
-2.58641e-06
3.7236e-05
-1.99259e-06
3.26697e-05
-1.47371e-06
2.85857e-05
-1.02434e-06
2.48783e-05
-6.43007e-07
2.15046e-05
-3.34107e-07
1.80834e-05
-1.16084e-07
1.36566e-05
1.74057e-05
-9.11013e-08
2.78218e-05
-1.14449e-08
2.85592e-05
2.90694e-08
2.93154e-05
3.91403e-08
3.00898e-05
1.71004e-08
-2.09947e-07
1.93633e-05
-3.71543e-07
2.15436e-05
-5.81449e-07
2.39641e-05
-8.46103e-07
2.66545e-05
-1.172e-06
2.96491e-05
-1.56585e-06
3.29812e-05
-2.03241e-06
3.66882e-05
-2.57477e-06
4.08246e-05
-3.19122e-06
4.5446e-05
-3.87607e-06
5.06258e-05
-4.61496e-06
5.64505e-05
-5.38262e-06
6.30311e-05
-6.14287e-06
7.05032e-05
-6.84415e-06
7.77811e-05
-7.42598e-06
7.85312e-05
-7.85836e-06
7.94338e-05
-8.10912e-06
8.04818e-05
-8.15512e-06
8.16503e-05
-7.9861e-06
8.29186e-05
-7.60488e-06
8.42516e-05
-7.026e-06
9.02789e-05
-6.21813e-06
7.9882e-05
-5.40947e-06
7.06261e-05
-4.62973e-06
6.23854e-05
-3.89864e-06
5.50167e-05
-3.99116e-06
4.86199e-05
-3.22234e-06
4.29115e-05
-2.53852e-06
3.77819e-05
-1.94139e-06
3.31374e-05
-1.42656e-06
2.89879e-05
-9.86525e-07
2.52219e-05
-6.17694e-07
2.17881e-05
-3.21616e-07
1.82889e-05
-1.13142e-07
1.37697e-05
1.74052e-05
-2.0951e-07
2.78206e-05
-8.99466e-08
2.8561e-05
-1.32965e-08
2.93187e-05
2.57579e-08
3.00932e-05
3.5796e-08
3.08897e-05
1.5391e-08
-3.69109e-07
1.93608e-05
-5.76238e-07
2.15384e-05
-8.37314e-07
2.39553e-05
-1.15891e-06
2.66414e-05
-1.548e-06
2.96313e-05
-2.00994e-06
3.29588e-05
-2.54891e-06
3.66624e-05
-3.16502e-06
4.07984e-05
-3.85535e-06
4.54253e-05
-4.60959e-06
5.06205e-05
-5.40801e-06
5.64759e-05
-6.2214e-06
6.31096e-05
-7.00647e-06
7.06656e-05
-7.70618e-06
7.80613e-05
-8.25502e-06
7.89279e-05
-8.62813e-06
7.99528e-05
-8.79622e-06
8.11229e-05
-8.74287e-06
8.24071e-05
-8.46551e-06
8.37792e-05
-7.97451e-06
8.52001e-05
-7.29207e-06
9.13528e-05
-6.39126e-06
8.08637e-05
-5.511e-06
7.15074e-05
-4.67891e-06
6.31657e-05
-4.83604e-06
5.58616e-05
-3.95168e-06
4.93492e-05
-3.16272e-06
4.35357e-05
-2.4727e-06
3.83132e-05
-1.87839e-06
3.35892e-05
-1.37226e-06
2.93736e-05
-9.44685e-07
2.55488e-05
-5.90063e-07
2.20566e-05
-3.07603e-07
1.84834e-05
-1.09207e-07
1.38789e-05
1.74027e-05
-3.66574e-07
2.78146e-05
-2.03492e-07
2.85595e-05
-8.8409e-08
2.93203e-05
-1.48574e-08
3.00962e-05
2.26731e-08
3.08929e-05
3.26055e-08
3.17096e-05
1.37811e-08
-5.70987e-07
1.93556e-05
-8.28492e-07
2.15295e-05
-1.14567e-06
2.39421e-05
-1.52962e-06
2.6623e-05
-1.9861e-06
2.96074e-05
-2.52007e-06
3.29299e-05
-3.13302e-06
3.66304e-05
-3.82418e-06
4.07672e-05
-4.58652e-06
4.54022e-05
-5.40487e-06
5.06173e-05
-6.25607e-06
5.65105e-05
-7.10421e-06
6.32073e-05
-7.90049e-06
7.08599e-05
-8.58155e-06
7.83878e-05
-9.08047e-06
7.93802e-05
-9.37704e-06
8.05336e-05
-9.44816e-06
8.18282e-05
-9.28498e-06
8.32266e-05
-8.89277e-06
8.46975e-05
-8.2903e-06
8.61984e-05
-7.50713e-06
9.24687e-05
-6.51938e-06
8.18721e-05
-5.57483e-06
7.24033e-05
-5.80822e-06
6.41379e-05
-4.79063e-06
5.67005e-05
-3.8794e-06
5.00659e-05
-3.0806e-06
4.41436e-05
-2.39194e-06
3.88268e-05
-1.8061e-06
3.40231e-05
-1.31263e-06
2.97416e-05
-9.00019e-07
2.58588e-05
-5.6087e-07
2.23099e-05
-2.92562e-07
1.86667e-05
-1.0458e-07
1.39835e-05
1.73975e-05
-5.65813e-07
2.7802e-05
-3.54004e-07
2.8553e-05
-1.96982e-07
2.93184e-05
-8.65017e-08
3.00975e-05
-1.61269e-08
3.08958e-05
1.98141e-08
3.17126e-05
2.95725e-08
3.25535e-05
1.22727e-08
-8.19829e-07
1.93469e-05
-1.13258e-06
2.15165e-05
-1.51123e-06
2.39237e-05
-1.96177e-06
2.65987e-05
-2.48968e-06
2.9577e-05
-3.09747e-06
3.28944e-05
-3.78605e-06
3.65922e-05
-4.55097e-06
4.07316e-05
-5.3808e-06
4.53781e-05
-6.25747e-06
5.06187e-05
-7.15155e-06
5.65579e-05
-8.02188e-06
6.33287e-05
-8.81308e-06
7.10914e-05
-9.45867e-06
7.8766e-05
-9.88923e-06
7.98924e-05
-1.00932e-05
8.11787e-05
-1.00548e-05
8.25981e-05
-9.77308e-06
8.41069e-05
-9.26231e-06
8.56695e-05
-8.5495e-06
8.72407e-05
-7.66993e-06
9.36192e-05
-6.60284e-06
8.29001e-05
-6.92713e-06
7.35222e-05
-5.7579e-06
6.51052e-05
-4.70504e-06
5.75262e-05
-3.77934e-06
5.07646e-05
-2.97992e-06
4.47316e-05
-2.29949e-06
3.93202e-05
-1.72695e-06
3.44374e-05
-1.24938e-06
3.00909e-05
-8.53611e-07
2.61515e-05
-5.30811e-07
2.25481e-05
-2.76949e-07
1.88391e-05
-9.94986e-08
1.4083e-05
1.73892e-05
-8.11455e-07
2.7781e-05
-5.44754e-07
2.85397e-05
-3.40753e-07
2.93113e-05
-1.89926e-07
3.00952e-05
-8.4195e-08
3.08967e-05
-1.71057e-08
3.17153e-05
1.71807e-08
3.25564e-05
2.66946e-08
3.34194e-05
1.08621e-08
-1.11989e-06
1.93342e-05
-1.49322e-06
2.14985e-05
-1.93757e-06
2.38995e-05
-2.45879e-06
2.65678e-05
-3.06008e-06
2.95396e-05
-3.74364e-06
3.2852e-05
-4.50704e-06
3.65483e-05
-5.34185e-06
4.06927e-05
-6.23425e-06
4.53549e-05
-7.16038e-06
5.06276e-05
-8.08589e-06
5.66219e-05
-8.96304e-06
6.34787e-05
-9.73289e-06
7.13656e-05
-1.03243e-05
7.9201e-05
-1.06689e-05
8.04681e-05
-1.07657e-05
8.18896e-05
-1.06068e-05
8.34317e-05
-1.02006e-05
8.50451e-05
-9.57048e-06
8.66905e-05
-8.75023e-06
8.8321e-05
-7.78046e-06
9.47969e-05
-8.21507e-06
8.41881e-05
-6.87393e-06
7.46382e-05
-5.65872e-06
6.60588e-05
-4.58542e-06
5.83322e-05
-3.65644e-06
5.14412e-05
-2.8648e-06
4.52969e-05
-2.1985e-06
3.97917e-05
-1.64326e-06
3.48313e-05
-1.18404e-06
3.04214e-05
-8.06429e-07
2.64272e-05
-5.0051e-07
2.27717e-05
-2.61102e-07
1.90007e-05
-9.41673e-08
1.41771e-05
1.7377e-05
-1.10772e-06
2.77492e-05
-7.7964e-07
2.85178e-05
-5.22852e-07
2.92974e-05
-3.26864e-07
3.00877e-05
-1.82404e-07
3.08941e-05
-8.15112e-08
3.1716e-05
-1.77917e-08
3.25588e-05
1.47729e-08
3.34221e-05
2.39762e-08
3.43053e-05
9.54842e-09
-1.47584e-06
1.93168e-05
-1.91397e-06
2.14748e-05
-2.42815e-06
2.38688e-05
-3.02212e-06
2.65298e-05
-3.69898e-06
2.9495e-05
-4.45788e-06
3.28028e-05
-5.29281e-06
3.64992e-05
-6.19338e-06
4.06518e-05
-7.14045e-06
4.5335e-05
-8.10565e-06
5.06473e-05
-9.04825e-06
5.67071e-05
-9.91675e-06
6.36625e-05
-1.06467e-05
7.16881e-05
-1.11656e-05
7.96977e-05
-1.14078e-05
8.11102e-05
-1.13842e-05
8.2667e-05
-1.10964e-05
8.43276e-05
-1.05628e-05
8.60375e-05
-9.81457e-06
8.77548e-05
-8.89194e-06
8.94325e-05
-9.69729e-06
9.62791e-05
-8.16307e-06
8.54772e-05
-6.76168e-06
7.57412e-05
-5.51807e-06
6.69915e-05
-4.43787e-06
5.91137e-05
-3.51583e-06
5.20922e-05
-2.73915e-06
4.58375e-05
-2.09187e-06
4.02403e-05
-1.55698e-06
3.52042e-05
-1.1179e-06
3.07328e-05
-7.59326e-07
2.6686e-05
-4.70414e-07
2.2981e-05
-2.45333e-07
1.91518e-05
-8.87405e-08
1.42659e-05
1.73604e-05
-1.45927e-06
2.77043e-05
-1.06283e-06
2.8485e-05
-7.46775e-07
2.92746e-05
-5.00055e-07
3.00731e-05
-3.12285e-07
3.0886e-05
-1.74369e-07
3.17129e-05
-7.84449e-08
3.25592e-05
-1.8192e-08
3.34243e-05
1.25857e-08
3.43079e-05
2.14158e-08
3.52192e-05
8.3304e-09
-1.89127e-06
1.92942e-05
-2.39832e-06
2.1445e-05
-2.98451e-06
2.38312e-05
-3.6536e-06
2.64845e-05
-4.40592e-06
2.9443e-05
-5.23737e-06
3.27474e-05
-6.14036e-06
3.64462e-05
-7.09966e-06
4.0611e-05
-8.09203e-06
4.53214e-05
-9.08302e-06
5.06821e-05
-1.00282e-05
5.68185e-05
-1.087e-05
6.38859e-05
-1.15417e-05
7.20642e-05
-1.19706e-05
8.02604e-05
-1.20949e-05
8.18209e-05
-1.194e-05
8.35106e-05
-1.15181e-05
8.52829e-05
-1.08563e-05
8.70792e-05
-9.99342e-06
8.88563e-05
-1.11042e-05
9.08394e-05
-9.6542e-06
9.77702e-05
-8.04015e-06
8.67557e-05
-6.5992e-06
7.68223e-05
-5.34339e-06
6.7897e-05
-4.26862e-06
5.98664e-05
-3.36226e-06
5.27153e-05
-2.60654e-06
4.63522e-05
-1.98207e-06
4.06654e-05
-1.46982e-06
3.55561e-05
-1.05211e-06
3.10256e-05
-7.12887e-07
2.69285e-05
-4.40942e-07
2.31766e-05
-2.29874e-07
1.9293e-05
-8.33292e-08
1.43492e-05
1.73388e-05
-1.86968e-06
2.76434e-05
-1.3984e-06
2.84388e-05
-1.01665e-06
2.92408e-05
-7.12908e-07
3.00495e-05
-4.76433e-07
3.08708e-05
-2.97083e-07
3.17044e-05
-1.65855e-07
3.25558e-05
-7.5011e-08
3.34244e-05
-1.83073e-08
3.43098e-05
1.06156e-08
3.52216e-05
1.90101e-08
3.61551e-05
7.20499e-09
-2.36969e-06
1.92655e-05
-2.94792e-06
2.14084e-05
-3.6086e-06
2.37862e-05
-4.35296e-06
2.64315e-05
-5.17837e-06
2.9384e-05
-6.07949e-06
3.26865e-05
-7.04431e-06
3.63909e-05
-8.05391e-06
4.05729e-05
-9.07935e-06
4.53177e-05
-1.00826e-05
5.07365e-05
-1.10131e-05
5.69616e-05
-1.18102e-05
6.41543e-05
-1.24055e-05
7.24992e-05
-1.27272e-05
8.08928e-05
-1.27204e-05
8.26012e-05
-1.24266e-05
8.44191e-05
-1.18674e-05
8.6294e-05
-1.1079e-05
8.81648e-05
-1.25076e-05
9.02597e-05
-1.10782e-05
9.22634e-05
-9.52599e-06
9.92561e-05
-7.85663e-06
8.80131e-05
-6.39538e-06
7.78743e-05
-5.14219e-06
6.87706e-05
-4.08346e-06
6.05876e-05
-3.20012e-06
5.33089e-05
-2.47003e-06
4.68401e-05
-1.87122e-06
4.10668e-05
-1.38323e-06
3.58873e-05
-9.87423e-07
3.13002e-05
-6.67665e-07
2.71552e-05
-4.12392e-07
2.33591e-05
-2.14875e-07
1.94245e-05
-7.80221e-08
1.44272e-05
1.73116e-05
-2.34248e-06
2.75635e-05
-1.78976e-06
2.83762e-05
-1.33582e-06
2.91931e-05
-9.68959e-07
3.00144e-05
-6.77873e-07
3.08464e-05
-4.51984e-07
3.16886e-05
-2.81285e-07
3.25468e-05
-1.56877e-07
3.34206e-05
-7.12164e-08
3.43097e-05
-1.81432e-08
3.52234e-05
8.85408e-09
3.61574e-05
1.67558e-08
3.6589e-05
6.18341e-09
-2.91279e-06
1.92304e-05
-3.56478e-06
2.13646e-05
-4.30034e-06
2.37336e-05
-5.11798e-06
2.63711e-05
-6.0141e-06
2.93186e-05
-6.97934e-06
3.26215e-05
-7.9984e-06
3.63354e-05
-9.04707e-06
4.05406e-05
-1.00931e-05
4.53282e-05
-1.10923e-05
5.08157e-05
-1.19905e-05
5.71419e-05
-1.27247e-05
6.44735e-05
-1.32257e-05
7.29976e-05
-1.34252e-05
8.15976e-05
-1.32769e-05
8.34515e-05
-1.28383e-05
8.539e-05
-1.21414e-05
8.73564e-05
-1.39016e-05
8.95588e-05
-1.25087e-05
9.16903e-05
-1.09533e-05
9.36907e-05
-9.32443e-06
0.000100724
-7.6228e-06
8.92405e-05
-6.1592e-06
7.88913e-05
-4.92143e-06
6.96085e-05
-3.88769e-06
6.12752e-05
-3.03313e-06
5.3872e-05
-2.33223e-06
4.73012e-05
-1.76116e-06
4.14447e-05
-1.29819e-06
3.6198e-05
-9.24573e-07
3.15571e-05
-6.24049e-07
2.73668e-05
-3.84946e-07
2.35292e-05
-2.00462e-07
1.9547e-05
-7.28863e-08
1.45001e-05
1.72783e-05
-2.87943e-06
2.74612e-05
-2.24023e-06
2.82946e-05
-1.70816e-06
2.9129e-05
-1.27175e-06
2.99656e-05
-9.20074e-07
3.08104e-05
-6.41936e-07
3.16634e-05
-4.26763e-07
3.25304e-05
-2.64872e-07
3.34112e-05
-1.47455e-07
3.43055e-05
-6.70777e-08
3.52229e-05
-1.77029e-08
3.61589e-05
7.29184e-09
3.65911e-05
1.46738e-08
3.55529e-05
5.29258e-09
-3.52269e-06
1.91883e-05
-4.24901e-06
2.13133e-05
-5.05775e-06
2.36734e-05
-5.9467e-06
2.63037e-05
-6.9086e-06
2.92479e-05
-7.93116e-06
3.25543e-05
-8.99418e-06
3.62825e-05
-1.00704e-05
4.0518e-05
-1.11216e-05
4.53575e-05
-1.20999e-05
5.09251e-05
-1.2948e-05
5.73652e-05
-1.36009e-05
6.48487e-05
-1.39913e-05
7.35637e-05
-1.4056e-05
8.23768e-05
-1.37576e-05
8.43708e-05
-1.31715e-05
8.642e-05
-1.52783e-05
8.87332e-05
-1.39418e-05
9.09918e-05
-1.23972e-05
9.31343e-05
-1.07424e-05
9.51087e-05
-9.06144e-06
0.000102162
-7.34913e-06
9.04305e-05
-5.89897e-06
7.98689e-05
-4.68756e-06
7.04084e-05
-3.68587e-06
6.1928e-05
-2.8645e-06
5.44043e-05
-2.1954e-06
4.77354e-05
-1.65309e-06
4.17996e-05
-1.21562e-06
3.64891e-05
-8.64059e-07
3.17971e-05
-5.82261e-07
2.75641e-05
-3.58754e-07
2.36875e-05
-1.86726e-07
1.96608e-05
-6.79645e-08
1.45681e-05
1.72383e-05
-3.48271e-06
2.73339e-05
-2.75214e-06
2.81905e-05
-2.1361e-06
2.90453e-05
-1.62443e-06
2.99e-05
-1.20616e-06
3.07603e-05
-8.69951e-07
3.16265e-05
-6.05033e-07
3.25045e-05
-4.00883e-07
3.33943e-05
-2.47958e-07
3.42957e-05
-1.37639e-07
3.52185e-05
-6.26169e-08
3.61582e-05
-1.69847e-08
3.65925e-05
5.93718e-09
3.55547e-05
1.28223e-08
3.45448e-05
4.51412e-09
-4.19965e-06
1.91389e-05
-4.99885e-06
2.12544e-05
-5.87917e-06
2.36058e-05