/*--------------------------------*- C++ -*----------------------------------*\
  =========                 |
  \\      /  F ield         | OpenFOAM: The Open Source CFD Toolbox
   \\    /   O peration     | Website:  https://openfoam.org
    \\  /    A nd           | Version:  8
     \\/     M anipulation  |
\*---------------------------------------------------------------------------*/
FoamFile
{
    version     2.0;
    format      ascii;
    class       volScalarField;
    location    "0.15";
    object      nut;
}
// * * * * * * * * * * * * * * * * * * * * * * * * * * * * * * * * * * * * * //

dimensions      [0 2 -1 0 0 0 0];

internalField   nonuniform List<scalar> 
15677
(
0.000168251
0.000653026
0.000148415
0.00151377
0.000442454
0.000141509
0.00267556
0.000875791
0.000381138
0.000142378
0.00392137
0.00151887
0.000686602
0.000354234
0.000145462
0.00502437
0.00235604
0.00114631
0.000585577
0.000340243
0.000151215
0.00584087
0.00331725
0.00178061
0.000947621
0.000529248
0.000332006
0.000157007
0.00633518
0.00429854
0.0025674
0.00146305
0.000820783
0.000492441
0.000326981
0.000162454
0.00656294
0.0051876
0.00345262
0.00213122
0.00125694
0.000737107
0.00046741
0.000324112
0.000167228
0.00665852
0.00589343
0.00435509
0.00292167
0.00184108
0.00111201
0.000677255
0.000450412
0.000322542
0.000171454
0.00670554
0.00633827
0.00518067
0.0037785
0.00255636
0.0016313
0.00100433
0.000633995
0.000438665
0.000321987
0.000175014
0.00671441
0.00655348
0.00584525
0.00462486
0.00336207
0.00228582
0.00147218
0.00092396
0.00060208
0.00043074
0.000321928
0.000178148
0.00670993
0.00666153
0.00629563
0.00537682
0.00419628
0.00304447
0.00207708
0.00134856
0.000861973
0.000578482
0.000425274
0.000322409
0.000180757
0.00670629
0.00669876
0.00652959
0.00596427
0.00498363
0.00385647
0.00279483
0.00191103
0.00125075
0.000813865
0.000560738
0.000421797
0.00032304
0.000183098
0.00670539
0.00670439
0.00664682
0.00635679
0.00564968
0.0046551
0.00358234
0.00259265
0.00177706
0.00117253
0.000776064
0.00054758
0.000419443
0.000323957
0.000185135
0.00670542
0.00670289
0.00668789
0.00656285
0.00614186
0.00536788
0.00438034
0.00335591
0.00242688
0.00166734
0.00110908
0.000746308
0.00053749
0.000418225
0.000324798
0.000186942
0.00670556
0.00670167
0.00669638
0.00665653
0.00644671
0.00593326
0.00512022
0.00414757
0.00316726
0.00228888
0.00157695
0.0010574
0.000722619
0.000530231
0.000417343
0.000325848
0.000188593
0.00670563
0.00670122
0.00669711
0.0066849
0.00660482
0.00632152
0.00573691
0.00490293
0.0039497
0.00300805
0.00217363
0.00150183
0.00101543
0.000704149
0.000524512
0.000417223
0.000326777
0.000190002
0.00670564
0.00670113
0.00669671
0.00669166
0.00666371
0.00654113
0.00618794
0.0055562
0.00471327
0.00378006
0.00287342
0.00207663
0.00143956
0.00098136
0.000689267
0.000520652
0.000417147
0.000327857
0.000191424
0.00670563
0.00670114
0.00669641
0.00669274
0.00668229
0.00663449
0.00646767
0.00605745
0.00539287
0.00454729
0.00363469
0.0027589
0.00199524
0.00138801
0.000953491
0.000677912
0.000517532
0.000417667
0.000328829
0.000192537
0.00670561
0.00670118
0.00669626
0.00669269
0.00668727
0.0066691
0.00659797
0.00638914
0.00593427
0.00524587
0.00440273
0.00350969
0.00266186
0.00192703
0.0013454
0.000931207
0.000668757
0.000515798
0.000418066
0.000329896
0.000193856
0.0067056
0.0067012
0.00669619
0.00669258
0.00668819
0.0066808
0.00665139
0.00655599
0.00631063
0.00581897
0.00511515
0.00427674
0.00340283
0.00257981
0.00187028
0.00131064
0.000913237
0.000662185
0.000514332
0.000418973
0.000330919
0.000194741
0.00670559
0.00670121
0.00669614
0.00669254
0.00668816
0.00668423
0.00667167
0.00663028
0.00651112
0.00623257
0.00571371
0.00499914
0.00416799
0.00331178
0.00251122
0.00182358
0.00128252
0.000899379
0.000656943
0.00051402
0.000419677
0.00033195
0.000196045
0.00670559
0.00670122
0.00669612
0.00669253
0.006688
0.00668505
0.00667849
0.0066614
0.006606
0.00646477
0.00615958
0.00561806
0.00489793
0.00407458
0.00323535
0.00245441
0.00178575
0.0012604
0.000888698
0.00065381
0.000513672
0.000420843
0.000333086
0.000196766
0.00670559
0.00670122
0.0066961
0.00669253
0.00668788
0.00668518
0.0066804
0.00667332
0.00664837
0.00658047
0.00641904
0.00609129
0.00553359
0.00480993
0.00399571
0.00317175
0.00240864
0.00175616
0.00124365
0.000881207
0.000651342
0.000514373
0.000421742
0.000333992
0.00019807
0.00670559
0.00670121
0.0066961
0.00669252
0.00668781
0.00668516
0.00668076
0.00667748
0.00666568
0.00663537
0.00655381
0.00637529
0.00602962
0.00545858
0.00473535
0.00393027
0.00312109
0.00237283
0.0017337
0.00123133
0.00087601
0.000650821
0.000514822
0.000423163
0.000335435
0.000198759
0.0067056
0.0067012
0.00669609
0.0066925
0.00668778
0.00668511
0.00668072
0.00667875
0.00667207
0.00665962
0.00662031
0.00652817
0.00633496
0.00597355
0.00539583
0.00467393
0.00387807
0.00308063
0.00234568
0.0017181
0.00122407
0.000873787
0.000650473
0.000516327
0.000424081
0.000336183
5.33508e-05
0.0067056
0.0067012
0.0066961
0.00669249
0.00668776
0.00668506
0.00668063
0.00667904
0.00667412
0.00666956
0.00665069
0.00660717
0.00650402
0.00629864
0.00592817
0.00534264
0.00462333
0.00383654
0.00305281
0.00232931
0.0017101
0.00122072
0.000873067
0.000652047
0.000517435
0.000426465
0.000283588
6.33064e-05
0.00670561
0.00670119
0.0066961
0.00669247
0.00668775
0.00668502
0.00668056
0.00667903
0.00667463
0.00667328
0.00666349
0.00664548
0.00659311
0.00648231
0.0062678
0.00588615
0.00530149
0.00458972
0.00381316
0.00303686
0.00232036
0.00170677
0.00122011
0.000874863
0.000653671
0.00051952
0.00042003
0.000219463
7.06735e-05
0.00670561
0.00670118
0.0066961
0.00669245
0.00668775
0.00668498
0.00668052
0.00667895
0.00667468
0.00667447
0.00666845
0.00666282
0.00663684
0.00658344
0.00646597
0.00624088
0.00586287
0.00527739
0.00456752
0.00379628
0.00302763
0.0023174
0.00170803
0.00122376
0.000877905
0.000656013
0.000520734
0.000400152
0.000178014
7.61024e-05
0.00670562
0.00670117
0.00669611
0.00669244
0.00668775
0.00668494
0.00668049
0.00667886
0.00667462
0.0066747
0.00667017
0.00667006
0.00665696
0.00663589
0.00657411
0.00645068
0.00623231
0.00584628
0.00525927
0.00455333
0.00378877
0.00302702
0.00232189
0.00171536
0.00123024
0.000882548
0.000659313
0.000518621
0.000367378
0.000152545
8.04974e-05
0.00670563
0.00670116
0.00669612
0.00669242
0.00668775
0.00668491
0.00668047
0.00667878
0.00667456
0.00667464
0.00667062
0.00667273
0.00666568
0.00666126
0.00662974
0.00657261
0.00644973
0.00622533
0.00583618
0.00525072
0.00455198
0.00379437
0.00303766
0.00233446
0.00172737
0.00123969
0.000888838
0.000662379
0.000512627
0.000336214
0.000134211
8.38802e-05
0.00670563
0.00670115
0.00669612
0.00669241
0.00668775
0.00668488
0.00668046
0.0066787
0.0066745
0.00667451
0.00667068
0.00667346
0.00666918
0.00667252
0.00665699
0.00663876
0.00657562
0.00645258
0.0062241
0.00583847
0.00525923
0.00456526
0.00381207
0.00305741
0.0023537
0.00174384
0.00125198
0.000896285
0.00066514
0.000501305
0.000306109
0.000121253
8.62781e-05
0.00670564
0.00670115
0.00669613
0.00669239
0.00668776
0.00668485
0.00668046
0.00667864
0.00667446
0.00667437
0.00667063
0.00667352
0.00667038
0.00667704
0.00667006
0.00667242
0.00664448
0.00658431
0.00646142
0.00623785
0.00585677
0.00528113
0.00459143
0.00384069
0.00308594
0.00237947
0.00176434
0.00126682
0.000904837
0.000666423
0.000486009
0.000280059
0.000112763
8.80506e-05
0.00670564
0.00670114
0.00669614
0.00669238
0.00668777
0.00668482
0.00668045
0.00667858
0.00667443
0.00667425
0.00667056
0.00667338
0.00667069
0.0066785
0.00667586
0.00668806
0.00667994
0.00665717
0.00660194
0.00648389
0.00626534
0.00588872
0.00531719
0.00463026
0.00388023
0.00312307
0.0024112
0.00178875
0.00128399
0.000914158
0.000666609
0.000469211
0.000260282
0.000106995
8.94238e-05
0.00670113
0.00670565
0.00669614
0.00669237
0.00668777
0.0066848
0.00668045
0.00667853
0.0066744
0.00667414
0.00667048
0.00667319
0.00667071
0.0066788
0.00667808
0.00669508
0.00669712
0.00669534
0.00668104
0.00663116
0.00651927
0.00630675
0.00593579
0.00536739
0.00468207
0.00393036
0.00316831
0.0024489
0.00181667
0.00130324
0.000925092
0.000665652
0.00045426
0.000245086
0.000102952
9.05379e-05
0.00669615
0.00670114
0.00670567
0.00669236
0.00668778
0.00668478
0.00668046
0.00667849
0.00667439
0.00667404
0.00667042
0.006673
0.00667064
0.00667871
0.00667882
0.00669784
0.006705
0.00671445
0.00672348
0.00671509
0.00667313
0.00656904
0.00636396
0.00599797
0.0054323
0.00474643
0.00399098
0.00322164
0.00249187
0.00184803
0.00132716
0.000938367
0.000664162
0.00044146
0.000233297
0.000100073
9.14806e-05
0.00669235
0.00669618
0.00670116
0.00670569
0.00668779
0.00668476
0.00668046
0.00667845
0.00667437
0.00667396
0.00667036
0.00667283
0.00667054
0.00667849
0.00667901
0.00669879
0.0067083
0.00672357
0.0067454
0.00676115
0.0067623
0.00672962
0.00663505
0.00643799
0.0060771
0.00551234
0.00482381
0.0040617
0.00328221
0.00254018
0.0018862
0.0013557
0.000952273
0.000663205
0.000430911
0.000223967
9.79722e-05
9.23045e-05
0.00668779
0.00669237
0.00669624
0.00670118
0.00670571
0.00668474
0.00668047
0.00667841
0.00667436
0.00667389
0.00667031
0.00667269
0.00667045
0.00667826
0.00667901
0.00669905
0.00670957
0.00672763
0.00675634
0.00678584
0.00681243
0.00682418
0.00680279
0.0067182
0.00652997
0.00617283
0.00560778
0.00491324
0.00414199
0.00335012
0.00259891
0.00193325
0.00138568
0.000967034
0.000662814
0.000422126
0.0002165
9.64425e-05
9.30443e-05
0.00668472
0.00668784
0.00669242
0.0066963
0.0067012
0.00670573
0.00668047
0.00667837
0.00667436
0.00667382
0.00667027
0.00667257
0.00667035
0.00667803
0.00667895
0.00669904
0.00671005
0.00672943
0.00676162
0.00679889
0.00684007
0.00687813
0.0069028
0.00689338
0.00682014
0.00663968
0.00628567
0.00571859
0.00501561
0.00423171
0.00343252
0.00267072
0.00198404
0.0014171
0.000982365
0.000663441
0.00041494
0.000210403
9.52969e-05
9.37184e-05
0.00668048
0.00668474
0.00668793
0.00669247
0.00669636
0.00670122
0.00670575
0.00667834
0.00667436
0.00667376
0.00667024
0.00667246
0.00667026
0.00667783
0.00667887
0.00669893
0.00671021
0.00673029
0.00676429
0.00680588
0.00685618
0.00691035
0.00696324
0.0070004
0.00700276
0.0069398
0.00676733
0.00641503
0.00584366
0.00512974
0.00434075
0.00353321
0.00274791
0.00203779
0.00144967
0.000998545
0.000664902
0.000409031
0.000205372
9.44588e-05
9.43423e-05
0.0066783
0.00668054
0.00668481
0.00668803
0.00669252
0.00669643
0.00670124
0.00670577
0.00667437
0.0066737
0.00667022
0.00667236
0.00667018
0.00667766
0.00667879
0.0066988
0.00671025
0.00673077
0.00676583
0.00680987
0.00686559
0.00692994
0.0070008
0.00706855
0.00712126
0.00713447
0.00707885
0.00691159
0.00655949
0.00598154
0.00526969
0.00447453
0.00364118
0.00282966
0.002094
0.00148316
0.00101507
0.000667717
0.000404245
0.000201081
9.38165e-05
9.49209e-05
0.00667437
0.00667832
0.00668066
0.00668489
0.00668813
0.00669257
0.0066965
0.00670126
0.00670579
0.00667364
0.00667021
0.00667228
0.00667011
0.00667753
0.00667872
0.00669867
0.00671024
0.00673107
0.00676686
0.00681252
0.00687166
0.00694247
0.00702548
0.00711275
0.00719826
0.00726482
0.00729076
0.00724059
0.00707194
0.00671779
0.0061485
0.00543798
0.00461874
0.00375616
0.00291501
0.00215212
0.00151736
0.0010316
0.000670906
0.000400368
0.000197481
9.33555e-05
9.54635e-05
0.00667359
0.00667444
0.00667839
0.00668079
0.00668496
0.00668824
0.00669263
0.00669656
0.00670128
0.00670581
0.0066702
0.0066722
0.00667005
0.00667743
0.00667864
0.00669855
0.00671022
0.0067313
0.00676764
0.00681455
0.00687613
0.00695131
0.00704293
0.00714404
0.00725146
0.00735294
0.00743467
0.00747011
0.00742557
0.00725311
0.00690555
0.00634579
0.00561627
0.00477039
0.00387637
0.00300314
0.00221154
0.00155232
0.001048
0.000674711
0.00039737
0.000194338
9.29948e-05
9.5969e-05
0.0066702
0.00667358
0.00667456
0.00667846
0.00668092
0.00668503
0.00668835
0.00669268
0.00669664
0.0067013
0.00670583
0.00667212
0.00667
0.00667735
0.00667855
0.00669844
0.0067102
0.00673149
0.00676829
0.00681623
0.00687974
0.00695833
0.00705638
0.0071679
0.00729214
0.00741764
0.00753718
0.00763067
0.00767421
0.00763162
0.00747716
0.00713666
0.00655312
0.0058015
0.00492629
0.00399934
0.00309313
0.00227175
0.00158762
0.00106443
0.00067901
0.000394876
0.000191664
9.27498e-05
9.64456e-05
0.00667204
0.00667024
0.00667361
0.0066747
0.00667854
0.00668106
0.00668511
0.00668846
0.00669274
0.00669671
0.00670132
0.00670586
0.00666996
0.00667729
0.00667845
0.00669836
0.00671019
0.00673166
0.00676885
0.00681771
0.0068828
0.00696433
0.00706765
0.00718732
0.00732559
0.00747056
0.00761726
0.00775087
0.00785528
0.00790321
0.00788405
0.00775031
0.00738823
0.00676845
0.00598867
0.00508426
0.00412415
0.00318399
0.00233225
0.00162297
0.00108065
0.00068378
0.000393035
0.00018929
9.25536e-05
9.68891e-05
0.00666995
0.00667195
0.00667031
0.00667364
0.00667484
0.00667861
0.0066812
0.00668518
0.00668858
0.0066928
0.00669678
0.00670135
0.00670588
0.00667724
0.00667832
0.00669831
0.0067102
0.00673182
0.00676934
0.00681903
0.0068855
0.00696969
0.00707752
0.00720419
0.00735445
0.00751659
0.00768691
0.0078503
0.00799804
0.00810907
0.00818571
0.00819371
0.00804457
0.00765615
0.00699589
0.00617798
0.00524289
0.00424875
0.00327482
0.00239255
0.0016581
0.00109672
0.000688533
0.000391586
0.000187258
9.24369e-05
9.73083e-05
0.00667719
0.00666985
0.00667185
0.00667038
0.00667367
0.006675
0.00667869
0.00668135
0.00668526
0.00668869
0.00669286
0.00669686
0.00670137
0.0067059
0.00667818
0.00669831
0.00671022
0.00673198
0.00676979
0.00682022
0.0068879
0.00697455
0.00708636
0.00721945
0.00738047
0.00755758
0.00775058
0.0079416
0.0081229
0.00827958
0.00842483
0.00853541
0.00853037
0.00835698
0.0079341
0.00723125
0.00636656
0.00539867
0.00437188
0.00336472
0.0024522
0.00169277
0.00111279
0.000693223
0.000390554
0.000185425
9.23399e-05
9.76968e-05
0.00667804
0.00667696
0.00666966
0.00667174
0.00667048
0.00667369
0.00667516
0.00667876
0.00668151
0.00668535
0.00668882
0.00669292
0.00669693
0.0067014
0.00670592
0.00669837
0.00671026
0.00673212
0.00677018
0.0068213
0.00689007
0.00697898
0.00709434
0.00723349
0.00740435
0.00759511
0.00780945
0.00802885
0.00824306
0.00843606
0.00863362
0.00882051
0.00891987
0.0088911
0.00868423
0.00821936
0.00747178
0.00655867
0.00555145
0.00449255
0.00345309
0.00251082
0.00172681
0.0011286
0.000697878
0.000389728
0.000183849
9.2301e-05
9.80648e-05
0.00669849
0.00667736
0.00667659
0.00666949
0.00667163
0.00667061
0.00667371
0.00667534
0.00667884
0.00668167
0.00668543
0.00668894
0.00669299
0.00669701
0.00670143
0.00670594
0.00671028
0.00673224
0.00677053
0.00682226
0.00689204
0.00698303
0.0071016
0.0072465
0.00742635
0.00763006
0.00786504
0.00811164
0.00836136
0.00859286
0.00883559
0.00908422
0.00926176
0.00933728
0.00927338
0.00902364
0.00850965
0.00771251
0.00675154
0.00570106
0.00461032
0.00353934
0.00256809
0.00176006
0.0011441
0.000702447
0.000389188
0.000182406
9.22651e-05
9.8404e-05
0.00671028
0.00669801
0.00667612
0.00667618
0.00666938
0.00667149
0.00667076
0.00667373
0.00667553
0.00667892
0.00668184
0.00668552
0.00668907
0.00669306
0.00669708
0.00670145
0.00670595
0.00673233
0.00677081
0.00682314
0.00689384
0.00698673
0.00710823
0.00725856
0.00744661
0.00766288
0.0079179
0.0081904
0.00847557
0.00875335
0.00904797
0.00935308
0.00959546
0.00974987
0.00978791
0.00967639
0.00937354
0.00880297
0.00795195
0.00694303
0.00584643
0.00472404
0.00362288
0.00262371
0.00179239
0.00115922
0.000706942
0.000388742
0.000181162
9.22735e-05
9.87262e-05
0.00673242
0.00670924
0.00669686
0.00667516
0.00667567
0.00666936
0.00667132
0.00667095
0.00667375
0.00667574
0.006679
0.00668201
0.00668562
0.00668919
0.00669313
0.00669715
0.00670148
0.00670597
0.00677105
0.00682393
0.00689549
0.00699012
0.00711429
0.00726969
0.00746525
0.0076938
0.00796789
0.00826527
0.00858674
0.00891483
0.00927292
0.00964651
0.00995349
0.010178
0.0102936
0.0102766
0.0101015
0.00973331
0.00909797
0.00818891
0.00713182
0.00598854
0.00483312
0.00370336
0.00267747
0.00182368
0.0011739
0.00071132
0.000388508
0.000180008
9.22751e-05
9.90215e-05
0.00677127
0.0067308
0.00670706
0.00669524
0.00667453
0.00667504
0.00666943
0.00667113
0.00667116
0.00667377
0.00667594
0.0066791
0.00668218
0.00668572
0.0066893
0.0066932
0.00669721
0.00670151
0.00670598
0.00682466
0.006897
0.0069932
0.00711985
0.00727993
0.00748241
0.00772286
0.00801477
0.00833653
0.00869597
0.00907685
0.00949986
0.0099656
0.0103685
0.0106739
0.010861
0.0109103
0.0108114
0.0105512
0.0101029
0.00939374
0.00842251
0.00731616
0.00612778
0.0049377
0.0037806
0.00272922
0.00185385
0.00118809
0.000715584
0.000388294
0.00017901
9.23119e-05
9.9303e-05
0.00682537
0.00676853
0.00672735
0.00670488
0.0066933
0.00667425
0.00667428
0.00666959
0.00667093
0.00667138
0.00667379
0.00667615
0.0066792
0.00668234
0.00668582
0.00668941
0.00669327
0.00669727
0.00670154
0.006706
0.00689839
0.00699601
0.00712493
0.00728931
0.00749822
0.00775002
0.00805844
0.00840459
0.00880311
0.00923679
0.00972385
0.0103049
0.0108664
0.0113081
0.0115784
0.0116793
0.0116156
0.0113979
0.0110269
0.0104821
0.00968956
0.00865206
0.00749497
0.0062632
0.00503782
0.00385446
0.00277883
0.00188284
0.00120177
0.00071971
0.000388234
0.000178075
9.23366e-05
9.95279e-05
0.00689971
0.00682194
0.00676262
0.00672402
0.00670274
0.00669095
0.00667428
0.00667341
0.00666981
0.00667072
0.00667162
0.00667384
0.00667635
0.00667931
0.00668249
0.00668592
0.00668951
0.00669334
0.00669733
0.00670157
0.00670601
0.00699856
0.00712957
0.00729789
0.00751276
0.00777526
0.00809902
0.00846966
0.00890687
0.00939151
0.00994645
0.0106796
0.0114638
0.0121364
0.012549
0.0126978
0.0126394
0.0124082
0.0120338
0.0115266
0.0108696
0.00998457
0.00887692
0.00766799
0.00639421
0.0051335
0.00392491
0.00282625
0.0019106
0.00121489
0.000723691
0.000388213
0.000177276
9.23808e-05
9.97164e-05
0.00700092
0.00689485
0.00681399
0.00675676
0.00672088
0.00670098
0.00668816
0.00667455
0.00667249
0.00667006
0.00667054
0.00667184
0.00667391
0.00667654
0.00667944
0.00668264
0.00668603
0.00668961
0.00669341
0.00669738
0.0067016
0.00670602
0.0071338
0.00730569
0.0075261
0.00779856
0.0081367
0.00853163
0.00900569
0.00953992
0.0101748
0.0111064
0.0121695
0.0131315
0.0137869
0.0140442
0.0139804
0.0137027
0.0132643
0.0127061
0.0120441
0.0112625
0.0102776
0.00909656
0.007835
0.00652038
0.00522477
0.00399196
0.00287144
0.00193712
0.00122745
0.000727523
0.000388205
0.000176625
9.24118e-05
9.99196e-05
0.00713767
0.00699431
0.00688316
0.00680608
0.00675115
0.00671791
0.00669975
0.00668518
0.00667492
0.00667161
0.00667029
0.0066704
0.00667204
0.006674
0.00667671
0.00667956
0.00668277
0.00668613
0.0066897
0.00669348
0.00669743
0.00670163
0.00670603
0.00731279
0.00753831
0.00781998
0.00817163
0.00859014
0.00909858
0.00968319
0.0104161
0.011586
0.0129531
0.0142104
0.0151305
0.0156089
0.0156293
0.0153153
0.0148005
0.0141449
0.0133945
0.0125698
0.0116567
0.0105671
0.0093104
0.00799585
0.00664147
0.00531165
0.0040556
0.00291441
0.00196239
0.00123944
0.000731219
0.000388217
0.000176102
9.2461e-05
0.00010014
0.00731921
0.00712876
0.00697761
0.00687147
0.00679832
0.00674575
0.0067151
0.00669875
0.00668221
0.00667526
0.00667083
0.00667047
0.00667034
0.00667221
0.00667412
0.00667687
0.0066797
0.00668289
0.00668624
0.00668979
0.00669354
0.00669748
0.00670166
0.00670604
0.00754946
0.00783957
0.00820393
0.00864481
0.00918534
0.00982341
0.0106722
0.0121007
0.0137561
0.0152653
0.0164087
0.0171103
0.0173492
0.0171342
0.0165921
0.0158636
0.0150088
0.0140766
0.0130927
0.0120476
0.0108513
0.00951788
0.00815039
0.00675734
0.00539426
0.00411599
0.00295517
0.0019864
0.00125086
0.000734291
0.000388249
0.000175541
9.25081e-05
0.000100379
0.00755952
0.00730767
0.0071052
0.00696087
0.00686001
0.00679069
0.00674056
0.00671247
0.00669781
0.00667945
0.00667544
0.00667023
0.00667056
0.00667035
0.00667235
0.00667426
0.00667701
0.00667983
0.00668301
0.00668634
0.00668988
0.00669361
0.00669753
0.00670167
0.00670604
0.00785746
0.0082337
0.00869545
0.00926644
0.00996203
0.010939
0.0126234
0.0145206
0.0162114
0.0175076
0.018377
0.0188262
0.0188522
0.0184538
0.0177376
0.0168416
0.0158229
0.0147324
0.013602
0.01243
0.0111284
0.00971845
0.00829855
0.00686794
0.00547253
0.0041729
0.00299374
0.00200918
0.00126028
0.000736927
0.00038829
0.000174959
9.25797e-05
0.00010064
0.00787346
0.00754453
0.00727509
0.00708159
0.00694444
0.00684881
0.00678314
0.00673572
0.00670993
0.00669684
0.00667715
0.00667532
0.00666986
0.00667055
0.00667043
0.00667245
0.00667441
0.00667714
0.00667997
0.00668313
0.00668645
0.00668996
0.00669368
0.00669756
0.00670167
0.00670604
0.00826107
0.00874207
0.00934259
0.0100992
0.0112084
0.0131284
0.0152078
0.0170065
0.0183822
0.0193504
0.0199499
0.0201945
0.0200678
0.0195493
0.0187191
0.0177071
0.0165659
0.0153471
0.014089
0.0127996
0.0113967
0.00991159
0.00844026
0.00697328
0.00554724
0.00422652
0.00303016
0.0020279
0.00126831
0.000739835
0.000388361
0.000174345
9.26481e-05
0.000100921
0.00828554
0.00785472
0.00749982
0.00724237
0.00705841
0.00692838
0.00683782
0.00677562
0.0067312
0.00670739
0.00669565
0.00667572
0.00667486
0.00666971
0.00667046
0.00667056
0.00667254
0.00667457
0.00667726
0.00668011
0.00668324
0.00668655
0.00669004
0.00669371
0.00669756
0.00670167
0.00670604
0.00878488
0.0094144
0.0102337
0.0114715
0.0135974
0.0157998
0.0176434
0.0190376
0.0200423
0.0207264
0.0211234
0.0212282
0.0210077
0.0204244
0.0195326
0.0184514
0.0172276
0.0159117
0.0145472
0.0131527
0.0116546
0.0100968
0.00857546
0.00707316
0.00561833
0.00427702
0.00305999
0.0020438
0.00127712
0.000743063
0.00038845
0.0001737
9.2748e-05
0.000101229
0.00882293
0.00826195
0.00779416
0.00745494
0.00721022
0.00703576
0.00691268
0.00682706
0.00676817
0.00672684
0.00670477
0.00669355
0.00667502
0.00667414
0.00666973
0.00667034
0.00667071
0.00667263
0.00667473
0.00667739
0.00668024
0.00668334
0.00668665
0.00669008
0.00669371
0.00669756
0.00670167
0.00670604
0.00948232
0.0103639
0.0117208
0.0140204
0.0162946
0.0181355
0.0195036
0.0204966
0.0212091
0.0216932
0.0219575
0.0219779
0.0217094
0.0211029
0.0201902
0.0190782
0.0178064
0.016422
0.0149726
0.0134868
0.011901
0.0102738
0.00870417
0.00716773
0.00568581
0.0043183
0.00308525
0.00206122
0.00128682
0.00074663
0.000388576
0.000173025
9.28448e-05
0.000101561
0.00954404
0.00879383
0.00818005
0.00773333
0.0074108
0.00717875
0.00701363
0.00689735
0.00681656
0.00676086
0.00672265
0.00670222
0.00669083
0.00667488
0.00667328
0.00666985
0.00667021
0.00667088
0.00667271
0.00667489
0.0066775
0.00668037
0.00668345
0.0066867
0.00669008
0.00669371
0.00669756
0.00670167
0.00670604
0.010488
0.0119549
0.0143946
0.0166996
0.0185049
0.019817
0.0207647
0.0214632
0.0219804
0.0223385
0.0225239
0.0225
0.0222156
0.0216153
0.0207113
0.0195977
0.0183056
0.0168778
0.0153635
0.0138001
0.0121349
0.0104424
0.00882642
0.00725717
0.00574128
0.00435323
0.00311284
0.00208032
0.0012975
0.000750602
0.000388733
0.000172312
9.29832e-05
0.000101924
0.0105995
0.00950763
0.00868259
0.00809792
0.00767339
0.00736756
0.00714798
0.00699202
0.00688241
0.00680644
0.00675363
0.0067188
0.0067
0.00668761
0.00667503
0.00667242
0.00666999
0.0066701
0.00667104
0.0066728
0.00667504
0.00667762
0.0066805
0.0066835
0.0066867
0.00669008
0.00669371
0.00669756
0.00670167
0.00670603
0.0121745
0.0147192
0.0170265
0.0187752
0.0200133
0.0208941
0.0215484
0.0220578
0.0224569
0.0227424
0.0228861
0.0228448
0.0225663
0.0219918
0.021117
0.0200229
0.0187321
0.0172812
0.0157196
0.0140919
0.0123558
0.0106022
0.00894228
0.00733049
0.00578839
0.00439136
0.00314302
0.00210129
0.00130927
0.000754999
0.000388935
0.000171575
9.31202e-05
0.000102313
0.0105583
0.0123697
0.00934586
0.00857267
0.00801684
0.00761463
0.00732523
0.00711791
0.00697096
0.00686794
0.00679687
0.00674678
0.00671523
0.00669857
0.0066844
0.00667526
0.00667164
0.00667012
0.00667003
0.00667119
0.00667289
0.00667519
0.00667774
0.00668057
0.00668349
0.0066867
0.00669008
0.00669371
0.00669756
0.00670166
0.00670602
0.0149956
0.0172879
0.0189679
0.0201224
0.0209236
0.021514
0.0219859
0.0223852
0.0227196
0.0229684
0.0230945
0.0230536
0.0227952
0.0222593
0.0214271
0.0203675
0.0190936
0.0176359
0.0160421
0.014362
0.0125634
0.0107534
0.00903738
0.00739267
0.00584001
0.00443304
0.00317604
0.00212432
0.00132226
0.000759877
0.000389188
0.000170792
9.33118e-05
0.000102739
0.0103107
0.0123307
0.0152206
0.00919048
0.00846462
0.00793715
0.00755703
0.00728381
0.00708858
0.00695051
0.006854
0.00678765
0.00674032
0.00671199
0.00669741
0.00668147
0.00667541
0.00667101
0.0066702
0.00667
0.00667132
0.006673
0.00667533
0.00667779
0.00668057
0.00668349
0.0066867
0.00669008
0.00669371
0.00669753
0.00670163
0.00670601
0.0174955
0.0191012
0.0201684
0.0208836
0.0213978
0.0218116
0.0221806
0.0225234
0.0228282
0.023063
0.0231872
0.0231586
0.0229299
0.0224407
0.0216597
0.0206441
0.0193985
0.0179464
0.0163326
0.014611
0.0127578
0.0108771
0.00911807
0.00746069
0.0058966
0.00447864
0.00321221
0.00214963
0.00133663
0.000765362
0.000389496
0.000169994
9.35061e-05
0.000103193
0.0100674
0.0119774
0.0151548
0.0176497
0.00904241
0.00835812
0.00785899
0.00750062
0.00724337
0.00706005
0.00693071
0.00684057
0.00677878
0.00673432
0.00670914
0.00669636
0.00667902
0.00667537
0.00667056
0.00667023
0.00667001
0.00667144
0.00667311
0.0066754
0.00667779
0.00668057
0.00668349
0.0066867
0.00669008
0.00669368
0.00669748
0.0067016
0.00670599
0.0191895
0.0201698
0.020797
0.0212283
0.0215701
0.0218862
0.0222056
0.022527
0.0228245
0.0230596
0.0231924
0.0231846
0.0229924
0.0225549
0.02183
0.0208643
0.0196546
0.0182172
0.0165936
0.0148395
0.0129152
0.0109819
0.00920639
0.00753517
0.00595872
0.00452859
0.00325185
0.0021775
0.00135251
0.000771456
0.000389887
0.000169138
9.37729e-05
0.00010369
0.00983922
0.0115948
0.0148006
0.017551
0.0192351
0.00889935
0.00825309
0.00778243
0.00744546
0.00720398
0.00703237
0.00691159
0.00682769
0.00677038
0.00672902
0.00670652
0.00669526
0.00667729
0.0066751
0.00667027
0.00667021
0.00667006
0.00667154
0.00667316
0.00667541
0.00667778
0.00668057
0.00668349
0.0066867
0.00669004
0.00669361
0.00669743
0.00670157
0.00670598
0.0201401
0.0206807
0.0210262
0.0212876
0.0215347
0.0218058
0.0221109
0.0224333
0.0227374
0.0229822
0.0231311
0.0231507
0.0229999
0.0226171
0.0219507
0.0210381
0.019869
0.018453
0.0168274
0.015021
0.0130476
0.0110962
0.00930308
0.0076168
0.00602694
0.00458334
0.00329536
0.0022082
0.00137012
0.00077825
0.000390336
0.000168285
9.405e-05
0.000104214
0.00962568
0.0112179
0.0143592
0.0173211
0.0190837
0.0200794
0.00875958
0.00814977
0.00770761
0.00739168
0.00716576
0.00700561
0.00689327
0.00681564
0.00676261
0.00672445
0.00670402
0.00669368
0.00667629
0.00667462
0.00667013
0.00667015
0.00667015
0.00667159
0.00667316
0.00667541
0.00667778
0.00668057
0.0066835
0.00668665
0.00668996
0.00669354
0.00669738
0.00670154
0.00670597
0.0205465
0.0208068
0.0209833
0.0211504
0.0213542
0.0216159
0.02193
0.0222674
0.0225864
0.0228475
0.023019
0.0230718
0.0229663
0.0226396
0.0220322
0.0211739
0.0200481
0.018658
0.0170085
0.0151718
0.0131907
0.0112208
0.009409
0.00770632
0.00610193
0.00464346
0.00334315
0.00224207
0.00138965
0.000785853
0.000390922
0.000167355
9.44243e-05
0.000104787
0.00942372
0.0108597
0.0138711
0.0170043
0.0189271
0.0198731
0.02039
0.00862251
0.00804848
0.00763468
0.0073394
0.00712878
0.00697998
0.00687622
0.0068046
0.00675531
0.00672037
0.00670168
0.00669153
0.00667582
0.00667401
0.00667011
0.00667008
0.00667021
0.00667157
0.00667316
0.00667541
0.00667779
0.00668057
0.00668345
0.00668655
0.00668988
0.00669347
0.00669732
0.00670151
0.00670595
0.0205803
0.0206712
0.0207517
0.0208742
0.0210704
0.0213471
0.0216852
0.0220457
0.0223851
0.0226679
0.0228681
0.0229594
0.0229021
0.0226321
0.0220831
0.0212788
0.0201974
0.018812
0.0171568
0.0153324
0.0133452
0.0113567
0.00952503
0.00780459
0.00618445
0.00470953
0.00339571
0.00227945
0.00141135
0.000794368
0.000391563
0.000166455
9.48229e-05
0.000105384
0.00923086
0.0105246
0.0133579
0.0166256
0.0187
0.0197498
0.0201287
0.0203367
0.0084882
0.00794954
0.00756385
0.00728878
0.00709338
0.00695616
0.00686067
0.00679453
0.00674857
0.00671679
0.00669969
0.00668893
0.00667568
0.00667334
0.00667016
0.00666998
0.00667024
0.00667155
0.00667316
0.00667541
0.00667779
0.0066805
0.00668334
0.00668644
0.00668979
0.0066934
0.00669727
0.00670148
0.00670593
0.0203606
0.0203521
0.0203841
0.0204975
0.0207117
0.0210201
0.0213908
0.0217789
0.0221427
0.0224528
0.0226879
0.0228226
0.0228159
0.0226022
0.0221103
0.0213588
0.0203043
0.0189361
0.0173122
0.0155032
0.0135118
0.0115047
0.00965213
0.00791253
0.00627531
0.00478224
0.00345358
0.00232079
0.00143548
0.000803901
0.000392423
0.000165413
9.53497e-05
0.000106148
0.00904545
0.0102138
0.0128305
0.0161971
0.0184289
0.0195691
0.0200081
0.02002
0.0200354
0.008357
0.00785331
0.00749532
0.00724033
0.00706051
0.00693446
0.00684651
0.00678545
0.00674237
0.00671368
0.00669836
0.00668629
0.00667572
0.00667268
0.0066703
0.00666987
0.00667026
0.00667155
0.00667316
0.00667541
0.00667774
0.00668037
0.00668324
0.00668634
0.0066897
0.00669333
0.00669721
0.00670145
0.00670592
0.0199606
0.0198975
0.0199158
0.0200466
0.0202979
0.0206478
0.0210553
0.0214735
0.0218657
0.0222095
0.0224861
0.0226687
0.0227143
0.0225562
0.0221191
0.0214092
0.0203884
0.0190632
0.0174742
0.015684
0.0136908
0.0116656
0.00979134
0.00803116
0.00637545
0.00486239
0.00351741
0.00236652
0.00146236
0.000814635
0.000393324
0.000164444
9.60347e-05
0.000107045
0.00886673
0.00992696
0.0122971
0.0157201
0.0181264
0.0193599
0.0198386
0.0198826
0.0196623
0.0195612
0.00822916
0.00776023
0.00742974
0.00719534
0.0070306
0.00691473
0.00683365
0.00677733
0.00673678
0.00671087
0.00669725
0.00668383
0.00667584
0.00667214
0.00667044
0.00666981
0.00667026
0.00667157
0.00667317
0.00667533
0.00667762
0.00668024
0.00668313
0.00668623
0.00668961
0.00669327
0.00669714
0.00670143
0.0067059
0.0194239
0.0193404
0.0193719
0.0195421
0.0198413
0.0202376
0.0206833
0.0211334
0.0215594
0.0219442
0.022269
0.0225036
0.0226024
0.0224985
0.0221128
0.0214466
0.0204715
0.0191925
0.0176421
0.0158745
0.0138827
0.0118403
0.0099437
0.00816157
0.00648588
0.00495081
0.00358785
0.00241725
0.00149234
0.000826645
0.00039458