/*--------------------------------*- C++ -*----------------------------------*\
  =========                 |
  \\      /  F ield         | OpenFOAM: The Open Source CFD Toolbox
   \\    /   O peration     | Website:  https://openfoam.org
    \\  /    A nd           | Version:  8
     \\/     M anipulation  |
\*---------------------------------------------------------------------------*/
FoamFile
{
    version     2.0;
    format      ascii;
    class       volScalarField;
    location    "0.44";
    object      nut;
}
// * * * * * * * * * * * * * * * * * * * * * * * * * * * * * * * * * * * * * //

dimensions      [0 2 -1 0 0 0 0];

internalField   nonuniform List<scalar> 
15677
(
0.000168247
0.000653034
0.00014842
0.00151384
0.000442452
0.000141517
0.00267573
0.000875761
0.000381104
0.000142389
0.00392159
0.00151882
0.000686495
0.0003542
0.000145474
0.00502457
0.002356
0.00114612
0.000585454
0.000340192
0.00015122
0.005841
0.00331724
0.00178033
0.000947356
0.000529102
0.000331947
0.000157005
0.00633521
0.00429857
0.00256703
0.00146263
0.000820461
0.000492294
0.000326918
0.000162437
0.00656295
0.00518767
0.0034522
0.00213064
0.00125638
0.000736791
0.000467263
0.000324043
0.000167199
0.00665852
0.00589348
0.00435467
0.00292097
0.00184028
0.00111144
0.000676935
0.00045027
0.000322466
0.000171409
0.00670555
0.00633827
0.00518031
0.00377773
0.00255533
0.00163042
0.00100372
0.000633697
0.000438528
0.000321905
0.000174955
0.00671443
0.00655346
0.00584499
0.00462411
0.00336088
0.00228463
0.00147122
0.000923384
0.000601807
0.000430611
0.000321835
0.000178074
0.00670995
0.00666152
0.00629546
0.00537617
0.00419503
0.00304304
0.00207574
0.00134761
0.000861428
0.000578242
0.000425145
0.000322309
0.000180676
0.00670629
0.00669876
0.00652948
0.00596377
0.00498245
0.00385489
0.00279314
0.00190966
0.00124981
0.000813376
0.000560519
0.000421676
0.000322926
0.000182997
0.00670539
0.00670439
0.00664677
0.00635645
0.0056487
0.00465353
0.00358042
0.00259087
0.00177565
0.00117165
0.000775616
0.000547389
0.000419309
0.00032384
0.000185023
0.0067054
0.00670289
0.00668786
0.00656263
0.00614116
0.00536648
0.00437836
0.00335382
0.00242501
0.00166599
0.00110826
0.000745912
0.000537307
0.000418102
0.00032468
0.000186821
0.00670553
0.00670168
0.00669636
0.00665642
0.00644627
0.00593217
0.00511837
0.00414534
0.00316502
0.00228706
0.00157564
0.00105664
0.000722253
0.000530056
0.00041723
0.000325721
0.000188465
0.00670559
0.00670124
0.00669709
0.00668484
0.00660457
0.00632079
0.00573536
0.00490077
0.00394725
0.0030058
0.00217181
0.00150062
0.00101471
0.000703801
0.000524351
0.000417102
0.000326646
0.000189868
0.00670558
0.00670115
0.00669669
0.00669161
0.00666356
0.0065407
0.0061868
0.00555433
0.00471082
0.00377754
0.00287114
0.00207489
0.00143837
0.000980678
0.000688933
0.000520479
0.000417027
0.000327715
0.000191284
0.00670556
0.00670118
0.00669639
0.00669269
0.00668221
0.00663424
0.00646692
0.00605603
0.00539066
0.00454471
0.00363209
0.00275669
0.0019935
0.00138685
0.000952814
0.00067756
0.00051736
0.00041753
0.00032868
0.000192392
0.00670553
0.00670123
0.00669625
0.00669263
0.00668723
0.00666893
0.00659752
0.00638819
0.00593246
0.00524347
0.00440002
0.00350712
0.00265963
0.00192532
0.00134422
0.000930501
0.000668392
0.000515594
0.000417925
0.000329736
0.000193704
0.00670551
0.00670126
0.00669618
0.00669252
0.00668819
0.00668065
0.00665112
0.00655539
0.00630932
0.00581696
0.00511258
0.004274
0.00340021
0.0025776
0.00186851
0.00130941
0.000912486
0.000661767
0.00051412
0.000418807
0.00033075
0.000194584
0.00670549
0.00670128
0.00669614
0.00669248
0.00668818
0.00668407
0.00667152
0.00662989
0.00651024
0.00623113
0.0057115
0.00499646
0.00416516
0.00330915
0.0025089
0.00182173
0.0012812
0.000898541
0.000656484
0.000513754
0.000419503
0.00033177
0.00019588
0.00670549
0.00670128
0.00669612
0.00669247
0.00668805
0.00668488
0.00667842
0.0066611
0.00660542
0.00646374
0.00615787
0.00561566
0.0048951
0.0040717
0.00323256
0.002452
0.00178374
0.00125891
0.000887744
0.000653267
0.000513398
0.000420641
0.000332892
0.000196595
0.0067055
0.00670128
0.00669611
0.00669247
0.00668796
0.00668499
0.0066804
0.00667305
0.00664799
0.00657975
0.00641782
0.00608929
0.00553101
0.00480702
0.0039926
0.00316883
0.00240592
0.00175387
0.00124199
0.00088015
0.000650742
0.000514018
0.000421521
0.000333785
0.000197888
0.0067055
0.00670127
0.00669611
0.00669246
0.0066879
0.00668496
0.0066808
0.00667721
0.00666543
0.00663485
0.00655292
0.00637372
0.00602753
0.00545585
0.00473206
0.00392695
0.00311772
0.00236987
0.00173124
0.00122944
0.000874721
0.000650081
0.000514461
0.000422918
0.000335209
0.000198569
0.00670551
0.00670126
0.00669611
0.00669245
0.00668788
0.00668491
0.00668079
0.00667848
0.0066719
0.00665922
0.00661963
0.00652698
0.00633343
0.00597101
0.00539253
0.00467047
0.00387431
0.00307716
0.0023423
0.00171494
0.00122172
0.000872356
0.000649676
0.000515849
0.000423793
0.000335943
5.33072e-05
0.00670552
0.00670125
0.00669611
0.00669244
0.00668786
0.00668487
0.00668072
0.00667877
0.006674
0.00666922
0.00665013
0.00660629
0.0065028
0.00629618
0.00592533
0.00533956
0.00461936
0.00383228
0.00304803
0.00232498
0.0017066
0.00121819
0.000871322
0.000651043
0.000516891
0.000426166
0.000283219
6.31969e-05
0.00670553
0.00670124
0.00669611
0.00669242
0.00668785
0.00668483
0.00668066
0.00667877
0.00667455
0.00667299
0.00666299
0.00664484
0.00659206
0.00648033
0.00626617
0.00588322
0.00529653
0.00458427
0.00380751
0.00303184
0.00231573
0.00170284
0.00121712
0.000872939
0.000652552
0.000518966
0.000419624
0.000219066
7.04897e-05
0.00670554
0.00670123
0.00669612
0.00669241
0.00668784
0.0066848
0.00668062
0.0066787
0.0066746
0.00667422
0.00666797
0.00666238
0.00663585
0.00658188
0.00646431
0.00623703
0.00585779
0.00527242
0.00456199
0.00379045
0.00302197
0.00231215
0.00170347
0.00122026
0.00087567
0.000654779
0.000520082
0.000399586
0.000177769
7.58488e-05
0.00670555
0.00670121
0.00669613
0.0066924
0.00668784
0.00668478
0.00668059
0.00667862
0.00667456
0.00667449
0.00666969
0.00666979
0.00665592
0.00663466
0.00657249
0.00644748
0.00622831
0.00584141
0.00525372
0.00454709
0.00378212
0.00302009
0.00231554
0.00170987
0.00122617
0.000879926
0.00065785
0.000517842
0.000366736
0.00015241
8.01703e-05
0.00670556
0.0067012
0.00669613
0.00669238
0.00668784
0.00668475
0.00668057
0.00667856
0.0066745
0.00667445
0.00667015
0.00667259
0.00666451
0.00666042
0.0066282
0.0065698
0.00644614
0.00622099
0.00583074
0.00524395
0.00454397
0.00378594
0.00302944
0.00232696
0.00172107
0.0012349
0.000885827
0.000660783
0.000511641
0.000335559
0.000134155
8.34806e-05
0.00670557
0.00670119
0.00669614
0.00669237
0.00668784
0.00668473
0.00668055
0.0066785
0.00667445
0.00667434
0.00667022
0.0066734
0.00666792
0.00667215
0.00665529
0.00663613
0.00657233
0.00644823
0.00621874
0.00583112
0.00525027
0.00455552
0.00380199
0.00304766
0.00234491
0.00173652
0.00124652
0.000892822
0.000663179
0.000500131
0.000305459
0.000121272
8.58154e-05
0.00670558
0.00670118
0.00669615
0.00669236
0.00668784
0.00668472
0.00668054
0.00667845
0.00667441
0.00667423
0.00667018
0.0066735
0.00666909
0.00667702
0.00666768
0.00667002
0.00664139
0.00658017
0.0064558
0.00623013
0.00584748
0.00527024
0.00457965
0.00382866
0.00307443
0.00236918
0.00175592
0.00126039
0.00090087
0.000664227
0.000484604
0.000279476
0.000112831
8.75313e-05
0.00670559
0.00670117
0.00669615
0.00669235
0.00668784
0.0066847
0.00668053
0.00667841
0.00667437
0.00667412
0.00667011
0.00667339
0.00666941
0.00667863
0.00667305
0.00668642
0.0066771
0.00665323
0.00659637
0.00647652
0.00625573
0.00587715
0.00530393
0.00461608
0.00386593
0.00310952
0.00239922
0.00177903
0.00127677
0.000909625
0.000664108
0.000467655
0.000259695
0.000107105
8.88535e-05
0.00670116
0.0067056
0.00669616
0.00669234
0.00668784
0.00668468
0.00668052
0.00667837
0.00667435
0.00667403
0.00667005
0.00667323
0.00666946
0.006679
0.00667522
0.00669389
0.00669462
0.00669162
0.00667553
0.00662387
0.00650976
0.00629476
0.0059215
0.00535133
0.00466508
0.00391342
0.00315241
0.002435
0.00180552
0.0012948
0.000919816
0.000662645
0.000452451
0.000244538
0.000103094
8.99199e-05
0.00669616
0.00670117
0.00670562
0.00669233
0.00668784
0.00668467
0.00668052
0.00667834
0.00667433
0.00667394
0.00667
0.00667306
0.00666941
0.00667894
0.00667601
0.00669675
0.00670274
0.00671086
0.00671775
0.00670792
0.0066637
0.00655696
0.00634904
0.00598045
0.00541288
0.00472615
0.00397099
0.0032031
0.00247578
0.00183531
0.00131745
0.000932054
0.000660664
0.000439521
0.000232718
0.000100246
9.08182e-05
0.00669232
0.00669619
0.00670118
0.00670565
0.00668784
0.00668466
0.00668052
0.00667831
0.00667431
0.00667387
0.00666995
0.0066729
0.00666934
0.00667875
0.00667625
0.00669774
0.00670613
0.00672009
0.00673952
0.00675419
0.00675297
0.00671757
0.00661986
0.00641952
0.00605578
0.00548898
0.0047998
0.00403827
0.00326063
0.00252166
0.00187141
0.00134456
0.000944982
0.000659151
0.000428681
0.0002234
9.81736e-05
9.15996e-05
0.00668785
0.00669234
0.00669625
0.0067012
0.00670567
0.00668464
0.00668052
0.00667828
0.0066743
0.0066738
0.00666992
0.00667276
0.00666927
0.00667853
0.0066763
0.00669803
0.00670746
0.00672426
0.00675047
0.0067789
0.00680324
0.00681218
0.00678752
0.00669934
0.00650736
0.00614704
0.00557989
0.00488482
0.00411457
0.00332519
0.00257736
0.00191588
0.00137298
0.000958489
0.000658225
0.000419786
0.000215889
9.66706e-05
9.2299e-05
0.00668463
0.00668789
0.00669239
0.00669631
0.00670121
0.0067057
0.00668052
0.00667825
0.0066743
0.00667374
0.0066699
0.00667264
0.00666921
0.00667832
0.00667629
0.00669806
0.00670799
0.00672613
0.00675584
0.00679197
0.0068309
0.00686621
0.00688762
0.00687444
0.00679698
0.00661233
0.00625482
0.00568545
0.0049822
0.00419993
0.00340337
0.00264538
0.00196381
0.00140254
0.000972742
0.000658225
0.000412356
0.000209796
9.55537e-05
9.29341e-05
0.00668052
0.00668466
0.00668798
0.00669245
0.00669637
0.00670123
0.00670572
0.00667822
0.0066743
0.00667368
0.00666988
0.00667252
0.00666916
0.00667813
0.00667626
0.00669799
0.0067082
0.00672706
0.00675862
0.00679903
0.00684702
0.00689842
0.00694793
0.00698123
0.00697921
0.00691181
0.00673456
0.00637831
0.00580483
0.00509066
0.00430329
0.00349879
0.0027183
0.00201449
0.00143309
0.00098735
0.000658934
0.000406262
0.000204728
9.47404e-05
9.35206e-05
0.0066782
0.00668058
0.00668474
0.00668807
0.0066925
0.00669644
0.00670125
0.00670575
0.00667431
0.00667362
0.00666988
0.00667242
0.00666912
0.00667796
0.00667623
0.00669789
0.00670828
0.00672759
0.00676024
0.00680311
0.00685649
0.00691802
0.00698547
0.00704924
0.00709739
0.00710549
0.00704478
0.00687292
0.00651665
0.00593626
0.00522372
0.00443002
0.00360084
0.00279541
0.00206726
0.00146444
0.00100283
0.000660751
0.000401211
0.000200436
9.41275e-05
9.40633e-05
0.00667431
0.00667823
0.00668069
0.00668482
0.00668817
0.00669256
0.00669651
0.00670126
0.00670577
0.00667357
0.00666989
0.00667231
0.00666909
0.00667781
0.0066762
0.00669778
0.00670832
0.00672796
0.00676135
0.00680584
0.00686264
0.0069306
0.00701013
0.00709336
0.00717413
0.00723544
0.00725559
0.00719951
0.00702573
0.00666773
0.00609534
0.00538368
0.00456636
0.00370903
0.00287557
0.00212169
0.00149618
0.00101802
0.000663469
0.000397118
0.000196799
9.36908e-05
9.45711e-05
0.00667352
0.00667438
0.00667831
0.00668081
0.00668491
0.00668827
0.00669261
0.00669657
0.00670128
0.0067058
0.0066699
0.00667221
0.00666908
0.00667768
0.00667617
0.00669769
0.00670834
0.00672824
0.00676221
0.00680795
0.0068672
0.00693952
0.00702759
0.00712459
0.00722716
0.00732319
0.00739883
0.00742782
0.00737677
0.00719855
0.00684718
0.00628325
0.00555273
0.00470982
0.00382221
0.00295819
0.00217715
0.00152853
0.00103313
0.000666484
0.000393814
0.000193648
9.3359e-05
9.50436e-05
0.00666992
0.00667351
0.0066745
0.00667839
0.00668093
0.00668499
0.00668837
0.00669267
0.00669664
0.0067013
0.00670582
0.00667212
0.00666909
0.00667756
0.00667614
0.00669761
0.00670836
0.00672848
0.00676293
0.00680972
0.00687089
0.00694662
0.00704109
0.00714843
0.00726769
0.00738759
0.00750078
0.00758745
0.00762376
0.0075741
0.00741195
0.00706624
0.00648104
0.00572889
0.00485709
0.00393778
0.00304228
0.00223317
0.00156114
0.00104812
0.000669961
0.000391118
0.00019094
9.31376e-05
9.54881e-05
0.00667202
0.00666998
0.00667354
0.00667464
0.00667848
0.00668106
0.00668507
0.00668848
0.00669273
0.00669672
0.00670132
0.00670585
0.00666912
0.00667744
0.0066761
0.00669756
0.00670838
0.0067287
0.00676357
0.00681127
0.00687405
0.00695272
0.00705243
0.00716789
0.00730106
0.00744027
0.00758041
0.00770687
0.00780355
0.00784354
0.00781555
0.00767257
0.00730421
0.00668348
0.00590605
0.0050059
0.00405465
0.003127
0.00228929
0.00159371
0.00106293
0.000673849
0.000388937
0.000188551
9.29696e-05
9.59013e-05
0.00666915
0.00667191
0.00667007
0.00667357
0.00667478
0.00667856
0.0066812
0.00668515
0.00668859
0.00669279
0.00669679
0.00670135
0.00670587
0.00667732
0.00667606
0.00669754
0.00670842
0.0067289
0.00676413
0.00681267
0.00687684
0.00695817
0.0070624
0.00718483
0.00732988
0.00748616
0.00764968
0.00780564
0.00794523
0.0080477
0.00811445
0.00811148
0.0079527
0.00755827
0.00689724
0.00608449
0.00515502
0.00417128
0.00321143
0.00234507
0.00162599
0.00107758
0.000677964
0.000387207
0.000186483
9.28748e-05
9.6291e-05
0.0066772
0.00666914
0.00667179
0.00667017
0.00667361
0.00667494
0.00667864
0.00668135
0.00668524
0.0066887
0.00669285
0.00669686
0.00670137
0.00670589
0.00667602
0.00669756
0.00670846
0.00672908
0.00676463
0.00681393
0.00687934
0.00696314
0.00707135
0.00720017
0.00735591
0.00752709
0.00771306
0.00789637
0.00806914
0.00821677
0.00835129
0.00844952
0.00843275
0.00824955
0.00782115
0.00711811
0.0062617
0.00530167
0.00428628
0.00329488
0.00240009
0.00165778
0.00109189
0.000682015
0.000385863
0.000184633
9.2805e-05
9.6652e-05
0.00667601
0.00667689
0.00666904
0.00667166
0.0066703
0.00667363
0.00667511
0.00667872
0.0066815
0.00668533
0.00668882
0.00669292
0.00669694
0.0067014
0.00670592
0.00669762
0.0067085
0.00672924
0.00676508
0.00681507
0.0068816
0.00696768
0.00707945
0.00721432
0.00737985
0.00756462
0.00777172
0.00798317
0.00818849
0.00837196
0.00855806
0.00873148
0.00881746
0.00877642
0.00855982
0.00809024
0.00734342
0.00643985
0.0054448
0.00439877
0.00337663
0.00245402
0.00168887
0.00110611
0.000686011
0.000384783
0.000183021
9.2786e-05
9.69932e-05
0.00669772
0.00667558
0.00667641
0.00666898
0.00667151
0.00667045
0.00667366
0.00667529
0.00667881
0.00668166
0.00668542
0.00668894
0.00669299
0.00669701
0.00670142
0.00670593
0.00670851
0.00672937
0.00676546
0.00681611
0.00688366
0.00697184
0.00708684
0.00722745
0.00740195
0.00759962
0.00782717
0.00806567
0.00830615
0.00852758
0.00875814
0.0089923
0.00915507
0.00921633
0.00913987
0.00888083
0.00836329
0.00756909
0.00661859
0.00558411
0.00450803
0.00345628
0.00250658
0.00171917
0.00112006
0.000689934
0.000383951
0.000181564
9.27756e-05
9.73077e-05
0.00670846
0.00669714
0.0066748
0.00667587
0.00666898
0.00667135
0.00667063
0.00667367
0.00667549
0.00667889
0.00668183
0.00668551
0.00668907
0.00669306
0.00669708
0.00670145
0.00670595
0.00672946
0.0067658
0.00681705
0.00688556
0.00697565
0.0070936
0.00723963
0.00742233
0.00763253
0.00787995
0.00814429
0.00841985
0.00868696
0.00896872
0.00925842
0.00948464
0.00962292
0.009646
0.00952202
0.00921081
0.00863839
0.00779276
0.00679586
0.00571953
0.00461384
0.00353338
0.00255752
0.00174855
0.0011336
0.000693776
0.000383279
0.000180283
9.28019e-05
9.76055e-05
0.00672955
0.00670742
0.00669556
0.00667422
0.00667525
0.00666905
0.00667117
0.00667084
0.00667369
0.0066757
0.00667898
0.006682
0.00668561
0.00668919
0.00669313
0.00669715
0.00670148
0.00670597
0.0067661
0.00681792
0.0068873
0.00697914
0.00709979
0.0072509
0.00744111
0.00766355
0.00792994
0.00821914
0.00853053
0.00884745
0.00919215
0.00954925
0.00983834
0.0100445
0.0101427
0.0101106
0.00992387
0.00954898
0.00891418
0.00801334
0.00697009
0.00585009
0.00471523
0.00360753
0.00260666
0.00177694
0.00114672
0.00069752
0.000382765
0.000179119
9.28272e-05
9.78788e-05
0.00676639
0.00672803
0.00670535
0.00669375
0.0066739
0.00667452
0.00666921
0.00667096
0.00667107
0.00667371
0.00667591
0.00667908
0.00668217
0.00668571
0.0066893
0.0066932
0.00669721
0.00670151
0.00670598
0.00681874
0.00688891
0.00698233
0.00710548
0.00726127
0.00745843
0.00769273
0.00797687
0.00829042
0.00863929
0.00900878
0.0094181
0.00986566
0.0102481
0.0105323
0.0106993
0.0107307
0.0106175
0.0103476
0.00989523
0.00918975
0.00823003
0.0071404
0.00597701
0.00481194
0.00367854
0.00265386
0.00180425
0.00115939
0.000701158
0.00038234
0.000178087
9.28798e-05
9.81384e-05
0.00681954
0.00676388
0.00672485
0.0067032
0.00669166
0.00667387
0.0066737
0.00666943
0.00667075
0.00667132
0.00667374
0.00667612
0.00667918
0.00668233
0.00668581
0.00668941
0.00669327
0.00669727
0.00670154
0.006706
0.00689039
0.00698524
0.00711068
0.0072708
0.0074744
0.00772003
0.00802065
0.00835853
0.00874603
0.00916842
0.00964124
0.0102014
0.0107386
0.0111557
0.0114028
0.0114831
0.0114024
0.0111725
0.0107947
0.0102493
0.00946445
0.00844225
0.00730541
0.00610043
0.00490413
0.0037463
0.00269903
0.00183044
0.00117157
0.000704675
0.000382051
0.000177145
9.29262e-05
9.8346e-05
0.00689178
0.00681632
0.00675836
0.00672173
0.00670123
0.00668909
0.00667408
0.0066728
0.0066697
0.00667054
0.00667156
0.00667379
0.00667632
0.0066793
0.00668248
0.00668592
0.00668951
0.00669334
0.00669733
0.00670157
0.00670601
0.0069879
0.00711544
0.00727951
0.0074891
0.00774541
0.00806137
0.00842368
0.00884953
0.00932313
0.00986244
0.010571
0.0113274
0.0119724
0.0123591
0.0124843
0.0124054
0.0121584
0.0117741
0.0112636
0.0106103
0.00973752
0.00864949
0.00746451
0.00621969
0.00499193
0.00381078
0.00274214
0.00185548
0.00118325
0.000708066
0.000381805
0.000176305
9.29826e-05
9.85196e-05
0.00699034
0.00688719
0.00680874
0.00675288
0.00671879
0.00669994
0.00668624
0.00667445
0.0066719
0.00666997
0.00667037
0.00667179
0.00667386
0.00667652
0.00667942
0.00668263
0.00668602
0.00668961
0.00669341
0.00669738
0.0067016
0.00670602
0.00711978
0.00728745
0.0075026
0.00776887
0.0080992
0.00848575
0.00894823
0.00947161
0.0100885
0.0109922
0.0120263
0.0129612
0.0135902
0.0138208
0.0137317
0.0134321
0.0129778
0.0124113
0.0117492
0.0109756
0.010008
0.0088513
0.00761758
0.0063344
0.00507542
0.00387201
0.00278315
0.00187935
0.00119441
0.000711327
0.000381634
0.000175641
9.30285e-05
9.87071e-05
0.00712376
0.00698407
0.00687598
0.00680118
0.00674759
0.00671597
0.00669893
0.00668332
0.00667486
0.00667107
0.00667021
0.00667026
0.006672
0.00667396
0.00667669
0.00667955
0.00668276
0.00668613
0.00668971
0.00669348
0.00669744
0.00670163
0.00670603
0.00729467
0.00751497
0.00779043
0.00813431
0.00854438
0.00904108
0.00961486
0.0103267
0.011467
0.0128076
0.0140422
0.0149396
0.0153919
0.0153825
0.0150388
0.0144983
0.0138244
0.0130656
0.012243
0.011342
0.0102747
0.00904726
0.00776456
0.00644431
0.00515471
0.00393003
0.00282207
0.00190206
0.00120505
0.000714449
0.000381527
0.000175093
9.30891e-05
9.891e-05
0.0073012
0.00711528
0.00696801
0.00686475
0.00679373
0.00674244
0.00671337
0.00669802
0.00668052
0.00667516
0.00667037
0.00667038
0.00667022
0.00667217
0.00667409
0.00667685
0.00667969
0.00668289
0.00668623
0.0066898
0.00669354
0.00669749
0.00670165
0.00670604
0.00752627
0.00781017
0.00816681
0.00859918
0.00912788
0.00975489
0.0105795
0.011979
0.0136131
0.0151065
0.0162333
0.0169133
0.0171236
0.0168737
0.0162958
0.0155359
0.0146585
0.0137159
0.0127349
0.0117051
0.0105361
0.00923694
0.0079054
0.00654932
0.00522989
0.00398491
0.00285895
0.00192362
0.00121517
0.00071704
0.000381434
0.000174511
9.31539e-05
9.913e-05
0.00753647
0.0072902
0.00709257
0.00695188
0.00685373
0.00678635
0.00673759
0.0067109
0.00669712
0.00667802
0.00667525
0.00666987
0.00667045
0.00667026
0.00667231
0.00667423
0.006677
0.00667982
0.00668301
0.00668634
0.00668988
0.00669361
0.00669754
0.00670167
0.00670604
0.00782821
0.00819679
0.00864996
0.00920906
0.00989317
0.010843
0.0125013
0.014384
0.0160658
0.0173515
0.0182053
0.0186314
0.0186253
0.0181864
0.0174279
0.0164941
0.0154474
0.0143431
0.0132151
0.0120607
0.0107907
0.00941993
0.00804009
0.00664938
0.00530108
0.00403676
0.00289381
0.00194404
0.00122351
0.000719261
0.000381349
0.00017392
9.32397e-05
9.93689e-05
0.00784436
0.00752216
0.00725871
0.00706977
0.00693604
0.00684293
0.006779
0.00673313
0.00670845
0.00669613
0.00667618
0.00667502
0.0066696
0.00667042
0.00667036
0.00667241
0.00667439
0.00667713
0.00667996
0.00668313
0.00668644
0.00668997
0.00669368
0.00669756
0.00670167
0.00670604
0.00822435
0.00869671
0.0092853
0.0100298
0.0111094
0.013008
0.0150794
0.0168748
0.0182452
0.0192034
0.0197863
0.0200056
0.0198432
0.0192792
0.0184004
0.0173443
0.0161694
0.0149326
0.0136752
0.0124046
0.0110371
0.00959586
0.00816865
0.00674452
0.0053684
0.00408567
0.00292673
0.00196081
0.00123061
0.000721714
0.000381289
0.000173256
9.33283e-05
9.9628e-05
0.00824903
0.00782645
0.00747884
0.00722706
0.00704739
0.00692056
0.00683233
0.00677168
0.00672886
0.00670596
0.00669458
0.0066751
0.00667448
0.00666953
0.00667033
0.0066705
0.00667251
0.00667455
0.00667726
0.0066801
0.00668324
0.00668654
0.00669005
0.00669371
0.00669756
0.00670167
0.00670604
0.00873964
0.00935724
0.0101637
0.0113699
0.0134799
0.0156801
0.0175246
0.0189174
0.0199167
0.0205904
0.0209697
0.0210471
0.0207875
0.0201539
0.0192079
0.0180768
0.0168139
0.0154753
0.0141089
0.0127336
0.011274
0.0097644
0.00829108
0.0068348
0.00543198
0.00413176
0.00295366
0.00197503
0.00123839
0.000724438
0.000381198
0.000172623
9.34474e-05
9.99094e-05
0.00877783
0.00822651
0.00776765
0.00743535
0.00719595
0.00702551
0.00690542
0.00682196
0.0067645
0.00672471
0.00670345
0.00669234
0.00667467
0.0066737
0.00666961
0.00667021
0.00667067
0.00667259
0.00667471
0.00667738
0.00668023
0.00668335
0.00668664
0.00669009
0.00669371
0.00669756
0.00670167
0.00670604
0.00942525
0.010293
0.0116169
0.0139068
0.0161833
0.018028
0.0193973
0.0203886
0.021096
0.0215695
0.0218151
0.021806
0.0214949
0.0208336
0.0198615
0.0186943
0.0173782
0.0159667
0.0145124
0.0130453
0.0115002
0.00992528
0.00840746
0.00692033
0.00549197
0.00416932
0.00297647
0.00199061
0.00124695
0.000727447
0.000381189
0.000171873
9.35664e-05
0.000100214
0.00948708
0.00874998
0.00814684
0.00770857
0.00739255
0.00716549
0.00700413
0.00689064
0.0068119
0.00675741
0.00672079
0.006701
0.00668943
0.0066747
0.00667283
0.00666976
0.00667009
0.00667084
0.00667268
0.00667487
0.00667751
0.00668036
0.00668345
0.00668669
0.00669009
0.00669371
0.00669756
0.00670167
0.00670604
0.0104161
0.0118499
0.0142852
0.016596
0.0184068
0.0197221
0.020671
0.0213686
0.0218815
0.0222291
0.0223948
0.0223388
0.0220081
0.0213483
0.02038
0.0192064
0.0178653
0.0164061
0.0148837
0.013338
0.0117151
0.0100784
0.00851788
0.00700122
0.00554133
0.00420104
0.00300136
0.00200768
0.00125637
0.000730802
0.000381103
0.000171185
9.37318e-05
0.000100544
0.0105266
0.00945233
0.00864159
0.00806691
0.00765035
0.00735062
0.0071357
0.00698325
0.00687626
0.0068023
0.00675055
0.00671717
0.00669921
0.0066862
0.00667494
0.00667199
0.00666992
0.00666999
0.006671
0.00667278
0.00667502
0.00667763
0.00668049
0.00668351
0.00668669
0.00669009
0.00669371
0.00669756
0.00670167
0.00670603
0.0120693
0.0146138
0.0169297
0.0186849
0.0199275
0.0208118
0.0214688
0.0219792
0.022375
0.0226501
0.0227724
0.0226959
0.0223667
0.0217279
0.020784
0.0196256
0.0182815
0.0167953
0.0152225
0.0136109
0.0119182
0.0102236
0.00862245
0.00706746
0.00558328
0.0042356
0.00302856
0.00202639
0.00126674
0.000734513
0.000381154
0.000170361
9.38915e-05
0.000100901
0.0104868
0.012265
0.0092946
0.00853444
0.00798799
0.00759324
0.00730955
0.00710659
0.00696292
0.00686237
0.00679313
0.00674406
0.00671378
0.00669794
0.00668308
0.00667518
0.00667127
0.00667005
0.00666994
0.00667115
0.00667288
0.00667517
0.00667775
0.00668055
0.0066835
0.0066867
0.00669009
0.00669371
0.00669756
0.00670165
0.00670602
0.0148939
0.0171969
0.018884
0.020044
0.0208505
0.0214466
0.0219237
0.0223259
0.022658
0.0228957
0.0229981
0.0229183
0.0226045
0.0219992
0.0210933
0.0199652
0.0186344
0.0171377
0.0155295
0.013864
0.0121093
0.0103609
0.00870828
0.00712357
0.00562924
0.0042733
0.0030583
0.00204694
0.00127817
0.000738659
0.000381099
0.000169608
9.41221e-05
0.000101287
0.0102443
0.0122289
0.0151207
0.00914312
0.00842905
0.00791039
0.00753725
0.00726936
0.0070782
0.00694318
0.00684897
0.00678427
0.00673786
0.00671074
0.00669686
0.00668032
0.00667531
0.0066707
0.00667012
0.00666993
0.00667128
0.00667299
0.00667531
0.0066778
0.00668056
0.0066835
0.0066867
0.00669009
0.00669371
0.00669754
0.00670163
0.00670601
0.0174093
0.0190225
0.020096
0.0208181
0.0213404
0.0217628
0.0221396
0.022487
0.0227899
0.0230123
0.0231098
0.0230379
0.0227487
0.022185
0.0213256
0.0202378
0.0189318
0.0174374
0.0158064
0.0140975
0.0122885
0.0104734
0.00878111
0.00718487
0.00567963
0.00431446
0.00309083
0.0020695
0.00129081
0.000743227
0.000381229
0.000168716
9.43369e-05
0.000101701
0.0100066
0.0118805
0.0150559
0.0175679
0.00899864
0.0083251
0.00783425
0.0074824
0.00723011
0.00705057
0.00692407
0.00683602
0.00677567
0.00673218
0.00670803
0.00669585
0.00667807
0.00667521
0.00667032
0.00667014
0.00666996
0.00667139
0.00667311
0.00667538
0.0066778
0.00668056
0.0066835
0.0066867
0.00669009
0.00669368
0.00669749
0.0067016
0.006706
0.0191151
0.0201024
0.0207378
0.0211791
0.0215323
0.0218601
0.0221896
0.0225168
0.0228121
0.0230328
0.0231352
0.0230792
0.0228212
0.0223039
0.0214962
0.0204546
0.0191814
0.0176989
0.0160553
0.0143123
0.0124338
0.0105687
0.00886075
0.0072519
0.00573493
0.00435944
0.00312645
0.00209432
0.00130475
0.000748411
0.000381235
0.000167888
9.46599e-05
0.000102149
0.00978392
0.0115044
0.0146999
0.0174731
0.0191644
0.0088589
0.00822256
0.00775965
0.00742875
0.00719189
0.00702377
0.00690558
0.00682356
0.00676754
0.00672722
0.0067055
0.00669472
0.00667665
0.00667487
0.0066701
0.00667011
0.00667004
0.0066715
0.00667318
0.00667538
0.0066778
0.00668056
0.0066835
0.0066867
0.00669005
0.00669361
0.00669744
0.00670157
0.00670598
0.0200768
0.0206268
0.0209839
0.0212589
0.0215205
0.021806
0.0221231
0.022452
0.0227529
0.0229805
0.0230948
0.0230611
0.0228389
0.0223712
0.0216175
0.0206256
0.0193901
0.0179265
0.0162785
0.014483
0.012556
0.0106726
0.00894788
0.00732526
0.00579564
0.00440866
0.00316548
0.00212162
0.00132022
0.000754112
0.000381467
0.000166947
9.49514e-05
0.000102625
0.00957543
0.0111349
0.0142591
0.0172472
0.019016
0.0200196
0.00872225
0.00812165
0.00768673
0.00737643
0.00715477
0.00699784
0.00688786
0.0068119
0.00675998
0.00672288
0.00670306
0.0066929
0.0066759
0.00667434
0.00667002
0.00667004
0.00667014
0.00667153
0.00667318
0.00667539
0.0066778
0.00668057
0.00668351
0.00668665
0.00668997
0.00669354
0.00669738
0.00670154
0.00670597
0.0204971
0.0207703
0.020962
0.0211459
0.0213671
0.0216455
0.021973
0.022317
0.0226312
0.0228717
0.0230038
0.0229979
0.0228156
0.0223989
0.0217
0.0207591
0.0195644
0.0181244
0.0164516
0.0146249
0.0126882
0.010786
0.00904327
0.0074056
0.00586237
0.00446259
0.00320829
0.00215171
0.0013373
0.000760615
0.000381593
0.000166026
9.5405e-05
0.00010314
0.00937797
0.0107849
0.013773
0.0169318
0.0188628
0.0198158
0.0203443
0.00858816
0.00802269
0.00761564
0.00732556
0.00711886
0.006973
0.00687135
0.00680123
0.00675292
0.00671898
0.00670085
0.00669056
0.00667559
0.00667369
0.00667004
0.00666995
0.00667022
0.00667151
0.00667319
0.00667539
0.00667781
0.00668056
0.00668346
0.00668655
0.00668989
0.00669348
0.00669733
0.00670151
0.00670595
0.0205487
0.0206561
0.0207549
0.0208969
0.021113
0.0214084
0.0217609
0.0221276
0.0224598
0.0227179
0.0228739
0.022901
0.0227616
0.0223966
0.0217521
0.0208622
0.0197095
0.018273
0.0165933
0.0147762
0.012831
0.0109095
0.00914771
0.00749369
0.00593575
0.00452176
0.0032553
0.00218487
0.00135635
0.000767709
0.00038194
0.000165077
9.58084e-05
0.000103679
0.00918915
0.0104587
0.0132624
0.0165534
0.0186383
0.0196948
0.0200849
0.0203092
0.00845672
0.00792601
0.00754658
0.00727628
0.00708447
0.00694989
0.00685629
0.00679152
0.00674636
0.00671562
0.00669911
0.00668794
0.00667556
0.006673
0.00667013
0.00666984
0.00667026
0.0066715
0.00667319
0.00667539
0.00667781
0.0066805
0.00668336
0.00668645
0.0066898
0.00669341
0.00669727
0.00670148
0.00670594
0.0203506
0.0203616
0.0204142
0.0205495
0.0207859
0.0211148
0.0215005
0.0218935
0.022247
0.0225281
0.022714
0.0227793
0.0226853
0.0223721
0.0217806
0.0209407
0.0198133
0.0183926
0.0167417
0.0149369
0.012985
0.011044
0.00926208
0.00759033
0.00601651
0.00458676
0.00330697
0.00222153
0.00137739
0.000775859
0.000382292
0.000164033
9.64405e-05
0.000104364
0.00900757
0.0101548
0.0127381
0.0161244
0.0183693
0.019516
0.019965
0.0199937
0.0200296
0.00832826
0.00783195
0.00747974
0.00722909
0.00705252
0.00692884
0.00684259
0.00678283
0.00674042
0.00671264
0.00669787
0.00668533
0.00667566
0.00667234
0.0066703
0.00666974
0.00667029
0.0066715
0.00667319
0.00667539
0.00667776
0.00668038
0.00668325
0.00668634
0.00668971
0.00669334
0.00669721
0.00670146
0.00670592
0.0199751
0.0199334
0.0199746
0.0201296
0.0204052
0.0207771
0.0211996
0.0216206
0.0219989
0.0223092
0.0225317
0.0226399
0.0225934
0.0223312
0.021791
0.0209901
0.0198948
0.018515
0.0168963
0.0151071
0.0131505
0.0111904
0.00938732
0.00769644
0.00610548
0.00465827
0.00336387
0.00226199
0.00140095
0.000784838
0.000382751
0.000163146
9.71303e-05
0.000105166
0.00883227
0.00987498
0.0122105
0.0156453
0.0180687
0.0193086
0.0197961
0.0198552
0.0196568
0.0195797
0.00820308
0.00774095
0.00741575
0.00718527
0.00702344
0.00690969
0.00683018
0.00677498
0.00673503
0.00670997
0.00669682
0.00668294
0.00667582
0.00667181
0.00667047
0.00666968
0.0066703
0.00667152
0.0066732
0.00667533
0.00667764
0.00668025
0.00668314
0.00668624
0.00668962
0.00669327
0.00669714
0.00670143
0.0067059
0.019464
0.0194037
0.0194604
0.0196571
0.0199829
0.0204022
0.0208619
0.0213119
0.0217201
0.022067
0.0223331
0.0224887
0.0224908
0.0222786
0.0217861
0.0210268
0.0199752
0.0186393
0.0170564
0.0152866
0.0133281
0.0113494
0.00952438
0.00781299
0.00620355
0.00473707
0.00342657
0.00230686
0.00142706
0.00079505
0.000383517
0.000161683