/*--------------------------------*- C++ -*----------------------------------*\
  =========                 |
  \\      /  F ield         | OpenFOAM: The Open Source CFD Toolbox
   \\    /   O peration     | Website:  https://openfoam.org
    \\  /    A nd           | Version:  8
     \\/     M anipulation  |
\*---------------------------------------------------------------------------*/
FoamFile
{
    version     2.0;
    format      ascii;
    class       volScalarField;
    location    "0.02";
    object      epsilon;
}
// * * * * * * * * * * * * * * * * * * * * * * * * * * * * * * * * * * * * * //

dimensions      [0 2 -3 0 0 0 0];

internalField   nonuniform List<scalar> 
15677
(
59.7022
18.3553
52.6114
8.08898
25.8848
50.1578
4.62823
13.2582
31.5789
50.4769
3.17859
7.71971
17.0832
37.2578
51.6025
2.49004
5.04025
10.0265
20.8012
42.6325
53.6891
2.14605
3.62094
6.46241
12.1541
24.5324
47.6577
55.7714
1.97998
2.81976
4.5248
7.71857
14.2684
28.2531
52.0391
57.6414
1.91173
2.35239
3.40169
5.306
8.91151
16.4247
31.7785
55.6898
59.2094
1.88417
2.07995
2.72322
3.9061
6.01932
10.106
18.5565
34.9586
58.6076
60.4686
1.87052
1.93926
2.30708
3.05333
4.35655
6.7073
11.2894
20.5809
37.6937
60.8544
61.4521
1.86762
1.87823
2.05639
2.51967
3.34726
4.77665
7.37439
12.4313
22.4179
39.9377
62.5164
62.2321
1.86859
1.84872
1.91652
2.18522
2.71215
3.61567
5.17289
8.01228
13.489
24.0068
41.6922
63.7145
62.8567
1.86951
1.83842
1.85191
1.98229
2.30683
2.88695
3.86309
5.54426
8.60111
14.4257
25.3151
43.0084
64.5373
63.3288
1.86977
1.83655
1.8212
1.86783
2.05159
2.41872
3.04598
4.09045
5.88222
9.12268
15.218
26.3463
43.9441
65.0787
63.6756
1.86981
1.8367
1.81056
1.81379
1.89859
2.11804
2.52047
3.19019
4.29427
6.17844
9.56626
15.8602
27.1049
44.5641
65.4256
63.9931
1.8698
1.83688
1.80817
1.79052
1.81599
1.93087
2.17952
2.61249
3.3182
4.47092
6.429
9.9285
16.3436
27.6202
44.953
65.647
64.2251
1.86981
1.83692
1.80777
1.78376
1.77688
1.82209
1.96232
2.23587
2.69411
3.4285
4.6193
6.63257
10.2025
16.6805
27.9549
45.15
65.752
64.4252
1.86981
1.8369
1.8077
1.78222
1.76313
1.76661
1.83093
1.99255
2.28655
2.76463
3.52092
4.73898
6.78554
10.3976
16.9069
28.1071
45.1731
65.8164
64.5582
1.86982
1.83687
1.80767
1.78199
1.75899
1.7444
1.75878
1.84136
2.02096
2.33099
2.82407
3.59531
4.82854
6.89592
10.532
17.002
28.1088
45.1435
65.8352
64.7192
1.86982
1.83686
1.80762
1.782
1.75794
1.73648
1.72747
1.75434
1.85301
2.04676
2.36912
2.8723
3.65135
4.89374
6.97283
10.5835
16.9996
28.0682
45.055
65.8416
64.8175
1.86982
1.83684
1.80759
1.78201
1.75776
1.73392
1.71507
1.71393
1.75353
1.86462
2.06981
2.40082
2.90943
3.69259
4.93926
7.00014
10.5807
16.9678
27.9635
44.9009
65.832
64.9818
1.86981
1.83683
1.80757
1.782
1.75775
1.73322
1.71039
1.69645
1.70423
1.7542
1.87617
2.08997
2.42615
2.93728
3.72137
4.95628
6.99791
10.5605
16.8906
27.7907
44.6997
65.8362
65.0846
1.86981
1.83682
1.80756
1.78198
1.75776
1.73306
1.70876
1.6891
1.68171
1.69804
1.75661
1.88764
2.10708
2.44586
2.95706
3.73458
4.95549
6.98606
10.5136
16.7637
27.5728
44.4981
65.8427
65.28
1.86981
1.83682
1.80755
1.78197
1.75774
1.73302
1.70823
1.68618
1.67162
1.67136
1.69599
1.76154
1.89847
2.12131
2.46061
2.96828
3.73601
4.94968
6.95931
10.437
16.6071
27.3425
44.2716
65.8709
65.4003
1.86981
1.83681
1.80755
1.78197
1.75772
1.73299
1.70804
1.68506
1.66729
1.65879
1.66565
1.6964
1.76731
1.90857
2.133
2.47083
2.97295
3.73441
4.93614
6.91701
10.3443
16.4389
27.0919
44.0649
65.9051
65.6325
1.86981
1.83681
1.80755
1.78197
1.75771
1.73294
1.70793
1.68461
1.66548
1.6531
1.65088
1.66415
1.69821
1.77404
1.91816
2.14271
2.4776
2.97481
3.72977
4.91511
6.86753
10.244
16.261
26.8465
43.8364
65.9864
65.7735
1.86981
1.8368
1.80755
1.78197
1.75769
1.73289
1.70784
1.68439
1.66471
1.65059
1.64396
1.64794
1.66461
1.70222
1.78197
1.92759
2.15104
2.48293
2.9757
3.72219
4.89191
6.81428
10.1409
16.0851
26.5893
43.6501
66.0543
66.0432
1.86981
1.8368
1.80756
1.78198
1.75768
1.73284
1.70775
1.68424
1.66434
1.64949
1.64082
1.64016
1.648
1.66664
1.70882
1.79124
1.93721
2.15929
2.48852
2.97725
3.71497
4.8678
6.76253
10.041
15.9066
26.3504
43.4383
66.1976
66.2166
1.8698
1.83679
1.80756
1.78199
1.75767
1.73279
1.70767
1.68412
1.66414
1.64897
1.63941
1.63658
1.64003
1.64935
1.67139
1.71801
1.80195
1.94789
2.16882
2.49603
2.98055
3.70934
4.84803
6.71499
9.94256
15.7376
26.1092
43.2868
66.2971
66.5027
1.8698
1.83679
1.80756
1.782
1.75766
1.73275
1.70758
1.68401
1.664
1.64871
1.63877
1.63499
1.63636
1.64118
1.65316
1.6805
1.72963
1.81471
1.96075
2.18115
2.5068
2.98699
3.70991
4.83262
6.67104
9.85189
15.5765
25.8913
43.1036
66.5476
66.7855
1.8698
1.83679
1.80757
1.78201
1.75765
1.7327
1.7075
1.68391
1.66389
1.64857
1.63849
1.6343
1.63474
1.63747
1.64469
1.66144
1.6929
1.74405
1.83042
1.97709
2.19753
2.5221
2.99908
3.71413
4.82188
6.63565
9.77162
15.4292
25.6775
42.9867
66.5517
67.0476
1.86981
1.83679
1.80757
1.78201
1.75765
1.73266
1.70743
1.68382
1.6638
1.64849
1.63836
1.63403
1.63406
1.63586
1.64093
1.6525
1.67455
1.70864
1.76195
1.85024
1.99806
2.21931
2.54317
3.01773
3.72419
4.82231
6.60985
9.70045
15.2919
25.4844
42.8295
66.6356
67.3325
1.86981
1.83679
1.80757
1.78201
1.75764
1.73263
1.70736
1.68373
1.66373
1.64844
1.63832
1.63395
1.63382
1.63521
1.63938
1.64865
1.66602
1.69135
1.72826
1.78448
1.87527
2.02501
2.24747
2.57152
3.04325
3.7439
4.82776
6.58967
9.64095
15.1705
25.2841
42.679
66.82
67.642
1.86981
1.8368
1.80756
1.78201
1.75763
1.7326
1.7073
1.68366
1.66367
1.64841
1.63832
1.63396
1.63376
1.635
1.63881
1.64719
1.66248
1.68359
1.71228
1.75284
1.81264
1.90686
2.05896
2.28345
2.60769
3.07744
3.77239
4.84091
6.58439
9.59467
15.0497
25.0928
42.5456
67.108
67.9638
1.8368
1.86985
1.80756
1.782
1.75762
1.73257
1.70725
1.6836
1.66363
1.6484
1.63835
1.63401
1.63378
1.63497
1.63867
1.6468
1.66132
1.68063
1.70552
1.73844
1.78339
1.84786
1.94607
2.10123
2.32789
2.65291
3.12058
3.80958
4.86618
6.58779
9.55473
14.9396
24.9257
42.4536
67.4344
68.3159
1.80755
1.83691
1.86993
1.78199
1.75761
1.73255
1.70721
1.68355
1.66359
1.64841
1.6384
1.63408
1.63384
1.63501
1.6387
1.64684
1.66117
1.67991
1.70332
1.7329
1.77088
1.82141
1.89121
1.99429
2.15255
2.38186
2.70742
3.17336
3.85601
4.90135
6.60037
9.52554
14.8556
24.7883
42.3932
67.8012
68.6556
1.78197
1.80769
1.83712
1.87001
1.75761
1.73254
1.70718
1.68351
1.66357
1.64843
1.63847
1.63417
1.63393
1.63508
1.63878
1.64702
1.66141
1.68009
1.70311
1.73165
1.76691
1.81124
1.86813
1.94428
2.05238
2.21441
2.44566
2.77215
3.23559
3.91222
4.95008
6.62894
9.52375
14.7923
24.6795
42.3695
68.1701
69.0227
1.7576
1.78214
1.80797
1.83735
1.87009
1.73254
1.70716
1.68348
1.66355
1.64845
1.63853
1.63427
1.63402
1.63517
1.63889
1.64721
1.66173
1.68058
1.70372
1.73218
1.76674
1.80914
1.86096
1.92539
2.00818
2.12188
2.28702
2.52029
2.84686
3.30769
3.98473
5.01737
6.6758
9.53076
14.7489
24.592
42.3752
68.565
69.38
1.73254
1.75784
1.7825
1.80826
1.83758
1.87017
1.70716
1.68347
1.66354
1.64847
1.6386
1.63437
1.63412
1.63527
1.63899
1.64738
1.66201
1.68108
1.70455
1.73345
1.76832
1.81057
1.86098
1.92163
1.99455
2.08469
2.20333
2.37172
2.60554
2.93172
3.39822
4.0784
5.09776
6.73468
9.54908
14.7189
24.5299
42.3967
68.9545
69.7432
1.70718
1.73289
1.75835
1.78287
1.80856
1.83781
1.87026
1.68347
1.66354
1.6485
1.63866
1.63445
1.63422
1.63537
1.63909
1.64752
1.66223
1.68146
1.70527
1.73482
1.77052
1.81369
1.86469
1.92478
1.99456
2.07686
2.17484
2.29856
2.46836
2.70234
3.03693
3.51212
4.18413
5.18919
6.80306
9.58354
14.712
24.4911
42.44
69.362
70.0582
1.68349
1.70761
1.7336
1.75886
1.78324
1.80887
1.83806
1.87035
1.66354
1.64851
1.6387
1.63452
1.63431
1.63546
1.63917
1.64763
1.66239
1.68174
1.70583
1.73598
1.77272
1.81738
1.87001
1.9317
2.00209
2.08232
2.17322
2.27948
2.40744
2.57809
2.82245
3.16781
3.63792
4.30014
5.28939
6.88024
9.62884
14.7161
24.4632
42.5055
69.701
70.4852
1.66354
1.68394
1.70848
1.73432
1.75939
1.78362
1.80919
1.83831
1.87044
1.64851
1.63873
1.63455
1.63437
1.63553
1.63925
1.64771
1.6625
1.68192
1.70622
1.7369
1.77461
1.82101
1.87591
1.94029
2.01341
2.09569
2.186
2.28611
2.39852
2.5314
2.71462
2.97227
3.31245
3.77365
4.42411
5.39686
6.96439
9.68264
14.7281
24.4608
42.5766
70.1993
70.7371
1.64851
1.66394
1.68484
1.70937
1.73505
1.75992
1.784
1.80952
1.83857
1.87053
1.63872
1.63454
1.63439
1.63558
1.63931
1.64777
1.66256
1.68201
1.70649
1.73761
1.77619
1.82423
1.88173
1.94964
2.02664
2.11321
2.20705
2.30838
2.41592
2.53384
2.68389
2.88562
3.138
3.46921
3.91822
4.55389
5.50928
7.05373
9.74233
14.7519
24.4668
42.6928
70.5442
357.212
1.63869
1.6488
1.66476
1.68579
1.71029
1.73581
1.76046
1.7844
1.80986
1.83884
1.87062
1.63449
1.63437
1.63559
1.63933
1.64779
1.66259
1.68205
1.70667
1.73814
1.7775
1.82705
1.88704
1.959
2.04099
2.13319
2.23294
2.33973
2.45006
2.56506
2.70252
2.87366
3.07424
3.31819
3.63601
4.06956
4.68846
5.625
7.14657
9.80692
14.7857
24.4836
42.7736
75.8197
478.926
1.63438
1.63883
1.64943
1.66563
1.68677
1.71123
1.73658
1.76101
1.78481
1.81021
1.83912
1.87072
1.63429
1.63555
1.63931
1.64776
1.66257
1.68203
1.70678
1.73855
1.77862
1.82954
1.89187
1.9678
2.05556
2.15499
2.26222
2.37716
2.4947
2.61442
2.75215
2.9154
3.08359
3.27684
3.51011
3.81085
4.2262
4.82602
5.74265
7.24156
9.87533
14.8263
24.5152
42.9657
86.2692
593.667
1.63416
1.63428
1.63916
1.6501
1.66653
1.68779
1.7122
1.73736
1.76157
1.78522
1.81058
1.8394
1.87082
1.63546
1.63924
1.64769
1.6625
1.68198
1.70684
1.73887
1.77959
1.83175
1.89628
1.97602
2.06954
2.17752
2.29448
2.41961
2.54733
2.67656
2.82252
2.99075
3.15366
3.31268
3.49178
3.7115
3.99241
4.38623
4.96513
5.86087
7.33752
9.94649
14.8723
24.5532
43.414
96.6591
699.612
1.63531
1.63392
1.6342
1.63954
1.65081
1.66747
1.68884
1.71319
1.73815
1.76214
1.78566
1.81096
1.83969
1.87091
1.63911
1.64755
1.66238
1.68189
1.70685
1.73913
1.78045
1.83375
1.90037
1.98372
2.08281
2.19955
2.32835
2.46697
2.60741
2.74977
2.90937
3.09143
3.26101
3.4161
3.55884
3.71709
3.91782
4.17801
4.54784
5.10406
5.9785
7.43349
10.0192
14.9219
24.6081
44.15
106.264
801.053
1.63893
1.63498
1.63357
1.63414
1.63996
1.65157
1.66846
1.68993
1.71421
1.73896
1.76273
1.78611
1.81135
1.83998
1.871
1.64734
1.6622
1.68174
1.70681
1.73933
1.78122
1.83557
1.90417
1.99093
2.09543
2.22089
2.36197
2.5175
2.67536
2.83436
3.01225
3.21502
3.40052
3.56259
3.70119
3.81982
3.95126
4.12735
4.36506
4.70903
5.24181
6.09462
7.52859
10.0924
14.9752
24.6847
44.9483
115.508
902.346
1.64708
1.6384
1.63447
1.6332
1.63413
1.64044
1.65238
1.6695
1.69106
1.71524
1.73978
1.76332
1.78657
1.81174
1.84026
1.87109
1.66194
1.68153
1.70673
1.73949
1.78191
1.83724
1.90773
1.99769
2.10743
2.24145
2.39483
2.56844
2.74908
2.93165
3.13278
3.36322
3.57262
3.7511
3.89486
4.00711
4.09319
4.19165
4.3383
4.55222
4.86922
5.37741
6.20843
7.622
10.1655
15.0318
24.7751
45.7948
124.719
1002.54
1.66164
1.64614
1.63751
1.63394
1.63285
1.63417
1.64096
1.65323
1.67058
1.69222
1.7163
1.74061
1.76392
1.78703
1.81213
1.84053
1.87117
1.68125
1.70658
1.73959
1.78254
1.83879
1.91107
2.00402
2.11883
2.26116
2.42672
2.61903
2.82458
3.03904
3.27381
3.54036
3.78266
3.98651
4.14449
4.25702
4.33173
4.37636
4.43581
4.5487
4.73615
5.02688
5.50994
6.31924
7.71321
10.238
15.0903
24.8773
46.6946
133.922
1101.39
1.68096
1.66032
1.64452
1.63661
1.63343
1.63252
1.63428
1.64154
1.65413
1.6717
1.69341
1.71738
1.74145
1.76452
1.78748
1.8125
1.84079
1.87125
1.70636
1.73963
1.78308
1.84022
1.91419
2.00994
2.12964
2.27991
2.45751
2.66893
2.90042
3.15061
3.43251
3.75293
4.03997
4.28041
4.46204
4.58241
4.64816
4.67283
4.66683
4.68146
4.7575
4.91566
5.18069
5.63859
6.42653
7.8018
10.3093
15.1501
24.9909
47.641
143.017
1196.52
1.70616
1.6793
1.65789
1.64289
1.63577
1.63296
1.63221
1.63445
1.64218
1.65509
1.67287
1.69462
1.71846
1.74227
1.7651
1.78792
1.81287
1.84104
1.87133
1.73958
1.78354
1.84152
1.91709
2.01548
2.13986
2.29767
2.48713
2.71771
2.97562
3.26429
3.60123
3.99945
4.35831
4.65184
4.87055
5.00713
5.06753
5.06768
5.02835
4.96227
4.92661
4.96315
5.09
5.32971
5.76276
6.52988
7.8874
10.3789
15.2104
25.1151
48.6131
151.88
1287.87
1.73959
1.70413
1.67607
1.65534
1.6414
1.63499
1.63252
1.63195
1.6347
1.64288
1.6561
1.67408
1.69586
1.71952
1.74307
1.76567
1.78836
1.81323
1.84128
1.87141
1.78388
1.84269
1.91977
2.02064
2.14947
2.31439
2.51551
2.76496
3.04938
3.37921
3.77759
4.26918
4.74036
5.13016
5.40896
5.57547
5.63351
5.60393
5.51546
5.3965
5.26063
5.16957
5.16432
5.25851
5.47325
5.882
6.62903
7.9697
10.4465
15.271
25.2474
49.5893
160.426
1362.66
1.7843
1.73709
1.69988
1.67269
1.65289
1.64001
1.63425
1.63211
1.63173
1.63502
1.64363
1.65716
1.67533
1.69709
1.72055
1.74383
1.76622
1.78879
1.81358
1.84152
1.87148
1.8437
1.92221
2.02543
2.15847
2.33009
2.54257
2.81027
3.12128
3.49476
3.95955
4.55718
5.17374
5.73423
6.14153
6.36488
6.42701
6.35632
6.19667
5.99165
5.77567
5.56007
5.40887
5.35996
5.42067
5.61086
5.99603
6.7237
8.0485
10.5117
15.3314
25.3848
50.5548
167.482
1426.15
1.84479
1.78128
1.73141
1.69544
1.66948
1.65054
1.63872
1.63356
1.63174
1.63158
1.63542
1.64445
1.65827
1.67657
1.69827
1.72153
1.74456
1.76675
1.78921
1.81392
1.84175
1.87155
1.92441
2.02984
2.16686
2.34479
2.56827
2.8534
3.19112
3.61007
4.14413
4.85987
5.65757
6.46245
7.12713
7.50289
7.58781
7.46075
7.19076
6.85022
6.49611
6.16432
5.85899
5.64335
5.54927
5.57609
5.74219
6.10455
6.81384
8.12366
10.5745
15.3911
25.5253
51.3661
173.468
1495.4
1.92661
1.84109
1.77358
1.72549
1.69123
1.66636
1.64828
1.63752
1.63293
1.63139
1.6315
1.6359
1.64533
1.6594
1.67779
1.69941
1.72248
1.74527
1.76727
1.78962
1.81426
1.84197
1.87162
2.03388
2.1746
2.35851
2.59255
2.89423
3.25879
3.72394
4.32842
5.17556
6.19624
7.32716
8.38064
9.107
9.33209
9.14079
8.70557
8.14732
7.56668
7.02784
6.56074
6.15597
5.87202
5.73164
5.72454
5.86725
6.20786
6.89941
8.19512
10.6348
15.4499
25.6466
52.0615
180.022
1571.18
2.03777
1.92212
1.83047
1.76558
1.71993
1.68718
1.66335
1.64614
1.63641
1.63236
1.63106
1.63152
1.63645
1.64624
1.66051
1.67897
1.70052
1.72339
1.74596
1.76778
1.79002
1.81458
1.84218
1.87166
2.18177
2.37127
2.61537
2.93278
3.3242
3.8351
4.51063
5.50486
6.79385
8.33661
9.91501
11.192
11.8408
11.7183
11.0638
10.1755
9.2286
8.34459
7.58455
6.96303
6.44972
6.09413
5.90669
5.86585
5.98537
6.30582
6.98044
8.26291
10.6923
15.4995
25.7523
52.8343
187.281
1654.05
2.18841
2.03228
1.90734
1.81952
1.75813
1.71459
1.68325
1.66043
1.64412
1.6354
1.63185
1.63077
1.63163
1.63707
1.64716
1.66161
1.68012
1.70159
1.72427
1.74662
1.76827
1.79041
1.8149
1.84229
1.87166
2.3832
2.63672
2.96908
3.38716
3.94248
4.69032
5.84909
7.45044
9.48584
11.7232
13.7536
15.1121
15.4453
14.71
13.3685
11.8678
10.4286
9.17876
8.1627
7.36901
6.739
6.30906
6.07415
6.00019
6.09671
6.39843
7.057
8.32703
10.7398
15.5422
25.8724
53.6958
195.245
1744.89
2.39397
2.18177
2.01148
1.89225
1.80937
1.75099
1.70944
1.67945
1.65762
1.64223
1.63449
1.6314
1.63054
1.63182
1.63772
1.64808
1.66269
1.68125
1.70262
1.72512
1.74727
1.76876
1.7908
1.81506
1.8423
1.87166
2.65676
3.00324
3.44747
4.04532
4.86799
6.20881
8.16105
10.7589
13.7771
16.7614
19.1235
20.3056
19.9919
18.32
16.0431
13.766
11.7342
10.0609
8.75767
7.77626
7.02272
6.51637
6.2339
6.12755
6.20153
6.48574
7.12918
8.3796
10.7803
15.5901
26.0091
54.658
204.102
1844.26
2.6744
2.3857
2.15243
1.9905
1.87828
1.79967
1.74412
1.70447
1.67579
1.65492
1.64053
1.63368
1.63102
1.63037
1.6321
1.6384
1.649
1.66375
1.68234
1.70362
1.72594
1.74789
1.76923
1.79099
1.81506
1.8423
1.87166
3.03556
3.50497
4.14332
5.04456
6.58313
8.91704
12.1337
16.037
20.159
23.8207
26.2669
26.8958
25.5147
22.5341
19.0591
15.8444
13.128
10.9809
9.36415
8.1823
7.29986
6.71571
6.3859
6.24799
6.30007
6.56788
7.18813
8.42413
10.8248
15.644
26.1659
55.7331
213.772
1953.02
3.06356
2.66444
2.34398
2.1232
1.9711
1.86492
1.79032
1.73749
1.69968
1.67226
1.65231
1.63901
1.63297
1.63071
1.63026
1.63243
1.6391
1.64991
1.66479
1.6834
1.70458
1.72673
1.7485
1.76945
1.79097
1.81506
1.8423
1.87166
3.55979
4.23676
5.221
6.96967
9.70769
13.5864
18.459
23.876
29.1101
33.2467
35.3878
34.9632
32.0125
27.3159
22.3763
18.0722
14.59
11.9276
9.97661
8.58469
7.56951
6.90684
6.53021
6.36168
6.39259
6.63486
7.23796
8.4728
10.8739
15.7049
26.3452
56.9375
224.334
2071.43
3.60657
3.05115
2.60496
2.30305
2.09615
1.95254
1.85205
1.78133
1.73112
1.69507
1.66886
1.64981
1.63767
1.63237
1.63048
1.63022
1.63281
1.6398
1.65081
1.66581
1.68442
1.70551
1.7275
1.74879
1.76944
1.79097
1.81506
1.8423
1.87166
4.32629
5.39831
7.36516
10.5213
15.0926
20.9988
27.8365
34.8745
41.0959
45.3468
46.637
44.5375
39.4484
32.6102
25.9474
20.4162
16.1001
12.8899
10.5897
8.98107
7.83083
7.08961
6.66696
6.4688
6.46793
6.69141
7.29229
8.52604
10.9282
15.7739
26.5512
58.2796
235.831
2199.89
4.40242
3.59239
2.96492
2.54745
2.2651
2.07021
1.93464
1.83965
1.77268
1.725
1.69064
1.66559
1.64746
1.63652
1.63188
1.63031
1.63022
1.63323
1.64051
1.6517
1.66681
1.68542
1.70642
1.72788
1.74879
1.76943
1.79097
1.81506
1.84229
1.87162
5.57677
7.76604
11.3465
16.6291
23.6133
31.9646
40.986
49.6224
56.5407
60.3641
60.0962
55.592
47.7508
38.347
29.7209
22.8436
17.6389
13.8575
11.1983
9.36929
8.08319
7.26397
6.79629
6.55629
6.53148
6.75296
7.35155
8.58432
10.9883
15.8522
26.7873
59.7761
248.321
2337.94
4.38326
5.73433
3.46561
2.88324
2.49402
2.22867
2.04516
1.91738
1.82773
1.76438
1.71912
1.68637
1.66247
1.64533
1.63555
1.63147
1.63018
1.63028
1.63369
1.64123
1.65258
1.66778
1.68639
1.70688
1.72789
1.74878
1.76943
1.79097
1.81506
1.84218
1.87155
8.16701
12.1731
18.1745
26.2622
36.1876
47.3175
58.6154
68.6624
75.7937
78.4538
75.7653
68.041
56.8179
44.4455
33.6439
25.3227
19.1889
14.821
11.7979
9.74753
8.32605
7.42992
6.9023
6.63025
6.60063
6.81998
7.41621
8.64817
11.0548
15.9414
27.058
61.4338
261.766
2485.37
4.18537
5.72362
8.52191
3.34841
2.80726
2.44262
2.19345
2.02098
1.90077
1.81629
1.75642
1.71348
1.6823
1.65957
1.64345
1.63472
1.63113
1.63007
1.63038
1.63416
1.64194
1.65344
1.66873
1.68689
1.7069
1.72789
1.74878
1.76944
1.79098
1.8149
1.84197
1.87148
12.991
19.711
28.9096
40.4386
53.7501
67.8679
81.3747
92.4524
99.102
99.6651
93.5557
81.7448
66.5231
50.8187
37.6646
27.8248
20.7344
15.7723
12.3847
10.1142
8.55897
7.56671
6.99214
6.71087
6.67586
6.89294
7.48675
8.71813
11.1287
16.0428
27.368
63.2599
276.202
2641.1
4.00996
5.38628
8.54558
13.7205
3.23934
2.73416
2.39287
2.1594
1.99768
1.88482
1.80533
1.7488
1.7081
1.6785
1.65691
1.64178
1.634
1.63086
1.62998
1.63053
1.63464
1.64264
1.65429
1.66921
1.68692
1.70691
1.72789
1.74879
1.76945
1.7908
1.81458
1.84174
1.87141
21.2206
31.5257
44.6602
60.1781
77.1923
94.3512
109.818
121.34
126.589
123.929
113.293
96.5162
76.7236
57.3781
41.7341
30.3239
22.2618
16.7048
12.9557
10.4681
8.75225
7.68308
7.09036
6.79879
6.75775
6.97238
7.56373
8.79485
11.2107
16.1589
27.7201
65.2617
291.51
2804.64
3.84906
5.09403
7.92997
13.8218
22.5758
3.13433
2.66342
2.34475
2.12657
1.97529
1.86953
1.79484
1.74155
1.70308
1.675
1.65447
1.6403
1.63339
1.63064
1.62991
1.6307
1.63513
1.64333
1.65472
1.66923
1.68693
1.70691
1.72789
1.74879
1.76922
1.79041
1.81425
1.84151
1.87133
34.0817
48.8068
66.5149
86.4292
107.306
127.393
144.387
155.543
158.241
151.056
134.722
112.133
87.2689
64.0384
45.8077
32.7971
23.76
17.6129
13.508
10.7632
8.91742
7.81087
7.19782
6.89471
6.84688
7.05886
7.6477
8.87897
11.3021
16.2908
28.1217
67.4311
307.771
2974.57
3.69562
4.82898
7.39163
12.7363
22.8559
36.3827
3.03277
2.59502
2.29833
2.09501
1.95382
1.85491
1.78487
1.7348
1.69846
1.67175
1.65222
1.63903
1.63286
1.63045
1.62986
1.63091
1.63564
1.64368
1.65473
1.66924
1.68693
1.7069
1.72788
1.74849
1.76875
1.79001
1.81391
1.84128
1.87125
52.8355
72.6964
95.4559
120.007
144.75
167.502
185.402
195.14
193.891
180.737
157.524
128.353
98.0102
70.72
49.8457
35.2257
25.22
18.4921
13.9697
11.0163
9.09969
7.95134
7.31547
6.99939
6.9439
7.15299
7.7393
8.97129
11.4035
16.4425
28.5713
69.7893
324.786
3149.86
3.54808
4.58052
6.90026
11.7589
21.1289
36.9886
56.4608
2.93472
2.52907
2.2537
2.06474
1.9333
1.84104
1.77563
1.7286
1.69416
1.66871
1.6501
1.63792
1.6324
1.63028
1.62982
1.63114
1.63588
1.64368
1.65474
1.66924
1.68692
1.70688
1.72749
1.74788
1.76826
1.7896
1.81357
1.84103
1.87117
78.6638
104.189
132.29
161.565
190.064
215.087
233.061
240.049
233.222
212.556
181.335
144.928
108.806
77.3512
53.8149
37.5941
26.6343
19.2274
14.366
11.2965
9.30106
8.1059
7.44437
7.11365
7.04952
7.25541
7.83919
9.07255
11.517
16.6139
29.082
72.3103
342.702
3328.68
3.40615
4.34805
6.43822
10.8503
19.5329
34.4275
57.5796
84.0133
2.84033
2.46569
2.21093
2.03583
1.91385
1.82821
1.76717
1.72285
1.69014
1.66585
1.64812
1.63694
1.63199
1.63014
1.62982
1.63123
1.63586
1.64368
1.65474
1.66923
1.68689
1.70642
1.72672
1.74725
1.76776
1.78919
1.81322
1.84078
1.87109
112.555
144.056
177.623
211.62
243.706
270.476
287.432
290.018
275.758
246.013
205.77
161.619
119.527
83.8714
57.6875
39.8897
27.8176
19.859
14.8054
11.6071
9.52381
8.27616
7.5857
7.23842
7.1645
7.36681
7.94804
9.18378
11.6431
16.8117
29.6465
75.0383
361.212
3542.34
3.26997
4.12952
6.00067
9.98745
18.0128
32.0294
53.9818
85.8458
119.998
2.74982
2.40503
2.1701
2.00846
1.89591
1.81651
1.75936
1.71748
1.68634
1.66314
1.64628
1.63606
1.63163
1.63006
1.62977
1.63118
1.63586
1.64368
1.65473
1.66921
1.68639
1.7055
1.72592
1.7466
1.76725
1.78877
1.81286
1.84052
1.871
155.221
192.821
231.9
270.623
306.105
333.925
348.43
344.606
320.886
280.554
230.445
178.204
130.065
90.2306
61.4411
41.8112
28.8342
20.5593
15.293
11.9519
9.77048
8.46387
7.74074
7.37468
7.28963
7.48791
8.06664
9.30571
11.7847
17.0342
30.2861
77.9256
384.099
3772.16
3.13972
3.92405
5.58855
9.16641
16.5369
29.7086
50.6029
80.9892
122.716
165.037
2.66339
2.34723
2.13152
1.98327
1.87961
1.80577
1.75211
1.71243
1.68275
1.66058
1.64456
1.63528
1.63136
1.62997
1.62968
1.63116
1.63586
1.64368
1.65472
1.66872
1.68541
1.70456
1.72509
1.74594
1.76673
1.78834
1.81249
1.84025
1.87091
207.079
250.812
295.499
339.051
377.712
405.622
415.797
403.181
367.883
315.6
254.997
194.495
140.329
96.3879
64.5818
43.4618
29.9614
21.3365
15.8348
12.3349
10.0439
8.67104
7.91094
7.52351
7.42578
7.61946
8.1957
9.43977
11.9419
17.2912
30.9872
81.6061
409.506
3977.19
3.01559
3.73104
5.20298
8.3879
15.0944
27.4238
47.3045
76.4574
116.336
168.731
219.389
2.58127
2.29274
2.09611
1.96047
1.86472
1.79586
1.74532
1.70765
1.67932
1.65813
1.64299
1.63467
1.63118
1.62986
1.62966
1.63116
1.63586
1.64368
1.65429
1.66776
1.6844
1.70359
1.72424
1.74525
1.7662
1.78791
1.81212
1.83997
1.87082
268.298
318.274
368.863
417.493
459.04
485.664
489.069
464.928
415.949
350.589
279.11
210.333
150.246
101.532
67.2783
45.2916
31.2125
22.2001
16.4371
12.7607
10.3474
8.89985
8.09785
7.68606
7.57383
7.76219
8.33607
9.58654
12.1192
17.5795
31.9218
85.918
434.572
4157.79
2.8978
3.54983
4.84536
7.65357
13.691
25.157
44.0292
72.0259
110.473
160.472
224.003
283.003
2.50414
2.24286
2.06418
1.93975
1.85106
1.78663
1.73893
1.70311
1.67603
1.65582
1.6417
1.6343
1.63104
1.62984
1.62966
1.63117
1.63588
1.64333
1.65343
1.66678
1.68336
1.70258
1.72336
1.74454
1.76565
1.78747
1.81174
1.83969
1.87072
338.944
395.536
452.636
506.775
550.701
574.045
567.556
528.867
464.261
385.013
302.522
225.595
158.508
105.942
70.2648
47.3216
32.6022
23.1604
17.1074
13.2347
10.6843
9.15275
8.3032
7.86358
7.73474
7.91705
8.48866
9.74815
12.3161
17.9721
33.0806
90.2189
458.497
4311.38
2.78746
3.37944
4.517
6.96821
12.3397
22.9093
40.7451
67.6158
104.773
153.067
213.367
288.274
355.664
2.43383
2.19806
2.0353
1.92084
1.83844
1.77802
1.73288
1.69875
1.67289
1.65387
1.64095
1.63412
1.63103
1.62984
1.62967
1.63122
1.63563
1.64262
1.65256
1.66578
1.6823
1.70155
1.72244
1.7438
1.76509
1.78702
1.81135
1.8394
1.87062
419.174
483.234
547.928
608.129
653.491
670.596
650.293
593.903
512.043
418.442
325.025
238.267
165.576
110.818
73.5737
49.575
34.1469
24.2287
17.8537
13.7623
11.0587
9.43243
8.52886
8.05736
7.90945
8.08426
8.65477
9.92501
12.579
18.4754
34.2902
94.7453
482.158
4436.58
2.68735
3.21989
4.22013
6.33663
11.0541
20.6923
37.4428
63.1722
99.1294
145.962
204.125
274.539
361.05
437.215
2.37097
2.15774
2.00908
1.9035
1.82674
1.76991
1.7271
1.6946
1.67024
1.65278
1.64068
1.63412
1.63103
1.62985
1.62976
1.63113
1.63512
1.64191
1.65168
1.66476
1.68121
1.70048
1.7215
1.74305
1.76451
1.78656
1.81096
1.83911
1.87053
509.505
582.61
656.52
723.465
768.362
774.849
736.059
658.929
558.609
450.535
343.645
249.075
173.365
116.206
77.2407
52.0772
35.8646
25.4179
18.685
14.3501
11.4748
9.74178
8.77681
8.2688
8.09904
8.26448
8.83469
10.1554
12.9115
19.0183
35.5995
98.9417
508.98
4533.64
2.59841
3.07446
3.95677
5.7613
9.85051
18.5226
34.1277
58.6667
93.4539
139.022
195.444
263.035
343.176
441.863
527.872
2.31467
2.12136
1.98521
1.88753
1.81582
1.76223
1.72162
1.69111
1.66878
1.65244
1.64069
1.63412
1.63103
1.62995
1.62981
1.63089
1.63462
1.6412
1.65078
1.66372
1.68008
1.69938
1.72052
1.74226
1.76392
1.7861
1.81057
1.83883
1.87044
611.11
695.629
781.449
855.493
896.18
885.932
823.479
722.9
603.393
477.026
359.48
260.945
181.944
122.159
81.3036
54.8559
37.7752
26.742
19.6111
15.0047
11.9374
10.084
9.04918
8.49925
8.30467
8.45826
9.0656
10.439
13.2662
19.6152
36.9071
103.421
535.096
4605.71
2.51936
2.94464
3.72686
5.24684
8.74167
16.419
30.814
54.088
87.6889
132.112
187.152
252.526
328.8
418.322
530.621
628.689
2.26415
2.08845
1.96339
1.87277
1.80555
1.755
1.71707
1.6892
1.66837
1.6525
1.64069
1.63411
1.63116
1.63004
1.6298
1.63069
1.63414
1.64049
1.64988
1.66265
1.67893
1.69824
1.71951
1.74145
1.76332
1.78565
1.8102
1.83856
1.87035
725.817
826.424
927.678
1007.44
1037.44
1002.66
911.154
784.894
640.369
499.505
376.809
273.961
191.381
128.731
85.8031
57.941
39.9001
28.2162
20.6426
15.7337
12.4513
10.4622
9.34809
8.75028
8.52693
8.70522
9.34389
10.7338
13.6497
20.2332
38.3566
107.497
565.478
4651.78
2.44898
2.82903
3.52755
4.80519
7.73772
14.4064
27.5229
49.4358
81.794
125.138
179.057
242.799
316.091
400.237
499.094
628.109
742.169
2.21871
2.05859
1.94337
1.859
1.79596
1.74904
1.71456
1.68869
1.66849
1.6525
1.64067
1.63429
1.63135
1.63013
1.62984
1.63051
1.63366
1.63978
1.64896
1.66158
1.67776
1.69707
1.71845
1.74061
1.76272
1.78521
1.80985
1.8383
1.87026
858.627
982.653
1101.94
1182.9
1192.5
1123.87
997.683
836.34
671.722
524.027
395.723
288.203
201.742
135.975
90.7816
61.3642
42.2624
29.8568
21.7911
16.5449
13.0219
10.8801
9.67589
9.02294
8.81138
9.00024
9.62754
11.0428
14.0484
20.9253
39.7396
112.359
595.598
4677.36
2.38617
2.72639
3.35237
4.43568
6.86806
12.5311
24.2849
44.7196
75.738
118.015
171.015
233.58
304.778
384.794
476.216
584.965
736.854
873.044
2.17779
2.03141
1.92485
1.84626
1.78812
1.74576
1.7139
1.68891
1.66849
1.65243
1.64094
1.63466
1.63162
1.63027
1.6299
1.63037
1.63322
1.63907
1.64805
1.66048
1.67655
1.69586
1.71737
1.73976
1.76213
1.78479
1.80951
1.83805
1.87017
1018.1
1175.23
1313.37
1386.84
1363.13
1248.13
1070.43
880.051
705.869
550.684
416.302
303.741
213.091
143.946
96.2819
65.1584
44.8864
31.6812
23.0685
17.4466
13.6546
11.341
10.0343
9.37381
9.15224
9.29858
9.91729
11.3601
14.4842
21.6211
41.326
116.901
630.111
4674.79
2.32998
2.63549
3.19664
4.13046
6.13866
10.865
21.1624
39.9624
69.4991
110.665
162.889
224.67
294.47
371.651
457.326
555.983
676.256
860.865
1031.31
2.14083
2.00649
1.90785
1.83591
1.78376
1.7449
1.71423
1.6889
1.66835
1.65276
1.64169
1.63527
1.63199
1.63044
1.62998
1.63027
1.6328
1.63838
1.64713
1.65938
1.67532
1.69462
1.71628
1.73894
1.76155
1.78438
1.80918
1.8378
1.87009
1219.02
1421.48
1577.81
1632.28
1551.71
1355.02
1132.57
927.683
742.884
579.536
438.603
320.633
225.485
152.694
102.346
69.3569
47.797
33.7075
24.4876
18.4472
14.3548
11.8479
10.4988
9.79713
9.49754
9.59995
10.2104
11.6946
14.9314
22.3964
42.8926
122.397
669.863
4661.04
2.27959
2.55502
3.05761
3.87639
5.53032
9.44462
18.2764
35.2365
63.0697
103.012
154.54
215.868
284.902
360.228
442.015
532.748
639.624
774.848
1008.27
1232.08
2.10724
1.98379
1.89408
1.83015
1.7826
1.74538
1.71423
1.68867
1.66876
1.65386
1.64299
1.63607
1.6324
1.63064
1.63007
1.63022
1.63242
1.63771
1.64623
1.65827
1.67407
1.69338
1.71522
1.73812
1.76099
1.78399
1.80886
1.83757
1.87
1492.22
1762.68
1939.44
1944.07
1718.28
1446.84
1200.39
979.233
782.774
610.599
462.651
338.915
238.965
162.264
109.015
73.9921
51.0191
35.9537
26.0608
19.5555
15.1275
12.5085
11.0636
10.2286
9.84592
9.90265
10.5102
12.037
15.4157
23.1985
44.5981
128.751
710.952
4629.34
2.23414
2.48366
2.93367
3.66058
5.02728
8.24297
15.6998
30.7202
56.5077
94.9899
145.821
206.969
275.799
350.183
429.37
514.854
610.96
728.8
886.398
1201.51
1515.86
2.07689
1.96546
1.88633
1.82863
1.78324
1.74537
1.71388
1.68918
1.67024
1.65584
1.64459
1.63695
1.63287
1.63087
1.63018
1.63022
1.63209
1.63706
1.64533
1.65715
1.67285
1.69219
1.71417
1.73733
1.76044
1.7836
1.80855
1.83734
1.86993
1937.71
2316.45
2510.55
2220.95
1860.49
1546.64
1273.54
1034.54
825.453
643.825
488.432
358.595
253.559
172.689
116.321
79.0939
54.5766
38.4375
27.8008
20.7787
16.137
13.3168
11.6435
10.6659
10.1955
10.2073
10.8131
12.3967
15.9241
24.0387
46.5348
135.614
756.892
4576.62
2.1934
2.41997
2.82355
3.47373
4.61431
7.23903
13.4465
26.5487
50.0342
86.6033
136.576
197.745
266.889
341.143
418.965
500.803
590.028
693.45
828.298
1023.22
1491.74
2039.68
2.0523
1.95515
1.8843
1.82947
1.78324
1.74488
1.71455
1.69112
1.67292
1.65817
1.64632
1.63794
1.6334
1.63114
1.63031
1.63027
1.63182
1.63645
1.64445
1.65608
1.67167
1.69102
1.71315
1.73654
1.7599
1.78323
1.80826
1.83712
1.86985
2761.13
3438.13
2977.51
2446.95
2011.04
1652.7
1351.3
1093.27
870.729
679.101
515.878
379.648
269.268
183.99
124.292
84.6874
58.4904
41.1752
29.718
22.3773
17.3761
14.1512
12.2345
11.1063
10.5452
10.5121
11.1227
12.7712
16.4501
24.9904
48.465
144.235
800.724
4511.66
2.16036
2.36345
2.72583
3.30915
4.27864
6.41161
11.5137
22.7604
43.8454
78.0747
126.717
187.938
257.866
332.773
410.296
490.075
574.327
668.972
784.876
949.685
1217.56
2064.6
3178.65
2.03837
1.95253
1.88536
1.82947
1.78259
1.74575
1.71709
1.69465
1.67609
1.66064
1.64817
1.63906
1.63402
1.63148
1.63049
1.63037
1.63163
1.6359
1.64362
1.65506
1.67054
1.68989
1.71216
1.73578
1.75937
1.78286
1.80797
1.83691
1.86981
4826.12
4140.36
3306.59
2667.49
2164.85
1763.04
1432.71
1154.92