/*--------------------------------*- C++ -*----------------------------------*\
  =========                 |
  \\      /  F ield         | OpenFOAM: The Open Source CFD Toolbox
   \\    /   O peration     | Website:  https://openfoam.org
    \\  /    A nd           | Version:  8
     \\/     M anipulation  |
\*---------------------------------------------------------------------------*/
FoamFile
{
    version     2.0;
    format      ascii;
    class       volVectorField;
    location    "0.29";
    object      U;
}
// * * * * * * * * * * * * * * * * * * * * * * * * * * * * * * * * * * * * * //

dimensions      [0 1 -1 0 0 0 0];

internalField   nonuniform List<vector> 
15677
(
(-0.019931 9.66507 0)
(0.0435749 9.92085 0)
(0.00238456 9.37799 0)
(0.0147388 9.97647 0)
(0.0186187 9.78774 0)
(0.00702436 9.14216 0)
(0.0279635 9.99434 0)
(0.0171183 9.92479 0)
(0.0107434 9.65481 0)
(0.0060907 8.95965 0)
(0.0261108 10.0015 0)
(0.0215179 9.97853 0)
(0.0164134 9.85327 0)
(0.00903483 9.52994 0)
(0.00491922 8.81606 0)
(0.0249572 10.0047 0)
(0.0223956 10.0026 0)
(0.0192104 9.94278 0)
(0.0154008 9.77893 0)
(0.00790515 9.41878 0)
(0.00405151 8.70116 0)
(0.0239806 10.0062 0)
(0.0225761 10.0142 0)
(0.0208315 9.98598 0)
(0.0183258 9.90204 0)
(0.0139409 9.70724 0)
(0.00683793 9.32032 0)
(0.00338557 8.60844 0)
(0.0226386 10.0067 0)
(0.0224211 10.0199 0)
(0.0216698 10.008 0)
(0.020242 9.96464 0)
(0.0171091 9.86124 0)
(0.0125201 9.63974 0)
(0.00589429 9.23467 0)
(0.00282794 8.53391 0)
(0.0209528 10.0067 0)
(0.021887 10.0224 0)
(0.0220081 10.0194 0)
(0.0213511 9.99779 0)
(0.0191721 9.94313 0)
(0.0157381 9.82137 0)
(0.0111654 9.57805 0)
(0.0050216 9.16187 0)
(0.00231445 8.47486 0)
(0.0190355 10.0063 0)
(0.0210555 10.0226 0)
(0.0219194 10.0253 0)
(0.0218715 10.0159 0)
(0.0203713 9.98762 0)
(0.01783 9.92195 0)
(0.0142823 9.78393 0)
(0.00978354 9.5236 0)
(0.00416241 9.10172 0)
(0.00180693 8.42979 0)
(0.0169628 10.0057 0)
(0.0200062 10.0218 0)
(0.0214844 10.0283 0)
(0.0219262 10.026 0)
(0.0209506 10.0126 0)
(0.0190142 9.97781 0)
(0.0163048 9.90229 0)
(0.0126732 9.75043 0)
(0.00831139 9.47739 0)
(0.00327164 9.05401 0)
(0.00127654 8.39773 0)
(0.014745 10.0051 0)
(0.0187184 10.0203 0)
(0.0207477 10.0291 0)
(0.0216348 10.0314 0)
(0.0210346 10.0268 0)
(0.0195167 10.0096 0)
(0.0173735 9.96935 0)
(0.0145131 9.88536 0)
(0.0108466 9.72204 0)
(0.00670012 9.44019 0)
(0.00230866 9.0187 0)
(0.000700974 8.3784 0)
(0.0124318 10.0044 0)
(0.0173092 10.0183 0)
(0.0197141 10.0284 0)
(0.0210023 10.0338 0)
(0.0206845 10.0349 0)
(0.0194886 10.0281 0)
(0.017701 10.008 0)
(0.0153532 9.96329 0)
(0.0123746 9.8722 0)
(0.00874313 9.69983 0)
(0.00489932 9.41276 0)
(0.00124058 8.99583 0)
(3.54762e-05 8.37158 0)
(0.010154 10.0036 0)
(0.0158268 10.0161 0)
(0.0184327 10.0267 0)
(0.0200542 10.0342 0)
(0.0200131 10.039 0)
(0.0190148 10.0389 0)
(0.0174478 10.0307 0)
(0.0153881 10.0086 0)
(0.0128578 9.96054 0)
(0.00981354 9.86379 0)
(0.00629885 9.68485 0)
(0.00286304 9.39575 0)
(5.52993e-05 8.98558 0)
(-0.000603564 8.37726 0)
(0.00819653 10.0029 0)
(0.0142405 10.0136 0)
(0.0169487 10.0243 0)
(0.0188032 10.0332 0)
(0.0190039 10.0406 0)
(0.0181563 10.0448 0)
(0.0167067 10.0441 0)
(0.014779 10.0354 0)
(0.0124629 10.0123 0)
(0.00979086 9.96197 0)
(0.00674727 9.86113 0)
(0.00345264 9.67809 0)
(0.00054399 9.3898 0)
(-0.00129917 8.98825 0)
(-0.00137387 8.39556 0)
(0.00667078 10.0022 0)
(0.0127147 10.0113 0)
(0.015296 10.0215 0)
(0.0172617 10.0311 0)
(0.017665 10.0402 0)
(0.0169252 10.0475 0)
(0.0155241 10.0518 0)
(0.0136201 10.0514 0)
(0.011347 10.0431 0)
(0.00880773 10.02 0)
(0.006046 9.96849 0)
(0.00309595 9.86522 0)
(0.0001245 9.68051 0)
(-0.0021 9.39554 0)
(-0.00283916 9.00401 0)
(-0.00224719 8.42674 0)
(0.00551281 10.0017 0)
(0.0113117 10.0093 0)
(0.0136779 10.0187 0)
(0.0154575 10.0283 0)
(0.0160021 10.0385 0)
(0.0153283 10.0479 0)
(0.0139182 10.0556 0)
(0.0119549 10.0607 0)
(0.00960171 10.0616 0)
(0.00701027 10.0546 0)
(0.00429157 10.0324 0)
(0.00152667 9.98102 0)
(-0.00120688 9.87706 0)
(-0.00366463 9.69296 0)
(-0.00507604 9.41352 0)
(-0.00456278 9.03313 0)
(-0.00321792 8.47088 0)
(0.00454891 10.0014 0)
(0.00995281 10.0076 0)
(0.012201 10.0163 0)
(0.0136305 10.0253 0)
(0.0140294 10.0357 0)
(0.0133695 10.0466 0)
(0.0118936 10.0567 0)
(0.00979905 10.0656 0)
(0.00726689 10.0724 0)
(0.0044842 10.0754 0)
(0.00161762 10.0706 0)
(-0.00121254 10.0504 0)
(-0.00388419 10.0005 0)
(-0.006259 9.89756 0)
(-0.00801771 9.71623 0)
(-0.00842956 9.44415 0)
(-0.0064793 9.07566 0)
(-0.00428278 8.52803 0)
(0.0037667 10.0011 0)
(0.00874003 10.0063 0)
(0.0108101 10.0141 0)
(0.0119413 10.0226 0)
(0.011995 10.0325 0)
(0.0110592 10.0439 0)
(0.00945147 10.0558 0)
(0.00715409 10.0674 0)
(0.00435266 10.0783 0)
(0.00126223 10.0876 0)
(-0.00191493 10.0935 0)
(-0.00501178 10.092 0)
(-0.00784618 10.075 0)
(-0.0102727 10.0278 0)
(-0.0121023 9.92758 0)
(-0.0129664 9.75095 0)
(-0.0121762 9.48773 0)
(-0.00859534 9.13173 0)
(-0.00543999 8.59804 0)
(0.00312921 10.0009 0)
(0.00764687 10.0053 0)
(0.00953299 10.0123 0)
(0.0103557 10.0201 0)
(0.0100888 10.0294 0)
(0.00867814 10.0405 0)
(0.00660173 10.0531 0)
(0.00401949 10.0667 0)
(0.000855851 10.0806 0)
(-0.00265349 10.0943 0)
(-0.00628321 10.1071 0)
(-0.00980908 10.1169 0)
(-0.0130203 10.1196 0)
(-0.0157146 10.1069 0)
(-0.017708 10.0637 0)
(-0.0187735 9.96785 0)
(-0.0185182 9.79763 0)
(-0.016313 9.5444 0)
(-0.010899 9.2011 0)
(-0.00667859 8.68058 0)
(0.00260499 10.0008 0)
(0.00665709 10.0044 0)
(0.00835732 10.0107 0)
(0.00888519 10.0178 0)
(0.0082879 10.0265 0)
(0.00644974 10.037 0)
(0.00368505 10.0494 0)
(0.000405958 10.064 0)
(-0.0032225 10.08 0)
(-0.00727068 10.0969 0)
(-0.0114824 10.1144 0)
(-0.0156002 10.1316 0)
(-0.0193711 10.1463 0)
(-0.0225514 10.1542 0)
(-0.024913 10.1469 0)
(-0.0262438 10.109 0)
(-0.0262911 10.0189 0)
(-0.0246668 9.85652 0)
(-0.0208259 9.61413 0)
(-0.0133828 9.28359 0)
(-0.0079911 8.77523 0)
(0.00218843 10.0006 0)
(0.00576826 10.0037 0)
(0.00728338 10.0093 0)
(0.00753497 10.0159 0)
(0.00661165 10.0238 0)
(0.00435143 10.0336 0)
(0.000969592 10.0455 0)
(-0.00325769 10.0599 0)
(-0.00786726 10.0771 0)
(-0.0125911 10.0964 0)
(-0.0175342 10.1173 0)
(-0.0224054 10.1394 0)
(-0.026914 10.1618 0)
(-0.0307769 10.1824 0)
(-0.0337243 10.1966 0)
(-0.0355103 10.1957 0)
(-0.0359046 10.1643 0)
(-0.0346492 10.0813 0)
(-0.03139 9.92777 0)
(-0.0256863 9.69672 0)
(-0.016016 9.37856 0)
(-0.00935597 8.88115 0)
(0.00186927 10.0005 0)
(0.00501892 10.0032 0)
(0.00630691 10.0081 0)
(0.00630733 10.0141 0)
(0.00507426 10.0213 0)
(0.0024098 10.0303 0)
(-0.00156929 10.0415 0)
(-0.00664496 10.0554 0)
(-0.0125387 10.0725 0)
(-0.0185951 10.093 0)
(-0.024445 10.1165 0)
(-0.0302546 10.1422 0)
(-0.0356918 10.17 0)
(-0.0404328 10.1987 0)
(-0.0441714 10.2261 0)
(-0.0466247 10.2475 0)
(-0.0475383 10.2539 0)
(-0.0466829 10.2299 0)
(-0.0438171 10.155 0)
(-0.0386432 10.0112 0)
(-0.030851 9.79169 0)
(-0.0187782 9.48546 0)
(-0.0107554 8.99764 0)
(0.00162197 10.0005 0)
(0.00441349 10.0028 0)
(0.0054546 10.0071 0)
(0.00520157 10.0125 0)
(0.00368325 10.019 0)
(0.000642462 10.0272 0)
(-0.00389652 10.0376 0)
(-0.00979508 10.0507 0)
(-0.0168319 10.0672 0)
(-0.0245899 10.0876 0)
(-0.0321895 10.1125 0)
(-0.0391581 10.141 0)
(-0.0457477 10.1726 0)
(-0.0515875 10.2069 0)
(-0.0563298 10.2428 0)
(-0.0596601 10.2779 0)
(-0.0612947 10.3073 0)
(-0.0609907 10.3218 0)
(-0.0585372 10.3062 0)
(-0.0537316 10.2401 0)
(-0.0463618 10.1066 0)
(-0.0362662 9.89844 0)
(-0.0216114 9.60324 0)
(-0.0121501 9.12307 0)
(0.00142695 10.0004 0)
(0.00392221 10.0024 0)
(0.00474896 10.0063 0)
(0.00425475 10.011 0)
(0.00244258 10.0168 0)
(-0.000935194 10.0243 0)
(-0.00599104 10.0337 0)
(-0.0126617 10.0458 0)
(-0.0208006 10.0615 0)
(-0.0300701 10.0813 0)
(-0.0398789 10.106 0)
(-0.0490837 10.1361 0)
(-0.057099 10.1707 0)
(-0.0643042 10.2092 0)
(-0.0703009 10.251 0)
(-0.0747353 10.2949 0)
(-0.0772991 10.3385 0)
(-0.07773 10.3765 0)
(-0.075815 10.3998 0)
(-0.0713875 10.3931 0)
(-0.0643066 10.3364 0)
(-0.0544595 10.2132 0)
(-0.0418202 10.0161 0)
(-0.0244055 9.73062 0)
(-0.0131012 9.25574 0)
(0.0012709 10.0004 0)
(0.00352237 10.0022 0)
(0.00417062 10.0057 0)
(0.00348754 10.0099 0)
(0.0014003 10.0149 0)
(-0.00231563 10.0215 0)
(-0.00783264 10.03 0)
(-0.0152124 10.041 0)
(-0.0243879 10.0555 0)
(-0.0351106 10.0744 0)
(-0.0468798 10.0984 0)
(-0.0588989 10.1283 0)
(-0.0697076 10.1646 0)
(-0.0786116 10.2063 0)
(-0.0861745 10.2526 0)
(-0.0919913 10.3027 0)
(-0.0957207 10.3555 0)
(-0.0970859 10.4081 0)
(-0.0958705 10.4554 0)
(-0.0919188 10.4879 0)
(-0.0851217 10.4905 0)
(-0.0754192 10.4434 0)
(-0.0627946 10.3304 0)
(-0.0474626 10.1434 0)
(-0.0271747 9.86732 0)
(-0.0141603 9.39565 0)
(0.00114451 10.0003 0)
(0.00319454 10.002 0)
(0.00369384 10.0052 0)
(0.00287066 10.0089 0)
(0.000576373 10.0133 0)
(-0.00344725 10.0189 0)
(-0.00940958 10.0264 0)
(-0.0174217 10.0363 0)
(-0.0275497 10.0495 0)
(-0.0396413 10.067 0)
(-0.0532954 10.0899 0)
(-0.0678109 10.119 0)
(-0.082144 10.155 0)
(-0.0944677 10.1986 0)
(-0.103995 10.2485 0)
(-0.111551 10.3035 0)
(-0.11675 10.3628 0)
(-0.119293 10.425 0)
(-0.118962 10.4872 0)
(-0.115611 10.5441 0)
(-0.109159 10.586 0)
(-0.0995829 10.5979 0)
(-0.0868945 10.5604 0)
(-0.0712148 10.4571 0)
(-0.0523033 10.2797 0)
(-0.0235462 10.0068 0)
(-0.00917154 9.48016 0)
(0.00104107 10.0003 0)
(0.00292379 10.0018 0)
(0.00329928 10.0047 0)
(0.00237317 10.0081 0)
(-6.67767e-05 10.012 0)
(-0.0043129 10.0168 0)
(-0.0106607 10.023 0)
(-0.0192729 10.0316 0)
(-0.0302526 10.0434 0)
(-0.0436056 10.0594 0)
(-0.0590392 10.0807 0)
(-0.0759587 10.1085 0)
(-0.093418 10.1437 0)
(-0.110083 10.1869 0)
(-0.123716 10.2389 0)
(-0.133483 10.2979 0)
(-0.140558 10.3624 0)
(-0.144602 10.4315 0)
(-0.145389 10.5037 0)
(-0.142794 10.5758 0)
(-0.136774 10.6423 0)
(-0.127346 10.6937 0)
(-0.114553 10.7149 0)
(-0.0985192 10.6865 0)
(-0.0791383 10.5923 0)
(-0.0569745 10.4218 0)
(-0.0191946 10.1771 0)
(-0.00137983 9.54494 0)
(0.000955572 10.0003 0)
(0.00269866 10.0016 0)
(0.00297378 10.0044 0)
(0.00197071 10.0074 0)
(-0.000566919 10.0108 0)
(-0.00496084 10.0149 0)
(-0.0115767 10.0201 0)
(-0.0206924 10.0272 0)
(-0.032473 10.0374 0)
(-0.0469591 10.0517 0)
(-0.0640389 10.0712 0)
(-0.0832355 10.0972 0)
(-0.103713 10.1308 0)
(-0.12423 10.1731 0)
(-0.143131 10.2247 0)
(-0.157748 10.286 0)
(-0.167241 10.3551 0)
(-0.173227 10.4299 0)
(-0.175467 10.5094 0)
(-0.173853 10.5917 0)
(-0.168384 10.6738 0)
(-0.159137 10.7499 0)
(-0.14622 10.8106 0)
(-0.129772 10.8406 0)
(-0.109758 10.8209 0)
(-0.0860882 10.7349 0)
(-0.0607136 10.5777 0)
(-0.0211112 10.3492 0)
(0.00268127 9.60129 0)
(0.000884271 10.0002 0)
(0.00251046 10.0015 0)
(0.00269843 10.004 0)
(0.00164442 10.0068 0)
(-0.000954519 10.0098 0)
(-0.00543836 10.0132 0)
(-0.0122224 10.0176 0)
(-0.0216809 10.0234 0)
(-0.0341222 10.0317 0)
(-0.0496693 10.044 0)
(-0.0682365 10.0614 0)
(-0.0895498 10.0853 0)
(-0.112898 10.1168 0)
(-0.137148 10.1574 0)
(-0.160728 10.2079 0)
(-0.181645 10.2689 0)
(-0.196762 10.3407 0)
(-0.205308 10.4206 0)
(-0.20948 10.5062 0)
(-0.209186 10.5964 0)
(-0.204468 10.689 0)
(-0.195475 10.781 0)
(-0.182408 10.8664 0)
(-0.165479 10.9358 0)
(-0.144741 10.9742 0)
(-0.120073 10.9627 0)
(-0.0916119 10.8856 0)
(-0.0621129 10.7463 0)
(-0.0244446 10.5181 0)
(0.00360022 9.65727 0)
(0.000824306 10.0002 0)
(0.00235235 10.0014 0)
(0.00246757 10.0038 0)
(0.00138283 10.0063 0)
(-0.00125366 10.0089 0)
(-0.00578354 10.0118 0)
(-0.0126594 10.0154 0)
(-0.0223259 10.02 0)
(-0.035213 10.0266 0)
(-0.0516274 10.0366 0)
(-0.0715876 10.0515 0)
(-0.094826 10.0729 0)
(-0.120857 10.102 0)
(-0.148675 10.1402 0)
(-0.176808 10.1889 0)
(-0.203325 10.2488 0)
(-0.225865 10.3202 0)
(-0.240835 10.4032 0)
(-0.247629 10.4948 0)
(-0.249159 10.5916 0)
(-0.245522 10.6925 0)
(-0.236948 10.7954 0)
(-0.223743 10.8969 0)
(-0.206244 10.9912 0)
(-0.184665 11.0688 0)
(-0.15903 11.1151 0)
(-0.129656 11.1117 0)
(-0.0967398 11.0445 0)
(-0.0638686 10.9223 0)
(-0.0271689 10.6826 0)
(0.00321665 9.72989 0)
(0.000773473 10.0002 0)
(0.00221889 10.0013 0)
(0.00227441 10.0035 0)
(0.00116893 10.0059 0)
(-0.00148278 10.0082 0)
(-0.00602668 10.0106 0)
(-0.0129371 10.0134 0)
(-0.022709 10.017 0)
(-0.035863 10.0221 0)
(-0.0528614 10.0299 0)
(-0.0739571 10.042 0)
(-0.0990047 10.0603 0)
(-0.127494 10.0866 0)
(-0.158667 10.1219 0)
(-0.191176 10.168 0)
(-0.22317 10.2258 0)
(-0.252317 10.2962 0)
(-0.275919 10.379 0)
(-0.289936 10.4742 0)
(-0.294043 10.5778 0)
(-0.292003 10.6861 0)
(-0.284149 10.7978 0)
(-0.270923 10.9106 0)
(-0.252803 11.0211 0)
(-0.230208 11.1236 0)
(-0.203395 11.2089 0)
(-0.172795 11.2628 0)
(-0.139188 11.267 0)
(-0.102683 11.2106 0)
(-0.0664598 11.1006 0)
(-0.0299949 10.8617 0)
(0.00212921 9.81342 0)
(0.000730055 10.0002 0)
(0.00210577 10.0013 0)
(0.00211193 10.0033 0)
(0.000993963 10.0055 0)
(-0.00165773 10.0075 0)
(-0.00619176 10.0095 0)
(-0.0130946 10.0117 0)
(-0.0228952 10.0144 0)
(-0.0361798 10.0181 0)
(-0.0535276 10.024 0)
(-0.0753904 10.0334 0)
(-0.101916 10.0482 0)
(-0.132728 10.0707 0)
(-0.166999 10.1028 0)
(-0.203651 10.1455 0)
(-0.240941 10.2006 0)
(-0.276591 10.2688 0)
(-0.307885 10.3508 0)
(-0.331811 10.4459 0)
(-0.34391 10.5539 0)
(-0.344267 10.6698 0)
(-0.337646 10.7897 0)
(-0.324658 10.9118 0)
(-0.305973 11.034 0)
(-0.28222 11.1529 0)
(-0.25393 11.2631 0)
(-0.221694 11.3556 0)
(-0.186397 11.4163 0)
(-0.149025 11.4276 0)
(-0.109401 11.3808 0)
(-0.0703054 11.2995 0)
(-0.0329778 11.0554 0)
(0.000436113 9.90599 0)
(0.000692754 10.0002 0)
(0.00200943 10.0012 0)
(0.00197404 10.0032 0)
(0.000850695 10.0051 0)
(-0.00179045 10.0069 0)
(-0.00629766 10.0086 0)
(-0.0131626 10.0102 0)
(-0.0229359 10.0121 0)
(-0.0362493 10.0146 0)
(-0.0537673 10.0188 0)
(-0.0760927 10.0257 0)
(-0.103624 10.0371 0)
(-0.136344 10.0553 0)
(-0.173566 10.083 0)
(-0.214075 10.122 0)
(-0.256416 10.1734 0)
(-0.298395 10.2386 0)
(-0.33731 10.3185 0)
(-0.370076 10.413 0)
(-0.3934 10.5212 0)
(-0.402458 10.6424 0)
(-0.397906 10.7709 0)
(-0.385644 10.902 0)
(-0.36659 11.0341 0)
(-0.341647 11.1651 0)
(-0.311619 11.2917 0)
(-0.277331 11.4089 0)
(-0.239772 11.5077 0)
(-0.200076 11.5744 0)
(-0.159076 11.5914 0)
(-0.117134 11.5734 0)
(-0.07506 11.5175 0)
(-0.0361157 11.2444 0)
(-0.0014518 10.0057 0)
(0.000660891 10.0002 0)
(0.00192676 10.0011 0)
(0.00185756 10.003 0)
(0.00073328 10.0048 0)
(-0.0018903 10.0064 0)
(-0.00635918 10.0078 0)
(-0.0131652 10.0089 0)
(-0.0228712 10.0101 0)
(-0.0361392 10.0116 0)
(-0.0536934 10.0141 0)
(-0.0762482 10.0188 0)
(-0.104395 10.0272 0)
(-0.138428 10.0412 0)
(-0.178094 10.0637 0)
(-0.222311 10.0976 0)
(-0.269394 10.1447 0)
(-0.317457 10.206 0)
(-0.363847 10.2828 0)
(-0.405429 10.3753 0)
(-0.438777 10.4833 0)
(-0.460394 10.6052 0)
(-0.465166 10.7398 0)
(-0.454475 10.8807 0)
(-0.43549 11.0226 0)
(-0.409459 11.1641 0)
(-0.377538 11.3032 0)
(-0.340823 11.4369 0)
(-0.300494 11.5601 0)
(-0.257799 11.6643 0)
(-0.213803 11.7353 0)
(-0.170125 11.7769 0)
(-0.125559 11.7869 0)
(-0.0801336 11.7312 0)
(-0.0391667 11.4282 0)
(-0.00326972 10.1101 0)
(0.00185512 10.0011 0)
(0.000622634 10.0002 0)
(0.00175755 10.0029 0)
(0.000635784 10.0046 0)
(-0.00196454 10.006 0)
(-0.00638771 10.0071 0)
(-0.013121 10.0078 0)
(-0.0227325 10.0083 0)
(-0.0359022 10.0088 0)
(-0.0533947 10.01 0)
(-0.0760041 10.0127 0)
(-0.104466 10.0183 0)
(-0.139317 10.0286 0)
(-0.180685 10.046 0)
(-0.228007 10.0736 0)
(-0.2797 10.1149 0)
(-0.333527 10.1715 0)
(-0.38716 10.2441 0)
(-0.437457 10.3335 0)
(-0.480878 10.4398 0)
(-0.513717 10.5619 0)
(-0.532366 10.6979 0)
(-0.531511 10.846 0)
(-0.513416 10.999 0)
(-0.486651 11.1512 0)
(-0.45281 11.3014 0)
(-0.413374 11.4477 0)
(-0.369785 11.5874 0)
(-0.323472 11.7156 0)
(-0.275701 11.8235 0)
(-0.228885 11.9169 0)
(-0.18194 11.983 0)
(-0.133707 11.9979 0)
(-0.0851842 11.9393 0)
(-0.0419992 11.6063 0)
(-0.00500442 10.2172 0)
(0.00167084 10.0028 0)
(0.0017721 10.001 0)
(0.000576536 10.0001 0)
(0.00055436 10.0044 0)
(-0.00201911 10.0056 0)
(-0.00639185 10.0064 0)
(-0.0130442 10.0068 0)
(-0.0225435 10.0067 0)
(-0.0355791 10.0064 0)
(-0.0529402 10.0064 0)
(-0.0754759 10.0073 0)
(-0.104027 10.0104 0)
(-0.139314 10.0172 0)
(-0.181767 10.03 0)
(-0.231281 10.0516 0)
(-0.28688 10.0855 0)
(-0.34638 10.1354 0)
(-0.406942 10.2029 0)
(-0.465758 10.2881 0)
(-0.519216 10.3913 0)
(-0.56342 10.5123 0)
(-0.594473 10.6492 0)
(-0.608765 10.7995 0)
(-0.600882 10.9609 0)
(-0.574135 11.1254 0)
(-0.538602 11.2871 0)
(-0.496269 11.445 0)
(-0.448976 11.5975 0)
(-0.398429 11.7422 0)
(-0.346122 11.8738 0)
(-0.295271 12.0032 0)
(-0.2449 12.1184 0)
(-0.193183 12.1873 0)
(-0.141393 12.2044 0)
(-0.0899769 12.1403 0)
(-0.0445467 11.7782 0)
(-0.00661971 10.3252 0)
(0.000483342 10.0042 0)
(0.0015798 10.0026 0)
(0.00166882 10.001 0)
(0.000532749 10.0001 4.21886e-20)
(-0.00205966 10.0053 0)
(-0.00637832 10.0059 0)
(-0.0129453 10.0059 0)
(-0.0223227 10.0053 0)
(-0.035201 10.0043 0)
(-0.0523831 10.0032 0)
(-0.0747539 10.0026 0)
(-0.103227 10.0034 0)
(-0.138662 10.0071 0)
(-0.181718 10.0157 0)
(-0.232661 10.0317 0)
(-0.291063 10.0584 0)
(-0.355434 10.0998 0)
(-0.422904 10.1598 0)
(-0.489952 10.2396 0)
(-0.553311 10.3386 0)
(-0.608935 10.4568 0)
(-0.65265 10.5931 0)
(-0.68048 10.7452 0)
(-0.688936 10.9097 0)
(-0.672612 11.084 0)
(-0.636024 11.2593 0)
(-0.590866 11.4296 0)
(-0.539529 11.5941 0)
(-0.484145 11.7518 0)
(-0.426551 11.8997 0)
(-0.370763 12.0524 0)
(-0.315956 12.2024 0)
(-0.259964 12.3181 0)
(-0.203701 12.3879 0)
(-0.148468 12.4047 0)
(-0.0943917 12.3336 0)
(-0.0467805 11.9433 0)
(-0.00808331 10.4324 0)
(-0.00209522 10.005 0)
(0.000425124 10.0039 0)
(0.00147553 10.0024 1.91994e-19)
(0.00156945 10.0009 -1.33756e-19)
(0.000491431 10.0001 -8.28071e-20)
(-0.00635362 10.0054 0)
(-0.012832 10.0051 0)
(-0.0220829 10.0041 0)
(-0.0347914 10.0025 0)
(-0.0517641 10.0004 0)
(-0.073907 9.99837 0)
(-0.102184 9.99724 0)
(-0.137553 9.99817 0)
(-0.180847 10.0029 0)
(-0.23262 10.0138 0)
(-0.29289 10.0338 0)
(-0.360816 10.0668 0)
(-0.434307 10.117 0)
(-0.509676 10.1885 0)
(-0.582701 10.282 0)
(-0.649696 10.3962 0)
(-0.706247 10.5303 0)
(-0.748008 10.6826 0)
(-0.771047 10.8499 0)
(-0.772141 11.0284 0)
(-0.745999 11.2148 0)
(-0.698494 11.4 0)
(-0.643008 11.5777 0)
(-0.582273 11.7478 0)
(-0.518607 11.9089 0)
(-0.457053 12.0778 0)
(-0.396764 12.2506 0)
(-0.335307 12.3999 0)
(-0.273931 12.5144 0)
(-0.213346 12.5832 0)
(-0.154858 12.5977 0)
(-0.0983706 12.5187 0)
(-0.0487046 12.1014 0)
(-0.00938391 10.5377 0)
(-0.00633206 10.005 0)
(-0.00208674 10.0046 -4.33744e-19)
(0.00037477 10.0036 -2.02887e-19)
(0.00137711 10.0023 9.42264e-20)
(0.00147313 10.0008 -8.74945e-20)
(0.000452306 10.0001 0)
(-0.0127117 10.0045 0)
(-0.0218334 10.0031 0)
(-0.0343669 10.0008 0)
(-0.0511135 9.99788 0)
(-0.0729882 9.99465 0)
(-0.100987 9.99175 0)
(-0.136135 9.99021 0)
(-0.179394 9.99152 0)
(-0.231541 9.99776 0)
(-0.292944 10.0117 0)
(-0.363294 10.0368 0)
(-0.441253 10.0772 0)
(-0.523994 10.1376 0)
(-0.606938 10.2222 0)
(-0.685152 10.3309 0)
(-0.754607 10.4614 0)
(-0.810617 10.6122 0)
(-0.848788 10.7807 0)
(-0.865385 10.9632 0)
(-0.857588 11.155 0)
(-0.820334 11.3528 0)
(-0.760977 11.5467 0)
(-0.694593 11.7307 0)
(-0.624152 11.9046 0)
(-0.555931 12.0867 0)
(-0.489216 12.2756 0)
(-0.421051 12.4472 0)
(-0.353175 12.594 0)
(-0.286659 12.7056 0)
(-0.22204 12.7718 0)
(-0.160537 12.7828 0)
(-0.101892 12.6951 0)
(-0.050342 12.2521 0)
(-0.0105225 10.6399 0)
(-0.0126065 10.0038 0)
(-0.00621946 10.0045 9.16643e-19)
(-0.00202487 10.0042 0)
(0.000329882 10.0033 1.9908e-19)
(0.00128552 10.0021 3.36369e-23)
(0.00138054 10.0008 0)
(0.000415417 10.0001 0)
(-0.0215821 10.0021 0)
(-0.0339382 9.99935 0)
(-0.0504527 9.99568 0)
(-0.0720368 9.99136 0)
(-0.0997029 9.9869 0)
(-0.134522 9.98315 0)
(-0.17755 9.9814 0)
(-0.229726 9.98347 0)
(-0.291695 9.99184 0)
(-0.363576 10.0097 0)
(-0.444653 10.041 0)
(-0.532957 10.0903 0)
(-0.624839 10.1625 0)
(-0.714749 10.2616 0)
(-0.797076 10.3868 0)
(-0.867553 10.5346 0)
(-0.921348 10.7026 0)
(-0.954172 10.8876 0)
(-0.962632 11.0848 0)
(-0.944454 11.2892 0)
(-0.894904 11.4971 0)
(-0.822909 11.6985 0)
(-0.74517 11.8871 0)
(-0.669499 12.0823 0)
(-0.595301 12.2846 0)
(-0.519244 12.4721 0)
(-0.44345 12.6406 0)
(-0.369436 12.7832 0)
(-0.29809 12.8906 0)
(-0.229758 12.953 0)
(-0.165517 12.9594 0)
(-0.104964 12.8626 0)
(-0.0517209 12.3952 0)
(-0.0115062 10.7384 0)
(-0.0213626 10.0013 0)
(-0.0123429 10.0032 1.21682e-22)
(-0.0059778 10.0039 0)
(-0.00195848 10.0038 -2.10356e-19)
(0.000293751 10.003 1.91673e-23)
(0.00120041 10.002 0)
(0.00129166 10.0007 0)
(0.000380768 10.0001 0)
(-0.0335143 9.99807 0)
(-0.0497944 9.99373 0)
(-0.07108 9.98845 0)
(-0.0983838 9.9826 0)
(-0.132804 9.9769 0)
(-0.175459 9.97242 0)
(-0.227413 9.97076 0)
(-0.289519 9.9741 0)
(-0.362234 9.98536 0)
(-0.445353 10.0082 0)
(-0.53763 10.047 0)
(-0.636372 10.1066 0)
(-0.73701 10.1921 0)
(-0.832979 10.3074 0)
(-0.918046 10.4504 0)
(-0.987863 10.6162 0)
(-1.0376 10.8018 0)
(-1.06324 11.0029 0)
(-1.06189 11.2143 0)
(-1.03192 11.4302 0)
(-0.96902 11.647 0)
(-0.88372 11.8541 0)
(-0.799969 12.0647 0)
(-0.717365 12.2805 0)
(-0.632078 12.4814 0)
(-0.546935 12.6656 0)
(-0.463842 12.8292 0)
(-0.384035 12.9664 0)
(-0.308227 13.0686 0)
(-0.236526 13.1263 0)
(-0.169829 13.1273 0)
(-0.107609 13.0213 0)
(-0.0528694 12.5306 0)
(-0.0123459 10.8326 0)
(-0.0331448 9.99694 0)
(-0.0208905 10.0003 -5.11764e-19)
(-0.0118346 10.0023 0)
(-0.00573432 10.0033 0)
(-0.00187956 10.0034 6.19335e-19)
(0.000266586 10.0028 0)
(0.00112173 10.0018 0)
(0.00120654 10.0006 1.65414e-19)
(0.00034836 10.0001 0)
(-0.0491487 9.99201 0)
(-0.0701336 9.98587 0)
(-0.0970641 9.9788 0)
(-0.131044 9.97136 0)
(-0.173234 9.96445 0)
(-0.224785 9.95945 0)
(-0.28671 9.95829 0)
(-0.359728 9.96356 0)
(-0.444043 9.97864 0)
(-0.53901 10.0076 0)
(-0.642759 10.0553 0)
(-0.751774 10.1268 0)
(-0.860491 10.2273 0)
(-0.961295 10.3602 0)
(-1.04745 10.522 0)
(-1.11471 10.7065 0)
(-1.15843 10.9098 0)
(-1.17502 11.1266 0)
(-1.16222 11.3511 0)
(-1.11917 11.5774 0)
(-1.042 11.8013 0)
(-0.949704 12.0313 0)
(-0.857869 12.2632 0)
(-0.762115 12.478 0)
(-0.66601 12.6756 0)
(-0.572153 12.8545 0)
(-0.482171 13.012 0)
(-0.396993 13.1428 0)
(-0.317111 13.239 0)
(-0.242395 13.2913 0)
(-0.17352 13.2864 0)
(-0.109862 13.171 0)
(-0.053815 12.6583 0)
(-0.0130545 10.9222 0)
(-0.0485874 9.99049 0)
(-0.0323935 9.99568 0)
(-0.0200059 9.99928 -5.06047e-19)
(-0.0113298 10.0016 -4.69874e-19)
(-0.00547345 10.0027 -8.72609e-19)
(-0.00178722 10.003 0)
(0.000248444 10.0025 -3.76348e-19)
(0.00104962 10.0017 -3.4956e-19)
(0.0011252 10.0006 1.62339e-19)
(0.000318112 10.0001 0)
(-0.0692089 9.98359 0)
(-0.0957632 9.97544 0)
(-0.129288 9.96645 0)
(-0.170958 9.95739 0)
(-0.221984 9.94941 0)
(-0.283498 9.94421 0)
(-0.356421 9.9441 0)
(-0.441281 9.95212 0)
(-0.537921 9.9721 0)
(-0.645167 10.0086 0)
(-0.760424 10.0667 0)
(-0.879262 10.1518 0)
(-0.995056 10.2688 0)
(-1.09917 10.4206 0)
(-1.18451 10.6022 0)
(-1.24715 10.8057 0)
(-1.2828 11.0263 0)
(-1.28848 11.258 0)
(-1.26269 11.4946 0)
(-1.2054 11.7295 0)
(-1.12145 11.9776 0)
(-1.01959 12.2301 0)
(-0.912069 12.4615 0)
(-0.803431 12.6732 0)
(-0.696938 12.8654 0)
(-0.594849 13.0378 0)
(-0.49846 13.1882 0)
(-0.408373 13.3118 0)
(-0.324818 13.4014 0)
(-0.247429 13.4478 0)
(-0.176639 13.4366 0)
(-0.111758 13.312 0)
(-0.0545848 12.7785 0)
(-0.0136451 11.0071 0)
(-0.0684076 9.98158 0)
(-0.04747 9.98885 -5.72466e-19)
(-0.0309937 9.99431 5.34646e-19)
(-0.019135 9.99826 -2.71747e-22)
(-0.0108023 10.0008 4.61006e-19)
(-0.00519272 10.0022 4.28215e-19)
(-0.00168104 10.0026 7.95338e-19)
(0.00023937 10.0023 5.5401e-19)
(0.000983907 10.0015 -1.71538e-19)
(0.00104764 10.0005 0)
(0.000289999 10.0001 0)
(-0.0944945 9.97246 0)
(-0.127559 9.96211 0)
(-0.168687 9.95113 0)
(-0.219116 9.94051 0)
(-0.28006 9.93169 0)
(-0.352596 9.92675 0)
(-0.437507 9.9284 0)
(-0.535029 9.94016 0)
(-0.644563 9.9663 0)
(-0.764304 10.0118 0)
(-0.890835 10.082 0)
(-1.01873 10.1824 0)
(-1.14028 10.3175 0)
(-1.24588 10.4893 0)
(-1.32827 10.6913 0)
(-1.3841 10.9138 0)
(-1.40962 11.1512 0)
(-1.40258 11.3969 0)
(-1.36238 11.6439 0)
(-1.29964 11.9043 0)
(-1.20591 12.1763 0)
(-1.08523 12.4293 0)
(-0.962212 12.658 0)
(-0.841123 12.8643 0)
(-0.724802 13.0499 0)
(-0.61505 13.2147 0)
(-0.512787 13.3572 0)
(-0.418267 13.4731 0)
(-0.331435 13.5556 0)
(-0.251701 13.5957 0)
(-0.179243 13.5781 0)
(-0.113338 13.4444 0)
(-0.0552029 12.8913 0)
(-0.0141306 11.0873 0)
(-0.0933994 9.96982 0)
(-0.0668197 9.97943 -8.58111e-22)
(-0.0453827 9.98708 0)
(-0.0296252 9.99299 -4.36832e-22)
(-0.0182342 9.99728 0)
(-0.0102462 10.0001 -4.52439e-19)
(-0.00489232 10.0017 -8.40461e-19)
(-0.00156128 10.0022 2.08584e-23)
(0.000239323 10.002 3.62463e-19)
(0.000924613 10.0014 -1.68345e-19)
(0.000973725 10.0005 1.56373e-19)
(0.000263976 10 0)
(-0.125874 9.95825 0)
(-0.166452 9.94558 0)
(-0.216251 9.9326 0)
(-0.276528 9.92057 0)
(-0.348473 9.9113 0)
(-0.433069 9.90722 0)
(-0.530867 9.91152 0)
(-0.641736 9.92818 0)
(-0.764538 9.96193 0)
(-0.89674 10.0181 0)
(-1.03401 10.1021 0)
(-1.16987 10.2194 0)
(-1.29555 10.3739 0)
(-1.40054 10.5668 0)
(-1.47769 10.7894 0)
(-1.52444 11.0307 0)
(-1.53777 11.2841 0)
(-1.51631 11.5422 0)
(-1.47178 11.8163 0)
(-1.40024 12.1025 0)
(-1.28553 12.3766 0)
(-1.14615 12.6274 0)
(-1.00809 12.8509 0)
(-0.875134 13.0503 0)
(-0.749635 13.228 0)
(-0.632852 13.3845 0)
(-0.525268 13.5185 0)
(-0.426787 13.6263 0)
(-0.337061 13.7016 0)
(-0.255289 13.7351 0)
(-0.181391 13.7111 0)
(-0.114638 13.5686 0)
(-0.05569 12.997 0)
(-0.014525 11.1626 0)
(-0.124426 9.95484 0)
(-0.0912154 9.96706 6.3959e-19)
(-0.0638326 9.97718 -5.98609e-19)
(-0.0433535 9.98539 5.54753e-19)
(-0.0282186 9.99173 0)
(-0.0172933 9.99634 0)
(-0.00966154 9.99942 4.44028e-19)
(-0.00457233 10.0012 -4.12358e-19)
(-0.00142944 10.0019 2.66314e-23)
(0.000249276 10.0018 1.77892e-19)
(0.000871611 10.0013 -1.6524e-19)
(0.000903166 10.0004 -1.53467e-19)
(0.000240103 10 0)
(-0.164273 9.94065 0)
(-0.213426 9.92558 0)
(-0.272991 9.9107 0)
(-0.344217 9.89756 0)
(-0.428237 9.88833 0)
(-0.525855 9.88591 0)
(-0.637322 9.89393 0)
(-0.762052 9.91685 0)
(-0.898268 9.95977 0)
(-1.04261 10.0283 0)
(-1.18976 10.1279 0)
(-1.33217 10.2636 0)
(-1.46005 10.4389 0)
(-1.56212 10.6535 0)
(-1.6316 10.8968 0)
(-1.66699 11.1563 0)
(-1.66613 11.4243 0)
(-1.64175 11.7113 0)
(-1.58914 12.0131 0)
(-1.49548 12.3033 0)
(-1.35968 12.5765 0)
(-1.20206 12.8226 0)
(-1.04962 13.039 0)
(-0.905524 13.2302 0)
(-0.771552 13.3991 0)
(-0.648389 13.5467 0)
(-0.536039 13.6719 0)
(-0.434056 13.7715 0)
(-0.341798 13.8393 0)
(-0.258269 13.8663 0)
(-0.183136 13.8357 0)
(-0.115695 13.6848 0)
(-0.056067 13.0958 0)
(-0.0148417 11.2333 0)
(-0.16241 9.93628 0)
(-0.121499 9.95132 0)
(-0.0870709 9.96421 6.32242e-19)
(-0.0609423 9.97504 -1.17525e-18)
(-0.0412763 9.98378 1.0904e-18)
(-0.0267571 9.99053 -1.01188e-18)
(-0.0163126 9.99545 0)
(-0.00904966 9.99876 4.35946e-19)
(-0.00423395 10.0007 -4.04694e-19)
(-0.00128416 10.0015 -3.7595e-19)
(0.000267847 10.0016 0)
(0.000825624 10.0011 1.62173e-19)
(0.00083638 10.0004 0)
(0.000218733 10 0)
(-0.210673 9.91936 0)
(-0.269497 9.90192 0)
(-0.339939 9.88534 0)
(-0.423215 9.87151 0)
(-0.520323 9.86304 0)
(-0.631826 9.86324 0)
(-0.757595 9.87626 0)
(-0.896492 9.90695 0)
(-1.046 9.96077 0)
(-1.20185 10.0434 0)
(-1.35768 10.1603 0)
(-1.50494 10.316 0)
(-1.63282 10.5129 0)
(-1.7295 10.7496 0)
(-1.7888 11.0135 0)
(-1.81055 11.29 0)
(-1.80851 11.5888 0)
(-1.77708 11.9057 0)
(-1.70088 12.2139 0)
(-1.58463 12.505 0)
(-1.42798 12.7743 0)
(-1.25281 13.0135 0)
(-1.08684 13.2214 0)
(-0.932429 13.4033 0)
(-0.790712 13.5628 0)
(-0.661824 13.701 0)
(-0.54525 13.8173 0)
(-0.440197 13.9086 0)
(-0.345747 13.969 0)
(-0.260716 13.9894 0)
(-0.184535 13.9525 0)
(-0.11654 13.7935 0)
(-0.0563521 13.1882 0)
(-0.0150922 11.2995 0)
(-0.208332 9.91384 0)
(-0.158571 9.93183 0)
(-0.115891 9.94774 0)
(-0.0830806 9.96151 1.24122e-18)
(-0.0579942 9.973 -1.15178e-18)
(-0.0391265 9.98226 1.06891e-18)
(-0.025242 9.9894 0)
(-0.0152944 9.99462 -4.60567e-19)
(-0.00841136 9.99815 0)
(-0.00387877 10.0003 3.9721e-19)
(-0.00112503 10.0012 0)
(0.000295238 10.0014 0)
(0.00078623 10.001 0)
(0.000774835 10.0004 1.5765e-19)
(0.000199819 10 7.69962e-20)
(-0.266089 9.89413 0)
(-0.335699 9.87447 0)
(-0.418141 9.85654 0)
(-0.514521 9.84264 0)
(-0.625646 9.83579 0)
(-0.751769 9.8398 0)
(-0.892287 9.85926 0)
(-1.04541 9.89941 0)
(-1.20779 9.96594 0)
(-1.37418 10.0646 0)
(-1.53722 10.2004 0)
(-1.6873 10.3773 0)
(-1.81279 10.5966 0)
(-1.90147 10.8556 0)
(-1.94805 11.139 0)
(-1.97077 11.4483 0)
(-1.96309 11.7795 0)
(-1.90674 12.1057 0)
(-1.8061 12.4169 0)
(-1.66719 12.7056 0)
(-1.49022 12.9687 0)
(-1.29843 13.1991 0)
(-1.11988 13.3973 0)
(-0.956039 13.5692 0)
(-0.807327 13.7187 0)
(-0.673338 13.8474 0)
(-0.553056 13.9547 0)
(-0.445335 14.0378 0)
(-0.349003 14.0908 0)
(-0.2627 14.1047 0)
(-0.185635 14.0616 0)
(-0.117203 13.8949 0)
(-0.0565613 13.2743 0)
(-0.0152859 11.3613 0)
(-0.263209 9.88722 0)
(-0.20339 9.90824 0)
(-0.151144 9.92737 1.42028e-18)
(-0.110518 9.94436 1.3168e-18)
(-0.0790205 9.95895 1.22107e-18)
(-0.0549526 9.97109 -1.1324e-18)
(-0.036906 9.98083 0)
(-0.0236764 9.98833 0)
(-0.0142405 9.99383 0)
(-0.00774825 9.99758 8.39925e-19)
(-0.00350629 9.99986 3.89943e-19)
(-0.000954851 10.0009 3.62129e-19)
(0.000331057 10.0012 0)
(0.000753106 10.001 -1.66579e-19)
(0.000719277 10.0003 -8.13824e-20)
(0.000182901 10 0)
(-0.331559 9.86482 0)
(-0.413089 9.84321 0)
(-0.508618 9.82445 0)
(-0.619088 9.81126 0)
(-0.745051 9.80713 0)
(-0.886361 9.81633 0)
(-1.04184 9.84386 0)
(-1.20897 9.89527 0)
(-1.38349 9.97638 0)
(-1.55917 10.0928 0)
(-1.72761 10.249 0)
(-1.87826 10.4481 0)
(-1.99882 10.6905 0)
(-2.0768 10.9711 0)
(-2.127 11.2893 0)
(-2.14601 11.6339 0)
(-2.11234 11.9778 0)
(-2.02973 12.3096 0)
(-1.90418 12.6203 0)
(-1.7429 12.9039 0)
(-1.54643 13.1584 0)
(-1.33905 13.3785 0)
(-1.14896 13.5661 0)
(-0.976585 13.7274 0)
(-0.821621 13.8667 0)
(-0.683121 13.9858 0)
(-0.55961 14.0842 0)
(-0.44959 14.1592 0)
(-0.351656 14.205 0)
(-0.264286 14.2126 0)
(-0.186481 14.1635 0)
(-0.117711 13.9895 0)
(-0.0567061 13.3545 0)
(-0.0154334 11.419 0)
(-0.328089 9.85624 0)
(-0.256945 9.88025 0)
(-0.193731 9.90272 -3.00477e-18)
(-0.144055 9.92317 4.18919e-21)
(-0.105059 9.94118 -2.58246e-18)
(-0.0748403 9.95657 2.3949e-18)