# Time currentProc (coordinatesa coordinatesb coordinatesc coordinatesd) celli tetFacei tetPti facei stepFraction behind nBehind origProc origId active typeId nParticle d dTarget  (Ux Uy Uz) rho age tTurb (UTurbx UTurby UTurbz) T Cp mass0 nPhases(Y1..YN)
0.0700126 0 (0 0.308044 0.5 0.191956) 2640 15716 2 15716 0.812976 0 0 0 118853 1 -1 2.51181 9.01905e-05 0 (-9.87751 5.58714 0) 684.281 0.0106021 0 (0 0 0) 294.914 2227.54 7.77307e-10 1(1) 0.000130846 (-1.39473e-05 -0.295 2.71051e-20) 0.0201618 0.000397747 0 1 0 0 -4.5036e+15 9.43633e-09 1 0.00449987 0
0.0700126 0 (0 0.257402 0.5 0.242598) 2500 15712 2 15712 0.067835 0 0 0 120057 1 -1 2.02557 9.75247e-05 0 (-12.1714 4.4508 0) 683.257 0.00999 0 (0 0 0) 296.129 2231.87 8.16533e-10 1(1) 0.000133011 (-1.78972e-05 -0.295 0) 0.0200369 0.000392582 0 1 0 0 -4.5036e+15 2.67933e-08 1 0.00473681 0
0.0700126 1 (0 0.0666289 0.433371 0.5) 3245 15649 1 15649 0.79027 0 0 0 99403 1 -1 3.81638 7.78103e-05 0 (4.45441 16.734 0) 687.316 0.0203217 0 (0 0 0) 291.297 2214.87 1.1471e-09 1(1) 0.00014897 (3.08398e-06 -0.295 -5.42101e-20) 0.0205344 0.000413881 0 1 0 0 -4.5036e+15 5.7011e-07 1 0.00288904 0
0.0700126 1 (0 0.183765 0.316235 0.5) 3281 15651 1 15651 0.880778 0 0 0 107463 1 -1 15.7817 4.71422e-05 0 (2.44419 17.6787 0) 689.118 0.016295 0 (0 0 0) 289.139 2207.46 7.70019e-11 1(1) 6.05431e-05 (6.4128e-05 -0.295 5.42101e-20) 0.0207574 0.000424079 0 1 0 0 -4.5036e+15 0 1 0.00134203 0
0.0700126 1 (0 0.5 0.303018 0.196982) 2911 15631 2 15631 0.890212 0 0 0 113112 1 -1 6.27933 6.55344e-05 0 (4.59523 8.73762 0) 687.557 0.0134724 0 (0 0 0) 291.009 2213.88 3.03393e-10 1(1) 9.56238e-05 (5.49841e-06 -0.295 0) 0.0205642 0.000415216 0 1 0 0 -4.5036e+15 1.85926e-09 1 0.00294543 0
0.0700126 1 (0 0.5 0.484702 0.0152979) 2951 15633 2 15633 0.141321 0 0 0 103165 1 -1 5.11411 7.02722e-05 0 (6.11848 9.87028 0) 687.656 0.0184332 0 (0 0 0) 290.891 2213.47 6.07379e-10 1(1) 0.000120518 (8.8681e-05 -0.295 0) 0.0205764 0.000415767 0 1 0 0 -4.5036e+15 1.57381e-08 1 0.00304298 0
0.0700126 1 (0 0.5 0.283512 0.216488) 3011 15636 2 15636 0.731346 0 0 0 113124 1 -1 8.76593 5.82399e-05 0 (4.37545 10.6055 0) 688.148 0.0134646 0 (0 0 0) 290.301 2211.44 2.07519e-10 1(1) 8.42526e-05 (1.16008e-05 -0.295 5.42101e-20) 0.0206373 0.000418532 0 1 0 0 -4.5036e+15 8.41316e-10 1 0.00229194 0
0.0700126 1 (0 0.5 0.0576245 0.442376) 2951 15633 2 15633 0.449928 0 0 0 113895 1 -1 8.4986 5.8544e-05 0 (5.02063 9.5702 0) 687.892 0.0130749 0 (0 0 0) 290.609 2212.5 1.90504e-10 1(1) 8.1884e-05 (2.5407e-05 -0.295 5.42101e-20) 0.0206055 0.000417086 0 1 0 0 -4.5036e+15 0 1 0.00237373 0
0.0700126 1 (0 0.5 0.146895 0.353105) 3405 15658 2 15658 0.703713 0 0 0 105512 1 -1 10.39 5.38482e-05 0 (3.01643 21.055 0) 688.377 0.0172677 0 (0 0 0) 290.028 2210.5 1.78477e-10 1(1) 8.01232e-05 (-2.04075e-06 -0.295 8.13152e-20) 0.0206655 0.000419824 0 1 0 0 -4.5036e+15 8.42472e-10 1 0.00150939 0
0.0700126 1 (0 0.467126 0.0328737 0.5) 2891 15630 1 15630 0.696954 0 0 0 112653 1 -1 5.36614 6.91185e-05 0 (7.74644 9.22832 0) 686.912 0.0136988 0 (0 0 0) 291.78 2216.55 2.67228e-10 1(1) 9.16625e-05 (6.45498e-05 -0.295 0) 0.0204846 0.000411657 0 1 0 0 -4.5036e+15 2.13964e-08 1 0.00291667 0
0.0700126 1 (0 0.262894 0.237106 0.5) 2748 15700 1 15700 0.878632 0 0 0 115235 1 -1 3.90027 7.64872e-05 0 (9.2274 7.69664 0) 686.022 0.0124107 0 (0 0 0) 292.841 2220.24 4.29712e-10 1(1) 0.000107388 (5.20169e-05 -0.295 -5.42101e-20) 0.0203752 0.00040685 0 1 0 0 -4.5036e+15 3.22639e-08 1 0.00340855 0
0.0700126 1 (0 0.205834 0.294166 0.5) 2748 15700 1 15700 0.387185 0 0 0 114970 1 -1 3.51239 7.96228e-05 0 (9.85442 7.72378 0) 685.775 0.0125386 0 (0 0 0) 293.135 2221.27 5.52244e-10 1(1) 0.000116755 (5.72936e-05 -0.295 0) 0.0203448 0.000405535 0 1 0 0 -4.5036e+15 1.55272e-08 1 0.00355224 0
0.0700126 1 (0 0.348331 0.151669 0.5) 2227 15723 1 15723 0.323458 0 0 0 118353 1 -1 2.68133 8.79138e-05 0 (10.249 5.62667 0) 684.537 0.0108447 0 (0 0 0) 294.609 2226.46 6.52879e-10 1(1) 0.000123455 (3.14146e-05 -0.295 0) 0.0201931 0.000399062 0 1 0 0 -4.5036e+15 2.07353e-08 1 0.00426444 0
0.0700126 1 (0 0.5 0.170204 0.329796) 2701 15698 2 15698 0.132183 0 0 0 116073 1 -1 2.64857 8.87826e-05 0 (11.4575 7.21205 0) 684.834 0.0119813 0 (0 0 0) 294.256 2225.21 8.59566e-10 1(1) 0.000135308 (5.79992e-05 -0.295 5.42101e-20) 0.0202294 0.000400596 0 1 0 0 -4.5036e+15 2.14439e-08 1 0.0040259 0
0.0700126 1 (0 0.319669 0.180331 0.5) 1982 15716 1 15716 0.378365 0 0 0 121046 1 -1 1.5293 0.000106564 0 (13.9477 4.09339 0) 682.187 0.00949883 0 (0 0 0) 297.396 2236.41 1.14214e-09 1(1) 0.000148755 (2.0191e-05 -0.295 0) 0.0199068 0.000387325 0 1 0 0 -4.5036e+15 1.81149e-09 1 0.00508898 0
0.0700126 3 (0 0.5 0.0112218 0.488778) 1408 15578 1 15578 0.572706 0 0 3 207 1 -1 3.05376 0.000130639 0 (-0.0462668 1.88921 0) 687.319 0.0205346 0 (0 0 0) 291.294 2214.86 1.13618e-10 1(1) 6.8173e-05 (-0.119925 0.0783891 0) 0.0205348 0.000413895 0 1 0 0 0 0 1 0.016977 0
0.0700126 3 (0 0.5 0.140859 0.359141) 1408 15578 1 15578 0.973777 0 0 0 676 1 -1 0.00294203 0.000190493 0 (-2.7281 8.95665 0) 685.463 0.0696923 0 (0 0 0) 293.507 2222.58 6.13815e-10 1(1) 0.000120942 (-2.06546e-05 -0.295 1.0842e-19) 0.0203065 0.000403884 0 1 0 0 -4.5036e+15 -2.80862e-09 1 0.0148132 0
0.0700126 3 (0 0.5 0.0141142 0.485886) 1723 15587 1 15587 0.743448 0 0 0 93394 1 -1 10.3897 5.41665e-05 0 (-0.789999 13.7152 0) 689.891 0.023327 0 (0 0 0) 288.211 2204.31 1.81413e-10 1(1) 8.05601e-05 (-6.52905e-06 -0.295 8.13152e-20) 0.0208535 0.000428606 0 1 0 0 -4.5036e+15 8.01215e-10 1 0.00187867 0
0.0700126 3 (0 0.5 0.108152 0.391848) 1583 15583 1 15583 0.950328 0 0 0 106783 1 -1 4.39371 7.37116e-05 0 (-6.24729 17.8583 0) 686.914 0.0166353 0 (0 0 0) 291.778 2216.54 4.62396e-10 1(1) 0.000110045 (-3.83373e-06 -0.295 8.13152e-20) 0.0204849 0.00041167 0 1 0 0 -4.5036e+15 1.04848e-09 1 0.00254831 0
0.0700126 3 (0 0.151443 0.5 0.348557) 1093 15569 2 15569 0.392066 0 0 0 110250 1 -1 3.61998 8.01675e-05 0 (-10.6061 12.2405 0) 686.412 0.0148961 0 (0 0 0) 292.377 2218.62 1.00015e-09 1(1) 0.000142316 (-8.36864e-05 -0.295 0) 0.020423 0.000408942 0 1 0 0 -4.5036e+15 3.74533e-08 1 0.00315217 0
0.0700126 3 (0 0.37075 0.5 0.12925) 1058 15568 2 15568 0.232949 0 0 0 109943 1 -1 5.06941 7.14099e-05 0 (-8.41177 11.3611 0) 687.131 0.0150475 0 (0 0 0) 291.518 2215.64 4.3432e-10 1(1) 0.000107771 (-7.56082e-05 -0.295 1.35525e-19) 0.0205116 0.000412859 0 1 0 0 -4.5036e+15 4.81141e-09 1 0.00283657 0
0.0700126 3 (0 0.5 0.276362 0.223638) 1093 15569 1 15569 0.664512 0 0 0 114037 1 -1 5.37259 6.87558e-05 0 (-9.53702 12.1103 0) 686.887 0.0130064 0 (0 0 0) 291.809 2216.65 2.60779e-10 1(1) 9.09191e-05 (-6.14562e-05 -0.295 8.13152e-20) 0.0204816 0.000411523 0 1 0 0 -4.5036e+15 2.22878e-08 1 0.00256906 0
0.0700126 3 (0 0.5 0.387321 0.112679) 1093 15569 1 15569 0.0179166 0 0 0 114021 1 -1 5.51053 6.91786e-05 0 (-9.61378 12.0165 0) 686.85 0.0130071 0 (0 0 0) 291.854 2216.8 2.71608e-10 1(1) 9.21606e-05 (-6.18448e-05 -0.295 8.13152e-20) 0.0204769 0.000411318 0 1 0 0 -4.5036e+15 3.08558e-08 1 0.00259508 0
0.0700126 3 (0 0.457621 0.5 0.0423792) 953 15565 2 15565 0.904187 0 0 0 115039 1 -1 5.23415 6.90279e-05 0 (-6.77619 9.71595 0) 686.931 0.0125103 0 (0 0 0) 291.757 2216.46 2.99086e-10 1(1) 9.51692e-05 (-3.3076e-05 -0.295 8.13152e-20) 0.020487 0.000411765 0 1 0 0 -4.5036e+15 0 1 0.00293369 0
0.0700126 3 (0 0.427066 0.5 0.0729343) 918 15564 2 15564 0.773255 0 0 0 114406 1 -1 5.32275 6.93258e-05 0 (-5.80787 8.96639 0) 687.021 0.0128237 0 (0 0 0) 291.65 2216.09 3.54356e-10 1(1) 0.000100703 (-2.41203e-05 -0.295 1.0842e-19) 0.020498 0.000412256 0 1 0 0 -4.5036e+15 1.86511e-09 1 0.00309925 0
0.0700126 3 (0 0.474236 0.5 0.0257639) 918 15564 2 15564 0.167178 0 0 0 114490 1 -1 5.25746 6.95298e-05 0 (-5.91284 8.98385 0) 686.987 0.0127753 0 (0 0 0) 291.69 2216.23 3.51768e-10 1(1) 0.000100458 (-2.47084e-05 -0.295 5.42101e-20) 0.0204939 0.00041207 0 1 0 0 -4.5036e+15 1.81267e-09 1 0.00310378 0
0.0700126 3 (0 0.0423479 0.5 0.457652) 420 15559 2 15559 0.259464 0 0 0 116708 1 -1 4.0432 7.56544e-05 0 (-8.24922 8.4209 0) 686.058 0.0116681 0 (0 0 0) 292.799 2220.09 3.94036e-10 1(1) 0.00010433 (-2.865e-05 -0.295 5.42101e-20) 0.0203795 0.00040704 0 1 0 0 -4.5036e+15 0 1 0.00338188 0
0.0700126 3 (0 0.5 0.298596 0.201404) 35 15548 1 15548 0.793485 0 0 0 117837 1 -1 3.25633 8.30475e-05 0 (-8.8125 7.04701 0) 685.181 0.0111102 0 (0 0 0) 293.843 2223.76 5.82024e-10 1(1) 0.000118817 (-2.13983e-05 -0.295 2.71051e-20) 0.020272 0.000402403 0 1 0 0 -4.5036e+15 9.67732e-10 1 0.00398339 0
0.0700251 0 (0 0.0259082 0.5 0.474092) 2605 15715 2 15715 0.373468 0 0 0 117680 1 -1 2.43736 9.01475e-05 0 (-8.14805 5.4809 0) 684.629 0.0111938 0 (0 0 0) 294.5 2226.08 7.69313e-10 1(1) 0.000130396 (-7.74438e-06 -0.295 2.71051e-20) 0.0202043 0.000399534 0 1 0 0 -4.5036e+15 9.9319e-10 1 0.00482127 0
0.0700251 0 (0 0.209464 0.5 0.290536) 2885 15723 2 15723 0.109434 0 0 0 118488 1 -1 2.59841 8.84414e-05 0 (-10.778 6.56938 0) 684.483 0.0107866 0 (0 0 0) 294.673 2226.69 7.20723e-10 1(1) 0.000127591 (-3.10413e-05 -0.295 -2.71051e-20) 0.0201865 0.000398785 0 1 0 0 -4.5036e+15 1.99061e-09 1 0.00414464 0
0.0700251 0 (0 0.5 0.140064 0.359936) 2815 15721 1 15721 0.614762 0 0 0 118886 1 -1 2.26034 9.36248e-05 0 (-11.9686 6.09811 0) 683.897 0.0105939 0 (0 0 0) 295.369 2229.16 8.70356e-10 1(1) 0.000135872 (-3.55712e-05 -0.295 2.71051e-20) 0.020115 0.000395798 0 1 0 0 -4.5036e+15 1.65756e-08 1 0.00437725 0
0.0700251 0 (0 0.5 0.355076 0.144924) 2535 15713 1 15713 0.582278 0 0 0 120558 1 -1 1.68904 0.000102373 0 (-13.7411 4.20955 0) 682.679 0.00975913 0 (0 0 0) 296.813 2234.32 1.07703e-09 1(1) 0.000145873 (-2.61828e-05 -0.295 5.42101e-20) 0.0199666 0.000389728 0 1 0 0 -4.5036e+15 3.55262e-08 1 0.00482708 0
0.0700251 0 (0 0.0811917 0.5 0.418808) 2500 15712 2 15712 0.384994 0 0 0 120565 1 -1 1.73182 0.000101483 0 (-13.523 4.2108 0) 682.764 0.00975173 0 (0 0 0) 296.714 2233.96 1.02298e-09 1(1) 0.00014339 (-2.35638e-05 -0.295 2.71051e-20) 0.0199769 0.000390141 0 1 0 0 -4.5036e+15 3.73372e-09 1 0.00480289 0
0.0700251 1 (0 0.351119 0.148881 0.5) 1912 15714 1 15714 0.222129 0 0 0 99300 1 -1 3.02203 8.39544e-05 0 (1.50917 4.41782 0) 687.565 0.0203813 0 (0 0 0) 290.999 2213.84 7.27783e-10 1(1) 0.000128006 (5.99103e-06 -0.295 1.0842e-19) 0.0205652 0.000415261 0 1 0 0 -4.5036e+15 1.3685e-07 1 0.00597027 0
0.0700251 1 (0 0.5 0.256974 0.243026) 3209 15647 2 15647 0.339708 0 0 0 102141 1 -1 13.0957 5.0114e-05 0 (3.0723 15.1046 0) 689.099 0.0189598 0 (0 0 0) 289.162 2207.54 9.28164e-11 1(1) 6.44326e-05 (7.64658e-05 -0.295 -5.42101e-20) 0.0207551 0.00042397 0 1 0 0 -4.5036e+15 0 1 0.00157382 0
0.0700251 1 (0 0.252008 0.247992 0.5) 2851 15705 1 15705 0.661857 0 0 0 114561 1 -1 7.0782 6.25056e-05 0 (5.42345 8.35536 0) 687.438 0.0127596 0 (0 0 0) 291.151 2214.37 2.57554e-10 1(1) 9.05427e-05 (2.33887e-05 -0.295 -5.42101e-20) 0.0205495 0.000414557 0 1 0 0 -4.5036e+15 1.74395e-09 1 0.00272575 0
0.0700251 1 (0 0.46672 0.0332801 0.5) 3405 15658 1 15658 0.508942 0 0 0 105604 1 -1 12.5701 5.09497e-05 0 (2.64917 20.8988 0) 688.568 0.0172323 0 (0 0 0) 289.799 2209.71 1.44022e-10 1(1) 7.45945e-05 (-2.18571e-06 -0.295 5.42101e-20) 0.0206892 0.000420915 0 1 0 0 -4.5036e+15 7.74056e-10 1 0.00139541 0
0.0700251 1 (0 0.5 0.105755 0.394245) 2791 15702 2 15702 0.883812 0 0 0 114767 1 -1 4.45298 7.47559e-05 0 (8.93987 7.93191 0) 686.221 0.0126595 0 (0 0 0) 292.604 2219.41 3.93519e-10 1(1) 0.000104284 (5.44881e-05 -0.295 0) 0.0203996 0.000407917 0 1 0 0 -4.5036e+15 2.64072e-08 1 0.0032999 0
0.0700251 1 (0 0.111007 0.388993 0.5) 2701 15698 1 15698 0.857654 0 0 0 115790 1 -1 3.51627 8.02615e-05 0 (9.69752 7.36154 0) 685.628 0.0121453 0 (0 0 0) 293.311 2221.89 5.34239e-10 1(1) 0.000115472 (5.10326e-05 -0.295 0) 0.0203268 0.000404754 0 1 0 0 -4.5036e+15 5.05119e-08 1 0.00364493 0
0.0700251 1 (0 0.5 0.0319558 0.468044) 2701 15698 2 15698 0.409099 0 0 0 116010 1 -1 3.46121 8.08437e-05 0 (9.73085 7.213 0) 685.548 0.0120292 0 (0 0 0) 293.407 2222.22 5.35963e-10 1(1) 0.000115596 (4.97557e-05 -0.295 0) 0.0203169 0.000404329 0 1 0 0 -4.5036e+15 4.8695e-08 1 0.00369561 0
0.0700251 1 (0 0.5 0.335796 0.164204) 2437 15729 2 15729 0.929912 0 0 0 117667 1 -1 2.7883 8.73837e-05 0 (10.8021 6.32523 0) 684.706 0.0112088 0 (0 0 0) 294.408 2225.75 6.95608e-10 1(1) 0.000126091 (4.30945e-05 -0.295 1.0842e-19) 0.0202138 0.000399935 0 1 0 0 -4.5036e+15 4.10568e-09 1 0.00408801 0
0.0700251 1 (0 0.5 0.233277 0.266723) 2052 15718 2 15718 0.595752 0 0 0 120508 1 -1 1.83658 0.000100896 0 (12.8782 4.54401 0) 682.854 0.00978461 0 (0 0 0) 296.607 2233.58 9.43245e-10 1(1) 0.000139564 (2.25116e-05 -0.295 0) 0.0199878 0.000390585 0 1 0 0 -4.5036e+15 1.4651e-08 1 0.0048473 0
0.0700251 1 (0 0.5 0.146505 0.353495) 2192 15722 2 15722 0.0521262 0 0 0 120066 1 -1 1.81769 9.96999e-05 0 (13.6982 5.17439 0) 683.033 0.00999764 0 (0 0 0) 296.395 2232.82 1.04132e-09 1(1) 0.000144242 (3.59518e-05 -0.295 0) 0.0200096 0.00039147 0 1 0 0 -4.5036e+15 1.04569e-07 1 0.00459581 0
0.0700251 3 (0 0.5 0.10966 0.39034) 1408 15578 1 15578 0.212762 0 0 0 1404 1 -1 0.00529446 0.000200384 0 (-2.95848 9.00422 0) 684.857 0.0693297 0 (0 0 0) 294.229 2225.12 8.26695e-10 1(1) 0.000133561 (-5.55233e-06 -0.295 2.71051e-20) 0.0202323 0.000400716 0 1 0 0 -4.5036e+15 -6.9715e-09 1 0.0158453 0
0.0700251 3 (0 0.180313 0.5 0.319687) 1233 15573 2 15573 0.469472 0 0 0 78099 1 -1 3.29079 7.81981e-05 0 (-0.455858 7.75675 0) 688.942 0.0309796 0 (0 0 0) 289.351 2208.18 5.57023e-10 1(1) 0.000117091 (-4.27548e-06 -0.295 2.71051e-20) 0.0207355 0.000423058 0 1 0 0 -4.5036e+15 5.74868e-08 1 0.00414878 0
0.0700251 3 (0 0.108024 0.5 0.391976) 1793 15589 2 15589 0.205861 0 0 0 107324 1 -1 21.6595 4.20053e-05 0 (-1.10275 15.4245 0) 689.838 0.0163679 0 (0 0 0) 288.275 2204.53 5.83752e-11 1(1) 5.52044e-05 (-2.16146e-05 -0.295 2.71051e-20) 0.0208469 0.000428293 0 1 0 0 -4.5036e+15 0 1 0.00120295 0
0.0700251 3 (0 0.5 0.281672 0.218328) 1863 15591 1 15591 0.17393 0 0 0 102455 1 -1 4.9299 7.15189e-05 0 (-4.19697 19.5217 0) 687.611 0.0188032 0 (0 0 0) 290.944 2213.65 4.35197e-10 1(1) 0.000107843 (-2.41032e-06 -0.295 0) 0.0205709 0.00041552 0 1 0 0 -4.5036e+15 2.19357e-09 1 0.00237624 0
0.0700251 3 (0 0.253155 0.5 0.246845) 1163 15571 2 15571 0.397232 0 0 0 111855 1 -1 3.57374 7.96462e-05 0 (-10.8058 13.38 0) 686.208 0.0141057 0 (0 0 0) 292.619 2219.47 8.08294e-10 1(1) 0.000132563 (-7.89895e-05 -0.295 8.13152e-20) 0.020398 0.000407847 0 1 0 0 -4.5036e+15 5.22842e-08 1 0.00302765 0
0.0700251 3 (0 0.5 0.459233 0.0407671) 1163 15571 1 15571 0.00966761 0 0 0 113679 1 -1 7.15211 6.22525e-05 0 (-7.61276 12.808 0) 687.517 0.0131898 0 (0 0 0) 291.056 2214.04 1.97516e-10 1(1) 8.28765e-05 (-5.46208e-05 -0.295 8.13152e-20) 0.0205593 0.000414997 0 1 0 0 -4.5036e+15 0 1 0.00224699 0
0.0700251 3 (0 0.42702 0.5 0.0729798) 1128 15570 2 15570 0.0138527 0 0 0 113707 1 -1 6.10605 6.58939e-05 0 (-8.83399 12.7618 0) 687.169 0.013176 0 (0 0 0) 291.473 2215.48 2.22928e-10 1(1) 8.62884e-05 (-6.13274e-05 -0.295 1.35525e-19) 0.0205163 0.000413067 0 1 0 0 -4.5036e+15 5.5827e-09 1 0.00240182 0
0.0700251 3 (0 0.168511 0.5 0.331489) 1093 15569 2 15569 0.318886 0 0 0 112952 1 -1 3.83537 7.81066e-05 0 (-11.2052 12.4858 0) 686.175 0.0135569 0 (0 0 0) 292.659 2219.61 6.74327e-10 1(1) 0.000124792 (-7.46921e-05 -0.295 -5.42101e-20) 0.0203939 0.000407668 0 1 0 0 -4.5036e+15 1.75382e-08 1 0.0029784 0
0.0700251 3 (0 0.247556 0.5 0.252444) 1058 15568 2 15568 0.75358 0 0 0 114732 1 -1 6.35604 6.49583e-05 0 (-8.40097 11.6342 0) 687.211 0.0126724 0 (0 0 0) 291.422 2215.3 2.35046e-10 1(1) 8.78245e-05 (-4.80958e-05 -0.295 8.13152e-20) 0.0205215 0.000413303 0 1 0 0 -4.5036e+15 0 1 0.0024411 0
0.0700251 3 (0 0.418393 0.5 0.0816073) 1058 15568 2 15568 0.276337 0 0 0 114187 1 -1 4.86798 7.09933e-05 0 (-9.85767 11.7456 0) 686.678 0.0129404 0 (0 0 0) 292.059 2217.51 3.51448e-10 1(1) 0.000100427 (-6.18836e-05 -0.295 8.13152e-20) 0.0204559 0.000410386 0 1 0 0 -4.5036e+15 5.51307e-08 1 0.00270254 0
0.0700251 3 (0 0.5 0.178605 0.321395) 1023 15567 1 15567 0.333904 0 0 0 109403 1 -1 4.43056 7.43148e-05 0 (-7.79621 10.502 0) 687.011 0.0153316 0 (0 0 0) 291.662 2216.13 5.51445e-10 1(1) 0.000116698 (-7.35218e-05 -0.295 0) 0.0204968 0.0004122 0 1 0 0 -4.5036e+15 1.56696e-08 1 0.00312953 0
0.0700251 3 (0 0.219316 0.5 0.280684) 953 15565 2 15565 0.733984 0 0 0 114853 1 -1 3.13518 8.32117e-05 0 (-11.1516 10.3539 0) 685.529 0.0126126 0 (0 0 0) 293.429 2222.3 8.5655e-10 1(1) 0.00013515 (-6.45023e-05 -0.295 8.13152e-20) 0.0203146 0.000404231 0 1 0 0 -4.5036e+15 2.23117e-08 1 0.00344085 0
0.0700251 3 (0 0.0461222 0.5 0.453878) 918 15564 2 15564 0.605737 0 0 0 115391 1 -1 3.4937 8.06783e-05 0 (-10.485 9.93182 0) 685.692 0.0123418 0 (0 0 0) 293.235 2221.62 6.07406e-10 1(1) 0.000120519 (-5.85089e-05 -0.295 8.13152e-20) 0.0203346 0.000405094 0 1 0 0 -4.5036e+15 1.19918e-08 1 0.00337421 0
0.0700251 3 (0 0.5 0.25247 0.24753) 210 15553 1 15553 0.404127 0 0 0 117780 1 -1 2.7194 8.68828e-05 0 (-10.8961 7.45444 0) 684.748 0.0111446 0 (0 0 0) 294.358 2225.57 6.7926e-10 1(1) 0.000125096 (-4.07275e-05 -0.295 2.71051e-20) 0.020219 0.000400152 0 1 0 0 -4.5036e+15 1.94625e-09 1 0.00394618 0
0.0700377 1 (0 0.5 0.114904 0.385096) 3299 15652 2 15652 0.275958 0 0 0 99019 1 -1 11.1922 5.32938e-05 0 (1.18572 15.1608 0) 689.5 0.0205333 0 (0 0 0) 288.681 2205.91 1.72368e-10 1(1) 7.91984e-05 (6.90193e-06 -0.295 5.42101e-20) 0.0208048 0.000426301 0 1 0 0 -4.5036e+15 8.35799e-10 1 0.00174675 0
0.0700377 1 (0 0.0234733 0.476527 0.5) 3490 15663 1 15663 0.908625 0 0 0 102429 1 -1 33.8003 3.4583e-05 0 (0.325987 14.3342 0) 690.034 0.0188372 0 (0 0 0) 288.04 2203.73 4.49242e-11 1(1) 5.05892e-05 (6.69969e-05 -0.295 0) 0.0208712 0.000429449 0 1 0 0 -4.5036e+15 -9.57429e-11 1 0.000918427 0
0.0700377 1 (0 0.313338 0.186662 0.5) 3263 15650 1 15650 0.342175 0 0 0 109615 1 -1 16.2764 4.59783e-05 0 (2.45627 17.0018 0) 689.215 0.0152388 0 (0 0 0) 289.022 2207.06 7.09955e-11 1(1) 5.89261e-05 (4.38235e-05 -0.295 -5.42101e-20) 0.0207695 0.000424644 0 1 0 0 -4.5036e+15 0 1 0.00131461 0
0.0700377 1 (0 0.5 0.365293 0.134707) 2991 15635 2 15635 0.455152 0 0 0 113661 1 -1 9.5638 5.68168e-05 0 (4.58505 10.4109 0) 688.136 0.0132172 0 (0 0 0) 290.316 2211.49 1.77451e-10 1(1) 7.99693e-05 (1.64698e-05 -0.295 0) 0.0206358 0.000418462 0 1 0 0 -4.5036e+15 0 1 0.0022145 0
0.0700377 1 (0 0.5 0.442543 0.0574569) 3592 15669 2 15669 0.82901 0 0 0 99699 1 -1 4.10112 7.58343e-05 0 (2.96104 24.2892 0) 686.593 0.0201992 0 (0 0 0) 292.161 2217.87 7.9947e-10 1(1) 0.000132078 (8.1668e-05 -0.295 0) 0.0204453 0.000409922 0 1 0 0 -4.5036e+15 1.70967e-08 1 0.00232728 0
0.0700377 1 (0 0.5 0.384417 0.115583) 2931 15632 2 15632 0.197967 0 0 0 108992 1 -1 6.67551 6.40489e-05 0 (6.84695 9.82796 0) 687.551 0.015549 0 (0 0 0) 291.016 2213.9 3.26243e-10 1(1) 9.79666e-05 (8.25899e-05 -0.295 0) 0.0205634 0.000415182 0 1 0 0 -4.5036e+15 9.45571e-08 1 0.00260261 0
0.0700377 1 (0 0.000413844 0.499586 0.5) 2701 15698 1 15698 0.970212 0 0 0 115613 1 -1 5.25013 6.97993e-05 0 (7.10408 7.2222 0) 686.624 0.0122479 0 (0 0 0) 292.124 2217.74 3.10495e-10 1(1) 9.63642e-05 (3.25677e-05 -0.295 -5.42101e-20) 0.0204492 0.00041009 0 1 0 0 -4.5036e+15 0 1 0.00320988 0
0.0700377 1 (0 0.5 0.344159 0.155841) 2811 15703 2 15703 0.175603 0 0 0 114362 1 -1 4.79907 7.20089e-05 0 (8.27222 8.17338 0) 686.5 0.0128631 0 (0 0 0) 292.272 2218.25 3.52473e-10 1(1) 0.000100525 (5.38712e-05 -0.295 0) 0.0204339 0.000409418 0 1 0 0 -4.5036e+15 2.23611e-08 1 0.00315734 0
0.0700377 1 (0 0.0518279 0.448172 0.5) 1842 15712 1 15712 0.716929 0 0 0 120076 1 -1 1.55747 0.000105096 0 (11.3382 3.42889 0) 682.666 0.0100131 0 (0 0 0) 296.828 2234.37 1.064e-09 1(1) 0.000145282 (8.54143e-06 -0.295 0) 0.0199651 0.000389665 0 1 0 0 -4.5036e+15 1.00998e-08 1 0.00554673 0
0.0700377 1 (0 0.246794 0.253206 0.5) 2087 15719 1 15719 0.640472 0 0 0 119978 1 -1 2.01342 9.68989e-05 0 (12.0734 4.90766 0) 683.36 0.0100618 0 (0 0 0) 296.007 2231.43 8.20032e-10 1(1) 0.000133201 (2.57623e-05 -0.295 0) 0.0200494 0.000393097 0 1 0 0 -4.5036e+15 1.67601e-08 1 0.00467545 0
0.0700377 1 (0 0.351978 0.148022 0.5) 2087 15719 1 15719 0.87919 0 0 0 120040 1 -1 2.03724 9.73139e-05 0 (12.1783 4.88092 0) 683.309 0.0100352 0 (0 0 0) 296.067 2231.65 8.14396e-10 1(1) 0.000132895 (2.58703e-05 -0.295 -5.42101e-20) 0.0200432 0.000392841 0 1 0 0 -4.5036e+15 1.65783e-08 1 0.0046905 0
0.0700377 1 (0 0.5 0.378535 0.121465) 2017 15717 2 15717 0.984348 0 0 0 120520 1 -1 1.70303 0.000102015 0 (12.6909 4.39176 0) 682.765 0.00979436 0 (0 0 0) 296.711 2233.95 9.72998e-10 1(1) 0.000141016 (1.95505e-05 -0.295 5.42101e-20) 0.0199771 0.00039015 0 1 0 0 -4.5036e+15 1.15605e-08 1 0.00497002 0
0.0700377 3 (0 0.180267 0.5 0.319733) 1898 15592 2 15592 0.258784 0 0 0 100756 1 -1 4.0707 7.53485e-05 0 (-3.59437 19.3122 0) 687.479 0.0196645 0 (0 0 0) 291.102 2214.2 1.07675e-09 1(1) 0.00014586 (-5.11227e-07 -0.295 1.0842e-19) 0.0205546 0.000414784 0 1 0 0 -4.5036e+15 5.74246e-07 1 0.00258924 0
0.0700377 3 (0 0.243278 0.5 0.256722) 1198 15572 2 15572 0.963538 0 0 0 111818 1 -1 4.52704 7.32596e-05 0 (-9.35982 13.7319 0) 686.722 0.0141455 0 (0 0 0) 292.007 2217.33 4.81239e-10 1(1) 0.00011152 (-7.60692e-05 -0.295 0) 0.0204612 0.000410622 0 1 0 0 -4.5036e+15 8.60423e-09 1 0.00264256 0
0.0700377 3 (0 0.5 0.0984708 0.401529) 1058 15568 1 15568 0.810992 0 0 0 112441 1 -1 8.36068 5.88821e-05 0 (-5.31717 10.4488 0) 688.07 0.0138321 0 (0 0 0) 290.395 2211.76 1.91384e-10 1(1) 8.20099e-05 (-2.79784e-05 -0.295 5.42101e-20) 0.0206276 0.000418088 0 1 0 0 -4.5036e+15 0 1 0.00230832 0
0.0700377 3 (0 0.5 0.426419 0.0735812) 1128 15570 1 15570 0.628453 0 0 0 110049 1 -1 4.95269 7.19883e-05 0 (-9.13552 12.345 0) 687.045 0.015026 0 (0 0 0) 291.621 2215.99 4.91978e-10 1(1) 0.000112343 (-8.01773e-05 -0.295 5.42101e-20) 0.020501 0.000412389 0 1 0 0 -4.5036e+15 1.54962e-08 1 0.00275949 0
0.0700377 3 (0 0.5 0.135211 0.364789) 918 15564 1 15564 0.575751 0 0 0 112788 1 -1 6.47378 6.45893e-05 0 (-4.47671 8.43906 0) 687.619 0.0136555 0 (0 0 0) 290.934 2213.62 2.78603e-10 1(1) 9.2945e-05 (-2.33416e-05 -0.295 2.71051e-20) 0.0205719 0.000415564 0 1 0 0 -4.5036e+15 8.47426e-10 1 0.00292123 0
0.0700377 3 (0 0.465246 0.5 0.0347544) 560 15563 2 15563 0.435119 0 0 0 116198 1 -1 3.86504 7.78151e-05 0 (-9.77313 9.45866 0) 685.848 0.0119487 0 (0 0 0) 293.049 2220.97 3.44917e-10 1(1) 9.98012e-05 (-4.86926e-05 -0.295 1.0842e-19) 0.0203538 0.000405921 0 1 0 0 -4.5036e+15 1.21432e-08 1 0.00329324 0
0.0700503 0 (0 0.5 0.158812 0.341188) 2990 15726 1 15726 0.360983 0 0 0 88843 1 -1 3.05502 8.24039e-05 0 (-0.788811 4.88435 0) 688.396 0.0256342 0 (0 0 0) 290.004 2210.42 7.72051e-10 1(1) 0.000130551 (-6.18016e-06 -0.295 2.71051e-20) 0.020668 0.000419936 0 1 0 0 -4.5036e+15 1.75353e-07 1 0.00566699 0
0.0700503 1 (0 0.5 0.176034 0.323966) 3173 15645 2 15645 0.982051 0 0 0 934 1 -1 0.00371989 0.000193428 0 (2.79355 9.71129 0) 685.337 0.069605 0 (0 0 0) 293.658 2223.11 6.57025e-10 1(1) 0.000123716 (1.91875e-05 -0.295 0) 0.020291 0.000403219 0 1 0 0 -4.5036e+15 -3.90209e-09 1 0.0145799 0
0.0700503 1 (0 0.5 0.292554 0.207446) 3245 15649 2 15649 0.932141 0 0 0 100021 1 -1 3.85149 7.78273e-05 0 (4.58299 16.3255 0) 687.303 0.0200526 0 (0 0 0) 291.312 2214.92 1.05188e-09 1(1) 0.000144728 (3.95402e-06 -0.295 -5.42101e-20) 0.0205329 0.00041381 0 1 0 0 -4.5036e+15 4.90192e-07 1 0.00292153 0
0.0700503 1 (0 0.357044 0.142956 0.5) 2911 15631 1 15631 0.433534 0 0 0 103818 1 -1 3.89706 7.73175e-05 0 (6.26203 9.07444 0) 687.236 0.0181488 0 (0 0 0) 291.393 2215.2 1.02384e-09 1(1) 0.00014343 (8.39751e-05 -0.295 0) 0.0205245 0.000413436 0 1 0 0 -4.5036e+15 5.782e-08 1 0.00360958 0
0.0700503 1 (0 0.5 0.345607 0.154393) 3047 15638 2 15638 0.786173 0 0 0 106552 1 -1 9.1444 5.68292e-05 0 (5.34432 11.8602 0) 688.205 0.0167863 0 (0 0 0) 290.234 2211.21 1.33659e-10 1(1) 7.27608e-05 (-8.54434e-05 -0.295 -5.42101e-20) 0.0206442 0.000418849 0 1 0 0 -4.5036e+15 1.62712e-08 1 0.00203288 0
0.0700503 1 (0 0.314235 0.185765 0.5) 2931 15632 1 15632 0.510267 0 0 0 112378 1 -1 6.92072 6.30131e-05 0 (6.7709 9.93007 0) 687.459 0.0138709 0 (0 0 0) 291.126 2214.28 1.74406e-10 1(1) 7.95094e-05 (6.25671e-05 -0.295 0) 0.020552 0.00041467 0 1 0 0 -4.5036e+15 0 1 0.00253407 0
0.0700503 1 (0 0.5 0.144459 0.355541) 3335 15654 2 15654 0.796411 0 0 0 104014 1 -1 4.21793 7.54913e-05 0 (4.9275 19.7495 0) 687.11 0.0180568 0 (0 0 0) 291.543 2215.72 7.82831e-10 1(1) 0.000131156 (3.69446e-07 -0.295 5.42101e-20) 0.020509 0.000412744 0 1 0 0 -4.5036e+15 3.85117e-07 1 0.00254828 0
0.0700503 1 (0 0.5 0.00952118 0.490479) 2227 15723 2 15723 0.260621 0 0 0 117834 1 -1 3.04792 8.37158e-05 0 (8.77158 5.54518 0) 685.061 0.0111433 0 (0 0 0) 293.987 2224.26 5.88366e-10 1(1) 0.000119247 (2.39219e-05 -0.295 0) 0.0202572 0.000401774 0 1 0 0 -4.5036e+15 1.81423e-09 1 0.00419312 0
0.0700503 1 (0 0.5 0.487476 0.0125238) 1912 15714 2 15714 0.943068 0 0 0 119174 1 -1 2.04117 9.7573e-05 0 (9.88126 3.92228 0) 683.57 0.0104805 0 (0 0 0) 295.758 2230.54 9.63171e-10 1(1) 0.00014054 (1.15202e-05 -0.295 0) 0.020075 0.000394148 0 1 0 0 -4.5036e+15 1.68401e-08 1 0.00523017 0
0.0700503 1 (0 0.5 0.159212 0.340788) 2227 15723 2 15723 0.0821097 0 0 0 118598 1 -1 2.71001 8.84067e-05 0 (10.2861 5.54775 0) 684.463 0.0107595 0 (0 0 0) 294.698 2226.77 6.35971e-10 1(1) 0.00012238 (2.9771e-05 -0.295 -5.42101e-20) 0.020184 0.00039868 0 1 0 0 -4.5036e+15 1.89455e-08 1 0.00430251 0
0.0700503 1 (0 0.5 0.474789 0.0252113) 2701 15698 2 15698 0.773497 0 0 0 116443 1 -1 2.24844 9.27337e-05 0 (12.3587 7.24476 0) 684.443 0.0118432 0 (0 0 0) 294.721 2226.85 1.12742e-09 1(1) 0.000148113 (6.05876e-05 -0.295 5.42101e-20) 0.0201817 0.000398581 0 1 0 0 -4.5036e+15 1.77076e-08 1 0.0041744 0
0.0700503 1 (0 0.289043 0.210957 0.5) 1982 15716 1 15716 0.634799 0 0 0 120427 1 -1 1.68946 0.00010221 0 (12.2924 4.29987 0) 682.795 0.00984932 0 (0 0 0) 296.676 2233.83 9.03442e-10 1(1) 0.000137572 (1.69626e-05 -0.295 -5.42101e-20) 0.0199807 0.000390296 0 1 0 0 -4.5036e+15 9.966e-09 1 0.00506264 0
0.0700503 1 (0 0.5 0.0655432 0.434457) 2087 15719 2 15719 0.0250163 0 0 0 120331 1 -1 1.82491 9.95023e-05 0 (12.7044 4.71701 0) 683.034 0.00989133 0 (0 0 0) 296.393 2232.81 9.31007e-10 1(1) 0.000138957 (2.57755e-05 -0.295 0) 0.0200097 0.000391475 0 1 0 0 -4.5036e+15 1.63121e-08 1 0.00476855 0
0.0700503 3 (0 0.5 0.419958 0.0800424) 2458 15608 1 15608 0.431601 0 0 0 94072 1 -1 5.3385 6.83991e-05 0 (-1.62142 19.9652 0) 687.728 0.0230204 0 (0 0 0) 290.805 2213.17 4.8412e-10 1(1) 0.000111742 (-8.57546e-05 -0.295 2.71051e-20) 0.0205853 0.000416168 0 1 0 0 -4.5036e+15 1.94866e-08 1 0.00221602 0
0.0700503 3 (0 0.033905 0.5 0.466095) 1828 15590 2 15590 0.484599 0 0 0 101250 1 -1 4.12013 7.50997e-05 0 (-4.26834 19.3933 0) 687.408 0.0194323 0 (0 0 0) 291.187 2214.49 8.84635e-10 1(1) 0.000136611 (-1.90252e-06 -0.295 1.0842e-19) 0.0205458 0.000414389 0 1 0 0 -4.5036e+15 4.50475e-07 1 0.00256072 0
0.0700503 3 (0 0.5 0.185468 0.314532) 1548 15582 1 15582 0.677406 0 0 0 107023 1 -1 12.8388 5.09388e-05 0 (-2.83636 14.9608 0) 688.849 0.0165504 0 (0 0 0) 289.462 2208.56 1.42365e-10 1(1) 7.43074e-05 (-3.39049e-06 -0.295 1.35525e-19) 0.0207241 0.000422526 0 1 0 0 -4.5036e+15 7.91641e-10 1 0.00162542 0
0.0700503 3 (0 0.219034 0.5 0.280966) 1443 15579 2 15579 0.178141 0 0 0 108986 1 -1 15.5381 4.72006e-05 0 (-1.93682 12.8634 0) 689.223 0.0155636 0 (0 0 0) 289.013 2207.03 1.0186e-10 1(1) 6.64607e-05 (-2.85106e-06 -0.295 0) 0.0207705 0.000424688 0 1 0 0 -4.5036e+15 0 1 0.00154755 0
0.0700503 3 (0 0.5 0.109368 0.390632) 1198 15572 1 15572 0.955057 0 0 0 110927 1 -1 5.11738 7.03173e-05 0 (-8.67453 13.5331 0) 687.062 0.0146029 0 (0 0 0) 291.6 2215.92 4.0847e-10 1(1) 0.000105589 (-7.66298e-05 -0.295 5.42101e-20) 0.0205032 0.000412483 0 1 0 0 -4.5036e+15 9.54362e-08 1 0.00252704 0
0.0700503 3 (0 0.242661 0.5 0.257339) 1128 15570 2 15570 0.235058 0 0 0 110572 1 -1 3.38371 8.18142e-05 0 (-10.8185 12.5609 0) 686.26 0.0147707 0 (0 0 0) 292.557 2219.25 1.08688e-09 1(1) 0.000146316 (-8.36629e-05 -0.295 8.13152e-20) 0.0204044 0.000408126 0 1 0 0 -4.5036e+15 3.33089e-08 1 0.00321097 0
0.0700503 3 (0 0.5 0.248923 0.251077) 1128 15570 1 15570 0.0161411 0 0 0 112852 1 -1 4.14051 7.60279e-05 0 (-10.8394 12.6369 0) 686.364 0.0136308 0 (0 0 0) 292.434 2218.82 5.85577e-10 1(1) 0.000119058 (-7.46379e-05 -0.295 0) 0.0204172 0.000408684 0 1 0 0 -4.5036e+15 1.44621e-08 1 0.00287339 0
0.0700503 3 (0 0.5 0.131091 0.368909) 1058 15568 1 15568 0.550464 0 0 0 109352 1 -1 4.9076 7.06108e-05 0 (-7.56492 10.9744 0) 687.278 0.0153843 0 (0 0 0) 291.342 2215.03 4.20343e-10 1(1) 0.000106602 (-7.17419e-05 -0.295 5.42101e-20) 0.0205298 0.000413673 0 1 0 0 -4.5036e+15 4.05704e-08 1 0.00286938 0
0.0700503 3 (0 0.5 0.216864 0.283136) 918 15564 1 15564 0.21792 0 0 0 116030 1 -1 4.66298 7.16626e-05 0 (-7.58387 9.39129 0) 686.541 0.0120417 0 (0 0 0) 292.222 2218.08 2.87306e-10 1(1) 9.39029e-05 (-3.36791e-05 -0.295 8.13152e-20) 0.020439 0.000409642 0 1 0 0 -4.5036e+15 0 1 0.00307836 0
0.0700503 3 (0 0.5 0.222782 0.277218) 918 15564 1 15564 0.771133 0 0 0 116062 1 -1 4.72834 7.24516e-05 0 (-8.01785 9.47081 0) 686.437 0.0120349 0 (0 0 0) 292.347 2218.52 2.79058e-10 1(1) 9.29956e-05 (-3.79548e-05 -0.295 8.13152e-20) 0.0204261 0.000409076 0 1 0 0 -4.5036e+15 0 1 0.0030898 0
0.0700503 3 (0 0.224089 0.5 0.275911) 560 15563 2 15563 0.93239 0 0 0 116059 1 -1 3.66379 7.93082e-05 0 (-10.1746 9.544 0) 685.722 0.012038 0 (0 0 0) 293.199 2221.5 4.52146e-10 1(1) 0.000109225 (-5.25348e-05 -0.295 1.0842e-19) 0.0203383 0.00040525 0 1 0 0 -4.5036e+15 8.16473e-08 1 0.00334632 0
0.0700503 3 (0 0.5 0.133682 0.366318) 490 15561 1 15561 0.679664 0 0 0 116618 1 -1 3.37226 8.06946e-05 0 (-10.3087 8.88789 0) 685.516 0.0117561 0 (0 0 0) 293.445 2222.36 4.66297e-10 1(1) 0.000110353 (-4.78462e-05 -0.295 2.71051e-20) 0.0203129 0.000404159 0 1 0 0 -4.5036e+15 2.48841e-08 1 0.00348111 0