/*--------------------------------*- C++ -*----------------------------------*\
  =========                 |
  \\      /  F ield         | OpenFOAM: The Open Source CFD Toolbox
   \\    /   O peration     | Website:  https://openfoam.org
    \\  /    A nd           | Version:  8
     \\/     M anipulation  |
\*---------------------------------------------------------------------------*/
FoamFile
{
    version     2.0;
    format      ascii;
    class       volScalarField;
    location    "2000";
    object      epsilon;
}
// * * * * * * * * * * * * * * * * * * * * * * * * * * * * * * * * * * * * * //

dimensions      [0 2 -3 0 0 0 0];

internalField   nonuniform List<scalar> 
15677
(
1181.43
450.327
85.7387
19.7959
7.21006
3.82785
2.64002
2.16164
1.97286
1.90447
1.87843
1.86721
1.86735
1.869
1.86963
1.86974
1.86971
1.86969
1.86968
1.86968
1.86968
1.86968
1.86968
1.86968
1.86969
1.86969
1.86969
1.8697
1.8697
1.8697
1.8697
1.86971
1.86971
1.86971
1.86971
1557.37
451.396
116.527
35.9039
14.2992
7.17812
4.33701
3.03422
2.38268
2.06051
1.92145
1.868
1.84318
1.83737
1.83716
1.83751
1.83767
1.83769
1.83766
1.83764
1.83763
1.83761
1.83761
1.8376
1.83759
1.83759
1.83758
1.83758
1.83757
1.83757
1.83756
1.83756
1.83756
1.83756
1.83756
1454.43
387.945
104.731
37.2774
17.1092
9.17092
5.5827
3.79237
2.83772
2.31385
2.02988
1.89332
1.83763
1.81461
1.80889
1.80791
1.80789
1.80795
1.80796
1.80794
1.80792
1.80791
1.80789
1.80789
1.80788
1.80788
1.80788
1.80788
1.80788
1.80788
1.80788
1.80788
1.80788
1.80788
1.80788
1274.4
360.413
92.6082
35.2244
17.2836
9.91921
6.27409
4.30811
3.19111
2.53928
2.15985
1.94882
1.84526
1.80064
1.78606
1.78196
1.78097
1.78078
1.78074
1.78071
1.78067
1.78064
1.78061
1.78059
1.78057
1.78056
1.78054
1.78053
1.78052
1.78051
1.78051
1.7805
1.78049
1.78049
1.78048
1157.21
360.91
94.1324
33.6981
17.0556
10.1563
6.63543
4.63812
3.44703
2.71938
2.27432
2.00985
1.86356
1.79396
1.76779
1.75906
1.75637
1.75564
1.75544
1.75536
1.75531
1.75527
1.75524
1.75521
1.75519
1.75517
1.75515
1.75514
1.75514
1.75513
1.75513
1.75513
1.75513
1.75512
1.75512
1084.28
365.975
99.5606
33.965
16.6828
10.1328
6.78618
4.83198
3.62278
2.8562
2.36904
2.06615
1.88818
1.79443
1.75491
1.73996
1.73464
1.73291
1.73236
1.73217
1.73206
1.73199
1.73193
1.73188
1.73184
1.73181
1.73179
1.73176
1.73174
1.73173
1.73171
1.7317
1.73169
1.73168
1.73167
1039.54
372.143
109.047
35.4237
16.7307
10.082
6.83401
4.93606
3.73672
2.95523
2.44342
2.11391
1.91121
1.79655
1.74511
1.72369
1.71518
1.71204
1.71094
1.71056
1.71039
1.71029
1.71021
1.71015
1.71009
1.71005
1.71001
1.70999
1.70996
1.70995
1.70994
1.70993
1.70992
1.70992
1.70991
1009.24
373.168
119.365
38.4158
17.0344
10.0877
6.84893
4.99091
3.80918
3.02542
2.50031
2.15295
1.93178
1.80071
1.73803
1.7102
1.69826
1.69347
1.69163
1.69091
1.6906
1.69042
1.6903
1.69021
1.69013
1.69007
1.69002
1.68998
1.68994
1.68991
1.68988
1.68986
1.68984
1.68983
1.68981
988.556
371.95
129.304
42.3308
17.7147
10.1467
6.85453
5.01662
3.85263
3.07322
2.54235
2.1837
1.94912
1.80504
1.73259
1.69862
1.68313
1.67646
1.67375
1.67266
1.67219
1.67195
1.67179
1.67166
1.67156
1.67147
1.6714
1.67134
1.67129
1.67126
1.67124
1.67122
1.67121
1.6712
1.67119
972.276
368.049
137.287
46.563
18.7576
10.297
6.86957
5.02857
3.87768
3.10493
2.57274
2.20732
1.96318
1.80895
1.72838
1.68903
1.6702
1.66166
1.65794
1.65633
1.65559
1.65521
1.65497
1.65479
1.65466
1.65454
1.65445
1.65437
1.65431
1.65426
1.65422
1.65419
1.65416
1.65414
1.65412
960.835
363.363
143.577
50.8151
19.9791
10.5572
6.90454
5.03491
3.89001
3.12429
2.59362
2.22478
1.97415
1.81217
1.72487
1.68062
1.65856
1.64812
1.6434
1.64132
1.64036
1.63987
1.63956
1.63933
1.63913
1.63897
1.63884
1.63873
1.63865
1.63859
1.63855
1.63853
1.63852
1.63851
1.6385
953.918
358.858
148.272
54.7705
21.2745
10.8629
6.96201
5.04216
3.89591
3.13533
2.60733
2.23725
1.98241
1.81465
1.722
1.67384
1.6491
1.63691
1.6311
1.62837
1.62704
1.62634
1.62591
1.6256
1.62536
1.62516
1.62501
1.62488
1.62479
1.62472
1.62467
1.62463
1.62461
1.62458
1.62455
950.943
354.692
151.696
58.3558
22.613
11.2074
7.03412
5.05089
3.89589
3.14001
2.6154
2.24566
1.98847
1.81666
1.7198
1.66803
1.64061
1.62679
1.6201
1.61692
1.61535
1.61452
1.61399
1.6136
1.61328
1.61301
1.61279
1.61262
1.61249
1.61241
1.61236
1.61234
1.61234
1.61235
1.61235
951.563
351.441
153.891
61.4038
23.8857
11.556
7.1119
5.06008
3.8941
3.13959
2.61933
2.2511
1.99288
1.81827
1.71814
1.66404
1.63489
1.61961
1.61186
1.60799
1.60599
1.6049
1.60421
1.60372
1.60333
1.60303
1.6028
1.60263
1.60252
1.60245
1.60242
1.6024
1.60239
1.60237
1.60235
954.445
348.958
155.267
63.9328
25.0864
11.9081
7.19428
5.07003
3.89014
3.13733
2.61985
2.25426
1.99626
1.82017
1.71821
1.66131
1.62995
1.6136
1.60531
1.60115
1.59898
1.59777
1.597
1.59642
1.59596
1.59558
1.59528
1.59505
1.59489
1.59479
1.59476
1.59476
1.59479
1.59483
1.59487
960.742
347.124
155.845
65.8543
26.1531
12.2403
7.27338
5.07876
3.88395
3.13249
2.61911
2.25615
1.99935
1.82281
1.71936
1.66177
1.62952
1.61184
1.60256
1.59775
1.59517
1.59372
1.59278
1.5921
1.59157
1.59117
1.59089
1.59071
1.59064
1.59065
1.59071
1.5908
1.59089
1.59096
1.59099
971.015
345.984
155.876
67.26
27.0566
12.5417
7.34653
5.08545
3.87659
3.12634
2.61753
2.25796
2.00292
1.82667
1.72239
1.66405
1.63124
1.61332
1.60386
1.59895
1.59632
1.59484
1.59389
1.59321
1.59269
1.59231
1.59206
1.59193
1.5919
1.59196
1.59207
1.59222
1.59236
1.59247
1.59257
984.667
345.453
155.642
68.1352
27.7573
12.793
7.40736
5.08974
3.86795
3.11935
2.61514
2.26007
2.00779
1.8327
1.72836
1.66928
1.63605
1.61791
1.60834
1.60338
1.60075
1.5993
1.5984
1.59778
1.59733
1.59703
1.59688
1.59685
1.59694
1.59712
1.59735
1.59761
1.59786
1.59807
1.59825
1001.71
345.488
155.122
68.6918
28.2944
13.0002
7.45712
5.08945
3.85895
3.11312
2.61466
2.26388
2.01493
1.84173
1.73819
1.67925
1.64568
1.62735
1.61771
1.61278
1.61026
1.60896
1.60823
1.60779
1.60753
1.60743
1.60749
1.60768
1.608
1.6084
1.60885
1.60933
1.60977
1.61014
1.61049
1022.19
345.849
154.216
68.6881
28.6117
13.1409
7.48784
5.08684
3.84953
3.10787
2.6158
2.27042
2.0254
1.85481
1.75275
1.69464
1.66167
1.64382
1.63466
1.63021
1.62814
1.62728
1.62697
1.62691
1.62704
1.62734
1.6278
1.62841
1.62914
1.62996
1.63081
1.63166
1.63244
1.63308
1.63368
1046.08
346.702
153.167
68.5271
28.7925
13.2373
7.50935
5.08152
3.84105
3.10527
2.61941
2.28044
2.04009
1.87289
1.77305
1.71644
1.68464
1.66777
1.65956
1.65602
1.65493
1.65488
1.65536
1.65609
1.65699
1.65807
1.6593
1.66066
1.66213
1.66363
1.66512
1.66654
1.66783
1.66891
1.66991
1073.37
348.085
152.076
68.1283
28.7736
13.2686
7.50817
5.07275
3.83489
3.10626
2.627
2.29511
2.06026
1.89727
1.80042
1.74603
1.71605
1.7009
1.69432
1.6925
1.69286
1.69437
1.69632
1.69845
1.7007
1.70306
1.70552
1.70807
1.71064
1.71318
1.71563
1.71792
1.71998
1.72175
1.72338
1103.97
349.877
150.886
67.4461
28.6764
13.255
7.49982
5.06272
3.83014
3.11015
2.64008
2.31549
2.08684
1.92889
1.83593
1.78459
1.75721
1.74462
1.74076
1.7411
1.74387
1.74777
1.75201
1.75635
1.76076
1.76524
1.76975
1.77426
1.77869
1.78295
1.78697
1.7907
1.79405
1.79697
1.79964
1137.69
352.05
149.623
66.6301
28.4695
13.2151
7.48151
5.0527
3.83054
3.11878
2.65907
2.34276
2.12112
1.96918
1.88107
1.83353
1.81008
1.80156
1.80094
1.80489
1.81143
1.81916
1.82715
1.83512
1.84303
1.85083
1.85849
1.86595
1.87313
1.87995
1.88634
1.89223
1.89756
1.90229
1.90657
1174.47
354.619
148.341
65.7003
28.1584
13.136
7.45422
5.04477
3.8338
3.13434
2.68481
2.37758
2.16386
2.01892
1.93669
1.89442
1.87639
1.87274
1.8769
1.88603
1.898
1.9113
1.92474
1.93806
1.95119
1.96412
1.97675
1.98897
2.00065
2.01167
2.02195
2.03143
2.04004
2.04777
2.05467
1214.01
357.516
147.045
64.6836
27.7846
13.0294
7.42128
5.03731
3.84161
3.15658
2.71843
2.42112
2.21629
2.07964
2.00433
1.96924
1.95846
1.96086
1.97206
1.98864
2.00866
2.03043
2.05243
2.07423
2.09567
2.11658
2.13678
2.15611
2.17444
2.19169
2.20778
2.2227
2.23637
2.24885
2.25987
1256.24
360.776
145.776
63.6159
27.3664
12.9045
7.386
5.03551
3.8567
3.18593
2.76006
2.47367
2.27891
2.15136
2.08527
2.05969
2.05672
2.06783
2.08848
2.1153
2.14657
2.18032
2.21439
2.24819
2.28151
2.31417
2.34594
2.37655
2.40577
2.4334
2.45932
2.48345
2.50576
2.52633
2.54423
1300.71
364.298
144.529
62.5186
26.9216
12.7703
7.35128
5.0375
3.87912
3.22344
2.81079
2.53632
2.35254
2.23606
2.1816
2.1672
2.17441
2.19733
2.23091
2.27211
2.31955
2.37101
2.42356
2.47635
2.52884
2.58039
2.63038
2.67835
2.724
2.76721
2.80794
2.84621
2.88201
2.91551
2.94444
1347.43
368.139
143.336
61.419
26.4612
12.6301
7.31795
5.0436
3.90844
3.26888
2.87025
2.60873
2.43681
2.33407
2.29436
2.29161
2.31257
2.35068
2.40124
2.46173
2.53138
2.60763
2.68617
2.76538
2.84436
2.92249
2.99932
3.07443
3.1474
3.21779
3.28519
3.34928
3.40989
3.4672
3.51637
1395.79
372.181
142.197
60.3294
25.9999
12.4905
7.2883
5.05612
3.94523
3.32282
2.93936
2.69183
2.53329
2.44727
2.42404
2.43632
2.47499
2.53307
2.60659
2.6939
2.79522
2.90762
3.02523
3.14639
3.27024
3.39546
3.52031
3.64301
3.76219
3.87708
3.98749
4.09366
4.19621
4.29595
4.38304
1.86975
1.86982
1.86989
1.86997
1.87004
1.87012
1.8702
1.87029
1.87037
1.87046
1.87055
1.87064
1.87073
1.87082
1.8709
1.87098
1.87106
1.87114
1.87122
1.87129
1.87136
1.87143
1.83765
1.83785
1.83806
1.83827
1.83848
1.83871
1.83894
1.83917
1.83941
1.83966
1.83992
1.84018
1.84044
1.84069
1.84093
1.84117
1.8414
1.84162
1.84184
1.84205
1.84225
1.84245
1.80804
1.80836
1.80868
1.80902
1.80937
1.80972
1.81008
1.81046
1.81084
1.81123
1.81163
1.81205
1.81245
1.81285
1.81324
1.81361
1.81398
1.81433
1.81467
1.81501
1.81534
1.81565
1.78069
1.78111
1.78154
1.78198
1.78244
1.78291
1.78339
1.78388
1.78439
1.78492
1.78545
1.786
1.78655
1.78708
1.7876
1.7881
1.78858
1.78906
1.78952
1.78996
1.7904
1.79082
1.75538
1.75589
1.75642
1.75697
1.75753
1.7581
1.75869
1.7593
1.75992
1.76056
1.76122
1.76189
1.76256
1.76321
1.76384
1.76445
1.76505
1.76563
1.76619
1.76674
1.76727
1.76779
1.73196
1.73255
1.73316
1.73379
1.73443
1.7351
1.73578
1.73649
1.73721
1.73796
1.73873
1.73951
1.74029
1.74105
1.74178
1.7425
1.7432
1.74388
1.74453
1.74518
1.7458
1.7464
1.71024
1.71091
1.7116
1.71232
1.71305
1.7138
1.71457
1.71536
1.71617
1.71701
1.71787
1.71875
1.71963
1.72048
1.72131
1.72212
1.7229
1.72367
1.72441
1.72514
1.72584
1.72653
1.69016
1.69088
1.69163
1.6924
1.69319
1.694
1.69484
1.69571
1.69661
1.69753
1.69848
1.69946
1.70042
1.70137
1.70228
1.70317
1.70404
1.70488
1.70571
1.7065
1.70728
1.70804
1.67158
1.67236
1.67317
1.67401
1.67486
1.67574
1.67665
1.67758
1.67854
1.67952
1.68054
1.68157
1.68261
1.68362
1.6846
1.68557
1.68651
1.68742
1.68831
1.68918
1.69003
1.69085
1.6545
1.65531
1.65614
1.65699
1.65788
1.65879
1.65974
1.66072
1.66174
1.66279
1.66388
1.66499
1.6661
1.66718
1.66823
1.66925
1.67025
1.67122
1.67217
1.67309
1.67399
1.67486
1.63892
1.63977
1.64064
1.64153
1.64246
1.6434
1.64438
1.64538
1.64641
1.64748
1.64858
1.64972
1.65085
1.65197
1.65306
1.65414
1.65519
1.65621
1.65721
1.65819
1.65914
1.66006
1.62494
1.62575
1.62657
1.62742
1.62831
1.62924
1.63022
1.63124
1.6323
1.63341
1.63457
1.63575
1.63693
1.63808
1.6392
1.6403
1.64137
1.64241
1.64343
1.64443
1.64541
1.64637
1.61276
1.61357
1.61439
1.61525
1.61612
1.61703
1.61796
1.61891
1.6199
1.62092
1.62199
1.62311
1.62425
1.62539
1.62652
1.62764
1.62873
1.62981
1.63086
1.63189
1.63289
1.63388
1.60266
1.60329
1.60391
1.60457
1.60529
1.60607
1.60693
1.60785
1.60884
1.60989
1.61098
1.61211
1.61323
1.61432
1.61539
1.61644
1.61747
1.61849
1.6195
1.6205
1.62149
1.62249
1.59519
1.59577
1.59634
1.59695
1.59758
1.5982
1.59881
1.59944
1.60011
1.60084
1.60164
1.60253
1.6035
1.60451
1.60555
1.60659
1.60762
1.60864
1.60963
1.6106
1.61155
1.61251
1.59106
1.59106
1.59098
1.591
1.59114
1.59148
1.59198
1.59259
1.59328
1.59402
1.59481
1.5956
1.59637
1.59712
1.59786
1.59862
1.59941
1.60022
1.60107
1.60194
1.60282
1.60376
1.59252
1.59219
1.59176
1.59142
1.59112
1.59071
1.59033
1.59001
1.5898
1.5897
1.58974
1.58998
1.59048
1.59113
1.59185
1.5926
1.59335
1.59409
1.59479
1.59548
1.59615
1.5969
1.59799
1.59703
1.59592
1.59493
1.59399
1.59314
1.59234
1.59162
1.591
1.5905
1.59012
1.58978
1.5894
1.58912
1.58897
1.58895
1.58905
1.5893
1.58974
1.59028
1.59088
1.59163
1.60991
1.60793
1.60573
1.60373
1.60184
1.6001
1.59847
1.59694
1.59554
1.59428
1.59314
1.59212
1.59127
1.59057
1.59003
1.58964
1.58938
1.58918
1.58894
1.58876
1.58869
1.58888
1.63252
1.6288
1.62477
1.62107
1.61757
1.61426
1.61113
1.60818
1.60543
1.60292
1.60062
1.59853
1.59674
1.59522
1.59392
1.59284
1.59194
1.59118
1.59056
1.59005
1.58966
1.5896
1.66809
1.6621
1.65574
1.64984
1.64421
1.63882
1.63365
1.62872
1.62401
1.61951
1.61527
1.61137
1.60792
1.60492
1.60231
1.60008
1.59819
1.59658
1.59522
1.59405
1.59307
1.59256
1.72069
1.71146
1.7018
1.69281
1.68419
1.67588
1.66788
1.66019
1.65282
1.64577
1.63908
1.63283
1.62719
1.62221
1.61779
1.61386
1.61037
1.60731
1.60465
1.60232
1.60031
1.59901
1.79587
1.78206
1.76778
1.75448
1.7417
1.72933
1.71739
1.70587
1.69479
1.68417
1.67406
1.66455
1.65589
1.64818
1.6413
1.63516
1.62969
1.62482
1.62051
1.61667
1.61331
1.61093
1.90141
1.88107
1.86035
1.84104
1.82244
1.80443
1.787
1.77015
1.75393
1.73836
1.72348
1.70946
1.69665
1.68519
1.67493
1.66576
1.65754
1.6502
1.64366
1.63779
1.63261
1.62878
2.04794
2.01832
1.9886
1.96088
1.93416
1.90826
1.88317
1.85892
1.83554
1.81309
1.79163
1.77137
1.75284
1.73624
1.72136
1.70802
1.69607
1.68538
1.67581
1.66722
1.65959
1.65378
2.25102
2.20804
2.16562
2.12605
2.08788
2.05088
2.01503
1.98038
1.94699
1.91494
1.88431
1.85542
1.829
1.80533
1.78412
1.76512
1.74809
1.73285
1.7192
1.70695
1.69606
1.68762
2.53292
2.47052
2.41
2.35349
2.299
2.24622
2.19514
2.14581
2.09833
2.05281
2.00938
1.96844
1.93106
1.89762
1.86772
1.84098
1.81705
1.79565
1.77653
1.75937
1.7441
1.73207
2.92978
2.83791
2.75089
2.66965
2.59134
2.51561
2.44243
2.37192
2.30423
2.23953
2.17801
2.1202
2.06754
2.02056
1.97864
1.94123
1.90785
1.87808
1.85154
1.8278
1.80672
1.78995
3.498
3.35867
3.23114
3.11294
2.99947
2.89007
2.78465
2.68328
2.58614
2.49348
2.40565
2.3235
2.24909
2.18308
2.12449
2.07245
2.02617
1.98502
1.94844
1.91583
1.88692
1.86364
4.35951
4.1328
3.93305
3.75142
3.58
3.41719
3.26254
3.11584
2.97676
2.84478
2.71972
2.60268
2.49664
2.40271
2.31974
2.24657
2.18206
2.12514
2.07485
2.03025
1.99086
1.95892
1.87147
1.87147
1.87147
1.87147
1.87147
1.87147
1.84255
1.84255
1.84255
1.84255
1.84255
1.84255
1.81581
1.81581
1.81581
1.81581
1.81581
1.81581
1.79103
1.79103
1.79103
1.79103
1.79103
1.79103
1.76805
1.76805
1.76805
1.76805
1.76805
1.76805
1.7467
1.7467
1.7467
1.7467
1.7467
1.7467
1.72687
1.72687
1.72687
1.72687
1.72687
1.72687
1.70841
1.70841
1.70841
1.70841
1.70841
1.70841
1.69126
1.69125
1.69125
1.69125
1.69126
1.69126
1.67529
1.67529
1.67529
1.67529
1.67529
1.67529
1.66052
1.66051
1.66051
1.66051
1.66051
1.66052
1.64684
1.64682
1.64682
1.64682
1.64682
1.64683
1.63435
1.63433
1.63433
1.63432
1.63433
1.63435
1.62297
1.62294
1.62294
1.62294
1.62294
1.62296
1.61295
1.61288
1.61287
1.61287
1.61287
1.61294
1.60421
1.60415
1.60417
1.60417
1.60415
1.6042
1.59719
1.59702
1.597
1.597
1.597
1.59716
1.59195
1.59182
1.59186
1.59185
1.59181
1.59192
1.58883
1.58851
1.58852
1.58851
1.58849
1.58877
1.5894
1.58902
1.58905
1.58904
1.58899
1.58934
1.59208
1.59157
1.59162
1.59161
1.59152
1.59199
1.59803
1.59733
1.59742
1.59739
1.59727
1.59791
1.6093
1.60832
1.60845
1.60842
1.60824
1.60913
1.62629
1.62503
1.62521
1.62517
1.62492
1.62607
1.65011
1.64847
1.64872
1.64867
1.64832
1.64983
1.68241
1.68034
1.68069
1.68063
1.68014
1.68206
1.72475
1.7221
1.72258
1.72249
1.72185
1.72429
1.77994
1.77665
1.77731
1.7772
1.77634
1.77937
1.84987
1.84575
1.84662
1.84648
1.84536
1.84917
1.94028
1.93501
1.93601
1.93584
1.93452
1.93942
1.87143
1.87136
1.87129
1.87122
1.87114
1.87106
1.87098
1.8709
1.87081
1.87073
1.87064
1.87055
1.87046
1.87037
1.87028
1.8702
1.87012
1.87004
1.86996
1.86989
1.86981
1.86974
1.84245
1.84225
1.84204
1.84183
1.84161
1.84139
1.84116
1.84092
1.84068
1.84043
1.84017
1.83991
1.83965
1.8394
1.83916
1.83892
1.8387
1.83847
1.83826
1.83805
1.83784
1.83765
1.81565
1.81533
1.815
1.81466
1.81432
1.81396
1.8136
1.81323
1.81284
1.81245
1.81205
1.81163
1.81123
1.81083
1.81045
1.81007
1.80971
1.80936
1.80902
1.80868
1.80836
1.80805
1.79082
1.79039
1.78995
1.7895
1.78904
1.78857
1.78808
1.78758
1.78707
1.78654
1.786
1.78545
1.78491
1.78438
1.78387
1.78337
1.78289
1.78242
1.78197
1.78152
1.7811
1.78068
1.76779
1.76727
1.76673
1.76618
1.76561
1.76503
1.76443
1.76382
1.7632
1.76255
1.7619
1.76123
1.76056
1.75992
1.75929
1.75869
1.7581
1.75753
1.75697
1.75643
1.75591
1.7554
1.7464
1.74579
1.74516
1.74452
1.74386
1.74318
1.74248
1.74177
1.74103
1.74028
1.73951
1.73873
1.73795
1.7372
1.73647
1.73576
1.73507
1.7344
1.73376
1.73313
1.73253
1.73194
1.72653
1.72583
1.72512
1.72439
1.72364
1.72288
1.72209
1.72129
1.72046
1.71962
1.71876
1.71788
1.71701
1.71617
1.71535
1.71456
1.71379
1.71304
1.71232
1.71161
1.71093
1.71027
1.70803
1.70727
1.70648
1.70568
1.70486
1.70401
1.70315
1.70226
1.70135
1.70042
1.69946
1.69848
1.69752
1.69658
1.69568
1.6948
1.69396
1.69314
1.69234
1.69158
1.69083
1.69012
1.69084
1.69001
1.68916
1.68829
1.68739
1.68647
1.68554
1.68458
1.6836
1.68259
1.68157
1.68053
1.6795
1.67851
1.67755
1.67661
1.67571
1.67483
1.67398
1.67316
1.67236
1.6716
1.67485
1.67397
1.67306
1.67214
1.67119
1.67021
1.66922
1.6682
1.66715
1.66608
1.66498
1.66387
1.66276
1.66169
1.66066
1.65966
1.6587
1.65777
1.65688
1.65602
1.6552
1.65441
1.66006
1.65912
1.65816
1.65718
1.65617
1.65515
1.6541
1.65302
1.65193
1.65082
1.64969
1.64855
1.64742
1.64634
1.64529
1.64428
1.6433
1.64235
1.64143
1.64055
1.63971
1.63889
1.64636
1.64538
1.6444
1.64339
1.64237
1.64132
1.64025
1.63916
1.63804
1.6369
1.63572
1.63453
1.63334
1.6322
1.63111
1.63006
1.62906
1.6281
1.62719
1.62633
1.62551
1.62473
1.63386
1.63286
1.63185
1.63082
1.62976
1.62868
1.62758
1.62646
1.62533
1.62419
1.62304
1.6219
1.62078
1.61972
1.61871
1.61773
1.61678
1.61587
1.61499
1.61415
1.61336
1.61261
1.62247
1.62146
1.62046
1.61945
1.61843
1.6174
1.61637
1.61532
1.61425
1.61315
1.61203
1.61088
1.60974
1.60865
1.6076
1.60662
1.60571
1.60487
1.6041
1.60341
1.6028
1.60222
1.61249
1.61151
1.61055
1.60958
1.60858
1.60755
1.60652
1.60547
1.60442
1.60339
1.60239
1.60143
1.60055
1.59975
1.59902
1.59833
1.59767
1.59703
1.5964
1.59579
1.59526
1.59476
1.60374
1.60278
1.60188
1.601
1.60014
1.59931
1.59852
1.59774
1.59698
1.59622
1.59542
1.59458
1.59373
1.59291
1.59214
1.59143
1.59082
1.59034
1.59005
1.58995
1.59002
1.59009
1.59686
1.59609
1.5954
1.59471
1.594
1.59326
1.59249
1.59173
1.59098
1.59029
1.58971
1.58933
1.58916
1.58912
1.58919
1.58935
1.58959
1.5899
1.5902
1.59049
1.5909
1.59131
1.59158
1.59082
1.5902
1.58964
1.58919
1.58891
1.58879
1.58877
1.58887
1.58907
1.58936
1.5896
1.58985
1.59019
1.59063
1.59118
1.59181
1.59252
1.59331
1.59421
1.59529
1.59632
1.58881
1.58859
1.58865
1.58881
1.58903
1.58922
1.58945
1.5898
1.59027
1.59088
1.59161
1.59246
1.59343
1.5945
1.59569
1.59699
1.5984
1.59992
1.60157
1.6034
1.6055
1.60752
1.58952
1.58955
1.58992
1.59042
1.59102
1.59174
1.59261
1.59363
1.59483
1.59623
1.59785
1.59972
1.60179
1.60403
1.60647
1.60911
1.61191
1.61487
1.61803
1.62143
1.62525
1.62893
1.59245
1.59293
1.59389
1.59504
1.59638
1.59795
1.59978
1.60192
1.60439
1.60721
1.6104
1.614
1.61793
1.6221
1.62644
1.63097
1.63569
1.64062
1.64578
1.65124
1.65725
1.66308
1.59886
1.60013
1.60212
1.60442
1.60704
1.61004
1.61345
1.61726
1.6215
1.62624
1.63152
1.63739
1.6437
1.65032
1.65721
1.66437
1.67178
1.67946
1.68743
1.69579
1.7049
1.71379
1.61073
1.61308
1.61641
1.62021
1.62447
1.62926
1.63463
1.64061
1.64725
1.65463
1.66282
1.67183
1.68148
1.69155
1.702
1.71282
1.724
1.73553
1.74742
1.75982
1.77326
1.78646
1.62852
1.63231
1.63747
1.64329
1.64977
1.65701
1.66507
1.67403
1.68398
1.69499
1.70718
1.72057
1.73486
1.74974
1.76517
1.78111
1.79753
1.81443
1.83182
1.84988
1.86937
1.88873
1.65344
1.65921
1.66681
1.67535
1.68483
1.6954
1.70716
1.7202
1.73467
1.75069
1.7684
1.78785
1.80858
1.83015
1.85251
1.8756
1.89936
1.92378
1.94888
1.97486
2.00279
2.03086
1.68719
1.69558
1.70645
1.71864
1.73218
1.74726
1.76403
1.78266
1.80332
1.82621
1.85156
1.87941
1.90912
1.94007
1.97216
2.0053
2.03941
2.07444
2.11042
2.14761
2.18748
2.22812
1.73153
1.74351
1.75876
1.77585
1.79485
1.81604
1.83964
1.86589
1.89508
1.92749
1.96346
2.00303
2.04534
2.08945
2.13525
2.1826
2.23139
2.28154
2.33306
2.38629
2.44325
2.50223
1.78928
1.80601
1.82708
1.85075
1.87715
1.90666
1.93963
1.9764
2.01738
2.063
2.11376
2.16978
2.22987
2.29275
2.35826
2.42617
2.49631
2.56851
2.64279
2.71951
2.80152
2.88837
1.86284
1.88611
1.91505
1.9476
1.98402
2.02484
2.07056
2.12174
2.17905
2.24323
2.31508
2.39488
2.48093
2.57129
2.66558
2.76347
2.86477
2.96936
3.07725
3.18912
3.30956
3.44174
1.95794
1.98986
2.02928
2.07377
2.12381
2.18027
2.24403
2.31605
2.39732
2.48881
2.59141
2.70529
2.82793
2.95666
3.09168
3.23352
3.38238
3.53839
3.70193
3.87464
4.06457
4.28158
1.86971
1.86971
1.86971
1.86971
1.86971
1.86971
1.86971
1.86971
1.86971
1.86971
1.86971
1.86971
1.86971
1.86971
1.8697
1.8697
1.8697
1.86971
1.86973
1.86975
1.86964
1.869
1.86735
1.86722
1.87844
1.90449
1.97293
2.16183
2.64046
3.82887
7.21284
19.8061
85.7933
450.641
1182.08
1.83755
1.83755
1.83755
1.83755
1.83755
1.83755
1.83755
1.83755
1.83755
1.83756
1.83756
1.83757
1.83757
1.83758
1.83759
1.83761
1.83764
1.83766
1.83765
1.8375
1.83716
1.83737
1.84318
1.86801
1.92147
2.06057
2.38283
3.03451
4.33763
7.17949
14.3025
35.9139
116.566
451.579
1558.09
1.80789
1.80789
1.8079
1.8079
1.8079
1.8079
1.80791
1.80791
1.80791
1.80792
1.80792
1.80793
1.80794
1.80795
1.80796
1.80798
1.808
1.80799
1.80793
1.80795
1.80892
1.81464
1.83764
1.89333
2.02992
2.31393
2.83786
3.79259
5.58305
9.17149
17.1102
37.2797
104.751
388.04
1455.18
1.78048
1.78048
1.78049
1.78049
1.7805
1.7805
1.78051
1.78051
1.78052
1.78054
1.78055
1.78057
1.78059
1.78063
1.78066
1.7807
1.78074
1.78079
1.78099
1.78198
1.78608
1.80066
1.84526
1.94877
2.15974
2.53911
3.19088
4.30778
6.27359
9.91832
17.2817
35.2231
92.6066
360.431
1275.32
1.75515
1.75516
1.75517
1.75517
1.75518
1.75519
1.7552
1.75521
1.75523
1.75524
1.75526
1.75528
1.75531
1.75535
1.75539
1.75544
1.75552
1.75571
1.75645
1.75913
1.76784
1.79397
1.86354
2.00977
2.27415
2.71911
3.44659
4.63738
6.63416
10.154
17.0524
33.6895
94.1187
360.915
1158.37
1.73166
1.73167
1.73168
1.73169
1.73171
1.73172
1.73174
1.73176
1.73179
1.73182
1.73186
1.7319
1.73195
1.73202
1.7321
1.73221
1.73241
1.73296
1.73469
1.74001
1.75494
1.79442
1.88807
2.06591
2.36864
2.85559
3.62189
4.83068
6.78425
10.1298
16.6763
33.9519
99.5283
365.967
1085.69
1.70996
1.70997
1.70999
1.71001
1.71003
1.71005
1.71008
1.7101
1.71013
1.71017
1.71021
1.71026
1.71032
1.7104
1.71051
1.71068
1.71107
1.71216
1.7153
1.72379
1.74516
1.79651
1.91106
2.11361
2.44293
2.95451
3.73565
4.93446
6.83145
10.0774
16.7224
35.4022
108.994
372.142
1041.19
1.68978
1.6898
1.68983
1.68986
1.6899
1.68993
1.68998
1.69002
1.69008
1.69014
1.6902
1.69028
1.69038
1.69051
1.69069
1.69101
1.69172
1.69356
1.69835
1.71026
1.73804
1.80061
1.93153
2.15251
2.49962
3.02442
3.80775
4.98883
6.84577
10.0823
17.0226
38.3804
119.294
373.216
1011.17
1.67124
1.67127
1.6713
1.67135
1.67139
1.67144
1.67149
1.67154
1.6716
1.67166
1.67174
1.67183
1.67195
1.67211
1.67236
1.67283
1.67392
1.67663
1.68327
1.69872
1.73261
1.80493
1.94883
2.18321
2.54161
3.07216
3.85113
5.01441
6.85094
10.1399
17.6975
42.2832
129.225
372.047
990.769
1.65404
1.65409
1.65415
1.65422
1.65429
1.65437
1.65445
1.65454
1.65463
1.65473
1.65484
1.65498
1.65514
1.65537
1.65574
1.65647
1.65807
1.66179
1.67032
1.68909
1.72837
1.8088
1.96284
2.20676
2.5719
3.10374
3.87594
5.02597
6.86529
10.2877
18.733
46.4961
137.199
368.218
974.764
1.63853
1.63859
1.63866
1.63874
1.63882
1.63891
1.639
1.63909
1.63919
1.6393
1.63943
1.63959
1.63979
1.64009
1.64057
1.64153
1.64361
1.64831
1.65873
1.68073
1.72487
1.81202
1.9738
2.2242
2.59277
3.1231
3.88833
5.03226
6.89959
10.5463
19.9489
50.7377
143.499
363.604
963.604
1.6244
1.62449
1.62461
1.62474
1.62487
1.62502
1.62516
1.62531
1.62546
1.62561
1.62578
1.62598
1.62624
1.62662
1.62727
1.62856
1.63127
1.63705
1.64923
1.67392
1.72199
1.81449
1.98206
2.23668
2.6065
3.13416
3.89403
5.03913
6.956
10.8486
21.2345
54.675
148.195
359.147
956.941
1.6123
1.6124
1.61252
1.61266
1.61281
1.61296
1.61311
1.61327
1.61343
1.6136
1.61379
1.61403
1.61435
1.61481
1.61561
1.61715
1.62031
1.62698
1.64078
1.66813
1.7198
1.81651
1.98814
2.24513
2.61461
3.1388
3.89402
5.0478
7.02763
11.191
22.5676
58.2572
151.641
355.092
954.189
1.60202
1.60218
1.60238
1.60261
1.60285
1.60309
1.60333
1.60356
1.60377
1.60399
1.60421
1.60447
1.60482
1.60536
1.60631
1.60821
1.61202
1.61974
1.635
1.66412
1.71815
1.81813
1.99259
2.25063
2.61864
3.13845
3.8923
5.05676
7.10457
11.5369
23.8323
61.2917
153.836
351.898
954.892
1.59459
1.59473
1.59492
1.59515
1.59538
1.59563
1.59588
1.59611
1.59635
1.59658
1.59684
1.59715
1.59756
1.59818
1.59926
1.60133
1.60545
1.61371
1.63004
1.66137
1.71821
1.82005
1.996
2.25385
2.61921
3.13635
3.88854
5.06688
7.18681
11.8878
25.0307
63.8241
155.232
349.46
957.924
1.59023
1.59047
1.59078
1.59112
1.59147
1.59182
1.59216
1.59246
1.59273
1.59297
1.5932
1.59346
1.59382
1.59443
1.59558
1.59793
1.60262
1.61185
1.62951
1.66178
1.71933
1.82268
1.99912
2.25581
2.61858
3.13179
3.88259
5.07558
7.2654
12.2181
26.0923
65.7408
155.818
347.675
964.445
1.59158
1.5918
1.59212
1.59248
1.59286
1.59323
1.59357
1.59388
1.59414
1.59435
1.59454
1.59475
1.59506
1.59561
1.59672
1.59908
1.60383
1.61322
1.63113
1.66396
1.72228
1.82649
2.00267
2.25764
2.61711
3.12572
3.87543
5.08274
7.33879
12.5194
26.9972
67.1588
155.871
346.558
974.86
1.59684
1.59704
1.59737
1.59773
1.59811
1.59849
1.59883
1.59911
1.59931
1.59945
1.59953
1.59961
1.59976
1.60015
1.60112
1.60337
1.60811
1.61761
1.63574
1.669
1.72809
1.83241
2.00748
2.25979
2.61496
3.1191
3.86722
5.08697
7.39978
12.7706
27.6994
68.0406
155.643
346.035
988.61
1.6084
1.60853
1.60882
1.60915
1.6095
1.60983
1.61011
1.61029
1.61036
1.61032
1.61018
1.60999
1.60983
1.60988
1.61051
1.61252
1.61713
1.62666
1.64499
1.67862
1.73764
1.84122
2.01446
2.26351
2.61435
3.11285
3.85825
5.08688
7.45
12.9797
28.2419
68.6127
155.14
346.062
1005.72
1.63043
1.63043
1.63063
1.63089
1.63114
1.63136
1.63148
1.63146
1.63129
1.63091
1.63035
1.62965
1.6289
1.62831
1.62829
1.62955
1.63358
1.64258
1.66046
1.69353
1.75178
1.85395
2.02465
2.26985
2.61545
3.10787
3.84934
5.08485
7.4819
13.1221
28.5688
68.6199
154.242
346.414
1026.21
1.66523
1.66492
1.66487
1.66483
1.66476
1.66462
1.66434
1.66385
1.66312
1.66209
1.66077
1.65921
1.6575
1.65586
1.65471
1.65494
1.65778
1.66575
1.68267
1.71463
1.77144
1.87147
2.03887
2.27953
2.61889
3.10496
3.84075
5.08026
7.50398
13.2238
28.7556
68.4761
153.202
347.248
1050.1
1.7168
1.71595
1.71539
1.71481
1.71416
1.71338
1.7124
1.71112
1.70947
1.70738
1.70484
1.70188
1.69859
1.69519
1.69217
1.69058
1.6917
1.69785
1.713
1.74324
1.79792
1.89505
2.05835
2.29364
2.62609
3.10585
3.8351
5.07233
7.50359
13.256
28.7437
68.1035
152.115
348.589
1077.28
1.7905
1.78872
1.78721
1.7856
1.78384
1.78184
1.77952
1.77676
1.77347
1.76958
1.76504
1.75988
1.75421
1.74824
1.74246
1.73813
1.73681
1.74022
1.75275
1.78043
1.83216
1.92552
2.08392
2.31316
2.63852
3.10942
3.82981
5.06235
7.49686
13.2458
28.6597
67.4463
150.947
350.346
1107.71
1.89403
1.89075
1.88764
1.88434
1.88076
1.8768
1.87236
1.86729
1.86146
1.85475
1.84709
1.83847
1.82901
1.81898
1.80896
1.80045
1.79521
1.79535
1.80374
1.82754
1.87563
1.96429
2.11681
2.33922
2.65654
3.11738
3.83004
5.0531
7.48123
13.2116
28.4727
66.6461
149.679
352.445
1141.18
2.03769
2.0319
2.026
2.01972
2.01293
2.00553
1.99737
1.98831
1.9782
1.96693
1.95442
1.94067
1.92577
1.90998
1.89396
1.87959
1.86887
1.864
1.86757
1.886
1.929
2.01195
2.15768
2.37239
2.68089
3.13189
3.83284
5.0448
7.45583
13.1421
28.1813
65.7518
148.415
354.953
1177.64
2.23693
2.22716
2.21677
2.20575
2.19393
2.18119
2.16736
2.15223
2.13562
2.11733
2.09725
2.0754
2.05198
2.02736
2.00241
1.97952
1.96101
1.94893
1.94646
1.95773
1.99373
2.07003
2.20766
2.41376
2.71266
3.1527
3.83988
5.03825
7.42501
13.0407
27.8204
64.7535
147.117
357.762
1216.76
2.51331
2.49686
2.47869
2.45946
2.43889
2.41687
2.39325
2.36787
2.34062
2.31138
2.28009
2.24672
2.21141
2.17453
2.13718
2.10256
2.07346
2.05176
2.04059
2.0441
2.07086
2.13832
2.26717
2.4635
2.75186
3.18008
3.85346
5.03489
7.39134
12.9239
27.4234
63.7214
145.867
360.942
1258.49
2.90254
2.8753
2.84457
2.81228
2.77813
2.74195
2.70351
2.66255
2.61883
2.57221
2.52276
2.47075
2.41669
2.36126
2.30586
2.2546
2.21079
2.17602
2.15308
2.14666
2.16244
2.21869
2.3369
2.52263
2.79951
3.21502
3.87396
5.03643
7.35774
12.7946
26.9913
62.6447
144.619
364.358
1302.35
3.45959
3.41274
3.35893
3.30257
3.24329
3.18108
3.1161
3.04853
2.9785
2.906
2.83093
2.75327
2.67333
2.59208
2.51168
2.43785
2.37448
2.32265
2.28466
2.26483
2.26907
2.3112
2.41639
2.59065
2.85513
3.25722
3.9008
5.04151
7.32527
12.6614
26.5519
61.5808
143.45
368.107
1348.39
4.30446
4.22014
4.12455
4.0272
3.92713
3.82341
3.71545
3.60309
3.48675
3.36739
3.24632
3.12481
3.00377
2.88394
2.76747
2.66177
2.57142
2.49665
2.43894
2.40179
2.39164
2.41765
2.50685
2.66841
2.91948
3.30712
3.93443
5.05217
7.29633
12.5264
26.1031
60.5131
142.309
372.021
1395.9
1451.06
376.942
141.003
59.1531
25.4947
12.3393
7.26123
5.07811
3.99449
3.39187
3.02589
2.79443
2.65392
2.59049
2.58581
2.61965
2.68268
2.76883
2.87537
3.00211
3.15129
3.32048
3.50205
3.69281
3.8897
4.08975
4.29125
4.49392
4.69834
4.9054
5.11568
5.32924
5.545
5.75975
5.949
1513.84
382.543
139.796
57.8981
24.955
12.1811
7.2398
5.11215
4.05972
3.47998
3.13508
2.92313
2.80737
2.77075
2.79224
2.85654
2.95473
3.08268
3.24009
3.43008
3.6596
3.92805
4.22425
4.54438
4.88793
5.25578
5.64855
6.06527
6.50316
6.95801
7.4245
7.89674
8.36978
8.84032
9.25892
1577.45
388.364
138.708
56.7209
24.4504
12.0367
7.22866
5.15573
4.13553
3.57957
3.2552
3.06701
2.981
2.97145
3.02652
3.12869
3.27208
3.45569
3.68362
3.96555
4.31829
4.74921
5.25047
5.82609
6.48037
7.21152
8.0118
8.86974
9.77225
10.7059
11.6573
12.614
13.5652
14.5012
15.3367
1641.45
394.387
137.743
55.6321
23.9847
11.9093
7.23018