/*--------------------------------*- C++ -*----------------------------------*\
  =========                 |
  \\      /  F ield         | OpenFOAM: The Open Source CFD Toolbox
   \\    /   O peration     | Website:  https://openfoam.org
    \\  /    A nd           | Version:  8
     \\/     M anipulation  |
\*---------------------------------------------------------------------------*/
FoamFile
{
    version     2.0;
    format      ascii;
    class       volScalarField;
    location    "2000";
    object      p;
}
// * * * * * * * * * * * * * * * * * * * * * * * * * * * * * * * * * * * * * //

dimensions      [0 2 -2 0 0 0 0];

internalField   nonuniform List<scalar> 
15677
(
86.8309
83.8161
83.7941
84.0198
83.9835
83.9217
83.8806
83.8425
83.8019
83.7599
83.7167
83.6728
83.6287
83.5852
83.5466
83.5144
83.4866
83.4625
83.4416
83.4234
83.4075
83.3941
83.3834
83.3747
83.3676
83.3617
83.3568
83.3527
83.3491
83.3461
83.3436
83.3413
83.3394
83.3377
83.3362
83.9073
82.9489
83.4672
83.5207
83.4636
83.4626
83.4694
83.4704
83.4695
83.4681
83.4655
83.4611
83.4543
83.4448
83.4337
83.4225
83.4112
83.4004
83.39
83.3803
83.3713
83.3635
83.3569
83.3515
83.3469
83.343
83.3398
83.337
83.3346
83.3325
83.3307
83.329
83.3276
83.3263
83.3251
83.3735
83.1869
83.3886
83.3162
83.3025
83.3146
83.3171
83.3169
83.3172
83.3177
83.3179
83.3179
83.3175
83.3167
83.3154
83.3138
83.3121
83.3102
83.3084
83.3066
83.305
83.3035
83.3023
83.3013
83.3004
83.2997
83.2991
83.2986
83.2981
83.2977
83.2972
83.2968
83.2964
83.296
83.2955
83.2291
83.2111
83.2521
83.2125
83.2249
83.2286
83.2267
83.2258
83.2255
83.2252
83.2251
83.2254
83.2262
83.2276
83.2295
83.2316
83.2341
83.2368
83.2398
83.2431
83.2466
83.2501
83.2534
83.2563
83.259
83.2613
83.2633
83.2651
83.2665
83.2678
83.2688
83.2697
83.2703
83.2707
83.271
83.0934
83.1001
83.1031
83.0951
83.1059
83.1062
83.107
83.1089
83.1108
83.1132
83.1163
83.1204
83.1257
83.1323
83.1398
83.1474
83.1555
83.1638
83.1725
83.1814
83.1905
83.1993
83.2073
83.2144
83.2207
83.2263
83.2311
83.2353
83.239
83.2421
83.2448
83.247
83.2488
83.2502
83.2512
82.9808
82.987
82.9863
82.9881
82.9931
82.9938
82.9961
82.9985
83.0013
83.0049
83.0096
83.0158
83.0241
83.0348
83.0471
83.0601
83.0738
83.0882
83.1032
83.1186
83.1343
83.1495
83.1633
83.1755
83.1864
83.196
83.2044
83.2117
83.2181
83.2235
83.2283
83.2323
83.2356
83.2384
83.2404
82.8668
82.8707
82.8717
82.8747
82.8773
82.8792
82.8817
82.8844
82.8878
82.8922
82.8983
82.9065
82.9177
82.9326
82.9501
82.9688
82.9889
83.0101
83.0324
83.0554
83.0791
83.102
83.1228
83.1415
83.158
83.1726
83.1855
83.1967
83.2066
83.2151
83.2224
83.2287
83.2341
83.2385
83.2419
82.7326
82.7352
82.7375
82.7402
82.7423
82.745
82.748
82.7513
82.7556
82.7614
82.7695
82.7806
82.7957
82.8161
82.8403
82.8664
82.8946
82.9246
82.9561
82.9889
83.0226
83.0554
83.0853
83.112
83.1358
83.1569
83.1755
83.1918
83.2061
83.2186
83.2293
83.2386
83.2466
83.2533
83.2584
82.5714
82.5733
82.576
82.5786
82.5811
82.5844
82.5878
82.5921
82.5977
82.6054
82.6161
82.6309
82.6513
82.6787
82.7116
82.7471
82.7857
82.827
82.8704
82.9157
82.9623
83.0078
83.0493
83.0865
83.1198
83.1492
83.1753
83.1982
83.2183
83.2358
83.2511
83.2643
83.2757
83.2854
83.2929
82.3764
82.3779
82.3807
82.3836
82.3866
82.3903
82.3946
82.4001
82.4074
82.4175
82.4316
82.4512
82.478
82.5144
82.5583
82.6058
82.6576
82.7131
82.7717
82.8328
82.8959
82.9576
83.0139
83.0646
83.1099
83.1501
83.1857
83.2171
83.2447
83.2689
83.2899
83.3083
83.3242
83.3377
83.3483
82.1398
82.1411
82.1439
82.1473
82.1508
82.1552
82.1605
82.1674
82.1769
82.19
82.2084
82.2338
82.2689
82.3166
82.374
82.4366
82.5049
82.5782
82.6557
82.7368
82.8207
82.9027
82.9778
83.0455
83.106
83.1599
83.2076
83.2498
83.2869
83.3195
83.3481
83.3729
83.3946
83.4132
83.4278
81.854
81.855
81.8577
81.8616
81.8657
81.871
81.8775
81.8862
81.8983
81.9151
81.9386
81.9714
82.0165
82.0779
82.1521
82.2331
82.3217
82.417
82.518
82.6237
82.7333
82.8406
82.9391
83.028
83.1076
83.1785
83.2415
83.2972
83.3464
83.3896
83.4275
83.4607
83.4896
83.5146
83.5343
81.5107
81.5115
81.5141
81.5184
81.5234
81.5296
81.5377
81.5485
81.5636
81.5848
81.6145
81.656
81.7132
81.7911
81.8856
81.9888
82.1019
82.2239
82.3533
82.4892
82.6301
82.7685
82.8956
83.0105
83.1136
83.2056
83.2874
83.3599
83.424
83.4804
83.53
83.5735
83.6117
83.6447
83.6707
81.1014
81.1019
81.1044
81.1093
81.1152
81.1228
81.1326
81.1459
81.1646
81.191
81.2281
81.2799
81.3513
81.4488
81.5671
81.6967
81.839
81.9927
82.1562
82.3281
82.5068
82.6825
82.8443
82.9908
83.1224
83.2401
83.3449
83.4379
83.5202
83.5929
83.6569
83.7132
83.7626
83.8056
83.8395
80.6187
80.6189
80.6215
80.627
80.634
80.643
80.6548
80.6709
80.6938
80.7261
80.7717
80.8353
80.9232
81.0433
81.1893
81.3496
81.526
81.7169
81.9205
82.1348
82.3582
82.5783
82.7814
82.9656
83.1315
83.2801
83.4126
83.5304
83.6348
83.7272
83.8087
83.8804
83.9437
83.9989
84.0422
80.0561
80.0561
80.0588
80.0648
80.073
80.0837
80.0976
80.1169
80.1443
80.1832
80.2382
80.3152
80.4217
80.5673
80.745
80.9402
81.1557
81.3894
81.6392
81.9029
82.1783
82.4505
82.7022
82.9309
83.1373
83.3225
83.488
83.6354
83.7663
83.8822
83.9847
84.0751
84.1551
84.225
84.2797
79.4075
79.4073
79.41
79.4166
79.4261
79.4386
79.4549
79.4775
79.5098
79.5559
79.6212
79.7128
79.8399
80.0139
80.2267
80.4612
80.7207
81.0029
81.3052
81.6253
81.9604
82.2925
82.6005
82.8811
83.1349
83.3631
83.5674
83.7497
83.9119
84.0558
84.1832
84.2959
84.3957
84.4832
84.5514
78.6682
78.6677
78.6703
78.6775
78.6884
78.7026
78.7214
78.7475
78.7849
78.8386
78.9149
79.0223
79.1714
79.3763
79.6276
79.9054
80.2136
80.5496
80.9107
81.2941
81.6968
82.097
82.4694
82.8095
83.1179
83.3959
83.6453
83.8683
84.0671
84.2438
84.4006
84.5395
84.6628
84.7711
84.8551
77.8341
77.8333
77.836
77.8438
77.8559
77.872
77.8932
77.9228
77.9654
78.0269
78.1147
78.2384
78.411
78.6488
78.9415
79.2658
79.6268
80.0216
80.4473
80.9007
81.3785
81.8552
82.3001
82.7077
83.0784
83.4133
83.7146
83.9845
84.2256
84.4404
84.6313
84.8008
84.9517
85.0842
85.1865
76.9031
76.902
76.9047
76.913
76.9265
76.9443
76.9679
77.0008
77.0485
77.1178
77.2171
77.3578
77.5546
77.8266
78.1625
78.536
78.9532
79.411
79.9064
80.4359
80.9961
81.5571
82.0826
82.5658
83.0064
83.4057
83.7658
84.0893
84.3788
84.6373
84.8676
85.0724
85.2552
85.4158
85.5389
75.8748
75.8733
75.8759
75.8848
75.8994
75.9189
75.9446
75.9806
76.033
76.1098
76.2205
76.378
76.599
76.9056
77.2859
77.7104
78.1862
78.7103
79.2795
79.8904
80.5393
81.192
81.8057
82.3721
82.8905
83.3617
83.7878
84.1716
84.5159
84.8241
85.0992
85.3443
85.5637
85.7566
85.9032
74.75
74.7481
74.7507
74.7599
74.7755
74.7964
74.8239
74.8626
74.9194
75.003
75.1244
75.298
75.5427
75.8837
76.3084
76.7843
77.3199
77.9122
78.5582
79.2545
79.9974
80.748
81.457
82.1139
82.7173
83.2677
83.767
84.2179
84.6236
84.9875
85.3131
85.6039
85.865
86.0942
86.2669
73.5314
73.5291
73.5316
73.5412
73.5576
73.5795
73.6084
73.6492
73.7095
73.7992
73.9303
74.1187
74.3858
74.7596
75.2276
75.7543
76.3494
77.0105
77.7347
78.5188
79.3594
80.213
81.023
81.7769
82.472
83.1085
83.6878
84.2125
84.686
85.1119
85.4937
85.8356
86.1435
86.4136
86.6145
72.2234
72.2207
72.2229
72.2327
72.2497
72.2724
72.3021
72.3443
72.4072
72.5017
72.641
72.8426
73.1299
73.5343
74.043
74.6182
75.2712
75.9999
76.8019
77.6744
78.6146
79.5745
80.4901
81.346
82.1387
82.8673
83.5328
84.1376
84.685
85.1787
85.6224
86.0209
86.3807
86.6959
86.927
70.8318
70.8287
70.8307
70.8406
70.8578
70.8808
70.9107
70.9534
71.0179
71.1157
71.2614
71.4739
71.7786
72.2098
72.7556
73.3757
74.0832
74.8766
75.7539
76.7134
77.753
78.8204
79.844
80.8057
81.7004
82.5261
83.2833
83.9737
84.6006
85.1676
85.6785
86.1386
86.5555
86.9199
87.1819
69.3639
69.3605
69.3622
69.3718
69.3891
69.4118
69.4413
69.4835
69.5481
69.6477
69.7976
70.0181
70.3367
70.7904
71.3681
72.0282
72.7851
73.638
74.5863
75.6291
76.7655
77.9393
79.0713
80.1404
81.1399
82.0663
82.9191
83.6997
84.4107
85.0557
85.6385
86.1648
86.6435
87.0606
87.3534
67.8282
67.8244
67.8258
67.8351
67.852
67.874
67.9022
67.9429
68.0063
68.1057
68.2573
68.4826
68.8108
69.2815
69.8851
70.5787
71.3782
72.2839
73.2966
74.4165
75.6445
76.9209
78.1592
79.3352
80.44
81.4689
82.4199
83.2937
84.0924
84.8192
85.4776
86.0739
86.6187
87.0911
87.4124
66.234
66.2299
66.2308
66.2396
66.2557
66.2764
66.3025
66.3406
66.4013
66.4985
66.6491
66.8757
67.2088
67.6904
68.3126
69.0319
69.8656
70.8154
71.8838
73.0724
74.3838
75.7561
77.0958
78.3754
79.584
80.715
81.7649
82.7332
83.6213
84.4321
85.1686
85.8376
86.4517
86.9812
87.3262
64.5918
64.5873
64.5877
64.5958
64.6108
64.6296
64.6529
64.6872
64.7436
64.8364
64.9833
65.2073
65.5401
66.026
66.6588
67.3948
68.2529
69.2367
70.3499
71.5962
72.9804
74.439
75.8725
77.2501
78.5582
79.7882
80.935
81.9969
82.9744
83.8697
84.685
85.4279
86.113
86.6988
87.057
62.911
62.9061
62.9059
62.913
62.9266
62.9429
62.9625
62.9919
63.0423
63.1288
63.2689
63.4863
63.8137
64.2968
64.9311
65.674
66.5456
67.5514
68.6966
69.9873
71.4307
72.9625
74.4782
75.9436
77.3432
78.6663
79.906
81.0587
82.1235
83.1011
83.9933
84.8084
85.5643
86.2036
86.5577
83.3345
83.3324
83.3304
83.3284
83.3265
83.3246
83.3227
83.3209
83.3191
83.3174
83.3157
83.3141
83.3126
83.3112
83.3099
83.3087
83.3076
83.3065
83.3056
83.3047
83.3039
83.3031
83.3238
83.3225
83.3211
83.3197
83.3183
83.317
83.3156
83.3143
83.313
83.3117
83.3105
83.3092
83.308
83.3069
83.3059
83.3049
83.304
83.3031
83.3023
83.3015
83.3008
83.3001
83.2952
83.2952
83.2951
83.295
83.2949
83.2948
83.2946
83.2944
83.2942
83.294
83.2938
83.2935
83.2931
83.2928
83.2924
83.2919
83.2915
83.291
83.2905
83.2899
83.2894
83.2889
83.2717
83.2729
83.2741
83.2752
83.2763
83.2773
83.2783
83.2792
83.2801
83.2808
83.2815
83.2821
83.2825
83.2828
83.283
83.283
83.283
83.2828
83.2825
83.2822
83.2818
83.2813
83.2532
83.2558
83.2583
83.2608
83.2632
83.2655
83.2677
83.2697
83.2717
83.2735
83.2752
83.2766
83.2779
83.2788
83.2795
83.28
83.2802
83.2803
83.2802
83.2799
83.2795
83.279
83.2439
83.2479
83.252
83.256
83.2599
83.2636
83.2671
83.2705
83.2736
83.2765
83.2792
83.2816
83.2835
83.2851
83.2862
83.287
83.2875
83.2877
83.2876
83.2873
83.2867
83.286
83.2473
83.2531
83.259
83.2648
83.2703
83.2756
83.2806
83.2854
83.2898
83.2939
83.2976
83.3009
83.3035
83.3056
83.3071
83.3081
83.3086
83.3088
83.3085
83.3079
83.307
83.3058
83.2664
83.2742
83.2824
83.2903
83.2978
83.305
83.3118
83.3181
83.324
83.3293
83.3341
83.3383
83.3416
83.3441
83.3458
83.3468
83.3472
83.3471
83.3464
83.3453
83.3438
83.3418
83.3042
83.3146
83.3254
83.3359
83.3459
83.3554
83.3642
83.3724
83.3799
83.3867
83.3926
83.3977
83.4016
83.4044
83.4062
83.407
83.4071
83.4064
83.405
83.4031
83.4005
83.3975
83.364
83.3774
83.3916
83.4054
83.4184
83.4306
83.4419
83.4523
83.4617
83.47
83.4772
83.4832
83.4876
83.4906
83.4922
83.4926
83.4919
83.4904
83.488
83.4848
83.4808
83.4762
83.449
83.4663
83.4847
83.5024
83.5191
83.5346
83.5489
83.5619
83.5735
83.5836
83.5922
83.599
83.6038
83.6068
83.6079
83.6076
83.6059
83.603
83.5991
83.5942
83.5883
83.5815
83.5627
83.5846
83.6082
83.6309
83.652
83.6715
83.6894
83.7055
83.7196
83.7318
83.7418
83.7495
83.7547
83.7573
83.7577
83.7562
83.753
83.7483
83.7423
83.7352
83.7267
83.7172
83.7081
83.7357
83.7657
83.7944
83.821
83.8455
83.8676
83.8874
83.9046
83.919
83.9307
83.9392
83.9445
83.9466
83.9459
83.9428
83.9375
83.9304
83.9217
83.9116
83.8998
83.8867
83.8881
83.9227
83.9606
83.9967
84.03
84.0604
84.0877
84.1118
84.1325
84.1497
84.1631
84.1725
84.1777
84.179
84.1767
84.1714
84.1634
84.1532
84.1411
84.1273
84.1113
84.0936
84.1049
84.1479
84.1955
84.2407
84.2821
84.3197
84.3533
84.3827
84.4077
84.428
84.4434
84.4538
84.4587
84.4587
84.4544
84.4463
84.4349
84.4208
84.4043
84.3859
84.3648
84.3415
84.3597
84.413
84.4725
84.5289
84.5802
84.6266
84.6678
84.7036
84.7336
84.7576
84.7755
84.7868
84.7914
84.7898
84.7829
84.7713
84.7557
84.7368
84.7151
84.691
84.6637
84.6337
84.6527
84.7185
84.7927
84.8627
84.9262
84.9833
85.0338
85.0773
85.1136
85.1421
85.1629
85.1754
85.1795
85.1759
85.1658
85.15
85.1294
85.1047
85.0767
85.0458
85.0111
84.973
84.9822
85.0635
85.1556
85.2423
85.3207
85.391
85.453
85.506
85.5498
85.5841
85.6084
85.6224
85.6261
85.6203
85.6065
85.5857
85.5592
85.5277
85.4922
85.4533
85.4099
85.3623
85.345
85.445
85.5593
85.6664
85.7631
85.8497
85.9257
85.9906
86.0439
86.0852
86.1141
86.1303
86.1337
86.1255
86.1075
86.0811
86.0477
86.0083
85.9642
85.9161
85.8626
85.8039
85.7354
85.8583
85.9997
86.1319
86.2512
86.3578
86.4512
86.5307
86.5959
86.6463
86.6813
86.7005
86.704
86.6935
86.6709
86.6383
86.5971
86.5488
86.4948
86.4361
86.371
86.2997
86.1452
86.2961
86.4708
86.6337
86.7807
86.912
87.027
87.1249
87.2051
87.2669
87.3099
87.3336
87.338
87.3253
87.2981
87.2586
87.2088
87.1505
87.0854
87.0148
86.9367
86.851
86.5635
86.7485
86.9639
87.1642
87.3452
87.507
87.6488
87.7696
87.8687
87.9454
87.9991
88.0291
88.0356
88.0213
87.9895
87.9428
87.8837
87.8144
87.7371
87.6532
87.5605
87.4586
86.9761
87.2024
87.4673
87.7134
87.936
88.1353
88.3102
88.4597
88.5828
88.6785
88.7462
88.7852
88.7957
88.7809
88.7448
88.6908
88.622
88.5409
88.4501
88.3516
88.2428
88.123
87.3658
87.6417
87.9666
88.2681
88.5414
88.7867
89.0027
89.1879
89.341
89.4611
89.5474
89.5989
89.6158
89.6022
89.5627
89.5017
89.4228
89.3293
89.2241
89.1098
88.9834
88.8439
87.7123
88.047
88.444
88.8123
89.1471
89.4486
89.7149
89.9444
90.1353
90.2865
90.3969
90.4655
90.4923
90.4822
90.4409
90.3736
90.2848
90.1783
90.0579
89.9267
89.7814
89.6205
87.9917
88.3955
88.8787
89.3269
89.7359
90.1054
90.4333
90.7173
90.9553
91.1457
91.2875
91.379
91.4203
91.4169
91.376
91.3037
91.2054
91.086
90.9499
90.8009
90.6356
90.4516
88.1781
88.6612
89.2464
89.7894
90.2868
90.7382
91.1407
91.4914
91.7876
92.0275
92.2093
92.3312
92.3928
92.4005
92.363
92.2877
92.1813
92.0494
91.8973
91.7299
91.5434
91.3349
88.243
88.8152
89.5204
90.175
90.7773
91.3263
91.8184
92.2499
92.6176
92.9188
93.1513
93.3127
93.4019
93.4264
93.3965
93.3212
93.2083
93.0649
92.8973
92.7112
92.503
92.2689
88.1552
88.8234
89.6675
90.4524
91.1776
91.842
92.4409
92.9697
93.4243
93.8012
94.0976
94.3099
94.4361
94.4848
94.468
94.3966
94.28
94.1267
93.9442
93.7396
93.5092
93.2485
87.8767
88.651
89.6554
90.5931
91.4631
92.2643
92.9903
93.6351
94.1936
94.6617
95.036
95.3118
95.486
95.5677
95.5711
95.5091
95.3928
95.2324
95.0369
94.8146
94.5625
94.2759
83.3024
83.3015
83.3008
83.3001
83.2995
83.2989
83.2994
83.2986
83.2978
83.2971
83.2965
83.2959
83.2882
83.2875
83.2868
83.286
83.2852
83.2845
83.2807
83.28
83.2793
83.2785
83.2776
83.2766
83.2784
83.2778
83.277
83.2761
83.2751
83.2738
83.2853
83.2848
83.2841
83.283
83.2818
83.2802
83.305
83.3046
83.3039
83.3028
83.3013
83.2993
83.3407
83.3406
83.3399
83.3387
83.3369
83.3344
83.3959
83.3962
83.3955
83.3941
83.392
83.3889
83.4739
83.4747
83.4742
83.4727
83.4701
83.4663
83.5784
83.5799
83.5796
83.5779
83.5748
83.57
83.7129
83.7152
83.7152
83.7133
83.7096
83.7036
83.8809
83.8843
83.8846
83.8826
83.8782
83.8708
84.086
84.0909
84.0916
84.0893
84.0842
84.075
84.3316
84.3382
84.3395
84.337
84.331
84.3197
84.6209
84.6297
84.6316
84.629
84.6219
84.6081
84.957
84.9684
84.971
84.9682
84.9599
84.9432
85.3424
85.3568
85.3604
85.3574
85.3478
85.3275
85.7794
85.7975
85.8022
85.7989
85.7878
85.7634
86.27
86.2924
86.2982
86.2947
86.2819
86.2529
86.8153
86.8427
86.85
86.8462
86.8316
86.797
87.4162
87.4494
87.4583
87.4543
87.4375
87.3967
88.0731
88.113
88.1236
88.1194
88.1004
88.0524
88.7857
88.8334
88.8459
88.8414
88.8199
88.7637
89.5532
89.6097
89.6244
89.6196
89.5954
89.53
90.3745
90.4408
90.4579
90.4529
90.4258
90.35
91.2472
91.3248
91.3444
91.3392
91.309
91.2214
92.1698
92.26
92.2825
92.277
92.2435
92.1429
93.1371
93.2413
93.2668
93.261
93.2241
93.1092
94.1527
94.2705
94.2996
94.2936
94.2527
94.1237
83.2984
83.298
83.2976
83.2972
83.2969
83.2966
83.2964
83.2963
83.2962
83.2962
83.2963
83.2965
83.2968
83.2971
83.2976
83.2981
83.2988
83.2995
83.3003
83.3011
83.302
83.303
83.2953
83.2947
83.2942
83.2937
83.2932
83.2927
83.2923
83.2919
83.2915
83.2912
83.2909
83.2907
83.2905
83.2904
83.2904
83.2904
83.2905
83.2906
83.2907
83.2909
83.2911
83.2914
83.2836
83.2828
83.2818
83.2809
83.28
83.279
83.2779
83.2769
83.2757
83.2746
83.2734
83.2721
83.2708
83.2695
83.2682
83.2669
83.2657
83.2644
83.2631
83.2618
83.2606
83.2593
83.2756
83.2744
83.2732
83.2719
83.2705
83.269
83.2674
83.2657
83.2638
83.2618
83.2597
83.2574
83.255
83.2526
83.2501
83.2475
83.2449
83.2422
83.2395
83.2368
83.234
83.2313
83.2726
83.2712
83.2697
83.2681
83.2663
83.2644
83.2622
83.2599
83.2573
83.2545
83.2514
83.248
83.2444
83.2407
83.2368
83.2328
83.2287
83.2245
83.2203
83.2159
83.2115
83.2072
83.2788
83.2774
83.2758
83.2739
83.2718
83.2695
83.2669
83.2639
83.2607
83.257
83.2529
83.2484
83.2436
83.2385
83.2332
83.2276
83.2219
83.216
83.2099
83.2037
83.1975
83.1913
83.2978
83.2965
83.2949
83.293
83.2908
83.2882
83.2853
83.2818
83.2779
83.2735
83.2684
83.2628
83.2566
83.2501
83.2431
83.2358
83.2283
83.2204
83.2123
83.204
83.1955
83.1872
83.3329
83.332
83.3307
83.329
83.3269
83.3242
83.3211
83.3173
83.3128
83.3077
83.3017
83.2949
83.2873
83.2791
83.2704
83.2611
83.2514
83.2413
83.2308
83.2199
83.2089
83.1981
83.3875
83.3874
83.3867
83.3855
83.3837
83.3812
83.3781
83.3741
83.3693
83.3635
83.3566
83.3485
83.3394
83.3295
83.3187
83.3072
83.295
83.2822
83.2688
83.2549
83.2407
83.2269
83.4652
83.4662
83.4666
83.4662
83.4651
83.4632
83.4603
83.4564
83.4514
83.445
83.4373
83.428
83.4172
83.4053
83.3922
83.3781
83.363
83.347
83.3301
83.3125
83.2944
83.2771
83.5694
83.5722
83.5741
83.575
83.575
83.574
83.5718
83.5682
83.5632
83.5565
83.5479
83.5374
83.5249
83.5107
83.495
83.4778
83.4592
83.4394
83.4184
83.3963
83.3736
83.3519
83.7038
83.709
83.7131
83.7158
83.7175
83.7178
83.7167
83.7139
83.7092
83.7023
83.6931
83.6812
83.6668
83.6501
83.6313
83.6106
83.5879
83.5636
83.5376
83.51
83.4816
83.4548
83.872
83.8805
83.8874
83.8927
83.8965
83.8989
83.8993
83.8977
83.8936
83.8869
83.8771
83.8639
83.8474
83.8279
83.8056
83.7806
83.7531
83.7234
83.6913
83.6572
83.6218
83.5888
84.0777
84.0902
84.1009
84.1094
84.1163
84.1212
84.1239
84.1239
84.121
84.1146
84.1044
84.0899
84.0711
84.0484
84.022
83.992
83.9588
83.9225
83.8832
83.8411
83.7973
83.7567
84.3242
84.3419
84.3572
84.37
84.3807
84.389
84.3946
84.3969
84.3955
84.3898
84.3793
84.3634
84.342
84.3156
84.2843
84.2485
84.2084
84.1642
84.1162
84.0643
84.0103
83.9607
84.6149
84.639
84.66
84.6779
84.6934
84.706
84.7152
84.7204
84.7211
84.7164
84.7057
84.6883
84.6639
84.6331
84.5961
84.5533
84.5049
84.4513
84.3926
84.3291
84.2625
84.2021
84.9529
84.9845
85.0125
85.0366
85.0579
85.0757
85.0893
85.0982
85.1014
85.0981
85.0873
85.0681
85.0402
85.0042
84.9603
84.9089
84.8505
84.7854
84.7139
84.6361
84.5543
84.4807
85.3406
85.3814
85.4176
85.4492
85.4773
85.5013
85.5203
85.5334
85.5397
85.5379
85.527
85.5056
85.4734
85.431
85.3787
85.317
85.2464
85.1674
85.0802
84.985
84.8846
84.795
85.7806
85.832
85.8778
85.9181
85.9542
85.9855
86.0107
86.0288
86.0385
86.0385
86.0272
86.003
85.9654
85.915
85.8524
85.778
85.6925
85.5964
85.4901
85.3737
85.2506
85.1416
86.2748
86.3384
86.3953
86.4455
86.4909
86.5304
86.5627
86.5863
86.5998
86.6014
86.5892
86.5612
86.5167
86.4565
86.381
86.291
86.1871
86.0701
85.9404
85.7982
85.6473
85.5147
86.8244
86.902
86.9713
87.0329
87.0887
87.1375
87.1776
87.2072
87.2246
87.2275
87.2137
87.1805
87.127
87.0543
86.9628
86.8534
86.7269
86.5842
86.426
86.2523
86.0674
85.9061
87.4303
87.5236
87.6069
87.6811
87.7486
87.8076
87.8561
87.8921
87.9133
87.9169
87.9001
87.8597
87.7947
87.706
87.5945
87.461
87.3066
87.1323
86.9391
86.7271
86.5009
86.3047
88.0929
88.2037
88.3025
88.3907
88.4708
88.5408
88.5983
88.6407
88.6651
88.6684
88.6467
88.5965
88.5163
88.4073
88.2707
88.1073
87.9184
87.7055
87.4697
87.211
86.9346
86.6965
88.812
88.942
89.0578
89.1611
89.2549
89.3366
89.4032
89.4517
89.4784
89.4796
89.4506
89.387
89.2869
89.1523
88.9841
88.7836
88.5525
88.2923
88.0046
87.6896
87.3525
87.064
89.5867
89.7378
89.8718
89.9914
90.0996
90.1933
90.2689
90.3226
90.3502
90.3469
90.307
90.2253
90.0998
89.9325
89.725
89.4788
89.1958
88.8782
88.5278
88.145
87.7352
87.387
90.4159
90.5896
90.7432
90.8798
91.0029
91.1086
91.1926
91.2503
91.2764
91.2653
91.2101
91.1044
90.946
90.7379
90.4816
90.1792
89.8331
89.4459
89.0201
88.5564
88.0597
87.6417
91.2974
91.4953
91.6693
91.8236
91.9618
92.0791
92.1703
92.2298
92.2514
92.228
92.1516
92.0145
91.8143
91.5549
91.2385
90.8676
90.4451
89.9746
89.4591
88.8996
88.3003
87.802
92.2297
92.4528
92.6479
92.8202
92.973
93.1008
93.1973
93.2557
93.2685
93.2272
93.1222
92.9445
92.6917
92.3691
91.9792
91.5255
91.0116
90.4418
89.8201
89.1479
88.428
87.8396
93.2076
93.4571
93.6738
93.8639
94.0306
94.1672
94.2662
94.3194
94.3179
94.2513
94.1085
93.8786
93.56
93.1593
92.6803
92.1271
91.5044
90.8175
90.0715
89.2681
88.4087
87.7234
94.234
94.5091
94.7469
94.9539
95.1327
95.2752
95.3725
95.415
95.3919
95.2911
95.0994
94.8048
94.406
93.9119
93.3268
92.6554
91.9038
91.0785
90.1864
89.2292
88.2091
87.4173
83.3039
83.3047
83.3056
83.3067
83.308
83.3096
83.3115
83.3139
83.3168
83.3204
83.3248
83.3304
83.3375
83.3466
83.3582
83.3724
83.3891
83.4086
83.4314
83.4581
83.4893
83.5269
83.5698
83.6133
83.6568
83.6997
83.7415
83.7819
83.82
83.8611
83.9228
83.9591
83.7334
83.7554
86.7702
83.2916
83.2919
83.2922
83.2927
83.2933
83.294
83.295
83.2962
83.2977
83.2996
83.302
83.3051
83.3089
83.3138
83.32
83.3273
83.3355
83.3444
83.354
83.3641
83.3743
83.3845
83.3933
83.3995
83.4035
83.4058
83.407
83.4078
83.4067
83.3998
83.4008
83.4578
83.4043
82.8861
83.8443
83.2582
83.2574
83.2566
83.2558
83.255
83.2542
83.2533
83.2525
83.2516
83.2508
83.25
83.2493
83.2487
83.2483
83.2481
83.2481
83.2483
83.2487
83.2493
83.2499
83.2504
83.2508
83.2508
83.2506
83.2502
83.2497
83.2491
83.2486
83.2487
83.2462
83.234
83.2477
83.3201
83.1185
83.305
83.2289
83.227
83.2249
83.2228
83.2204
83.2179
83.2151
83.2122
83.2089
83.2053
83.2014
83.1971
83.1924
83.1874
83.1822
83.177
83.1721
83.1677
83.1636
83.16
83.1567
83.1539
83.1518
83.1504
83.1497
83.1495
83.1496
83.1499
83.1506
83.1526
83.1488
83.1364
83.176
83.135
83.1529
83.2031
83.2
83.1965
83.1928
83.1888
83.1843
83.1795
83.1741
83.1682
83.1617
83.1544
83.1463
83.1374
83.1276
83.117
83.1061
83.0956
83.0854
83.0757
83.0665
83.0577
83.0493
83.0419
83.036
83.0315
83.0281
83.0256
83.0235
83.0216
83.0207
83.0204
83.0096
83.0176
83.0145
83.0079
83.1852
83.1806
83.1753
83.1696
83.1635
83.1567
83.1492
83.1408
83.1316
83.1213
83.1098
83.0971
83.0829
83.0673
83.0502
83.0327
83.0156
82.9991
82.9832
82.9682
82.9541
82.9408
82.9293
82.9204
82.9137
82.9088
82.9051
82.9022
82.8996
82.8974
82.8966
82.8916
82.8898
82.8904
82.8842
83.1788
83.1722
83.1647
83.1566
83.1478
83.138
83.1272
83.1151
83.1017
83.0868
83.0701
83.0515
83.0308
83.008
82.9831
82.9576
82.9328
82.9089
82.8861
82.8647
82.8448
82.8263
82.8106
82.7988
82.7902
82.7838
82.7792
82.7758
82.773
82.7704
82.7685
82.7659
82.7629
82.7619
82.758
83.1866
83.1776
83.1673
83.1561
83.1439
83.1303
83.1152
83.0984
83.0797
83.0587
83.0354
83.0094
82.9804
82.9485
82.9136
82.878
82.8434
82.8101
82.7786
82.749
82.7217
82.6964
82.6752
82.6595
82.6479
82.6396
82.6336
82.6291
82.6258
82.6228
82.6201
82.6179
82.6152
82.6129
82.6103
83.2115
83.1996
83.1857
83.1706
83.1539
83.1354
83.1149
83.092
83.0664
83.0378
83.0059
82.9703
82.9307
82.887
82.8393
82.7907
82.7435
82.6983
82.6555
82.6155
82.5787
82.5447
82.5164
82.4955
82.4803
82.4693
82.4614
82.4556
82.4513
82.4478
82.4445
82.442
82.4394
82.4367
82.4348
83.2568
83.2411
83.2227
83.2025
83.1803
83.1555
83.128
83.0973
83.0629
83.0245
82.9816
82.9338
82.8807
82.822
82.7581
82.6929
82.6298
82.5694
82.5123
82.459
82.4102
82.3653
82.328
82.3005
82.2806
82.2662
82.2559
82.2484
82.2429
82.2385
82.2348
82.2318
82.2288
82.2261
82.2246
83.3254
83.305
83.2809
83.2544
83.2251
83.1925
83.1562
83.1156
83.0701
83.0194
82.9626
82.8994
82.8291
82.7515
82.6672
82.5812
82.4981
82.4187
82.3437
82.2739
82.2101
82.1515
82.1031
82.0674
82.0414
82.0228
82.0094
81.9999
81.9928
81.9875
81.9831
81.9795
81.9761
81.9734
81.9721
83.4205
83.3943
83.3631
83.3287
83.2906
83.2481
83.2008
83.1478
83.0886
83.0223
82.9483
82.8658
82.7743
82.6732
82.5635
82.4517
82.3439
82.2411
82.1441
82.054
81.9718
81.8964
81.8342
81.7885
81.7553
81.7315
81.7144
81.7023
81.6935
81.6869
81.6817
81.6775
81.6736
81.671
81.6699
83.5449
83.5115
83.4715
83.4274
83.3784
83.3239
83.2629
83.1947
83.1184
83.033
82.9377
82.8316
82.7139
82.5841
82.4433
82.3002
82.1623
82.0309
81.9073
81.7927
81.6882
81.5928
81.5141
81.4563
81.4144
81.3843
81.3629
81.3477
81.3368
81.3288
81.3225
81.3175
81.3132
81.3106
81.3099
83.7009
83.6589
83.6083
83.5522
83.49
83.4205
83.3429
83.2561
83.159
83.0504
82.9292
82.7944
82.645
82.4805
82.3024
82.1215
81.9476
81.7823
81.6269
81.4832
81.3524
81.2331
81.1349
81.0629
81.0107
80.9733
80.9467
80.9279
80.9146
80.9048
80.8973
80.8914
80.8865
80.8839
80.8834
83.8902
83.8379
83.7744
83.7039
83.6256
83.5382
83.4406
83.3313
83.2091
83.0726
82.9204
82.7512
82.564
82.3582
82.1356
81.9101
81.6938
81.4885
81.2961
81.1183
80.9569
80.8099
80.6893
80.6009
80.5369
80.4911
80.4586
80.4357
80.4195
80.4077
80.3987
80.3917
80.3863
80.3837
80.3834
84.1136
84.0491
83.9701
83.8823
83.7848
83.676
83.5543
83.4183
83.2662
83.0965
82.9075
82.6977
82.4659
82.2115
81.9371
81.6596
81.3941
81.1426
80.9075
80.6908
80.4945
80.3162
80.17
80.0631
79.9859
79.9307
79.8916
79.8641
79.8448
79.8309
79.8203
79.812
79.806
79.8034
79.8034
84.3704
84.2915
84.1942
84.0859
83.9656
83.8314
83.6813
83.5137
83.3265
83.1178
82.8857
82.6285
82.3449
82.0342
81.6999
81.3629
81.0411
80.7373
80.4539
80.1934
79.9581
79.7447
79.5704
79.4431
79.3513
79.2858
79.2395
79.2072
79.1846
79.1683
79.156
79.1465
79.1398
79.1372
79.1374
84.6582
84.5627
84.4439
84.3114
84.1644
84.0004
83.8172
83.6126
83.3845
83.1306
82.8486
82.5367
82.1936
81.8187
81.4164
81.012
80.6272
80.2649
79.928
79.619
79.3407
79.0891
78.8841
78.7348
78.6274
78.551
78.4972
78.4598
78.4337
78.415
78.4008
78.39
78.3829
78.3802
78.3807
84.9729
84.8582
84.7143
84.5537
84.3756
84.1769
83.9553
83.7081
83.4329
83.127
82.788
82.4139
82.0034
81.5561
81.0777
80.5985
80.1441
79.7176
79.3222
78.9608
78.6362
78.3436
78.106
77.9335
77.8097
77.722
77.6605
77.6179
77.5884
77.5673
77.5513
77.5392
77.5314
77.5287
77.5295
85.3075
85.1711
84.9983
84.8052
84.5912
84.3528
84.0871
83.7912
83.4623
83.0975
82.6941
82.25
81.7642
81.2366
80.6743
80.1132
79.583
79.0873
78.6293
78.2123
77.8389
77.5035
77.232
77.0355
76.8951
76.7959
76.7267
76.6791
76.6463
76.6228
76.6051
76.5917
76.5833
76.5807
76.5818
85.6529
85.492
85.2863
85.0558
84.8009
84.5173
84.2016
83.8507
83.4613
83.0304
82.5551
82.0336
81.4647
80.8493
80.1958
79.5465
78.9356
78.3666
77.843
77.3679
76.9442
76.5649
76.2592
76.0388
75.8817
75.7713
75.6948
75.6424
75.6066
75.581
75.5616
75.5471
75.5383
75.5357
75.5372
85.9966
85.8086
85.5656
85.2929
84.9917
84.6572
84.2854
83.8729
83.4163
82.9122
82.3579
81.7515
81.0925
80.3823
79.6315
78.889
78.1934
77.5484
76.9573
76.4232
75.9487
75.5256
75.1861
74.9424
74.7696
74.6486
74.5652
74.5086
74.4702
74.4428
74.422
74.4066
74.3974
74.3948
74.3967
86.3229
86.1056
85.8209
85.5007
85.1479
84.7566
84.3226
83.8422
83.3116
82.7276
82.0874
81.3895
80.6341
79.8234
78.9704
78.1311
77.3487
76.6264
75.9675
75.3746
74.8503
74.3847
74.013
73.7474
73.5599
73.4295
73.3403
73.2802
73.2396
73.211
73.1891
73.1729
73.1633
73.1609
73.1632
86.6129
86.3643
86.0336
85.6607
85.2509
84.7972
84.2951
83.7405
83.1298
82.4597
81.7276
80.9326
80.0756
79.1603
78.2019
77.2641
76.3943
75.5954
74.87
74.2204
73.6485
73.1431
72.7417
72.4564
72.2561
72.1177
72.0238
71.9612
71.9193
71.8898
71.8673
71.8505
71.8407
71.8385
71.8411
86.8443
86.5633
86.1825
85.7518
85.2797
84.7584
84.1826
83.5484
82.8521
82.0904
81.2615
80.3651
79.403
78.3806
77.3158
76.2799
75.3245
74.4516
73.6629
72.96
72.3444
71.8032
71.3757
71.0736
70.8629
70.7184
70.6212
70.5572
70.5149
70.4852
70.4625
70.4454
70.4356
70.4336
70.4366
86.9909
86.6778
86.2432
85.7498
85.2109
84.6173
83.9632
83.2447
82.4583
81.6012
80.672
79.6713
78.6026
77.4729
76.3031
75.1719
74.1348
73.1925
72.3458
71.5951
70.941
70.369
69.9202
69.605
69.3867
69.2382
69.1396
69.0755
69.0337
69.0045
68.982
68.9649
68.9554
68.9537
68.9571
87.024
86.6807
86.1896
85.6295
85.0199
84.3502
83.614
82.8078
81.9282
80.973
79.9418
78.8364
77.6618
76.427
75.1561
73.9352
72.8227
71.8179
70.9203
70.1288
69.4427
68.8465
68.3818
68.0578
67.8353
67.6854
67.5872
67.5244
67.4842
67.4563
67.4346
67.4179
67.4087
67.4074
67.4112
86.911
86.5422
85.9927
85.3623
84.6792
83.9309
83.1105
82.2147
81.2407
80.187
79.0542
77.8458
76.5685
75.2337
73.8688
72.5664
71.3874
70.3291
69.3894
68.5657
67.8559
67.2427
66.7685
66.4406
66.2174
66.0689
65.973
65.9132
65.8756
65.8498
65.8295
65.8136
65.8049
65.804
65.8081
86.614
86.2301
85.6229
84.9207
84.1632
83.3355
82.4303
81.445
80.3774
79.2271
77.9958
76.6886
75.3145
73.8873
72.438
71.0651
69.8308
68.7302
67.759
66.9132
66.1888
65.567
65.0902
64.7635
64.5436
64.3993
64.308
64.2526
64.2189
64.196
64.1775
64.1628
64.1548
64.1545
64.1589
86.0866
85.7046
85.0421
84.2676
83.4369
82.5318
81.5439
80.4713
79.3131
78.0702
76.7463
75.3485
73.8878
72.38
70.8596
69.4301
68.1542
67.0243
66.034
65.1773
64.4483
63.8272
63.355
63.0349
62.8224
62.6853
62.6007
62.5513
62.5226
62.5034
62.4875
62.4743
62.4674
62.4677
62.4725
61.0138
61.009
61.0081
61.0142
61.0259
61.0391
61.054
61.0769
61.1194
61.1964
61.3258
61.5315
61.8469
62.3187
62.9447
63.684
64.5582
65.574
66.7392
68.0622
69.5534
71.1492
72.7413
74.2931
75.7856
77.2042
78.5381
79.7808
80.93
81.986
82.9503
83.8335
84.6566
85.34
85.6687
58.8915
58.8862
58.8846
58.8893
58.8985
58.9073
58.9156
58.9296
58.9607
59.0242
59.1377
59.3248
59.6195
60.068
60.671
61.3907
62.2496
63.2562
64.4204
65.7539
67.2709
68.9109
70.5629
72.1849
73.7515
75.2435
76.6487
77.9613
79.1805
80.307
81.342
82.2973
83.1982
83.9366
84.2164
56.7629
56.7571
56.7544
56.7573
56.7633
56.7668
56.7673
56.7708
56.7885
56.8354
56.9286
57.0914
57.3573
57.7707
58.3357
59.0186
59.8417
60.815
61.951
63.2644
64.7726
66.4176
68.0853
69.7281
71.3199
72.8448
74.2945
75.665
76.954
78.1593
79.278
80.3208
81.3159
82.125
82.3707
54.6546
54.6486
54.6449
54.6457
54.6483
54.6462
54.6384
54.6304
54.6331