/*--------------------------------*- C++ -*----------------------------------*\
  =========                 |
  \\      /  F ield         | OpenFOAM: The Open Source CFD Toolbox
   \\    /   O peration     | Website:  https://openfoam.org
    \\  /    A nd           | Version:  8
     \\/     M anipulation  |
\*---------------------------------------------------------------------------*/
FoamFile
{
    version     2.0;
    format      ascii;
    class       surfaceScalarField;
    location    "2000";
    object      phi;
}
// * * * * * * * * * * * * * * * * * * * * * * * * * * * * * * * * * * * * * //

dimensions      [0 3 -1 0 0 0 0];

internalField   nonuniform List<scalar> 
31053
(
1.74453e-06
1.16442e-05
1.36397e-06
1.57478e-05
1.2666e-06
1.77356e-05
1.20225e-06
2.03091e-05
1.13176e-06
2.33069e-05
1.05845e-06
2.67436e-05
9.81861e-07
3.06881e-05
9.01699e-07
3.52154e-05
8.18336e-07
4.04108e-05
7.32614e-07
4.63727e-05
6.45837e-07
5.32139e-05
5.59744e-07
6.10642e-05
4.76274e-07
7.00728e-05
3.97494e-07
8.0411e-05
3.36822e-07
7.62512e-05
2.86924e-07
7.62404e-05
2.45603e-07
7.62318e-05
2.11175e-07
7.62249e-05
1.8232e-07
7.62193e-05
1.58007e-07
7.62148e-05
1.37424e-07
7.62111e-05
1.21323e-07
6.95983e-05
1.08692e-07
6.25566e-05
9.86178e-08
5.62278e-05
9.04646e-08
5.05395e-05
8.37863e-08
4.54268e-05
7.82536e-08
4.08315e-05
7.36278e-08
3.67011e-05
6.9723e-08
3.29885e-05
6.64036e-08
2.96516e-05
6.35581e-08
2.66522e-05
6.11068e-08
2.39563e-05
5.89805e-08
2.1533e-05
5.71311e-08
1.93549e-05
1.73972e-05
5.55159e-08
9.6402e-07
1.06802e-05
1.52728e-06
1.51846e-05
1.51109e-06
1.77518e-05
1.45333e-06
2.03668e-05
1.4006e-06
2.33597e-05
1.34519e-06
2.6799e-05
1.28479e-06
3.07485e-05
1.21892e-06
3.52813e-05
1.14737e-06
4.04824e-05
1.07015e-06
4.64499e-05
9.87622e-07
5.32964e-05
9.00525e-07
6.11513e-05
8.09914e-07
7.01634e-05
7.16915e-07
8.0504e-05
6.37963e-07
7.63301e-05
5.67344e-07
7.6311e-05
5.04253e-07
7.62949e-05
4.47922e-07
7.62813e-05
3.97649e-07
7.62696e-05
3.5281e-07
7.62596e-05
3.12858e-07
7.6251e-05
2.80299e-07
6.96308e-05
2.5397e-07
6.2583e-05
2.32492e-07
5.62493e-05
2.14816e-07
5.05572e-05
2.00153e-07
4.54415e-05
1.8789e-07
4.08438e-05
1.77562e-07
3.67114e-05
1.68797e-07
3.29973e-05
1.61314e-07
2.96591e-05
1.54883e-07
2.66587e-05
1.49332e-07
2.39618e-05
1.44516e-07
2.15379e-05
1.40327e-07
1.93591e-05
1.74008e-05
1.36667e-07
5.94081e-07
1.00862e-05
1.21073e-06
1.4568e-05
1.3394e-06
1.76231e-05
1.32988e-06
2.03764e-05
1.29988e-06
2.33897e-05
1.26408e-06
2.68348e-05
1.22408e-06
3.07885e-05
1.17935e-06
3.5326e-05
1.12892e-06
4.05328e-05
1.07188e-06
4.65069e-05
1.0076e-06
5.33607e-05
9.35902e-07
6.1223e-05
8.57269e-07
7.0242e-05
7.72804e-07
8.05884e-05
6.98418e-07
7.64045e-05
6.29671e-07
7.63798e-05
5.66413e-07
7.63582e-05
5.08408e-07
7.63393e-05
4.55404e-07
7.63226e-05
4.0716e-07
7.63079e-05
3.6342e-07
7.62948e-05
3.27111e-07
6.96671e-05
2.97266e-07
6.26128e-05
2.72588e-07
5.6274e-05
2.52052e-07
5.05777e-05
2.34856e-07
4.54587e-05
2.20363e-07
4.08583e-05
2.08073e-07
3.67237e-05
1.97585e-07
3.30078e-05
1.8859e-07
2.96681e-05
1.80834e-07
2.66664e-05
1.74122e-07
2.39685e-05
1.68293e-07
2.15437e-05
1.6322e-07
1.93642e-05
1.74052e-05
1.588e-07
4.32535e-07
9.65372e-06
9.72396e-07
1.40282e-05
1.18986e-06
1.74057e-05
1.22699e-06
2.03393e-05
1.2146e-06
2.34021e-05
1.18785e-06
2.68616e-05
1.15452e-06
3.08219e-05
1.11594e-06
3.53646e-05
1.07185e-06
4.05769e-05
1.02151e-06
4.65573e-05
9.64037e-07
5.34182e-05
8.98632e-07
6.12884e-05
8.2491e-07
7.03158e-05
7.43327e-07
8.067e-05
6.70179e-07
7.64777e-05
6.01614e-07
7.64483e-05
5.37839e-07
7.6422e-05
4.78901e-07
7.63982e-05
4.24753e-07
7.63768e-05
3.75309e-07
7.63574e-05
3.30446e-07
7.63396e-05
2.9335e-07
6.97042e-05
2.63048e-07
6.26431e-05
2.38178e-07
5.62988e-05
2.17656e-07
5.05983e-05
2.00627e-07
4.54757e-05
1.86409e-07
4.08725e-05
1.74466e-07
3.67357e-05
1.64372e-07
3.30179e-05
1.55797e-07
2.96767e-05
1.48474e-07
2.66737e-05
1.42197e-07
2.39748e-05
1.368e-07
2.15491e-05
1.32152e-07
1.93689e-05
1.74092e-05
1.28142e-07
3.07807e-07
9.34598e-06
7.48778e-07
1.35873e-05
1.00494e-06
1.71496e-05
1.07848e-06
2.02658e-05
1.08365e-06
2.33969e-05
1.06576e-06
2.68795e-05
1.03739e-06
3.08502e-05
1.0021e-06
3.53999e-05
9.60705e-07
4.06183e-05
9.13033e-07
4.6605e-05
8.58439e-07
5.34728e-05
7.96146e-07
6.13507e-05
7.25514e-07
7.03864e-05
6.4645e-07
8.07491e-05
5.74497e-07
7.65496e-05
5.06334e-07
7.65165e-05
4.42512e-07
7.64858e-05
3.8336e-07
7.64574e-05
3.29057e-07
7.64311e-05
2.79692e-07
7.64067e-05
2.3528e-07
7.63841e-05
1.99016e-07
6.97405e-05
1.69854e-07
6.26723e-05
1.46345e-07
5.63224e-05
1.27323e-07
5.06173e-05
1.11864e-07
4.54912e-05
9.92321e-08
4.08851e-05
8.88558e-08
3.6746e-05
8.02821e-08
3.30265e-05
7.31638e-08
2.96838e-05
6.72252e-08
2.66797e-05
6.22568e-08
2.39798e-05
5.80889e-08
2.15533e-05
5.45922e-08
1.93724e-05
1.74122e-05
5.16587e-08
2.15145e-07
9.13089e-06
5.69459e-07
1.3233e-05
8.30888e-07
1.68882e-05
9.26838e-07
2.01699e-05
9.4482e-07
2.3379e-05
9.3298e-07
2.68913e-05
9.0701e-07
3.08762e-05
8.7215e-07
3.54348e-05
8.30091e-07
4.06604e-05
7.81106e-07
4.66539e-05
7.24821e-07
5.35291e-05
6.60606e-07
6.1415e-05
5.87858e-07
7.04592e-05
5.06397e-07
8.08306e-05
4.32132e-07
7.66239e-05
3.61714e-07
7.65869e-05
2.95872e-07
7.65516e-05
2.35123e-07
7.65181e-05
1.79809e-07
7.64864e-05
1.30146e-07
7.64564e-05
8.62457e-08
7.6428e-05
5.12001e-08
6.97756e-05
2.37731e-08
6.26997e-05
2.35401e-09
5.63438e-05
-1.43559e-08
5.0634e-05
-2.73858e-08
4.55042e-05
-3.75505e-08
4.08953e-05
-4.54818e-08
3.6754e-05
-5.16733e-08
3.30327e-05
-5.6501e-08
2.96886e-05
-6.02581e-08
2.66834e-05
-6.31651e-08
2.39827e-05
-6.53968e-08
2.15555e-05
-6.70835e-08
1.9374e-05
1.74134e-05
-6.83317e-08
1.53462e-07
8.97747e-06
4.3264e-07
1.29539e-05
6.80048e-07
1.66408e-05
7.8857e-07
2.00614e-05
8.14685e-07
2.33529e-05
8.05742e-07
2.69003e-05
7.79325e-07
3.09026e-05
7.41813e-07
3.54723e-05
6.95541e-07
4.07066e-05
6.4118e-07
4.67083e-05
5.78614e-07
5.35916e-05
5.07396e-07
6.14862e-05
4.27059e-07
7.05395e-05
3.37525e-07
8.09201e-05
2.56279e-07
7.67051e-05
1.79591e-07
7.66636e-05
1.08322e-07
7.66229e-05
4.31454e-08
7.65833e-05
-1.54514e-08
7.6545e-05
-6.71348e-08
7.65081e-05
-1.11709e-07
7.64726e-05
-1.46142e-07
6.981e-05
-1.72e-07
6.27256e-05
-1.91183e-07
5.6363e-05
-2.05217e-07
5.0648e-05
-2.1531e-07
4.55143e-05
-2.22407e-07
4.09024e-05
-2.2724e-07
3.67588e-05
-2.30373e-07
3.30358e-05
-2.32229e-07
2.96905e-05
-2.33137e-07
2.66843e-05
-2.33338e-07
2.39829e-05
-2.33018e-07
2.15552e-05
-2.32315e-07
1.93733e-05
1.74125e-05
-2.31336e-07
1.11237e-07
8.86627e-06
3.26486e-07
1.27386e-05
5.49297e-07
1.6418e-05
6.61963e-07
1.99487e-05
6.91211e-07
2.33236e-05
6.8175e-07
2.69098e-05
6.52007e-07
3.09324e-05
6.0895e-07
3.55154e-05
5.553e-07
4.07603e-05
4.91997e-07
4.67716e-05
4.1913e-07
5.36645e-05
3.36432e-07
6.15689e-05
2.43624e-07
7.06323e-05
1.4085e-07
8.10229e-05
4.81745e-08
7.67978e-05
-3.87533e-08
7.67506e-05
-1.18937e-07
7.67031e-05
-1.91543e-07
7.66559e-05
-2.5593e-07
7.66094e-05
-3.11639e-07
7.65638e-05
-3.58376e-07
7.65193e-05
-3.93104e-07
6.98447e-05
-4.17837e-07
6.27503e-05
-4.3488e-07
5.638e-05
-4.46083e-07
5.06592e-05
-4.52902e-07
4.55212e-05
-4.56473e-07
4.09059e-05
-4.57668e-07
3.676e-05
-4.57154e-07
3.30353e-05
-4.55431e-07
2.96888e-05
-4.52876e-07
2.66818e-05
-4.49768e-07
2.39798e-05
-4.46315e-07
2.15517e-05
-4.42666e-07
1.93697e-05
1.74087e-05
-4.38933e-07
8.04299e-08
8.78585e-06
2.43477e-07
1.25756e-05
4.33543e-07
1.6228e-05
5.43092e-07
1.98392e-05
5.71138e-07
2.32956e-05
5.57812e-07
2.69231e-05
5.21848e-07
3.09684e-05
4.70423e-07
3.55668e-05
4.064e-07
4.08243e-05
3.30831e-07
4.68472e-05
2.43916e-07
5.37514e-05
1.45514e-07
6.16673e-05
3.55341e-08
7.07423e-05
-8.55823e-08
8.1144e-05
-1.94145e-07
7.69064e-05
-2.95351e-07
7.68518e-05
-3.88045e-07
7.67958e-05
-4.71219e-07
7.67391e-05
-5.4406e-07
7.66823e-05
-6.05961e-07
7.66257e-05
-6.56513e-07
7.65699e-05
-6.92585e-07
6.98808e-05
-7.16752e-07
6.27745e-05
-7.31843e-07
5.63951e-05
-7.40125e-07
5.06675e-05
-7.4338e-07
4.55244e-05
-7.42991e-07
4.09056e-05
-7.4002e-07
3.6757e-05
-7.35273e-07
3.30305e-05
-7.29352e-07
2.96828e-05
-7.22709e-07
2.66752e-05
-7.1567e-07
2.39728e-05
-7.08479e-07
2.15445e-05
-7.01306e-07
1.93625e-05
1.74017e-05
-6.94273e-07
5.49811e-08
8.73085e-06
1.75574e-07
1.2455e-05
3.29261e-07
1.60743e-05
4.29132e-07
1.97393e-05
4.52064e-07
2.32727e-05
4.31664e-07
2.69435e-05
3.86576e-07
3.10135e-05
3.23934e-07
3.56294e-05
2.46534e-07
4.09017e-05
1.55391e-07
4.69383e-05
5.07123e-08
5.38561e-05
-6.75814e-08
6.17856e-05
-1.99412e-07
7.08741e-05
-3.4401e-07
8.12886e-05
-4.73021e-07
7.70354e-05
-5.927e-07
7.69715e-05
-7.01691e-07
7.69048e-05
-7.98778e-07
7.68362e-05
-8.82949e-07
7.67664e-05
-9.53418e-07
7.66962e-05
-1.00964e-06
7.66261e-05
-1.04826e-06
6.99194e-05
-1.07254e-06
6.27988e-05
-1.08595e-06
5.64085e-05
-1.09128e-06
5.06729e-05
-1.09071e-06
4.55239e-05
-1.08594e-06
4.09008e-05
-1.07828e-06
3.67494e-05
-1.0687e-06
3.3021e-05
-1.05795e-06
2.96721e-05
-1.04656e-06
2.66638e-05
-1.03495e-06
2.39611e-05
-1.02339e-06
2.1533e-05
-1.01208e-06
1.93512e-05
1.73908e-05
-1.00116e-06
3.12656e-08
8.6996e-06
1.16447e-07
1.23698e-05
2.34142e-07
1.59566e-05
3.18483e-07
1.9655e-05
3.32453e-07
2.32587e-05
3.01864e-07
2.69741e-05
2.44704e-07
3.10706e-05
1.67901e-07
3.57062e-05
7.40192e-08
4.09956e-05
-3.60967e-08
4.70485e-05
-1.62331e-07
5.39823e-05
-3.04762e-07
6.1928e-05
-4.63188e-07
7.10326e-05
-6.36501e-07
8.14619e-05
-7.90645e-07
7.71896e-05
-9.33153e-07
7.7114e-05
-1.06242e-06
7.70341e-05
-1.17697e-06
7.69507e-05
-1.27556e-06
7.6865e-05
-1.35719e-06
7.67778e-05
-1.42113e-06
7.669e-05
-1.46369e-06
6.9962e-05
-1.4889e-06
6.2824e-05
-1.50101e-06
5.64206e-05
-1.50343e-06
5.06753e-05
-1.49883e-06
4.55193e-05
-1.4893e-06
4.08913e-05
-1.47643e-06
3.67365e-05
-1.46143e-06
3.3006e-05
-1.44521e-06
2.96559e-05
-1.42843e-06
2.6647e-05
-1.41157e-06
2.39443e-05
-1.39498e-06
2.15164e-05
-1.37891e-06
1.93351e-05
1.73754e-05
-1.36352e-06
1.02978e-08
8.68929e-06
6.36107e-08
1.23165e-05
1.46285e-07
1.58739e-05
2.10108e-07
1.95911e-05
2.11411e-07
2.32574e-05
1.6766e-07
2.70178e-05
9.55208e-08
3.11428e-05
1.55377e-09
3.58002e-05
-1.12001e-07
4.11092e-05
-2.44568e-07
4.7181e-05
-3.96217e-07
5.4134e-05
-5.6711e-07
6.20989e-05
-7.5696e-07
7.12224e-05
-9.64325e-07
8.16693e-05
-1.14841e-06
7.73736e-05
-1.31826e-06
7.72838e-05
-1.47195e-06
7.71877e-05
-1.60773e-06
7.70865e-05
-1.72406e-06
7.69814e-05
-1.81968e-06
7.68734e-05
-1.89365e-06
7.6764e-05
-1.94174e-06
7.00101e-05
-1.96889e-06
6.28511e-05
-1.98023e-06
5.6432e-05
-1.9799e-06
5.0675e-05
-1.97117e-06
4.55105e-05
-1.95657e-06
4.08767e-05
-1.93805e-06
3.6718e-05
-1.91708e-06
3.2985e-05
-1.89477e-06
2.96336e-05
-1.87194e-06
2.66242e-05
-1.84918e-06
2.39215e-05
-1.82692e-06
2.14941e-05
-1.80546e-06
1.93137e-05
1.73549e-05
-1.78497e-06
-7.08398e-09
8.6964e-06
1.58834e-08
1.22936e-05
6.43587e-08
1.58254e-05
1.03696e-07
1.95518e-05
8.87607e-08
2.32723e-05
2.89611e-08
2.70776e-05
-6.10232e-08
3.12327e-05
-1.75133e-07
3.59143e-05
-3.11548e-07
4.12456e-05
-4.70053e-07
4.73395e-05
-6.50993e-07
5.43149e-05
-8.54675e-07
6.23026e-05
-1.08079e-06
7.14485e-05
-1.32759e-06
8.19161e-05
-1.54651e-06
7.75926e-05
-1.74833e-06
7.74856e-05
-1.93078e-06
7.73702e-05
-2.09175e-06
7.72475e-05
-2.22939e-06
7.7119e-05
-2.34211e-06
7.69862e-05
-2.4287e-06
7.68506e-05
-2.48419e-06
7.00656e-05
-2.51451e-06
6.28814e-05
-2.52583e-06
5.64433e-05
-2.52311e-06
5.06722e-05
-2.51028e-06
4.54977e-05
-2.49042e-06
4.08568e-05
-2.46589e-06
3.66934e-05
-2.43847e-06
3.29576e-05
-2.40953e-06
2.96046e-05
-2.38006e-06
2.65947e-05
-2.3508e-06
2.38923e-05
-2.32225e-06
2.14656e-05
-2.29477e-06
1.92862e-05
1.73287e-05
-2.26861e-06
-2.32654e-08
8.71968e-06
-2.89381e-08
1.22992e-05
-1.37593e-08
1.58103e-05
-1.67687e-09
1.95397e-05
-3.61022e-08
2.33068e-05
-1.14679e-07
2.71562e-05
-2.25128e-07
3.13432e-05
-3.62121e-07
3.60513e-05
-5.24358e-07
4.14078e-05
-7.12068e-07
4.75272e-05
-9.25957e-07
5.45288e-05
-1.16656e-06
6.25432e-05
-1.43362e-06
7.17156e-05
-1.72511e-06
8.22076e-05
-1.98371e-06
7.78512e-05
-2.22216e-06
7.77241e-05
-2.43779e-06
7.75858e-05
-2.62811e-06
7.74378e-05
-2.79083e-06
7.72817e-05
-2.92404e-06
7.71194e-05
-3.02616e-06
7.69527e-05
-3.09126e-06
7.01307e-05
-3.12631e-06
6.29165e-05
-3.13863e-06
5.64556e-05
-3.13412e-06
5.06677e-05
-3.11746e-06
4.54811e-05
-3.09235e-06
4.08317e-05
-3.06161e-06
3.66627e-05
-3.02742e-06
3.29234e-05
-2.99141e-06
2.95686e-05
-2.95481e-06
2.65581e-05
-2.91849e-06
2.3856e-05
-2.8831e-06
2.14302e-05
-2.84906e-06
1.92522e-05
1.72964e-05
-2.81668e-06
-4.01237e-08
8.7598e-06
-7.2351e-08
1.23315e-05
-8.93107e-08
1.58272e-05
-1.06346e-07
1.95568e-05
-1.63049e-07
2.33635e-05
-2.62891e-07
2.72561e-05
-3.96149e-07
3.14765e-05
-5.58472e-07
3.62136e-05
-7.49197e-07
4.15985e-05
-9.69084e-07
4.77471e-05
-1.21928e-06
5.4779e-05
-1.50063e-06
6.28246e-05
-1.81301e-06
7.2028e-05
-2.15421e-06
8.25488e-05
-2.45719e-06
7.81541e-05
-2.73689e-06
7.80038e-05
-2.99019e-06
7.78391e-05
-3.21413e-06
7.76618e-05
-3.40599e-06
7.74736e-05
-3.56339e-06
7.72768e-05
-3.68435e-06
7.70737e-05
-3.76165e-06
7.0208e-05
-3.80337e-06
6.29582e-05
-3.81807e-06
5.64703e-05
-3.81268e-06
5.06623e-05
-3.79275e-06
4.54611e-05
-3.76263e-06
4.08016e-05
-3.72572e-06
3.66258e-05
-3.68462e-06
3.28823e-05
-3.64128e-06
2.95253e-05
-3.59719e-06
2.6514e-05
-3.55342e-06
2.38122e-05
-3.51074e-06
2.13875e-05
-3.46968e-06
1.92111e-05
1.72573e-05
-3.43061e-06
-5.74651e-08
8.81726e-06
-1.14864e-07
1.23889e-05
-1.62683e-07
1.58751e-05
-2.09923e-07
1.9604e-05
-2.91212e-07
2.34447e-05
-4.14385e-07
2.73792e-05
-5.72452e-07
3.16345e-05
-7.6221e-07
3.64034e-05
-9.83739e-07
4.18201e-05
-1.23841e-06
4.80018e-05
-1.52788e-06
5.50685e-05
-1.85341e-06
6.31501e-05
-2.2151e-06
7.23897e-05
-2.61068e-06
8.29444e-05
-2.96255e-06
7.8506e-05
-3.28802e-06
7.83292e-05
-3.58344e-06
7.81346e-05
-3.84534e-06
7.79237e-05
-4.07052e-06
7.76988e-05
-4.25609e-06
7.74623e-05
-4.39957e-06
7.72171e-05
-4.49209e-06
7.03005e-05
-4.54285e-06
6.3009e-05
-4.56173e-06
5.64892e-05
-4.55679e-06
5.06574e-05
-4.5345e-06
4.54388e-05
-4.49998e-06
4.07671e-05
-4.45724e-06
3.65831e-05
-4.40935e-06
3.28344e-05
-4.35867e-06
2.94746e-05
-4.30695e-06
2.64623e-05
-4.25549e-06
2.37607e-05
-4.20524e-06
2.13372e-05
-4.15684e-06
1.91627e-05
1.72112e-05
-4.11073e-06
-7.4915e-08
8.89217e-06
-1.56454e-07
1.24704e-05
-2.33958e-07
1.59526e-05
-3.11796e-07
1.96818e-05
-4.19346e-07
2.35523e-05
-5.67424e-07
2.75273e-05
-7.51855e-07
3.18189e-05
-9.70726e-07
3.66223e-05
-1.22493e-06
4.20743e-05
-1.51651e-06
4.82934e-05
-1.84773e-06
5.53997e-05
-2.22037e-06
6.35227e-05
-2.63486e-06
7.28042e-05
-3.08894e-06
8.33984e-05
-3.49371e-06
7.89108e-05
-3.86911e-06
7.87046e-05
-4.21096e-06
7.84764e-05
-4.51521e-06
7.82279e-05
-4.77808e-06
7.79616e-05
-4.99608e-06
7.76803e-05
-5.16617e-06
7.73872e-05
-5.27741e-06
7.04118e-05
-5.34008e-06
6.30716e-05
-5.36544e-06
5.65146e-05
-5.36274e-06
5.06547e-05
-5.33946e-06
4.54156e-05
-5.30155e-06
4.07292e-05
-5.25367e-06
3.65352e-05
-5.19946e-06
3.27802e-05
-5.14169e-06
2.94168e-05
-5.08247e-06
2.64031e-05
-5.02333e-06
2.37016e-05
-4.96543e-06
2.12793e-05
-4.90954e-06
1.91068e-05
1.71579e-05
-4.85623e-06
-9.20243e-08
8.9842e-06
-1.96674e-07
1.25751e-05
-3.02677e-07
1.60586e-05
-4.11e-07
1.97902e-05
-5.45843e-07
2.36871e-05
-7.19915e-07
2.77014e-05
-9.31793e-07
3.20308e-05
-1.18095e-06
3.68714e-05
-1.46915e-06
4.23625e-05
-1.79919e-06
4.86234e-05
-2.17402e-06
5.57745e-05
-2.59602e-06
6.39447e-05
-3.06604e-06
7.32742e-05
-3.58203e-06
8.39144e-05
-4.04327e-06
7.9372e-05
-4.47244e-06
7.91338e-05
-4.86482e-06
7.88688e-05
-5.21575e-06
7.85788e-05
-5.52078e-06
7.82667e-05
-5.77578e-06
7.79353e-05
-5.97701e-06
7.75885e-05
-6.11097e-06
7.05457e-05
-6.18896e-06
6.31496e-05
-6.22365e-06
5.65493e-05
-6.22554e-06
5.06566e-05
-6.20314e-06
4.53932e-05
-6.1633e-06
4.06893e-05
-6.11143e-06
3.64833e-05
-6.05175e-06
3.27205e-05
-5.98752e-06
2.93526e-05
-5.92122e-06
2.63368e-05
-5.8547e-06
2.36351e-05
-5.78932e-06
2.1214e-05
-5.72603e-06
1.90435e-05
1.70973e-05
-5.66552e-06
-1.08543e-07
9.09274e-06
-2.35285e-07
1.27018e-05
-3.68446e-07
1.61917e-05
-5.06505e-07
1.99282e-05
-6.68983e-07
2.38496e-05
-8.69602e-07
2.7902e-05
-1.10946e-06
3.22707e-05
-1.38948e-06
3.71514e-05
-1.7124e-06
4.26854e-05
-2.08181e-06
4.89928e-05
-2.50135e-06
5.61941e-05
-2.9741e-06
6.44175e-05
-3.50156e-06
7.38016e-05
-4.08212e-06
8.4495e-05
-4.60282e-06
7.98927e-05
-5.08914e-06
7.96201e-05
-5.53579e-06
7.93154e-05
-5.93752e-06
7.89806e-05
-6.28917e-06
7.86183e-05
-6.58587e-06
7.8232e-05
-6.8231e-06
7.78257e-05
-6.98426e-06
7.07069e-05
-7.08153e-06
6.32469e-05
-7.12899e-06
5.65967e-05
-7.13836e-06
5.0666e-05
-7.11928e-06
4.53741e-05
-7.07953e-06
4.06496e-05
-7.0253e-06
3.64291e-05
-6.96147e-06
3.26567e-05
-6.89184e-06
2.9283e-05
-6.81929e-06
2.62642e-05
-6.74602e-06
2.35618e-05
-6.67365e-06
2.11416e-05
-6.60332e-06
1.89732e-05
1.70299e-05
-6.53587e-06
-1.24301e-07
9.21703e-06
-2.71959e-07
1.28494e-05
-4.30784e-07
1.63505e-05
-5.97291e-07
2.00947e-05
-7.87015e-07
2.40393e-05
-1.01411e-06
2.81291e-05
-1.28191e-06
3.25385e-05
-1.59281e-06
3.74623e-05
-1.9505e-06
4.30431e-05
-2.35936e-06
4.94017e-05
-2.8239e-06
5.66586e-05
-3.34801e-06
6.49416e-05
-3.93399e-06
7.43876e-05
-4.58086e-06
8.51418e-05
-5.16315e-06
8.0475e-05
-5.70932e-06
8.01663e-05
-6.21352e-06
7.98196e-05
-6.66985e-06
7.94369e-05
-7.07244e-06
7.90209e-05
-7.41563e-06
7.85752e-05
-7.69401e-06
7.81041e-05
-7.88727e-06
7.09001e-05
-8.0083e-06
6.33679e-05
-8.07252e-06
5.66609e-05
-8.09289e-06
5.06863e-05
-8.08016e-06
4.53614e-05
-8.04308e-06
4.06125e-05
-7.98868e-06
3.63747e-05
-7.92253e-06
3.25905e-05
-7.849e-06
2.92094e-05
-7.77146e-06
2.61867e-05
-7.69246e-06
2.34828e-05
-7.61393e-06
2.1063e-05
-7.53724e-06
1.88965e-05
1.69561e-05
-7.4634e-06
-1.38987e-07
9.35602e-06
-3.06229e-07
1.30167e-05
-4.88833e-07
1.65331e-05
-6.82101e-07
2.0288e-05
-8.98182e-07
2.42554e-05
-1.15112e-06
2.8382e-05
-1.44626e-06
3.28336e-05
-1.78738e-06
3.78035e-05
-2.17916e-06
4.34348e-05
-2.62688e-06
4.98494e-05
-3.13593e-06
5.71677e-05
-3.71113e-06
6.55168e-05
-4.35569e-06
7.50322e-05
-5.06949e-06
8.58556e-05
-5.71462e-06
8.11201e-05
-6.32258e-06
8.07743e-05
-6.88699e-06
8.0384e-05
-7.40131e-06
7.99512e-05
-7.85892e-06
7.94785e-05
-8.25332e-06
7.89696e-05
-8.57816e-06
7.84289e-05
-8.80878e-06
7.11308e-05
-8.95853e-06
6.35177e-05
-9.04406e-06
5.67464e-05
-9.07953e-06
5.07218e-05
-9.07679e-06
4.53586e-05
-9.04556e-06
4.05812e-05
-8.99374e-06
3.63228e-05
-8.92764e-06
3.25244e-05
-8.85224e-06
2.9134e-05
-8.77142e-06
2.61058e-05
-8.68816e-06
2.33996e-05
-8.60469e-06
2.09796e-05
-8.52268e-06
1.88145e-05
1.68767e-05
-8.44333e-06
-1.52395e-07
9.5084e-06
-3.37566e-07
1.32018e-05
-5.41941e-07
1.67375e-05
-7.59931e-07
2.0506e-05
-1.00089e-06
2.44964e-05
-1.27846e-06
2.86596e-05
-1.59973e-06
3.31549e-05
-1.96984e-06
3.81736e-05
-2.39443e-06
4.38594e-05
-2.8797e-06
5.03347e-05
-3.43193e-06
5.77199e-05
-4.05696e-06
6.61418e-05
-4.75908e-06
7.57343e-05
-5.53932e-06
8.66359e-05
-6.24758e-06
8.18284e-05
-6.91843e-06
8.14451e-05
-7.54498e-06
8.10106e-05
-8.12008e-06
8.05263e-05
-8.63641e-06
7.99948e-05
-9.08658e-06
7.94198e-05
-9.46323e-06
7.88056e-05
-9.73672e-06
7.14042e-05
-9.92053e-06
6.37015e-05
-1.00324e-05
5.68583e-05
-1.00876e-05
5.0777e-05
-1.00991e-05
4.53701e-05
-1.00775e-05
4.05596e-05
-1.00316e-05
3.62769e-05
-9.96844e-06
3.24613e-05
-9.89372e-06
2.90593e-05
-9.81185e-06
2.6024e-05
-9.72624e-06
2.33139e-05
-9.6395e-06
2.08928e-05
-9.5536e-06
1.87286e-05
1.67931e-05
-9.46996e-06
-1.64337e-07
9.67273e-06
-3.65543e-07
1.3403e-05
-5.89561e-07
1.69615e-05
-8.29864e-07
2.07463e-05
-1.0937e-06
2.47602e-05
-1.39424e-06
2.89601e-05
-1.73996e-06
3.35006e-05
-2.13727e-06
3.85709e-05
-2.59275e-06
4.43149e-05
-3.1135e-06
5.08554e-05
-3.70675e-06
5.83131e-05
-4.37942e-06
6.68145e-05
-5.13707e-06
7.6492e-05
-5.98213e-06
8.74809e-05
-6.7528e-06
8.25991e-05
-7.48667e-06
8.2179e-05
-8.17644e-06
8.17004e-05
-8.81442e-06
8.11643e-05
-9.39261e-06
8.0573e-05
-9.90276e-06
7.99299e-05
-1.03364e-05
7.92392e-05
-1.06584e-05
7.17262e-05
-1.08818e-05
6.3925e-05
-1.10255e-05
5.7002e-05
-1.11056e-05
5.08571e-05
-1.11359e-05
4.54004e-05
-1.11283e-05
4.0552e-05
-1.10922e-05
3.62408e-05
-1.10355e-05
3.24046e-05
-1.09646e-05
2.89884e-05
-1.08844e-05
2.59438e-05
-1.07988e-05
2.32284e-05
-1.07109e-05
2.08049e-05
-1.06229e-05
1.86406e-05
1.67068e-05
-1.05366e-05
-1.74687e-07
9.84741e-06
-3.89915e-07
1.36183e-05
-6.31194e-07
1.72028e-05
-8.91221e-07
2.10063e-05
-1.17556e-06
2.50445e-05
-1.49694e-06
2.92815e-05
-1.86496e-06
3.38686e-05
-2.28716e-06
3.89931e-05
-2.77104e-06
4.47988e-05
-3.32453e-06
5.14089e-05
-3.95588e-06
5.89445e-05
-4.67315e-06
6.75317e-05
-5.48331e-06
7.73021e-05
-6.39043e-06
8.8388e-05
-7.22174e-06
8.34304e-05
-8.01777e-06
8.2975e-05
-8.77091e-06
8.24535e-05
-9.47306e-06
8.18664e-05
-1.01156e-05
8.12155e-05
-1.06894e-05
8.05038e-05
-1.1185e-05
7.97348e-05
-1.15609e-05
7.2102e-05
-1.18297e-05
6.41938e-05
-1.20108e-05
5.71831e-05
-1.21212e-05
5.09675e-05
-1.21757e-05
4.54549e-05
-1.21867e-05
4.0563e-05
-1.21649e-05
3.62189e-05
-1.21186e-05
3.23584e-05
-1.2055e-05
2.89248e-05
-1.19797e-05
2.58684e-05
-1.18971e-05
2.31457e-05
-1.18105e-05
2.07184e-05
-1.17228e-05
1.85529e-05
1.66197e-05
-1.16358e-05
-1.83339e-07
1.00307e-05
-4.10457e-07
1.38454e-05
-6.66438e-07
1.74588e-05
-9.43449e-07
2.12833e-05
-1.24569e-06
2.53468e-05
-1.58542e-06
2.96212e-05
-1.97322e-06
3.42564e-05
-2.41758e-06
3.94374e-05
-2.92684e-06
4.53081e-05
-3.50979e-06
5.19918e-05
-4.17565e-06
5.96104e-05
-4.93371e-06
6.82898e-05
-5.79243e-06
7.81608e-05
-6.75781e-06
8.93534e-05
-7.64694e-06
8.43195e-05
-8.50322e-06
8.38313e-05
-9.31892e-06
8.32692e-05
-1.00856e-05
8.26331e-05
-1.07941e-05
8.19241e-05
-1.14346e-05
8.11442e-05
-1.19965e-05
8.02967e-05
-1.24315e-05
7.2537e-05
-1.27513e-05
6.45136e-05
-1.29756e-05
5.74074e-05
-1.3122e-05
5.1114e-05
-1.32061e-05
4.5539e-05
-1.32411e-05
4.0598e-05
-1.32382e-05
3.62161e-05
-1.32068e-05
3.2327e-05
-1.31547e-05
2.88726e-05
-1.30879e-05
2.58017e-05
-1.30115e-05
2.30693e-05
-1.29293e-05
2.06362e-05
-1.28444e-05
1.8468e-05
1.65344e-05
-1.2759e-05
-1.90246e-07
1.0221e-05
-4.27053e-07
1.40822e-05
-6.95129e-07
1.77268e-05
-9.8628e-07
2.15745e-05
-1.30363e-06
2.56641e-05
-1.659e-06
2.99766e-05
-2.06373e-06
3.46612e-05
-2.52717e-06
3.99009e-05
-3.05842e-06
4.58393e-05
-3.66706e-06
5.26005e-05
-4.3633e-06
6.03066e-05
-5.15765e-06
6.90841e-05
-6.0602e-06
7.90634e-05
-7.07904e-06
9.03722e-05
-8.02218e-06
8.52627e-05
-8.93583e-06
8.47449e-05
-9.81229e-06
8.41457e-05
-1.06429e-05
8.34637e-05
-1.14181e-05
8.26993e-05
-1.21274e-05
8.18535e-05
-1.27594e-05
8.09287e-05
-1.32582e-05
7.30359e-05
-1.36344e-05
6.48897e-05
-1.39076e-05
5.76806e-05
-1.40958e-05
5.13022e-05
-1.42151e-05
4.56583e-05
-1.42794e-05
4.06623e-05
-1.43007e-05
3.62374e-05
-1.42891e-05
3.23154e-05
-1.42527e-05
2.88363e-05
-1.41986e-05
2.57475e-05
-1.41321e-05
2.30028e-05
-1.40576e-05
2.05617e-05
-1.39786e-05
1.83889e-05
1.64535e-05
-1.38976e-05
-1.95398e-07
1.04164e-05
-4.39675e-07
1.43264e-05
-7.17247e-07
1.80044e-05
-1.01966e-06
2.18769e-05
-1.3492e-06
2.59937e-05
-1.71733e-06
3.03447e-05
-2.13598e-06
3.50798e-05
-2.61521e-06
4.03801e-05
-3.16475e-06
4.63888e-05
-3.79499e-06
5.32307e-05
-4.51704e-06
6.10286e-05
-5.34267e-06
6.99098e-05
-6.28364e-06
8.00043e-05
-7.35025e-06
9.14389e-05
-8.3427e-06
8.62551e-05
-9.30992e-06
8.57121e-05
-1.02444e-05
8.50801e-05
-1.11373e-05
8.43567e-05
-1.1979e-05
8.3541e-05
-1.27584e-05
8.26329e-05
-1.34632e-05
8.16335e-05
-1.40301e-05
7.36028e-05
-1.44675e-05
6.53271e-05
-1.4795e-05
5.80081e-05
-1.50307e-05
5.15379e-05
-1.51909e-05
4.58185e-05
-1.52901e-05
4.07616e-05
-1.53409e-05
3.62882e-05
-1.5354e-05
3.23284e-05
-1.53383e-05
2.88206e-05
-1.53011e-05
2.57104e-05
-1.52486e-05
2.29503e-05
-1.51855e-05
2.04986e-05
-1.51157e-05
1.83192e-05
1.638e-05
-1.50422e-05
-1.98809e-07
1.06152e-05
-4.48377e-07
1.4576e-05
-7.32897e-07
1.82889e-05
-1.04373e-06
2.21877e-05
-1.38256e-06
2.63325e-05
-1.76052e-06
3.07227e-05
-2.18997e-06
3.55092e-05
-2.68153e-06
4.08717e-05
-3.24554e-06
4.69528e-05
-3.89303e-06
5.38782e-05
-4.63604e-06
6.17717e-05
-5.48755e-06
7.07613e-05
-6.46101e-06
8.09778e-05
-7.56896e-06
9.25468e-05
-8.60527e-06
8.72914e-05
-9.62142e-06
8.67283e-05
-1.06101e-05
8.60688e-05
-1.15627e-05
8.53094e-05
-1.24696e-05
8.44478e-05
-1.33193e-05
8.34826e-05
-1.40989e-05
8.24131e-05
-1.47371e-05
7.4241e-05
-1.52402e-05
6.58303e-05
-1.56272e-05
5.8395e-05
-1.59158e-05
5.18266e-05
-1.61227e-05
4.60254e-05
-1.62626e-05
4.09015e-05
-1.63485e-05
3.63741e-05
-1.63917e-05
3.23716e-05
-1.64017e-05
2.88305e-05
-1.63863e-05
2.5695e-05
-1.63522e-05
2.29162e-05
-1.63047e-05
2.04511e-05
-1.6248e-05
1.82625e-05
1.63174e-05
-1.61855e-05
-2.00619e-07
1.08158e-05
-4.53387e-07
1.48288e-05
-7.42391e-07
1.85779e-05
-1.05889e-06
2.25042e-05
-1.40417e-06
2.66778e-05
-1.78902e-06
3.11075e-05
-2.22613e-06
3.59464e-05
-2.72654e-06
4.13721e-05
-3.30109e-06
4.75274e-05
-3.96141e-06
5.45385e-05
-4.72038e-06
6.25306e-05
-5.59214e-06
7.1633e-05
-6.59174e-06
8.19774e-05
-7.73412e-06
9.36892e-05
-8.80832e-06
8.83656e-05
-9.86798e-06
8.7788e-05
-1.09063e-05
8.71071e-05
-1.19151e-05
8.63182e-05
-1.28848e-05
8.54175e-05
-1.3804e-05
8.44018e-05
-1.46594e-05
8.32685e-05
-1.53717e-05
7.49533e-05
-1.59446e-05
6.64031e-05
-1.63958e-05
5.88462e-05
-1.67428e-05
5.21736e-05
-1.7002e-05
4.62846e-05
-1.71884e-05
4.10878e-05
-1.73154e-05
3.65011e-05
-1.73947e-05
3.24509e-05
-1.74362e-05
2.88721e-05
-1.74484e-05
2.57073e-05
-1.74383e-05
2.2906e-05
-1.74116e-05
2.04244e-05
-1.73729e-05
1.82239e-05
1.62704e-05
-1.73259e-05
-2.00669e-07
1.10165e-05
-4.5464e-07
1.50827e-05
-7.4587e-07
1.88692e-05
-1.06552e-06
2.28238e-05
-1.41456e-06
2.70268e-05
-1.80351e-06
3.14965e-05
-2.24523e-06
3.63881e-05
-2.7511e-06
4.18779e-05
-3.33232e-06
4.81086e-05
-4.00106e-06
5.52073e-05
-4.77095e-06
6.33005e-05
-5.65721e-06
7.25193e-05
-6.67638e-06
8.29966e-05
-7.84587e-06
9.48587e-05
-8.95146e-06
8.94712e-05
-1.00486e-05
8.88851e-05
-1.11311e-05
8.81896e-05
-1.21917e-05
8.73787e-05
-1.3221e-05
8.64468e-05
-1.4208e-05
8.53888e-05
-1.51393e-05
8.41997e-05
-1.59275e-05
7.57415e-05
-1.65732e-05
6.70488e-05
-1.70931e-05
5.93662e-05
-1.75043e-05
5.25847e-05
-1.78228e-05
4.66031e-05
-1.80637e-05
4.13287e-05
-1.82402e-05
3.66777e-05
-1.83642e-05
3.25748e-05
-1.84455e-05
2.89534e-05
-1.84929e-05
2.57547e-05
-1.85136e-05
2.29267e-05
-1.85137e-05
2.04245e-05
-1.84982e-05
1.82084e-05
-1.8471e-05
1.62432e-05
5.26443e-08
2.78135e-05
4.98559e-08
2.85527e-05
4.71539e-08
2.93115e-05
4.45365e-08
3.00906e-05
4.20089e-08
3.08904e-05
3.95684e-08
3.17114e-05
3.72191e-08
3.25542e-05
3.49574e-08
3.34195e-05
3.27862e-08
3.43077e-05
3.07011e-08
3.52196e-05
2.87033e-08
3.61558e-05
2.68119e-08
3.65908e-05
2.50893e-08
3.5553e-05
2.35102e-08
3.45447e-05
2.20594e-08
3.3565e-05
2.0717e-08
3.26131e-05
1.94724e-08
3.16881e-05
1.83097e-08
3.07895e-05
1.72219e-08
2.99163e-05
1.61966e-08
2.90679e-05
1.52295e-08
2.82435e-05
2.74426e-05
1.43121e-08
1.30148e-07
2.782e-05
1.23772e-07
2.85591e-05
1.17553e-07
2.93178e-05
1.11491e-07
3.00967e-05
1.05593e-07
3.08963e-05
9.98599e-08
3.17171e-05
9.42963e-08
3.25598e-05
8.89e-08
3.34249e-05
8.36743e-08
3.4313e-05
7.86138e-08
3.52247e-05
7.37185e-08
3.61606e-05
6.90472e-08
3.65954e-05
6.47656e-08
3.55573e-05
6.08225e-08
3.45486e-05
5.71788e-08
3.35686e-05
5.37937e-08
3.26164e-05
5.0638e-08
3.16913e-05
4.76801e-08
3.07924e-05
4.48991e-08
2.99191e-05
4.22706e-08
2.90705e-05
3.97802e-08
2.8246e-05
2.7445e-05
3.74074e-08
1.51445e-07
2.78273e-05
1.44304e-07
2.85662e-05
1.37378e-07
2.93247e-05
1.30667e-07
3.01034e-05
1.24178e-07
3.09028e-05
1.17909e-07
3.17234e-05
1.11866e-07
3.25658e-05
1.06044e-07
3.34307e-05
1.00444e-07
3.43186e-05
9.50585e-08
3.52301e-05
8.98828e-08
3.61658e-05
8.49688e-08
3.66004e-05
8.04728e-08
3.55618e-05
7.63345e-08
3.45528e-05
7.25078e-08
3.35724e-05
6.89467e-08
3.262e-05
6.56175e-08
3.16946e-05
6.24851e-08
3.07956e-05
5.95252e-08
2.9922e-05
5.67116e-08
2.90733e-05
5.40278e-08
2.82487e-05
2.74475e-05
5.14561e-08
1.22372e-07
2.78331e-05
1.16862e-07
2.85717e-05
1.11623e-07
2.93299e-05
1.06653e-07
3.01083e-05
1.01955e-07
3.09075e-05
9.75242e-08
3.17278e-05
9.33606e-08
3.257e-05
8.94554e-08
3.34346e-05
8.58033e-08
3.43222e-05
8.239e-08
3.52335e-05
7.92033e-08
3.6169e-05
7.62615e-08
3.66033e-05
7.36405e-08
3.55644e-05
7.128e-08
3.45551e-05
6.91341e-08
3.35746e-05
6.71588e-08
3.2622e-05
6.53221e-08
3.16965e-05
6.35918e-08
3.07973e-05
6.19466e-08
2.99237e-05
6.03637e-08
2.90749e-05
5.88298e-08
2.82503e-05
2.7449e-05
5.73294e-08
4.92566e-08
2.78355e-05
4.72096e-08
2.85738e-05
4.55283e-08
2.93316e-05
4.4207e-08
3.01097e-05
4.32431e-08
3.09084e-05
4.26257e-08
3.17284e-05
4.23463e-08
3.25703e-05
4.23875e-08
3.34346e-05
4.27336e-08
3.43219e-05
4.33593e-08
3.52329e-05
4.42397e-08
3.61681e-05
4.53223e-08
3.66022e-05
4.65132e-08
3.55632e-05
4.77572e-08
3.45539e-05
4.90141e-08
3.35733e-05
5.02473e-08
3.26207e-05
5.14318e-08
3.16953e-05
5.2544e-08
3.07962e-05
5.357e-08
2.99227e-05
5.44955e-08
2.9074e-05
5.53151e-08
2.82494e-05
2.74483e-05
5.6023e-08
-6.56283e-08
2.78328e-05
-6.24424e-08
2.85706e-05
-5.87596e-08
2.93279e-05
-5.45919e-08
3.01055e-05
-4.99505e-08
3.09038e-05
-4.48552e-08
3.17233e-05
-3.93259e-08
3.25648e-05
-3.33923e-08
3.34286e-05
-2.70846e-08
3.43156e-05
-2.04435e-08
3.52262e-05
-1.35117e-08
3.61612e-05
-6.44502e-09
3.65952e-05
4.13585e-10
3.55564e-05
7.01729e-09
3.45473e-05
1.33353e-08
3.3567e-05
1.93423e-08
3.26147e-05
2.50246e-08
3.16896e-05
3.03711e-08
3.07908e-05
3.53797e-08
2.99177e-05
4.00486e-08
2.90693e-05
4.43846e-08
2.82451e-05
2.74443e-05
4.83964e-08
-2.21762e-07
2.78232e-05
-2.11542e-07
2.85604e-05
-2.00657e-07
2.93171e-05
-1.89128e-07
3.0094e-05
-1.76977e-07
3.08916e-05
-1.64238e-07
3.17106e-05
-1.50944e-07
3.25515e-05
-1.37143e-07
3.34148e-05
-1.22883e-07
3.43013e-05
-1.08226e-07
3.52116e-05
-9.32388e-08
3.61462e-05
-7.82131e-08
3.65801e-05
-6.38225e-08
3.5542e-05
-5.01016e-08
3.45336e-05
-3.70676e-08
3.3554e-05
-2.47303e-08
3.26024e-05
-1.30876e-08