/*--------------------------------*- C++ -*----------------------------------*\
  =========                 |
  \\      /  F ield         | OpenFOAM: The Open Source CFD Toolbox
   \\    /   O peration     | Website:  https://openfoam.org
    \\  /    A nd           | Version:  8
     \\/     M anipulation  |
\*---------------------------------------------------------------------------*/
FoamFile
{
    version     2.0;
    format      ascii;
    class       volScalarField;
    location    "1600";
    object      p;
}
// * * * * * * * * * * * * * * * * * * * * * * * * * * * * * * * * * * * * * //

dimensions      [0 2 -2 0 0 0 0];

internalField   nonuniform List<scalar> 
15677
(
85.8156
82.8008
82.7789
83.0045
82.9682
82.9065
82.8654
82.8273
82.7869
82.7449
82.702
82.6583
82.6146
82.5715
82.5334
82.5018
82.4748
82.4515
82.4314
82.4142
82.3993
82.387
82.3774
82.3697
82.3636
82.3587
82.3546
82.3514
82.3486
82.3464
82.3445
82.3429
82.3416
82.3405
82.3396
82.8908
81.9324
82.4507
82.5042
82.4471
82.4461
82.453
82.454
82.4532
82.4519
82.4495
82.4454
82.4389
82.4298
82.4192
82.4086
82.3981
82.388
82.3785
82.3697
82.3617
82.3549
82.3493
82.3449
82.3413
82.3384
82.336
82.334
82.3325
82.3312
82.3301
82.3293
82.3286
82.3281
82.3278
82.3536
82.167
82.3687
82.2963
82.2826
82.2947
82.2972
82.2971
82.2976
82.2981
82.2985
82.2987
82.2987
82.2984
82.2975
82.2965
82.2954
82.2943
82.2933
82.2924
82.2916
82.2911
82.2909
82.2908
82.2909
82.2911
82.2914
82.2918
82.2922
82.2927
82.2932
82.2938
82.2943
82.295
82.2956
82.2048
82.1868
82.2279
82.1882
82.2007
82.2044
82.2024
82.2017
82.2014
82.2012
82.2012
82.2018
82.2029
82.2047
82.207
82.2097
82.2128
82.2162
82.22
82.2241
82.2284
82.2329
82.2371
82.2409
82.2445
82.2478
82.2508
82.2536
82.2561
82.2584
82.2606
82.2626
82.2645
82.2663
82.268
82.0638
82.0705
82.0736
82.0656
82.0764
82.0766
82.0775
82.0794
82.0814
82.0839
82.0871
82.0914
82.097
82.104
82.1119
82.1201
82.1287
82.1377
82.1471
82.1568
82.1667
82.1764
82.1853
82.1934
82.2007
82.2072
82.2131
82.2184
82.2232
82.2275
82.2315
82.2351
82.2385
82.2416
82.2445
81.9451
81.9514
81.9507
81.9525
81.9575
81.9582
81.9605
81.963
81.9658
81.9695
81.9743
81.9808
81.9893
82.0003
82.0131
82.0266
82.0409
82.0559
82.0715
82.0877
82.1042
82.1202
82.1349
82.1481
82.16
82.1706
82.1801
82.1887
82.1963
82.2032
82.2095
82.2151
82.2203
82.2251
82.2294
81.8247
81.8286
81.8296
81.8326
81.8351
81.837
81.8396
81.8423
81.8457
81.8503
81.8565
81.8649
81.8763
81.8915
81.9094
81.9286
81.9492
81.9711
81.994
82.0177
82.0421
82.0658
82.0876
82.1072
82.1247
82.1405
82.1546
82.1672
82.1784
82.1885
82.1976
82.2059
82.2134
82.2203
82.2263
81.6835
81.6861
81.6884
81.691
81.6932
81.6959
81.6989
81.7022
81.7066
81.7125
81.7207
81.732
81.7474
81.768
81.7926
81.8191
81.8478
81.8784
81.9105
81.944
81.9784
82.0119
82.0427
82.0704
82.0953
82.1176
82.1375
82.1553
82.1712
82.1854
82.1982
82.2097
82.2201
82.2297
82.2379
81.5152
81.5171
81.5198
81.5224
81.5249
81.5281
81.5316
81.5359
81.5416
81.5494
81.5602
81.5751
81.5957
81.6233
81.6566
81.6925
81.7316
81.7733
81.8173
81.8632
81.9105
81.9567
81.9991
82.0373
82.0716
82.1024
82.1298
82.1543
82.1762
82.1957
82.2133
82.229
82.2432
82.2561
82.2672
81.3128
81.3143
81.317
81.32
81.3229
81.3267
81.331
81.3365
81.3439
81.3541
81.3683
81.388
81.415
81.4516
81.4957
81.5437
81.5959
81.6518
81.7109
81.7726
81.8363
81.8986
81.9558
82.0075
82.0539
82.0955
82.1326
82.1657
82.1952
82.2216
82.2452
82.2663
82.2854
82.3027
82.3173
81.0686
81.0699
81.0727
81.0761
81.0796
81.084
81.0893
81.0963
81.1059
81.1191
81.1375
81.1632
81.1984
81.2462
81.3039
81.3668
81.4354
81.5091
81.5871
81.6687
81.7531
81.8357
81.9117
81.9803
82.042
82.0972
82.1466
82.1906
82.2299
82.2649
82.2962
82.3242
82.3494
82.3721
82.3912
80.7755
80.7766
80.7792
80.7831
80.7872
80.7925
80.799
80.8078
80.8199
80.8368
80.8604
80.8933
80.9385
81
81.0744
81.1556
81.2445
81.3401
81.4415
81.5477
81.6577
81.7656
81.8648
81.9546
82.0354
82.1078
82.1724
82.2301
82.2815
82.3274
82.3683
82.4049
82.4378
82.4674
82.4921
80.4248
80.4256
80.4282
80.4325
80.4375
80.4438
80.4518
80.4626
80.4778
80.4991
80.5289
80.5705
80.6278
80.7058
80.8003
80.9037
81.017
81.1392
81.269
81.4051
81.5464
81.6852
81.813
81.9288
82.0331
82.1266
82.2102
82.2847
82.3512
82.4105
82.4634
82.5106
82.553
82.5911
82.6227
80.0084
80.0089
80.0115
80.0164
80.0223
80.0298
80.0396
80.0529
80.0716
80.0981
80.1353
80.1871
80.2586
80.356
80.4743
80.604
80.7464
80.9002
81.0639
81.236
81.4149
81.5909
81.7533
81.9007
82.0335
82.1527
82.2593
82.3545
82.4394
82.5152
82.5827
82.643
82.697
82.7456
82.7854
79.5188
79.519
79.5216
79.5271
79.5341
79.5431
79.5548
79.571
79.5938
79.6262
79.6718
79.7355
79.8234
79.9432
80.0892
80.2494
80.4258
80.6167
80.8202
81.0347
81.258
81.4784
81.682
81.867
82.034
82.1841
82.3185
82.4386
82.5458
82.6414
82.7266
82.8027
82.871
82.9321
82.9819
78.9493
78.9494
78.952
78.958
78.9662
78.9769
78.9908
79.0101
79.0375
79.0765
79.1315
79.2084
79.3148
79.4602
79.6376
79.8326
80.048
80.2815
80.5311
80.7947
81.07
81.3421
81.5942
81.8236
82.0311
82.2179
82.3853
82.535
82.6688
82.7882
82.8947
82.9897
83.075
83.1512
83.213
78.2943
78.2941
78.2967
78.3033
78.3129
78.3252
78.3415
78.3642
78.3964
78.4426
78.5079
78.5994
78.7262
78.8999
79.1122
79.3464
79.6055
79.8872
80.1892
80.5089
80.8437
81.1757
81.4839
81.7651
82.0199
82.2495
82.4558
82.6405
82.8057
82.9532
83.0849
83.2025
83.308
83.4022
83.478
77.5487
77.5482
77.5509
77.5581
77.5689
77.5831
77.6019
77.6279
77.6653
77.719
77.7953
77.9025
78.0513
78.2556
78.5063
78.7835
79.091
79.4264
79.7869
80.1696
80.5717
80.9715
81.3439
81.6845
81.9938
82.2732
82.5246
82.7501
82.9519
83.1324
83.2936
83.4377
83.5671
83.6825
83.7746
76.7089
76.7081
76.7108
76.7185
76.7307
76.7467
76.7679
76.7974
76.84
76.9015
76.9892
77.1127
77.2848
77.5218
77.8135
78.137
78.497
78.8909
79.3156
79.768
80.2449
80.7209
81.1655
81.5734
81.9449
82.2812
82.5843
82.8568
83.1011
83.3198
83.5154
83.6903
83.8475
83.9877
84.0985
75.7726
75.7715
75.7742
75.7825
75.7959
75.8138
75.8373
75.8702
75.9178
75.987
76.0861
76.2264
76.4225
76.6935
77.0282
77.4005
77.8164
78.2729
78.7669
79.2951
79.8539
80.4138
80.9388
81.4219
81.8632
82.2638
82.6257
82.9517
83.2445
83.5071
83.7422
83.9527
84.1421
84.3108
84.4431
74.7394
74.738
74.7406
74.7495
74.764
74.7835
74.8091
74.8451
74.8975
74.9741
75.0845
75.2415
75.4616
75.767
76.1456
76.5685
77.0425
77.5647
78.1321
78.7412
79.3883
80.0394
80.6522
81.2184
81.7371
82.2094
82.6374
83.0237
83.3714
83.6837
83.9638
84.215
84.4413
84.6426
84.7989
73.6105
73.6086
73.6112
73.6204
73.6359
73.6568
73.6842
73.7228
73.7795
73.863
73.984
74.1569
74.4005
74.7398
75.1624
75.6362
76.1694
76.7594
77.403
78.0968
78.8373
79.5859
80.2935
80.9499
81.5534
82.1047
82.6057
83.0591
83.4682
83.8364
84.1672
84.4643
84.7326
84.9707
85.1536
72.3884
72.3861
72.3886
72.3981
72.4144
72.4364
72.4652
72.5059
72.5661
72.6555
72.7861
72.9737
73.2393
73.611
74.0764
74.6002
75.1924
75.8505
76.5716
77.3526
78.1901
79.041
79.8492
80.6021
81.2971
81.9343
82.5151
83.0423
83.5192
83.9494
84.3366
84.6851
85.0005
85.2799
85.4917
71.0776
71.075
71.0772
71.087
71.1039
71.1265
71.1562
71.1982
71.261
71.3552
71.4938
71.6943
71.9799
72.3815
72.8869
73.4586
74.1079
74.8328
75.6309
76.4994
77.4358
78.3923
79.3055
80.1599
80.9522
81.6812
82.3482
82.9554
83.5062
84.0043
84.4536
84.8588
85.2265
85.5515
85.7939
69.6842
69.6812
69.6832
69.6929
69.7101
69.733
69.7629
69.8055
69.8697
69.9671
70.112
70.3231
70.6256
71.0535
71.5952
72.211
72.9138
73.7024
74.5749
75.5295
76.5644
77.6276
78.6481
79.6078
80.5017
81.3276
82.086
82.7788
83.4091
83.9806
84.4973
84.9643
85.3895
85.7641
86.0381
68.2154
68.212
68.2137
68.2233
68.2405
68.2631
68.2925
68.3346
68.399
68.498
68.6469
68.8657
69.1815
69.6311
70.2039
70.8586
71.6098
72.4569
73.3992
74.4361
75.5667
76.7354
77.8636
78.9302
79.9283
80.8547
81.7085
82.4913
83.2057
83.8554
84.4441
84.9775
85.4649
85.8927
86.1982
66.6799
66.6762
66.6775
66.6867
66.7035
66.7254
66.7535
66.7941
66.8571
66.9558
67.1062
67.3295
67.6543
68.1201
68.7176
69.4047
70.1973
71.0958
72.1013
73.2141
74.4351
75.7054
76.9391
78.112
79.2151
80.2435
81.1954
82.0713
82.8734
83.6049
84.2694
84.8731
85.4267
85.9104
86.2452
65.087
65.0828
65.0837
65.0924
65.1085
65.129
65.1551
65.1929
65.2532
65.3495
65.4987
65.7227
66.0518
66.5276
67.1425
67.854
68.6793
69.6205
70.6801
71.8602
73.1634
74.5285
75.8627
77.1386
78.345
79.4752
80.5257
81.496
82.3875
83.203
83.9457
84.6225
85.2459
85.7872
86.1464
63.4473
63.4428
63.4432
63.4512
63.4661
63.4847
63.5079
63.542
63.5978
63.6897
63.8347
64.0557
64.3838
64.8626
65.4867
66.2134
67.0616
68.035
69.1378
70.374
71.7484
73.1986
74.6258
75.999
77.3045
78.5333
79.6806
80.7444
81.7254
82.6255
83.4472
84.198
84.8926
85.4908
85.8639
61.77
61.7652
61.7649
61.7719
61.7853
61.8014
61.8209
61.85
61.8998
61.985
62.123
62.3368
62.6586
63.1333
63.7573
64.4892
65.349
66.3425
67.4754
68.7541
70.1862
71.7083
73.2166
74.6769
76.0734
77.3951
78.6351
79.7896
80.8577
81.8403
82.739
83.5624
84.3284
84.9808
85.3502
82.3385
82.3372
82.336
82.3348
82.3336
82.3326
82.3316
82.3306
82.3298
82.329
82.3283
82.3276
82.3271
82.3266
82.3263
82.326
82.3258
82.3257
82.3256
82.3256
82.3257
82.3257
82.3273
82.3267
82.3262
82.3256
82.3251
82.3246
82.3242
82.3238
82.3234
82.323
82.3227
82.3225
82.3223
82.3221
82.322
82.322
82.322
82.3221
82.3222
82.3223
82.3225
82.3227
82.2964
82.2973
82.2982
82.2991
82.3
82.3008
82.3017
82.3025
82.3033
82.3041
82.3048
82.3056
82.3062
82.3069
82.3075
82.3081
82.3087
82.3092
82.3097
82.3102
82.3107
82.3112
82.2701
82.2724
82.2747
82.277
82.2792
82.2814
82.2835
82.2855
82.2875
82.2893
82.2911
82.2928
82.2943
82.2957
82.297
82.2982
82.2992
82.3002
82.3011
82.3019
82.3027
82.3034
82.2482
82.252
82.2559
82.2597
82.2634
82.267
82.2705
82.2738
82.277
82.28
82.2829
82.2856
82.288
82.2902
82.2921
82.2938
82.2953
82.2967
82.2979
82.299
82.2999
82.3007
82.2349
82.2405
82.2462
82.2517
82.2571
82.2623
82.2673
82.272
82.2766
82.2808
82.2848
82.2885
82.2918
82.2947
82.2972
82.2994
82.3013
82.303
82.3044
82.3055
82.3065
82.3073
82.2341
82.2417
82.2494
82.2569
82.2642
82.2712
82.2779
82.2842
82.2902
82.2958
82.301
82.3057
82.3098
82.3134
82.3164
82.319
82.3211
82.3229
82.3243
82.3254
82.3262
82.3268
82.2486
82.2585
82.2687
82.2786
82.2881
82.2972
82.3058
82.314
82.3216
82.3287
82.3351
82.3408
82.3458
82.3499
82.3533
82.3561
82.3583
82.3599
82.3611
82.3619
82.3623
82.3623
82.2816
82.2943
82.3075
82.3203
82.3325
82.3441
82.355
82.3652
82.3747
82.3833
82.3911
82.3979
82.4036
82.4082
82.4118
82.4146
82.4166
82.4179
82.4186
82.4188
82.4184
82.4175
82.3364
82.3525
82.3693
82.3856
82.4011
82.4156
82.4293
82.4419
82.4534
82.4638
82.473
82.4809
82.4873
82.4922
82.4959
82.4984
82.4999
82.5006
82.5004
82.4996
82.4981
82.4958
82.4163
82.4365
82.4578
82.4784
82.4977
82.5159
82.5327
82.5482
82.5621
82.5745
82.5852
82.5942
82.6012
82.6063
82.6097
82.6117
82.6123
82.6119
82.6105
82.6082
82.6049
82.6008
82.5246
82.5499
82.5766
82.6024
82.6265
82.649
82.6696
82.6884
82.7051
82.7197
82.7321
82.7421
82.7496
82.7546
82.7575
82.7585
82.7579
82.7559
82.7526
82.7483
82.7427
82.736
82.6646
82.6959
82.7293
82.7614
82.7913
82.8189
82.8441
82.8668
82.8868
82.9039
82.9182
82.9292
82.937
82.9417
82.9436
82.9433
82.9408
82.9366
82.9308
82.9238
82.9152
82.9051
82.8391
82.8776
82.9192
82.9591
82.9959
83.0297
83.0604
83.0877
83.1114
83.1315
83.1477
83.1598
83.1678
83.1718
83.1724
83.1701
83.1652
83.1581
83.1491
83.1386
83.126
83.1117
83.05
83.0973
83.149
83.1982
83.2435
83.2848
83.322
83.3548
83.3831
83.4066
83.4251
83.4383
83.4462
83.4493
83.448
83.4431
83.435
83.4243
83.4113
83.3963
83.3789
83.3592
83.2988
83.3568
83.4207
83.4813
83.5369
83.5873
83.6324
83.6718
83.7054
83.7329
83.754
83.7685
83.7763
83.778
83.7744
83.7663
83.7543
83.7389
83.7209
83.7006
83.6773
83.6511
83.5854
83.6563
83.7352
83.8098
83.8779
83.9393
83.994
84.0416
84.0816
84.1139
84.1382
84.1541
84.1617
84.1617
84.1551
84.1431
84.1263
84.1055
84.0814
84.0546
84.0242
83.9902
83.9082
83.9949
84.0921
84.1838
84.2671
84.3421
84.4085
84.4659
84.5139
84.5522
84.5804
84.5981
84.6054
84.6035
84.5936
84.5769
84.5544
84.5271
84.4958
84.4613
84.4224
84.3792
84.2639
84.3698
84.4895
84.602
84.704
84.7956
84.8764
84.946
85.0038
85.0495
85.0826
85.1028
85.1101
85.1061
85.0923
85.0702
85.0411
85.0062
84.9667
84.9232
84.8745
84.8205
84.6467
84.776
84.9232
85.0611
85.1861
85.2981
85.3967
85.4814
85.5514
85.6064
85.646
85.6696
85.6774
85.6713
85.6533
85.6252
85.5887
85.5452
85.4961
85.4424
85.3825
85.3161
85.0484
85.2062
85.3871
85.5562
85.7092
85.8463
85.967
86.0704
86.1558
86.2227
86.2706
86.299
86.3081
86.3002
86.2779
86.2433
86.1986
86.1454
86.0855
86.0203
85.9476
85.8671
85.458
85.6504
85.8725
86.0795
86.267
86.4351
86.5829
86.7097
86.8145
86.8966
86.9556
86.9907
87.0023
86.9932
86.9666
86.9252
86.8715
86.8078
86.7359
86.6577
86.5708
86.4745
85.8614
86.0957
86.3678
86.621
86.8506
87.0567
87.2382
87.394
87.5232
87.6248
87.6983
87.7428
87.7587
87.7495
87.7191
87.6708
87.6077
87.5325
87.4476
87.3552
87.2526
87.1386
86.2412
86.5258
86.8584
87.1676
87.4484
87.701
87.9241
88.1161
88.2759
88.4024
88.4948
88.5523
88.5751
88.5675
88.5341
88.4792
88.4065
88.3192
88.2203
88.1124
87.9926
87.8593
86.5772
86.9213
87.3267
87.7032
88.0462
88.3555
88.6294
88.8662
89.0643
89.2224
89.3395
89.4145
89.4477
89.4441
89.4093
89.3485
89.2663
89.1664
89.0527
88.9283
88.79
88.6356
86.8455
87.2595
87.7517
88.2088
88.6265
89.0045
89.3406
89.6325
89.8782
90.0762
90.2251
90.3235
90.3717
90.3752
90.3412
90.2759
90.1847
90.0723
89.9433
89.8015
89.6435
89.4664
87.0201
87.5144
88.1092
88.6618
89.1686
89.6291
90.0405
90.3997
90.7043
90.9522
91.1418
91.2712
91.3401
91.3553
91.3252
91.2573
91.1583
91.0339
90.8893
90.7295
90.5507
90.3494
87.0727
87.657
88.3726
89.0376
89.65
90.2089
90.7106
91.1513
91.5279
91.8377
92.0786
92.248
92.3451
92.3776
92.3556
92.2882
92.1832
92.0477
91.888
91.7099
91.5098
91.2832
86.972
87.6532
88.5086
89.3047
90.0408
90.7158
91.325
91.8638
92.3281
92.7143
93.0196
93.2405
93.3752
93.4324
93.424
93.361
93.2528
93.1078
92.9337
92.7374
92.5155
92.2626
86.6806
87.4687
88.4855
89.4353
90.3172
91.1297
91.8668
92.5222
93.091
93.569
93.9528
94.2378
94.4211
94.5119
94.5243
94.4712
94.3639
94.2123
94.0255
93.812
93.5687
93.2901
82.3258
82.326
82.3262
82.3265
82.3268
82.3272
82.3229
82.3231
82.3233
82.3235
82.3238
82.3242
82.3116
82.3119
82.3122
82.3125
82.3127
82.313
82.304
82.3044
82.3047
82.305
82.3052
82.3053
82.3015
82.3021
82.3025
82.3028
82.3029
82.3029
82.3082
82.309
82.3095
82.3098
82.3099
82.3097
82.3276
82.3287
82.3294
82.3297
82.3297
82.3292
82.3631
82.3646
82.3655
82.3658
82.3656
82.3647
82.418
82.42
82.4211
82.4215
82.4211
82.4197
82.4959
82.4985
82.4999
82.5003
82.4996
82.4976
82.6002
82.6036
82.6054
82.6057
82.6047
82.6019
82.7345
82.7389
82.7411
82.7415
82.74
82.7362
82.9023
82.9081
82.9107
82.9111
82.9092
82.904
83.1073
83.1147
83.1179
83.1183
83.1158
83.109
83.3529
83.3621
83.3661
83.3665
83.3632
83.3545
83.6422
83.6537
83.6586
83.6589
83.6548
83.6437
83.9783
83.9926
83.9984
83.9988
83.9936
83.9798
84.3637
84.3812
84.3882
84.3886
84.3823
84.3651
84.8008
84.8222
84.8304
84.8308
84.8232
84.8021
85.2914
85.3173
85.327
85.3274
85.3183
85.2927
85.8368
85.8679
85.8793
85.8796
85.869
85.8381
86.4379
86.475
86.4881
86.4885
86.476
86.439
87.0948
87.1389
87.1541
87.1544
87.14
87.096
87.8076
87.8596
87.877
87.8773
87.8606
87.8087
88.5753
88.6362
88.656
88.6564
88.6373
88.5763
89.3967
89.4678
89.4902
89.4906
89.4688
89.3977
90.2695
90.352
90.3773
90.3777
90.3531
90.2704
91.1923
91.2876
91.3159
91.3163
91.2887
91.1931
92.1598
92.2692
92.3008
92.3012
92.2703
92.1606
93.1755
93.2988
93.3341
93.3345
93.2998
93.1762
82.3276
82.328
82.3284
82.3289
82.3295
82.3302
82.3309
82.3316
82.3325
82.3335
82.3345
82.3357
82.3369
82.3382
82.3396
82.341
82.3425
82.3441
82.3456
82.3473
82.349
82.3507
82.3245
82.3249
82.3252
82.3256
82.3261
82.3265
82.327
82.3276
82.3282
82.3288
82.3295
82.3302
82.331
82.3319
82.3327
82.3336
82.3346
82.3356
82.3366
82.3376
82.3386
82.3397
82.3132
82.3133
82.3134
82.3135
82.3136
82.3136
82.3136
82.3136
82.3135
82.3133
82.3131
82.3129
82.3126
82.3123
82.312
82.3117
82.3114
82.3111
82.3108
82.3105
82.3102
82.3099
82.3054
82.3055
82.3054
82.3053
82.305
82.3047
82.3042
82.3036
82.3029
82.302
82.301
82.2998
82.2985
82.2971
82.2957
82.2943
82.2927
82.2912
82.2896
82.2881
82.2865
82.2849
82.3029
82.3029
82.3028
82.3025
82.302
82.3013
82.3005
82.2994
82.298
82.2964
82.2945
82.2923
82.2899
82.2874
82.2848
82.282
82.2792
82.2763
82.2733
82.2703
82.2673
82.2643
82.3097
82.3098
82.3097
82.3094
82.3088
82.3079
82.3067
82.3051
82.3032
82.3009
82.2982
82.295
82.2915
82.2877
82.2838
82.2796
82.2753
82.2709
82.2663
82.2617
82.257
82.2524
82.3293
82.3297
82.3299
82.3297
82.3291
82.3282
82.3268
82.3249
82.3225
82.3196
82.316
82.3118
82.3071
82.302
82.2966
82.2909
82.285
82.2788
82.2724
82.2659
82.2592
82.2528
82.365
82.3661
82.3667
82.3669
82.3666
82.3658
82.3644
82.3624
82.3596
82.3561
82.3517
82.3465
82.3405
82.334
82.327
82.3195
82.3117
82.3034
82.2949
82.286
82.277
82.2683
82.4204
82.4224
82.4239
82.4248
82.425
82.4246
82.4234
82.4214
82.4184
82.4144
82.4093
82.403
82.3957
82.3876
82.3787
82.3692
82.359
82.3484
82.3372
82.3255
82.3136
82.3022
82.4988
82.5022
82.505
82.5069
82.5081
82.5083
82.5077
82.5059
82.5029
82.4986
82.4928
82.4854
82.4766
82.4667
82.4557
82.4438
82.4309
82.4173
82.4029
82.3878
82.3723
82.3576
82.6038
82.6092
82.6138
82.6172
82.6197
82.6211
82.6213
82.6201
82.6173
82.6128
82.6064
82.5979
82.5875
82.5756
82.5622
82.5474
82.5313
82.5141
82.4958
82.4765
82.4566
82.4379
82.7391
82.7472
82.7541
82.7597
82.764
82.767
82.7685
82.7682
82.766
82.7615
82.7546
82.745
82.7329
82.7187
82.7024
82.6843
82.6644
82.6429
82.6198
82.5953
82.57
82.5465
82.9083
82.9198
82.9299
82.9382
82.945
82.9502
82.9535
82.9546
82.9533
82.9491
82.9419
82.9312
82.9172
82.9003
82.8807
82.8586
82.8341
82.8074
82.7786
82.7478
82.7159
82.6864
83.1149
83.1308
83.1449
83.1567
83.1668
83.1749
83.1806
83.1836
83.1836
83.1801
83.1726
83.1608
83.1447
83.1248
83.1014
83.0746
83.0446
83.0116
82.9759
82.9373
82.8972
82.8606
83.3626
83.3838
83.4028
83.4191
83.4333
83.445
83.4539
83.4595
83.4612
83.4586
83.4511
83.4381
83.4197
83.3963
83.3683
83.3358
83.2992
83.2587
83.2144
83.1665
83.1165
83.0712
83.6544
83.6823
83.7074
83.7291
83.7483
83.7645
83.7773
83.786
83.7901
83.7888
83.7813
83.767
83.7459
83.7184
83.6849
83.6457
83.6011
83.5514
83.4968
83.4375
83.3752
83.3194
83.9936
84.0294
84.0616
84.0899
84.1151
84.1369
84.1544
84.167
84.1739
84.1742
84.167
84.1512
84.1268
84.0943
84.0542
84.0068
83.9525
83.8916
83.8245
83.7512
83.6741
83.6055
84.3827
84.4279
84.4686
84.5046
84.5371
84.5653
84.5885
84.6057
84.6159
84.6181
84.611
84.5933
84.5649
84.5264
84.4782
84.4207
84.3545
84.28
84.1976
84.1073
84.0119
83.9277
84.8241
84.8802
84.9309
84.9759
85.0167
85.0525
85.0822
85.1047
85.1187
85.1229
85.1157
85.0956
85.062
85.016
84.9578
84.888
84.8072
84.716
84.6148
84.5037
84.3859
84.2827
85.3198
85.3884
85.4505
85.5058
85.5562
85.6006
85.6377
85.6661
85.6842
85.6904
85.6826
85.659
85.619
85.5633
85.4927
85.4077
85.3089
85.1972
85.073
84.9365
84.7912
84.6649
85.8709
85.9538
86.0287
86.0958
86.1569
86.211
86.2563
86.291
86.3135
86.3213
86.3123
86.2839
86.2353
86.1675
86.0813
85.9773
85.8563
85.7193
85.567
85.3994
85.2206
85.0661
86.4785
86.5774
86.6667
86.7468
86.8199
86.8846
86.9387
86.9802
87.0068
87.0158
87.0042
86.969
86.9092
86.826
86.7201
86.5925
86.4441
86.276
86.0892
85.8837
85.6641
85.4753
87.1427
87.2595
87.3647
87.4591
87.5454
87.6215
87.6849
87.7333
87.7636
87.7726
87.7566
87.7121
87.6375
87.5345
87.404
87.2469
87.0646
86.8584
86.6295
86.3779
86.1086
85.8785
87.8636
88
88.1226
88.2325
88.3328
88.421
88.494
88.5488
88.5819
88.5893
88.5665
88.509
88.4152
88.287
88.1254
87.9319
87.7078
87.4549
87.1747
86.8673
86.5379
86.2582
88.6401
88.7979
88.9392
89.0657
89.1809
89.2815
89.364
89.4245
89.4589
89.4623
89.4291
89.3541
89.2353
89.0751
88.8748
88.6361
88.3608
88.0511
87.7088
87.3344
86.9328
86.5943
89.4711
89.6519
89.8131
89.9571
90.0876
90.2007
90.292
90.357
90.3904
90.3865
90.3386
90.2401
90.0891
89.8886
89.6402
89.346
89.0082
88.6296
88.2127
87.7581
87.2704
86.863
90.3544
90.5597
90.7417
90.9039
91.0499
91.175
91.2739
91.3413
91.3707
91.3551
91.2865
91.1572
90.9651
90.714
90.4062
90.0442
89.6309
89.1697
88.6639
88.1142
87.5248
87.0382
91.2883
91.5192
91.7228
91.9033
92.0644
92.2004
92.3051
92.3719
92.393
92.3601
92.2636
92.0943
91.8503
91.5367
91.1562
90.7122
90.2082
89.6487
89.0376
88.3762
87.6672
87.0917
92.2678
92.5253
92.7509
92.9496
93.125
93.2703
93.3781
93.4402
93.4476
93.39
93.2562
93.0356
92.7264
92.3356
91.8668
91.3242
90.7125
90.0369
89.3025
88.5109
87.6635
86.9924
93.2953
93.5786
93.8257
94.0417
94.2296
94.3814
94.488
94.54
94.5265
94.4354
94.2535
93.9688
93.5803
93.0968
92.5227
91.8629
91.1231
90.3101
89.4307
88.4866
87.4799
86.7033
82.3522
82.3535
82.355
82.3567
82.3587
82.361
82.3637
82.3668
82.3706
82.375
82.3804
82.387
82.3951
82.4053
82.418
82.4332
82.4508
82.4712
82.4948
82.5221
82.5539
82.5921
82.6354
82.6793
82.723
82.766
82.808
82.8485
82.8867
82.9277
82.9895
83.0258
82.8001
82.8221
85.837
82.3408
82.3418
82.3429
82.3442
82.3455
82.3471
82.3488
82.3508
82.3532
82.356
82.3593
82.3633
82.3682
82.3741
82.3812
82.3895
82.3986
82.4084
82.4187
82.4295
82.4403
82.451
82.4602
82.4668
82.471
82.4734
82.4747
82.4756
82.4746
82.4678
82.4688
82.5258
82.4723
81.9541
82.9123
82.3099
82.3102
82.3105
82.3107
82.3108
82.3109
82.311
82.311
82.3111
82.3112
82.3113
82.3115
82.3118
82.3123
82.3131
82.314
82.315
82.3162
82.3175
82.3187
82.3198
82.3207
82.3211
82.3212
82.321
82.3207
82.3202
82.3198
82.3199
82.3174
82.3053
82.319
82.3914
82.1898
82.3763
82.2838
82.2833
82.2827
82.2817
82.2806
82.2791
82.2774
82.2755
82.2732
82.2705
82.2676
82.2642
82.2605
82.2564
82.252
82.2477
82.2436
82.2399
82.2365
82.2334
82.2308
82.2284
82.2266
82.2255
82.225
82.225
82.2252
82.2256
82.2263
82.2283
82.2246
82.2121
82.2518
82.2107
82.2287
82.2619
82.2606
82.2588
82.2566
82.2539
82.2508
82.2472
82.243
82.2381
82.2326
82.2263
82.2192
82.2112
82.2023
82.1925
82.1825
82.1727
82.1632
82.1541
82.1454
82.1371
82.1291
82.1221
82.1165
82.1122
82.1089
82.1065
82.1045
82.1026
82.1017
82.1015
82.0907
82.0986
82.0956
82.0889
82.2483
82.2459
82.2427
82.2388
82.2343
82.229
82.2229
82.2159
82.2078
82.1986
82.1882
82.1764
82.1631
82.1483
82.132
82.1153
82.0989
82.083
82.0677
82.0532
82.0396
82.0266
82.0154
82.0068
82.0004
81.9955
81.9919
81.9891
81.9866
81.9843
81.9835
81.9786
81.9767
81.9774
81.9712
82.2466
82.2427
82.2377
82.2317
82.2247
82.2167
82.2074
82.1968
82.1847
82.1709
82.1553
82.1377
82.118
82.0959
82.0718
82.0469
82.0228
81.9995
81.9773
81.9563
81.9369
81.9187
81.9033
81.8917
81.8832
81.877
81.8724
81.869
81.8663
81.8638
81.8618
81.8593
81.8563
81.8552
81.8514
82.2595
82.2536
82.2462
82.2374
82.2273
82.2157
82.2024
82.1871
82.1698
82.1502
82.1279
82.1029
82.0749
82.0437
82.0095
81.9745
81.9405
81.9077
81.8767
81.8475
81.8206
81.7956
81.7746
81.759
81.7477
81.7394
81.7335
81.7291
81.7258
81.7228
81.7201
81.7179
81.7152
81.7129
81.7104
82.2899
82.2814
82.2708
82.2584
82.2442
82.2279
82.2093
82.1881
82.1641
82.1368
82.1061
82.0715
82.0328
81.9898
81.9428
81.8946
81.8479
81.8032
81.7608
81.7211
81.6846
81.6508
81.6227
81.6019
81.5868
81.5759
81.5681
81.5624
81.5581
81.5546
81.5514
81.5488
81.5462
81.5435
81.5416
82.3407
82.329
82.3142
82.2972
82.2777
82.2554
82.23
82.2012
82.1684
82.1314
82.0897
82.0429
81.9906
81.9326
81.8692
81.8044
81.7417
81.6816
81.6248
81.5718
81.5232
81.4784
81.4413
81.4139
81.394
81.3797
81.3695
81.3621
81.3565
81.3522
81.3484
81.3455
81.3425
81.3397
81.3383
82.4152
82.3992
82.3792
82.3562
82.3299
82.3
82.266
82.2274
82.1837
82.1344
82.0788
82.0166
81.9471
81.8701
81.7861
81.7004
81.6175
81.5383
81.4636
81.3939
81.3302
81.2717
81.2232
81.1876
81.1617
81.1431
81.1298
81.1203
81.1133
81.1079
81.1035
81.0999
81.0965
81.0938
81.0925
82.5164
82.4951
82.4684
82.4378
82.403
82.3635
82.3186
82.2678
82.2104
82.1456
82.0728
81.9913
81.9004
81.7998
81.6903
81.5786
81.4709
81.3681
81.2712
81.1811
81.0988
81.0234
80.9612
80.9154
80.8822
80.8584
80.8414
80.8293
80.8205
80.8139
80.8086
80.8045
80.8006
80.7979
80.7969
82.6471
82.6191
82.5841
82.5441
82.4987
82.4473
82.389
82.323
82.2486
82.1648
82.0707
81.9654
81.8483
81.7188
81.5781
81.4348
81.2968
81.1653
81.0416
80.9268
80.8221
80.7264
80.6475
80.5896
80.5476
80.5176
80.4962
80.481
80.4701
80.462
80.4557
80.4507
80.4464
80.4438
80.443
82.8097
82.7736
82.7283
82.6767
82.6184
82.5523
82.4775
82.393
82.2979
82.1908
82.0708
81.9368
81.7878
81.6234
81.4451
81.2638
81.0896
80.9238
80.7681
80.624
80.4928
80.3731
80.2746
80.2023
80.15
80.1126
80.086
80.0671
80.0538
80.044
80.0364
80.0304
80.0255
80.023
80.0225
83.0059
82.96
82.9023
82.8366
82.7624
82.6786
82.5839
82.477
82.3568
82.2218
82.0707
81.9022
81.7152
81.5092
81.2862
81.0601
80.8431
80.6371
80.444
80.2656
80.1036
79.956
79.8348
79.746
79.6818
79.6359
79.6033
79.5803
79.5641
79.5523
79.5433
79.5362
79.5307
79.5281
79.5279
83.2365
83.1789
83.1061
83.0234
82.9303
82.8252
82.7066
82.5731
82.423
82.2548
82.0668
81.8574
81.6257
81.3709
81.0956
80.8171
80.5505
80.2981
80.062
79.8443
79.6471
79.4678
79.3209
79.2134
79.1359
79.0805
79.0412
79.0137
78.9944
78.9804
78.9697
78.9614
78.9554
78.9527
78.9527
83.5011
83.4296
83.3388
83.2359
83.1203
82.9899
82.8431
82.678
82.4928
82.2854
82.0541
81.7972
81.5133
81.2019
80.8664
80.5279
80.2047
79.8994
79.6146
79.3527
79.116
78.9014
78.726
78.598
78.5057
78.4399
78.3935
78.3611
78.3384
78.322
78.3096
78.3
78.2934
78.2907
78.2909
83.7971
83.7094
83.5975
83.4708
83.3286
83.1686
82.9887
82.7867
82.5605
82.3078
82.0265
81.7146
81.3709
80.9948
80.5908
80.1845
79.7977
79.4334
79.0945
78.7837
78.5036
78.2503
78.0439
77.8936
77.7856
77.7087
77.6547
77.6171
77.591
77.5722
77.5579
77.547
77.5398
77.5371
77.5377
84.1205
84.0141
83.8776
83.7229
83.5498
83.3554
83.1371
82.8925
82.6191
82.3143
81.9757
81.6013
81.1898
80.7409
80.2601
79.7783
79.3212
78.8921
78.4942
78.1304
77.8035
77.5087
77.2692
77.0954
76.9708
76.8825
76.8207
76.7779
76.7483
76.727
76.7109
76.6987
76.6909
76.6882
76.689
84.4646
84.3369
84.1719
83.9849
83.7762
83.5421
83.2798
82.9865
82.6592
82.2953
81.892
81.4473
80.96
80.4302
79.8648
79.3003
78.7668
78.2677
77.8064
77.3862
77.0099
76.6716
76.3978
76.1997
76.0581
75.9582
75.8886
75.8407
75.8077
75.7841
75.7662
75.7527
75.7443
75.7417
75.7428
84.8201
84.6684
84.4708
84.2468
83.9973
83.7181
83.4058
83.0574
82.6696
82.2393
81.7639
81.2412
80.6703
80.0519
79.3945
78.741
78.1258
77.5525
77.0247
76.5456
76.1182
75.7353
75.4266
75.2041
75.0457
74.9343
74.8572
74.8045
74.7684
74.7427
74.7232
74.7085
74.6996
74.697
74.6985
85.1746
84.9964
84.7618
84.4959
84.2003
83.8702
83.5019
83.0918
82.6366
82.1329
81.578
80.97
80.3083
79.5943
78.8386
78.0908
77.3899
76.7395
76.1431
75.604
75.1248
74.6972
74.3541
74.1078
73.9332
73.811
73.7269
73.6699
73.6311
73.6036
73.5826
73.567
73.5577
73.5552
73.5571
85.5126
85.3056
85.0297
84.7166
84.3695
83.9828
83.5522
83.0741
82.5447
81.9607
81.3195
80.6194
79.8605
79.0452
78.1862
77.3403
76.5512
75.8223
75.1569
74.5578
74.0276
73.5566
73.1803
72.9115
72.7219
72.59
72.4998
72.4392
72.3983
72.3694
72.3474
72.3309
72.3213
72.3188
72.3211
85.8151
85.5774
85.2559
84.8903
84.4863
84.0374
83.5386
82.9863
82.3766
81.7061
80.9725
80.1746
79.3133
78.3922
77.4265
76.4807
75.6028
74.7958
74.0623
73.4051
72.8261
72.3139
71.907
71.6178
71.4148
71.2747
71.1796
71.1163
71.074
71.0442
71.0215
71.0045
70.9946
70.9924
70.995
86.0597
85.7904
85.4192
84.996
84.5301
84.0135
83.4411
82.809
82.1133
81.351
80.52
79.6198
78.6525
77.6231
76.5496
75.504
74.5388
73.656
72.8576
72.1454
71.5211
70.9717
70.5375
70.2307
70.0168
69.8701
69.7716
69.7068
69.6639
69.6339
69.6109
69.5936
69.5837
69.5817
69.5847
86.2206
85.9198
85.4953
85.0098
84.4772
83.8884
83.2376
82.5211
81.7351
80.8768
79.9448
78.9397
77.8647
76.7266
75.5464
74.4036
73.3547
72.4006
71.5421
70.7802
70.1156
69.5338
69.0769
68.756
68.5339
68.3829
68.2826
68.2175
68.1751
68.1456
68.1227
68.1054
68.0957
68.094
68.0974
86.269
85.9387
85.4582
84.9061
84.3031
83.6383
82.9054
82.1009
81.2214
80.2646
79.23
78.1193
76.9372
75.6924
74.4093
73.1747
72.0481
71.0291
70.1175
69.3126
68.614
68.006
67.5317
67.201
66.9739
66.821
66.7208
66.6569
66.616
66.5876
66.5655
66.5486
66.5392
66.5378
66.5416
86.172
85.8171
85.2788
84.6568
83.9805
83.2372
82.4201
81.5258
80.5516
79.4958
78.3589
77.1441
75.8581
74.5117
73.1323
71.8138
70.6181
69.543
68.5867
67.7472
67.0224
66.3954
65.9098
65.574
65.3454
65.1933
65.0952
65.034
64.9956
64.9693
64.9485
64.9323
64.9234
64.9224
64.9266
85.8924
85.5231
84.9275
84.234
83.4834
82.6609
81.759
80.7751
79.707
78.5541
77.3179
76.0033
74.619
73.1785
71.7124
70.3206
69.0668
67.9463
66.9556
66.091
65.3491
64.711
64.2208
63.8849
63.6586
63.5102
63.4163
63.3593
63.3246
63.3012
63.2823
63.2671
63.2589
63.2584
63.2629
85.3835
85.0167
84.3667
83.6016
82.7782
81.8784
80.8937
79.8223
78.6632
77.4172
76.0877
74.6814
73.2089
71.6857
70.1459
68.6944
67.3956
66.2426
65.2293
64.3506
63.6013
62.9612
62.4734
62.1425
61.9226
61.7807
61.6931
61.6419
61.6121
61.5923
61.5759
61.5622
61.5549
61.5551
61.56
59.88
59.8752
59.8743
59.8802
59.8917
59.9047
59.9195
59.9422
59.9839
60.0595
60.1865
60.3879
60.6967
61.1588
61.7725
62.4987
63.3586
64.3598
65.5102
66.8189
68.2965
69.8807
71.4641
73.0098
74.4987
75.9155
77.2493
78.4935
79.6458
80.7065
81.6775
82.5691
83.4026
84.0998
84.444
57.7705
57.7653
57.7636
57.7681
57.7772
57.7858
57.794
57.8078
57.8383
57.9003
58.011
58.1932
58.4802
58.9172
59.5057
60.2096
61.0513
62.0399
63.1861
64.5021
66.0026
67.6285
69.2699
70.8842
72.4455
73.9342
75.3379
76.651
77.8727
79.0038
80.0455
81.0096
81.9217
82.6746
82.9693
55.6565
55.6508
55.648
55.6507
55.6565
55.66
55.6606
55.6639
55.681
55.7263
55.8163
55.9736
56.2306
56.6306
57.1784
57.8424
58.6448
59.5965
60.7107
62.0029
63.4911
65.1188
66.7729
68.4051
69.989
71.5086
72.9559
74.3267
75.6185
76.8291
77.9554
79.008
80.0153
80.8393
81.0989
53.5638
53.5578
53.554
53.5547
53.5571
53.555
53.5473
53.5393
53.5414