/*--------------------------------*- C++ -*----------------------------------*\
  =========                 |
  \\      /  F ield         | OpenFOAM: The Open Source CFD Toolbox
   \\    /   O peration     | Website:  https://openfoam.org
    \\  /    A nd           | Version:  8
     \\/     M anipulation  |
\*---------------------------------------------------------------------------*/
FoamFile
{
    version     2.0;
    format      ascii;
    class       volScalarField;
    location    "0.19";
    object      k;
}
// * * * * * * * * * * * * * * * * * * * * * * * * * * * * * * * * * * * * * //

dimensions      [0 2 -2 0 0 0 0];

internalField   nonuniform List<scalar> 
15677
(
0.333994
0.364682
0.29434
0.368614
0.357021
0.280632
0.370641
0.359745
0.365645
0.282421
0.371857
0.361481
0.361177
0.383035
0.288665
0.372596
0.363665
0.35759
0.368114
0.401533
0.30016
0.373032
0.365622
0.357771
0.358023
0.379975
0.419284
0.311713
0.37326
0.367161
0.359419
0.354513
0.36094
0.39321
0.434704
0.322533
0.373348
0.368293
0.361331
0.354727
0.353002
0.366836
0.406109
0.447824
0.332041
0.373349
0.369076
0.363049
0.356311
0.351084
0.353453
0.373515
0.418218
0.458684
0.340425
0.373314
0.369565
0.364432
0.358201
0.351905
0.34876
0.354755
0.380653
0.429048
0.467826
0.347509
0.373274
0.369824
0.365456
0.359949
0.353699
0.348365
0.347129
0.35709
0.387619
0.43876
0.475339
0.353726
0.373248
0.369927
0.366144
0.36139
0.355652
0.349753
0.345342
0.34631
0.359684
0.394394
0.447171
0.481751
0.358907
0.373237
0.36994
0.366545
0.362474
0.357416
0.351714
0.346196
0.342919
0.345876
0.362579
0.40063
0.45462
0.487049
0.36357
0.373237
0.369922
0.366733
0.363208
0.358852
0.353677
0.348063
0.343089
0.340854
0.345888
0.365437
0.406474
0.46095
0.491601
0.367632
0.373238
0.369907
0.366791
0.363634
0.359911
0.355388
0.350149
0.344748
0.340285
0.339188
0.346019
0.368328
0.411638
0.466532
0.495381
0.371226
0.373239
0.369899
0.366792
0.363832
0.360604
0.356736
0.352082
0.34688
0.341693
0.337818
0.337733
0.346345
0.370994
0.416388
0.471168
0.498719
0.374517
0.37324
0.369896
0.366782
0.363889
0.360986
0.357691
0.353684
0.348979
0.343828
0.338925
0.335576
0.33652
0.34673
0.373595
0.420416
0.475238
0.501597
0.377319
0.37324
0.369894
0.366775
0.363897
0.361135
0.358278
0.354884
0.350799
0.346059
0.341021
0.336373
0.333591
0.33544
0.347236
0.375845
0.424036
0.478583
0.504135
0.380161
0.37324
0.369893
0.36677
0.363892
0.361179
0.358547
0.355677
0.352225
0.348069
0.343349
0.338417
0.334073
0.331774
0.334567
0.347658
0.377948
0.426982
0.481502
0.506486
0.382371
0.37324
0.369892
0.366767
0.363885
0.361185
0.358651
0.356077
0.353223
0.349701
0.345524
0.34083
0.336052
0.331954
0.330197
0.333761
0.348127
0.379654
0.42959
0.483892
0.508496
0.385018
0.37324
0.369891
0.366764
0.363879
0.361179
0.358683
0.356251
0.353769
0.35089
0.347347
0.343157
0.338532
0.333878
0.330089
0.328765
0.33312
0.348469
0.381197
0.431591
0.485966
0.510612
0.386774
0.37324
0.36989
0.366763
0.363875
0.361172
0.358686
0.356316
0.354031
0.351572
0.348725
0.345158
0.340994
0.336436
0.331965
0.32841
0.327566
0.332523
0.348815
0.38235
0.433378
0.487676
0.512282
0.389405
0.37324
0.369889
0.366762
0.363871
0.361166
0.35868
0.356333
0.354145
0.351918
0.349559
0.346707
0.343162
0.339046
0.334601
0.330262
0.327005
0.326515
0.332087
0.349054
0.383389
0.43461
0.489189
0.514419
0.390838
0.37324
0.369888
0.366761
0.363868
0.361161
0.358671
0.35633
0.354183
0.35208
0.350008
0.347668
0.344892
0.341391
0.337346
0.332996
0.328871
0.32583
0.325745
0.331717
0.349281
0.384062
0.435805
0.490421
0.515835
0.393475
0.37324
0.369888
0.36676
0.363865
0.361157
0.358662
0.356322
0.354188
0.352144
0.350234
0.348202
0.346013
0.343287
0.339847
0.335919
0.331754
0.327766
0.324978
0.325119
0.331501
0.349473
0.384728
0.436473
0.491706
0.518352
0.394868
0.373241
0.369888
0.36676
0.363863
0.361154
0.358654
0.356313
0.354178
0.352161
0.350331
0.348482
0.346666
0.34452
0.341927
0.338651
0.334861
0.330775
0.326986
0.32439
0.324906
0.331531
0.349726
0.385103
0.437315
0.492548
0.520009
0.505192
0.373241
0.369888
0.366759
0.363862
0.361151
0.358648
0.356304
0.354165
0.352157
0.350359
0.348613
0.347022
0.345244
0.343356
0.340929
0.337723
0.334078
0.330314
0.326767
0.324402
0.325005
0.331684
0.349974
0.385541
0.437695
0.494461
0.528709
0.713769
0.373241
0.369887
0.366759
0.36386
0.361149
0.358644
0.356297
0.354151
0.352145
0.350355
0.348663
0.347192
0.345654
0.344237
0.342442
0.340186
0.337369
0.334078
0.330424
0.326963
0.324653
0.325342
0.332038
0.350348
0.38586
0.438516
0.494975
0.545569
0.892616
0.373241
0.369887
0.366759
0.363859
0.361147
0.35864
0.356291
0.354139
0.35213
0.350338
0.348671
0.347255
0.345871
0.344748
0.343363
0.342006
0.340217
0.337562
0.334398
0.330901
0.327549
0.325293
0.326046
0.332725
0.350867
0.386264
0.439114
0.494689
0.55865
1.03824
0.373241
0.369887
0.366758
0.363859
0.361146
0.358637
0.356286
0.35413
0.352117
0.350317
0.348658
0.347262
0.345968
0.345002
0.343917
0.343182
0.342168
0.340593
0.338197
0.335248
0.33195
0.328751
0.326537
0.327257
0.333757
0.351584
0.38689
0.438859
0.493226
0.568507
1.16547
0.373241
0.369887
0.366758
0.363858
0.361145
0.358634
0.356282
0.354122
0.352106
0.350298
0.348637
0.347242
0.345996
0.345106
0.344253
0.343911
0.343432
0.342754
0.341536
0.339524
0.336914
0.333847
0.330691
0.32842
0.328935
0.335183
0.352604
0.387409
0.437974
0.49015
0.57533
1.26984
0.373241
0.369887
0.366758
0.363857
0.361144
0.358632
0.356278
0.354116
0.352096
0.350281
0.348616
0.347213
0.345987
0.345131
0.344422
0.344298
0.344225
0.344172
0.344005
0.343372
0.341804
0.339495
0.336556
0.333396
0.330935
0.33116
0.337038
0.353871
0.387864
0.436151
0.484832
0.579902
1.34779
0.373241
0.369887
0.366758
0.363857
0.361143
0.35863
0.356275
0.35411
0.352087
0.350267
0.348596
0.347184
0.345961
0.345114
0.344486
0.344493
0.344685
0.345083
0.345678
0.346256
0.346212
0.345077
0.343035
0.340191
0.336903
0.334178
0.333943
0.339359
0.355394
0.388002
0.43306
0.478209
0.582822
1.40796
0.373241
0.369887
0.366758
0.363856
0.361142
0.358629
0.356273
0.354106
0.35208
0.350255
0.348579
0.347158
0.34593
0.34508
0.344491
0.344573
0.344928
0.345641
0.346792
0.348228
0.349562
0.35017
0.349466
0.347667
0.344808
0.341322
0.338161
0.337347
0.342133
0.357114
0.387906
0.428989
0.471567
0.585327
1.45636
0.369887
0.373245
0.366758
0.363856
0.361142
0.358627
0.35627
0.354102
0.352073
0.350245
0.348564
0.347135
0.345901
0.345041
0.344465
0.344588
0.34504
0.345958
0.347511
0.34958
0.35191
0.354102
0.355399
0.355122
0.353473
0.350532
0.346674
0.342964
0.341341
0.34536
0.35931
0.387617
0.424805
0.465353
0.587739
1.49693
0.366758
0.369897
0.373252
0.363856
0.361141
0.358626
0.356268
0.354098
0.352068
0.350236
0.34855
0.347116
0.345874
0.345005
0.344429
0.344568
0.345078
0.346125
0.347953
0.350489
0.353571
0.356926
0.360056
0.362073
0.362155
0.360595
0.357397
0.353054
0.348554
0.345959
0.349343
0.362019
0.387261
0.420761
0.459752
0.590572
1.53228
0.363856
0.366774
0.369918
0.37326
0.361141
0.358625
0.356267
0.354096
0.352063
0.350229
0.348539
0.347099
0.34585
0.344973
0.344392
0.344536
0.345075
0.346204
0.348216
0.351088
0.354738
0.35899
0.363483
0.367626
0.370337
0.370726
0.369082
0.365517
0.36043
0.354974
0.351778
0.354298
0.365102
0.386947
0.41698
0.454862
0.593613
1.56391
0.36114
0.363877
0.366808
0.369939
0.373267
0.358624
0.356266
0.354093
0.352059
0.350223
0.348529
0.347084
0.34583
0.344945
0.344358
0.344502
0.345055
0.346234
0.348373
0.351486
0.355561
0.360505
0.36607
0.37181
0.376988
0.380375
0.380909
0.379072
0.37486
0.368861
0.362989
0.359127
0.359784
0.368393
0.387005
0.413638
0.450669
0.597167
1.59295
0.358624
0.361167
0.363922
0.366843
0.369961
0.373275
0.356264
0.354091
0.352055
0.350217
0.34852
0.347072
0.345812
0.34492
0.344327
0.34447
0.34503
0.346241
0.348466
0.351763
0.35616
0.361641
0.368052
0.37507
0.382116
0.388355
0.392289
0.392864
0.390538
0.38551
0.379349
0.373049
0.367302
0.365757
0.37213
0.3873
0.410654
0.44711
0.600837
1.61985
0.356263
0.358655
0.361223
0.363968
0.366878
0.369984
0.373284
0.354089
0.352052
0.350212
0.348513
0.347061
0.345796
0.344899
0.344301
0.344442
0.345007
0.346239
0.348525
0.351963
0.356625
0.362534
0.369624
0.377674
0.386238
0.39465
0.401863
0.406264
0.406572
0.403594
0.398731
0.392468
0.384209
0.376226
0.372137
0.375982
0.387928
0.408215
0.444028
0.604887
1.64518
0.354087
0.356299
0.358719
0.36128
0.364015
0.366915
0.370007
0.373292
0.35205
0.350208
0.348506
0.347052
0.345782
0.34488
0.344278
0.344417
0.344985
0.346236
0.34857
0.352117
0.357
0.363282
0.370939
0.379846
0.389666
0.39987
0.409588
0.417732
0.422303
0.422177
0.419787
0.415256
0.40699
0.396355
0.385796
0.378973
0.379976
0.388973
0.406226
0.441487
0.608909
1.66895
0.352048
0.354125
0.356371
0.358785
0.361338
0.364064
0.366952
0.370031
0.373301
0.350204
0.3485
0.347044
0.345769
0.344865
0.344258
0.344395
0.344967
0.346233
0.348607
0.352246
0.357312
0.363927
0.372108
0.381757
0.392651
0.404374
0.416198
0.427218
0.436006
0.440593
0.441534
0.440016
0.433519
0.422764
0.409364
0.395934
0.386179
0.384145
0.390298
0.404685
0.439318
0.613172
1.69157
0.350201
0.352088
0.354205
0.356446
0.358853
0.361398
0.364114
0.36699
0.370056
0.37331
0.348495
0.347038
0.345758
0.344851
0.344241
0.344377
0.344951
0.346231
0.34864
0.35236
0.357586
0.364488
0.373164
0.383534
0.39539
0.40845
0.422091
0.435568
0.447621
0.45695
0.46334
0.465755
0.462365
0.453327
0.439626
0.423111
0.406546
0.393676
0.388477
0.39189
0.403567
0.437597
0.617294
1.71282
0.348491
0.350243
0.352174
0.354286
0.356523
0.358923
0.36146
0.364165
0.36703
0.370081
0.373319
0.347031
0.345748
0.34484
0.344225
0.34436
0.344938
0.34623
0.348671
0.352463
0.357831
0.364991
0.374111
0.385194
0.398029
0.412328
0.42761
0.44325
0.458119
0.471146
0.483145
0.491959
0.492577
0.486618
0.474479
0.457408
0.437459
0.417529
0.401397
0.392946
0.393578
0.402838
0.436153
0.621554
1.73313
0.347026
0.348533
0.350331
0.352261
0.35437
0.356602
0.358995
0.361523
0.364218
0.36707
0.370107
0.373328
0.34574
0.344831
0.344211
0.344346
0.344927
0.34623
0.3487
0.352558
0.358055
0.36545
0.374976
0.386717
0.400565
0.416182
0.433027
0.450671
0.468062
0.484317
0.500739
0.51634
0.523878
0.521812
0.512547
0.496767
0.475927
0.452264
0.428784
0.409272
0.397565
0.395367
0.402387
0.435056
0.625599
1.75214
0.345733
0.347066
0.348622
0.350423
0.352352
0.354457
0.356684
0.359068
0.361588
0.364272
0.367112
0.370133
0.373338
0.344823
0.344199
0.344334
0.344917
0.346231
0.348727
0.352646
0.358261
0.365871
0.375772
0.388125
0.402938
0.419973
0.438547
0.458164
0.477947
0.497151
0.51752
0.538578
0.553644
0.558887
0.553237
0.539938
0.519975
0.495
0.467386
0.44021
0.417241
0.402284
0.39725
0.402209
0.434151
0.629713
1.77033
0.344817
0.345766
0.347152
0.348714
0.350517
0.352445
0.354546
0.356768
0.359144
0.361655
0.364327
0.367155
0.37016
0.373347
0.344186
0.344322
0.344909
0.346232
0.348752
0.352726
0.358449
0.366258
0.376506
0.389434
0.405162
0.423577
0.444087
0.465991
0.488187
0.510263
0.534349
0.56045
0.581536
0.594932
0.596765
0.586603
0.568559
0.543892
0.514449
0.48269
0.451712
0.425245
0.407058
0.399209
0.402255
0.433515
0.633566
1.78727
0.344176
0.344845
0.345841
0.347241
0.34881
0.350614
0.352542
0.354637
0.356854
0.359222
0.361724
0.364384
0.367199
0.370187
0.373356
0.344312
0.344902
0.346234
0.348776
0.3528
0.358621
0.366613
0.377183
0.39065
0.407249
0.42699
0.449437
0.474019
0.499115
0.524182
0.552028
0.583105
0.609821
0.629649
0.640078
0.637288
0.621635
0.59816
0.568307
0.534108
0.49805
0.463204
0.433228
0.411847
0.401233
0.402393
0.433017
0.637454
1.8035
0.344306
0.344178
0.344906
0.345918
0.347334
0.348909
0.350714
0.352641
0.354732
0.356943
0.359302
0.361795
0.364442
0.367242
0.370213
0.373365
0.344895
0.346236
0.348797
0.352867
0.358778
0.366939
0.377807
0.391778
0.409201
0.430218
0.454575
0.481901
0.510505
0.539369
0.571307
0.607685
0.640091
0.665994
0.68303
0.689002
0.68023
0.658066
0.628499
0.593038
0.553829
0.513356
0.474609
0.441142
0.41662
0.403297
0.402653
0.432747
0.641051
1.81852
0.344892
0.344291
0.344186
0.344969
0.346
0.34743
0.349013
0.350817
0.352744
0.354828
0.357035
0.359384
0.361867
0.3645
0.367284
0.370239
0.373374
0.346237
0.348816
0.352929
0.358921
0.367237
0.378378
0.392821
0.411021
0.43326
0.459492
0.489553
0.521826
0.55558
0.59291
0.63533
0.674067
0.706345
0.729663
0.742001
0.741702
0.725405
0.695653
0.659345
0.617907
0.57348
0.528511
0.485859
0.448942
0.421345
0.405401
0.402999
0.432549
0.644668
1.83293
0.346244
0.344847
0.344258
0.344197
0.345037
0.346089
0.347529
0.349121
0.350923
0.35285
0.354928
0.357129
0.359468
0.361939
0.364556
0.367325
0.370263
0.373382
0.348831
0.352983
0.359051
0.367508
0.378902
0.393782
0.41271
0.436117
0.464172
0.496931
0.532967
0.572115
0.616519
0.667219
0.713741
0.753688
0.783884
0.802107
0.807135
0.798283
0.772674
0.734189
0.690497
0.642753
0.592944
0.543431
0.496897
0.456589
0.425997
0.407523
0.403407
0.43252
0.647976
1.84618
0.348854
0.346153
0.344742
0.344221
0.344224
0.345107
0.346184
0.347632
0.349232
0.351033
0.352959
0.355031
0.357225
0.359552
0.362009
0.364611
0.367364
0.370287
0.37339
0.35303
0.359168
0.367756
0.379381
0.394665
0.414274
0.438786
0.468597
0.504003
0.543894
0.588767
0.64093
0.703162
0.761795
0.812206
0.851227
0.875829
0.885005
0.879128
0.858887
0.82192
0.773486
0.72178
0.667437
0.612124
0.558047
0.507673
0.464051
0.430555
0.409645
0.403865
0.432552
0.651305
1.85892
0.353086
0.348688
0.345934
0.344629
0.344184
0.344269
0.345178
0.346286
0.347738
0.349348
0.351145
0.353072
0.355136
0.35732
0.359633
0.362076
0.364664
0.367403
0.370311
0.373398
0.359271
0.367978
0.379818
0.395475
0.415716
0.441272
0.472762
0.51075
0.554556
0.605348
0.66571
0.742025
0.819772
0.888018
0.939577
0.972371
0.98527
0.979767
0.958459
0.923544
0.873
0.813368
0.753036
0.691837
0.630938
0.572302
0.51815
0.471304
0.435002
0.41175
0.404366
0.432633
0.654319
1.86914
0.359382
0.35283
0.348276
0.345704
0.34453
0.344145
0.344329
0.345252
0.346393
0.347848
0.349468
0.351262
0.353187
0.35524
0.357413
0.359712
0.362142
0.364715
0.36744
0.370333
0.373406
0.368177
0.380212
0.396216
0.417045
0.443578
0.476664
0.517159
0.564884
0.62166
0.690796
0.784186
0.887208
0.984776
1.05865
1.10309
1.12059
1.11357
1.08674
1.04505
0.992048
0.925695
0.853649
0.784124
0.715845
0.649316
0.586151
0.528297
0.478325
0.439322
0.413824
0.404892
0.432785
0.656944
1.87775
0.36838
0.359006
0.352163
0.347848
0.345498
0.344441
0.34411
0.344399
0.345329
0.346506
0.347962
0.349592
0.351382
0.353301
0.355342
0.357503
0.359789
0.362206
0.364766
0.367477
0.370355
0.373414
0.380569
0.39689
0.418265
0.445712
0.48031
0.523219
0.574808
0.637577
0.716338
0.830139
0.963892
1.09893
1.2104
1.27842
1.3035
1.29501
1.25949
1.20486
1.13815
1.06389
0.979689
0.894128
0.81491
0.739373
0.667201
0.59956
0.538092
0.4851
0.443503
0.415858
0.405441
0.432947
0.65909
1.88705
0.380918
0.367851
0.357976
0.351471
0.347455
0.345309
0.344359
0.344082
0.344478
0.345412
0.346624
0.348081
0.349719
0.351501
0.353412
0.355441
0.35759
0.359864
0.362268
0.364814
0.367512
0.370377
0.373421
0.397502
0.419379
0.447683
0.483707
0.528924
0.584286
0.653061
0.742507
0.87969
1.04806
1.2255
1.38313
1.49429
1.54206
1.53532
1.49103
1.41965
1.33187
1.23636
1.13829
1.03457
0.934582
0.845267
0.762343
0.684547
0.612501
0.547517
0.491616
0.447536
0.41784
0.405926
0.43311
0.661466
1.89721
0.398085
0.380195
0.366311
0.356913
0.350828
0.347087
0.345132
0.344286
0.344065
0.344563
0.345501
0.346746
0.348205
0.349845
0.351618
0.35352
0.355538
0.357675
0.359937
0.362328
0.364862
0.367546
0.370398
0.373424
0.4204
0.449495
0.486862
0.534274
0.593298
0.668124
0.769321
0.93193
1.13673
1.35863
1.56631
1.73004
1.82529
1.83946
1.7903
1.70237
1.58961
1.4649
1.33798
1.21431
1.08988
0.974778
0.875074
0.784691
0.701316
0.624953
0.556561
0.497866
0.451415
0.419511
0.406359
0.433309
0.664027
1.90824
0.421347
0.397125
0.377947
0.364733
0.355918
0.350217
0.34674
0.344968
0.344223
0.344058
0.344653
0.345598
0.346871
0.34833
0.349968
0.351733
0.353625
0.355632
0.357758
0.360007
0.362387
0.364908
0.36758
0.370408
0.373424
0.451169
0.489783
0.539277
0.601846
0.682785
0.796617
0.985601
1.22687
1.49298
1.7516
1.97175
2.12552
2.19097
2.16019
2.06012
1.92278
1.76496
1.60101
1.44122
1.29094
1.1451
1.01448
0.904217
0.806362
0.717479
0.636904
0.565219
0.503845
0.454645
0.420954
0.406852
0.433571
0.66689
1.92036
0.452689
0.420103
0.393897
0.375659
0.363249
0.354966
0.349632
0.346413
0.344816
0.344172
0.344064
0.344745
0.345704
0.346996
0.348453
0.350087
0.351844
0.353727
0.355724
0.357838
0.360076
0.362444
0.364953
0.367596
0.370408
0.373424
0.492497
0.543941
0.609944
0.697047
0.82411
1.03946
1.31602
1.62467
1.93307
2.21029
2.42702
2.55685
2.58047
2.49523
2.33765
2.14685
1.94179
1.73757
1.54441
1.36722
1.19975
1.05346
0.932592
0.827305
0.733017
0.648348
0.573487
0.508801
0.457411
0.422562
0.407427
0.433888
0.669964
1.93352
0.494918
0.45109
0.41552
0.39064
0.373504
0.361824
0.354049
0.349072
0.346106
0.344677
0.344132
0.344085
0.344838
0.345815
0.347117
0.348575
0.350204
0.351954
0.353826
0.355813
0.357916
0.360143
0.362499
0.364975
0.367596
0.370408
0.373424
0.548305
0.617615
0.7109
0.851471
1.09248
1.40247
1.75124
2.10698
2.43967
2.72013
2.91981
3.01346
2.9848
2.8372
2.6171
2.37023
2.11697
1.87241
1.64613
1.4423
1.25339
1.0915
0.960102
0.847486
0.747916
0.65928
0.580329
0.513033
0.460469
0.424361
0.408089
0.434289
0.673413
1.94803
0.552153
0.492882
0.444635
0.410938
0.387566
0.371427
0.360446
0.353165
0.348535
0.345823
0.344551
0.3441
0.344132
0.344929
0.345929
0.347235
0.348695
0.350317
0.35206
0.353923
0.3559
0.357992
0.360208
0.362526
0.364975
0.367596
0.370408
0.373424
0.624907
0.72433
0.8784
1.14386
1.48513
1.87129
2.27128
2.65637
2.99859
3.26924
3.43984
3.48639
3.39641
3.18007
2.89391
2.5896
2.2881
2.00383
1.74525
1.51549
1.30563
1.12843
0.986674
0.866876
0.762167
0.668331
0.586165
0.517697
0.463858
0.426375
0.408865
0.43477
0.677122
1.96376
0.631345
0.549548
0.483805
0.438246
0.406609
0.384598
0.369414
0.359113
0.352314
0.348019
0.34556
0.344435
0.344064
0.344199
0.345016
0.346044
0.34735
0.348812
0.350427
0.352164
0.354017
0.355984
0.358066
0.360241
0.362526
0.364975
0.367596
0.370408
0.373424
0.737336
0.904659
1.19308
1.56337
1.98411
2.42499
2.85861
3.2587
3.59798
3.84735
3.97804
3.96779
3.80886
3.51894
3.16455
2.80248
2.45345
2.13062
1.84093
1.58623
1.35617
1.1641
1.01224
0.885453
0.773976
0.676053
0.592592
0.522846
0.467619
0.428638
0.409762
0.435369
0.681317
1.98113
0.748865
0.628039
0.536654
0.474929
0.432202
0.402424
0.381717
0.367462
0.357826
0.351496
0.347529
0.345317
0.344334
0.34403
0.344277
0.345103
0.346159
0.347463
0.348927
0.350535
0.352265
0.354108
0.356067
0.358103
0.360241
0.362526
0.364975
0.367596
0.370408
0.373421
0.930053
1.23981
1.63685
2.08941
2.56779
3.0457
3.49867
3.90172
4.22728
4.44512
4.52616
4.45064
4.21661
3.84985
3.42636
3.00709
2.61182
2.25194
1.93259
1.65413
1.40478
1.19838
1.03676
0.900866
0.784058
0.68456
0.59968
0.52854
0.471802
0.431185
0.410818
0.436025
0.685833
1.99991
0.744805
0.952393
0.608918
0.52431
0.46652
0.426355
0.398356
0.378918
0.365574
0.356586
0.350714
0.347068
0.345097
0.344247
0.344006
0.344361
0.345191
0.346273
0.347575
0.34904
0.35064
0.352364
0.354197
0.356107
0.358103
0.360241
0.362526
0.364975
0.367596
0.370398
0.373413
1.28384
1.70548
2.18717
2.69973
3.21765
3.71804
4.17845
4.57427
4.87673
5.05384
5.07654
4.92861
4.61499
4.16966
3.67737
3.20223
2.76246
2.36728
2.01982
1.71891
1.45127
1.2312
1.05711
0.914034
0.79517
0.693944
0.607509
0.534846
0.476464
0.434064
0.412042
0.436798
0.690981
2.02069
0.71477
0.94833
1.32178
0.59118
0.512645
0.458374
0.420666
0.394401
0.376206
0.36375
0.355395
0.34997
0.346642
0.344905
0.344176
0.343995
0.344446
0.34528
0.346385
0.347684
0.34915
0.350742
0.35246
0.354241
0.356107
0.358103
0.360241
0.362526
0.364975
0.36758
0.370377
0.373406
1.76924
2.27759
2.82112
3.37489
3.91718
4.42785
4.8858
5.26592
5.53715
5.66532
5.62205
5.3961
5.00009
4.47597
3.91623
3.38717
2.90492
2.47633
2.10244
1.78043
1.49555
1.25838
1.07449
0.928555
0.807435
0.704313
0.616172
0.541844
0.481672
0.43732
0.413489
0.437659
0.696525
2.04304
0.687232
0.900621
1.31789
1.82362
0.574683
0.50134
0.450451
0.415135
0.390565
0.373584
0.361995
0.354256
0.349272
0.346261
0.344739
0.344121
0.343997
0.344532
0.345371
0.346494
0.347792
0.349257
0.350843
0.352507
0.354241
0.356107
0.358103
0.360241
0.362526
0.364952
0.367546
0.370355
0.373398
2.36089
2.93247
3.51814
4.09703
4.6508
5.16175
5.60949
5.96705
6.19995
6.2718
6.15619
5.84827
5.36877
4.76704
4.14209
3.56152
3.03903
2.57902
2.18036
1.83861
1.53202
1.28155
1.09364
0.944589
0.820991
0.715787
0.625774
0.549626
0.487502
0.441022
0.415171
0.438687
0.702904
2.06784
0.661993
0.855577
1.24878
1.82088
2.43124
0.55887
0.490332
0.442748
0.409765
0.386852
0.371056
0.360312
0.353181
0.348637
0.345927
0.344597
0.34408
0.34401
0.344616
0.345464
0.346601
0.347898
0.349362
0.350892
0.352507
0.354241
0.356107
0.358103
0.360241
0.362499
0.364907
0.367511
0.370333
0.37339
3.03429
3.64837
4.25889
4.84897
5.40366
5.90742
6.33929
6.66882
6.85706
6.86608
6.67312
6.28102
5.71866
5.04175
4.35451
3.72516
3.16483
2.67539
2.25361
1.88621
1.563
1.30703
1.11478
0.962316
0.835997
0.728507
0.636438
0.558296
0.494048
0.445235
0.417169
0.439854
0.709771
2.09431
0.63831
0.81343
1.18087
1.73287
2.43059
3.11957
0.54357
0.479621
0.435275
0.404568
0.383272
0.368629
0.358717
0.352195
0.348071
0.345634
0.344476
0.344052
0.344039
0.344697
0.345558
0.346706
0.348003
0.349414
0.350891
0.352507
0.354241
0.356107
0.358103
0.360208
0.362443
0.36486
0.367476
0.37031
0.373382
3.76646
4.40436
5.02449
5.61416
6.16211
6.65389
7.06617
7.36309
7.50089
7.44147
7.16773
6.69114
6.04814
5.29945
4.55336
3.87821
3.28246
2.76557
2.31321
1.92647
1.59694
1.33507
1.13812
0.981936
0.852632
0.742632
0.648306
0.567981
0.501414
0.450056
0.419505
0.441268
0.717765
2.12376
0.615887
0.773686
1.11462
1.64463
2.32623
3.1215
3.86417
0.528739
0.46923
0.428048
0.399554
0.379832
0.366324
0.35725
0.35131
0.347565
0.345382
0.344374
0.34403
0.344085
0.344776
0.345654
0.346811
0.348054
0.349412
0.350891
0.352507
0.354241
0.356107
0.358066
0.360142
0.362385
0.364813
0.367439
0.370287
0.373374
4.53485
5.17983
5.79655
6.37748
6.91419
7.39182
7.78217
8.04238
8.12432
7.99192
7.6358
7.07629
6.35622
5.53993
4.73881
4.02093
3.39219
2.83866
2.36345
1.97036
1.6341
1.36592
1.16391
1.00367
0.8711
0.758346
0.661541
0.578825
0.509731
0.455582
0.422296
0.442908
0.726343
2.15484
0.594584
0.736267
1.0497
1.55653
2.22061
3.00284
3.86796
4.64078
0.514378
0.459184
0.421082
0.394736
0.376563
0.364202
0.355929
0.350515
0.347111
0.345165
0.344287
0.344005
0.344143
0.344853
0.345754
0.346861
0.348052
0.349412
0.350891
0.352507
0.354241
0.356066
0.357991
0.360074
0.362326
0.364764
0.367402
0.370263
0.373365
5.31714
5.95446
6.55833
7.12571
7.6501
8.11352
8.48027
8.69966
8.72069
8.51217
8.07406
7.43495
6.64246
5.76337
4.91121
4.15369
3.48087
2.90011
2.41801
2.01819
1.67479
1.39988
1.19241
1.02778
0.891631
0.775859
0.676334
0.590999
0.519147
0.461951
0.425583
0.444921
0.736488
2.19542
0.574313
0.701232
0.986301
1.46808
2.11405
2.88252
3.73635
4.64422
5.42544
0.500504
0.449513
0.414395
0.39016
0.373552
0.362287
0.354739
0.349801
0.346707
0.344977
0.344216
0.343984
0.344208
0.344937
0.345802
0.346856
0.348052
0.349412
0.350891
0.352507
0.354197
0.355983
0.357914
0.360005
0.362266
0.364713
0.367363
0.370238
0.373356
6.09102
6.70988
7.29519
7.84836
8.3623
8.81256
9.15408
9.32821
9.28386
8.9979
8.48024
7.76635
6.90703
5.9702
5.07105
4.26069
3.55528
2.96668
2.47724
2.07027
1.71932
1.43724
1.22392
1.05453
0.914483
0.79541
0.692906
0.604703
0.529849
0.469309
0.429543
0.447282
0.749237
2.2445
0.555008
0.668639
0.924849
1.3792
2.00592
2.76064
3.60344
4.50011
5.42485
6.19512
0.487148
0.440246
0.40805
0.385945
0.370834
0.360559
0.353667
0.349161
0.346349
0.344818
0.344156
0.343974
0.344286
0.344971
0.345797
0.346856
0.348052
0.349412
0.350892
0.352459
0.354107
0.355898
0.357836
0.359934
0.362203
0.364662
0.367324
0.370213
0.373347
6.83656
7.42985
7.99564
8.53788
9.04479
9.48359
9.79759
9.92154
9.80841
9.44583
8.85307
8.07054
7.15043
6.16106
5.19944
4.35029
3.6357
3.03871
2.54147
2.12693
1.76799
1.47832
1.25874
1.08423
0.939943
0.817271
0.71151
0.620177
0.54205
0.477865
0.434249
0.450835
0.766228
2.29403
0.53662
0.638492
0.865938
1.29012
1.89584
2.63649
3.469
4.35593
5.26736
6.18593
6.92833
0.474347
0.431474
0.402211
0.382142
0.368381
0.359001
0.352702
0.348588
0.346035
0.344679
0.344109
0.343989
0.344322
0.344958
0.345799
0.346856
0.348052
0.349414
0.350842
0.352362
0.354014
0.35581
0.357755
0.359861
0.36214
0.364609
0.367283
0.370187
0.373338
7.53579
8.10172
8.65217
9.18838
9.69308
10.1221
10.4049
10.4732
10.2898
9.85387
9.19233
8.34811
7.37349
6.31358
5.30667
4.44691
3.72253
3.1166
2.61106
2.18851
1.82115
1.52344
1.29721
1.11719
0.968325
0.841745
0.732441
0.637692
0.556015
0.487841
0.441056
0.455472
0.785017
2.34354
0.519116
0.610709
0.810245
1.20137
1.7837
2.50938
3.3323
4.21108
5.11224
6.01241
6.90455
7.60578
0.462228
0.423424
0.396948
0.378713
0.366168
0.357597
0.351836
0.348077
0.345758
0.344562
0.344094
0.343985
0.344313
0.344956
0.345799
0.346856
0.348054
0.349361
0.350741
0.352262
0.35392
0.35572
0.357672
0.359786
0.362074
0.364555
0.367241
0.37016
0.373328
8.17484
8.71764
9.2534
9.78654
10.2935
10.7185
10.969
10.9773
10.7247
10.2213
9.49861
8.60009
7.55041
6.44048
5.42195
4.55097
3.81617
3.20072
2.68635
2.25534
1.87912
1.57294
1.33966
1.15376
0.999968
0.869168
0.756023
0.657586
0.572064
0.501729
0.45052
0.461749
0.806016
2.39248
0.502594
0.585137
0.758435
1.11366
1.66959
2.37879
3.19236
4.06485
4.95828
5.84531
6.71133
7.55985
8.21309
0.451118
0.416189
0.392206
0.375621
0.364172
0.356332
0.351057
0.34762
0.345517
0.344492
0.344073
0.343958
0.344317
0.344956
0.345797
0.346861
0.348003
0.349255
0.350637
0.35216
0.353823
0.355628
0.357587
0.359709
0.362007
0.364499
0.367198
0.370133
0.373319
8.74344
9.26647
9.80091
10.3421
10.849
11.2648
11.4822
11.429
11.1116
10.5485
9.77319
8.79788
7.69679
6.57631
5.54568
4.66286
3.91699
3.29141
2.76767
2.32773
1.94221
1.62714
1.38642
1.19429
1.03523
0.899894
0.782643
0.680225
0.593995
0.520547
0.462114
0.468852
0.829344
2.44059
0.487441
0.56171
0.711068
1.02797
1.5538
2.2444
3.04828
3.91603
4.80485
5.68246
6.53003
7.34279
8.13183
8.74208
0.441157
0.409689
0.387937
0.372835
0.362374
0.355194
0.350356
0.347216
0.345348
0.344438
0.34404
0.343959
0.344317
0.344958
0.345802
0.34681
0.347896
0.349147
0.350531
0.352056
0.353723
0.355534
0.3575
0.359631
0.361938
0.364442
0.367155
0.370106
0.373309
9.23824
9.74869
10.2927
10.8548
11.3662
11.7595
11.9382
11.8252
11.4504
10.837
9.98565
8.96023
7.85242
6.72131
5.67817
4.78292
4.02536
3.38901
2.85535
2.40598
2.01071
1.68633
1.43781
1.2391
1.07445
0.934311
0.812666
0.710834
0.623027
0.542402
0.475937
0.477957
0.855549
2.48729
0.473829
0.540692
0.668756
0.945508
1.43686
2.10606
2.89924
3.76336
4.65058
5.52325
6.35739
7.14414
7.88806
8.60368
9.17546
0.432241
0.403847
0.384093
0.370325
0.360754
0.354165
0.349732
0.346914
0.345236
0.344393
0.344043
0.343959
0.344313
0.344971
0.345753
0.346704
0.347789
0.349036
0.350423
0.351949
0.353621
0.355438
0.35741
0.35955
0.361867
0.364384
0.367111
0.37008
0.3733
9.64635
10.1582
10.727
11.3196
11.838
12.1968
12.3313
12.1653
11.7423
11.0558
10.1581
9.13121
8.01723
6.8756
5.81964
4.91144
4.14156
3.49382
2.94964
2.49034
2.08487
1.75078
1.49411
1.28851
1.11799
0.972745
0.852851
0.750557
0.655673
0.567546
0.492951
0.488574
0.884621
2.53224
0.461625
0.522024
0.632364
0.868309
1.31964
1.96381
2.74453
3.60554
4.49387
5.36608
6.19275
6.95992
7.66881
8.33135
8.96985
9.50539
0.424265
0.398599
0.380636
0.368064
0.359289
0.353246
0.349249
0.346728
0.345171
0.344399
0.344043
0.343958
0.344322
0.344936
0.345652
0.346598
0.347681
0.348923
0.350313
0.35184
0.353516
0.355339
0.357318
0.359468
0.361795
0.364326
0.367069
0.370055
0.373292
9.96406
10.494
11.1051
11.7353
12.2551
12.5676
12.6559
12.4494
11.9573
11.2306
10.3373
9.31024
8.19096
7.03914
5.97022
5.04863
4.26582
3.60605
3.05077
2.58101
2.16487
1.82068
1.55554
1.34277
1.1661
1.0236
0.903962
0.794084
0.692053
0.596559
0.513206
0.502101
0.917476
2.57482
0.450708
0.505309
0.601768
0.799645
1.20425
1.81795
2.58355
3.44125
4.33301
5.20913
6.03421
6.78926
7.47072
8.08871
8.6621
9.22126
9.72659
0.417131
0.393885
0.377526
0.366022
0.357977
0.352521
0.348961
0.346642
0.345178
0.344399
0.34404
0.343985
0.344285
0.344852
0.345556
0.346491
0.347571
0.348808
0.350199
0.351729
0.353409
0.355238
0.357224
0.359384
0.361723
0.36427
0.367029
0.37003
0.373283
10.1872
10.7578
11.4292
12.0976
12.6053
12.8635
12.9085
12.6491
12.125
11.4087
10.5219
9.49637
8.37303
7.21166
6.12985
5.19453
4.39826
3.72586
3.15886
2.67811
2.25082
1.89615
1.62225
1.40201
1.22896
1.08695
0.958621
0.841204
0.732261
0.629528
0.537783
0.518179
0.95397
2.61472
0.440967
0.490281
0.575827
0.740967
1.09536
1.67014
2.41587
3.26915
4.16611
5.05035
5.87974
6.62985
7.29282
7.87458
8.39242
8.8723
9.34714
9.82948
0.41075
0.389652
0.37472
0.364193
0.356927
0.352097
0.348848
0.346654
0.345178
0.344393
0.344073
0.34399
0.344207
0.344774
0.345461
0.346381
0.347459
0.348691
0.350083
0.351615
0.353299
0.355135
0.357128
0.359301
0.361654
0.364216
0.366989
0.370006
0.373275
10.3139
10.9529
11.7002
12.3918
12.8745
13.0815
13.0667
12.7981
12.2907
11.5877
10.71
9.68824
8.56251
7.39264
6.29826
5.34905
4.53888
3.85326
3.27394
2.78163
2.34273
1.9772
1.69422
1.47841
1.30571
1.15318
1.01624
0.891538
0.776043
0.666742
0.566595
0.538425
0.995471
2.65134
0.432291
0.476761
0.553531
0.691755
0.996382
1.52543
2.24255
3.08794
3.99109
4.8874
5.72707
6.47942
7.13222
7.68803
8.16032
8.57174
8.95483
9.33569
9.80588
0.405038
0.38584
0.372208
0.362712
0.356322
0.351948
0.348865
0.346654
0.345171
0.344439
0.344095
0.343974
0.344141
0.344695
0.345367
0.346268
0.347346
0.348571
0.349965
0.351499
0.353186
0.35503
0.357033
0.35922
0.361586
0.364163
0.366951
0.369983
0.373267
10.3415
11.0864
11.8989
12.6
13.0434
13.2012
13.171
12.9352
12.4511
11.7644
10.8991
9.88396