/*--------------------------------*- C++ -*----------------------------------*\
  =========                 |
  \\      /  F ield         | OpenFOAM: The Open Source CFD Toolbox
   \\    /   O peration     | Website:  https://openfoam.org
    \\  /    A nd           | Version:  8
     \\/     M anipulation  |
\*---------------------------------------------------------------------------*/
FoamFile
{
    version     2.0;
    format      ascii;
    class       volVectorField;
    location    "0.19";
    object      U;
}
// * * * * * * * * * * * * * * * * * * * * * * * * * * * * * * * * * * * * * //

dimensions      [0 1 -1 0 0 0 0];

internalField   nonuniform List<vector> 
15677
(
(-0.0399015 9.66595 0)
(0.0484951 9.92199 0)
(-0.00181361 9.37829 0)
(0.0206524 9.97702 0)
(0.0198921 9.78866 0)
(0.00731344 9.14125 0)
(0.0258391 9.99515 0)
(0.0165373 9.92467 0)
(0.0111792 9.65398 0)
(0.00649145 8.96067 0)
(0.0263308 10.0025 0)
(0.0205524 9.97871 0)
(0.0165509 9.85203 0)
(0.00912493 9.53081 0)
(0.00515972 8.81703 0)
(0.0255703 10.0057 0)
(0.0215844 10.003 0)
(0.0194061 9.94152 0)
(0.0153648 9.77951 0)
(0.00798042 9.41984 0)
(0.00424049 8.70238 0)
(0.0245088 10.0071 0)
(0.021866 10.0147 0)
(0.0210022 9.98479 0)
(0.0182524 9.90244 0)
(0.0138546 9.70811 0)
(0.00692512 9.32158 0)
(0.00354489 8.61019 0)
(0.023097 10.0075 0)
(0.0217423 10.0205 0)
(0.0218694 10.0069 0)
(0.0201986 9.96497 0)
(0.0169615 9.86193 0)
(0.0124419 9.64084 0)
(0.00596855 9.23643 0)
(0.00295864 8.53617 0)
(0.021409 10.0074 0)
(0.0211909 10.0233 0)
(0.0221525 10.0184 0)
(0.021288 9.99809 0)
(0.0190532 9.94371 0)
(0.0156078 9.82229 0)
(0.0110791 9.57966 0)
(0.00507697 9.16416 0)
(0.0024188 8.47763 0)
(0.0195159 10.007 0)
(0.0203303 10.0235 0)
(0.0221097 10.0241 0)
(0.0217804 10.0162 0)
(0.0202164 9.98815 0)
(0.0177201 9.92276 0)
(0.0141429 9.78537 0)
(0.00968566 9.52576 0)
(0.00419875 9.10455 0)
(0.00188724 8.43311 0)
(0.0175005 10.0063 0)
(0.019274 10.0223 0)
(0.0216663 10.0271 0)
(0.0218025 10.0261 0)
(0.0207471 10.0131 0)
(0.0188614 9.97855 0)
(0.0161742 9.9036 0)
(0.0125191 9.75242 0)
(0.00820364 9.4801 0)
(0.00328849 9.05741 0)
(0.00133488 8.40162 0)
(0.015399 10.0056 0)
(0.0179647 10.0206 0)
(0.0209336 10.0281 0)
(0.0214563 10.0315 0)
(0.0207802 10.0273 0)
(0.0193191 10.0103 0)
(0.0171879 9.97058 0)
(0.014358 9.88721 0)
(0.0106811 9.72459 0)
(0.00658236 9.44349 0)
(0.00230459 9.02269 0)
(0.000739125 8.38288 0)
(0.0132619 10.0048 0)
(0.0164814 10.0185 0)
(0.0198589 10.0274 0)
(0.0207814 10.034 0)
(0.0203995 10.0354 0)
(0.0192408 10.0289 0)
(0.0174619 10.0092 0)
(0.0151325 9.96505 0)
(0.0121993 9.8746 0)
(0.00856716 9.70298 0)
(0.00477062 9.41667 0)
(0.0012128 9.00043 0)
(5.65169e-05 8.37668 0)
(0.0111597 10.0041 0)
(0.0148848 10.0162 0)
(0.0185077 10.0258 0)
(0.0197957 10.0345 0)
(0.019665 10.0396 0)
(0.0187142 10.0396 0)
(0.0171491 10.0319 0)
(0.0151052 10.0103 0)
(0.0126081 9.96284 0)
(0.00961832 9.86678 0)
(0.00611297 9.68863 0)
(0.00272142 9.4003 0)
(-1.51204e-05 8.99081 0)
(-0.00061416 8.38298 0)
(0.00927035 10.0034 0)
(0.0131861 10.014 0)
(0.0169189 10.0235 0)
(0.0185004 10.0334 0)
(0.0185921 10.0412 0)
(0.0177885 10.0456 0)
(0.0163399 10.0453 0)
(0.0144265 10.0371 0)
(0.0121436 10.0146 0)
(0.00951404 9.96485 0)
(0.00653148 9.86475 0)
(0.00325815 9.68251 0)
(0.000397249 9.395 0)
(-0.00137847 8.99414 0)
(-0.0014025 8.40192 0)
(0.00772489 10.0029 0)
(0.0116228 10.0119 0)
(0.0151321 10.0209 0)
(0.0169096 10.0313 0)
(0.0171813 10.0409 0)
(0.0164827 10.0483 0)
(0.0150793 10.053 0)
(0.0131879 10.0531 0)
(0.0109489 10.0453 0)
(0.00845395 10.0228 0)
(0.0057433 9.97198 0)
(0.00285731 9.86948 0)
(-6.16316e-05 9.68559 0)
(-0.00226086 9.40142 0)
(-0.00294137 9.01058 0)
(-0.00229245 8.43378 0)
(0.00641339 10.0024 0)
(0.0102303 10.0102 0)
(0.013393 10.0184 0)
(0.0150532 10.0286 0)
(0.0154368 10.0392 0)
(0.0148006 10.0488 0)
(0.0133853 10.0569 0)
(0.011432 10.0624 0)
(0.00911352 10.0638 0)
(0.00656869 10.0573 0)
(0.00390408 10.0358 0)
(0.00119051 9.98515 0)
(-0.00148028 9.88198 0)
(-0.00388306 9.69872 0)
(-0.00526746 9.42009 0)
(-0.00469635 9.04039 0)
(-0.00328043 8.47862 0)
(0.00530898 10.002 0)
(0.00897393 10.0087 0)
(0.0118142 10.0162 0)
(0.0131757 10.0257 0)
(0.0133756 10.0364 0)
(0.0127428 10.0475 0)
(0.0112612 10.058 0)
(0.0091727 10.0674 0)
(0.00667569 10.0747 0)
(0.00394195 10.0781 0)
(0.00112607 10.0739 0)
(-0.00163878 10.0545 0)
(-0.00424699 10.0053 0)
(-0.00655547 9.90316 0)
(-0.00826337 9.7227 0)
(-0.00865016 9.45143 0)
(-0.00664844 9.08365 0)
(-0.00436133 8.5365 0)
(0.00438498 10.0016 0)
(0.00784159 10.0074 0)
(0.0103563 10.0143 0)
(0.011437 10.0231 0)
(0.0112601 10.0333 0)
(0.0103187 10.0448 0)
(0.00870706 10.0571 0)
(0.00641075 10.0691 0)
(0.00364408 10.0805 0)
(0.000604789 10.0904 0)
(-0.00251738 10.0969 0)
(-0.00554161 10.096 0)
(-0.00830329 10.0797 0)
(-0.0106616 10.0332 0)
(-0.0124254 9.93389 0)
(-0.0132322 9.75814 0)
(-0.0124259 9.49575 0)
(-0.00880273 9.14046 0)
(-0.00553365 8.60727 0)
(0.00361096 10.0013 0)
(0.00682174 10.0062 0)
(0.00901366 10.0126 0)
(0.0098045 10.0206 0)
(0.00928627 10.0303 0)
(0.00782637 10.0415 0)
(0.00573089 10.0545 0)
(0.00314577 10.0685 0)
(1.48652e-05 10.0828 0)
(-0.00344208 10.0971 0)
(-0.00700622 10.1104 0)
(-0.0104602 10.1209 0)
(-0.0135919 10.1242 0)
(-0.0162068 10.1122 0)
(-0.0181286 10.0699 0)
(-0.0191279 9.97488 0)
(-0.0188031 9.80557 0)
(-0.0165936 9.55318 0)
(-0.0111475 9.21061 0)
(-0.00678453 8.6906 0)
(0.00297821 10.001 0)
(0.00591018 10.0052 0)
(0.00778202 10.011 0)
(0.00828535 10.0184 0)
(0.00742556 10.0274 0)
(0.0054992 10.0381 0)
(0.00268888 10.0509 0)
(-0.000612174 10.0658 0)
(-0.00421344 10.0823 0)
(-0.00820861 10.0997 0)
(-0.0123507 10.1178 0)
(-0.01639 10.1355 0)
(-0.0200765 10.1509 0)
(-0.0231692 10.1595 0)
(-0.0254451 10.1529 0)
(-0.0267003 10.1159 0)
(-0.0266815 10.0267 0)
(-0.0249714 9.86523 0)
(-0.0211399 9.6237 0)
(-0.0136746 9.29391 0)
(-0.00810712 8.78606 0)
(0.00247755 10.0008 0)
(0.00508734 10.0044 0)
(0.0066589 10.0096 0)
(0.00688331 10.0164 0)
(0.00569503 10.0247 0)
(0.00330859 10.0347 0)
(-0.000141201 10.047 0)
(-0.00442081 10.0618 0)
(-0.00902672 10.0794 0)
(-0.0136982 10.0992 0)
(-0.0185694 10.1206 0)
(-0.0233563 10.1433 0)
(-0.0277733 10.1664 0)
(-0.0315408 10.1877 0)
(-0.0343922 10.2026 0)
(-0.0360857 10.2024 0)
(-0.0364007 10.1719 0)
(-0.03508 10.0898 0)
(-0.0317151 9.93727 0)
(-0.026036 9.70711 0)
(-0.0163529 9.38972 0)
(-0.009478 8.89284 0)
(0.00209291 10.0007 0)
(0.00438371 10.0037 0)
(0.00563714 10.0084 0)
(0.00559993 10.0145 0)
(0.0041043 10.0221 0)
(0.00128111 10.0314 0)
(-0.00279292 10.043 0)
(-0.00794382 10.0573 0)
(-0.0138646 10.0748 0)
(-0.0198917 10.0958 0)
(-0.0256689 10.1198 0)
(-0.0313893 10.1462 0)
(-0.0367273 10.1745 0)
(-0.0413646 10.2039 0)
(-0.0449978 10.232 0)
(-0.0473463 10.2542 0)
(-0.0481612 10.2613 0)
(-0.0472228 10.2383 0)
(-0.0442913 10.1643 0)
(-0.0389897 10.0215 0)
(-0.0312383 9.80292 0)
(-0.0191622 9.49749 0)
(-0.0108784 9.01021 0)
(0.00179643 10.0006 0)
(0.00381281 10.0032 0)
(0.00475525 10.0074 0)
(0.00443548 10.0129 0)
(0.00265926 10.0198 0)
(-0.000566973 10.0283 0)
(-0.00523015 10.039 0)
(-0.0112254 10.0526 0)
(-0.0183133 10.0695 0)
(-0.0260731 10.0905 0)
(-0.0336237 10.1158 0)
(-0.0405008 10.145 0)
(-0.0469845 10.1772 0)
(-0.0527117 10.2121 0)
(-0.0573392 10.2487 0)
(-0.0605541 10.2846 0)
(-0.0620752 10.3147 0)
(-0.0616653 10.3301 0)
(-0.0591236 10.3153 0)
(-0.0542538 10.2503 0)
(-0.04673 10.1177 0)
(-0.0366934 9.91055 0)
(-0.0220372 9.61617 0)
(-0.0122432 9.13658 0)
(0.0015637 10.0005 0)
(0.00334798 10.0028 0)
(0.00403284 10.0065 0)
(0.00343555 10.0114 0)
(0.001364 10.0175 0)
(-0.00222478 10.0253 0)
(-0.00742898 10.0351 0)
(-0.0142192 10.0477 0)
(-0.0224334 10.0638 0)
(-0.0317281 10.0842 0)
(-0.0415199 10.1094 0)
(-0.0506584 10.14 0)
(-0.0585644 10.1753 0)
(-0.0656485 10.2144 0)
(-0.0715199 10.2568 0)
(-0.0758283 10.3015 0)
(-0.0782666 10.3458 0)
(-0.0785745 10.3847 0)
(-0.0765464 10.4088 0)
(-0.0720256 10.4031 0)
(-0.0648786 10.3474 0)
(-0.0548513 10.2252 0)
(-0.0422851 10.0291 0)
(-0.0248626 9.7445 0)
(-0.0132746 9.27009 0)
(0.0013785 10.0005 0)
(0.00296695 10.0025 0)
(0.00344257 10.0059 0)
(0.00262345 10.0102 0)
(0.000270159 10.0156 0)
(-0.00368469 10.0224 0)
(-0.00937261 10.0313 0)
(-0.0168924 10.0428 0)
(-0.0261669 10.0578 0)
(-0.0369401 10.0772 0)
(-0.0487152 10.1017 0)
(-0.0607015 10.1322 0)
(-0.0714282 10.1691 0)
(-0.0802062 10.2115 0)
(-0.0876331 10.2584 0)
(-0.0933126 10.3093 0)
(-0.0969051 10.3628 0)
(-0.0981345 10.4162 0)
(-0.0967858 10.4643 0)
(-0.0927122 10.4978 0)
(-0.0858133 10.5013 0)
(-0.0760476 10.4553 0)
(-0.063207 10.3434 0)
(-0.0479658 10.1574 0)
(-0.0278281 9.88196 0)
(-0.0156033 9.41076 0)
(0.00122927 10.0004 0)
(0.00265229 10.0022 0)
(0.00295866 10.0053 0)
(0.00196897 10.0092 0)
(-0.000599872 10.0139 0)
(-0.00488779 10.0198 0)
(-0.0110491 10.0276 0)
(-0.019221 10.038 0)
(-0.0294703 10.0517 0)
(-0.0416368 10.0697 0)
(-0.055322 10.0932 0)
(-0.069828 10.1228 0)
(-0.0841144 10.1595 0)
(-0.0963412 10.2037 0)
(-0.105726 10.2543 0)
(-0.113133 10.31 0)
(-0.118183 10.37 0)
(-0.120577 10.433 0)
(-0.120098 10.4961 0)
(-0.116602 10.5538 0)
(-0.110019 10.5967 0)
(-0.100334 10.6096 0)
(-0.0875761 10.5732 0)
(-0.0716541 10.471 0)
(-0.0529759 10.2945 0)
(-0.024679 10.0222 0)
(-0.0115222 9.49626 0)
(0.00110758 10.0004 0)
(0.00239096 10.002 0)
(0.00256122 10.0049 0)
(0.00144015 10.0083 0)
(-0.0012837 10.0125 0)
(-0.00581538 10.0176 0)
(-0.0123904 10.0242 0)
(-0.0211875 10.0332 0)
(-0.0323107 10.0455 0)
(-0.0457621 10.0621 0)
(-0.0612514 10.0839 0)
(-0.0781871 10.1123 0)
(-0.0956236 10.1481 0)
(-0.112229 10.192 0)
(-0.125753 10.2447 0)
(-0.135364 10.3044 0)
(-0.142275 10.3696 0)
(-0.146155 10.4395 0)
(-0.14678 10.5125 0)
(-0.144025 10.5854 0)
(-0.137848 10.6529 0)
(-0.128279 10.7053 0)
(-0.115365 10.7275 0)
(-0.0992768 10.7002 0)
(-0.0796804 10.6071 0)
(-0.0569756 10.4375 0)
(-0.0201769 10.1939 0)
(-0.00295149 9.56207 0)
(0.0010072 10.0003 0)
(0.00217309 10.0018 0)
(0.0022291 10.0045 0)
(0.00101253 10.0076 0)
(-0.00181948 10.0112 0)
(-0.00651694 10.0156 0)
(-0.0133844 10.0212 0)
(-0.0227119 10.0287 0)
(-0.0346632 10.0394 0)
(-0.0492719 10.0543 0)
(-0.0664315 10.0743 0)
(-0.0856696 10.1009 0)
(-0.106151 10.1352 0)
(-0.126634 10.1781 0)
(-0.145466 10.2304 0)
(-0.159962 10.2925 0)
(-0.169281 10.3623 0)
(-0.175088 10.4378 0)
(-0.17715 10.5181 0)
(-0.175362 10.6013 0)
(-0.169719 10.6842 0)
(-0.160303 10.7613 0)
(-0.147231 10.823 0)
(-0.130663 10.8541 0)
(-0.110609 10.8355 0)
(-0.086473 10.7506 0)
(-0.0601844 10.5945 0)
(-0.0215911 10.3672 0)
(0.00235383 9.61946 0)
(0.000923582 10.0003 0)
(0.00199083 10.0017 0)
(0.00195336 10.0041 0)
(0.000668802 10.007 0)
(-0.00223798 10.0102 0)
(-0.00704094 10.0139 0)
(-0.0140975 10.0186 0)
(-0.0237913 10.0248 0)
(-0.0364322 10.0336 0)
(-0.0521321 10.0464 0)
(-0.0708043 10.0644 0)
(-0.0921838 10.0889 0)
(-0.115562 10.1211 0)
(-0.139806 10.1623 0)
(-0.163344 10.2136 0)
(-0.184182 10.2753 0)
(-0.199164 10.3478 0)
(-0.207521 10.4285 0)
(-0.211499 10.5149 0)
(-0.211013 10.6059 0)
(-0.206105 10.6994 0)
(-0.196927 10.7923 0)
(-0.183674 10.8787 0)
(-0.166589 10.9491 0)
(-0.145736 10.9886 0)
(-0.120958 10.9782 0)
(-0.0920609 10.9024 0)
(-0.0622405 10.7643 0)
(-0.0244126 10.5371 0)
(0.003202 9.67641 0)
(0.000853357 10.0003 0)
(0.00183761 10.0016 0)
(0.00172474 10.0038 0)
(0.000388442 10.0064 0)
(-0.00256359 10.0093 0)
(-0.00742649 10.0125 0)
(-0.0145927 10.0163 0)
(-0.0245154 10.0213 0)
(-0.0376268 10.0284 0)
(-0.0542255 10.0389 0)
(-0.0743233 10.0544 0)
(-0.0976545 10.0764 0)
(-0.123742 10.1061 0)
(-0.151582 10.145 0)
(-0.179703 10.1944 0)
(-0.206168 10.255 0)
(-0.228619 10.3272 0)
(-0.243442 10.4111 0)
(-0.25003 10.5034 0)
(-0.25135 10.6011 0)
(-0.247505 10.7029 0)
(-0.238726 10.8067 0)
(-0.225319 10.9091 0)
(-0.207628 11.0044 0)
(-0.18589 11.083 0)
(-0.16007 11.1304 0)
(-0.130692 11.1282 0)
(-0.0974936 11.0624 0)
(-0.0640428 10.9413 0)
(-0.0270798 10.7026 0)
(0.00271751 9.74988 0)
(0.000793972 10.0003 0)
(0.00170807 10.0015 0)
(0.00153509 10.0036 0)
(0.000158602 10.006 0)
(-0.0028168 10.0085 0)
(-0.00770485 10.0112 0)
(-0.0149209 10.0143 0)
(-0.0249672 10.0182 0)
(-0.038367 10.0238 0)
(-0.0555765 10.0321 0)
(-0.0768439 10.0447 0)
(-0.10202 10.0637 0)
(-0.130593 10.0905 0)
(-0.161816 10.1266 0)
(-0.194342 10.1733 0)
(-0.226317 10.2319 0)
(-0.255404 10.3031 0)
(-0.278909 10.3867 0)
(-0.292764 10.4827 0)
(-0.296647 10.5872 0)
(-0.294379 10.6964 0)
(-0.2863 10.809 0)
(-0.272852 10.9227 0)
(-0.254521 11.0342 0)
(-0.23172 11.1377 0)
(-0.204674 11.224 0)
(-0.173846 11.2791 0)
(-0.140441 11.2845 0)
(-0.103641 11.2294 0)
(-0.0667078 11.1206 0)
(-0.0299318 10.8827 0)
(0.00158462 9.83461 0)
(0.000743435 10.0002 0)
(0.00159794 10.0014 0)
(0.00137559 10.0034 0)
(-3.0528e-05 10.0056 0)
(-0.00301327 10.0078 0)
(-0.00790081 10.0101 0)
(-0.0151223 10.0125 0)
(-0.0252131 10.0155 0)
(-0.0387624 10.0197 0)
(-0.0563443 10.0261 0)
(-0.0784075 10.0359 0)
(-0.105098 10.0513 0)
(-0.136033 10.0745 0)
(-0.170383 10.1073 0)
(-0.207082 10.1508 0)
(-0.244384 10.2065 0)
(-0.280009 10.2756 0)
(-0.311236 10.3583 0)
(-0.335054 10.4543 0)
(-0.346974 10.5631 0)
(-0.347089 10.68 0)
(-0.340222 10.8007 0)
(-0.326991 10.9238 0)
(-0.308069 11.047 0)
(-0.284087 11.1669 0)
(-0.255528 11.278 0)
(-0.223019 11.3717 0)
(-0.187511 11.4336 0)
(-0.150372 11.4462 0)
(-0.110514 11.4006 0)
(-0.0706046 11.3205 0)
(-0.0328749 11.0777 0)
(-0.000176872 9.92858 0)
(0.000700135 10.0002 0)
(0.00150385 10.0013 0)
(0.00124103 10.0032 0)
(-0.000185234 10.0052 0)
(-0.00316534 10.0072 0)
(-0.00803387 10.0091 0)
(-0.0152285 10.011 0)
(-0.0253058 10.0132 0)
(-0.0389003 10.0161 0)
(-0.0566724 10.0207 0)
(-0.079223 10.0281 0)
(-0.10695 10.0401 0)
(-0.139833 10.0589 0)
(-0.177177 10.0873 0)
(-0.217763 10.127 0)
(-0.260147 10.1792 0)
(-0.302135 10.2452 0)
(-0.34102 10.3259 0)
(-0.37371 10.4212 0)
(-0.396914 10.5304 0)
(-0.405778 10.6524 0)
(-0.400963 10.7819 0)
(-0.388436 10.9139 0)
(-0.36912 11.047 0)
(-0.343918 11.179 0)
(-0.313608 11.3066 0)
(-0.27902 11.4248 0)
(-0.241236 11.5249 0)
(-0.201277 11.5928 0)
(-0.160421 11.6111 0)
(-0.118319 11.5943 0)
(-0.075356 11.5398 0)
(-0.0360481 11.2682 0)
(-0.00211511 10.0294 0)
(0.00066308 10.0002 0)
(0.0014229 10.0013 0)
(0.00112717 10.0031 0)
(-0.000312464 10.0049 0)
(-0.00328247 10.0067 0)
(-0.00811927 10.0083 0)
(-0.0152645 10.0097 0)
(-0.0252866 10.0111 0)
(-0.0388497 10.013 0)
(-0.0566754 10.016 0)
(-0.0794769 10.0211 0)
(-0.107845 10.03 0)
(-0.142074 10.0447 0)
(-0.181906 10.0678 0)
(-0.226248 10.1024 0)
(-0.273406 10.1503 0)
(-0.321511 10.2124 0)
(-0.367905 10.29 0)
(-0.409452 10.3834 0)
(-0.442716 10.4922 0)
(-0.464199 10.6151 0)
(-0.46876 10.7506 0)
(-0.457785 10.8925 0)
(-0.438514 11.0354 0)
(-0.412196 11.1779 0)
(-0.379971 11.318 0)
(-0.342943 11.4527 0)
(-0.30234 11.5771 0)
(-0.259429 11.6825 0)
(-0.215121 11.7547 0)
(-0.171481 11.7976 0)
(-0.126733 11.809 0)
(-0.0805007 11.755 0)
(-0.0391437 11.4534 0)
(-0.00396844 10.1349 0)
(0.00135267 10.0012 0)
(0.000619142 10.0002 0)
(0.00102983 10.0029 0)
(-0.000417257 10.0046 0)
(-0.00337211 10.0062 0)
(-0.00816889 10.0075 0)
(-0.0152495 10.0085 0)
(-0.0251875 10.0093 0)
(-0.0386647 10.0102 0)
(-0.0564436 10.0118 0)
(-0.0793182 10.015 0)
(-0.108025 10.021 0)
(-0.143101 10.0318 0)
(-0.18467 10.0499 0)
(-0.232163 10.0782 0)
(-0.283983 10.1202 0)
(-0.337887 10.1777 0)
(-0.391559 10.2511 0)
(-0.441857 10.3413 0)
(-0.485237 10.4485 0)
(-0.517982 10.5716 0)
(-0.536484 10.7086 0)
(-0.535398 10.8577 0)
(-0.516996 11.0117 0)
(-0.489917 11.1649 0)
(-0.455752 11.3161 0)
(-0.41598 11.4634 0)
(-0.372084 11.6042 0)
(-0.325487 11.7337 0)
(-0.277482 11.8428 0)
(-0.230357 11.9373 0)
(-0.183305 12.0049 0)
(-0.134914 12.0215 0)
(-0.0856211 11.9644 0)
(-0.0420363 11.6328 0)
(-0.00573762 10.2432 0)
(0.000944596 10.0028 0)
(0.00127222 10.0012 0)
(0.000566852 10.0002 0)
(-0.000504309 10.0044 0)
(-0.00343988 10.0058 0)
(-0.00819174 10.0069 0)
(-0.0151984 10.0075 0)
(-0.0250331 10.0077 0)
(-0.038387 10.0077 0)
(-0.0560475 10.0081 0)
(-0.0788645 10.0095 0)
(-0.10768 10.013 0)
(-0.143217 10.0204 0)
(-0.185902 10.0337 0)
(-0.235626 10.056 0)
(-0.291403 10.0906 0)
(-0.351035 10.1413 0)
(-0.411673 10.2097 0)
(-0.470525 10.2957 0)
(-0.523981 10.3999 0)
(-0.568136 10.5217 0)
(-0.599086 10.6596 0)
(-0.613216 10.8109 0)
(-0.60508 10.9734 0)
(-0.577999 11.139 0)
(-0.542118 11.3017 0)
(-0.499429 11.4606 0)
(-0.451792 11.6143 0)
(-0.400926 11.7601 0)
(-0.348293 11.8929 0)
(-0.297172 12.0234 0)
(-0.246526 12.1401 0)
(-0.194627 12.2107 0)
(-0.142632 12.2294 0)
(-0.0904878 12.1667 0)
(-0.0446429 11.8061 0)
(-0.00735529 10.3524 0)
(-0.000581724 10.0042 0)
(0.000855874 10.0027 0)
(0.00117453 10.0011 0)
(0.000517116 10.0002 1.86665e-19)
(-0.00349102 10.0055 0)
(-0.00819434 10.0063 0)
(-0.0151223 10.0066 0)
(-0.0248427 10.0063 0)
(-0.0380484 10.0056 0)
(-0.0555414 10.0048 0)
(-0.0782072 10.0046 0)
(-0.106963 10.0059 0)
(-0.142669 10.0102 0)
(-0.185984 10.0193 0)
(-0.237169 10.0359 0)
(-0.295791 10.0633 0)
(-0.36035 10.1054 0)
(-0.427955 10.1662 0)
(-0.495078 10.2469 0)
(-0.55847 10.3468 0)
(-0.614088 10.466 0)
(-0.657748 10.6033 0)
(-0.685463 10.7564 0)
(-0.693741 10.922 0)
(-0.677139 11.0973 0)
(-0.640185 11.2737 0)
(-0.594648 11.4451 0)
(-0.542937 11.6107 0)
(-0.487193 11.7695 0)
(-0.429244 11.9187 0)
(-0.373085 12.0725 0)
(-0.317985 12.2238 0)
(-0.261776 12.3413 0)
(-0.205233 12.4127 0)
(-0.149738 12.4309 0)
(-0.094988 12.3614 0)
(-0.0469372 11.9726 0)
(-0.0087934 10.4609 0)
(-0.00353867 10.0052 0)
(-0.000644319 10.004 0)
(0.000756633 10.0025 8.3376e-19)
(0.00108103 10.001 -5.91474e-19)
(0.000469787 10.0002 -3.72289e-19)
(-0.00818249 10.0058 0)
(-0.015029 10.0058 0)
(-0.02463 10.005 0)
(-0.0376735 10.0037 0)
(-0.0549667 10.0019 0)
(-0.0774169 10.0003 0)
(-0.105991 9.99964 0)
(-0.141649 10.0011 0)
(-0.185225 10.0063 0)
(-0.237271 10.0178 0)
(-0.297797 10.0385 0)
(-0.365954 10.0722 0)
(-0.43964 10.1231 0)
(-0.515149 10.1955 0)
(-0.588247 10.29 0)
(-0.655273 10.4051 0)
(-0.711814 10.5402 0)
(-0.753511 10.6935 0)
(-0.776424 10.8619 0)
(-0.777321 11.0414 0)
(-0.750874 11.229 0)
(-0.702972 11.4154 0)
(-0.647083 11.5942 0)
(-0.585952 11.7654 0)
(-0.521889 11.9277 0)
(-0.459948 12.0977 0)
(-0.399273 12.2719 0)
(-0.33751 12.4228 0)
(-0.275916 12.5389 0)
(-0.214964 12.6092 0)
(-0.156166 12.6252 0)
(-0.0990617 12.5478 0)
(-0.0489281 12.132 0)
(-0.0100465 10.5673 0)
(-0.00817665 10.0054 0)
(-0.00353861 10.0048 -1.78177e-18)
(-0.000694962 10.0037 -8.79478e-19)
(0.000663152 10.0023 4.15967e-19)
(0.000991411 10.0009 -3.93129e-19)
(0.000424929 10.0001 0)
(-0.0149245 10.0051 0)
(-0.0244042 10.0039 0)
(-0.03728 10.002 0)
(-0.0543549 9.9994 0)
(-0.0765471 9.99655 0)
(-0.104856 9.99407 0)
(-0.140309 9.99299 0)
(-0.183871 9.99481 0)
(-0.236314 10.0016 0)
(-0.298005 10.0162 0)
(-0.368627 10.042 0)
(-0.446827 10.0831 0)
(-0.529772 10.1444 0)
(-0.612857 10.2299 0)
(-0.691143 10.3395 0)
(-0.760625 10.4709 0)
(-0.81662 10.6228 0)
(-0.854721 10.7924 0)
(-0.871179 10.976 0)
(-0.863165 11.1689 0)
(-0.825579 11.3679 0)
(-0.765796 11.563 0)
(-0.698981 11.7482 0)
(-0.628108 11.9233 0)
(-0.559466 12.1065 0)
(-0.492352 12.2968 0)
(-0.423791 12.4699 0)
(-0.355566 12.6182 0)
(-0.288795 12.7314 0)
(-0.223749 12.7991 0)
(-0.161889 12.8116 0)
(-0.102683 12.7255 0)
(-0.0506366 12.284 0)
(-0.0111213 10.6706 0)
(-0.0148401 10.0044 0)
(-0.00807397 10.0048 3.75767e-18)
(-0.00347888 10.0044 0)
(-0.00074137 10.0034 8.77221e-19)
(0.000576143 10.0021 1.3764e-22)
(0.000905611 10.0009 0)
(0.000382565 10.0001 0)
(-0.0241719 10.003 0)
(-0.0368788 10.0005 0)
(-0.0537288 9.99715 0)
(-0.0756386 9.9932 0)
(-0.103626 9.98914 0)
(-0.138765 9.98584 0)
(-0.182112 9.98458 0)
(-0.234606 9.98718 0)
(-0.296891 9.99614 0)
(-0.369076 10.0147 0)
(-0.450438 10.0467 0)
(-0.538995 10.0967 0)
(-0.631086 10.1698 0)
(-0.721139 10.2699 0)
(-0.803534 10.3961 0)
(-0.874036 10.5448 0)
(-0.927812 10.7139 0)
(-0.960558 10.9 0)
(-0.968868 11.0984 0)
(-0.950454 11.304 0)
(-0.900545 11.5131 0)
(-0.828096 11.7157 0)
(-0.749885 11.9056 0)
(-0.673765 12.102 0)
(-0.599137 12.3056 0)
(-0.522652 12.4947 0)
(-0.446434 12.6646 0)
(-0.372007 12.8087 0)
(-0.30037 12.9176 0)
(-0.23157 12.9816 0)
(-0.166915 12.9895 0)
(-0.105856 12.8944 0)
(-0.052088 12.4284 0)
(-0.0120316 10.7702 0)
(-0.0239791 10.0021 0)
(-0.0145876 10.0037 4.92218e-22)
(-0.00783317 10.0042 0)
(-0.00341875 10.0039 -9.24958e-19)
(-0.00077798 10.0031 8.51248e-23)
(0.000495483 10.002 0)
(0.000823752 10.0008 0)
(0.0003427 10.0001 0)
(-0.0364767 9.99918 0)
(-0.0531017 9.99517 0)
(-0.0747205 9.99023 0)
(-0.102354 9.98478 0)
(-0.137105 9.9795 0)
(-0.180096 9.97548 0)
(-0.232387 9.97433 0)
(-0.294831 9.97824 0)
(-0.36788 9.99012 0)
(-0.45132 10.0136 0)
(-0.543895 10.0531 0)
(-0.642899 10.1136 0)
(-0.743751 10.2 0)
(-0.839863 10.3162 0)
(-0.924996 10.4602 0)
(-0.994836 10.6271 0)
(-1.04455 10.8139 0)
(-1.07011 11.0161 0)
(-1.06859 11.2286 0)
(-1.03836 11.4458 0)
(-0.975082 11.6639 0)
(-0.88929 11.8723 0)
(-0.805058 12.0841 0)
(-0.722001 12.3014 0)
(-0.636242 12.5039 0)
(-0.550626 12.6895 0)
(-0.467059 12.8545 0)
(-0.386789 12.9932 0)
(-0.310649 13.0969 0)
(-0.238448 13.1562 0)
(-0.171275 13.1587 0)
(-0.108597 13.0542 0)
(-0.0533079 12.565 0)
(-0.0127941 10.8655 0)
(-0.036141 9.99802 0)
(-0.0235185 10.0011 -2.08777e-18)
(-0.0140779 10.0029 0)
(-0.00759967 10.0036 0)
(-0.00334395 10.0035 2.76657e-18)
(-0.000804973 10.0028 0)
(0.000421212 10.0018 0)
(0.000745943 10.0007 7.7741e-19)
(0.000305364 10.0001 0)
(-0.0524807 9.99341 0)
(-0.0738092 9.98761 0)
(-0.101077 9.98091 0)
(-0.135397 9.97388 0)
(-0.177935 9.96742 0)
(-0.22984 9.9629 0)
(-0.292124 9.96228 0)
(-0.3655 9.96814 0)
(-0.450169 9.98386 0)
(-0.545473 10.0135 0)
(-0.649531 10.062 0)
(-0.758815 10.1344 0)
(-0.867749 10.2358 0)
(-0.968696 10.3696 0)
(-1.05492 10.5325 0)
(-1.1222 10.7181 0)
(-1.1659 10.9225 0)
(-1.18239 11.1405 0)
(-1.16941 11.3662 0)
(-1.12609 11.5938 0)
(-1.0485 11.8191 0)
(-0.95572 12.0505 0)
(-0.863409 12.2838 0)
(-0.767145 12.5003 0)
(-0.670514 12.6993 0)
(-0.576124 12.8797 0)
(-0.485621 13.0386 0)
(-0.399935 13.1709 0)
(-0.319675 13.2686 0)
(-0.244431 13.3224 0)
(-0.175014 13.319 0)
(-0.110938 13.2052 0)
(-0.0543227 12.694 0)
(-0.0134271 10.9563 0)
(-0.0519617 9.99185 0)
(-0.0354001 9.99673 0)
(-0.0226277 10 -2.17272e-18)
(-0.0135888 10.0021 -2.056e-18)
(-0.00734477 10.003 -3.88864e-18)
(-0.00325439 10.0031 0)
(-0.00082235 10.0025 -1.73646e-18)
(0.000353482 10.0017 -1.6397e-18)
(0.000672199 10.0007 7.73717e-19)
(0.00027051 10.0001 0)
(-0.0729118 9.98528 0)
(-0.0998153 9.97749 0)
(-0.133688 9.9689 0)
(-0.175714 9.96026 0)
(-0.227109 9.95276 0)
(-0.289001 9.94806 0)
(-0.362304 9.94851 0)
(-0.447544 9.95715 0)
(-0.544555 9.9778 0)
(-0.65215 10.015 0)
(-0.767726 10.0739 0)
(-0.886839 10.1599 0)
(-1.00285 10.2779 0)
(-1.10711 10.4307 0)
(-1.19251 10.6133 0)
(-1.25518 10.818 0)
(-1.2908 11.0398 0)
(-1.29638 11.2727 0)
(-1.27041 11.5106 0)
(-1.21282 11.7469 0)
(-1.12846 11.9963 0)
(-1.02614 12.2503 0)
(-0.918082 12.4835 0)
(-0.80887 12.6967 0)
(-0.701786 12.8904 0)
(-0.5991 13.0643 0)
(-0.502145 13.2161 0)
(-0.411502 13.3412 0)
(-0.32752 13.4322 0)
(-0.249581 13.4801 0)
(-0.178183 13.4705 0)
(-0.112915 13.3474 0)
(-0.0551581 12.8154 0)
(-0.0139477 11.0422 0)
(-0.0721636 9.98323 0)
(-0.0508524 9.99016 -2.32153e-18)
(-0.0339862 9.99531 2.28856e-18)
(-0.0217798 9.99897 -1.17695e-21)
(-0.0130692 10.0013 2.04903e-18)
(-0.00706835 10.0025 1.93754e-18)
(-0.00315058 10.0027 3.66126e-18)
(-0.000829978 10.0023 2.59319e-18)
(0.000292265 10.0015 -8.15938e-19)
(0.000602563 10.0006 0)
(0.000238124 10.0001 0)
(-0.0985767 9.97446 0)
(-0.132003 9.96449 0)
(-0.173495 9.95392 0)
(-0.224301 9.94375 0)
(-0.285638 9.93543 0)
(-0.358575 9.93101 0)
(-0.44389 9.93325 0)
(-0.541811 9.94564 0)
(-0.65173 9.97248 0)
(-0.771832 10.0187 0)
(-0.89869 10.0898 0)
(-1.02686 10.191 0)
(-1.14864 10.3271 0)
(-1.25438 10.5 0)
(-1.33684 10.703 0)
(-1.3927 10.9268 0)
(-1.41819 11.1654 0)
(-1.41105 11.4124 0)
(-1.37064 11.6607 0)
(-1.30764 11.9226 0)
(-1.21353 12.1962 0)
(-1.09233 12.451 0)
(-0.968711 12.6812 0)
(-0.846977 12.8891 0)
(-0.729999 13.0761 0)
(-0.619588 13.2424 0)
(-0.516706 13.3864 0)
(-0.421582 13.5037 0)
(-0.33427 13.5877 0)
(-0.253968 13.6292 0)
(-0.180839 13.6131 0)
(-0.114565 13.481 0)
(-0.0558377 12.9293 0)
(-0.0143721 11.1233 0)
(-0.097548 9.97177 0)
(-0.0705796 9.98103 -3.46696e-21)
(-0.0487391 9.98833 0)
(-0.0326498 9.99393 -1.89027e-21)
(-0.0208891 9.99795 0)
(-0.0125186 10.0005 -2.04169e-18)
(-0.00677126 10.0019 -3.85924e-18)
(-0.00303237 10.0023 8.93329e-23)
(-0.000828034 10.0021 1.72032e-18)
(0.000237275 10.0014 -8.11585e-19)
(0.000537024 10.0005 7.65333e-19)
(0.000208174 10.0001 0)
(-0.13035 9.96057 0)
(-0.171309 9.94829 0)
(-0.221493 9.93575 0)
(-0.282171 9.92419 0)
(-0.354534 9.91543 0)
(-0.439556 9.9119 0)
(-0.537779 9.91681 0)
(-0.649063 9.93413 0)
(-0.772263 9.96859 0)
(-0.904836 10.0255 0)
(-1.04243 10.1104 0)
(-1.17858 10.2286 0)
(-1.30449 10.3841 0)
(-1.40963 10.5781 0)
(-1.48685 10.8019 0)
(-1.53363 11.0444 0)
(-1.54694 11.2991 0)
(-1.52536 11.5585 0)
(-1.48068 11.834 0)
(-1.40893 12.1217 0)
(-1.29378 12.3977 0)
(-1.15381 12.6503 0)
(-1.01508 12.8753 0)
(-0.881409 13.0763 0)
(-0.755187 13.2555 0)
(-0.637679 13.4135 0)
(-0.529419 13.5489 0)
(-0.430286 13.6582 0)
(-0.340025 13.7348 0)
(-0.257669 13.7698 0)
(-0.183041 13.7472 0)
(-0.115926 13.6063 0)
(-0.0563833 13.0361 0)
(-0.0147148 11.1997 0)
(-0.128986 9.95711 0)
(-0.095362 9.96894 2.57472e-18)
(-0.0675498 9.9787 -2.54427e-18)
(-0.0467538 9.98658 2.4048e-18)
(-0.0312551 9.99262 0)
(-0.0199548 9.99697 0)
(-0.011939 9.99982 2.03332e-18)
(-0.00645402 10.0014 -1.92065e-18)
(-0.00289984 10.002 1.19402e-22)
(-0.000816123 10.0018 8.55671e-19)
(0.000188601 10.0013 -8.07022e-19)
(0.000475502 10.0005 -7.59958e-19)
(0.000180788 10.0001 0)
(-0.169165 9.9433 0)
(-0.218723 9.92865 0)
(-0.278698 9.91422 0)
(-0.35035 9.90156 0)
(-0.434812 9.89287 0)
(-0.53288 9.89102 0)
(-0.644789 9.89968 0)
(-0.769948 9.92327 0)
(-0.906573 9.96693 0)
(-1.05129 10.0362 0)
(-1.19878 10.1367 0)
(-1.34148 10.2734 0)
(-1.46959 10.4496 0)
(-1.57182 10.6653 0)
(-1.64137 10.9099 0)
(-1.67681 11.1707 0)
(-1.67593 11.44 0)
(-1.6515 11.7283 0)
(-1.59882 12.0317 0)
(-1.5049 12.3238 0)
(-1.36859 12.5988 0)
(-1.21029 12.8466 0)
(-1.0571 13.0647 0)
(-0.912223 13.2575 0)
(-0.777457 13.4279 0)
(-0.653505 13.5769 0)
(-0.540419 13.7036 0)
(-0.437734 13.8046 0)
(-0.344888 13.8737 0)
(-0.26076 13.9021 0)
(-0.184843 13.873 0)
(-0.117034 13.7236 0)
(-0.0568158 13.136 0)
(-0.0149886 11.2713 0)
(-0.167406 9.93887 0)
(-0.126048 9.9535 0)
(-0.0911521 9.96601 2.67611e-18)
(-0.0647186 9.97648 -5.0755e-18)
(-0.0446899 9.9849 4.80042e-18)
(-0.0298004 9.99136 -4.53812e-18)
(-0.0189805 9.99604 0)
(-0.0113312 9.99914 2.02483e-18)
(-0.0061169 10.0009 -1.91107e-18)
(-0.00275434 10.0016 -1.80387e-18)
(-0.000793578 10.0016 0)
(0.000145968 10.0011 8.0133e-19)
(0.000418128 10.0004 0)
(0.000156471 10 0)
(-0.216006 9.92235 0)
(-0.275264 9.90535 0)
(-0.346142 9.88923 0)
(-0.429868 9.87592 0)
(-0.527442 9.86799 0)
(-0.639414 9.8688 0)
(-0.765642 9.88246 0)
(-0.904979 9.91385 0)
(-1.0549 9.96843 0)
(-1.21113 10.0519 0)
(-1.36732 10.1697 0)
(-1.51486 10.3263 0)
(-1.64299 10.5243 0)
(-1.73983 10.7621 0)
(-1.79922 11.0272 0)
(-1.82102 11.305 0)
(-1.81903 11.605 0)
(-1.78766 11.9235 0)
(-1.71136 12.2337 0)
(-1.5948 12.5266 0)
(-1.43756 12.7978 0)
(-1.26164 13.0387 0)
(-1.09482 13.2483 0)
(-0.939551 13.4319 0)
(-0.796971 13.5928 0)
(-0.667225 13.7325 0)
(-0.549854 13.8502 0)
(-0.44405 13.9428 0)
(-0.348958 14.0045 0)
(-0.263313 14.0263 0)
(-0.1863 13.9908 0)
(-0.117923 13.8333 0)
(-0.0571527 13.2294 0)
(-0.0152036 11.3384 0)
(-0.213794 9.91676 0)
(-0.163546 9.93433 0)
(-0.120345 9.94983 0)
(-0.0872402 9.96322 5.3379e-18)
(-0.0617848 9.97437 -5.05145e-18)
(-0.0425462 9.98331 4.77687e-18)
(-0.0282924 9.99017 0)
(-0.0179678 9.99515 -2.13262e-18)
(-0.0106957 9.99849 0)
(-0.00576073 10.0005 1.90074e-18)
(-0.0025947 10.0013 0)
(-0.000762019 10.0014 0)
(0.000110568 10.001 0)
(0.000366172 10.0004 7.74686e-19)
(0.000135255 10 3.73149e-19)
(-0.271891 9.89747 0)
(-0.341968 9.87827 0)
(-0.424873 9.86082 0)
(-0.521725 9.84745 0)
(-0.633336 9.84117 0)
(-0.759945 9.84581 0)
(-0.900934 9.86592 0)
(-1.0545 9.90679 0)
(-1.2173 9.97409 0)
(-1.38409 10.0735 0)
(-1.54748 10.2103 0)
(-1.69786 10.3881 0)
(-1.82359 10.6085 0)
(-1.91246 10.8686 0)
(-1.95914 11.1533 0)
(-1.982 11.4638 0)
(-1.9745 11.7966 0)
(-1.91819 12.1247 0)
(-1.81742 12.4377 0)
(-1.67814 12.7283 0)
(-1.5005 12.9933 0)
(-1.30784 13.2255 0)
(-1.12837 13.4255 0)
(-0.963581 13.5989 0)
(-0.813933 13.7499 0)
(-0.679019 13.8801 0)
(-0.557879 13.9888 0)
(-0.449359 14.0731 0)
(-0.35233 14.1274 0)
(-0.265398 14.1426 0)
(-0.187459 14.101 0)
(-0.118624 13.9357 0)
(-0.0574095 13.3165 0)
(-0.015368 11.4011 0)
(-0.269172 9.89048 0)
(-0.208819 9.91106 0)
(-0.155987 9.92976 5.95358e-18)
(-0.115075 9.94635 5.63714e-18)
(-0.0831948 9.96057 5.33248e-18)
(-0.0587477 9.97237 -5.04113e-18)
(-0.0403333 9.98181 0)
(-0.0267333 9.98906 0)
(-0.0169178 9.99433 0)
(-0.0100339 9.99789 4.00747e-18)
(-0.00538758 10 1.89001e-18)
(-0.00242133 10.001 1.78048e-18)
(-0.00072146 10.0012 0)
(8.16713e-05 10.0009 -8.16785e-19)
(0.000319469 10.0004 -3.94127e-19)
(0.000116662 10 0)
(-0.337861 9.86852 0)
(-0.419892 9.84739 0)
(-0.51591 9.82913 0)
(-0.626869 9.81649 0)
(-0.753335 9.81295 0)
(-0.895146 9.82278 0)
(-1.05111 9.85099 0)
(-1.21869 9.90313 0)
(-1.39363 9.98502 0)
(-1.56972 10.1022 0)
(-1.73851 10.2594 0)
(-1.88946 10.4595 0)
(-2.0103 10.7029 0)
(-2.08847 10.9847 0)
(-2.13887 11.3041 0)
(-2.15816 11.6502 0)
(-2.12467 11.9959 0)
(-2.04209 12.3295 0)
(-1.91637 12.6421 0)
(-1.75465 12.9276 0)
(-1.55741 13.1841 0)
(-1.34906 13.4062 0)
(-1.15795 13.5955 0)
(-0.98454 13.7583 0)
(-0.828567 13.8991 0)
(-0.689076 14.0196 0)
(-0.564647 14.1194 0)
(-0.45378 14.1956 0)
(-0.355094 14.2427 0)
(-0.267079 14.2515 0)
(-0.188365 14.2038 0)
(-0.119165 14.0312 0)
(-0.0575973 13.3976 0)
(-0.0154933 11.4596 0)
(-0.334588 9.85986 0)
(-0.262861 9.8834 0)
(-0.198981 9.90542 -1.25252e-17)
(-0.14903 9.92544 1.78205e-20)