/*--------------------------------*- C++ -*----------------------------------*\
  =========                 |
  \\      /  F ield         | OpenFOAM: The Open Source CFD Toolbox
   \\    /   O peration     | Website:  https://openfoam.org
    \\  /    A nd           | Version:  8
     \\/     M anipulation  |
\*---------------------------------------------------------------------------*/
FoamFile
{
    version     2.0;
    format      ascii;
    class       volScalarField;
    location    "0.06";
    object      nut;
}
// * * * * * * * * * * * * * * * * * * * * * * * * * * * * * * * * * * * * * //

dimensions      [0 2 -1 0 0 0 0];

internalField   nonuniform List<scalar> 
15677
(
0.000168167
0.000652149
0.000148203
0.001512
0.00044313
0.0001413
0.00267186
0.000878304
0.000381092
0.000142201
0.00391601
0.00152291
0.000687415
0.000354371
0.000145345
0.00501869
0.00236068
0.00114811
0.000586175
0.00034036
0.000151132
0.00583645
0.00332148
0.0017831
0.000948897
0.000529667
0.00033208
0.000156948
0.00633324
0.00430143
0.00257008
0.00146493
0.000821694
0.000492728
0.00032704
0.000162396
0.00656219
0.00518841
0.00345492
0.00213343
0.00125846
0.000737774
0.000467636
0.000324149
0.000167185
0.00665814
0.00589337
0.0043566
0.00292386
0.00184311
0.00111315
0.000677774
0.000450591
0.000322583
0.000171408
0.00670536
0.00633813
0.00518138
0.0037803
0.00255865
0.00163292
0.00100526
0.000634436
0.000438836
0.000322009
0.000174973
0.00671432
0.00655339
0.00584541
0.00462607
0.00336431
0.00228777
0.00147358
0.000924801
0.00060249
0.000430873
0.000321962
0.000178103
0.00670988
0.00666152
0.00629553
0.00537743
0.00419819
0.00304652
0.00207889
0.00134988
0.000862765
0.000578828
0.000425426
0.000322428
0.000180713
0.00670626
0.00669877
0.00652945
0.00596447
0.00498502
0.00385834
0.00279688
0.0019128
0.00125204
0.000814574
0.000561111
0.000421924
0.000323076
0.000183061
0.0067054
0.00670438
0.00664671
0.00635685
0.0056505
0.00465658
0.00358439
0.00259474
0.00177887
0.00117373
0.000776825
0.000547925
0.000419609
0.000323978
0.000185107
0.00670548
0.00670283
0.00668783
0.0065629
0.00614216
0.00536888
0.00438214
0.00335811
0.00242914
0.00166907
0.00111039
0.000747063
0.000537892
0.00041836
0.000324824
0.000186914
0.00670568
0.00670156
0.00669638
0.00665652
0.00644669
0.00593381
0.00512158
0.00414966
0.00316978
0.00229111
0.00157887
0.00105874
0.000723476
0.00053061
0.000417491
0.000325867
0.00018857
0.0067058
0.00670105
0.00669716
0.00668486
0.00660478
0.00632179
0.00573777
0.00490469
0.00395221
0.00301064
0.00217613
0.00150387
0.00101696
0.000705004
0.000524954
0.000417358
0.000326797
0.000189982
0.00670587
0.00670089
0.00669682
0.00669157
0.00666368
0.00654121
0.00618837
0.00555753
0.00471549
0.00378278
0.00287636
0.00207938
0.00144193
0.000982964
0.000690285
0.000521081
0.0004173
0.000327883
0.000191414
0.0067059
0.00670085
0.00669658
0.00669258
0.00668232
0.00663446
0.0064678
0.00605836
0.00539459
0.00454988
0.00363782
0.00276225
0.00199843
0.00139058
0.000955397
0.000678946
0.000518052
0.000417832
0.000328857
0.000192527
0.00670591
0.00670083
0.00669649
0.00669246
0.00668739
0.00666897
0.006598
0.00638971
0.0059354
0.00524812
0.00440577
0.0035134
0.00266574
0.00193064
0.00134843
0.000933247
0.00067005
0.000516331
0.000418249
0.000329939
0.000193861
0.00670592
0.00670081
0.00669647
0.00669228
0.00668841
0.00668055
0.00665146
0.00655632
0.00631122
0.00582075
0.0051178
0.00428049
0.00340713
0.00258437
0.00187451
0.00131404
0.000915747
0.000663497
0.000514983
0.000419201
0.000330971
0.000194745
0.00670592
0.0067008
0.00669647
0.00669218
0.00668847
0.00668384
0.00667187
0.0066304
0.0065114
0.00623389
0.00571571
0.0050026
0.00417241
0.00331707
0.00251648
0.0018285
0.00128659
0.000902082
0.000658661
0.000514741
0.000419919
0.000332017
0.00019607
0.00670592
0.00670079
0.00669646
0.00669212
0.0066884
0.00668453
0.00667885
0.00666128
0.00660625
0.00646574
0.00616083
0.00562104
0.00490212
0.00408016
0.00324131
0.00246075
0.0017916
0.00126512
0.000892135
0.000655536
0.000514502
0.000421165
0.000333181
0.000196791
0.00670592
0.00670079
0.00669646
0.00669209
0.00668835
0.00668456
0.00668092
0.00667298
0.00664878
0.00658106
0.00641964
0.00609376
0.00553713
0.00481522
0.00400202
0.00317938
0.00241617
0.00176319
0.00124924
0.000884796
0.00065365
0.000515398
0.000422095
0.000334099
0.000198119
0.00670591
0.00670079
0.00669645
0.00669206
0.00668832
0.00668446
0.00668141
0.00667693
0.00666635
0.00663549
0.00655425
0.0063775
0.00603201
0.00546323
0.00474184
0.00393885
0.00312984
0.00238179
0.00174173
0.00123788
0.000880809
0.000653156
0.000515884
0.0004236
0.000335582
0.00019882
0.00670591
0.0067008
0.00669644
0.00669205
0.0066883
0.00668437
0.00668145
0.00667805
0.00667298
0.00665928
0.00662102
0.00652981
0.00633608
0.00597789
0.00540219
0.00468226
0.00388694
0.00309128
0.00235651
0.00172853
0.00123227
0.000878745
0.000653648
0.000517838
0.000424636
0.00033637
5.3391e-05
0.0067059
0.00670081
0.00669643
0.00669204
0.00668828
0.00668431
0.00668141
0.00667825
0.00667522
0.00666884
0.00665183
0.0066079
0.00650476
0.00630322
0.00593299
0.00534937
0.00463273
0.00385028
0.00306731
0.00234326
0.00172217
0.00122962
0.000879583
0.000655477
0.000519002
0.000427121
0.000283991
6.3461e-05
0.00670589
0.00670082
0.00669642
0.00669204
0.00668827
0.00668427
0.00668136
0.00667818
0.00667584
0.00667232
0.00666503
0.00664529
0.00659449
0.00648631
0.00626974
0.00589268
0.00531326
0.0046047
0.00382836
0.00305282
0.00233598
0.0017205
0.00123124
0.0008821
0.000657519
0.000521526
0.000420811
0.000219933
7.09662e-05
0.00670588
0.00670083
0.00669641
0.00669204
0.00668825
0.00668424
0.00668132
0.00667808
0.00667594
0.00667337
0.00667024
0.00666197
0.00663911
0.0065856
0.00646688
0.00624857
0.00587361
0.0052901
0.00458345
0.003814
0.00304635
0.00233557
0.00172459
0.00123672
0.000886244
0.000660703
0.00052284
0.00040133
0.000178278
7.65347e-05
0.00670587
0.00670084
0.00669639
0.00669205
0.00668823
0.00668423
0.00668128
0.00667799
0.0066759
0.00667353
0.00667209
0.00666884
0.00665989
0.00663623
0.00657678
0.00645805
0.00624079
0.00585783
0.00527439
0.00457205
0.00381059
0.00305033
0.00234426
0.00173506
0.00124536
0.000892518
0.000664776
0.000521127
0.000368744
0.000152641
8.10871e-05
0.00670586
0.00670085
0.00669638
0.00669205
0.00668821
0.00668422
0.00668124
0.00667792
0.00667583
0.00667345
0.00667259
0.00667133
0.00666893
0.00666044
0.00663442
0.00657778
0.00645733
0.00623532
0.0058502
0.00527078
0.00457628
0.00382191
0.00306586
0.00236126
0.00175049
0.00125778
0.000900477
0.000668613
0.000515679
0.000337628
0.000134177
8.46377e-05
0.00670586
0.00670086
0.00669637
0.00669206
0.00668818
0.00668423
0.0066812
0.00667787
0.00667575
0.00667331
0.00667265
0.006672
0.00667255
0.00667123
0.0066629
0.006642
0.00658188
0.00646184
0.00623768
0.00585811
0.0052846
0.00459552
0.00384553
0.00309141
0.00238566
0.00177118
0.00127312
0.000909896
0.000672491
0.000505047
0.000307572
0.000121084
8.71949e-05
0.00670585
0.00670087
0.00669636
0.00669207
0.00668816
0.00668424
0.00668115
0.00667783
0.00667568
0.00667318
0.00667258
0.00667203
0.00667376
0.0066756
0.00667616
0.00667451
0.00664965
0.00659266
0.00647398
0.00625647
0.00588207
0.00531308
0.00462882
0.00388137
0.00312684
0.00241743
0.00179638
0.0012918
0.000920652
0.000675003
0.000490458
0.000281545
0.000112484
8.91178e-05
0.00670585
0.00670087
0.00669636
0.00669208
0.00668814
0.00668425
0.00668111
0.00667782
0.0066756
0.00667308
0.00667248
0.00667188
0.00667406
0.00667702
0.00668195
0.00669004
0.00668445
0.0066648
0.00661396
0.00650111
0.00628982
0.00592114
0.00535724
0.00467634
0.00392947
0.00317197
0.00245623
0.00182636
0.00131289
0.000932529
0.000676496
0.000474323
0.00026185
0.000106624
9.06349e-05
0.00670088
0.00670584
0.00669635
0.00669208
0.00668812
0.00668426
0.00668107
0.00667781
0.00667553
0.00667301
0.00667238
0.0066717
0.00667405
0.00667731
0.00668413
0.006697
0.00670138
0.00670253
0.00669264
0.00664767
0.00654262
0.00633855
0.00597695
0.00541722
0.00473833
0.00398982
0.00322676
0.00250198
0.00186051
0.00133712
0.000947098
0.000677362
0.000460264
0.000246733
0.00010249
9.18867e-05
0.00669634
0.00670091
0.00670585
0.00669209
0.00668811
0.00668427
0.00668103
0.00667781
0.00667545
0.00667296
0.00667226
0.00667153
0.00667395
0.00667721
0.00668483
0.00669972
0.00670918
0.00672135
0.00673483
0.00673117
0.00669572
0.00659994
0.00640527
0.00605016
0.00549418
0.00481525
0.00406239
0.00329093
0.00255438
0.00189901
0.00136638
0.000964542
0.000678236
0.000448257
0.00023508
9.95308e-05
9.29633e-05
0.0066921
0.00669636
0.00670095
0.00670585
0.00668809
0.00668429
0.006681
0.00667782
0.00667537
0.00667293
0.00667215
0.00667138
0.00667382
0.00667699
0.00668498
0.00670063
0.00671242
0.00673035
0.00675663
0.00677693
0.00678438
0.00675982
0.00667578
0.00649077
0.00614253
0.00558868
0.00490681
0.00414708
0.00336436
0.00261322
0.00194657
0.00140167
0.000983479
0.000679413
0.000438543
0.000225853
9.734e-05
9.3916e-05
0.00668808
0.00669214
0.0066964
0.00670099
0.00670585
0.0066843
0.00668096
0.00667783
0.0066753
0.00667293
0.00667202
0.00667128
0.00667369
0.00667675
0.00668494
0.00670086
0.00671366
0.00673435
0.00676763
0.0068013
0.00683418
0.00685395
0.00684297
0.00677076
0.00659699
0.00625417
0.00570138
0.00501402
0.00424374
0.00344653
0.00268551
0.00200546
0.0014395
0.00100334
0.000682215
0.000430596
0.000218561
9.57325e-05
9.47819e-05
0.00668431
0.00668811
0.00669221
0.00669644
0.00670103
0.00670585
0.00668094
0.00667784
0.00667523
0.00667293
0.0066719
0.00667122
0.00667355
0.00667652
0.00668484
0.00670083
0.0067141
0.00673611
0.00677293
0.00681418
0.00686166
0.00690768
0.00694237
0.00694534
0.00688734
0.00672346
0.00638601
0.00583238
0.00513619
0.00435192
0.00354757
0.00277442
0.00206942
0.00147992
0.00102504
0.000685904
0.000424444
0.00021258
9.44918e-05
9.55768e-05
0.00668091
0.00668437
0.00668817
0.00669229
0.00669648
0.00670107
0.00670586
0.00667785
0.00667517
0.00667294
0.00667178
0.00667119
0.00667339
0.00667633
0.00668473
0.00670071
0.00671424
0.00673695
0.00677563
0.0068211
0.00687763
0.00693974
0.00700305
0.00705271
0.00707031
0.007024
0.00687118
0.00653739
0.00598014
0.00527437
0.00448516
0.00367122
0.00287131
0.00213821
0.0015222
0.00104721
0.000690801
0.000419603
0.000207638
9.35702e-05
9.63192e-05
0.00667786
0.00668093
0.00668449
0.00668824
0.00669236
0.00669653
0.00670112
0.00670586
0.00667511
0.00667296
0.00667166
0.00667119
0.00667322
0.00667618
0.00668463
0.00670056
0.00671426
0.00673739
0.0067772
0.00682503
0.00688701
0.00695924
0.00704053
0.00712103
0.00718936
0.00722106
0.00718541
0.00703788
0.00670678
0.00614469
0.00544248
0.00465019
0.00380718
0.00297518
0.0022111
0.00156701
0.00106941
0.000697061
0.000416025
0.000203494
9.28314e-05
9.70106e-05
0.00667506
0.00667793
0.006681
0.0066846
0.00668831
0.00669244
0.00669658
0.00670116
0.00670587
0.00667297
0.00667155
0.00667122
0.00667304
0.00667609
0.00668453
0.00670042
0.00671423
0.00673767
0.00677823
0.00682767
0.00689306
0.00697175
0.00706528
0.00716535
0.00726688
0.00735211
0.00740005
0.00737386
0.00722796
0.00689283
0.0063428
0.00564687
0.00482904
0.00395281
0.0030853
0.00228754
0.00161374
0.00109244
0.000704197
0.00041349
0.000200006
9.22839e-05
9.76637e-05
0.00667299
0.00667506
0.00667805
0.00668108
0.00668472
0.00668839
0.00669252
0.00669663
0.0067012
0.00670587
0.00667144
0.00667125
0.00667284
0.00667607
0.00668442
0.00670028
0.00671418
0.00673788
0.00677899
0.00682968
0.00689752
0.00698061
0.00708285
0.00719683
0.00732056
0.00744119
0.00754568
0.00760649
0.00758937
0.00744371
0.00711931
0.00658063
0.00586521
0.00501777
0.00410611
0.00320054
0.00236698
0.00166197
0.00111612
0.000712086
0.000411927
0.000197047
9.18289e-05
9.82735e-05
0.00667135
0.00667306
0.0066751
0.00667819
0.00668116
0.00668483
0.00668847
0.00669259
0.00669668
0.00670124
0.00670588
0.0066713
0.00667264
0.0066761
0.00668429
0.00670015
0.00671414
0.00673805
0.00677961
0.00683137
0.00690111
0.00698766
0.00709643
0.00722088
0.00736175
0.00750682
0.0076499
0.00776984
0.00784307
0.00783112
0.00771066
0.00740198
0.00683282
0.00609219
0.00521412
0.00426497
0.00331968
0.00244865
0.00171141
0.00114003
0.000720139
0.000411062
0.000194521
9.14983e-05
9.88524e-05
0.00667134
0.00667127
0.00667319
0.00667515
0.00667832
0.00668125
0.00668495
0.00668856
0.00669267
0.00669674
0.00670128
0.00670589
0.00667244
0.00667619
0.00668411
0.00670003
0.0067141
0.00673819
0.00678015
0.00683285
0.00690417
0.00699372
0.0071078
0.00724049
0.00739576
0.00756064
0.0077316
0.00789272
0.00802858
0.00811004
0.00812969
0.00803898
0.00771298
0.00710661
0.00632552
0.00541422
0.00442695
0.00344129
0.00253191
0.0017616
0.00116451
0.000728314
0.000410766
0.000192355
9.12134e-05
9.93914e-05
0.00667226
0.00667139
0.00667119
0.00667332
0.00667521
0.00667845
0.00668135
0.00668507
0.00668865
0.00669275
0.0066968
0.00670132
0.0067059
0.00667631
0.00668388
0.00669994
0.00671409
0.00673834
0.00678065
0.00683418
0.00690687
0.00699914
0.00711776
0.00725757
0.00742516
0.00760747
0.00780278
0.00799475
0.0081756
0.00832245
0.00844195
0.00849997
0.00839732
0.0080442
0.00739813
0.006568
0.00561584
0.00459049
0.0035644
0.00261605
0.00181222
0.00118932
0.000736645
0.000410878
0.000190481
9.10145e-05
9.99042e-05
0.00667646
0.00667194
0.00667145
0.00667111
0.00667345
0.00667528
0.00667858
0.00668146
0.00668518
0.00668875
0.00669282
0.00669687
0.00670135
0.00670592
0.00668359
0.0066999
0.0067141
0.0067385
0.00678111
0.00683539
0.00690929
0.00700406
0.00712666
0.00727304
0.00745162
0.00764909
0.00786796
0.00808865
0.00830457
0.00849922
0.0086909
0.00885742
0.00890741
0.00878245
0.0083929
0.0077017
0.00682034
0.00581845
0.004754
0.00368744
0.00270037
0.00186294
0.00121428
0.000745023
0.000411411
0.000188866
9.08364e-05
0.000100379
0.00668324
0.00667649
0.00667145
0.00667152
0.00667106
0.00667357
0.00667538
0.0066787
0.00668158
0.00668529
0.00668885
0.0066929
0.00669694
0.00670139
0.00670593
0.00669992
0.00671414
0.00673866
0.00678154
0.00683649
0.00691147
0.00700855
0.0071347
0.00728729
0.00747585
0.00768716
0.00792831
0.00817829
0.00842859
0.0086618
0.00890946
0.0091578
0.00931975
0.00934971
0.00919164
0.00875638
0.00801293
0.00707909
0.00602132
0.00491509
0.00380942
0.00278424
0.00191345
0.00123918
0.000753474
0.000412032
0.000187458
9.0721e-05
0.000100832
0.00670005
0.00668217
0.00667643
0.00667096
0.00667158
0.00667104
0.00667368
0.00667549
0.00667882
0.00668171
0.0066854
0.00668896
0.00669298
0.00669701
0.00670143
0.00670594
0.00671421
0.00673884
0.00678194
0.00683749
0.00691346
0.00701264
0.00714202
0.0073005
0.0074981
0.00772265
0.00798527
0.00826291
0.00855028
0.00882489
0.00912163
0.00943723
0.00968485
0.00982888
0.00982607
0.00962325
0.00913232
0.00832975
0.00734123
0.00622711
0.00507371
0.00392956
0.00286713
0.00196346
0.00126392
0.000761873
0.000412808
0.000186264
9.06131e-05
0.00010125
0.00671429
0.00669966
0.00668018
0.0066764
0.00667052
0.00667162
0.00667105
0.00667378
0.00667562
0.00667893
0.00668186
0.00668551
0.00668907
0.00669306
0.00669707
0.00670146
0.00670595
0.00673901
0.00678228
0.00683838
0.00691527
0.00701638
0.00714869
0.00731271
0.00751856
0.00775602
0.00803925
0.00834296
0.00866776
0.00899211
0.00934461
0.0097224
0.0100437
0.0102779
0.0103898
0.0103389
0.0100773
0.00951932
0.00865056
0.00760309
0.00643348
0.00522966
0.00404742
0.0029486
0.00201271
0.00128833
0.000770301
0.000413697
0.000185201
9.05519e-05
0.000101648
0.00673919
0.00671331
0.00669886
0.0066782
0.00667633
0.00667016
0.00667162
0.00667112
0.00667386
0.00667578
0.00667904
0.00668201
0.00668562
0.00668918
0.00669313
0.00669714
0.00670149
0.00670596
0.00678256
0.00683918
0.00691692
0.00701978
0.00715479
0.00732397
0.00753738
0.00778745
0.00809006
0.00841891
0.00878253
0.0091601
0.00957883
0.0100326
0.0104313
0.0107513
0.0109565
0.0110146
0.0108938
0.0105551
0.0099167
0.00897401
0.00786363
0.00663865
0.00538218
0.0041622
0.00302814
0.00206098
0.00131231
0.000778626
0.000414629
0.000184299
9.04907e-05
0.000102014
0.00678281
0.00673748
0.00671113
0.00669803
0.00667657
0.00667611
0.00666993
0.00667156
0.00667123
0.00667392
0.00667595
0.00667915
0.00668217
0.00668573
0.00668929
0.0066932
0.0066972
0.00670152
0.00670597
0.00683989
0.00691841
0.00702287
0.00716036
0.00733431
0.00755469
0.00781694
0.00813754
0.00849132
0.0088955
0.00932714
0.00981241
0.0103708
0.0108864
0.0113097
0.0116073
0.0117486
0.011717
0.011496
0.011058
0.0103239
0.00929902
0.00812194
0.00684144
0.0055317
0.00427315
0.00310541
0.00210805
0.00133577
0.000786883
0.000415625
0.000183504
9.04653e-05
0.000102363
0.00684057
0.00677985
0.00673369
0.00670887
0.00669679
0.00667547
0.00667569
0.00666985
0.00667145
0.00667139
0.00667397
0.00667614
0.00667926
0.00668232
0.00668584
0.0066894
0.00669328
0.00669726
0.00670156
0.00670599
0.00691977
0.00702566
0.00716545
0.00734377
0.00757061
0.00784447
0.00818169
0.00856066
0.00900592
0.00949003
0.0100431
0.0107373
0.0114418
0.0120306
0.0124355
0.0126495
0.0126691
0.0125011
0.0121458
0.011585
0.0107399
0.00962455
0.00837724
0.00704044
0.00567898
0.00438035
0.0031802
0.00215378
0.00135863
0.000794922
0.000416621
0.000182777
9.04354e-05
0.000102643
0.00692106
0.00683669
0.0067734
0.0067299
0.00670665
0.00669502
0.00667485
0.00667506
0.0066699
0.00667128
0.00667159
0.00667402
0.00667634
0.00667938
0.00668248
0.00668594
0.0066895
0.00669335
0.00669731
0.00670159
0.006706
0.00702819
0.00717009
0.0073524
0.00758524
0.00786999
0.00822269
0.00862701
0.00911211
0.00964658
0.0102769
0.0111502
0.0121069
0.0129539
0.0135259
0.0138114
0.0138607
0.0136996
0.0133539
0.0128354
0.0121318
0.0111625
0.00994937
0.00862873
0.00723442
0.00582311
0.00448378
0.00325237
0.00219803
0.00138081
0.000802794
0.00041765
0.000182152
9.04307e-05
0.000102878
0.00703054
0.00691564
0.0068278
0.00676684
0.00672632
0.00670442
0.00669288
0.00667467
0.00667425
0.00667006
0.0066711
0.00667182
0.00667408
0.00667653
0.0066795
0.00668262
0.00668605
0.00668959
0.00669342
0.00669737
0.00670162
0.00670601
0.0071743
0.00736024
0.00759865
0.00789354
0.00826074
0.0086901
0.00921257
0.00979724
0.0105227
0.0116203
0.01287
0.014011
0.0148372
0.0152566
0.0153345
0.0151659
0.0147917
0.0142468
0.0135494
0.012691
0.0115883
0.010272
0.0088756
0.00742305
0.00596341
0.00458342
0.0033218
0.00224072
0.00140226
0.000810476
0.000418693
0.000181663
9.04247e-05
0.000103132
0.00717817
0.0070232
0.00690277
0.00681903
0.0067605
0.00672296
0.00670225
0.00669018
0.00667482
0.00667333
0.00667029
0.00667091
0.00667204
0.00667415
0.00667671
0.00667962
0.00668275
0.00668616
0.00668968
0.00669349
0.00669742
0.00670165
0.00670602
0.00736734
0.0076109
0.00791515
0.008296
0.00874952
0.00930666
0.00994426
0.010786
0.0121377
0.0136825
0.0150958
0.0161693
0.016815
0.0170127
0.0168602
0.0164702
0.015886
0.0151449
0.0142686
0.0132528
0.0120132
0.0105905
0.00911701
0.00760601
0.00609942
0.00467921
0.00338843
0.00228178
0.00142296
0.000817893
0.000419584
0.000181275
9.04282e-05
0.000103408
0.00737378
0.00716826
0.00700488
0.00688992
0.00681056
0.00675449
0.00671981
0.00670073
0.00668714
0.00667516
0.00667239
0.00667053
0.00667076
0.00667225
0.00667425
0.00667687
0.00667975
0.00668288
0.00668627
0.00668977
0.00669356
0.00669747
0.00670168
0.00670602
0.00762205
0.0079349
0.00832857
0.00880493
0.00939457
0.01009
0.0110652
0.0126772
0.014482
0.016107
0.0173676
0.018214
0.0186337
0.0186237
0.0182735
0.0176959
0.016931
0.0160156
0.0149741
0.0138074
0.0124326
0.0109032
0.00935214
0.007783
0.0062308
0.00477112
0.00345224
0.00232116
0.00144285
0.000824104
0.000420367
0.000180862
9.04324e-05
0.000103706
0.00763215
0.0073609
0.00714247
0.00698654
0.00687745
0.00680235
0.00674878
0.00671677
0.0066996
0.00668401
0.00667554
0.00667153
0.00667074
0.00667068
0.00667242
0.00667436
0.00667702
0.00667988
0.006683
0.00668637
0.00668985
0.00669363
0.00669751
0.00670169
0.00670602
0.00795288
0.00835853
0.00885618
0.00947698
0.0102354
0.0113532
0.01321
0.0152182
0.0169802
0.0183525
0.0193318
0.0199379
0.0201677
0.0200044
0.0195122
0.0187964
0.0178922
0.0168345
0.0156501
0.0143455
0.0128421
0.011208
0.00958024
0.00795374
0.00635727
0.00485913
0.00351321
0.00235885
0.00145942
0.000829449
0.000421253
0.000180448
9.04488e-05
0.000104034
0.00796901
0.00761543
0.00732524
0.00711665
0.00696866
0.00686532
0.00679434
0.00674323
0.00671395
0.0066986
0.00668102
0.0066758
0.00667084
0.00667085
0.00667068
0.00667255
0.0066745
0.00667715
0.00668002
0.00668311
0.00668648
0.00668993
0.0066937
0.00669754
0.00670169
0.00670602
0.00838599
0.0089033
0.00955467
0.0103802
0.0116401
0.0137125
0.0158623
0.0176919
0.0191068
0.0201493
0.0208715
0.0212923
0.0213927
0.0211357
0.0205573
0.0197529
0.0187521
0.0175868
0.0162852
0.0148599
0.0132377
0.0115032
0.00980058
0.00811798
0.0064787
0.00494325
0.0035714
0.00239008
0.00147362
0.000835388
0.000422266
0.000180005
9.04654e-05
0.000104388
0.00841059
0.00794789
0.00756652
0.00728951
0.00709145
0.00695124
0.0068535
0.00678644
0.00673796
0.00671128
0.00669761
0.00667842
0.00667579
0.00667039
0.00667087
0.00667074
0.00667266
0.00667465
0.00667728
0.00668016
0.00668322
0.00668658
0.00669001
0.00669373
0.00669754
0.00670169
0.00670602
0.00894655
0.00962823
0.0105226
0.0119165
0.0141701
0.0164055
0.0182472
0.0196509
0.0206985
0.0214707
0.0220082
0.0223087
0.0223352
0.0220339
0.0214158
0.0205652
0.0195057
0.0182655
0.0168729
0.0153453
0.0136165
0.0117873
0.0100125
0.00827553
0.00659497
0.00502348
0.00361933
0.00241675
0.00148932
0.000842
0.000423414
0.000179566
9.0498e-05
0.000104777
0.00898512
0.00838373
0.00788173
0.00751752
0.00725455
0.00706687
0.00693425
0.00684193
0.00677861
0.00673311
0.00670864
0.00669651
0.00667664
0.00667544
0.00667017
0.00667081
0.00667085
0.00667275
0.00667481
0.00667739
0.0066803
0.00668332
0.00668668
0.00669005
0.00669374
0.00669754
0.00670169
0.00670602
0.00969803
0.0106604
0.0121752
0.0145761
0.0168514
0.0186656
0.0200205
0.0210309
0.0218003
0.0223886
0.0228106
0.0230442
0.0230388
0.0227297
0.022107
0.0212435
0.0201567
0.0188698
0.0174099
0.0157987
0.0139759
0.0120591
0.0102156
0.00842627
0.00670601
0.0050902
0.00366013
0.00244615
0.00150672
0.000849379
0.000424733
0.000179097
9.0532e-05
0.000105197
0.00976184
0.00895159
0.00829424
0.00781535
0.00746955
0.00722041
0.00704288
0.00691767
0.00683061
0.00677082
0.00672852
0.00670595
0.00669465
0.00667571
0.00667481
0.00667014
0.0066707
0.006671
0.00667282
0.00667497
0.0066775
0.00668043
0.00668342
0.00668674
0.00669005
0.00669374
0.00669754
0.00670169
0.00670602
0.0107919
0.0124158
0.0149305
0.0172106
0.0189714
0.0202538
0.0211985
0.021927
0.0225148
0.022992
0.0233513
0.0235561
0.0235483
0.0232569
0.0226543
0.0218028
0.0207129
0.0194025
0.0178964
0.0162185
0.0143147
0.0123178
0.0104094
0.00857008
0.0067977
0.0051473
0.00370495
0.00247859
0.00152604
0.00085763
0.000426233
0.000178641
9.05882e-05
0.000105658
0.0109102
0.00971944
0.00882957
0.00820474
0.00775024
0.00742266
0.00718707
0.00701948
0.0069015
0.00681957
0.00676318
0.0067241
0.0067033
0.00669217
0.00667541
0.00667401
0.00667022
0.00667057
0.00667117
0.00667288
0.00667514
0.00667761
0.00668057
0.00668346
0.00668674
0.00669004
0.00669374
0.00669754
0.00670169
0.00670602
0.0126384
0.015234
0.0174961
0.0191881
0.0203846
0.0212466
0.0219086
0.0224584
0.0229398
0.0233588
0.0236919
0.0238938
0.0239035
0.0236466
0.0230814
0.0222595
0.0211847
0.019869
0.0183339
0.0166046
0.0146321
0.0125627
0.0105938
0.00868887
0.00687581
0.00521036
0.0037543
0.00251445
0.00154754
0.00086688
0.000427963
0.000178141
9.06477e-05
0.000106155
0.0108627
0.0128339
0.00954011
0.00870968
0.00811673
0.00768654
0.00737683
0.00715452
0.00699669
0.00688578
0.0068089
0.00675567
0.00672003
0.00670087
0.00668911
0.00667548
0.00667316
0.00667036
0.00667044
0.00667134
0.00667295
0.0066753
0.00667771
0.00668064
0.00668345
0.00668674
0.00669004
0.00669374
0.00669754
0.00670168
0.00670601
0.0154899
0.0177207
0.0193362
0.0204409
0.0212111
0.0217907
0.0222769
0.0227246
0.0231526
0.0235493
0.0238804
0.0240967
0.0241372
0.023926
0.0234094
0.0226291
0.0215826
0.0202755
0.0187256
0.016958
0.0149279
0.0127938
0.0107455
0.00879008
0.0069617
0.00528009
0.00380873
0.00255416
0.0015715
0.000877272
0.00042994
0.000177658
9.07373e-05
0.000106702
0.01059
0.0127822
0.0157011
0.00936836
0.00859262
0.00803041
0.00762424
0.00733205
0.00712281
0.00697453
0.00687058
0.00679877
0.00674852
0.00671641
0.00669939
0.00668597
0.00667569
0.00667236
0.00667051
0.00667033
0.00667151
0.00667302
0.00667546
0.00667775
0.00668065
0.00668345
0.00668674
0.00669005
0.00669373
0.00669751
0.00670165
0.006706
0.0178962
0.0194327
0.0204443
0.0211192
0.0216078
0.0220139
0.022401
0.0227996
0.02321
0.0236079
0.0239532
0.0241958
0.024276
0.0241178
0.0236568
0.0229261
0.0219168
0.0206286
0.019075
0.0172803
0.0152026
0.0129821
0.0108744
0.00890134
0.00705629
0.00535731
0.00386888
0.00259822
0.00159827
0.000888987
0.000432235
0.000177122
9.08341e-05
0.000107287
0.0103197
0.0124067
0.0156232
0.0180306
0.00920608
0.00847764
0.00794589
0.00756335
0.00728838
0.00709198
0.00695307
0.00685596
0.00678923
0.00674201
0.00671317
0.00669823
0.00668302
0.00667589
0.00667167
0.00667064
0.00667025
0.00667168
0.00667309
0.00667556
0.00667773
0.00668066
0.00668345
0.00668674
0.00669005
0.0066937
0.00669747
0.00670162
0.00670599
0.0194909
0.0204112
0.0209911
0.0213852
0.0217012
0.0220095
0.0223503
0.0227357
0.0231522
0.0235672
0.0239377
0.0242149
0.0243412
0.0242405
0.0238395
0.0231629
0.0221966
0.0209347
0.0193861
0.0175732
0.0154231
0.0131412
0.0110156
0.00902372
0.00716058
0.00544294
0.00393551
0.00264721
0.00162826
0.000902219
0.000434872
0.000176625
9.09721e-05
0.000107932
0.010066
0.0119937
0.0152728
0.0179172
0.0195143
0.00905063
0.00836451
0.00786328
0.00750391
0.0072459
0.00706209
0.00693237
0.00684205
0.00678033
0.00673604
0.00671034
0.0066972
0.00668045
0.00667596
0.00667112
0.00667073
0.0066702
0.00667184
0.00667311
0.00667558
0.00667772
0.00668066
0.00668345
0.00668674
0.00669001
0.00669363
0.00669742
0.00670159
0.00670597
0.0203539
0.0208415
0.0211409
0.0213622
0.0215799
0.0218425
0.0221731
0.0225694
0.0230078
0.0234505
0.0238541
0.0241724
0.0243496
0.0243093
0.0239702
0.0233502
0.0224304
0.0211997
0.0196625
0.0178036
0.0156075
0.0133142
0.0111702
0.00915845
0.00727573
0.00553802
0.00400949
0.0027018
0.00166194
0.000917232
0.000437956
0.000176069
9.11242e-05
0.000108615
0.00982946
0.0115813
0.014832
0.0176775
0.0193486
0.0202719
0.0088998
0.00825341
0.00778271
0.00744604
0.00720471
0.00703321
0.00691261
0.00682913
0.00677209
0.00673073
0.00670777
0.00669619
0.00667843
0.00667583
0.00667071
0.00667079
0.00667018
0.00667193
0.00667308
0.00667559
0.00667772
0.00668065
0.00668346
0.00668668
0.00668993
0.00669356
0.00669736
0.00670156
0.00670596
0.0206807
0.0208877
0.0210132
0.0211339
0.0213044
0.0215573
0.0219024
0.0223262
0.022797
0.0232748
0.023718
0.0240827
0.0243146
0.0243364
0.0240597
0.023497
0.0226254
0.0214291
0.019875
0.0179939
0.0158057
0.013502
0.0113396
0.00930684
0.00740303
0.00564376
0.00409181
0.00276279
0.00169986
0.000934299
0.000441528
0.000175585
9.13343e-05
0.000109371
0.00960742
0.011186
0.0143356
0.0173601
0.0191842
0.0200534
0.0205041
0.00875261
0.00814465
0.00770433
0.00738986
0.0071649
0.00700561
0.00689427
0.0068173
0.00676447
0.0067261
0.00670535
0.00669497
0.00667715
0.00667552
0.00667044
0.00667083
0.00667015
0.00667196
0.00667306
0.00667559
0.00667773
0.00668064
0.00668342
0.00668658
0.00668985
0.00669349
0.00669731
0.00670152
0.00670595
0.0206345
0.0206658
0.0206867
0.0207568
0.0209157
0.0211845
0.0215615
0.0220234
0.0225338
0.0230526
0.0235411
0.0239572
0.0242467
0.0243313
0.0241167
0.0236108
0.0227878
0.0216005
0.0200485
0.0181956
0.0160182
0.0137058
0.0115249
0.00947031
0.00754392
0.00576151
0.00418366
0.00283111
0.00174271
0.000953811
0.00044574
0.000175034
9.1571e-05
0.000110161
0.00939723
0.0108138
0.0138079
0.0169872
0.0189549
0.0199231
0.0202334
0.0203715
0.00860888
0.00803857
0.00762834
0.00733552
0.00712685
0.00697999
0.00687754
0.00680646
0.00675738
0.00672202
0.00670303
0.00669312
0.00667642
0.00667508
0.00667027
0.00667084
0.00667012
0.00667197
0.00667306
0.00667558
0.00667775
0.00668057
0.00668332
0.00668647
0.00668977
0.00669342
0.00669725
0.00670149
0.00670594
0.0203279
0.0202494
0.0202147
0.0202688
0.0204423
0.0207456
0.0211659
0.0216732
0.0222284
0.0227937
0.0233331
0.0238051
0.0241546
0.024302
0.0241482
0.0236978
0.0229036
0.0217385
0.0202294
0.0184083
0.0162455
0.0139264
0.0117276
0.00965042
0.0077
0.00589284
0.00428642
0.00290791
0.00179127
0.000976163
0.000450665
0.000174613
9.18897e-05
0.000111185
0.00919696
0.0104674
0.013261
0.0165671
0.0186856
0.0197408
0.0201086
0.0200486
0.0199847
0.0084688
0.00793552
0.00755492
0.00728355
0.00709154
0.00695667
0.00686229
0.00679655
0.00675078
0.00671839
0.00670097
0.00669081
0.00667605
0.0066746
0.00667022
0.00667081
0.00667011
0.00667197
0.00667308
0.00667556
0.00667771
0.00668043
0.00668321
0.00668637
0.00668968
0.00669335
0.00669719
0.00670146
0.00670593
0.0198293
0.0196894
0.0196323
0.019697
0.019905
0.0202549
0.0207264
0.0212837
0.0218881
0.0225054
0.0231016
0.0236338
0.0240451
0.0242546
0.0241598
0.0237526
0.0229951
0.0218795
0.020417
0.018632
0.0164877
0.0141646
0.0119488
0.00984876
0.00787303
0.00603947
0.00440162
0.00299443
0.00184654
0.00100195
0.000456534
0.000174121
9.23325e-05
0.000112408
0.00900528
0.0101479
0.0127027
0.0161011
0.0183874
0.0195331
0.0199404
0.0199119
0.0196101
0.0194159
0.00833255
0.00783596
0.00748477
0.00723534
0.00705946
0.00693545
0.00684839
0.00678755
0.00674464
0.00671527
0.00669947
0.0066884
0.00667586
0.00667422
0.00667027
0.0066708
0.00667011
0.00667196
0.00667311
0.00667546
0.00667761
0.00668029
0.0066831
0.00668626
0.00668959
0.00669328
0.00669713
0.00670142
0.00670592
0.0191878
0.0190176
0.0189649
0.019062
0.0193166
0.0197221
0.0202497
0.0208602
0.0215183
0.0221942
0.0228532
0.0234493
0.0239234
0.0241941
0.0241544
0.0237937
0.0230854
0.0220225
0.0206104
0.0188659
0.0167447
0.0144211
0.0121899
0.010067
0.00806491
0.00620337
0.00453122
0.00309242
0.00190968
0.00103177
0.000463472
0.00017383
9.29601e-05