/*--------------------------------*- C++ -*----------------------------------*\
  =========                 |
  \\      /  F ield         | OpenFOAM: The Open Source CFD Toolbox
   \\    /   O peration     | Website:  https://openfoam.org
    \\  /    A nd           | Version:  8
     \\/     M anipulation  |
\*---------------------------------------------------------------------------*/
FoamFile
{
    version     2.0;
    format      ascii;
    class       volVectorField;
    location    "0.06";
    object      U;
}
// * * * * * * * * * * * * * * * * * * * * * * * * * * * * * * * * * * * * * //

dimensions      [0 1 -1 0 0 0 0];

internalField   nonuniform List<vector> 
15677
(
(-0.0399021 9.66595 0)
(0.0484955 9.92199 0)
(-0.00181362 9.37829 0)
(0.0206521 9.97702 0)
(0.019892 9.78866 0)
(0.00731357 9.14125 0)
(0.0258391 9.99515 0)
(0.0165374 9.92467 0)
(0.0111793 9.65398 0)
(0.00649144 8.96067 0)
(0.0263308 10.0025 0)
(0.0205524 9.97871 0)
(0.0165511 9.85203 0)
(0.00912494 9.53081 0)
(0.00515986 8.81703 0)
(0.0255703 10.0057 0)
(0.0215845 10.003 0)
(0.0194064 9.94151 0)
(0.0153648 9.7795 0)
(0.00798064 9.41984 0)
(0.00424074 8.70237 0)
(0.0245088 10.0071 0)
(0.0218661 10.0147 0)
(0.0210025 9.98478 0)
(0.0182525 9.90243 0)
(0.013855 9.7081 0)
(0.00692556 9.32158 0)
(0.00354505 8.61018 0)
(0.023097 10.0075 0)
(0.0217425 10.0205 0)
(0.0218697 10.0069 0)
(0.0201988 9.96497 0)
(0.016962 9.86193 0)
(0.0124426 9.64083 0)
(0.0059689 9.23642 0)
(0.00295882 8.53615 0)
(0.0214091 10.0074 0)
(0.0211911 10.0233 0)
(0.0221529 10.0184 0)
(0.0212884 9.99809 0)
(0.0190538 9.94371 0)
(0.0156088 9.82229 0)
(0.0110797 9.57965 0)
(0.00507733 9.16415 0)
(0.00241913 8.47761 0)
(0.019516 10.007 0)
(0.0203305 10.0235 0)
(0.0221102 10.0241 0)
(0.0217809 10.0162 0)
(0.0202171 9.98814 0)
(0.0177212 9.92275 0)
(0.0141438 9.78536 0)
(0.00968639 9.52574 0)
(0.00419938 9.10453 0)
(0.00188777 8.43308 0)
(0.0175006 10.0063 0)
(0.0192743 10.0223 0)
(0.0216668 10.0271 0)
(0.0218032 10.0261 0)
(0.0207481 10.0131 0)
(0.0188627 9.97855 0)
(0.0161755 9.90359 0)
(0.0125203 9.7524 0)
(0.00820499 9.48008 0)
(0.00328955 9.05738 0)
(0.00133563 8.40157 0)
(0.0153991 10.0056 0)
(0.0179651 10.0206 0)
(0.0209342 10.0281 0)
(0.0214572 10.0315 0)
(0.0207813 10.0273 0)
(0.0193207 10.0103 0)
(0.0171895 9.97057 0)
(0.0143597 9.88719 0)
(0.0106832 9.72457 0)
(0.00658436 9.44346 0)
(0.00230605 9.02264 0)
(0.000740055 8.38282 0)
(0.013262 10.0048 0)
(0.0164819 10.0185 0)
(0.0198596 10.0274 0)
(0.0207824 10.034 0)
(0.0204009 10.0354 0)
(0.0192426 10.0288 0)
(0.0174639 10.0092 0)
(0.0151347 9.96503 0)
(0.0122021 9.87458 0)
(0.00857013 9.70295 0)
(0.00477323 9.41663 0)
(0.00121457 9.00037 0)
(5.76443e-05 8.37659 0)
(0.0111599 10.0041 0)
(0.0148853 10.0162 0)
(0.0185085 10.0258 0)
(0.0197969 10.0345 0)
(0.0196667 10.0396 0)
(0.0187163 10.0396 0)
(0.0171516 10.0319 0)
(0.0151081 10.0103 0)
(0.0126116 9.96282 0)
(0.00962232 9.86675 0)
(0.0061168 9.68859 0)
(0.00272479 9.40024 0)
(-1.29609e-05 8.99073 0)
(-0.000612571 8.38288 0)
(0.00927043 10.0034 0)
(0.0131866 10.014 0)
(0.0169199 10.0235 0)
(0.0185018 10.0334 0)
(0.018594 10.0412 0)
(0.0177909 10.0456 0)
(0.0163429 10.0453 0)
(0.0144301 10.0371 0)
(0.0121479 10.0145 0)
(0.00951911 9.96482 0)
(0.00653667 9.86471 0)
(0.00326311 9.68246 0)
(0.000401828 9.39492 0)
(-0.00137538 8.99403 0)
(-0.00140041 8.40179 0)
(0.007725 10.0029 0)
(0.0116235 10.0119 0)
(0.0151332 10.0209 0)
(0.0169112 10.0313 0)
(0.0171836 10.0409 0)
(0.0164856 10.0483 0)
(0.015083 10.053 0)
(0.0131923 10.0531 0)
(0.0109542 10.0453 0)
(0.00846018 10.0227 0)
(0.00574999 9.97194 0)
(0.00286408 9.86943 0)
(-5.48013e-05 9.68552 0)
(-0.00225485 9.40132 0)
(-0.00293727 9.01044 0)
(-0.00228984 8.4336 0)
(0.00641348 10.0024 0)
(0.010231 10.0102 0)
(0.0133943 10.0184 0)
(0.0150551 10.0286 0)
(0.0154394 10.0392 0)
(0.014804 10.0488 0)
(0.0133896 10.0568 0)
(0.0114372 10.0624 0)
(0.00911988 10.0638 0)
(0.00657619 10.0573 0)
(0.00391242 10.0358 0)
(0.00119929 9.98509 0)
(-0.0014712 9.88191 0)
(-0.00387414 9.69862 0)
(-0.00525972 9.41996 0)
(-0.0046912 9.04021 0)
(-0.00327729 8.4784 0)
(0.00530908 10.002 0)
(0.00897468 10.0087 0)
(0.0118156 10.0162 0)
(0.0131778 10.0257 0)
(0.0133786 10.0364 0)
(0.0127467 10.0475 0)
(0.0112662 10.058 0)
(0.00917896 10.0673 0)
(0.00668325 10.0746 0)
(0.00395089 10.0781 0)
(0.00113622 10.0739 0)
(-0.00162776 10.0544 0)
(-0.00423527 10.0052 0)
(-0.00654341 9.90307 0)
(-0.00825195 9.72257 0)
(-0.0086405 9.45126 0)
(-0.00664226 9.08343 0)
(-0.00435758 8.53623 0)
(0.00438511 10.0016 0)
(0.00784238 10.0074 0)
(0.0103578 10.0143 0)
(0.0114394 10.023 0)
(0.0112635 10.0333 0)
(0.0103233 10.0448 0)
(0.0087129 10.0571 0)
(0.00641807 10.0691 0)
(0.00365299 10.0805 0)
(0.000615357 10.0904 0)
(-0.00250523 10.0968 0)
(-0.00552814 10.0959 0)
(-0.0082887 10.0796 0)
(-0.0106462 10.0332 0)
(-0.0124099 9.93377 0)
(-0.013218 9.75798 0)
(-0.0124141 9.49553 0)
(-0.0087953 9.14019 0)
(-0.0055291 8.60694 0)
(0.00361108 10.0013 0)
(0.00682257 10.0062 0)
(0.00901524 10.0126 0)
(0.00980702 10.0206 0)
(0.00928998 10.0303 0)
(0.0078315 10.0415 0)
(0.00573761 10.0545 0)
(0.00315426 10.0685 0)
(2.52741e-05 10.0828 0)
(-0.00342968 10.0971 0)
(-0.00699183 10.1104 0)
(-0.010444 10.1208 0)
(-0.0135741 10.1242 0)
(-0.0161876 10.1121 0)
(-0.0181087 10.0698 0)
(-0.0191086 9.97472 0)
(-0.0187856 9.80536 0)
(-0.0165792 9.55292 0)
(-0.0111384 9.21028 0)
(-0.00677896 8.6902 0)
(0.00297842 10.001 0)
(0.00591106 10.0052 0)
(0.00778367 10.011 0)
(0.00828803 10.0184 0)
(0.00742955 10.0274 0)
(0.00550483 10.0381 0)
(0.00269645 10.0509 0)
(-0.000602423 10.0658 0)
(-0.00420139 10.0823 0)
(-0.00819416 10.0997 0)
(-0.0123338 10.1177 0)
(-0.0163707 10.1355 0)
(-0.0200552 10.1508 0)
(-0.023146 10.1594 0)
(-0.0254205 10.1528 0)
(-0.0266754 10.1158 0)
(-0.0266576 10.0265 0)
(-0.02495 9.86497 0)
(-0.0211222 9.62338 0)
(-0.0136634 9.29351 0)
(-0.0081003 8.78559 0)
(0.00247775 10.0008 0)
(0.0050882 10.0044 0)
(0.00666062 10.0096 0)
(0.0068861 10.0164 0)
(0.00569926 10.0247 0)
(0.00331466 10.0347 0)
(-0.000132891 10.047 0)
(-0.00440985 10.0618 0)
(-0.00901289 10.0794 0)
(-0.0136815 10.0992 0)
(-0.0185497 10.1206 0)
(-0.0233337 10.1433 0)
(-0.0277479 10.1664 0)
(-0.0315129 10.1876 0)
(-0.0343623 10.2025 0)
(-0.0360547 10.2023 0)
(-0.0363698 10.1717 0)
(-0.0350506 10.0896 0)
(-0.0316887 9.93695 0)
(-0.0260144 9.70671 0)
(-0.0163392 9.38924 0)
(-0.00946975 8.89227 0)
(0.00209313 10.0007 0)
(0.00438459 10.0037 0)
(0.00563887 10.0084 0)
(0.00560281 10.0145 0)
(0.00410873 10.0221 0)
(0.00128755 10.0314 0)
(-0.00278396 10.043 0)
(-0.0079318 10.0573 0)
(-0.0138491 10.0748 0)
(-0.0198725 10.0958 0)
(-0.0256462 10.1198 0)
(-0.031363 10.1461 0)
(-0.0366975 10.1745 0)
(-0.0413317 10.2038 0)
(-0.044962 10.2319 0)
(-0.0473086 10.254 0)
(-0.0481226 10.2612 0)
(-0.0471846 10.2381 0)
(-0.0442551 10.164 0)
(-0.0389574 10.0211 0)
(-0.031212 9.80245 0)
(-0.0191456 9.49691 0)
(-0.0108685 9.00954 0)
(0.00179666 10.0006 0)
(0.0038137 10.0032 0)
(0.004757 10.0074 0)
(0.00443842 10.0129 0)
(0.00266383 10.0198 0)
(-0.000560233 10.0283 0)
(-0.00522064 10.039 0)
(-0.0112125 10.0525 0)
(-0.0182963 10.0695 0)
(-0.0260516 10.0904 0)
(-0.0335977 10.1158 0)
(-0.0404703 10.1449 0)
(-0.0469498 10.1771 0)
(-0.0526731 10.2121 0)
(-0.0572969 10.2486 0)
(-0.0605089 10.2844 0)
(-0.062028 10.3145 0)
(-0.0616174 10.3298 0)
(-0.0590765 10.3151 0)
(-0.0542095 10.2499 0)
(-0.0466907 10.1173 0)
(-0.0366616 9.90998 0)
(-0.0220172 9.6155 0)
(-0.0122314 9.13579 0)
(0.00156394 10.0005 0)
(0.00334886 10.0028 0)
(0.00403459 10.0065 0)
(0.00343851 10.0114 0)
(0.00136867 10.0175 0)
(-0.00221782 10.0253 0)
(-0.00741902 10.0351 0)
(-0.0142055 10.0477 0)
(-0.0224151 10.0638 0)
(-0.0317046 10.0841 0)
(-0.0414907 10.1094 0)
(-0.0506236 10.14 0)
(-0.0585244 10.1752 0)
(-0.0656035 10.2143 0)
(-0.0714703 10.2567 0)
(-0.0757747 10.3014 0)
(-0.07821 10.3456 0)
(-0.0785159 10.3845 0)
(-0.0764874 10.4086 0)
(-0.071968 10.4027 0)
(-0.0648247 10.347 0)
(-0.054804 10.2247 0)
(-0.0422469 10.0284 0)
(-0.0248388 9.74371 0)
(-0.0132609 9.26917 0)
(0.00137874 10.0005 0)
(0.00296782 10.0025 0)
(0.00344432 10.0059 0)
(0.00262641 10.0102 0)
(0.000274865 10.0156 0)
(-0.00367758 10.0224 0)
(-0.00936231 10.0313 0)
(-0.016878 10.0428 0)
(-0.0261475 10.0578 0)
(-0.0369147 10.0771 0)
(-0.0486832 10.1017 0)
(-0.0606625 10.1321 0)
(-0.0713824 10.169 0)
(-0.0801543 10.2114 0)
(-0.0875754 10.2583 0)
(-0.0932497 10.3092 0)
(-0.0968378 10.3626 0)
(-0.0980641 10.416 0)
(-0.0967136 10.4641 0)
(-0.09264 10.4974 0)
(-0.0857434 10.5009 0)
(-0.0759827 10.4547 0)
(-0.0631503 10.3427 0)
(-0.0479204 10.1566 0)
(-0.0278 9.88103 0)
(-0.0155865 9.4097 0)
(0.00122951 10.0004 0)
(0.00265316 10.0022 0)
(0.00296036 10.0053 0)
(0.0019719 10.0092 0)
(-0.000595173 10.0139 0)
(-0.00488062 10.0198 0)
(-0.0110386 10.0276 0)
(-0.0192061 10.038 0)
(-0.02945 10.0517 0)
(-0.0416099 10.0697 0)
(-0.0552875 10.0931 0)
(-0.0697853 10.1228 0)
(-0.0840631 10.1595 0)
(-0.0962818 10.2037 0)
(-0.10566 10.2542 0)
(-0.11306 10.3099 0)
(-0.118104 10.3699 0)
(-0.120494 10.4328 0)
(-0.120011 10.4958 0)
(-0.116514 10.5535 0)
(-0.109931 10.5963 0)
(-0.10025 10.6091 0)
(-0.0874985 10.5726 0)
(-0.0715869 10.4702 0)
(-0.0529223 10.2936 0)
(-0.0246455 10.0211 0)
(-0.0115019 9.49503 0)
(0.00110782 10.0004 0)
(0.00239181 10.002 0)
(0.00256292 10.0049 0)
(0.00144305 10.0083 0)
(-0.00127905 10.0125 0)
(-0.00580821 10.0176 0)
(-0.0123798 10.0242 0)
(-0.0211723 10.0332 0)
(-0.0322897 10.0455 0)
(-0.045734 10.0621 0)
(-0.0612149 10.0839 0)
(-0.0781412 10.1123 0)
(-0.0955675 10.1481 0)
(-0.112163 10.192 0)
(-0.125677 10.2446 0)
(-0.13528 10.3043 0)
(-0.142183 10.3695 0)
(-0.146057 10.4393 0)
(-0.146677 10.5122 0)
(-0.143919 10.5851 0)
(-0.137741 10.6525 0)
(-0.128174 10.7048 0)
(-0.115264 10.7269 0)
(-0.0991848 10.6995 0)
(-0.0796012 10.6062 0)
(-0.0569132 10.4364 0)
(-0.0201372 10.1926 0)
(-0.00293707 9.56066 0)
(0.00100744 10.0003 0)
(0.00217391 10.0018 0)
(0.00223076 10.0045 0)
(0.00101535 10.0076 0)
(-0.00181489 10.0112 0)
(-0.00650984 10.0156 0)
(-0.0133738 10.0212 0)
(-0.0226965 10.0287 0)
(-0.0346417 10.0394 0)
(-0.0492429 10.0543 0)
(-0.0663934 10.0743 0)
(-0.085621 10.1009 0)
(-0.106091 10.1351 0)
(-0.126561 10.1781 0)
(-0.145381 10.2303 0)
(-0.159865 10.2924 0)
(-0.169175 10.3622 0)
(-0.174973 10.4377 0)
(-0.177029 10.5179 0)
(-0.175235 10.601 0)
(-0.16959 10.6839 0)
(-0.160174 10.7609 0)
(-0.147106 10.8224 0)
(-0.130544 10.8534 0)
(-0.1105 10.8346 0)
(-0.0863804 10.7496 0)
(-0.0601121 10.5933 0)
(-0.0215423 10.3658 0)
(0.00237689 9.61786 0)
(0.000923824 10.0003 0)
(0.00199164 10.0017 0)
(0.00195499 10.0041 0)
(0.000671573 10.007 0)
(-0.00223348 10.0102 0)
(-0.00703393 10.0139 0)
(-0.0140869 10.0186 0)
(-0.023776 10.0248 0)
(-0.0364105 10.0336 0)
(-0.0521024 10.0464 0)
(-0.0707649 10.0644 0)
(-0.092133 10.0888 0)
(-0.115499 10.121 0)
(-0.139728 10.1623 0)
(-0.163251 10.2135 0)
(-0.184074 10.2752 0)
(-0.199043 10.3476 0)
(-0.207389 10.4283 0)
(-0.211358 10.5147 0)
(-0.210865 10.6056 0)
(-0.205952 10.6991 0)
(-0.196772 10.7918 0)
(-0.18352 10.8782 0)
(-0.16644 10.9485 0)
(-0.145596 10.9877 0)
(-0.120832 10.9772 0)
(-0.0919534 10.9012 0)
(-0.0621573 10.7629 0)
(-0.0243596 10.5355 0)
(0.00322791 9.6746 0)
(0.000853599 10.0003 0)
(0.0018384 10.0016 0)
(0.0017263 10.0038 0)
(0.000391145 10.0064 0)
(-0.00255917 10.0093 0)
(-0.0074196 10.0125 0)
(-0.0145823 10.0163 0)
(-0.0245002 10.0213 0)
(-0.0376051 10.0284 0)
(-0.0541956 10.0389 0)
(-0.0742831 10.0544 0)
(-0.097602 10.0764 0)
(-0.123675 10.1061 0)
(-0.1515 10.145 0)
(-0.179603 10.1943 0)
(-0.20605 10.2549 0)
(-0.228484 10.3271 0)
(-0.243292 10.4109 0)
(-0.249868 10.5032 0)
(-0.251178 10.6008 0)
(-0.247325 10.7025 0)
(-0.238542 10.8062 0)
(-0.225134 10.9086 0)
(-0.207446 11.0037 0)
(-0.185715 11.0822 0)
(-0.159906 11.1294 0)
(-0.130546 11.127 0)
(-0.0973698 11.061 0)
(-0.0639462 10.9397 0)
(-0.0270189 10.7008 0)
(0.00274555 9.7478 0)
(0.000794214 10.0003 0)
(0.00170884 10.0015 0)
(0.00153661 10.0036 0)
(0.000161274 10.006 0)
(-0.00281248 10.0085 0)
(-0.0076981 10.0112 0)
(-0.0149107 10.0143 0)
(-0.0249521 10.0182 0)
(-0.0383455 10.0238 0)
(-0.0555465 10.0321 0)
(-0.0768033 10.0447 0)
(-0.101966 10.0636 0)
(-0.130524 10.0905 0)
(-0.16173 10.1266 0)
(-0.194237 10.1733 0)
(-0.226191 10.2319 0)
(-0.255257 10.303 0)
(-0.278741 10.3866 0)
(-0.292579 10.4825 0)
(-0.296449 10.5869 0)
(-0.29417 10.6961 0)
(-0.286084 10.8085 0)
(-0.272633 10.9222 0)
(-0.254302 11.0335 0)
(-0.231506 11.1369 0)
(-0.204469 11.2231 0)
(-0.173656 11.278 0)
(-0.140272 11.2832 0)
(-0.103498 11.2279 0)
(-0.0665954 11.1188 0)
(-0.0298608 10.8806 0)
(0.00161491 9.83222 0)
(0.000743676 10.0002 0)
(0.0015987 10.0014 0)
(0.00137707 10.0034 0)
(-2.79261e-05 10.0056 0)
(-0.00300905 10.0078 0)
(-0.0078942 10.0101 0)
(-0.0151122 10.0125 0)
(-0.0251983 10.0156 0)
(-0.0387411 10.0197 0)
(-0.0563146 10.0261 0)
(-0.078367 10.0359 0)
(-0.105044 10.0513 0)
(-0.135963 10.0745 0)
(-0.170295 10.1072 0)
(-0.206972 10.1507 0)
(-0.244251 10.2065 0)
(-0.279851 10.2755 0)
(-0.311053 10.3582 0)
(-0.334848 10.4542 0)
(-0.346748 10.5629 0)
(-0.346849 10.6797 0)
(-0.339972 10.8003 0)
(-0.326734 10.9233 0)
(-0.307809 11.0464 0)
(-0.283829 11.1661 0)
(-0.255277 11.2772 0)
(-0.222781 11.3706 0)
(-0.187292 11.4324 0)
(-0.150178 11.4447 0)
(-0.110351 11.3989 0)
(-0.0704742 11.3185 0)
(-0.0327934 11.0753 0)
(-0.000142794 9.92587 0)
(0.000700375 10.0002 0)
(0.0015046 10.0013 0)
(0.00124247 10.0032 0)
(-0.000182693 10.0052 0)
(-0.0031612 10.0072 0)
(-0.0080274 10.0091 0)
(-0.0152187 10.011 0)
(-0.0252913 10.0132 0)
(-0.0388793 10.0161 0)
(-0.056643 10.0207 0)
(-0.0791827 10.0281 0)
(-0.106896 10.0401 0)
(-0.139762 10.0589 0)
(-0.177087 10.0873 0)
(-0.217651 10.127 0)
(-0.260008 10.1791 0)
(-0.301969 10.2451 0)
(-0.340825 10.3258 0)
(-0.373487 10.4211 0)
(-0.396663 10.5301 0)
(-0.405505 10.6521 0)
(-0.400675 10.7815 0)
(-0.388136 10.9134 0)
(-0.368815 11.0464 0)
(-0.343611 11.1782 0)
(-0.313306 11.3058 0)
(-0.278728 11.4238 0)
(-0.240961 11.5237 0)
(-0.201025 11.5914 0)
(-0.160198 11.6094 0)
(-0.11813 11.5923 0)
(-0.0752053 11.5375 0)
(-0.0359541 11.2655 0)
(-0.00207762 10.0263 0)
(0.000663319 10.0002 0)
(0.00142363 10.0013 0)
(0.00112857 10.0031 0)
(-0.000309981 10.0049 0)
(-0.00327843 10.0067 0)
(-0.00811294 10.0083 0)
(-0.0152549 10.0097 0)
(-0.0252723 10.0111 0)
(-0.0388291 10.013 0)
(-0.0566464 10.016 0)
(-0.0794371 10.0211 0)
(-0.107792 10.03 0)
(-0.142004 10.0447 0)
(-0.181815 10.0678 0)
(-0.226133 10.1024 0)
(-0.273264 10.1503 0)
(-0.321338 10.2124 0)
(-0.3677 10.2899 0)
(-0.409213 10.3832 0)
(-0.442444 10.492 0)
(-0.463896 10.6148 0)
(-0.468432 10.7503 0)
(-0.45744 10.8921 0)
(-0.438158 11.0349 0)
(-0.411836 11.1772 0)
(-0.379612 11.3172 0)
(-0.342592 11.4517 0)
(-0.302003 11.5759 0)
(-0.259113 11.6812 0)
(-0.214832 11.7531 0)
(-0.171224 11.7957 0)
(-0.126514 11.8068 0)
(-0.080327 11.7524 0)
(-0.0390357 11.4504 0)
(-0.00392499 10.1315 0)
(0.0013534 10.0012 0)
(0.000619378 10.0002 0)
(0.0010312 10.0029 0)
(-0.00041483 10.0046 0)
(-0.00336816 10.0062 0)
(-0.0081627 10.0075 0)
(-0.0152401 10.0085 0)
(-0.0251735 10.0093 0)
(-0.0386446 10.0102 0)
(-0.0564151 10.0118 0)
(-0.079279 10.015 0)
(-0.107972 10.021 0)
(-0.143031 10.0319 0)
(-0.18458 10.0499 0)
(-0.232047 10.0782 0)
(-0.283839 10.1202 0)
(-0.337711 10.1776 0)
(-0.391346 10.251 0)
(-0.441607 10.3412 0)
(-0.484947 10.4484 0)
(-0.517654 10.5714 0)
(-0.53612 10.7083 0)
(-0.535006 10.8573 0)
(-0.516587 11.0112 0)
(-0.489499 11.1643 0)
(-0.45533 11.3153 0)
(-0.415562 11.4625 0)
(-0.371678 11.6031 0)
(-0.325099 11.7323 0)
(-0.27712 11.8412 0)
(-0.230024 11.9355 0)
(-0.183007 12.0027 0)
(-0.134662 12.019 0)
(-0.0854226 11.9614 0)
(-0.041914 11.6294 0)
(-0.00568809 10.2394 0)
(0.000945937 10.0028 0)
(0.00127293 10.0012 0)
(0.000567083 10.0002 0)
(-0.000501935 10.0044 0)
(-0.00343602 10.0058 0)
(-0.00818569 10.0069 0)
(-0.0151892 10.0075 0)
(-0.0250195 10.0077 0)
(-0.0383672 10.0077 0)
(-0.0560196 10.0081 0)
(-0.0788259 10.0095 0)
(-0.107628 10.013 0)
(-0.143148 10.0204 0)
(-0.185812 10.0337 0)
(-0.235511 10.056 0)
(-0.291258 10.0906 0)
(-0.350856 10.1413 0)
(-0.411456 10.2096 0)
(-0.470266 10.2956 0)
(-0.523678 10.3997 0)
(-0.567788 10.5215 0)
(-0.598692 10.6594 0)
(-0.612783 10.8106 0)
(-0.604616 10.9729 0)
(-0.577517 11.1384 0)
(-0.541628 11.3009 0)
(-0.498938 11.4597 0)
(-0.451308 11.6132 0)
(-0.400459 11.7588 0)
(-0.347849 11.8914 0)
(-0.296754 12.0216 0)
(-0.24614 12.138 0)
(-0.194284 12.2082 0)
(-0.142344 12.2265 0)
(-0.0902629 12.1634 0)
(-0.0445056 11.8022 0)
(-0.00729963 10.3482 0)
(-0.000579399 10.0042 0)
(0.000857176 10.0027 0)
(0.00117521 10.0011 0)
(0.000517341 10.0002 1.65102e-19)
(-0.00348724 10.0055 0)
(-0.00818842 10.0063 0)
(-0.0151133 10.0066 0)
(-0.0248293 10.0063 0)
(-0.038029 10.0056 0)
(-0.055514 10.0048 0)
(-0.0781694 10.0046 0)
(-0.106912 10.0059 0)
(-0.142601 10.0102 0)
(-0.185895 10.0193 0)
(-0.237056 10.0359 0)
(-0.295647 10.0633 0)
(-0.360171 10.1054 0)
(-0.427736 10.1662 0)
(-0.494814 10.2469 0)
(-0.558158 10.3467 0)
(-0.613724 10.4659 0)
(-0.657331 10.6031 0)
(-0.684995 10.7561 0)
(-0.693227 10.9215 0)
(-0.676593 11.0968 0)
(-0.639621 11.273 0)
(-0.594077 11.4442 0)
(-0.542368 11.6097 0)
(-0.486636 11.7683 0)
(-0.428708 11.9172 0)
(-0.372573 12.0707 0)
(-0.3175 12.2218 0)
(-0.261332 12.3389 0)
(-0.204841 12.4099 0)
(-0.149412 12.4277 0)
(-0.0947348 12.3577 0)
(-0.0467842 11.9683 0)
(-0.00873151 10.4562 0)
(-0.00353496 10.0052 0)
(-0.00064206 10.004 0)
(0.000757876 10.0025 7.37413e-19)
(0.00108168 10.001 -5.23141e-19)
(0.000470004 10.0002 -3.29283e-19)
(-0.00817669 10.0058 0)
(-0.0150201 10.0058 0)
(-0.0246169 10.005 0)
(-0.0376545 10.0037 0)
(-0.0549398 10.002 0)
(-0.0773798 10.0004 0)
(-0.105941 9.99966 0)
(-0.141582 10.0011 0)
(-0.185138 10.0064 0)
(-0.237158 10.0178 0)
(-0.297655 10.0385 0)
(-0.365776 10.0722 0)
(-0.439421 10.1231 0)
(-0.514883 10.1955 0)
(-0.587929 10.2899 0)
(-0.654898 10.405 0)
(-0.711379 10.54 0)
(-0.753016 10.6932 0)
(-0.775871 10.8615 0)
(-0.776717 11.0409 0)
(-0.750234 11.2284 0)
(-0.702314 11.4146 0)
(-0.64642 11.5932 0)
(-0.585297 11.7642 0)
(-0.521252 11.9263 0)
(-0.459329 12.096 0)
(-0.398678 12.2699 0)
(-0.336952 12.4205 0)
(-0.275409 12.5362 0)
(-0.214519 12.606 0)
(-0.155799 12.6216 0)
(-0.0987791 12.5437 0)
(-0.0487588 12.1273 0)
(-0.00997833 10.5622 0)
(-0.00817096 10.0054 0)
(-0.00353501 10.0048 -1.57583e-18)
(-0.000692808 10.0037 -7.77845e-19)
(0.000664334 10.0023 3.67908e-19)
(0.000992036 10.0009 -3.47702e-19)
(0.000425137 10.0001 0)
(-0.0149159 10.0051 0)
(-0.0243913 10.0039 0)
(-0.0372613 10.002 0)
(-0.0543286 9.99942 0)
(-0.0765108 9.99657 0)
(-0.104807 9.99409 0)
(-0.140244 9.99302 0)
(-0.183785 9.99484 0)
(-0.236204 10.0016 0)
(-0.297865 10.0162 0)
(-0.368451 10.042 0)
(-0.44661 10.0832 0)
(-0.529506 10.1444 0)
(-0.612537 10.2298 0)
(-0.690762 10.3394 0)
(-0.760179 10.4708 0)
(-0.816105 10.6226 0)
(-0.854136 10.7921 0)
(-0.870528 10.9756 0)
(-0.862458 11.1684 0)
(-0.824833 11.3671 0)
(-0.765035 11.562 0)
(-0.698218 11.747 0)
(-0.627357 11.9219 0)
(-0.558729 12.1049 0)
(-0.491632 12.2948 0)
(-0.423105 12.4677 0)
(-0.354928 12.6156 0)
(-0.28822 12.7283 0)
(-0.223251 12.7956 0)
(-0.16148 12.8076 0)
(-0.10237 12.721 0)
(-0.0504506 12.2789 0)
(-0.011047 10.6651 0)
(-0.0148316 10.0044 0)
(-0.00806844 10.0048 3.32335e-18)
(-0.00347545 10.0044 0)
(-0.000739321 10.0034 7.75839e-19)
(0.000577264 10.0021 1.37696e-22)
(0.000906205 10.0009 0)
(0.000382762 10.0001 0)
(-0.0241593 10.003 0)
(-0.0368605 10.0005 0)
(-0.053703 9.99717 0)
(-0.0756029 9.99322 0)
(-0.103578 9.98916 0)
(-0.138701 9.98587 0)
(-0.182028 9.98461 0)
(-0.234498 9.98722 0)
(-0.296753 9.99618 0)
(-0.368903 10.0147 0)
(-0.450224 10.0467 0)
(-0.538733 10.0968 0)
(-0.630768 10.1698 0)
(-0.720757 10.2698 0)
(-0.803083 10.396 0)
(-0.873509 10.5447 0)
(-0.927205 10.7137 0)
(-0.959871 10.8996 0)
(-0.968107 11.0979 0)
(-0.94963 11.3033 0)
(-0.899681 11.5122 0)
(-0.827218 11.7147 0)
(-0.74901 11.9043 0)
(-0.672896 12.1004 0)
(-0.598279 12.3038 0)
(-0.521823 12.4925 0)
(-0.44565 12.6621 0)
(-0.371285 12.8058 0)
(-0.299725 12.9143 0)
(-0.231013 12.9778 0)
(-0.166463 12.9852 0)
(-0.105511 12.8894 0)
(-0.0518848 12.4228 0)
(-0.011951 10.7643 0)
(-0.0239667 10.0021 0)
(-0.0145794 10.0037 4.91762e-22)
(-0.00782791 10.0042 0)
(-0.00341549 10.0039 -8.18061e-19)
(-0.00077604 10.0031 8.52048e-23)
(0.000496539 10.002 0)
(0.000824313 10.0008 0)
(0.000342886 10.0001 0)
(-0.0364588 9.99919 0)
(-0.0530764 9.99518 0)
(-0.0746855 9.99025 0)
(-0.102307 9.9848 0)
(-0.137042 9.97953 0)
(-0.180014 9.97552 0)
(-0.232281 9.97437 0)
(-0.294696 9.97829 0)
(-0.367711 9.99017 0)
(-0.451111 10.0137 0)
(-0.543638 10.0532 0)
(-0.642586 10.1136 0)
(-0.743374 10.2 0)
(-0.839413 10.3162 0)
(-0.924464 10.4602 0)
(-0.994217 10.627 0)
(-1.04384 10.8136 0)
(-1.06931 11.0157 0)
(-1.0677 11.2281 0)
(-1.03741 11.4451 0)
(-0.974086 11.663 0)
(-0.888283 11.8711 0)
(-0.804046 12.0826 0)
(-0.720988 12.2996 0)
(-0.635252 12.5018 0)
(-0.549677 12.687 0)
(-0.466171 12.8517 0)
(-0.385978 12.9899 0)
(-0.30993 13.0932 0)
(-0.237832 13.152 0)
(-0.170778 13.154 0)
(-0.108221 13.0489 0)
(-0.0530873 12.559 0)
(-0.0127074 10.8591 0)
(-0.0361233 9.99803 0)
(-0.0235065 10.0011 -1.84653e-18)
(-0.01407 10.0029 0)
(-0.00759467 10.0036 0)
(-0.00334086 10.0035 2.44685e-18)
(-0.000803148 10.0028 0)
(0.000422202 10.0018 0)
(0.000746468 10.0007 6.87593e-19)
(0.000305538 10.0001 0)
(-0.0524558 9.99342 0)
(-0.0737749 9.98763 0)
(-0.101031 9.98094 0)
(-0.135335 9.97391 0)
(-0.177854 9.96746 0)
(-0.229737 9.96295 0)
(-0.291992 9.96233 0)
(-0.365335 9.9682 0)
(-0.449963 9.98392 0)
(-0.545221 10.0136 0)
(-0.649224 10.0621 0)
(-0.758444 10.1344 0)
(-0.867304 10.2358 0)
(-0.968167 10.3696 0)
(-1.05429 10.5324 0)
(-1.12148 10.718 0)
(-1.16507 10.9222 0)
(-1.18146 11.1401 0)
(-1.16839 11.3657 0)
(-1.12499 11.593 0)
(-1.04736 11.818 0)
(-0.954554 12.0491 0)
(-0.862229 12.2821 0)
(-0.765976 12.4982 0)
(-0.66938 12.6969 0)
(-0.575048 12.8769 0)
(-0.484622 13.0354 0)
(-0.39903 13.1672 0)
(-0.318879 13.2645 0)
(-0.243755 13.3178 0)
(-0.17447 13.3139 0)
(-0.11053 13.1995 0)
(-0.0540847 12.6875 0)
(-0.0133343 10.9494 0)
(-0.0519372 9.99187 0)
(-0.035383 9.99674 0)
(-0.0226163 10 -1.92181e-18)
(-0.0135813 10.0021 -1.81848e-18)
(-0.00734004 10.003 -3.43928e-18)
(-0.00325148 10.0031 0)
(-0.000820647 10.0025 -1.5358e-18)
(0.000354404 10.0017 -1.45025e-18)
(0.000672687 10.0007 6.84328e-19)
(0.000270671 10.0001 0)
(-0.0728782 9.98531 0)
(-0.0997698 9.97752 0)
(-0.133627 9.96893 0)
(-0.175636 9.96031 0)
(-0.227008 9.95281 0)
(-0.288872 9.94812 0)
(-0.362142 9.94858 0)
(-0.447343 9.95722 0)
(-0.544308 9.97788 0)
(-0.651851 10.0151 0)
(-0.767364 10.074 0)
(-0.886404 10.16 0)
(-1.00233 10.2779 0)
(-1.10649 10.4307 0)
(-1.19179 10.6133 0)
(-1.25434 10.8178 0)
(-1.28984 11.0395 0)
(-1.2953 11.2723 0)
(-1.26923 11.51 0)
(-1.21156 11.746 0)
(-1.12714 11.9951 0)
(-1.02478 12.2488 0)
(-0.916718 12.4816 0)
(-0.807532 12.6944 0)
(-0.7005 12.8877 0)
(-0.59789 13.0612 0)
(-0.501031 13.2126 0)
(-0.410501 13.3372 0)
(-0.326645 13.4277 0)
(-0.248842 13.4751 0)
(-0.177593 13.4649 0)
(-0.112474 13.3412 0)
(-0.0549026 12.8084 0)
(-0.013849 11.0349 0)
(-0.0721305 9.98325 0)
(-0.0508287 9.99017 -2.05388e-18)
(-0.0339699 9.99532 2.02428e-18)
(-0.0217689 9.99898 -1.17624e-21)
(-0.0130621 10.0013 1.81227e-18)
(-0.0070639 10.0025 1.71368e-18)
(-0.00314787 10.0027 3.23818e-18)
(-0.000828401 10.0023 2.29354e-18)
(0.000293114 10.0015 -7.21671e-19)
(0.000603014 10.0006 0)
(0.00023827 10.0001 0)
(-0.098532 9.97448 0)
(-0.131943 9.96452 0)
(-0.173418 9.95397 0)
(-0.224202 9.9438 0)
(-0.285512 9.93549 0)
(-0.358417 9.93109 0)
(-0.443694 9.93333 0)
(-0.541571 9.94573 0)
(-0.651438 9.97258 0)
(-0.77148 10.0188 0)
(-0.898267 10.0899 0)
(-1.02636 10.1911 0)
(-1.14804 10.3271 0)
(-1.25366 10.5 0)
(-1.336 10.703 0)
(-1.39173 10.9266 0)
(-1.41708 11.1651 0)
(-1.40981 11.4119 0)
(-1.36929 11.66 0)
(-1.30618 11.9215 0)
(-1.21199 12.1948 0)
(-1.09076 12.4492 0)
(-0.967148 12.679 0)
(-0.845458 12.8865 0)
(-0.728551 13.0731 0)
(-0.618238 13.239 0)
(-0.515473 13.3825 0)
(-0.420481 13.4993 0)
(-0.333315 13.5828 0)
(-0.253167 13.6238 0)
(-0.180203 13.6072 0)
(-0.114092 13.4744 0)
(-0.0555648 12.9219 0)
(-0.0142676 11.1156 0)
(-0.0975041 9.9718 0)
(-0.0705474 9.98105 -3.46539e-21)
(-0.0487165 9.98835 0)
(-0.0326343 9.99395 -1.8893e-21)
(-0.0208788 9.99796 0)
(-0.012512 10.0005 -1.80579e-18)
(-0.00676709 10.0019 -3.41333e-18)
(-0.00302986 10.0024 8.90669e-23)
(-0.000826588 10.0021 1.52154e-18)
(0.000238055 10.0014 -7.17812e-19)
(0.000537435 10.0005 6.76914e-19)
(0.000208304 10.0001 0)
(-0.130292 9.96061 0)
(-0.171233 9.94834 0)
(-0.221396 9.93581 0)
(-0.282048 9.92426 0)
(-0.35438 9.91551 0)
(-0.439365 9.912 0)
(-0.537545 9.91692 0)
(-0.648779 9.93425 0)
(-0.771921 9.96872 0)
(-0.904425 10.0256 0)
(-1.04194 10.1105 0)
(-1.178 10.2287 0)
(-1.30379 10.3842 0)
(-1.4088 10.5781 0)
(-1.48588 10.8018 0)
(-1.53252 11.0442 0)
(-1.54567 11.2987 0)
(-1.52395 11.5579 0)
(-1.47912 11.8332 0)
(-1.40723 12.1206 0)
(-1.292 12.3962 0)
(-1.15201 12.6483 0)
(-1.0133 12.8729 0)
(-0.879698 13.0734 0)
(-0.75357 13.2522 0)
(-0.636182 13.4097 0)
(-0.528062 13.5447 0)
(-0.429084 13.6534 0)
(-0.338989 13.7296 0)
(-0.256805 13.764 0)
(-0.182359 13.7409 0)
(-0.11542 13.5993 0)
(-0.0560932 13.0283 0)
(-0.0146047 11.1915 0)
(-0.128929 9.95714 0)
(-0.0953193 9.96897 2.2783e-18)
(-0.0675192 9.97873 -2.25145e-18)
(-0.0467324 9.98659 2.12737e-18)
(-0.0312405 9.99263 0)
(-0.0199451 9.99698 0)
(-0.0119328 9.99983 1.79841e-18)
(-0.00645016 10.0014 -1.69873e-18)
(-0.00289753 10.002 1.19131e-22)
(-0.000814832 10.0018 7.56804e-19)
(0.00018931 10.0013 -7.13786e-19)
(0.000475878 10.0005 -6.7216e-19)
(0.000180902 10.0001 0)
(-0.16909 9.94335 0)
(-0.218627 9.92871 0)
(-0.278577 9.91429 0)
(-0.350198 9.90165 0)
(-0.434626 9.89297 0)
(-0.532652 9.89114 0)
(-0.644513 9.89981 0)
(-0.769617 9.92342 0)
(-0.906176 9.96709 0)
(-1.05081 10.0364 0)
(-1.19821 10.1369 0)
(-1.34081 10.2735 0)
(-1.46879 10.4497 0)
(-1.57087 10.6654 0)
(-1.64026 10.9098 0)
(-1.67553 11.1705 0)
(-1.67447 11.4396 0)
(-1.64986 11.7277 0)
(-1.597 12.0308 0)
(-1.50293 12.3225 0)
(-1.36655 12.5971 0)
(-1.20824 12.8444 0)
(-1.0551 13.0619 0)
(-0.91031 13.2543 0)
(-0.775666 13.4242 0)
(-0.651858 13.5727 0)
(-0.538936 13.6989 0)
(-0.436429 13.7994 0)
(-0.34377 13.8681 0)
(-0.259832 13.8959 0)
(-0.184115 13.8662 0)
(-0.116497 13.7162 0)
(-0.0565086 13.1277 0)
(-0.014873 11.2627 0)
(-0.167332 9.93893 0)
(-0.125993 9.95354 0)
(-0.0911116 9.96604 2.36811e-18)
(-0.0646895 9.97651 -4.49155e-18)
(-0.0446696 9.98492 4.24739e-18)
(-0.0297866 9.99138 -4.01477e-18)
(-0.0189714 9.99605 0)
(-0.0113254 9.99914 1.79101e-18)
(-0.00611336 10.0009 -1.69026e-18)
(-0.00275224 10.0016 -1.59546e-18)
(-0.000792442 10.0016 0)
(0.000146587 10.0011 7.08752e-19)
(0.00041847 10.0004 0)
(0.000156567 10 0)
(-0.215912 9.92241 0)
(-0.275145 9.90543 0)
(-0.345994 9.88932 0)
(-0.429686 9.87602 0)
(-0.52722 9.86812 0)
(-0.639146 9.86894 0)
(-0.76532 9.88262 0)
(-0.904595 9.91403 0)
(-1.05444 9.96862 0)
(-1.21059 10.0521 0)
(-1.36667 10.1699 0)
(-1.51409 10.3265 0)
(-1.64207 10.5244 0)
(-1.73874 10.7622 0)
(-1.79795 11.0272 0)
(-1.81956 11.3048 0)
(-1.81736 11.6047 0)
(-1.78575 11.9229 0)
(-1.70926 12.2326 0)
(-1.59254 12.5251 0)
(-1.43523 12.7958 0)
(-1.25932 13.0362 0)
(-1.09259 13.2453 0)
(-0.937429 13.4283 0)
(-0.794998 13.5888 0)
(-0.665425 13.7279 0)
(-0.548244 13.8452 0)
(-0.442641 13.9373 0)
(-0.347758 13.9985 0)
(-0.262322 14.0197 0)
(-0.185526 13.9836 0)
(-0.117354 13.8254 0)
(-0.0568288 13.2206 0)
(-0.0150828 11.3293 0)
(-0.213702 9.91682 0)
(-0.163475 9.93438 0)
(-0.120293 9.94988 0)
(-0.0872017 9.96325 4.72375e-18)
(-0.0617573 9.97439 -4.46951e-18)
(-0.0425271 9.98333 4.22598e-18)
(-0.0282795 9.99019 0)
(-0.0179593 9.99517 -1.88635e-18)
(-0.0106903 9.9985 0)
(-0.00575749 10.0005 1.68113e-18)
(-0.00259284 10.0013 0)
(-0.000761036 10.0014 0)
(0.000111091 10.001 0)
(0.000366484 10.0004 6.85187e-19)
(0.000135335 10 3.30042e-19)
(-0.271774 9.89755 0)
(-0.341823 9.87836 0)
(-0.424694 9.86094 0)
(-0.521508 9.84758 0)
(-0.633075 9.84132 0)
(-0.759633 9.84598 0)
(-0.900562 9.86612 0)
(-1.05406 9.90701 0)
(-1.21678 9.97432 0)
(-1.38347 10.0738 0)
(-1.54675 10.2105 0)
(-1.69698 10.3883 0)
(-1.82255 10.6087 0)
(-1.91122 10.8687 0)
(-1.9577 11.1533 0)
(-1.98032 11.4637 0)
(-1.97255 11.7962 0)
(-1.91599 12.1239 0)
(-1.815 12.4366 0)
(-1.67556 12.7266 0)
(-1.49787 12.9911 0)
(-1.30526 13.2228 0)
(-1.12588 13.4221 0)
(-0.961243 13.5951 0)
(-0.811775 13.7455 0)
(-0.677064 13.8751 0)
(-0.556141 13.9833 0)
(-0.447846 14.0672 0)
(-0.351048 14.121 0)
(-0.264345 14.1357 0)
(-0.18664 14.0934 0)
(-0.118025 13.9274 0)
(-0.0570692 13.3073 0)
(-0.0152422 11.3916 0)
(-0.269057 9.89056 0)
(-0.20873 9.91113 0)
(-0.155919 9.92982 5.27323e-18)
(-0.115025 9.94639 4.99145e-18)
(-0.0831584 9.96061 4.72041e-18)
(-0.0587219 9.9724 -4.46148e-18)
(-0.0403154 9.98183 0)
(-0.0267213 9.98907 0)
(-0.01691 9.99434 0)
(-0.0100291 9.9979 3.54478e-18)
(-0.00538466 10 1.67171e-18)
(-0.00241971 10.001 1.57479e-18)
(-0.000720642 10.0012 0)
(8.21251e-05 10.0009 -7.22423e-19)
(0.00031975 10.0004 -3.48596e-19)
(0.000116728 10 0)
(-0.337719 9.86862 0)
(-0.419718 9.8475 0)
(-0.515698 9.82927 0)
(-0.626614 9.81665 0)
(-0.753032 9.81313 0)
(-0.894786 9.82299 0)
(-1.05069 9.85122 0)
(-1.21819 9.90339 0)
(-1.39304 9.9853 0)
(-1.56901 10.1025 0)
(-1.73767 10.2597 0)
(-1.88847 10.4598 0)
(-2.00912 10.7031 0)
(-2.08708 10.9849 0)
(-2.13722 11.3042 0)
(-2.15621 11.65 0)
(-2.12242 11.9954 0)
(-2.03956 12.3287 0)
(-1.91362 12.6408 0)
(-1.75174 12.9258 0)
(-1.55446 13.1817 0)
(-1.34619 13.4031 0)
(-1.15521 13.5918 0)
(-0.98198 13.7541 0)
(-0.826221 13.8943 0)
(-0.686964 14.0143 0)
(-0.56278 14.1136 0)
(-0.452164 14.1893 0)
(-0.353732 14.2359 0)
(-0.265966 14.2442 0)
(-0.187502 14.1959 0)
(-0.118535 14.0226 0)
(-0.0572409 13.3881 0)
(-0.0153627 11.4497 0)
(-0.334449 9.85997 0)
(-0.26275 9.88349 0)
(-0.198896 9.90549 -1.10964e-17)
(-0.148966 9.9255 1.78134e-20)