/*--------------------------------*- C++ -*----------------------------------*\
  =========                 |
  \\      /  F ield         | OpenFOAM: The Open Source CFD Toolbox
   \\    /   O peration     | Website:  https://openfoam.org
    \\  /    A nd           | Version:  8
     \\/     M anipulation  |
\*---------------------------------------------------------------------------*/
FoamFile
{
    version     2.0;
    format      ascii;
    class       volScalarField;
    location    "0.15";
    object      p;
}
// * * * * * * * * * * * * * * * * * * * * * * * * * * * * * * * * * * * * * //

dimensions      [0 2 -2 0 0 0 0];

internalField   nonuniform List<scalar> 
15677
(
74.453
74.047
73.7113
74.2013
73.71
73.6471
74.1211
73.729
73.6568
73.5824
74.1016
73.7292
73.6573
73.5911
73.4859
74.0834
73.7323
73.6577
73.5904
73.4935
73.3851
74.0606
73.7351
73.6579
73.5909
73.4935
73.3918
73.2718
74.0358
73.7369
73.6577
73.591
73.4942
73.3919
73.2776
73.1351
74.01
73.738
73.657
73.5908
73.4949
73.3927
73.2778
73.1402
72.9682
73.9832
73.7386
73.656
73.5901
73.4953
73.3934
73.2786
73.1405
72.9726
72.7643
73.9553
73.7391
73.6545
73.5893
73.4958
73.3941
73.2794
73.1413
72.973
72.7679
72.5155
73.9264
73.7391
73.653
73.5883
73.4963
73.3948
73.2802
73.1423
72.974
72.7685
72.5184
72.2135
73.8965
73.7381
73.6515
73.5876
73.4971
73.3957
73.2813
73.1434
72.9752
72.7698
72.5191
72.2157
71.85
73.8657
73.7364
73.6503
73.5871
73.4982
73.3971
73.2827
73.1449
72.9768
72.7713
72.5207
72.2166
71.8514
71.4166
73.8374
73.7339
73.6494
73.5869
73.4999
73.3992
73.2848
73.1471
72.9789
72.7733
72.5226
72.2184
71.8522
71.4169
70.905
73.8132
73.7309
73.6493
73.5872
73.5026
73.4024
73.288
73.1502
72.9819
72.7762
72.5253
72.2209
71.8547
71.4182
70.9043
70.3079
73.7923
73.728
73.6499
73.5882
73.5065
73.4071
73.2928
73.155
72.9864
72.7803
72.5291
72.2244
71.8577
71.4208
70.9059
70.3061
69.6185
73.775
73.7247
73.6509
73.59
73.5118
73.4139
73.2999
73.162
72.9931
72.7865
72.5347
72.2294
71.8622
71.4247
70.9089
70.3078
69.6154
68.8311
73.7604
73.7209
73.6522
73.5925
73.5182
73.4232
73.3098
73.1721
73.0029
72.7956
72.5429
72.2367
71.8686
71.4303
70.9137
70.3114
69.6173
68.8265
67.9413
73.7483
73.7167
73.6536
73.5957
73.5253
73.4345
73.3235
73.1864
73.017
72.8089
72.555
72.2475
71.8781
71.4385
70.9207
70.3172
69.6215
68.8287
67.9352
66.9463
73.7381
73.7127
73.6551
73.5994
73.5331
73.4468
73.3402
73.206
73.0368
72.8279
72.5727
72.2633
71.8919
71.4503
70.9308
70.3257
69.6283
68.8335
67.9376
66.9385
65.845
73.7299
73.7089
73.6567
73.6037
73.5415
73.4601
73.3584
73.2298
73.0638
72.8546
72.5979
72.2863
71.9121
71.4678
70.9455
70.338
69.6384
68.8414
67.943
66.9412
65.8354
64.6382
73.7236
73.7056
73.6584
73.6086
73.5506
73.4745
73.3783
73.2556
73.0967
72.8912
72.6332
72.3191
71.9415
71.4932
70.967
70.3558
69.6531
68.8533
67.952
66.9471
65.8383
64.6266
63.3288
73.7187
73.703
73.66
73.6138
73.5601
73.4897
73.3997
73.2839
73.1326
72.9356
72.6816
72.3649
71.9834
71.5301
70.9985
70.382
69.6745
68.8705
67.9657
66.9573
65.8447
64.6297
63.3152
61.922
73.7149
73.7009
73.6616
73.6191
73.5702
73.5056
73.4224
73.3144
73.1718
72.9841
72.7404
72.4277
72.0419
71.5827
71.0441
70.4203
69.7057
68.8955
67.9855
66.9727
65.8559
64.6365
63.3183
61.9061
60.4295
73.7118
73.6993
73.6631
73.6242
73.5801
73.5221
73.4461
73.3466
73.214
73.0372
72.8046
72.5042
72.1221
71.6562
71.109
70.4756
69.7514
68.9322
68.0143
66.995
65.8729
64.6486
63.3254
61.909
60.4099
58.8795
73.7094
73.698
73.6645
73.6288
73.5893
73.5382
73.4706
73.3804
73.2587
73.0943
72.8751
72.5879
72.2199
71.757
71.1997
70.5544
69.8175
68.9858
68.0566
67.0276
65.8977
64.6671
63.338
61.9159
60.4104
58.8189
57.2154
73.7074
73.697
73.6658
73.6329
73.5977
73.553
73.4947
73.4154
73.3055
73.1549
72.9509
72.6796
72.327
71.88
71.3244
70.6648
69.9117
69.0634
68.1184
67.0754
65.9338
64.6939
63.3574
61.9285
60.4157
58.8248
57.1459
55.4212
73.7058
73.6963
73.667
73.6367
73.6052
73.5664
73.5167
73.4496
73.3539
73.2183
73.0314
72.7786
72.4446
72.0149
71.4768
70.8166
70.0439
69.1744
68.2082
67.1456
65.987
64.7331
63.3858
61.9482
60.4268
58.8274
57.1512
55.3959
53.5681
73.7045
73.6956
73.668
73.6402
73.612
73.5784
73.5366
73.481
73.4014
73.284
73.1157
72.8836
72.5716
72.1633
71.6442
71.0025
70.2259
69.3302
68.3368
67.2479
66.0654
64.7911
63.4273
61.977
60.445
58.8354
57.1465
55.3853
53.5576
51.6664
73.7034
73.6951
73.6687
73.6434
73.618
73.5891
73.5545
73.5093
73.4449
73.3484
73.2031
72.9939
72.7066
72.3237
71.8286
71.2071
70.4495
69.5455
68.518
67.3948
66.18
64.8771
63.4893
62.0198
60.4728
58.851
57.1523
55.3766
53.5416
51.6602
49.5178
73.7024
73.6947
73.6695
73.6463
73.6234
73.5986
73.5704
73.5348
73.4842
73.4075
73.2889
73.1082
72.8484
72.4946
72.0283
71.433
70.696
69.8105
68.7688
67.6023
66.3452
65.0034
63.5818
62.0844
60.5151
58.8764
57.1666
55.3834
53.5335
51.6424
49.5149
47.0958
73.7017
73.6944
73.6701
73.6488
73.6282
73.6071
73.5846
73.5575
73.5195
73.4609
73.3677
73.2205
72.9957
72.6743
72.2413
71.678
70.9687
70.1033
69.0786
67.8904
66.5794
65.1864
63.7187
62.182
60.5806
58.917
57.1903
55.3976
53.5416
51.6354
49.4982
47.0949
44.6546
73.701
73.6941
73.6707
73.6511
73.6324
73.6147
73.5972
73.5777
73.551
73.5088
73.4389
73.3238
73.1405
72.8612
72.4658
71.9399
71.2652
70.4282
69.4217
68.2474
66.9058
65.447
63.9184
62.3279
60.6814
58.9819
57.2292
55.4205
53.5562
51.6431
49.4911
47.0796
44.6554
42.2238
73.7004
73.6938
73.6713
73.6531
73.6362
73.6214
73.6084
73.5957
73.5791
73.5517
73.5028
73.4173
73.2739
73.0452
72.6996
72.2164
71.5828
70.7821
69.8034
68.6441
67.3118
65.8118
64.2042
62.5424
60.8343
59.0843
57.2931
55.4583
53.5789
51.6574
49.4961
47.072
44.6418
42.2248
39.8269
73.6936
73.6998
73.6719
73.6549
73.6396
73.6273
73.6183
73.6116
73.604
73.5898
73.56
73.5012
73.3946
73.2149
72.9303
72.505
71.9189
71.1622
70.2203
69.0867
67.7644
66.2674
64.6064
62.8517
61.0614
59.2421
57.396
55.5213
53.6159
51.6794
49.5084
47.0742
44.6338
42.2123
39.8277
37.4791
73.6724
73.6934
73.6991
73.6564
73.6425
73.6325
73.6271
73.6257
73.6262
73.6237
73.611
73.5764
73.5032
73.3687
73.1433
72.7903
72.2706
71.5654
70.6694
69.5717
68.2711
66.7773
65.1112
63.2894
61.3916
59.4795
57.5572
55.6241
53.6776
51.7148
49.5281
47.0834
44.633
42.2033
39.8158
37.4794
35.1922
73.6577
73.6731
73.6932
73.6984
73.6451
73.6372
73.6349
73.6383
73.6458
73.6538
73.6563
73.6434
73.6005
73.5073
73.3367
73.0544
72.619
71.9885
71.1472
70.0957
68.8283
67.3502
65.6786
63.8418
61.862
59.8276
57.8024
55.7871
53.7793
51.774
49.5598
47.0986
44.6385
42.1992
39.8052
37.4678
35.1917
32.9761
73.6474
73.6596
73.6741
73.693
73.6977
73.6413
73.6418
73.6494
73.6632
73.6805
73.6965
73.703
73.6873
73.6315
73.5112
73.2945
72.9422
72.4088
71.65
70.6549
69.4322
67.9824
66.3184
64.4653
62.459
60.327
58.165
56.0376
53.9422
51.8726
49.6141
47.1239
44.648
42.1999
39.7973
37.4555
35.1802
32.9749
30.8395
73.6449
73.6505
73.6617
73.6751
73.6928
73.6971
73.6479
73.6592
73.6786
73.7042
73.7322
73.7559
73.7645
73.7424
73.6677
73.5114
73.2367
72.7996
72.151
71.2454
70.079
68.6702
67.0272
65.1714
63.1362
60.9648
58.6891
56.4111
54.1949
52.0329
49.7068
47.1697
44.6652
42.2025
39.7923
37.4434
35.1658
32.9633
30.8374
28.7886
73.6531
73.6495
73.6539
73.6638
73.6761
73.6927
73.6966
73.6679
73.6923
73.7252
73.7639
73.8029
73.8332
73.8413
73.8077
73.7063
73.5032
73.1566
72.6182
71.8357
70.7643
69.4095
67.8013
65.9569
63.9064
61.6917
59.3626
56.9548
54.575
52.2843
49.8608
47.2521
44.7
42.2099
39.7868
37.432
35.1494
32.9467
30.8256
28.7857
26.8277
73.6754
73.6599
73.6547
73.6574
73.6659
73.6771
73.6925
73.696
73.7043
73.7438
73.792
73.8446
73.8942
73.9292
73.9325
73.8808
73.7431
73.4803
73.0461
72.388
71.4521
70.1959
68.6367
66.8181
64.7667
62.5221
60.1339
57.6578
55.1325
52.6663
50.1065
47.3942
44.7685
42.2314
39.7827
37.4173
35.1312
32.9257
30.8066
28.7736
26.824
24.9593
73.7147
73.6848
73.667
73.6597
73.6608
73.6679
73.678
73.6924
73.6955
73.7603
73.8169
73.8816
73.9483
74.0073
74.0437
74.0366
73.9582
73.7723
73.435
72.8952
72.0978
70.9885
69.5292
67.7516
65.7141
63.4536
61.019
58.4668
55.8578
53.231
50.485
47.6273
44.894
42.283
39.7888
37.4004
35.1065
32.9004
30.781
28.7522
26.8116
24.9548
23.1845
73.7744
73.7276
73.6945
73.6741
73.6647
73.6641
73.6699
73.679
73.6923
73.6951
73.839
73.9145
73.9964
74.0766
74.1425
74.1755
74.1505
74.0345
73.7865
73.3575
72.6927
71.7352
70.4325
68.7532
66.7456
64.4843
62.0165
59.3995
56.6965
53.9702
51.0497
47.9936
45.1086
42.3881
39.8208
37.3894
35.0758
32.8653
30.7485
28.722
26.7877
24.9421
23.1793
21.5033
73.8577
73.7917
73.7404
73.704
73.681
73.6695
73.6673
73.6718
73.68
73.6922
73.6947
73.9435
74.0391
74.1383
74.2303
74.299
74.322
74.2693
74.1028
73.7763
73.2365
72.4257
71.2871
69.7718
67.8577
65.6118
63.1255
60.4558
57.6683
54.8296
51.7946
48.5468
45.4541
42.5786
39.902
37.3995
35.0463
32.8201
30.7028
28.6822
26.753
24.9157
23.1663
21.4974
19.9144
73.9682
73.8807
73.8083
73.7529
73.7132
73.6877
73.6742
73.6704
73.6737
73.6809
73.6921
73.6943
74.0769
74.1931
74.3083
74.4089
74.4749
74.479
74.3865
74.154
73.7304
73.0588
72.0802
70.7396
68.994
66.8332
64.3444
61.6359
58.7745
55.8306
52.6664
49.2838
45.9837
42.8951
40.0634
37.4539
35.0331
32.7713
30.6426
28.6256
26.7059
24.8766
23.1375
21.484
19.9079
18.4161
74.109
73.9983
73.9021
73.8245
73.7651
73.7222
73.6941
73.6787
73.6734
73.6755
73.6818
73.6921
73.694
74.2416
74.3779
74.5067
74.6109
74.6661
74.6404
74.4934
74.1769
73.6356
72.81
71.6414
70.0788
68.0877
65.6718
62.9396
60.0165
56.976
53.688
50.1535
46.6977
43.3898
40.3436
37.5817
35.0583
32.7336
30.574
28.5502
26.6384
24.8223
23.0941
21.4528
19.8942
18.4089
17.0056
74.2826
74.1479
74.0255
73.9228
73.8403
73.7767
73.7307
73.7003
73.683
73.6762
73.6772
73.6826
73.692
73.6937
74.4393
74.5938
74.732
74.8328
74.8671
74.7977
74.5791
74.1584
73.4769
72.4742
71.0938
69.2911
67.0424
64.3668
61.3957
58.2687
54.8637
51.1801
47.5483
44.0666
40.7931
37.8193
35.1488
32.7279
30.5113
28.4618
26.548
24.7441
23.0328
21.4054
19.8607
18.3949
16.9979
15.68
74.4912
74.3325
74.1821
74.0518
73.943
73.8553
73.7878
73.7388
73.7061
73.6871
73.6789
73.6788
73.6835
73.6919
73.6935
74.6708
74.8401
74.9814
75.0694
75.0698
74.9403
74.6304
74.0832
73.2379
72.0348
70.4222
68.3638
65.8488
62.9141
59.7121
56.1985
52.3693
48.5598
44.8814
41.4196
38.2147
35.3386
32.7784
30.4734
28.3738
26.4398
24.6388
22.944
21.3372
19.8094
18.3592
16.9837
15.6718
14.436
74.7357
74.5546
74.3754
74.2153
74.0773
73.9621
73.8695
73.7983
73.7464
73.7116
73.6909
73.6814
73.6803
73.6842
73.6919
73.6933
74.9356
75.1141
75.25
75.313
75.264
75.0552
74.632
73.9342
72.9008
71.475
69.6115
67.285
64.5
61.3103
57.6981
53.7286
49.74
45.8581
42.1827
38.7787
35.6724
32.9163
30.4819
28.303
26.3266
24.5113
22.8242
21.2383
19.7346
18.3042
16.9458
15.6573
14.4272
13.2699
75.0158
74.8156
74.6079
74.4168
74.2473
74.1014
73.98
73.8827
73.808
73.7535
73.7167
73.6945
73.6838
73.6817
73.6849
73.6919
73.6932
75.2312
75.4113
75.5304
75.5537
75.4367
75.127
74.5662
73.693
72.4475
70.7779
68.6478
66.0454
62.9893
59.3692
55.2669
51.0987
47.0058
43.1048
39.4749
36.163
33.1822
30.5648
28.2682
26.2226
24.3731
22.6779
21.1045
19.6259
18.2231
16.8874
15.6174
14.4125
13.2607
12.1782
75.3295
75.1158
74.8815
74.6593
74.4568
74.2774
74.1238
73.9966
73.895
73.817
73.7601
73.7214
73.6977
73.6858
73.6829
73.6855
73.6919
73.693
75.5536
75.7248
75.8131
75.7786
75.5724
75.1378
74.4142
73.3401
71.8594
69.9274
67.5189
64.6345
61.137
56.9944
52.6476
48.3363
44.1958
40.3231
36.7782
33.5899
30.7579
28.2942
26.144
24.2361
22.5154
20.9401
19.4787
18.105
16.8003
15.5558
14.3707
13.2458
12.1683
11.1569
75.6728
75.4537
75.1969
74.9452
74.7089
74.4941
74.3052
74.1443
74.0117
73.9061
73.8251
73.766
73.7256
73.7006
73.6876
73.6839
73.686
73.6919
73.6929
75.896
76.0452
76.0854
75.9726
75.6533
75.0681
74.1552
72.8556
71.1185
68.9086
66.2113
62.8811
58.8369
54.3992
49.862
45.467
41.3318
37.5333
34.1112
31.0746
28.4107
26.1119
24.1137
22.3459
20.7538
19.297
17.9451
16.6733
15.463
14.3061
13.2021
12.1531
11.1458
10.2038
76.0393
75.8263
75.5534
75.2756
75.0065
74.755
74.5283
74.3304
74.1629
74.0254
73.9161
73.8324
73.7712
73.7292
73.7031
73.6891
73.6847
73.6864
73.6919
73.6928
76.2493
76.3603
76.3323
76.1174
75.6593
74.8964
73.7682
72.2195
70.2074
67.7054
64.563
60.667
56.2784
51.595
46.9299
42.511
38.4349
34.756
31.4912
28.6302
26.1492
24.0232
22.1801
20.5527
19.0877
17.7468
16.5013
15.3275
14.2079
13.1349
12.1078
11.1305
10.1885
9.41352
76.4199
76.2278
75.9484
75.6502
75.3511
75.0632
74.797
74.5593
74.3531
74.1795
74.0375
73.9248
73.8387
73.7756
73.7323
73.7051
73.6904
73.6855
73.6868
73.6919
73.6928
76.6015
76.655
76.5356
76.1927
75.568
74.6004
73.2313
71.4123
69.1078
66.1646
62.4396
58.1515
53.4612
48.5969
43.8717
39.4916
35.5288
32.0115
28.9336
26.2672
23.9799
22.0316
20.3445
18.856
17.5156
16.2873
15.1442
14.0646
13.0316
12.0382
11.0839
10.1743
9.4067
8.74736
76.8027
76.6504
76.3771
76.0673
75.743
75.4206
75.1146
74.8348
74.5868
74.3731
74.1939
74.0478
73.9322
73.8438
73.7792
73.7347
73.7068
73.6915
73.6861
73.6872
73.6919
73.6927
76.9372
76.9111
76.6746
76.1756
75.3564
74.1565
72.5232
70.4137
67.6729
64.1307
59.9695
55.33
50.405
45.4326
40.7181
36.4389
32.6387
29.319
26.4519
23.9941
21.9073
20.1386
18.6066
17.2544
16.0351
14.9154
13.8706
12.8808
11.9302
11.0124
10.1267
9.39883
8.75144
8.04836
77.1724
77.0831
76.8324
76.5229
76.1811
75.8282
75.4834
75.1605
74.868
74.6107
74.3902
74.206
74.0564
73.9381
73.8479
73.782
73.7367
73.7081
73.6923
73.6866
73.6874
73.692
73.6927
77.2384
77.1078
76.7259
76.0421
74.9993
73.5422
71.6212
69.0798
65.7249
61.7102
57.1595
52.2394
47.1523
42.1444
37.5075
33.3847
29.7893
26.6959
24.0572
21.8173
19.9342
18.3448
16.9654
15.7457
14.6432
13.6277
12.6769
11.7726
10.9
10.0537
9.35033
8.74562
8.0489
7.29618
77.5104
77.5119
77.3046
77.0111
76.6623
76.2853
75.9048
75.5391
75.2006
74.8966
74.6308
74.4042
74.2157
74.0629
73.9425
73.8508
73.7841
73.7382
73.7092
73.693
73.6871
73.6877
73.692
73.6927
77.4836
77.2212
76.6648
75.7657
74.4726
72.731
70.3819
67.2143
63.3619
58.9352
54.0703
48.9375
43.7547
38.7778
34.2781
30.359
27.0022
24.1568
21.7585
19.7414
18.062
16.6494
15.4187
14.3269
13.3366
12.4208
11.5593
10.736
9.93726
9.2767
8.69754
8.0389
7.29017
6.47427
77.7951
77.9199
77.7809
77.5231
77.1817
76.7898
76.3788
75.9724
75.5875
75.2346
74.9202
74.6469
74.415
74.2227
74.0674
73.9454
73.8529
73.7855
73.7392
73.71
73.6936
73.6874
73.6879
73.692
73.6927
77.6485
77.2259
76.4638
75.3208
73.7461
71.5794
68.5971
64.9198
60.6484
55.8863
50.7654
45.4756
40.2575
35.3728
31.0633
27.3876
24.2958
21.7135
19.5622
17.769
16.2908
15.0506
13.9639
12.9949
12.1119
11.2908
10.5139
9.76734
9.1568
8.62297
7.99048
7.27495
6.46483
5.5776
78.0012
78.2867
78.2453
78.0476
77.7316
77.3375
76.9039
76.461
76.0308
75.6281
75.2624
74.9387
74.6589
74.4224
74.2272
74.0701
73.9472
73.8541
73.7865
73.7399
73.7105
73.6939
73.6877
73.688
73.692
73.6927
77.7064
77.0934
76.0959
74.6731
72.6754
69.8744
66.382
62.2907
57.6726
52.6199
47.2857
41.8909
36.6975
31.9641
27.892
24.4924
21.6849
19.3746
17.4724
15.901
14.6193
13.546
12.5976
11.7462
10.9651
10.2339
9.53707
8.98211
8.50021
7.91423
7.22493
6.44703
5.56684
4.60345
78.1008
78.589
78.6789
78.5701
78.3021
77.922
77.4767
77.004
76.5317
76.0796
75.6608
75.2836
74.9519
74.6665
74.4265
74.2294
74.0713
73.9479
73.8547
73.7869
73.7403
73.7108
73.6942
73.6879
73.6882
73.692
73.6927
77.6276
76.7949
75.5227
73.6782
71.0499
67.7474
63.854
59.4119
54.4768
49.1623
43.6569
38.2131
33.1065
28.5814
24.7887
21.6909
19.1805
17.146
15.4913
14.1371
13.0455
12.1326
11.3165
10.5768
9.89235
9.24613
8.74514
8.3215
7.78828
7.14596
6.39527
5.54829
4.59192
3.54666
78.0622
78.8008
79.0594
79.0732
78.8801
78.5345
78.0921
77.5989
77.0898
76.5903
76.1183
75.6853
75.298
74.9594
74.6699
74.4278
74.2296
74.0711
73.9477
73.8545
73.7868
73.7403
73.711
73.6945
73.6881
73.6882
73.692
73.6928
77.3801
76.289
74.5999
72.1328
69.0164
65.3301
61.0866
56.3087
51.0729
45.5278
39.8998
34.4691
29.5138
25.251
21.7736
18.9967
16.7904
15.0313
13.6192
12.4755
11.5666
10.8069
10.1167
9.48282
8.88983
8.44532
8.07894
7.60513
7.0163
6.31292
5.49509
4.57268
3.53454
2.40031
77.8496
78.8939
79.3616
79.5361
79.4498
79.1635
78.7424
78.2414
77.7034
77.1607
76.6365
76.1467
75.7012
75.3054
74.9619
74.6698
74.4265
74.2281
74.0698
73.9467
73.8538
73.7863
73.7401
73.7113
73.6949
73.6883
73.6883
73.6921
73.6928
76.9189
75.4298
73.1364
70.1957
66.713
62.6809
58.09
52.9823
47.4659
41.7292
36.0363
30.6864
25.9469
21.9958
18.8629
16.4198
14.5196
13.0316
11.8551
10.9138
10.1794
9.56524
8.99421
8.46044
8.07699
7.7716
7.35652
6.82818
6.17907
5.40933
4.51811
3.51426
2.38785
1.15694
77.4124
78.8367
79.5572
79.9351
79.9922
79.7947
79.4175
78.9251
78.3692
77.7896
77.2162
76.6698
76.1643
75.7083
75.3065
74.9599
74.6665
74.4231
74.225
74.0673
73.9448
73.8523
73.7855
73.7405
73.7119
73.6951
73.6883
73.6882
73.6921
73.6929
76.096
74.0431
71.298
68.0064
64.1834
59.7982
54.858
49.4309
43.6621
37.7826
32.0906
26.893
22.4316
18.8355
16.0692
13.9669
12.3704
11.1465
10.1967
9.44883
8.88011
8.40353
7.94513
7.63148
7.39313
7.04102
6.57292
5.98539
5.27099
4.42908
3.45816
2.36666
1.14433
-0.191132
78.5843
76.6035
79.6141
80.2435
80.4851
80.4108
80.1046
79.6412
79.0816
78.4745
77.8569
77.2558
76.6898
76.1712
75.7076
75.302
74.9539
74.6606
74.4178
74.2207
74.0639
73.9421
73.8506
73.7857
73.7413
73.7122
73.6951
73.6882
73.6882
73.6922
73.693
74.7544
72.2978
69.2214
65.5947
61.4168
56.6714
51.3844
45.6551
39.6712
33.7078
28.0899
23.1174
18.992
15.7863
13.4017
11.6418
10.3431
9.37414
8.64107
8.07675
7.66458
7.31783
7.09453
6.93406
6.65155
6.24856
5.72283
5.07119
4.28602
3.36577
2.30873
1.12247
-0.203881
-1.65188
79.4902
78.0005
75.2736
80.4302
80.9037
80.9914
80.7882
80.3784
79.8333
79.211
78.5567
77.9047
77.2791
76.6966
76.1684
75.7001
75.2928
74.9447
74.6523
74.4109
74.2151
74.0593
73.939
73.8506
73.7869
73.7417
73.7123
73.695
73.6881
73.6881
73.6922
73.6931
73.0697
70.3257
66.9264
62.9441
58.4006
53.2918
47.6656
41.6589
35.5075
29.5293
24.0642
19.3879
15.6493
12.8613
10.8666
9.44578
8.43627
7.71166
7.18432
6.79339
6.52879
6.43766
6.37894
6.17784
5.84716
5.38882
4.80067
4.07957
3.21768
2.2127
1.06254
-0.226391
-1.66476
-3.23356
80.4551
79.0712
76.9604
73.6161
81.2188
81.5134
81.4496
81.1229
80.6145
79.9927
79.3123
78.6153
77.9326
77.2861
76.6915
76.1573
75.6867
75.2795
74.9327
74.6421
74.4024
74.208
74.0543
73.9385
73.8521
73.7875
73.7418
73.712
73.6947
73.6879
73.6879
73.6922
73.6932
71.1685
68.1395
64.3916
60.0409
55.1251
49.6531
43.7007
37.4503
31.1903
25.2757
20.0449
15.7316
12.4222
10.0704
8.46702
7.37836
6.64729
6.15511
5.82215
5.59455
5.6083
5.69725
5.60305
5.35762
4.97449
4.45614
3.80042
3.00405
2.05914
0.962614
-0.288319
-1.68799
-3.24653
-4.94467
81.3932
80.2211
78.2095
75.6034
71.7534
81.9497
82.0675
81.8579
81.413
80.8114
80.1184
79.385
78.6496
77.9406
77.2788
76.6764
76.1391
75.6685
75.2627
74.9182
74.6299
74.392
74.2004
74.0532
73.9406
73.853
73.7876
73.7414
73.7116
73.6945
73.6877
73.6877
73.6923
73.6933
69.0575
65.7135
61.6036
56.8757
51.583
45.7513
39.4919
33.0418
26.7441
20.9793
16.0642
12.1736
9.32588
7.41994
6.20409
5.43749
4.97225
4.70005
4.55016
4.62336
4.83415
4.89454
4.76155
4.46782
4.02781
3.44447
2.71555
1.83775
0.803117
-0.392276
-1.75191
-3.27051
-4.95766
-6.79382
82.2669
81.3492
79.5805
77.034
74.0331
69.6883
82.6171
82.5638
82.2137
81.6564
80.9679
80.2095
79.4283
78.6599
77.9312
77.2592
76.6526
76.115
75.6461
75.2431
74.9014
74.6154
74.3811
74.1985
74.056
73.9418
73.8531
73.787
73.7407
73.7113
73.6943
73.6874
73.6875
73.6923
73.6935
66.7063
63.0353
58.5541
53.4413
47.7684
41.5835
35.0439
28.4504
22.1983
16.6751
12.1534
8.73571
6.37186
4.91381
4.07698
3.61955
3.40661
3.34179
3.52021
3.8068
3.99494
4.0241
3.84878
3.50264
3.001
2.34722
1.53916
0.573382
-0.558123
-1.86005
-3.33644
-4.98235
-6.80674
-8.78965
83.0689
82.4083
80.9398
78.6309
75.6503
72.265
67.3852
83.218
82.9989
82.5145
81.8516
81.0829
80.2652
79.4424
78.6489
77.9069
77.2292
76.6216
76.0858
75.6202
75.2207
74.8817
74.6002
74.378
74.2021
74.0576
73.9419
73.8523
73.786
73.7405
73.7112
73.6939
73.687
73.6872
73.6923
73.6937
64.1031
60.0988
55.2377
49.732
43.6757
37.1477
30.3645
23.6986
17.5872
12.3998
8.34222
5.43622
3.56838
2.5534
2.08288
1.92008
1.94545
2.24245
2.65458
2.9218
3.08518
3.08016
2.85884
2.4559
1.88744
1.15746
0.263917
-0.796807
-2.03266
-3.44898
-5.0503
-6.83205
-8.80205
-10.9415
83.7951
83.3896
82.2259
80.228
77.4753
74.0931
70.265
64.8317
83.7483
83.3698
82.7583
81.9975
81.1555
80.2857
79.431
78.62
77.8701
77.1904
76.5846
76.0526
75.5909
75.1946
74.8613
74.5956
74.3828
74.2042
74.0577
73.9408
73.8509
73.7859
73.7408
73.711
73.6935
73.6866
73.6869
73.6924
73.6939
61.2441
56.9008
51.6497
45.741
39.2977
32.4417
25.4649
18.8149
12.9495
8.19012
4.65684
2.2896
0.92054
0.337497
0.2178
0.334051
0.763144
1.31888
1.71669
1.96274
2.09898
2.05674
1.78546
1.32091
0.680143
-0.132187
-1.11794
-2.28089
-3.6288
-5.16747
-6.9019
-8.82744
-10.951
-13.6635
84.4399
84.2877
83.4294
81.7491
79.3094
76.1668
72.3297
68.0213
62.0253
84.204
83.6738
82.9436
82.0926
81.1857
80.2753
79.3978
78.576
77.8228
77.1445
76.5427
76.0152
75.5573
75.1678
74.8548
74.6017
74.3855
74.2043
74.0562
73.9388
73.8511
73.7868
73.7408
73.7105
73.6929
73.686
73.6865
73.6925
73.6941
58.1284
53.4393
47.7845
41.4588
34.624
27.4637
20.3623
13.8347
8.32682
4.08108
1.11994
-0.693575
-1.57005
-1.73681
-1.52313
-0.949168
-0.22977
0.318631
0.7008
0.92364
1.03025
0.947489
0.621924
0.0906663
-0.62828
-1.52949
-2.61449
-3.88716
-5.35496
-7.02388
-8.89919
-10.9764
-13.6765
-16.9052
84.9984
85.0951
84.5456
83.1837
81.0642
78.2524
74.6756
70.344
65.5358
58.9665
84.5818
83.9089
83.0684
82.137
81.1786
80.2387
79.3465
78.5193
77.7669
77.0928
76.496
75.9726
75.5228
75.159
74.8625
74.6051
74.3856
74.2024
74.0536
73.9395
73.8529
73.7874
73.7405
73.7098
73.6921
73.6853
73.6861
73.6925
73.6944
54.7562
49.7108
43.633
36.8698
29.6409
22.2164
15.0826
8.79994
3.76226
0.105253
-2.25018
-3.50721
-3.90426
-3.67383
-2.93175
-2.02645
-1.30464
-0.764272
-0.399212
-0.201733
-0.127469
-0.254379
-0.638818
-1.24223
-2.04559
-3.04251
-4.23404
-5.62408
-7.21947
-9.02621
-11.0492
-13.7076
-16.9219
-20.2074
85.4661
85.804
85.566
84.528
82.7279
80.253
77.0315
72.9819
68.1378
62.8155
55.6579
84.879
84.0725
83.1325
82.1364
81.1401
80.1803
79.28
78.4525
77.7041
77.0354
76.443
75.9289
75.5111
75.1685
74.8668
74.6052
74.3831
74.1989
74.0549
73.9427
73.8545
73.7876
73.7399
73.7088
73.6911
73.6845
73.6855
73.6926
73.6947
51.1265
45.7092
39.1794
31.9535
24.3386
16.7128
9.66264
3.75896
-0.700894
-3.70871
-5.44061
-6.14871
-6.08518
-5.24131
-4.11392
-3.19213
-2.46778
-1.93615
-1.58971
-1.41993
-1.38101
-1.5559
-2.00413
-2.6855
-3.57979
-4.67948
-5.985
-7.49996
-9.23039
-11.1813
-13.7857
-16.9562
-20.2204
-23.5228
85.84
86.4072
86.4809
85.7728
84.2972
82.1562
79.2962
75.6223
71.0867
65.7209
59.8706
52.1007
85.0921
84.1637
83.1428
82.0981
81.0753
80.1037
79.2013
78.3774
77.6345
76.9704
76.3887
75.9139
75.523
75.1738
74.8669
74.602
74.3785
74.2011
74.0601
73.9456
73.8553
73.7872
73.7389
73.7075
73.6899
73.6836
73.6849
73.6927
73.6951
47.2359
41.4225
34.3992
26.6833
18.7059
10.9744
4.15029
-1.2351
-5.02121
-7.33803
-8.44312
-8.61877
-7.85023
-6.55644
-5.3925
-4.45296
-3.72576
-3.20353
-2.87734
-2.73781
-2.73739
-2.96439
-3.48165
-4.24705
-5.23903
-6.44873
-7.87567
-9.52287
-11.3946
-13.9271
-17.0416
-20.2515
-23.5338
-26.8244
86.1154
86.8992
87.2802
86.9072
85.7633
83.9582
81.4585
78.1638
74.0238
69.0011
63.109
56.7116
48.2948
85.2194
84.1903
83.1077
82.0282
80.9887
80.0125
79.1128
78.2943
77.5561
76.9039
76.3697
75.9284
75.5295
75.174
74.8628
74.5962
74.3819
74.2089
74.0649
73.9476
73.8556
73.7864
73.7375
73.7059
73.6884
73.6825
73.6842
73.6928
73.6955
43.0764
36.8242
29.2505
21.0189
12.731
5.02953
-1.39759
-6.12693
-9.16227
-10.7656
-11.2542
-10.6182
-9.33034
-7.97813
-6.77473
-5.81577
-5.08525
-4.57313
-4.26899
-4.16236
-4.20384
-4.48736
-5.07912
-5.93485
-7.03144
-8.35838
-9.91401
-11.6997
-14.1529
-17.1947
-20.3373
-23.5639
-26.8344
-30.0978
86.2892
87.2732
87.9546
87.9196
87.1148
85.6494
83.514
80.5978
76.851
72.2472
66.7436
60.3209
53.3497
44.2385
85.2695
84.1626
83.0346
81.9321
80.8846
79.9096
79.0149
78.2008
77.4758
76.8804
76.3874
75.9363
75.5296
75.1689
74.8554
74.6011
74.3931
74.2162
74.0685
73.9488
73.8552
73.785
73.7356
73.704
73.6867
73.6812
73.6835
73.693
73.696
38.6269
31.8725
23.677
14.916
6.41415
-1.07741
-6.91565
-10.8627
-13.0935
-13.9809
-13.5306
-12.294
-10.9292
-9.51409
-8.2677
-7.28736
-6.55304
-6.05185
-5.77156
-5.70066
-5.78768
-6.13233
-6.80425
-7.75677
-8.96491
-10.4162
-12.1068
-14.4742
-17.4366
-20.4966
-23.6505
-26.8655
-30.1067
-33.3257
86.3713
87.5236
88.492
88.7987
88.34
87.2181
85.4519
82.9208
79.5635
75.3677
70.3118
64.337
57.3764
49.7977
39.922
85.2545
84.0893
82.9303
81.8151
80.7665
79.7957
78.9047
78.1049
77.447
76.9017
76.3969
75.9365
75.5234
75.1596
74.8623
74.6166
74.4037
74.222
74.071
73.9491
73.854
73.7831
73.7333
73.7016
73.6848
73.6798
73.6827
73.6931
73.6965
33.8563
26.5138
17.6115
8.3376
-0.223252
-7.28179
-12.333
-15.3917
-16.792
-16.5862
-15.4372
-14.1029
-12.655
-11.1715
-9.87824
-8.87453
-8.13599
-7.64649
-7.39196
-7.35976
-7.49612
-7.90668
-8.66458
-9.72032
-11.0468
-12.6287
-14.9011
-17.7772
-20.75
-23.8146
-26.9542
-30.1385
-33.3334
-36.4867
86.3758
87.6614
88.8792
89.528
89.4264
88.6516
87.259
85.1222
82.1598
78.3629
73.7332
68.2421
61.8058
54.295
46.0633
35.3245
85.185
83.9784
82.8007
81.6814
80.6355
79.6673
78.7916
78.0703
77.4725
76.913
76.3971
75.9289
75.5118
75.1689
74.8832
74.6315
74.4125
74.2265
74.0725
73.9485
73.8521
73.7804
73.7304
73.6989
73.6825
73.6782
73.6818
73.6933
73.697
28.7178
20.6679
10.9678
1.2613
-7.13589
-13.5014
-17.5758
-19.671
-19.7921
-18.7667
-17.4929
-16.0529
-14.5147
-12.9571
-11.613
-10.5839
-9.84066
-9.36367
-9.13691
-9.14647
-9.33606
-9.81743
-10.6671
-11.8323
-13.283
-15.4462
-18.2256
-21.1056
-24.0771
-27.1243
-30.229
-33.3654
-36.4931
-39.5584
86.3151
87.7035
89.1242
90.0867
90.3538
89.9374
88.9204
87.1883
84.6311
81.2339
77.0136
71.9725
66.0654
59.1744
51.0971
42.1484
30.4149
85.0705
83.8373
82.6512
81.5323
80.4875
79.5353
78.7504
78.1007
77.4859
76.9132
76.3879
75.9147
75.524
75.1963
74.9032
74.6439
74.4195
74.2297
74.0728
73.9469
73.8492
73.777
73.7269
73.6957
73.68
73.6766
73.681
73.6934
73.6976
23.14
14.2143
3.64068
-6.31195
-14.2525
-19.6323
-22.5723
-23.1472
-22.3003
-21.1147
-19.7055
-18.1505
-16.5143
-14.8769
-13.4781
-12.4217
-11.6732
-11.2097
-11.0127
-11.0671
-11.3139
-11.8709
-12.8178
-14.0982
-16.1282
-18.7945
-21.5705
-24.4435
-27.3956
-30.4048
-33.457
-36.5251
-39.5634
-42.5192
86.2006
87.6655
89.2461
90.4782
91.094
91.0531
90.4208
89.1029
86.9649
83.9748
80.1578
75.5401
70.114
63.8094
56.4685
47.8052
38.055
25.1499
84.9195
83.6723
82.4836
81.3635
80.3349
79.4869
78.7863
78.1164
77.4862
76.9023
76.3705
75.9304
75.5592
75.2228
74.9203
74.6543
74.425
74.2313
74.0718
73.944
73.8454
73.7727
73.7228
73.6922
73.6774
73.6748
73.6801
73.6936
73.6982
17.0144
6.9672
-4.48525
-14.3443
-21.4586
-25.5462
-26.6522
-26.0487
-24.9946
-23.6362
-22.0797
-20.3999
-18.6586
-16.9359
-15.4788
-14.3932
-13.6393
-13.19
-13.0249
-13.1271
-13.4351
-14.0724
-15.1216
-16.9775
-19.5035
-22.1568
-24.9195
-27.7706
-30.6835
-33.6368
-36.6168
-39.5951
-42.5227
-45.348
86.0426
87.5614
89.2632
90.7206
91.6468
91.9653
91.734
90.8483
89.146
86.5764
83.1641
78.9546
73.9709
68.1871
61.5023
53.7156
44.4417
33.7834
19.4676
84.74
83.486
82.2929
81.1889
80.2788
79.5291
78.8047
78.1167
77.4732
76.8812
76.3903
75.9749
75.5934
75.2456
74.935
74.6628
74.4285
74.2313
74.0692
73.9399
73.8404
73.7676
73.7182
73.6885
73.6746
73.673
73.6792
73.6938
73.6989
10.1608
-1.36889
-13.4961
-22.7317
-28.5469
-30.3974
-30.0597
-29.1586
-27.8774
-26.3326
-24.6172
-22.8038
-20.9508
-19.1381
-17.6194
-16.503
-15.7433
-15.3093
-15.1779
-15.331
-15.7038
-16.4256
-18.0442
-20.3854
-22.8848
-25.5162
-28.253
-31.0638
-33.9199
-36.7991
-39.6863
-42.5537
-45.35
-48.0249
85.8502
87.4037
89.1931
90.832
92.0301
92.6715
92.8192
92.3923
91.1559
89.0259
86.0277
82.2193
77.652
72.3356
66.2213
59.173
50.9431
41.0294
29.344
13.2892
84.5351
83.2727
82.0949
81.1243
80.328
79.5504
78.805
78.1013
77.4479
76.9057
76.4456
76.018
75.6231
75.2655
74.9472
74.6689
74.4299
74.2293
74.0649
73.9342
73.8343
73.7618
73.7132
73.6844
73.6717
73.6712
73.6782
73.694
73.6996
2.26899
-11.2636
-23.4087
-31.1528
-34.4204
-34.4369
-33.6986
-32.4776
-30.9443
-29.2001
-27.3162
-25.3618
-23.3917
-21.4851
-19.9023
-18.7539
-17.9884
-17.5707
-17.475
-17.6814
-18.1225
-19.4046
-21.4935
-23.7898
-26.2552
-28.854
-31.5481
-34.3014
-37.0833
-39.869
-42.6434
-45.38
-48.0254
-50.5311
85.6276
87.2033
89.0522
90.8302
92.2619
93.1908
93.6716
93.6831
92.9584
91.3069
88.7399
85.335
81.1667
76.2794
70.6638
64.2455
56.8483
48.1825
37.6039
24.7827
6.50751
84.2988
83.0502
82.0214
81.1815
80.3526
79.5507
78.787
78.0712
77.4778
76.9734
76.4993
76.0559
75.6492
75.2824
74.9566
74.6723
74.4289
74.225
74.0586
73.927
73.8271
73.7553
73.7078
73.6802
73.6687
73.6693
73.6773
73.6942
73.7003
-7.34297
-23.5188
-33.6791
-38.3865
-39.2641
-38.707
-37.5481
-35.9916
-34.1851
-32.2298
-30.1713
-28.0706
-25.9795
-23.9764
-22.3278
-21.1468
-20.3758
-19.9755
-19.917
-20.1794
-21.1761
-22.9078
-24.9276
-27.1738
-29.5965
-32.1476
-34.7821
-37.4612
-40.1508
-42.8242
-45.467
-48.0538
-50.5301
-52.8493
85.3689
86.9653
88.8548
90.7334
92.36
93.5419
94.3132
94.7084
94.49
93.3812
91.2882
88.2984
84.5222
80.035
74.8659
68.984
62.2858
54.5583
45.4794
34.2054
20.1919
-1.06321
84.051
82.9673
82.0874
81.2097
80.3529
79.5299
78.7514
78.1071
77.5594
77.0391
76.5466
76.0895
75.6718
75.2959
74.9627
74.6726
74.425
74.2183
74.0503
73.9183
73.819
73.7483
73.702
73.6758
73.6655
73.6673
73.6764
73.6945
73.7011
-20.2282
-37.4371
-43.5577
-44.5737
-44.3652
-43.1669
-41.564
-39.6707
-37.5835
-35.4075
-33.1719
-30.9223
-28.7087
-26.6086
-24.8938
-23.6802
-22.9045
-22.5224
-22.503
-23.3225
-24.7504
-26.3813
-28.3299
-30.5198
-32.8866
-35.374
-37.9332
-40.5209
-43.1
-45.6436
-48.1372
-50.5561
-52.8469
-54.9612
85.0966