/*--------------------------------*- C++ -*----------------------------------*\
  =========                 |
  \\      /  F ield         | OpenFOAM: The Open Source CFD Toolbox
   \\    /   O peration     | Website:  https://openfoam.org
    \\  /    A nd           | Version:  8
     \\/     M anipulation  |
\*---------------------------------------------------------------------------*/
FoamFile
{
    version     2.0;
    format      ascii;
    class       volScalarField;
    location    "0.5";
    object      Ma;
}
// * * * * * * * * * * * * * * * * * * * * * * * * * * * * * * * * * * * * * //

dimensions      [0 0 0 0 0 0 0];

internalField   nonuniform List<scalar> 
15677
(
0.0271476
0.0284275
0.0286674
0.0287415
0.0287694
0.0287809
0.0287854
0.0287864
0.0287855
0.0287833
0.0287804
0.0287771
0.028774
0.0287707
0.0287677
0.028765
0.0287627
0.0287606
0.0287589
0.0287577
0.0287567
0.028756
0.0287555
0.0287551
0.0287548
0.0287546
0.0287544
0.0287543
0.0287542
0.0287541
0.028754
0.0287539
0.0287539
0.0287538
0.0287538
0.0257759
0.0278609
0.0284642
0.0286909
0.028788
0.0288331
0.0288548
0.028863
0.0288615
0.0288554
0.0288473
0.028838
0.0288282
0.0288181
0.0288087
0.0288006
0.0287934
0.0287871
0.0287819
0.0287778
0.0287744
0.0287718
0.0287698
0.0287683
0.0287671
0.0287662
0.0287654
0.0287648
0.0287643
0.0287638
0.0287635
0.0287631
0.0287629
0.0287626
0.0287625
0.0246398
0.0272555
0.0281664
0.0285526
0.0287256
0.0288089
0.0288499
0.0288701
0.0288801
0.0288821
0.028878
0.02887
0.0288598
0.0288482
0.0288372
0.0288275
0.0288188
0.0288111
0.0288045
0.0287988
0.0287939
0.0287899
0.0287867
0.0287842
0.0287821
0.0287804
0.0287789
0.0287777
0.0287767
0.0287759
0.0287752
0.0287746
0.0287741
0.0287736
0.0287732
0.0238139
0.0266481
0.0278274
0.0283921
0.0286539
0.0287805
0.0288453
0.0288796
0.0288975
0.0289049
0.0289047
0.028899
0.0288894
0.0288772
0.0288649
0.0288537
0.0288435
0.0288344
0.0288262
0.028819
0.0288126
0.0288071
0.0288027
0.0287991
0.0287961
0.0287936
0.0287915
0.0287897
0.0287882
0.0287868
0.0287857
0.0287847
0.0287839
0.0287831
0.0287825
0.0231897
0.0260878
0.0274713
0.0282109
0.028572
0.0287478
0.0288379
0.0288864
0.0289126
0.0289253
0.028929
0.028926
0.0289178
0.0289059
0.0288928
0.0288804
0.0288688
0.0288581
0.0288484
0.0288395
0.0288314
0.0288244
0.0288185
0.0288137
0.0288096
0.0288061
0.0288032
0.0288006
0.0287984
0.0287965
0.0287949
0.0287935
0.0287922
0.0287911
0.0287902
0.0227036
0.0255951
0.0271218
0.0280177
0.0284827
0.0287129
0.0288304
0.0288936
0.0289282
0.0289462
0.0289536
0.0289531
0.0289466
0.0289353
0.0289218
0.0289084
0.0288954
0.0288831
0.0288715
0.0288608
0.0288508
0.0288419
0.0288344
0.028828
0.0288226
0.028818
0.028814
0.0288106
0.0288076
0.028805
0.0288027
0.0288008
0.0287991
0.0287976
0.0287963
0.0223181
0.0251753
0.026797
0.0278232
0.0283906
0.0286786
0.0288255
0.0289039
0.0289471
0.0289704
0.0289811
0.0289829
0.0289778
0.0289669
0.0289529
0.0289383
0.0289236
0.0289094
0.0288957
0.0288827
0.0288703
0.0288591
0.0288495
0.0288413
0.0288342
0.0288281
0.0288228
0.0288182
0.0288142
0.0288107
0.0288077
0.028805
0.0288027
0.0288007
0.0287989
0.0220119
0.0248246
0.0265062
0.0276362
0.0282999
0.0286475
0.0288256
0.02892
0.0289719
0.0290002
0.029014
0.0290177
0.0290136
0.0290028
0.0289878
0.0289717
0.028955
0.0289383
0.0289219
0.028906
0.0288907
0.0288766
0.0288643
0.0288537
0.0288445
0.0288365
0.0288295
0.0288234
0.028818
0.0288134
0.0288093
0.0288057
0.0288026
0.0287998
0.0287974
0.021769
0.0245372
0.026255
0.027465
0.0282154
0.0286225
0.0288328
0.0289438
0.0290045
0.0290377
0.0290543
0.0290595
0.0290558
0.0290446
0.0290283
0.0290101
0.0289907
0.0289709
0.0289512
0.0289317
0.0289126
0.0288948
0.0288791
0.0288654
0.0288534
0.0288429
0.0288337
0.0288256
0.0288186
0.0288124
0.028807
0.0288022
0.028798
0.0287942
0.028791
0.0215823
0.0243073
0.0260449
0.0273149
0.0281412
0.028606
0.028849
0.0289769
0.0290463
0.0290842
0.0291033
0.0291096
0.0291059
0.0290937
0.0290753
0.0290544
0.0290316
0.029008
0.0289839
0.0289599
0.028936
0.0289135
0.0288934
0.0288758
0.0288602
0.0288466
0.0288346
0.028824
0.0288147
0.0288066
0.0287994
0.028793
0.0287875
0.0287825
0.0287782
0.0214442
0.0241308
0.0258777
0.0271917
0.0280824
0.0286014
0.0288768
0.0290215
0.0290996
0.0291419
0.0291631
0.02917
0.0291658
0.0291519
0.0291307
0.0291062
0.0290792
0.0290507
0.0290213
0.0289915
0.0289617
0.0289332
0.0289077
0.0288851
0.0288651
0.0288475
0.0288319
0.0288182
0.0288061
0.0287954
0.028786
0.0287777
0.0287703
0.0287639
0.0287581
0.0213533
0.0240045
0.0257537
0.027099
0.0280433
0.0286122
0.0289189
0.0290802
0.0291666
0.029213
0.0292358
0.0292428
0.0292375
0.0292211
0.0291963
0.0291673
0.0291351
0.0291006
0.0290647
0.0290279
0.0289906
0.0289549
0.0289226
0.0288938
0.0288683
0.0288457
0.0288256
0.0288079
0.0287923
0.0287785
0.0287663
0.0287555
0.0287459
0.0287375
0.02873
0.021305
0.0239262
0.0256734
0.0270405
0.0280283
0.0286417
0.028978
0.0291552
0.0292495
0.0292995
0.0293236
0.0293302
0.0293231
0.0293035
0.0292741
0.0292396
0.0292009
0.0291592
0.0291154
0.0290701
0.0290239
0.0289792
0.0289387
0.0289024
0.02887
0.0288412
0.0288157
0.0287931
0.028773
0.0287553
0.0287396
0.0287258
0.0287135
0.0287026
0.0286929
0.0212999
0.0238945
0.0256367
0.0270181
0.0280404
0.0286928
0.0290566
0.0292488
0.0293504
0.0294036
0.0294284
0.0294341
0.0294245
0.0294008
0.0293658
0.0293247
0.0292784
0.0292281
0.0291748
0.0291194
0.0290625
0.0290071
0.0289566
0.0289112
0.0288706
0.0288343
0.0288021
0.0287734
0.028748
0.0287255
0.0287056
0.0286879
0.0286722
0.0286583
0.028646
0.0213345
0.0239086
0.0256443
0.0270342
0.0280831
0.0287687
0.0291572
0.0293631
0.0294713
0.029527
0.029552
0.0295562
0.0295436
0.0295149
0.0294733
0.0294245
0.0293693
0.029309
0.0292447
0.0291774
0.0291079
0.0290399
0.0289775
0.0289212
0.0288706
0.0288254
0.0287851
0.0287492
0.0287173
0.028689
0.0286639
0.0286416
0.0286218
0.0286042
0.0285886
0.0214109
0.0239675
0.0256959
0.02709
0.0281587
0.0288718
0.0292822
0.0295003
0.0296141
0.0296718
0.0296965
0.0296986
0.0296822
0.0296478
0.0295986
0.029541
0.0294756
0.0294039
0.029327
0.029246
0.0291618
0.0290791
0.0290028
0.0289337
0.0288715
0.0288156
0.0287657
0.0287211
0.0286815
0.0286462
0.0286148
0.028587
0.0285622
0.0285402
0.0285207
0.0215261
0.0240703
0.0257914
0.0271865
0.0282691
0.0290044
0.0294332
0.0296619
0.0297804
0.0298394
0.0298633
0.0298629
0.0298422
0.0298012
0.0297435
0.0296761
0.0295994
0.0295147
0.0294235
0.029327
0.0292261
0.0291265
0.0290342
0.0289503
0.0288744
0.0288061
0.0287448
0.0286901
0.0286412
0.0285977
0.0285589
0.0285244
0.0284937
0.0284664
0.0284422
0.021682
0.0242159
0.0259298
0.0273234
0.0284152
0.0291676
0.0296117
0.0298491
0.0299714
0.0300311
0.0300537
0.0300503
0.0300248
0.0299767
0.0299097
0.0298315
0.0297423
0.0296434
0.0295365
0.0294226
0.029303
0.0291842
0.0290737
0.0289728
0.0288812
0.0287985
0.0287241
0.0286575
0.0285978
0.0285446
0.0284971
0.0284547
0.028417
0.0283834
0.0283536
0.0218752
0.0244032
0.0261103
0.0275005
0.0285974
0.0293623
0.0298183
0.0300627
0.0301877
0.0302475
0.0302684
0.0302617
0.030231
0.0301754
0.0300985
0.0300089
0.0299062
0.0297921
0.0296679
0.029535
0.0293948
0.0292547
0.0291238
0.0290037
0.0288942
0.0287951
0.0287056
0.0286252
0.0285531
0.0284886
0.0284309
0.0283794
0.0283334
0.0282924
0.028256
0.0221065
0.0246305
0.0263311
0.0277167
0.0288153
0.0295885
0.0300533
0.0303028
0.0304296
0.0304891
0.0305079
0.0304977
0.0304617
0.0303982
0.0303112
0.0302095
0.0300928
0.0299624
0.0298199
0.0296667
0.029504
0.0293406
0.0291872
0.0290457
0.0289163
0.0287986
0.028692
0.028596
0.0285096
0.0284321
0.0283627
0.0283005
0.028245
0.0281953
0.0281513
0.0223719
0.0248957
0.0265905
0.0279703
0.0290679
0.0298457
0.0303164
0.0305693
0.0306969
0.0307555
0.0307723
0.0307585
0.0307171
0.0306458
0.0305485
0.0304347
0.0303035
0.0301564
0.0299947
0.02982
0.0296334
0.029445
0.029267
0.0291021
0.0289506
0.0288123
0.0286866
0.0285729
0.0284703
0.0283781
0.0282952
0.0282209
0.0281544
0.0280948
0.0280419
0.0226707
0.0251962
0.0268857
0.0282591
0.0293533
0.0301326
0.0306065
0.0308612
0.0309889
0.0310464
0.0310609
0.0310437
0.0309972
0.0309183
0.0308109
0.0306851
0.0305395
0.0303754
0.0301943
0.0299973
0.0297858
0.0295709
0.0293668
0.0291766
0.0290011
0.0288401
0.0286933
0.0285599
0.0284393
0.0283305
0.0282325
0.0281444
0.0280652
0.0279943
0.0279313
0.0229988
0.025529
0.0272139
0.0285803
0.0296693
0.0304474
0.0309221
0.0311771
0.0313044
0.0313605
0.0313729
0.0313526
0.0313014
0.0312155
0.0310986
0.0309612
0.0308016
0.0306209
0.0304203
0.0302009
0.0299638
0.0297215
0.02949
0.0292731
0.0290718
0.0288864
0.0287166
0.0285617
0.0284212
0.0282939
0.028179
0.0280754
0.0279822
0.0278984
0.027824
0.023354
0.0258904
0.0275715
0.0289306
0.0300131
0.0307877
0.0312611
0.0315154
0.0316416
0.0316964
0.0317069
0.0316838
0.0316286
0.0315364
0.031411
0.031263
0.0310902
0.0308936
0.0306741
0.0304326
0.0301701
0.0299
0.0296403
0.0293956
0.0291673
0.0289559
0.0287614
0.0285834
0.0284211
0.0282737
0.0281402
0.0280195
0.0279105
0.0278125
0.0277254
0.023732
0.0262773
0.0279551
0.0293066
0.0303814
0.0311507
0.0316212
0.0318736
0.0319985
0.032052
0.032061
0.0320358
0.0319773
0.03188
0.0317472
0.0315899
0.0314053
0.031194
0.0309568
0.0306943
0.0304069
0.0301093
0.0298212
0.0295482
0.0292921
0.0290536
0.0288332
0.0286305
0.028445
0.0282759
0.0281222
0.0279829
0.0278567
0.0277429
0.0276419
0.02413
0.0266853
0.0283605
0.0297045
0.0307708
0.0315333
0.0319995
0.0322494
0.0323726
0.0324251
0.0324331
0.0324065
0.0323457
0.0322446
0.032106
0.0319409
0.0317462
0.0315221
0.0312689
0.0309869
0.0306761
0.030352
0.0300362
0.029735
0.0294507
0.0291846
0.0289374
0.028709
0.0284992
0.0283071
0.0281319
0.0279725
0.0278278
0.027697
0.0275809
0.0245432
0.0271108
0.0287841
0.0301206
0.0311776
0.0319322
0.0323931
0.0326398
0.0327615
0.0328131
0.0328207
0.0327935
0.0327317
0.0326282
0.0324856
0.0323147
0.032112
0.0318772
0.0316104
0.0313111
0.0309791
0.0306303
0.0302882
0.0299596
0.0296476
0.029354
0.0290797
0.0288252
0.0285902
0.0283743
0.0281766
0.0279962
0.0278318
0.0276829
0.0275507
0.024969
0.0275493
0.0292213
0.0305506
0.0315981
0.032344
0.0327987
0.033042
0.0331621
0.0332133
0.033221
0.0331942
0.0331325
0.0330284
0.0328837
0.0327093
0.032501
0.0322583
0.0319805
0.031667
0.0313166
0.0309458
0.0305794
0.0302252
0.0298868
0.0295664
0.0292655
0.0289848
0.0287246
0.0284844
0.0282638
0.0280617
0.027877
0.0277094
0.0275606
0.0254033
0.0279984
0.0296694
0.0309913
0.032029
0.0327655
0.0332136
0.0334531
0.0335718
0.0336231
0.0336316
0.0336062
0.0335459
0.0334428
0.0332982
0.0331227
0.0329116
0.0326639
0.0323786
0.0320542
0.0316891
0.0312997
0.0309122
0.0305351
0.0301722
0.0298267
0.0295004
0.0291945
0.0289096
0.0286457
0.0284024
0.0281786
0.0279734
0.0277868
0.0276214
0.0258397
0.0284507
0.0301221
0.0314373
0.0324652
0.0331922
0.0336333
0.0338692
0.0339868
0.0340387
0.0340488
0.0340257
0.0339681
0.0338678
0.0337256
0.0335515
0.0333405
0.0330911
0.0328019
0.0324707
0.0320951
0.0316916
0.0312869
0.03089
0.0305058
0.0301379
0.0297888
0.0294602
0.0291529
0.028867
0.0286025
0.0283583
0.0281336
0.027929
0.0277477
0.0287537
0.0287537
0.0287536
0.0287535
0.0287535
0.0287534
0.0287534
0.0287533
0.0287533
0.0287532
0.0287532
0.0287532
0.0287531
0.0287531
0.0287531
0.028753
0.028753
0.028753
0.028753
0.028753
0.0287529
0.0287529
0.0287622
0.0287619
0.0287616
0.0287613
0.028761
0.0287607
0.0287604
0.0287602
0.02876
0.0287597
0.0287595
0.0287593
0.0287591
0.028759
0.0287589
0.0287587
0.0287586
0.0287585
0.0287585
0.0287584
0.0287584
0.0287583
0.0287727
0.0287721
0.0287714
0.0287708
0.0287702
0.0287697
0.0287691
0.0287686
0.0287681
0.0287677
0.0287672
0.0287668
0.0287665
0.0287661
0.0287658
0.0287655
0.0287653
0.0287651
0.0287649
0.0287648
0.0287646
0.0287645
0.0287817
0.0287807
0.0287797
0.0287787
0.0287778
0.0287769
0.028776
0.0287752
0.0287744
0.0287737
0.028773
0.0287724
0.0287719
0.0287714
0.028771
0.0287706
0.0287703
0.0287701
0.0287699
0.0287697
0.0287695
0.0287694
0.028789
0.0287875
0.0287861
0.0287847
0.0287833
0.028782
0.0287808
0.0287796
0.0287784
0.0287774
0.0287764
0.0287755
0.0287747
0.028774
0.0287735
0.028773
0.0287725
0.0287722
0.028772
0.0287718
0.0287716
0.0287716
0.0287946
0.0287927
0.0287908
0.0287889
0.0287871
0.0287854
0.0287837
0.0287822
0.0287807
0.0287793
0.028778
0.0287768
0.0287757
0.0287748
0.0287741
0.0287734
0.0287729
0.0287725
0.0287721
0.0287718
0.0287717
0.0287716
0.0287967
0.0287941
0.0287916
0.0287892
0.0287869
0.0287847
0.0287826
0.0287806
0.0287786
0.0287769
0.0287753
0.0287738
0.0287726
0.0287715
0.0287707
0.02877
0.0287695
0.0287691
0.0287688
0.0287686
0.0287686
0.0287686
0.0287945
0.0287912
0.028788
0.0287849
0.0287819
0.0287791
0.0287764
0.0287739
0.0287716
0.0287695
0.0287675
0.0287657
0.0287642
0.028763
0.0287621
0.0287614
0.0287609
0.0287605
0.0287603
0.0287603
0.0287604
0.0287606
0.0287872
0.028783
0.0287789
0.028775
0.0287713
0.0287678
0.0287644
0.0287613
0.0287585
0.0287559
0.0287536
0.0287516
0.0287499
0.0287486
0.0287476
0.0287469
0.0287465
0.0287462
0.0287462
0.0287464
0.0287467
0.0287472
0.0287733
0.028768
0.0287629
0.028758
0.0287534
0.028749
0.028745
0.0287412
0.0287378
0.0287348
0.0287321
0.0287298
0.028728
0.0287267
0.0287257
0.0287252
0.0287249
0.0287249
0.0287252
0.0287257
0.0287264
0.0287273
0.0287519
0.0287452
0.0287388
0.0287327
0.028727
0.0287217
0.0287167
0.0287122
0.0287081
0.0287045
0.0287014
0.0286989
0.028697
0.0286957
0.0286949
0.0286945
0.0286946
0.028695
0.0286957
0.0286967
0.0286979
0.0286993
0.028722
0.0287137
0.0287057
0.0286981
0.0286911
0.0286845
0.0286785
0.028673
0.0286682
0.028664
0.0286604
0.0286577
0.0286556
0.0286544
0.0286538
0.0286538
0.0286543
0.0286552
0.0286565
0.0286582
0.0286601
0.0286623
0.0286828
0.0286723
0.0286624
0.0286531
0.0286444
0.0286363
0.028629
0.0286225
0.0286167
0.0286118
0.0286078
0.0286047
0.0286027
0.0286016
0.0286013
0.0286017
0.0286028
0.0286045
0.0286066
0.0286091
0.0286119
0.028615
0.0286332
0.0286202
0.0286079
0.0285964
0.0285857
0.0285759
0.028567
0.0285592
0.0285524
0.0285467
0.0285421
0.0285388
0.0285368
0.0285359
0.0285361
0.0285372
0.028539
0.0285415
0.0285446
0.0285482
0.0285522
0.0285566
0.0285726
0.0285564
0.0285412
0.028527
0.0285139
0.0285019
0.0284912
0.0284818
0.0284737
0.0284671
0.028462
0.0284584
0.0284564
0.0284559
0.0284567
0.0284586
0.0284615
0.0284652
0.0284696
0.0284745
0.02848
0.0284858
0.0285007
0.0284806
0.0284618
0.0284443
0.0284282
0.0284136
0.0284006
0.0283892
0.0283796
0.0283719
0.028366
0.0283622
0.0283603
0.0283603
0.0283619
0.0283649
0.028369
0.0283741
0.0283801
0.0283867
0.028394
0.0284017
0.0284173
0.0283924
0.0283692
0.0283477
0.0283279
0.0283101
0.0282943
0.0282806
0.0282692
0.02826
0.0282533
0.0282491
0.0282474
0.028248
0.0282505
0.0282548
0.0282604
0.0282672
0.0282751
0.0282838
0.0282931
0.028303
0.0283229
0.0282921
0.0282635
0.028237
0.0282128
0.0281909
0.0281717
0.0281551
0.0281414
0.0281306
0.0281228
0.0281181
0.0281166
0.0281178
0.0281215
0.0281272
0.0281346
0.0281435
0.0281536
0.0281647
0.0281766
0.0281891
0.0282183
0.0281803
0.028145
0.0281124
0.0280826
0.0280559
0.0280324
0.0280122
0.0279956
0.0279827
0.0279735
0.0279682
0.0279667
0.0279688
0.0279737
0.0279811
0.0279907
0.028002
0.0280147
0.0280286
0.0280435
0.0280591
0.0281051
0.0280582
0.0280147
0.0279746
0.027938
0.0279051
0.0278763
0.0278517
0.0278315
0.0278158
0.0278047
0.0277985
0.0277971
0.0277999
0.0278063
0.0278157
0.0278276
0.0278417
0.0278575
0.0278747
0.027893
0.0279121
0.0279856
0.0279277
0.0278743
0.0278248
0.0277798
0.0277394
0.0277039
0.0276736
0.0276488
0.0276296
0.0276162
0.0276086
0.027607
0.0276105
0.0276184
0.02763
0.0276446
0.0276618
0.0276811
0.027702
0.0277243
0.0277475
0.0278631
0.0277918
0.027726
0.0276652
0.0276096
0.0275598
0.0275161
0.0274787
0.027448
0.0274243
0.0274076
0.0273982
0.0273959
0.0274
0.0274095
0.0274234
0.027441
0.0274618
0.0274849
0.0275101
0.0275369
0.0275647
0.0277417
0.027654
0.0275732
0.0274983
0.0274299
0.0273684
0.0273143
0.027268
0.0272299
0.0272002
0.0271792
0.0271671
0.0271638
0.0271682
0.0271791
0.0271954
0.0272163
0.0272409
0.0272684
0.0272983
0.0273301
0.0273631
0.0276265
0.027519
0.0274201
0.027328
0.0272437
0.0271678
0.0271008
0.0270433
0.0269957
0.0269584
0.0269316
0.0269157
0.0269105
0.0269148
0.026927
0.0269458
0.0269701
0.0269988
0.0270312
0.0270663
0.0271037
0.0271425
0.0275238
0.0273925
0.0272716
0.0271588
0.0270551
0.0269615
0.0268785
0.026807
0.0267474
0.0267003
0.0266659
0.0266447
0.0266366
0.02664
0.0266531
0.0266743
0.0267021
0.0267353
0.0267728
0.0268137
0.0268572
0.0269025
0.0274407
0.0272812
0.0271341
0.0269963
0.0268692
0.0267538
0.0266512
0.0265622
0.0264875
0.0264278
0.0263836
0.0263552
0.0263428
0.0263444
0.0263578
0.026381
0.0264123
0.0264502
0.0264932
0.0265404
0.0265906
0.0266429
0.0273854
0.0271926
0.0270146
0.026847
0.0266917
0.0265501
0.0264234
0.0263129
0.0262194
0.0261438
0.0260867
0.0260488
0.0260301
0.0260286
0.0260414
0.0260663
0.0261009
0.0261435
0.0261924
0.0262462
0.0263037
0.0263637
0.0273669
0.0271355
0.0269213
0.0267186
0.0265298
0.0263567
0.0262009
0.026064
0.0259472
0.0258516
0.0257781
0.0257275
0.0257003
0.0256939
0.025705
0.0257306
0.0257683
0.0258155
0.0258704
0.0259313
0.0259967
0.026065
0.027396
0.0271195
0.0268635
0.0266196
0.0263912
0.0261806
0.0259899
0.025821
0.0256756
0.0255552
0.0254609
0.025394
0.0253552
0.0253416
0.0253493
0.0253747
0.0254147
0.0254664
0.0255274
0.0255956
0.0256693
0.0257464
0.0274875
0.0271592
0.0268548
0.0265631
0.0262881
0.026033
0.0258003
0.0255925
0.0254119
0.0252604
0.0251398
0.0250519
0.0249977
0.024974
0.0249763
0.0250001
0.0250417
0.0250975
0.0251645
0.0252403
0.0253227
0.0254092
0.0287529
0.0287529
0.0287529
0.0287529
0.0287529
0.0287529
0.0287583
0.0287583
0.0287583
0.0287583
0.0287583
0.0287584
0.0287645
0.0287645
0.0287645
0.0287645
0.0287646
0.0287647
0.0287693
0.0287693
0.0287693
0.0287694
0.0287695
0.0287697
0.0287715
0.0287715
0.0287715
0.0287716
0.0287718
0.028772
0.0287715
0.0287715
0.0287717
0.0287719
0.0287722
0.0287725
0.0287686
0.0287686
0.0287686
0.0287688
0.0287692
0.0287696
0.0287606
0.0287606
0.0287607
0.0287609
0.0287614
0.0287619
0.0287473
0.0287472
0.0287473
0.0287476
0.0287482
0.0287489
0.0287276
0.0287274
0.0287275
0.0287279
0.0287286
0.0287295
0.0286998
0.0286996
0.0286996
0.0287001
0.0287009
0.028702
0.0286631
0.0286627
0.0286627
0.0286632
0.0286642
0.0286655
0.0286162
0.0286156
0.0286156
0.0286162
0.0286173
0.028619
0.0285582
0.0285574
0.0285573
0.0285579
0.0285593
0.0285613
0.0284881
0.028487
0.0284868
0.0284874
0.028489
0.0284914
0.0284046
0.0284032
0.0284028
0.0284036
0.0284054
0.0284083
0.0283069
0.028305
0.0283045
0.0283053
0.0283074
0.0283108
0.028194
0.0281917
0.0281909
0.0281918
0.0281943
0.0281983
0.0280651
0.0280622
0.0280612
0.0280622
0.0280651
0.0280699
0.0279195
0.027916
0.0279147
0.0279157
0.0279191
0.0279247
0.0277565
0.0277522
0.0277505
0.0277517
0.0277556
0.0277622
0.0275755
0.0275702
0.0275682
0.0275695
0.027574
0.0275817
0.027376
0.0273697
0.0273672
0.0273685
0.0273738
0.0273827
0.0271576
0.0271501
0.0271471
0.0271485
0.0271546
0.027165
0.02692
0.0269112
0.0269075
0.0269091
0.0269161
0.0269281
0.0266632
0.0266528
0.0266484
0.0266502
0.0266581
0.026672
0.0263869
0.0263747
0.0263695
0.0263714
0.0263805
0.0263965
0.0260913
0.0260771
0.026071
0.0260731
0.0260835
0.0261019
0.0257761
0.0257597
0.0257525
0.0257548
0.0257667
0.0257876
0.0254423
0.0254239
0.0254157
0.0254183
0.0254316
0.0254549
0.0287529
0.0287529
0.028753
0.028753
0.028753
0.028753
0.0287531
0.0287531
0.0287531
0.0287532
0.0287532
0.0287532
0.0287533
0.0287533
0.0287534
0.0287534
0.0287535
0.0287536
0.0287536
0.0287537
0.0287538
0.0287538
0.0287584
0.0287585
0.0287586
0.0287587
0.0287588
0.0287589
0.028759
0.0287592
0.0287593
0.0287595
0.0287597
0.02876
0.0287602
0.0287605
0.0287608
0.028761
0.0287613
0.0287616
0.028762
0.0287623
0.0287626
0.028763
0.0287648
0.028765
0.0287652
0.0287654
0.0287656
0.0287659
0.0287662
0.0287666
0.0287669
0.0287674
0.0287679
0.0287684
0.028769
0.0287696
0.0287702
0.0287708
0.0287715
0.0287722
0.0287729
0.0287736
0.0287743
0.028775
0.0287699
0.0287701
0.0287704
0.0287707
0.0287711
0.0287715
0.028772
0.0287725
0.0287731
0.0287738
0.0287746
0.0287754
0.0287763
0.0287773
0.0287782
0.0287793
0.0287803
0.0287814
0.0287825
0.0287836
0.0287848
0.028786
0.0287723
0.0287726
0.028773
0.0287735
0.028774
0.0287746
0.0287753
0.028776
0.0287769
0.0287779
0.028779
0.0287802
0.0287815
0.0287829
0.0287843
0.0287858
0.0287873
0.0287889
0.0287906
0.0287922
0.0287939
0.0287956
0.0287729
0.0287733
0.0287738
0.0287743
0.028775
0.0287757
0.0287766
0.0287776
0.0287787
0.02878
0.0287815
0.0287831
0.0287848
0.0287867
0.0287886
0.0287906
0.0287927
0.0287948
0.028797
0.0287993
0.0288015
0.0288039
0.02877
0.0287704
0.0287708
0.0287714
0.0287721
0.028773
0.028774
0.0287751
0.0287765
0.0287781
0.02878
0.028782
0.0287842
0.0287865
0.028789
0.0287915
0.0287942
0.0287969
0.0287998
0.0288027
0.0288056
0.0288086
0.0287624
0.0287627
0.0287631
0.0287636
0.0287644
0.0287653
0.0287664
0.0287678
0.0287694
0.0287712
0.0287733
0.0287758
0.0287784
0.0287813
0.0287843
0.0287875
0.0287909
0.0287943
0.0287979
0.0288016
0.0288054
0.0288092
0.0287494
0.0287495
0.0287498
0.0287502
0.0287509
0.0287518
0.028753
0.0287544
0.0287562
0.0287582
0.0287607
0.0287635
0.0287667
0.0287702
0.0287739
0.0287778
0.0287819
0.0287862
0.0287906
0.0287953
0.0288
0.0288049
0.0287299
0.0287297
0.0287297
0.0287299
0.0287304
0.0287312
0.0287322
0.0287337
0.0287355
0.0287377
0.0287405
0.0287437
0.0287474
0.0287515
0.0287559
0.0287606
0.0287656
0.0287708
0.0287763
0.028782
0.0287879
0.0287939
0.0287023
0.0287016
0.0287012
0.028701
0.0287012
0.0287017
0.0287026
0.0287039
0.0287057
0.0287081
0.0287111
0.0287148
0.028719
0.0287238
0.028729
0.0287346
0.0287406
0.028747
0.0287537
0.0287607
0.028768
0.0287755
0.0286656
0.0286643
0.0286632
0.0286625
0.0286622
0.0286623
0.0286629
0.028664
0.0286658
0.0286682
0.0286715
0.0286755
0.0286804
0.0286859
0.028692
0.0286987
0.028706
0.0287137
0.0287219
0.0287305
0.0287395
0.0287488
0.0286188
0.0286166
0.0286147
0.0286132
0.0286122
0.0286118
0.0286119
0.0286127
0.0286143
0.0286167
0.0286202
0.0286247
0.0286302
0.0286366
0.0286438
0.0286517
0.0286604
0.0286698
0.0286798
0.0286903
0.0287014
0.028713
0.0285607
0.0285574
0.0285545
0.028552
0.0285501
0.0285489
0.0285484
0.0285487
0.02855
0.0285524
0.028556
0.0285609
0.0285671
0.0285745
0.0285829
0.0285924
0.0286028
0.0286141
0.0286263
0.0286392
0.0286527
0.028667
0.0284904
0.0284856
0.0284814
0.0284777
0.0284746
0.0284724
0.028471
0.0284707
0.0284715
0.0284737
0.0284774
0.0284828
0.0284898
0.0284983
0.0285082
0.0285194
0.0285319
0.0285456
0.0285603
0.0285761
0.0285927
0.0286103
0.0284066
0.0284001
0.0283942
0.0283889
0.0283845
0.0283809
0.0283785
0.0283773
0.0283775
0.0283794
0.0283832
0.0283891
0.028397
0.0284069
0.0284186
0.028432
0.028447
0.0284635
0.0284814
0.0285006
0.028521
0.0285426
0.0283084
0.0282999
0.0282919
0.0282848
0.0282786
0.0282735
0.0282697
0.0282674
0.0282669
0.0282685
0.0282723
0.0282788
0.0282879
0.0282994
0.0283132
0.0283292
0.0283472
0.0283672
0.028389
0.0284125
0.0284375
0.0284641
0.028195
0.0281839
0.0281736
0.0281642
0.0281559
0.0281489
0.0281436
0.0281401
0.0281387
0.0281398
0.0281438
0.0281509
0.0281614
0.0281749
0.0281913
0.0282104
0.0282322
0.0282565
0.0282831
0.0283117
0.0283424
0.028375
0.0280655
0.0280515
0.0280383
0.0280262
0.0280155
0.0280064
0.0279991
0.0279941
0.0279917
0.0279924
0.0279965
0.0280046
0.0280168
0.0280328
0.0280524
0.0280755
0.0281018
0.0281313
0.0281637
0.0281988
0.0282363
0.0282764
0.0279191
0.0279017
0.0278852
0.02787
0.0278565
0.0278448
0.0278354
0.0278287
0.0278252
0.0278254
0.0278299
0.0278392
0.0278536
0.0278727
0.0278963
0.0279242
0.0279563
0.0279922
0.0280318
0.0280747
0.0281206
0.0281699
0.0277551
0.0277338
0.0277135
0.0276948
0.027678
0.0276635
0.0276517
0.0276431
0.0276384
0.0276382
0.0276433
0.0276543
0.0276716
0.0276946
0.0277233
0.0277573
0.0277964
0.0278403
0.0278887
0.0279412
0.0279974
0.0280578
0.027573
0.0275472
0.0275226
0.0274999
0.0274794
0.0274617
0.0274472
0.0274367
0.0274308
0.0274305
0.0274365
0.0274499
0.0274708
0.0274989
0.0275339
0.0275755
0.0276234
0.0276772
0.0277364
0.0278007
0.0278695
0.0279435
0.0273722
0.0273414
0.027312
0.0272848
0.0272603
0.027239
0.0272216
0.0272091
0.0272022
0.027202
0.0272096
0.0272261
0.027252
0.0272865
0.0273295
0.0273806
0.0274394
0.0275053
0.0275778
0.0276565
0.0277406
0.0278312
0.0271524
0.0271159
0.0270812
0.027049
0.02702
0.0269949
0.0269746
0.0269601
0.0269524
0.0269529
0.0269628
0.0269837
0.0270159
0.0270588
0.0271119
0.0271748
0.027247
0.0273279
0.0274168
0.0275129
0.0276155
0.0277261
0.0269133
0.0268706
0.02683
0.0267924
0.0267586
0.0267294
0.0267061
0.0266897
0.0266817
0.0266835
0.026697
0.0267237
0.0267642
0.0268176
0.0268835
0.0269611
0.0270499
0.0271491
0.0272578
0.0273751
0.0274999
0.0276344
0.0266547
0.0266052
0.0265582
0.0265147
0.0264757
0.0264424
0.0264161
0.0263983
0.0263905
0.0263949
0.0264133
0.0264478
0.0264991
0.0265658
0.0266475
0.0267434
0.0268525
0.0269739
0.0271066
0.0272492
0.0274004
0.0275632
0.0263766
0.0263197
0.0262657
0.0262159
0.0261716
0.0261341
0.0261051
0.0260863
0.0260799
0.026088
0.0261133
0.0261582
0.0262231
0.0263067
0.0264081
0.0265263
0.0266602
0.0268084
0.0269697
0.0271424
0.0273247
0.0275208
0.0260791
0.0260141
0.0259526
0.0258963
0.0258465
0.025805
0.0257737
0.0257548
0.0257509
0.0257647
0.0257993
0.0258576
0.02594
0.0260446
0.0261702
0.0263156
0.0264793
0.0266596
0.0268548
0.0270629
0.0272814
0.0275161
0.0257619
0.0256884
0.0256191
0.025556
0.0255007
0.0254554
0.0254225
0.0254047
0.025405
0.0254269
0.0254739
0.0255494
0.0256537
0.0257842
0.0259394
0.0261177
0.026317
0.0265354
0.0267705
0.0270199
0.0272802
0.0275597
0.0254261
0.0253437
0.0252661
0.025196
0.0251354
0.0250868
0.0250532
0.025038
0.0250447
0.0250776
0.0251408
0.0252384
0.0253702
0.0255328
0.0257244
0.0259424
0.0261844
0.0264478
0.0267297
0.0270271
0.0273356
0.0276665
0.0287539
0.0287539
0.028754
0.028754
0.0287541
0.0287542
0.0287543
0.0287544
0.0287546
0.0287548
0.028755
0.0287553
0.0287557
0.0287563
0.028757
0.0287581
0.0287594
0.0287611
0.028763
0.0287651
0.0287677
0.0287705
0.0287738
0.0287772
0.0287805
0.0287835
0.0287857
0.0287867
0.0287856
0.0287811
0.0287696
0.0287417
0.0286675
0.0284275
0.0271471
0.0287632
0.0287634
0.0287637
0.0287639
0.0287643
0.0287647
0.0287651
0.0287657
0.0287663
0.0287672
0.0287682
0.0287694
0.028771
0.0287731
0.0287759
0.0287794
0.0287838
0.028789
0.028795
0.0288018
0.0288097
0.0288188
0.0288289
0.028839
0.0288483
0.0288562
0.0288617
0.0288634
0.0288561
0.0288346
0.0287896
0.0286924
0.0284657
0.0278623
0.0257767
0.0287756
0.028776
0.0287766
0.0287772
0.0287779
0.0287787
0.0287796
0.0287807
0.028782
0.0287835
0.0287852
0.0287874
0.0287901
0.0287934
0.0287976
0.0288027
0.0288085
0.0288153
0.028823
0.0288316
0.0288413
0.0288523
0.0288639
0.0288742
0.0288822
0.0288864
0.0288851
0.0288751
0.0288541
0.0288133
0.02873
0.028557
0.0281709
0.0272598
0.0246435
0.028787
0.0287877
0.0287885
0.0287895
0.0287906
0.0287919
0.0287934
0.028795
0.028797
0.0287993
0.0288019
0.0288052
0.028809
0.0288137
0.0288194
0.028826
0.0288335
0.0288419
0.0288512
0.0288616
0.0288729
0.0288853
0.0288976
0.0289073
0.0289131
0.0289136
0.0289065
0.0288885
0.0288539
0.0287891
0.0286625
0.0284007
0.027836
0.0266565
0.0238217
0.028797
0.0287981
0.0287994
0.0288008
0.0288024
0.0288042
0.0288063
0.0288087
0.0288115
0.0288147
0.0288185
0.0288229
0.0288282
0.0288344
0.0288418
0.0288503
0.0288596
0.0288697
0.0288808
0.0288927
0.0289054
0.0289188
0.0289309
0.0289392
0.0289424
0.0289389
0.0289263
0.0289002
0.0288516
0.0287615
0.0285857
0.0282247
0.027485
0.0261013
0.0232022
0.0288058
0.0288073
0.028809
0.0288109
0.0288132
0.0288157
0.0288186
0.0288219
0.0288257
0.0288301
0.0288352
0.0288411
0.0288479
0.028856
0.0288654
0.0288759
0.0288872
0.0288993
0.0289121
0.0289256
0.0289395
0.0289534
0.028965
0.0289718
0.0289724
0.0289652
0.0289473
0.0289127
0.0288496
0.0287321
0.0285021
0.0280371
0.0271411
0.0256139
0.0227211
0.0288111
0.0288132
0.0288155
0.0288182
0.0288212
0.0288246
0.0288285
0.0288329
0.028838
0.0288438
0.0288505
0.0288582
0.0288671
0.0288774
0.0288893
0.0289023
0.0289161
0.0289304
0.0289453
0.0289606
0.0289758
0.0289904
0.0290017
0.0290071
0.0290055
0.028995
0.0289718
0.0289287
0.0288504
0.0287036
0.0284157
0.0278483
0.0268219
0.0251994
0.0223406
0.0288125
0.0288153
0.0288184
0.0288219
0.0288259
0.0288305
0.0288356
0.0288415
0.0288482
0.0288559
0.0288646
0.0288746
0.028886
0.0288992
0.0289141
0.0289303
0.0289471
0.0289643
0.0289818
0.0289992
0.0290161
0.0290316
0.0290429
0.0290474
0.029044
0.0290304
0.0290022
0.0289505
0.0288562
0.0286783
0.0283307
0.027667
0.0265365
0.0248539
0.0220394
0.0288091
0.0288127
0.0288169
0.0288215
0.0288268
0.0288328
0.0288396
0.0288473
0.0288561
0.028866
0.0288774
0.0288902
0.0289049
0.0289216
0.0289405
0.0289607
0.0289812
0.0290019
0.0290226
0.0290428
0.0290618
0.0290789
0.0290906
0.0290947
0.0290898
0.0290735
0.0290405
0.02898
0.0288691
0.028659
0.0282519
0.0275012
0.0262904
0.0245715
0.0218012
0.0287993
0.0288041
0.0288095
0.0288156
0.0288225
0.0288304
0.0288392
0.0288492
0.0288606
0.0288735
0.0288881
0.0289047
0.0289235
0.0289447
0.0289684
0.0289936
0.0290188
0.0290439
0.0290686
0.0290923
0.0291142
0.0291333
0.0291462
0.0291503
0.0291444
0.0291257
0.029088
0.0290187
0.028891
0.0286481
0.0281831
0.0273562
0.0260853
0.0243464
0.0216192
0.0287824
0.0287886
0.0287957
0.0288036
0.0288126
0.0288227
0.0288341
0.0288471
0.0288618
0.0288783
0.0288971
0.0289183
0.0289421
0.028969
0.0289988
0.0290301
0.0290611
0.0290918
0.0291214
0.0291495
0.0291749
0.029197
0.0292116
0.0292163
0.0292098
0.029189
0.0291469
0.029069
0.0289244
0.028649
0.0281296
0.0272381
0.0259231
0.0241748
0.0214858
0.0287575
0.0287656
0.0287746
0.0287848
0.0287963
0.0288094
0.028824
0.0288407
0.0288594
0.0288806
0.0289044
0.0289313
0.0289615
0.0289952
0.0290326
0.0290713
0.0291096
0.0291469
0.0291826
0.029216
0.029246
0.0292718
0.029289
0.0292948
0.0292883
0.0292658
0.0292196
0.0291334
0.0289722
0.0286652