/*--------------------------------*- C++ -*----------------------------------*\
  =========                 |
  \\      /  F ield         | OpenFOAM: The Open Source CFD Toolbox
   \\    /   O peration     | Website:  https://openfoam.org
    \\  /    A nd           | Version:  8
     \\/     M anipulation  |
\*---------------------------------------------------------------------------*/
FoamFile
{
    version     2.0;
    format      ascii;
    class       surfaceScalarField;
    location    "0.02";
    object      phi;
}
// * * * * * * * * * * * * * * * * * * * * * * * * * * * * * * * * * * * * * //

dimensions      [0 3 -1 0 0 0 0];

internalField   nonuniform List<scalar> 
31053
(
6.40175e-07
1.27398e-05
8.63222e-07
1.5157e-05
3.5752e-07
1.23823e-05
9.48899e-07
1.75543e-05
5.67819e-07
1.49467e-05
2.75408e-07
1.21069e-05
9.7362e-07
2.02153e-05
6.82686e-07
1.74395e-05
4.71449e-07
1.47506e-05
2.1677e-07
1.18901e-05
9.6505e-07
2.32486e-05
7.41545e-07
2.01564e-05
5.97585e-07
1.73133e-05
3.97276e-07
1.45701e-05
1.72314e-07
1.17178e-05
9.35167e-07
2.66899e-05
7.66751e-07
2.32234e-05
6.72965e-07
2.0081e-05
5.2493e-07
1.71857e-05
3.33219e-07
1.44092e-05
1.38126e-07
1.15797e-05
8.89766e-07
3.06654e-05
7.701e-07
2.66865e-05
7.15317e-07
2.3181e-05
6.06321e-07
1.99997e-05
4.55807e-07
1.70631e-05
2.79251e-07
1.42681e-05
1.11173e-07
1.14685e-05
8.3192e-07
3.51978e-05
7.58057e-07
3.06774e-05
7.35553e-07
2.66663e-05
6.54988e-07
2.31323e-05
5.37341e-07
1.99181e-05
3.92827e-07
1.69495e-05
2.3222e-07
1.4147e-05
8.81814e-08
1.13803e-05
7.65441e-07
4.03865e-05
7.34823e-07
3.52211e-05
7.40144e-07
3.06729e-05
6.80995e-07
2.66403e-05
5.86885e-07
2.30828e-05
4.70703e-07
1.98402e-05
3.33822e-07
1.68479e-05
1.88704e-07
1.40465e-05
6.69355e-08
1.13134e-05
6.9296e-07
4.63525e-05
7.01534e-07
4.04198e-05
7.32991e-07
3.52282e-05
6.90338e-07
3.06635e-05
6.1346e-07
2.66137e-05
5.17749e-07
2.30358e-05
4.04734e-07
1.97693e-05
2.75719e-07
1.67609e-05
1.46097e-07
1.39674e-05
4.61912e-08
1.12672e-05
6.16301e-07
5.32167e-05
6.59687e-07
4.63943e-05
7.14404e-07
4.04384e-05
6.85934e-07
3.52326e-05
6.22986e-07
3.0654e-05
5.41608e-07
2.65899e-05
4.46316e-07
2.29942e-05
3.36675e-07
1.97084e-05
2.15914e-07
1.66911e-05
1.02943e-07
1.39106e-05
2.5481e-08
1.12417e-05
5.37402e-07
6.10589e-05
6.11112e-07
5.32652e-05
6.84777e-07
4.6424e-05
6.7069e-07
4.04536e-05
6.18841e-07
3.52368e-05
5.48062e-07
3.06475e-05
4.64662e-07
2.65715e-05
3.70105e-07
2.29607e-05
2.63899e-07
1.96604e-05
1.53036e-07
1.6641e-05
5.89678e-08
1.38771e-05
5.12061e-09
1.12366e-05
4.58086e-07
7.00613e-05
5.57389e-07
6.11126e-05
6.45229e-07
5.33048e-05
6.45601e-07
4.6449e-05
6.03283e-07
4.04692e-05
5.40598e-07
3.52442e-05
4.65163e-07
3.0647e-05
3.80458e-07
2.65612e-05
2.86465e-07
2.29382e-05
1.84993e-07
1.96284e-05
8.72345e-08
1.66127e-05
1.49118e-08
1.38673e-05
-1.4473e-08
1.12511e-05
3.79995e-07
8.04101e-05
4.99938e-07
7.01188e-05
5.97021e-07
6.11608e-05
6.10709e-07
5.33397e-05
5.77442e-07
4.64749e-05
5.21202e-07
4.04886e-05
4.51231e-07
3.52582e-05
3.72524e-07
3.0655e-05
2.86409e-07
2.65612e-05
1.93897e-07
2.29293e-05
1.00366e-07
1.96153e-05
1.98131e-08
1.66078e-05
-2.81409e-08
1.3881e-05
-3.33376e-08
1.12844e-05
3.17094e-07
7.62529e-05
4.40077e-07
8.047e-05
5.41614e-07
7.01742e-05
5.66334e-07
6.12052e-05
5.416e-07
5.33755e-05
4.90893e-07
4.65052e-05
4.24755e-07
4.0515e-05
3.49517e-07
3.52812e-05
2.67734e-07
3.06736e-05
1.80982e-07
2.65741e-05
9.28497e-08
2.29368e-05
1.175e-08
1.96234e-05
-4.74016e-08
1.66271e-05
-6.96955e-08
1.39173e-05
-5.1633e-08
1.13361e-05
2.63773e-07
7.62433e-05
3.88794e-07
7.63042e-05
4.80682e-07
8.05309e-05
5.13197e-07
7.02273e-05
4.95856e-07
6.12509e-05
4.50037e-07
5.34164e-05
3.86648e-07
4.65433e-05
3.13211e-07
4.05513e-05
2.33311e-07
3.53156e-05
1.49288e-07
3.07053e-05
6.45688e-08
2.66024e-05
-1.47796e-08
2.29633e-05
-7.84373e-08
1.96544e-05
-1.13125e-07
1.66705e-05
-1.09831e-07
1.39755e-05
-6.91651e-08
1.14052e-05
2.18785e-07
7.6235e-05
3.42416e-07
7.62897e-05
4.26733e-07
7.63581e-05
4.52507e-07
8.05916e-05
4.40522e-07
7.02826e-05
3.9873e-07
6.13023e-05
3.37243e-07
5.34658e-05
2.64405e-07
4.65921e-05
1.8471e-07
4.05999e-05
1.01178e-07
3.53637e-05
1.74726e-08
3.07524e-05
-6.09692e-08
2.66486e-05
-1.26286e-07
2.30112e-05
-1.68161e-07
1.97094e-05
-1.77019e-07
1.67377e-05
-1.48323e-07
1.40547e-05
-8.57069e-08
1.14909e-05
1.81038e-07
7.62297e-05
3.00556e-07
7.62768e-05
3.76648e-07
7.63398e-05
3.97135e-07
7.64135e-05
3.76448e-07
8.06557e-05
3.37138e-07
7.03442e-05
2.76653e-07
6.13628e-05
2.03355e-07
5.35268e-05
1.22579e-07
4.66542e-05
3.79035e-08
4.06632e-05
-4.67351e-08
3.54279e-05
-1.25989e-07
3.08175e-05
-1.92886e-07
2.67152e-05
-2.39133e-07
2.30821e-05
-2.56415e-07
1.97888e-05
-2.38622e-07
1.6828e-05
-1.84682e-07
1.41537e-05
-1.01336e-07
1.15923e-05
1.49566e-07
7.62215e-05
2.62829e-07
7.62675e-05
3.30371e-07
7.63231e-05
3.44726e-07
7.63922e-05
3.17362e-07
7.64726e-05
2.65927e-07
8.07269e-05
2.05041e-07
7.04158e-05
1.30173e-07
6.1436e-05
4.70647e-08
5.36023e-05
-4.0115e-08
4.67323e-05
-1.27239e-07
4.07437e-05
-2.08916e-07
3.55109e-05
-2.7847e-07
3.0903e-05
-3.2838e-07
2.68044e-05
-3.51637e-07
2.31774e-05
-3.42287e-07
1.98925e-05
-2.97164e-07
1.69405e-05
-2.1902e-07
1.42714e-05
-1.1619e-07
1.17085e-05
1.23552e-07
7.6216e-05
2.2889e-07
7.62554e-05
2.87774e-07
7.63101e-05
2.95651e-07
7.63722e-05
2.6112e-07
7.64484e-05
2.00239e-07
7.65383e-05
1.23076e-07
8.08088e-05
4.50773e-08
7.05009e-05
-4.17383e-08
6.15248e-05
-1.32879e-07
5.36951e-05
-2.23933e-07
4.6829e-05
-3.09485e-07
4.08443e-05
-3.8296e-07
3.56153e-05
-4.37079e-07
3.10117e-05
-4.65272e-07
2.69181e-05
-4.62375e-07
2.32975e-05
-4.24724e-07
2.00201e-05
-3.52701e-07
1.70742e-05
-2.51606e-07
1.44068e-05
-1.30197e-07
1.18386e-05
1.0212e-07
7.62114e-05
1.98375e-07
7.62465e-05
2.48719e-07
7.62945e-05
2.50076e-07
7.63556e-05
2.08394e-07
7.64249e-05
1.37788e-07
7.65109e-05
4.79444e-08
7.66134e-05
-5.11207e-08
8.0905e-05
-1.43531e-07
7.06027e-05
-2.40334e-07
6.16323e-05
-3.37029e-07
5.38082e-05
-4.27992e-07
4.69475e-05
-5.06734e-07
4.09681e-05
-5.66007e-07
3.57443e-05
-5.99314e-07
3.11458e-05
-6.01657e-07
2.70574e-05
-5.69977e-07
2.34427e-05
-5.03527e-07
2.01709e-05
-4.05466e-07
1.7228e-05
-2.8235e-07
1.45589e-05
-1.43289e-07
1.19819e-05
8.57785e-08
6.95983e-05
1.71018e-07
7.62388e-05
2.13048e-07
7.62822e-05
2.08075e-07
7.63365e-05
1.59557e-07
7.64045e-05
7.9485e-08
7.64832e-05
-2.30758e-08
7.65819e-05
-1.38489e-07
7.67008e-05
-2.57275e-07
8.10188e-05
-3.62093e-07
7.07245e-05
-4.66546e-07
6.17618e-05
-5.64936e-07
5.39451e-05
-6.50588e-07
4.70913e-05
-7.16251e-07
4.11183e-05
-7.55372e-07
3.59003e-05
-7.62856e-07
3.1307e-05
-7.35795e-07
2.72232e-05
-6.73815e-07
2.3613e-05
-5.78663e-07
2.03441e-05
-4.55309e-07
1.7401e-05
-3.11024e-07
1.47267e-05
-1.55333e-07
1.21373e-05
7.32691e-08
6.25565e-05
1.48621e-07
6.96207e-05
1.80664e-07
7.62712e-05
1.69678e-07
7.63206e-05
1.14832e-07
7.63812e-05
2.59003e-08
7.64581e-05
-8.88799e-08
7.6549e-05
-2.20408e-07
7.66638e-05
-3.59609e-07
7.68031e-05
-4.96839e-07
8.11535e-05
-6.12026e-07
7.087e-05
-7.20465e-07
6.19173e-05
-8.15392e-07
5.411e-05
-8.89185e-07
4.72642e-05
-9.35273e-07
4.12982e-05
-9.48363e-07
3.60858e-05
-9.2554e-07
3.14967e-05
-8.66564e-07
2.74159e-05
-7.73422e-07
2.38078e-05
-6.49838e-07
2.05386e-05
-5.01834e-07
1.75918e-05
-3.37418e-07
1.49088e-05
-1.66207e-07
1.23035e-05
6.35231e-08
5.62277e-05
1.30456e-07
6.25747e-05
1.53906e-07
6.96475e-05
1.34916e-07
7.63059e-05
7.43589e-08
7.63611e-05
-2.26042e-08
7.64297e-05
-1.48719e-07
7.65179e-05
-2.95611e-07
7.66242e-05
-4.54743e-07
7.6759e-05
-6.17088e-07
7.69234e-05
-7.71842e-07
8.13133e-05
-8.94083e-07
7.10436e-05
-1.0015e-06
6.21034e-05
-1.08615e-06
5.43069e-05
-1.14103e-06
4.747e-05
-1.16075e-06
4.15106e-05
-1.14234e-06
3.63026e-05
-1.08571e-06
3.17159e-05
-9.92935e-07
2.76354e-05
-8.68203e-07
2.40261e-05
-7.16445e-07
2.07532e-05
-5.44697e-07
1.77991e-05
-3.61222e-07
1.51038e-05
-1.75748e-07
1.24792e-05
5.58164e-08
5.05397e-05
1.15616e-07
5.62426e-05
1.32071e-07
6.25965e-05
1.06358e-07
6.96761e-05
3.8233e-08
7.63421e-05
-6.57927e-08
7.64043e-05
-2.02085e-07
7.64831e-05
-3.63173e-07
7.65855e-05
-5.41244e-07
7.67107e-05
-7.28021e-07
7.68699e-05
-9.13596e-07
7.70651e-05
-1.08385e-06
8.15031e-05
-1.20845e-06
7.12505e-05
-1.3078e-06
6.23251e-05
-1.37453e-06
5.45404e-05
-1.40273e-06
4.7712e-05
-1.3895e-06
4.17578e-05
-1.33506e-06
3.6552e-05
-1.24168e-06
3.19646e-05
-1.11385e-06
2.78811e-05
-9.57219e-07
2.42669e-05
-7.77912e-07
2.09864e-05
-5.83372e-07
1.80212e-05
-3.82147e-07
1.53102e-05
-1.83886e-07
1.26631e-05
4.96416e-08
4.54262e-05
1.034e-07
5.05519e-05
1.14161e-07
5.62605e-05
8.32736e-08
6.26196e-05
9.08655e-09
6.97052e-05
-1.03507e-07
7.63798e-05
-2.48635e-07
7.64508e-05
-4.22425e-07
7.65423e-05
-6.18001e-07
7.66622e-05
-8.28017e-07
7.68107e-05
-1.04361e-06
7.69999e-05
-1.25152e-06
7.72328e-05
-1.43403e-06
8.17287e-05
-1.55378e-06
7.14965e-05
-1.6368e-06
6.25874e-05
-1.67677e-06
5.48145e-05
-1.67046e-06
4.79929e-05
-1.61865e-06
4.20414e-05
-1.52411e-06
3.68344e-05
-1.39179e-06
3.22426e-05
-1.22789e-06
2.81518e-05
-1.03958e-06
2.45286e-05
-8.33458e-07
2.12365e-05
-6.1741e-07
1.82565e-05
-4.00004e-07
1.55263e-05
-1.90526e-07
1.28536e-05
4.46351e-08
4.0831e-05
9.32669e-08
4.54363e-05
9.93906e-08
5.05667e-05
6.45865e-08
5.62792e-05
-1.39639e-08
6.26426e-05
-1.33081e-07
6.97348e-05
-2.88137e-07
7.64193e-05
-4.72898e-07
7.65013e-05
-6.84166e-07
7.66085e-05
-9.15758e-07
7.675e-05
-1.16004e-06
7.69272e-05
-1.4048e-06
7.71532e-05
-1.63299e-06
7.74317e-05
-1.82169e-06
8.19966e-05
-1.92771e-06
7.17874e-05
-1.98439e-06
6.2895e-05
-1.98839e-06
5.51324e-05
-1.94066e-06
4.8315e-05
-1.84497e-06
4.23622e-05
-1.70709e-06
3.71497e-05
-1.534e-06
3.25487e-05
-1.33375e-06
2.84459e-05
-1.11418e-06
2.48093e-05
-8.82435e-07
2.15015e-05
-6.46503e-07
1.8503e-05
-4.14639e-07
1.57504e-05
-1.95693e-07
1.30493e-05
4.05301e-08
3.67001e-05
8.48085e-08
4.08395e-05
8.71448e-08
4.54486e-05
4.94323e-08
5.05818e-05
-3.21444e-08
5.62974e-05
-1.5566e-07
6.26652e-05
-3.17922e-07
6.97646e-05
-5.14261e-07
7.64606e-05
-7.39115e-07
7.65562e-05
-9.90192e-07
7.66829e-05
-1.26132e-06
7.68512e-05
-1.54155e-06
7.70639e-05
-1.8147e-06
7.73349e-05
-2.05803e-06
7.76681e-05
-2.24475e-06
8.23136e-05
-2.32578e-06
7.21288e-05
-2.34536e-06
6.3252e-05
-2.30501e-06
5.54967e-05
-2.20919e-06
4.86792e-05
-2.0652e-06
4.27203e-05
-1.88123e-06
3.74969e-05
-1.6665e-06
3.28814e-05
-1.42993e-06
2.87617e-05
-1.18015e-06
2.5107e-05
-9.24384e-07
2.17794e-05
-6.70417e-07
1.87588e-05
-4.25993e-07
1.59807e-05
-1.9943e-07
1.32488e-05
3.71281e-08
3.29894e-05
7.77178e-08
3.67072e-05
7.69484e-08
4.08497e-05
3.71255e-08
4.54609e-05
-4.64475e-08
5.05962e-05
-1.72716e-07
5.63144e-05
-3.39513e-07
6.26868e-05
-5.43888e-07
6.97942e-05
-7.82395e-07
7.65039e-05
-1.05051e-06
7.66166e-05
-1.34616e-06
7.67678e-05
-1.65993e-06
7.69696e-05
-1.97673e-06
7.72259e-05
-2.2741e-06
7.7551e-05
-2.52491e-06
7.79482e-05
-2.69845e-06
8.26863e-05
-2.74201e-06
7.25255e-05
-2.71444e-06
6.36614e-05
-2.62148e-06
5.5909e-05
-2.47181e-06
4.90858e-05
-2.2757e-06
4.31148e-05
-2.04407e-06
3.78745e-05
-1.7873e-06
3.32388e-05
-1.51525e-06
2.90968e-05
-1.2368e-06
2.54194e-05
-9.5895e-07
2.2068e-05
-6.88996e-07
1.90218e-05
-4.34277e-07
1.62155e-05
-2.01494e-07
1.34503e-05
3.42819e-08
2.96508e-05
7.17513e-08
3.29954e-05
6.84353e-08
3.67157e-05
2.71046e-08
4.08597e-05
-5.7673e-08
4.54721e-05
-1.85442e-07
5.06089e-05
-3.54725e-07
5.63296e-05
-5.63802e-07
6.27067e-05
-8.11465e-07
6.98233e-05
-1.09612e-06
7.65495e-05
-1.41356e-06
7.66839e-05
-1.75838e-06
7.68662e-05
-2.1169e-06
7.71098e-05
-2.46715e-06
7.7419e-05
-2.7817e-06
7.78078e-05
-3.0287e-06
7.82785e-05
-3.17603e-06
8.31203e-05
-3.17016e-06
7.29812e-05
-3.08531e-06
6.41252e-05
-2.93245e-06
5.63697e-05
-2.72388e-06
4.9534e-05
-2.47327e-06
4.3544e-05
-2.19306e-06
3.82803e-05
-1.89479e-06
3.36183e-05
-1.58875e-06
2.94487e-05
-1.28361e-06
2.57441e-05
-9.85903e-07
2.23649e-05
-7.02561e-07
1.929e-05
-4.39056e-07
1.64531e-05
-2.08285e-07
1.36585e-05
3.18808e-08
2.66504e-05
6.67111e-08
2.96559e-05
6.13107e-08
3.30025e-05
1.89086e-08
3.67239e-05
-6.64664e-08
4.08685e-05
-1.94795e-07
4.54814e-05
-3.65022e-07
5.06192e-05
-5.76266e-07
5.63421e-05
-8.28976e-07
6.27242e-05
-1.12457e-06
6.98517e-05
-1.46274e-06
7.65987e-05
-1.83566e-06
7.67612e-05
-2.23334e-06
7.69827e-05
-2.63464e-06
7.72773e-05
-3.01199e-06
7.76493e-05
-3.33254e-06
7.81116e-05
-3.56198e-06
7.86644e-05
-3.67018e-06
8.36203e-05
-3.6026e-06
7.34985e-05
-3.4514e-06
6.46442e-05
-3.23215e-06
5.68779e-05
-2.96135e-06
5.0022e-05
-2.65468e-06
4.40056e-05
-2.32609e-06
3.87116e-05
-1.98771e-06
3.40173e-05
-1.64968e-06
2.98148e-05
-1.32027e-06
2.60784e-05
-1.00561e-06
2.26679e-05
-7.10712e-07
1.95617e-05
-4.4622e-07
1.6691e-05
-2.55312e-07
1.39139e-05
2.9841e-08
2.3956e-05
6.24314e-08
2.66547e-05
5.53315e-08
2.96619e-05
1.21718e-08
3.30092e-05
-7.33472e-08
3.67308e-05
-2.0154e-07
4.08752e-05
-3.71576e-07
4.5488e-05
-5.83102e-07
5.0626e-05
-8.37747e-07
5.63509e-05
-1.13926e-06
6.27389e-05
-1.4913e-06
6.98803e-05
-1.8908e-06
7.66539e-05
-2.32453e-06
7.68524e-05
-2.77435e-06
7.71224e-05
-3.21288e-06
7.74782e-05
-3.60636e-06
7.79231e-05
-3.91863e-06
7.84683e-05
-4.11651e-06
7.91108e-05
-4.17186e-06
8.41896e-05
-4.0314e-06
7.40785e-05
-3.80567e-06
6.52177e-05
-3.51555e-06
5.74321e-05
-3.18015e-06
5.05475e-05
-2.81721e-06
4.44967e-05
-2.44148e-06
3.91654e-05
-2.06506e-06
3.44327e-05
-1.69765e-06
3.01922e-05
-1.34713e-06
2.64199e-05
-1.01772e-06
2.29749e-05
-7.17929e-07
1.98334e-05
-5.49758e-07
1.69855e-05
-2.42501e-07
1.41564e-05
2.80975e-08
2.15337e-05
5.87772e-08
2.39597e-05
5.02935e-08
2.66597e-05
6.61118e-09
2.96674e-05
-7.87274e-08
3.30146e-05
-2.06281e-07
3.67355e-05
-3.75313e-07
4.0879e-05
-5.85758e-07
4.54906e-05
-8.40042e-07
5.06283e-05
-1.14367e-06
5.63553e-05
-1.50346e-06
6.27511e-05
-1.92124e-06
6.99107e-05
-2.38925e-06
7.67186e-05
-2.88442e-06
7.69625e-05
-3.38173e-06
7.72912e-05
-3.84684e-06
7.77186e-05
-4.24186e-06
7.82463e-05
-4.53089e-06
7.88826e-05
-4.68201e-06
7.96209e-05
-4.67167e-06
8.48299e-05
-4.44813e-06
7.47209e-05
-4.14198e-06
6.58441e-05
-3.77761e-06
5.80296e-05
-3.37688e-06
5.11072e-05
-2.95869e-06
4.50139e-05
-2.53795e-06
3.96382e-05
-2.12627e-06
3.48613e-05
-1.73293e-06
3.0578e-05
-1.36393e-06
2.67662e-05
-1.02546e-06
2.32825e-05
-8.85129e-07
2.01688e-05
-5.32807e-07
1.72758e-05
-2.35851e-07
1.43922e-05
2.65996e-08
1.93535e-05
5.56425e-08
2.15369e-05
4.60283e-08
2.3964e-05
2.00849e-09
2.66643e-05
-8.2929e-08
2.96716e-05
-2.09494e-07
3.30178e-05
-3.76959e-07
3.67372e-05
-5.8537e-07
4.08786e-05
-8.37654e-07
4.54883e-05
-1.1406e-06
5.06252e-05
-1.50349e-06
5.63553e-05
-1.93214e-06
6.2762e-05
-2.42449e-06
6.99459e-05
-2.96335e-06
7.67975e-05
-3.51631e-06
7.70971e-05
-4.0509e-06
7.74953e-05
-4.52784e-06
7.80046e-05
-4.90868e-06
7.86241e-05
-5.15792e-06
7.93586e-05
-5.24781e-06
8.0197e-05
-5.15964e-06
8.55414e-05
-4.84539e-06
7.54244e-05
-4.4542e-06
6.65207e-05
-4.01416e-06
5.86669e-05
-3.54883e-06
5.16973e-05
-3.07751e-06
4.55535e-05
-2.61473e-06
4.01267e-05
-2.17151e-06
3.52999e-05
-1.75533e-06
3.09694e-05
-1.37292e-06
2.71136e-05
-1.26469e-06
2.3662e-05
-8.64355e-07
2.05003e-05
-5.1798e-07
1.75579e-05
-2.28358e-07
1.46206e-05
1.73973e-05
2.53068e-08
5.29424e-08
1.93562e-05
4.24004e-08
2.15405e-05
-1.81039e-09
2.39678e-05
-8.62031e-08
2.66676e-05
-2.11549e-07
2.96737e-05
-3.77079e-07
3.30179e-05
-5.82823e-07
3.67346e-05
-8.31981e-07
4.08729e-05
-1.13224e-06
4.54799e-05
-1.49478e-06
5.06165e-05
-1.92862e-06
5.63518e-05
-2.43639e-06
6.27739e-05
-3.00724e-06
6.99898e-05
-3.61473e-06
7.68959e-05
-4.21583e-06
7.7262e-05
-4.77296e-06
7.77404e-05
-5.24546e-06
7.83414e-05
-5.59442e-06
7.90606e-05
-5.78792e-06
7.98987e-05
-5.80259e-06
8.084e-05
-5.62705e-06
8.63231e-05
-5.21587e-06
7.6186e-05
-4.73725e-06
6.72438e-05
-4.22184e-06
5.93399e-05
-3.69391e-06
5.23137e-05
-3.17264e-06
4.61114e-05
-2.67182e-06
4.0627e-05
-2.20069e-06
3.57452e-05
-1.76644e-06
3.13629e-05
-1.69383e-06
2.75428e-05
-1.23956e-06
2.40372e-05
-8.41299e-07
2.08236e-05
-5.00982e-07
1.78306e-05
-2.1963e-07
1.48402e-05
1.73996e-05
5.06052e-08
2.78121e-05
2.31992e-08
3.93011e-08
1.93593e-05
-4.98816e-09
2.15437e-05
-8.87465e-08
2.39703e-05
-2.12734e-07
2.66688e-05
-3.76108e-07
2.96727e-05
-5.78793e-07
3.30139e-05
-8.24096e-07
3.67267e-05
-1.1203e-06
4.0861e-05
-1.48001e-06
4.54651e-05
-1.91477e-06
5.06027e-05
-2.43105e-06
5.63464e-05
-3.02326e-06
6.27899e-05
-3.67175e-06
7.00469e-05
-4.33931e-06
7.70194e-05
-4.97398e-06
7.7463e-05
-5.53702e-06
7.8032e-05
-5.98647e-06
7.87334e-05
-6.28628e-06
7.9559e-05
-6.40834e-06
8.05044e-05
-6.33644e-06
8.15494e-05
-6.06522e-06
8.71724e-05
-5.55339e-06
7.70022e-05
-4.987e-06
6.8009e-05
-4.39799e-06
6.0044e-05
-3.8108e-06
5.29519e-05
-3.24392e-06
4.66835e-05
-2.70921e-06
4.11355e-05
-2.21495e-06
3.61938e-05
-2.18035e-06
3.18494e-05
-1.66382e-06
2.7967e-05
-1.2077e-06
2.44036e-05
-8.13998e-07
2.11367e-05
-4.81395e-07
1.80923e-05
-2.09946e-07
1.50501e-05
1.74023e-05
3.66441e-08
2.78159e-05
4.68234e-08
2.8552e-05
2.11883e-08
-7.64103e-09
1.9362e-05
-9.07137e-08
2.15457e-05
-2.13272e-07
2.39709e-05
-3.7438e-07
2.66671e-05
-5.73796e-07
2.96677e-05
-8.14813e-07
3.30046e-05
-1.10609e-06
3.67125e-05
-1.46126e-06
4.08422e-05
-1.89383e-06
4.54442e-05
-2.41335e-06
5.0585e-05
-3.01858e-06
5.63418e-05
-3.69556e-06
6.28137e-05
-4.41419e-06
7.01217e-05
-5.12801e-06
7.71734e-05
-5.77951e-06
7.77055e-05
-6.3292e-06
7.83747e-05
-6.73721e-06
7.91844e-05
-6.97063e-06
8.01213e-05
-7.00819e-06
8.11762e-05
-6.83948e-06
8.23236e-05
-6.4668e-06
8.80858e-05
-5.85297e-06
7.78681e-05
-5.20014e-06
6.88111e-05
-4.54092e-06
6.07741e-05
-3.89917e-06
5.36071e-05
-3.29133e-06
4.72656e-05
-2.72782e-06
4.16484e-05
-2.73548e-06
3.67489e-05
-2.14501e-06
3.23306e-05
-1.6225e-06
2.83818e-05
-1.1691e-06
2.47587e-05
-7.8238e-07
2.14376e-05
-4.59916e-07
1.83423e-05
-1.99592e-07
1.52497e-05
1.74045e-05
-9.86576e-09
2.78196e-05
3.28924e-08
2.85557e-05
4.31841e-08
2.93119e-05
1.92771e-08
-9.2227e-08
1.93635e-05
-2.13336e-07
2.15457e-05
-3.7215e-07
2.39686e-05
-5.6822e-07
2.66615e-05
-8.04744e-07
2.96576e-05
-1.09058e-06
3.29891e-05
-1.44009e-06
3.66914e-05
-1.86829e-06
4.08167e-05
-2.38714e-06
4.5418e-05
-2.99895e-06
5.05654e-05
-3.69448e-06
5.63407e-05
-4.44967e-06
6.28492e-05
-5.22547e-06
7.02192e-05
-5.96935e-06
7.73633e-05
-6.61802e-06
7.79943e-05
-7.13516e-06
7.87727e-05
-7.48321e-06
7.9697e-05
-7.63559e-06
8.07487e-05
-7.5765e-06
8.19132e-05
-7.30329e-06
8.31601e-05
-6.82576e-06
8.90586e-05
-6.1105e-06
7.87785e-05
-5.3745e-06
6.96447e-05
-4.65008e-06
6.1525e-05
-3.95896e-06
5.42748e-05
-3.31573e-06
4.78535e-05
-3.37097e-06
4.22839e-05
-2.69437e-06
3.72982e-05
-2.09358e-06
3.28017e-05
-1.5715e-06
2.87842e-05
-1.12424e-06
2.51006e-05
-7.47641e-07
2.17254e-05
-4.37119e-07
1.85798e-05
-1.88846e-07
1.54386e-05
1.74057e-05
-9.33829e-08
2.78218e-05
-1.19781e-08
2.85592e-05
2.93641e-08
2.93154e-05
3.96926e-08
3.00898e-05
1.74664e-08
-2.13059e-07
1.93632e-05
-3.69608e-07
2.15432e-05
-5.62351e-07
2.39628e-05
-7.94337e-07
2.66511e-05
-1.07449e-06
2.96416e-05
-1.41768e-06
3.29667e-05
-1.84003e-06
3.66631e-05
-2.35541e-06
4.07849e-05
-2.96895e-06
4.5388e-05
-3.67526e-06
5.05461e-05
-4.45535e-06
5.63464e-05
-5.27655e-06
6.29003e-05
-6.09398e-06
7.03438e-05
-6.84861e-06
7.75938e-05
-7.47475e-06
7.83339e-05
-7.93977e-06
7.92292e-05
-8.2118e-06
8.02732e-05
-8.2692e-06
8.14414e-05
-8.10384e-06
8.27137e-05
-7.72087e-06
8.40552e-05
-7.13707e-06
9.00852e-05
-6.32321e-06
7.97272e-05
-5.50922e-06
7.05038e-05
-4.72531e-06
6.22913e-05
-3.99098e-06
5.495e-05
-4.10034e-06
4.85829e-05
-3.32371e-06
4.29132e-05
-2.63201e-06
3.78367e-05
-2.02898e-06
3.32592e-05
-1.512e-06
2.9172e-05
-1.07478e-06
2.54277e-05
-7.10754e-07
2.1999e-05
-4.1352e-07
1.88045e-05
-1.77882e-07
1.56165e-05
1.74052e-05
-2.12545e-07
2.78205e-05
-9.21774e-08
2.8561e-05
-1.38125e-08
2.93187e-05
2.60582e-08
3.00932e-05
3.63502e-08
3.08897e-05
1.57565e-08
-3.66898e-07
1.93605e-05
-5.56399e-07
2.15372e-05
-7.83913e-07
2.39523e-05
-1.05835e-06
2.66349e-05
-1.39488e-06
2.96188e-05
-1.81046e-06
3.29371e-05
-2.32041e-06
3.66281e-05
-2.93211e-06
4.07481e-05
-3.64327e-06
4.5356e-05
-4.43905e-06
5.05298e-05
-5.29216e-06
5.6362e-05
-6.16449e-06
6.29708e-05
-7.00482e-06
7.05e-05
-7.75073e-06
7.78698e-05
-8.33406e-06
7.87282e-05
-8.72978e-06
7.97472e-05
-8.91023e-06
8.09142e-05
-8.86115e-06
8.21987e-05
-8.58233e-06
8.35752e-05
-8.08629e-06
8.50045e-05
-7.3972e-06
9.11592e-05
-6.48983e-06
8.07078e-05
-5.60399e-06
7.13825e-05
-4.76741e-06
6.30678e-05
-4.93928e-06
5.57889e-05
-4.04668e-06
4.93059e-05
-3.24951e-06
4.35307e-05
-2.55244e-06
3.83601e-05
-1.95328e-06
3.37004e-05
-1.44618e-06
2.95434e-05
-1.02217e-06
2.57391e-05
-6.72561e-07
2.2258e-05
-3.89533e-07
1.90161e-05
-1.66822e-07
1.57833e-05
1.74024e-05
-3.64124e-07
2.78145e-05
-2.06468e-07
2.85594e-05
-9.05848e-08
2.93203e-05
-1.53553e-08
3.00962e-05
2.29793e-08
3.08929e-05
3.31617e-08
3.17096e-05
1.4146e-08
-5.50515e-07
1.93546e-05
-7.73703e-07
2.1527e-05
-1.04253e-06
2.39365e-05
-1.37231e-06
2.66124e-05
-1.78061e-06
2.95889e-05
-2.28385e-06
3.29006e-05
-2.89115e-06
3.65871e-05
-3.6027e-06
4.07075e-05
-4.40701e-06
4.5324e-05
-5.2813e-06
5.0519e-05
-6.1932e-06
5.63907e-05
-7.09858e-06
6.30646e-05
-7.94289e-06
7.06922e-05
-8.65989e-06
7.81957e-05
-9.18241e-06
7.91808e-05
-9.49183e-06
8.03288e-05
-9.56739e-06
8.16204e-05
-9.40266e-06
8.3019e-05
-9.0051e-06
8.4494e-05
-8.39532e-06
8.60026e-05
-7.60437e-06
9.22737e-05
-6.60976e-06
8.17136e-05
-5.65953e-06
7.22746e-05
-5.90562e-06
6.40341e-05
-4.87929e-06
5.66216e-05
-3.95967e-06
5.00161e-05
-3.1534e-06
4.41317e-05
-2.45872e-06
3.88656e-05
-1.86928e-06
3.41235e-05
-1.37605e-06
2.98973e-05
-9.67639e-07
2.60342e-05
-6.33756e-07
2.25023e-05
-3.65342e-07
1.92147e-05
-1.55292e-07
1.59386e-05
1.73967e-05
-5.44801e-07
2.7802e-05
-3.51631e-07
2.85529e-05
-1.99899e-07
2.93183e-05
-8.86184e-08
3.00975e-05
-1.66059e-08
3.08958e-05
2.01262e-08
3.17126e-05
3.01307e-08
3.25535e-05
1.2637e-08
-7.63865e-07
1.93448e-05
-1.02727e-06
2.15118e-05
-1.3504e-06
2.39146e-05
-1.75122e-06
2.6583e-05
-2.24697e-06
2.9552e-05
-2.84811e-06
3.28575e-05
-3.55678e-06
3.65412e-05
-4.36418e-06
4.06647e-05
-5.25119e-06
4.52939e-05
-6.19033e-06
5.05161e-05
-7.14361e-06
5.64357e-05
-8.0638e-06
6.31855e-05
-8.89238e-06
7.09247e-05
-9.56243e-06
7.85757e-05
-1.0006e-05
7.9695e-05
-1.02142e-05
8.09756e-05
-1.01737e-05
8.23915e-05
-9.88598e-06
8.38999e-05
-9.36709e-06
8.54658e-05
-8.64553e-06
8.70437e-05
-7.75759e-06
9.34215e-05
-6.68361e-06
8.27377e-05
-7.01846e-06
7.33875e-05
-5.8399e-06
6.49947e-05
-4.77857e-06
5.74405e-05
-3.84531e-06
5.0708e-05
-3.03952e-06
4.47125e-05
-2.35434e-06
3.93506e-05
-1.77956e-06
3.45271e-05
-1.30327e-06
3.02329e-05
-9.12212e-07
2.63127e-05
-5.94747e-07
2.27317e-05
-3.40977e-07
1.94003e-05
-1.41564e-07
1.60801e-05
1.73873e-05
-7.545e-07
2.77814e-05
-5.24178e-07
2.85397e-05
-3.38485e-07
2.93112e-05
-1.92787e-07
3.00951e-05
-8.62469e-08
3.08967e-05
-1.75649e-08
3.17153e-05
1.74987e-08
3.25564e-05
2.72546e-08
3.34194e-05
1.12258e-08
-1.01274e-06
1.93302e-05
-1.32943e-06
2.14908e-05
-1.72279e-06
2.38862e-05
-2.21065e-06
2.65467e-05
-2.80449e-06
2.95084e-05
-3.50795e-06
3.28087e-05
-4.31438e-06
3.64914e-05
-5.20759e-06
4.06211e-05
-6.16416e-06
4.52677e-05
-7.15139e-06
5.05239e-05
-8.12856e-06
5.65005e-05
-9.04455e-06
6.33376e-05
-9.83978e-06
7.1202e-05
-1.04444e-05
7.90141e-05
-1.07927e-05
8.02735e-05
-1.08866e-05
8.16885e-05
-1.07206e-05
8.32261e-05
-1.03052e-05
8.4838e-05
-9.66519e-06
8.64854e-05
-8.83538e-06
8.81215e-05
-7.85717e-06
9.45951e-05
-8.3e-06
8.40192e-05
-6.94873e-06
7.44963e-05
-5.72485e-06
6.5941e-05
-4.64414e-06
5.82393e-05
-3.70889e-06
5.13773e-05
-2.91222e-06
4.52704e-05
-2.24257e-06
3.98136e-05
-1.68633e-06
3.49101e-05
-1.22925e-06
3.05499e-05
-8.56627e-07
2.65746e-05
-5.55993e-07
2.29467e-05
-3.15409e-07
1.95742e-05
-1.22468e-07
1.62026e-05
1.73736e-05
-9.99045e-07
2.77505e-05
-7.23659e-07
2.85183e-05
-5.02808e-07
2.92974e-05
-3.24733e-07
3.00875e-05
-1.85208e-07
3.0894e-05
-8.34914e-08
3.17159e-05
-1.82293e-08
3.25588e-05
1.50965e-08
3.34221e-05
2.45379e-08
3.43053e-05
9.91133e-09
-1.30959e-06
1.93104e-05
-1.69566e-06
2.14637e-05
-2.17551e-06
2.3851e-05
-2.76138e-06
2.65036e-05
-3.45806e-06
2.94585e-05
-4.26054e-06
3.27549e-05
-5.15502e-06
3.64389e-05
-6.12136e-06
4.05783e-05
-7.13133e-06
4.52476e-05
-8.14992e-06
5.05452e-05
-9.13279e-06
5.65887e-05
-1.00276e-05
6.35255e-05
-1.07712e-05
7.15289e-05
-1.12935e-05
7.95149e-05
-1.15317e-05
8.09186e-05
-1.14997e-05
8.24676e-05
-1.12013e-05
8.41222e-05
-1.06564e-05
8.58292e-05
-9.89719e-06
8.75473e-05
-8.96476e-06
8.92291e-05
-9.77534e-06
9.60704e-05
-8.23006e-06
8.53005e-05
-6.81961e-06
7.5591e-05
-5.56868e-06
6.68655e-05
-4.48254e-06
5.90129e-05
-3.55573e-06
5.20209e-05
-2.77551e-06
4.58033e-05
-2.12623e-06
4.02535e-05
-1.59145e-06
3.52723e-05
-1.15511e-06
3.08484e-05
-8.01603e-07
2.68202e-05
-5.16907e-07
2.31482e-05
-2.91399e-07
1.97431e-05
-1.02615e-07
1.63052e-05
1.7355e-05
-1.29097e-06
2.77071e-05
-9.55641e-07
2.84867e-05
-6.91986e-07
2.92753e-05
-4.80651e-07
3.00731e-05
-3.10323e-07
3.08859e-05
-1.77117e-07
3.17128e-05
-8.03507e-08
3.25592e-05
-1.86062e-08
3.34243e-05
1.29142e-08
3.43079e-05
2.19788e-08
3.52192e-05
8.69254e-09
-1.67004e-06
1.92848e-05
-2.14196e-06
2.14301e-05
-2.71954e-06
2.38092e-05
-3.40843e-06
2.64539e-05
-4.20487e-06
2.94029e-05
-5.09695e-06
3.26968e-05
-6.06719e-06
3.63847e-05
-7.09105e-06
4.0538e-05
-8.13844e-06
4.52361e-05
-9.17108e-06
5.05835e-05
-1.01435e-05
5.67046e-05
-1.09995e-05
6.37538e-05
-1.16744e-05
7.19098e-05
-1.20985e-05
8.00817e-05
-1.2213e-05
8.16318e-05
-1.20459e-05
8.33121e-05
-1.1611e-05
8.50769e-05
-1.09366e-05
8.68686e-05
-1.00624e-05
8.86449e-05
-1.11756e-05
9.06294e-05
-9.71231e-06
9.75527e-05
-8.08898e-06
8.65699e-05
-6.64067e-06
7.6663e-05
-5.37925e-06
6.77622e-05
-4.30022e-06
5.97574e-05
-3.39073e-06
5.26361e-05
-2.63294e-06
4.631e-05
-2.0077e-06
4.06698e-05
-1.49643e-06
3.56136e-05
-1.08188e-06
3.11287e-05
-7.47207e-07
2.70505e-05
-4.79488e-07
2.33363e-05
-2.66948e-07
1.99075e-05
-8.84955e-08
1.63937e-05
1.7331e-05
-1.64604e-06
2.7648e-05
-1.23182e-06
2.84424e-05
-9.11328e-07
2.92428e-05
-6.59542e-07
3.00503e-05
-4.57777e-07
3.08709e-05
-2.95323e-07
3.17042e-05
-1.68545e-07
3.25557e-05
-7.68389e-08
3.34244e-05
-1.86959e-08
3.43098e-05
1.09481e-08
3.52216e-05
1.95737e-08
3.61551e-05
7.5663e-09
-2.11027e-06
1.92531e-05
-2.67949e-06
2.13901e-05
-3.36001e-06
2.37608e-05
-4.14902e-06
2.63981e-05
-5.03605e-06
2.9342e-05
-6.00575e-06
3.26354e-05
-7.03664e-06
3.63303e-05
-8.10275e-06
4.05023e-05
-9.17112e-06
4.52362e-05
-1.02026e-05
5.06426e-05
-1.11477e-05
5.68529e-05
-1.19481e-05
6.40274e-05
-1.25382e-05
7.23495e-05
-1.28489e-05
8.07176e-05
-1.28281e-05
8.2414e-05
-1.25195e-05
8.42206e-05
-1.1946e-05
8.60862e-05
-1.11445e-05
8.79507e-05
-1.25725e-05
9.00419e-05
-1.11277e-05
9.20448e-05
-9.56403e-06
9.90277e-05
-7.88761e-06
8.78168e-05
-6.4212e-06
7.7705e-05
-5.1643e-06
6.86263e-05
-4.10312e-06
6.04698e-05
-3.21827e-06
5.32214e-05
-2.48749e-06
4.67898e-05
-1.88898e-06
4.10623e-05
-1.40267e-06
3.59344e-05
-1.01008e-06
3.13916e-05
-6.94894e-07
2.72659e-05
-4.44061e-07
2.35134e-05
-2.41986e-07
2.00609e-05
-7.89166e-08
1.64726e-05
1.73013e-05
-2.08056e-06
2.75695e-05
-1.56755e-06
2.83821e-05
-1.17155e-06
2.91974e-05
-8.65941e-07
3.00169e-05
-6.26191e-07
3.08473e-05
-4.34184e-07
3.16886e-05
-2.7975e-07
3.25466e-05
-1.59503e-07
3.34205e-05
-7.29622e-08
3.43096e-05
-1.85035e-08
3.52234e-05
9.18955e-09
3.61574e-05
1.73191e-08
3.6589e-05
6.54373e-09
-2.64157e-06
1.92151e-05
-3.31345e-06
2.13435e-05
-4.09416e-06
2.37059e-05
-4.97431e-06
2.63363e-05
-5.94022e-06
2.92764e-05
-6.97288e-06
3.25716e-05
-8.04979e-06
3.62773e-05
-9.14257e-06
4.04738e-05
-1.02177e-05
4.52513e-05
-1.1232e-05
5.07269e-05
-1.21337e-05
5.70384e-05
-1.28623e-05
6.43515e-05
-1.33516e-05
7.28521e-05
-1.35357e-05
8.14253e-05
-1.33707e-05
8.32652e-05
-1.29158e-05
8.51905e-05
-1.2204e-05
8.71457e-05
-1.39605e-05
8.93386e-05
-1.255e-05
9.14641e-05
-1.0981e-05
9.34618e-05
-9.34286e-06
0.000100483
-7.63671e-06
8.90324e-05
-6.17039e-06
7.87111e-05
-4.93101e-06
6.94542e-05
-3.89661e-06
6.11482e-05
-3.04205e-06
5.3776e-05
-2.34169e-06
4.72425e-05
-1.77183e-06
4.14315e-05
-1.31101e-06
3.62354e-05
-9.40855e-07
3.16375e-05
-6.45257e-07
2.74671e-05
-4.09853e-07
2.36813e-05
-2.20243e-07
2.02023e-05
-7.0762e-08
1.65434e-05
1.72657e-05
-2.60595e-06
2.74677e-05
-1.97879e-06
2.83026e-05
-1.4881e-06
2.91363e-05
-1.1104e-06
2.99708e-05
-8.19801e-07
3.08133e-05
-5.92185e-07
3.16644e-05
-4.0993e-07
3.25304e-05
-2.63583e-07
3.3411e-05
-1.50014e-07
3.43054e-05
-6.87368e-08
3.52229e-05
-1.8031e-08
3.61589e-05
7.62963e-09
3.65911e-05
1.52358e-08
3.55529e-05
5.65174e-09
-3.26921e-06
1.91709e-05
-4.04113e-06
2.12905e-05
-4.91318e-06
2.36448e-05
-5.87297e-06
2.62691e-05
-6.9035e-06
2.9207e-05
-7.98509e-06
3.25069e-05
-9.09325e-06
3.6228e-05
-1.01994e-05
4.04555e-05
-1.12663e-05
4.52855e-05
-1.22481e-05
5.08414e-05
-1.30905e-05
5.72666e-05
-1.37311e-05
6.47311e-05
-1.41051e-05
7.34216e-05
-1.41517e-05
8.22063e-05
-1.3835e-05
8.41844e-05
-1.32318e-05
8.62183e-05
-1.53319e-05
8.85171e-05
-1.39751e-05
9.07638e-05
-1.24147e-05
9.28978e-05
-1.07487e-05
9.48677e-05
-9.06111e-06
0.000101907
-7.34711e-06
9.02091e-05
-5.89671e-06
7.96768e-05
-4.68584e-06
7.02434e-05
-3.68521e-06
6.17913e-05
-2.86522e-06
5.42995e-05
-2.19776e-06
4.76684e-05
-1.6574e-06
4.17779e-05
-1.22256e-06
3.65171e-05
-8.7484e-07
3.18671e-05
-5.97839e-07
2.76551e-05
-3.77784e-07
2.38388e-05
-2.00828e-07
2.03323e-05
-6.33308e-08
1.66067e-05
1.7224e-05
-3.22752e-06
2.73393e-05
-2.47754e-06
2.81998e-05
-1.87596e-06
2.90555e-05
-1.40736e-06
2.99088e-05
-1.0484e-06
3.07664e-05
-7.72894e-07
3.16297e-05
-5.57477e-07
3.25056e-05
-3.85117e-07
3.33944e-05
-2.46932e-07
3.42955e-05
-1.40126e-07
3.52184e-05
-6.41851e-08
3.61582e-05
-1.72782e-08
3.65925e-05
6.27737e-09
3.55547e-05
1.3382e-08
3.45448e-05
4.87179e-09
-3.99049e-06
1.91203e-05
-4.8537e-06
2.1231e-05
-5.8058e-06