/*--------------------------------*- C++ -*----------------------------------*\
  =========                 |
  \\      /  F ield         | OpenFOAM: The Open Source CFD Toolbox
   \\    /   O peration     | Website:  https://openfoam.org
    \\  /    A nd           | Version:  8
     \\/     M anipulation  |
\*---------------------------------------------------------------------------*/
FoamFile
{
    version     2.0;
    format      ascii;
    class       volScalarField;
    location    "0.08";
    object      p;
}
// * * * * * * * * * * * * * * * * * * * * * * * * * * * * * * * * * * * * * //

dimensions      [0 2 -2 0 0 0 0];

internalField   nonuniform List<scalar> 
15677
(
80.7655
80.4089
79.9964
80.4734
79.9846
79.999
80.4484
80.0118
80.0084
79.8937
80.4231
80.0132
80.0087
79.9027
79.8039
80.4013
80.0154
80.0086
79.902
79.8115
79.7102
80.3778
80.0177
80.0082
79.9031
79.8114
79.7169
79.5991
80.3527
80.0203
80.0074
79.9034
79.8124
79.7169
79.6049
79.4669
80.3265
80.0234
80.0059
79.9035
79.8129
79.7178
79.605
79.4719
79.3066
80.2992
80.0254
80.004
79.9033
79.8134
79.7184
79.606
79.4722
79.311
79.1111
80.2706
80.0268
80.0013
79.9028
79.8137
79.719
79.6067
79.4732
79.3113
79.1147
78.8728
80.2411
80.0284
79.998
79.9025
79.8141
79.7196
79.6075
79.4741
79.3125
79.1153
78.8758
78.5842
80.2111
80.0294
79.9946
79.9026
79.8147
79.7205
79.6085
79.4752
79.3136
79.1166
78.8765
78.5864
78.2371
80.1814
80.0293
79.991
79.9029
79.8156
79.7216
79.6098
79.4766
79.3151
79.118
78.8781
78.5873
78.2385
77.8238
80.1546
80.0279
79.9874
79.9037
79.8172
79.7235
79.6119
79.4786
79.3171
79.12
78.8799
78.5891
78.2396
77.8242
77.3366
80.1316
80.0256
79.9837
79.9049
79.8197
79.7264
79.6149
79.4816
79.32
79.1227
78.8825
78.5915
78.2418
77.8255
77.3361
76.7688
80.1114
80.0235
79.9806
79.9067
79.8233
79.7307
79.6195
79.4862
79.3242
79.1267
78.8861
78.5948
78.2447
77.8281
77.3376
76.7672
76.1141
80.0938
80.0214
79.9783
79.909
79.8284
79.737
79.6263
79.4928
79.3306
79.1325
78.8914
78.5996
78.249
77.8318
77.3406
76.7689
76.1113
75.3677
80.0785
80.0193
79.9765
79.9117
79.8347
79.7455
79.6358
79.5025
79.3399
79.1412
78.8992
78.6065
78.2551
77.8372
77.3451
76.7724
76.1133
75.3635
74.5259
80.0652
80.0174
79.9752
79.9148
79.8417
79.756
79.6488
79.5161
79.3533
79.1538
78.9108
78.6167
78.264
77.8449
77.3518
76.7778
76.1172
75.3658
74.5202
73.5867
80.0538
80.0156
79.9745
79.9183
79.8493
79.7674
79.6647
79.5348
79.3721
79.172
78.9276
78.6318
78.2771
77.8561
77.3613
76.7858
76.1237
75.3702
74.5228
73.5794
72.5497
80.0448
80.0139
79.9742
79.9222
79.8575
79.78
79.682
79.5575
79.3979
79.1974
78.9516
78.6536
78.2964
77.8726
77.3752
76.7974
76.1332
75.3777
74.5277
73.5822
72.5406
71.4164
80.0378
80.0122
79.9744
79.9265
79.8663
79.7934
79.7009
79.5822
79.4293
79.2322
78.9852
78.6848
78.3243
77.8968
77.3956
76.8143
76.147
75.3888
74.5362
73.5875
72.5438
71.4055
70.1908
80.0324
80.0106
79.975
79.9311
79.8756
79.8078
79.7212
79.6092
79.4635
79.2746
79.0313
78.7284
78.3641
77.9318
77.4254
76.839
76.1671
75.405
74.549
73.5971
72.5494
71.4089
70.1779
68.878
80.0282
80.0093
79.9758
79.9358
79.8852
79.8228
79.7427
79.6382
79.5009
79.3208
79.0873
78.7882
78.4197
77.9816
77.4685
76.8751
76.1966
75.4285
74.5675
73.6114
72.5599
71.4148
70.1813
68.863
67.491
80.0248
80.0082
79.9767
79.9402
79.8947
79.8384
79.7652
79.669
79.5412
79.3714
79.1486
78.8611
78.496
78.0514
77.53
76.9274
76.2395
75.4629
74.5945
73.6323
72.5757
71.426
70.1873
68.8665
67.4734
66.0602
80.0221
80.0073
79.9777
79.9442
79.9035
79.8537
79.7885
79.7012
79.5838
79.4259
79.2157
78.9408
78.5891
78.1471
77.616
77.0019
76.3018
75.5132
74.634
73.6626
72.5987
71.443
70.199
68.8719
67.4741
66.0063
64.5263
80.02
80.0066
79.9786
79.9479
79.9114
79.8677
79.8113
79.7345
79.6284
79.4837
79.288
79.0282
78.691
78.2641
77.7342
77.1063
76.3907
75.5862
74.6918
73.7071
72.632
71.4677
70.2167
68.8837
67.4781
66.0086
64.4606
62.875
80.0182
80.006
79.9796
79.9512
79.9185
79.8804
79.8323
79.7671
79.6747
79.5442
79.3648
79.1225
78.803
78.3923
77.8789
77.2499
76.5154
75.6904
74.7758
73.7724
72.6812
71.5037
70.2426
68.9014
67.488
66.0087
64.4631
62.8459
61.1786
80.0167
80.0055
79.9804
79.9542
79.9249
79.8918
79.8512
79.797
79.7199
79.6069
79.4452
79.2227
78.9239
78.5335
78.0378
77.4262
76.6873
75.837
74.8963
73.8677
72.7538
71.5571
70.2804
68.9275
67.5041
66.0156
64.4565
62.838
61.1685
59.4443
80.0155
80.0051
79.981
79.957
79.9306
79.902
79.8681
79.824
79.7615
79.6683
79.5287
79.3279
79.0526
78.6862
78.213
77.6201
76.8987
76.0397
75.0662
74.0047
72.8601
71.6362
70.3369
68.9661
67.5287
66.0287
64.4626
62.8278
61.1515
59.44
57.4968
80.0144
80.0048
79.9816
79.9596
79.9357
79.9111
79.8833
79.8483
79.799
79.7248
79.6105
79.437
79.1878
78.8489
78.4029
77.8344
77.1318
76.2897
75.3016
74.1985
73.0134
71.7526
70.4214
69.0244
67.5662
66.0503
64.4739
62.8352
61.1422
59.421
57.4956
55.3162
80.0136
80.0045
79.9821
79.9619
79.9402
79.9191
79.8968
79.8699
79.8327
79.7758
79.6858
79.5442
79.3283
79.0201
78.6056
78.0671
77.3902
76.5661
75.5928
74.468
73.2311
71.9215
70.5467
69.1128
67.6245
66.0853
64.4935
62.8458
61.1498
59.4137
57.4776
55.317
53.1276
80.0128
80.0043
79.9826
79.964
79.9442
79.9263
79.9088
79.8892
79.8627
79.8215
79.7538
79.6429
79.4666
79.1984
78.8194
78.316
77.6713
76.8731
75.9158
74.8024
73.535
72.1624
70.7297
69.2451
67.7147
66.142
64.5263
62.8647
61.1602
59.4196
57.4705
55.3003
53.1298
50.9666
80.0122
80.0041
79.983
79.9658
79.9477
79.9327
79.9194
79.9063
79.8895
79.8624
79.8149
79.7321
79.5939
79.3741
79.0423
78.5791
77.9728
77.2081
76.2757
75.1747
73.9138
72.5003
70.9924
69.4403
67.852
66.2322
64.5812
62.8963
61.1788
59.4297
57.4734
55.293
53.1149
50.9689
48.8509
80.0039
80.0115
79.9834
79.9674
79.9509
79.9383
79.9288
79.9215
79.9133
79.8989
79.8695
79.8124
79.7093
79.5362
79.2624
78.8541
78.2923
77.5684
76.6695
75.5907
74.337
72.9234
71.3628
69.7224
68.0567
66.3722
64.6706
62.9496
61.209
59.4474
57.4822
55.2926
53.1073
50.9549
48.8529
46.7911
79.9838
80.0038
80.0107
79.9688
79.9536
79.9433
79.9372
79.9349
79.9344
79.9313
79.9182
79.8842
79.8131
79.6832
79.4658
79.1262
78.627
77.9511
77.0943
76.0476
74.8116
73.398
71.829
70.1228
68.3554
66.5839
64.8118
63.0377
61.2602
59.4752
57.497
55.2988
53.104
50.9464
48.8397
46.7926
44.7974
79.97
79.9844
80.0036
80.0099
79.9561
79.9477
79.9446
79.9469
79.9531
79.96
79.9615
79.9482
79.9061
79.8156
79.6507
79.3783
78.9592
78.3534
77.5471
76.5422
75.3348
73.9326
72.3543
70.6297
68.7823
66.8957
65.028
63.1786
61.3457
59.523
57.5208
55.309
53.1068
50.9398
48.8298
46.7799
44.7981
42.8781
79.9582
79.9717
79.9853
80.0035
80.0091
79.9516
79.9511
79.9574
79.9697
79.9855
80
80.0052
79.9891
79.9344
79.8175
79.6077
79.2676
78.7538
78.0246
77.0711
75.9033
74.5241
72.9486
71.2037
69.3263
67.345
65.3495
63.3968
61.4844
59.6042
57.563
55.3265
53.1115
50.9382
48.8196
46.7684
44.7856
42.8779
41.0392
79.9549
79.9612
79.9737
79.9861
80.0033
80.0084
79.9569
79.9668
79.9844
80.0081
80.0341
80.0558
80.063
80.0406
79.9673
79.8152
79.549
79.1266
78.5014
77.631
76.5137
75.1695
73.609
71.856
69.9455
67.9213
65.8163
63.7241
61.7014
59.7381
57.6371
55.36
53.1212
50.9362
48.8128
46.7544
44.7723
42.8656
41.0381
39.2846
79.9618
79.9595
79.9644
79.9756
79.9869
80.0032
80.0078
79.9751
79.9975
80.0281
80.0643
80.1008
80.1288
80.1352
80.1013
80.0017
79.8039
79.4676
78.9468
78.1922
77.1623
75.8653
74.3327
72.5842
70.6527
68.5811
66.4193
64.2031
62.03
59.9503
57.7624
55.4229
53.1439
50.9365
48.8031
46.7419
44.7545
42.8501
41.0259
39.2827
37.6168
79.9821
79.9685
79.9643
79.9677
79.9776
79.9877
80.0031
80.0072
80.009
80.0459
80.0911
80.1406
80.1871
80.2193
80.2208
80.1688
80.0335
79.7773
79.3554
78.7182
77.8152
76.6079
75.1164
73.3859
71.4458
69.3381
67.1134
64.826
62.5151
60.2754
57.9652
55.5345
53.1925
50.9463
48.7929
46.7239
44.736
42.8285
41.0083
39.2705
37.614
36.0364
80.0187
79.9915
79.9751
79.9691
79.9709
79.9795
79.9886
80.003
80.0066
80.0617
80.115
80.176
80.2389
80.2942
80.3273
80.3181
80.2396
80.0568
79.7274
79.2024
78.4296
77.3589
75.9569
74.2583
72.3233
70.1914
67.9138
65.5469
63.1502
60.7598
58.281
55.7212
53.2862
50.978
48.788
46.7021
44.7093
42.8039
40.9828
39.2507
37.6017
36.0329
34.5432
80.0748
80.0316
80.0004
79.9819
79.9738
79.974
79.9813
79.9894
80.0029
80.0061
80.1361
80.2075
80.2849
80.3606
80.422
80.4513
80.424
80.3082
80.064
79.6445
78.9971
78.0686
76.8109
75.1986
73.283
71.1404
68.8206
66.3826
63.8893
61.3983
58.7568
56.019
53.4511
51.0502
48.8006
46.6815
44.6753
42.7682
40.952
39.2216
37.5797
36.0204
34.539
33.1358
80.1537
80.0923
80.0433
80.0095
79.9885
79.9784
79.977
79.9831
79.9902
80.0028
80.0056
80.2353
80.3258
80.4196
80.5062
80.5698
80.5886
80.5334
80.3673
80.0456
79.517
78.7267
77.6219
76.1591
74.323
72.1839
69.8347
67.3347
64.7508
62.1459
59.3894
56.4742
53.7228
51.1886
48.8484
46.6733
44.638
42.7217
40.9073
39.1846
37.547
35.9963
34.5264
33.131
31.8121
80.2584
80.1769
80.1074
80.0553
80.0184
79.9949
79.9829
79.98
79.9848
79.991
80.0027
80.0052
80.3621
80.4722
80.581
80.6752
80.7353
80.7348
80.6397
80.4079
79.9902
79.3318
78.377
77.0757
75.3913
73.321
70.9561
68.4053
65.7381
63.0226
60.1356
57.0864
54.1459
51.4271
48.9564
46.6947
44.608
42.6672
40.8481
39.1309
37.504
35.9602
34.5002
33.1182
31.8068
30.5694
80.392
80.289
80.1962
80.123
80.0671
80.0269
80.001
79.9872
79.9828
79.9864
79.9918
80.0026
80.0048
80.5187
80.6477
80.769
80.8659
80.9146
80.8836
80.734
80.4186
79.8842
79.074
77.9331
76.4161
74.496
72.1852
69.5961
66.8545
64.0331
61.0167
57.8153
54.7227
51.8077
49.1554
46.7688
44.6015
42.6149
40.7764
39.0591
37.4416
35.9114
34.4609
33.09
31.7937
30.5636
29.4046
80.5569
80.4318
80.3133
80.2163
80.1382
80.0782
80.0351
80.0069
79.9913
79.9855
79.988
79.9926
80.0026
80.0044
80.7067
80.8527
80.9823
81.0748
81.1017
81.0265
80.8051
80.386
79.7126
78.7277
77.3793
75.6295
73.4632
70.9094
68.104
65.1828
62.0391
58.6832
55.4172
52.336
49.4849
46.9234
44.6392
42.5796
40.7016
38.9704
37.3574
35.8405
34.4065
33.0476
31.7637
30.5503
29.3984
28.3143
80.755
80.6082
80.4622
80.3389
80.2357
80.1526
80.0888
80.0428
80.0124
79.9951
79.988
79.9894
79.9933
80.0025
80.0041
80.9267
81.0862
81.2176
81.2963
81.2885
81.1527
80.8398
80.2945
79.4586
78.2761
76.7004
74.7034
72.2838
69.4909
66.4777
63.2103
59.698
56.2514
52.9806
49.9532
47.1944
44.7456
42.5791
40.6371
38.8734
37.252
35.7443
34.3274
32.9879
31.7184
30.5185
29.3849
28.3077
27.2949
80.9871
80.8205
80.6461
80.4945
80.3636
80.254
80.1662
80.0988
80.0501
80.0176
79.9988
79.9903
79.9908
79.9939
80.0024
80.0039
81.1781
81.3454
81.4701
81.5227
81.4646
81.2489
80.8223
80.1268
79.1042
77.702
75.8814
73.6257
70.9523
67.9247
64.539
60.8698
57.235
53.7621
50.5335
47.5925
44.9523
42.6346
40.5975
38.7796
37.1333
35.6229
34.2197
32.9011
31.6536
30.4707
29.3515
28.294
27.288
26.3429
81.2527
81.0699
80.8674
80.6866
80.5256
80.3866
80.2712
80.1788
80.1081
80.0568
80.0225
80.0021
79.9925
79.9921
79.9945
80.0024
80.0037
81.4584
81.6257
81.7322
81.7439
81.6168
81.2994
80.7349
79.8643
78.631
76.9886
74.9078
72.3887
69.4603
66.0349
62.2102
58.3803
54.6914
51.2441
48.0956
45.2719
42.7729
40.6004
38.7006
37.0108
35.4832
34.0829
32.7825
31.5595
30.4011
29.3012
28.2591
27.2741
26.3356
25.4545
81.5497
81.3567
81.1278
80.9179
80.7254
80.5544
80.4081
80.287
80.1905
80.1167
80.0631
80.027
80.0052
79.9945
79.9931
79.9951
80.0024
80.0035
81.7632
81.92
81.994
81.9468
81.7294
81.2861
80.5581
79.4869
78.0202
76.1191
73.7691
70.9795
67.6353
63.7334
59.7023
55.7829
52.0968
48.7186
45.6865
43.0075
40.6676
38.6504
36.8928
35.3325
33.9231
32.6311
31.4306
30.3001
29.2271
28.2065
27.2378
26.3215
25.4468
24.6258
81.8737
81.6793
81.4279
81.1905
80.9661
80.7612
80.581
80.4278
80.3015
80.2012
80.1245
80.0687
80.031
80.0079
79.9962
79.9941
79.9955
80.0023
80.0033
82.0858
82.2189
82.243
82.116
81.7841
81.189
80.271
78.9745
77.253
75.0803
72.4485
69.2316
65.3793
61.2183
57.0533
53.1056
49.4722
46.2064
43.3242
40.8121
38.6451
36.7895
35.1763
33.7453
32.4522
31.2655
30.1615
29.1197
28.1283
27.1832
26.2839
25.4324
24.6174
23.8565
82.2184
82.0345
81.7667
81.5056
81.2502
81.0104
80.7941
80.6053
80.4456
80.3146
80.2107
80.1314
80.0737
80.0344
80.0102
79.9976
79.9948
79.9959
80.0023
80.0032
82.417
82.5098
82.4637
82.2329
81.7605
80.9861
79.852
78.3063
76.3134
73.8517
70.7873
67.0368
62.8708
58.5199
54.2865
50.3683
46.8397
43.7276
41.0237
38.6963
36.7113
35.021
33.5521
32.2483
31.0684
29.9836
28.972
28.0149
27.1011
26.2275
25.3937
24.603
23.844
23.2183
82.5744
82.4164
82.1416
81.8628
81.5793
81.3049
81.0509
80.8238
80.6271
80.4615
80.3262
80.2191
80.1374
80.0779
80.0373
80.0121
79.9988
79.9955
79.9963
80.0023
80.0031
82.7444
82.7775
82.6375
82.2768
81.6359
80.655
79.2784
77.4638
75.1784
72.2837
68.6635
64.5448
60.1272
55.655
51.4208
47.595
44.2222
41.3
38.7976
36.6676
34.8704
33.3461
32.0196
30.8399
29.7694
28.7822
27.8588
26.9822
26.1418
25.3356
24.5633
23.83
23.2138
22.6816
82.9295
82.8172
82.5478
82.2601
81.9535
81.6465
81.3545
81.0872
80.8503
80.6462
80.4753
80.3361
80.2262
80.1423
80.0813
80.0396
80.0137
79.9998
79.996
79.9966
80.0023
80.003
83.0529
83.0036
82.7435
82.2243
81.3867
80.1711
78.5297
76.422
73.706
70.2343
66.1928
61.7632
57.1645
52.6466
48.4858
44.8138
41.6419
38.9395
36.656
34.7318
33.1245
31.7647
30.5773
29.5175
28.552
27.6579
26.8182
26.0178
25.2467
24.5041
23.7894
23.2043
22.6866
22.1225
83.2684
83.2257
82.978
82.6936
82.3717
82.0361
81.7072
81.3988
81.1193
80.8733
80.6626
80.4869
80.3442
80.2318
80.1462
80.0839
80.0414
80.015
80.0006
79.9965
79.9968
80.0023
80.003
83.3238
83.1669
82.7578
82.051
80.9869
79.5119
77.5791
75.0436
71.7299
67.789
63.3863
58.7199
54.0185
49.5353
45.5183
42.054
39.12
36.6598
34.6068
32.8925
31.4742
30.2756
29.2227
28.2781
27.4127
26.607
25.8465
25.1181
24.4121
23.7292
23.1635
22.6782
22.1226
21.5187
83.572
83.628
83.4223
83.1573
82.8308
82.473
82.1104
81.7612
81.4375
81.1468
80.8926
80.6761
80.4962
80.3505
80.2359
80.149
80.0859
80.0428
80.016
80.0012
79.9968
79.997
80.0023
80.0029
83.5358
83.2432
82.6551
81.7295
80.4124
78.6487
76.2904
73.1385
69.318
64.9802
60.2946
55.4668
50.7404
46.3664
42.5544
39.3423
36.6746
34.472
32.6557
31.1515
29.9188
28.8767
27.9531
27.1182
26.3479
25.6259
24.9401
24.2792
23.6344
23.103
22.6382
22.1104
21.5133
20.8592
83.8183
84.0066
83.8679
83.6424
83.3256
82.955
82.564
82.1761
81.8081
81.4704
81.1696
80.9082
80.6865
80.5029
80.3548
80.2387
80.151
80.0873
80.0438
80.0168
80.0017
79.9971
79.9972
80.0023
80.0029
83.664
83.2065
82.4071
81.2342
79.6316
77.4441
74.4552
70.7722
66.5355
61.8807
56.979
52.0587
47.3788
43.1811
39.6266
36.702
34.3208
32.3845
30.806
29.509
28.4567
27.565
26.7647
26.0341
25.3538
24.7107
24.0951
23.4977
23.0059
22.5771
22.0703
21.4979
20.8516
20.1429
83.9816
84.3414
84.2986
84.1375
83.8487
83.478
83.0664
82.6442
82.2329
81.8475
81.4973
81.1875
80.9197
80.6936
80.5071
80.3574
80.2404
80.1521
80.0882
80.0445
80.0173
80.0021
79.9974
79.9973
80.0022
80.0028
83.6815
83.0278
81.9864
80.5305
78.5051
75.679
72.1478
68.0436
63.4667
58.5479
53.4863
48.5388
43.9747
40.015
36.7625
34.1519
32.0696
30.4026
29.0593
27.964
27.0851
26.3372
25.6541
25.0221
24.4265
23.8575
23.3078
22.8661
22.4782
22.0079
21.4567
20.8354
20.1344
19.3677
84.0332
84.6085
84.6954
84.6281
84.39
84.0356
83.6145
83.1645
82.7132
82.2804
81.8793
81.5179
81.2002
80.927
80.6975
80.5092
80.3585
80.2411
80.1526
80.0886
80.0449
80.0176
80.0023
79.9976
79.9974
80.0022
80.0028
83.558
82.6777
81.356
79.4764
76.8108
73.4427
69.4954
65.0363
60.1553
55.0139
49.8487
44.9428
40.5639
36.8992
33.985
31.7068
29.9289
28.5293
27.4154
26.5145
25.801
25.1896
24.6173
24.0782
23.5621
23.0628
22.6716
22.3357
21.907
21.3922
20.7929
20.118
19.3586
18.529
83.9409
84.7817
85.0354
85.0966
84.9366
84.619
84.2031
83.7346
83.2486
82.7705
82.3182
81.9031
81.5319
81.2075
80.9303
80.6987
80.5094
80.3583
80.2409
80.1524
80.0885
80.0449
80.0177
80.0025
79.9977
79.9974
80.0022
80.0029
83.2617
82.1175
80.3713
77.8537
74.6542
70.8815
66.571
61.7761
56.6178
51.2986
46.0939
41.3039
37.1794
33.8602
31.3123
29.377
27.9034
26.7653
25.8726
25.1573
24.6007
24.1183
23.6504
23.1984
22.7571
22.4206
22.1374
21.7616
21.289
20.7261
20.0743
19.3417
18.5195
17.6217
83.6678
84.8324
85.2931
85.5221
85.4725
85.2168
84.8245
84.3504
83.8376
83.3183
82.8158
82.3459
81.9186
81.5391
81.2099
80.9302
80.6975
80.5079
80.357
80.2398
80.1517
80.0881
80.0446
80.0179
80.0029
79.9978
79.9974
80.0022
80.0029
82.751
81.1986
78.8229
75.7821
72.1924
68.0536
63.3839
58.2666
52.8627
47.4208
42.2504
37.6549
33.8509
30.9204
28.7583
27.1696
25.9951
25.1098
24.4282
23.8889
23.4804
23.1193
22.7493
22.379
22.1065
21.8813
21.5592
21.1402
20.6203
20.0054
19.2968
18.5021
17.6119
16.6409
83.1672
84.7294
85.4397
85.8807
85.9785
85.8147
85.4688
85.0055
84.4767
83.9226
83.3729
82.8485
82.3633
81.9256
81.5402
81.2079
80.927
80.6942
80.505
80.3546
80.2381
80.1504
80.0872
80.0448
80.0185
80.003
79.9978
79.9974
80.0023
80.003
81.8713
79.7266
76.8415
73.4226
69.4678
64.9543
59.9277
54.5068
48.9
43.4029
38.3497
34.0285
30.6056
28.0977
26.3326
25.0882
24.204
23.5602
23.0788
22.7055
22.4359
22.1884
21.9101
21.717
21.5603
21.2977
20.9335
20.4679
19.8969
19.2258
18.4558
17.5941
16.631
15.5816
84.4336
82.2812
85.4419
86.1454
86.4325
86.3954
86.1233
85.6912
85.1609
84.5811
83.9892
83.4121
82.8684
82.3702
81.925
81.536
81.2023
80.9213
80.6891
80.5008
80.3514
80.2356
80.1486
80.0873
80.0457
80.0187
80.003
79.9977
79.9973
80.0023
80.003
80.4465
77.8378
74.586
70.8034
66.4651
61.5707
56.1941
50.4984
44.745
39.273
34.426
30.4571
27.4673
25.4058
24.0413
23.1338
22.5279
22.1132
21.8203
21.6026
21.4629
21.3217
21.2322
21.1612
20.9692
20.6661
20.2563
19.7405
19.1144
18.3828
17.5467
16.6127
15.5716
14.4384
85.2642
83.7941
80.8373
86.2839
86.8096
86.9383
86.7725
86.3966
85.8828
85.2897
84.6629
84.0368
83.4354
82.8754
82.3677
81.9179
81.5271
81.1934
80.9134
80.6824
80.4955
80.3471
80.2323
80.1484
80.0885
80.0461
80.0187
80.0029
79.9976
79.9972
80.0023
80.0031
78.6199
75.6859
72.0743
67.9014
63.1673
57.8893
52.1777
46.2485
40.4195
35.0645
30.5161
26.9711
24.4558
22.8548
21.8871
21.3049
20.9637
20.7647
20.6483
20.5759
20.5574
20.6217
20.6632
20.5597
20.3295
19.9827
19.5238
18.9537
18.2682
17.4715
16.5642
15.5528
14.4284
13.206
86.2629
84.7778
82.6783
79.0067
87.0791
87.4207
87.3977
87.1078
86.6328
86.0421
85.391
84.7216
84.065
83.4429
82.8709
82.3573
81.9052
81.5143
81.1818
80.9035
80.6744
80.4889
80.342
80.2317
80.1501
80.089
80.0461
80.0185
80.0025
79.9974
79.997
80.0023
80.0032
76.5396
73.2821
69.2767
64.6974
59.5579
53.8991
47.8777
41.771
35.9526
30.8157
26.6572
23.5986
21.5874
20.4506
19.87
19.5987
19.5071
19.51
19.5579
19.621
19.8263
20.0342
20.0475
19.909
19.6374
19.2434
18.7316
18.103
17.3536
16.4869
15.5032
14.4091
13.1959
11.8791
87.2114
85.9697
83.8231
81.1956
76.9351
87.8135
87.9781
87.8081
87.399
86.8304
86.1683
85.4642
84.7566
84.0738
83.4364
82.8566
82.3399
81.8877
81.4982
81.1679
80.892
80.6647
80.4812
80.3406
80.234
80.1508
80.089
80.0457
80.0179
80.0023
79.9971
79.9968
80.0023
80.0033
74.2123
70.5918
66.1738
61.1733
55.6221
49.5924
43.2983
37.0867
31.3805
26.5686
22.8855
20.3637
18.8735
18.1958
17.988
18.011
18.153
18.3438
18.5447
18.8506
19.2131
19.3988
19.3815
19.205
18.8888
18.4439
17.8751
17.1836
16.3655
15.4237
14.3584
13.1761
11.8691
10.4526
88.0912
87.1147
85.2498
82.5086
79.4608
74.6249
88.4866
88.4784
88.1664
87.6442
86.988
86.2605
85.5085
84.7679
84.0655
83.418
82.8339
82.3167
81.8661
81.4793
81.152
80.8784
80.6536
80.4789
80.3438
80.235
80.1508
80.0885
80.0448
80.0177
80.0021
79.9968
79.9965
80.0023
80.0035
71.597
67.5959
62.7473
57.3129
51.3471
44.9642
38.4498
32.2247
26.7455
22.367
19.2352
17.2859
16.3214
16.0903
16.2373
16.5364
16.896
17.2613
17.7281
18.2049
18.55
18.7115
18.6612
18.4436
18.0794
17.5797
16.9496
16.1906
15.2988
14.2767
13.1245
11.8486
10.4429
8.92182
88.9014
88.1848
86.6344
84.1824
80.9478
77.495
72.0276
89.0941
88.9181
88.4702
87.8416
87.1049
86.3177
85.5242
84.7585
84.0427
83.3893
82.8042
82.2887
81.8412
81.4581
81.1335
80.863
80.6501
80.4831
80.3451
80.235
80.1501
80.0873
80.0446
80.0176
80.0017
79.9965
79.9962
80.0023
80.0037
68.6756
64.2776
58.981
53.1001
46.7204
40.0129
33.3493
27.2221
22.0957
18.2548
15.7358
14.3796
13.9346
14.1317
14.6126
15.1691
15.7305
16.3898
17.044
17.5067
17.8331
17.9684
17.8824
17.6206
17.2046
16.6459
15.9501
15.1186
14.1481
13.0406
11.7962
10.4219
8.91266
7.27991
89.6364
89.1793
87.9378
85.8203
82.8714
79.1875
75.2513
69.1237
89.6313
89.2937
88.7174
87.9901
87.1797
86.3403
85.5147
84.7314
84.0076
83.3522
82.7686
82.2566
81.8135
81.4337
81.1128
80.8579
80.6556
80.4848
80.3451
80.234
80.1484
80.0872
80.0449
80.0173
80.0012
79.996
79.9959
80.0024
80.0039
65.4333
60.6228
54.8585
48.5173
41.7293
34.7404
28.0219
22.1253
17.4831
14.2736
12.4117
11.6541
11.7132
12.315
13.1078
13.9029
14.7933
15.6605
16.3049
16.7525
17.0585
17.1654
17.0408
16.7314
16.2597
15.6377
14.8714
13.9626
12.9081
11.71
10.3687
8.89175
7.2736
5.21692
90.29
90.0912
89.1613
87.3714
84.7622
81.3855
77.1824
72.7132
65.8987
90.0942
89.6026
88.9065
88.0883
87.2126
86.3323
85.4838
84.6895
83.9623
83.308
82.7282
82.2212
81.7819
81.4064
81.1057
80.865
80.6578
80.4848
80.3438
80.2317
80.1486
80.0881
80.0448
80.0167
80.0006
79.9955
79.9955
80.0024
80.0041
61.8584
56.6165
50.3592
43.5434
36.3599
29.1537
22.504
16.9892
12.9611
10.4607
9.28148
9.11435
9.65392
10.6345
11.7162
12.8861
14.01
14.8731
15.5071
15.9382
16.2219
16.298
16.1318
15.771
15.2396
14.5499
13.7083
12.7171
11.5737
10.2803
8.8376
7.25336
5.20722
2.77588
90.8572
90.9118
90.2984
88.8388
86.5613
83.546
79.6848
74.9115
69.8739
62.3418
90.4792
89.8429
89.0355
88.1361
87.2086
86.2985
85.435
84.6353
83.9084
83.2581
82.6839
82.1812
81.7469
81.3968
81.1147
80.8678
80.6578
80.4831
80.3406
80.2324
80.1505
80.0885
80.0445
80.016
79.9998
79.9948
79.995
80.0024
80.0044
57.9375
52.2386
45.4578
38.1508
30.5973
23.2696
16.8445
11.8759
8.58195
6.84734
6.35741
6.7602
7.75153
9.08287
10.6004
12.0373
13.165
14.024
14.6466
15.0596
15.3191
15.3616
15.1506
14.7348
14.1393
13.3773
12.4555
11.3771
10.1401
8.74681
7.19922
5.18296
2.76375
0.313795
91.3338
91.6329
91.3391
90.2161
88.2721
85.6078
82.139
77.7453
72.3695
66.731
58.4402
90.7836
90.0118
89.104
88.1392
87.1733
86.2432
85.3714
84.5708
83.8478
83.2035
82.634
82.137
81.7344
81.4081
81.1182
80.8678
80.6556
80.4789
80.342
80.2356
80.1518
80.0886
80.0438
80.015
79.9988
79.994
79.9945
80.0025
80.0048
53.6515
47.4632
40.1176
32.3046
24.4328
17.1195
11.1062
6.85212
4.3938
3.45787
3.64531
4.58818
5.99874
7.84114
9.67044
11.1228
12.255
13.1094
13.7192
14.1123
14.3453
14.3516
14.0923
13.6175
12.9536
12.1148
11.1081
9.93767
8.60255
7.10643
5.12592
2.73759
0.305499
-2.12893
91.7165
92.2473
92.2729
91.492
89.8886
87.5742
84.488
80.5125
75.5634
69.558
63.284
54.1754
91.0038
90.1083
89.1187
88.1048
87.1121
86.1699
85.2955
84.4983
83.7817
83.1424
82.5791
82.1208
81.7484
81.4125
81.1182
80.865
80.6501
80.4812
80.3472
80.2382
80.1525
80.0882
80.0428
80.0137
79.9976
79.9931
79.9939
80.0026
80.0052
48.9755
42.2531
34.2918
25.9736
17.8737
10.7545
5.36479
1.98566
0.438404
0.308028
1.14564
2.59162
4.5995
6.80817
8.66998
10.1393
11.2761
12.1251
12.7209
13.092
13.2961
13.2633
12.9521
12.4143
11.6776
10.7572
9.66111
8.39434
6.95819
5.02858
2.67722
0.282429
-2.13574
-4.54268
92.0007
92.7494
93.0897
92.6553
91.3994
89.4383
86.7353
83.1666
78.6629
73.1441
66.4848
59.5297
49.5223
91.1378
90.1403
89.0882
88.039
87.0292
86.0819
85.2099
84.4192
83.7078
83.0751
82.5587
82.1382
81.7537
81.4125
81.1147
80.8579
80.6537
80.489
80.3515
80.2399
80.1526
80.0873
80.0414
80.0121
79.9961
79.992
79.9933
80.0026
80.0056
43.8734
36.5528
27.9206
19.1228
10.94
4.24816
-0.292527
-2.65825
-3.25219
-2.594
-1.14626
1.00267
3.43863
5.69889
7.59594
9.08331
10.2246
11.0672
11.6472
11.9943
12.167
12.0918
11.7251
11.1201
10.3063
9.29999
8.11016
6.74415
4.87471
2.575
0.223841
-2.15855
-4.54871
-6.91907
92.183
93.1328
93.7796
93.6942
92.7932
91.1882
88.8729
85.7121
81.6378
76.597
70.5005
63.1606
55.4618
44.4494
91.1943
90.1178
89.0198
87.9472
86.9288
85.9823
85.1166
84.331
83.6264
83.0499
82.5799
82.1446
81.7537
81.4081
81.1057
80.8631
80.6649
80.4957
80.3547
80.2409
80.1521
80.0859
80.0395
80.0102
79.9945
79.9908
79.9925
80.0027
80.0061
38.2851
30.2786
20.921
11.7137
3.6741
-2.30351
-5.77262
-7.02289
-6.65579
-5.24799
-2.96358
-0.311346
2.19501
4.5108
6.44521
7.95114
9.09649
9.93164
10.4941
10.8149
10.9534
10.8326
10.4066
9.73022
8.83515
7.73876
6.45235
4.65338
2.41464
0.12135
-2.21647
-4.57187
-6.92425
-9.24447
92.273
93.3918
94.3301
94.5972
94.0577
92.812
90.8875
88.1414
84.4939
79.9087
74.3307
67.6511
59.5955
51.0744
38.9048
91.1854
90.0498
88.9201
87.8342
86.8144
85.8735
85.0126
84.2339
83.5957
83.0755
82.5876
82.1446
81.7484
81.3968
81.1129
80.8786
80.6747
80.501
80.357
80.2411
80.1509
80.0839
80.0372
80.0079
79.9925
79.9894
79.9918
80.0028
80.0066
32.1229
23.3226
13.198
3.73107
-3.84467
-8.78514
-10.9847
-11.0624
-9.76158
-7.34327
-4.46025
-1.71485
0.867262
3.2416
5.21472
6.7395
7.88837
8.7148
9.25791
9.54984
9.65119
9.48127
8.99215
8.24054
7.26009
6.07077
4.35258
2.18536
-0.0416739
-2.31943
-4.62945
-6.94728
-9.24876
-11.505
92.2847
93.5377
94.7276
95.3474
95.1798
94.2966
92.7655
90.4415
87.2252
83.086
77.9964
71.8862
64.6155
55.7975
46.3509
32.806
91.1217
89.9442
88.795
87.7045
86.6891
85.7522
84.898
84.1969
83.6265
83.0847
82.5876
82.1382
81.7343
81.4066
81.1339
80.8923
80.6827
80.5051
80.3583
80.2404
80.1489
80.0812
80.0344
80.0052
79.9903
79.9879
79.991
80.0029
80.0072
25.2711
15.5442
4.66136
-4.80332
-11.4914
-15.0674
-15.8455
-14.7449
-12.2012
-9.06001
-6.05273
-3.20712
-0.5454
1.88925
3.90196
5.44553
6.59716
7.41336
7.93497
8.19533
8.25649
8.03401
7.47799
6.64729
5.57867
3.9592
1.87522
-0.275408
-2.48437
-4.73334
-7.00391
-9.2714
-11.5084
-13.6876
92.2309
93.5876
94.9808
95.923
96.1386
95.6294
94.4916
92.5985
89.8207
86.1261
81.5049
75.9256
69.2889
61.4136
51.7736
41.2586
26.0429
91.0129
89.808
88.6499
87.5618
86.5491
85.6184
84.854
84.2336
83.6372
83.0847
82.5799
82.1208
81.7471
81.4341
81.1524
80.9038
80.6893
80.508
80.3585
80.2387
80.1461
80.0778
80.0309
80.0021
79.9879
79.9864
79.9902
80.003
80.0078
17.55
6.763
-4.76652
-13.8114
-19.0964
-21.016
-20.2834
-17.6216
-14.1867
-10.8775
-7.73678
-4.78635
-2.0432
0.452606
2.50516
4.06708
5.22035
6.02455
6.52235
6.74834
6.76606
6.48753
5.86096
4.94849
3.45195
1.47024
-0.591434
-2.72085
-4.9001
-7.10801
-9.32665
-11.5304
-13.69
-15.7797
92.1228
93.5571
95.1091
96.3277
96.9051
96.7876
96.0506
94.5958
92.2683
89.0213
84.8581
79.7753
73.7246
66.5648
58.0664
47.5293
35.7604
18.4438
90.8672
89.6477
88.4891
87.4019
86.3944
85.5667
84.8974
84.2462
83.6372
83.0755
82.5586
82.1372
81.7825
81.4587
81.1684
80.9137
80.6943
80.5094
80.3573
80.2358
80.1422
80.0737
80.0269
79.9987
79.9854
79.9847
79.9894
80.0031
80.0085
8.68209
-3.25829
-15.1027
-23.1324
-26.4711
-26.4885
-23.7295
-19.9427
-16.2745
-12.7857
-9.50635
-6.44979
-3.62493
-1.06826
1.0236
2.60284
3.75618
4.54634
5.01785
5.2065
5.17751
4.83945
4.13967
2.80243
0.948719
-1.00399
-3.04015
-5.13845
-7.27541
-9.43022
-11.584
-13.7113
-15.781
-17.7689
91.9704
93.46
95.1321
96.5799
97.4788
97.7368
97.4159
96.4156
94.5522
91.7629
88.0531
83.445
77.9265
71.4239
63.7403
54.5996
43.0646
29.8135
9.72778
90.6925
89.4687
88.3084
87.2247
86.3342
85.6177
84.912
84.2462
83.6264
83.0498
82.5794
82.1819
81.8143
81.48
81.1822
80.9216
80.6976
80.5092
80.3547
80.2317
80.1374
80.0687
80.0224
79.995
79.9827
79.983
79.9885
80.0032
80.0092
-1.80382
-14.6992
-26.2864
-32.5955
-33.3547
-30.7268
-26.4773
-22.3594
-18.4446
-14.7714
-11.3539
-8.19251
-5.28754
-2.67171
-0.542193
1.05254
2.2039
2.97768
3.42019
3.56847
3.48945
3.08925
1.96886
0.281645
-1.53449
-3.45658
-5.45913
-7.51395
-9.59694
-11.6864
-13.7629
-15.8014
-17.7693
-19.6446
91.7831
93.3085
95.0675
96.6981
97.8783
98.4738
98.5458
98.025
96.6546
94.3382
91.0865
86.9373
81.9159
75.9897
69.0547
60.8443
51.0435
38.3735
23.3672
-0.599073
90.4953
89.2663
88.1072
87.1554
86.3939
85.6347
84.9121
84.2336
83.5956
83.0755
82.635
82.2222
81.8421
81.4988
81.1938
80.9272
80.6987
80.507
80.3503
80.2261
80.1313
80.063
80.0175
79.9911
79.9798
79.9812
79.9877
80.0033
80.0099
-14.5725
-27.7768
-38.4728
-41.6454
-38.7257
-34.0378
-29.2946
-24.835
-20.6727
-16.8197
-13.2688
-10.0069
-7.02577
-4.35442
-2.19028
-0.582747
0.564022
1.31865
1.72931
1.83415
1.70249
0.887163
-0.573704
-2.21205
-3.99102
-5.87623
-7.83356
-9.83377
-11.8512
-13.8633
-15.8506
-17.7884
-19.6438
-21.3933
91.5687
93.1139
94.9316
96.7009
98.1223
99.0178
99.4359
99.3709
98.5385
96.7316
93.9502
90.2559
85.7017
80.3021
73.9969
66.6493
57.9068
47.43
33.4484
16.3961
-13.3964
90.2709
89.0401
88.0279
87.2248
86.4134
85.6347
84.8974
84.1968
83.6269
83.1436
82.6851
82.2577
81.8669
81.5149
81.2025
80.9302
80.6974
80.5028
80.3442
80.219
80.1243
80.0567
80.0122
79.987
79.9769
79.9794
79.9869
80.0035
80.0107
-31.2654
-42.6444
-50.3497
-48.8215
-42.86
-37.3402
-32.1165
-27.3277
-22.9324
-18.9115
-15.2367
-11.8824
-8.83206
-6.11111
-3.91698
-2.30039
-1.16157
-0.429212
-0.0534434
0.00557616
-0.538677
-1.68211
-3.07985
-4.67249
-6.41
-8.24781
-10.1496
-12.0845
-14.025
-15.9483
-17.835
-19.6607
-21.3929
-23.0106
91.3226
92.8851
94.7391
96.607
98.2291
99.3886
100.109
100.441
100.139
98.9046
96.6331
93.3989
89.2965
84.377
78.6356
71.9802
64.2397
54.9582
43.8034
28.3001
8.98156
-31.1929
90.0186
88.9503
88.1082
87.247
86.4134
85.6177
84.8538
84.2344
83.7091
83.2051
82.7296
82.2898
81.8884
81.5275
81.208
80.9302
80.6934
80.4961
80.336
80.2105
80.1164
80.0498
80.0066
79.9827
79.9739
79.9775
79.9861
80.0036
80.0115
-51.7847
-55.4452
-61.571
-54.0173
-46.7926
-40.5352
-34.8769
-29.7942
-25.1928
-21.0233
-17.24
-13.8057
-10.6965
-7.93438
-5.71672
-4.09607
-2.96928
-2.26277
-1.92437
-2.27855
-3.14001
-4.20274
-5.54428
-7.08928
-8.77626
-10.5573
-12.3939
-14.2529
-16.1055
-17.9292
-19.7049
-21.4096
-23.0095
-24.4862
91.045
92.6178
94.5017
96.4347
98.2163
99.6054
100.589
101.259
101.433
100.783
99.0984
96.3618
92.7059
88.238
82.9948
76.948
69.9692
61.8566
52.0455
40.2198
23.0248
1.00076
-53.4028
89.9175
89.0428
88.1335
87.2471
86.3939
85.5665
84.8986