/*--------------------------------*- C++ -*----------------------------------*\
  =========                 |
  \\      /  F ield         | OpenFOAM: The Open Source CFD Toolbox
   \\    /   O peration     | Website:  https://openfoam.org
    \\  /    A nd           | Version:  8
     \\/     M anipulation  |
\*---------------------------------------------------------------------------*/
FoamFile
{
    version     2.0;
    format      ascii;
    class       volScalarField;
    location    "0.34";
    object      p;
}
// * * * * * * * * * * * * * * * * * * * * * * * * * * * * * * * * * * * * * //

dimensions      [0 2 -2 0 0 0 0];

internalField   nonuniform List<scalar> 
15677
(
82.1466
81.7406
81.4044
81.8949
81.4031
81.3431
81.8148
81.4221
81.3528
81.282
81.7953
81.4222
81.3533
81.2907
81.1902
81.7771
81.4253
81.3538
81.2901
81.1978
81.0956
81.7542
81.4281
81.354
81.2905
81.1978
81.1023
80.9902
81.7295
81.4298
81.3538
81.2907
81.1986
81.1024
80.9961
80.8635
81.7038
81.4309
81.3531
81.2905
81.1993
81.1032
80.9963
80.8687
80.7089
81.677
81.4314
81.3521
81.2899
81.1998
81.104
80.9971
80.8689
80.7134
80.5202
81.6491
81.4316
81.3507
81.2891
81.2002
81.1047
80.9979
80.8698
80.7138
80.524
80.2899
81.62
81.4312
81.3491
81.2882
81.2008
81.1054
80.9988
80.8708
80.7149
80.5246
80.293
80.0103
81.5895
81.4301
81.3474
81.2874
81.2015
81.1064
80.9999
80.872
80.7161
80.5258
80.2937
80.0126
79.6736
81.5578
81.4283
81.346
81.2868
81.2025
81.1077
81.0013
80.8735
80.7176
80.5273
80.2952
80.0135
79.6751
79.272
81.5286
81.426
81.345
81.2864
81.2041
81.1097
81.0033
80.8756
80.7197
80.5293
80.2971
80.0153
79.6761
79.2726
78.7983
81.5037
81.4233
81.3446
81.2863
81.2065
81.1127
81.0064
80.8786
80.7226
80.5321
80.2997
80.0177
79.6783
79.2739
78.798
78.2457
81.4826
81.4205
81.3448
81.2868
81.2099
81.117
81.0109
80.8831
80.7269
80.5361
80.3034
80.021
79.6813
79.2764
78.7995
78.2443
77.6084
81.4649
81.4168
81.3452
81.288
81.2146
81.1232
81.0174
80.8897
80.7332
80.5419
80.3087
80.0258
79.6855
79.2801
78.8024
78.246
77.6058
76.8816
81.45
81.4124
81.3457
81.2897
81.2202
81.1316
81.0266
80.8991
80.7424
80.5505
80.3165
80.0327
79.6916
79.2854
78.8069
78.2494
77.6076
76.8776
76.0619
81.4373
81.4077
81.3462
81.292
81.2264
81.1418
81.0391
80.9124
80.7556
80.563
80.3279
80.0429
79.7005
79.2931
78.8135
78.2548
77.6116
76.8797
76.0565
75.1476
81.4265
81.4029
81.3469
81.2949
81.2332
81.1529
81.0544
80.9304
80.774
80.5808
80.3445
80.0578
79.7135
79.3043
78.8229
78.2627
77.6179
76.8842
76.0588
75.1407
74.1387
81.4178
81.3983
81.3477
81.2983
81.2405
81.165
81.071
80.9524
80.7992
80.6057
80.3681
80.0794
79.7326
79.3206
78.8367
78.2742
77.6273
76.8915
76.0638
75.1432
74.1301
73.0369
81.4109
81.3943
81.3486
81.3023
81.2484
81.178
81.0892
80.9762
80.8296
80.6397
80.401
80.11
79.76
79.3445
78.8569
78.2909
77.641
76.9025
76.0721
75.1486
74.1327
73.0265
71.8463
81.4055
81.391
81.3495
81.3066
81.2568
81.1917
81.1088
81.0023
80.8628
80.681
80.4461
80.1528
79.7992
79.379
78.8863
78.3153
77.6608
76.9184
76.0847
75.1579
74.1386
73.0293
71.8341
70.573
81.4011
81.3884
81.3502
81.3111
81.2655
81.206
81.1295
81.0303
80.8992
80.7261
80.5008
80.2114
79.8538
79.428
78.9287
78.3509
77.6898
76.9415
76.1029
75.1719
74.1487
73.0354
71.8368
70.5588
69.2296
81.3976
81.3862
81.351
81.3153
81.2741
81.2207
81.1511
81.06
80.9382
80.7754
80.5606
80.2826
79.9285
79.4964
78.9891
78.4022
77.7321
76.9754
76.1294
75.1924
74.1641
73.0463
71.8431
70.5613
69.2118
67.8444
81.3948
81.3844
81.3517
81.3192
81.282
81.2352
81.1735
81.0911
80.9795
80.8284
80.6261
80.3605
80.0196
79.5903
79.0735
78.4754
77.7933
77.0248
76.1681
75.2221
74.1866
73.0628
71.8543
70.5671
69.2118
67.7862
66.3631
81.3924
81.3829
81.3524
81.3227
81.2893
81.2484
81.1954
81.1232
81.0228
80.8846
80.6967
80.446
80.1194
79.7049
79.1894
78.5778
77.8805
77.0964
76.2249
75.2657
74.2193
73.0869
71.8715
70.5781
69.2161
67.792
66.2956
64.7705
81.3905
81.3817
81.353
81.3257
81.2959
81.2604
81.2154
81.1546
81.0675
80.9434
80.7715
80.5381
80.229
79.8305
79.3311
78.7186
78.0027
77.1986
76.3072
75.3297
74.2673
73.122
71.8966
70.5952
69.2253
67.7933
66.301
64.746
63.1349
81.3888
81.3807
81.3535
81.3285
81.3018
81.2711
81.2335
81.1834
81.1113
81.0044
80.85
80.636
80.3473
79.9688
79.4869
78.8913
78.1712
77.3422
76.4251
75.4228
74.3382
73.174
71.9333
70.6203
69.2406
67.7991
66.2948
64.7354
63.1269
61.4705
81.3874
81.3798
81.3541
81.331
81.307
81.2806
81.2497
81.2094
81.1515
81.0641
80.9313
80.7388
80.4733
80.1183
79.6586
79.0814
78.3782
77.5407
76.5913
75.5567
74.4418
73.251
71.9882
70.6576
69.2641
67.8115
66.2985
64.7254
63.1105
61.4662
59.6015
81.3862
81.3791
81.3545
81.3332
81.3117
81.2891
81.2641
81.2326
81.1878
81.1188
81.011
80.8454
80.6055
80.2777
79.8447
79.2914
78.6067
77.7853
76.8216
75.746
74.5914
73.3643
72.0701
70.7139
69.3001
67.8322
66.3092
64.7298
63.1012
61.4477
59.6003
57.514
81.3852
81.3784
81.355
81.3351
81.3158
81.2967
81.2769
81.2534
81.2203
81.1683
81.0843
80.95
80.743
80.4454
80.0433
79.5195
78.8599
78.0561
77.1064
76.0093
74.8037
73.5286
72.1916
70.7991
69.3561
67.8657
66.3277
64.7401
63.1065
61.4395
59.5831
57.5147
55.4324
81.3843
81.3779
81.3554
81.3369
81.3194
81.3034
81.2883
81.2719
81.2493
81.2127
81.1505
81.0463
80.8782
80.62
80.2529
79.7636
79.1355
78.3568
77.4226
76.3361
75.1001
73.763
72.3691
70.927
69.4427
67.9198
66.3586
64.7572
63.1166
61.4441
59.5751
57.499
55.4343
53.3808
81.3836
81.3774
81.3558
81.3384
81.3226
81.3093
81.2984
81.2882
81.2751
81.2523
81.2099
81.1333
81.0027
80.7919
80.4714
80.0216
79.4311
78.6851
77.7749
76.7
75.4697
74.0918
72.624
71.1156
69.5747
68.006
66.4105
64.7862
63.1329
61.4536
59.577
57.4908
55.4201
53.3826
51.378
81.377
81.3827
81.3561
81.3398
81.3255
81.3145
81.3073
81.3028
81.298
81.2875
81.263
81.2116
81.1154
80.9506
80.687
80.2913
79.7445
79.0384
78.1607
77.107
75.8829
74.5039
72.9836
71.3885
69.7718
68.14
66.4951
64.8358
63.1602
61.4687
59.5843
57.4899
55.4113
53.3694
51.3794
49.4362
81.3565
81.3765
81.3817
81.3409
81.328
81.3191
81.3152
81.3156
81.3183
81.3189
81.3103
81.2816
81.2169
81.0945
80.8865
80.5581
80.0729
79.4139
78.5771
77.5543
76.3467
74.9667
73.4368
71.7761
70.0596
68.3428
66.6293
64.9182
63.2071
61.4936
59.5966
57.494
55.4074
53.3595
51.3668
49.4372
47.5642
81.342
81.357
81.376
81.3807
81.3303
81.3232
81.3222
81.327
81.3362
81.3467
81.3523
81.344
81.3077
81.2242
81.0676
80.8054
80.3989
79.8087
79.0213
78.0388
76.8585
75.4883
73.948
72.2675
70.4715
68.642
66.8351
65.0509
63.2863
61.5367
59.6172
57.5017
55.4077
53.3524
51.3555
49.4248
47.5646
45.7689
81.3322
81.3434
81.3576
81.3755
81.3797
81.3268
81.3283
81.3371
81.3522
81.3713
81.3896
81.3994
81.3887
81.3404
81.2311
81.0305
80.7016
80.2017
79.4899
78.5575
77.415
76.0662
74.5269
72.8248
70.9973
69.0737
67.1419
65.257
63.4154
61.6107
59.6542
57.5154
55.4096
53.348
51.3448
49.4119
47.5523
45.7686
44.0554
81.33
81.3348
81.345
81.3583
81.375
81.3788
81.3338
81.346
81.3663
81.3931
81.4227
81.4487
81.4609
81.4443
81.3779
81.2341
80.9779
80.5679
79.958
79.1069
78.0132
76.6974
75.1712
73.4591
71.5968
69.6287
67.5883
65.5672
63.6186
61.7339
59.7203
57.543
55.4149
53.343
51.335
49.3974
47.5376
45.7561
44.0544
42.427
81.3385
81.334
81.3378
81.3466
81.3589
81.3745
81.3779
81.3539
81.3788
81.4124
81.452
81.4924
81.525
81.5368
81.5092
81.4171
81.2282
80.903
80.3957
79.6579
78.6495
77.3789
75.8782
74.1683
72.2827
70.2654
68.1665
66.0226
63.9277
61.9305
59.8336
57.5968
55.4308
53.3385
51.3222
49.3818
47.5191
45.7395
44.0416
42.4253
40.885
81.3607
81.3445
81.3385
81.3407
81.3482
81.3596
81.374
81.3771
81.3898
81.4296
81.478
81.5312
81.582
81.6191
81.6263
81.5811
81.4538
81.2072
80.7973
80.1749
79.2905
78.107
76.645
74.9503
73.0535
70.9976
68.8336
66.6168
64.3856
62.2335
60.0188
57.6947
55.4692
53.341
51.3068
49.3606
47.4975
45.717
44.023
42.4122
40.8827
39.4297
81.3993
81.3691
81.3508
81.3429
81.3436
81.3496
81.3602
81.3735
81.3763
81.4447
81.5011
81.5656
81.6325
81.6922
81.7306
81.7275
81.6562
81.482
81.1631
80.651
79.8944
78.8441
77.4685
75.8029
73.908
71.8248
69.6051
67.3065
64.9877
62.6869
60.3093
57.8612
55.5475
53.3615
51.2943
49.3334
47.4674
45.6893
43.9967
42.3915
40.8692
39.4267
38.0599
81.4577
81.411
81.3777
81.357
81.3472
81.3464
81.351
81.3609
81.373
81.3755
81.5215
81.5962
81.6773
81.7571
81.8233
81.8581
81.8373
81.7291
81.4942
81.0859
80.4525
79.5416
78.3065
76.7234
74.8446
72.7469
70.4817
68.1087
65.691
63.2879
60.7497
58.1297
55.6896
53.4166
51.2947
49.3045
47.4278
45.6502
43.9628
42.3614
40.8466
39.4129
38.0564
36.7737
81.5389
81.4735
81.4225
81.3861
81.363
81.3513
81.3491
81.3522
81.3615
81.3725
81.3747
81.6232
81.7172
81.8148
81.9057
81.9744
81.999
81.9506
81.7926
81.4807
80.9642
80.189
79.1033
77.6653
75.8616
73.7635
71.4645
69.0257
66.514
63.9948
61.3394
58.5442
55.9283
53.5296
51.3239
49.2834
47.3819
45.5979
43.9147
42.3215
40.8128
39.3884
38.0422
36.7696
35.5684
81.6462
81.56
81.4885
81.4337
81.3944
81.3688
81.3553
81.3517
81.3534
81.3621
81.372
81.374
81.7525
81.8662
81.979
82.0777
82.1431
82.1486
82.0607
81.8375
81.4301
80.7846
79.8461
78.5656
76.9083
74.874
72.5546
70.0602
67.4607
64.8274
62.0387
59.1068
56.3054
53.7313
51.4039
49.2846
47.3382
45.5346
43.8497
42.2645
40.767
39.3511
38.0158
36.7551
35.5639
34.441
81.7823
81.6739
81.5794
81.5031
81.4445
81.4022
81.3744
81.3591
81.3542
81.3545
81.3626
81.3716
81.3733
81.9116
82.0443
82.1698
82.2714
82.3254
82.3008
82.1586
81.8522
81.3288
80.5323
79.4088
77.9144
76.0242
73.753
71.2149
68.5356
65.7915
62.869
59.7812
56.8258
54.0605
51.5624
49.3283
47.31
45.4679
43.769
42.1869
40.7014
39.2997
37.9752
36.727
35.549
34.4361
33.3879
81.95
81.8184
81.6987
81.5982
81.5173
81.4549
81.4097
81.3797
81.3626
81.3565
81.3557
81.363
81.3711
81.3727
82.102
82.2518
82.3857
82.483
82.5154
82.4468
82.2332
81.8234
81.1616
80.1913
78.8616
77.1362
75.0025
72.4927
69.7435
66.8936
63.8378
60.5898
57.4581
54.5253
51.8349
49.4388
47.315
45.4096
43.6792
42.0891
40.6116
39.2257
37.9184
36.6832
35.5192
34.4209
33.3827
32.4055
82.1507
81.9964
81.8499
81.7227
81.6165
81.5308
81.4647
81.4168
81.3847
81.366
81.3586
81.3569
81.3633
81.3707
81.3721
82.3244
82.4877
82.6236
82.707
82.7049
82.5758
82.271
81.7354
80.9117
79.7445
78.1888
76.2181
73.8345
71.0896
68.1408
64.954
61.542
58.2244
55.0993
52.2323
49.6473
47.3739
45.3744
43.5905
41.9766
40.4971
39.1241
37.8365
36.6214
35.4726
34.3895
33.3672
32.3999
31.49
82.3855
82.2099
82.036
81.8803
81.746
81.6337
81.5434
81.4739
81.4233
81.3893
81.3691
81.3604
81.358
81.3636
81.3702
81.3716
82.5779
82.7491
82.8783
82.9358
82.8834
82.6746
82.2563
81.5709
80.5609
79.1749
77.3754
75.1485
72.5137
69.5412
66.2275
62.6491
59.1359
55.8037
52.7336
49.9673
47.5128
45.3791
43.5145
41.8578
40.3626
38.9936
37.7237
36.5319
35.406
34.3402
33.3343
32.3842
31.4841
30.6376
82.6537
82.4604
82.2595
82.0742
81.9096
81.7678
81.6497
81.5551
81.4824
81.4294
81.3935
81.3721
81.3619
81.3591
81.3638
81.3699
81.3711
82.86
83.0313
83.1424
83.159
83.0376
82.7272
82.1712
81.3109
80.0908
78.4652
76.4071
73.9181
71.0341
67.6696
63.9246
60.2066
56.6508
53.3576
50.3829
47.7472
45.4445
43.4637
41.7409
40.2143
38.8379
37.578
36.4085
35.3095
34.2692
33.2825
32.35
31.4681
30.6314
29.8446
82.9532
82.7478
82.522
82.3072
82.111
81.937
81.788
81.6645
81.5658
81.4901
81.4349
81.3974
81.3748
81.3632
81.36
81.364
81.3695
81.3707
83.1664
83.3273
83.406
83.3636
83.1519
82.7157
81.9962
80.9355
79.4821
77.5988
75.2719
72.5172
69.221
65.3842
61.4532
57.6567
54.1173
50.9096
48.0661
45.5871
43.4533
41.6343
40.057
38.661
37.402
36.2485
35.1761
34.166
33.2074
32.2959
31.4326
30.6151
29.8379
29.1071
83.2798
83.0706
82.8241
82.5814
82.3531
82.1452
81.9622
81.8064
81.6779
81.5755
81.497
81.4398
81.4008
81.3771
81.3643
81.3607
81.3641
81.3692
81.3702
83.4902
83.6273
83.6564
83.5341
83.2078
82.6197
81.7102
80.4241
78.7164
76.5611
73.9563
70.776
66.9722
62.8951
58.8403
55.0291
51.5594
48.4802
45.8002
43.4996
41.547
39.8952
38.4645
37.1977
36.0534
35.0026
34.0234
33.0981
32.217
31.3765
30.5785
29.8214
29.0998
28.4226
83.6268
83.4253
83.1648
82.8978
82.6384
82.3956
82.1764
81.985
81.8229
81.6898
81.5841
81.5031
81.4441
81.4036
81.3789
81.3652
81.3612
81.3641
81.3688
81.3699
83.8222
83.9191
83.8782
83.6519
83.1849
82.4173
81.2914
79.7562
77.7762
75.335
72.2974
68.5807
64.4802
60.2216
56.1112
52.3468
48.9988
46.0885
43.6
41.4943
39.7312
38.2486
36.9634
35.823
34.7895
33.8374
32.9469
32.102
31.2941
30.5206
29.7838
29.0831
28.4128
27.86
83.9853
83.8064
83.5414
83.2561
82.9685
82.6911
82.4342
82.2045
82.0053
81.8375
81.7003
81.5915
81.5083
81.4475
81.4059
81.3803
81.366
81.3616
81.3641
81.3685
81.3695
84.1499
84.1873
84.0527
83.6962
83.0602
82.0856
80.7172
78.9119
76.6418
73.7657
70.1674
66.098
61.7517
57.3828
53.2882
49.6335
46.4577
43.7522
41.4775
39.5785
38.009
36.6952
35.5526
34.5345
33.6075
32.7493
31.9428
31.1739
30.435
29.7243
29.0447
28.3966
27.8554
27.3876
84.3428
84.2056
83.9491
83.6543
83.3435
83.0335
82.7387
82.4687
82.2294
82.023
81.8501
81.7091
81.5976
81.5124
81.4502
81.4077
81.3814
81.3666
81.3619
81.3641
81.3682
81.3692
84.458
84.4132
84.1589
83.6435
82.81
81.6004
79.9659
77.8691
75.1654
71.7063
67.7011
63.3237
58.8038
54.4038
50.3998
46.9165
43.9582
41.4869
39.4423
37.757
36.382
35.2342
34.2299
33.3293
32.5038
31.7345
31.0073
30.31
29.6358
28.9839
28.3577
27.8427
27.3896
26.8915
84.6842
84.6119
84.3806
84.0884
83.7621
83.4237
83.092
82.7809
82.4989
82.2507
82.038
81.8604
81.7161
81.6022
81.5154
81.4522
81.409
81.3822
81.367
81.3621
81.3641
81.368
81.3689
84.7279
84.5757
84.173
83.469
82.4083
80.9381
79.0129
76.485
73.1773
69.2624
64.895
60.2843
55.6727
51.3233
47.4816
44.2246
41.521
39.3056
37.5016
36.0326
34.85
33.8638
32.9925
32.2039
31.4745
30.7892
30.1367
29.5064
28.8927
28.2959
27.8036
27.3783
26.8911
26.3592
84.9904
85.0112
84.8262
84.5523
84.2214
83.8609
83.4955
83.1437
82.8176
82.5246
82.2684
82.05
81.8684
81.7212
81.6054
81.5175
81.4536
81.4099
81.3827
81.3673
81.3622
81.364
81.3677
81.3686
84.9381
84.6505
84.0693
83.1457
81.8302
80.0713
77.7176
74.5674
70.7642
66.4469
61.7963
57.0314
52.4079
48.1857
44.5696
41.5843
39.1636
37.2188
35.6602
34.4066
33.4118
32.5813
31.8368
31.1544
30.5157
29.9095
29.327
28.7594
28.2023
27.7413
27.3394
26.8774
26.3547
25.7808
85.2395
85.3862
85.2729
85.0374
84.7161
84.3429
83.9492
83.5588
83.1883
82.8485
82.5456
82.2823
82.0589
81.8739
81.7245
81.6074
81.5188
81.4544
81.4104
81.383
81.3674
81.3622
81.3638
81.3674
81.3683
85.0635
84.6113
83.8197
82.6471
81.0452
78.86
75.8699
72.197
67.968
63.3302
58.4672
53.6191
49.0576
45.0324
41.6963
39.0183
36.9004
35.2338
33.9208
32.8783
32.0649
31.3833
30.7592
30.177
29.6237
29.0914
28.5743
28.0654
27.6458
27.2765
26.8381
26.3379
25.7741
25.1535
85.4058
85.7163
85.7047
85.5323
85.2388
84.8656
84.4514
84.0267
83.6131
83.2255
82.8733
82.5617
82.2922
82.0646
81.877
81.7261
81.6083
81.5192
81.4547
81.4106
81.3831
81.3674
81.3622
81.3637
81.3671
81.368
85.0768
84.4291
83.3962
81.9392
79.9123
77.0824
73.5555
69.4486
64.8738
59.9727
54.9549
50.091
45.6635
41.8994
38.8888
36.5452
34.7419
33.3556
32.2843
31.4463
30.8064
30.2662
29.7556
29.2676
28.7942
28.3311
27.875
27.506
27.1794
26.7744
26.2975
25.7559
25.1459
24.4758
85.4608
85.9778
86.1024
86.0223
85.7796
85.4227
84.9991
84.5466
84.093
83.6581
83.2551
82.8919
82.5726
82.2979
82.0672
81.8779
81.7263
81.6082
81.5191
81.4545
81.4105
81.3829
81.3673
81.3621
81.3634
81.3668
81.3677
84.9477
84.074
82.7622
80.8804
78.2055
74.8361
70.8785
66.41
61.5293
56.4066
51.2918
46.4832
42.2619
38.8178
36.17
34.1789
32.6953
31.5862
30.7497
30.1078
29.6325
29.2257
28.822
28.4221
28.0234
27.6249
27.3115
27.0371
26.6754
26.2323
25.7143
25.1274
24.4678
23.7451
85.3724
86.1441
86.4434
86.4901
86.3253
86.0055
85.587
85.1161
84.6278
84.1477
83.6935
83.2767
82.904
82.5782
82.2998
82.0672
81.8771
81.7253
81.6072
81.5183
81.4539
81.41
81.3826
81.3673
81.362
81.3631
81.3665
81.3674
84.6436
83.5071
81.7741
79.246
76.0364
72.2468
67.9192
63.1109
57.9499
52.6511
47.5055
42.8295
38.886
35.8144
33.558
31.9297
30.7647
29.926
29.3149
28.8593
28.5393
28.258
27.9541
27.6365
27.3075
27.0557
26.8392
26.5305
26.1311
25.6472
25.0849
24.449
23.7367
22.9576
85.1043
86.186
86.7021
86.9146
86.8603
86.6025
86.2076
85.731
85.2159
84.6946
84.1904
83.7189
83.2901
82.9094
82.579
82.2983
82.0648
81.8746
81.7231
81.6055
81.5169
81.4529
81.4094
81.3826
81.3672
81.3617
81.3628
81.3662
81.3672
84.1226
82.5813
80.2151
77.161
73.5443
69.3818
64.6893
59.5523
54.1429
48.7247
43.625
39.1633
35.5664
32.9117
31.0663
29.804
28.9515
28.3733
27.9767
27.6968
27.5226
27.3586
27.1479
26.9071
26.7306
26.5789
26.329
25.9834
25.5436
25.0158
24.4056
23.7175
22.949
22.1096
84.6098
86.0719
86.8498
87.2719
87.3653
87.1995
86.8509
86.3851
85.854
85.2979
84.7465
84.2206
83.734
83.2951
82.9087
82.5755
82.2939
82.0604
81.8708
81.72
81.603
81.515
81.4516
81.4093
81.3826
81.367
81.3614
81.3624
81.3659
81.367
83.2323
81.0939
78.2199
74.771
70.7815
66.237
61.1789
55.7316
50.1177
44.6501
39.6823
35.5181
32.3308
30.1279
28.7046
27.8051
27.2551
26.9251
26.731
26.6162
26.578
26.5233
26.3995
26.3195
26.2474
26.0637
25.7779
25.3927
24.9098
24.3348
23.6731
22.9294
22.1009
21.1975
85.7607
83.7346
86.8541
87.5349
87.8181
87.7792
87.5045
87.0697
86.537
85.9552
85.3616
84.783
84.238
83.7387
83.2927
82.9028
82.5684
82.287
82.0543
81.8657
81.7159
81.5997
81.5128
81.4514
81.4094
81.3824
81.3666
81.361
81.362
81.3657
81.3668
81.7854
79.1855
75.9347
72.1143
67.7317
62.7956
57.378
51.6497
45.8891
40.4556
35.7126
31.9271
29.2035
27.477
26.4787
25.9336
25.673
25.5776
25.5735
25.6128
25.7011
25.7481
25.7967
25.8272
25.7253
25.5073
25.183
24.7554
24.2261
23.6005
22.8839
22.0809
21.1887
20.2177
86.6764
85.1074
82.2962
87.6723
88.1936
88.3213
88.1528
87.774
87.2577
86.6625
86.034
85.4064
84.8038
84.2427
83.7342
83.2838
82.8925
82.5582
82.2779
82.0466
81.8596
81.7108
81.596
81.5122
81.4517
81.4093
81.3819
81.366
81.3605
81.3616
81.3655
81.3667
79.9325
76.9993
73.3868
69.1656
64.3739
59.0426
53.2802
47.3129
41.4793
36.1754
31.7538
28.4219
26.205
24.969
24.3912
24.1876
24.2015
24.3264
24.4995
24.682
24.8878
25.1239
25.2918
25.2955
25.1616
24.9068
24.5412
24.0682
23.4892
22.8096
22.0345
21.1683
20.2089
19.167
87.6476
86.1937
83.9625
80.4667
88.4624
88.8024
88.7772
88.4843
88.0066
87.4136
86.7605
86.0897
85.4318
84.8088
84.236
83.7219
83.2695
82.8782
82.5454
82.2669
82.0376
81.8523
81.705
81.595
81.5128
81.4517
81.4088
81.3812
81.3654
81.36
81.3611
81.3652
81.3666
77.8123
74.5551
70.5443
65.9016
60.6899
54.9655
48.8834
42.7347
36.9176
31.849
27.844
25.0311
23.3518
22.6098
22.4417
22.5639
22.836
23.1664
23.5039
23.8192
24.2332
24.6014
24.7467
24.7215
24.5532
24.259
23.8491
23.3275
22.6955
21.9583
21.121
20.1882
19.1582
18.0421
88.5908
87.3562
85.2374
82.4458
78.381
89.1954
89.3566
89.1838
88.7717
88.2006
87.5363
86.8305
86.1217
85.438
84.8
84.2197
83.7028
83.2504
82.8608
82.5304
82.2542
82.027
81.8432
81.7034
81.5961
81.513
81.4511
81.4079
81.3802
81.3648
81.3595
81.3606
81.365
81.3664
75.4388
71.8152
67.3831
62.3031
56.6637
50.5551
44.1911
37.9359
32.241
27.5194
24.0209
21.7798
20.6556
20.402
20.6278
21.0579
21.571
22.0921
22.5819
23.1256
23.6855
24.0373
24.1583
24.1021
23.897
23.5605
23.1034
22.5298
21.8414
21.0431
20.14
19.1371
18.0334
16.8405
89.47
88.4951
86.631
83.9181
80.6662
76.0497
89.8657
89.8533
89.5384
89.0132
88.3547
87.6252
86.8718
86.1303
85.4273
84.7794
84.1952
83.678
83.2275
82.8407
82.5132
82.2395
82.0154
81.8409
81.7051
81.5965
81.5123
81.45
81.4066
81.3795
81.3642
81.3589
81.36
81.3647
81.3663
72.7678
68.7562
63.8845
58.3521
52.2805
45.8052
39.2127
32.9458
27.4931
23.232
20.3196
18.6881
18.124
18.3452
18.9456
19.664
20.4009
21.0983
21.8414
22.5455
23.0945
23.4286
23.5237
23.4343
23.1898
22.808
22.3004
21.6715
20.9232
20.0604
19.0882
18.012
16.8319
15.5597
90.2779
89.5653
88.0106
85.5544
82.3423
78.6505
73.4221
90.4698
90.2893
89.8385
89.207
88.4681
87.6793
86.8846
86.1183
85.4022
84.7488
84.1637
83.6484
83.2013
82.818
82.4933
82.2236
82.0112
81.8435
81.7057
81.5957
81.5108
81.4484
81.4059
81.379
81.3635
81.3582
81.3595
81.3645
81.3663
69.7763
65.3608
60.0307
54.0308
47.5261
40.7127
33.9648
27.8024
22.7234
19.0322
16.7709
15.7708
15.7603
16.4368
17.3893
18.3758
19.3197
20.3011
21.2226
21.9198
22.4572
22.7725
22.8396
22.7147
22.4279
21.998
21.4367
20.7492
19.9376
19.0068
17.9624
16.8103
15.5514
14.198
91.01
90.5577
89.3174
87.1882
84.2264
80.5584
76.3526
70.4739
91.0035
90.6613
90.0821
89.3519
88.5396
87.6988
86.8724
86.0889
85.3651
84.7098
84.1266
83.615
83.1719
82.792
82.4721
82.2178
82.015
81.8445
81.7049
81.5938
81.5088
81.4477
81.4056
81.3782
81.3627
81.3573
81.3588
81.3642
81.3663
66.4492
61.6137
55.8034
49.3193
42.3857
35.2781
28.4726
22.5529
17.9855
14.963
13.4
13.0379
13.5648
14.6716
15.9525
17.1871
18.4535
19.6356
20.5556
21.2457
21.7706
22.0656
22.1029
21.9399
21.6082
21.127
20.5087
19.7592
18.8811
17.8794
16.7602
15.5299
14.1916
12.4972
91.661
91.4663
90.5415
88.7457
86.1171
82.714
78.5251
73.7493
67.1913
91.4628
90.9665
90.2675
89.4467
88.5693
87.6881
86.8391
86.0448
85.3178
84.664
84.0848
83.5778
83.1386
82.7644
82.4639
82.2233
82.0164
81.8435
81.7025
81.5912
81.5083
81.4479
81.4052
81.3773
81.3617
81.3564
81.3582
81.364
81.3663
62.7733
57.4977
51.1801
44.1941
36.8431
29.5073
22.7727
17.2541
13.3348
11.0632
10.2264
10.4942
11.534
13.0433
14.6282
16.2359
17.7312
18.9188
19.8376
20.5202
21.0316
21.3047
21.31
21.1065
20.7269
20.1915
19.5131
18.6985
17.7508
16.6756
15.4795
14.1705
12.489
10.5139
92.2253
92.2834
91.6775
90.2159
87.9274
84.8787
80.9835
76.2159
70.8335
63.5624
91.844
91.203
90.3928
89.4911
88.5623
87.6517
86.788
85.9885
85.2623
84.6126
84.0384
83.5357
83.1036
82.7533
82.4722
82.2252
82.0153
81.8406
81.6992
81.5911
81.5093
81.4479
81.4043
81.3761
81.3605
81.3554
81.3574
81.3637
81.3663
58.7331
52.9907
46.1328
38.6245
30.8813
23.4166
16.9149
11.9698
8.82524
7.36552
7.26302
8.13992
9.66229
11.5446
13.5701
15.4437
16.9541
18.1482
19.0658
19.7401
20.2369
20.4865
20.4577
20.2111
19.7809
19.1881
18.4466
17.5639
16.5442
15.3936
14.1201
12.4655
10.5042
8.54482
92.6988
93.0009
92.7163
91.5938
89.6452
86.9562
83.4482
79.0054
73.6248
67.6021
59.5733
92.1445
91.3683
90.4578
89.4912
88.5244
87.5939
86.7223
85.9224
85.2001
84.5559
83.9862
83.4919
83.0902
82.7643
82.4743
82.2238
82.0117
81.8364
81.6996
81.5933
81.5101
81.4474
81.4032
81.3747
81.3591
81.3542
81.3566
81.3634
81.3664
54.3072
48.0641
40.6217
32.5734
24.4903
17.0373
10.9641
6.76918
4.50724
3.89553
4.51624
5.97141
7.94222
10.349
12.6901
14.5926
16.1197
17.321
18.2371
18.9024
19.3835
19.6079
19.5428
19.2505
18.7668
18.1139
17.3065
16.3533
15.2596
14.033
12.4135
10.4793
8.53762
6.61425
93.078
93.6117
93.6475
92.8697
91.266
88.9336
85.8178
81.7923
76.7748
70.7541
64.053
55.2044
92.3608
91.4612
90.4693
89.4539
88.4606
87.5184
86.6446
85.8483
85.1316
84.4921
83.932
83.4753
83.1021
82.7668
82.4726
82.2193
82.0064
81.8375
81.7036
81.5952
81.5102
81.4464
81.4016
81.3729
81.3574
81.3528
81.3558
81.3632
81.3666
49.4673
42.6767
34.5967
26.0048
17.6737
10.4216
4.99849
1.72272
0.424442
0.670086
1.98673
3.9819
6.57299
9.35633
11.7461
13.6802
15.2256
16.4344
17.3488
18.0042
18.4682
18.6657
18.562
18.2215
17.6818
16.9661
16.0905
15.0648
13.8965
12.3241
10.4255
8.51518
6.60878
4.73366
93.3583
94.1104
94.4607
94.0322
92.78
90.806
88.0801
84.4738
79.905
74.2976
67.6113
60.182
50.429
92.4909
91.4898
90.4357
89.3854
88.3754
87.4286
86.5574
85.7666
85.0547
84.4259
83.9116
83.4895
83.1058
82.7649
82.4672
82.2128
82.0085
81.8438
81.7072
81.5963
81.5096
81.4449
81.3997
81.3709
81.3556
81.3513
81.3549
81.3629
81.3668
44.1734
36.7687
27.9921
18.8783
10.4504
3.645
-0.891649
-3.10157
-3.38926
-2.30187
-0.329991
2.40215
5.43879
8.29335
10.7359
12.7042
14.2692
15.4858
16.398
17.0427
17.4884
17.6571
17.5127
17.1216
16.5233
15.7426
14.7968
13.6981
12.1843
10.3335
8.46309
6.58781
4.72902
2.90813
93.5365
94.4903
95.1462
95.0691
94.1757
92.5632
90.2295
87.0403
82.915
77.7942
71.5871
64.2066
55.9821
45.2125
92.5437
91.464
90.3644
89.2911
88.273
87.3273
86.4613
85.6749
84.975
84.4011
83.9286
83.4945
83.1039
82.7584
82.459
82.2163
82.018
81.8498
81.7097
81.5966
81.5085
81.4429
81.3973
81.3685
81.3535
81.3497
81.3539
81.3626
81.367
38.3595
30.2504
20.7178
11.1539
2.864
-3.19271
-6.61024
-7.64414
-6.91015
-5.01943
-2.16415
1.09701
4.22701
7.15848
9.65791
11.6625
13.2481
14.4728
15.3826
16.0156
16.4416
16.5797
16.3924
15.9484
15.2894
14.442
13.4255
11.9819
10.1904
8.3716
6.53746
4.70867
2.90431
1.14337
93.6224
94.7458
95.692
95.9689
95.4404
94.1928
92.2545
89.4869
85.7989
81.1493
75.4765
68.6617
60.5502
51.4449
39.4979
92.5313
91.3929
90.2621
89.1761
88.157
87.2155
86.3534
85.58
84.9451
84.4215
83.9351
83.4925
83.0961
82.7484
82.4643
82.2297
82.0269
81.8542
81.7111
81.596
81.5066
81.4403
81.3944
81.3657
81.3512
81.3479
81.3529
81.3625
81.3673
31.9327
23.0041
12.6739
2.81655
-5.00423
-9.97125
-12.0633
-11.8561
-10.126
-7.16346
-3.6744
-0.293574
2.93708
5.95081
8.51048
10.5535
12.1607
13.3938
14.3007
14.9209
15.3259
15.4315
15.1993
14.7005
13.9791
13.0643
11.7042
9.98414
8.22799
6.4475
4.65972
2.88483
1.14037
-0.555147
93.6301
94.888
96.085
96.7146
96.5609
95.6815
94.1409
91.802
88.5541
84.3621
79.1947
72.9744
65.5417
56.6509
46.5511
33.2011
92.4643
91.2844
90.1349
89.0447
88.0284
87.0898
86.2416
85.5444
84.9695
84.4296
83.933
83.4832
83.0839
82.7558
82.4826
82.2425
82.0341
81.8574
81.7115
81.5945
81.5039
81.437
81.391
81.3625
81.3486
81.346
81.3518
81.3623
81.3676
24.7658
14.8753
3.76592
-6.10751
-13.0283
-16.556
-17.1636
-15.7031
-12.6532
-8.92147
-5.27788
-1.76837
1.56961
4.66997
7.29291
9.37613
11.006
12.2477
13.1513
13.7577
14.14
14.2113
13.9324
13.3772
12.5927
11.3364
9.70231
8.02071
6.30504
4.57122
2.83761
1.12215
-0.557344
-2.18372
93.5725
94.9341
96.334
97.2849
97.5166
97.0163
95.8737
93.9713
91.1708
87.4331
82.7472
77.0761
70.3143
62.2471
52.5162
41.2652
26.2033
92.3523
91.1458
89.9879
88.8984
87.8835
86.9594
86.1995
85.5735
84.9794
84.4274
83.922
83.4683
83.094
82.7802
82.5003
82.2531
82.0396
81.8593
81.7107
81.5919
81.5003
81.4329
81.3869
81.3589
81.3457
81.344
81.3507
81.3623
81.3679
16.6629
5.66428
-6.07199
-15.5412
-21.0375
-22.805
-21.8356
-18.7123
-14.714
-10.7795
-6.97037
-3.32423
0.126156
3.31673
6.00554
8.13069
9.78397
11.0343
11.934
12.5256
12.8838
12.9191
12.5919
11.9794
10.8561
9.32974
7.73794
6.09912
4.43033
2.75097
1.07727
-0.57402
-2.18515
-3.74141
93.4608
94.8996
96.4586
97.6837
98.2786
98.1742
97.4373
95.9782
93.6363
90.3559
86.1389
80.9796
74.8229
67.5233
58.7991
48.1531
35.5399
18.3188
92.2041
90.9836
89.8233
88.7329
87.7328
86.9104
86.2339
85.5855
84.9771
84.4145
83.904
83.4817
83.1257
82.804
82.5152
82.2617
82.0434
81.8596
81.7086
81.5882
81.4957
81.4281
81.3823
81.355
81.3427
81.3419
81.3495
81.3623
81.3684
7.32927
-4.87446
-16.8474
-25.3481
-28.8205
-28.5792
-25.4737
-21.1491
-16.8783
-12.7282
-8.74453
-4.95651
-1.39003
1.8935
4.65029
6.81864
8.49592
9.75488
10.6501
11.2257
11.5581
11.5559
11.1793
10.2315
8.84364
7.36466
5.81847
4.22699
2.61242
0.993269
-0.616209
-2.20012
-3.7422
-5.22934
93.3055
94.7986
96.4779
97.93
98.8467
99.1207
98.805
97.8047
95.935
93.1215
89.3684
84.6958
79.0894
72.4661
64.6296
55.2224
43.5658
29.3123
9.2616
92.0274
90.8004
89.6362
88.5605
87.6761
86.9508
86.2484
85.5831
84.962
84.3928
83.9212
83.5221
83.1567
82.8242
82.5277
82.2682
82.0455
81.8583
81.705
81.5831
81.49
81.4224
81.3772
81.3508
81.3396
81.3398
81.3484
81.3624
81.3688
-3.70164
-17.0044
-28.4969
-35.3376
-36.1129
-33.0723
-28.3872
-23.6853
-19.128
-14.7533
-10.5908
-6.65807
-2.97335
0.40481
3.23082
5.44308
7.14458
8.41183
9.30174
9.86015
10.1654
10.1242
9.41726
8.21241
6.87848
5.44855
3.95074
2.413
0.858135
-0.697019
-2.23943
-3.75524
-5.2295
-6.65147
93.1158
94.6437
96.4098
98.0426
99.2399
99.853
99.935
99.418
98.0484
95.7171
92.4318
88.2299
83.1337
77.1091
70.0379
61.6637
51.5459
38.7571
22.5051
-1.44025
91.8256
90.5908
89.4406
88.4956
87.7234
86.968
86.2458
85.5656
84.9362
84.4144
83.9718
83.5616
83.1834
82.8415
82.5377
82.2725
82.0453
81.855
81.6996
81.5767
81.4832
81.416
81.3717
81.3464
81.3364
81.3376
81.3472
81.3625
81.3693
-17.243
-30.9369
-40.9407
-45.0476
-41.7724
-36.6176
-31.3742
-26.2871
-21.4376
-16.8375
-12.4961
-8.41852
-4.61528
-1.14244
1.75288
4.00907
5.73456
7.00949
7.89325
8.43331
8.70972
8.34466
7.39081
6.24853
4.96792
3.58776
2.14333
0.66418
-0.827802
-2.31668
-3.79142
-5.24052
-6.65122
-8.01324
92.8962
94.446
96.2708
98.0406
99.4771
100.391
100.823
100.765
99.9393
98.1269
95.3216
91.5849
86.9689
81.485
75.0717
67.5716
58.6577
47.8033
33.7277
15.0358
-14.706
91.5931
90.3709
89.3668
88.5506
87.7437
86.9653
86.2256
85.5349
84.9628
84.4768
84.0213
83.5959
83.2065
82.8558
82.5449
82.2741
82.0428
81.8496
81.6924
81.5687
81.4753
81.409
81.3658
81.3418
81.333
81.3354
81.3459
81.3627
81.3698
-34.8402
-46.2051
-53.3969
-52.6872
-46.1846
-40.1642
-34.3749
-28.9111
-23.778
-18.9591
-14.4433
-10.2237
-6.30423
-2.7386
0.224767
2.524
4.27261
5.55429
6.43088
6.95115
6.90926
6.31068
5.43053
4.34697
3.11792
1.79069
0.403374
-1.01484
-2.44246
-3.8648
-5.27365
-6.66009
-8.01256
-9.32283
92.6412
94.2108
96.0754
97.9429
99.5769
100.755
101.492
101.834
101.543
100.312
98.0263
94.7598
90.6066
85.6172
79.7827
73.0104
65.1002
55.6452
44.043
28.4798
6.85754
-32.6754
91.3478
90.2878
89.4305
88.5743
87.7409
86.9421
86.1894
85.5673
85.0385
84.5377
84.0645
83.626
83.2261
82.8668
82.5489
82.2727
82.0375
81.8417
81.6832
81.5592
81.4667
81.4015
81.3597
81.3371
81.3296
81.3332
81.3447
81.3629
81.3704
-56.5455
-60.4938
-64.9375
-58.2792
-50.4322
-43.6114
-37.3201
-31.5104
-26.1151
-21.0913
-16.4103
-12.0557
-8.02519
-4.37089
-1.34238
0.997864
2.76803
4.05513
4.92294
5.12966
4.8692
4.35789
3.54295
2.51316
1.33655
0.064398
-1.26465
-2.62152
-3.98511
-5.34314
-6.69002
-8.01926
-9.32205
-10.5892
92.3711
93.9338
95.8312
97.7677
99.5579
100.965
101.966
102.648
102.837
102.197
100.509
97.75
94.0538
89.5274
84.2071
78.0589
70.9559
62.6573
52.6748
40.325
23.0486
-1.80598
-56.416
91.2548
90.3612
89.458
88.5713
87.7142
86.8996
86.2282
85.658
85.1125
84.5912
84.1027
83.6519
83.2416
82.8737
82.5491
82.2679
82.0291
81.8313
81.6721
81.5487
81.4572