/*--------------------------------*- C++ -*----------------------------------*\
  =========                 |
  \\      /  F ield         | OpenFOAM: The Open Source CFD Toolbox
   \\    /   O peration     | Website:  https://openfoam.org
    \\  /    A nd           | Version:  8
     \\/     M anipulation  |
\*---------------------------------------------------------------------------*/
FoamFile
{
    version     2.0;
    format      ascii;
    class       volScalarField;
    location    "0.44";
    object      epsilon;
}
// * * * * * * * * * * * * * * * * * * * * * * * * * * * * * * * * * * * * * //

dimensions      [0 2 -3 0 0 0 0];

internalField   nonuniform List<scalar> 
15677
(
59.7283
18.3627
52.6897
8.08273
26.0298
50.2391
4.62183
13.3258
31.6657
50.5485
3.17385
7.74985
17.1333
37.3523
51.6438
2.48683
5.05441
10.0509
20.8636
42.7045
53.6836
2.14416
3.62774
6.4742
12.1892
24.588
47.7022
55.7373
1.97928
2.82284
4.53053
7.73808
14.3032
28.2923
52.0512
57.6658
1.91148
2.35336
3.40441
5.31726
8.9313
16.4498
31.7899
55.7217
59.3561
1.88406
2.08026
2.72441
3.91275
6.03028
10.1213
18.5603
34.9845
58.7273
60.8507
1.8705
1.93936
2.30755
3.05725
4.36264
6.71634
11.2893
20.5922
37.7994
61.1904
62.1096
1.86764
1.87828
2.05659
2.52193
3.35062
4.78167
7.37325
12.4339
22.4828
40.2564
63.1706
63.2169
1.86864
1.84884
1.91659
2.18643
2.71393
3.6183
5.17172
8.01144
13.5223
24.226
42.3463
64.7853
64.1405
1.86957
1.8387
1.85193
1.98278
2.30765
2.88821
3.86215
5.54261
8.61661
14.5538
25.7878
44.1305
66.0796
64.9647
1.86981
1.83699
1.82112
1.8678
2.05178
2.41921
3.04536
4.08899
5.88922
9.19226
15.5043
27.1859
45.6207
67.1317
65.6838
1.86981
1.83724
1.8105
1.81335
1.89837
2.11808
2.5202
3.18924
4.29746
6.21543
9.72582
16.3802
28.4057
46.8719
67.9872
66.3221
1.86976
1.8375
1.8082
1.78975
1.81545
1.93062
2.17962
2.61217
3.31979
4.49052
6.51576
10.2209
17.1647
29.4684
47.9129
68.6839
66.9058
1.86974
1.83759
1.8079
1.78272
1.77569
1.82161
1.96284
2.23626
2.69516
3.43887
4.66631
6.79235
10.6682
17.8664
30.3746
48.7671
69.2801
67.404
1.86973
1.8376
1.80792
1.78099
1.76142
1.76613
1.83196
1.99371
2.28762
2.77012
3.54616
4.82613
7.04143
11.0718
18.4767
31.1394
49.474
69.7539
67.9067
1.86972
1.8376
1.80793
1.78066
1.75692
1.74386
1.76042
1.84341
2.02235
2.33395
2.83716
3.64245
4.9688
7.26462
11.4256
19.0036
31.7741
50.0298
70.1987
68.3002
1.86972
1.83758
1.80793
1.78062
1.75564
1.73581
1.72945
1.75746
1.85489
2.04856
2.37536
2.89677
3.72766
5.09499
7.45987
11.7326
19.4448
32.2862
50.4929
70.5318
68.7658
1.86972
1.83757
1.80792
1.7806
1.75533
1.73308
1.71718
1.71793
1.75595
1.86607
2.0722
2.41204
2.94921
3.80213
5.20463
7.62785
11.9907
19.8077
32.6949
50.833
70.8995
69.0784
1.86972
1.83757
1.80791
1.78058
1.75525
1.73224
1.71255
1.70117
1.70838
1.75585
1.87652
2.09326
2.44427
2.99471
3.8664
5.29769
7.76901
12.2027
20.0948
33.0039
51.1212
71.1482
69.5384
1.86972
1.83756
1.8079
1.78055
1.75521
1.73198
1.71092
1.69431
1.68707
1.70075
1.75614
1.8861
2.11191
2.47227
3.03391
3.92058
5.37563
7.88319
12.3702
20.3135
33.2318
51.3168
71.4952
69.7921
1.86972
1.83756
1.80789
1.78053
1.75519
1.73188
1.71038
1.69168
1.6778
1.67508
1.69438
1.75686
1.89486
2.12834
2.49655
3.06707
3.96585
5.43779
7.97374
12.4956
20.4712
33.389
51.4798
71.6979
70.2512
1.86972
1.83755
1.80789
1.78052
1.75516
1.73183
1.71019
1.6907
1.67399
1.66336
1.66454
1.68931
1.75811
1.90296
2.14291
2.51747
3.09507
4.00239
5.48753
8.03986
12.5855
20.5714
33.4791
51.6006
72.0916
70.4931
1.86972
1.83755
1.80788
1.7805
1.75514
1.73178
1.7101
1.69032
1.6725
1.65826
1.65037
1.65586
1.68531
1.75982
1.91059
2.15604
2.5358
3.11865
4.03215
5.52374
8.08766
12.638
20.6306
33.5345
51.6781
72.3843
428.197
1.86972
1.83755
1.80788
1.78049
1.75513
1.73174
1.71004
1.69015
1.67192
1.65611
1.64398
1.63942
1.64834
1.68257
1.76221
1.91827
2.16835
2.5522
3.13865
4.05525
5.55078
8.11471
12.6684
20.6399
33.5344
51.7992
88.7458
713.46
1.86972
1.83755
1.80788
1.78049
1.75511
1.73171
1.70999
1.69004
1.67166
1.6552
1.64122
1.63165
1.62981
1.64304
1.68149
1.76578
1.92638
2.18046
2.56747
3.15633
4.07427
5.56861
8.13197
12.6664
20.6289
33.5393
52.729
122.077
990.057
1.86972
1.83755
1.80788
1.78048
1.7551
1.73169
1.70995
1.68997
1.67152
1.65478
1.64003
1.62809
1.62092
1.62259
1.6388
1.68232
1.77079
1.93569
2.19323
2.5829
3.17294
4.09025
5.58124
8.13212
12.6561
20.6038
33.5682
55.3077
157.443
1233.47
1.86972
1.83755
1.80788
1.78047
1.7551
1.73167
1.70992
1.68991
1.67142
1.65456
1.63948
1.62647
1.61679
1.61235
1.6169
1.63831
1.68495
1.77795
1.94689
2.20771
2.59928
3.18972
4.10463
5.58907
8.1292
12.6345
20.5686
33.6739
59.8926
189.75
1456.55
1.86972
1.83755
1.80788
1.78047
1.75509
1.73165
1.7099
1.68986
1.67134
1.65442
1.63918
1.62569
1.61488
1.60738
1.60599
1.61457
1.63982
1.69042
1.78801
1.96095
2.22463
2.61786
3.20768
4.11925
5.5952
8.12274
12.6061
20.5289
33.9376
64.6132
220.323
1644.53
1.86972
1.83754
1.80788
1.78046
1.75509
1.73164
1.70988
1.68982
1.67128
1.65431
1.63899
1.62528
1.61394
1.605
1.60067
1.60234
1.61568
1.64408
1.69977
1.80191
1.97867
2.24525
2.63956
3.2285
4.13537
5.60244
8.11411
12.5769
20.4839
34.4139
69.4081
247.103
1786.41
1.86972
1.83754
1.80788
1.78046
1.75508
1.73163
1.70986
1.68979
1.67122
1.65423
1.63884
1.62503
1.61344
1.60382
1.59808
1.59626
1.60322
1.6195
1.65262
1.71373
1.8205
2.00127
2.27041
2.66584
3.25301
4.15504
5.612
8.10821
12.5447
20.4432
34.9796
73.747
267.873
1895.73
1.86972
1.83754
1.80788
1.78046
1.75508
1.73162
1.70985
1.68976
1.67118
1.65415
1.63872
1.62485
1.61311
1.60319
1.59677
1.59326
1.59701
1.60683
1.62752
1.66678
1.7332
1.84499
2.02958
2.30145
2.69733
3.28282
4.17918
5.62612
8.10342
12.5117
20.41
35.525
77.1121
284.25
1982.95
1.83754
1.86976
1.80788
1.78045
1.75508
1.73161
1.70984
1.68973
1.67114
1.65409
1.63862
1.6247
1.61287
1.60281
1.59605
1.59176
1.59397
1.60056
1.61467
1.64192
1.68709
1.75941
1.87621
2.06487
2.33897
2.73554
3.31854
4.20915
5.64469
8.10356
12.4748
20.373
35.941
79.6912
297.533
2055.22
1.80788
1.83764
1.86983
1.78045
1.75508
1.7316
1.70983
1.68971
1.67111
1.65404
1.63854
1.62458
1.61267
1.60254
1.59559
1.59097
1.59248
1.59756
1.6085
1.62948
1.66306
1.71478
1.79328
1.91558
2.10789
2.38441
2.78075
3.3613
4.2451
5.66857
8.10615
12.4352
20.3253
36.2282
81.6724
308.728
2117.44
1.78045
1.80804
1.83784
1.8699
1.75508
1.73159
1.70982
1.68969
1.67109
1.65399
1.63847
1.62448
1.61251
1.60233
1.59525
1.59051
1.59172
1.59615
1.60571
1.62368
1.65148
1.69228
1.751
1.83614
1.96365
2.15973
2.43784
2.8342
3.41114
4.28735
5.70113
8.1133
12.3975
20.266
36.4104
83.2322
318.458
2172.57
1.75508
1.78066
1.80835
1.83805
1.86997
1.73158
1.70981
1.68967
1.67107
1.65395
1.63841
1.62439
1.61237
1.60216
1.59499
1.5902
1.5913
1.59552
1.60458
1.62137
1.64662
1.68227
1.73089
1.79731
1.88898
2.02195
2.22076
2.50084
2.89563
3.46827
4.34148
5.74457
8.12701
12.3632
20.1959
36.5085
84.4887
327.209
2222.73
1.73158
1.75533
1.78108
1.80868
1.83826
1.87005
1.70981
1.68965
1.67105
1.65391
1.63836
1.62432
1.61225
1.60201
1.59477
1.58996
1.59102
1.59522
1.60423
1.6208
1.64535
1.67916
1.7234
1.78071
1.85489
1.95349
2.09094
2.29212
2.57235
2.96545
3.54003
4.41016
5.79549
8.14679
12.332
20.1189
36.5545
85.5451
335.208
2268.94
1.7098
1.73187
1.75585
1.78151
1.80902
1.83848
1.87013
1.68964
1.67103
1.65387
1.63832
1.62425
1.61216
1.60189
1.59458
1.58978
1.59083
1.59508
1.60422
1.62103
1.64573
1.67936
1.72249
1.77673
1.84342
1.9259
2.03055
2.17219
2.37371
2.65355
3.05231
3.62934
4.48737
5.85323
8.17168
12.3047
20.0393
36.5512
86.4544
342.696
2312.18
1.68963
1.71014
1.73247
1.75638
1.78196
1.80936
1.8387
1.87021
1.67102
1.65384
1.63828
1.62418
1.61207
1.60178
1.59442
1.58963
1.59069
1.595
1.60433
1.62156
1.64695
1.68143
1.72508
1.77908
1.84347
1.92039
2.01137
2.12215
2.26573
2.467
2.75343
3.15937
3.72817
4.57171
5.91659
8.20111
12.2817
19.959
36.536
87.2716
349.708
2352.67
1.67101
1.68998
1.71081
1.73308
1.75693
1.78241
1.80971
1.83893
1.87029
1.65382
1.63825
1.62413
1.61201
1.60169
1.59428
1.58951
1.59057
1.59496
1.60451
1.62219
1.64842
1.68434
1.72967
1.78532
1.85068
1.92654
2.01271
2.11242
2.22886
2.3735
2.58287
2.8782
3.27648
3.83434
4.66209
5.98426
8.23452
12.263
19.8823
36.5056
88.0107
356.403
2390.99
1.6538
1.67139
1.69072
1.71151
1.73372
1.75749
1.78288
1.81008
1.83917
1.87037
1.63823
1.62408
1.61195
1.6016
1.59417
1.58941
1.59049
1.59495
1.6047
1.62284
1.64994
1.68742
1.73511
1.79377
1.86207
1.94052
2.02731
2.12353
2.22924
2.35077
2.50915
2.72931
3.01629
3.40265
3.94611
4.75671
6.05525
8.27121
12.2486
19.8104
36.4665
88.707
362.717
2427.01
1.63821
1.65419
1.67219
1.69147
1.71223
1.73437
1.75807
1.78337
1.81045
1.83941
1.87046
1.62403
1.6119
1.60152
1.59408
1.58932
1.59042
1.59496
1.6049
1.62348
1.65142
1.69043
1.7406
1.80316
1.87602
1.95926
2.0504
2.14929
2.25332
2.36504
2.5029
2.6792
2.89234
3.16599
3.53707
4.06322
4.85444
6.12855
8.31043
12.2382
19.7443
36.4276
89.3553
368.796
2461.24
1.62399
1.63862
1.65502
1.67301
1.69226
1.71297
1.73504
1.75866
1.78387
1.81083
1.83966
1.87055
1.61186
1.60144
1.594
1.58925
1.59036
1.59497
1.6051
1.62408
1.65284
1.6933
1.7459
1.81249
1.89107
1.98125
2.07919
2.18484
2.29346
2.40559
2.53695
2.69604
2.86746
3.07153
3.32748
3.67839
4.18397
4.9541
6.20325
8.35148
12.2316
19.6841
36.3907
89.9825
374.523
2493.34
1.61183
1.62438
1.63948
1.65587
1.67385
1.69306
1.71372
1.73573
1.75927
1.78438
1.81123
1.83991
1.87064
1.60137
1.59394
1.58918
1.59031
1.59499
1.60529
1.62464
1.65417
1.69599
1.75094
1.82147
1.90591
2.0048
2.11233
2.22766
2.34531
2.4646
2.60019
2.75809
2.9139
3.0726
3.26111
3.49776
3.82465
4.30728
5.05472
6.27845
8.3938
12.2279
19.6306
36.3585
90.5741
380.057
2523.86
1.60131
1.61221
1.62523
1.64036
1.65675
1.67472
1.69389
1.7145
1.73644
1.7599
1.7849
1.81163
1.84018
1.87073
1.59389
1.58912
1.59027
1.59502
1.60547
1.62517
1.65541
1.69848
1.75568
1.82996
1.9202
2.02816
2.14777
2.27673
2.40687
2.53845
2.68577
2.85408
3.01065
3.15566
3.29442
3.45986
3.67532
3.97517
4.43212
5.15529
6.35346
8.4367
12.2283
19.5831
36.3326
91.1527
385.245
2552.37
1.59386
1.60162
1.61304
1.62609
1.64127
1.65766
1.67561
1.69474
1.7153
1.73717
1.76054
1.78544
1.81204
1.84043
1.87082
1.58905
1.59023
1.59504
1.60565
1.62565
1.65655
1.70078
1.76011
1.83792
1.93382
2.05082
2.18306
2.3296
2.47764
2.62596
2.79121
2.97911
3.14864
3.29501
3.42015
3.53096
3.66592
3.85619
4.1283
4.55726
5.25512
6.42762
8.47986
12.2301
19.5414
36.312
91.7011
390.269
2579.5
1.58899
1.59414
1.60231
1.61388
1.62699
1.64221
1.6586
1.67653
1.69562
1.71612
1.73792
1.7612
1.78599
1.81245
1.84069
1.8709
1.59018
1.59506
1.6058
1.6261
1.65761
1.7029
1.76422
1.84533
1.94673
2.07254
2.21747
2.38298
2.55474
2.72755
2.91679
3.13305
3.32599
3.48627
3.61114
3.70605
3.78015
3.87814
4.03793
4.28212
4.68165
5.3533
6.50038
8.52278
12.2339
19.5048
36.2987
92.2379
394.946
2604.69
1.59017
1.58903
1.59475
1.60301
1.61476
1.62793
1.64318
1.65957
1.67747
1.69653
1.71696
1.73869
1.76187
1.78654
1.81285
1.84093
1.87098
1.59507
1.60594
1.62651
1.65857
1.70484
1.76802
1.8522
1.95887
2.09314
2.25073
2.43587
2.63345
2.83981
3.06475
3.31933
3.54679
3.73269
3.86962
3.95923
4.012
4.03993
4.09485
4.21936
4.43486
4.80401
5.44932
6.57133
8.56509
12.2399
19.4734
36.2894
92.7477
399.488
2628.69
1.59511
1.59009
1.58914
1.59536
1.60376
1.61567
1.62891
1.64417
1.66057
1.67844
1.69746
1.71783
1.73948
1.76254
1.78707
1.81323
1.84117
1.87106
1.60607
1.62688
1.65944
1.70662
1.77151
1.85854
1.97024
2.11253
2.28266
2.4877
2.712
2.95645
3.23199
3.54459
3.82069
4.04642
4.20798
4.30291
4.34005
4.33677
4.3084
4.31412
4.39938
4.58572
4.9242
5.54282
6.64013
8.60653
12.2474
19.4461
36.2874
93.2446
403.68
2650.84
1.60623
1.59481
1.58988
1.58922
1.59601
1.60458
1.61661
1.62993
1.6452
1.66161
1.67943
1.69842
1.71871
1.74026
1.76319
1.78759
1.81361
1.8414
1.87114
1.6272
1.66023
1.70824
1.77471
1.86438
1.98082
2.13067
2.31317
2.53788
2.78949
3.07562
3.41041
3.80735
4.16373
4.45056
4.65443
4.7659
4.7927
4.75513
4.67942
4.58381
4.53431
4.5768
4.73257
5.0416
5.63341
6.70655
8.6469
12.2559
19.4231
36.2891
93.7168
407.77
2671.99
1.62756
1.60561
1.59401
1.58961
1.58943
1.59667
1.60546
1.61757
1.63099
1.64625
1.66268
1.68046
1.6994
1.71959
1.74102
1.76382
1.78809
1.81397
1.84162
1.87122
1.66093
1.70971
1.77762
1.86976
1.99062
2.14758
2.34216
2.58598
2.86539
3.19648
3.59679
4.09623
4.58228
4.98426
5.26068
5.40613
5.42594
5.34721
5.20642
5.03918
4.86465
4.75395
4.7511
4.87435
5.15539
5.72076
6.7704
8.68602
12.2653
19.4034
36.2935
94.1737
411.513
2688.99
1.66167
1.62638
1.60386
1.59309
1.58938
1.58984
1.59733
1.60641
1.61856
1.6321
1.64734
1.66379
1.68151
1.70038
1.72044
1.74176
1.76444
1.78858
1.81433
1.84184
1.87129
1.71104
1.78027
1.87469
1.99968
2.16333
2.36956
2.63171
2.93946
3.31794
3.7883
4.40759
5.06884
5.67986
6.11274
6.32499
6.34449
6.20887
5.97427
5.69546
5.41515
5.14947
4.97186
4.92162
5.01087
5.26503
5.8046
6.83156
8.72375
12.2753
19.3869
36.3015
94.6081
414.692
2703.26
1.71238
1.65986
1.62303
1.60195
1.59227
1.58909
1.5904
1.59801
1.60742
1.61959
1.63325
1.64846
1.66491
1.68255
1.70132
1.72128
1.74248
1.76503
1.78905
1.81467
1.84205
1.87136
1.78269
1.8792
2.00802
2.17796
2.39533
2.67499
3.01156
3.43853
3.98231
4.74133
5.62833
6.54154
7.28609
7.67782
7.71847
7.50706
7.13036
6.67858
6.22235
5.80604
5.4369
5.18699
5.08759
5.14193
5.37018
5.88478
6.88996
8.75999
12.2858
19.373
36.3133
94.9692
417.304
2718.73
1.78504
1.70976
1.65441
1.61946
1.60021
1.59155
1.58883
1.59107
1.59872
1.60848
1.62066
1.63443
1.64961
1.66603
1.68357
1.70225
1.72209
1.74318
1.76561
1.78951
1.81501
1.84225
1.87143
1.88337
2.01569
2.19154
2.41947
2.71584
3.08147
3.55675
4.17745
5.09884
6.26622
7.57724
8.78392
9.58649
9.78664
9.49343
8.91476
8.19613
7.45984
6.78513
6.20988
5.72551
5.39848
5.24847
5.26742
5.47063
5.9612
6.94553
8.7947
12.2964
19.3616
36.3244
95.2759
420.191
2735.54
1.88731
1.78142
1.70129
1.64867
1.61615
1.59865
1.5909
1.58863
1.59181
1.59948
1.60959
1.62177
1.63564
1.65077
1.66712
1.68456
1.70314
1.72288
1.74386
1.76618
1.78996
1.81533
1.84245
1.87147
2.02283
2.20414
2.44201
2.75438
3.14889
3.67142
4.37376
5.48131
6.98191
8.78371
10.6003
12.0356
12.7218
12.5055
11.6719
10.569
9.40104
8.31255
7.37972
6.62409
6.01384
5.60552
5.40382
5.38727
5.56629
6.0338
6.9983
8.82781
12.3072
19.3532
36.3359
95.6136
423.279
2753.84
2.02939
1.88243
1.76868
1.69246
1.6433
1.6131
1.59722
1.59033
1.58853
1.59261
1.6003
1.61073
1.62293
1.63684
1.6519
1.66818
1.68553
1.70401
1.72364
1.74452
1.76673
1.79039
1.81565
1.84255
1.87147
2.21597
2.46307
2.79074
3.2135
3.7819
4.57218
5.88832
7.76859
10.1447
12.7135
15.0018
16.4894
16.7894
15.865
14.2504
12.4556
10.7313
9.22695
8.00031
7.04557
6.30037
5.80744
5.55336
5.50148
5.65713
6.10261
7.04828
8.85934
12.3166
19.347
36.3488
95.986
426.733
2773.81
2.22661
2.02296
1.86356
1.75554
1.68418
1.63825
1.61025
1.59588
1.58984
1.58852
1.59345
1.6012
1.6119
1.62411
1.63801
1.65301
1.66921
1.68647
1.70486
1.72439
1.74516
1.76726
1.79081
1.81581
1.84255
1.87147
2.4829
2.82508
3.2751
3.88814
4.77385
6.31745
8.61536
11.6364
15.0864
18.4445
21.0553
22.3047
21.8534
19.8688
17.2075
14.5494
12.1674
10.1907
8.64008
7.4709
6.5836
6.00366
5.69688
5.61007
5.7432
6.16769
7.09553
8.88532
12.3248
19.3406
36.3659
96.4003
430.415
2795.58
2.50034
2.2182
1.99542
1.84437
1.74318
1.67633
1.63345
1.60756
1.59465
1.58946
1.58861
1.59431
1.60219
1.61305
1.62528
1.63914
1.65409
1.67022
1.68739
1.70568
1.72512
1.74578
1.76778
1.79102
1.81581
1.84255
1.87147
2.8577
3.33372
3.9907
4.97963
6.76449
9.50918
13.2321
17.6735
22.2997
26.3564
29.0115
29.6075
27.9453
24.4975
20.5088
16.8194
13.6873
11.1904
9.29177
7.8966
6.86212
6.19365
5.83425
5.71313
5.82459
6.22911
7.13424
8.90742
12.3341
19.335
36.3859
96.8573
434.561
2819.34
2.88603
2.48969
2.17807
1.96776
1.8263
1.73141
1.6688
1.62886
1.60503
1.59354
1.58918
1.58885
1.59516
1.60324
1.61417
1.62644
1.64025
1.65515
1.67119
1.68829
1.70648
1.72582
1.74639
1.76804
1.79102
1.81581
1.84255
1.87147
3.38966
4.09055
5.18994
7.22408
10.4362
14.9044
20.4261
26.4895
32.2884
36.8155
39.086
38.4813
35.0618
29.7107
24.1104
19.2315
15.2687
12.2128
9.94835
8.31938
7.1346
6.37698
5.96542
5.81077
5.90143
6.27952
7.16705
8.93168
12.3446
19.3295
36.4117
97.3712
438.969
2845.21
3.43773
2.8723
2.43121
2.13841
1.94172
1.80905
1.72007
1.66154
1.62446
1.60272
1.59254
1.58898
1.58933
1.59599
1.60431
1.61527
1.62757
1.64133
1.65618
1.67214
1.68916
1.70726
1.72651
1.74669
1.76804
1.79102
1.81581
1.84255
1.87147
4.18837
5.40261
7.69049
11.3828
16.6264
23.2953
30.9296
38.7196
45.5477
50.1483
51.4382
48.9561
43.162
35.4488
27.9621
21.751
16.8896
13.2454
10.6034
8.7362
7.39986
6.55335
6.0904
5.90314
5.96402
6.32228
7.20293
8.95833
12.3567
19.3255
36.443
97.9345
443.981
2873.47
4.27396
3.42048
2.78588
2.37437
2.10109
1.91678
1.79237
1.7091
1.65456
1.62024
1.60059
1.59164
1.58873
1.58999
1.59678
1.60539
1.61634
1.62869
1.64238
1.65719
1.67307
1.69001
1.70802
1.72685
1.74669
1.76804
1.79102
1.81581
1.84255
1.87143
5.61447
8.15963
12.3368
18.3727
26.2338
35.5353
45.5066
54.9906
62.5289
66.6137
66.1542
61.0016
52.1681
41.6373
32.0098
24.3434
18.5302
14.2772
11.2511
9.14438
7.65694
6.72252
6.20923
5.97899
6.01687
6.36905
7.24221
8.98765
12.3704
19.3219
36.4809
98.5797
449.295
2904.14
4.25202
5.80099
3.28882
2.70381
2.32093
2.0653
1.89264
1.77621
1.6985
1.64786
1.61623
1.59862
1.59086
1.5885
1.59075
1.59758
1.60647
1.61739
1.62978
1.64341
1.65817
1.67397
1.69083
1.70839
1.72685
1.74669
1.76804
1.79102
1.8158
1.84245
1.87136
8.62643
13.2868
20.1206
29.1971
40.2259
52.5069
64.9069
75.8791
83.605
86.378
83.2333
74.5251
61.9705
48.1901
36.1982
26.9767
20.1727
15.2988
11.8867
9.54178
7.90506
6.88433
6.30715
6.04337
6.07444
6.42021
7.28522
9.01994
12.3862
19.3209
36.5298
99.2791
455.404
2937.66
4.03599
5.78503
9.04223
3.16811
2.62679
2.26966
2.03062
1.86921
1.76058
1.68831
1.64145
1.61247
1.59686
1.59019
1.58836
1.59154
1.59839
1.60753
1.61843
1.63084
1.64441
1.65912
1.67485
1.69124
1.70839
1.72686
1.74669
1.76804
1.79102
1.81565
1.84225
1.87129
14.2212
21.8505
32.1472
44.9282
59.5887
75.0653
89.8195
101.875
109.044
109.497
102.582
89.3762
72.4337
55.0147
40.4733
29.6217
21.8016
16.3021
12.5064
9.92663
8.14363
7.01837
6.39046
6.11384
6.13719
6.4762
7.33237
9.05556
12.4043
19.3219
36.5847
100.1
461.852
2973.85
3.8459
5.40031
9.05878
15.0548
3.05587
2.55287
2.21997
1.99696
1.84653
1.7455
1.67852
1.63536
1.60901
1.59533
1.58965
1.58834
1.59235
1.59922
1.60857
1.61946
1.63187
1.6454
1.66006
1.67528
1.69124
1.70839
1.72686
1.74669
1.76804
1.79081
1.81533
1.84204
1.87122
23.5416
35.0513
49.5816
66.6373
85.2586
103.987
120.838
133.358
138.987
135.902
124.013
105.354
83.4045
62.0176
44.7846
32.2522
23.4039
17.2807
13.1069
10.2976
8.3421
7.1328
6.48189
6.19103
6.20563
6.53749
7.38408
9.09487
12.4253
19.3248
36.6604
100.975
469.364
3013.39
3.67299
5.06498
8.3524
15.1467
25.0593
2.94849
2.48131
2.17178
1.96437
1.82465
1.731
1.66919
1.62967
1.60592
1.59401
1.58926
1.58843
1.59314
1.60008
1.60958
1.62048
1.63288
1.64636
1.66052
1.67528
1.69124
1.7084
1.72686
1.74669
1.76778
1.79039
1.815
1.84183
1.87114
37.8768
54.1367
73.5626
95.3158
118.068
139.942
158.448
170.58
173.432
165.397
147.257
122.221
94.7223
69.109
49.0861
34.8457
24.9689
18.2297
13.686
10.6068
8.51196
7.2588
6.58233
6.27567
6.28036
6.6046
7.44084
9.13838
12.4492
19.3323
36.739
102.033
477.245
3055.73
3.51039
4.76168
7.72248
13.9179
25.3385
40.4177
2.84481
2.41202
2.12516
1.93292
1.80359
1.71714
1.66039
1.62451
1.60323
1.5929
1.58899
1.58863
1.5939
1.60096
1.61056
1.62148
1.63388
1.64684
1.66051
1.67528
1.69125
1.7084
1.72686
1.74639
1.76726
1.78995
1.81466
1.84161
1.87106
58.5445
80.2956
105.111
131.816
158.722
183.493
203.019
213.649
212.221
197.658
171.973
139.717
106.228
76.2049
53.337
37.3836
26.4883
19.1453
14.1688
10.8716
8.69947
7.3977
6.6928
6.36854
6.36201
6.67811
7.5032
9.18647
12.4774
19.3417
36.8554
103.136
486.557
3102.01
3.35581
4.47912
7.14498
12.7882
23.4174
41.0381
62.503
2.74468
2.34514
2.08022
1.90269
1.78343
1.70403
1.65234
1.61992
1.60088
1.59197
1.58882
1.58899
1.59463
1.60185
1.61152
1.62249
1.63436
1.64683
1.66051
1.67529
1.69125
1.7084
1.72652
1.74578
1.76672
1.7895
1.81431
1.84139
1.87098
86.7686
114.555
145.063
176.832
207.817
235.114
254.806
262.514
255.029
232.246
197.769
157.575
117.772
83.2303
57.5035
39.8508
27.9554
19.9088
14.5824
11.1643
8.90669
7.55101
6.81441
6.47053
6.4513
6.75865
7.57171
9.2399
12.5091
19.3621
36.9675
104.52
496.262
3150.92
3.20872
4.21379
6.60364
11.7295
21.6127
38.2219
63.6554
92.5548
2.64823
2.28084
2.03706
1.87375
1.76434
1.692
1.64514
1.61583
1.59889
1.59119
1.58866
1.5895
1.59532
1.60277
1.61249
1.62298
1.63434
1.64684
1.66052
1.67529
1.69125
1.70802
1.72582
1.74515
1.76617
1.78904
1.81396
1.84116
1.8709
123.562
157.707
194.061
230.941
265.891
295.216
313.937
316.94
301.363
268.625
224.233
175.539
129.215
90.1224
61.5578
42.2355
29.1796
20.5629
15.0395
11.488
9.13592
7.72038
6.94844
6.58264
6.54904
6.84692
7.64707
9.29902
12.5473
19.3821
37.1448
105.928
507.872
3213.82
3.06896
3.96526
6.09375
10.7218
19.8828
35.549
59.7296
94.4373
131.545
2.55562
2.21928
1.9958
1.84637
1.74681
1.6812
1.63869
1.61216
1.59718
1.59054
1.58847
1.59008
1.59602
1.60374
1.61295
1.62296
1.63434
1.64684
1.66052
1.6753
1.69084
1.70726
1.72511
1.74451
1.7656
1.78856
1.8136
1.84092
1.87081
169.648
210.302
252.601
294.678
333.48
364.154
380.383
376.487
350.575
306.199
250.947
193.371
140.443
96.829
65.4777
44.2266
30.229
21.2859
15.545
11.8462
9.38972
7.90768
7.0963
6.70597
6.65612
6.94371
7.72995
9.365
12.5898
19.4212
37.306
107.75
522.137
3288.65
2.9363
3.734
5.61565
9.76042
18.2009
32.9496
55.999
89.1634
134.317
180.09
2.46712
2.16061
1.95681
1.82124
1.73105
1.6715
1.63291
1.60892
1.59572
1.59
1.58835
1.59074
1.59682
1.60422
1.6129
1.62297
1.63434
1.64685
1.66053
1.67486
1.69001
1.70648
1.72438
1.74385
1.76502
1.78808
1.81322
1.84068
1.87073
225.452
272.708
321.149
368.644
411.171
442.219
453.928
440.503
401.891
344.343
277.52
210.865
151.36
103.309
68.75
45.9335
31.3893
22.0858
16.1045
12.2431
9.67092
8.11499
7.25957
6.84175
6.77355
7.04989
7.82122
9.43804
12.6419
19.458
37.5705
109.847
541.122
3362.94
2.81016
3.52107
5.17067
8.85162
16.5563
30.3864
52.3439
84.1891
127.404
183.811
238.44
2.38307
2.10535
1.9211
1.79865
1.71689
1.66279
1.62774
1.60607
1.59446
1.58954
1.58835
1.59154
1.59716
1.60419
1.6129
1.62298
1.63435
1.64686
1.66007
1.67397
1.68916
1.70568
1.72364
1.74317
1.76442
1.78758
1.81284
1.84043
1.87064
291.172
345.253
400.281
453.6
499.636
529.621
534.133
508.13
454.446
382.441
303.607
227.853
161.889
108.711
71.5544
47.8215
32.6734
22.9713
16.7242
12.6829
9.98268
8.34462
7.44002
6.99137
6.90246
7.1664
7.92167
9.51997
12.6993
19.5251
37.8515
112.93
561.463
3435.73
2.69027
3.32858
4.76052
7.99568
14.9494
27.8418
48.7101
79.3135
120.988
174.866
243.003
306.547
2.3043
2.05485
1.88906
1.77836
1.70416
1.65498
1.62314
1.60357
1.59336
1.58924
1.58866
1.59194
1.59702
1.60422
1.6129
1.62298
1.63439
1.64639
1.65913
1.67307
1.68829
1.70485
1.72287
1.74247
1.76381
1.78706
1.81245
1.84017
1.87055
366.943
428.404
490.846
550.575
599.694
626.463
620.297
578.309
507.334
419.934
328.919
244.201
170.646
113.335
74.6543
49.9106
34.0953
23.9521
17.4108
13.1705
10.3284
8.5991
7.63958
7.15635
7.04407
7.29433
8.03245
9.61075
12.7707
19.6012
38.3707
115.976
583.128
3507.12
2.57775
3.15222
4.38537
7.19602
13.3957
25.3141
45.0659
74.4579
114.744
166.765
231.464
311.61
384.242
2.23276
2.00967
1.86034
1.76013
1.69273
1.64798
1.61903
1.60134
1.5925
1.58933
1.58872
1.59184
1.59703
1.60422
1.61292
1.62302
1.6339
1.64541
1.65817
1.67214
1.68739
1.70401
1.72208
1.74176
1.76319
1.78654
1.81204
1.83991
1.87046
453.057
523.034
594.173
661.125
712.382
732.652
711.398
649.839
559.694
456.344
353.228
257.756
178.127
118.438
78.0815
52.2233
35.6705
25.039
18.1719
13.7113
10.712
8.88121
7.86038
7.33836
7.19981
7.43482
8.15451
9.71306
12.864
19.75
38.8625
119.628
607.345
3575.15
2.47549
2.99059
4.04685
6.45785
11.9109
22.8153
41.399
69.5677
108.561
158.997
221.335
296.661
389.154
471.488
2.16913
1.96925
1.83459
1.74377
1.68247
1.64169
1.61534
1.5995
1.59219
1.58927
1.58845
1.59189
1.59703
1.60422
1.61301
1.62253
1.6329
1.64443
1.65719
1.67119
1.68648
1.70314
1.72128
1.74103
1.76254
1.786
1.81163
1.83965
1.87037
550.278
630.522
712.487
787.574
838.881
847.738
806.097
721.475
610.747
491.284
373.321
269.305
186.361
124.068
81.8704
54.7838
37.4158
26.2437
19.0156
14.3109
11.1374
9.19396
8.10475
7.53927
7.37115
7.58927
8.28931
9.84788
12.9971
19.9082
39.5332
123.561
631.623
3641.74
2.38469
2.84554
3.74628
5.7875
10.5119
20.3638
37.7134
64.6101
102.351
151.412
211.839
284.005
369.604
475.252
568.735
2.11252
1.93311
1.81152
1.72909
1.67323
1.63601
1.6122
1.59849
1.59189
1.58893
1.58848
1.59189
1.59707
1.6043
1.61256
1.62152
1.63189
1.64342
1.65619
1.67022
1.68554
1.70226
1.72045
1.74027
1.76189
1.78545
1.81123
1.8394
1.87028
659.718
753.459
849.466
933.059
980.239
970.784
902.835
792.009
659.841
520.102
390.396
281.977
195.416
130.276
86.0574
57.618
39.3495
27.5788
19.9508
14.9755
11.609
9.54053
8.37516
7.761
7.55989
7.75918
8.46674
10.021
13.1465
20.1206
40.2486
127.924
659.916
3703.65
2.30434
2.71642
3.48907
5.1922
9.22056
17.9816
34.0232
59.5698
96.049
143.879
202.779
272.481
353.71
449.329
570.023
677.382
2.06214
1.90082
1.79084
1.71586
1.66487
1.63113
1.6102
1.59776
1.59142
1.58898
1.5885
1.59189
1.59728
1.60384
1.61158
1.62052
1.63086
1.6424
1.65516
1.66923
1.68458
1.70134
1.71961
1.7395
1.76122
1.7849
1.81083
1.83916
1.8702
784.12
896.915
1010.75
1101.27
1137.07
1100.44
999.935
860.342
700.338
544.538
409.065
295.854
205.358
137.112
90.6807
60.7535
41.4911
29.058
20.9868
15.7118
12.1315
9.92432
8.6742
8.00583
7.76772
7.97882
8.68846
10.2096
13.318
20.3696
41.0961
133.035
687.448
3764.07
2.23336
2.60085
3.27724
4.6847
8.05396
15.693
30.3517
54.4439
89.6075
136.29
193.966
261.831
339.717
429.217
535.001
674.739
800.169
2.01725
1.87196
1.77225
1.70391
1.65764
1.62781
1.60889
1.59709
1.59149
1.589
1.58855
1.59206
1.59698
1.60287
1.61062
1.61951
1.62981
1.64135
1.65412
1.66821
1.6836
1.70041
1.71875
1.73872
1.76055
1.78437
1.81045
1.83892
1.87012
929.251
1069.37
1203.94
1296.31
1309.82
1235.11
1095.62
916.954
734.644
571.172
429.419
311.014
216.252
144.627
95.779
64.219
43.8611
30.6957
22.1336
16.5266
12.7095
10.3488
9.00474
8.27569
8.03982
8.24892
8.92423
10.4127
13.5185
20.6601
42.1041
138.406
719.466
3819.79
2.17069
2.49773
3.09789
4.26219
7.04233
13.5492
26.7312
49.2415
82.9886
128.548
185.236
251.785
327.277
412.139
509.383
626.273
791.734
943.122
1.97727
1.84611
1.75547
1.69353
1.65251
1.62574
1.60795
1.59719
1.59152
1.58904
1.58894
1.59172
1.59619
1.60197
1.60965
1.6185
1.62873
1.64028
1.65304
1.66716
1.68259
1.69945
1.71787
1.73794
1.75991
1.78386
1.81007
1.83869
1.87004
1104.67
1283.18
1439.44
1524.19
1499.59
1372.51
1175.79
964.968
771.955
600.085
451.531
327.521
228.155
152.871
101.391
68.0431
46.4803
32.5066
23.4016
17.427
13.348
10.8176
9.36915
8.62851
8.37702
8.53259
9.17304
10.6376
13.7392
21.0239
43.2019
144.927
751.228
3873.95
2.1153
2.4062
2.94295
3.91345
6.19256
11.6341
23.2304
43.9868
76.1659
120.565
176.436
242.113
316.008
397.602
488.413
593.501
723.627
925.227
1116.77
1.94157
1.82287
1.74086
1.68598
1.64938
1.6245
1.60807
1.59722
1.59156
1.58952
1.58897
1.59093
1.5955
1.6011
1.60866
1.61747
1.62763
1.63919
1.65195
1.66609
1.68157
1.69848
1.717
1.73718
1.75929
1.78336
1.80971
1.83847
1.86996
1326.87
1558.15
1736.53
1796.61
1706.92
1489.89
1244.02
1017.15
812.313
631.317
475.441
345.421
241.114
161.886
107.552
72.2541
49.3698
34.5057
24.801
18.4202
14.052
11.3338
9.84534
9.06463
8.73121
8.83004
9.43909
10.878
14.004
21.4254
44.5702
151.745
786.686
3924.96
2.06616
2.32542
2.80679
3.62634
5.4881
9.98831
19.9865
38.7583
69.1293
112.254
167.409
232.593
305.595
385.049
471.362
567.631
681.763
829.037
1085.4
1338.15
1.90958
1.80263
1.72998
1.68148
1.64773
1.62467
1.60812
1.59727
1.5922
1.5897
1.58872
1.59031
1.59483
1.60026
1.60764
1.61644
1.62652
1.63807
1.65084
1.66499
1.68053
1.69751
1.71616
1.73645
1.75868
1.78287
1.80936
1.83825
1.86989
1628.92
1943.17
2135.64
2134.65
1888.25
1590.15
1318.15
1073.41
855.666
664.843
501.148
364.733
255.157
171.705
114.293
76.8775
52.5491
36.7073
26.3421
19.5132
14.8257
12.0071
10.4321
9.52093
9.10187
9.14374
9.7197
11.1475
14.2936
21.9301
46.0416
159.949
823.409
3974.56
2.02239
2.25427
2.68563
3.3928
4.90963
8.59939
17.084
33.7539
61.941
103.538
157.989
222.995
295.735
374.053
457.377
547.555
649.795
775.984
948.383
1296.16
1648.96
1.88174
1.78733
1.72354
1.67934
1.64796
1.62473
1.60818
1.59816
1.59266
1.58967
1.58877
1.58978
1.59413
1.59944
1.60661
1.61539
1.62539
1.63693
1.64971
1.66387
1.6795
1.69658
1.71534
1.73574
1.75809
1.7824
1.80902
1.83804
1.86982
2128.02
2543.91
2746.55
2432.14
2041.93
1698.3
1397.58
1133.44
901.838
700.559
528.6
385.437
270.292
182.348
121.638
81.9348
56.0358
39.1248
28.0345
20.7122
15.8327
12.8337
11.0434
9.99639
9.48952
9.47296
10.0218
11.4376
14.6379
22.4965
47.8486
168.86
862.079
4024.15
1.98434
2.19158
2.57737
3.2
4.43704
7.43855
14.5297
29.1238
54.8429
94.4231
148.005
213.065
286.121
364.209
445.884
531.913
626.123
736.581
881.218
1095.7
1611.62
2213.43
1.86033
1.77845
1.72078
1.67966
1.64805
1.62478
1.60941
1.5991
1.59305
1.59004
1.58898
1.58936
1.5934
1.59866
1.60557
1.61432
1.62425
1.63575
1.64857
1.66277
1.6785
1.69567
1.71454
1.73505
1.75752
1.78195
1.80868
1.83783
1.86975
3006.67
3737.88
3243.38
2673.51
2202.86
1812.13
1481.3
1196.71
950.507
738.264
557.673
407.468
286.492
193.814
129.597
87.4407
59.8435
41.7693
29.8858
22.2689
17.0637
13.6912
11.6774
10.4905
9.8938
9.82119
10.3424
11.7623
15.0266
23.1737
49.9072
178.97
904.975
4072.01
1.95475
2.13761
2.48087
3.03637
4.05355
6.48006
12.3276
24.9085
48.0499
85.1486
137.359
202.523
276.419
355.136
436.348
519.927
608.538
708.681
832.99
1009.81
1304.32
2211.54
3414.67
1.84798
1.77496
1.7212
1.67977
1.64809
1.62638
1.611
1.60024
1.59401
1.5906
1.58925
1.58912
1.59265
1.5979
1.60453
1.61323
1.62311
1.63456
1.64744
1.6617
1.67754
1.69479
1.71377
1.73438
1.75696
1.7815
1.80836
1.83764
1.86971
5182.6
4480.5