/*--------------------------------*- C++ -*----------------------------------*\
  =========                 |
  \\      /  F ield         | OpenFOAM: The Open Source CFD Toolbox
   \\    /   O peration     | Website:  https://openfoam.org
    \\  /    A nd           | Version:  8
     \\/     M anipulation  |
\*---------------------------------------------------------------------------*/
FoamFile
{
    version     2.0;
    format      ascii;
    class       volScalarField;
    location    "100";
    object      k;
}
// * * * * * * * * * * * * * * * * * * * * * * * * * * * * * * * * * * * * * //

dimensions      [0 2 -2 0 0 0 0];

internalField   nonuniform List<scalar> 
15677
(
0.991114
0.878328
0.495836
0.39873
0.380429
0.375727
0.374333
0.373845
0.373588
0.373435
0.373345
0.373296
0.37327
0.373257
0.373253
0.37325
0.373249
0.373247
0.373246
0.373246
0.373246
0.373246
0.373247
0.373248
0.373251
0.373255
0.37326
0.373267
0.373274
0.373281
0.373288
0.373293
0.373295
0.373296
0.373293
1.19161
0.83064
0.479791
0.386786
0.372595
0.370431
0.370006
0.369898
0.369957
0.370011
0.37002
0.369994
0.36996
0.369931
0.369913
0.369903
0.369898
0.369894
0.369891
0.369889
0.369887
0.369886
0.369885
0.369885
0.369886
0.369886
0.369887
0.369886
0.369883
0.369878
0.369872
0.369867
0.369863
0.369861
0.369863
1.13857
0.693047
0.414307
0.358534
0.355668
0.359187
0.362038
0.363996
0.365267
0.366064
0.366528
0.366757
0.366836
0.36684
0.36682
0.366803
0.366792
0.366785
0.36678
0.366777
0.366775
0.366774
0.366775
0.366777
0.366779
0.366778
0.366773
0.366763
0.366747
0.366729
0.366711
0.366696
0.366686
0.366685
0.366694
1.04268
0.659285
0.359183
0.317486
0.329865
0.3426
0.350921
0.356113
0.359363
0.361404
0.362663
0.363393
0.363762
0.363907
0.363933
0.363924
0.36391
0.363897
0.363888
0.363881
0.363876
0.363872
0.363868
0.36386
0.363845
0.36382
0.363787
0.363747
0.363705
0.363665
0.363632
0.363607
0.36359
0.363582
0.363581
0.97781
0.66826
0.358507
0.295986
0.309245
0.32693
0.339406
0.347575
0.352877
0.356321
0.358535
0.359909
0.360694
0.361077
0.361206
0.361232
0.361227
0.361215
0.361204
0.361195
0.361187
0.361178
0.361164
0.361144
0.361118
0.361089
0.361062
0.361043
0.361037
0.361044
0.361062
0.361084
0.361103
0.361111
0.361103
0.9366
0.692051
0.368809
0.283168
0.292416
0.312682
0.32826
0.338984
0.346208
0.351051
0.35427
0.356357
0.357633
0.358332
0.35862
0.358715
0.358733
0.358724
0.358707
0.35869
0.358673
0.358655
0.358633
0.35861
0.358589
0.358579
0.358589
0.358622
0.358679
0.358755
0.358836
0.35891
0.35896
0.358974
0.358944
0.910398
0.715524
0.391949
0.284137
0.281991
0.300835
0.318051
0.330695
0.339585
0.345743
0.349959
0.352782
0.354588
0.355648
0.356134
0.356327
0.35639
0.356398
0.356387
0.35637
0.356349
0.356327
0.356306
0.356295
0.356306
0.35635
0.356435
0.356564
0.356729
0.356915
0.3571
0.357262
0.357375
0.35742
0.357385
0.893139
0.733258
0.424267
0.289376
0.275504
0.291579
0.309229
0.323106
0.333293
0.340585
0.345718
0.349254
0.351596
0.353042
0.35376
0.354079
0.354204
0.354236
0.354228
0.354205
0.354178
0.354157
0.354151
0.354173
0.354238
0.354358
0.35454
0.354779
0.35506
0.355359
0.355645
0.355886
0.356053
0.356122
0.356076
0.880839
0.74339
0.456147
0.300396
0.272375
0.284326
0.301609
0.316245
0.327441
0.335698
0.341656
0.345857
0.348714
0.350541
0.351496
0.351951
0.352152
0.352224
0.352238
0.352227
0.352209
0.352198
0.352216
0.352282
0.352419
0.352639
0.352943
0.353321
0.353747
0.354186
0.354598
0.354944
0.355186
0.355295
0.355253
0.871291
0.747236
0.483733
0.315355
0.272811
0.27933
0.295367
0.310235
0.322125
0.331162
0.33784
0.342649
0.345995
0.348198
0.3494
0.350003
0.350287
0.350397
0.350419
0.350403
0.350383
0.350388
0.350449
0.350588
0.350824
0.351165
0.351606
0.352126
0.35269
0.353253
0.353767
0.354186
0.35447
0.354594
0.354545
0.864736
0.750004
0.507979
0.331835
0.27455
0.275795
0.290212
0.304984
0.317311
0.326955
0.334248
0.339609
0.343415
0.345979
0.347416
0.348162
0.348533
0.3487
0.348762
0.34878
0.348793
0.348838
0.34895
0.34916
0.349495
0.349963
0.350551
0.351225
0.351933
0.352622
0.353236
0.35373
0.354076
0.354239
0.354179
0.860785
0.751071
0.527532
0.347715
0.278044
0.273359
0.285936
0.300388
0.312984
0.323115
0.330942
0.336804
0.341044
0.343964
0.345658
0.346576
0.347052
0.347268
0.347343
0.347357
0.347369
0.34744
0.347621
0.347947
0.348428
0.349052
0.349791
0.3506
0.351439
0.352259
0.353038
0.353688
0.354144
0.354354
0.354307
0.859302
0.751187
0.543924
0.363415
0.282918
0.271977
0.282506
0.296442
0.309152
0.319657
0.327944
0.334264
0.338915
0.342174
0.344085
0.345131
0.345691
0.345974
0.346111
0.346186
0.346268
0.346424
0.346696
0.34711
0.347675
0.348397
0.34925
0.350258
0.35131
0.352322
0.353206
0.353917
0.354409
0.354644
0.354605
0.859809
0.751017
0.555975
0.377268
0.288117
0.271398
0.279778
0.293114
0.30583
0.316602
0.325266
0.33199
0.337017
0.340603
0.342788
0.344045
0.344745
0.345093
0.345247
0.34532
0.345403
0.345579
0.34591
0.346433
0.347204
0.348164
0.349262
0.350409
0.351566
0.352669
0.353643
0.354425
0.354965
0.355223
0.355187
0.861779
0.750965
0.565812
0.389709
0.29368
0.271512
0.277619
0.290243
0.302892
0.313897
0.322921
0.330037
0.335456
0.339405
0.341797
0.343145
0.343909
0.344349
0.344607
0.344783
0.34498
0.345296
0.345788
0.34647
0.34734
0.348401
0.349608
0.3509
0.352197
0.353423
0.354492
0.355334
0.355906
0.356171
0.356129
0.865928
0.750793
0.572076
0.399486
0.29882
0.271891
0.275981
0.287972
0.300568
0.311764
0.321085
0.328557
0.334304
0.338487
0.34118
0.342842
0.343838
0.344386
0.34469
0.344904
0.345143
0.345513
0.346072
0.346853
0.347863
0.349079
0.350459
0.351937
0.353394
0.354728
0.355864
0.356745
0.357331
0.357592
0.357534
0.872439
0.750891
0.577592
0.407955
0.303768
0.272727
0.274884
0.286223
0.298667
0.309997
0.319628
0.32742
0.333532
0.338273
0.341272
0.343053
0.344131
0.344762
0.345141
0.345422
0.345735
0.346196
0.346872
0.347805
0.349016
0.35047
0.352077
0.35372
0.3553
0.356721
0.357911
0.358815
0.3594
0.359643
0.359559
0.880935
0.750858
0.58014
0.413803
0.307692
0.273598
0.273937
0.28465
0.297105
0.308686
0.318607
0.326902
0.333575
0.338543
0.341757
0.343728
0.344949
0.345701
0.346185
0.346566
0.347
0.34762
0.348495
0.349673
0.351133
0.352806
0.354602
0.356405
0.358104
0.359604
0.360834
0.361747
0.362316
0.362528
0.362409
0.891474
0.750893
0.582291
0.418734
0.311239
0.274622
0.273433
0.283798
0.296167
0.307895
0.318362
0.327065
0.334007
0.339329
0.342856
0.345125
0.346587
0.34754
0.348198
0.348744
0.349345
0.350152
0.351247
0.352663
0.354369
0.356282
0.358286
0.360256
0.362073
0.363642
0.3649
0.365811
0.366352
0.366523
0.366362
0.90405
0.751089
0.582464
0.42166
0.314168
0.275894
0.273495
0.283331
0.295839
0.307956
0.318649
0.327688
0.335054
0.340921
0.344942
0.347543
0.349275
0.350453
0.351312
0.352051
0.352864
0.353918
0.35529
0.357003
0.359006
0.361196
0.363436
0.365585
0.367523
0.36916
0.370443
0.371347
0.371855
0.371982
0.371777
0.918591
0.751266
0.582131
0.423903
0.316422
0.277074
0.273803
0.283471
0.296058
0.308388
0.319458
0.329037
0.33707
0.343532
0.348042
0.351045
0.353117
0.354589
0.355717
0.356727
0.357836
0.359225
0.360962
0.363051
0.365422
0.367941
0.370451
0.372803
0.374875
0.376589
0.377903
0.378808
0.379289
0.379377
0.379135
0.93504
0.751552
0.581197
0.42437
0.318328
0.27832
0.274395
0.283881
0.29665
0.309385
0.321076
0.331343
0.340054
0.347198
0.352304
0.355807
0.358312
0.36017
0.361665
0.363049
0.364566
0.366409
0.368627
0.371202
0.37403
0.37695
0.379785
0.382378
0.384618
0.386438
0.387815
0.38875
0.389231
0.389303
0.389043
0.953263
0.751741
0.579218
0.424039
0.319166
0.279349
0.275188
0.284708
0.29783
0.311142
0.323524
0.334561
0.344088
0.352056
0.357894
0.362019
0.365077
0.367446
0.369442
0.371344
0.37343
0.375898
0.378761
0.381968
0.385379
0.388801
0.392042
0.394949
0.397421
0.399411
0.400912
0.401937
0.402473
0.402572
0.402328
0.973188
0.752151
0.577103
0.423081
0.319652
0.280232
0.276055
0.285821
0.299461
0.313487
0.326728
0.338716
0.349243
0.358222
0.364967
0.369878
0.373648
0.376692
0.379365
0.381975
0.384839
0.388149
0.391865
0.395892
0.400051
0.404119
0.407897
0.411239
0.414065
0.416348
0.41809
0.419314
0.42001
0.420212
0.420046
0.994634
0.752323
0.573417
0.420737
0.319366
0.280871
0.27706
0.287327
0.301639
0.316523
0.330781
0.343902
0.355627
0.365829
0.373691
0.379581
0.384259
0.388192
0.391769
0.39534
0.399262
0.403714
0.408574
0.41369
0.418839
0.423776
0.428302
0.432292
0.435685
0.438468
0.44065
0.442248
0.443264
0.443677
0.443675
1.01744
0.752639
0.570145
0.41867
0.318981
0.281654
0.278297
0.289144
0.304283
0.320217
0.335696
0.350164
0.363318
0.374995
0.384224
0.391332
0.397168
0.40226
0.407035
0.411893
0.417237
0.423211
0.429584
0.43614
0.442616
0.448759
0.454382
0.45938
0.463709
0.467357
0.470322
0.472601
0.474193
0.475078
0.475379
1.04152
0.752966
0.565884
0.414532
0.317949
0.282261
0.27963
0.29136
0.307561
0.324731
0.341611
0.357622
0.372429
0.385842
0.396706
0.405302
0.412602
0.419176
0.425511
0.432068
0.439304
0.447311
0.45572
0.464245
0.472592
0.480505
0.487813
0.494425
0.500288
0.505364
0.509612
0.512996
0.515488
0.51711
0.517889
1.06655
0.753515
0.562151
0.412087
0.31726
0.283329
0.281541
0.294279
0.311681
0.330225
0.348661
0.366397
0.383083
0.398505
0.411303
0.421713
0.430835
0.439293
0.447654
0.456448
0.4662
0.476933
0.488099
0.499342
0.510356
0.520899
0.530808
0.539967
0.548272
0.555614
0.561887
0.567009
0.570942
0.573722
0.575292
1.09271
0.75449
0.558087
0.407574
0.316608
0.28472
0.284089
0.298077
0.316817
0.336853
0.356968
0.376587
0.395359
0.41305
0.428094
0.440679
0.452019
0.462828
0.473759
0.485434
0.498466
0.51281
0.527734
0.542847
0.557847
0.572481
0.586531
0.599781
0.611997
0.62295
0.632443
0.640349
0.646632
0.651367
0.654367
1.11947
0.75601
0.555061
0.405602
0.317065
0.2874
0.287855
0.303105
0.323211
0.344804
0.366701
0.388355
0.409418
0.429643
0.447282
0.462448
0.476484
0.490221
0.504433
0.519872
0.537304
0.556659
0.576997
0.597875
0.618969
0.639949
0.66045
0.680049
0.698298
0.714789
0.729218
0.741428
0.751429
0.759397
0.764941
0.373291
0.37329
0.373289
0.373288
0.373287
0.373288
0.37329
0.373293
0.373297
0.373303
0.373309
0.373315
0.373321
0.373326
0.373331
0.373336
0.373342
0.373348
0.373355
0.373362
0.37337
0.373378
0.36988
0.369908
0.369934
0.369957
0.369978
0.369998
0.370017
0.370036
0.370056
0.370077
0.370101
0.370127
0.370156
0.370186
0.370216
0.370246
0.370275
0.370303
0.370329
0.370354
0.370376
0.370395
0.366734
0.366799
0.366864
0.366926
0.366985
0.36704
0.367089
0.367135
0.367176
0.367216
0.367254
0.367294
0.367336
0.367378
0.367421
0.367463
0.367505
0.367546
0.367584
0.36762
0.367652
0.36768
0.363611
0.363676
0.36375
0.363831
0.363918
0.364007
0.364098
0.364187
0.364275
0.364359
0.36444
0.364518
0.364591
0.364657
0.364719
0.364776
0.364829
0.36488
0.36493
0.364979
0.365029
0.36508
0.361098
0.36112
0.361158
0.361211
0.361278
0.361357
0.361443
0.361534
0.361626
0.361717
0.361803
0.361883
0.361953
0.362014
0.362069
0.362118
0.362166
0.362212
0.362259
0.36231
0.362364
0.362425
0.358877
0.358818
0.358777
0.35876
0.358767
0.358799
0.358855
0.35893
0.359021
0.359121
0.359225
0.359327
0.359419
0.359501
0.359574
0.35964
0.359702
0.359761
0.359821
0.359883
0.359949
0.360021
0.357267
0.357128
0.357002
0.356895
0.356811
0.356754
0.356725
0.356724
0.356746
0.35679
0.35685
0.35692
0.356994
0.357068
0.35714
0.357212
0.357283
0.357354
0.357425
0.357496
0.357566
0.357638
0.355905
0.355685
0.355474
0.355281
0.355114
0.35498
0.354881
0.354821
0.354798
0.35481
0.354854
0.354925
0.355017
0.35512
0.355229
0.355342
0.355453
0.355562
0.355663
0.355754
0.355833
0.355897
0.355041
0.354749
0.354454
0.354168
0.353902
0.353666
0.353466
0.35331
0.353201
0.353141
0.35313
0.353167
0.353245
0.353351
0.353474
0.353606
0.353741
0.353871
0.353993
0.3541
0.354188
0.354253
0.354298
0.353957
0.353613
0.353278
0.352961
0.352671
0.352416
0.352204
0.352039
0.351927
0.351873
0.35188
0.351946
0.352055
0.352192
0.352344
0.352502
0.352655
0.352796
0.352917
0.353011
0.353074
0.353846
0.353383
0.352944
0.352516
0.352119
0.351763
0.351455
0.351201
0.351006
0.350872
0.350802
0.350798
0.350857
0.350962
0.351098
0.351249
0.351407
0.351559
0.351697
0.351814
0.351902
0.351957
0.353947
0.353399
0.352815
0.352235
0.351676
0.35116
0.350722
0.350363
0.350082
0.349885
0.349776
0.349755
0.349814
0.349931
0.350086
0.350262
0.350442
0.350614
0.350765
0.350884
0.350962
0.35099
0.354228
0.353649
0.353039
0.352417
0.351799
0.351201
0.350636
0.350135
0.349717
0.349399
0.349194
0.349114
0.349157
0.349293
0.349491
0.349724
0.349968
0.350201
0.350401
0.350547
0.350619
0.350605
0.354781
0.354153
0.35349
0.352814
0.352142
0.351492
0.350887
0.350344
0.349883
0.349523
0.349282
0.349177
0.34921
0.34935
0.349562
0.349814
0.350076
0.350325
0.350536
0.350688
0.35076
0.350737
0.355683
0.35499
0.354265
0.35353
0.352799
0.352089
0.351422
0.350818
0.350299
0.349887
0.349603
0.349467
0.349481
0.349613
0.349823
0.350076
0.350342
0.350594
0.350805
0.350952
0.351015
0.350977
0.357031
0.356249
0.355441
0.354631
0.353832
0.35306
0.352332
0.35167
0.351092
0.350622
0.350284
0.350105
0.350085
0.35019
0.350382
0.350622
0.350877
0.351116
0.351315
0.351447
0.35149
0.351432
0.358975
0.358068
0.357145
0.356234
0.355345
0.35449
0.353685
0.352949
0.352303
0.351769
0.351371
0.351137
0.351068
0.351128
0.35128
0.351485
0.351706
0.351916
0.352085
0.352187
0.352201
0.352113
0.361716
0.360636
0.359553
0.358504
0.35749
0.356521
0.355611
0.354776
0.354037
0.353413
0.352931
0.352618
0.35248
0.35247
0.352555
0.3527
0.352868
0.353026
0.353148
0.353204
0.353173
0.353047
0.365525
0.364206
0.362903
0.361662
0.360476
0.359348
0.358291
0.357319
0.356448
0.355699
0.355096
0.354668
0.354426
0.354325
0.354315
0.354365
0.354447
0.354528
0.354574
0.354559
0.354464
0.354285
0.370755
0.369111
0.367508
0.366003
0.364577
0.363229
0.361966
0.360798
0.359741
0.358814
0.358038
0.357442
0.357041
0.356794
0.356652
0.356578
0.356539
0.356505
0.356445
0.356334
0.35615
0.355896
0.377874
0.37579
0.373778
0.371912
0.370155
0.368499
0.366946
0.365504
0.364185
0.363005
0.361984
0.361151
0.360527
0.360072
0.359738
0.359484
0.359276
0.359084
0.358879
0.358633
0.358325
0.35797
0.38748
0.384802
0.382239
0.379882
0.377672
0.37559
0.373635
0.371809
0.370122
0.368587
0.367224
0.36606
0.365123
0.364378
0.363775
0.36327
0.362829
0.362421
0.362016
0.361586
0.36111
0.360617
0.400379
0.396892
0.393586
0.390561
0.38773
0.385063
0.382551
0.380192
0.377994
0.375966
0.374125
0.372502
0.371133
0.369988
0.369013
0.368164
0.367405
0.366704
0.366029
0.365352
0.364652
0.363972
0.417613
0.413023
0.408713
0.404786
0.401109
0.39764
0.394361
0.391268
0.388364
0.385655
0.383157
0.380902
0.378939
0.377247
0.375766
0.374451
0.373263
0.372167
0.371132
0.370125
0.369126
0.368199
0.440618
0.434491
0.428814
0.423659
0.418831
0.414266
0.409938
0.405837
0.401961
0.398317
0.394916
0.391796
0.389025
0.386589
0.384425
0.382483
0.380719
0.379098
0.377584
0.376141
0.374748
0.373491
0.471436
0.463109
0.455525
0.44867
0.442258
0.436189
0.430422
0.42494
0.419735
0.41481
0.410176
0.405876
0.402007
0.398566
0.395482
0.392699
0.390169
0.38785
0.385703
0.383685
0.381774
0.380084
0.512795
0.501351
0.491107
0.481886
0.47327
0.465116
0.45736
0.449971
0.442936
0.436256
0.429936
0.424031
0.418672
0.413875
0.409556
0.40565
0.4021
0.398857
0.395876
0.393104
0.390515
0.388253
0.568642
0.552638
0.538604
0.526065
0.514392
0.503357
0.492856
0.482839
0.473285
0.464188
0.455552
0.447449
0.440063
0.43343
0.427449
0.422041
0.417135
0.412671
0.408592
0.404832
0.40136
0.398351
0.645724
0.622826
0.603013
0.585477
0.569304
0.554122
0.539739
0.526056
0.513021
0.500604
0.488799
0.477692
0.46754
0.458412
0.450185
0.442756
0.43604
0.429956
0.424431
0.419379
0.414754
0.410763
0.754212
0.721566
0.693056
0.667749
0.644544
0.622945
0.602672
0.583551
0.565469
0.548351
0.532146
0.51693
0.503023
0.490518
0.479254
0.469101
0.459947
0.451691
0.444235
0.437476
0.431345
0.426084
0.373384
0.373385
0.373385
0.373384
0.373382
0.373378
0.370402
0.370401
0.370402
0.370406
0.370411
0.370418
0.367688
0.367679
0.367671
0.367666
0.367662
0.367661
0.36511
0.365117
0.365122
0.365124
0.365123
0.36512
0.362464
0.362473
0.362478
0.36248
0.362479
0.362474
0.360067
0.360077
0.36008
0.360078
0.360071
0.360058
0.357676
0.357681
0.357688
0.357695
0.357704
0.357713
0.355912
0.355893
0.355879
0.355871
0.355868
0.35587
0.354261
0.35424
0.35423
0.354233
0.354248
0.354276
0.353072
0.353041
0.353026
0.353026
0.353038
0.353064
0.351947
0.351906
0.351882
0.351873
0.351882
0.351907
0.350947
0.350887
0.350855
0.350845
0.350858
0.350894
0.350491
0.350386
0.35033
0.350316
0.350345
0.350422
0.350618
0.350511
0.350452
0.350438
0.350468
0.350546
0.350845
0.350731
0.350672
0.350657
0.350689
0.350772
0.351284
0.351165
0.351105
0.351091
0.351124
0.351214
0.351946
0.351821
0.351761
0.351748
0.351782
0.35188
0.352857
0.352725
0.352667
0.352655
0.35269
0.352797
0.354064
0.353924
0.353868
0.353858
0.353892
0.35401
0.355634
0.355481
0.355429
0.355419
0.355453
0.355585
0.357651
0.357481
0.357432
0.357423
0.357455
0.357604
0.36022
0.360029
0.359984
0.359975
0.360002
0.360174
0.363471
0.36325
0.36321
0.363201
0.363223
0.363422
0.367559
0.367302
0.367268
0.367259
0.367272
0.367506
0.372667
0.372365
0.372339
0.372329
0.372332
0.372608
0.379021
0.378665
0.378651
0.378639
0.378627
0.378955
0.386873
0.386451
0.386451
0.386437
0.386409
0.3868
0.396567
0.396073
0.396093
0.396077
0.396025
0.396487
0.408437
0.407848
0.407889
0.407872
0.407795
0.408349
0.423085
0.422378
0.422438
0.422419
0.422322
0.422991
0.373371
0.373362
0.373353
0.373345
0.373338
0.373331
0.373326
0.373321
0.373316
0.373312
0.373307
0.373301
0.373295
0.373288
0.373282
0.373275
0.37327
0.373264
0.37326
0.373255
0.373252
0.373248
0.370415
0.370399
0.37038
0.370358
0.370333
0.370306
0.370277
0.370246
0.370215
0.370184
0.370153
0.370124
0.370098
0.370075
0.370056
0.370039
0.370023
0.370007
0.369991
0.369974
0.369955
0.369935
0.367645
0.367611
0.367574
0.367536
0.367497
0.367458
0.367417
0.367377
0.367337
0.367298
0.367258
0.367219
0.367179
0.36714
0.367097
0.367051
0.367001
0.366946
0.366886
0.366823
0.366757
0.366692
0.365092
0.365041
0.36499
0.364937
0.364882
0.364826
0.364767
0.364705
0.36464
0.364572
0.364501
0.364427
0.36435
0.364273
0.364193
0.364111
0.364028
0.363946
0.363867
0.363792
0.363724
0.363665
0.362439
0.362382
0.362331
0.362285
0.362243
0.362202
0.362159
0.362113
0.362062
0.362002
0.361932
0.361851
0.36176
0.361663
0.361563
0.361465
0.361371
0.361285
0.361211
0.361151
0.361107
0.361078
0.360008
0.35993
0.359856
0.359786
0.359718
0.359651
0.359584
0.359514
0.359441
0.359361
0.359275
0.359181
0.359084
0.358991
0.358909
0.358842
0.358795
0.358772
0.358772
0.358796
0.358841
0.358902
0.357685
0.357621
0.357557
0.357493
0.357426
0.357358
0.357287
0.357213
0.357136
0.357058
0.356978
0.356901
0.356833
0.356782
0.356753
0.356749
0.356772
0.356824
0.356903
0.357005
0.357126
0.357257
0.35584
0.355766
0.35568
0.355585
0.355484
0.35538
0.355274
0.355171
0.355071
0.354979
0.354897
0.354834
0.354798
0.354795
0.354829
0.354901
0.355011
0.355158
0.355337
0.355539
0.355756
0.355975
0.354274
0.354218
0.354137
0.354037
0.353921
0.353793
0.35366
0.353527
0.353403
0.353295
0.353215
0.353173
0.353183
0.353245
0.353357
0.353517
0.35372
0.353959
0.354224
0.354506
0.354793
0.35507
0.353059
0.352992
0.352895
0.352775
0.352639
0.352493
0.352346
0.352205
0.352079
0.351977
0.351911
0.351897
0.351943
0.352048
0.352207
0.352414
0.352666
0.352955
0.353275
0.353616
0.353967
0.354315
0.351906
0.351845
0.351756
0.351642
0.351509
0.351362
0.35121
0.351062
0.350928
0.350821
0.350754
0.350744
0.350804
0.350932
0.351128
0.351388
0.351709
0.352086
0.352506
0.352955
0.353442
0.353919
0.350915
0.35087
0.35078
0.350656
0.350502
0.35033
0.35015
0.349977
0.349825
0.349709
0.349648
0.349666
0.349778
0.349987
0.35029
0.350692
0.351192
0.35175
0.352343
0.352949
0.353521
0.354043
0.350516
0.350525
0.350453
0.350311
0.350118
0.349895
0.349663
0.349441
0.349254
0.349126
0.349085
0.349163
0.34938
0.349723
0.350175
0.350707
0.351285
0.351896
0.352526
0.353153
0.353759
0.354322
0.350645
0.35066
0.350586
0.35044
0.350241
0.350009
0.349764
0.349531
0.349336
0.349208
0.349177
0.349277
0.349524
0.3499
0.35038
0.350943
0.351568
0.352234
0.352919
0.353602
0.354264
0.354879
0.350884
0.350917
0.350857
0.350718
0.350523
0.350291
0.350046
0.349813
0.34962
0.349499
0.349485
0.349611
0.349895
0.350317
0.350852
0.351477
0.352165
0.352893
0.353638
0.354381
0.355103
0.355779
0.351344
0.351401
0.351363
0.351244
0.351064
0.350847
0.350616
0.350398
0.350225
0.350128
0.350145
0.350309
0.350643
0.351121
0.351712
0.352393
0.353139
0.353928
0.354739
0.355554
0.356358
0.357121
0.352031
0.352121
0.352116
0.352029
0.351881
0.351695
0.351498
0.351316
0.351181
0.351129
0.351192
0.351407
0.351799
0.352338
0.352996
0.353747
0.354568
0.355437
0.356336
0.35725
0.358168
0.359055
0.352973
0.353104
0.353146
0.353109
0.353009
0.352876
0.352733
0.352611
0.352542
0.352558
0.352687
0.352977
0.35345
0.354075
0.354824
0.35567
0.356593
0.357573
0.358595
0.359646
0.360722
0.361781
0.35422
0.354407
0.354516
0.35455
0.354528
0.354474
0.354417
0.354387
0.354411
0.354516
0.354745
0.355147
0.355739
0.356486
0.357362
0.358344
0.359411
0.360547
0.36174
0.362982
0.364276
0.365572
0.355838
0.356101
0.356301
0.356434
0.356517
0.356578
0.356642
0.356736
0.356891
0.35714
0.357524
0.35809
0.358852
0.359775
0.360834
0.362008
0.363279
0.364634
0.366065
0.367569
0.369163
0.37078
0.357916
0.358281
0.358606
0.358874
0.359105
0.359323
0.359556
0.35983
0.360176
0.360629
0.361233
0.362032
0.363037
0.364211
0.365531
0.366977
0.368536
0.370197
0.371957
0.37382
0.375819
0.377871
0.360563
0.361068
0.361561
0.362014
0.362445
0.36288
0.363346
0.36387
0.364484
0.365225
0.366136
0.367263
0.368612
0.37014
0.371826
0.373655
0.375615
0.3777
0.379911
0.382263
0.384808
0.387448
0.363916
0.364608
0.365327
0.366028
0.36673
0.367459
0.368243
0.36911
0.370094
0.371232
0.37257
0.374155
0.375983
0.378005
0.380204
0.382565
0.385081
0.387751
0.390581
0.393596
0.39688
0.400317
0.368138
0.369079
0.370099
0.371132
0.372195
0.373319
0.374532
0.375865
0.377353
0.379035
0.38096
0.383176
0.385667
0.388374
0.391281
0.394378
0.397661
0.401132
0.404804
0.408719
0.412998
0.417525
0.373425
0.374697
0.376114
0.377585
0.379129
0.38078
0.382569
0.384529
0.386698
0.389119
0.391847
0.394928
0.39833
0.401981
0.405864
0.409973
0.414307
0.418874
0.423696
0.428835
0.434475
0.440524
0.380012
0.381721
0.383659
0.385709
0.387889
0.39024
0.392798
0.395599
0.398686
0.402109
0.405926
0.410188
0.414838
0.419781
0.425004
0.430501
0.436279
0.442352
0.448761
0.4556
0.463144
0.471377
0.388175
0.390461
0.393084
0.395893
0.398913
0.402192
0.405772
0.409698
0.414019
0.418793
0.424091
0.429961
0.43632
0.443038
0.450107
0.457524
0.465303
0.47347
0.482088
0.491297
0.501501
0.512837
0.398269
0.401309
0.404824
0.40863
0.412756
0.417263
0.422204
0.427635
0.433619
0.440224
0.447538
0.455614
0.464321
0.473487
0.483101
0.493169
0.50371
0.514775
0.526468
0.539017
0.553038
0.56894
0.410677
0.414711
0.419393
0.424502
0.430087
0.436225
0.442986
0.450444
0.458676
0.467773
0.477839
0.488931
0.500857
0.513387
0.526524
0.540298
0.554763
0.570025
0.586278
0.603898
0.623764
0.646568
0.426
0.431319
0.437524
0.444361
0.451894
0.460223
0.469437
0.479629
0.490903
0.503373
0.517176
0.532396
0.548795
0.566103
0.584371
0.60368
0.624146
0.645947
0.66936
0.694858
0.723464
0.755916
0.373246
0.373246
0.373244
0.373241
0.373236
0.373231
0.373227
0.373225
0.373225
0.373227
0.37323
0.373234
0.373238
0.373241
0.373243
0.373244
0.373244
0.373244
0.373242
0.373239
0.373233
0.373226
0.37322
0.373229
0.373267
0.373356
0.373517
0.373792
0.374306
0.375707
0.380413
0.398716
0.495836
0.878481
0.991309
0.369923
0.369924
0.369926
0.369929
0.369932
0.369933
0.36993
0.369924
0.369916
0.369906
0.369897
0.36989
0.369886
0.369885
0.369885
0.369886
0.369888
0.36989
0.369894
0.369899
0.369911
0.369937
0.369983
0.37004
0.370088
0.370094
0.37004
0.369964
0.370031
0.37043
0.372581
0.386765
0.479785
0.830766
1.19167
0.366651
0.366642
0.366645
0.366657
0.366676
0.366699
0.366723
0.366744
0.36676
0.36677
0.366774
0.366774
0.366773
0.366772
0.366773
0.366775
0.366779
0.366784
0.366791
0.366805
0.366825
0.36685
0.366852
0.366775
0.366542
0.366067
0.365257
0.363971
0.362003
0.359156
0.355627
0.358486
0.414281
0.693116
1.13856
0.363638
0.363639
0.363646
0.363659
0.363679
0.363706
0.363738
0.363773
0.363805
0.363833
0.363852
0.363864
0.36387
0.363872
0.363875
0.36388
0.363888
0.363899
0.363914
0.363932
0.363946
0.363926
0.363786
0.363418
0.362685
0.361422
0.359375
0.356122
0.350928
0.342606
0.329863
0.317468
0.359171
0.659404
1.04263
0.361079
0.361086
0.36108
0.361064
0.361046
0.361032
0.36103
0.36104
0.361062
0.36109
0.36112
0.361145
0.361164
0.361177
0.361186
0.361194
0.361203
0.361215
0.361229
0.361236
0.361211
0.361081
0.360692
0.359896
0.358509
0.356281
0.352826
0.347514
0.339338
0.326859
0.309172
0.295926
0.358546
0.668392
0.977735
0.358969
0.359001
0.358985
0.358932
0.358856
0.358772
0.358695
0.358635
0.3586
0.358589
0.358597
0.358615
0.358636
0.358656
0.358673
0.35869
0.358708
0.358726
0.358736
0.358719
0.358623
0.358333
0.35763
0.356349
0.354258
0.351033
0.346184
0.338952
0.328218
0.312627
0.292353
0.283136
0.368862
0.692251
0.936551
0.35737
0.357405
0.357358
0.357243
0.357081
0.356897
0.356713
0.356552
0.356428
0.356346
0.356306
0.356297
0.356308
0.356328
0.35635
0.35637
0.356388
0.3564
0.356392
0.356331
0.356138
0.355653
0.354595
0.352792
0.349972
0.34576
0.339605
0.330716
0.318069
0.300844
0.281988
0.284127
0.392036
0.715615
0.910281
0.356145
0.35619
0.356115
0.355938
0.355685
0.355386
0.355076
0.354786
0.354541
0.354357
0.354236
0.354172
0.354151
0.354158
0.35418
0.354206
0.354229
0.354237
0.354206
0.354082
0.353763
0.353047
0.351601
0.34926
0.345723
0.340589
0.333296
0.323106
0.309225
0.29157
0.275495
0.289398
0.424273
0.733296
0.893014
0.355272
0.355315
0.355205
0.354962
0.354614
0.354198
0.353755
0.353324
0.352942
0.352635
0.352414
0.352279
0.352213
0.352197
0.352208
0.352226
0.352238
0.352225
0.352153
0.351954
0.3515
0.350547
0.34872
0.345862
0.341661
0.335702
0.327445
0.31625
0.301615
0.284336
0.272409
0.300565
0.456546
0.743721
0.880792
0.354572
0.354634
0.354514
0.354228
0.353805
0.353283
0.352711
0.352137
0.351609
0.351162
0.350818
0.350582
0.350445
0.350387
0.350383
0.350404
0.35042
0.350397
0.350287
0.350003
0.349399
0.348196
0.34599
0.34264
0.337826
0.331144
0.322104
0.310212
0.295346
0.279325
0.272847
0.315403
0.483864
0.747272
0.871178
0.354253
0.354318
0.354156
0.35381
0.353302
0.352672
0.351967
0.351245
0.350561
0.349965
0.349492
0.349154
0.348943
0.348832
0.348789
0.348778
0.348761
0.348699
0.348532
0.348159
0.347411
0.345971
0.343404
0.339595
0.334233
0.326941
0.317297
0.304972
0.290204
0.275802
0.274592
0.332064
0.508251
0.750103
0.864593
0.354385
0.354429
0.354207
0.353743
0.353093
0.352314
0.351488
0.350631
0.349803
0.349049
0.348417
0.347934
0.347612
0.347434
0.347366
0.347355
0.347341
0.347265
0.347048
0.346572
0.345655
0.343962
0.341045
0.336808
0.330947
0.32312
0.312988
0.300388
0.285929
0.273345
0.278021
0.347676
0.527529
0.751067
0.860606
0.354688
0.354727
0.354483
0.353979
0.353255
0.352358
0.351339
0.350283
0.34927
0.348408
0.34767
0.347093
0.346673
0.346404
0.346253
0.346175
0.346103
0.345968
0.345686
0.345126
0.344081
0.342169
0.338913
0.334265
0.327949
0.319667
0.309168
0.296464
0.282534
0.272027
0.283063
0.363686
0.544188
0.751257
0.859101
0.355274
0.355313
0.355049
0.354498
0.353701
0.35271
0.351594
0.350425
0.34927
0.348163
0.347195
0.346419
0.345894
0.345561
0.345387
0.345308
0.345236
0.345083
0.344734
0.344034
0.342778
0.340594
0.337007
0.331976
0.325247
0.316579
0.305806
0.293093
0.27977
0.271419
0.28817
0.377386
0.55611
0.751066
0.859597
0.356213
0.356259
0.355989
0.35541
0.354557
0.353473
0.352229
0.350914
0.349608
0.348392
0.347323
0.346446
0.345759
0.345266
0.34495
0.344757
0.344584
0.344329
0.343895
0.343132
0.341783
0.33939
0.335441
0.330022
0.322905
0.313876
0.302866
0.290212
0.277594
0.271526
0.29379
0.389938
0.566005
0.751009
0.861545
0.357612
0.357674
0.357411
0.356818
0.355929
0.35478
0.35343
0.351953
0.350457
0.349063
0.347837
0.34682
0.346036
0.345475
0.345107
0.344872
0.344662
0.34436
0.34381
0.342815
0.341154
0.338465
0.33428
0.328529
0.321058
0.311738
0.300544
0.28795
0.275965
0.271892
0.298853
0.399601
0.572217
0.750825
0.865654
0.359625
0.359715
0.359472
0.358883
0.357972
0.356772
0.355336
0.353738
0.352075
0.350448
0.34898
0.347761
0.346824
0.346148
0.345689
0.34538
0.345104
0.344728
0.344098
0.343021
0.34124
0.338238
0.333496
0.327381
0.319576
0.309936
0.298602
0.286161
0.274837
0.272728
0.303898
0.408228
0.577829
0.750936
0.872139
0.36246
0.362586
0.362376
0.361806
0.360889
0.359651
0.358139
0.356423
0.354599
0.352782
0.35109
0.349614
0.34843
0.347554
0.346938
0.346511
0.346136
0.345655
0.344906
0.343687
0.341717
0.338504
0.333535
0.326864
0.318576
0.308646
0.297046
0.284579
0.273868
0.273545
0.307727
0.413989
0.580318
0.750899
0.880603
0.366393
0.366563
0.366396
0.365857
0.364945
0.363682
0.362103
0.360271
0.358281
0.356254
0.354319
0.352596
0.351169
0.35007
0.349265
0.348668
0.348129
0.347476
0.346529
0.34507
0.342807
0.339283
0.333964
0.327029
0.318338
0.307887
0.296187
0.283816
0.273436
0.274684
0.311429
0.418987
0.58248
0.750922
0.891098
0.371785
0.371999
0.371878
0.371376
0.370474
0.36919
0.367545
0.365594
0.363425
0.361162
0.358948
0.356923
0.355197
0.353818
0.352764
0.351956
0.351223
0.350372
0.349201
0.347475
0.344879
0.340867
0.335009
0.327656
0.318633
0.307959
0.295858
0.283359
0.273524
0.275912
0.314147
0.421819
0.582664
0.751108
0.903639
0.379111
0.379363
0.379282
0.378811
0.37791
0.376599
0.374883
0.372801
0.370432
0.367898
0.365352
0.362957
0.360849
0.359103
0.357712
0.356608
0.355605
0.354485
0.353022
0.35096
0.347966
0.343469
0.337024
0.32901
0.319442
0.308391
0.296073
0.283498
0.273867
0.277267
0.316899
0.42432
0.58236
0.751323
0.918141
0.388983
0.389253
0.389189
0.388718
0.38779
0.386421
0.384603
0.382359
0.379751
0.376894
0.373946
0.37109