/*--------------------------------*- C++ -*----------------------------------*\
  =========                 |
  \\      /  F ield         | OpenFOAM: The Open Source CFD Toolbox
   \\    /   O peration     | Website:  https://openfoam.org
    \\  /    A nd           | Version:  8
     \\/     M anipulation  |
\*---------------------------------------------------------------------------*/
FoamFile
{
    version     2.0;
    format      ascii;
    class       volScalarField;
    location    "100";
    object      p;
}
// * * * * * * * * * * * * * * * * * * * * * * * * * * * * * * * * * * * * * //

dimensions      [0 2 -2 0 0 0 0];

internalField   nonuniform List<scalar> 
15677
(
67.9456
64.9308
64.9089
65.1345
65.0982
65.0365
64.9954
64.9573
64.9168
64.8749
64.832
64.7883
64.7445
64.7014
64.6634
64.6318
64.6047
64.5814
64.5613
64.544
64.529
64.5167
64.5069
64.4991
64.4929
64.4878
64.4836
64.4801
64.4773
64.4749
64.4728
64.4711
64.4696
64.4683
64.4672
65.0208
64.0625
64.5808
64.6342
64.5772
64.5762
64.583
64.5841
64.5833
64.582
64.5796
64.5755
64.569
64.5599
64.5494
64.5388
64.5283
64.5182
64.5086
64.4999
64.4919
64.485
64.4794
64.4749
64.4712
64.4682
64.4657
64.4636
64.4619
64.4604
64.4591
64.4581
64.4571
64.4563
64.4556
64.4837
64.2971
64.4988
64.4263
64.4127
64.4248
64.4273
64.4272
64.4277
64.4282
64.4286
64.4289
64.429
64.4286
64.4279
64.427
64.426
64.425
64.424
64.4232
64.4225
64.4221
64.4219
64.4219
64.4219
64.4221
64.4223
64.4226
64.4229
64.4231
64.4234
64.4236
64.4238
64.424
64.4242
64.3349
64.3169
64.358
64.3183
64.3308
64.3345
64.3326
64.3318
64.3315
64.3313
64.3314
64.332
64.3332
64.3351
64.3376
64.3405
64.3437
64.3473
64.3513
64.3555
64.3601
64.3648
64.3691
64.3731
64.3768
64.3801
64.383
64.3857
64.388
64.3901
64.392
64.3936
64.3951
64.3963
64.3974
64.1936
64.2003
64.2033
64.1954
64.2062
64.2065
64.2073
64.2092
64.2113
64.2138
64.2171
64.2214
64.2271
64.2343
64.2425
64.2509
64.2597
64.269
64.2787
64.2887
64.299
64.309
64.3182
64.3265
64.3339
64.3405
64.3464
64.3516
64.3562
64.3603
64.364
64.3672
64.3701
64.3726
64.3747
64.0741
64.0804
64.0797
64.0815
64.0865
64.0873
64.0895
64.0921
64.0949
64.0986
64.1035
64.1101
64.1188
64.1302
64.1433
64.1571
64.1717
64.1872
64.2033
64.2199
64.2368
64.2533
64.2684
64.2819
64.2939
64.3047
64.3142
64.3227
64.3302
64.3369
64.3428
64.3481
64.3528
64.3569
64.3605
63.9524
63.9563
63.9573
63.9604
63.9629
63.9648
63.9675
63.9702
63.9736
63.9782
63.9845
63.9931
64.0048
64.0204
64.0388
64.0584
64.0796
64.102
64.1255
64.1499
64.1749
64.1993
64.2215
64.2415
64.2594
64.2753
64.2894
64.302
64.3131
64.323
64.3318
64.3396
64.3466
64.3528
64.3582
63.8093
63.8119
63.8142
63.8169
63.8191
63.8219
63.8248
63.8282
63.8326
63.8386
63.847
63.8585
63.8742
63.8954
63.9207
63.9479
63.9773
64.0087
64.0417
64.076
64.1113
64.1457
64.1771
64.2054
64.2307
64.2532
64.2733
64.2911
64.3069
64.3209
64.3333
64.3444
64.3543
64.3631
64.3705
63.6383
63.6402
63.6429
63.6455
63.648
63.6513
63.6548
63.6592
63.6649
63.6729
63.6839
63.6991
63.7202
63.7486
63.7827
63.8196
63.8597
63.9026
63.9478
63.9949
64.0435
64.0909
64.1342
64.1733
64.2082
64.2394
64.2671
64.2917
64.3135
64.3328
64.3499
64.3651
64.3787
64.3907
64.4007
63.4319
63.4334
63.4362
63.4392
63.4422
63.446
63.4504
63.4559
63.4634
63.4738
63.4883
63.5084
63.5362
63.5738
63.6191
63.6683
63.722
63.7795
63.8402
63.9036
63.9692
64.0332
64.0919
64.1448
64.1921
64.2344
64.2719
64.3052
64.3348
64.3609
64.384
64.4044
64.4226
64.4385
64.4517
63.1825
63.1838
63.1865
63.19
63.1935
63.198
63.2034
63.2105
63.2202
63.2337
63.2526
63.2788
63.315
63.3641
63.4235
63.4881
63.5587
63.6345
63.7147
63.7987
63.8855
63.9706
64.0486
64.119
64.1821
64.2384
64.2885
64.3329
64.3722
64.407
64.4377
64.4648
64.4887
64.5097
64.5267
62.8826
62.8837
62.8863
62.8902
62.8944
62.8998
62.9064
62.9153
62.9276
62.9448
62.969
63.0027
63.0491
63.1124
63.1889
63.2724
63.3638
63.4622
63.5665
63.6758
63.7891
63.9002
64.0023
64.0945
64.1772
64.2511
64.3169
64.3752
64.4269
64.4725
64.5127
64.5482
64.5794
64.6068
64.6287
62.523
62.5237
62.5263
62.5307
62.5358
62.5422
62.5504
62.5615
62.5769
62.5987
62.6293
62.6719
62.7308
62.8109
62.9082
63.0145
63.1311
63.2567
63.3903
63.5304
63.6759
63.8189
63.9504
64.0694
64.1762
64.2718
64.3569
64.4324
64.4993
64.5585
64.6106
64.6565
64.6969
64.7322
64.7604
62.0961
62.0965
62.0991
62.104
62.11
62.1177
62.1276
62.1412
62.1604
62.1874
62.2255
62.2786
62.352
62.4522
62.5739
62.7071
62.8536
63.0118
63.1802
63.3573
63.5414
63.7226
63.8897
64.041
64.1771
64.299
64.4076
64.5041
64.5897
64.6653
64.7321
64.7909
64.8427
64.8881
64.924
61.5936
61.5938
61.5964
61.6019
61.6091
61.6183
61.6302
61.6467
61.67
61.7031
61.7498
61.815
61.9053
62.0285
62.1785
62.3431
62.5245
62.7207
62.93
63.1505
63.3803
63.6069
63.8161
64.006
64.1771
64.3306
64.4675
64.5893
64.6974
64.7931
64.8776
64.9521
65.018
65.0756
65.1211
61.0087
61.0087
61.0114
61.0175
61.0259
61.0368
61.051
61.0707
61.0987
61.1385
61.1949
61.2737
61.3829
61.5323
61.7146
61.915
62.1362
62.3762
62.6327
62.9035
63.1865
63.4661
63.7249
63.9603
64.1727
64.3634
64.5339
64.6858
64.8208
64.9404
65.0462
65.1397
65.2225
65.295
65.3521
60.336
60.3358
60.3385
60.3452
60.3549
60.3676
60.3842
60.4072
60.4402
60.4874
60.5542
60.648
60.7782
60.9565
61.1748
61.4153
61.6814
61.9708
62.281
62.6093
62.9531
63.2939
63.61
63.8981
64.1587
64.3931
64.603
64.7903
64.957
65.105
65.2361
65.3521
65.455
65.5454
65.6163
59.5699
59.5694
59.5721
59.5794
59.5905
59.605
59.6242
59.6507
59.6889
59.7438
59.8219
59.9318
60.0845
60.2944
60.5521
60.8367
61.1526
61.4969
61.867
62.2598
62.6725
63.0826
63.4642
63.8128
64.1288
64.4137
64.6694
64.8979
65.1016
65.2827
65.4435
65.586
65.7126
65.824
65.911
58.7069
58.706
58.7087
58.7167
58.7291
58.7455
58.7671
58.7971
58.8406
58.9034
58.9931
59.1198
59.2965
59.5402
59.84
60.1723
60.5421
60.9464
61.3823
61.8465
62.3357
62.8236
63.2789
63.6961
64.0753
64.4179
64.7259
65.0018
65.2482
65.4678
65.6629
65.8362
65.9906
66.1265
66.2321
57.7443
57.7431
57.7458
57.7543
57.768
57.7862
57.8101
57.8436
57.8922
57.9629
58.0644
58.2084
58.4099
58.6886
59.0327
59.4154
59.8426
60.3114
60.8184
61.3603
61.9334
62.5071
63.0444
63.5381
63.9882
64.396
64.7634
65.0933
65.3885
65.652
65.8866
66.0954
66.2818
66.4459
66.5726
56.6811
56.6795
56.6822
56.6913
56.7062
56.726
56.7521
56.7887
56.8422
56.9206
57.0338
57.195
57.4214
57.7356
58.1254
58.5602
59.0475
59.5841
60.1667
60.7916
61.4552
62.1223
62.7493
63.3276
63.8564
64.3368
64.7709
65.1615
65.5117
65.825
66.1045
66.3537
66.5768
66.7731
66.9235
55.5188
55.5168
55.5194
55.5288
55.5446
55.5659
55.5938
55.6331
55.691
55.7765
55.9007
56.0784
56.3292
56.6788
57.1143
57.6021
58.1507
58.7574
59.4186
60.1309
60.8905
61.6575
62.3815
63.0517
63.6667
64.2271
64.7349
65.193
65.6047
65.9738
66.3037
66.5985
66.8631
67.0958
67.2723
54.2592
54.2569
54.2594
54.2691
54.2858
54.3081
54.3375
54.379
54.4405
54.5322
54.6664
54.8595
55.1334
55.5171
55.9972
56.5372
57.1473
57.8247
58.5662
59.3685
60.2282
61.1005
61.9276
62.6964
63.4045
64.0519
64.6402
65.1724
65.652
66.0829
66.4689
66.8146
67.1257
67.399
67.6036
52.9072
52.9044
52.9067
52.9167
52.9339
52.9569
52.9871
53.03
53.0943
53.191
53.3337
53.5405
53.8354
54.2508
54.7732
55.3635
56.0334
56.7806
57.6022
58.4954
59.4575
60.4389
61.3739
62.2468
63.0539
63.7945
64.4697
65.0823
65.6357
66.1342
66.5817
66.9833
67.346
67.6638
67.8981
51.4681
51.4649
51.467
51.477
51.4945
51.5179
51.5483
51.5918
51.6577
51.7579
51.9073
52.1254
52.4386
52.8821
53.4431
54.0803
54.8068
55.6208
56.5204
57.5035
58.5682
59.6603
60.7062
61.6872
62.5982
63.4372
64.2048
64.9033
65.5361
66.1075
66.6216
67.084
67.5029
67.869
68.1334
49.9495
49.946
49.9478
49.9576
49.9751
49.9982
50.0281
50.0712
50.1373
50.2394
50.3932
50.6199
50.9477
51.4149
52.0096
52.6887
53.4667
54.3428
55.3162
56.3858
57.5508
58.753
59.9107
61.0021
62.02
62.9613
63.8254
64.6142
65.331
65.9798
66.5648
67.0922
67.5718
67.9892
68.2829
48.3598
48.3559
48.3573
48.3669
48.3841
48.4064
48.4351
48.4766
48.5415
48.6434
48.7993
49.0312
49.3693
49.8548
50.4771
51.1916
52.0144
52.9458
53.9866
55.1368
56.3973
57.7064
58.9742
60.1757
61.3016
62.3471
63.3106
64.193
64.9971
65.7269
66.3864
66.9824
67.5264
67.9973
68.3175
46.7087
46.7044
46.7055
46.7145
46.731
46.752
46.7786
46.8174
46.8794
46.9791
47.1341
47.3677
47.7113
48.2089
48.8515
49.5935
50.4527
51.4309
52.5304
53.7529
55.1012
56.5107
57.8842
59.193
60.4255
61.5749
62.6382
63.6154
64.5087
65.3216
66.058
66.7253
67.3367
67.8624
68.2038
45.0067
45.0021
45.0027
45.0111
45.0265
45.0456
45.0692
45.104
45.1615
45.2568
45.4081
45.6392
45.9832
46.4862
47.1409
47.9014
48.7872
49.8019
50.9493
52.2332
53.6587
55.1592
56.6306
58.0405
59.375
60.625
61.7862
62.8573
63.8399
64.7368
65.5512
66.2912
66.9723
67.5528
67.9067
43.2641
43.2592
43.2592
43.2667
43.2805
43.2968
43.3166
43.3462
43.3975
43.4862
43.6306
43.8553
44.1943
44.6955
45.353
46.1219
47.0233
48.0624
49.2448
50.5766
52.0654
53.6435
55.2009
56.7019
58.1299
59.4738
60.7275
61.8886
62.9575
63.9363
64.8275
65.6399
66.3917
67.0262
67.3828
64.466
64.4645
64.4631
64.4617
64.4604
64.4591
64.4579
64.4568
64.4558
64.4548
64.4538
64.453
64.4523
64.4516
64.4511
64.4506
64.4502
64.4499
64.4496
64.4494
64.4492
64.4491
64.4549
64.4541
64.4534
64.4526
64.4519
64.4512
64.4506
64.45
64.4494
64.4489
64.4484
64.448
64.4476
64.4472
64.4469
64.4467
64.4465
64.4464
64.4463
64.4462
64.4461
64.4461
64.4246
64.4253
64.4259
64.4266
64.4272
64.4278
64.4285
64.4291
64.4297
64.4303
64.4309
64.4314
64.4319
64.4324
64.4328
64.4332
64.4335
64.4338
64.4341
64.4344
64.4346
64.4348
64.399
64.4011
64.4031
64.4051
64.407
64.409
64.4108
64.4126
64.4144
64.416
64.4176
64.4191
64.4205
64.4217
64.4228
64.4237
64.4246
64.4253
64.4259
64.4264
64.4269
64.4273
64.3779
64.3814
64.385
64.3885
64.3919
64.3952
64.3984
64.4015
64.4045
64.4073
64.41
64.4125
64.4147
64.4167
64.4184
64.4199
64.4212
64.4222
64.4231
64.4239
64.4245
64.4249
64.3655
64.3707
64.376
64.3812
64.3863
64.3912
64.3959
64.4004
64.4047
64.4088
64.4126
64.4161
64.4192
64.4219
64.4242
64.4261
64.4277
64.4291
64.4301
64.4309
64.4315
64.432
64.3654
64.3726
64.38
64.3872
64.3942
64.4008
64.4073
64.4133
64.4191
64.4245
64.4294
64.4339
64.4379
64.4412
64.444
64.4463
64.4481
64.4495
64.4506
64.4513
64.4517
64.4518
64.3806
64.3902
64.4
64.4096
64.4188
64.4276
64.4359
64.4438
64.4512
64.458
64.4642
64.4698
64.4745
64.4784
64.4816
64.4841
64.4859
64.4872
64.4881
64.4885
64.4884
64.488
64.4143
64.4267
64.4394
64.4519
64.4638
64.4751
64.4857
64.4957
64.5049
64.5134
64.5209
64.5276
64.5331
64.5375
64.5409
64.5433
64.545
64.546
64.5463
64.546
64.5451
64.5438
64.4698
64.4854
64.5018
64.5177
64.5328
64.5471
64.5605
64.573
64.5843
64.5946
64.6036
64.6114
64.6177
64.6224
64.6258
64.6281
64.6292
64.6295
64.6289
64.6276
64.6255
64.6228
64.5504
64.57
64.5908
64.611
64.63
64.6479
64.6645
64.6798
64.6936
64.706
64.7167
64.7256
64.7325
64.7375
64.7407
64.7423
64.7427
64.7418
64.7399
64.7371
64.7332
64.7285
64.6596
64.6841
64.7103
64.7355
64.7593
64.7814
64.8019
64.8205
64.8372
64.8519
64.8643
64.8744
64.8819
64.8869
64.8896
64.8903
64.8893
64.8869
64.8831
64.8782
64.872
64.8647
64.8003
64.8308
64.8636
64.8952
64.9246
64.9519
64.9769
64.9995
65.0195
65.0368
65.0512
65.0624
65.0703
65.075
65.0768
65.0762
65.0734
65.0687
65.0625
65.0548
65.0455
65.0348
64.9754
65.013
65.0541
65.0933
65.1298
65.1633
65.1938
65.221
65.2449
65.2651
65.2816
65.294
65.3022
65.3062
65.3068
65.3042
65.2989
65.2914
65.2819
65.2707
65.2575
65.2424
65.1867
65.2332
65.2843
65.333
65.3779
65.419
65.4561
65.489
65.5174
65.5411
65.5599
65.5736
65.5818
65.5849
65.5836
65.5785
65.5701
65.5588
65.5453
65.5297
65.5115
65.4911
65.4354
65.4926
65.5561
65.6164
65.6716
65.7219
65.767
65.8067
65.8405
65.8684
65.89
65.905
65.9131
65.9149
65.9113
65.903
65.8906
65.8748
65.8562
65.8352
65.811
65.7841
65.7211
65.7914
65.8701
65.9445
66.0125
66.0741
66.129
66.1769
66.2174
66.2502
66.2751
66.2917
66.2997
66.2999
66.2935
66.2812
66.2641
66.2428
66.2181
66.1906
66.1592
66.1245
66.042
66.1283
66.2256
66.3173
66.4008
66.4762
66.5431
66.6012
66.6499
66.6889
66.7179
66.7365
66.7445
66.743
66.7331
66.7163
66.6935
66.6657
66.6338
66.5986
66.5588
66.5148
66.3947
66.5004
66.6204
66.7332
66.8358
66.9281
67.0097
67.0803
67.1391
67.1859
67.2202
67.2416
67.2499
67.2464
67.2329
67.2108
67.1815
67.1462
67.106
67.0618
67.0122
66.9574
66.7732
66.9026
67.0503
67.1888
67.3146
67.4276
67.5275
67.6135
67.6851
67.7417
67.7828
67.8079
67.8171
67.8118
67.7943
67.7665
67.7299
67.686
67.6363
67.5819
67.5211
67.4539
67.1696
67.3276
67.5092
67.6789
67.833
67.9715
68.0938
68.199
68.2864
68.3554
68.4054
68.4359
68.4467
68.4401
68.4186
68.3845
68.34
68.2866
68.2263
68.1604
68.087
68.0057
67.5727
67.7653
67.988
68.1958
68.3845
68.5542
68.7041
68.8331
68.9403
69.0251
69.0867
69.1245
69.1385
69.1312
69.1059
69.0654
69.0122
68.9486
68.8766
68.7979
68.7104
68.6134
67.9686
68.2029
68.4755
68.7294
68.9602
69.1681
69.3519
69.5104
69.6425
69.7473
69.8241
69.8719
69.8908
69.8841
69.8555
69.8087
69.7465
69.6718
69.5871
69.4945
69.3915
69.2771
68.3396
68.624
68.9567
69.2664
69.5485
69.803
70.0286
70.2236
70.3868
70.517
70.6134
70.6748
70.7013
70.6968
70.666
70.6131
70.5419
70.4556
70.3573
70.2497
70.1298
69.9963
68.6653
69.0088
69.414
69.7908
70.1349
70.4462
70.7228
70.9629
71.1649
71.3272
71.4489
71.5286
71.5662
71.5663
71.5348
71.4767
71.3966
71.2984
71.1859
71.0622
70.9243
70.7701
68.9214
69.3341
69.8256
70.2827
70.7014
71.0815
71.4206
71.7161
71.9662
72.169
72.3232
72.4271
72.4803
72.4885
72.4585
72.3965
72.3082
72.1982
72.071
71.9305
71.7734
71.597
69.0819
69.5742
70.1676
70.7198
71.2276
71.6903
72.1048
72.4681
72.7776
73.031
73.2266
73.3621
73.437
73.4576
73.4322
73.3686
73.2731
73.1517
73.0097
72.8519
72.6747
72.4748
69.117
69.699
70.4121
71.0761
71.6894
72.2506
72.7559
73.2013
73.5835
73.8997
74.1475
74.3241
74.4282
74.4669
74.4505
74.3881
74.2875
74.1558
73.9993
73.8239
73.6261
73.4016
68.9963
69.6773
70.5282
71.3224
72.059
72.7365
73.3498
73.8938
74.3643
74.7576
75.0706
75.2996
75.4422
75.5066
75.5049
75.4477
75.3448
75.2044
75.0343
74.8416
74.6227
74.3726
68.6806
69.4743
70.482
71.4266
72.3066
73.1206
73.8621
74.5243
75.1017
75.5893
75.9831
76.2781
76.4706
76.5696
76.5895
76.543
76.4415
76.2952
76.1132
75.9038
75.6643
75.3894
64.449
64.4489
64.4489
64.4489
64.449
64.4492
64.4461
64.446
64.446
64.4461
64.4462
64.4463
64.435
64.435
64.4351
64.4351
64.4352
64.4352
64.4275
64.4277
64.4279
64.4279
64.4279
64.4278
64.4253
64.4257
64.4259
64.426
64.4259
64.4256
64.4324
64.433
64.4333
64.4334
64.4332
64.4328
64.4523
64.4532
64.4536
64.4537
64.4534
64.4527
64.4883
64.4896
64.4902
64.4903
64.4898
64.4887
64.5438
64.5456
64.5465
64.5466
64.5459
64.5443
64.6223
64.6248
64.6259
64.626
64.6251
64.6228
64.7274
64.7307
64.7322
64.7323
64.731
64.728
64.8625
64.8669
64.8689
64.869
64.8673
64.8632
65.0314
65.0371
65.0395
65.0397
65.0375
65.0321
65.2374
65.2447
65.2478
65.2479
65.2452
65.2382
65.484
65.4933
65.4971
65.4973
65.4938
65.4849
65.7745
65.7861
65.7908
65.791
65.7867
65.7755
66.1117
66.1262
66.1319
66.1321
66.1268
66.1128
66.4984
66.5161
66.523
66.5232
66.5168
66.4996
66.9367
66.9583
66.9665
66.9668
66.9591
66.938
67.4283
67.4544
67.4641
67.4643
67.4553
67.4297
67.9745
68.0058
68.0171
68.0174
68.0067
67.976
68.5758
68.6132
68.6262
68.6266
68.6142
68.5774
69.2324
69.2767
69.2918
69.2922
69.2778
69.2342
69.9439
69.9961
70.0134
70.0138
69.9973
69.9458
70.7092
70.7704
70.7901
70.7905
70.7717
70.7112
71.5269
71.5983
71.6206
71.6211
71.5997
71.5292
72.3947
72.4776
72.5028
72.5034
72.4791
72.3972
73.311
73.4066
73.435
73.4356
73.4084
73.3137
74.2707
74.3805
74.4121
74.4127
74.3824
74.2737
75.2762
75.4001
75.4357
75.4364
75.4022
75.2796
64.4494
64.4496
64.4498
64.4501
64.4505
64.4509
64.4514
64.452
64.4526
64.4533
64.4542
64.4551
64.4561
64.4572
64.4584
64.4596
64.4609
64.4622
64.4636
64.465
64.4665
64.4681
64.4464
64.4465
64.4467
64.4468
64.447
64.4473
64.4475
64.4479
64.4482
64.4487
64.4492
64.4497
64.4503
64.4509
64.4516
64.4523
64.453
64.4538
64.4546
64.4554
64.4562
64.457
64.4352
64.435
64.4349
64.4347
64.4345
64.4343
64.4341
64.4338
64.4335
64.4331
64.4328
64.4323
64.4318
64.4313
64.4308
64.4303
64.4298
64.4292
64.4287
64.4281
64.4275
64.427
64.4276
64.4274
64.427
64.4266
64.4261
64.4255
64.4247
64.4239
64.423
64.4219
64.4206
64.4192
64.4177
64.4162
64.4145
64.4128
64.411
64.4092
64.4074
64.4055
64.4036
64.4017
64.4254
64.425
64.4245
64.4239
64.4231
64.4222
64.421
64.4197
64.4181
64.4163
64.4142
64.4118
64.4092
64.4065
64.4036
64.4006
64.3975
64.3943
64.391
64.3877
64.3843
64.3809
64.4325
64.4322
64.4317
64.431
64.4301
64.4289
64.4274
64.4256
64.4235
64.421
64.418
64.4147
64.411
64.407
64.4028
64.3984
64.3939
64.3891
64.3842
64.3792
64.374
64.369
64.4524
64.4524
64.4522
64.4516
64.4507
64.4494
64.4478
64.4456
64.443
64.4399
64.4361
64.4318
64.4269
64.4217
64.4161
64.4101
64.4038
64.3973
64.3905
64.3836
64.3764
64.3695
64.4886
64.4892
64.4895
64.4893
64.4886
64.4875
64.4858
64.4835
64.4805
64.4768
64.4723
64.4669
64.4608
64.4541
64.4469
64.4392
64.431
64.4224
64.4134
64.4041
64.3946
64.3853
64.5445
64.5461
64.5472
64.5476
64.5475
64.5467
64.5453
64.543
64.5398
64.5356
64.5304
64.524
64.5165
64.5082
64.4992
64.4894
64.4789
64.4678
64.4562
64.444
64.4316
64.4196
64.6235
64.6266
64.6289
64.6304
64.6312
64.6311
64.6302
64.6281
64.625
64.6205
64.6145
64.607
64.5981
64.588
64.5768
64.5645
64.5513
64.5373
64.5225
64.5069
64.4909
64.4757
64.7294
64.7344
64.7385
64.7416
64.7437
64.7448
64.7447
64.7432
64.7402
64.7356
64.729
64.7204
64.7099
64.6977
64.684
64.6689
64.6525
64.6349
64.6162
64.5964
64.5761
64.557
64.8656
64.8733
64.8798
64.885
64.8889
64.8916
64.8928
64.8923
64.8899
64.8853
64.8782
64.8684
64.8561
64.8417
64.8251
64.8067
64.7865
64.7646
64.7412
64.7164
64.6907
64.6668
65.0358
65.047
65.0566
65.0645
65.071
65.0759
65.079
65.0799
65.0783
65.074
65.0666
65.0557
65.0415
65.0244
65.0046
64.9822
64.9574
64.9304
64.9013
64.8702
64.838
64.8083
65.2436
65.2591
65.2727
65.2842
65.294
65.3018
65.3073
65.3101
65.3099
65.3062
65.2986
65.2866
65.2703
65.2502
65.2265
65.1994
65.1692
65.136
65.1
65.0612
65.0209
64.9841
65.4924
65.5134
65.532
65.5479
65.5618
65.5733
65.582
65.5874
65.589
65.5863
65.5786
65.5654
65.5468
65.5232
65.495
65.4623
65.4254
65.3846
65.3402
65.2921
65.2418
65.1963
65.7856
65.8132
65.8378
65.8593
65.8782
65.8943
65.9069
65.9156
65.9195
65.9181
65.9105
65.8961
65.8747
65.847
65.8132
65.7737
65.7288
65.6788
65.624
65.5645
65.502
65.4459
66.1261
66.1617
66.1936
66.2216
66.2467
66.2683
66.2857
66.2983
66.3051
66.3053
66.2978
66.2818
66.2571
66.2244
66.1839
66.1361
66.0814
66.0202
65.9527
65.8792
65.8016
65.7326
66.5166
66.5616
66.6021
66.6379
66.6702
66.6983
66.7214
66.7385
66.7486
66.7506
66.7433
66.7253
66.6964
66.6575
66.6088
66.5508
66.484
66.409
66.3261
66.2354
66.1395
66.0547
66.9594
67.0153
67.0657
67.1106
67.1512
67.1869
67.2165
67.2388
67.2527
67.2565
67.2489
67.2283
67.1941
67.1474
67.0885
67.0179
66.9364
66.8445
66.7427
66.631
66.5126
66.4088
67.4562
67.5247
67.5864
67.6416
67.6918
67.736
67.7729
67.801
67.8187
67.8244
67.816
67.7916
67.7506
67.694
67.6224
67.5363
67.4365
67.3239
67.1989
67.0617
66.9159
66.7888
68.0082
68.091
68.1655
68.2322
68.2931
68.3468
68.3917
68.426
68.4477
68.4548
68.4447
68.4152
68.3653
68.2962
68.2085
68.1032
67.981
67.8429
67.6897
67.5214
67.3421
67.1869
68.6161
68.7149
68.8037
68.8832
68.9559
69.0199
69.0734
69.114
69.1395
69.1473
69.1343
69.0975
69.0359
68.951
68.8434
68.7141
68.5643
68.395
68.2073
68.0012
67.7811
67.5917
69.2801
69.3965
69.5009
69.5946
69.68
69.7551
69.8175
69.8645
69.8933
69.9006
69.8827
69.836
69.7593
69.6541
69.5215
69.3626
69.1787
68.9712
68.7414
68.4895
68.22
67.9894
69.9996
70.1354
70.2569
70.3657
70.4647
70.5515
70.6229
70.6759
70.707
70.7121
70.6868
70.6267
70.5302
70.3994
70.2355
70.0398
69.814
69.5599
69.279
68.9715
68.6424
68.3625
70.7738
70.9306
71.0703
71.1952
71.3086
71.4073
71.4876
71.5458
71.5776
71.5781
71.542
71.4637
71.3417
71.1785
70.9756
70.7345
70.4574
70.1464
69.8036
69.4294
69.0285
68.6901
71.6011
71.7804
71.9395
72.0814
72.2096
72.3201
72.4087
72.4707
72.5009
72.4936
72.442
72.3397
72.1849
71.9809
71.7294
71.4325
71.0927
70.7128
70.2954
69.8414
69.3549
68.9483
72.4792
72.6826
72.8619
73.0214
73.1644
73.2864
73.382
73.4457
73.4713
73.4516
73.3787
73.2449
73.0484
72.7932
72.4817
72.1166
71.701
71.2384
70.7322
70.1835
69.5959
69.1108
73.4065
73.6348
73.8351
74.0123
74.1699
74.3021
74.4029
74.4654
74.482
74.4442
74.3425
74.1678
73.9184
73.5998
73.2149
72.7672
72.2604
71.6992
71.0877
70.4276
69.7214
69.1479
74.3781
74.6325
74.854
75.0487
75.22
75.3609
75.4639
75.521
75.5229
75.4596
75.3198
75.0929
74.7776
74.3811
73.9071
73.3601
72.7449
72.0672
71.3326
70.5431
69.7003
69.0292
75.3954
75.6751
75.9176
76.1291
76.3123
76.4591
76.5605
76.6068
76.5871
76.4893
76.3001
76.0073
75.6103
75.1184
74.5366
73.8706
73.1268
72.3125
71.435
70.4959
69.4976
68.715
64.4694
64.4705
64.4718
64.4734
64.4751
64.4772
64.4797
64.4827
64.4862
64.4905
64.4957
64.502
64.5099
64.5198
64.5323
64.5474
64.5648
64.585
64.6085
64.6357
64.6674
64.7055
64.7486
64.7924
64.8362
64.8792
64.9211
64.9616
64.9997
65.0408
65.1025
65.1388
64.9131
64.9352
67.95
64.4578
64.4586
64.4594
64.4604
64.4615
64.4628
64.4644
64.4662
64.4684
64.471
64.4741
64.4779
64.4825
64.4883
64.4953
64.5034
64.5123
64.5219
64.5322
64.5428
64.5535
64.5641
64.5732
64.5797
64.5839
64.5863
64.5876
64.5885
64.5874
64.5806
64.5816
64.6386
64.5851
64.0669
65.0251
64.4266
64.4265
64.4264
64.4262
64.426
64.4259
64.4257
64.4255
64.4254
64.4252
64.4252
64.4252
64.4254
64.4258
64.4263
64.4271
64.428
64.4291
64.4303
64.4314
64.4324
64.4332
64.4336
64.4336
64.4334
64.433
64.4325
64.4321
64.4322
64.4297
64.4176
64.4313
64.5037
64.3021
64.4886
64.4001
64.3991
64.398
64.3966
64.3951
64.3933
64.3913
64.3891
64.3865
64.3837
64.3805
64.377
64.3731
64.3689
64.3644
64.36
64.3558
64.352
64.3485
64.3454
64.3426
64.3402
64.3384
64.3372
64.3367
64.3366
64.3368
64.3371
64.3379
64.3398
64.3361
64.3237
64.3633
64.3223
64.3402
64.3779
64.3759
64.3735
64.3708
64.3677
64.3641
64.3602
64.3556
64.3505
64.3448
64.3383
64.331
64.3229
64.3139
64.304
64.2939
64.284
64.2744
64.2652
64.2565
64.2481
64.2401
64.233
64.2273
64.223
64.2197
64.2172
64.2152
64.2133
64.2124
64.2122
64.2014
64.2093
64.2063
64.1996
64.3643
64.3609
64.3569
64.3523
64.3472
64.3415
64.3349
64.3275
64.3192
64.3098
64.2992
64.2872
64.2739
64.259
64.2426
64.2258
64.2093
64.1933
64.178
64.1634
64.1497
64.1367
64.1255
64.1168
64.1103
64.1054
64.1017
64.0989
64.0964
64.0941
64.0933
64.0884
64.0865
64.0872
64.081
64.3625
64.3574
64.3514
64.3446
64.3369
64.3283
64.3186
64.3076
64.2952
64.2812
64.2654
64.2477
64.2279
64.2058
64.1816
64.1567
64.1324
64.109
64.0867
64.0657
64.0461
64.0278
64.0123
64.0007
63.9921
63.9858
63.9812
63.9778
63.9751
63.9725
63.9705
63.968
63.965
63.9639
63.96
64.3756
64.3684
64.3598
64.3501
64.3393
64.327
64.3132
64.2975
64.2799
64.26
64.2376
64.2125
64.1843
64.153
64.1188
64.0836
64.0494
64.0166
63.9853
63.956
63.9289
63.9038
63.8827
63.867
63.8555
63.8472
63.8412
63.8368
63.8334
63.8304
63.8277
63.8255
63.8228
63.8205
63.8179
64.4064
64.3966
64.3849
64.3715
64.3566
64.3396
64.3205
64.2989
64.2745
64.2469
64.2159
64.1812
64.1423
64.0991
64.0518
64.0034
63.9565
63.9114
63.8687
63.8287
63.7919
63.7579
63.7296
63.7086
63.6934
63.6824
63.6744
63.6687
63.6643
63.6608
63.6575
63.655
63.6524
63.6497
63.6478
64.458
64.4451
64.4293
64.4114
64.3912
64.3683
64.3424
64.3131
64.28
64.2426
64.2006
64.1534
64.1007
64.0423
63.9785
63.9132
63.8499
63.7894
63.7321
63.6786
63.6295
63.5843
63.5467
63.5191
63.499
63.4845
63.4741
63.4666
63.461
63.4567
63.4529
63.4498
63.4469
63.4441
63.4426
64.5337
64.5169
64.4961
64.4724
64.4455
64.4151
64.3805
64.3414
64.2972
64.2473
64.1913
64.1284
64.0583
63.9805
63.8958
63.8092
63.7255
63.6455
63.5699
63.4995
63.4351
63.3759
63.3269
63.2908
63.2646
63.2458
63.2323
63.2226
63.2156
63.2101
63.2057
63.2021
63.1987
63.1959
63.1946
64.6364
64.6146
64.5875
64.5564
64.5212
64.4812
64.4358
64.3844
64.3263
64.2608
64.1872
64.1048
64.0129
63.9112
63.8004
63.6875
63.5785
63.4744
63.3763
63.2852
63.2019
63.1255
63.0624
63.0161
62.9825
62.9583
62.9411
62.9288
62.9199
62.9133
62.9079
62.9037
62.8998
62.8971
62.8961
64.7688
64.7408
64.7057
64.6654
64.6197
64.5679
64.509
64.4424
64.3671
64.2824
64.1871
64.0806
63.962
63.8309
63.6884
63.5433
63.4035
63.2703
63.145
63.0287
62.9226
62.8256
62.7456
62.6869
62.6444
62.6139
62.5922
62.5768
62.5657
62.5576
62.5512
62.5461
62.5417
62.5392
62.5384
64.9333
64.8975
64.8523
64.8007
64.7421
64.6756
64.6002
64.515
64.4188
64.3105
64.1891
64.0533
63.9025
63.7359
63.5552
63.3715
63.1949
63.0269
62.8691
62.723
62.59
62.4686
62.3686
62.2954
62.2423
62.2043
62.1773
62.1582
62.1447
62.1347
62.1271
62.121
62.1161
62.1135
62.1131
65.1314
65.086
65.0285
64.9629
64.8886
64.8044
64.709
64.6013
64.4798
64.3433
64.1903
64.0197
63.8303
63.6216
63.3955
63.1663
62.9463
62.7375
62.5417
62.3607
62.1965
62.0467
61.9237
61.8337
61.7685
61.7219
61.6889
61.6656
61.6491
61.6372
61.628
61.6208
61.6153
61.6127
61.6125
65.3635
65.3065
65.2342
65.1517
65.0584
64.9529
64.8336
64.699
64.5475
64.3775
64.1872
63.9753
63.7406
63.4824
63.2033
62.921
62.6507
62.3947
62.1553
61.9345
61.7345
61.5526
61.4035
61.2945
61.2158
61.1595
61.1198
61.0918
61.0722
61.058
61.0472
61.0388
61.0327
61.03
61.03
65.6289
65.5581
65.468
65.3654
65.2496
65.1188
64.9712
64.805
64.6181
64.4087
64.1748
63.9148
63.6273
63.3119
62.9718
62.6286
62.3009
61.9914
61.7025
61.4369
61.1968
60.9789
60.8009
60.6709
60.5773
60.5105
60.4634
60.4305
60.4075
60.3909
60.3783
60.3686
60.3619
60.3592
60.3595
65.925
65.8382
65.727
65.6006
65.4584
65.298
65.1173
64.9141
64.6861
64.431
64.1466
63.8312
63.4833
63.1024
62.693
62.2811
61.889
61.5196
61.1758
60.8605
60.5763
60.3191
60.1095
59.957
59.8473
59.7693
59.7145
59.6764
59.6499
59.6308
59.6163
59.6053
59.5979
59.5953
59.5958
66.2477
66.1422
66.0066
65.8525
65.6795
65.4848
65.2657
65.0197
64.7444
64.4369
64.0949
63.7164
63.3
62.8454
62.3583
61.87
61.4065
60.9713
60.5676
60.1984
59.8667
59.5672
59.3239
59.1475
59.021
58.9314
58.8686
58.8252
58.7952
58.7736
58.7572
58.7448
58.7369
58.7342
58.735
66.59
66.4634
66.2996
66.1135
65.905
65.6708
65.4078
65.1131
64.7838
64.417
64.0099
63.5605
63.0675
62.5311
61.9582
61.386
60.845
60.3386
59.8706
59.444
59.0619
58.7182
58.4399
58.2387
58.0949
57.9934
57.9228
57.8742
57.8408
57.8168
57.7987
57.785
57.7764
57.7737
57.7749
66.9429
66.7926
66.5965
66.3738
66.1249
65.8458
65.533
65.1833
64.7933
64.3599
63.8802
63.3521
62.7747
62.1486
61.4824
60.8197
60.1957
59.6139
59.0781
58.5915
58.1573
57.768
57.4542
57.2281
57.0671
56.954
56.8757
56.8222
56.7856
56.7595
56.7397
56.7248
56.7158
56.7131
56.7147
67.2939
67.1175
66.885
66.6208
66.3263
65.9968
65.6282
65.217
64.7595
64.2524
63.6928
63.0785
62.4092
61.6861
60.9201
60.1615
59.4502
58.7898
58.184
57.6361
57.1491
56.7142
56.365
56.1145
55.937
55.8129
55.7275
55.6696
55.6303
55.6024
55.5812
55.5653
55.5559
55.5533
55.5553
67.6275
67.423
67.15
66.8391
66.4939
66.1082
65.6778
65.1988
64.6672
64.0795
63.4329
62.7256
61.9577
61.1316
60.2603
59.4016
58.6005
57.8599
57.1834
56.5742
56.0349
55.5554
55.1723
54.8987
54.7058
54.5718
54.4802
54.4187
54.3772
54.3479
54.3256
54.3089
54.2991
54.2967
54.299
67.9246
67.6903
67.3727
67.0104
66.6091
66.1619
65.664
65.111
64.4991
63.8245
63.0847
62.2783
61.4064
60.4724
59.4922
58.5312
57.6392
56.8187
56.0725
55.4035
54.8141
54.2924
53.8776
53.583
53.3765
53.234
53.1374
53.0731
53.0302
53
52.977
52.9598
52.9499
52.9476
52.9503
68.1625
67.8981
67.5322
67.1136
66.6515
66.1378
65.5668
64.9345
64.2366
63.4697
62.6314
61.7212
60.7411
59.6963
58.6054
57.542
56.5602
55.6619
54.849
54.1235
53.4873
52.9271
52.4842
52.1715
51.9536
51.8044
51.7043
51.6385
51.595
51.5646
51.5413
51.5238
51.5138
51.5118
51.5149
68.3147
68.021
67.6038
67.1245
66.5973
66.0126
65.3642
64.6479
63.8596
62.996
62.0555
61.0383
59.948
58.7914
57.5905
56.427
55.3588
54.3869
53.5121
52.7352
52.0572
51.4634
50.9969
50.6697
50.4433
50.2897
50.1878
50.1217
50.0787
50.0488
50.0257
50.0082
49.9984
49.9966
50.0002
68.3522
68.0319
67.5611
67.0174
66.4215
65.7622
65.0327
64.229
63.347
62.3841
61.3393
60.2142
59.0137
57.7471
56.4396
55.1808
54.0321
52.993
52.0631
51.2416
50.5283
49.9071
49.4224
49.0848
48.8533
48.6977
48.596
48.5312
48.4897
48.4611
48.4387
48.4216
48.4121
48.4106
48.4145
68.2413
67.8998
67.3741
66.7628
66.0956
65.3593
64.5465
63.6534
62.6766
61.6138
60.4651
59.2335
57.9259
56.5538
55.146
53.7996
52.579
51.4813
50.5048
49.6472
48.9065
48.2651
47.7684
47.4254
47.1924
47.0376
46.9381
46.8763
46.8376
46.8111
46.79
46.7735
46.7645
46.7635
46.7677
67.9468
67.5926
67.0119
66.3307
65.5905
64.776
63.8791
62.8967
61.8259
60.6654
59.4161
58.0828
56.6742
55.2045
53.7061
52.2828
51.0011
49.8558
48.843
47.9589
47.1999
46.5466
46.0446
45.7013
45.4707
45.3198
45.2248
45.1675
45.1327
45.1092
45.0902
45.0748
45.0664
45.0658
45.0704
67.4253
67.068
66.433
65.6807
64.8677
63.9761
62.9971
61.9283
60.7677
59.5149
58.1721
56.7456
55.2463
53.691
52.1155
50.6293
49.3
48.12
47.0831
46.1836
45.4164
44.7603
44.2602
43.922
43.6978
43.5538
43.4655
43.4144
43.3849
43.3653
43.3491
43.3354
43.3281
43.3281
43.333
41.295
41.2901
41.2895
41.296
41.308
41.3209
41.3356
41.3583
41.401
41.4796
41.613
41.8259
42.1535
42.6444
43.2951
44.0623
44.9685
46.0206
47.2262
48.5943
50.1356
51.7824
53.4194
55.007
56.5257
57.9621
59.3082
60.5602
61.7173
62.7805
63.7515
64.6404
65.4671
66.1553
66.5108
39.0894
39.084
39.0826
39.0878
39.0971
39.1051
39.1126
39.1256
39.1561
39.2204
39.3371
39.5312
39.8387
40.3075
40.9368
41.6867
42.5803
43.6261
44.8345
46.2172
47.7883
49.4809
51.1761
52.8308
54.4235
55.9397
57.3701
58.7093
59.9549
61.106
62.1626
63.1358
64.0485
64.8005
65.1444
36.876
36.8702
36.8675
36.8706
36.8764
36.8786
36.8775
36.879
36.8949
36.9414
37.0369
37.2067
37.4857
37.9204
38.5133
39.2283
40.0883
41.1036
42.2866
43.6517
45.2153
46.9133
48.6268
50.3127
51.9504
53.5247
55.0244
56.4409
57.7688
59.0046
60.1455
61.2029
62.2032
63.0202
63.3495
34.683
34.6768
34.673
34.6738
34.6757
34.6716
34.6612
34.65
34.6495
34.6756
34.7463