/*--------------------------------*- C++ -*----------------------------------*\
  =========                 |
  \\      /  F ield         | OpenFOAM: The Open Source CFD Toolbox
   \\    /   O peration     | Website:  https://openfoam.org
    \\  /    A nd           | Version:  8
     \\/     M anipulation  |
\*---------------------------------------------------------------------------*/
FoamFile
{
    version     2.0;
    format      ascii;
    class       volScalarField;
    location    "0.19";
    object      p;
}
// * * * * * * * * * * * * * * * * * * * * * * * * * * * * * * * * * * * * * //

dimensions      [1 -1 -2 0 0 0 0];

internalField   nonuniform List<scalar> 
15677
(
118935
118932
118930
118929
118928
118928
118928
118927
118925
118920
118914
118897
118832
118711
118591
118478
118372
118283
118215
118154
118100
118056
118033
118026
118025
118024
118021
118015
118010
118004
117997
117991
117985
117980
117979
88022
87955
87847
87724.3
87610.3
87510.9
87427.6
87353.8
87303
87308.1
87392
87608.7
88008.6
88554.8
88973.7
89205.4
89310.9
89282.7
89117.5
88861.7
88557.6
88267
88025
87839.1
87714.1
87616
87547.2
87494.4
87451.1
87417.9
87393.4
87375.9
87363.7
87353.8
87345.3
107237
107259
107258
107213
107129
107012
106857
106657
106410
106161
106007
105970
106106
106423
106802
107106
107320
107473
107632
107791
107951
108111
108270
108400
108498
108618
108756
108888
109017
109144
109264
109374
109475
109568
109652
98044.3
98054.8
98051.5
98030.6
97989.8
97931.4
97853.3
97747.9
97616.9
97477.4
97342.9
97231
97102.4
96963.4
96830.7
96692.1
96523
96348.5
96173.8
96002.7
95852.7
95749
95691
95643.2
95600.2
95555.9
95505.2
95459.7
95418
95378.8
95343.4
95312.4
95285.3
95260.3
95240.4
104306
104299
104294
104292
104291
104290
104284
104276
104268
104260
104254
104243
104228
104212
104204
104206
104223
104257
104308
104374
104464
104566
104651
104733
104807
104868
104922
104970
105015
105056
105093
105125
105155
105181
105203
99042.1
99028.4
99012.7
98999.4
98990.7
98986.7
98992.1
99013.7
99044.4
99080
99108.1
99125.5
99129.9
99116.8
99088.4
99053
99009.2
98960.4
98911.2
98866.6
98827.4
98810
98801
98797.6
98789.5
98779.4
98768.1
98756.1
98744
98732.3
98721.6
98712.1
98703.2
98694.1
98690
102634
102639
102640
102638
102630
102620
102614
102608
102610
102617
102620
102612
102604
102606
102618
102634
102656
102683
102717
102759
102810
102841
102857
102870
102882
102896
102912
102928
102944
102959
102972
102985
102996
103007
103013
100544
100545
100543
100540
100536
100534
100530
100526
100521
100510
100498
100486
100474
100463
100447
100425
100400
100375
100351
100325
100305
100298
100296
100292
100287
100282
100276
100271
100266
100261
100256
100252
100249
100245
100245
101999
101998
101997
101997
101998
102000
102002
102004
102006
102006
102005
102000
101992
101983
101981
101983
101990
102000
102014
102035
102047
102048
102052
102058
102063
102068
102072
102078
102083
102088
102094
102098
102102
102106
102108
100989
100988
100988
100987
100986
100984
100983
100982
100981
100980
100979
100979
100978
100975
100970
100964
100957
100948
100939
100933
100932
100937
100937
100937
100935
100934
100932
100929
100927
100925
100923
100922
100920
100919
100919
101695
101694
101693
101692
101692
101691
101690
101689
101688
101686
101684
101682
101679
101676
101677
101678
101681
101688
101693
101692
101690
101689
101690
101691
101693
101695
101698
101700
101702
101705
101707
101708
101710
101712
101713
101230
101229
101228
101227
101226
101225
101224
101223
101223
101222
101223
101223
101223
101222
101220
101218
101215
101213
101214
101218
101221
101224
101225
101225
101225
101223
101222
101221
101220
101219
101218
101217
101216
101216
101217
101556
101556
101556
101555
101555
101554
101553
101552
101551
101549
101546
101544
101541
101539
101538
101538
101540
101537
101533
101530
101527
101526
101526
101527
101528
101530
101531
101533
101534
101535
101536
101537
101538
101539
101539
101337
101336
101335
101334
101334
101333
101332
101332
101332
101332
101333
101334
101334
101334
101334
101334
101335
101340
101343
101346
101348
101350
101350
101350
101350
101349
101348
101347
101347
101346
101346
101345
101345
101345
101346
101495
101495
101495
101495
101495
101494
101493
101492
101491
101489
101487
101484
101482
101480
101477
101474
101471
101468
101465
101463
101462
101461
101461
101461
101462
101463
101464
101465
101466
101466
101466
101467
101467
101467
101468
101385
101385
101384
101383
101383
101382
101382
101382
101382
101383
101383
101384
101385
101386
101389
101391
101393
101396
101398
101399
101400
101401
101401
101401
101401
101401
101400
101400
101399
101399
101399
101399
101399
101399
101399
101468
101468
101468
101467
101467
101467
101466
101465
101464
101462
101460
101458
101455
101451
101448
101446
101443
101442
101440
101439
101438
101438
101438
101438
101439
101439
101440
101440
101441
101441
101441
101442
101442
101442
101442
101409
101408
101408
101407
101407
101407
101406
101407
101407
101408
101409
101410
101412
101413
101415
101416
101417
101419
101419
101420
101421
101421
101421
101421
101421
101421
101421
101420
101420
101420
101420
101420
101420
101420
101421
101453
101453
101453
101453
101453
101452
101452
101451
101449
101448
101446
101444
101442
101439
101437
101436
101435
101434
101433
101433
101432
101432
101432
101432
101433
101433
101433
101434
101434
101434
101434
101434
101434
101434
101435
101424
101423
101423
101423
101423
101422
101422
101423
101423
101423
101424
101424
101425
101426
101426
101427
101427
101428
101428
101428
101428
101429
101429
101429
101429
101429
101429
101429
101429
101429
101429
101429
101429
101429
101429
101445
101445
101445
101445
101444
101444
101443
101443
101442
101441
101439
101438
101437
101436
101435
101434
101433
101433
101432
101432
101432
101432
101432
101432
101432
101432
101433
101433
101433
101433
101433
101433
101433
101433
101433
101432
101432
101432
101432
101431
101431
101431
101431
101431
101431
101431
101431
101431
101432
101432
101432
101432
101432
101432
101432
101432
101432
101432
101432
101432
101432
101432
101432
101432
101432
101432
101432
101432
101432
101432
101441
101441
101441
101441
101441
101440
101440
101440
101439
101438
101437
101436
101436
101435
101434
101434
101434
101433
101433
101433
101433
101433
101433
101433
101433
101433
101433
101433
101434
101434
101434
101434
101434
101434
101434
101436
101436
101436
101436
101436
101435
101435
101435
101435
101435
101435
101434
101434
101434
101434
101434
101434
101434
101433
101433
101433
101433
101433
101433
101433
101434
101434
101434
101434
101434
101434
101434
101434
101434
101434
101440
101440
101440
101440
101439
101439
101439
101438
101438
101437
101437
101436
101436
101435
101435
101435
101434
101434
101434
101434
101434
101434
101434
101434
101434
101434
101434
101434
101434
101434
101434
101434
101435
101435
101435
101438
101438
101438
101438
101438
101437
101437
101437
101437
101436
101436
101436
101436
101435
101435
101435
101435
101434
101434
101434
101434
101434
101434
101434
101434
101434
101434
101434
101435
101435
101435
101435
101435
101435
101435
101440
101439
101439
101439
101439
101439
101438
101438
101438
101437
101437
101436
101436
101436
101435
101435
101435
101435
101434
101434
101434
101434
101434
101434
101434
101435
101435
101435
101435
101435
101435
101435
101435
101435
101435
101439
101439
101439
101439
101438
101438
101438
101438
101437
101437
101437
101436
101436
101436
101435
101435
101435
101435
101435
101434
101434
101434
101434
101435
101435
101435
101435
101435
101435
101435
101435
101435
101435
101435
101435
101439
101439
101439
101439
101439
101438
101438
101438
101438
101437
101437
101436
101436
101436
101435
101435
101435
101435
101435
101435
101434
101434
101434
101435
101435
101435
101435
101435
101435
101435
101435
101435
101435
101435
101435
101439
101439
101439
101439
101438
101438
101438
101438
101437
101437
101437
101436
101436
101436
101435
101435
101435
101435
101435
101434
101434
101434
101434
101435
101435
101435
101435
101435
101435
101435
101435
101435
101435
101435
101435
117986
118035
118100
118166
118233
118303
118376
118452
118531
118613
118699
118786
118875
118964
119051
119139
119226
119311
119392
119469
119547
119625
87354.4
87317.6
87265.1
87212.3
87157.6
87099.5
87038.8
86976.5
86913.9
86852.2
86792.4
86734.6
86678.6
86625.9
86574.7
86523.8
86472.9
86419.5
86367.5
86303.1
86255.8
86217.9
109731
109826
109929
110030
110130
110230
110330
110430
110531
110633
110736
110840
110944
111042
111133
111215
111288
111350
111398
111434
111461
111471
95241
95233.1
95219.7
95209.2
95200.1
95197.6
95197.4
95200
95205.3
95212.5
95220.6
95226.3
95225.8
95220.6
95208.1
95188.7
95165.8
95135.8
95099.4
95057.2
95010.3
94967.9
105202
105202
105205
105206
105205
105202
105194
105182
105166
105148
105130
105114
105101
105092
105086
105081
105078
105081
105087
105093
105099
105098
98711
98730.3
98744.8
98759.6
98775.3
98791.5
98808.1
98825
98841.7
98857.4
98871.6
98883.3
98890
98893.3
98894.2
98892.4
98888.1
98881.4
98872.7
98862
98850.3
98842.5
103001
102988
102979
102969
102958
102946
102934
102921
102909
102897
102885
102876
102869
102865
102862
102860
102860
102862
102864
102866
102868
102867
100260
100275
100287
100299
100312
100325
100337
100350
100362
100374
100385
100395
100402
100407
100411
100414
100417
100419
100421
100423
100425
100429
102098
102088
102079
102069
102059
102049
102038
102028
102018
102008
101998
101990
101983
101977
101972
101968
101964
101960
101958
101955
101954
101950
100927
100938
100946
100955
100963
100972
100981
100989
100998
101006
101014
101021
101027
101032
101036
101040
101043
101047
101050
101053
101057
101063
101705
101699
101692
101686
101679
101672
101665
101658
101651
101644
101637
101631
101626
101621
101617
101613
101609
101606
101603
101600
101597
101594
101221
101228
101233
101238
101244
101249
101254
101259
101264
101269
101274
101278
101281
101284
101286
101289
101291
101293
101295
101297
101299
101301
101534
101531
101527
101523
101519
101515
101511
101507
101503
101499
101496
101493
101490
101487
101485
101483
101481
101479
101477
101475
101474
101472
101348
101352
101355
101358
101360
101363
101366
101368
101371
101373
101375
101377
101378
101379
101380
101381
101382
101383
101383
101384
101385
101385
101465
101463
101461
101459
101457
101455
101453
101451
101449
101447
101446
101445
101444
101443
101442
101441
101441
101440
101439
101438
101437
101436
101401
101402
101404
101405
101406
101408
101409
101410
101411
101412
101413
101414
101414
101415
101415
101415
101416
101416
101416
101416
101416
101417
101441
101440
101439
101438
101437
101436
101436
101435
101435
101434
101433
101433
101432
101432
101432
101431
101431
101431
101430
101430
101430
101429
101421
101422
101423
101423
101424
101424
101424
101425
101425
101425
101426
101426
101426
101426
101426
101426
101426
101426
101426
101426
101426
101426
101434
101434
101433
101433
101433
101432
101432
101432
101431
101431
101431
101431
101431
101430
101430
101430
101430
101430
101430
101430
101429
101429
101429
101429
101430
101430
101430
101430
101430
101430
101430
101430
101430
101430
101430
101430
101430
101430
101430
101430
101430
101430
101430
101430
101433
101433
101433
101433
101433
101432
101432
101432
101432
101432
101432
101432
101432
101432
101431
101431
101431
101431
101431
101431
101431
101431
101432
101433
101433
101433
101433
101433
101433
101432
101432
101432
101432
101432
101432
101432
101432
101432
101432
101432
101432
101432
101432
101432
101434
101434
101434
101434
101434
101433
101433
101433
101433
101433
101433
101433
101433
101433
101433
101433
101433
101433
101433
101432
101432
101432
101434
101434
101434
101434
101434
101434
101434
101434
101434
101434
101434
101434
101434
101434
101433
101433
101433
101433
101433
101433
101433
101433
101435
101435
101435
101435
101434
101434
101434
101434
101434
101434
101434
101434
101434
101434
101434
101434
101434
101434
101434
101434
101434
101433
101435
101435
101435
101435
101435
101435
101435
101435
101435
101435
101435
101435
101435
101435
101434
101434
101434
101434
101434
101434
101434
101434
101435
101435
101435
101435
101435
101435
101435
101435
101435
101435
101435
101435
101435
101435
101435
101435
101435
101435
101435
101435
101434
101434
101436
101435
101435
101435
101435
101435
101435
101435
101435
101435
101435
101435
101435
101435
101435
101435
101435
101435
101435
101435
101435
101435
101436
101435
101436
101436
101436
101436
101436
101436
101436
101436
101436
101436
101436
101436
101436
101436
101435
101435
101435
101435
101435
101435
101436
101436
101436
101436
101436
101436
101436
101436
101436
101436
101436
101436
101436
101436
101436
101436
101436
101436
101436
101436
101436
101435
119658
119652
119643
119633
119622
119609
86201.1
86193.6
86196.5
86202.7
86212.2
86234.2
111472
111457
111417
111363
111297
111215
94913.5
94817.6
94723.2
94628.4
94531.7
94436.8
105111
105148
105185
105223
105261
105297
98824.2
98789
98753.2
98718.2
98684.6
98653.4
102870
102891
102912
102932
102952
102971
100424
100413
100401
100390
100381
100372
101949
101958
101966
101974
101981
101987
101062
101059
101056
101052
101050
101048
101592
101596
101598
101601
101604
101607
101302
101301
101300
101300
101300
101301
101471
101472
101474
101474
101475
101476
101386
101385
101385
101386
101386
101387
101436
101436
101437
101437
101437
101438
101417
101417
101417
101417
101417
101417
101429
101429
101430
101430
101430
101430
101426
101426
101426
101426
101427
101427
101429
101430
101430
101430
101430
101430
101430
101430
101430
101430
101430
101430
101431
101431
101431
101431
101431
101431
101432
101432
101432
101432
101432
101432
101432
101432
101432
101433
101433
101433
101433
101433
101433
101433
101433
101433
101433
101434
101434
101434
101434
101434
101434
101434
101434
101434
101434
101434
101434
101434
101434
101435
101435
101435
101435
101435
101435
101435
101435
101435
101435
101435
101435
101435
101435
101435
101435
101435
101435
101436
101436
101436
119558
119465
119369
119274
119177
119079
118979
118877
118775
118672
118568
118464
118365
118271
118181
118095
118014
117937
117864
117793
117725
117673
86263.8
86316.3
86384.2
86456.2
86533
86617.7
86713.2
86816.9
86932.5
87059.2
87189
87319.3
87443.6
87558.1
87662
87754.7
87837.5
87911.3
87975.8
88034.1
88086.4
88117
111174
111112
111042
110972
110905
110839
110779
110718
110665
110622
110593
110574
110559
110548
110543
110542
110544
110545
110547
110548
110550
110561
94339.5
94246.8
94169.3
94099.1
94035.2
93978.2
93927.9
93894.2
93869.4
93852.5
93843.1
93837.3
93832.6
93821.8
93802.9
93792.7
93793.7
93796.2
93809.8
93820.8
93846.9
93873.6
105348
105407
105460
105513
105565
105619
105673
105728
105781
105835
105890
105940
105977
106001
106016
106025
106024
106015
106002
105985
105964
105946
98609.5
98567.1
98531.3
98497.6
98465.1
98434.3
98405.5
98379.1
98354.9
98332.2
98311.8
98293.7
98276.3
98261.1
98246.9
98233.3
98221.9
98213.1
98206.1
98201
98196.1
98187.1
102994
103032
103068
103102
103135
103168
103201
103233
103264
103295
103324
103352
103380
103406
103429
103448
103466
103483
103498
103509
103517
103527
100351
100328
100308
100288
100267
100248
100229
100211
100193
100175
100156
100137
100117
100098
100080
100064
100048
100033
100020
100008
99996.1
99980.7
101996
102016
102035
102053
102071
102089
102108
102126
102145
102163
102183
102202
102223
102244
102264
102283
102302
102319
102336
102352
102366
102381
101040
101030
101021
101011
101001
100991
100981
100970
100959
100947
100934
100920
100905
100890
100876
100861
100847
100833
100820
100807
100795
100782
101611
101621
101630
101638
101646
101655
101664
101673
101683
101693
101704
101715
101727
101739
101751
101764
101776
101788
101799
101810
101821
101832
101298
101295
101291
101288
101284
101280
101276
101271
101266
101260
101254
101247
101239
101230
101221
101212
101203
101195
101186
101178
101170
101161
101477
101481
101484
101488
101491
101495
101499
101503
101507
101512
101517
101523
101529
101536
101542
101548
101554
101561
101568
101574
101580
101587
101386
101386
101385
101384
101383
101382
101381
101380
101378
101376
101374
101372
101368
101365
101361
101357
101352
101348
101343
101338
101334
101328
101438
101440
101441
101443
101444
101445
101447
101448
101449
101451
101453
101455
101458
101461
101464
101467
101470
101473
101476
101479
101482
101485
101417
101418
101418
101418
101417
101417
101417
101417
101416
101415
101414
101413
101412
101411
101410
101409
101407
101405
101403
101401
101399
101397
101430
101431
101432
101432
101433
101433
101434
101434
101435
101436
101437
101437
101438
101439
101440
101441
101442
101443
101444
101446
101447
101448
101427
101427
101427
101427
101428
101428
101428
101428
101428
101428
101428
101428
101428
101427
101427
101426
101426
101425
101425
101424
101423
101422
101430
101430
101431
101431
101431
101432
101432
101432
101432
101433
101433
101433
101434
101434
101434
101435
101435
101436
101436
101437
101437
101438
101430
101430
101431
101431
101431
101431
101431
101432
101432
101432
101432
101432
101432
101432
101432
101432
101432
101432
101431
101431
101431
101431
101431
101432
101432
101432
101432
101432
101433
101433
101433
101433
101433
101433
101433
101434
101434
101434
101434
101434
101434
101435
101435
101435
101432
101432
101432
101433
101433
101433
101433
101433
101433
101433
101433
101434
101434
101434
101434
101434
101434
101434
101434
101434
101434
101434
101433
101433
101433
101433
101433
101433
101434
101434
101434
101434
101434
101434
101434
101434
101434
101434
101434
101435
101435
101435
101435
101435
101433
101433
101434
101434
101434
101434
101434
101434
101434
101434
101434
101435
101435
101435
101435
101435
101435
101435
101435
101435
101435
101435
101434
101434
101434
101434
101434
101434
101435
101435
101435
101435
101435
101435
101435
101435
101435
101435
101435
101435
101435
101435
101435
101435
101434
101434
101434
101435
101435
101435
101435
101435
101435
101435
101435
101435
101435
101435
101435
101435
101435
101435
101435
101435
101435
101435
101435
101435
101435
101435
101435
101435
101435
101435
101435
101435
101436
101436
101436
101436
101436
101436
101436
101436
101436
101435
101435
101436
101435
101435
101435
101435
101435
101435
101436
101436
101436
101436
101436
101436
101436
101436
101436
101436
101436
101436
101436
101436
101436
101436
101435
101435
101436
101436
101436
101436
101436
101436
101436
101436
101436
101436
101436
101436
101436
101436
101436
101436
101436
101436
101436
101436
101436
101436
101436
101436
101436
101436
101436
101436
101436
101436
101436
101436
101436
101436
101436
101436
101436
101436
101436
101436
101436
101436
117657
117649
117644
117639
117634
117628
117622
117614
117605
117595
117583
117571
117559
117550
117544
117546
117552
117563
117576
117594
117624
117677
117768
117883
117990
118072
118126
118153
118162
118165
118164
118160
118156
118152
118151
88113.5
88124.1
88136.9
88150.1
88164
88178.7
88194.4
88211.1
88228.9
88248.1
88268.3
88290.6
88315
88346.5
88387.3
88432.2
88478.5
88525.9
88579.1
88643.4
88702
88743
88702.1
88525.4
88308.3
88148.4
88080.8
88104.5
88173.7
88261.1
88365.7
88490.7
88630.7
88755.9
88831.3
110577
110573
110570
110569
110568
110567
110566
110560
110544
110520
110486
110440
110375
110276
110139
109975
109785
109565
109336
109165
109034
108954
108996
108995
108973
109009
109094
109234
109397
109545
109662
109737
109773
109783
109786
93865.3
93885.4
93906
93925.7
93947.9
93972.7
93999.5
94037.7
94096.8
94183.8
94298.7
94439.8
94605
94791.3
94978
95129.1
95230
95282.9
95256.9
95144.7
95005.3
94904.2
94932.3
94971.5
94969.7
94955.9
94962.6
94963.2
94972.1
94979.7
94973.9
94960.8
94944
94925.3
94910.2
105923
105884
105841
105795
105744
105689
105630
105562
105489
105409
105316
105212
105100
104980
104857
104749
104665
104592
104497
104394
104352
104426
104493
104525
104491
104440
104401
104370
104341
104312
104286
104266
104247
104233
104222
98187.9
98201
98215.7
98231.5
98248.6
98268.1
98291.3
98319
98348.7
98388.1
98444.8
98512.9
98594.5
98689
98784.6
98863.5
98930.6
98985.2
99025.3
99060.8
99102
99136.6
99202.5
99250.8
99280.3
99303.5
99318.6
99328.3
99334
99337.4
99339.3
99339.9
99339.2
99337.4
99334.4
103536
103524
103507
103487
103466
103443
103417
103391
103362
103325
103277
103226
103175
103127
103085
103056
103032
103008
102978
102948
102918
102888
102862
102856
102851
102841
102832
102824
102815
102807
102802
102798
102795
102791
102788
99971.3
99975.1
99982.3
99989
99996.4
100005
100015
100025
100036
100049
100063
100081
100104
100131
100162
100190
100206
100217
100229
100245
100265
100285
100289
100290
100299
100320
100347
100375
100399
100419
100433
100442
100447
100449
100449
102397
102397
102394
102390
102386
102382
102378
102372
102366
102358
102350
102343
102334
102325
102315
102312
102316
102323
102330
102334
102329
102317
102297
102273
102250
102236
102227
102221
102217
102215
102213
102212
102213
102214
102216
100772
100772
100774
100775
100777
100779
100782
100785
100788
100791
100793
100793
100792
100789
100788
100786
100782
100780
100776
100771
100769
100769
100768
100768
100768
100769
100771
100772
100774
100775
100776
100776
100776
100776
100776
101844
101845
101845
101845
101845
101844
101843
101842
101841
101840
101840
101840
101842
101845
101850
101857
101866
101873
101882
101888
101893
101896
101898
101897
101896
101896
101895
101894
101893
101892
101892
101891
101891
101890
101890
101155
101154
101155
101155
101155
101156
101157
101158
101159
101160
101160
101159
101158
101154
101148
101141
101132
101122
101112
101103
101095
101088
101083
101079
101076
101074
101073
101072
101072
101073
101074
101075
101076
101077
101078
101594
101595
101595
101595
101594
101593
101593
101592
101591
101591
101590
101590
101591
101593
101598
101604
101612
101621
101630
101640
101650
101659
101666
101672
101675
101678
101680
101681
101682
101683
101683
101683
101682
101682
101682
101325
101324
101325
101325
101325
101326
101326
101327
101328
101328
101329
101329
101328
101326
101323
101318
101312
101305
101296
101288
101279
101269
101261
101254
101249
101246
101244
101243
101243
101244
101244
101245
101246
101247
101248
101488
101488
101488
101488
101488
101488
101488
101487
101487
101486
101485
101485
101485
101486
101488
101492
101497
101502
101508
101515
101523
101532
101541
101549
101555
101560
101563
101566
101567
101568
101568
101568
101568
101567
101567
101395
101395
101395
101395
101395
101395
101395
101396
101396
101397
101397
101398
101398
101397
101395
101393
101390
101386
101382
101377
101371
101365
101358
101352
101346
101342
101339
101337
101337
101336
101337
101338
101338
101339
101340
101450
101450
101450
101450
101450
101450
101450
101449
101449
101448
101448
101448
101448
101448
101448
101450
101452
101454
101458
101461
101466
101471
101477
101483
101488
101492
101495
101498
101499
101500
101501
101501
101501
101501
101500
101421
101421
101421
101421
101421
101421
101421
101421
101422
101422
101422
101422
101422
101422
101422
101421
101420
101418
101416
101414
101412
101409
101405
101402
101399
101397
101395
101394
101393
101393
101393
101393
101393
101394
101394
101438
101438
101438
101438
101438
101438
101438
101437
101437
101437
101437
101437
101436
101436
101437
101437
101438
101439
101440
101442
101444
101446
101449
101453
101455
101458
101460
101462
101463
101464
101464
101465
101465
101465
101465
101431
101430
101430
101430
101430
101430
101430
101430
101430
101430
101430
101431
101431
101431
101430
101430
101430
101429
101429
101428
101427
101426
101425
101424
101423
101422
101421
101420
101420
101420
101420
101420
101420
101420
101420
101435
101435
101435
101435
101435
101435
101435
101435
101435
101434
101434
101434
101434
101434
101434
101434
101434
101435
101435
101436
101437
101438
101440
101441
101442
101444
101445
101446
101447
101447
101448
101448
101448
101448
101448
101433
101433
101433
101433
101433
101433
101433
101433
101433
101433
101433
101433
101433
101433
101433
101433
101433
101433
101433
101433
101432
101432
101432
101432
101431
101431
101431
101431
101431
101431
101431
101431
101431
101431
101431
101435
101435
101435
101435
101435
101435
101434
101434
101434
101434
101434
101434
101434
101434
101434
101434
101434
101434
101434
101435
101435
101436
101436
101437
101438
101439
101439
101440
101440
101440
101441
101441
101441
101441
101441
101435
101435
101435
101434
101434
101434
101434
101434
101434
101434
101434
101434
101434
101434
101434
101434
101434
101434
101434
101434
101434
101434
101434
101434
101434
101434
101434
101434
101434
101435
101435
101435
101435
101435
101435
101435
101435
101435
101435
101435
101435
101435
101435
101435
101434
101434
101434
101434
101434
101434
101434
101434
101434
101434
101434
101434
101435
101435
101436
101436
101436
101437
101437
101438
101438
101438
101438
101438
101438
101439
101435
101435
101435
101435
101435
101435
101435
101435
101435
101434
101434
101434
101434
101434
101434
101434
101434
101434
101434
101434
101434
101434
101435
101435
101435
101435
101435
101435
101436
101436
101436
101436
101436
101436
101436
101435
101435
101435
101435
101435
101435
101435
101435
101435
101435
101434
101434
101434
101434
101434
101434
101434
101434
101434
101434
101434
101434
101435
101435
101435
101436
101436
101436
101436
101437
101437
101437
101437
101437
101437
101435
101435
101435
101435
101435
101435
101435
101435
101435
101435
101434
101434
101434
101434
101434
101434
101434
101434
101434
101434
101434
101434
101434
101435
101435
101435
101435
101435
101436
101436
101436
101436
101436
101436
101437
101435
101435
101435
101435
101435
101435
101435
101435
101435
101435
101434
101434
101434
101434
101434
101434
101434
101434
101434
101434
101434
101434
101434
101434
101435
101435
101435
101435
101436
101436
101436
101436
101436
101437
101437
101435
101436
101436
101435
101435
101435
101435
101435
101435
101434
101434
101434
101434
101434
101434
101433
101433
101433
101433
101433
101434
101434
101434
101434
101434
101435
101435
101435
101435
101436
101436
101436
101436
101436
101436
101439
101439
101439
101439
101438
101438
101438
101438
101437
101437
101437
101436
101436
101435
101435
101435
101435
101435
101434
101434
101434
101434
101434
101434
101434
101435
101435
101435
101435
101435
101435
101435
101435
101435
101435
101439
101439
101439
101438
101438
101438
101438
101437
101437
101437
101436
101436
101436
101435
101435
101435
101434
101434
101434
101434
101434
101434
101434
101434
101434
101434
101435
101435
101435
101435
101435
101435
101435
101435
101435
101439
101438
101438
101438
101438
101438
101437
101437
101437
101436
101436
101436
101435
101435
101435
101434
101434
101434
101434
101434
101434
101434
101434
101434
101434
101434
101434
101435
101435
101435
101435
101435
101435
101435
101435
101438
101438
101438
101438
101438
101437
101437
101437
101436
101436
101436
101435
101435
101435
101434
101434
101434
101434
101434
101433
101433
101433
101434
101434
101434
101434
101434
101434
101434
101435
101435
101435
101435
101435
101435
101438
101438
101438
101437
101437
101437
101437
101436
101436
101436
101435
101435
101435
101434
101434
101434
101434
101433
101433
101433
101433
101433
101433
101433
101433
101434
101434
101434
101434
101434
101435
101435
101435
101435
101435
101438
101437
101437
101437
101437
101437
101436
101436
101436
101435
101435
101435
101434
101434
101434
101433
101433
101433
101433
101433
101433
101433
101433
101433
101433
101433
101433
101434
101434
101434
101434
101435
101435
101435
101435
101437
101437
101437
101437
101437
101436
101436
101436
101435
101435
101435
101434
101434
101434
101433
101433
101433
101433
101432
101432
101432
101432
101432
101432
101433
101433
101433
101433
101434
101434
101434
101434
101435
101435
101435
101437
101437
101437
101436
101436
101436
101436
101435
101435
101435
101434
101434
101434
101433
101433
101433
101432
101432
101432
101432
101432
101432
101432
101432
101432
101432
101433
101433
101433
101433
101434
101434
101434
101435
101434
101436
101436
101436
101436
101436
101436
101435
101435
101435
101435
101434
101434
101433
101433
101433
101432
101432
101432
101432
101432
101431
101431
101431
101431
101432
101432
101432
101432
101433
101433
101433
101434
101434
101434
101434
101436
101436
101436
101436
101436
101435
101435
101435
101435
101434
101434
101434
101433
101433
101432
101432
101432
101432
101431
101431
101431
101431
101431
101431
101431
101431
101432
101432
101432
101433
101433
101433
101434
101434
101434
101436
101436
101436
101435
101435
101435
101435
101435
101434
101434
101434
101433
101433
101432
101432
101432
101431
101431
101431
101431
101431
101430
101430
101430
101430
101431
101431
101431
101432
101432
101432
101433
101433
101434
101433
101436
101435
101435
101435
101435
101435
101434
101434
101434
101434
101433
101433
101433
101432
101432
101432
101431
101431
101431
101430
101430
101430
101430
101430
101430
101430
101430
101431
101431
101431
101432
101432
101433
101433
101433
101435
101435
101435
101435
101435
101434
101434
101434
101434
101433
101433
101433
101432
101432
101432
101431
101431
101431
101430
101430
101430
101429
101429
101429
101429
101429
101430
101430
101430
101431
101431
101432
101432
101433
101432
101435
101435
101435
101435
101434
101434
101434
101434
101433
101433
101433
101432
101432
101432
101431
101431
101431
101430
101430
101430
101429
101429
101429
101429
101429
101429
101429
101429
101429
101430
101430
101431
101431
101432
101432
101435
101435
101434
101434
101434
101434
101434
101433
101433
101433
101433
101432
101432
101432
101431
101431
101430
101430
101430
101429
101429
101429
101428
101428
101428
101428
101428
101428
101428
101429
101429
101430
101431
101431
101431
101434
101434
101434
101434
101434
101434
101433
101433
101433
101433
101432
101432
101432
101431
101431
101431
101430
101430
101429
101429
101429
101428
101428