/*--------------------------------*- C++ -*----------------------------------*\
  =========                 |
  \\      /  F ield         | OpenFOAM: The Open Source CFD Toolbox
   \\    /   O peration     | Website:  https://openfoam.org
    \\  /    A nd           | Version:  8
     \\/     M anipulation  |
\*---------------------------------------------------------------------------*/
FoamFile
{
    version     2.0;
    format      ascii;
    class       volScalarField;
    location    "0.19";
    object      rho;
}
// * * * * * * * * * * * * * * * * * * * * * * * * * * * * * * * * * * * * * //

dimensions      [1 -3 0 0 0 0 0];

internalField   nonuniform List<scalar> 
15677
(
1.38778
1.38814
1.38831
1.38835
1.38831
1.38822
1.38807
1.38784
1.3875
1.38703
1.3864
1.38546
1.38381
1.38162
1.3798
1.37836
1.37723
1.37643
1.37598
1.37561
1.3752
1.37472
1.37439
1.37416
1.3741
1.3741
1.3741
1.37413
1.37418
1.37423
1.3743
1.37436
1.37443
1.3745
1.37462
1.03197
1.03133
1.0301
1.02858
1.02707
1.02563
1.02425
1.02279
1.02133
1.02011
1.01913
1.01888
1.02043
1.02494
1.02908
1.03161
1.03309
1.03329
1.03215
1.03019
1.02788
1.02575
1.024
1.02263
1.02169
1.02082
1.02013
1.01955
1.01904
1.01863
1.01829
1.01802
1.01781
1.01763
1.01747
1.23758
1.23836
1.23876
1.23868
1.23816
1.23731
1.23613
1.23466
1.23299
1.23184
1.23203
1.23323
1.23605
1.24043
1.24485
1.24785
1.24989
1.2514
1.25312
1.25492
1.25666
1.25823
1.25964
1.26056
1.26095
1.26146
1.26211
1.26278
1.26353
1.26437
1.26526
1.26615
1.267
1.26783
1.26862
1.13047
1.13102
1.13147
1.13164
1.13154
1.13126
1.13076
1.12996
1.12888
1.12753
1.12607
1.12465
1.123
1.12121
1.11962
1.11807
1.11631
1.11467
1.11317
1.11173
1.1105
1.10969
1.10918
1.10862
1.10802
1.10738
1.10665
1.10597
1.10533
1.10472
1.10417
1.10369
1.10328
1.1029
1.1026
1.2076
1.20747
1.20735
1.20725
1.20715
1.20702
1.20684
1.20662
1.20643
1.20629
1.20621
1.20611
1.20601
1.20592
1.20594
1.20606
1.20634
1.20681
1.20746
1.20825
1.20926
1.21036
1.21116
1.21186
1.21245
1.21289
1.21327
1.21363
1.21399
1.21432
1.21463
1.2149
1.21514
1.21537
1.21554
1.14582
1.14553
1.14523
1.14494
1.14468
1.14443
1.14423
1.14415
1.14414
1.14429
1.14453
1.14479
1.14498
1.14503
1.1449
1.14468
1.14434
1.14392
1.14347
1.14304
1.14264
1.14246
1.14235
1.1423
1.14219
1.14204
1.14188
1.14171
1.14153
1.14136
1.14121
1.14107
1.14095
1.14082
1.14076
1.18417
1.18447
1.18475
1.18502
1.18527
1.18547
1.18571
1.18591
1.18609
1.18616
1.18608
1.18591
1.1858
1.18586
1.18607
1.18633
1.18665
1.18703
1.18746
1.18796
1.18853
1.18885
1.18899
1.18907
1.18915
1.18924
1.18936
1.18949
1.18963
1.18976
1.18988
1.18999
1.19009
1.19018
1.19023
1.16035
1.1604
1.16044
1.16045
1.16046
1.16047
1.16047
1.16046
1.16044
1.16039
1.16035
1.16033
1.16032
1.16032
1.16026
1.16011
1.15991
1.15971
1.1595
1.15925
1.15905
1.159
1.15899
1.15895
1.15889
1.15883
1.15876
1.15869
1.15862
1.15856
1.1585
1.15845
1.1584
1.15835
1.15835
1.17801
1.17798
1.17795
1.17794
1.17794
1.17794
1.17796
1.17798
1.178
1.17802
1.17802
1.17799
1.17795
1.17791
1.17796
1.17806
1.17821
1.17839
1.17861
1.17889
1.17907
1.1791
1.17916
1.17922
1.17928
1.17933
1.17938
1.17943
1.17949
1.17954
1.17959
1.17964
1.17968
1.17972
1.17974
1.16571
1.16575
1.16577
1.16579
1.16581
1.16582
1.16583
1.16585
1.16587
1.1659
1.16593
1.16597
1.16601
1.16604
1.16604
1.16603
1.166
1.16596
1.1659
1.16589
1.16593
1.16601
1.16605
1.16607
1.16606
1.16606
1.16604
1.16602
1.166
1.16598
1.16596
1.16594
1.16593
1.16591
1.16592
1.17421
1.17419
1.17418
1.17417
1.17416
1.17415
1.17414
1.17413
1.17413
1.17412
1.17411
1.17411
1.17411
1.17412
1.17416
1.17422
1.17431
1.17442
1.17453
1.17455
1.17457
1.17459
1.17462
1.17465
1.17469
1.17473
1.17476
1.17479
1.17482
1.17485
1.17488
1.1749
1.17492
1.17494
1.17496
1.1685
1.16853
1.16854
1.16855
1.16855
1.16856
1.16857
1.16858
1.16859
1.16861
1.16864
1.16868
1.16871
1.16873
1.16875
1.16877
1.16877
1.16879
1.16884
1.16892
1.169
1.16906
1.1691
1.16912
1.16913
1.16913
1.16913
1.16912
1.16912
1.16911
1.16911
1.1691
1.1691
1.16909
1.16911
1.1724
1.1724
1.1724
1.1724
1.1724
1.17239
1.17239
1.17239
1.17238
1.17237
1.17236
1.17235
1.17234
1.17235
1.17237
1.1724
1.17246
1.17245
1.17245
1.17244
1.17244
1.17245
1.17247
1.1725
1.17253
1.17257
1.17259
1.17262
1.17264
1.17266
1.17267
1.17269
1.1727
1.17271
1.17272
1.16966
1.16968
1.16969
1.1697
1.1697
1.16971
1.16972
1.16973
1.16974
1.16977
1.1698
1.16983
1.16986
1.16989
1.16992
1.16996
1.17
1.17008
1.17015
1.17021
1.17027
1.17031
1.17034
1.17036
1.17037
1.17037
1.17037
1.17037
1.17037
1.17037
1.17037
1.17038
1.17038
1.17038
1.17039
1.17155
1.17156
1.17156
1.17156
1.17156
1.17156
1.17156
1.17156
1.17156
1.17155
1.17154
1.17153
1.17152
1.17152
1.17152
1.17151
1.1715
1.17149
1.17149
1.17149
1.1715
1.17151
1.17153
1.17155
1.17158
1.1716
1.17162
1.17164
1.17166
1.17167
1.17168
1.17169
1.1717
1.1717
1.17171
1.17015
1.17016
1.17017
1.17017
1.17018
1.17019
1.1702
1.17021
1.17022
1.17025
1.17027
1.1703
1.17033
1.17037
1.17043
1.17048
1.17053
1.17059
1.17064
1.17068
1.17072
1.17075
1.17077
1.17079
1.1708
1.1708
1.17081
1.17081
1.17081
1.17082
1.17082
1.17083
1.17083
1.17083
1.17084
1.17113
1.17113
1.17114
1.17114
1.17114
1.17115
1.17115
1.17114
1.17114
1.17113
1.17112
1.17111
1.17109
1.17108
1.17107
1.17106
1.17106
1.17106
1.17107
1.17108
1.17109
1.17111
1.17113
1.17115
1.17116
1.17118
1.1712
1.17121
1.17122
1.17123
1.17124
1.17125
1.17125
1.17126
1.17126
1.17036
1.17037
1.17037
1.17038
1.17038
1.17039
1.1704
1.17041
1.17043
1.17045
1.17048
1.17051
1.17055
1.17059
1.17063
1.17067
1.1707
1.17074
1.17077
1.1708
1.17083
1.17085
1.17087
1.17088
1.17089
1.1709
1.17091
1.17092
1.17092
1.17093
1.17093
1.17094
1.17094
1.17094
1.17095
1.17087
1.17088
1.17088
1.17089
1.17089
1.17089
1.17089
1.17089
1.17088
1.17087
1.17087
1.17086
1.17085
1.17085
1.17085
1.17085
1.17086
1.17087
1.17088
1.17089
1.17091
1.17093
1.17094
1.17096
1.17097
1.17099
1.171
1.17101
1.17102
1.17103
1.17103
1.17104
1.17104
1.17105
1.17105
1.17048
1.17049
1.17049
1.17049
1.1705
1.1705
1.17051
1.17052
1.17054
1.17055
1.17057
1.17059
1.17062
1.17064
1.17067
1.1707
1.17073
1.17075
1.17077
1.17079
1.17081
1.17083
1.17085
1.17086
1.17087
1.17088
1.17089
1.1709
1.1709
1.17091
1.17091
1.17092
1.17092
1.17093
1.17093
1.17071
1.17071
1.17072
1.17072
1.17072
1.17072
1.17072
1.17072
1.17072
1.17072
1.17072
1.17072
1.17072
1.17072
1.17073
1.17074
1.17075
1.17076
1.17078
1.17079
1.17081
1.17083
1.17084
1.17085
1.17087
1.17088
1.17089
1.17089
1.1709
1.17091
1.17091
1.17092
1.17092
1.17093
1.17093
1.17052
1.17053
1.17053
1.17054
1.17054
1.17055
1.17055
1.17056
1.17057
1.17058
1.17059
1.1706
1.17062
1.17064
1.17066
1.17068
1.1707
1.17071
1.17073
1.17075
1.17076
1.17078
1.17079
1.17081
1.17082
1.17082
1.17083
1.17084
1.17084
1.17085
1.17085
1.17086
1.17086
1.17087
1.17087
1.17061
1.17061
1.17062
1.17062
1.17062
1.17062
1.17063
1.17063
1.17063
1.17063
1.17063
1.17063
1.17064
1.17065
1.17066
1.17067
1.17068
1.1707
1.17071
1.17072
1.17074
1.17075
1.17077
1.17078
1.17079
1.1708
1.1708
1.17081
1.17082
1.17082
1.17083
1.17083
1.17084
1.17084
1.17084
1.17052
1.17053
1.17053
1.17054
1.17054
1.17054
1.17054
1.17055
1.17056
1.17056
1.17057
1.17058
1.17059
1.17061
1.17062
1.17064
1.17065
1.17066
1.17068
1.17069
1.17071
1.17072
1.17073
1.17074
1.17075
1.17076
1.17077
1.17077
1.17078
1.17078
1.17079
1.17079
1.1708
1.1708
1.1708
1.17054
1.17055
1.17055
1.17056
1.17056
1.17056
1.17056
1.17056
1.17057
1.17057
1.17057
1.17058
1.17058
1.17059
1.1706
1.17062
1.17063
1.17064
1.17065
1.17067
1.17068
1.17069
1.1707
1.17071
1.17072
1.17073
1.17074
1.17074
1.17075
1.17075
1.17076
1.17076
1.17076
1.17077
1.17077
1.1705
1.17051
1.17051
1.17051
1.17052
1.17052
1.17052
1.17053
1.17053
1.17054
1.17054
1.17055
1.17056
1.17057
1.17058
1.17059
1.1706
1.17062
1.17063
1.17064
1.17065
1.17066
1.17067
1.17068
1.17069
1.1707
1.17071
1.17071
1.17072
1.17072
1.17072
1.17073
1.17073
1.17073
1.17074
1.1705
1.17051
1.17051
1.17051
1.17051
1.17052
1.17052
1.17052
1.17052
1.17053
1.17053
1.17053
1.17054
1.17055
1.17056
1.17057
1.17058
1.17059
1.1706
1.17061
1.17063
1.17064
1.17065
1.17066
1.17066
1.17067
1.17068
1.17068
1.17069
1.17069
1.1707
1.1707
1.1707
1.1707
1.17071
1.17048
1.17048
1.17049
1.17049
1.17049
1.17049
1.17049
1.1705
1.1705
1.1705
1.17051
1.17051
1.17052
1.17053
1.17054
1.17055
1.17056
1.17057
1.17058
1.17059
1.1706
1.17061
1.17062
1.17063
1.17064
1.17064
1.17065
1.17065
1.17066
1.17066
1.17067
1.17067
1.17067
1.17068
1.17068
1.17047
1.17047
1.17048
1.17048
1.17048
1.17048
1.17048
1.17048
1.17049
1.17049
1.17049
1.1705
1.1705
1.17051
1.17052
1.17053
1.17054
1.17055
1.17056
1.17057
1.17058
1.17059
1.1706
1.1706
1.17061
1.17062
1.17062
1.17063
1.17063
1.17064
1.17064
1.17065
1.17065
1.17065
1.17065
1.17045
1.17046
1.17046
1.17046
1.17046
1.17046
1.17047
1.17047
1.17047
1.17047
1.17048
1.17048
1.17049
1.17049
1.1705
1.17051
1.17052
1.17052
1.17053
1.17054
1.17055
1.17056
1.17057
1.17058
1.17059
1.17059
1.1706
1.1706
1.17061
1.17061
1.17062
1.17062
1.17062
1.17063
1.17063
1.37484
1.37557
1.3765
1.37744
1.37841
1.37941
1.38046
1.38154
1.38265
1.3838
1.38498
1.38618
1.38738
1.38855
1.38969
1.39081
1.39189
1.39291
1.39385
1.39472
1.39557
1.3964
1.01752
1.01707
1.01646
1.01587
1.01528
1.01467
1.01404
1.01342
1.0128
1.01221
1.01163
1.01107
1.01051
1.00997
1.00941
1.00882
1.00822
1.00759
1.00697
1.00622
1.00568
1.00526
1.26934
1.27028
1.27132
1.27238
1.27343
1.27449
1.27555
1.27661
1.27767
1.27872
1.27976
1.28081
1.28186
1.28285
1.2838
1.28468
1.28548
1.2862
1.2868
1.28729
1.28772
1.28797
1.10253
1.10236
1.10214
1.10197
1.10183
1.10179
1.1018
1.10186
1.10197
1.10213
1.10231
1.10248
1.10259
1.10264
1.1026
1.10248
1.10231
1.10206
1.10172
1.10131
1.10083
1.1004
1.21546
1.21538
1.21534
1.21529
1.21521
1.21512
1.21499
1.21481
1.21461
1.2144
1.2142
1.21402
1.2139
1.21382
1.21377
1.21375
1.21375
1.21382
1.21394
1.21407
1.2142
1.21426
1.14098
1.14118
1.14133
1.14148
1.14164
1.14182
1.142
1.14218
1.14238
1.14256
1.14273
1.14289
1.14298
1.14305
1.14309
1.1431
1.14308
1.14304
1.14297
1.14288
1.14279
1.14274
1.19007
1.1899
1.18976
1.18961
1.18946
1.1893
1.18914
1.18898
1.18882
1.18867
1.18854
1.18842
1.18835
1.1883
1.18828
1.18827
1.18829
1.18833
1.18837
1.18842
1.18847
1.18849
1.15851
1.15868
1.15881
1.15894
1.15908
1.15922
1.15936
1.15949
1.15963
1.15977
1.15989
1.16001
1.16009
1.16016
1.16021
1.16026
1.16031
1.16035
1.16039
1.16042
1.16046
1.16052
1.17961
1.17949
1.17938
1.17926
1.17914
1.17902
1.17889
1.17876
1.17864
1.17852
1.17841
1.17831
1.17823
1.17816
1.1781
1.17805
1.17801
1.17798
1.17795
1.17794
1.17792
1.17789
1.16602
1.16614
1.16625
1.16635
1.16645
1.16656
1.16666
1.16676
1.16686
1.16696
1.16705
1.16713
1.1672
1.16726
1.16731
1.16736
1.1674
1.16744
1.16749
1.16753
1.16758
1.16765
1.17487
1.17481
1.17475
1.17467
1.1746
1.17453
1.17445
1.17438
1.1743
1.17423
1.17415
1.17409
1.17403
1.17398
1.17393
1.17389
1.17385
1.17381
1.17378
1.17374
1.17371
1.17368
1.16917
1.16925
1.16933
1.1694
1.16947
1.16955
1.16962
1.16969
1.16975
1.16982
1.16988
1.16993
1.16997
1.17001
1.17005
1.17008
1.17011
1.17013
1.17016
1.17018
1.17021
1.17024
1.17268
1.17265
1.17262
1.17258
1.17255
1.17251
1.17248
1.17244
1.17241
1.17237
1.17234
1.17231
1.17229
1.17226
1.17224
1.17222
1.17221
1.17219
1.17217
1.17216
1.17214
1.17212
1.17043
1.17048
1.17053
1.17057
1.17062
1.17066
1.17071
1.17075
1.17079
1.17083
1.17086
1.17089
1.17092
1.17094
1.17096
1.17098
1.17099
1.17101
1.17102
1.17103
1.17104
1.17105
1.17169
1.17168
1.17167
1.17166
1.17165
1.17164
1.17163
1.17162
1.17161
1.1716
1.17159
1.17159
1.17159
1.17159
1.17159
1.17159
1.17159
1.17159
1.17159
1.17158
1.17158
1.17157
1.17086
1.1709
1.17093
1.17096
1.17099
1.17101
1.17104
1.17106
1.17109
1.17111
1.17114
1.17116
1.17118
1.1712
1.17121
1.17123
1.17124
1.17125
1.17126
1.17127
1.17128
1.17128
1.17126
1.17126
1.17127
1.17127
1.17127
1.17127
1.17128
1.17129
1.1713
1.1713
1.17131
1.17132
1.17132
1.17133
1.17134
1.17134
1.17135
1.17136
1.17136
1.17136
1.17137
1.17137
1.17097
1.17099
1.17101
1.17103
1.17105
1.17107
1.17109
1.1711
1.17112
1.17114
1.17116
1.17117
1.17119
1.1712
1.17121
1.17122
1.17124
1.17124
1.17125
1.17126
1.17127
1.17128
1.17105
1.17106
1.17107
1.17108
1.17109
1.1711
1.17111
1.17112
1.17113
1.17114
1.17116
1.17117
1.17118
1.17119
1.1712
1.17121
1.17122
1.17123
1.17124
1.17125
1.17126
1.17126
1.17094
1.17096
1.17097
1.17099
1.171
1.17102
1.17103
1.17105
1.17106
1.17108
1.17109
1.17111
1.17112
1.17113
1.17115
1.17116
1.17117
1.17118
1.17119
1.1712
1.17121
1.17121
1.17093
1.17095
1.17096
1.17097
1.17098
1.17099
1.171
1.17102
1.17103
1.17104
1.17106
1.17107
1.17108
1.1711
1.17111
1.17112
1.17113
1.17114
1.17115
1.17116
1.17117
1.17118
1.17088
1.17089
1.1709
1.17092
1.17093
1.17094
1.17096
1.17097
1.17099
1.171
1.17101
1.17103
1.17104
1.17105
1.17107
1.17108
1.17109
1.1711
1.17111
1.17112
1.17113
1.17114
1.17085
1.17086
1.17087
1.17088
1.1709
1.17091
1.17092
1.17093
1.17095
1.17096
1.17098
1.17099
1.171
1.17102
1.17103
1.17104
1.17105
1.17106
1.17107
1.17108
1.17109
1.1711
1.17081
1.17082
1.17083
1.17084
1.17086
1.17087
1.17088
1.1709
1.17091
1.17092
1.17094
1.17095
1.17097
1.17098
1.17099
1.17101
1.17102
1.17103
1.17104
1.17105
1.17106
1.17107
1.17078
1.17079
1.1708
1.17081
1.17082
1.17084
1.17085
1.17086
1.17088
1.17089
1.1709
1.17092
1.17093
1.17095
1.17096
1.17097
1.17098
1.17099
1.171
1.17101
1.17102
1.17103
1.17075
1.17076
1.17077
1.17078
1.17079
1.1708
1.17082
1.17083
1.17084
1.17086
1.17087
1.17089
1.1709
1.17091
1.17093
1.17094
1.17095
1.17096
1.17097
1.17098
1.17099
1.171
1.17072
1.17073
1.17074
1.17075
1.17076
1.17077
1.17079
1.1708
1.17081
1.17083
1.17084
1.17085
1.17087
1.17088
1.17089
1.17091
1.17092
1.17093
1.17094
1.17095
1.17096
1.17097
1.17069
1.1707
1.17071
1.17072
1.17073
1.17075
1.17076
1.17077
1.17078
1.1708
1.17081
1.17083
1.17084
1.17085
1.17087
1.17088
1.17089
1.1709
1.17091
1.17092
1.17093
1.17094
1.17066
1.17067
1.17068
1.17069
1.17071
1.17072
1.17073
1.17074
1.17076
1.17077
1.17078
1.1708
1.17081
1.17083
1.17084
1.17085
1.17086
1.17087
1.17088
1.17089
1.1709
1.17091
1.17064
1.17065
1.17066
1.17067
1.17068
1.17069
1.17071
1.17072
1.17073
1.17075
1.17076
1.17077
1.17079
1.1708
1.17081
1.17082
1.17084
1.17085
1.17086
1.17087
1.17088
1.17089
1.3967
1.39657
1.39643
1.3963
1.39616
1.39596
1.00508
1.00501
1.00506
1.00513
1.00522
1.00542
1.28815
1.28816
1.28789
1.28748
1.28696
1.28629
1.09983
1.09877
1.09771
1.09665
1.09556
1.09448
1.21449
1.21499
1.21553
1.21608
1.21663
1.21718
1.14257
1.14221
1.14184
1.14148
1.14113
1.1408
1.18855
1.18883
1.1891
1.18937
1.18963
1.18989
1.16049
1.16038
1.16026
1.16016
1.16006
1.15998
1.17788
1.178
1.1781
1.1782
1.17829
1.17838
1.16765
1.16762
1.16758
1.16755
1.16752
1.1675
1.17366
1.1737
1.17373
1.17376
1.17379
1.17383
1.17024
1.17023
1.17022
1.17021
1.17021
1.17022
1.17211
1.17212
1.17213
1.17214
1.17214
1.17215
1.17106
1.17105
1.17105
1.17105
1.17105
1.17105
1.17157
1.17157
1.17157
1.17157
1.17157
1.17157
1.17128
1.17128
1.17128
1.17128
1.17128
1.17128
1.17137
1.17137
1.17138
1.17138
1.17138
1.17138
1.17128
1.17128
1.17128
1.17128
1.17128
1.17129
1.17127
1.17127
1.17127
1.17127
1.17127
1.17127
1.17122
1.17122
1.17122
1.17122
1.17122
1.17123
1.17118
1.17119
1.17119
1.17119
1.17119
1.17119
1.17114
1.17115
1.17115
1.17115
1.17115
1.17115
1.17111
1.17111
1.17111
1.17111
1.17111
1.17111
1.17107
1.17107
1.17108
1.17108
1.17108
1.17108
1.17104
1.17104
1.17104
1.17104
1.17104
1.17104
1.17101
1.17101
1.17101
1.17101
1.17101
1.17101
1.17098
1.17098
1.17098
1.17098
1.17098
1.17098
1.17095
1.17095
1.17095
1.17095
1.17095
1.17095
1.17092
1.17092
1.17092
1.17092
1.17092
1.17092
1.17089
1.1709
1.1709
1.1709
1.1709
1.1709
1.39532
1.39416
1.39293
1.39167
1.39036
1.389
1.3876
1.38617
1.38472
1.38327
1.38181
1.38038
1.37903
1.37776
1.37658
1.37547
1.37444
1.37349
1.3726
1.37177
1.37098
1.37039
1.00568
1.00619
1.00686
1.00757
1.00833
1.00917
1.01012
1.01116
1.01232
1.01358
1.01484
1.01609
1.01731
1.01844
1.0195
1.0205
1.02142
1.02227
1.02304
1.02377
1.02445
1.02489
1.28607
1.28559
1.28504
1.28455
1.28409
1.28368
1.28334
1.28299
1.28269
1.28249
1.28241
1.2824
1.28242
1.28245
1.28252
1.28264
1.28277
1.28288
1.28299
1.28309
1.28318
1.28337
1.09338
1.09232
1.09144
1.09064
1.08992
1.08927
1.08869
1.0883
1.08798
1.08774
1.08757
1.08744
1.08733
1.08716
1.08691
1.08679
1.08682
1.08689
1.08709
1.08727
1.08763
1.08799
1.21787
1.21864
1.21933
1.22001
1.22069
1.22136
1.22204
1.2227
1.22335
1.22401
1.22469
1.22532
1.2258
1.22613
1.22638
1.22657
1.22665
1.22666
1.22661
1.22652
1.2264
1.22629
1.14032
1.13985
1.13945
1.13907
1.13871
1.13837
1.13805
1.13776
1.1375
1.13725
1.13704
1.13686
1.13668
1.13653
1.13639
1.13626
1.13614
1.13606
1.13599
1.13593
1.13587
1.13576
1.19019
1.19065
1.19108
1.19149
1.1919
1.1923
1.19269
1.19308
1.19345
1.19382
1.19417
1.1945
1.19483
1.19514
1.1954
1.19563
1.19583
1.19603
1.1962
1.19633
1.19643
1.19654
1.15975
1.15949
1.15926
1.15903
1.15881
1.15859
1.15837
1.15817
1.15796
1.15775
1.15754
1.15731
1.15708
1.15685
1.15664
1.15643
1.15624
1.15606
1.15589
1.15573
1.15558
1.15539
1.17849
1.17872
1.17894
1.17915
1.17936
1.17957
1.17978
1.17998
1.18019
1.1804
1.18061
1.18083
1.18106
1.18128
1.18149
1.1817
1.1819
1.18208
1.18226
1.18242
1.18256
1.18272
1.16741
1.16729
1.16718
1.16706
1.16694
1.16682
1.1667
1.16656
1.16643
1.16628
1.16611
1.16593
1.16574
1.16556
1.16538
1.16519
1.16502
1.16484
1.16467
1.16451
1.16435
1.16419
1.17387
1.17397
1.17406
1.17415
1.17424
1.17433
1.17442
1.17451
1.17462
1.17472
1.17482
1.17493
1.17506
1.17518
1.17531
1.17544
1.17556
1.17569
1.17581
1.17593
1.17604
1.17615
1.17018
1.17013
1.17008
1.17003
1.16998
1.16992
1.16986
1.16979
1.16972
1.16964
1.16956
1.16946
1.16935
1.16924
1.16913
1.16901
1.1689
1.16879
1.16868
1.16857
1.16847
1.16836
1.17215
1.17219
1.17222
1.17225
1.17228
1.17231
1.17234
1.17238
1.17242
1.17246
1.17251
1.17256
1.17262
1.17268
1.17274
1.17281
1.17287
1.17293
1.173
1.17307
1.17313
1.17319
1.17104
1.17102
1.171
1.17098
1.17096
1.17094
1.17092
1.17089
1.17086
1.17083
1.1708
1.17076
1.17071
1.17066
1.1706
1.17055
1.17048
1.17042
1.17036
1.17029
1.17023
1.17016
1.17157
1.17158
1.17159
1.1716
1.1716
1.17161
1.17162
1.17162
1.17163
1.17164
1.17165
1.17167
1.17169
1.17171
1.17173
1.17175
1.17178
1.1718
1.17183
1.17185
1.17188
1.1719
1.17128
1.17127
1.17126
1.17125
1.17124
1.17123
1.17122
1.17121
1.17119
1.17117
1.17115
1.17113
1.1711
1.17108
1.17105
1.17102
1.171
1.17096
1.17093
1.1709
1.17086
1.17082
1.17137
1.17137
1.17137
1.17137
1.17137
1.17136
1.17136
1.17136
1.17136
1.17135
1.17135
1.17135
1.17135
1.17134
1.17134
1.17134
1.17134
1.17134
1.17134
1.17135
1.17135
1.17135
1.17128
1.17128
1.17127
1.17126
1.17126
1.17125
1.17124
1.17123
1.17122
1.17121
1.1712
1.17118
1.17117
1.17115
1.17113
1.17111
1.1711
1.17108
1.17106
1.17104
1.17102
1.17099
1.17127
1.17126
1.17126
1.17125
1.17125
1.17124
1.17123
1.17122
1.17122
1.17121
1.1712
1.17119
1.17118
1.17117
1.17116
1.17115
1.17115
1.17114
1.17113
1.17113
1.17112
1.17111
1.17122
1.17121
1.17121
1.1712
1.17119
1.17119
1.17118
1.17117
1.17116
1.17115
1.17113
1.17112
1.17111
1.17109
1.17108
1.17107
1.17105
1.17104
1.17102
1.17101
1.17099
1.17097
1.17119
1.17118
1.17117
1.17117
1.17116
1.17115
1.17114
1.17113
1.17112
1.17111
1.1711
1.17108
1.17107
1.17106
1.17105
1.17104
1.17102
1.17101
1.171
1.17099
1.17098
1.17097
1.17115
1.17114
1.17113
1.17112
1.17112
1.17111
1.1711
1.17109
1.17108
1.17106
1.17105
1.17104
1.17102
1.17101
1.171
1.17098
1.17097
1.17096
1.17094
1.17093
1.17092
1.1709
1.17111
1.1711
1.17109
1.17109
1.17108
1.17107
1.17106
1.17105
1.17104
1.17102
1.17101
1.171
1.17098
1.17097
1.17096
1.17094
1.17093
1.17092
1.17091
1.17089
1.17088
1.17087
1.17107
1.17107
1.17106
1.17105
1.17104
1.17103
1.17102
1.17101
1.171
1.17098
1.17097
1.17096
1.17094
1.17093
1.17092
1.1709
1.17089
1.17088
1.17086
1.17085
1.17084
1.17083
1.17104
1.17103
1.17102
1.17101
1.171
1.17099
1.17098
1.17097
1.17096
1.17095
1.17093
1.17092
1.17091
1.17089
1.17088
1.17087
1.17085
1.17084
1.17083
1.17082
1.1708
1.17079
1.17101
1.171
1.17099
1.17098
1.17097
1.17096
1.17095
1.17094
1.17092
1.17091
1.1709
1.17089
1.17087
1.17086
1.17084
1.17083
1.17082
1.17081
1.17079
1.17078
1.17077
1.17076
1.17098
1.17097
1.17096
1.17095
1.17094
1.17093
1.17092
1.1709
1.17089
1.17088
1.17087
1.17085
1.17084
1.17083
1.17081
1.1708
1.17079
1.17077
1.17076
1.17075
1.17074
1.17073
1.17095
1.17094
1.17093
1.17092
1.17091
1.1709
1.17089
1.17087
1.17086
1.17085
1.17084
1.17082
1.17081
1.1708
1.17078
1.17077
1.17076
1.17075
1.17073
1.17072
1.17071
1.1707
1.17092
1.17091
1.1709
1.17089
1.17088
1.17087
1.17086
1.17085
1.17083
1.17082
1.17081
1.1708
1.17078
1.17077
1.17076
1.17074
1.17073
1.17072
1.17071
1.17069
1.17068
1.17068
1.17089
1.17088
1.17087
1.17086
1.17085
1.17084
1.17083
1.17082
1.17081
1.1708
1.17078
1.17077
1.17076
1.17074
1.17073
1.17072
1.17071
1.17069
1.17068
1.17067
1.17066
1.17065
1.37023
1.37016
1.37014
1.37014
1.37016
1.3702
1.37029
1.37041
1.37057
1.37075
1.37095
1.37116
1.37135
1.37154
1.3717
1.37187
1.37201
1.37212
1.37215
1.37208
1.37197
1.37213
1.37304
1.37466
1.37653
1.3782
1.37956
1.3806
1.3814
1.38206
1.38261
1.38307
1.38347
1.38386
1.38427
1.02493
1.02513
1.02536
1.02561
1.02585
1.02611
1.02637
1.02663
1.02691
1.02719
1.02748
1.02777
1.02804
1.02833
1.02865
1.02895
1.02918
1.02932
1.02937
1.02934
1.02906
1.02854
1.02748
1.02573
1.0245
1.02457
1.02547
1.02692
1.02849
1.02997
1.03142
1.03294
1.03453
1.03584
1.03658
1.2836
1.28361
1.28362
1.28366
1.2837
1.28375
1.28382
1.28382
1.28372
1.28352
1.28322
1.28278
1.28212
1.28109
1.27963
1.27791
1.27591
1.27363
1.2713
1.26965
1.26828
1.26707
1.26651
1.26477
1.26336
1.26323
1.26382
1.26502
1.26643
1.26768
1.26857
1.26899
1.26893
1.26849
1.26767
1.08794
1.08821
1.08849
1.08875
1.08902
1.0893
1.08956
1.0899
1.09043
1.09121
1.09225
1.09354
1.09508
1.09685
1.09864
1.10006
1.10099
1.10152
1.10147
1.10092
1.10042
1.10012
1.10081
1.1015
1.10189
1.10205
1.10223
1.10227
1.10231
1.10227
1.10202
1.10163
1.10114
1.10057
1.09977
1.22612
1.22576
1.22536
1.22493
1.22445
1.22392
1.22334
1.22264
1.22188
1.22102
1.22
1.21882
1.21751
1.21607
1.21458
1.21326
1.21221
1.21133
1.21026
1.20909
1.2085
1.20899
1.20909
1.20886
1.20792
1.20688
1.20605
1.2053
1.20454
1.20377
1.20305
1.20239
1.20177
1.2012
1.20063
1.13577
1.13592
1.1361
1.13628
1.13648
1.13671
1.13697
1.13727
1.13757
1.13797
1.13854
1.13922
1.14002
1.14096
1.1419
1.14265
1.14326
1.14377
1.14418
1.14459
1.14514
1.1457
1.14649
1.14703
1.14727
1.14738
1.14736
1.14727
1.14712
1.14693
1.14672
1.14649
1.14625
1.14597
1.14559
1.19665
1.19653
1.19634
1.19614
1.19591
1.19565
1.19537
1.19507
1.19474
1.1943
1.19372
1.19308
1.19245
1.19184
1.1913
1.19091
1.19059
1.19024
1.18983
1.18937
1.18885
1.18827
1.18768
1.1873
1.18694
1.18652
1.18612
1.18574
1.18538
1.18506
1.18478
1.18453
1.1843
1.18409
1.18388
1.15527
1.15531
1.15538
1.15545
1.15553
1.15562
1.15572
1.15583
1.15593
1.15606
1.1562
1.15638
1.15659
1.15685
1.15716
1.15741
1.15754
1.1576
1.15765
1.15772
1.15781
1.15783
1.1577
1.15754
1.15744
1.15748
1.15761
1.15776
1.15789
1.15798
1.15804
1.15806
1.15805
1.15805
1.15806
1.1829
1.18289
1.18285
1.1828
1.18275
1.1827
1.18265
1.18258
1.1825
1.1824
1.18229
1.18219
1.18206
1.18193
1.18177
1.18169
1.18169
1.18173
1.18176
1.18175
1.18164
1.18144
1.18117
1.18086
1.1806
1.18044
1.18033
1.18026
1.18022
1.1802
1.18019
1.18019
1.18021
1.18024
1.18029
1.16407
1.16406
1.16408
1.16409
1.1641
1.16412
1.16415
1.16417
1.1642
1.16422
1.16422
1.16421
1.16419
1.16413
1.1641
1.16404
1.16398
1.16392
1.16385
1.16377
1.16372
1.16369
1.16366
1.16365
1.16365
1.16365
1.16366
1.16368
1.1637
1.16372
1.16373
1.16374
1.16375
1.16375
1.16375
1.17628
1.17629
1.17628
1.17628
1.17627
1.17626
1.17624
1.17622
1.1762
1.17619
1.17617
1.17617
1.17617
1.17619
1.17623
1.17629
1.17636
1.17642
1.17649
1.17654
1.17657
1.17658
1.17657
1.17655
1.17652
1.1765
1.17648
1.17646
1.17644
1.17643
1.17642
1.1764
1.1764
1.17639
1.17638
1.16828
1.16827
1.16827
1.16827
1.16827
1.16828
1.16828
1.16829
1.16829
1.16829
1.16828
1.16827
1.16823
1.16817
1.16809
1.16798
1.16785
1.16772
1.16758
1.16745
1.16733
1.16723
1.16715
1.16709
1.16704
1.16701
1.16699
1.16698
1.16698
1.16699
1.16701
1.16702
1.16704
1.16706
1.16708
1.17327
1.17327
1.17327
1.17326
1.17325
1.17324
1.17323
1.17321
1.1732
1.17318
1.17317
1.17315
1.17315
1.17316
1.17319
1.17324
1.17331
1.17339
1.17347
1.17356
1.17365
1.17372
1.17378
1.17382
1.17384
1.17385
1.17386
1.17386
1.17386
1.17385
1.17384
1.17383
1.17381
1.1738
1.17378
1.17011
1.17011
1.1701
1.1701
1.1701
1.1701
1.17011
1.17011
1.17011
1.17011
1.1701
1.17009
1.17007
1.17003
1.16997
1.16989
1.1698
1.16969
1.16957
1.16945
1.16932
1.16918
1.16906
1.16897
1.16889
1.16885
1.16882
1.1688
1.16879
1.1688
1.1688
1.16882
1.16883
1.16885
1.16886
1.17193
1.17193
1.17192
1.17192
1.17192
1.17191
1.1719
1.17189
1.17187
1.17186
1.17184
1.17182
1.17181
1.17181
1.17181
1.17183
1.17186
1.1719
1.17194
1.172
1.17207
1.17214
1.17222
1.17228
1.17233
1.17237
1.17239
1.17241
1.17241
1.1724
1.17239
1.17238
1.17237
1.17235
1.17233
1.1708
1.17079
1.17079
1.17078
1.17078
1.17078
1.17078
1.17078
1.17078
1.17077
1.17077
1.17076
1.17074
1.17072
1.17068
1.17063
1.17057
1.17051
1.17043
1.17035
1.17026
1.17016
1.17006
1.16997
1.16989
1.16983
1.16978
1.16975
1.16973
1.16973
1.16973
1.16973
1.16974
1.16975
1.16976
1.17137
1.17136
1.17136
1.17136
1.17135
1.17135
1.17134
1.17133
1.17132
1.1713
1.17129
1.17127
1.17126
1.17124
1.17123
1.17123
1.17123
1.17123
1.17125
1.17127
1.17129
1.17133
1.17138
1.17142
1.17146
1.17149
1.17151
1.17153
1.17154
1.17154
1.17154
1.17153
1.17152
1.17151
1.17149
1.17097
1.17097
1.17096
1.17096
1.17096
1.17095
1.17095
1.17095
1.17094
1.17094
1.17093
1.17092
1.17091
1.17089
1.17087
1.17084
1.1708
1.17076
1.17072
1.17067
1.17062
1.17056
1.1705
1.17045
1.1704
1.17036
1.17032
1.1703
1.17028
1.17027
1.17027
1.17026
1.17026
1.17026
1.17026
1.17111
1.17111
1.1711
1.1711
1.17109
1.17109
1.17108
1.17107
1.17106
1.17105
1.17104
1.17103
1.17101
1.171
1.17098
1.17097
1.17096
1.17095
1.17094
1.17094
1.17094
1.17095
1.17097
1.17098
1.171
1.17101
1.17103
1.17103
1.17104
1.17104
1.17104
1.17103
1.17103
1.17102
1.17101
1.17097
1.17096
1.17096
1.17095
1.17095
1.17094
1.17094
1.17093
1.17093
1.17092
1.17091
1.17091
1.17089
1.17088
1.17086
1.17084
1.17082
1.17079
1.17077
1.17074
1.17071
1.17068
1.17064
1.17061
1.17059
1.17056
1.17054
1.17052
1.17051
1.1705
1.1705
1.17049
1.17049
1.17049
1.17048
1.17097
1.17096
1.17096
1.17096
1.17095
1.17095
1.17094
1.17093
1.17093
1.17092
1.17091
1.1709
1.17089
1.17087
1.17086
1.17084
1.17083
1.17081
1.1708
1.17079
1.17078
1.17078
1.17077
1.17077
1.17078
1.17078
1.17078
1.17078
1.17078
1.17078
1.17078
1.17078
1.17077
1.17077
1.17076
1.1709
1.17089
1.17089
1.17089
1.17088
1.17088
1.17087
1.17087
1.17086
1.17086
1.17085
1.17084
1.17083
1.17082
1.1708
1.17078
1.17077
1.17075
1.17073
1.17071
1.17069
1.17067
1.17065
1.17063
1.17062
1.1706
1.17059
1.17058
1.17057
1.17057
1.17056
1.17056
1.17055
1.17055
1.17055
1.17087
1.17086
1.17086
1.17086
1.17085
1.17085
1.17084
1.17084
1.17083
1.17082
1.17082
1.17081
1.1708
1.17078
1.17077
1.17076
1.17074
1.17073
1.17071
1.1707
1.17069
1.17068
1.17067
1.17067
1.17066
1.17066
1.17066
1.17066
1.17065
1.17065
1.17065
1.17065
1.17064
1.17064
1.17063
1.17082
1.17082
1.17082
1.17081
1.17081
1.1708
1.1708
1.1708
1.17079
1.17078
1.17078
1.17077
1.17076
1.17075
1.17073
1.17072
1.1707
1.17069
1.17068
1.17066
1.17065
1.17063
1.17062
1.17061
1.1706
1.17059
1.17058
1.17057
1.17057
1.17056
1.17056
1.17056
1.17055
1.17055
1.17054
1.17079
1.17078
1.17078
1.17078
1.17077
1.17077
1.17077
1.17076
1.17076
1.17075
1.17074
1.17073
1.17072
1.17071
1.1707
1.17069
1.17068
1.17066
1.17065
1.17064
1.17063
1.17061
1.17061
1.1706
1.17059
1.17059
1.17058
1.17058
1.17058
1.17058
1.17057
1.17057
1.17057
1.17056
1.17056
1.17075
1.17075
1.17075
1.17074
1.17074
1.17074
1.17073
1.17073
1.17072
1.17072
1.17071
1.1707
1.17069
1.17068
1.17067
1.17066
1.17065
1.17063
1.17062
1.17061
1.1706
1.17059
1.17058
1.17057
1.17056
1.17055
1.17055
1.17054
1.17054
1.17053
1.17053
1.17053
1.17053
1.17052
1.17052
1.17072
1.17072
1.17072
1.17071
1.17071
1.17071
1.1707
1.1707
1.17069
1.17069
1.17068
1.17067
1.17066
1.17065
1.17064
1.17063
1.17062
1.17061
1.1706
1.17058
1.17057
1.17056
1.17056
1.17055
1.17054
1.17054
1.17053
1.17053
1.17053
1.17053
1.17052
1.17052
1.17052
1.17052
1.17051
1.17069
1.17069
1.17069
1.17068
1.17068
1.17068
1.17067
1.17067
1.17066
1.17066
1.17065
1.17064
1.17063
1.17063
1.17061
1.1706
1.17059
1.17058
1.17057
1.17056
1.17055
1.17054
1.17053
1.17053
1.17052
1.17051
1.17051
1.17051
1.1705
1.1705
1.1705
1.1705
1.1705
1.17049
1.17049
1.17066
1.17066
1.17066
1.17066
1.17065
1.17065
1.17065
1.17064
1.17064
1.17063
1.17062
1.17062
1.17061
1.1706
1.17059
1.17058
1.17057
1.17056
1.17055
1.17054
1.17053
1.17052
1.17051
1.17051
1.1705
1.1705
1.17049
1.17049
1.17049
1.17049
1.17049
1.17048
1.17048
1.17048
1.17048
1.17064
1.17064
1.17064
1.17063
1.17063
1.17063
1.17062
1.17062
1.17061
1.17061
1.1706
1.17059
1.17058
1.17057
1.17056
1.17055
1.17054
1.17053
1.17053
1.17052
1.17051
1.1705
1.17049
1.17049
1.17048
1.17048
1.17048
1.17048
1.17047
1.17047
1.17047
1.17047
1.17047
1.17046
1.17046
1.17044
1.17045
1.17045
1.17045
1.17045
1.17045
1.17045
1.17045
1.17045
1.17046
1.17046
1.17046
1.17047
1.17047
1.17048
1.17049
1.17049
1.1705
1.17051
1.17052
1.17053
1.17054
1.17054
1.17055
1.17056
1.17057
1.17057
1.17058
1.17058
1.17059
1.17059
1.1706
1.1706
1.1706
1.1706
1.17043
1.17043
1.17043
1.17043
1.17043
1.17043
1.17043
1.17043
1.17044
1.17044
1.17044
1.17044
1.17045
1.17045
1.17046
1.17046
1.17047
1.17047
1.17048
1.17049
1.1705
1.17051
1.17052
1.17052
1.17053
1.17054
1.17054
1.17055
1.17056
1.17056
1.17056
1.17057
1.17057
1.17058
1.17057
1.17041
1.17042
1.17042
1.17042
1.17042
1.17042
1.17042
1.17042
1.17042
1.17042
1.17042
1.17042
1.17043
1.17043
1.17043
1.17044
1.17044
1.17045
1.17046
1.17046
1.17047
1.17048
1.17049
1.1705
1.1705
1.17051
1.17052
1.17052
1.17053
1.17054
1.17054
1.17054
1.17055
1.17055
1.17055
1.1704
1.1704
1.1704
1.1704
1.1704