/*--------------------------------*- C++ -*----------------------------------*\
  =========                 |
  \\      /  F ield         | OpenFOAM: The Open Source CFD Toolbox
   \\    /   O peration     | Website:  https://openfoam.org
    \\  /    A nd           | Version:  8
     \\/     M anipulation  |
\*---------------------------------------------------------------------------*/
FoamFile
{
    version     2.0;
    format      ascii;
    class       volScalarField;
    location    "0.5";
    object      p;
}
// * * * * * * * * * * * * * * * * * * * * * * * * * * * * * * * * * * * * * //

dimensions      [0 2 -2 0 0 0 0];

internalField   nonuniform List<scalar> 
15677
(
74.6013
74.2447
73.832
74.3092
73.8202
73.8338
74.2843
73.8474
73.8432
73.7274
74.2589
73.8487
73.8435
73.7365
73.636
74.2371
73.851
73.8434
73.7357
73.6436
73.5399
74.2137
73.8533
73.843
73.7368
73.6435
73.5465
73.4254
74.1885
73.8559
73.8422
73.7371
73.6445
73.5465
73.4312
73.2887
74.1624
73.8589
73.8407
73.7372
73.645
73.5475
73.4313
73.2938
73.1225
74.1351
73.861
73.8388
73.737
73.6455
73.548
73.4323
73.294
73.1269
72.9193
74.1065
73.8625
73.8361
73.7366
73.6458
73.5487
73.433
73.2951
73.1273
72.9229
72.6712
74.077
73.8641
73.8328
73.7364
73.6462
73.5493
73.4339
73.296
73.1285
72.9234
72.6741
72.37
74.047
73.8652
73.8295
73.7365
73.6468
73.5502
73.4349
73.2971
73.1296
72.9249
72.6748
72.3722
72.0074
74.0173
73.8653
73.826
73.7369
73.6478
73.5515
73.4363
73.2986
73.1311
72.9263
72.6764
72.373
72.0087
71.5749
73.9906
73.864
73.8225
73.7377
73.6495
73.5534
73.4384
73.3007
73.1332
72.9283
72.6783
72.375
72.0097
71.5751
71.0643
73.9678
73.8619
73.819
73.7391
73.6522
73.5565
73.4417
73.3039
73.1362
72.9312
72.681
72.3774
72.012
71.5765
71.0636
70.4682
73.9478
73.8599
73.8161
73.7411
73.656
73.5611
73.4465
73.3086
73.1407
72.9353
72.6848
72.3809
72.0151
71.5791
71.0652
70.4664
69.7798
73.9304
73.8578
73.8139
73.7437
73.6615
73.5676
73.4535
73.3156
73.1473
72.9414
72.6904
72.3859
72.0196
71.583
71.0683
70.4682
69.7767
68.9934
73.9153
73.8559
73.8123
73.7466
73.6681
73.5766
73.4635
73.3257
73.1571
72.9505
72.6986
72.3932
72.026
71.5886
71.073
70.4718
69.7788
68.9889
68.1047
73.9022
73.854
73.8113
73.75
73.6755
73.5876
73.4772
73.34
73.1711
72.9638
72.7106
72.4039
72.0354
71.5968
71.08
70.4775
69.7829
68.9913
68.0985
67.1107
73.891
73.8524
73.8108
73.7539
73.6835
73.5996
73.4938
73.3595
73.1909
72.9828
72.7283
72.4197
72.0492
71.6086
71.0901
70.486
69.7897
68.9959
68.1013
67.1028
66.0104
73.8821
73.8508
73.8108
73.7581
73.6922
73.6128
73.5119
73.3833
73.2179
73.0094
72.7534
72.4426
72.0694
71.626
71.1047
70.4983
69.7998
69.0038
68.1064
67.1059
66.0006
64.8044
73.8752
73.8493
73.8112
73.7628
73.7015
73.6269
73.5317
73.4091
73.2508
73.0459
72.7887
72.4754
72.0987
71.6514
71.1262
70.5161
69.8145
69.0157
68.1155
67.1115
66.004
64.7927
63.4959
73.87
73.8479
73.8121
73.7677
73.7113
73.642
73.553
73.4374
73.2865
73.0903
72.837
72.5212
72.1405
71.6882
71.1577
70.5422
69.8358
69.0329
68.1291
67.1218
66.0101
64.7963
63.4821
62.0895
73.8658
73.8468
73.8131
73.7727
73.7215
73.6578
73.5755
73.4678
73.3257
73.1387
72.8958
72.5839
72.199
71.7407
71.2031
70.5804
69.867
69.0579
68.1489
67.1371
66.0214
64.8027
63.4859
62.0734
60.5973
73.8626
73.8458
73.8142
73.7775
73.7315
73.6741
73.5991
73.5
73.3678
73.1917
72.9599
72.6603
72.2791
71.8141
71.2679
70.6356
69.9125
69.0945
68.1777
67.1595
66.0384
64.815
63.4924
62.0772
60.5784
59.0497
73.86
73.845
73.8153
73.7818
73.7407
73.6902
73.6235
73.5337
73.4124
73.2487
73.0302
72.7438
72.3768
71.9148
71.3586
70.7144
69.9786
69.148
68.2199
67.192
66.0631
64.8334
63.5052
62.0833
60.5796
58.9941
57.3861
73.8579
73.8444
73.8165
73.7857
73.7491
73.7049
73.6474
73.5685
73.4591
73.3092
73.1059
72.8355
72.4837
72.0377
71.4831
70.8246
70.0727
69.2256
68.2816
67.2397
66.0992
64.8602
63.5246
62.0963
60.5843
58.9968
57.319
55.5918
73.8561
73.8439
73.8175
73.7893
73.7566
73.7182
73.6694
73.6027
73.5075
73.3725
73.1863
72.9343
72.6012
72.1725
71.6355
70.9763
70.2047
69.3364
68.3714
67.3099
66.1523
64.8993
63.5529
62.116
60.5957
58.9977
57.3216
55.5616
53.7399
73.8547
73.8435
73.8184
73.7926
73.7633
73.7302
73.6892
73.634
73.5548
73.4381
73.2705
73.0392
72.728
72.3207
71.8027
71.1622
70.3867
69.4921
68.4999
67.4121
66.2306
64.9573
63.5944
62.1449
60.6139
59.0062
57.3159
55.5538
53.7285
51.8363
73.8535
73.8431
73.8191
73.7956
73.7693
73.7409
73.7069
73.6622
73.5983
73.5023
73.3578
73.1493
72.8629
72.481
71.9869
71.3665
70.6101
69.7072
68.6809
67.5589
66.3451
65.0432
63.6564
62.1877
60.6417
59.0217
57.3237
55.5444
53.7116
51.8308
49.6898
73.8526
73.8429
73.8198
73.7984
73.7747
73.7504
73.7228
73.6876
73.6375
73.5613
73.4434
73.2635
73.0045
72.6516
72.1864
71.5922
70.8564
69.9721
68.9316
67.7663
66.5103
65.1695
63.7488
62.2523
60.684
59.0469
57.3376
55.5537
53.703
51.8121
49.6876
47.2715
73.8517
73.8426
73.8204
73.8008
73.7794
73.7588
73.7369
73.7102
73.6727
73.6146
73.522
73.3756
73.1516
72.8311
72.3992
71.837
71.1289
70.2648
69.2412
68.0543
66.7443
65.3524
63.8857
62.3499
60.7494
59.0872
57.3611
55.5671
53.7128
51.8056
49.6698
47.2712
44.8256
73.851
73.8424
73.821
73.803
73.7836
73.7663
73.7494
73.7303
73.7041
73.6624
73.5931
73.4788
73.2963
73.0178
72.6234
72.0986
71.4252
70.5893
69.5841
68.4111
67.0706
65.6129
64.0853
62.4958
60.8502
59.1519
57.3998
55.5903
53.7263
51.8139
49.6632
47.2545
44.827
42.3946
73.8505
73.8423
73.8216
73.8049
73.7873
73.773
73.7605
73.7482
73.7321
73.7052
73.6569
73.572
73.4294
73.2016
72.857
72.3749
71.7425
70.943
69.9656
68.8076
67.4765
65.9776
64.371
62.7102
61.003
59.254
57.4635
55.6282
53.7495
51.8274
49.6682
47.2475
44.8124
42.3963
39.999
73.8421
73.8498
73.8221
73.8066
73.7907
73.7789
73.7704
73.7641
73.7569
73.7432
73.714
73.6559
73.55
73.3711
73.0875
72.6633
72.0783
71.3229
70.3823
69.2499
67.9289
66.4331
64.7732
63.0194
61.2301
59.4117
57.5663
55.6913
53.7865
51.8499
49.6803
47.2492
44.8052
42.3828
40.0005
37.6513
73.8225
73.842
73.849
73.8081
73.7936
73.7841
73.7791
73.7782
73.779
73.777
73.7649
73.7309
73.6584
73.5248
73.3003
72.9483
72.4297
71.7258
70.8311
69.7347
68.4354
66.9428
65.2779
63.4571
61.5602
59.649
57.7273
55.7942
53.8483
51.8851
49.7001
47.2585
44.804
42.3745
39.9877
37.652
35.3637
73.8094
73.8233
73.842
73.8483
73.7962
73.7888
73.7869
73.7906
73.7985
73.8071
73.8101
73.7977
73.7555
73.6632
73.4935
73.2121
72.7779
72.1485
71.3085
70.2584
68.9923
67.5155
65.845
64.0094
62.0305
59.9969
57.9725
55.9573
53.95
51.9442
49.7315
47.2737
44.8099
42.3697
39.9779
37.6398
35.3635
33.1473
73.7984
73.8111
73.8242
73.8419
73.8476
73.7928
73.7937
73.8017
73.8158
73.8337
73.8502
73.8572
73.8422
73.7872
73.6677
73.4519
73.1007
72.5686
71.811
70.8172
69.5959
68.1474
66.4847
64.6327
62.6275
60.4962
58.335
56.2078
54.113
52.0428
49.7856
47.2987
44.8195
42.371
39.9692
37.6281
35.3517
33.146
31.0104
73.7963
73.8015
73.8132
73.8251
73.8418
73.8469
73.7998
73.8115
73.8312
73.8573
73.8858
73.9101
73.9193
73.8979
73.824
73.6686
73.3949
72.9591
72.3117
71.4073
70.2423
68.8349
67.1933
65.3387
63.3045
61.134
58.859
56.5813
54.3658
52.2031
49.8782
47.3444
44.8366
42.3734
39.9647
37.6153
35.3378
33.1345
31.0081
28.9592
73.8049
73.8011
73.8049
73.8152
73.826
73.8418
73.8463
73.8201
73.8448
73.8782
73.9174
73.957
73.9879
73.9966
73.9638
73.8633
73.6612
73.3157
72.7786
71.9974
70.9273
69.5738
67.9671
66.1239
64.0746
61.8608
59.5325
57.1251
54.746
52.4545
50.0321
47.4267
44.8715
42.3808
39.9588
37.6044
35.3206
33.1181
30.9967
28.956
26.998
73.8274
73.8119
73.8061
73.8083
73.8173
73.8269
73.8417
73.8458
73.8569
73.8968
73.9454
73.9985
74.0488
74.0844
74.0885
74.0376
73.9008
73.6392
73.2061
72.5493
71.6148
70.36
68.8021
66.9849
64.9347
62.6911
60.3038
57.8282
55.3037
52.8366
50.2777
47.5687
44.94
42.4024
39.9548
37.5893
35.303
33.0965
30.9777
28.9445
26.9937
25.1291
73.867
73.8372
73.8188
73.8111
73.8116
73.8192
73.8278
73.8416
73.8452
73.9132
73.9703
74.0354
74.1028
74.1624
74.1995
74.1932
74.1157
73.9308
73.5947
73.0562
72.2601
71.1522
69.6943
67.918
65.8819
63.6225
61.1888
58.6372
56.029
53.4016
50.6563
47.8019
45.0655
42.4539
39.9608
37.5725
35.2779
33.0718
30.9517
28.9228
26.9822
25.1241
23.3539
73.9269
73.8805
73.8464
73.8258
73.816
73.8149
73.8211
73.8287
73.8416
73.8448
73.9923
74.0682
74.1507
74.2316
74.2982
74.3319
74.3078
74.1928
73.9459
73.5181
72.8546
71.8985
70.5972
68.9193
66.9131
64.653
62.1862
59.5699
56.8679
54.1407
51.2213
48.1685
45.2802
42.559
39.9926
37.5612
35.2473
33.0363
30.9196
28.8924
26.9578
25.1123
23.3481
21.6722
74.0106
73.9451
73.8926
73.8559
73.8327
73.8208
73.8181
73.823
73.8296
73.8416
73.8443
74.0973
74.1934
74.2931
74.3858
74.4553
74.4792
74.4274
74.2619
73.9366
73.398
72.5886
71.4514
69.9376
68.0248
65.7802
63.2951
60.6262
57.8397
55.0002
51.9662
48.7222
45.6261
42.7497
40.0738
37.5713
35.2175
32.9911
30.8735
28.8529
26.923
25.0852
23.3361
21.6656
20.0829
74.1214
74.0348
73.9608
73.9051
73.8652
73.8393
73.8254
73.8211
73.8248
73.8305
73.8415
73.8439
74.2311
74.3479
74.4637
74.565
74.6318
74.6369
74.5454
74.314
73.8916
73.2214
72.2442
70.905
69.1609
67.0013
64.5138
61.8062
58.946
56.0014
52.8381
49.4594
46.156
43.0664
40.2353
37.6256
35.2042
32.942
30.8133
28.7959
26.8761
25.0463
23.3064
21.6534
20.0756
18.584
74.2623
74.1532
74.0548
73.9771
73.9173
73.874
73.8456
73.8299
73.824
73.8265
73.8313
73.8415
73.8436
74.3963
74.5331
74.6626
74.7677
74.8238
74.799
74.6531
74.3379
73.7978
72.9736
71.8064
70.2452
68.2556
65.8409
63.1097
60.188
57.1468
53.86
50.3297
46.8702
43.5614
40.5157
37.7535
35.2295
32.9044
30.7444
28.7206
26.8083
24.9921
23.2634
21.6212
20.0632
18.5762
17.1731
74.4362
74.3038
74.1784
74.0757
73.9928
73.9289
73.8825
73.8517
73.8341
73.8268
73.8281
73.8321
73.8415
73.8433
74.5946
74.7497
74.8886
74.9903
75.0256
74.9571
74.7397
74.3203
73.6402
72.6389
71.2599
69.4586
67.2113
64.5367
61.5671
58.4396
55.0358
51.3568
47.7214
44.2384
40.9655
37.9913
35.32
32.8987
30.6817
28.6318
26.7178
24.9135
23.202
21.5743
20.0285
18.5635
17.1647
15.847
74.6449
74.4895
74.3353
74.205
74.0959
74.0078
73.9399
73.8905
73.8575
73.8382
73.8295
73.8296
73.8329
73.8414
73.843
74.8267
74.9966
75.1386
75.2276
75.2291
75.1007
74.792
74.2461
73.4022
72.2006
70.5893
68.5323
66.0184
63.0853
59.8829
56.3708
52.5465
48.7334
45.0539
41.5922
38.3871
35.51
32.9491
30.6439
28.5438
26.6093
24.8081
23.113
21.5059
19.9779
18.5264
17.1517
15.8381
14.6024
74.8895
74.7128
74.5287
74.3688
74.2306
74.1149
74.0218
73.9502
73.8981
73.8629
73.8419
73.8319
73.8311
73.8336
73.8414
73.8428
75.0921
75.2713
75.4078
75.472
75.4242
75.2166
74.7945
74.0982
73.0662
71.6419
69.7798
67.4544
64.6711
61.481
57.8703
53.9064
49.914
46.031
42.3561
38.9513
35.8442
33.0871
30.6522
28.473
26.4962
24.6803
22.993
21.4068
19.9027
18.4723
17.1125
15.8249
14.5931
13.4358
75.1696
74.9753
74.7614
74.5707
74.401
74.2545
74.1327
74.035
73.9599
73.9051
73.8679
73.8454
73.8342
73.8324
73.8342
73.8414
73.8426
75.3885
75.5692
75.689
75.7135
75.5978
75.2893
74.7298
73.8581
72.614
70.9459
68.8169
66.2163
63.1599
59.5411
55.4451
51.2734
47.1794
43.2787
39.6482
36.3349
33.3535
30.7352
28.4381
26.3921
24.5422
22.8465
21.2728
19.7939
18.3907
17.0551
15.7835
14.5796
13.426
12.3437
75.4832
75.2773
75.0351
74.8136
74.6108
74.4309
74.2767
74.1491
74.0471
73.9687
73.9115
73.8725
73.8486
73.8363
73.8335
73.8348
73.8414
73.8424
75.7117
75.8836
75.9724
75.9393
75.7345
75.3012
74.5789
73.5063
72.0271
70.0962
67.6897
64.8048
61.3086
57.1728
52.8229
48.5106
44.3704
40.4969
36.9509
33.7612
30.9288
28.4641
26.3133
24.4051
22.684
21.1082
19.6464
18.2725
16.9673
15.7231
14.5363
13.4123
12.3332
11.3216
75.8262
75.6173
75.3506
75.0999
74.8634
74.6479
74.4584
74.2971
74.1641
74.0581
73.9768
73.9174
73.8767
73.8514
73.838
73.8344
73.8352
73.8414
73.8423
76.0552
76.2049
76.2455
76.1342
75.8165
75.2326
74.321
73.0229
71.2871
69.0791
66.3813
63.0524
59.0157
54.5752
50.0373
45.6426
41.5064
37.7065
34.2834
31.2455
28.5812
26.2813
24.2824
22.5144
20.9218
19.4645
18.1123
16.8403
15.6294
14.473
13.3672
12.3193
11.3102
10.3704
76.1923
75.9921
75.707
75.4307
75.1615
74.9093
74.6819
74.4835
74.3156
74.1777
74.068
73.984
73.9225
73.8802
73.8538
73.8395
73.8352
73.8356
73.8414
73.8422
76.4097
76.5211
76.4932
76.28
75.8236
75.062
73.9352
72.3878
70.3776
67.8751
64.7343
60.8466
56.4553
51.7711
47.1065
42.6864
38.6089
34.9287
31.6629
28.8005
26.319
24.192
22.3483
20.7206
19.2552
17.9139
16.6679
15.4941
14.3737
13.3013
12.2724
11.2962
10.3532
9.5768
76.5723
76.3963
76.1019
75.8058
75.5066
75.2179
74.951
74.7127
74.5061
74.3321
74.1896
74.0766
73.9902
73.9268
73.8832
73.8558
73.8407
73.8359
73.836
73.8414
73.8421
76.7632
76.8169
76.6972
76.3563
75.7335
74.7673
73.3993
71.5821
69.2773
66.3363
62.6199
58.3289
53.6378
48.7738
44.0481
39.6663
35.7021
32.1835
29.1047
26.4368
24.149
22.1998
20.5121
19.0233
17.6825
16.4538
15.3103
14.2306
13.1968
12.2042
11.248
10.34
9.5707
8.90799
76.9541
76.8219
76.5304
76.2233
75.899
75.5758
75.269
74.9885
74.7401
74.5259
74.3463
74.1999
74.0839
73.9953
73.9303
73.8856
73.8574
73.8418
73.8364
73.8363
73.8414
73.842
77.1007
77.0743
76.837
76.3402
75.5232
74.3245
72.6927
70.5831
67.8451
64.3114
60.1465
55.5062
50.5819
45.6092
40.8938
36.6129
32.8115
29.4903
26.6223
24.163
22.0757
20.3062
18.7736
17.4211
16.2014
15.0814
14.0361
13.0464
12.0949
11.178
10.2904
9.56382
8.91507
8.21286
77.3225
77.258
76.9854
76.6795
76.3377
75.9838
75.6382
75.3146
75.0216
74.7638
74.5428
74.3583
74.2083
74.0897
73.9992
73.933
73.8874
73.8587
73.8426
73.8369
73.8365
73.8415
73.842
77.4038
77.2726
76.8891
76.2077
75.1672
73.7116
71.7907
69.2522
65.9052
61.8861
57.3348
52.416
47.3293
42.3208
37.6829
33.5582
29.9613
26.8664
24.2269
21.9856
20.102
18.5118
17.1318
15.9117
14.8089
13.7932
12.8419
11.9377
11.0641
10.219
9.51351
8.9095
8.21329
7.46093
77.6588
77.6907
77.4572
77.1682
76.8196
76.4415
76.06
75.6937
75.3545
75.05
74.7837
74.5567
74.3678
74.2146
74.0939
74.0021
73.935
73.8889
73.8597
73.8432
73.8373
73.8367
73.8415
73.8419
77.6516
77.3878
76.8287
75.9321
74.6421
72.9011
70.5544
67.3936
63.5365
59.11
54.2469
49.1149
43.932
38.9542
34.453
30.5317
27.1735
24.3265
21.9274
19.9089
18.2291
16.8157
15.5845
14.4924
13.5018
12.5858
11.7237
10.9007
10.1008
9.44175
8.86037
8.20241
7.45385
6.63685
77.9412
78.103
77.9329
77.6808
77.3397
76.9465
76.5345
76.1274
75.7418
75.3883
75.0734
74.7997
74.5674
74.3747
74.219
74.0968
74.004
73.9365
73.8899
73.8605
73.8437
73.8376
73.8369
73.8415
73.8419
77.8194
77.3945
76.6282
75.4883
73.9166
71.7522
68.7752
65.0932
60.823
56.0634
50.9436
45.6539
40.4352
35.5492
31.2375
27.5595
24.4663
21.8823
19.7302
17.9358
16.4571
15.2163
14.129
13.1598
12.2764
11.4553
10.6778
9.93167
9.31996
8.78755
8.15332
7.43843
6.6268
5.73918
78.1444
78.4748
78.3967
78.206
77.8903
77.4947
77.06
76.6164
76.1855
75.7822
75.4158
75.0917
74.8114
74.5746
74.379
74.2217
74.0985
74.0052
73.9373
73.8905
73.861
73.8441
73.8378
73.837
73.8414
73.8419
77.8811
77.2644
76.2606
74.8415
72.8481
70.052
66.5547
62.4656
57.8505
52.7991
47.4653
42.0701
36.8753
32.1401
28.0654
24.6634
21.8544
19.5426
17.6396
16.0671
14.7849
13.711
12.7622
11.9105
11.1291
10.3978
9.70047
9.14617
8.66299
8.07837
7.38779
6.61005
5.72791
4.76498
78.2401
78.7827
78.8295
78.7293
78.4616
78.0798
77.6334
77.1598
76.6868
76.234
75.8146
75.4369
75.1047
74.8188
74.5785
74.3811
74.2228
74.0992
74.0056
73.9377
73.8909
73.8612
73.8443
73.838
73.8371
73.8414
73.8419
77.8068
76.9685
75.6879
73.8472
71.2269
67.9205
64.0293
59.5902
54.6567
49.3431
43.8376
38.3928
33.2842
28.7568
24.9612
21.861
19.3491
17.3131
15.6577
14.3025
13.2104
12.2969
11.4805
10.7405
10.0558
9.40961
8.90814
8.48514
7.95077
7.30966
6.55767
5.71074
4.75281
3.70784
78.1966
79.0011
79.2088
79.2332
79.0404
78.693
78.2494
77.7553
77.2453
76.7451
76.2724
75.8388
75.4511
75.112
74.8221
74.5796
74.3812
74.2225
74.0988
74.0054
73.9376
73.8908
73.8613
73.8446
73.8382
73.8372
73.8414
73.8419
77.565
76.4663
74.7645
72.3047
69.1897
65.5066
61.2652
56.489
51.2545
45.7099
40.0815
34.6491
29.691
25.4256
21.945
19.1658
16.958
15.1975
13.7848
12.6402
11.7308
10.9707
10.2801
9.64601
9.05273
8.60846
8.2415
7.76838
7.1785
6.47605
5.65673
4.73473
3.6951
2.56069
77.977
79.102
79.5095
79.697
79.6111
79.3227
78.9003
78.3983
77.8594
77.3159
76.7909
76.3005
75.8545
75.4582
75.1143
74.8218
74.5783
74.3795
74.221
74.0977
74.0046
73.937
73.8905
73.8616
73.8449
73.8383
73.8372
73.8414
73.8419
77.1118
75.6102
73.3025
70.3639
66.8905
62.8607
58.2704
53.1643
47.6493
41.9127
36.2187
30.8664
26.1234
22.1695
19.0332
16.5879
14.6863
13.197
12.0199
11.0778
10.343
9.72837
9.15703
8.6231
8.23949
7.93429
7.51867
6.991
6.34088
5.5718
4.67908
3.67587
2.5477
1.31641
77.5314
79.0543
79.7031
80.097
80.1544
79.9546
79.5759
79.0825
78.5256
77.9452
77.371
76.8239
76.3179
75.8613
75.4591
75.1121
74.8184
74.5747
74.3764
74.2185
74.0958
74.0032
73.9361
73.8908
73.8622
73.8451
73.8383
73.8371
73.8414
73.842
76.2958
74.2296
71.4601
68.178
64.3639
59.9799
55.0404
49.6151
43.8473
37.9674
32.2734
27.0727
22.6072
19.0081
16.2383
14.134
12.5362
11.3111
10.3607
9.61217
9.04301
8.56606
8.1074
7.79375
7.55515
7.2033
6.73464
6.1477
5.43233
4.59093
3.61855
2.52768
1.30328
-0.0326104
78.8158
76.7084
79.7567
80.4067
80.6483
80.5715
80.2637
79.7991
79.2386
78.6305
78.012
77.4102
76.8436
76.3244
75.8604
75.4544
75.106
74.8123
74.5693
74.3719
74.215
74.0931
74.0013
73.9361
73.8916
73.8624
73.8451
73.8382
73.837
73.8414
73.842
74.9667
72.4856
69.386
65.7685
61.5994
56.8554
51.5692
45.8415
39.8582
33.8936
28.2729
23.2964
19.1664
15.9576
13.5696
11.8079
10.508
9.53798
8.80437
8.23945
7.82687
7.4798
7.2564
7.09587
6.81316
6.41039
5.88406
5.23292
4.44681
3.52703
2.46846
1.28271
-0.0458913
-1.49441
79.6316
78.243
75.3635
80.5937
81.0683
81.1528
80.948
80.5369
79.9908
79.3674
78.7123
78.0595
77.4332
76.8501
76.3214
75.8526
75.445
75.0966
74.8039
74.5622
74.3663
74.2105
74.0897
74.001
73.9374
73.892
73.8624
73.8449
73.838
73.8369
73.8414
73.8421
73.2896
70.5204
67.0918
63.1191
58.5861
53.4786
47.8529
41.8477
35.6962
29.7158
24.2469
19.5659
15.8223
13.0313
11.0333
9.61092
8.60031
7.87476
7.34693
6.95547
6.6905
6.5992
6.54034
6.33923
6.0083
5.55011
4.96135
4.24065
3.37786
2.37329
1.2214
-0.0670958
-1.50783
-3.0773
80.6218
79.2066
77.224
73.6871
81.3838
81.6758
81.6101
81.2822
80.7725
80.1497
79.4683
78.7705
78.087
77.4399
76.8447
76.31
75.8391
75.4315
75.0843
74.7935
74.5538
74.3594
74.205
74.0889
74.0028
73.9379
73.892
73.8621
73.8445
73.8378
73.8367
73.8414
73.8422
71.4005
68.3394
64.5567
60.218
55.314
49.8429
43.8908
37.6415
31.3806
25.4625
20.2268
15.9083
12.5936
10.239
8.63254
7.54255
6.81049
6.3175
5.98409
5.75603
5.76958
5.85835
5.76403
5.51852
5.13508
4.61685
3.96048
3.1644
2.21861
1.1224
-0.130451
-1.52974
-3.0908
-4.78981
81.5623
80.3852
78.3397
75.8856
71.8116
82.1122
82.2291
82.0177
81.5716
80.9689
80.2748
79.5405
78.8043
78.0947
77.4322
76.8293
76.2916
75.8206
75.4145
75.0697
74.7814
74.5436
74.3512
74.2036
74.0914
74.0035
73.9379
73.8916
73.8616
73.8443
73.8376
73.8365
73.8414
73.8423
69.3003
65.9177
61.7692
57.0553
51.7756
45.9444
39.685
33.2354
26.9356
21.1659
16.2448
12.3485
9.49565
7.58708
6.36845
5.60076
5.13466
4.86176
4.71147
4.78442
4.995
5.05521
4.92205
4.62817
4.18781
3.60452
2.87493
1.99731
0.961771
-0.233419
-1.59512
-3.11345
-4.80329
-6.64063
82.4332
81.5176
79.7452
77.1562
74.3365
69.7335
82.7784
82.7246
82.3728
81.8144
81.1247
80.3654
79.5833
78.8142
78.0849
77.4123
76.8053
76.2673
75.798
75.3947
75.0531
74.7672
74.5319
74.3488
74.2069
74.0924
74.0035
73.9374
73.8907
73.8613
73.844
73.8373
73.8363
73.8414
73.8424
66.9592
63.245
58.7203
53.624
47.9654
41.7803
35.2401
28.6463
22.3903
16.8608
12.3323
8.90874
6.53987
5.07952
4.24022
3.78193
3.56825
3.50286
3.68107
3.96747
4.15538
4.18429
4.00872
3.66238
3.16033
2.50653
1.69778
0.732033
-0.40043
-1.70224
-3.18084
-4.82665
-6.65402
-8.63822
83.234
82.5739
81.1097
78.7948
75.7678
72.5877
67.4169
83.3785
83.1591
82.673
82.0091
81.2393
80.4206
79.597
78.8028
78.0603
77.382
76.774
76.2378
75.7719
75.3725
75.0337
74.751
74.5282
74.3531
74.2083
74.0924
74.0028
73.9361
73.8905
73.8612
73.8437
73.8369
73.836
73.8414
73.8426
64.3679
60.3142
55.4046
49.9184
43.8777
37.3485
30.5637
23.8963
17.7791
12.5839
8.51892
5.60713
3.73461
2.7177
2.24504
2.08162
2.10638
2.40306
2.81504
3.08205
3.24513
3.23978
3.01816
2.61495
2.04602
1.31593
0.421663
-0.639179
-1.87608
-3.29236
-4.89606
-6.67804
-8.65104
-10.7947
83.9591
83.5545
82.3916
80.3989
77.6403
74.2082
70.6031
64.8518
83.908
83.5293
82.9161
82.1543
81.3112
80.4406
79.5852
78.7736
78.0232
77.343
76.7367
76.2043
75.7429
75.3469
75.012
74.7456
74.5339
74.355
74.2083
74.0914
74.001
73.9361
73.8908
73.8609
73.8432
73.8364
73.8356
73.8414
73.8427
61.5218
57.1224
51.8178
45.9319
39.5055
32.6468
25.6671
19.0139
13.1404
8.3719
4.831
2.45826
1.085
0.500413
0.37895
0.494807
0.923532
1.4791
1.8767
2.12252
2.25838
2.21574
1.9441
1.4792
0.837878
0.0253395
-0.96119
-2.12442
-3.47347
-5.01223
-6.74928
-8.67516
-10.8035
-13.5151
84.6027
84.4527
83.5933
81.9155
79.4812
76.3367
72.4398
68.3747
62.0344
84.363
83.8324
83.1007
82.2488
81.3409
80.4298
79.5516
78.7292
77.9756
77.2968
76.6946
76.1673
75.7099
75.3185
75.0046
74.753
74.5362
74.3549
74.2069
74.0889
74.0012
73.937
73.8908
73.8604
73.8425
73.8358
73.8352
73.8414
73.843
58.4202
53.6677
47.9539
41.6553
34.8384
27.6731
20.5671
14.0339
8.51574
4.25993
1.29129
-0.527213
-1.40733
-1.57522
-1.36292
-0.78904
-0.0698139
0.478392
0.860327
1.08288
1.18904
1.10579
0.779784
0.248092
-0.471495
-1.37304
-2.45888
-3.73201
-5.20108
-6.87027
-8.74836
-10.8276
-13.5289
-16.7605
85.1596
85.26
84.7089
83.3485
81.23
78.4291
74.8476
70.4501
65.9042
58.9653
84.74
84.0667
83.2249
82.2926
81.3334
80.3928
79.4999
78.6723
77.9193
77.2447
76.6483
76.1256
75.6734
75.3084
75.0139
74.7559
74.5362
74.3531
74.2035
74.0896
74.0032
73.9375
73.8905
73.8597
73.8417
73.8351
73.8347
73.8414
73.8432
55.0638
49.9469
43.8043
37.0728
29.8622
22.4294
15.2886
8.99815
3.94823
0.280644
-2.08181
-3.34317
-3.74322
-3.51345
-2.77232
-1.86682
-1.14519
-0.605019
-0.240237
-0.0430901
0.0306294
-0.0968573
-0.481825
-1.08578
-1.88988
-2.88727
-4.07972
-5.47043
-7.06727
-8.87446
-10.9008
-13.5595
-16.7784
-20.0745
85.6259
85.9684
85.7288
84.6926
82.891
80.4235
77.2096
73.1569
68.2407
63.1987
55.6468
85.0366
84.2295
83.2884
82.2915
81.2944
80.334
79.4331
78.605
77.8561
77.1879
76.5964
76.0795
75.6602
75.3202
75.0176
74.7559
74.5339
74.3487
74.205
74.0931
74.0046
73.9376
73.8898
73.8586
73.8407
73.8343
73.8342
73.8414
73.8435
51.452
45.9538
39.3528
32.1642
24.5677
16.9289
9.86839
3.95439
-0.518773
-3.53717
-5.27532
-5.98694
-5.92565
-5.08199
-3.95509
-3.03307
-2.3089
-1.77747
-1.43135
-1.26196
-1.22368
-1.39925
-1.84811
-2.53014
-3.4253
-4.52563
-5.8322
-7.34804
-9.08013
-11.0318
-13.6387
-16.8116
-20.0872
-23.3924
85.9984
86.5708
86.6432
85.937
84.4593
82.324
79.4683
75.8012
71.2661
65.8208
60.2691
52.0801
85.249
84.3201
83.2982
82.2527
81.2292
80.2571
79.3539
78.5294
77.7872
77.1242
76.5391
76.0626
75.6748
75.3247
75.0176
74.753
74.5281
74.3512
74.2105
74.0958
74.0054
73.9372
73.8888
73.8573
73.8394
73.8334
73.8336
73.8414
73.8439
47.5819
41.6774
34.5758
26.9039
18.9437
11.193
4.35427
-1.04429
-4.84373
-7.1706
-8.2809
-8.45906
-7.6921
-6.39791
-5.23434
-4.29455
-3.5675
-3.04547
-2.71967
-2.58058
-2.58092
-2.80873
-3.32672
-4.09292
-5.08592
-6.29645
-7.72459
-9.373
-11.2464
-13.7799
-16.8986
-20.1164
-23.4033
-26.6975
86.2727
87.0614
87.4424
87.0709
85.9241
84.1244
81.6285
78.3362
74.2043
69.1857
63.2063
57.1261
48.2649
85.3757
84.3461
83.2625
82.1824
81.1423
80.1653
79.2649
78.4472
77.7104
77.0543
76.5179
76.0806
75.6803
75.3247
75.0139
74.7456
74.5319
74.3594
74.2151
74.0977
74.0056
73.9363
73.8873
73.8557
73.8379
73.8323
73.8328
73.8414
73.8443
43.4459
37.0907
29.4307
21.2508
12.9763
5.24866
-1.19726
-5.94242
-8.99009
-10.6024
-11.0948
-10.4605
-9.17319
-7.82049
-6.61736
-5.65808
-4.92766
-4.41576
-4.11207
-4.00596
-4.04832
-4.33279
-4.92543
-5.78211
-6.87992
-8.2079
-9.76499
-11.552
-14.0075
-17.0521
-20.2026
-23.4329
-26.7074
-29.9783
86.4459
87.4337
88.1165
88.0829
87.2746
85.8137
83.6833
80.768
77.0247
72.4293
66.934
60.4161
53.781
44.2
85.4252
84.3178
83.189
82.0859
81.0375
80.0618
79.168
78.3556
77.6259
77.028
76.5398
76.0872
75.6803
75.3201
75.0045
74.751
74.5437
74.3665
74.2185
74.0988
74.0051
73.9349
73.8854
73.8537
73.8362
73.831
73.8321
73.8415
73.8447
39.0234
32.1518
23.861
15.1603
6.66374
-0.860521
-6.72143
-10.6858
-12.9271
-13.8215
-13.3738
-12.1376
-10.7732
-9.35749
-8.11119
-7.13044
-6.3962
-5.89524
-5.61548
-5.54518
-5.63324
-5.979
-6.65196
-7.60561
-8.81518
-10.2678
-11.9599
-14.3297
-17.296
-20.3608
-23.5202
-26.7384
-29.9872
-33.2145
86.5275
87.6824
88.6534
88.9617
88.499
87.3801
85.6202
83.0902
79.7348
75.5431
70.4953
64.5341
57.47
50.2477
39.8764
85.4097
84.244
83.0842
81.9682
80.9188
79.949
79.0602
78.255
77.594
77.0545
76.5478
76.0872
75.6748
75.3083
75.0121
74.7673
74.554
74.372
74.221
74.0991
74.0039
73.9329
73.883
73.8513
73.8342
73.8296
73.8312
73.8415
73.8452
34.2844
26.808
17.8013
8.5948
0.025155
-7.06969
-12.1479
-15.2231
-16.6312
-16.4304
-15.2822
-13.9481
-12.5004
-11.0161
-9.72265
-8.71844
-7.97996
-7.49071
-7.2368
-7.20531
-7.34288
-7.75472
-8.51385
-9.57095
-10.8992
-12.4825
-14.7575
-17.6379
-20.6152
-23.6839
-26.8277
-30.0188
-33.2223
-36.3841
86.5315
87.8186
89.0396
89.6909
89.585
88.8112
87.4258
85.2907
82.33
78.5358
73.9103
68.427
62.0105
54.3872
46.5347
35.274
85.3396
84.1328
82.9539
81.8337
80.789
79.8235
78.9415
78.2165
77.6257
77.0639
76.5477
76.0805
75.6601
75.3186
75.034
74.7817
74.5624
74.3764
74.2224
74.0984
74.0019
73.9301
73.8801
73.8485
73.8318
73.828
73.8304
73.8415
73.8457
29.1832
20.9789
11.1672
1.53047
-6.89737
-13.2957
-17.4033
-19.5096
-19.6368
-18.6133
-17.3401
-15.8999
-14.3615
-12.8028
-11.4583
-10.4287
-9.6855
-9.2088
-8.98276
-8.99316
-9.18416
-9.66703
-10.5181
-11.6851
-13.1375
-15.3033
-18.0875
-20.9712
-23.9479
-26.9981
-30.1093
-33.2543
-36.3907
-39.4655
86.4706
87.8596
89.2832
90.2495
90.5121
90.0948
89.0853
87.3557
84.7998
81.4054
77.188
72.1517
66.2517
59.3876
51.1885
42.6438
30.363
85.2246
83.9909
82.8036
81.6861
80.6444
79.6851
78.8959
78.2543
77.6368
77.0639
76.5398
76.0624
75.6735
75.3473
75.0535
74.7938
74.5694
74.3795
74.2226
74.0967
73.999
73.9267
73.8766
73.8453
73.8293
73.8263
73.8295
73.8416
73.8463
23.6483
14.5416
3.86012
-6.04206
-14.0305
-19.4382
-22.4129
-22.9922
-22.1485
-20.9642
-19.5552
-17.9994
-16.3627
-14.7238
-13.3245
-12.2674
-11.519
-11.0558
-10.8596
-10.915
-11.1635
-11.7223
-12.671
-13.953
-15.9859
-18.6574
-21.4367
-24.3149
-27.2717
-30.2856
-33.3455
-36.4228
-39.4707
-42.4374
86.3558
87.8209
89.4031
90.641
91.2524
91.2088
90.5834
89.2693
87.1324
84.1447
80.3307
75.7163
70.2956
63.9969
56.6908
47.897
38.5791
25.103
85.0729
83.825
82.6375
81.5212
80.4846
79.6315
78.9404
78.2672
77.6368
77.0544
76.5178
76.0796
75.7104
75.373
75.0701
74.8041
74.5748
74.3811
74.2215
74.0937
73.995
73.9224
73.8724
73.8418
73.8267
73.8246
73.8286
73.8416
73.8469
17.5685
7.31038
-4.23669
-14.0896
-21.272
-25.3624
-26.5046
-25.8975
-24.8471
-23.4894
-21.9321
-20.2509
-18.5085
-16.7842
-15.3263
-14.24
-13.4861
-13.0372
-12.873
-12.9765
-13.2864
-13.9258
-14.9767
-16.8354
-19.3671
-22.0234
-24.7912
-27.6476
-30.5664
-33.5261
-36.514
-39.5026
-42.4412
-45.2788
86.1971
87.7163
89.4184
90.8832
91.8053
92.12
91.894
91.0135
89.3121
86.7448
83.3351
79.1289
74.1488
68.3714
61.6907
53.9478
44.5356
34.3427
19.4363
84.8923
83.6404
82.4513
81.3385
80.4223
79.6838
78.9555
78.2672
77.6256
77.0278
76.5394
76.1262
75.7436
75.3953
75.0847
74.8125
74.5782
74.3809
74.2188
74.0895
73.99
73.9172
73.8677
73.8379
73.8239
73.8228
73.8277
73.8417
73.8475
10.7553
-1.02875
-13.1619
-22.574
-28.3815
-30.2285
-29.9184
-29.0124
-27.7345
-26.1896
-24.4722
-22.6568
-20.8023
-18.9877
-17.4679
-16.3508
-15.5911
-15.1576
-15.0274
-15.1819
-15.5571
-16.2808
-17.9022
-20.2494
-22.7518
-25.3882
-28.1308
-30.9476
-33.8112
-36.6975
-39.5931
-42.4724
-45.2812
-47.9697
86.0036
87.5578
89.3466
90.9939
92.1888
92.8257
92.9765
92.5562
91.321
89.1927
86.1971
82.3915
77.8278
72.5152
66.4083
59.3624
51.1864
41.126
29.9479
13.2987
84.6892
83.4322
82.2443
81.2669
80.4834
79.7012
78.9555
78.2542
77.5937
77.0545
76.5972
76.1683
75.7726
75.4151
75.0968
74.8184
74.5795
74.3788
74.2144
74.0837
73.9838
73.9113
73.8626
73.8339
73.8209
73.821
73.8268
73.8417
73.8482
2.86063
-10.8176
-23.0725
-31.0623
-34.2841
-34.2816
-33.5647
-32.3375
-30.8056
-29.0609
-27.1742
-25.217
-23.2448
-21.3361
-19.7518
-18.6027
-17.8373
-17.4202
-17.3259
-17.5342
-17.9775
-19.2625
-21.3577
-23.6569
-26.1273
-28.7324
-31.4326
-34.1933
-36.9837
-39.7774
-42.5614
-45.3113
-47.9708
-50.4913
85.7831
87.3566
89.2038
90.9909
92.4209
93.345
93.8265
93.8451
93.1224
91.4723
88.9076
85.5053
81.3401
76.4567
70.845
64.436
57.0384
48.4366
37.7047
25.4544
6.61461
84.4587
83.1999
82.1625
81.3377
80.5033
79.7012
78.9404
78.2163
77.6263
77.1253
76.6495
76.2053
75.7987
75.4319
75.1061
74.8217
74.5783
74.3744
74.208
74.0764
73.9765
73.9048
73.8572
73.8296
73.8178
73.819
73.8259
73.8418
73.8489
-6.69006
-23.2383
-33.1495
-38.3925
-39.143
-38.569
-37.4257
-35.8589
-34.0503
-32.0941
-30.0322
-27.9277
-25.8341
-23.8288
-22.1784
-20.9966
-20.2258
-19.8262
-19.7696
-20.0335
-21.0335
-22.772
-24.7946
-27.0459
-29.475
-32.0326
-34.6745
-37.3622
-40.0612
-42.744
-45.3977
-47.9992
-50.4911
-52.8269
85.5309
87.1216
89.0047
90.8919
92.5193
93.6964
94.4662
94.8683
94.6529
93.5452
91.4544
88.467
84.6936
80.2096
75.0447
69.167
62.4799
54.7477
45.7435
34.3199
20.9744
-0.690858
84.2001
83.1075
82.2443
81.3604
80.5033
79.6838
78.8956
78.2554
77.7117
77.1893
76.6959
76.2388
75.8212
75.4452
75.112
74.8219
74.5743
74.3676
74.1996
74.0677
73.9684
73.8977
73.8514
73.8251
73.8147
73.8171
73.825
73.8419
73.8497
-20.38
-36.8323
-43.1639
-44.5374
-44.2407
-43.0394
-41.454
-39.5481
-37.4537
-35.2748
-33.0355
-30.7814
-28.5648
-26.4621
-24.7453
-23.531
-22.7555
-22.3747
-22.3568
-23.1783
-24.6141
-26.248
-28.2016
-30.3983
-32.7717
-35.2668
-37.8345
-40.432
-43.0217
-45.5762
-48.082
-50.5171
-52.8251
-54.9582
85.2469