/*--------------------------------*- C++ -*----------------------------------*\
  =========                 |
  \\      /  F ield         | OpenFOAM: The Open Source CFD Toolbox
   \\    /   O peration     | Website:  https://openfoam.org
    \\  /    A nd           | Version:  8
     \\/     M anipulation  |
\*---------------------------------------------------------------------------*/
FoamFile
{
    version     2.0;
    format      ascii;
    class       volScalarField;
    location    "0.48";
    object      p;
}
// * * * * * * * * * * * * * * * * * * * * * * * * * * * * * * * * * * * * * //

dimensions      [0 2 -2 0 0 0 0];

internalField   nonuniform List<scalar> 
15677
(
74.6014
74.2448
73.8321
74.3094
73.8203
73.8339
74.2844
73.8475
73.8433
73.7275
74.259
73.8488
73.8436
73.7365
73.6361
74.2372
73.8511
73.8435
73.7358
73.6437
73.54
74.2138
73.8534
73.8431
73.7369
73.6436
73.5466
73.4255
74.1886
73.856
73.8423
73.7372
73.6446
73.5466
73.4313
73.2888
74.1625
73.859
73.8408
73.7373
73.6451
73.5475
73.4314
73.2938
73.1226
74.1352
73.8611
73.8389
73.7371
73.6456
73.5481
73.4324
73.2941
73.1269
72.9193
74.1066
73.8626
73.8362
73.7367
73.6459
73.5487
73.4331
73.2951
73.1273
72.9229
72.6712
74.0771
73.8642
73.8329
73.7365
73.6463
73.5494
73.4339
73.296
73.1285
72.9235
72.6741
72.37
74.0471
73.8653
73.8296
73.7366
73.6469
73.5503
73.435
73.2971
73.1296
72.9249
72.6748
72.3721
72.0073
74.0174
73.8654
73.8261
73.737
73.6479
73.5515
73.4364
73.2986
73.1311
72.9263
72.6764
72.373
72.0086
71.5748
73.9907
73.8641
73.8226
73.7378
73.6496
73.5535
73.4385
73.3008
73.1332
72.9283
72.6783
72.3749
72.0097
71.5751
71.0642
73.9679
73.862
73.8191
73.7392
73.6522
73.5566
73.4417
73.3039
73.1362
72.9312
72.681
72.3774
72.012
71.5764
71.0635
70.4681
73.9479
73.86
73.8162
73.7412
73.6561
73.5611
73.4466
73.3086
73.1407
72.9353
72.6848
72.3809
72.015
71.5791
71.065
70.4662
69.7796
73.9305
73.8579
73.814
73.7438
73.6616
73.5677
73.4536
73.3156
73.1473
72.9414
72.6903
72.3859
72.0195
71.5829
71.0681
70.468
69.7765
68.9932
73.9154
73.856
73.8124
73.7467
73.6682
73.5767
73.4636
73.3258
73.1571
72.9505
72.6985
72.3931
72.0259
71.5886
71.0729
70.4716
69.7786
68.9886
68.1044
73.9023
73.8541
73.8114
73.7501
73.6755
73.5877
73.4773
73.34
73.1712
72.9638
72.7106
72.4039
72.0353
71.5967
71.0799
70.4773
69.7827
68.991
68.0982
67.1104
73.8911
73.8525
73.8109
73.754
73.6836
73.5997
73.4939
73.3596
73.1909
72.9828
72.7282
72.4197
72.0491
71.6085
71.0899
70.4858
69.7895
68.9957
68.101
67.1025
66.01
73.8822
73.8509
73.8109
73.7582
73.6923
73.6129
73.512
73.3833
73.2179
73.0095
72.7534
72.4426
72.0693
71.6259
71.1046
70.4981
69.7996
69.0036
68.1061
67.1055
66.0002
64.8039
73.8754
73.8494
73.8113
73.7629
73.7016
73.627
73.5318
73.4092
73.2508
73.0459
72.7887
72.4753
72.0986
71.6513
71.1261
70.5159
69.8143
69.0154
68.1152
67.1112
66.0036
64.7922
63.4954
73.8701
73.848
73.8122
73.7678
73.7114
73.6421
73.5531
73.4375
73.2866
73.0903
72.837
72.5211
72.1404
71.6881
71.1575
70.5421
69.8356
69.0326
68.1288
67.1214
66.0097
64.7958
63.4815
62.0889
73.866
73.8469
73.8132
73.7728
73.7216
73.6579
73.5756
73.4679
73.3257
73.1387
72.8958
72.5839
72.1989
71.7406
71.203
70.5802
69.8668
69.0576
68.1486
67.1368
66.021
64.8022
63.4853
62.0727
60.5966
73.8627
73.8459
73.8143
73.7776
73.7316
73.6742
73.5992
73.5001
73.3678
73.1917
72.9599
72.6603
72.279
71.814
71.2678
70.6355
69.9123
69.0942
68.1774
67.1591
66.038
64.8145
63.4918
62.0765
60.5777
59.0489
73.8601
73.8452
73.8154
73.7819
73.7408
73.6903
73.6236
73.5338
73.4125
73.2487
73.0302
72.7438
72.3768
71.9147
71.3585
70.7142
69.9784
69.1477
68.2196
67.1916
66.0627
64.8329
63.5047
62.0827
60.5788
58.9933
57.3852
73.858
73.8445
73.8166
73.7858
73.7492
73.705
73.6475
73.5686
73.4592
73.3092
73.1059
72.8355
72.4837
72.0377
71.483
70.8245
70.0725
69.2253
68.2813
67.2394
66.0988
64.8597
63.5241
62.0957
60.5835
58.996
57.318
55.5908
73.8563
73.844
73.8176
73.7894
73.7567
73.7183
73.6694
73.6027
73.5075
73.3725
73.1863
72.9343
72.6012
72.1724
71.6353
70.9761
70.2045
69.3361
68.3711
67.3095
66.1519
64.8988
63.5524
62.1153
60.5949
58.9969
57.3206
55.5605
53.7388
73.8548
73.8436
73.8185
73.7927
73.7634
73.7303
73.6892
73.6341
73.5549
73.4381
73.2705
73.0392
72.728
72.3207
71.8025
71.162
70.3865
69.4919
68.4996
67.4117
66.2302
64.9568
63.5939
62.1442
60.6132
59.0054
57.315
55.5528
53.7273
51.835
73.8537
73.8433
73.8192
73.7957
73.7694
73.741
73.707
73.6623
73.5983
73.5024
73.3578
73.1493
72.8628
72.4809
71.9868
71.3664
70.6099
69.707
68.6806
67.5585
66.3447
65.0427
63.6558
62.187
60.6409
59.0209
57.3228
55.5434
53.7104
51.8295
49.6884
73.8527
73.843
73.8199
73.7985
73.7748
73.7505
73.7228
73.6876
73.6375
73.5614
73.4434
73.2635
73.0045
72.6516
72.1863
71.5921
70.8562
69.9719
68.9313
67.7659
66.5099
65.169
63.7483
62.2516
60.6832
59.0461
57.3366
55.5526
53.7018
51.8108
49.6862
47.2698
73.8519
73.8428
73.8205
73.801
73.7795
73.7589
73.737
73.7103
73.6727
73.6147
73.5221
73.3756
73.1516
72.8311
72.3991
71.8369
71.1287
70.2645
69.2409
68.0539
66.7439
65.3519
63.8851
62.3492
60.7487
59.0863
57.3601
55.5661
53.7116
51.8043
49.6683
47.2695
44.8237
73.8512
73.8426
73.8211
73.8031
73.7837
73.7664
73.7495
73.7304
73.7042
73.6625
73.5931
73.4788
73.2962
73.0178
72.6233
72.0985
71.425
70.5891
69.5839
68.4108
67.0702
65.6124
64.0847
62.4951
60.8494
59.151
57.3988
55.5892
53.7251
51.8126
49.6617
47.2529
44.8252
42.3926
73.8506
73.8424
73.8217
73.805
73.7875
73.7731
73.7606
73.7483
73.7321
73.7052
73.657
73.5721
73.4294
73.2016
72.857
72.3748
71.7424
70.9428
69.9653
68.8073
67.4761
65.9771
64.3705
62.7096
61.0023
59.2532
57.4626
55.6272
53.7483
51.826
49.6667
47.2458
44.8106
42.3942
39.9967
73.8423
73.8499
73.8222
73.8067
73.7908
73.779
73.7705
73.7642
73.757
73.7433
73.714
73.6559
73.55
73.3711
73.0874
72.6632
72.0782
71.3227
70.382
69.2496
67.9285
66.4326
64.7726
63.0188
61.2294
59.4109
57.5653
55.6903
53.7853
51.8486
49.6788
47.2475
44.8034
42.3807
39.9982
37.6488
73.8227
73.8422
73.8491
73.8082
73.7937
73.7842
73.7792
73.7782
73.7791
73.7771
73.7649
73.7309
73.6584
73.5248
73.3002
72.9482
72.4296
71.7256
70.8309
69.7344
68.435
66.9424
65.2774
63.4565
61.5595
59.6481
57.7264
55.7931
53.8471
51.8837
49.6987
47.2568
44.8021
42.3724
39.9854
37.6495
35.361
73.8095
73.8234
73.8421
73.8484
73.7963
73.7889
73.787
73.7907
73.7986
73.8071
73.8101
73.7978
73.7556
73.6631
73.4934
73.212
72.7777
72.1484
71.3083
70.2581
68.9919
67.5151
65.8445
64.0088
62.0298
59.9961
57.9715
55.9562
53.9488
51.9429
49.73
47.272
44.8081
42.3676
39.9756
37.6373
35.3607
33.1443
73.7985
73.8113
73.8243
73.842
73.8477
73.793
73.7938
73.8018
73.8159
73.8338
73.8503
73.8573
73.8422
73.7872
73.6677
73.4519
73.1006
72.5684
71.8108
70.817
69.5956
68.147
66.4842
64.6321
62.6268
60.4954
58.3341
56.2067
54.1118
52.0415
49.7841
47.2971
44.8176
42.3689
39.9669
37.6256
35.3489
33.1431
31.0072
73.7964
73.8016
73.8133
73.8252
73.8419
73.847
73.7999
73.8116
73.8313
73.8573
73.8859
73.9101
73.9194
73.8979
73.824
73.6686
73.3948
72.9589
72.3115
71.4071
70.242
68.8346
67.1928
65.3381
63.3038
61.1332
58.8581
56.5803
54.3646
52.2018
49.8767
47.3428
44.8348
42.3713
39.9624
37.6127
35.335
33.1315
31.0049
28.9558
73.805
73.8012
73.805
73.8154
73.8261
73.8419
73.8464
73.8202
73.8449
73.8783
73.9174
73.957
73.9879
73.9966
73.9638
73.8633
73.6611
73.3156
72.7784
71.9972
70.927
69.5735
67.9667
66.1234
64.074
61.86
59.5317
57.1241
54.7449
52.4532
50.0306
47.425
44.8696
42.3788
39.9565
37.6019
35.3179
33.1151
30.9935
28.9525
26.9943
73.8275
73.812
73.8062
73.8084
73.8174
73.827
73.8418
73.8459
73.857
73.8968
73.9454
73.9986
74.0488
74.0844
74.0885
74.0376
73.9007
73.639
73.2059
72.5491
71.6145
70.3596
68.8017
66.9844
64.9341
62.6904
60.303
57.8272
55.3026
52.8353
50.2762
47.5671
44.9381
42.4003
39.9525
37.5868
35.3002
33.0935
30.9745
28.9411
26.9901
25.1253
73.8671
73.8373
73.8189
73.8112
73.8117
73.8193
73.8279
73.8418
73.8454
73.9133
73.9703
74.0355
74.1028
74.1624
74.1995
74.1932
74.1156
73.9307
73.5945
73.056
72.2598
71.1518
69.6939
67.9175
65.8813
63.6218
61.188
58.6363
56.028
53.4003
50.6549
47.8003
45.0637
42.4519
39.9585
37.57
35.2752
33.0688
30.9485
28.9194
26.9785
25.1202
23.3498
73.927
73.8806
73.8465
73.8259
73.8161
73.815
73.8212
73.8288
73.8417
73.8449
73.9923
74.0683
74.1507
74.2316
74.2982
74.3319
74.3077
74.1927
73.9457
73.5179
72.8544
71.8982
70.5968
68.9189
66.9125
64.6524
62.1855
59.569
56.8668
54.1395
51.2199
48.1669
45.2784
42.5569
39.9903
37.5587
35.2445
33.0333
30.9164
28.889
26.9541
25.1084
23.344
21.6679
74.0107
73.9452
73.8927
73.856
73.8328
73.8209
73.8182
73.8231
73.8297
73.8417
73.8444
74.0973
74.1934
74.2931
74.3858
74.4553
74.4791
74.4273
74.2618
73.9364
73.3978
72.5883
71.4511
69.9371
68.0243
65.7796
63.2944
60.6253
57.8387
54.9991
51.9649
48.7206
45.6243
42.7476
40.0715
37.5688
35.2148
32.9882
30.8702
28.8495
26.9194
25.0813
23.332
21.6613
20.0784
74.1214
74.0349
73.9609
73.9052
73.8653
73.8394
73.8256
73.8212
73.8249
73.8306
73.8416
73.844
74.2312
74.3479
74.4637
74.565
74.6318
74.6368
74.5453
74.3138
73.8914
73.2211
72.2438
70.9046
69.1604
67.0008
64.5131
61.8054
58.945
56.0003
52.8369
49.4579
46.1543
43.0644
40.2331
37.6231
35.2015
32.9391
30.8101
28.7925
26.8725
25.0424
23.3023
21.6491
20.0711
18.5793
74.2623
74.1533
74.0549
73.9771
73.9174
73.8741
73.8458
73.83
73.8242
73.8266
73.8315
73.8416
73.8437
74.3963
74.5331
74.6626
74.7676
74.8237
74.7989
74.653
74.3377
73.7976
72.9733
71.806
70.2448
68.2551
65.8403
63.1089
60.1871
57.1458
53.8588
50.3282
46.8685
43.5595
40.5135
37.751
35.2268
32.9014
30.7412
28.7171
26.8046
24.9882
23.2593
21.6169
20.0586
18.5715
17.1682
74.4362
74.3038
74.1785
74.0758
73.9929
73.929
73.8826
73.8518
73.8342
73.827
73.8282
73.8323
73.8416
73.8434
74.5946
74.7496
74.8886
74.9902
75.0255
74.957
74.7396
74.3201
73.6399
72.6385
71.2595
69.4581
67.2107
64.536
61.5663
58.4386
55.0347
51.3554
47.7198
44.2365
40.9634
37.9889
35.3174
32.8958
30.6785
28.6283
26.7141
24.9096
23.1979
21.57
20.0239
18.5587
17.1598
15.8419
74.6449
74.4895
74.3353
74.205
74.096
74.0079
73.94
73.8906
73.8576
73.8383
73.8296
73.8298
73.833
73.8416
73.8431
74.8267
74.9965
75.1386
75.2275
75.229
75.1005
74.7918
74.2458
73.4019
72.2002
70.5888
68.5318
66.0178
63.0846
59.882
56.3697
52.5452
48.7319
45.0521
41.5902
38.3847
35.5074
32.9462
30.6407
28.5404
26.6057
24.8042
23.1089
21.5016
19.9733
18.5217
17.1468
15.833
14.5971
74.8894
74.7128
74.5287
74.3688
74.2307
74.115
74.0219
73.9503
73.8982
73.863
73.842
73.8321
73.8312
73.8337
73.8416
73.8429
75.0921
75.2712
75.4078
75.4719
75.424
75.2163
74.7943
74.0978
73.0659
71.6414
69.7792
67.4537
64.6704
61.4801
57.8693
53.9052
49.9126
46.0294
42.3541
38.949
35.8416
33.0842
30.6491
28.4696
26.4925
24.6764
22.9889
21.4024
19.8982
18.4676
17.1076
15.8198
14.5878
13.4304
75.1695
74.9753
74.7614
74.5707
74.401
74.2546
74.1327
74.0351
73.96
73.9052
73.868
73.8455
73.8344
73.8325
73.8344
73.8416
73.8427
75.3885
75.5691
75.6889
75.7133
75.5976
75.2891
74.7295
73.8577
72.6136
70.9453
68.8163
66.2156
63.1591
59.5402
55.444
51.272
47.1778
43.2769
39.6461
36.3325
33.3508
30.7321
28.4347
26.3885
24.5384
22.8424
21.2684
19.7893
18.386
17.0502
15.7784
14.5743
13.4206
12.3381
75.4831
75.2772
75.0351
74.8136
74.6109
74.4309
74.2768
74.1492
74.0472
73.9688
73.9116
73.8727
73.8487
73.8364
73.8336
73.8349
73.8416
73.8426
75.7116
75.8834
75.9722
75.9391
75.7343
75.3009
74.5785
73.5059
72.0266
70.0956
67.689
64.8041
61.3077
57.1718
52.8216
48.5091
44.3687
40.4949
36.9486
33.7586
30.9259
28.4608
26.3097
24.4013
22.6799
21.1039
19.6419
18.2678
16.9623
15.718
14.531
13.4069
12.3277
11.3159
75.8261
75.6172
75.3505
75.0999
74.8635
74.648
74.4585
74.2972
74.1642
74.0582
73.9769
73.9175
73.8768
73.8515
73.8382
73.8345
73.8354
73.8416
73.8424
76.0551
76.2048
76.2453
76.134
75.8162
75.2323
74.3206
73.0225
71.2866
69.0785
66.3805
63.0515
59.0148
54.5741
50.0359
45.641
41.5045
37.7043
34.2808
31.2426
28.578
26.2777
24.2786
22.5103
20.9175
19.46
18.1076
16.8354
15.6243
14.4677
13.3617
12.3137
11.3044
10.3645
76.1921
75.992
75.707
75.4306
75.1615
74.9093
74.682
74.4836
74.3157
74.1778
74.0681
73.9841
73.9226
73.8804
73.8539
73.8396
73.8353
73.8358
73.8416
73.8423
76.4095
76.5209
76.493
76.2797
75.8232
75.0616
73.9347
72.3873
70.377
67.8744
64.7335
60.8457
56.4542
51.7698
47.105
42.6846
38.6068
34.9263
31.6602
28.7974
26.3156
24.1883
22.3443
20.7163
19.2507
17.9091
16.663
15.489
14.3685
13.2959
12.2668
11.2905
10.3474
9.57081
76.5721
76.3962
76.1018
75.8057
75.5066
75.2179
74.9511
74.7128
74.5062
74.3321
74.1897
74.0767
73.9903
73.927
73.8833
73.8559
73.8409
73.836
73.8361
73.8416
73.8422
76.763
76.8167
76.697
76.356
75.7331
74.7668
73.3988
71.5815
69.2767
66.3355
62.619
58.3279
53.6366
48.7724
44.0464
39.6644
35.6999
32.1809
29.1018
26.4335
24.1454
22.1958
20.5078
19.0188
17.6778
16.4489
15.3052
14.2253
13.1914
12.1986
11.2423
10.3342
9.56472
8.90191
76.9539
76.8217
76.5303
76.2232
75.899
75.5758
75.269
74.9886
74.7401
74.526
74.3464
74.2
74.084
73.9954
73.9304
73.8857
73.8575
73.8419
73.8366
73.8364
73.8416
73.8422
77.1005
77.0741
76.8367
76.3398
75.5227
74.324
72.6921
70.5824
67.8443
64.3105
60.1456
55.5051
50.5806
45.6077
40.892
36.6108
32.8091
29.4876
26.6192
24.1595
22.0719
20.3021
18.7692
17.4164
16.1965
15.0762
14.0308
13.041
12.0893
11.1723
10.2845
9.55784
8.909
8.20669
77.3222
77.2578
76.9853
76.6794
76.3377
75.9838
75.6382
75.3147
75.0216
74.7638
74.5429
74.3584
74.2084
74.0898
73.9993
73.9331
73.8876
73.8588
73.8427
73.8371
73.8367
73.8416
73.8421
77.4036
77.2723
76.8887
76.2072
75.1667
73.711
71.79
69.2515
65.9043
61.8852
57.3337
52.4148
47.3279
42.3191
37.6809
33.5559
29.9587
26.8634
24.2235
21.9819
20.0979
18.5074
17.1271
15.9068
14.8038
13.7879
12.8364
11.9321
11.0584
10.2131
9.50753
8.90343
8.20712
7.45465
77.6585
77.6905
77.457
77.1681
76.8196
76.4414
76.06
75.6937
75.3545
75.05
74.7838
74.5568
74.3679
74.2147
74.094
74.0022
73.9352
73.889
73.8599
73.8434
73.8374
73.8369
73.8416
73.8421
77.6512
77.3874
76.8283
75.9316
74.6415
72.9004
70.5537
67.3928
63.5356
59.109
54.2458
49.1136
43.9305
38.9524
34.4509
30.5293
27.1707
24.3233
21.9238
19.905
18.2248
16.8111
15.5797
14.4873
13.4965
12.5803
11.7181
10.895
10.095
9.43577
8.8543
8.19625
7.44757
6.63044
77.9409
78.1027
77.9327
77.6807
77.3395
76.9464
76.5344
76.1274
75.7418
75.3884
75.0734
74.7997
74.5674
74.3748
74.2191
74.097
74.0042
73.9366
73.89
73.8606
73.8439
73.8377
73.837
73.8416
73.842
77.8191
77.3941
76.6277
75.4878
73.916
71.7515
68.7744
65.0924
60.8221
56.0623
50.9424
45.6525
40.4336
35.5473
31.2353
27.557
24.4633
21.879
19.7265
17.9317
16.4526
15.2116
14.124
13.1545
12.271
11.4497
10.6721
9.92579
9.31398
8.78148
8.14716
7.43215
6.62039
5.73263
78.144
78.4745
78.3965
78.2058
77.8902
77.4946
77.06
76.6164
76.1855
75.7822
75.4159
75.0918
74.8115
74.5747
74.3791
74.2218
74.0986
74.0053
73.9374
73.8907
73.8611
73.8442
73.838
73.8372
73.8416
73.842
77.8806
77.2639
76.2601
74.8409
72.8475
70.0512
66.5538
62.4646
57.8494
52.7979
47.464
42.0686
36.8736
32.1381
28.0631
24.6607
21.8513
19.5391
17.6357
16.0628
14.7803
13.7061
12.757
11.905
11.1235
10.3921
9.69459
9.14019
8.65692
8.07221
7.38152
6.60364
5.72135
4.75827
78.2397
78.7823
78.8292
78.729
78.4614
78.0797
77.6334
77.1598
76.6868
76.234
75.8147
75.4369
75.1047
74.8189
74.5786
74.3812
74.2229
74.0993
74.0058
73.9378
73.891
73.8614
73.8444
73.8382
73.8373
73.8416
73.842
77.8063
76.968
75.6873
73.8466
71.2261
67.9196
64.0283
59.5892
54.6556
49.3418
43.8362
38.3912
33.2824
28.7547
24.9587
21.8581
19.3458
17.3094
15.6536
14.298
13.2056
12.2918
11.4751
10.7349
10.05
9.40373
8.90216
8.47908
7.94461
7.30339
6.55127
5.70419
4.7461
3.70094
78.1961
79.0007
79.2085
79.2329
79.0402
78.6928
78.2493
77.7552
77.2453
76.7451
76.2724
75.8389
75.4511
75.1121
74.8222
74.5797
74.3813
74.2226
74.0989
74.0055
73.9377
73.891
73.8614
73.8447
73.8384
73.8373
73.8416
73.842
77.5644
76.4657
74.7638
72.304
69.1888
65.5057
61.2642
56.4879
51.2533
45.7086
40.08
34.6475
29.6892
25.4234
21.9424
19.1628
16.9546
15.1937
13.7806
12.6356
11.7258
10.9654
10.2746
9.6403
9.04685
8.60247
8.23543
7.76222
7.17223
6.46965
5.65018
4.72801
3.68819
2.55358
77.9764
79.1016
79.5091
79.6967
79.6108
79.3225
78.9001
78.3982
77.8594
77.3158
76.7909
76.3005
75.8545
75.4583
75.1144
74.8219
74.5784
74.3797
74.2211
74.0978
74.0048
73.9372
73.8907
73.8617
73.845
73.8384
73.8373
73.8416
73.842
77.1111
75.6095
73.3017
70.363
66.8895
62.8597
58.2693
53.1632
47.6481
41.9114
36.2172
30.8648
26.1215
22.1672
19.0305
16.5847
14.6827
13.193
12.0155
11.073
10.3378
9.72295
9.15137
8.61725
8.23352
7.92824
7.51252
6.98474
6.33449
5.56526
4.67236
3.66897
2.54059
1.30906
77.5308
79.0538
79.7027
80.0967
80.1541
79.9544
79.5758
79.0824
78.5255
77.9452
77.371
76.8239
76.3179
75.8614
75.4592
75.1122
74.8185
74.5748
74.3765
74.2186
74.0959
74.0033
73.9362
73.8909
73.8623
73.8452
73.8384
73.8373
73.8416
73.8421
76.2952
74.2289
71.4593
68.1771
64.363
59.9788
55.0393
49.6139
43.8461
37.9661
32.2719
27.071
22.6052
19.0057
16.2355
14.1307
12.5325
11.307
10.3562
9.60724
9.03774
8.5605
8.10162
7.78781
7.54912
7.19716
6.72838
6.14131
5.42579
4.58422
3.61165
2.52057
1.29593
-0.0402387
78.8152
76.7076
79.7562
80.4062
80.648
80.5712
80.2635
79.799
79.2385
78.6305
78.012
77.4102
76.8437
76.3245
75.8604
75.4545
75.1061
74.8124
74.5694
74.3721
74.2152
74.0932
74.0014
73.9363
73.8918
73.8626
73.8452
73.8383
73.8372
73.8416
73.8421
74.966
72.4848
69.3851
65.7676
61.5984
56.8543
51.568
45.8404
39.857
33.8923
28.2714
23.2947
19.1643
15.9552
13.5667
11.8045
10.5042
9.5337
8.79968
8.23438
7.82146
7.47411
7.25053
7.08987
6.80704
6.40414
5.87767
5.22638
4.44011
3.52013
2.46135
1.27536
-0.0535225
-1.50235
79.631
78.2423
75.3627
80.5932
81.0679
81.1525
80.9478
80.5368
79.9907
79.3674
78.7123
78.0595
77.4332
76.8501
76.3214
75.8527
75.4451
75.0967
74.804
74.5624
74.3665
74.2106
74.0898
74.0011
73.9375
73.8921
73.8626
73.845
73.8382
73.837
73.8416
73.8422
73.2888
70.5195
67.0908
63.1181
58.5851
53.4775
47.8518
41.8465
35.695
29.7145
24.2454
19.5642
15.8202
13.0288
11.0303
9.60743
8.59635
7.87036
7.34211
6.95028
6.68498
6.59344
6.53441
6.33315
6.00208
5.54375
4.95482
4.23395
3.37096
2.36619
1.21405
-0.0747212
-1.51577
-3.0856
80.6213
79.206
77.2232
73.6862
81.3833
81.6755
81.6098
81.2819
80.7724
80.1496
79.4682
78.7704
78.087
77.4399
76.8448
76.3101
75.8392
75.4316
75.0845
74.7936
74.5539
74.3595
74.2052
74.089
74.0029
73.9381
73.8921
73.8623
73.8447
73.8379
73.8369
73.8416
73.8423
71.3996
68.3384
64.5557
60.217
55.3129
49.8418
43.8897
37.6404
31.3794
25.4612
20.2253
15.9065
12.5915
10.2364
8.62947
7.53897
6.80643
6.313
5.97917
5.75074
5.76399
5.85254
5.75804
5.51235
5.12874
4.61034
3.95379
3.15751
2.21151
1.11505
-0.138078
-1.53768
-3.0991
-4.79852
81.5618
80.3846
78.339
75.8848
71.8106
82.1117
82.2287
82.0174
81.5714
80.9687
80.2747
79.5405
78.8043
78.0947
77.4323
76.8294
76.2917
75.8207
75.4146
75.0698
74.7815
74.5437
74.3513
74.2037
74.0915
74.0037
73.9381
73.8917
73.8617
73.8444
73.8377
73.8367
73.8416
73.8424
69.2993
65.9167
61.7682
57.0542
51.7745
45.9434
39.6839
33.2343
26.9344
21.1646
16.2433
12.3468
9.49351
7.58446
6.36531
5.59711
5.13051
4.85716
4.70645
4.77907
4.98937
5.04934
4.91597
4.62188
4.18133
3.59784
2.86805
1.9902
0.954421
-0.241044
-1.60306
-3.12174
-4.812
-6.6498
82.4327
81.517
79.7445
77.1554
74.3356
69.7325
82.778
82.7243
82.3726
81.8143
81.1246
80.3654
79.5833
78.8142
78.0849
77.4124
76.8054
76.2673
75.798
75.3948
75.0532
74.7673
74.532
74.3489
74.207
74.0925
74.0037
73.9375
73.8909
73.8614
73.8442
73.8374
73.8364
73.8416
73.8425
66.9581
63.244
58.7193
53.6229
47.9644
41.7793
35.2391
28.6453
22.3893
16.8596
12.3309
8.907
6.53772
5.07686
4.23703
3.77822
3.56404
3.49819
3.67601
3.9621
4.1497
4.17833
4.00252
3.65596
3.15369
2.49967
1.69068
0.724683
-0.408058
-1.71018
-3.18914
-4.83535
-6.66319
-8.64791
83.2335
82.5734
81.109
78.794
75.7669
72.5867
67.4158
83.3782
83.1588
82.6728
82.0089
81.2392
80.4206
79.597
78.8029
78.0603
77.3821
76.7741
76.2379
75.772
75.3726
75.0339
74.7511
74.5283
74.3533
74.2084
74.0925
74.0029
73.9362
73.8907
73.8613
73.8438
73.837
73.8361
73.8416
73.8427
64.3668
60.3131
55.4036
49.9174
43.8767
37.3475
30.5628
23.8954
17.7781
12.5828
8.51756
5.60542
3.73246
2.71502
2.24181
2.07785
2.10211
2.39836
2.80998
3.07664
3.23938
3.23372
3.01183
2.60837
2.03919
1.30885
0.414317
-0.646808
-1.88402
-3.30065
-4.90477
-6.6872
-8.66074
-10.805
83.9587
83.554
82.3909
80.3981
77.6394
74.2072
70.602
64.8507
83.9077
83.529
82.9159
82.1542
81.3112
80.4406
79.5852
78.7736
78.0232
77.3431
76.7368
76.2044
75.743
75.347
75.0121
74.7458
74.5341
74.3551
74.2084
74.0915
74.0011
73.9362
73.891
73.8611
73.8433
73.8365
73.8357
73.8415
73.8429
61.5207
57.1213
51.8168
45.9309
39.5045
32.6459
25.6663
19.013
13.1395
8.37087
4.82971
2.4566
1.08286
0.497727
0.375694
0.491006
0.91926
1.47441
1.87162
2.11705
2.25254
2.20955
1.93761
1.47243
0.830828
0.0180083
-0.968817
-2.13237
-3.48177
-5.02094
-6.75845
-8.68485
-10.8138
-13.5262
84.6023
84.4522
83.5927
81.9147
79.4803
76.3357
72.4387
68.3736
62.0333
84.3627
83.8322
83.1006
82.2487
81.3409
80.4298
79.5516
78.7293
77.9756
77.2969
76.6946
76.1674
75.71
75.3186
75.0047
74.7531
74.5364
74.3551
74.207
74.089
74.0014
73.9371
73.891
73.8606
73.8427
73.8359
73.8353
73.8415
73.8431
58.4192
53.6667
47.9529
41.6544
34.8375
27.6724
20.5664
14.0332
8.51498
4.25899
1.29006
-0.528834
-1.40944
-1.5779
-1.36618
-0.792819
-0.0740517
0.473708
0.8552
1.07733
1.18307
1.09945
0.773107
0.2411
-0.478796
-1.38065
-2.46683
-3.74032
-5.2098
-6.87944
-8.75806
-10.8379
-13.54
-16.7727
85.1593
85.2596
84.7083
83.3478
81.2292
78.4282
74.8466
70.449
65.9031
58.9642
84.7398
84.0666
83.2248
82.2925
81.3334
80.3928
79.5
78.6723
77.9193
77.2448
76.6484
76.1257
75.6735
75.3085
75.0141
74.756
74.5364
74.3533
74.2037
74.0898
74.0033
73.9377
73.8906
73.8598
73.8418
73.8353
73.8348
73.8415
73.8434
55.0628
49.9459
43.8034
37.072
29.8615
22.4288
15.2881
8.99761
3.9476
0.279818
-2.08295
-3.34473
-3.7453
-3.51612
-2.77554
-1.87054
-1.1494
-0.609731
-0.245434
-0.0487537
0.0245151
-0.103382
-0.488718
-1.09302
-1.89747
-2.89521
-4.08804
-5.47916
-7.07645
-8.88417
-10.9111
-13.5706
-16.7906
-20.0878
85.6256
85.968
85.7283
84.6919
82.8902
80.4226
77.2086
73.1558
68.2396
63.1976
55.6457
85.0364
84.2294
83.2883
82.2915
81.2944
80.334
79.4332
78.605
77.8561
77.1879
76.5965
76.0796
75.6604
75.3203
75.0177
74.756
74.534
74.3489
74.2052
74.0932
74.0048
73.9377
73.8899
73.8588
73.8408
73.8345
73.8343
73.8415
73.8437
51.451
45.9529
39.352
32.1635
24.5671
16.9284
9.86803
3.95402
-0.51925
-3.53787
-5.27636
-5.98843
-5.92769
-5.08458
-3.95822
-3.03674
-2.31312
-1.78223
-1.43665
-1.26776
-1.22997
-1.40599
-1.85525
-2.53767
-3.43321
-4.53393
-5.84093
-7.35723
-9.08985
-11.0421
-13.6498
-16.8238
-20.1005
-23.4071
85.9982
86.5704
86.6428
85.9364
84.4585
82.3231
79.4673
75.8001
71.265
65.8197
60.268
52.0791
85.2489
84.3199
83.2981
82.2527
81.2292
80.2571
79.354
78.5295
77.7873
77.1243
76.5393
76.0627
75.675
75.3248
75.0177
74.7531
74.5283
74.3513
74.2107
74.096
74.0055
73.9374
73.8889
73.8575
73.8396
73.8335
73.8337
73.8416
73.844
47.581
41.6766
34.5751
26.9033
18.9433
11.1927
4.3541
-1.04447
-4.84404
-7.17117
-8.28184
-8.46048
-7.69404
-6.40039
-5.23741
-4.29821
-3.57175
-3.05031
-2.72509
-2.58655
-2.58741
-2.81571
-3.33415
-4.10078
-5.0942
-6.30518
-7.7338
-9.38274
-11.2567
-13.7911
-16.9108
-20.1297
-23.418
-26.7135
86.2725
87.0611
87.4419
87.0703
85.9234
84.1236
81.6276
78.3351
74.2032
69.1845
63.2052
57.125
48.2639
85.3755
84.346
83.2625
82.1824
81.1423
80.1653
79.2649
78.4473
77.7105
77.0544
76.518
76.0807
75.6805
75.3248
75.014
74.7457
74.5321
74.3596
74.2152
74.0978
74.0057
73.9365
73.8875
73.8558
73.8381
73.8324
73.833
73.8416
73.8444
43.445
37.0899
29.4302
21.2504
12.9761
5.24865
-1.1972
-5.9424
-8.99023
-10.6028
-11.0956
-10.4617
-9.17499
-7.82288
-6.62039
-5.66175
-4.93198
-4.42071
-4.11764
-4.01213
-4.05506
-4.34006
-4.93319
-5.79034
-6.88863
-8.2171
-9.77474
-11.5623
-14.0186
-17.0643
-20.216
-23.4475
-26.7235
-29.9958
86.4457
87.4334
88.1161
88.0824
87.2739
85.8128
83.6824
80.767
77.0236
72.4282
66.9329
60.415
53.78
44.1991
85.4251
84.3177
83.189
82.0859
81.0376
80.0619
79.1681
78.3557
77.626
77.0281
76.5399
76.0873
75.6805
75.3203
75.0046
74.7512
74.5439
74.3666
74.2187
74.0989
74.0052
73.9351
73.8856
73.8538
73.8363
73.8311
73.8322
73.8416
73.8449
39.0227
32.1512
23.8606
15.1601
6.66383
-0.860267
-6.72112
-10.6856
-12.9271
-13.8217
-13.3745
-12.1388
-10.7749
-9.35981
-8.1142
-7.13415
-6.4006
-5.90033
-5.62124
-5.55158
-5.64026
-5.9866
-6.66009
-7.61427
-8.82437
-10.2776
-11.9703
-14.3409
-17.3082
-20.3742
-23.5349
-26.7544
-30.0047
-33.2337
86.5273
87.6821
88.6531
88.9613
88.4983
87.3793
85.6193
83.0892
79.7337
75.5419
70.4942
64.5329
57.4689
50.2468
39.8757
85.4096
84.244
83.0842
81.9682
80.9188
79.9491
79.0602
78.2551
77.5941
77.0546
76.5479
76.0873
75.6749
75.3085
75.0122
74.7675
74.5541
74.3722
74.2211
74.0992
74.0041
73.933
73.8832
73.8514
73.8343
73.8297
73.8314
73.8416
73.8453
34.2838
26.8076
17.8012
8.59494
0.025544
-7.06914
-12.1473
-15.2226
-16.631
-16.4305
-15.2827
-13.949
-12.502
-11.0183
-9.72566
-8.72221
-7.98447
-7.49597
-7.24277
-7.21198
-7.35022
-7.7627
-8.52242
-9.5801
-10.9089
-12.4929
-14.7687
-17.6501
-20.6286
-23.6985
-26.8437
-30.0364
-33.2415
-36.405
86.5314
87.8184
89.0393
89.6905
89.5844
88.8105
87.425
85.2897
82.3289
78.5346
73.9091
68.4259
62.0094
54.3862
46.5338
35.2734
85.3396
84.1327
82.954
81.8338
80.7891
79.8235
78.9416
78.2166
77.6258
77.064
76.5479
76.0806
75.6603
75.3187
75.0342
74.7818
74.5626
74.3766
74.2226
74.0985
74.002
73.9303
73.8802
73.8487
73.832
73.8281
73.8305
73.8417
73.8459
29.1828
20.9787
11.1673
1.53094
-6.89664
-13.2948
-17.4025
-19.5089
-19.6363
-18.6132
-17.3404
-15.9008
-14.3631
-12.8051
-11.4614
-10.4326
-9.69016
-9.21427
-8.989
-9.00014
-9.19188
-9.67543
-10.5272
-11.6948
-13.1479
-15.3146
-18.0998
-20.9846
-23.9626
-27.0142
-30.1269
-33.2735
-36.4116
-39.4882
86.4705
87.8594
89.2829
90.2492
90.5116
90.0942
89.0845
87.3548
84.7988
81.4042
77.1869
72.1505
66.2505
59.3865
51.1876
42.643
30.3626
85.2246
83.9909
82.8036
81.6862
80.6444
79.6851
78.896
78.2544
77.6369
77.064
76.5399
76.0626
75.6736
75.3475
75.0536
74.7939
74.5696
74.3797
74.2228
74.0968
73.9991
73.9268
73.8767
73.8455
73.8295
73.8265
73.8297
73.8417
73.8464
23.6481
14.5417
3.86061
-6.04122
-14.0294
-19.437
-22.4117
-22.9912
-22.1478
-20.964
-19.5554
-18.0002
-16.3641
-14.7261
-13.3276
-12.2714
-11.5239
-11.0615
-10.8662
-10.9224
-11.1717
-11.7312
-12.6806
-13.9634
-15.9971
-18.6697
-21.4502
-24.3296
-27.2878
-30.3032
-33.3647
-36.4437
-39.4934
-42.4619
86.3557
87.8208
89.4029
90.6407
91.2519
91.2083
90.5827
89.2684
87.1314
84.1436
80.3295
75.7151
70.2944
63.9958
56.6897
47.8961
38.5784
25.1028
85.0729
83.825
82.6376
81.5212
80.4847
79.6316
78.9405
78.2674
77.6369
77.0545
76.5179
76.0798
75.7106
75.3732
75.0703
74.8043
74.5749
74.3812
74.2217
74.0939
73.9952
73.9225
73.8726
73.8419
73.8268
73.8248
73.8288
73.8418
73.847
17.5686
7.31083
-4.2358
-14.0884
-21.2705
-25.3608
-26.5031
-25.8964
-24.8462
-23.489
-21.9321
-20.2516
-18.5099
-16.7865
-15.3295
-14.2441
-13.4911
-13.0432
-12.8799
-12.9842
-13.295
-13.9353
-14.987
-16.8466
-19.3794
-22.037
-24.806
-27.6638
-30.584
-33.5454
-36.5349
-39.5253
-42.4658
-45.3053
86.197
87.7162
89.4182
90.8829
91.8049
92.1195
91.8933
91.0127
89.3111
86.7437
83.334
79.1277
74.1476
68.3702
61.6896
53.9468
44.5348
34.3422
19.4363
84.8923
83.6404
82.4514
81.3386
80.4224
79.6839
78.9556
78.2674
77.6258
77.028
76.5395
76.1264
75.7437
75.3955
75.0849
74.8126
74.5784
74.3811
74.219
74.0896
73.9902
73.9174
73.8679
73.8381
73.824
73.823
73.8279
73.8418
73.8477
10.7557
-1.02789
-13.1605
-22.5722
-28.3795
-30.2266
-29.9166
-29.0109
-27.7334
-26.189
-24.4722
-22.6574
-20.8037
-18.9901
-17.4712
-16.3551
-15.5965
-15.164
-15.0347
-15.1902
-15.5663
-16.291
-17.9134
-20.2617
-22.7654
-25.4031
-28.1471
-30.9653
-33.8306
-36.7184
-39.6159
-42.497
-45.3077
-47.9981
86.0036
87.5577
89.3465
90.9937
92.1885
92.8253
92.9759
92.5554
91.32
89.1916
86.1959
82.3903
77.8266
72.514
66.4072
59.3613
51.1855
41.1253
29.9475
13.299
84.6892
83.4323
82.2444
81.267
80.4835
79.7013
78.9556
78.2543
77.5939
77.0547
76.5974
76.1684
75.7728
75.4152
75.097
74.8186
74.5796
74.3789
74.2146
74.0839
73.984
73.9114
73.8628
73.834
73.8211
73.8211
73.8269
73.8419
73.8484
2.86145
-10.8162
-23.0705
-31.06
-34.2817
-34.2793
-33.5626
-32.3358
-30.8043
-29.0601
-27.174
-25.2175
-23.2463
-21.3385
-19.7553
-18.6072
-17.8429
-17.4269
-17.3337
-17.543
-17.9874
-19.2735
-21.37
-23.6705
-26.1422
-28.7487
-31.4504
-34.2127
-37.0047
-39.8002
-42.586
-45.3378
-47.9993
-50.5216
85.7832
87.3566
89.2037
90.9907
92.4206
93.3446
93.8259
93.8444
93.1215
91.4712
88.9064
85.5041
81.3388
76.4555
70.8438
64.4349
57.0374
48.4357
37.7042
25.4543
6.61537
84.4588
83.2
82.1626
81.3378
80.5034
79.7013
78.9405
78.2164
77.6264
77.1255
76.6497
76.2055
75.7988
75.4321
75.1063
74.8219
74.5784
74.3746
74.2082
74.0766
73.9767
73.9049
73.8573
73.8298
73.818
73.8192
73.826
73.842
73.8491
-6.68866
-23.2362
-33.1469
-38.3898
-39.1401
-38.5664
-37.4234
-35.857
-34.0488
-32.0931
-30.0319
-27.9283
-25.8356
-23.8313
-22.1821
-21.0014
-20.2318
-19.8334
-19.778
-20.043
-21.0442
-22.7842
-24.8082
-27.0608
-29.4914
-32.0505
-34.694
-37.3834
-40.0841
-42.7687
-45.4243
-48.0277
-50.5214
-52.859
85.5309
87.1217
89.0047
90.8918
92.5191
93.6961
94.4658
94.8676
94.652
93.5442
91.4532
88.4658
84.6924
80.2084
75.0435
69.1659
62.4788
54.7467
45.7428
34.3195
20.9745
-0.689528
84.2002
83.1076
82.2444
81.3605
80.5034
79.6839
78.8957
78.2555
77.7119
77.1895
76.696
76.239
75.8214
75.4454
75.1122
74.822
74.5744
74.3678
74.1998
74.0678
73.9685
73.8978
73.8515
73.8253
73.8148
73.8172
73.8251
73.842
73.8498
-20.3779
-36.8295
-43.1608
-44.5344
-44.2375
-43.0365
-41.4514
-39.5459
-37.4519
-35.2737
-33.0351
-30.7819
-28.5664
-26.4648
-24.7493
-23.5362
-22.762
-22.3825
-22.3658
-23.1887
-24.626
-26.2614
-28.2165
-30.4147
-32.7897
-35.2863
-37.8558
-40.4549
-43.0465
-45.6028
-48.1105
-50.5474
-52.8572
-54.9919