/*--------------------------------*- C++ -*----------------------------------*\
  =========                 |
  \\      /  F ield         | OpenFOAM: The Open Source CFD Toolbox
   \\    /   O peration     | Website:  https://openfoam.org
    \\  /    A nd           | Version:  8
     \\/     M anipulation  |
\*---------------------------------------------------------------------------*/
FoamFile
{
    version     2.0;
    format      ascii;
    class       volScalarField;
    location    "0.05";
    object      epsilon;
}
// * * * * * * * * * * * * * * * * * * * * * * * * * * * * * * * * * * * * * //

dimensions      [0 2 -3 0 0 0 0];

internalField   nonuniform List<scalar> 
15677
(
59.7001
18.3537
52.6128
8.08777
25.8887
50.1625
4.62735
13.2615
31.5759
50.4824
3.17795
7.72222
17.0802
37.2621
51.6012
2.48958
5.04203
10.0245
20.8053
42.6391
53.6495
2.14577
3.62217
6.46123
12.1571
24.5375
47.6455
55.7246
1.97988
2.82056
4.52415
7.72086
14.2723
28.2415
52.0126
57.6495
1.9117
2.35282
3.40136
5.30788
8.91357
16.4156
31.7494
55.6866
59.3566
1.88417
2.08019
2.72307
3.90761
6.02014
10.1003
18.5313
34.941
58.7106
60.8583
1.87055
1.93937
2.30706
3.05448
4.35678
6.70365
11.2708
20.5585
37.7657
61.1867
62.1167
1.86766
1.8783
2.05644
2.52048
3.34723
4.77398
7.3616
12.4115
22.453
40.2298
63.1738
63.2391
1.86863
1.84884
1.91657
2.18573
2.71199
3.61364
5.16435
7.99729
13.5011
24.199
42.3214
64.8054
64.1652
1.86954
1.83869
1.85193
1.98249
2.30657
2.88541
3.85745
5.53368
8.60269
14.5336
25.7589
44.1168
66.1088
64.9946
1.86978
1.83696
1.82113
1.86771
2.05123
2.41757
3.04237
4.08329
5.88016
9.17873
15.4815
27.1627
45.6122
67.1666
65.7201
1.86978
1.83722
1.81051
1.81332
1.89812
2.11717
2.51833
3.1856
4.29153
6.20654
9.71041
16.3597
28.3845
46.8677
68.031
66.3609
1.86974
1.83748
1.80822
1.78975
1.81538
1.93017
2.17851
2.60987
3.31591
4.48464
6.50576
10.2064
17.1446
29.4473
47.9131
68.733
66.9494
1.86972
1.83758
1.80793
1.78272
1.77568
1.82143
1.96223
2.23485
2.69265
3.43497
4.6598
6.78273
10.6537
17.8453
30.3541
48.7684
69.3358
67.4506
1.86971
1.83759
1.80796
1.78099
1.76143
1.76611
1.83167
1.99292
2.28604
2.76754
3.54191
4.81981
7.03174
11.0565
18.4547
31.1175
49.4772
69.8132
67.9585
1.86971
1.83758
1.80798
1.78066
1.75695
1.74391
1.76034
1.84303
2.02143
2.33231
2.83441
3.63829
4.96248
7.25452
11.4091
18.9796
31.751
50.0322
70.2635
68.3522
1.86971
1.83757
1.80799
1.78062
1.75568
1.73588
1.72947
1.75734
1.85443
2.04758
2.37363
2.89407
3.72355
5.08852
7.44905
11.7148
19.4187
32.2603
50.4958
70.5972
68.8222
1.86971
1.83755
1.80798
1.7806
1.75536
1.73317
1.71725
1.71795
1.7558
1.86557
2.07119
2.41034
2.94657
3.79802
5.19778
7.6163
11.9711
19.7789
32.667
50.8313
70.9691
69.1349
1.86971
1.83755
1.80798
1.78058
1.75528
1.73234
1.71264
1.70124
1.70841
1.7557
1.87603
2.09228
2.44264
2.99215
3.86215
5.29056
7.75639
12.1816
20.0635
32.9699
51.1182
71.2179
69.6007
1.86971
1.83754
1.80797
1.78055
1.75524
1.73209
1.71103
1.69441
1.6872
1.7008
1.75601
1.88563
2.11101
2.47075
3.03135
3.91628
5.36794
7.86986
12.3471
20.2778
33.1946
51.3073
71.569
69.8548
1.86971
1.83754
1.80796
1.78052
1.75521
1.73199
1.71048
1.69179
1.67798
1.67525
1.69448
1.75676
1.89449
2.12757
2.49513
3.06459
3.96136
5.42996
7.95946
12.4703
20.4319
33.3429
51.4683
71.7727
70.3231
1.86971
1.83753
1.80796
1.7805
1.75518
1.73193
1.71029
1.69081
1.67421
1.66359
1.66476
1.68943
1.75813
1.90271
2.14228
2.51621
3.09267
3.99807
5.47937
8.02465
12.5573
20.5258
33.4305
51.5829
72.167
70.5675
1.86971
1.83753
1.80795
1.78049
1.75516
1.73188
1.71019
1.69042
1.67273
1.65852
1.65066
1.65613
1.68556
1.75994
1.91052
2.15564
2.53477
3.11651
4.02784
5.5154
8.07111
12.6075
20.5821
33.475
51.6562
72.4622
429.275
1.86971
1.83753
1.80795
1.78047
1.75514
1.73184
1.71013
1.69024
1.67216
1.65638
1.6443
1.63979
1.64869
1.68291
1.76257
1.91847
2.16824
2.5515
3.13684
4.05127
5.54221
8.09738
12.6339
20.5833
33.4697
51.7772
88.8002
717.279
1.86971
1.83753
1.80794
1.78047
1.75512
1.73181
1.71007
1.69013
1.6719
1.65547
1.64154
1.63207
1.63019
1.64359
1.6822
1.76643
1.92694
2.18079
2.56731
3.15507
4.07065
5.56004
8.11317
12.6305
20.5698
33.472
52.6971
122.14
997.964
1.86971
1.83753
1.80794
1.78046
1.75511
1.73178
1.71002
1.69005
1.67175
1.65505
1.64035
1.62853
1.6213
1.62329
1.63951
1.68324
1.77183
1.93675
2.19419
2.58343
3.17237
4.08716
5.57271
8.11292
12.6181
20.5397
33.4964
55.25
157.706
1246.22
1.86971
1.83753
1.80794
1.78045
1.7551
1.73176
1.70998
1.68998
1.67164
1.65482
1.63979
1.6269
1.61717
1.61312
1.6176
1.63957
1.68626
1.77955
1.94864
2.20947
2.60068
3.19004
4.1023
5.58093
8.10972
12.5935
20.5011
33.5945
59.8161
190.318
1474.97
1.86971
1.83753
1.80793
1.78045
1.7551
1.73174
1.70995
1.68993
1.67155
1.65466
1.63948
1.62611
1.61525
1.60818
1.60671
1.61601
1.64138
1.69237
1.79034
1.96358
2.2274
2.62041
3.20917
4.11801
5.58789
8.10278
12.5643
20.4568
33.846
64.5339
221.258
1669.05
1.86971
1.83753
1.80793
1.78044
1.75509
1.73172
1.70992
1.68989
1.67147
1.65454
1.63927
1.62568
1.61429
1.60579
1.6014
1.60386
1.61741
1.64618
1.7025
1.8052
1.98244
2.24934
2.64356
3.23152
4.1356
5.59615
8.09514
12.533
20.4074
34.3116
69.3314
248.479
1816.6
1.86971
1.83753
1.80793
1.78044
1.75509
1.7317
1.7099
1.68985
1.67141
1.65445
1.63911
1.62541
1.61376
1.60459
1.59881
1.5978
1.60503
1.62176
1.65563
1.71748
1.82502
2.00649
2.27615
2.67166
3.25794
4.15713
5.60751
8.08933
12.5002
20.362
34.8679
73.6846
269.631
1931.17
1.86971
1.83753
1.80792
1.78044
1.75509
1.73168
1.70989
1.68982
1.67135
1.65436
1.63897
1.6252
1.61341
1.60394
1.59747
1.59481
1.59886
1.60918
1.6307
1.67085
1.73825
1.85107
2.0366
2.30924
2.7054
3.29014
4.18367
5.62362
8.08676
12.466
20.3252
35.4052
77.0566
286.369
2023.22
1.83753
1.86974
1.80792
1.78044
1.75508
1.73167
1.70987
1.68979
1.67131
1.65429
1.63886
1.62504
1.61314
1.60352
1.59672
1.59329
1.59583
1.60296
1.61795
1.64621
1.69251
1.76612
1.88424
2.07414
2.34928
2.74636
3.32876
4.21656
5.64483
8.08783
12.4289
20.2838
35.8128
79.6439
299.94
2100.07
1.80792
1.83763
1.86981
1.78044
1.75508
1.73166
1.70986
1.68976
1.67127
1.65423
1.63876
1.6249
1.61292
1.60322
1.59623
1.59247
1.59431
1.59997
1.61176
1.63391
1.66876
1.72192
1.80204
1.92601
2.11988
2.39776
2.79489
3.37505
4.25593
5.67177
8.09231
12.3892
20.234
36.0943
81.622
311.411
2166.65
1.78043
1.80808
1.83783
1.86989
1.75508
1.73165
1.70985
1.68974
1.67124
1.65417
1.63868
1.62479
1.61274
1.60299
1.59587
1.59197
1.59353
1.59856
1.60895
1.62823
1.65737
1.69977
1.76029
1.84743
1.97703
2.17503
2.45489
2.85234
3.42897
4.30223
5.70819
8.1027
12.3534
20.1721
36.2668
83.179
321.356
2226.02
1.75508
1.78064
1.80839
1.83804
1.86996
1.73164
1.70985
1.68972
1.67121
1.65412
1.63861
1.62468
1.61259
1.60279
1.59557
1.59162
1.59307
1.59789
1.60781
1.62597
1.65266
1.69
1.74061
1.80929
1.90341
2.0389
2.24004
2.52224
2.91839
3.49092
4.36143
5.75685
8.12088
12.321
20.1013
36.3622
84.4238
330.327
2280.29
1.73163
1.75533
1.78107
1.80871
1.83825
1.87004
1.70984
1.68971
1.67119
1.65408
1.63855
1.62459
1.61246
1.60262
1.59532
1.59135
1.59275
1.59756
1.60743
1.6254
1.65146
1.68708
1.73347
1.79326
1.87019
1.97178
2.11225
2.31616
2.59886
2.9937
3.56868
4.43683
5.81396
8.14535
12.293
20.0235
36.3949
85.4667
338.496
2330.52
1.70983
1.73192
1.75585
1.7815
1.80905
1.83847
1.87012
1.68969
1.67117
1.65404
1.6385
1.62451
1.61235
1.60248
1.59511
1.59113
1.59252
1.59736
1.60737
1.6256
1.65185
1.68738
1.73275
1.78965
1.85939
1.94533
2.05354
2.19873
2.40349
2.68605
3.0873
3.6659
4.52179
5.87878
8.1758
12.269
19.944
36.3874
86.3571
346.166
2377.7
1.68968
1.71016
1.73251
1.75638
1.78195
1.80939
1.83869
1.8702
1.67115
1.65401
1.63846
1.62443
1.61226
1.60235
1.59493
1.59094
1.59233
1.59724
1.60744
1.62609
1.65305
1.68949
1.7355
1.79229
1.85994
1.94055
2.03567
2.15093
2.29867
2.50352
2.79358
3.20325
3.77383
4.61488
5.94978
8.21136
12.2506
19.8643
36.3662
87.1544
353.326
2422.02
1.67114
1.69003
1.71084
1.73312
1.75693
1.78241
1.80974
1.83892
1.87028
1.65398
1.63843
1.62437
1.61218
1.60224
1.59477
1.59079
1.59218
1.59716
1.60756
1.62667
1.65448
1.69239
1.74017
1.79875
1.86756
1.94741
2.03805
2.14263
2.26427
2.4139
2.62802
2.92862
3.33071
3.88991
4.71472
6.02586
8.25172
12.2362
19.7892
36.3261
87.8693
360.172
2464.13
1.65395
1.67152
1.69076
1.71154
1.73375
1.75749
1.78288
1.8101
1.83916
1.87037
1.6384
1.62431
1.61212
1.60213
1.59464
1.59066
1.59206
1.59711
1.60771
1.62726
1.65594
1.69544
1.74562
1.80733
1.87926
1.96195
2.05357
2.15518
2.26666
2.39416
2.55939
2.78617
3.07872
3.46886
4.01309
4.81982
6.10598
8.29565
12.2275
19.7184
36.2798
88.5412
366.619
2503.78
1.63837
1.65434
1.6723
1.69151
1.71225
1.7344
1.75807
1.78337
1.81047
1.8394
1.87046
1.62426
1.61207
1.60203
1.59453
1.59054
1.59196
1.59707
1.60786
1.62783
1.65736
1.6984
1.75108
1.81679
1.89342
1.98115
2.07745
2.18221
2.29263
2.41113
2.55652
2.74195
2.96337
3.24265
3.6168
4.1428
4.92881
6.18902
8.34279
12.2216
19.654
36.2332
89.1633
372.829
2541.6
1.62421
1.63878
1.65516
1.67311
1.69229
1.71299
1.73506
1.75866
1.78387
1.81085
1.83965
1.87054
1.61203
1.60194
1.59444
1.59045
1.59187
1.59705
1.60801
1.62837
1.65871
1.70119
1.75634
1.82613
1.9086
2.00349
2.10691
2.21886
2.33448
2.45418
2.5943
2.76383
2.94505
3.15765
3.41995
3.77304
4.27713
5.04055
6.27396
8.39191
12.2219
19.5961
36.189
89.7636
378.679
2577.11
1.612
1.6246
1.63963
1.656
1.67395
1.69309
1.71374
1.73575
1.75927
1.78438
1.81124
1.83991
1.87064
1.60185
1.59437
1.59036
1.59179
1.59703
1.60815
1.62887
1.65997
1.7038
1.76131
1.83508
1.92351
2.02729
2.14061
2.26268
2.38789
2.51555
2.66096
2.83093
2.99871
3.16781
3.36445
3.60778
3.93572
4.41525
5.15385
6.35985
8.44267
12.224
19.5443
36.1506
90.3285
384.327
2611.03
1.60178
1.61238
1.62542
1.6405
1.65687
1.67481
1.69392
1.71452
1.73645
1.7599
1.78491
1.81164
1.84017
1.87073
1.59432
1.59027
1.59172
1.59702
1.60829
1.62933
1.66114
1.70621
1.76598
1.84352
1.93782
2.05083
2.1765
2.31262
2.45092
2.59164
2.74984
2.9318
3.10236
3.26041
3.40981
3.58256
3.80445
4.1044
4.5558
5.26783
6.44585
8.49427
12.2287
19.4988
36.1176
90.88
389.629
2642.71
1.59429
1.60207
1.6132
1.62628
1.64141
1.65778
1.67569
1.69477
1.71532
1.73718
1.76054
1.78545
1.81205
1.84043
1.87081
1.59018
1.59165
1.597
1.60842
1.62976
1.66221
1.70843
1.77033
1.85141
1.95143
2.07361
2.21214
2.36626
2.52307
2.68134
2.85855
3.0617
3.24729
3.40915
3.54807
3.66924
3.81011
4.00478
4.27661
4.69747
5.38131
6.53121
8.54607
12.2368
19.459
36.0917
91.4023
394.755
2673
1.5901
1.59457
1.60271
1.61404
1.62717
1.64234
1.65871
1.6766
1.69564
1.71613
1.73793
1.7612
1.786
1.81245
1.84068
1.8709
1.59158
1.59699
1.60853
1.63015
1.66319
1.71046
1.77435
1.85874
1.9643
2.09539
2.24681
2.42031
2.60146
2.78507
2.98742
3.22066
3.43185
3.61021
3.75175
3.86064
3.94402
4.0462
4.20751
4.45008
4.83863
5.49359
6.6153
8.59767
12.247
19.4247
36.0716
91.9135
399.538
2701.1
1.59155
1.5901
1.59515
1.60337
1.61492
1.62809
1.64331
1.65967
1.67753
1.69655
1.71698
1.7387
1.76188
1.78655
1.81285
1.84093
1.87098
1.59697
1.60864
1.63051
1.66409
1.71233
1.77805
1.86551
1.97638
2.11601
2.28026
2.47378
2.68129
2.8994
3.13875
3.41226
3.66045
3.86731
4.02407
4.13096
4.19698
4.23213
4.28858
4.41126
4.62371
4.97899
5.6041
6.69763
8.64866
12.2588
19.3952
36.058
92.3983
404.171
2728.01
1.59699
1.59142
1.59011
1.59573
1.60408
1.61583
1.62906
1.64429
1.66067
1.67849
1.69748
1.71784
1.73948
1.76254
1.78708
1.81323
1.84116
1.87106
1.60872
1.63083
1.6649
1.71403
1.78145
1.87175
1.98768
2.13538
2.31235
2.52608
2.76081
3.01797
3.30948
3.64338
3.94311
4.19326
4.37839
4.49427
4.5481
4.55607
4.53163
4.53522
4.61453
4.79461
5.11758
5.71221
6.7778
8.69871
12.272
19.3701
36.0491
92.8714
408.462
2752.82
1.60887
1.59664
1.5911
1.59009
1.59638
1.60486
1.61676
1.63007
1.64531
1.6617
1.67948
1.69844
1.71872
1.74026
1.76319
1.78759
1.81361
1.8414
1.87114
1.6311
1.66563
1.71558
1.78456
1.8775
1.99817
2.15348
2.34296
2.57664
2.83913
3.13897
3.49143
3.91252
4.29637
4.61203
4.84426
4.98127
5.02863
5.0054
4.93721
4.84076
4.78429
4.81657
4.96134
5.25322
5.81737
6.85549
8.74752
12.2862
19.3489
36.0458
93.32
412.634
2776.62
1.63145
1.60817
1.5957
1.59073
1.59019
1.59705
1.6057
1.61773
1.63113
1.64636
1.66276
1.68049
1.69941
1.7196
1.74102
1.76383
1.78809
1.81397
1.84162
1.87122
1.66626
1.71696
1.78739
1.88277
2.00787
2.17034
2.37201
2.62504
2.91578
3.26163
3.68125
4.20791
4.72657
5.1638
5.47508
5.65228
5.69774
5.63678
5.5055
5.33983
5.15791
5.03422
5.01634
5.12344
5.38507
5.91913
6.93042
8.79489
12.3011
19.3313
36.0469
93.7556
416.468
2795.75
1.66696
1.63016
1.60622
1.59465
1.59046
1.59045
1.59771
1.60662
1.61872
1.63222
1.64744
1.66385
1.68154
1.70039
1.72045
1.74176
1.76444
1.78858
1.81433
1.84184
1.87129
1.7182
1.78994
1.8876
2.01682
2.186
2.39943
2.671
2.99054
3.38478
3.87597
4.52575
5.2256
5.88076
6.3582
6.61087
6.66339
6.55054
6.32762
6.05036
5.76312
5.48154
5.28363
5.21274
5.28048
5.51253
6.01713
7.00241
8.84064
12.3164
19.3166
36.0503
94.168
419.713
2811.86
1.7195
1.66501
1.62651
1.60413
1.59375
1.5902
1.5909
1.59839
1.6076
1.61974
1.63336
1.64855
1.66497
1.68257
1.70133
1.72128
1.74248
1.76504
1.78906
1.81467
1.84205
1.87136
1.79224
1.892
2.02506
2.20053
2.42518
2.71444
3.06323
3.50692
4.07294
4.86599
5.79811
6.7652
7.56716
8.01237
8.0969
7.9167
7.55621
7.10623
6.64018
6.20564
5.81006
5.5313
5.40486
5.43211
5.63519
6.11114
7.07134
8.88465
12.3319
19.3047
36.0567
94.5134
422.391
2829.28
1.79453
1.71668
1.65915
1.62265
1.60226
1.59294
1.58988
1.59149
1.59908
1.60864
1.62081
1.63453
1.6497
1.66608
1.68359
1.70225
1.72209
1.74318
1.76562
1.78951
1.815
1.84225
1.87143
1.89602
2.0326
2.21401
2.44927
2.75541
3.13362
3.62651
4.27086
5.23015
6.44923
7.82347
9.10026
9.97299
10.2339
9.98545
9.43285
8.72008
7.97193
7.27263
6.66514
6.14178
5.77612
5.59199
5.57805
5.75278
6.20097
7.1371
8.92684
12.3475
19.2949
36.0648
94.8043
425.327
2848.3
1.89988
1.79065
1.70766
1.65302
1.61914
1.60055
1.5922
1.58961
1.59218
1.59981
1.60974
1.62191
1.63573
1.65085
1.66717
1.68458
1.70314
1.72288
1.74386
1.76618
1.78996
1.81533
1.84245
1.87147
2.03954
2.22647
2.47175
2.79402
3.20144
3.74241
4.46984
5.61931
7.17773
9.05083
10.9483
12.469
13.237
13.0872
12.2969
11.2117
10.0357
8.91815
7.94287
7.13851
6.47489
6.01706
5.77356
5.71811
5.86519
6.28664
7.19973
8.96714
12.363
19.2882
36.0725
95.1271
428.501
2868.98
2.04597
1.89465
1.77716
1.69832
1.64739
1.61587
1.59897
1.59153
1.58941
1.59294
1.6006
1.61087
1.62306
1.63693
1.65197
1.66822
1.68554
1.70401
1.72364
1.74452
1.76673
1.7904
1.81564
1.84255
1.87147
2.23806
2.49265
2.83037
3.26639
3.85406
4.67082
6.03277
7.97605
10.4295
13.087
15.4721
17.0596
17.4529
16.6001
15.0252
13.2368
11.4873
9.93371
8.64411
7.62202
6.8075
6.25321
5.94914
5.85218
5.97214
6.3684
7.25926
9.00554
12.3762
19.283
36.0825
95.4806
432.008
2891.67
2.24856
2.03917
1.87478
1.76334
1.68969
1.64206
1.61279
1.59749
1.59094
1.58931
1.59375
1.60146
1.61203
1.62423
1.63809
1.65307
1.66924
1.68648
1.70486
1.72439
1.74516
1.76727
1.79082
1.8158
1.84255
1.87147
2.51222
2.8646
3.32824
3.9614
4.87487
6.46781
8.83267
11.935
15.4775
18.938
21.6596
23.0238
22.679
20.7722
18.1462
15.4807
13.0534
11.0047
9.36839
8.11152
7.13768
6.48374
6.11838
5.98025
6.07324
6.44613
7.31572
9.03724
12.3877
19.2784
36.095
95.8764
435.794
2916.34
2.52953
2.23966
2.01024
1.85469
1.75052
1.68146
1.63696
1.60988
1.59613
1.59045
1.58932
1.5946
1.60241
1.61318
1.62539
1.63922
1.65415
1.67024
1.6874
1.70568
1.72512
1.74578
1.76779
1.79103
1.8158
1.84255
1.87147
2.89696
3.38697
4.06486
5.08264
6.92009
9.73435
13.54
18.0738
22.8011
26.9694
29.7486
30.4774
28.9398
25.5795
21.622
17.9098
14.7101
12.1161
10.1073
8.60282
7.46361
6.70791
6.28103
6.10246
6.16873
6.51981
7.36211
9.06422
12.4007
19.2739
36.1113
96.3116
439.995
2943.46
2.9252
2.51821
2.19767
1.98137
1.83601
1.73824
1.67353
1.63208
1.60715
1.59488
1.59007
1.58945
1.59545
1.60342
1.6143
1.62653
1.64032
1.6552
1.67121
1.68829
1.70648
1.72582
1.74639
1.76804
1.79103
1.8158
1.84255
1.87147
3.44289
4.16527
5.29428
7.38408
10.6673
15.2175
20.8275
26.9838
32.8833
37.5269
39.9371
39.4912
36.2239
30.9768
25.4058
20.4877
16.4329
13.253
10.8528
9.09191
7.78356
6.92507
6.43694
6.21881
6.25882
6.5803
7.40149
9.09386
12.4153
19.2706
36.1319
96.801
444.538
2972.92
3.49112
2.91057
2.45717
2.15639
1.95448
1.81806
1.72636
1.6659
1.62742
1.6046
1.59376
1.58979
1.58978
1.59627
1.60447
1.61539
1.62766
1.64139
1.65622
1.67216
1.68916
1.70725
1.72651
1.74669
1.76804
1.79103
1.8158
1.84255
1.87147
4.26345
5.50809
7.85387
11.6179
16.941
23.6906
31.403
39.2715
46.1898
50.9103
52.3636
50.0809
44.4819
36.8997
29.4442
23.1774
18.1984
14.4019
11.5973
9.57512
8.09598
7.13472
6.58602
6.32933
6.33255
6.6316
7.44462
9.12646
12.4318
19.2677
36.1581
97.3415
449.61
3005.35
4.34945
3.47268
2.82059
2.39816
2.1179
1.9286
1.80067
1.71488
1.65855
1.62296
1.60228
1.59275
1.58954
1.59035
1.59706
1.60553
1.61645
1.62877
1.64244
1.65722
1.67308
1.69
1.70801
1.72685
1.74669
1.76805
1.79103
1.8158
1.84255
1.87143
5.72105
8.32508
12.5736
18.6854
26.6167
35.9762
45.994
55.5246
63.134
67.3463
67.0909
62.202
53.6284
43.2695
33.6805
25.9427
19.985
15.5504
12.3345
10.0492
8.39957
7.33645
6.72824
6.42029
6.39498
6.68774
7.4919
9.16235
12.4505
19.2673
36.191
97.9528
455.102
3040.47
4.3257
5.90867
3.33588
2.73556
2.34307
2.08082
1.90351
1.78383
1.7038
1.6515
1.61869
1.60015
1.59185
1.58924
1.59104
1.59783
1.60659
1.6175
1.62985
1.64346
1.6582
1.67398
1.69082
1.70838
1.72685
1.74669
1.76805
1.79103
1.8158
1.84245
1.87136
8.79373
13.5239
20.4281
29.5626
40.6252
52.913
65.3017
76.2703
84.0442
86.9662
84.095
75.7489
63.5473
49.9965
38.0571
28.7496
21.7737
16.6882
13.0585
10.5115
8.69328
7.52995
6.84576
6.49759
6.46319
6.74919
7.54375
9.20192
12.4718
19.2682
36.2321
98.6308
461.276
3079.19
4.10202
5.89023
9.20986
3.21099
2.6562
2.29
2.04485
1.87917
1.76754
1.69313
1.64475
1.61467
1.59821
1.59109
1.58902
1.5918
1.59862
1.60764
1.61853
1.63091
1.64446
1.65915
1.67485
1.69123
1.70838
1.72685
1.74669
1.76804
1.79103
1.81564
1.84225
1.87129
14.4579
22.1501
32.4902
45.2789
59.9018
75.2992
89.9551
101.941
109.138
109.789
103.26
90.5605
74.0982
56.9858
42.5181
31.5674
23.5479
17.8063
13.7651
10.9598
8.97624
7.69061
6.94592
6.58238
6.53778
6.8165
7.60067
9.24559
12.496
19.2711
36.283
99.4024
467.968
3120.92
3.90563
5.49463
9.22102
15.2897
3.09531
2.57976
2.23855
2.00996
1.85562
1.75183
1.6829
1.63833
1.61096
1.59653
1.59046
1.58892
1.59258
1.59942
1.60867
1.61955
1.63194
1.64544
1.66008
1.67528
1.69123
1.70838
1.72685
1.74669
1.76804
1.79081
1.81532
1.84204
1.87121
23.8331
35.3685
49.8773
66.8496
85.3192
103.842
120.478
132.849
138.506
135.713
124.384
106.43
85.1256
64.1425
47.0118
34.369
25.2935
18.8977
14.4505
11.3925
9.21202
7.82795
7.05609
6.67545
6.61942
6.89027
7.6632
9.29386
12.5237
19.2773
36.3465
100.262
475.556
3166.99
3.72738
5.15019
8.49729
15.375
25.3406
2.98434
2.50576
2.18869
1.97619
1.83289
1.73674
1.67312
1.63231
1.60765
1.59509
1.58997
1.58893
1.59336
1.60025
1.60968
1.62056
1.63294
1.6464
1.66053
1.67528
1.69123
1.70838
1.72685
1.74669
1.76778
1.79039
1.81499
1.84183
1.87114
38.1685
54.3738
73.6677
95.1975
117.634
139.131
157.272
169.177
172.091
164.512
147.183
123.115
96.4685
71.3759
51.4911
37.1306
26.9993
19.9569
15.1122
11.7536
9.414
7.97949
7.17741
6.77774
6.70885
6.97116
7.73193
9.34727
12.5553
19.2877
36.4245
101.248
483.777
3216.23
3.55937
4.83885
7.85332
14.1293
25.6088
40.6827
2.87724
2.43417
2.14049
1.94362
1.81103
1.72229
1.6639
1.62686
1.60476
1.59386
1.58963
1.58906
1.59411
1.60111
1.61066
1.62155
1.63393
1.64687
1.66053
1.67528
1.69123
1.70838
1.72685
1.74638
1.76726
1.78995
1.81466
1.84161
1.87106
58.726
80.2917
104.81
131.095
157.464
181.635
200.62
210.958
209.691
195.842
171.314
140.359
107.97
78.6024
55.9146
39.833
28.6561
20.9795
15.6642
12.063
9.63733
8.14691
7.31119
6.89026
6.80692
7.05993
7.80754
9.40644
12.5916
19.303
36.5214
102.352
493.202
3270.68
3.39971
4.54823
7.26333
12.9828
23.6713
41.2854
62.6311
2.77391
2.36511
2.09405
1.91232
1.79011
1.70863
1.65547
1.62201
1.60224
1.59283
1.58939
1.58932
1.59484
1.60198
1.61162
1.62255
1.63441
1.64686
1.66053
1.67528
1.69123
1.70838
1.72651
1.74577
1.76672
1.7895
1.81431
1.84139
1.87098
86.6646
114.076
144.062
175.148
205.305
231.722
250.678
258.07
250.944
229.257
196.391
157.903
119.482
85.7479
60.2483
42.4608
30.257
21.8329
16.1374
12.4054
9.88452
8.33208
7.45886
7.01416
6.91457
7.15739
7.89076
9.47206
12.6332
19.3247
36.6393
103.609
503.377
3328.17
3.24793
4.27531
6.70963
11.9074
21.8514
38.461
63.7573
92.3601
2.67447
2.29876
2.04948
1.88236
1.7703
1.6961
1.64793
1.6177
1.60007
1.59196
1.58922
1.58977
1.59553
1.60288
1.61259
1.62303
1.63439
1.64686
1.66053
1.67528
1.69123
1.708
1.72581
1.74514
1.76617
1.78904
1.81396
1.84116
1.8709
122.924
156.439
191.973
227.826
261.572
289.677
307.47
310.217
295.34
264.227
222.012
175.497
130.873
92.7507
64.4643
45.0015
31.5937
22.5644
16.6608
12.7845
10.1584
8.53712
7.62206
7.15075
7.03285
7.26447
7.9824
9.54492
12.6812
19.3539
36.7859
104.972
515.206
3402.84
3.10386
4.01987
6.18787
10.8827
20.106
35.7809
59.8425
94.2087
130.772
2.57905
2.23527
2.00688
1.85404
1.75213
1.68486
1.64119
1.61385
1.59823
1.59123
1.589
1.59032
1.59622
1.60382
1.61304
1.62301
1.63439
1.64686
1.66053
1.67528
1.69082
1.70724
1.7251
1.7445
1.7656
1.78856
1.81359
1.84092
1.87081
168.152
207.845
248.939
289.539
326.661
355.725
370.875
366.92
342.232
300.178
247.782
192.916
142.031
99.5603
68.5405
47.1237
32.7399
23.3737
17.2402
13.2046
10.4622
8.76439
7.80264
7.30147
7.16294
7.38218
8.08343
9.62593
12.7364
19.3931
36.9613
106.544
530.121
3492.45
2.96717
3.78236
5.69878
9.90404
18.408
33.1729
56.1226
88.982
133.508
178.415
2.48795
2.17481
1.96665
1.82806
1.73579
1.67477
1.63514
1.61042
1.59664
1.59064
1.58884
1.59094
1.59699
1.60428
1.61297
1.62301
1.63439
1.64686
1.66053
1.67485
1.68999
1.70645
1.72437
1.74383
1.76502
1.78808
1.81322
1.84068
1.87073
222.695
268.564
315.297
360.734
400.995
430.021
440.599
427.514
390.872
336.518
273.333
209.969
152.867
106.137
71.9438
48.9437
34.0081
24.2696
17.8823
13.6706
10.7994
9.01657
8.00263
7.46795
7.30617
7.51163
8.19471
9.71601
12.8004
19.4436
37.1771
108.595
549.758
3582.06
2.83731
3.56399
5.24385
8.97724
16.7475
30.6004
52.4748
84.0514
126.705
182.114
235.47
2.40148
2.1179
1.92983
1.80472
1.72111
1.66571
1.62974
1.6074
1.59531
1.59014
1.58878
1.59169
1.59729
1.60423
1.61297
1.62301
1.63439
1.64687
1.66007
1.67396
1.68913
1.70565
1.72362
1.74315
1.76442
1.78758
1.81284
1.84043
1.87064
286.664
338.806
391.466
441.986
485.073
512.644
516.153
491.159
440.446
372.677
298.349
226.5
163.309
111.618
74.8607
50.9571
35.4124
25.2624
18.5943
14.1878
11.174
9.29659
8.22435
7.65202
7.46403
7.65423
8.31774
9.81654
12.874
19.5096
37.4811
111.314
570.945
3670.83
2.71408
3.36613
4.82434
8.10613
15.1255
28.0459
48.8471
79.211
120.388
173.38
240.058
301.826
2.32049
2.06595
1.89681
1.78377
1.70793
1.65759
1.62492
1.60477
1.59415
1.58976
1.58899
1.59203
1.59713
1.60425
1.61297
1.62301
1.63441
1.6464
1.65913
1.67305
1.68826
1.70483
1.72285
1.74246
1.76381
1.78706
1.81245
1.84017
1.87054
360.089
418.882
478.095
534.129
579.517
603.58
596.826
556.857
490.123
408.148
322.57
242.388
171.989
116.31
78.085
53.1859
36.9686
26.3633
19.3842
14.7622
11.5902
9.60772
8.47032
7.85568
7.63812
7.81084
8.45419
9.92877
12.96
19.6074
37.9179
114.335
594.206
3757.55
2.59857
3.1848
4.44071
7.29263
13.555
25.5082
45.2079
74.3886
114.224
165.463
228.887
307.011
377.233
2.24698
2.0195
1.86723
1.76496
1.6961
1.65032
1.62065
1.60246
1.59319
1.58972
1.58896
1.59192
1.59712
1.60425
1.61297
1.62303
1.63393
1.64542
1.65817
1.67213
1.68736
1.70398
1.72206
1.74174
1.76318
1.78654
1.81205
1.83991
1.87045
443.122
509.456
576.326
638.447
685.144
702.655
681.642
623.51
539.128
442.508
345.793
255.549
179.401
121.487
81.6501
55.6545
38.694
27.5847
20.2612
15.4003
12.0529
9.95355
8.74334
8.08114
7.83046
7.98213
8.60528
10.0546
13.0775
19.757
38.4341
117.767
619.123
3841.74
2.49369
3.01872
4.09449
6.54157
12.0532
22.9984
41.5453
69.5288
108.116
157.844
219.074
292.672
382.451
461.544
2.18165
1.97797
1.84072
1.74808
1.68549
1.64382
1.61684
1.60046
1.59271
1.58955
1.58867
1.59196
1.59712
1.60423
1.61304
1.62254
1.63292
1.64444
1.65719
1.67118
1.68645
1.70311
1.72125
1.74101
1.76253
1.786
1.81164
1.83965
1.87037
536.325
611.79
688.022
756.91
802.934
809.407
769.385
690.014
586.785
475.424
364.969
266.758
187.556
127.197
85.5924
58.3892
40.6077
28.9404
21.235
16.1092
12.5672
10.338
9.04643
8.33084
8.04321
8.16994
8.77246
10.2212
13.2366
19.9402
39.0512
121.615
646.393
3922.12
2.40064
2.8698
3.78716
5.85929
10.637
20.5349
37.8628
64.5998
101.974
150.397
209.83
280.526
363.873
465.921
555.034
2.12358
1.94087
1.81698
1.73295
1.67599
1.63799
1.6135
1.5992
1.59226
1.5892
1.58869
1.59196
1.59713
1.60428
1.61258
1.62153
1.63191
1.64343
1.65619
1.6702
1.68551
1.70222
1.72043
1.74025
1.76187
1.78545
1.81123
1.8394
1.87028
640.867
728.006
816.322
892.295
933.796
922.996
858.695
755.338
632.54
502.545
381.255
279.049
196.521
133.493
89.9507
61.4188
42.7307
30.4455
22.3165
16.8967
13.1389
10.7651
9.38283
8.60731
8.27857
8.37613
8.99124
10.4334
13.4162
20.1665
39.7712
126.027
675.579
3998.23
2.31834
2.73743
3.52452
5.25344
9.32746
18.1403
34.1745
59.5865
95.7366
142.985
200.994
269.4
348.765
441.527
557.396
658.876
2.07193
1.90772
1.79573
1.71939
1.66744
1.63284
1.61117
1.59827
1.59179
1.58924
1.58869
1.59191
1.59729
1.60382
1.6116
1.62053
1.63087
1.6424
1.65516
1.66921
1.68454
1.70131
1.71958
1.73948
1.7612
1.7849
1.81084
1.83915
1.8702
758.865
862.401
966.344
1047.94
1078.33
1042.29
948.19
818.567
670.265
525.533
399.052
292.504
206.363
140.428
94.7663
64.7743
45.0855
32.1161
23.5173
17.7712
13.7737
11.2393
9.75588
8.91345
8.53845
8.64469
9.26345
10.6615
13.6209
20.4349
40.629
131.023
707.454
4068.66
2.24569
2.61916
3.30778
4.73661
8.14554
15.8392
30.5034
54.4862
89.356
135.507
192.373
259.094
335.373
422.588
524.786
657.832
775.718
2.02595
1.87813
1.77671
1.70719
1.65986
1.62908
1.60961
1.5976
1.59186
1.58924
1.58867
1.59203
1.59698
1.60286
1.61063
1.61952
1.62981
1.64135
1.65411
1.66819
1.68356
1.70037
1.71872
1.73869
1.76053
1.78437
1.81046
1.83891
1.87012
895.519
1022.88
1145.08
1227.72
1237.07
1166.18
1036.46
870.989
702.228
550.584
418.45
307.201
217.149
148.056
100.082
68.4879
47.6962
33.9699
24.85
18.7416
14.4779
11.7652
10.1692
9.25169
8.8786
8.97657
9.55011
10.9075
13.8504
20.7602
41.6306
136.761
741.648
4133.24
2.18158
2.51375
3.12425
4.30636
7.12028
13.6801
26.8814
49.3077
82.7959
127.869
183.814
249.334
323.443
406.38
500.891
613.224
769.847
910.565
1.98503
1.85172
1.75962
1.69636
1.65414
1.62668
1.60869
1.59771
1.59186
1.5892
1.58896
1.59169
1.59621
1.60196
1.60965
1.6185
1.62873
1.64028
1.65303
1.66714
1.68256
1.69941
1.71783
1.73792
1.75988
1.78385
1.81009
1.83868
1.87004
1059.85
1220.79
1362.23
1437.06
1411.92
1293.12
1110.62
915.509
737.015
577.788
439.529
323.21
228.941
156.432
105.94
72.5933
50.5881
36.0251
26.3277
19.8172
15.2581
12.3474
10.6258
9.69464
9.29933
9.3242
9.85172
11.1711
14.1117
21.1421
42.8174
143.343
778.87
4190.5
2.12497
2.42027
2.96578
3.95114
6.25871
11.7489
23.3764
44.0745
76.0304
119.986
175.168
239.907
312.579
392.57
481.126
582.997
707.302
897.858
1073.99
1.94862
1.82806
1.74443
1.68805
1.65059
1.62549
1.60883
1.59771
1.59179
1.58956
1.58899
1.59092
1.59551
1.60108
1.60864
1.61746
1.62762
1.63918
1.65194
1.66607
1.68153
1.69843
1.71696
1.73716
1.75925
1.78335
1.80973
1.83846
1.86996
1267.21
1474.61
1634.64
1689.43
1604.9
1402.22
1173.94
964.001
774.699
607.205
462.342
340.585
241.792
165.604
112.384
77.1242
53.7869
38.301
27.964
21.0074
16.1206
12.99
11.2234
10.2417
9.73906
9.68726
10.1676
11.4553
14.4043
21.5992
44.2116
150.895
818.98
4240.97
2.07492
2.33784
2.82663
3.65869
5.5443
10.0862
20.1256
38.8641
69.0492
111.772
166.286
230.601
302.503
380.57
465.082
558.745
669.137
809.117
1050.63
1281.83
1.91611
1.80709
1.73257
1.683
1.64903
1.62569
1.60883
1.5976
1.59227
1.58973
1.58878
1.5903
1.59481
1.60022
1.6076
1.61642
1.6265
1.63806
1.65083
1.66497
1.68049
1.69746
1.71611
1.73643
1.75864
1.78287
1.80938
1.83824
1.86989
1550.79
1827.24
2007.57
2008.82
1775.09
1495.9
1243.04
1016.46
815.288
638.849
486.912
359.36
255.745
175.614
119.452
82.1132
57.3182
40.8165
29.7729
22.3221
17.0715
13.8299
11.9596
10.8119
10.1958
10.0646
10.4984
11.7598
14.7375
22.1351
45.8575
159.697
862.253
4282.82
2.03046
2.26546
2.703
3.42093
4.9573
8.68335
17.2148
33.8729
61.9132
103.153
157.007
221.197
292.925
370.025
451.829
540.031
639.269
761.197
924.661
1251.69
1577.72
1.88733
1.79054
1.72545
1.68101
1.64931
1.62569
1.60869
1.59827
1.59272
1.58977
1.58884
1.58975
1.59409
1.59939
1.60655
1.61536
1.62536
1.63691
1.64969
1.66385
1.67946
1.69652
1.71529
1.73572
1.75805
1.78239
1.80904
1.83803
1.86981
2011.39
2398.28
2592.49
2291.74
1920.29
1597.68
1317.54
1072.74
858.698
672.673
513.224
379.542
270.821
186.496
127.178
87.5901
61.2063
43.5904
31.7677
23.7698
18.3128
14.8622
12.7247
11.4019
10.6672
10.4552
10.8432
12.0891
15.112
22.7721
47.8068
169.784
909.409
4316.17
1.99126
2.20183
2.59286
3.22448
4.47743
7.51026
14.6485
29.2508
54.8616
94.1333
147.163
211.449
283.557
360.544
440.924
525.323
617.4
724.396
864.332
1067.14
1554.76
2124.42
1.86434
1.78079
1.7229
1.68141
1.64931
1.62549
1.60961
1.59922
1.5932
1.59015
1.58901
1.58931
1.59333
1.59859
1.6055
1.61427
1.62421
1.63573
1.64855
1.66274
1.67846
1.69562
1.71449
1.73504
1.75747
1.78194
1.80871
1.83783
1.86974
2863.16
3548.67
3069.53
2522.58
2073.97
1705.82
1396.74
1132.49
904.737
708.564
541.211
401.102
287.021
198.267
135.585
93.5798
65.4728
46.6396
33.9603
25.6573
19.8352
15.9325
13.5139
12.0079
11.1507
10.8576
11.2012
12.4424
15.5382
23.519
50.1096
181.735
961.26
4341.08
1.9597
2.14632
2.49491
3.05801
4.08804
6.54074
12.4331
25.0375
48.1072
84.9494
136.657
201.084
274.077
351.774
431.843
514.081
600.973
698.83
819.144
990.826
1270.32
2156.85
3307.7
1.85088
1.77761
1.72343
1.68141
1.64903
1.62668
1.6112
1.6005
1.59418
1.59066
1.58923
1.58905
1.59255
1.59781
1.60444
1.61317
1.62306
1.63453
1.64742
1.66167
1.6775
1.69474
1.71372
1.73437
1.75691
1.78149
1.80838
1.83763
1.86971
4986.14
4267.34