/*--------------------------------*- C++ -*----------------------------------*\
  =========                 |
  \\      /  F ield         | OpenFOAM: The Open Source CFD Toolbox
   \\    /   O peration     | Website:  https://openfoam.org
    \\  /    A nd           | Version:  8
     \\/     M anipulation  |
\*---------------------------------------------------------------------------*/
FoamFile
{
    version     2.0;
    format      ascii;
    class       surfaceScalarField;
    location    "0.05";
    object      phi;
}
// * * * * * * * * * * * * * * * * * * * * * * * * * * * * * * * * * * * * * //

dimensions      [0 3 -1 0 0 0 0];

internalField   nonuniform List<scalar> 
31053
(
6.40183e-07
1.27398e-05
8.63235e-07
1.51569e-05
3.57473e-07
1.23823e-05
9.48914e-07
1.75543e-05
5.67753e-07
1.49467e-05
2.75382e-07
1.2107e-05
9.73634e-07
2.02153e-05
6.82614e-07
1.74395e-05
4.71412e-07
1.47506e-05
2.16911e-07
1.18901e-05
9.65061e-07
2.32486e-05
7.41475e-07
2.01564e-05
5.9755e-07
1.73133e-05
3.9748e-07
1.45701e-05
1.72591e-07
1.17175e-05
9.35176e-07
2.66899e-05
7.66686e-07
2.32234e-05
6.72929e-07
2.0081e-05
5.25154e-07
1.71856e-05
3.3359e-07
1.44091e-05
1.38386e-07
1.15791e-05
8.89776e-07
3.06654e-05
7.70038e-07
2.66865e-05
7.15275e-07
2.3181e-05
6.06537e-07
1.99997e-05
4.56198e-07
1.7063e-05
2.79646e-07
1.42678e-05
1.11508e-07
1.14676e-05
8.31934e-07
3.51978e-05
7.57992e-07
3.06774e-05
7.355e-07
2.66663e-05
6.55174e-07
2.31324e-05
5.37735e-07
1.99181e-05
3.93342e-07
1.69493e-05
2.33029e-07
1.41463e-05
8.92462e-08
1.13783e-05
7.65462e-07
4.03865e-05
7.34748e-07
3.52211e-05
7.40069e-07
3.06729e-05
6.81138e-07
2.66403e-05
5.87294e-07
2.30828e-05
4.71361e-07
1.98401e-05
3.35182e-07
1.68472e-05
1.91367e-07
1.40442e-05
6.97831e-08
1.13085e-05
6.92987e-07
4.63525e-05
7.01443e-07
4.04198e-05
7.32879e-07
3.52283e-05
6.90434e-07
3.06636e-05
6.13898e-07
2.66137e-05
5.18609e-07
2.30356e-05
4.06699e-07
1.97686e-05
2.80068e-07
1.67585e-05
1.52887e-07
1.39611e-05
5.20392e-08
1.12565e-05
6.16332e-07
5.32167e-05
6.59577e-07
4.63943e-05
7.14243e-07
4.04384e-05
6.85987e-07
3.52327e-05
6.23469e-07
3.0654e-05
5.42732e-07
2.65896e-05
4.48933e-07
2.29933e-05
3.42637e-07
1.9706e-05
2.26661e-07
1.66847e-05
1.16359e-07
1.38967e-05
3.51604e-08
1.12213e-05
5.37439e-07
6.10589e-05
6.10979e-07
5.32653e-05
6.84562e-07
4.6424e-05
6.70702e-07
4.04537e-05
6.19391e-07
3.52368e-05
5.49505e-07
3.06472e-05
4.6798e-07
2.65706e-05
3.77538e-07
2.29584e-05
2.78112e-07
1.96546e-05
1.73899e-07
1.66272e-05
8.07801e-08
1.38511e-05
1.86754e-08
1.12027e-05
4.58134e-07
7.00613e-05
5.57225e-07
6.11126e-05
6.44954e-07
5.33049e-05
6.45571e-07
4.64492e-05
6.03922e-07
4.04692e-05
5.42403e-07
3.52439e-05
4.69228e-07
3.0646e-05
3.89222e-07
2.65589e-05
3.03448e-07
2.29331e-05
2.12136e-07
1.96163e-05
1.20957e-07
1.6587e-05
4.55008e-08
1.38243e-05
2.42497e-09
1.12002e-05
3.80065e-07
8.04101e-05
4.99737e-07
7.01188e-05
5.96677e-07
6.11609e-05
6.10637e-07
5.33398e-05
5.78191e-07
4.64749e-05
5.23408e-07
4.04882e-05
4.56068e-07
3.52571e-05
3.82501e-07
3.06527e-05
3.05504e-07
2.65568e-05
2.25666e-07
2.29196e-05
1.44033e-07
1.95933e-05
6.72604e-08
1.65652e-05
1.01667e-08
1.38166e-05
-1.38358e-08
1.12141e-05
3.17184e-07
7.62529e-05
4.39827e-07
8.047e-05
5.4119e-07
7.01743e-05
5.66219e-07
6.12053e-05
5.42477e-07
5.33755e-05
4.93529e-07
4.65048e-05
4.30372e-07
4.05139e-05
3.60591e-07
3.5279e-05
2.88403e-07
3.06698e-05
2.15804e-07
2.65667e-05
1.43549e-07
2.29201e-05
7.33214e-08
1.95872e-05
1.24763e-08
1.65629e-05
-2.54613e-08
1.38282e-05
-3.02713e-08
1.12443e-05
2.63875e-07
7.62433e-05
3.88505e-07
7.63042e-05
4.80162e-07
8.0531e-05
5.13034e-07
7.02275e-05
4.96876e-07
6.12509e-05
4.53122e-07
5.34159e-05
3.93029e-07
4.65421e-05
3.25252e-07
4.05492e-05
2.55099e-07
3.53123e-05
1.85886e-07
3.06997e-05
1.19443e-07
2.65908e-05
5.66323e-08
2.29367e-05
-2.12977e-10
1.95999e-05
-4.35279e-08
1.6581e-05
-6.15128e-08
1.38594e-05
-4.68728e-08
1.12912e-05
2.18892e-07
7.6235e-05
3.42102e-07
7.62897e-05
4.26134e-07
7.63582e-05
4.52289e-07
8.05918e-05
4.41689e-07
7.02827e-05
4.02269e-07
6.13018e-05
3.44347e-07
5.34646e-05
2.77251e-07
4.65901e-05
2.0719e-07
4.05971e-05
1.38517e-07
3.53596e-05
7.42161e-08
3.0745e-05
1.59569e-08
2.66315e-05
-3.52116e-08
2.29717e-05
-7.65225e-08
1.96329e-05
-1.00705e-07
1.66202e-05
-9.78946e-08
1.39104e-05
-6.34728e-08
1.13547e-05
1.81143e-07
7.62297e-05
3.00235e-07
7.62769e-05
3.75997e-07
7.63398e-05
3.96872e-07
7.64136e-05
3.77757e-07
8.06557e-05
3.41114e-07
7.03438e-05
2.844e-07
6.13617e-05
2.16794e-07
5.35251e-05
1.45297e-07
4.6652e-05
7.50749e-08
4.06605e-05
1.00494e-08
3.54238e-05
-4.70819e-08
3.0808e-05
-9.47322e-08
2.6691e-05
-1.31774e-07
2.3027e-05
-1.55329e-07
1.96875e-05
-1.58746e-07
1.6681e-05
-1.34324e-07
1.39813e-05
-7.99357e-08
1.14346e-05
1.49662e-07
7.62215e-05
2.6252e-07
7.62675e-05
3.29704e-07
7.63231e-05
3.44436e-07
7.63923e-05
3.1878e-07
7.64726e-05
2.70291e-07
8.07265e-05
2.13301e-07
7.04149e-05
1.43921e-07
6.14346e-05
6.94967e-08
5.36009e-05
-4.01401e-09
4.67311e-05
-7.19708e-08
4.07426e-05
-1.30794e-07
3.55075e-05
-1.7804e-07
3.08913e-05
-2.12277e-07
2.67715e-05
-2.32535e-07
2.31042e-05
-2.3602e-07
1.97648e-05
-2.1713e-07
1.67638e-05
-1.70439e-07
1.40718e-05
-9.59999e-08
1.15306e-05
1.23631e-07
7.6216e-05
2.28611e-07
7.62554e-05
2.87131e-07
7.631e-05
2.95363e-07
7.63722e-05
2.62625e-07
7.64484e-05
2.0486e-07
7.65381e-05
1.3165e-07
8.08082e-05
5.87518e-08
7.05001e-05
-2.02334e-08
6.15243e-05
-9.88352e-08
5.36957e-05
-1.71662e-07
4.68308e-05
-2.34449e-07
4.08462e-05
-2.84002e-07
3.56135e-05
-3.18158e-07
3.09972e-05
-3.35934e-07
2.68749e-05
-3.36577e-07
2.32048e-05
-3.17719e-07
1.98654e-05
-2.75196e-07
1.68686e-05
-2.05754e-07
1.41816e-05
-1.11488e-07
1.16421e-05
1.02181e-07
7.62114e-05
1.98143e-07
7.62465e-05
2.48137e-07
7.62944e-05
2.49824e-07
7.63556e-05
2.0997e-07
7.64249e-05
1.42563e-07
7.65107e-05
5.65638e-08
7.66131e-05
-3.80361e-08
8.09049e-05
-1.23756e-07
7.06036e-05
-2.09493e-07
6.1635e-05
-2.89316e-07
5.38133e-05
-3.58166e-07
4.69545e-05
-4.12304e-07
4.09745e-05
-4.48897e-07
3.57442e-05
-4.66481e-07
3.11277e-05
-4.64478e-07
2.70028e-05
-4.42616e-07
2.33297e-05
-3.99389e-07
1.99896e-05
-3.32151e-07
1.6995e-05
-2.39783e-07
1.43098e-05
-1.26076e-07
1.17682e-05
8.58266e-08
6.95984e-05
1.70835e-07
7.62388e-05
2.12556e-07
7.62821e-05
2.07893e-07
7.63363e-05
1.61197e-07
7.64043e-05
8.43184e-08
7.64831e-05
-1.46395e-08
7.65819e-05
-1.26411e-07
7.67015e-05
-2.40247e-07
8.10214e-05
-3.35836e-07
7.07299e-05
-4.25147e-07
6.17708e-05
-5.0249e-07
5.39577e-05
-5.63431e-07
4.71056e-05
-6.04668e-07
4.11303e-05
-6.2431e-07
3.59021e-05
-6.21463e-07
3.12847e-05
-5.96206e-07
2.71564e-05
-5.49194e-07
2.34795e-05
-4.79826e-07
2.01372e-05
-3.87139e-07
1.71424e-05
-2.71916e-07
1.44557e-05
-1.39583e-07
1.19078e-05
7.3307e-08
6.25565e-05
1.4848e-07
6.96207e-05
1.80279e-07
7.6271e-05
1.69594e-07
7.63204e-05
1.16532e-07
7.6381e-05
3.07082e-08
7.6458e-05
-8.08364e-08
7.65493e-05
-2.09727e-07
7.66653e-05
-3.45851e-07
7.68071e-05
-4.76848e-07
8.11624e-05
-5.78996e-07
7.08838e-05
-6.67782e-07
6.19361e-05
-7.3824e-07
5.41325e-05
-7.86392e-07
4.72873e-05
-8.10151e-07
4.13161e-05
-8.08357e-07
3.60889e-05
-7.80971e-07
3.14695e-05
-7.29223e-07
2.73364e-05
-6.54621e-07
2.36543e-05
-5.57737e-07
2.03078e-05
-4.39192e-07
1.73096e-05
-3.01676e-07
1.46178e-05
-1.51553e-07
1.20593e-05
6.35526e-08
5.62278e-05
1.30349e-07
6.25747e-05
1.53619e-07
6.96474e-05
1.34945e-07
7.63057e-05
7.61182e-08
7.63608e-05
-1.78903e-08
7.64296e-05
-1.41255e-07
7.65184e-05
-2.86677e-07
7.66263e-05
-4.44826e-07
7.67642e-05
-6.03896e-07
7.69342e-05
-7.49628e-07
8.13331e-05
-8.53899e-07
7.10699e-05
-9.37283e-07
6.21352e-05
-9.95297e-07
5.43414e-05
-1.02542e-06
4.75026e-05
-1.0265e-06
4.15343e-05
-9.9844e-07
3.63064e-05
-9.42637e-07
3.16829e-05
-8.61304e-07
2.75431e-05
-7.57111e-07
2.38536e-05
-6.31707e-07
2.05003e-05
-4.87476e-07
1.74954e-05
-3.28132e-07
1.47944e-05
-1.61228e-07
1.22206e-05
5.5839e-08
5.05397e-05
1.15536e-07
5.62426e-05
1.31869e-07
6.25964e-05
1.06494e-07
6.96758e-05
4.00513e-08
7.63418e-05
-6.1226e-08
7.64041e-05
-1.95359e-07
7.64837e-05
-3.56296e-07
7.6588e-05
-5.35669e-07
7.67171e-05
-7.22365e-07
7.68827e-05
-9.02635e-07
7.70872e-05
-1.05937e-06
8.15386e-05
-1.16047e-06
7.12931e-05
-1.23218e-06
6.23721e-05
-1.2718e-06
5.45877e-05
-1.27788e-06
4.7754e-05
-1.25062e-06
4.17865e-05
-1.19169e-06
3.65555e-05
-1.10368e-06
3.19253e-05
-9.90149e-07
2.77761e-05
-8.54736e-07
2.40767e-05
-7.00486e-07
2.07134e-05
-5.30611e-07
1.76979e-05
-3.50632e-07
1.49838e-05
-1.68619e-07
1.23892e-05
4.96587e-08
4.54262e-05
1.03343e-07
5.05519e-05
1.14031e-07
5.62604e-05
8.35039e-08
6.26194e-05
1.09554e-08
6.97049e-05
-9.91276e-08
7.63797e-05
-2.42781e-07
7.64516e-05
-4.17879e-07
7.65453e-05
-6.17213e-07
7.66695e-05
-8.30537e-07
7.68253e-05
-1.04475e-06
7.70248e-05
-1.24301e-06
7.72708e-05
-1.40611e-06
8.17842e-05
-1.49706e-06
7.1558e-05
-1.55038e-06
6.26506e-05
-1.56468e-06
5.48745e-05
-1.54012e-06
4.80435e-05
-1.47909e-06
4.20739e-05
-1.38474e-06
3.68365e-05
-1.26125e-06
3.21964e-05
-1.11325e-06
2.80347e-05
-9.45756e-07
2.43219e-05
-7.62245e-07
2.0945e-05
-5.67828e-07
1.79151e-05
-3.65766e-07
1.51809e-05
-1.35089e-07
1.25243e-05
4.46481e-08
4.0831e-05
9.32277e-08
4.54363e-05
9.93193e-08
5.05666e-05
6.48955e-08
5.6279e-05
-1.20563e-08
6.26424e-05
-1.28901e-07
6.97347e-05
-2.83262e-07
7.64201e-05
-4.70921e-07
7.65046e-05
-6.88561e-07
7.66166e-05
-9.27017e-07
7.6766e-05
-1.17401e-06
7.69545e-05
-1.41312e-06
7.71949e-05
-1.62517e-06
7.74899e-05
-1.78803e-06
8.20752e-05
-1.86135e-06
7.18689e-05
-1.8884e-06
6.29744e-05
-1.86973e-06
5.52042e-05
-1.80817e-06
4.83726e-05
-1.70793e-06
4.23971e-05
-1.57411e-06
3.71494e-05
-1.4122e-06
3.24953e-05
-1.22833e-06
2.83172e-05
-1.02789e-06
2.45876e-05
-8.15797e-07
2.1193e-05
-5.9421e-07
1.81435e-05
-3.57971e-07
1.54038e-05
-8.50108e-08
1.26093e-05
4.05402e-08
3.67001e-05
8.47833e-08
4.08395e-05
8.71217e-08
4.54485e-05
4.9805e-08
5.05817e-05
-3.02103e-08
5.62972e-05
-1.51682e-07
6.26652e-05
-3.14023e-07
6.97654e-05
-5.15063e-07
7.64643e-05
-7.49052e-07
7.65651e-05
-1.01069e-06
7.67003e-05
-1.28877e-06
7.68808e-05
-1.56746e-06
7.71089e-05
-1.82782e-06
7.73976e-05
-2.04728e-06
7.77491e-05
-2.20269e-06
8.24165e-05
-2.24948e-06
7.223e-05
-2.24143e-06
6.33461e-05
-2.18236e-06
5.55783e-05
-2.0773e-06
4.8742e-05
-1.93294e-06
4.27559e-05
-1.75597e-06
3.74931e-05
-1.55367e-06
3.28207e-05
-1.33265e-06
2.8622e-05
-1.09943e-06
2.48712e-05
-8.56383e-07
2.14551e-05
-6.02838e-07
1.83884e-05
-3.31288e-07
1.56501e-05
-6.39664e-08
1.26732e-05
3.71363e-08
3.29894e-05
7.77027e-08
3.67072e-05
7.6963e-08
4.08496e-05
3.75485e-08
4.54607e-05
-4.44984e-08
5.0596e-05
-1.68939e-07
5.63144e-05
-3.3655e-07
6.26877e-05
-5.4739e-07
6.97978e-05
-7.982e-07
7.65134e-05
-1.08072e-06
7.66351e-05
-1.38765e-06
7.67992e-05
-1.70407e-06
7.70174e-05
-2.01145e-06
7.72925e-05
-2.28701e-06
7.76373e-05
-2.50682e-06
7.80533e-05
-2.64585e-06
8.28129e-05
-2.65599e-06
7.26446e-05
-2.60419e-06
6.37679e-05
-2.49702e-06
5.59981e-05
-2.34257e-06
4.91516e-05
-2.14956e-06
4.31495e-05
-1.92688e-06
3.78664e-05
-1.68249e-06
3.31705e-05
-1.42401e-06
2.89466e-05
-1.15619e-06
2.5171e-05
-8.79349e-07
2.17316e-05
-5.98473e-07
1.86556e-05
-3.07296e-07
1.58934e-05
-5.80135e-08
1.27313e-05
3.4289e-08
2.96508e-05
7.17434e-08
3.29954e-05
6.84781e-08
3.67157e-05
2.75671e-08
4.08596e-05
-5.57179e-08
4.5472e-05
-1.8186e-07
5.06089e-05
-3.52646e-07
5.63305e-05
-5.69847e-07
6.27102e-05
-8.32883e-07
6.98325e-05
-1.13645e-06
7.65692e-05
-1.46959e-06
7.6717e-05
-1.82131e-06
7.69164e-05
-2.17378e-06
7.71797e-05
-2.50425e-06
7.75097e-05
-2.78822e-06
7.79187e-05
-2.99935e-06
7.84068e-05
-3.11142e-06
8.32683e-05
-3.0749e-06
7.31153e-05
-2.97029e-06
6.42412e-05
-2.808e-06
5.64635e-05
-2.59868e-06
4.96007e-05
-2.35377e-06
4.35764e-05
-2.08318e-06
3.82671e-05
-1.79597e-06
3.35425e-05
-1.49873e-06
2.92891e-05
-1.19451e-06
2.54862e-05
-8.89967e-07
2.20231e-05
-5.90407e-07
1.89387e-05
-2.94092e-07
1.61295e-05
-6.20393e-08
1.27933e-05
3.18873e-08
2.66504e-05
6.67084e-08
2.96559e-05
6.13741e-08
3.30025e-05
1.94023e-08
3.67238e-05
-6.45118e-08
4.08684e-05
-1.91401e-07
4.54815e-05
-3.63768e-07
5.062e-05
-5.84672e-07
5.63453e-05
-8.55613e-07
6.27329e-05
-1.17446e-06
6.98705e-05
-1.53376e-06
7.66333e-05
-1.91782e-06
7.68136e-05
-2.3128e-06
7.70554e-05
-2.69629e-06
7.73718e-05
-3.04349e-06
7.7765e-05
-3.3269e-06
7.82463e-05
-3.51822e-06
7.88136e-05
-3.59275e-06
8.37862e-05
-3.49901e-06
7.3644e-05
-3.33325e-06
6.47664e-05
-3.1092e-06
5.6974e-05
-2.84091e-06
5.00878e-05
-2.54133e-06
4.40345e-05
-2.22173e-06
3.86928e-05
-1.89081e-06
3.39346e-05
-1.55393e-06
2.96485e-05
-1.21899e-06
2.58152e-05
-8.9549e-07
2.23282e-05
-5.84201e-07
1.92288e-05
-2.90294e-07
1.63577e-05
-8.52974e-08
1.28786e-05
2.98471e-08
2.3956e-05
6.24325e-08
2.66547e-05
5.54098e-08
2.96618e-05
1.26903e-08
3.30092e-05
-7.13973e-08
3.67307e-05
-1.98324e-07
4.08753e-05
-3.71081e-07
4.54888e-05
-5.93672e-07
5.0629e-05
-8.69174e-07
5.63589e-05
-1.19795e-06
6.27564e-05
-1.57632e-06
6.9913e-05
-1.99256e-06
7.67081e-05
-2.42687e-06
7.69276e-05
-2.86077e-06
7.72199e-05
-3.2695e-06
7.75978e-05
-3.62462e-06
7.80627e-05
-3.89601e-06
7.86241e-05
-4.05637e-06
7.92772e-05
-4.08188e-06
8.4369e-05
-3.92099e-06
7.42317e-05
-3.68601e-06
6.53432e-05
-3.3951e-06
5.75282e-05
-3.06436e-06
5.06109e-05
-2.70862e-06
4.45214e-05
-2.33939e-06
3.91414e-05
-1.96464e-06
3.43453e-05
-1.59316e-06
3.00227e-05
-1.23593e-06
2.61556e-05
-8.99275e-07
2.26433e-05
-5.81097e-07
1.95196e-05
-3.58953e-07
1.66314e-05
-9.38026e-08
1.29724e-05
2.81033e-08
2.15337e-05
5.87812e-08
2.39597e-05
5.0383e-08
2.66597e-05
7.14886e-09
2.96674e-05
-7.67853e-08
3.30146e-05
-2.03231e-07
3.67356e-05
-3.7551e-07
4.08797e-05
-5.98288e-07
4.54934e-05
-8.75813e-07
5.06357e-05
-1.21036e-06
5.63713e-05
-1.60123e-06
6.27813e-05
-2.0411e-06
6.99616e-05
-2.51465e-06
7.67958e-05
-2.99566e-06
7.70625e-05
-3.46341e-06
7.74138e-05
-3.88888e-06
7.7862e-05
-4.2404e-06
7.84071e-05
-4.4882e-06
7.90559e-05
-4.60522e-06
7.98005e-05
-4.57054e-06
8.50186e-05
-4.33271e-06
7.48784e-05
-4.02218e-06
6.59703e-05
-3.66003e-06
5.81239e-05
-3.26489e-06
5.11671e-05
-2.85249e-06
4.50345e-05
-2.4341e-06
3.96109e-05
-2.02004e-06
3.47721e-05
-1.62163e-06
3.04084e-05
-1.24807e-06
2.65044e-05
-9.0168e-07
2.29639e-05
-7.15326e-07
1.9876e-05
-3.58572e-07
1.68962e-05
-1.03021e-07
1.30754e-05
2.66051e-08
1.93535e-05
5.56486e-08
2.15369e-05
4.61262e-08
2.39639e-05
2.56093e-09
2.66643e-05
-8.09968e-08
2.96716e-05
-2.06598e-07
3.30179e-05
-3.7778e-07
3.67379e-05
-5.99657e-07
4.08811e-05
-8.77319e-07
4.54949e-05
-1.21447e-06
5.06398e-05
-1.61274e-06
5.63828e-05
-2.06832e-06
6.28085e-05
-2.57094e-06
7.00179e-05
-3.09927e-06
7.68995e-05
-3.62276e-06
7.72219e-05
-4.11635e-06
7.76413e-05
-4.54721e-06
7.81688e-05
-4.88333e-06
7.88022e-05
-5.0944e-06
7.95451e-05
-5.15573e-06
8.03857e-05
-5.04951e-06
8.57354e-05
-4.72684e-06
7.55831e-05
-4.33525e-06
6.66455e-05
-3.89927e-06
5.87582e-05
-3.43916e-06
5.17538e-05
-2.97094e-06
4.55714e-05
-2.5075e-06
4.00983e-05
-2.06107e-06
3.52116e-05
-1.64168e-06
3.0802e-05
-1.25558e-06
2.68583e-05
-1.11373e-06
2.33623e-05
-7.07022e-07
2.02244e-05
-3.58546e-07
1.71517e-05
-1.10154e-07
1.31856e-05
1.73973e-05
2.5312e-08
5.29501e-08
1.93562e-05
4.25048e-08
2.15405e-05
-1.24668e-09
2.39678e-05
-8.42826e-08
2.66676e-05
-2.08795e-07
2.96738e-05
-3.78458e-07
3.30186e-05
-5.98667e-07
3.67369e-05
-8.75096e-07
4.08789e-05
-1.2125e-06
4.5493e-05
-1.61426e-06
5.06413e-05
-2.07935e-06
5.63939e-05
-2.6016e-06
6.28392e-05
-3.1654e-06
7.0084e-05
-3.74543e-06
7.70221e-05
-4.30406e-06
7.74096e-05
-4.81253e-06
7.79066e-05
-5.23697e-06
7.85225e-05
-5.54396e-06
7.92518e-05
-5.70494e-06
8.00943e-05
-5.69774e-06
8.10339e-05
-5.51044e-06
8.6519e-05
-5.09591e-06
7.63438e-05
-4.61973e-06
6.7366e-05
-4.10905e-06
5.94281e-05
-3.58495e-06
5.23678e-05
-3.06473e-06
4.61286e-05
-2.56262e-06
4.05999e-05
-2.0897e-06
3.56596e-05
-1.65363e-06
3.12e-05
-1.55394e-06
2.72986e-05
-1.10071e-06
2.3756e-05
-6.9639e-07
2.05623e-05
-3.56378e-07
1.73979e-05
-1.14818e-07
1.33004e-05
1.73996e-05
5.06139e-08
2.78121e-05
2.32039e-08
3.94107e-08
1.93593e-05
-4.41585e-09
2.15437e-05
-8.68389e-08
2.39703e-05
-2.1011e-07
2.66689e-05
-3.77983e-07
2.96733e-05
-5.96007e-07
3.3016e-05
-8.70239e-07
3.67321e-05
-1.20618e-06
4.08726e-05
-1.60852e-06
4.54872e-05
-2.07836e-06
5.06403e-05
-2.61281e-06
5.64051e-05
-3.20096e-06
6.28747e-05
-3.82392e-06
7.01625e-05
-4.4494e-06
7.71675e-05
-5.0328e-06
7.76298e-05
-5.54456e-06
7.82142e-05
-5.94849e-06
7.8927e-05
-6.21217e-06
7.9759e-05
-6.30889e-06
8.07054e-05
-6.22205e-06
8.17455e-05
-5.94474e-06
8.73678e-05
-5.43352e-06
7.71575e-05
-4.87128e-06
6.81282e-05
-4.28674e-06
6.01299e-05
-3.70223e-06
5.30053e-05
-3.13595e-06
4.67019e-05
-2.601e-06
4.11112e-05
-2.10637e-06
3.61123e-05
-2.04791e-06
3.1694e-05
-1.53709e-06
2.77349e-05
-1.08101e-06
2.41406e-05
-6.81982e-07
2.08879e-05
-3.51336e-07
1.76344e-05
-1.17035e-07
1.34174e-05
1.74023e-05
3.67579e-08
2.78159e-05
4.68329e-08
2.8552e-05
2.11925e-08
-7.06226e-09
1.93619e-05
-8.88196e-08
2.15456e-05
-2.10767e-07
2.3971e-05
-3.76693e-07
2.66676e-05
-5.92204e-07
2.96695e-05
-8.63591e-07
3.30093e-05
-1.19687e-06
3.67227e-05
-1.59765e-06
4.08617e-05
-2.06867e-06
4.54775e-05
-2.60958e-06
5.06371e-05
-3.2133e-06
5.64174e-05
-3.86626e-06
6.29171e-05
-4.54321e-06
7.02563e-05
-5.20483e-06
7.73395e-05
-5.8019e-06
7.78872e-05
-6.30277e-06
7.85685e-05
-6.67139e-06
7.93862e-05
-6.8764e-06
8.03265e-05
-6.89624e-06
8.13796e-05
-6.71904e-06
8.25198e-05
-6.34497e-06
8.82793e-05
-5.73451e-06
7.80208e-05
-5.0866e-06
6.89281e-05
-4.4315e-06
6.08592e-05
-3.79221e-06
5.36616e-05
-3.18575e-06
4.72867e-05
-2.62322e-06
4.1628e-05
-2.60933e-06
3.66738e-05
-2.02629e-06
3.21832e-05
-1.50897e-06
2.81629e-05
-1.05456e-06
2.45132e-05
-6.63462e-07
2.12e-05
-3.43399e-07
1.78608e-05
-1.17144e-07
1.35346e-05
1.74045e-05
-9.2821e-09
2.78196e-05
3.30078e-08
2.85557e-05
4.31942e-08
2.93119e-05
1.92808e-08
-9.03467e-08
1.93635e-05
-2.1094e-07
2.15458e-05
-3.74847e-07
2.39691e-05
-5.87663e-07
2.66631e-05
-8.55797e-07
2.96617e-05
-1.18558e-06
3.2998e-05
-1.5833e-06
3.67084e-05
-2.05287e-06
4.08459e-05
-2.59592e-06
4.54639e-05
-3.20838e-06
5.06322e-05
-3.88106e-06
5.64322e-05
-4.59465e-06
6.29685e-05
-5.31739e-06
7.03688e-05
-6.00509e-06
7.75427e-05
-6.60182e-06
7.81862e-05
-7.07664e-06
7.89737e-05
-7.39363e-06
7.99035e-05
-7.52598e-06
8.09563e-05
-7.45642e-06
8.2117e-05
-7.18025e-06
8.33551e-05
-6.70492e-06
8.92497e-05
-5.99475e-06
7.89289e-05
-5.26403e-06
6.97606e-05
-4.54377e-06
6.16108e-05
-3.85566e-06
5.43315e-05
-3.21478e-06
4.78782e-05
-3.25053e-06
4.22692e-05
-2.58198e-06
3.72295e-05
-1.98881e-06
3.26631e-05
-1.47059e-06
2.85789e-05
-1.02187e-06
2.48716e-05
-6.41189e-07
2.14978e-05
-3.32925e-07
1.80766e-05
-1.15529e-07
1.36501e-05
1.74057e-05
-9.15165e-08
2.78218e-05
-1.14058e-08
2.85592e-05
2.94803e-08
2.93154e-05
3.97026e-08
3.00898e-05
1.74696e-08
-2.10762e-07
1.93633e-05
-3.72641e-07
2.15436e-05
-5.82685e-07
2.39641e-05
-8.4734e-07
2.66546e-05
-1.17312e-06
2.96493e-05
-1.56675e-06
3.29815e-05
-2.033e-06
3.66885e-05
-2.57498e-06
4.0825e-05
-3.19098e-06
4.54465e-05
-3.87532e-06
5.06265e-05
-4.61366e-06
5.64512e-05
-5.38074e-06
6.30319e-05
-6.14036e-06
7.05041e-05
-6.84099e-06
7.77819e-05
-7.42216e-06
7.85318e-05
-7.85388e-06
7.9434e-05
-8.10403e-06
8.04815e-05
-8.14947e-06
8.16493e-05
-7.97998e-06
8.29167e-05
-7.59844e-06
8.42486e-05
-7.0194e-06
9.02743e-05
-6.21167e-06
7.98766e-05
-5.40327e-06
7.06201e-05
-4.62391e-06
6.2379e-05
-3.89329e-06
5.501e-05
-3.98513e-06
4.86128e-05
-3.21695e-06
4.29042e-05
-2.53382e-06
3.77745e-05
-1.93741e-06
3.31299e-05
-1.4233e-06
2.89803e-05
-9.83976e-07
2.52144e-05
-6.15829e-07
2.17807e-05
-3.20412e-07
1.82815e-05
-1.12582e-07
1.37627e-05
1.74052e-05
-2.10336e-07
2.78206e-05
-9.03605e-08
2.8561e-05
-1.32523e-08
2.93187e-05
2.61742e-08
3.00932e-05
3.63599e-08
3.08897e-05
1.57592e-08
-3.70224e-07
1.93609e-05
-5.77498e-07
2.15384e-05
-8.38583e-07
2.39554e-05
-1.16007e-06
2.66416e-05
-1.54894e-06
2.96315e-05
-2.01058e-06
3.2959e-05
-2.54918e-06
3.66627e-05
-3.16485e-06
4.07988e-05
-3.85468e-06
4.54258e-05
-4.60839e-06
5.06212e-05
-5.40622e-06
5.64767e-05
-6.219e-06
6.31105e-05
-7.0034e-06
7.06665e-05
-7.70242e-06
7.80621e-05
-8.25056e-06
7.89284e-05
-8.62298e-06
7.99529e-05
-8.79043e-06
8.11225e-05
-8.73649e-06
8.24058e-05
-8.45866e-06
8.3777e-05
-7.96735e-06
8.51966e-05
-7.2848e-06
9.13475e-05
-6.38418e-06
8.08575e-05
-5.50426e-06
7.15005e-05
-4.67263e-06
6.31584e-05
-4.82888e-06
5.58537e-05
-3.94521e-06
4.93411e-05
-3.15699e-06
4.35273e-05
-2.46776e-06
3.83048e-05
-1.87425e-06
3.35808e-05
-1.36889e-06
2.93653e-05
-9.42069e-07
2.55406e-05
-5.88163e-07
2.20485e-05
-3.06385e-07
1.84753e-05
-1.08644e-07
1.38713e-05
1.74027e-05
-3.67706e-07
2.78146e-05
-2.04323e-07
2.85595e-05
-8.88214e-08
2.93203e-05
-1.48081e-08
3.00962e-05
2.30944e-08
3.08929e-05
3.31708e-08
3.17096e-05
1.41482e-08
-5.72269e-07
1.93556e-05
-8.29789e-07
2.15296e-05
-1.14686e-06
2.39422e-05
-1.5306e-06
2.66232e-05
-1.9868e-06
2.96077e-05
-2.5204e-06
3.29303e-05
-3.13292e-06
3.66308e-05
-3.8236e-06
4.07677e-05
-4.58541e-06
4.54029e-05
-5.40319e-06
5.06181e-05
-6.25377e-06
5.65115e-05
-7.10125e-06
6.32084e-05
-7.89685e-06
7.08609e-05
-8.57717e-06
7.83887e-05
-9.07536e-06
7.93808e-05
-9.3712e-06
8.05337e-05
-9.44163e-06
8.18276e-05
-9.27785e-06
8.3225e-05
-8.88516e-06
8.46948e-05
-8.2824e-06
8.61942e-05
-7.49916e-06
9.24624e-05
-6.51168e-06
8.18649e-05
-5.56756e-06
7.23954e-05
-5.79983e-06
6.41293e-05
-4.78294e-06
5.66915e-05
-3.87252e-06
5.00566e-05
-3.07457e-06
4.41342e-05
-2.38678e-06
3.88174e-05
-1.80181e-06
3.40137e-05
-1.30917e-06
2.97324e-05
-8.97355e-07
2.58498e-05
-5.58948e-07
2.2301e-05
-2.91339e-07
1.8658e-05
-1.04019e-07
1.39753e-05
1.73976e-05
-5.67115e-07
2.7802e-05
-3.55146e-07
2.8553e-05
-1.97816e-07
2.93184e-05
-8.69126e-08
3.00975e-05
-1.60726e-08
3.08958e-05
2.02397e-08
3.17126e-05
3.01389e-08
3.25535e-05
1.26385e-08
-8.21151e-07
1.9347e-05
-1.13381e-06
2.15166e-05
-1.51226e-06
2.39238e-05
-1.96251e-06
2.65989e-05
-2.49007e-06
2.95773e-05
-3.09744e-06
3.28948e-05
-3.78555e-06
3.65927e-05
-4.54995e-06
4.07323e-05
-5.37922e-06
4.53789e-05
-6.25528e-06
5.06197e-05
-7.14873e-06
5.65589e-05
-8.01837e-06
6.33299e-05
-8.80884e-06
7.10926e-05
-9.45366e-06
7.8767e-05
-9.88344e-06
7.9893e-05
-1.00867e-05
8.11787e-05
-1.00475e-05
8.25973e-05
-9.76516e-06
8.4105e-05
-9.25392e-06
8.56663e-05
-8.54084e-06
8.72359e-05
-7.66125e-06
9.3612e-05
-6.59452e-06
8.28919e-05
-6.91739e-06
7.35129e-05
-5.74888e-06
6.50952e-05
-4.69686e-06
5.75158e-05
-3.77208e-06
5.07541e-05
-2.97363e-06
4.4721e-05
-2.29416e-06
3.93097e-05
-1.72255e-06
3.44271e-05
-1.24586e-06
3.00809e-05
-8.50916e-07
2.61418e-05
-5.2888e-07
2.25386e-05
-2.75727e-07
1.88297e-05
-9.89414e-08
1.40743e-05
1.73892e-05
-8.128e-07
2.7781e-05
-5.46075e-07
2.85397e-05
-3.41906e-07
2.93113e-05
-1.90763e-07
3.00952e-05
-8.46043e-08
3.08967e-05
-1.70466e-08
3.17153e-05
1.76103e-08
3.25564e-05
2.72617e-08
3.34194e-05
1.12266e-08
-1.12114e-06
1.93343e-05
-1.49428e-06
2.14986e-05
-1.93836e-06
2.38997e-05
-2.45922e-06
2.65681e-05
-3.06011e-06
2.954e-05
-3.74321e-06
3.28525e-05
-4.5061e-06
3.65489e-05
-5.34037e-06
4.06934e-05
-6.23218e-06
4.53558e-05
-7.15769e-06
5.06286e-05
-8.08253e-06
5.66231e-05
-8.95896e-06
6.348e-05
-9.72804e-06
7.1367e-05
-1.03186e-05
7.92022e-05
-1.06624e-05
8.04688e-05
-1.07584e-05
8.18896e-05
-1.05987e-05
8.34308e-05
-1.01918e-05
8.50429e-05
-9.56129e-06
8.66867e-05
-8.7408e-06
8.83154e-05
-7.77108e-06
9.47886e-05
-8.20391e-06
8.41784e-05
-6.86345e-06
7.46275e-05
-5.6491e-06
6.60475e-05
-4.57679e-06
5.83205e-05
-3.64887e-06
5.14294e-05
-2.85829e-06
4.52851e-05
-2.19303e-06
3.97802e-05
-1.63877e-06
3.482e-05
-1.18048e-06
3.04104e-05
-8.03721e-07
2.64166e-05
-4.98581e-07
2.27614e-05
-2.59888e-07
1.89906e-05
-9.36173e-08
1.41679e-05
1.73771e-05
-1.109e-06
2.77492e-05
-7.81013e-07
2.85179e-05
-5.24191e-07
2.92974e-05
-3.28026e-07
3.00877e-05
-1.83243e-07
3.0894e-05
-8.19191e-08
3.1716e-05
-1.77279e-08
3.25588e-05
1.52059e-08
3.34221e-05
2.45438e-08
3.43053e-05
9.91132e-09
-1.47693e-06
1.9317e-05
-1.91479e-06
2.1475e-05
-2.42863e-06
2.38691e-05
-3.02221e-06
2.65302e-05
-3.69862e-06
2.94954e-05
-4.45702e-06
3.28034e-05
-5.29142e-06
3.64999e-05
-6.19142e-06
4.06527e-05
-7.13789e-06
4.5336e-05
-8.10243e-06
5.06485e-05
-9.04433e-06
5.67085e-05
-9.91209e-06
6.3664e-05
-1.06412e-05
7.16896e-05
-1.11593e-05
7.96991e-05
-1.14006e-05
8.1111e-05
-1.13761e-05
8.2667e-05
-1.10875e-05
8.43265e-05
-1.05533e-05
8.60349e-05
-9.80456e-06
8.77505e-05
-8.88173e-06
8.94261e-05
-9.68471e-06
9.62694e-05
-8.15104e-06
8.5466e-05
-6.75051e-06
7.57289e-05
-5.50792e-06
6.69786e-05
-4.42885e-06
5.91005e-05
-3.50798e-06
5.2079e-05
-2.73246e-06
4.58246e-05
-2.08629e-06
4.02277e-05
-1.55244e-06
3.5192e-05
-1.11432e-06
3.0721e-05
-7.5662e-07
2.66746e-05
-4.68497e-07
2.297e-05
-2.44134e-07
1.91411e-05
-8.82001e-08
1.42561e-05
1.73605e-05
-1.4604e-06
2.77044e-05
-1.06415e-06
2.8485e-05
-7.48177e-07
2.92746e-05
-5.01412e-07
3.00731e-05
-3.13456e-07
3.0886e-05
-1.75211e-07
3.17129e-05
-7.88509e-08
3.25592e-05
-1.8124e-08
3.34243e-05
1.30217e-08
3.43079e-05
2.19836e-08
3.52192e-05
8.69164e-09
-1.89213e-06
1.92943e-05
-2.39885e-06
2.14453e-05
-2.98465e-06
2.38315e-05
-3.6533e-06
2.64849e-05
-4.40514e-06
2.94435e-05
-5.23607e-06
3.2748e-05
-6.13851e-06
3.6447e-05
-7.09723e-06
4.0612e-05
-8.08897e-06
4.53225e-05
-9.07928e-06
5.06835e-05
-1.00237e-05
5.68201e-05
-1.08648e-05
6.38876e-05
-1.15356e-05
7.2066e-05
-1.19635e-05
8.0262e-05
-1.20869e-05
8.18218e-05
-1.19311e-05
8.35106e-05
-1.15084e-05
8.52816e-05
-1.08459e-05
8.70763e-05
-9.98258e-06
8.88514e-05
-1.10905e-05
9.08318e-05
-9.64062e-06
9.77589e-05
-8.02731e-06
8.67428e-05
-6.58738e-06
7.68084e-05
-5.33276e-06
6.78825e-05
-4.25927e-06
5.98518e-05
-3.35419e-06
5.27008e-05
-2.59971e-06
4.6338e-05
-1.97642e-06
4.06517e-05
-1.46525e-06
3.55429e-05
-1.04853e-06
3.1013e-05
-7.10199e-07
2.69163e-05
-4.39047e-07
2.31649e-05
-2.28694e-07
1.92816e-05
-8.28006e-08
1.43389e-05
1.7339e-05
-1.87058e-06
2.76435e-05
-1.39957e-06
2.84389e-05
-1.01801e-06
2.92408e-05
-7.14337e-07
3.00495e-05
-4.77808e-07
3.08708e-05
-2.98262e-07
3.17044e-05
-1.66699e-07
3.25558e-05
-7.54145e-08
3.34244e-05
-1.82357e-08
3.43098e-05
1.1054e-08
3.52216e-05
1.95779e-08
3.61551e-05
7.56429e-09
-2.37025e-06
1.92657e-05
-2.9481e-06
2.14087e-05
-3.60836e-06
2.37866e-05
-4.35225e-06
2.6432e-05
-5.17717e-06
2.93846e-05
-6.07775e-06
3.26873e-05
-7.042e-06
3.63918e-05
-8.05099e-06
4.0574e-05
-9.07579e-06
4.5319e-05
-1.00784e-05
5.07381e-05
-1.10081e-05
5.69634e-05
-1.18044e-05
6.41563e-05
-1.23988e-05
7.25012e-05
-1.27195e-05
8.08946e-05
-1.27116e-05
8.26023e-05
-1.24169e-05
8.44191e-05
-1.18568e-05
8.62926e-05
-1.10678e-05
8.81614e-05
-1.2493e-05
9.02539e-05
-1.10633e-05
9.22546e-05
-9.51146e-06
9.92431e-05
-7.84304e-06
8.79984e-05
-6.383e-06
7.78586e-05
-5.13116e-06
6.87544e-05
-4.07383e-06
6.05714e-05
-3.19188e-06
5.32929e-05
-2.46311e-06
4.68247e-05
-1.86554e-06
4.1052e-05
-1.37867e-06
3.58731e-05
-9.8387e-07
3.12866e-05
-6.65008e-07
2.71423e-05
-4.10528e-07
2.33468e-05
-2.1372e-07
1.94125e-05
-7.7507e-08
1.44164e-05
1.73118e-05
-2.34309e-06
2.75637e-05
-1.79072e-06
2.83763e-05
-1.33704e-06
2.91931e-05
-9.70353e-07
3.00145e-05
-6.7933e-07
3.08464e-05
-4.53376e-07
3.16886e-05
-2.82471e-07
3.25468e-05
-1.57722e-07
3.34206e-05
-7.1617e-08
3.43097e-05
-1.80687e-08
3.52234e-05
9.29463e-09
3.61574e-05
1.73233e-08
3.6589e-05
6.54054e-09
-2.91302e-06
1.92306e-05
-3.56459e-06
2.13649e-05
-4.2997e-06
2.3734e-05
-5.11685e-06
2.63717e-05
-6.01245e-06
2.93193e-05
-6.97715e-06
3.26224e-05
-7.99563e-06
3.63364e-05
-9.04368e-06
4.05419e-05
-1.0089e-05
4.53297e-05
-1.10875e-05
5.08176e-05
-1.1985e-05
5.7144e-05
-1.27183e-05
6.44758e-05
-1.32183e-05
7.3e-05
-1.34168e-05
8.15998e-05
-1.32673e-05
8.34528e-05
-1.28277e-05
8.539e-05
-1.213e-05
8.73548e-05
-1.38864e-05
8.95548e-05
-1.2493e-05
9.16836e-05
-1.09374e-05
9.36805e-05
-9.30902e-06
0.000100709
-7.60853e-06
8.9224e-05
-6.14632e-06
7.88738e-05
-4.91007e-06
6.95906e-05
-3.87786e-06
6.12574e-05
-3.02478e-06
5.38546e-05
-2.32527e-06
4.72844e-05
-1.75547e-06
4.14288e-05
-1.29366e-06
3.61828e-05
-9.21061e-07
3.15427e-05
-6.21436e-07
2.73532e-05
-3.83121e-07
2.35162e-05
-1.99335e-07
1.95344e-05
-7.23864e-08
1.44888e-05
1.72785e-05
-2.8797e-06
2.74615e-05
-2.24091e-06
2.82948e-05
-1.70917e-06
2.91291e-05
-1.27302e-06
2.99656e-05
-9.21506e-07
3.08105e-05
-6.43419e-07
3.16634e-05
-4.28171e-07
3.25304e-05
-2.66064e-07
3.34112e-05
-1.483e-07
3.43055e-05
-6.74751e-08
3.52229e-05
-1.76262e-08
3.61589e-05
7.73397e-09
3.65911e-05
1.52412e-08
3.55529e-05
5.64724e-09
-3.52256e-06
1.91886e-05
-4.24843e-06
2.13137e-05
-5.0567e-06
2.36739e-05
-5.94515e-06
2.63044e-05
-6.90652e-06
2.92487e-05
-7.92852e-06
3.25553e-05
-8.99095e-06
3.62837e-05
-1.00666e-05
4.05195e-05
-1.11171e-05
4.53593e-05
-1.20947e-05
5.09273e-05
-1.29419e-05
5.73676e-05
-1.35939e-05
6.48514e-05
-1.39833e-05
7.35665e-05
-1.40468e-05
8.23793e-05
-1.37473e-05
8.43723e-05
-1.31601e-05
8.64201e-05
-1.52629e-05
8.87312e-05
-1.39254e-05
9.09873e-05
-1.23803e-05
9.31264e-05
-1.07256e-05
9.50971e-05
-9.04523e-06
0.000102146
-7.33427e-06
9.04119e-05
-5.88569e-06
7.98494e-05
-4.67594e-06
7.03887e-05
-3.6759e-06
6.19085e-05
-2.85609e-06
5.43854e-05
-2.18844e-06
4.77174e-05
-1.64744e-06
4.17825e-05
-1.21114e-06
3.64729e-05
-8.60605e-07
3.17818e-05
-5.79702e-07
2.75498e-05
-3.56974e-07
2.36738e-05
-1.85632e-07
1.96476e-05
-6.74809e-08
1.45563e-05
1.72386e-05
-3.48262e-06
2.73343e-05
-2.7525e-06
2.81908e-05
-2.13686e-06
2.90455e-05
-1.62552e-06
2.99001e-05
-1.20748e-06
3.07604e-05
-8.71421e-07
3.16265e-05
-6.06542e-07
3.25045e-05
-4.02306e-07
3.33943e-05
-2.49156e-07
3.42957e-05
-1.38483e-07
3.52185e-05
-6.30107e-08
3.61582e-05
-1.69062e-08
3.65925e-05
6.3805e-09
3.55547e-05
1.33899e-08
3.45448e-05
4.86614e-09
-4.19913e-06
1.91393e-05
-4.99786e-06
2.12548e-05
-5.8777e-06
2.36064e-05