/*--------------------------------*- C++ -*----------------------------------*\
  =========                 |
  \\      /  F ield         | OpenFOAM: The Open Source CFD Toolbox
   \\    /   O peration     | Website:  https://openfoam.org
    \\  /    A nd           | Version:  8
     \\/     M anipulation  |
\*---------------------------------------------------------------------------*/
FoamFile
{
    version     2.0;
    format      ascii;
    class       volScalarField;
    location    "0.15";
    object      alphat;
}
// * * * * * * * * * * * * * * * * * * * * * * * * * * * * * * * * * * * * * //

dimensions      [1 -1 -1 0 0 0 0];

internalField   nonuniform List<scalar> 
15677
(
0.00131254
0.00541989
0.0153618
0.0264087
0.0372334
0.0474431
0.0567086
0.0646989
0.0711357
0.0760232
0.0801414
0.0843031
0.0886061
0.0939781
0.096673
0.0982466
0.0991075
0.0996481
0.0999085
0.0998576
0.0994411
0.0986494
0.0976935
0.0967991
0.0961377
0.0957699
0.0956337
0.0956344
0.0956987
0.0957929
0.0959143
0.0960813
0.096303
0.0965789
0.0968888
0.00156627
0.0137883
0.0340307
0.0554577
0.0740957
0.0872044
0.0947751
0.0982979
0.0987435
0.0959447
0.0908456
0.0882356
0.0886317
0.0921287
0.095116
0.0970003
0.0985617
0.10018
0.101528
0.102192
0.102332
0.101909
0.101176
0.100444
0.0998687
0.0995135
0.0993962
0.0995155
0.0998512
0.100368
0.101019
0.101686
0.102514
0.103317
0.104081
0.00186391
0.0182681
0.0406964
0.0622912
0.0816783
0.098504
0.111885
0.120891
0.124446
0.121925
0.113901
0.103971
0.0962707
0.0944014
0.0991448
0.106492
0.116728
0.127713
0.137817
0.145828
0.151724
0.155559
0.157696
0.158704
0.158992
0.158969
0.158935
0.159026
0.159276
0.159668
0.160168
0.160756
0.161398
0.162065
0.162735
0.00132938
0.00970035
0.0218169
0.033711
0.0446286
0.0541246
0.0617483
0.0671942
0.0711885
0.0734685
0.0751656
0.0775625
0.0811829
0.0842445
0.0823487
0.0774428
0.0750077
0.0781438
0.0867118
0.0996383
0.111695
0.123828
0.132851
0.13842
0.141598
0.142896
0.142841
0.142128
0.141492
0.141138
0.141053
0.141171
0.141417
0.141725
0.14206
0.00103903
0.00881688
0.0183452
0.0275688
0.0363876
0.0447602
0.0526204
0.0598636
0.066353
0.0719437
0.0765393
0.0797992
0.0807586
0.0764971
0.0679207
0.0614273
0.0657392
0.08489
0.108754
0.128443
0.141132
0.14864
0.15165
0.153068
0.154334
0.155473
0.156248
0.156603
0.156665
0.156492
0.156213
0.155895
0.155584
0.155306
0.155071
0.000652383
0.00398946
0.00859243
0.0131036
0.0174673
0.0216584
0.0255828
0.0290987
0.0320627
0.0342381
0.0364505
0.0378614
0.0379865
0.0376114
0.0375892
0.0391946
0.0442008
0.0546096
0.0696919
0.0878251
0.104212
0.117695
0.126429
0.13213
0.135691
0.137788
0.138925
0.139434
0.139563
0.139472
0.139267
0.139013
0.138747
0.138485
0.138242
0.000368514
0.00292963
0.0058624
0.0087443
0.0115781
0.0142294
0.016457
0.0179102
0.0198599
0.0229088
0.028222
0.0348278
0.0425476
0.0516436
0.0619549
0.0730802
0.0849827
0.097179
0.108982
0.119268
0.1272
0.132431
0.13589
0.138326
0.140136
0.14147
0.142379
0.142821
0.142959
0.142927
0.142817
0.142677
0.142533
0.142397
0.142264
0.000248924
0.00140074
0.00320373
0.00503537
0.00697816
0.00911145
0.0117431
0.0149788
0.0207442
0.0296438
0.0407613
0.0531258
0.0651874
0.0764817
0.0867984
0.0956433
0.103407
0.110068
0.115628
0.120314
0.124202
0.12717
0.129249
0.13063
0.131495
0.132033
0.132373
0.13259
0.132731
0.132823
0.13288
0.132912
0.132927
0.132929
0.132927
0.000394655
0.00344999
0.00858556
0.0144181
0.0204703
0.0266383
0.0329051
0.0393159
0.046029
0.0532267
0.0609981
0.069385
0.0783474
0.0877284
0.0963571
0.103537
0.109454
0.114349
0.118441
0.121875
0.124763
0.127097
0.128889
0.130242
0.131238
0.131948
0.132432
0.132757
0.132984
0.13315
0.133276
0.133375
0.133451
0.133509
0.13355
0.000335812
0.00307865
0.00737245
0.0123063
0.0178208
0.0239683
0.03079
0.038282
0.0463751
0.0549316
0.0637482
0.0725974
0.0812778
0.089566
0.0965797
0.102232
0.106959
0.110965
0.114394
0.117333
0.119827
0.121817
0.123337
0.124497
0.125391
0.126085
0.126627
0.127055
0.127395
0.127667
0.127888
0.128069
0.128217
0.128339
0.128442
0.00033618
0.00298359
0.00722963
0.0121433
0.017622
0.0236987
0.0304245
0.0378304
0.0458957
0.054514
0.0634697
0.0724431
0.0811582
0.0892852
0.095963
0.101223
0.10556
0.109217
0.112359
0.115093
0.11748
0.119458
0.121012
0.122224
0.123171
0.12391
0.124494
0.124964
0.125348
0.125666
0.125932
0.126154
0.126342
0.126501
0.126634
0.000312432
0.00305073
0.00725668
0.012172
0.0177424
0.0239723
0.0308539
0.0383413
0.0463351
0.054677
0.063113
0.0714397
0.079455
0.0869076
0.0930507
0.0979111
0.101931
0.105312
0.108202
0.110701
0.11288
0.114695
0.116142
0.1173
0.118233
0.118989
0.119606
0.120114
0.120536
0.120889
0.121187
0.121441
0.121658
0.121845
0.122008
0.000282862
0.00272935
0.00660871
0.0111736
0.0163601
0.0221958
0.0287059
0.0358798
0.0436458
0.0518552
0.0602726
0.0686327
0.0766761
0.0841517
0.0902883
0.0951207
0.0990958
0.102424
0.105252
0.107681
0.109782
0.111525
0.112918
0.114036
0.114938
0.115671
0.116274
0.116776
0.117197
0.117554
0.117859
0.118121
0.118347
0.118544
0.118715
0.000271302
0.00278577
0.0067264
0.0113895
0.0166703
0.0225481
0.0290033
0.0359907
0.0434241
0.0511613
0.0589969
0.0667914
0.0743193
0.0813753
0.087228
0.091869
0.0957006
0.09891
0.101637
0.103979
0.106003
0.107686
0.109035
0.11012
0.111001
0.111724
0.112322
0.112821
0.113241
0.113596
0.1139
0.114161
0.114387
0.114584
0.114757
0.000237284
0.00250422
0.0060795
0.0103269
0.0151831
0.0206527
0.0267353
0.0334012
0.0405759
0.0481319
0.0558891
0.0636505
0.0711935
0.078314
0.0842484
0.0889582
0.0928355
0.0960637
0.098782
0.101097
0.103089
0.104743
0.106064
0.107127
0.107992
0.108702
0.10929
0.109781
0.110196
0.110549
0.110852
0.111114
0.11134
0.111539
0.111712
0.000233987
0.00252959
0.00620487
0.0105942
0.0155596
0.0210529
0.0270363
0.0334619
0.0402622
0.0473314
0.0545414
0.0617976
0.0689045
0.0757014
0.0814546
0.0860823
0.0899317
0.0931591
0.0958855
0.0982086
0.100209
0.101865
0.103186
0.104249
0.105115
0.105829
0.106422
0.106919
0.107339
0.107696
0.108002
0.108266
0.108495
0.108694
0.108869
0.000205196
0.00235418
0.00572072
0.00973273
0.0143201
0.0194657
0.0251486
0.0313276
0.0379334
0.0448638
0.0519879
0.0591669
0.0662329
0.073024
0.0788025
0.0834699
0.0873642
0.0906344
0.0934008
0.0957612
0.0977884
0.099466
0.100806
0.101885
0.102765
0.103491
0.104096
0.104603
0.105031
0.105397
0.10571
0.105981
0.106215
0.10642
0.106598
0.000204495
0.00230575
0.0056673
0.00968963
0.0142526
0.0193098
0.0248258
0.0307589
0.0370545
0.0436319
0.050397
0.0572561
0.0640607
0.0706694
0.0763593
0.0810035
0.0849122
0.0882157
0.091026
0.09343
0.0955003
0.0972163
0.098588
0.0996932
0.100596
0.101342
0.101964
0.102487
0.102929
0.103307
0.10363
0.103908
0.10415
0.104359
0.104543
0.000186751
0.00223719
0.00541157
0.00918454
0.0134827
0.0182836
0.0235638
0.0292863
0.0353954
0.0418128
0.0484401
0.0551741
0.0618802
0.068423
0.0740873
0.078735
0.0826663
0.0860065
0.0888588
0.0913078
0.0934227
0.0951795
0.0965861
0.0977212
0.0986495
0.0994173
0.100058
0.100598
0.101054
0.101444
0.101778
0.102066
0.102316
0.102532
0.10272
0.000186762
0.00213845
0.0052382
0.00894318
0.0131522
0.0178293
0.0229471
0.028472
0.0343585
0.0405415
0.0469366
0.0534642
0.0599987
0.0664156
0.0720118
0.0766348
0.0805689
0.08393
0.0868137
0.0892994
0.0914527
0.0932456
0.0946833
0.0958446
0.0967951
0.0975815
0.0982384
0.0987915
0.0992603
0.09966
0.100003
0.100297
0.100552
0.100773
0.100965
0.000177382
0.00207295
0.00503803
0.00857478
0.0126051
0.0171038
0.0220486
0.027408
0.0331362
0.0391696
0.0454259
0.0518206
0.0582409
0.0645677
0.0701087
0.0747057
0.0786352
0.0820062
0.0849092
0.0874196
0.0895999
0.091419
0.0928798
0.0940608
0.0950278
0.0958283
0.0964969
0.0970598
0.0975369
0.0979436
0.098292
0.0985917
0.0988505
0.0990748
0.0992696
0.000175133
0.00199908
0.00488904
0.00834334
0.0122738
0.0166518
0.0214556
0.0266573
0.0322171
0.0380793
0.0441684
0.0504072
0.0566931
0.0629118
0.0683818
0.072939
0.0768497
0.0802163
0.0831245
0.0856458
0.08784
0.0896735
0.0911469
0.0923384
0.093314
0.0941213
0.0947954
0.0953625
0.095843
0.0962524
0.096603
0.0969046
0.0971651
0.0973907
0.0975869
0.000169406
0.00194452
0.00473935
0.0080787
0.0118847
0.0161334
0.0208054
0.0258741
0.0313008
0.0370316
0.0429945
0.0491108
0.0552863
0.0614105
0.0668125
0.0713254
0.0752082
0.0785589
0.0814594
0.0839784
0.0861732
0.0880084
0.0894834
0.0906758
0.0916516
0.0924584
0.0931315
0.0936974
0.0941763
0.094584
0.094933
0.095233
0.0954919
0.0957162
0.0959111
0.000166748
0.00188931
0.00461965
0.00788473
0.0116033
0.0157504
0.0203077
0.0252512
0.0305461
0.0361439
0.041977
0.0479696
0.0540343
0.0600622
0.0653914
0.069853
0.0736989
0.0770231
0.0799043
0.0824085
0.084591
0.0864153
0.0878804
0.0890634
0.0900299
0.0908277
0.0914922
0.0920498
0.092521
0.0929215
0.0932638
0.0935576
0.093811
0.0940303
0.0942207
0.000162874
0.00184316
0.00450197
0.00768347
0.0113111
0.015362
0.0198185
0.0246571
0.0298441
0.0353325
0.0410576
0.0469437
0.0529088
0.0588456
0.0641018
0.068508
0.0723101
0.0755989
0.0784504
0.0809283
0.0830862
0.0848873
0.0863307
0.0874932
0.0884404
0.0892199
0.0898671
0.0904086
0.0908648
0.0912514
0.0915809
0.091863
0.0921058
0.0923154
0.0924971
0.000160318
0.00180021
0.0044043
0.007522
0.0110762
0.0150443
0.0194101
0.0241519
0.029238
0.0346234
0.0402461
0.0460308
0.0518999
0.0577472
0.0629288
0.0672756
0.0710277
0.0742732
0.0770856
0.0795265
0.0816479
0.0834132
0.0848226
0.0859528
0.0868694
0.0876199
0.0882398
0.0887557
0.089188
0.0895525
0.0898616
0.090125
0.0903507
0.0905447
0.0907123
0.000157492
0.00176212
0.00431207
0.00736769
0.0108537
0.0147479
0.0190346
0.0236927
0.028691
0.0339859
0.039517
0.0452094
0.0509886
0.0567494
0.061856
0.0661403
0.0698373
0.0730324
0.0757969
0.0781906
0.0802635
0.0819802
0.0833426
0.0844278
0.0853013
0.0860107
0.0865917
0.087071
0.0874691
0.0878017
0.0880812
0.0883174
0.0885179
0.088689
0.0888356
0.000155236
0.00172724
0.00423138
0.00723441
0.0106613
0.0144901
0.0187056
0.0232873
0.0282051
0.0334162
0.038862
0.0444679
0.050161
0.0558373
0.0608684
0.0650873
0.0687245
0.0718627
0.074571
0.0769073
0.07892
0.0805748
0.0818766
0.082903
0.0837196
0.0843746
0.0849036
0.0853337
0.0856854
0.0859747
0.0862138
0.0864125
0.0865785
0.0867177
0.0868351
0.000153026
0.00169558
0.00415697
0.00711131
0.0104843
0.0142543
0.018406
0.0229193
0.0277645
0.0328996
0.0382668
0.0437922
0.0494029
0.0549968
0.0599519
0.0641031
0.0676761
0.0707511
0.0733953
0.0756643
0.0776049
0.0791843
0.0804113
0.0813643
0.0821095
0.0826953
0.0831581
0.083525
0.083817
0.0840501
0.0842366
0.0843863
0.0845069
0.0846042
0.0846828
0.000151105
0.00166656
0.00408978
0.00700067
0.0103252
0.0140418
0.0181353
0.0225858
0.0273641
0.0324285
0.0377221
0.0431713
0.0487028
0.0542158
0.0590944
0.0631755
0.06668
0.0696861
0.0722583
0.0744505
0.0763072
0.0777976
0.0789353
0.0798
0.0804585
0.0809601
0.0813415
0.0816306
0.0818485
0.0820116
0.0821324
0.0822207
0.0822841
0.0823284
0.0823581
0.0972201
0.097625
0.098076
0.0985078
0.0988635
0.0990932
0.0991244
0.0988925
0.0983518
0.0974301
0.0961428
0.0944545
0.0924323
0.0901887
0.0878018
0.0853432
0.0828704
0.0804139
0.0779605
0.0754337
0.0726705
0.069395
0.10499
0.105946
0.106778
0.107472
0.108003
0.108355
0.108521
0.108482
0.108204
0.107633
0.106736
0.1056
0.10427
0.102971
0.102032
0.101844
0.102465
0.104042
0.106056
0.10742
0.108273
0.108782
0.163506
0.164461
0.165506
0.166585
0.16762
0.168585
0.169427
0.170108
0.170667
0.171208
0.171932
0.172946
0.174116
0.175019
0.175234
0.174531
0.172917
0.170416
0.167505
0.164614
0.161837
0.159092
0.142581
0.14318
0.143746
0.144167
0.144346
0.144232
0.143782
0.142946
0.141763
0.140212
0.138308
0.135969
0.1337
0.131623
0.129822
0.128358
0.127199
0.126172
0.125265
0.124386
0.123467
0.122481
0.154832
0.154602
0.154394
0.154202
0.154023
0.153843
0.153623
0.153294
0.152808
0.152117
0.151096
0.149826
0.148366
0.146887
0.145471
0.144095
0.142814
0.14162
0.140486
0.13937
0.138245
0.137094
0.137997
0.13771
0.137409
0.137111
0.136826
0.136553
0.136282
0.135995
0.135668
0.13527
0.134766
0.134111
0.133358
0.132542
0.131684
0.130798
0.129922
0.129077
0.128277
0.12753
0.126843
0.126219
0.142129
0.141988
0.14183
0.14165
0.141451
0.141229
0.140982
0.140712
0.140409
0.140063
0.139664
0.139204
0.138694
0.138147
0.137572
0.136978
0.136377
0.135777
0.135186
0.134609
0.13405
0.133507
0.132994
0.133097
0.133179
0.133243
0.133289
0.133315
0.133322
0.133309
0.133269
0.133199
0.133094
0.13295
0.13277
0.132564
0.132338
0.132099
0.131853
0.131607
0.131366
0.131134
0.130916
0.130717
0.133631
0.133767
0.133892
0.134004
0.134101
0.134184
0.134249
0.134296
0.134322
0.134324
0.134301
0.134251
0.134177
0.134082
0.13397
0.133845
0.133709
0.133568
0.133424
0.133281
0.133141
0.133008
0.128644
0.128933
0.129207
0.129469
0.129718
0.129954
0.130175
0.130381
0.130571
0.130742
0.130895
0.131025
0.131128
0.131207
0.131265
0.131303
0.131324
0.13133
0.131326
0.131313
0.131297
0.131281
0.126876
0.12724
0.127594
0.127936
0.128264
0.12858
0.128883
0.129172
0.129445
0.129701
0.129939
0.130154
0.130341
0.130498
0.130629
0.130737
0.130825
0.130895
0.130951
0.130994
0.131025
0.131047
0.122332
0.122814
0.12329
0.123757
0.124217
0.124667
0.125108
0.125538
0.125955
0.126357
0.12674
0.1271
0.127425
0.127714
0.127969
0.128195
0.128394
0.128568
0.128722
0.128856
0.128973
0.129074
0.119051
0.119566
0.120079
0.12059
0.121097
0.1216
0.122097
0.122587
0.123069
0.123542
0.124003
0.124449
0.124865
0.125246
0.125593
0.125908
0.126195
0.126454
0.126688
0.126898
0.127088
0.127257
0.115111
0.115653
0.116197
0.116744
0.117294
0.117844
0.118394
0.118943
0.119489
0.120031
0.120569
0.121096
0.121596
0.122061
0.122492
0.122891
0.12326
0.1236
0.123913
0.124201
0.124465
0.124706
0.112053
0.112577
0.113106
0.11364
0.11418
0.114725
0.115275
0.115829
0.116386
0.116946
0.117507
0.118065
0.118602
0.119108
0.119584
0.120031
0.12045
0.120843
0.121209
0.12155
0.121868
0.122162
0.109207
0.109719
0.110235
0.110758
0.111287
0.111822
0.112364
0.112911
0.113464
0.114022
0.114585
0.115147
0.115691
0.116207
0.116696
0.117159
0.117597
0.118011
0.118403
0.118772
0.11912
0.119447
0.106928
0.107423
0.107922
0.108426
0.108935
0.10945
0.109972
0.110498
0.11103
0.111567
0.112108
0.11265
0.113177
0.11368
0.114159
0.114616
0.115051
0.115465
0.115859
0.116233
0.116589
0.116926
0.104876
0.105369
0.105864
0.106362
0.106862
0.107365
0.107871
0.108381
0.108895
0.109414
0.109936
0.110459
0.110967
0.111453
0.111916
0.112358
0.112781
0.113184
0.11357
0.113937
0.114288
0.114622
0.103059
0.103559
0.104058
0.104556
0.105054
0.105554
0.106054
0.106555
0.107058
0.107563
0.108071
0.108577
0.109069
0.109537
0.109984
0.11041
0.110817
0.111206
0.111577
0.111932
0.112272
0.112596
0.101315
0.101832
0.102346
0.102858
0.103368
0.103877
0.104384
0.10489
0.105395
0.1059
0.106404
0.106904
0.107388
0.107846
0.108282
0.108697
0.109092
0.109468
0.109828
0.11017
0.110497
0.11081
0.0996318
0.100169
0.100704
0.101236
0.101764
0.10229
0.102812
0.103331
0.103848
0.104361
0.104872
0.105376
0.105861
0.106318
0.106751
0.107161
0.10755
0.10792
0.108271
0.108605
0.108924
0.109227
0.0979617
0.0985231
0.0990819
0.0996376
0.10019
0.100738
0.101283
0.101822
0.102358
0.102888
0.103414
0.103932
0.104427
0.104892
0.10533
0.105743
0.106133
0.106502
0.106851
0.107182
0.107496
0.107795
0.0962969
0.0968826
0.0974663
0.0980476
0.0986256
0.0991999
0.0997699
0.100335
0.100895
0.101448
0.101996
0.102533
0.103046
0.103526
0.103976
0.104399
0.104796
0.105171
0.105524
0.105858
0.106173
0.106471
0.0946163
0.0952272
0.0958372
0.0964457
0.0970518
0.0976546
0.0982533
0.0988472
0.0994354
0.100017
0.100592
0.101155
0.10169
0.102191
0.102659
0.103098
0.103509
0.103895
0.104257
0.104598
0.10492
0.105222
0.0929007
0.0935379
0.0941758
0.0948135
0.09545
0.0960842
0.096715
0.0973414
0.0979622
0.0985764
0.0991831
0.0997768
0.100341
0.100868
0.101359
0.101819
0.102248
0.10265
0.103027
0.10338
0.103712
0.104023
0.091122
0.0917877
0.0924561
0.093126
0.0937964
0.0944658
0.095133
0.0957966
0.0964552
0.0971073
0.0977516
0.0983821
0.0989813
0.0995395
0.10006
0.100545
0.100998
0.101421
0.101816
0.102186
0.102533
0.102857
0.0892488
0.0899454
0.0906474
0.0913533
0.0920618
0.0927715
0.0934806
0.0941875
0.0948903
0.0955872
0.0962764
0.096951
0.0975921
0.0981889
0.0987446
0.0992621
0.0997442
0.100193
0.100612
0.101004
0.101369
0.10171
0.0872484
0.0879781
0.0887166
0.0894622
0.0902136
0.090969
0.0917265
0.0924838
0.0932387
0.0939889
0.0947319
0.0954599
0.0961519
0.096796
0.0973952
0.0979525
0.0984708
0.0989529
0.0994015
0.0998192
0.100208
0.100571
0.0850914
0.0858551
0.0866319
0.0874203
0.0882186
0.0890249
0.0898371
0.0906524
0.0914682
0.0922814
0.0930887
0.0938812
0.0946352
0.0953372
0.09599
0.0965965
0.0971598
0.0976828
0.0981685
0.0986196
0.0990386
0.0994281
0.0827559
0.0835523
0.0843672
0.0851992
0.0860467
0.0869078
0.08778
0.0886604
0.0895455
0.0904317
0.0913148
0.0921841
0.0930131
0.0937856
0.0945041
0.0951713
0.0957903
0.0963642
0.096896
0.0973889
0.0978457
0.0982691
0.0649451
0.0593297
0.0539644
0.0498261
0.0472527
0.046402
0.109433
0.110115
0.11032
0.109975
0.109153
0.107915
0.155897
0.151992
0.148581
0.145093
0.141778
0.138746
0.121212
0.119635
0.117334
0.115057
0.112951
0.111063
0.135752
0.134197
0.132524
0.130787
0.129058
0.127405
0.125564
0.124892
0.124276
0.123715
0.123168
0.122647
0.132971
0.13247
0.132013
0.131602
0.131239
0.130925
0.130516
0.130335
0.130191
0.130084
0.130013
0.129977
0.132877
0.132763
0.132677
0.132618
0.132588
0.132586
0.131236
0.131173
0.131123
0.131088
0.131069
0.131066
0.131027
0.130969
0.130913
0.130861
0.130813
0.13077
0.129101
0.129058
0.129012
0.128963
0.128912
0.12886
0.12733
0.127308
0.127277
0.127239
0.127192
0.127137
0.124825
0.124823
0.124811
0.124788
0.124754
0.124709
0.122318
0.122334
0.122338
0.122328
0.122306
0.12227
0.119625
0.119652
0.119666
0.119669
0.119659
0.119636
0.117116
0.117151
0.117175
0.117186
0.117184
0.11717
0.114814
0.114854
0.114883
0.1149
0.114904
0.114896
0.112784
0.112827
0.112858
0.112877
0.112884
0.112879
0.110993
0.111036
0.111067
0.111086
0.111092
0.111087
0.109404
0.109445
0.109474
0.10949
0.109494
0.109486
0.107968
0.108005
0.10803
0.108042
0.108042
0.108029
0.106642
0.106675
0.106695
0.106702
0.106697
0.106679
0.105393
0.105421
0.105436
0.105438
0.105427
0.105403
0.104195
0.104219
0.104229
0.104227
0.104211
0.104181
0.103033
0.103052
0.103058
0.103051
0.10303
0.102996
0.101892
0.101908
0.10191
0.101898
0.101873
0.101835
0.100761
0.100773
0.100772
0.100757
0.100729
0.100687
0.0996288
0.0996383
0.0996341
0.0996164
0.0995851
0.0995404
0.0984836
0.09849
0.098483
0.0984629
0.0984296
0.0983832
0.0472055
0.0492794
0.0526908
0.0573805
0.0627269
0.0678152
0.0719911
0.0754388
0.0788179
0.0824772
0.0865369
0.0909567
0.0955332
0.100066
0.104429
0.108504
0.112201
0.115471
0.118305
0.120728
0.122787
0.124534
0.106597
0.105281
0.10361
0.101556
0.0991968
0.0967125
0.0942145
0.0923623
0.0914897
0.0912789
0.0918947
0.0931593
0.0948303
0.0966754
0.0985659
0.100431
0.102236
0.103964
0.105607
0.107168
0.108649
0.11003
0.136214
0.134013
0.132047
0.130234
0.128545
0.127099
0.125886
0.124983
0.124227
0.123618
0.123177
0.123131
0.123451
0.124133
0.125087
0.12631
0.127798
0.129525
0.131441
0.133472
0.135528
0.137513
0.109521
0.108324
0.107378
0.106674
0.106184
0.10572
0.105337
0.104989
0.104811
0.104875
0.105146
0.105621
0.106357
0.107287
0.108616
0.11018
0.111947
0.113842
0.115796
0.117753
0.119667
0.121482
0.126084
0.125092
0.124237
0.123539
0.123017
0.122678
0.122534
0.122588
0.122844
0.123296
0.123922
0.124689
0.125625
0.126666
0.12777
0.128937
0.130152
0.131408
0.132702
0.134043
0.135452
0.13697
0.12224
0.121976
0.121774
0.121638
0.121568
0.121568
0.121639
0.121782
0.121996
0.122293
0.12268
0.123158
0.123705
0.124322
0.124978
0.125661
0.126363
0.127077
0.127794
0.128509
0.129214
0.129899
0.130746
0.130693
0.130675
0.130697
0.130767
0.130888
0.131065
0.1313
0.131599
0.131965
0.132401
0.132912
0.133485
0.134103
0.134757
0.135435
0.136121
0.136801
0.137466
0.13811
0.138729
0.139324
0.129994
0.130065
0.130169
0.130304
0.130471
0.13067
0.130899
0.131157
0.131442
0.13175
0.132077
0.132415
0.132744
0.133048
0.133321
0.133563
0.133777
0.133969
0.134139
0.134288
0.134413
0.13451
0.132619
0.132676
0.132745
0.132828
0.132925
0.133034
0.133154
0.133284
0.133421
0.133563
0.133706
0.133846
0.133976
0.134089
0.134183
0.134257
0.134312
0.134349
0.134366
0.134366
0.134349
0.134317
0.131054
0.131025
0.130999
0.130977
0.130955
0.130934
0.130911
0.130884
0.130852
0.13081
0.130757
0.130689
0.130605
0.130509
0.130399
0.130278
0.130145
0.130001
0.129845
0.129681
0.12951
0.12933
0.130699
0.130596
0.13049
0.130378
0.13026
0.130135
0.130003
0.129861
0.12971
0.129546
0.129369
0.129178
0.128977
0.12877
0.128556
0.128335
0.128108
0.127876
0.127639
0.127396
0.12715
0.126899
0.128751
0.128581
0.128402
0.128213
0.128011
0.127796
0.127567
0.127323
0.127062
0.126783
0.126485
0.126168
0.125839
0.125506
0.12517
0.124831
0.124492
0.12415
0.123808
0.123465
0.123119
0.122772
0.126998
0.126776
0.126541
0.126289
0.126021
0.125736
0.125432
0.125111
0.12477
0.12441
0.12403
0.12363
0.123222
0.122814
0.122406
0.121999
0.121594
0.12119
0.120787
0.120388
0.11999
0.119594
0.124553
0.124286
0.124003
0.123702
0.123383
0.123045
0.122687
0.122308
0.121908
0.121487
0.121043
0.12058
0.120108
0.119638
0.119171
0.118708
0.11825
0.117797
0.117348
0.116904
0.116465
0.116028
0.122101
0.121801
0.121486
0.121155
0.120805
0.120437
0.12005
0.119643
0.119215
0.118765
0.118294
0.117803
0.117305
0.116813
0.116326
0.115846
0.115371
0.114902
0.114438
0.113979
0.113524
0.113072
0.119465
0.119151
0.118822
0.118478
0.118118
0.117741
0.117346
0.116933
0.116501
0.116048
0.115574
0.11508
0.11458
0.114082
0.113588
0.113098
0.112612
0.112131
0.111653
0.111178
0.110706
0.110236
0.117003
0.11669
0.116363
0.116022
0.115667
0.115295
0.114906
0.1145
0.114075
0.11363
0.113162
0.112674
0.112177
0.111683
0.111189
0.110697
0.110205
0.109715
0.109226
0.108738
0.108252
0.107765
0.114737
0.114433
0.114115
0.113783
0.113437
0.113074
0.112694
0.112296
0.111877
0.111436
0.110971
0.110483
0.109983
0.109483
0.108982
0.108479
0.107976
0.107471
0.106965
0.106459
0.105951
0.105442
0.112726
0.112432
0.112125
0.111802
0.111464
0.111108
0.110734
0.110339
0.109921
0.109479
0.109011
0.108516
0.108007
0.107495
0.10698
0.106461
0.10594
0.105416
0.104889
0.104361
0.10383
0.103299
0.110938
0.110651
0.110349
0.110031
0.109695
0.10934
0.108964
0.108565
0.108141
0.107689
0.107208
0.106698
0.106171
0.105639
0.105101
0.10456
0.104014
0.103466
0.102915
0.102362
0.101808
0.101254
0.109337
0.109051
0.108749
0.108429
0.108089
0.107727
0.107342
0.106932
0.106494
0.106026
0.105525
0.104994
0.104443
0.103886
0.103324
0.102758
0.102188
0.101615
0.101041
0.100466
0.0998908
0.0993164
0.107876
0.107586
0.107277
0.106949
0.106598
0.106224
0.105824
0.105396
0.104938
0.104449
0.103924
0.103367
0.10279
0.102207
0.101618
0.101026
0.100431
0.0998349
0.099238
0.0986415
0.0980463
0.0974533
0.106518
0.106218
0.105898
0.105555
0.105189
0.104797
0.104378
0.103929
0.103448
0.102933
0.102383
0.101797
0.101192
0.100582
0.0999667
0.099349
0.0987297
0.0981101
0.0974914
0.0968745
0.0962604
0.0956499
0.105233
0.104919
0.104583
0.104223
0.103837
0.103425
0.102983
0.102509
0.102003
0.101461
0.100882
0.100267
0.0996321
0.0989926
0.0983499
0.0977055
0.0970607
0.0964169
0.0957753
0.0951368
0.0945026
0.0938732
0.104
0.103669
0.103313
0.102933
0.102525
0.102089
0.101621
0.101121
0.100587
0.100015
0.0994044
0.098757
0.09809
0.0974189
0.0967455
0.0960714
0.0953981
0.0947271
0.0940596
0.0933966
0.0927393
0.0920883
0.102802
0.102451
0.102074
0.10167
0.101238
0.100775
0.100279
0.0997491
0.0991824
0.098577
0.0979307
0.0972462
0.0965418
0.0958339
0.0951246
0.0944156
0.0937087
0.0930054
0.092307
0.0916148
0.0909299
0.0902532
0.101628
0.101254
0.100852
0.100422
0.0999612
0.0994676
0.0989394
0.0983743
0.0977702
0.0971249
0.0964364
0.0957076
0.0949582
0.094206
0.0934532
0.0927021
0.0919544
0.0912122
0.0904769
0.0897499
0.0890323
0.0883254
0.100466
0.100065
0.0996351
0.099174
0.0986797
0.09815
0.0975827
0.0969755
0.0963263
0.0956326
0.0948926
0.0941096
0.0933053
0.092499
0.0916934
0.0908913
0.090095
0.0893065
0.0885279
0.0877605
0.0870058
0.0862648
0.0993033
0.0988716
0.0984078
0.0979096
0.097375
0.0968014
0.0961865
0.0955278
0.0948231
0.09407
0.0932666
0.0924173
0.0915461
0.0906745
0.0898061
0.0889439
0.0880909
0.0872497
0.0864223
0.0856105
0.0848156
0.0840388
0.0981277
0.0976584
0.0971532
0.0966099
0.0960258
0.0953984
0.094725
0.094003
0.09323
0.0924041
0.0915237
0.0905944
0.0896436
0.0886953
0.0877541
0.0868238
0.0859078
0.0850092
0.08413
0.0832721
0.0824369
0.0816251
0.125712
0.126539
0.127434
0.128205
0.128954
0.129531
0.129877
0.129965
0.129768
0.129581
0.129355
0.129268
0.129287
0.129158
0.128533
0.127133
0.12502
0.122142
0.118351
0.11439
0.108676
0.102434
0.0970613
0.0927344
0.0886401
0.0841846
0.0781384
0.0702266
0.0605868
0.0497418
0.0383995
0.0269534
0.0156677
0.00544633
0.00120246
0.111042
0.111855
0.112724
0.113651
0.114618
0.115611
0.116541
0.117175
0.117747
0.118048
0.118028
0.117573
0.11644
0.114744
0.112639
0.108796
0.103092
0.0961799
0.0882076
0.0801623
0.0738667
0.0752935
0.0820202
0.0888947
0.0943793
0.0960358
0.099282
0.0994157
0.095474
0.0854068
0.0700213
0.0512568
0.0312074
0.0126607
0.00148774
0.13905
0.140288
0.141599
0.142873
0.143968
0.144797
0.145318
0.145711
0.145769
0.145402
0.144333
0.142084
0.137858
0.130129
0.117315
0.100193
0.0820268
0.0669844
0.0576026
0.0590889
0.0714956
0.0847676
0.0993278
0.111807
0.118654
0.119204
0.114477
0.106086
0.0948115
0.080905
0.0651462
0.0481312
0.0301546
0.0129958
0.00153108
0.122899
0.124122
0.125491
0.12698
0.128548
0.130114
0.131545
0.132613
0.132981
0.132282
0.130125
0.126018
0.118952
0.107698
0.0870843
0.0670787
0.052607
0.0411434
0.0372089
0.0376596
0.0409089
0.0468075
0.053414
0.0588036
0.062761
0.06384
0.0633033
0.0589886
0.0523962
0.0439678
0.0342392
0.0240606
0.0144802
0.00596796
0.000997588
0.138247
0.139245
0.140379
0.141679
0.143161
0.144835
0.146688
0.148624
0.150452
0.151454
0.151271
0.149553
0.146689
0.142934
0.138316
0.133572
0.126623
0.114914
0.0989887
0.0815807
0.0646062
0.0485761
0.0355685
0.0273297
0.0217041
0.0190793
0.0189253
0.0182804
0.0173364
0.0146076
0.0114997
0.00836807
0.00536388
0.0026854
0.000497624
0.130412
0.130816
0.131259
0.131737
0.132252
0.132803
0.133388
0.134016
0.134716
0.135478
0.136088
0.136412
0.136266
0.135278
0.133202
0.129557
0.124702
0.118706
0.111958
0.104562
0.0963709
0.086546
0.0751517
0.0633529
0.0515713
0.0404683
0.0305
0.0222522
0.015645
0.0112016
0.00810609
0.00563689
0.00348229
0.00152986
0.00030618
0.139784
0.140121
0.14048
0.14087
0.141296
0.141757
0.142249
0.142751
0.143216
0.143536
0.143526
0.142983
0.141743
0.139701
0.136861
0.133456
0.129654
0.125413
0.120739
0.115645
0.110012
0.10324
0.0948258
0.0855189
0.0756927
0.0656355
0.0557397
0.0462143
0.0372063
0.0287862
0.0210094
0.0139702
0.00781075
0.00290315
0.000393524
0.134594
0.134698
0.134805
0.134908
0.135001
0.135077
0.135121
0.135119
0.135053
0.134897
0.13462
0.134179
0.133502
0.13245
0.130827
0.128514
0.125604
0.122178
0.118279
0.113861
0.10878
0.102508
0.0948657
0.086453
0.0773624
0.0678064
0.058066
0.0484062
0.0390604
0.0302735
0.0222213
0.0149936
0.00868727
0.00349582
0.000327682
0.134323
0.134367
0.134408
0.134447
0.134484
0.134516
0.134536
0.134535
0.134491
0.134363
0.134084
0.133567
0.132732
0.131481
0.129718
0.12746
0.124838
0.121828
0.118362
0.114319
0.109486
0.103352
0.0957253
0.0872295
0.0780096
0.0683359
0.0585681
0.0488802
0.0395267
0.0306955
0.0225316
0.015141
0.00864634
0.00334275
0.00037062
0.129226
0.129217
0.129206
0.129187
0.129156
0.129107
0.129034
0.128923
0.128756
0.128507
0.128141
0.127613
0.126878
0.125871
0.124487
0.12265
0.120346
0.117548
0.114227
0.110287
0.105537
0.0995133
0.0920796
0.0838776
0.0750338
0.0657526
0.0563251
0.0469906
0.0379947
0.0295519
0.0217772
0.0147607
0.00859721
0.00348142
0.000302725
0.126749
0.126697
0.126636
0.126566
0.126483
0.126383
0.126262
0.126108
0.125904
0.125622
0.125218
0.124645
0.12385
0.122759
0.121286
0.119413
0.117184
0.114532
0.111355
0.107506
0.102763
0.0966401
0.0890198
0.0806268
0.0716628
0.0624126
0.0531705
0.0441404
0.0355455
0.0275327
0.0201989
0.013612
0.0078478
0.00310992
0.000314769
0.122553
0.122469
0.122375
0.122268
0.122143
0.121994
0.121813
0.121589
0.121306
0.120945
0.12048
0.119874
0.119082
0.11804
0.116661
0.114901
0.112742
0.110096
0.106885
0.102997
0.098241
0.0921779
0.0847602
0.0767242
0.0682525
0.0595611
0.0509181
0.0424344
0.0343087
0.0266952
0.0196923
0.0133728
0.00781174
0.00317528
0.000270813
0.119345
0.119237
0.119116
0.118979
0.118823
0.118643
0.118429
0.118173
0.117857
0.117457
0.116946
0.116291
0.115444
0.114338
0.112887
0.111056
0.108858
0.106222
0.103039
0.0991575
0.0943683
0.0882326
0.0807305
0.0726427
0.0641841
0.0556161
0.0471611
0.0389989
0.0313094
0.024206
0.0177563
0.0119989
0.0069721
0.00281017
0.000267029
0.115748
0.115624
0.115487
0.115331
0.115151
0.11494
0.114691
0.114392
0.114029
0.113583
0.113029
0.112333
0.111449
0.110313
0.108841
0.107006
0.104809
0.102162
0.0989498
0.0950309
0.0902376
0.0841749
0.0768736
0.0691103
0.0610816
0.0530153
0.0450905
0.0374385
0.0302056
0.0234836
0.017333
0.0117975
0.00692461
0.00284131
0.000242838
0.112781
0.112644
0.11249
0.112314
0.112113
0.111878
0.111602
0.111274
0.110876
0.11039
0.109791
0.109047
0.108111
0.106919
0.105386
0.103485
0.101224
0.09852
0.0952724
0.0913433
0.0865545
0.0805146
0.0732765
0.0656259
0.0577631
0.0499123
0.0422386
0.0348941
0.0280112
0.0216717
0.0159245
0.010796
0.00631239
0.0025752
0.000231512
0.109927
0.109778
0.10961
0.109417
0.109194
0.108933
0.108626
0.108262
0.107827
0.107301
0.10666
0.105869
0.104884
0.103639
0.102052
0.100103
0.0978033
0.0950743
0.0918143
0.0878925
0.0831472
0.0772222
0.0702003
0.0628489
0.055345
0.0478888
0.040609
0.0336309
0.0270712
0.0210029
0.0154753
0.0105217
0.00617711
0.00254253
0.000218793
0.107444
0.107282
0.107098
0.106887
0.106642
0.106358
0.106025
0.105629
0.105158
0.104593
0.103909
0.103072
0.102037
0.10074
0.0990995
0.0971003
0.094757