/*--------------------------------*- C++ -*----------------------------------*\
  =========                 |
  \\      /  F ield         | OpenFOAM: The Open Source CFD Toolbox
   \\    /   O peration     | Website:  https://openfoam.org
    \\  /    A nd           | Version:  8
     \\/     M anipulation  |
\*---------------------------------------------------------------------------*/
FoamFile
{
    version     2.0;
    format      ascii;
    class       volVectorField;
    location    "0.15";
    object      U;
}
// * * * * * * * * * * * * * * * * * * * * * * * * * * * * * * * * * * * * * //

dimensions      [0 1 -1 0 0 0 0];

internalField   nonuniform List<vector> 
15677
(
(-0.133245 -126.869 0)
(-0.155703 -127.298 0)
(-0.148109 -122.477 0)
(-0.0848667 -117.463 0)
(0.0383626 -112.358 0)
(0.206103 -107.041 0)
(0.429103 -101.378 0)
(0.745054 -95.3482 0)
(1.1934 -88.9731 0)
(1.95151 -82.4757 0)
(3.24272 -76.4567 0)
(5.12564 -71.927 0)
(7.35437 -69.4604 0)
(9.53622 -69.2314 0)
(11.0434 -71.0702 0)
(11.7827 -74.1268 0)
(12.1104 -77.4009 0)
(12.1702 -79.8633 0)
(12.1161 -81.7168 0)
(11.9488 -83.0999 0)
(11.6689 -84.0628 0)
(11.2909 -84.5399 0)
(10.8695 -84.5489 0)
(10.4441 -84.1177 0)
(10.0313 -83.2577 0)
(9.64605 -82.1399 0)
(9.30307 -80.9374 0)
(9.00883 -79.715 0)
(8.76468 -78.5385 0)
(8.57272 -77.4675 0)
(8.43315 -76.5189 0)
(8.34299 -75.6936 0)
(8.29781 -75.0078 0)
(8.29331 -74.4747 0)
(8.3423 -74.0963 0)
(-1.76025 113.22 0)
(-4.87551 110.68 0)
(-8.58634 105.946 0)
(-12.6579 100.917 0)
(-17.0001 95.3887 0)
(-21.4256 89.0888 0)
(-25.703 81.7279 0)
(-29.512 72.9969 0)
(-32.325 62.1272 0)
(-33.4711 48.9957 0)
(-32.78 35.7504 0)
(-29.7044 27.3756 0)
(-25.2174 26.4175 0)
(-19.5556 32.0223 0)
(-14.0552 41.8442 0)
(-9.71177 50.9613 0)
(-5.9671 57.7993 0)
(-2.75695 62.1035 0)
(0.0741937 65.1385 0)
(2.59126 67.5949 0)
(4.84586 69.8411 0)
(6.75094 71.9993 0)
(8.29075 73.6918 0)
(9.58484 74.7553 0)
(10.6701 75.4084 0)
(11.5899 75.7084 0)
(12.3794 75.819 0)
(13.062 75.8388 0)
(13.6543 75.8158 0)
(14.165 75.7647 0)
(14.5996 75.6794 0)
(14.9676 75.5352 0)
(15.2775 75.3093 0)
(15.5326 74.9809 0)
(15.7375 74.5378 0)
(-0.116458 59.4634 0)
(-0.0242321 54.1752 0)
(0.187596 48.2615 0)
(0.450952 41.292 0)
(0.71568 32.7015 0)
(0.918778 22.0559 0)
(0.961771 8.87774 0)
(0.725169 -7.24545 0)
(0.0567557 -26.2489 0)
(-1.36101 -46.3603 0)
(-4.05039 -63.7948 0)
(-8.30715 -75.4283 0)
(-14.1247 -79.6873 0)
(-19.9737 -77.7658 0)
(-23.3038 -73.3825 0)
(-23.9867 -70.5224 0)
(-22.3549 -68.6089 0)
(-19.687 -67.2073 0)
(-16.6515 -65.8162 0)
(-13.4187 -64.4583 0)
(-10.1621 -63.0525 0)
(-7.12169 -61.6784 0)
(-4.49351 -60.569 0)
(-2.28992 -59.7808 0)
(-0.473199 -59.2513 0)
(1.01291 -58.8934 0)
(2.21295 -58.7705 0)
(3.166 -58.87 0)
(3.91326 -59.1263 0)
(4.50578 -59.4721 0)
(5.00456 -59.9102 0)
(5.43673 -60.4486 0)
(5.81299 -61.0691 0)
(6.15442 -61.7559 0)
(6.4686 -62.4929 0)
(1.02665 69.5269 0)
(2.54273 70.0718 0)
(4.06983 68.2571 0)
(5.64112 65.7919 0)
(7.25059 62.9804 0)
(8.84478 59.8705 0)
(10.3108 56.5607 0)
(11.5397 53.6055 0)
(12.2192 52.1369 0)
(11.7218 53.21 0)
(9.92754 56.0155 0)
(6.83992 57.8774 0)
(3.40108 55.7886 0)
(0.55523 46.7413 0)
(-0.259722 28.797 0)
(0.841364 13.1999 0)
(2.39634 4.13627 0)
(4.31448 0.975651 0)
(6.10562 1.02805 0)
(7.71648 2.67361 0)
(9.29811 5.33161 0)
(10.6985 9.03134 0)
(11.8267 13.24 0)
(12.5812 17.6394 0)
(13.0052 22.1715 0)
(13.1294 26.7214 0)
(12.9743 31.1392 0)
(12.5874 35.1907 0)
(12.0213 38.6474 0)
(11.3013 41.3664 0)
(10.4835 43.5075 0)
(9.59058 45.1954 0)
(8.65316 46.5208 0)
(7.68712 47.5542 0)
(6.7199 48.3526 0)
(0.246538 23.0036 0)
(0.585236 21.6043 0)
(1.12649 19.2174 0)
(1.73445 16.5353 0)
(2.39273 13.4439 0)
(3.07352 9.89359 0)
(3.73612 5.91886 0)
(4.35594 1.50714 0)
(4.9516 -3.33197 0)
(5.72354 -8.36656 0)
(6.93433 -13.7621 0)
(8.71262 -20.1701 0)
(10.7248 -28.9949 0)
(12.7531 -39.8524 0)
(12.8317 -47.3778 0)
(10.3433 -51.392 0)
(6.27712 -52.2279 0)
(1.82945 -50.836 0)
(-2.17391 -48.8099 0)
(-5.64251 -47.0917 0)
(-8.635 -45.6764 0)
(-11.0541 -44.3465 0)
(-12.8609 -42.8923 0)
(-14.1531 -41.3032 0)
(-15.0612 -39.6254 0)
(-15.6273 -37.8261 0)
(-15.8835 -35.9247 0)
(-15.8755 -33.8832 0)
(-15.6691 -31.6881 0)
(-15.3347 -29.3887 0)
(-14.9444 -27.2027 0)
(-14.5142 -25.2377 0)
(-14.0715 -23.5459 0)
(-13.6279 -22.1255 0)
(-13.1837 -20.9503 0)
(0.556813 28.0325 0)
(1.48322 30.7386 0)
(2.49566 30.6169 0)
(3.58184 29.9596 0)
(4.78952 29.0016 0)
(6.16187 27.8418 0)
(7.75622 26.5402 0)
(9.61702 25.1165 0)
(11.7514 23.4698 0)
(14.148 21.7131 0)
(16.6052 20.4779 0)
(18.8182 20.3803 0)
(20.2876 20.8063 0)
(20.4611 20.1778 0)
(19.5245 18.771 0)
(17.811 17.0925 0)
(15.8119 14.9603 0)
(13.835 12.0105 0)
(12.1051 8.82588 0)
(10.5641 6.52661 0)
(9.05148 5.78526 0)
(7.60257 6.63878 0)
(6.28441 8.53562 0)
(5.03394 11.0336 0)
(3.83406 13.7126 0)
(2.6596 16.251 0)
(1.5437 18.437 0)
(0.531605 20.2879 0)
(-0.389808 21.8215 0)
(-1.20411 23.0408 0)
(-1.90908 23.9744 0)
(-2.52001 24.6766 0)
(-3.04606 25.2204 0)
(-3.50618 25.6539 0)
(-3.91361 26.0061 0)
(0.173307 -0.0896748 0)
(0.546241 0.489613 0)
(0.978611 -0.329402 0)
(1.43277 -2.03254 0)
(1.87778 -4.58276 0)
(2.26898 -8.07545 0)
(2.56482 -12.5173 0)
(2.73519 -17.5193 0)
(2.69073 -21.902 0)
(2.39774 -24.2876 0)
(1.85541 -25.0098 0)
(1.297 -24.7642 0)
(0.962485 -24.0636 0)
(0.923394 -23.2043 0)
(1.01281 -22.3773 0)
(1.06921 -21.7044 0)
(0.975477 -21.1662 0)
(0.574129 -20.6635 0)
(-0.312084 -20.0988 0)
(-1.63932 -19.3771 0)
(-3.22984 -18.5254 0)
(-4.80938 -17.61 0)
(-6.10727 -16.6172 0)
(-7.03752 -15.5012 0)
(-7.61639 -14.2434 0)
(-7.89458 -12.8176 0)
(-7.98463 -11.2774 0)
(-8.00472 -9.78855 0)
(-7.95046 -8.44677 0)
(-7.82197 -7.27405 0)
(-7.64589 -6.27619 0)
(-7.44043 -5.4436 0)
(-7.21711 -4.75712 0)
(-6.98007 -4.19524 0)
(-6.74305 -3.73744 0)
(0.439677 3.88634 0)
(1.27246 5.70811 0)
(2.23759 6.99317 0)
(3.2215 8.23073 0)
(4.2171 9.6188 0)
(5.16305 11.3082 0)
(5.92713 13.5842 0)
(6.39346 16.1061 0)
(6.40494 17.6588 0)
(6.043 17.3416 0)
(5.46764 16.0218 0)
(4.78181 13.9591 0)
(4.05511 11.4472 0)
(3.3761 9.01188 0)
(2.77676 7.23401 0)
(2.23065 6.14893 0)
(1.69643 5.56292 0)
(1.14063 5.3568 0)
(0.558445 5.48451 0)
(-0.0241055 5.93014 0)
(-0.642163 6.71692 0)
(-1.31144 7.76783 0)
(-2.00208 8.85851 0)
(-2.6465 9.85827 0)
(-3.20329 10.744 0)
(-3.6683 11.4923 0)
(-4.02412 12.1284 0)
(-4.27538 12.7026 0)
(-4.45491 13.2304 0)
(-4.5971 13.7089 0)
(-4.71593 14.1302 0)
(-4.81947 14.4737 0)
(-4.91282 14.7328 0)
(-5.00363 14.9286 0)
(-5.08442 15.0853 0)
(-0.318064 -21.5632 0)
(-0.759185 -20.7443 0)
(-1.21625 -19.6931 0)
(-1.6197 -18.6822 0)
(-1.97527 -17.7065 0)
(-2.24808 -16.7426 0)
(-2.38339 -15.7884 0)
(-2.26095 -14.8328 0)
(-1.82685 -13.8225 0)
(-1.24755 -12.9218 0)
(-0.600731 -12.2576 0)
(0.0262398 -11.7912 0)
(0.459728 -11.2857 0)
(0.531817 -10.7327 0)
(0.263294 -10.2439 0)
(-0.193089 -9.77185 0)
(-0.768206 -9.28115 0)
(-1.4121 -8.80718 0)
(-2.08361 -8.333 0)
(-2.73314 -7.78903 0)
(-3.32484 -7.14333 0)
(-3.75327 -6.36032 0)
(-4.047 -5.46123 0)
(-4.29397 -4.50479 0)
(-4.48987 -3.56919 0)
(-4.62571 -2.71683 0)
(-4.70532 -1.96914 0)
(-4.731 -1.31155 0)
(-4.70749 -0.735709 0)
(-4.64387 -0.242722 0)
(-4.54966 0.167714 0)
(-4.43561 0.502122 0)
(-4.30846 0.780685 0)
(-4.17399 1.01876 0)
(-4.03626 1.23407 0)
(0.00888577 13.9019 0)
(0.016528 12.9909 0)
(0.00719964 11.915 0)
(-0.0190866 10.8684 0)
(-0.0596285 9.85191 0)
(-0.11684 8.87749 0)
(-0.188238 7.95973 0)
(-0.267412 7.11086 0)
(-0.352901 6.33422 0)
(-0.434113 5.6225 0)
(-0.5183 4.98204 0)
(-0.626969 4.45539 0)
(-0.776457 4.05015 0)
(-0.957078 3.74024 0)
(-1.17536 3.59392 0)
(-1.42826 3.61489 0)
(-1.70214 3.80164 0)
(-2.01832 4.12637 0)
(-2.38266 4.54667 0)
(-2.77256 5.04151 0)
(-3.14423 5.58643 0)
(-3.47058 6.10675 0)
(-3.69374 6.57008 0)
(-3.80637 7.0029 0)
(-3.85641 7.40999 0)
(-3.86941 7.7876 0)
(-3.86259 8.12885 0)
(-3.84895 8.42848 0)
(-3.83559 8.68798 0)
(-3.8259 8.91082 0)
(-3.82189 9.09974 0)
(-3.82441 9.25634 0)
(-3.83375 9.38301 0)
(-3.85085 9.48366 0)
(-3.87189 9.57216 0)
(-0.0371779 -16.0089 0)
(-0.0804287 -15.0733 0)
(-0.114991 -13.9798 0)
(-0.14091 -12.9349 0)
(-0.163002 -11.9217 0)
(-0.184371 -10.9442 0)
(-0.209769 -10.0154 0)
(-0.243365 -9.14117 0)
(-0.290225 -8.32683 0)
(-0.358965 -7.58105 0)
(-0.461601 -6.90462 0)
(-0.608905 -6.28481 0)
(-0.807127 -5.70372 0)
(-1.06595 -5.14426 0)
(-1.35207 -4.65425 0)
(-1.61913 -4.24117 0)
(-1.86193 -3.85682 0)
(-2.0631 -3.43852 0)
(-2.24246 -2.95581 0)
(-2.43512 -2.3922 0)
(-2.64883 -1.7585 0)
(-2.86708 -1.11004 0)
(-3.05741 -0.50137 0)
(-3.20626 0.0472492 0)
(-3.31 0.536469 0)
(-3.37008 0.964984 0)
(-3.39099 1.3387 0)
(-3.3802 1.66438 0)
(-3.34469 1.94846 0)
(-3.29035 2.19672 0)
(-3.22263 2.41434 0)
(-3.14631 2.60586 0)
(-3.06559 2.77528 0)
(-2.98091 2.93133 0)
(-2.89435 3.08374 0)
(-0.049906 10.7677 0)
(-0.133377 9.49809 0)
(-0.236202 8.3477 0)
(-0.350757 7.31558 0)
(-0.478241 6.36429 0)
(-0.615095 5.48998 0)
(-0.760372 4.69879 0)
(-0.912398 4.00016 0)
(-1.06917 3.40377 0)
(-1.22908 2.91725 0)
(-1.39197 2.54564 0)
(-1.55772 2.29263 0)
(-1.73082 2.16121 0)
(-1.93031 2.15451 0)
(-2.14287 2.27465 0)
(-2.36433 2.46601 0)
(-2.58659 2.70876 0)
(-2.78883 2.97737 0)
(-2.95359 3.25656 0)
(-3.05522 3.57166 0)
(-3.09896 3.93831 0)
(-3.09521 4.32763 0)
(-3.06497 4.69877 0)
(-3.02321 5.01082 0)
(-2.97504 5.27462 0)
(-2.9256 5.51773 0)
(-2.88128 5.73649 0)
(-2.84416 5.92954 0)
(-2.81501 6.09706 0)
(-2.79367 6.24007 0)
(-2.77933 6.36022 0)
(-2.77077 6.45947 0)
(-2.7672 6.53998 0)
(-2.76893 6.60401 0)
(-2.7722 6.66112 0)
(0.0170127 -10.0565 0)
(0.031573 -9.17876 0)
(0.0413325 -8.29612 0)
(0.0423429 -7.48211 0)
(0.0327162 -6.71342 0)
(0.00955169 -5.98727 0)
(-0.0307388 -5.30927 0)
(-0.0918897 -4.68595 0)
(-0.176794 -4.12149 0)
(-0.287892 -3.61683 0)
(-0.425346 -3.16874 0)
(-0.588312 -2.76949 0)
(-0.778509 -2.40571 0)
(-0.974469 -2.05567 0)
(-1.1579 -1.72587 0)
(-1.33498 -1.39979 0)
(-1.50977 -1.04675 0)
(-1.68903 -0.665548 0)
(-1.86818 -0.250549 0)
(-2.04387 0.191856 0)
(-2.21285 0.650525 0)
(-2.35635 1.10571 0)
(-2.45692 1.51534 0)
(-2.51442 1.86409 0)
(-2.54321 2.16264 0)
(-2.54861 2.42336 0)
(-2.5337 2.6518 0)
(-2.5035 2.85301 0)
(-2.46218 3.03099 0)
(-2.41308 3.18919 0)
(-2.3592 3.33058 0)
(-2.30315 3.45774 0)
(-2.2467 3.57282 0)
(-2.18992 3.67766 0)
(-2.13132 3.77383 0)
(-0.0591252 7.65137 0)
(-0.154845 6.72225 0)
(-0.266412 5.90217 0)
(-0.384656 5.17612 0)
(-0.510451 4.51364 0)
(-0.641665 3.91051 0)
(-0.777727 3.3722 0)
(-0.917869 2.90517 0)
(-1.06166 2.51593 0)
(-1.20927 2.20929 0)
(-1.36256 1.98742 0)
(-1.52169 1.84921 0)
(-1.68589 1.79063 0)
(-1.85575 1.80511 0)
(-2.00493 1.8765 0)
(-2.12068 1.98684 0)
(-2.21212 2.12599 0)
(-2.28188 2.29764 0)
(-2.33012 2.51039 0)
(-2.35274 2.76799 0)
(-2.35298 3.06181 0)
(-2.33212 3.36231 0)
(-2.2943 3.61339 0)
(-2.24805 3.82485 0)
(-2.19981 4.02176 0)
(-2.15254 4.20097 0)
(-2.10925 4.36228 0)
(-2.07041 4.50579 0)
(-2.03637 4.63199 0)
(-2.00704 4.74179 0)
(-1.98201 4.83636 0)
(-1.96072 4.91696 0)
(-1.94293 4.98492 0)
(-1.9288 5.04151 0)
(-1.9142 5.08791 0)
(0.0206518 -5.18257 0)
(0.0507099 -4.60861 0)
(0.0772548 -4.06961 0)
(0.0974576 -3.57577 0)
(0.109388 -3.11163 0)
(0.10852 -2.67556 0)
(0.09187 -2.272 0)
(0.0569786 -1.90394 0)
(-0.000523705 -1.57063 0)
(-0.0834064 -1.26969 0)
(-0.194591 -0.995393 0)
(-0.335971 -0.738158 0)
(-0.508145 -0.485808 0)
(-0.710885 -0.224356 0)
(-0.916076 0.0411523 0)
(-1.10278 0.302016 0)
(-1.27508 0.569183 0)
(-1.43135 0.846516 0)
(-1.57295 1.13894 0)
(-1.69964 1.45019 0)
(-1.805 1.77613 0)
(-1.87382 2.07343 0)
(-1.90559 2.32411 0)
(-1.91724 2.54346 0)
(-1.91239 2.73605 0)
(-1.89533 2.90547 0)
(-1.86817 3.05408 0)
(-1.83293 3.18502 0)
(-1.79266 3.30113 0)
(-1.74925 3.4047 0)
(-1.70425 3.49768 0)
(-1.65907 3.5817 0)
(-1.61486 3.65812 0)
(-1.57151 3.72793 0)
(-1.52657 3.79205 0)
(-0.053775 5.12216 0)
(-0.143686 4.54733 0)
(-0.245519 4.05279 0)
(-0.350026 3.62094 0)
(-0.457607 3.23209 0)
(-0.565476 2.8836 0)
(-0.672359 2.57695 0)
(-0.777055 2.31551 0)
(-0.878648 2.10131 0)
(-0.976435 1.93454 0)
(-1.07028 1.81376 0)
(-1.1601 1.73775 0)
(-1.24949 1.7057 0)
(-1.33857 1.71684 0)
(-1.42079 1.76917 0)
(-1.49506 1.84921 0)
(-1.56053 1.95558 0)
(-1.61345 2.09507 0)
(-1.65574 2.27178 0)
(-1.68632 2.48476 0)
(-1.69542 2.6928 0)
(-1.68117 2.87641 0)
(-1.65627 3.05185 0)
(-1.62516 3.21342 0)
(-1.5905 3.3597 0)
(-1.55469 3.49044 0)
(-1.5187 3.60645 0)
(-1.48475 3.70919 0)
(-1.45289 3.79958 0)
(-1.42343 3.87844 0)
(-1.39632 3.94671 0)
(-1.37174 4.00531 0)
(-1.34967 4.05504 0)
(-1.32962 4.09686 0)
(-1.30868 4.1318 0)
(0.0228575 -1.60314 0)
(0.0505164 -1.29353 0)
(0.0737204 -1.04443 0)
(0.0898232 -0.819101 0)
(0.0958168 -0.604091 0)
(0.0886498 -0.398374 0)
(0.0655469 -0.204342 0)
(0.0242286 -0.0234544 0)
(-0.0372627 0.144311 0)
(-0.119612 0.299942 0)
(-0.22317 0.448842 0)
(-0.347804 0.599863 0)
(-0.491726 0.759788 0)
(-0.652173 0.932599 0)
(-0.806044 1.10697 0)
(-0.940295 1.2776 0)
(-1.05953 1.45182 0)
(-1.16625 1.63658 0)
(-1.25702 1.84255 0)
(-1.32506 2.05 0)
(-1.36627 2.24624 0)
(-1.38938 2.43057 0)
(-1.39646 2.59517 0)
(-1.39046 2.74057 0)
(-1.37479 2.86864 0)
(-1.35184 2.98127 0)
(-1.32441 3.0804 0)
(-1.29349 3.16749 0)
(-1.26001 3.24439 0)
(-1.22556 3.31275 0)
(-1.19115 3.37386 0)
(-1.15735 3.42859 0)
(-1.12468 3.47779 0)
(-1.09337 3.52234 0)
(-1.0612 3.563 0)
(-0.0256668 3.17167 0)
(-0.073391 2.95011 0)
(-0.128715 2.74363 0)
(-0.189222 2.5605 0)
(-0.253923 2.39552 0)
(-0.321148 2.24783 0)
(-0.389744 2.11776 0)
(-0.458794 2.00596 0)
(-0.527686 1.91305 0)
(-0.596536 1.84022 0)
(-0.666118 1.78972 0)
(-0.737928 1.76311 0)
(-0.813086 1.76133 0)
(-0.889645 1.78672 0)
(-0.962594 1.83965 0)
(-1.02958 1.91163 0)
(-1.08794 2.00391 0)
(-1.1393 2.12364 0)
(-1.18034 2.25747 0)
(-1.20349 2.39247 0)
(-1.2126 2.53457 0)
(-1.20891 2.6748 0)
(-1.1956 2.80424 0)
(-1.17553 2.92119 0)
(-1.15103 3.02577 0)
(-1.12399 3.11849 0)
(-1.09599 3.20007 0)
(-1.06772 3.27151 0)
(-1.04041 3.33403 0)
(-1.01454 3.38838 0)
(-0.990015 3.4352 0)
(-0.966831 3.47555 0)
(-0.945542 3.51055 0)
(-0.925777 3.54108 0)
(-0.90543 3.56781 0)
(0.00986341 0.241398 0)
(0.0169499 0.457537 0)
(0.0213435 0.600369 0)
(0.020224 0.719784 0)
(0.012422 0.826966 0)
(-0.00382301 0.924743 0)
(-0.0302271 1.01421 0)
(-0.0681996 1.09594 0)
(-0.119004 1.1718 0)
(-0.183772 1.24544 0)
(-0.262702 1.32076 0)
(-0.354944 1.40136 0)
(-0.458663 1.48948 0)
(-0.571689 1.58759 0)
(-0.678086 1.69113 0)
(-0.769689 1.79636 0)
(-0.851177 1.9086 0)
(-0.91865 2.03126 0)
(-0.969874 2.15854 0)
(-1.00647 2.28776 0)
(-1.03005 2.41823 0)
(-1.0396 2.54289 0)
(-1.0373 2.65484 0)
(-1.02633 2.75389 0)
(-1.00923 2.8411 0)
(-0.987914 2.91762 0)
(-0.963867 2.98464 0)
(-0.938559 3.04331 0)
(-0.912475 3.09464 0)
(-0.886231 3.13971 0)
(-0.860333 3.17959 0)
(-0.83579 3.21531 0)
(-0.812737 3.24757 0)
(-0.790909 3.27687 0)
(-0.768901 3.30357 0)
(-0.0135161 2.31006 0)
(-0.0444021 2.28902 0)
(-0.076708 2.22626 0)
(-0.112702 2.16442 0)
(-0.151466 2.10663 0)
(-0.192265 2.05402 0)
(-0.23498 2.00749 0)
(-0.279718 1.96799 0)
(-0.327049 1.93678 0)
(-0.377673 1.91506 0)
(-0.43281 1.90378 0)
(-0.493222 1.90386 0)
(-0.558043 1.91709 0)
(-0.626779 1.94694 0)
(-0.69315 1.99443 0)
(-0.751697 2.05492 0)
(-0.803935 2.12823 0)
(-0.84854 2.21264 0)
(-0.882794 2.30506 0)
(-0.90673 2.40294 0)
(-0.919807 2.50493 0)
(-0.921625 2.6049 0)
(-0.914441 2.6963 0)
(-0.900858 2.7782 0)
(-0.882994 2.85096 0)
(-0.862526 2.91518 0)
(-0.840778 2.97155 0)
(-0.818718 3.0208 0)
(-0.797029 3.06386 0)
(-0.776212 3.10179 0)
(-0.756575 3.13551 0)
(-0.738248 3.16549 0)
(-0.721118 3.19201 0)
(-0.705229 3.21531 0)
(-0.689312 3.23562 0)
(0.00102396 1.18813 0)
(-0.00307468 1.35157 0)
(-0.00925047 1.43851 0)
(-0.0194949 1.50311 0)
(-0.0341118 1.55734 0)
(-0.0542361 1.60507 0)
(-0.0808301 1.64833 0)
(-0.114793 1.68869 0)
(-0.156845 1.72792 0)
(-0.207362 1.76806 0)
(-0.266395 1.80998 0)
(-0.333795 1.85376 0)
(-0.408761 1.90082 0)
(-0.490134 1.95474 0)
(-0.567636 2.01475 0)
(-0.635155 2.07969 0)
(-0.693404 2.15213 0)
(-0.742052 2.23082 0)
(-0.780283 2.31383 0)
(-0.808093 2.39979 0)
(-0.825379 2.48755 0)
(-0.831703 2.57207 0)
(-0.828912 2.64833 0)
(-0.819557 2.71602 0)
(-0.805672 2.77579 0)
(-0.788827 2.82844 0)
(-0.770225 2.87481 0)
(-0.750776 2.91571 0)
(-0.731145 2.95194 0)
(-0.711713 2.98413 0)
(-0.692872 3.01277 0)
(-0.674723 3.0382 0)
(-0.657471 3.06075 0)
(-0.641127 3.08076 0)
(-0.62491 3.09856 0)
(-0.0106362 2.05367 0)
(-0.0280717 2.12013 0)
(-0.0508463 2.12122 0)
(-0.0749426 2.11123 0)
(-0.101704 2.0988 0)
(-0.131128 2.08652 0)
(-0.163458 2.07565 0)
(-0.198777 2.06709 0)
(-0.237898 2.06161 0)
(-0.280825 2.06004 0)
(-0.326594 2.06408 0)
(-0.376251 2.07434 0)
(-0.430567 2.09179 0)
(-0.489862 2.11986 0)
(-0.548853 2.15857 0)
(-0.602713 2.20409 0)
(-0.650987 2.25699 0)
(-0.692247 2.31632 0)
(-0.725409 2.38061 0)
(-0.749851 2.44852 0)
(-0.765096 2.51887 0)
(-0.770609 2.58742 0)
(-0.768044 2.64984 0)
(-0.759644 2.70559 0)
(-0.747207 2.75505 0)
(-0.732158 2.79879 0)
(-0.715586 2.83736 0)
(-0.698292 2.87135 0)
(-0.680847 2.90127 0)
(-0.663639 2.9276 0)
(-0.64694 2.95073 0)
(-0.63094 2.97102 0)
(-0.61579 2.98878 0)
(-0.601552 3.00433 0)
(-0.587664 3.01792 0)
(-0.00308792 1.67938 0)
(-0.0107386 1.82029 0)
(-0.0217074 1.88152 0)
(-0.0351536 1.92328 0)
(-0.0521504 1.95686 0)
(-0.0729848 1.98609 0)
(-0.0984751 2.01226 0)
(-0.129304 2.03594 0)
(-0.16569 2.05746 0)
(-0.208684 2.07706 0)
(-0.257945 2.0962 0)
(-0.312192 2.11784 0)
(-0.372315 2.14436 0)
(-0.437928 2.17818 0)
(-0.500642 2.21814 0)
(-0.555991 2.26135 0)
(-0.604964 2.30873 0)
(-0.646765 2.3599 0)
(-0.680722 2.4141 0)
(-0.706354 2.47052 0)
(-0.723291 2.52829 0)
(-0.730855 2.58408 0)
(-0.730481 2.63453 0)
(-0.724347 2.67928 0)
(-0.714063 2.71878 0)
(-0.700937 2.75356 0)
(-0.686027 2.78413 0)
(-0.670113 2.81099 0)
(-0.653779 2.83457 0)
(-0.637455 2.85528 0)
(-0.621459 2.87347 0)
(-0.606023 2.88946 0)
(-0.591314 2.90353 0)
(-0.577403 2.91595 0)
(-0.564055 2.92693 0)
(-0.00827928 2.0473 0)
(-0.0215907 2.15252 0)
(-0.0394952 2.18147 0)
(-0.0586253 2.19386 0)
(-0.0806203 2.20015 0)
(-0.104776 2.2041 0)
(-0.131037 2.20791 0)
(-0.160308 2.21211 0)
(-0.192486 2.21696 0)
(-0.22848 2.22283 0)
(-0.269843 2.23 0)
(-0.316833 2.24012 0)
(-0.369753 2.25553 0)
(-0.428484 2.27808 0)
(-0.485982 2.30693 0)
(-0.537581 2.33949 0)
(-0.58387 2.376 0)
(-0.623971 2.41586 0)
(-0.657137 2.45833 0)
(-0.682759 2.50265 0)
(-0.700339 2.54802 0)
(-0.709115 2.59167 0)
(-0.710147 2.63148 0)
(-0.70544 2.66667 0)
(-0.696605 2.69728 0)
(-0.684909 2.72418 0)
(-0.671373 2.74773 0)
(-0.65677 2.76829 0)
(-0.64169 2.78623 0)
(-0.626572 2.80188 0)
(-0.611732 2.81551 0)
(-0.597393 2.82738 0)
(-0.583706 2.83774 0)
(-0.570766 2.84679 0)
(-0.558633 2.85471 0)
(-0.00454632 1.96342 0)
(-0.0138525 2.10023 0)
(-0.0265068 2.15121 0)
(-0.0409497 2.18291 0)
(-0.0583833 2.20666 0)
(-0.079643 2.22547 0)
(-0.104469 2.2409 0)
(-0.133106 2.25464 0)
(-0.166474 2.2676 0)
(-0.204656 2.28047 0)
(-0.248097 2.29375 0)
(-0.297248 2.30825 0)
(-0.352161 2.32552 0)
(-0.412398 2.34728 0)
(-0.47083 2.37275 0)
(-0.522978 2.40021 0)
(-0.569782 2.43012 0)
(-0.610575 2.4621 0)
(-0.644744 2.49564 0)
(-0.671738 2.53016 0)
(-0.691073 2.56506 0)
(-0.701896 2.59823 0)
(-0.705026 2.62778 0)
(-0.702172 2.65362 0)
(-0.695049 2.67597 0)
(-0.684934 2.69528 0)
(-0.672796 2.71196 0)
(-0.659409 2.72634 0)
(-0.645372 2.73875 0)
(-0.631139 2.74946 0)
(-0.617045 2.75872 0)
(-0.603331 2.76674 0)
(-0.590152 2.7737 0)
(-0.577629 2.77976 0)
(-0.566161 2.78507 0)
(-0.00629246 2.131 0)
(-0.0184076 2.25667 0)
(-0.0336619 2.29685 0)
(-0.0506143 2.31849 0)
(-0.0697789 2.33318 0)
(-0.0915054 2.34439 0)
(-0.116209 2.35353 0)
(-0.144236 2.3614 0)
(-0.17615 2.36886 0)
(-0.212423 2.3765 0)
(-0.253602 2.38487 0)
(-0.300263 2.3947 0)
(-0.352749 2.40702 0)
(-0.410956 2.42307 0)
(-0.468156 2.44225 0)
(-0.519823 2.46305 0)
(-0.566738 2.48567 0)
(-0.60818 2.50971 0)
(-0.643499 2.53466 0)
(-0.672093 2.55999 0)
(-0.693419 2.58514 0)
(-0.706399 2.60853 0)
(-0.711658 2.62886 0)
(-0.710886 2.64615 0)
(-0.705639 2.66072 0)
(-0.69718 2.67296 0)
(-0.686505 2.68322 0)
(-0.674406 2.69181 0)
(-0.661499 2.699 0)
(-0.648255 2.70503 0)
(-0.635029 2.71009 0)
(-0.622069 2.71433 0)
(-0.609531 2.71791 0)
(-0.597567 2.72094 0)
(-0.586921 2.72353 0)
(-0.00510825 2.14869 0)
(-0.0156722 2.29006 0)
(-0.0293762 2.33881 0)
(-0.0451029 2.36668 0)
(-0.0635677 2.3863 0)
(-0.084949 2.40167 0)
(-0.109634 2.41438 0)
(-0.138063 2.42537 0)
(-0.170699 2.43533 0)
(-0.207975 2.44481 0)
(-0.250314 2.45432 0)
(-0.298113 2.46444 0)
(-0.351612 2.4759 0)
(-0.410744 2.4896 0)
(-0.468851 2.50497 0)
(-0.521515 2.521 0)
(-0.569672 2.53791 0)
(-0.612679 2.55537 0)
(-0.649919 2.57295 0)
(-0.680792 2.59019 0)
(-0.704724 2.60659 0)
(-0.720438 2.62101 0)
(-0.728318 2.63274 0)
(-0.729983 2.64198 0)
(-0.726931 2.64911 0)
(-0.720404 2.65451 0)
(-0.711408 2.65851 0)
(-0.700749 2.66143 0)
(-0.689066 2.66349 0)
(-0.676852 2.66489 0)
(-0.664488 2.6658 0)
(-0.652241 2.66632 0)
(-0.640277 2.66658 0)
(-0.628778 2.66664 0)
(-0.618871 2.66659 0)
(-0.00587623 2.2443 0)
(-0.0176728 2.3844 0)
(-0.0322815 2.43062 0)
(-0.048848 2.45595 0)
(-0.0679667 2.47317 0)
(-0.0897999 2.48623 0)
(-0.114738 2.49681 0)
(-0.143216 2.50582 0)
(-0.175721 2.51386 0)
(-0.212769 2.52139 0)
(-0.254877 2.52884 0)
(-0.302527 2.53667 0)
(-0.356054 2.54541 0)
(-0.415523 2.55564 0)
(-0.474379 2.56683 0)
(-0.52817 2.57818 0)
(-0.577852 2.58976 0)
(-0.622797 2.60123 0)
(-0.662386 2.61216 0)
(-0.696001 2.62207 0)
(-0.723025 2.63049 0)
(-0.741963 2.63667 0)
(-0.752918 2.64042 0)
(-0.757416 2.64212 0)
(-0.756909 2.6422 0)
(-0.752626 2.64107 0)
(-0.745584 2.63906 0)
(-0.736607 2.63647 0)
(-0.726359 2.63352 0)
(-0.715364 2.63037 0)
(-0.704028 2.62716 0)
(-0.69264 2.62397 0)
(-0.681376 2.62087 0)
(-0.670456 2.61792 0)
(-0.661409 2.61515 0)
(-0.00550598 2.29396 0)
(-0.016985 2.44207 0)
(-0.0313585 2.49144 0)
(-0.0478335 2.51879 0)
(-0.0670161 2.53753 0)
(-0.0890962 2.55178 0)
(-0.114473 2.5633 0)
(-0.143563 2.57301 0)
(-0.176821 2.58147 0)
(-0.214732 2.5891 0)
(-0.257781 2.59625 0)
(-0.306432 2.60326 0)
(-0.361043 2.61049 0)
(-0.421765 2.61832 0)
(-0.482084 2.62624 0)
(-0.537555 2.63374 0)
(-0.589253 2.64081 0)
(-0.636602 2.64711 0)
(-0.679009 2.65222 0)
(-0.715853 2.65563 0)
(-0.746488 2.65686 0)
(-0.769188 2.65549 0)
(-0.783737 2.65185 0)
(-0.791553 2.64646 0)
(-0.794041 2.63982 0)
(-0.792413 2.63239 0)
(-0.78769 2.62454 0)
(-0.780716 2.61655 0)
(-0.772182 2.60864 0)
(-0.762641 2.60096 0)
(-0.752536 2.59363 0)
(-0.742178 2.58671 0)
(-0.731757 2.58024 0)
(-0.721533 2.57424 0)
(-0.713468 2.56873 0)
(-0.00596422 2.36402 0)
(-0.0179216 2.51451 0)
(-0.0327518 2.56404 0)
(-0.0496629 2.59108 0)
(-0.0692647 2.60932 0)
(-0.0917445 2.62296 0)
(-0.117509 2.63379 0)
(-0.146986 2.64274 0)
(-0.180654 2.65036 0)
(-0.219027 2.65703 0)
(-0.262635 2.66304 0)
(-0.311991 2.66864 0)
(-0.367522 2.67405 0)
(-0.429484 2.67946 0)
(-0.491385 2.6844 0)
(-0.548734 2.6885 0)
(-0.602698 2.69164 0)
(-0.652748 2.69346 0)
(-0.698321 2.69348 0)
(-0.7388 2.69116 0)
(-0.773518 2.68598 0)
(-0.800499 2.67778 0)
(-0.819168 2.66734 0)
(-0.830816 2.65533 0)
(-0.83679 2.64235 0)
(-0.838277 2.6289 0)
(-0.836297 2.61538 0)
(-0.831712 2.60212 0)
(-0.82524 2.58933 0)
(-0.817468 2.57717 0)
(-0.808871 2.56572 0)
(-0.799792 2.55505 0)
(-0.790432 2.54517 0)
(-0.781097 2.53607 0)
(-0.774206 2.52775 0)
(8.51535 -73.7619 0)
(8.37554 -73.4605 0)
(8.18187 -73.2347 0)
(8.01146 -73.0851 -3.67483e-17)
(7.85259 -73.0141 0)
(7.69729 -73.0269 0)
(7.54014 -73.1322 0)
(7.37544 -73.3057 0)
(7.19017 -73.5159 3.63196e-17)
(6.96625 -73.7641 0)
(6.67766 -74.0504 0)
(6.30486 -74.3699 -3.63894e-17)
(5.87471 -74.715 0)
(5.42294 -75.1094 -3.83338e-17)
(4.96043 -75.5787 0)
(4.4896 -76.1254 0)
(4.01404 -76.7698 0)
(3.53867 -77.5223 4.25164e-17)
(3.06667 -78.3959 0)
(2.59898 -79.4056 2.24235e-17)
(2.16783 -80.5643 0)
(1.78348 -81.8802 0)
(16.0124 73.7935 0)
(16.7752 72.759 0)
(17.7089 71.6585 0)
(18.7239 70.5587 4.33661e-17)
(19.826 69.5267 0)
(21.0178 68.6348 0)
(22.283 67.9603 -8.3469e-17)
(23.6023 67.5654 0)
(24.9612 67.5164 -1.26245e-16)
(26.3431 67.8728 8.31534e-17)
(27.6932 68.6598 8.30542e-17)
(28.9033 69.6858 4.30556e-17)
(29.7858 70.6579 0)
(30.2322 71.5724 4.43781e-17)
(30.1862 72.4792 0)
(29.7583 73.4266 0)
(28.9158 74.4087 0)
(27.713 75.4207 -1.35013e-16)
(26.1746 76.464 0)
(24.3401 77.5388 -2.32411e-17)
(22.2261 78.6345 0)
(19.9189 79.719 -4.68198e-17)
(6.81152 -63.467 0)
(7.00828 -64.4728 0)
(7.09069 -65.2564 0)
(7.08697 -65.8868 0)
(6.99238 -66.3679 0)
(6.81531 -66.6523 6.77879e-17)
(6.5756 -66.6715 6.61699e-17)
(6.29117 -66.318 0)
(5.98534 -65.416 6.65559e-17)
(5.67819 -63.7334 -6.67241e-17)
(5.40705 -60.9712 -6.67207e-17)
(5.22587 -56.9132 0)
(5.2021 -51.6248 0)
(5.35691 -45.6587 0)
(5.62946 -39.4139 7.00282e-17)
(5.95104 -33.1797 0)
(6.29904 -27.1533 0)
(6.66126 -21.4771 6.92608e-17)
(7.03581 -16.2604 0)
(7.4236 -11.5926 0)
(7.81615 -7.50209 0)
(8.19631 -3.9906 3.70982e-17)
(5.5773 49.1906 0)
(4.31341 50.135 0)
(2.94649 51.1512 0)
(1.44175 52.1734 -8.30521e-17)
(-0.1973 53.0637 0)
(-1.95065 53.7581 8.21765e-17)
(-3.77002 54.2524 0)
(-5.65895 54.4457 0)
(-7.59605 54.254 0)
(-9.49036 53.7555 0)
(-11.265 52.9683 -1.69303e-16)
(-12.8463 51.9566 0)
(-14.1303 50.8589 0)
(-15.0721 49.8253 0)
(-15.6458 48.9463 8.61217e-17)
(-15.8355 48.3413 1.78486e-16)
(-15.6995 48.1064 0)
(-15.309 48.2309 0)
(-14.7131 48.6563 0)
(-13.9834 49.2971 0)
(-13.1605 50.0636 9.35335e-17)
(-12.2184 50.8625 0)
(-12.6648 -19.6244 -1.45373e-16)
(-12.0554 -18.133 0)
(-11.4708 -16.8006 -1.56759e-16)
(-10.862 -15.6409 7.73629e-17)
(-10.2351 -14.6624 0)
(-9.59624 -13.8792 -1.57013e-16)
(-8.95422 -13.3092 -1.61506e-16)
(-8.31467 -12.9895 -1.62588e-16)
(-7.68808 -12.9391 0)
(-7.11194 -13.0906 0)
(-6.59238 -13.2949 1.62078e-16)
(-6.14203 -13.3969 0)
(-5.77254 -13.2817 0)
(-5.46344 -12.8722 0)
(-5.19917 -12.1256 -3.45927e-16)
(-4.96365 -11.0337 -1.7328e-16)
(-4.7369 -9.61882 0)
(-4.4969 -7.93064 -1.81052e-16)
(-4.22631 -6.04669 0)
(-3.91207 -4.05208 1.84519e-16)
(-3.5488 -2.0225 -9.11464e-17)
(-3.17651 -0.0280372 0)
(-4.358 26.3843 1.73918e-16)
(-4.81813 26.7443 -1.83359e-16)
(-5.18435 27.0493 3.70898e-16)
(-5.49544 27.3182 1.85356e-16)
(-5.7536 27.5561 0)
(-5.9656 27.7241 0)
(-6.13953 27.7788 1.89997e-16)
(-6.28015 27.7562 1.9066e-16)
(-6.40643 27.6965 0)
(-6.53597 27.6077 0)
(-6.67646 27.5439 0)
(-6.84122 27.508 0)
(-7.03309 27.4627 0)
(-7.2468 27.4218 1.95287e-16)
(-7.46629 27.3987 1.99611e-16)
(-7.67078 27.4041 -1.99307e-16)
(-7.84135 27.4466 0)
(-7.96376 27.5328 2.05111e-16)
(-8.02833 27.6666 0)
(-8.03154 27.8409 -2.24609e-18)
(-7.96983 28.0385 2.07149e-16)
(-7.82398 28.243 -2.14486e-16)
(-6.49634 -3.22107 -1.74813e-16)
(-6.24716 -2.64413 1.84921e-16)
(-6.01722 -2.13114 -1.8619e-16)
(-5.78372 -1.68184 1.5347e-18)
(-5.55019 -1.29168 1.90028e-16)
(-5.31996 -0.957655 0)
(-5.09963 -0.666292 0)
(-4.89425 -0.398213 0)
(-4.70825 -0.138567 0)
(-4.5436 0.12994 3.88517e-16)
(-4.403 0.42629 0)
(-4.27904 0.761285 0)
(-4.16277 1.1375 0)
(-4.04463 1.55177 -1.99015e-16)
(-3.92326 2.00735 0)
(-3.79839 2.50488 4.08346e-16)
(-3.66822 3.04124 0)
(-3.53035 3.61057 0)
(-3.38179 4.20538 0)
(-3.219 4.81804 -2.10268e-16)
(-3.04376 5.44403 -2.1161e-16)
(-2.88093 6.06422 2.19267e-16)
(-5.15389 15.2511 1.95567e-16)
(-5.19821 15.4248 0)
(-5.19979 15.5789 0)
(-5.18658 15.7108 -4.18522e-16)
(-5.15915 15.8296 -1.09433e-18)
(-5.11657 15.9521 -2.10237e-16)
(-5.05974 16.0827 -4.21729e-16)
(-4.99402 16.2057 0)
(-4.92145 16.3086 -4.23703e-16)
(-4.83913 16.3973 -2.17427e-18)
(-4.74713 16.4772 -4.24388e-16)
(-4.64812 16.5537 4.24903e-16)
(-4.55411 16.6318 0)
(-4.47197 16.7146 0)
(-4.39782 16.8046 0)
(-4.3272 16.9026 2.21062e-16)
(-4.25665 17.0094 0)
(-4.18351 17.1254 0)
(-4.10604 17.2506 0)
(-4.02385 17.3845 0)
(-3.93491 17.526 0)
(-3.8235 17.6717 0)
(-3.91676 1.51569 0)
(-3.82575 1.87545 0)
(-3.74492 2.22738 2.18195e-16)
(-3.66151 2.5666 -7.94062e-19)
(-3.5808 2.89554 2.20742e-16)
(-3.50363 3.21721 6.612e-16)
(-3.42857 3.53509 4.40971e-16)
(-3.35472 3.85245 0)
(-3.28309 4.17133 4.42857e-16)
(-3.21487 4.49405 -4.43508e-16)
(-3.15119 4.82321 4.43338e-16)
(-3.09022 5.15805 1.55042e-18)
(-3.02504 5.4854 0)
(-2.95076 5.79253 0)
(-2.86632 6.08306 0)
(-2.7715 6.36506 1.5583e-18)
(-2.66637 6.64351 0)
(-2.55092 6.92102 0)
(-2.42549 7.19914 0)
(-2.28962 7.47821 0)
(-2.14597 7.75372 0)
(-2.01234 8.0074 0)
(-3.87515 9.68038 0)
(-3.85652 9.82244 2.34919e-16)
(-3.8193 9.96317 -4.72058e-16)
(-3.77381 10.0979 2.37035e-16)
(-3.71937 10.2275 -4.75323e-16)
(-3.65595 10.3518 -1.09302e-18)
(-3.58339 10.4708 -4.76143e-16)
(-3.50122 10.585 0)
(-3.4086 10.6952 0)
(-3.30435 10.8024 0)
(-3.18704 10.9077 0)
(-3.05834 11.0127 -4.78149e-16)
(-2.92653 11.1174 0)
(-2.79967 11.2178 0)
(-2.68013 11.3089 0)
(-2.56674 11.3922 -4.98964e-16)
(-2.45711 11.474 0)
(-2.35043 11.5575 -5.05129e-16)
(-2.24577 11.645 -5.08054e-16)
(-2.14171 11.7416 2.55271e-16)
(-2.03463 11.8514 0)
(-1.9208 11.9712 2.64945e-16)
(-2.82917 3.29442 0)
(-2.78659 3.57174 -4.99161e-16)
(-2.7445 3.84983 2.50126e-16)
(-2.69708 4.12247 0)
(-2.64786 4.39084 0)
(-2.59738 4.65593 -5.03502e-16)
(-2.5461 4.91615 5.04155e-16)
(-2.49438 5.16914 -5.05388e-16)
(-2.44157 5.41491 5.05608e-16)
(-2.38705 5.65389 0)
(-2.33106 5.88447 0)
(-2.27278 6.10579 0)
(-2.20761 6.3193 0)
(-2.1331 6.52488 0)
(-2.05071 6.72032 -5.22126e-16)
(-1.96147 6.90381 0)
(-1.86601 7.07509 0)
(-1.76475 7.23456 5.33333e-16)
(-1.65761 7.3822 5.36441e-16)
(-1.54414 7.51813 -2.69549e-16)
(-1.42517 7.64251 -2.7097e-16)
(-1.3102 7.75471 -2.79808e-16)
(-2.76387 6.73006 0)
(-2.74354 6.82637 2.69344e-16)
(-2.7072 6.93395 0)
(-2.66183 7.04845 5.40031e-16)
(-2.60758 7.16686 0)
(-2.54398 7.288 0)
(-2.47065 7.41055 0)
(-2.38817 7.53066 5.41746e-16)
(-2.29844 7.64402 -5.41519e-16)
(-2.20125 7.7522 5.40633e-16)
(-2.09529 7.85994 0)
(-1.98362 7.96752 5.3895e-16)
(-1.87279 8.0696 0)
(-1.76592 8.16308 -5.52345e-16)
(-1.66238 8.24863 5.57771e-16)
(-1.5613 8.32706 0)
(-1.46215 8.39913 5.66074e-16)
(-1.36455 8.46567 0)
(-1.26819 8.52754 0)
(-1.17271 8.58573 -5.75619e-16)
(-1.07728 8.64158 2.8908e-16)