# Region type : patch outlet
# Faces  :    121
# Area   :    4.800000e-04
# Time        	average(T)
0             	3.065644e+02
1.19904e-05   	3.065677e+02
2.62999e-05   	3.065703e+02
4.29227e-05   	3.065746e+02
6.18525e-05   	3.065816e+02
8.30879e-05   	3.065912e+02
0.00010615    	3.066029e+02
0.000129106   	3.066154e+02
0.000151955   	3.066283e+02
0.000174752   	3.066417e+02
0.000197443   	3.066554e+02
0.000220082   	3.066695e+02
0.000242668   	3.066838e+02
0.000265202   	3.066985e+02
0.000287736   	3.067134e+02
0.000310271   	3.067286e+02
0.000332753   	3.067440e+02
0.000355235   	3.067595e+02
0.000377717   	3.067751e+02
0.000400199   	3.067909e+02
0.000422681   	3.068068e+02
0.000445163   	3.068228e+02
0.000467592   	3.068387e+02
0.000490021   	3.068548e+02
0.00051245    	3.068708e+02
0.000534879   	3.068870e+02
0.000557309   	3.069031e+02
0.000579738   	3.069194e+02
0.000602114   	3.069356e+02
0.00062449    	3.069519e+02
0.000646865   	3.069682e+02
0.000669241   	3.069846e+02
0.000691617   	3.070011e+02
0.00071394    	3.070176e+02
0.000736262   	3.070342e+02
0.000758584   	3.070508e+02
0.000780853   	3.070674e+02
0.000803067   	3.070840e+02
0.000825282   	3.071007e+02
0.000847443   	3.071173e+02
0.000869551   	3.071339e+02
0.000891605   	3.071505e+02
0.000913606   	3.071671e+02
0.000935554   	3.071837e+02
0.000957396   	3.072002e+02
0.000979185   	3.072166e+02
0.00100092    	3.072330e+02
0.00102261    	3.072494e+02
0.00104424    	3.072658e+02
0.00106582    	3.072821e+02
0.00108735    	3.072984e+02
0.00110882    	3.073146e+02
0.0011303     	3.073309e+02
0.00115172    	3.073470e+02
0.00117315    	3.073632e+02
0.00119457    	3.073794e+02
0.001216      	3.073956e+02
0.00123742    	3.074117e+02
0.00125885    	3.074279e+02
0.00128027    	3.074440e+02
0.0013017     	3.074600e+02
0.00132312    	3.074761e+02
0.00134454    	3.074921e+02
0.00136597    	3.075081e+02
0.00138739    	3.075241e+02
0.00140887    	3.075400e+02
0.00143035    	3.075559e+02
0.00145183    	3.075718e+02
0.0014733     	3.075876e+02
0.00149478    	3.076034e+02
0.00151626    	3.076191e+02
0.00153774    	3.076348e+02
0.00155922    	3.076504e+02
0.00158069    	3.076659e+02
0.00160217    	3.076814e+02
0.00162365    	3.076969e+02
0.00164513    	3.077123e+02
0.0016666     	3.077277e+02
0.00168808    	3.077431e+02
0.00170956    	3.077584e+02
0.00173109    	3.077737e+02
0.00175263    	3.077890e+02
0.00177416    	3.078043e+02
0.00179569    	3.078196e+02
0.00181723    	3.078349e+02
0.00183876    	3.078503e+02
0.00186035    	3.078657e+02
0.00188194    	3.078811e+02
0.00190353    	3.078966e+02
0.00192512    	3.079122e+02
0.00194677    	3.079279e+02
0.00196842    	3.079436e+02
0.00199007    	3.079595e+02
0.00201172    	3.079754e+02
0.00203343    	3.079915e+02
0.00205513    	3.080076e+02
0.00207684    	3.080238e+02
0.00209855    	3.080401e+02
0.00212025    	3.080564e+02
0.00214202    	3.080727e+02
0.00216379    	3.080891e+02
0.00218556    	3.081054e+02
0.00220732    	3.081216e+02
0.00222909    	3.081378e+02
0.00225086    	3.081538e+02
0.00227263    	3.081697e+02
0.00229439    	3.081853e+02
0.00231616    	3.082008e+02
0.00233793    	3.082160e+02
0.00235976    	3.082310e+02
0.00238159    	3.082457e+02
0.00240341    	3.082601e+02
0.00242524    	3.082742e+02
0.00244707    	3.082880e+02
0.0024689     	3.083014e+02
0.00249073    	3.083144e+02
0.00251256    	3.083272e+02
0.00253439    	3.083396e+02
0.00255622    	3.083516e+02
0.00257805    	3.083634e+02
0.00259988    	3.083748e+02
0.00262171    	3.083860e+02
0.00264354    	3.083968e+02
0.00266537    	3.084074e+02
0.0026872     	3.084177e+02
0.00270902    	3.084278e+02
0.00273085    	3.084376e+02
0.00275268    	3.084473e+02
0.00277451    	3.084567e+02
0.00279634    	3.084659e+02
0.00281817    	3.084750e+02
0.00284       	3.084839e+02
0.00286183    	3.084926e+02
0.00288366    	3.085011e+02
0.00290555    	3.085095e+02
0.00292745    	3.085178e+02
0.00294935    	3.085259e+02
0.00297124    	3.085338e+02
0.00299314    	3.085416e+02
0.00301504    	3.085492e+02
0.003037      	3.085568e+02
0.00305897    	3.085641e+02
0.00308093    	3.085713e+02
0.0031029     	3.085784e+02
0.00312486    	3.085853e+02
0.0031469     	3.085920e+02
0.00316893    	3.085986e+02
0.00319097    	3.086050e+02
0.00321301    	3.086113e+02
0.00323504    	3.086174e+02
0.00325715    	3.086234e+02
0.00327926    	3.086292e+02
0.00330137    	3.086348e+02
0.00332347    	3.086403e+02
0.00334558    	3.086456e+02
0.00336776    	3.086507e+02
0.00338994    	3.086557e+02
0.00341212    	3.086606e+02
0.00343431    	3.086653e+02
0.00345649    	3.086698e+02
0.00347867    	3.086742e+02
0.00350085    	3.086784e+02
0.00352303    	3.086824e+02
0.00354521    	3.086864e+02
0.00356739    	3.086901e+02
0.00358965    	3.086937e+02
0.00361191    	3.086972e+02
0.00363417    	3.087005e+02
0.00365643    	3.087037e+02
0.00367869    	3.087067e+02
0.00370094    	3.087096e+02
0.0037232     	3.087123e+02
0.00374546    	3.087149e+02
0.00376772    	3.087173e+02
0.00378998    	3.087196e+02
0.00381223    	3.087217e+02
0.00383449    	3.087236e+02
0.00385675    	3.087254e+02
0.00387901    	3.087270e+02
0.00390127    	3.087285e+02
0.00392352    	3.087297e+02
0.00394578    	3.087308e+02
0.00396804    	3.087317e+02
0.0039903     	3.087324e+02
0.00401256    	3.087330e+02
0.00403473    	3.087333e+02
0.00405691    	3.087334e+02
0.00407908    	3.087334e+02
0.00410126    	3.087331e+02
0.00412344    	3.087327e+02
0.00414561    	3.087320e+02
0.00416779    	3.087311e+02
0.00418996    	3.087300e+02
0.00421214    	3.087288e+02
0.00423431    	3.087273e+02
0.00425649    	3.087256e+02
0.00427867    	3.087237e+02
0.00430084    	3.087216e+02
0.00432302    	3.087193e+02
0.00434519    	3.087169e+02
0.00436737    	3.087142e+02
0.00438954    	3.087114e+02
0.00441172    	3.087084e+02
0.0044339     	3.087052e+02
0.00445607    	3.087018e+02
0.00447825    	3.086983e+02
0.00450042    	3.086946e+02
0.0045226     	3.086908e+02
0.00454477    	3.086869e+02
0.00456695    	3.086828e+02
0.00458913    	3.086785e+02
0.0046113     	3.086742e+02
0.00463348    	3.086697e+02
0.00465565    	3.086651e+02
0.00467783    	3.086604e+02
0.0047        	3.086556e+02
0.00472218    	3.086507e+02
0.00474436    	3.086457e+02
0.00476653    	3.086406e+02
0.00478871    	3.086355e+02
0.00481088    	3.086302e+02
0.00483306    	3.086249e+02
0.00485523    	3.086194e+02
0.00487741    	3.086139e+02
0.00489959    	3.086084e+02
0.00492176    	3.086027e+02
0.00494394    	3.085970e+02
0.00496611    	3.085912e+02
0.00498829    	3.085854e+02
0.00501046    	3.085794e+02
0.00503264    	3.085734e+02
0.00505482    	3.085673e+02
0.00507699    	3.085612e+02
0.00509917    	3.085550e+02
0.00512134    	3.085487e+02
0.00514352    	3.085423e+02
0.00516569    	3.085358e+02
0.00518787    	3.085293e+02
0.00521005    	3.085227e+02
0.00523222    	3.085160e+02
0.0052544     	3.085092e+02
0.00527657    	3.085024e+02
0.00529875    	3.084955e+02
0.00532092    	3.084884e+02
0.0053431     	3.084813e+02
0.00536528    	3.084742e+02
0.00538745    	3.084669e+02
0.00540963    	3.084595e+02
0.0054317     	3.084521e+02
0.00545377    	3.084447e+02
0.00547583    	3.084371e+02
0.0054979     	3.084294e+02
0.00551997    	3.084217e+02
0.00554204    	3.084139e+02
0.00556411    	3.084060e+02
0.00558618    	3.083980e+02
0.00560825    	3.083899e+02
0.00563032    	3.083818e+02
0.00565239    	3.083735e+02
0.00567446    	3.083652e+02
0.00569653    	3.083568e+02
0.00571859    	3.083483e+02
0.00574066    	3.083398e+02
0.00576273    	3.083312e+02
0.0057848     	3.083224e+02
0.00580687    	3.083137e+02
0.00582894    	3.083048e+02
0.00585101    	3.082959e+02
0.00587308    	3.082869e+02
0.00589515    	3.082778e+02
0.00591722    	3.082687e+02
0.00593929    	3.082595e+02
0.00596135    	3.082502e+02
0.00598342    	3.082408e+02
0.00600549    	3.082314e+02
0.00602756    	3.082220e+02
0.00604963    	3.082125e+02
0.0060717     	3.082029e+02
0.00609377    	3.081932e+02
0.00611584    	3.081836e+02
0.00613791    	3.081738e+02
0.00615998    	3.081640e+02
0.00618205    	3.081542e+02
0.00620412    	3.081443e+02
0.00622618    	3.081343e+02
0.00624825    	3.081244e+02
0.00627032    	3.081143e+02
0.00629239    	3.081043e+02
0.00631446    	3.080942e+02
0.00633653    	3.080840e+02
0.0063586     	3.080738e+02
0.00638067    	3.080636e+02
0.00640274    	3.080534e+02
0.00642481    	3.080431e+02
0.00644688    	3.080328e+02
0.00646894    	3.080224e+02
0.00649101    	3.080121e+02
0.00651308    	3.080017e+02
0.00653515    	3.079913e+02
0.00655722    	3.079809e+02
0.00657929    	3.079704e+02
0.00660136    	3.079599e+02
0.00662343    	3.079495e+02
0.0066455     	3.079390e+02
0.00666757    	3.079284e+02
0.00668964    	3.079179e+02
0.0067117     	3.079074e+02
0.00673377    	3.078968e+02
0.00675584    	3.078863e+02
0.00677791    	3.078757e+02
0.00679998    	3.078651e+02
0.00682205    	3.078545e+02
0.00684412    	3.078439e+02
0.00686619    	3.078334e+02
0.00688826    	3.078228e+02
0.00691033    	3.078122e+02
0.0069324     	3.078016e+02
0.00695446    	3.077910e+02
0.00697653    	3.077804e+02
0.0069986     	3.077698e+02
0.00702067    	3.077592e+02
0.00704274    	3.077486e+02
0.00706481    	3.077380e+02
0.00708688    	3.077275e+02
0.00710895    	3.077169e+02
0.00713102    	3.077063e+02
0.00715309    	3.076958e+02
0.00717516    	3.076852e+02
0.00719722    	3.076747e+02
0.00721929    	3.076642e+02
0.00724136    	3.076537e+02
0.00726343    	3.076432e+02
0.0072855     	3.076327e+02
0.00730757    	3.076222e+02
0.00732964    	3.076118e+02
0.00735171    	3.076013e+02
0.00737378    	3.075909e+02
0.00739585    	3.075805e+02
0.00741792    	3.075701e+02
0.00743998    	3.075598e+02
0.00746205    	3.075494e+02
0.00748412    	3.075391e+02
0.00750619    	3.075288e+02
0.00752826    	3.075186e+02
0.00755033    	3.075084e+02
0.0075724     	3.074982e+02
0.00759447    	3.074880e+02
0.00761654    	3.074779e+02
0.00763861    	3.074678e+02
0.00766068    	3.074577e+02
0.00768274    	3.074476e+02
0.00770481    	3.074377e+02
0.00772688    	3.074277e+02
0.00774895    	3.074178e+02
0.00777102    	3.074079e+02
0.00779309    	3.073981e+02
0.00781516    	3.073883e+02
0.00783723    	3.073785e+02
0.0078593     	3.073688e+02
0.00788137    	3.073592e+02
0.00790344    	3.073496e+02
0.0079255     	3.073400e+02
0.00794757    	3.073305e+02
0.00796964    	3.073210e+02
0.00799171    	3.073116e+02
0.00801378    	3.073023e+02
0.00803585    	3.072930e+02
0.00805792    	3.072838e+02
0.00807999    	3.072746e+02
0.00810206    	3.072655e+02
0.00812413    	3.072564e+02
0.0081462     	3.072474e+02
0.00816826    	3.072385e+02
0.00819033    	3.072296e+02
0.0082124     	3.072208e+02
0.00823447    	3.072121e+02
0.00825654    	3.072034e+02
0.00827861    	3.071948e+02
0.00830068    	3.071863e+02
0.00832275    	3.071778e+02
0.00834482    	3.071694e+02
0.00836689    	3.071611e+02
0.00838896    	3.071528e+02
0.00841102    	3.071447e+02
0.00843309    	3.071366e+02
0.00845516    	3.071285e+02
0.00847723    	3.071206e+02
0.0084993     	3.071127e+02
0.00852137    	3.071049e+02
0.00854344    	3.070971e+02
0.00856551    	3.070895e+02
0.00858758    	3.070819e+02
0.00860965    	3.070744e+02
0.00863172    	3.070670e+02
0.00865378    	3.070597e+02
0.00867585    	3.070524e+02
0.00869792    	3.070452e+02
0.00871999    	3.070381e+02
0.00874206    	3.070311e+02
0.00876413    	3.070241e+02
0.0087862     	3.070173e+02
0.00880827    	3.070105e+02
0.00883034    	3.070038e+02
0.00885241    	3.069972e+02
0.00887448    	3.069907e+02
0.00889655    	3.069843e+02
0.00891861    	3.069779e+02
0.00894068    	3.069717e+02
0.00896275    	3.069655e+02
0.00898482    	3.069594e+02
0.00900689    	3.069534e+02
0.00902896    	3.069475e+02
0.00905103    	3.069417e+02
0.0090731     	3.069359e+02
0.00909517    	3.069303e+02
0.00911724    	3.069248e+02
0.00913931    	3.069193e+02
0.00916137    	3.069139e+02
0.00918344    	3.069086e+02
0.00920551    	3.069034e+02
0.00922758    	3.068983e+02
0.00924965    	3.068933e+02
0.00927172    	3.068884e+02
0.00929379    	3.068836e+02
0.00931586    	3.068789e+02
0.00933793    	3.068742e+02
0.00936       	3.068697e+02
0.00938207    	3.068653e+02
0.00940413    	3.068609e+02
0.0094262     	3.068567e+02
0.00944827    	3.068525e+02
0.00947034    	3.068485e+02
0.00949241    	3.068445e+02
0.00951448    	3.068406e+02
0.00953655    	3.068369e+02
0.00955862    	3.068332e+02
0.00958069    	3.068296e+02
0.00960276    	3.068262e+02
0.00962483    	3.068228e+02
0.00964689    	3.068195e+02
0.00966896    	3.068164e+02
0.00969103    	3.068133e+02
0.0097131     	3.068104e+02
0.00973517    	3.068075e+02
0.00975724    	3.068048e+02
0.00977931    	3.068021e+02
0.00980138    	3.067996e+02
0.00982345    	3.067971e+02
0.00984552    	3.067948e+02
0.00986759    	3.067926e+02
0.00988965    	3.067905e+02
0.00991172    	3.067884e+02
0.00993379    	3.067865e+02
0.00995586    	3.067847e+02
0.00997793    	3.067830e+02
0.01          	3.067814e+02
0.0100224     	3.067798e+02
0.0100447     	3.067784e+02
0.0100671     	3.067771e+02
0.0100895     	3.067759e+02
0.0101119     	3.067748e+02
0.0101342     	3.067737e+02
0.0101566     	3.067728e+02
0.010179      	3.067720e+02
0.0102013     	3.067713e+02
0.0102237     	3.067708e+02
0.0102461     	3.067703e+02
0.0102685     	3.067699e+02
0.0102908     	3.067696e+02
0.0103132     	3.067694e+02
0.0103356     	3.067693e+02
0.010358      	3.067694e+02
0.0103804     	3.067695e+02
0.0104028     	3.067697e+02
0.0104253     	3.067701e+02
0.0104477     	3.067705e+02
0.0104701     	3.067710e+02
0.0104925     	3.067717e+02
0.010515      	3.067724e+02
0.0105374     	3.067733e+02
0.0105598     	3.067742e+02
0.0105822     	3.067753e+02
0.0106046     	3.067764e+02
0.0106271     	3.067777e+02
0.0106495     	3.067791e+02
0.0106719     	3.067805e+02
0.0106943     	3.067821e+02
0.0107168     	3.067838e+02
0.0107392     	3.067855e+02
0.0107616     	3.067874e+02
0.010784      	3.067894e+02
0.0108065     	3.067914e+02
0.0108289     	3.067936e+02
0.0108513     	3.067959e+02
0.0108737     	3.067982e+02
0.0108962     	3.068007e+02
0.0109186     	3.068032e+02
0.010941      	3.068059e+02
0.0109634     	3.068086e+02
0.0109858     	3.068115e+02
0.0110083     	3.068144e+02
0.0110307     	3.068175e+02
0.0110532     	3.068206e+02
0.0110757     	3.068238e+02
0.0110981     	3.068272e+02
0.0111206     	3.068306e+02
0.0111431     	3.068341e+02
0.0111656     	3.068377e+02
0.011188      	3.068414e+02
0.0112105     	3.068452e+02
0.011233      	3.068491e+02
0.0112555     	3.068531e+02
0.011278      	3.068571e+02
0.0113004     	3.068613e+02
0.0113229     	3.068655e+02
0.0113454     	3.068698e+02
0.0113679     	3.068742e+02
0.0113904     	3.068787e+02
0.0114128     	3.068833e+02
0.0114353     	3.068880e+02
0.0114578     	3.068927e+02
0.0114803     	3.068976e+02
0.0115028     	3.069025e+02
0.0115252     	3.069075e+02
0.0115477     	3.069126e+02
0.0115702     	3.069177e+02
0.0115927     	3.069230e+02
0.0116152     	3.069283e+02
0.0116376     	3.069337e+02
0.0116601     	3.069392e+02
0.0116826     	3.069447e+02
0.0117051     	3.069504e+02
0.0117276     	3.069561e+02
0.0117502     	3.069620e+02
0.0117727     	3.069678e+02
0.0117952     	3.069738e+02
0.0118178     	3.069799e+02
0.0118403     	3.069860e+02
0.0118629     	3.069922e+02
0.0118854     	3.069985e+02
0.0119079     	3.070048e+02
0.0119305     	3.070112e+02
0.011953      	3.070177e+02
0.0119756     	3.070243e+02
0.0119981     	3.070309e+02
0.0120206     	3.070376e+02
0.0120432     	3.070444e+02
0.0120657     	3.070512e+02
0.0120883     	3.070581e+02
0.0121108     	3.070651e+02
0.0121333     	3.070721e+02
0.0121559     	3.070792e+02
0.0121784     	3.070863e+02
0.012201      	3.070935e+02
0.0122235     	3.071008e+02
0.012246      	3.071081e+02
0.0122686     	3.071155e+02
0.0122911     	3.071229e+02
0.0123137     	3.071304e+02
0.0123362     	3.071379e+02
0.0123588     	3.071455e+02
0.0123813     	3.071532e+02
0.0124038     	3.071609e+02
0.0124264     	3.071686e+02
0.0124489     	3.071764e+02
0.0124715     	3.071843e+02
0.012494      	3.071922e+02
0.0125165     	3.072001e+02
0.0125391     	3.072081e+02
0.0125618     	3.072162e+02
0.0125844     	3.072243e+02
0.012607      	3.072324e+02
0.0126296     	3.072406e+02
0.0126522     	3.072488e+02
0.0126748     	3.072571e+02
0.0126974     	3.072654e+02
0.01272       	3.072737e+02
0.0127426     	3.072821e+02
0.0127652     	3.072905e+02
0.0127878     	3.072990e+02
0.0128104     	3.073074e+02
0.0128331     	3.073160e+02
0.0128557     	3.073245e+02
0.0128783     	3.073331e+02
0.0129009     	3.073417e+02
0.0129235     	3.073504e+02
0.0129461     	3.073591e+02
0.0129687     	3.073678e+02
0.0129913     	3.073765e+02
0.0130139     	3.073853e+02
0.0130365     	3.073941e+02
0.0130591     	3.074029e+02
0.0130818     	3.074118e+02
0.0131044     	3.074207e+02
0.013127      	3.074296e+02
0.0131496     	3.074385e+02
0.0131722     	3.074474e+02
0.0131948     	3.074564e+02
0.0132174     	3.074654e+02
0.01324       	3.074743e+02
0.0132626     	3.074834e+02
0.0132852     	3.074924e+02
0.0133078     	3.075014e+02
0.0133305     	3.075105e+02
0.0133532     	3.075196e+02
0.0133759     	3.075287e+02
0.0133986     	3.075379e+02
0.0134213     	3.075470e+02
0.013444      	3.075561e+02
0.0134666     	3.075653e+02
0.0134893     	3.075744e+02
0.013512      	3.075836e+02
0.0135347     	3.075927e+02
0.0135574     	3.076019e+02
0.0135801     	3.076110e+02
0.0136027     	3.076202e+02
0.0136254     	3.076293e+02
0.0136481     	3.076385e+02
0.0136708     	3.076476e+02
0.0136935     	3.076567e+02
0.0137162     	3.076659e+02
0.0137389     	3.076750e+02
0.0137615     	3.076841e+02
0.0137842     	3.076932e+02
0.0138069     	3.077023e+02
0.0138296     	3.077114e+02
0.0138523     	3.077204e+02
0.013875      	3.077295e+02
0.0138977     	3.077385e+02
0.0139203     	3.077475e+02
0.013943      	3.077565e+02
0.0139657     	3.077655e+02
0.0139884     	3.077745e+02
0.0140111     	3.077834e+02
0.0140338     	3.077924e+02
0.0140565     	3.078013e+02
0.0140791     	3.078102e+02
0.0141018     	3.078190e+02
0.0141245     	3.078279e+02
0.0141472     	3.078367e+02
0.0141699     	3.078455e+02
0.0141926     	3.078542e+02
0.0142153     	3.078629e+02
0.0142379     	3.078716e+02
0.0142606     	3.078803e+02
0.0142833     	3.078889e+02
0.014306      	3.078975e+02
0.0143287     	3.079061e+02
0.0143514     	3.079146e+02
0.014374      	3.079231e+02
0.0143967     	3.079316e+02
0.0144194     	3.079400e+02
0.0144421     	3.079484e+02
0.0144648     	3.079567e+02
0.0144875     	3.079650e+02
0.0145102     	3.079733e+02
0.0145328     	3.079815e+02
0.0145555     	3.079897e+02
0.0145782     	3.079979e+02
0.0146009     	3.080059e+02
0.0146236     	3.080140e+02
0.0146463     	3.080220e+02
0.014669      	3.080299e+02
0.0146916     	3.080379e+02
0.0147143     	3.080457e+02
0.014737      	3.080535e+02
0.0147597     	3.080613e+02
0.0147824     	3.080690e+02
0.0148051     	3.080766e+02
0.0148278     	3.080842e+02
0.0148504     	3.080918e+02
0.0148731     	3.080993e+02
0.0148958     	3.081067e+02
0.0149185     	3.081141e+02
0.0149412     	3.081214e+02
0.0149639     	3.081286e+02
0.0149866     	3.081358e+02
0.0150092     	3.081429e+02
0.0150319     	3.081500e+02
0.0150546     	3.081570e+02
0.0150773     	3.081639e+02
0.0151        	3.081708e+02
0.0151227     	3.081776e+02
0.0151453     	3.081844e+02
0.015168      	3.081910e+02
0.0151907     	3.081976e+02
0.0152134     	3.082041e+02
0.0152361     	3.082106e+02
0.0152588     	3.082170e+02
0.0152815     	3.082233e+02
0.0153041     	3.082296e+02
0.0153268     	3.082357e+02
0.0153495     	3.082418e+02
0.0153722     	3.082478e+02
0.0153949     	3.082538e+02
0.0154176     	3.082596e+02
0.0154403     	3.082654e+02
0.0154629     	3.082711e+02
0.0154856     	3.082768e+02
0.0155083     	3.082823e+02
0.015531      	3.082878e+02
0.0155537     	3.082932e+02
0.0155764     	3.082985e+02
0.0155991     	3.083038e+02
0.0156217     	3.083089e+02
0.0156444     	3.083140e+02
0.0156671     	3.083190e+02
0.0156898     	3.083239e+02
0.0157125     	3.083287e+02
0.0157352     	3.083334e+02
0.0157579     	3.083380e+02
0.0157805     	3.083426e+02
0.0158032     	3.083471e+02
0.0158259     	3.083514e+02
0.0158486     	3.083557e+02
0.0158713     	3.083599e+02
0.015894      	3.083640e+02
0.0159166     	3.083681e+02
0.0159393     	3.083720e+02
0.015962      	3.083758e+02
0.0159847     	3.083796e+02
0.0160074     	3.083832e+02
0.0160301     	3.083868e+02
0.0160528     	3.083902e+02
0.0160754     	3.083936e+02
0.0160981     	3.083969e+02
0.0161208     	3.084001e+02
0.0161435     	3.084032e+02
0.0161662     	3.084062e+02
0.0161889     	3.084091e+02
0.0162116     	3.084119e+02
0.0162342     	3.084146e+02
0.0162569     	3.084172e+02
0.0162796     	3.084198e+02
0.0163023     	3.084222e+02
0.016325      	3.084245e+02
0.0163477     	3.084268e+02
0.0163704     	3.084289e+02
0.016393      	3.084309e+02
0.0164157     	3.084329e+02
0.0164384     	3.084347e+02
0.0164611     	3.084364e+02
0.0164838     	3.084381e+02
0.0165065     	3.084396e+02
0.0165292     	3.084411e+02
0.0165518     	3.084424e+02
0.0165745     	3.084436e+02
0.0165972     	3.084447e+02
0.0166199     	3.084458e+02
0.0166426     	3.084467e+02
0.0166653     	3.084475e+02
0.0166879     	3.084482e+02
0.0167106     	3.084488e+02
0.0167333     	3.084493e+02
0.016756      	3.084497e+02
0.0167787     	3.084500e+02
0.0168014     	3.084502e+02
0.0168241     	3.084503e+02
0.0168467     	3.084503e+02
0.0168694     	3.084501e+02
0.0168921     	3.084499e+02
0.0169148     	3.084496e+02
0.0169375     	3.084492e+02
0.0169602     	3.084486e+02
0.0169829     	3.084480e+02
0.0170055     	3.084472e+02
0.0170282     	3.084464e+02
0.0170509     	3.084455e+02
0.0170736     	3.084444e+02
0.0170963     	3.084433e+02
0.017119      	3.084420e+02
0.0171417     	3.084407e+02
0.0171643     	3.084392e+02
0.017187      	3.084377e+02
0.0172097     	3.084360e+02
0.0172324     	3.084343e+02
0.0172551     	3.084324e+02
0.0172778     	3.084305e+02
0.0173005     	3.084284e+02
0.0173231     	3.084263e+02
0.0173458     	3.084240e+02
0.0173685     	3.084217e+02
0.0173912     	3.084192e+02
0.0174139     	3.084167e+02
0.0174366     	3.084140e+02
0.0174592     	3.084113e+02
0.0174819     	3.084085e+02
0.0175046     	3.084055e+02
0.0175273     	3.084025e+02
0.01755       	3.083994e+02
0.0175727     	3.083961e+02
0.0175954     	3.083928e+02
0.017618      	3.083894e+02
0.0176407     	3.083859e+02
0.0176634     	3.083823e+02
0.0176861     	3.083786e+02
0.0177088     	3.083748e+02
0.0177315     	3.083709e+02
0.0177542     	3.083669e+02
0.0177768     	3.083628e+02
0.0177995     	3.083587e+02
0.0178222     	3.083544e+02
0.0178449     	3.083501e+02
0.0178676     	3.083456e+02
0.0178903     	3.083411e+02
0.017913      	3.083365e+02
0.0179356     	3.083318e+02
0.0179583     	3.083270e+02
0.017981      	3.083221e+02
0.0180037     	3.083172e+02
0.0180264     	3.083121e+02
0.0180491     	3.083070e+02
0.0180718     	3.083018e+02
0.0180944     	3.082965e+02
0.0181171     	3.082911e+02
0.0181398     	3.082857e+02
0.0181625     	3.082802e+02
0.0181852     	3.082745e+02
0.0182079     	3.082688e+02
0.0182305     	3.082631e+02
0.0182532     	3.082572e+02
0.0182759     	3.082513e+02
0.0182986     	3.082453e+02
0.0183213     	3.082392e+02
0.018344      	3.082330e+02
0.0183667     	3.082268e+02
0.0183893     	3.082204e+02
0.018412      	3.082141e+02
0.0184347     	3.082076e+02
0.0184574     	3.082011e+02
0.0184801     	3.081945e+02
0.0185028     	3.081878e+02
0.0185255     	3.081810e+02
0.0185481     	3.081742e+02
0.0185708     	3.081674e+02
0.0185935     	3.081604e+02
0.0186162     	3.081534e+02
0.0186389     	3.081463e+02
0.0186616     	3.081392e+02
0.0186843     	3.081320e+02
0.0187069     	3.081247e+02
0.0187296     	3.081174e+02
0.0187523     	3.081100e+02
0.018775      	3.081026e+02
0.0187977     	3.080951e+02
0.0188204     	3.080876e+02
0.0188431     	3.080799e+02
0.0188657     	3.080723e+02
0.0188884     	3.080646e+02
0.0189111     	3.080568e+02
0.0189338     	3.080490e+02
0.0189565     	3.080411e+02
0.0189792     	3.080332e+02
0.0190018     	3.080252e+02
0.0190245     	3.080171e+02
0.0190472     	3.080091e+02
0.0190699     	3.080010e+02
0.0190926     	3.079928e+02
0.0191153     	3.079846e+02
0.019138      	3.079763e+02
0.0191606     	3.079680e+02
0.0191833     	3.079597e+02
0.019206      	3.079513e+02
0.0192287     	3.079429e+02
0.0192514     	3.079345e+02
0.0192741     	3.079260e+02
0.0192968     	3.079174e+02
0.0193194     	3.079089e+02
0.0193421     	3.079003e+02
0.0193648     	3.078917e+02
0.0193875     	3.078830e+02
0.0194102     	3.078743e+02
0.0194329     	3.078656e+02
0.0194556     	3.078569e+02
0.0194782     	3.078481e+02
0.0195009     	3.078393e+02
0.0195236     	3.078305e+02
0.0195463     	3.078217e+02
0.019569      	3.078128e+02
0.0195917     	3.078039e+02
0.0196144     	3.077950e+02
0.019637      	3.077861e+02
0.0196597     	3.077771e+02
0.0196824     	3.077682e+02
0.0197051     	3.077592e+02
0.0197278     	3.077502e+02
0.0197505     	3.077412e+02
0.0197731     	3.077321e+02
0.0197958     	3.077231e+02
0.0198185     	3.077140e+02
0.0198412     	3.077050e+02
0.0198639     	3.076959e+02
0.0198866     	3.076868e+02
0.0199093     	3.076777e+02
0.0199319     	3.076686e+02
0.0199546     	3.076595e+02
0.0199773     	3.076504e+02
0.02          	3.076413e+02
0.0200229     	3.076321e+02
0.0200458     	3.076229e+02
0.0200686     	3.076137e+02
0.0200915     	3.076045e+02
0.0201144     	3.075953e+02
0.0201373     	3.075862e+02
0.0201602     	3.075770e+02
0.0201831     	3.075678e+02
0.0202061     	3.075586e+02
0.020229      	3.075494e+02
0.0202519     	3.075403e+02
0.0202749     	3.075311e+02
0.0202978     	3.075220e+02
0.0203207     	3.075129e+02
0.0203437     	3.075038e+02
0.0203666     	3.074947e+02
0.0203895     	3.074856e+02
0.0204125     	3.074765e+02
0.0204354     	3.074675e+02
0.0204584     	3.074585e+02
0.0204813     	3.074495e+02
0.0205042     	3.074406e+02
0.0205272     	3.074316e+02
0.0205501     	3.074227e+02
0.020573      	3.074138e+02
0.020596      	3.074050e+02
0.0206189     	3.073961e+02
0.0206419     	3.073873e+02
0.0206648     	3.073785e+02
0.0206877     	3.073698e+02
0.0207107     	3.073611e+02
0.0207336     	3.073524e+02
0.0207565     	3.073438e+02
0.0207795     	3.073352e+02
0.0208024     	3.073266e+02
0.0208254     	3.073180e+02
0.0208484     	3.073095e+02
0.0208714     	3.073010e+02
0.0208944     	3.072926e+02
0.0209174     	3.072842e+02
0.0209404     	3.072758e+02
0.0209634     	3.072675e+02
0.0209864     	3.072593e+02
0.0210094     	3.072511e+02
0.0210323     	3.072429e+02
0.0210553     	3.072348e+02
0.0210783     	3.072267e+02
0.0211013     	3.072187e+02
0.0211243     	3.072107e+02
0.0211473     	3.072028e+02
0.0211703     	3.071949e+02
0.0211933     	3.071871e+02
0.0212163     	3.071794e+02
0.0212393     	3.071717e+02
0.0212623     	3.071640e+02
0.0212853     	3.071565e+02
0.0213083     	3.071489e+02
0.0213313     	3.071414e+02
0.0213544     	3.071340e+02
0.0213774     	3.071267e+02
0.0214005     	3.071194e+02
0.0214236     	3.071121e+02
0.0214466     	3.071050e+02
0.0214697     	3.070978e+02
0.0214927     	3.070908e+02
0.0215158     	3.070838e+02
0.0215388     	3.070769e+02
0.0215619     	3.070701e+02
0.0215849     	3.070633e+02
0.021608      	3.070566e+02
0.021631      	3.070500e+02
0.0216541     	3.070434e+02
0.0216772     	3.070369e+02
0.0217002     	3.070305e+02
0.0217233     	3.070241e+02
0.0217463     	3.070179e+02
0.0217694     	3.070117e+02
0.0217924     	3.070055e+02
0.0218155     	3.069995e+02
0.0218385     	3.069935e+02
0.0218616     	3.069876e+02
0.0218847     	3.069817e+02
0.0219077     	3.069760e+02
0.0219308     	3.069703e+02
0.0219538     	3.069647e+02
0.0219769     	3.069592e+02
0.0219999     	3.069537e+02
0.022023      	3.069483e+02
0.022046      	3.069430e+02
0.0220691     	3.069378e+02
0.0220921     	3.069327e+02
0.0221152     	3.069276e+02
0.0221383     	3.069226e+02
0.0221613     	3.069177e+02
0.0221844     	3.069129e+02
0.0222074     	3.069082e+02
0.0222305     	3.069035e+02
0.0222535     	3.068989e+02
0.0222766     	3.068945e+02
0.0222996     	3.068900e+02
0.0223227     	3.068857e+02
0.0223458     	3.068815e+02
0.0223688     	3.068773e+02
0.0223919     	3.068733e+02
0.0224149     	3.068693e+02
0.022438      	3.068654e+02
0.022461      	3.068616e+02
0.0224841     	3.068580e+02
0.0225071     	3.068544e+02
0.0225302     	3.068508e+02
0.0225532     	3.068474e+02
0.0225763     	3.068441e+02
0.0225994     	3.068409e+02
0.0226224     	3.068377e+02
0.0226455     	3.068347e+02
0.0226685     	3.068318e+02
0.0226916     	3.068289e+02
0.0227146     	3.068261e+02
0.0227377     	3.068235e+02
0.0227607     	3.068209e+02
0.0227838     	3.068184e+02
0.0228068     	3.068161e+02
0.0228299     	3.068138e+02
0.022853      	3.068116e+02
0.022876      	3.068095e+02
0.0228991     	3.068075e+02
0.0229221     	3.068056e+02
0.0229452     	3.068038e+02
0.0229682     	3.068021e+02
0.0229913     	3.068005e+02
0.0230143     	3.067989e+02
0.0230374     	3.067975e+02
0.0230605     	3.067962e+02
0.0230835     	3.067949e+02
0.0231066     	3.067938e+02
0.0231296     	3.067928e+02
0.0231527     	3.067918e+02
0.0231757     	3.067910e+02
0.0231988     	3.067902e+02
0.0232218     	3.067896e+02
0.0232449     	3.067890e+02
0.0232679     	3.067885e+02
0.023291      	3.067882e+02
0.0233141     	3.067879e+02
0.0233371     	3.067877e+02
0.0233602     	3.067877e+02
0.0233832     	3.067877e+02
0.0234063     	3.067878e+02
0.0234293     	3.067880e+02
0.0234524     	3.067883e+02
0.0234754     	3.067887e+02
0.0234985     	3.067892e+02
0.0235216     	3.067898e+02
0.0235446     	3.067905e+02
0.0235677     	3.067912e+02
0.0235907     	3.067921e+02
0.0236138     	3.067931e+02
0.0236368     	3.067942e+02
0.0236599     	3.067953e+02
0.0236829     	3.067966e+02
0.023706      	3.067979e+02
0.023729      	3.067994e+02
0.0237519     	3.068009e+02
0.0237749     	3.068025e+02
0.0237979     	3.068042e+02
0.0238208     	3.068060e+02
0.0238438     	3.068079e+02
0.0238668     	3.068099e+02
0.0238898     	3.068120e+02