# Residuals     
# Time          	p               	Ux              	Uy              	Uz              	k               	epsilon         	h               
0               	N/A	N/A	N/A	N/A	N/A
1.19904e-05     	1.00000000e+00	1.00000000e+00	1.00000000e+00	1.00000000e+00	1.00000000e+00	1.23271289e-02	8.89921466e-01
2.63616e-05     	5.65690411e-01	2.89822031e-01	1.72799457e-02	2.89135498e-01	3.76414663e-02	8.21767524e-04	2.58786678e-01
4.35873e-05     	1.88204499e-01	1.74955137e-01	1.24349095e-02	2.06206913e-01	1.52215672e-02	9.53991282e-04	1.06376684e-01
6.42437e-05     	1.24912451e-01	1.42420727e-01	1.24307432e-02	1.48173087e-01	9.09923784e-03	1.28066101e-03	7.16741770e-02
8.90212e-05     	1.11351043e-01	1.24287328e-01	1.57326290e-02	1.03313831e-01	6.15088851e-03	1.68463805e-03	6.88976127e-02
0.000118695     	1.22835087e-01	9.99346323e-02	2.28773735e-02	7.38232947e-02	4.43552163e-03	1.89343417e-03	8.59119961e-02
0.000154239     	1.58896161e-01	8.24708070e-02	3.04144183e-02	6.69692111e-02	3.45546800e-03	1.92933124e-03	1.28317678e-01
0.000196861     	1.97233969e-01	7.42387769e-02	3.18011341e-02	5.63952176e-02	2.94411131e-03	1.92305972e-03	1.85873559e-01
0.000247919     	1.80451979e-01	6.52567205e-02	2.82456976e-02	4.92549718e-02	2.66528818e-03	1.91640623e-03	1.77115884e-01
0.00030887      	1.55823374e-01	6.30310313e-02	2.38736092e-02	4.87061348e-02	2.48881365e-03	1.88870178e-03	1.74955024e-01
0.000381736     	1.27656080e-01	5.25145573e-02	2.04259246e-02	3.70527131e-02	2.35321645e-03	1.83185913e-03	1.80371431e-01
0.000469174     	8.95489652e-02	3.71955113e-02	1.84169844e-02	2.88618692e-02	2.24839885e-03	1.76468668e-03	1.57153458e-01
0.000573909     	6.83895731e-02	3.18524111e-02	1.82162045e-02	2.64247381e-02	2.15349336e-03	1.66372340e-03	1.17610761e-01
0.00069959      	5.73140419e-02	2.66611370e-02	1.83531958e-02	2.23255036e-02	2.08106135e-03	1.54794624e-03	8.43652120e-02
0.000849596     	5.86831474e-02	2.32680203e-02	1.65232369e-02	1.93263842e-02	2.01322790e-03	1.42954173e-03	9.62720074e-02
0.00102557      	5.42044970e-02	2.12712172e-02	1.39154698e-02	1.81301721e-02	1.94575995e-03	1.31500093e-03	1.32810697e-01
0.001225        	4.52459702e-02	1.97959933e-02	1.24714027e-02	1.72548528e-02	1.84996365e-03	1.21915300e-03	1.63930585e-01
0.00145         	4.24537239e-02	1.86279184e-02	1.14196329e-02	1.64377092e-02	1.78676330e-03	1.15410247e-03	1.89688405e-01
0.00170147      	3.69955092e-02	1.77374111e-02	9.79419196e-03	1.57525009e-02	1.75617521e-03	1.13578441e-03	1.96413994e-01
0.00197809      	2.88423288e-02	1.71754865e-02	7.93722406e-03	1.52618039e-02	1.74721869e-03	1.15321009e-03	1.55378443e-01
0.0022547       	1.68764090e-02	1.60718713e-02	6.35578232e-03	1.42967593e-02	1.62772826e-03	1.12952740e-03	9.32848040e-02
0.00253132      	1.37401061e-02	1.48638974e-02	5.52283119e-03	1.32567728e-02	1.55349134e-03	1.15403193e-03	6.38576578e-02
0.00280794      	1.20711280e-02	1.38170518e-02	5.04227033e-03	1.23500423e-02	1.49843390e-03	1.20386136e-03	5.39735482e-02
0.00308456      	1.11420131e-02	1.30555416e-02	4.73058471e-03	1.16639348e-02	1.42821849e-03	1.19631875e-03	5.20767271e-02
0.00336117      	1.02163530e-02	1.24316704e-02	4.48669751e-03	1.10972580e-02	1.37883386e-03	1.19768807e-03	5.17457014e-02
0.00363779      	9.84414953e-03	1.17799030e-02	4.26696559e-03	1.05162884e-02	1.35071403e-03	1.20793790e-03	5.04962886e-02
0.00391441      	9.00315512e-03	1.10348041e-02	4.06080435e-03	9.87317480e-03	1.35343947e-03	1.19370932e-03	4.80604824e-02
0.00419103      	8.76974718e-03	1.03335795e-02	3.86969224e-03	9.26995651e-03	1.37070243e-03	1.26120912e-03	4.51240161e-02
0.00446765      	8.07129190e-03	9.76747578e-03	3.69091544e-03	8.77560621e-03	1.37386470e-03	1.22837049e-03	4.23006503e-02
0.00474426      	7.64398139e-03	9.28484784e-03	3.52804657e-03	8.34872726e-03	1.34919434e-03	1.20875997e-03	3.95680244e-02
0.00502088      	7.09274254e-03	8.91921772e-03	3.37971275e-03	8.01652622e-03	1.32259821e-03	1.19180184e-03	3.71319517e-02
0.0052975       	7.23028199e-03	8.56450921e-03	3.24588060e-03	7.69118092e-03	1.30169900e-03	1.20776694e-03	3.50126904e-02
0.00557412      	6.57553858e-03	8.14684547e-03	3.12224879e-03	7.32450347e-03	1.30952965e-03	1.13543326e-03	3.31971302e-02
0.00585073      	6.14408196e-03	7.80350666e-03	3.01360501e-03	7.01880472e-03	1.32567857e-03	1.14862065e-03	3.14894045e-02
0.00612735      	5.91826665e-03	7.50661016e-03	2.91298606e-03	6.74851683e-03	1.34274773e-03	1.18292664e-03	2.99354961e-02
0.00640397      	5.50469693e-03	7.24629627e-03	2.81886210e-03	6.51165036e-03	1.35786601e-03	1.21415687e-03	2.85617957e-02
0.00668059      	5.31672033e-03	7.02352104e-03	2.73192439e-03	6.30200184e-03	1.36850549e-03	1.23717216e-03	2.73142810e-02
0.00695721      	5.18829941e-03	6.77960103e-03	2.65188607e-03	6.07958467e-03	1.36571418e-03	1.23880399e-03	2.61210079e-02
0.00721077      	2.30424820e-02	6.15865821e-03	2.40199371e-03	5.54155309e-03	1.26948272e-03	1.13568668e-03	2.31717896e-02
0.00746434      	7.20325599e-03	6.14368078e-03	2.36825626e-03	5.50805888e-03	1.27142569e-03	1.13180147e-03	2.28995257e-02
0.0077179       	5.76526926e-03	5.83067558e-03	2.30367067e-03	5.23516216e-03	1.27344242e-03	1.13423194e-03	2.16931013e-02
0.00797147      	5.19159714e-03	5.60208803e-03	2.24320934e-03	5.03351227e-03	1.27479631e-03	1.13537412e-03	2.09539559e-02
0.00822504      	4.61267488e-03	5.42702463e-03	2.19074196e-03	4.87097573e-03	1.27580628e-03	1.13797557e-03	2.02334224e-02
0.0084786       	4.34532404e-03	5.28541365e-03	2.14217084e-03	4.73866392e-03	1.27834568e-03	1.13062583e-03	1.95100169e-02
0.00873217      	4.13923384e-03	5.14267363e-03	2.09701012e-03	4.60530188e-03	1.28180351e-03	1.13169605e-03	1.88869260e-02
0.00898574      	4.01822120e-03	5.00893724e-03	2.05345123e-03	4.47963603e-03	1.28565979e-03	1.13116707e-03	1.82941476e-02
0.0092393       	3.86813509e-03	4.87990930e-03	2.01202426e-03	4.35815397e-03	1.29455313e-03	1.13362032e-03	1.77378179e-02
0.00949287      	3.71807847e-03	4.75833564e-03	1.97343378e-03	4.24320249e-03	1.30830745e-03	1.14362248e-03	1.72098270e-02
0.00974643      	3.60761952e-03	4.64194582e-03	1.93809321e-03	4.13126951e-03	1.32499390e-03	1.16205375e-03	1.67143972e-02
0.01            	3.51469585e-03	4.52692402e-03	1.90377240e-03	4.01941520e-03	1.33767265e-03	1.17735020e-03	1.62635276e-02
0.0102703       	1.65827520e-02	4.61587322e-03	1.96886998e-03	4.07904237e-03	1.42127640e-03	1.24848152e-03	1.67591089e-02
0.0105405       	5.61554379e-03	4.69578465e-03	1.95567893e-03	4.12562270e-03	1.42818486e-03	1.24798536e-03	1.67755241e-02
0.0108108       	4.57805980e-03	4.48407324e-03	1.91036104e-03	3.93554921e-03	1.43144363e-03	1.24358743e-03	1.59346524e-02
0.0110811       	4.11743528e-03	4.35904696e-03	1.86748210e-03	3.81928282e-03	1.43323043e-03	1.23508396e-03	1.55049620e-02
0.0113514       	3.75123470e-03	4.24726177e-03	1.82923376e-03	3.71269053e-03	1.43647524e-03	1.22565973e-03	1.51064113e-02
0.0116216       	3.54680445e-03	4.14596860e-03	1.79538769e-03	3.61403864e-03	1.44142561e-03	1.21718071e-03	1.47238859e-02
0.0118919       	3.42864658e-03	4.05210987e-03	1.76468486e-03	3.52084314e-03	1.44714913e-03	1.21173258e-03	1.43627597e-02
0.0121622       	3.33001187e-03	3.96276741e-03	1.73616084e-03	3.43333465e-03	1.45609360e-03	1.21004463e-03	1.40117527e-02
0.0124324       	3.29718023e-03	3.87933060e-03	1.70833121e-03	3.35113885e-03	1.46527363e-03	1.21354802e-03	1.36931380e-02
0.0127027       	3.21715189e-03	3.80162201e-03	1.68141949e-03	3.27326284e-03	1.47579463e-03	1.21694554e-03	1.33996368e-02
0.012973        	3.09539696e-03	3.72735262e-03	1.65477629e-03	3.19956289e-03	1.48575821e-03	1.22113763e-03	1.31179261e-02
0.0132432       	2.97967382e-03	3.65595847e-03	1.62916350e-03	3.12962180e-03	1.49611351e-03	1.22642566e-03	1.28385174e-02
0.0135135       	2.89131757e-03	3.58625134e-03	1.60450467e-03	3.05949764e-03	1.50944945e-03	1.23184543e-03	1.25754223e-02
0.0137838       	2.85254898e-03	3.51951550e-03	1.58085681e-03	2.99286093e-03	1.52324437e-03	1.24238373e-03	1.23306991e-02
0.0140541       	2.80089951e-03	3.45535988e-03	1.55797727e-03	2.92812551e-03	1.53729373e-03	1.25255234e-03	1.20935116e-02
0.0143243       	2.77254972e-03	3.39573735e-03	1.53592680e-03	2.86758762e-03	1.55115730e-03	1.26188335e-03	1.18669703e-02
0.0145946       	2.73529055e-03	3.33909979e-03	1.51437790e-03	2.81065123e-03	1.56522548e-03	1.27252699e-03	1.16526705e-02
0.0148649       	2.69173092e-03	3.28532196e-03	1.49308078e-03	2.75642086e-03	1.57750572e-03	1.28282660e-03	1.14508628e-02
0.0151351       	2.65535878e-03	3.23281259e-03	1.47238807e-03	2.70557080e-03	1.58787588e-03	1.29051137e-03	1.12489491e-02
0.0154054       	2.61450230e-03	3.18386830e-03	1.45257754e-03	2.65866404e-03	1.59725414e-03	1.29832429e-03	1.10611020e-02
0.0156757       	2.54921950e-03	3.13427184e-03	1.43337272e-03	2.60788345e-03	1.60508391e-03	1.30658562e-03	1.08802051e-02
0.0159459       	2.48167941e-03	3.08610968e-03	1.41412892e-03	2.55941389e-03	1.61208389e-03	1.31555663e-03	1.07051986e-02
0.0162162       	2.63710830e-03	3.04671348e-03	1.39611390e-03	2.51883069e-03	1.61961868e-03	1.33025227e-03	1.05405984e-02
0.0164865       	2.44445692e-03	3.00945786e-03	1.37724205e-03	2.48118742e-03	1.62595920e-03	1.33771054e-03	1.03702903e-02
0.0167568       	2.43155857e-03	2.97209945e-03	1.35948415e-03	2.44369963e-03	1.63139580e-03	1.34471801e-03	1.02102275e-02
0.017027        	2.39072921e-03	2.93193007e-03	1.34180375e-03	2.40440656e-03	1.63840319e-03	1.35004922e-03	1.00594797e-02
0.0172973       	2.35566194e-03	2.89333702e-03	1.32446780e-03	2.36646903e-03	1.64601333e-03	1.35751573e-03	9.91757126e-03
0.0175676       	2.33136565e-03	2.85646484e-03	1.30744390e-03	2.33020762e-03	1.65288725e-03	1.36664157e-03	9.77641906e-03
0.0178378       	2.29931103e-03	2.82039671e-03	1.29084715e-03	2.29590725e-03	1.65894933e-03	1.37620558e-03	9.64517022e-03
0.0181081       	2.26601745e-03	2.78492971e-03	1.27458836e-03	2.26387744e-03	1.66401264e-03	1.38388232e-03	9.51243364e-03
0.0183784       	2.23274583e-03	2.75300166e-03	1.25866826e-03	2.23343327e-03	1.66841366e-03	1.39212883e-03	9.39026687e-03
0.0186486       	2.22505695e-03	2.72194038e-03	1.24312147e-03	2.20352135e-03	1.67165740e-03	1.40007274e-03	9.25627051e-03
0.0189189       	2.19851439e-03	2.69029483e-03	1.22772868e-03	2.17385454e-03	1.67326774e-03	1.40629421e-03	9.13029317e-03
0.0191892       	2.18073145e-03	2.65950717e-03	1.21278081e-03	2.14455346e-03	1.67406179e-03	1.41139400e-03	9.01563352e-03
0.0194595       	2.15445292e-03	2.63377513e-03	1.19828618e-03	2.12039043e-03	1.67397237e-03	1.41637293e-03	8.90446193e-03
0.0197297       	2.13606507e-03	2.60663523e-03	1.18415633e-03	2.09535422e-03	1.67373568e-03	1.42076763e-03	8.79543520e-03
0.02            	2.11980079e-03	2.57864187e-03	1.17040503e-03	2.06975697e-03	1.67291264e-03	1.42535870e-03	8.68333359e-03
0.0202703       	2.10087895e-03	2.55231405e-03	1.15730147e-03	2.04599091e-03	1.67124683e-03	1.42916466e-03	8.57359089e-03
0.0205405       	2.09010611e-03	2.52742360e-03	1.14435580e-03	2.02397434e-03	1.66843219e-03	1.43295053e-03	8.46812249e-03
0.0208108       	2.08078976e-03	2.50338315e-03	1.13152514e-03	2.00298221e-03	1.66430145e-03	1.43532542e-03	8.36721552e-03
0.0210811       	2.05523339e-03	2.47770769e-03	1.11894020e-03	1.98078379e-03	1.65929832e-03	1.43793181e-03	8.26932642e-03
0.0213514       	2.04595994e-03	2.45580398e-03	1.10698543e-03	1.96195443e-03	1.65383532e-03	1.44074480e-03	8.17209496e-03
0.0216216       	2.02166628e-03	2.43293930e-03	1.09498166e-03	1.94240141e-03	1.64783945e-03	1.44065325e-03	8.06700966e-03
0.0218919       	2.00536270e-03	2.40901077e-03	1.08300244e-03	1.92285556e-03	1.64112380e-03	1.43922507e-03	7.96583386e-03
0.0221622       	2.00139658e-03	2.38722831e-03	1.07152231e-03	1.90508440e-03	1.63349586e-03	1.43780239e-03	7.87194630e-03
0.0224324       	1.99421720e-03	2.36725793e-03	1.06032468e-03	1.88933683e-03	1.62569887e-03	1.43499276e-03	7.77837791e-03
0.0227027       	1.99696378e-03	2.34747566e-03	1.04940338e-03	1.87382510e-03	1.61665833e-03	1.43097442e-03	7.68326036e-03
0.022973        	2.01712250e-03	2.32837535e-03	1.03893120e-03	1.85962169e-03	1.60582238e-03	1.43302144e-03	7.58272567e-03
0.0232432       	1.99161414e-03	2.30727232e-03	1.02791551e-03	1.84278406e-03	1.59516556e-03	1.42287323e-03	7.47924042e-03
0.0235135       	1.98130282e-03	2.28874003e-03	1.01701621e-03	1.82913367e-03	1.58367320e-03	1.41514098e-03	7.39132838e-03
0.0237838       	1.96828375e-03	2.26928805e-03	1.00632661e-03	1.81520503e-03	1.57166042e-03	1.40531593e-03	7.29794124e-03
0.0240541       	1.96286308e-03	2.25032909e-03	9.95902057e-04	1.80101913e-03	1.55908143e-03	1.39421628e-03	7.20574918e-03
0.0243243       	1.95441313e-03	2.23074250e-03	9.85577978e-04	1.78704711e-03	1.54581156e-03	1.38218546e-03	7.10866826e-03
0.0245946       	1.94807874e-03	2.21120445e-03	9.75337603e-04	1.77381109e-03	1.53162481e-03	1.36972069e-03	7.01770628e-03
0.0248649       	1.93846824e-03	2.19200086e-03	9.65332308e-04	1.76005276e-03	1.51683857e-03	1.35674060e-03	6.91823694e-03
0.0251351       	1.93340635e-03	2.17359321e-03	9.55387842e-04	1.74711383e-03	1.50171132e-03	1.34091043e-03	6.82780704e-03
0.0254054       	1.92383521e-03	2.15616371e-03	9.45617528e-04	1.73539214e-03	1.48625515e-03	1.32724576e-03	6.73674447e-03
0.0256757       	1.92190868e-03	2.13866949e-03	9.36067365e-04	1.72316955e-03	1.47024107e-03	1.30935930e-03	6.64183210e-03
0.0259459       	1.91814682e-03	2.11962818e-03	9.26957158e-04	1.71069475e-03	1.45351038e-03	1.29384951e-03	6.54659581e-03
0.0262162       	1.91763266e-03	2.10155127e-03	9.17753574e-04	1.69726878e-03	1.43617345e-03	1.27563952e-03	6.44966471e-03
0.0264865       	1.91391174e-03	2.08421337e-03	9.08751172e-04	1.68517570e-03	1.41868376e-03	1.25711322e-03	6.35754517e-03
0.0267568       	1.90342215e-03	2.06636240e-03	8.99853235e-04	1.67328493e-03	1.40085379e-03	1.23754401e-03	6.26962978e-03
0.027027        	1.89721212e-03	2.04762512e-03	8.91072866e-04	1.66066508e-03	1.38265521e-03	1.21926031e-03	6.17725406e-03
0.0272973       	1.89265984e-03	2.02811282e-03	8.82378010e-04	1.64770009e-03	1.36395723e-03	1.19776208e-03	6.08556096e-03
0.0275676       	1.88188088e-03	2.00977943e-03	8.73946728e-04	1.63460812e-03	1.34509992e-03	1.17835406e-03	5.99007010e-03
0.0278378       	1.87103591e-03	1.99122916e-03	8.65555263e-04	1.62153400e-03	1.32575777e-03	1.15661024e-03	5.89590040e-03
0.0281081       	1.86131471e-03	1.97386427e-03	8.57610833e-04	1.61018088e-03	1.30623979e-03	1.13580501e-03	5.79583709e-03
0.0283784       	1.85374922e-03	1.95634636e-03	8.49736939e-04	1.59836380e-03	1.28657650e-03	1.11360062e-03	5.69487039e-03
0.0286486       	1.84268130e-03	1.93789405e-03	8.42059138e-04	1.58583489e-03	1.26680274e-03	1.09299427e-03	5.58716347e-03
0.0289189       	1.83272568e-03	1.91990280e-03	8.34438021e-04	1.57370894e-03	1.24694986e-03	1.06925293e-03	5.48270639e-03
0.0291892       	1.81869210e-03	1.90158162e-03	8.27114704e-04	1.56122647e-03	1.22678647e-03	1.04831837e-03	5.37417782e-03
0.0294595       	1.80638573e-03	1.88459392e-03	8.20046074e-04	1.54962066e-03	1.20678056e-03	1.02548770e-03	5.25805212e-03
0.0297297       	1.78599532e-03	1.86735606e-03	8.13045330e-04	1.53786507e-03	1.18642302e-03	1.00346489e-03	5.14606358e-03
0.03            	1.77438904e-03	1.84987790e-03	8.06143183e-04	1.52577181e-03	1.16639558e-03	9.80275859e-04	5.03306525e-03
0.0302632       	7.36465372e-03	1.79747093e-03	7.81916157e-04	1.48576285e-03	1.12069783e-03	9.37810006e-04	4.80049711e-03
0.0305263       	2.54596134e-03	1.90614523e-03	7.93561370e-04	1.58018276e-03	1.10203190e-03	9.16557805e-04	4.76538985e-03
0.0307895       	2.16786369e-03	1.84830056e-03	7.84907286e-04	1.53293982e-03	1.08306318e-03	8.96730278e-04	4.60197160e-03
0.0310526       	1.97695001e-03	1.80777567e-03	7.75829066e-04	1.50034002e-03	1.06414724e-03	8.74550394e-04	4.49849380e-03
0.0313158       	1.82945670e-03	1.77557646e-03	7.67455609e-04	1.47470223e-03	1.04529196e-03	8.54157924e-04	4.40230312e-03
0.0315789       	1.75582418e-03	1.75109175e-03	7.60098800e-04	1.45607205e-03	1.02725453e-03	8.33086792e-04	4.30288708e-03
0.0318421       	1.69630346e-03	1.72993189e-03	7.52991243e-04	1.43996200e-03	1.00835590e-03	8.12831858e-04	4.21321508e-03
0.0321053       	1.70092355e-03	1.71091163e-03	7.46167537e-04	1.42595224e-03	9.89213131e-04	8.10148575e-04	4.12059710e-03
0.0323684       	2.10641387e-03	1.70070242e-03	7.41127707e-04	1.41695366e-03	9.71599753e-04	7.73783343e-04	4.02971171e-03
0.0326316       	1.59996247e-03	1.67458490e-03	7.33185450e-04	1.39866435e-03	9.53666239e-04	7.51521410e-04	3.95186749e-03
0.0328947       	1.58187658e-03	1.65859547e-03	7.27011565e-04	1.38650863e-03	9.35499683e-04	7.31511846e-04	3.87188774e-03
0.0331579       	1.53943087e-03	1.64177070e-03	7.20311384e-04	1.37288455e-03	9.17424959e-04	7.12526664e-04	3.79571636e-03
0.0334211       	1.64226066e-03	1.62756822e-03	7.14405928e-04	1.36078394e-03	9.00287359e-04	6.93256014e-04	3.71972036e-03
0.0336842       	1.50936250e-03	1.60959165e-03	7.08111384e-04	1.34673090e-03	8.82229877e-04	6.71183291e-04	3.64813942e-03
0.0339474       	1.49010446e-03	1.59337461e-03	7.02004446e-04	1.33375339e-03	8.64703980e-04	6.51032070e-04	3.58307426e-03
0.0342105       	1.46866193e-03	1.57790337e-03	6.95901717e-04	1.32129648e-03	8.47574030e-04	6.35210074e-04	3.51911165e-03
0.0344737       	1.44355401e-03	1.56195764e-03	6.89873607e-04	1.30821572e-03	8.30566836e-04	6.16759266e-04	3.45669607e-03
0.0347368       	1.41924327e-03	1.54565918e-03	6.83943056e-04	1.29530732e-03	8.13951344e-04	5.98715299e-04	3.39520552e-03
0.035           	1.39991692e-03	1.52982290e-03	6.78128965e-04	1.28355014e-03	7.97409499e-04	5.80868092e-04	3.34062201e-03
0.0352632       	1.37178066e-03	1.51480198e-03	6.72111362e-04	1.27105943e-03	7.81172432e-04	5.63006193e-04	3.28454042e-03
0.0355263       	1.34714983e-03	1.49991702e-03	6.66002905e-04	1.25935347e-03	7.64990409e-04	5.45721268e-04	3.23332177e-03
0.0357895       	1.32584489e-03	1.48475649e-03	6.60135546e-04	1.24746578e-03	7.49033989e-04	5.28533327e-04	3.18426367e-03
0.0360526       	1.30476869e-03	1.47015843e-03	6.54426241e-04	1.23509991e-03	7.33368661e-04	5.12595024e-04	3.13753110e-03
0.0363158       	1.27501625e-03	1.45532772e-03	6.48730870e-04	1.22330910e-03	7.17985055e-04	4.96406209e-04	3.09188930e-03
0.0365789       	1.24504060e-03	1.44134705e-03	6.42924086e-04	1.21151059e-03	7.02822820e-04	4.79851022e-04	3.04950190e-03
0.0368421       	1.22117715e-03	1.42753749e-03	6.37174903e-04	1.19994031e-03	6.87942416e-04	4.64359182e-04	3.01148788e-03
0.0371053       	1.19492851e-03	1.41397893e-03	6.31652497e-04	1.18772451e-03	6.73263146e-04	4.49241302e-04	2.97471876e-03
0.0373684       	1.16643752e-03	1.39961039e-03	6.26058343e-04	1.17546643e-03	6.58931870e-04	4.33931662e-04	2.93919034e-03
0.0376316       	1.13850478e-03	1.38649573e-03	6.20396607e-04	1.16333495e-03	6.44996121e-04	4.20275391e-04	2.90823445e-03
0.0378947       	1.11177175e-03	1.37353190e-03	6.14539731e-04	1.15153811e-03	6.31057044e-04	4.05868236e-04	2.87951910e-03
0.0381579       	1.08256666e-03	1.35993785e-03	6.09137200e-04	1.14025115e-03	6.17533833e-04	3.93013093e-04	2.85407905e-03
0.0384211       	1.05030276e-03	1.34716830e-03	6.03838707e-04	1.12812242e-03	6.04190235e-04	3.79877013e-04	2.82988998e-03
0.0386842       	1.02690776e-03	1.33480497e-03	5.98401082e-04	1.11577103e-03	5.91166336e-04	3.67678965e-04	2.80734443e-03
0.0389474       	9.93978313e-04	1.32218078e-03	5.92788941e-04	1.10389260e-03	5.78393489e-04	3.55240290e-04	2.78878244e-03
0.0392105       	9.60620031e-04	1.30947149e-03	5.87154130e-04	1.09231252e-03	5.66041926e-04	3.42930054e-04	2.77282796e-03
0.0394737       	9.36086789e-04	1.29741201e-03	5.81673728e-04	1.08016985e-03	5.53954562e-04	3.31242797e-04	2.75837062e-03
0.0397368       	9.07471244e-04	1.28571894e-03	5.76321931e-04	1.06786556e-03	5.42243119e-04	3.20455868e-04	2.74575001e-03
0.04            	8.77490305e-04	1.27417022e-03	5.70881538e-04	1.05522000e-03	5.30754694e-04	3.09631189e-04	2.73409130e-03
0.0402632       	8.54279899e-04	1.26252761e-03	5.65364365e-04	1.04235425e-03	5.19629346e-04	2.99717619e-04	2.72406337e-03
0.0405263       	8.28851808e-04	1.25121147e-03	5.59900628e-04	1.03026593e-03	5.08496807e-04	2.89964168e-04	2.71380365e-03
0.0407895       	7.99527938e-04	1.23965844e-03	5.54336206e-04	1.01777117e-03	4.97732924e-04	2.80114493e-04	2.70556717e-03
0.0410526       	7.76809882e-04	1.22859461e-03	5.48800717e-04	1.00498443e-03	4.87399468e-04	2.71174155e-04	2.69792527e-03
0.0413158       	7.48470122e-04	1.21682796e-03	5.43280276e-04	9.91970607e-04	4.77272760e-04	2.62419861e-04	2.69062585e-03
0.0415789       	7.14638979e-04	1.20493835e-03	5.37819549e-04	9.78610107e-04	4.67213570e-04	2.53926843e-04	2.68793566e-03
0.0418421       	6.95978856e-04	1.19346156e-03	5.32325625e-04	9.65872724e-04	4.57420066e-04	2.46333799e-04	2.68750774e-03
0.0421053       	6.68416805e-04	1.18230427e-03	5.26738753e-04	9.53455871e-04	4.47760100e-04	2.38951036e-04	2.69326005e-03
0.0423684       	6.39179503e-04	1.17132375e-03	5.21163429e-04	9.40564289e-04	4.38589987e-04	2.31686983e-04	2.70293835e-03
0.0426316       	6.38352858e-04	1.16158210e-03	5.15962650e-04	9.29147953e-04	4.29060390e-04	2.27716296e-04	2.71484822e-03
0.0428947       	6.04735115e-04	1.14883656e-03	5.10217913e-04	9.15955052e-04	4.20370234e-04	2.16204195e-04	2.72841417e-03
0.0431579       	5.88392691e-04	1.13687679e-03	5.04474021e-04	9.03025069e-04	4.11779703e-04	2.10260492e-04	2.74113358e-03
0.0434211       	5.55708777e-04	1.12427700e-03	4.98463801e-04	8.90492268e-04	4.03348322e-04	2.03316190e-04	2.75337765e-03
0.0436842       	5.26611536e-04	1.11233134e-03	4.92698630e-04	8.77742708e-04	3.95407861e-04	1.97843308e-04	2.76426568e-03
0.0439474       	5.07042290e-04	1.09971124e-03	4.86958949e-04	8.64780191e-04	3.87769183e-04	1.96026129e-04	2.77548216e-03
0.0442105       	4.88990735e-04	1.08612982e-03	4.81076416e-04	8.52437233e-04	3.79999301e-04	1.87839950e-04	2.78487169e-03
0.0444737       	4.73190775e-04	1.07280497e-03	4.75135195e-04	8.39998170e-04	3.72751384e-04	1.82872552e-04	2.79425382e-03
0.0447368       	4.47629575e-04	1.05915099e-03	4.69044432e-04	8.27430946e-04	3.65341374e-04	1.81597566e-04	2.80894761e-03
0.045           	4.27909155e-04	1.04614605e-03	4.63248330e-04	8.15293133e-04	3.58375899e-04	1.73398673e-04	2.82502733e-03
0.0452632       	4.10635999e-04	1.03236276e-03	4.57402947e-04	8.03333112e-04	3.51214558e-04	1.68789378e-04	2.84091815e-03
0.0455263       	4.03598926e-04	1.01812271e-03	4.51426324e-04	7.91612983e-04	3.44124230e-04	1.68111583e-04	2.85877694e-03
0.0457895       	3.83110358e-04	1.00450327e-03	4.45412735e-04	7.80255409e-04	3.37326777e-04	1.60561226e-04	2.88063034e-03
0.0460526       	3.70217559e-04	9.90029976e-04	4.39178853e-04	7.68701356e-04	3.30642462e-04	1.56206239e-04	2.89682330e-03
0.0463158       	3.65760018e-04	9.75842060e-04	4.33188280e-04	7.56963364e-04	3.23894250e-04	1.55471215e-04	2.91567079e-03
0.0465789       	3.46988561e-04	9.61862029e-04	4.27249428e-04	7.45970005e-04	3.17446799e-04	1.48999185e-04	2.93385706e-03
0.0468421       	3.42708923e-04	9.47277472e-04	4.21162537e-04	7.35475086e-04	3.10813294e-04	1.45110679e-04	2.95098876e-03
0.0471053       	3.38830119e-04	9.32187609e-04	4.14944049e-04	7.24878865e-04	3.04370652e-04	1.41237911e-04	2.96058164e-03
0.0473684       	3.26535612e-04	9.17407898e-04	4.08708351e-04	7.13749336e-04	2.98154455e-04	1.41528828e-04	2.97041120e-03
0.0476316       	3.31393991e-04	9.03437570e-04	4.02720596e-04	7.03104930e-04	2.92226636e-04	1.35246269e-04	2.97488599e-03
0.0478947       	3.25603105e-04	8.88547455e-04	3.96725346e-04	6.92698816e-04	2.86157560e-04	1.32090634e-04	2.97650857e-03
0.0481579       	3.12591458e-04	8.73215135e-04	3.90664142e-04	6.82517954e-04	2.80100719e-04	1.32373040e-04	2.96865883e-03
0.0484211       	3.07659691e-04	8.58141227e-04	3.84602969e-04	6.72707093e-04	2.74319222e-04	1.30159690e-04	2.96386691e-03
0.0486842       	3.11573160e-04	8.43569917e-04	3.78659280e-04	6.62653384e-04	2.68775149e-04	1.23265071e-04	2.95467240e-03
0.0489474       	3.02108944e-04	8.28551376e-04	3.72715611e-04	6.52020308e-04	2.63068480e-04	1.20179557e-04	2.94709765e-03
0.0492105       	3.06591828e-04	8.14117544e-04	3.66978027e-04	6.42512622e-04	2.57796164e-04	1.17619123e-04	2.93175129e-03
0.0494737       	2.98818450e-04	7.99027105e-04	3.61093311e-04	6.32959889e-04	2.52305573e-04	1.15113078e-04	2.91397918e-03
0.0497368       	2.97724924e-04	7.83873657e-04	3.55283083e-04	6.23302357e-04	2.47290490e-04	1.12652229e-04	2.89294312e-03
0.05            	2.87676643e-04	7.68639311e-04	3.49406908e-04	6.13429282e-04	2.42126934e-04	1.10163250e-04	2.86959757e-03
