/*--------------------------------*- C++ -*----------------------------------*\
  =========                 |
  \\      /  F ield         | OpenFOAM: The Open Source CFD Toolbox
   \\    /   O peration     | Website:  https://openfoam.org
    \\  /    A nd           | Version:  8
     \\/     M anipulation  |
\*---------------------------------------------------------------------------*/
FoamFile
{
    version     2.0;
    format      ascii;
    class       volScalarField;
    location    "0.31";
    object      p;
}
// * * * * * * * * * * * * * * * * * * * * * * * * * * * * * * * * * * * * * //

dimensions      [0 2 -2 0 0 0 0];

internalField   nonuniform List<scalar> 
15677
(
73.6711
73.2651
72.9307
73.4194
72.9294
72.8699
73.3393
72.9484
72.8795
72.8099
73.3197
72.9485
72.88
72.8186
72.7195
73.3015
72.9516
72.8804
72.8179
72.7271
72.6262
73.2787
72.9544
72.8806
72.8184
72.7271
72.6329
72.5217
73.2538
72.9561
72.8804
72.8185
72.7278
72.633
72.5276
72.3952
73.2281
72.9572
72.8797
72.8183
72.7284
72.6337
72.5277
72.4003
72.2399
73.2012
72.9577
72.8786
72.8176
72.7289
72.6344
72.5285
72.4006
72.2443
72.049
73.1732
72.958
72.8771
72.8166
72.7292
72.635
72.5292
72.4014
72.2447
72.0526
71.8145
73.1441
72.9577
72.8754
72.8156
72.7297
72.6357
72.53
72.4024
72.2457
72.0532
71.8174
71.5283
73.1137
72.9565
72.8737
72.8148
72.7304
72.6366
72.531
72.4034
72.2469
72.0544
71.8181
71.5304
71.1817
73.0823
72.9544
72.8722
72.8141
72.7313
72.6378
72.5323
72.4048
72.2483
72.0559
71.8196
71.5312
71.183
70.7664
73.0534
72.9516
72.871
72.8136
72.7328
72.6397
72.5342
72.4068
72.2503
72.0578
71.8215
71.5331
71.1839
70.7667
70.2743
73.0285
72.9482
72.8704
72.8135
72.7351
72.6426
72.5372
72.4098
72.2532
72.0605
71.8241
71.5355
71.1863
70.768
70.2736
69.6976
73.007
72.9447
72.8704
72.8139
72.7386
72.6469
72.5417
72.4143
72.2574
72.0645
71.8278
71.5388
71.1892
70.7706
70.275
69.6958
69.0296
72.989
72.9406
72.8708
72.815
72.7432
72.6532
72.5483
72.4209
72.2638
72.0704
71.8331
71.5436
71.1935
70.7743
70.278
69.6974
69.0265
68.2646
72.9737
72.9359
72.8714
72.8167
72.7489
72.6617
72.5576
72.4305
72.2731
72.0791
71.841
71.5507
71.1998
70.7798
70.2827
69.701
69.0284
68.26
67.398
72.9607
72.9309
72.872
72.819
72.755
72.672
72.5704
72.444
72.2866
72.0918
71.8527
71.5611
71.2089
70.7877
70.2895
69.7066
69.0325
68.2622
67.3918
66.4268
72.9496
72.9259
72.8726
72.8218
72.7618
72.6833
72.586
72.4625
72.3055
72.1102
71.8697
71.5764
71.2223
70.7993
70.2993
69.7149
69.0392
68.2669
67.3942
66.419
65.35
72.9405
72.9211
72.8732
72.8251
72.7691
72.6955
72.603
72.485
72.3313
72.1358
71.8941
71.5987
71.242
70.8162
70.3137
69.7269
69.0491
68.2746
67.3995
66.4216
65.3403
64.168
72.9333
72.9168
72.8738
72.8288
72.777
72.7086
72.6216
72.5095
72.3628
72.171
71.9282
71.6305
71.2705
70.841
70.3347
69.7444
69.0635
68.2862
67.4084
66.4275
65.3431
64.1564
62.8837
72.9276
72.9133
72.8745
72.8329
72.7853
72.7224
72.6415
72.5363
72.397
72.2138
71.975
71.675
71.3113
70.877
70.3655
69.77
69.0844
68.3031
67.4218
66.4374
65.3495
64.1594
62.8701
61.5022
72.923
72.9104
72.8751
72.837
72.7939
72.7368
72.6625
72.565
72.4344
72.2604
72.0319
71.736
71.3683
70.9284
70.41
69.8074
69.115
68.3277
67.4412
66.4526
65.3605
64.1661
62.8731
61.4864
60.0352
72.9193
72.908
72.8756
72.8408
72.8024
72.7517
72.6845
72.5953
72.4746
72.3114
72.094
71.8103
71.4465
71.0002
70.4735
69.8616
69.1598
68.3636
67.4695
66.4746
65.3772
64.178
62.8801
61.4892
60.0155
58.5105
72.9162
72.906
72.8761
72.8443
72.8102
72.7661
72.7071
72.6271
72.5171
72.3662
72.162
71.8915
71.5419
71.0987
70.5624
69.9389
69.2246
68.4163
67.511
66.5066
65.4016
64.1961
62.8925
61.4959
60.0159
58.4499
56.8715
72.9136
72.9044
72.8765
72.8474
72.8173
72.7794
72.7292
72.6598
72.5616
72.4243
72.2352
71.9806
71.6462
71.2189
70.6845
70.0472
69.3172
68.4926
67.5718
66.5536
65.4371
64.2225
62.9116
61.5084
60.0211
58.4557
56.8019
55.1021
72.9114
72.903
72.8769
72.8502
72.8237
72.7913
72.7495
72.6918
72.6075
72.485
72.3128
72.0765
71.7607
71.3508
70.8339
70.1962
69.4471
68.6018
67.6602
66.6227
65.4894
64.2611
62.9395
61.5277
60.032
58.4581
56.8072
55.0767
53.2733
72.9096
72.9018
72.8772
72.8527
72.8294
72.8019
72.7676
72.7211
72.6524
72.5477
72.394
72.1783
71.8843
71.4957
70.9978
70.3788
69.6261
68.7552
67.7869
66.7234
65.5666
64.3182
62.9804
61.5561
60.0499
58.4659
56.8023
55.066
53.2628
51.3954
72.908
72.9008
72.8774
72.855
72.8344
72.8113
72.7839
72.7475
72.6934
72.6091
72.4781
72.285
72.0156
71.6523
71.1784
70.5796
69.846
68.9671
67.9655
66.8683
65.6796
64.403
63.0414
61.5981
60.0771
58.4811
56.8079
55.0572
53.2467
51.3892
49.2726
72.9067
72.8999
72.8775
72.8571
72.8389
72.8197
72.7984
72.7711
72.7305
72.6654
72.5604
72.3956
72.1534
71.819
71.3739
70.8013
70.0884
69.2281
68.2127
67.073
65.8426
64.5276
63.1326
61.6617
60.1187
58.506
56.8218
55.0637
53.2384
51.3713
49.2696
46.878
72.9055
72.8992
72.8776
72.859
72.8428
72.8271
72.8112
72.7921
72.7636
72.7162
72.636
72.504
72.2964
71.9943
71.5823
71.0416
70.3565
69.5164
68.5181
67.3573
66.0738
64.7083
63.2678
61.758
60.1832
58.5459
56.845
55.0776
53.2463
51.3642
49.2528
46.8771
44.4628
72.9045
72.8985
72.8776
72.8607
72.8463
72.8337
72.8225
72.8107
72.7931
72.7616
72.7042
72.6036
72.4368
72.1763
71.8017
71.2984
70.6478
69.8362
68.8564
67.7096
66.3962
64.9657
63.465
61.902
60.2826
58.6097
56.8831
55.0999
53.2604
51.3716
49.2455
46.8617
44.4636
42.0567
72.9036
72.8979
72.8777
72.8621
72.8493
72.8395
72.8326
72.8272
72.8193
72.8021
72.7653
72.6935
72.566
72.3554
72.0302
71.5694
70.9598
70.1846
69.2326
68.1011
66.7972
65.3262
63.7475
62.114
60.4335
58.7106
56.9459
55.1369
53.2826
51.3854
49.2503
46.8539
44.4499
42.0576
39.6826
72.8974
72.9026
72.8778
72.8634
72.8521
72.8446
72.8414
72.8418
72.8426
72.8382
72.8198
72.7743
72.6828
72.5204
72.2554
71.8521
71.2898
70.5586
69.6436
68.5378
67.2443
65.7766
64.1452
62.4198
60.6581
58.8665
57.0473
55.1987
53.3188
51.4069
49.2622
46.8558
44.4418
42.045
39.6835
37.3562
72.8779
72.8968
72.9014
72.8645
72.8544
72.8491
72.8493
72.8547
72.8632
72.8702
72.8684
72.8464
72.7878
72.6699
72.4632
72.1313
71.635
70.9552
70.086
69.0164
67.7448
66.2807
64.6446
62.8529
60.9847
59.1012
57.2065
55.3
53.3793
51.4414
49.2812
46.8646
44.4408
42.0358
39.6714
37.3565
35.089
72.8654
72.8782
72.8961
72.9002
72.8565
72.8531
72.8562
72.8661
72.8814
72.8985
72.9114
72.9106
72.8816
72.8043
72.6517
72.3895
71.9767
71.3711
70.5566
69.5333
68.2951
66.847
65.2058
63.3996
61.4503
59.4456
57.4489
55.461
53.4794
51.4994
49.3121
46.8792
44.4458
42.0315
39.6608
37.3449
35.0886
32.8911
72.8583
72.8667
72.8785
72.8954
72.899
72.8566
72.8623
72.8762
72.8975
72.9235
72.9496
72.9677
72.9653
72.9247
72.8215
72.6241
72.2934
71.7841
71.0517
70.0848
68.8914
67.4719
65.8387
64.0167
62.0414
59.9401
57.8078
55.7087
53.6402
51.5965
49.3652
46.9037
44.4546
42.0317
39.6526
37.3324
35.077
32.8898
30.771
72.8596
72.8608
72.8682
72.8789
72.8947
72.8978
72.8677
72.8852
72.9117
72.9457
72.9835
73.0183
73.0397
73.0321
72.9738
72.8359
72.5819
72.1679
71.5447
70.6669
69.5299
68.1516
66.5399
64.7156
62.712
60.5718
58.3269
56.0785
53.8902
51.7546
49.4563
46.9482
44.4709
42.0337
39.6471
37.32
35.0625
32.8782
30.7688
28.735
72.8723
72.8635
72.8634
72.8696
72.8792
72.8939
72.8967
72.893
72.9243
72.9653
73.0134
73.0631
73.1057
73.1277
73.1098
73.0261
72.8428
72.5183
72.0043
71.2487
70.2063
68.8821
67.3055
65.493
63.4748
61.292
58.9943
56.6171
54.2666
52.0033
49.6082
47.029
44.5045
42.0402
39.6409
37.3082
35.0457
32.8614
30.757
28.732
26.7875
72.8997
72.8782
72.8676
72.866
72.8709
72.8795
72.8932
72.8956
72.9355
72.9828
73.0399
73.1029
73.1643
73.2126
73.231
73.1962
73.0774
72.8358
72.425
71.7927
70.8849
69.6591
68.1316
66.3454
64.3267
62.1147
59.7587
57.3139
54.819
52.3816
49.8512
47.169
44.5714
42.0605
39.6359
37.2927
35.0271
32.8401
30.7378
28.7199
26.7837
24.9311
72.9449
72.9081
72.8842
72.8717
72.8685
72.8722
72.8798
72.8924
72.8945
72.9981
73.0635
73.1381
73.2162
73.288
73.3388
73.348
73.2877
73.122
72.8071
72.2921
71.5217
70.4418
69.014
67.2691
65.2649
63.0376
60.6359
58.116
55.5381
52.9413
50.2261
47.3995
44.695
42.1105
39.6408
37.2749
35.0017
32.8144
30.712
28.6983
26.7713
24.9266
23.167
73.0112
72.9566
72.9164
72.8901
72.8756
72.871
72.8735
72.8801
72.8917
72.8934
73.0843
73.1694
73.2622
73.3548
73.4346
73.4831
73.4755
73.3789
73.1524
72.7471
72.1083
71.1791
69.9069
68.2602
66.2862
64.0588
61.6246
59.0407
56.3698
53.6743
50.7859
47.7623
44.907
42.2137
39.6713
37.2627
34.97
32.7786
30.679
28.6679
26.7473
24.9138
23.1617
21.4951
73.1019
73.0271
72.9678
72.9245
72.8958
72.8794
72.8733
72.8746
72.8803
72.8909
72.8923
73.197
73.3032
73.4142
73.5196
73.6033
73.643
73.6088
73.4629
73.1591
72.6442
71.8606
70.7515
69.2678
67.3873
65.1757
62.7237
60.088
57.3336
54.5267
51.5248
48.3108
45.2492
42.4018
39.7507
37.2714
34.9393
32.7324
30.6324
28.6276
26.7123
24.8873
23.1487
21.4892
19.9145
73.2204
73.1232
73.0418
72.9786
72.9323
72.9012
72.8831
72.8754
72.8756
72.8805
72.8901
72.8913
73.3394
73.467
73.5951
73.7101
73.7921
73.814
73.7412
73.5305
73.1308
72.4853
71.5351
70.225
68.5121
66.3856
63.9318
61.2581
58.4307
55.5197
52.3896
49.042
45.7744
42.7153
39.9099
37.3241
34.9248
32.6824
30.5713
28.5702
26.6647
24.8479
23.1197
21.4758
19.9079
18.4233
73.3699
73.2486
73.1424
73.0561
72.9891
72.9398
72.9064
72.8865
72.8774
72.8766
72.8806
72.8894
72.8903
73.5137
73.6624
73.805
73.9247
73.997
73.9902
73.8641
73.5705
73.0543
72.2559
71.1168
69.5857
67.6282
65.2473
62.5506
59.6624
56.656
53.4034
49.905
46.4829
43.2058
40.1874
37.45
34.9485
32.6435
30.5015
28.4938
26.5964
24.7931
23.0761
21.4445
19.8942
18.4161
17.0191
73.553
73.4066
73.2732
73.1608
73.0699
72.9991
72.9469
72.9112
72.8896
72.8793
72.8775
72.8806
72.8886
72.8893
73.7218
73.8896
74.0427
74.1599
74.2124
74.163
73.9664
73.5698
72.9145
71.9401
70.5901
68.8199
66.6055
63.9656
61.0303
57.9384
54.57
50.9238
47.3271
43.8776
40.6332
37.6852
35.0373
32.6364
30.4377
28.4042
26.5049
24.714
23.0141
21.3968
19.8606
18.4022
17.0113
15.6988
73.7718
73.6004
73.4379
73.2968
73.1787
73.0829
73.0084
72.9534
72.9157
72.8925
72.8809
72.8782
72.8806
72.8878
72.8884
73.9644
74.148
74.3051
74.4106
74.4303
74.3219
74.0351
73.513
72.6949
71.5212
69.9399
67.9148
65.4347
62.5362
59.3703
55.8944
52.1041
48.3312
44.6865
41.2551
38.0774
35.2251
32.6855
30.3987
28.3152
26.3956
24.6076
22.9245
21.328
19.809
18.3663
16.9971
15.6904
14.4592
74.0271
73.8323
73.6398
73.468
73.3197
73.1955
73.095
73.017
72.9595
72.9198
72.8952
72.8825
72.8788
72.8805
72.8871
72.8875
74.2409
74.4347
74.5874
74.669
74.6403
74.4537
74.0545
73.383
72.3778
70.9823
69.1509
66.8585
64.1089
60.9557
57.3824
53.4532
49.5027
45.6562
42.0129
38.6376
35.5563
32.8218
30.406
28.2434
26.2815
24.4791
22.8036
21.2281
19.7336
18.311
16.9591
15.6761
14.4504
13.2969
74.3189
74.1038
73.8817
73.6778
73.497
73.3411
73.211
73.1061
73.0249
72.965
72.9235
72.8975
72.8837
72.8793
72.8804
72.8865
72.8867
74.5491
74.7454
74.8823
74.9251
74.8294
74.543
74.0073
73.1613
71.945
70.3064
68.2092
65.6414
62.6212
59.0404
54.9798
50.8513
46.7956
42.9286
39.3291
36.0437
33.0858
30.4878
28.2079
26.1767
24.3401
22.6564
21.0932
19.6239
18.2292
16.9004
15.636
14.4358
13.2876
12.2084
74.6448
74.4152
74.1654
73.9293
73.7143
73.5239
73.3607
73.2251
73.1162
73.032
72.9698
72.9268
72.8995
72.8848
72.8796
72.8801
72.8858
72.8859
74.8846
75.073
75.1801
75.1662
74.9823
74.5719
73.8744
72.8284
71.3777
69.4775
67.1025
64.2532
60.7945
56.6942
52.3886
48.1162
44.0117
40.1714
36.6549
33.4911
30.6798
28.2333
26.0976
24.2026
22.4931
20.9279
19.4756
18.1101
16.8125
15.5741
14.3938
13.2729
12.1984
11.1897
75.0011
74.765
74.4915
74.2247
73.9749
73.7481
73.5485
73.3784
73.2377
73.1251
73.0382
72.9741
72.9296
72.9012
72.8855
72.8797
72.8798
72.8852
72.8852
75.2409
75.4082
75.4682
75.3769
75.0809
74.5209
73.6349
72.3642
70.6579
68.4804
65.8172
62.525
58.5226
54.1271
49.6305
45.2735
41.1728
37.405
34.0092
30.995
28.3494
26.0656
24.08
22.3233
20.7409
19.2929
17.9491
16.6845
15.4805
14.3289
13.229
12.1834
11.1784
10.2387
75.3812
75.15
74.8593
74.5652
74.2815
74.017
73.7787
73.5706
73.3942
73.2489
73.1329
73.0436
72.9776
72.9318
72.9024
72.8861
72.8798
72.8795
72.8846
72.8845
75.6088
75.7388
75.7315
75.5391
75.1051
74.3683
73.2679
71.7489
69.7681
67.2992
64.1937
60.3388
55.992
51.3503
46.7252
42.343
38.3
34.6498
31.4093
28.5683
26.1032
23.9901
22.1578
20.5397
19.0831
17.7499
16.5114
15.344
14.2299
13.1614
12.1379
11.1633
10.2231
9.44954
75.7762
75.5648
75.2661
74.9505
74.6356
74.3337
74.0549
73.806
73.59
73.4078
73.2584
73.1394
73.0479
72.9804
72.9334
72.9033
72.8864
72.8798
72.8791
72.8841
72.8839
75.9761
76.0496
75.9518
75.6323
75.0327
74.0918
72.7513
70.9626
68.6901
65.7828
62.0977
57.8507
53.2021
48.3791
43.693
39.3484
35.4169
31.9263
28.8704
26.2216
23.9479
22.0103
20.3322
18.8514
17.5182
16.2965
15.1595
14.0854
13.0573
12.0679
11.1166
10.2093
9.44264
8.78415
76.1739
76.0012
75.7074
75.3789
75.0377
74.7001
74.3805
74.0885
73.8298
73.6067
73.4193
73.2662
73.1445
73.0511
72.9823
72.9345
72.9039
72.8865
72.8797
72.8786
72.8835
72.8833
76.3277
76.3224
76.1083
75.6336
74.8403
73.668
72.0639
69.9852
67.2791
63.7757
59.6546
55.0563
50.1728
45.2413
40.5648
36.3196
32.5488
29.2536
26.4061
23.9635
21.888
20.128
18.6032
17.2572
16.0439
14.9298
13.8902
12.9054
11.9591
11.0447
10.1615
9.43521
8.78835
8.08625
76.5591
76.4483
76.1759
75.8464
75.4865
75.1172
74.7577
74.4217
74.1175
73.8499
73.6204
73.4285
73.2721
73.1482
73.0533
72.9836
72.9352
72.9042
72.8865
72.8795
72.8782
72.883
72.8827
76.6453
76.5363
76.1778
75.5189
74.5028
73.0739
71.1827
68.6748
65.3575
61.3819
56.8717
51.9929
46.9471
41.9793
37.3792
33.2885
29.7204
26.6492
24.0277
21.8006
19.9264
18.3437
16.9697
15.7549
14.6573
13.6466
12.7002
11.8002
10.9314
10.0881
9.3865
8.78302
8.08686
7.33517
76.9134
76.8922
76.6618
76.347
75.979
75.5845
75.1881
74.8082
74.457
74.1419
73.8662
73.6311
73.4352
73.276
73.1504
73.0545
72.9842
72.9354
72.9042
72.8863
72.8792
72.8778
72.8824
72.882
76.9076
76.6676
76.1353
75.2618
73.996
72.2832
69.9664
66.8352
63.0209
58.634
53.8098
48.7183
43.5763
38.6384
34.174
30.2852
26.9534
24.1277
21.7441
19.7374
18.0646
16.6566
15.4298
14.3417
13.3552
12.4434
11.5857
10.7661
9.97072
9.31255
8.73475
8.07729
7.32914
6.51411
77.2148
77.3158
77.1524
76.8721
76.5101
76.0995
75.6715
75.25
74.8513
74.4864
74.1612
73.8786
73.6385
73.4392
73.2781
73.1513
73.0548
72.9842
72.9353
72.904
72.886
72.8788
72.8774
72.8818
72.8814
77.09
76.6905
75.9533
74.8366
73.2896
71.1542
68.2071
64.5669
60.3343
55.6122
50.5322
45.2835
40.1057
35.259
30.983
27.3354
24.2662
21.7009
19.5617
17.7765
16.3027
15.0652
13.9808
13.0144
12.1343
11.3165
10.5428
9.79951
9.19166
8.65987
8.0287
7.31426
6.5046
5.61798
77.4383
77.6989
77.6317
77.4102
77.0723
76.6583
76.2066
75.7474
75.3025
74.8867
74.5093
74.1754
73.8867
73.6425
73.4409
73.2785
73.1512
73.0544
72.9838
72.9349
72.9036
72.8856
72.8783
72.8769
72.8811
72.8807
77.166
76.5768
75.6047
74.2088
72.2411
69.4744
66.0181
61.9646
57.3856
52.373
47.0797
41.7258
36.572
31.8753
27.8349
24.461
21.6735
19.3776
17.4849
15.919
14.6395
13.5671
12.6197
11.7696
10.9906
10.262
9.568
9.01565
8.53609
7.95212
7.26407
6.4871
5.60712
4.64403
77.5556
78.018
78.0808
77.9468
77.6557
77.2544
76.7899
76.2997
75.8116
75.3453
74.9141
74.5257
74.1843
73.8905
73.6435
73.4404
73.2774
73.15
73.0534
72.9829
72.9341
72.903
72.8851
72.8777
72.8764
72.8803
72.8801
77.1056
76.2974
75.051
73.2356
70.6406
67.3733
63.5166
59.1125
54.2166
48.9425
43.4779
38.0747
33.0071
28.5172
24.7541
21.6796
19.1864
17.1636
15.5157
14.1647
13.0731
12.1593
11.3429
10.6036
9.92047
9.27624
8.77741
8.35603
7.82512
7.18474
6.43516
5.58886
4.63237
3.58703
77.5353
78.2471
78.4773
78.4646
78.247
77.879
77.4161
76.9043
76.3783
75.8637
75.3781
74.9331
74.5353
74.1876
73.8904
73.6417
73.4381
73.2751
73.1479
73.0517
72.9816
72.9331
72.9022
72.8846
72.8771
72.8758
72.8796
72.8794
76.8771
75.8107
74.1498
71.715
68.6328
64.9821
60.7755
56.0357
50.8393
45.3347
39.7478
34.3574
29.4401
25.2109
21.7609
19.0047
16.8127
15.0625
13.6547
12.5118
11.6008
10.8386
10.1468
9.51238
8.92002
8.47678
8.11218
7.6406
7.054
6.35242
5.53549
4.61333
3.5748
2.43991
77.3413
78.3579
78.7959
78.9426
78.8306
78.5206
78.0778
77.557
77.001
76.442
75.9033
75.4005
74.9437
74.538
74.1861
73.8868
73.6376
73.4341
73.2717
73.1451
73.0495
72.9798
72.9319
72.9016
72.884
72.8764
72.8751
72.879
72.8788
76.4348
74.9728
72.7107
69.8034
66.3553
62.3588
57.8048
52.7355
47.2589
41.563
35.9111
30.6012
25.8987
21.9795
18.8715
16.4463
14.5576
13.0756
11.9007
10.9579
10.2195
9.60121
9.02743
8.49225
8.10858
7.80404
7.39066
6.86446
6.21744
5.44931
4.55867
3.55473
2.4274
1.19499
76.9228
78.3188
79.0085
79.3573
79.3873
79.1649
78.7646
78.2512
77.6761
77.0793
76.4903
75.93
75.4123
74.9456
74.5346
74.1802
73.8803
73.6314
73.4287
73.2673
73.1416
73.0467
72.9778
72.931
72.9011
72.8833
72.8756
72.8744
72.8783
72.8783
75.633
73.6104
70.8976
67.6395
63.851
59.5015
54.5985
49.2102
43.4816
37.6433
31.9923
26.8342
22.4086
18.8424
16.0984
14.0111
12.4232
11.2025
10.2517
9.50006
8.92535
8.44317
7.98094
7.66485
7.42574
7.07437
6.60785
6.0223
5.30978
4.4692
3.49852
2.40657
1.18231
-0.155671
78.0847
76.1348
79.0827
79.6818
79.8951
79.7945
79.464
78.9782
78.3984
77.7729
77.1386
76.5227
75.9435
75.4133
74.9399
74.5259
74.1707
73.8713
73.6235
73.4222
73.2619
73.1373
73.0436
72.9767
72.9307
72.9004
72.8824
72.8747
72.8737
72.8777
72.8778
74.3156
71.8901
68.8462
65.2529
61.1095
56.4
51.1506
45.4605
39.5173
33.5955
28.0186
23.0849
18.9938
15.8158
13.4508
11.703
10.4099
9.44126
8.70467
8.13439
7.7144
7.36063
7.1322
6.9686
6.68512
6.28269
5.75834
5.10845
4.32489
3.40561
2.34838
1.16086
-0.168525
-1.62031
78.9762
77.5213
74.8289
79.8849
80.3289
80.389
80.1603
79.7269
79.1603
78.5184
77.8465
77.1785
76.5388
75.9439
75.405
74.9276
74.5126
74.1579
73.86
73.614
73.4144
73.2555
73.1326
73.0421
72.9766
72.93
72.8994
72.8813
72.8737
72.8729
72.8771
72.8773
72.6557
69.9429
66.5758
62.6269
58.1181
53.0456
47.4575
41.4907
35.3805
29.4442
24.02
19.3816
15.6757
12.913
10.9349
9.52318
8.51622
7.78919
7.25584
6.85683
6.58266
6.48279
6.41802
6.21351
5.88157
5.42351
4.83649
4.11684
3.25618
2.25169
1.10064
-0.190635
-1.63331
-3.2075
79.9265
78.5769
76.5046
73.196
80.6596
80.9254
80.8348
80.4832
79.9521
79.3096
78.6103
77.8964
77.1985
76.5388
75.9328
75.3887
74.9098
74.4954
74.1426
73.847
73.6031
73.4052
73.2487
73.1305
73.0421
72.9758
72.9288
72.8981
72.8801
72.8727
72.8722
72.8765
72.8768
70.779
67.7809
64.0652
59.7482
54.8675
49.4323
43.5187
37.3088
31.0906
25.218
20.0278
15.7513
12.4727
10.1436
8.5539
7.47119
6.73968
6.24233
5.90094
5.66323
5.66525
5.74424
5.64354
5.39429
5.00952
4.49112
3.83617
3.04085
2.09667
0.999974
-0.252833
-1.65612
-3.22059
-4.92621
80.8498
79.7113
77.7377
75.1717
71.3576
81.3765
81.4662
81.2304
80.7615
80.138
79.425
78.6736
77.9221
77.1989
76.5248
75.9119
75.3656
74.8872
74.475
74.125
73.8321
73.5904
73.3957
73.2458
73.1309
73.0414
72.9745
72.9272
72.8965
72.879
72.8718
72.8714
72.8759
72.8764
68.6921
65.3789
61.3014
56.6073
51.3502
45.556
39.3361
32.9273
26.672
20.9493
16.0741
12.2191
9.40011
7.51404
6.30876
5.54499
5.07635
4.79628
4.63563
4.69616
4.8936
4.9434
4.80335
4.5053
4.0632
3.47935
2.75076
1.87347
0.838899
-0.357574
-1.72031
-3.24412
-4.93932
-6.78567
81.7087
80.8238
79.0923
76.5853
73.6252
69.3164
82.0297
81.949
81.5736
80.9931
80.2834
79.5059
78.7075
77.924
77.1823
76.4989
75.8827
75.3367
74.8608
74.4519
74.1052
73.815
73.5773
73.3917
73.2466
73.1303
73.0399
72.9726
72.9253
72.8953
72.878
72.8708
72.8705
72.8753
72.8759
66.3646
62.7245
58.2759
53.1974
47.5607
41.414
34.9148
28.3634
22.1541
16.673
12.1905
8.80675
6.46928
5.02817
4.19871
3.74098
3.52171
3.44643
3.61103
3.883
4.057
4.07478
3.89172
3.54069
3.03638
2.38153
1.5732
0.607208
-0.525126
-1.82931
-3.31033
-4.96353
-6.79871
-8.79527
82.4956
81.8672
80.4351
78.1649
75.2247
71.8804
67.0369
82.6162
82.3706
81.8617
81.1765
80.3875
79.5515
78.7126
77.9052
77.1511
76.463
75.8465
75.3031
74.8311
74.4261
74.0826
73.7974
73.5719
73.3931
73.2462
73.1286
73.0376
72.9702
72.924
72.8943
72.8768
72.8697
72.8696
72.8747
72.8754
63.7851
59.8116
54.9834
49.5126
43.4932
37.0043
30.2624
23.6394
17.5713
12.4258
8.40637
5.53247
3.68845
2.68732
2.22093
2.05471
2.0709
2.3539
2.74988
3.0016
3.14987
3.13257
2.90272
2.49417
1.92233
1.19055
0.295953
-0.765922
-2.00378
-3.42384
-5.03178
-6.8235
-8.80776
-10.9655
83.2065
82.8325
81.7046
79.7446
77.0317
73.6901
69.9033
64.5069
83.132
82.7278
82.0927
81.3105
80.4491
79.5622
78.6926
77.8688
77.1078
76.4186
75.8046
75.2656
74.7981
74.3969
74.0594
73.7902
73.5741
73.393
73.2443
73.1258
73.0346
72.9688
72.9232
72.8931
72.8755
72.8684
72.8686
72.874
72.875
60.9495
56.6372
51.4195
45.5463
39.1408
32.3249
25.3903
18.7841
12.9622
8.24425
4.74786
2.41063
1.06266
0.490274
0.371428
0.481201
0.897062
1.43608
1.81679
2.04627
2.1663
2.11074
1.82998
1.35894
0.713902
-0.101156
-1.08898
-2.2543
-3.60572
-5.15007
-6.89367
-8.83255
-10.9749
-13.7142
83.8361
83.7144
82.8911
81.2481
78.8476
75.745
71.9489
67.6822
61.7238
83.5731
83.0181
82.2652
81.3938
80.4687
79.5425
78.6514
77.8177
77.0543
76.3673
75.7581
75.2242
74.761
74.367
74.0501
73.7934
73.5743
73.3908
73.2408
73.1221
73.0333
72.9685
72.9222
72.8917
72.874
72.8671
72.8675
72.8734
72.8746
57.8572
53.1993
47.5784
41.2891
34.493
27.3739
20.3159
13.8326
8.36844
4.16339
1.23757
-0.548262
-1.40655
-1.56592
-1.35464
-0.791708
-0.0886591
0.442041
0.805971
1.01103
1.10014
1.00284
0.66668
0.127859
-0.596468
-1.50159
-2.58997
-3.86659
-5.33984
-7.01693
-8.90465
-10.9997
-13.7273
-16.9969
84.379
84.5055
83.9901
82.6648
80.584
77.8117
74.2752
69.985
65.2191
58.6883
83.9363
83.2395
82.3774
81.4267
80.4517
79.4972
78.5924
77.7544
76.9926
76.3105
75.7069
75.1778
74.7231
74.355
74.0546
73.7941
73.5719
73.3866
73.2362
73.121
73.0338
72.9679
72.9208
72.89
72.8723
72.8656
72.8664
72.8728
72.8742
54.5082
49.4944
43.4513
36.7253
29.5362
22.1541
15.0648
8.8272
3.83301
0.215677
-2.10629
-3.33819
-3.72009
-3.48555
-2.75095
-1.8602
-1.15572
-0.634228
-0.288702
-0.110395
-0.0551004
-0.197984
-0.594362
-1.20666
-2.01678
-3.01911
-4.21572
-5.61174
-7.21507
-9.03314
-11.0727
-13.758
-17.014
-20.3545
84.8312
85.1979
84.9932
83.9909
82.2289
79.7932
76.6115
72.6026
67.8003
62.5209
55.4028
84.2189
83.3895
82.4293
81.4155
80.4037
79.4306
78.5187
77.6812
76.9243
76.2483
75.6497
75.1304
74.708
74.3611
74.0558
73.7914
73.5669
73.3809
73.2356
73.1227
73.0339
72.9668
72.919
72.8879
72.8704
72.864
72.8651
72.8721
72.8738
50.9018
45.5163
39.0221
31.8346
24.2607
16.6788
9.67418
3.81594
-0.600879
-3.57037
-5.27093
-5.95662
-5.88105
-5.03854
-3.92258
-3.01628
-2.31043
-1.79902
-1.47358
-1.32457
-1.30633
-1.49889
-1.96068
-2.65257
-3.55535
-4.66234
-5.97514
-7.49866
-9.24021
-11.2065
-13.8367
-17.0479
-20.3678
-23.7402
85.1894
85.7846
85.8905
85.2174
83.7792
81.6769
78.8564
75.2226
70.7281
65.4047
59.5978
51.8688
84.4175
83.4676
82.4281
81.367
80.33
79.3462
78.4332
77.6001
76.8495
76.1788
75.5914
75.1116
74.7161
74.363
74.0529
73.7854
73.5598
73.381
73.2391
73.124
73.0333
72.9651
72.9168
72.8856
72.8682
72.8621
72.8638
72.8715
72.8735
47.0344
41.2534
34.2665
26.5904
18.6556
10.9692
4.19167
-1.14809
-4.89194
-7.17209
-8.24821
-8.4043
-7.6294
-6.34124
-5.1896
-4.26668
-3.55931
-3.05881
-2.75532
-2.6384
-2.66067
-2.90736
-3.44014
-4.21806
-5.22068
-6.44009
-7.8771
-9.53618
-11.4231
-13.9802
-17.1343
-20.3982
-23.7514
-27.1284
85.4494
86.26
86.6721
86.3331
85.2258
83.4591
80.9985
77.7436
73.6441
68.6629
62.8138
56.4604
48.0858
84.5308
83.482
82.3821
81.2875
80.2351
79.2476
78.3382
77.5114
76.7661
76.1079
75.5683
75.122
74.7188
74.3598
74.0457
73.7767
73.5609
73.3868
73.242
73.1243
73.0321
72.9629
72.9142
72.8829
72.8658
72.8601
72.8624
72.8709
72.8733
42.898
36.6788
29.1429
20.9525
12.7088
5.05394
-1.32584
-6.00967
-9.00388
-10.5725
-11.0347
-10.3849
-9.09512
-7.74926
-6.55919
-5.61813
-4.90895
-4.4203
-4.1408
-4.05893
-4.12548
-4.4311
-5.04075
-5.91146
-7.02141
-8.36111
-9.93037
-11.7322
-14.21
-17.2905
-20.4852
-23.7808
-27.1387
-30.5072
85.6083
86.6175
87.3287
87.3266
86.5576
85.1301
83.0335
80.1568
76.45
71.887
66.4253
60.0462
53.1198
44.0523
84.5677
83.4426
82.2988
81.1825
80.123
79.1378
78.2342
77.4125
76.681
76.0798
75.5815
75.1258
74.7152
74.3513
74.0352
73.7791
73.5698
73.392
73.2437
73.1237
73.0301
72.9601
72.911
72.8798
72.8631
72.858
72.8608
72.8704
72.8731
38.4717
31.7511
23.5948
14.8769
6.4211
-1.02266
-6.81309
-10.7151
-12.9062
-13.7612
-13.2903
-12.0445
-10.6781
-9.27017
-8.03831
-7.07733
-6.36608
-5.89036
-5.63698
-5.59336
-5.70825
-6.07788
-6.77058
-7.74114
-8.96599
-10.4339
-12.1428
-14.536
-17.5374
-20.6483
-23.8688
-27.1689
-30.5165
-33.8624
85.6764
86.852
87.8484
88.1867
87.7629
86.6783
84.9506
82.4587
79.141
74.9856
69.9707
64.0382
57.1218
49.5887
39.7586
84.5403
83.3583
82.1848
81.0569
79.9975
79.0173
78.1182
77.3115
76.6474
76.0963
75.5865
75.1219
74.7052
74.3386
74.0392
73.7921
73.5781
73.3957
73.2443
73.1223
73.0273
72.9566
72.9074
72.8763
72.86
72.8556
72.8592
72.8699
72.8729
33.7243
26.4166
17.5554
8.32687
-0.186235
-7.19594
-12.1993
-15.214
-16.5764
-16.3439
-15.1789
-13.8354
-12.3863
-10.911
-9.63362
-8.65095
-7.93748
-7.47578
-7.25081
-7.24886
-7.41641
-7.8554
-8.63761
-9.71517
-11.0625
-12.666
-14.9668
-17.8837
-20.9079
-24.0376
-27.2595
-30.5474
-33.8705
-37.1755
85.6676
86.9746
88.2185
88.8971
88.8291
88.0909
86.7364
84.6386
81.7156
77.9585
73.3693
67.9196
61.5259
54.06
45.8749
35.1837
84.4591
83.2372
82.0461
80.9152
79.8594
78.8827
77.9995
77.2716
76.6677
76.1028
75.5822
75.1101
74.6899
74.3447
74.0573
73.8043
73.5844
73.3979
73.2437
73.1198
73.0236
72.9524
72.9031
72.8723
72.8567
72.8531
72.8576
72.8694
72.8728
28.609
20.5953
10.9386
1.28004
-7.06782
-13.3837
-17.4107
-19.4634
-19.5523
-18.5048
-17.2146
-15.7655
-14.2266
-12.6782
-11.3516
-10.3455
-9.62966
-9.1832
-8.9891
-9.0324
-9.25715
-9.77111
-10.6494
-11.8411
-13.3181
-15.5134
-18.3368
-21.2702
-24.3074
-27.4354
-30.6404
-33.9017
-37.1824
-40.4271
85.5945
87.0025
88.4474
89.4374
89.7362
89.3554
88.3761
86.6827
84.1647
80.8072
76.6268
71.6263
65.7608
58.9129
50.8813
41.9802
30.2966
84.3336
83.0863
81.888
80.7586
79.7047
78.7446
77.9527
77.2964
76.6759
76.0981
75.5686
75.0918
74.6986
74.369
74.0744
73.814
73.589
73.3987
73.2419
73.1162
73.019
72.9474
72.8982
72.8679
72.8532
72.8505
72.8559
72.869
72.8728
23.0546
14.1668
3.63955
-6.26235
-14.1524
-19.4825
-22.376
-22.9141
-22.0394
-20.8309
-19.405
-17.8407
-16.2046
-14.5776
-13.1982
-12.1671
-11.4488
-11.0189
-10.8582
-10.9505
-11.2372
-11.8319
-12.8127
-14.1254
-16.1926
-18.9073
-21.7404
-24.6816
-27.7155
-30.8232
-33.9964
-37.2136
-40.4327
-43.5982
85.4683
86.9512
88.5539
89.8115
90.4568
90.4497
89.8544
88.5749
86.4761
83.5254
79.7481
75.1704
69.7849
63.5221
56.2248
47.6079
37.9066
25.0537
84.1723
82.9122
81.7123
80.5827
79.5457
78.6903
77.9827
77.3065
76.6708
76.0823
75.5467
75.1037
74.7304
74.3922
74.0885
73.8216
73.5917
73.398
73.2386
73.1113
73.0133
72.9416
72.8927
72.8632
72.8496
72.8479
72.8543
72.8685
72.8729
16.9523
6.94558
-4.45689
-14.2616
-21.326
-25.3642
-26.4289
-25.7933
-24.7102
-23.3281
-21.7543
-20.0653
-18.3247
-16.6141
-15.1785
-14.1209
-13.4003
-12.9885
-12.864
-13.0091
-13.3626
-14.0436
-15.1333
-17.0329
-19.6128
-22.3283
-25.1633
-28.0993
-31.1122
-34.1849
-37.3094
-40.4636
-43.6025
-46.6706
85.2992
86.8345
88.5567
90.0375
90.9909
91.341
91.1452
90.2974
88.6342
86.104
82.7312
78.5613
73.6175
67.8744
61.2315
53.4888
44.2622
33.6543
19.3935
83.9831
82.7173
81.514
80.4012
79.4832
78.726
77.9949
77.301
76.6525
76.0564
75.5624
75.1445
74.761
74.4117
74.1
73.8271
73.5925
73.3953
73.2336
73.105
73.0065
72.9348
72.8866
72.8582
72.8458
72.8453
72.8527
72.8681
72.873
10.1227
-1.3637
-13.4349
-22.6154
-28.3825
-30.1872
-29.8126
-28.8781
-27.5667
-25.9971
-24.2638
-22.4413
-20.5899
-18.7911
-17.2965
-16.2112
-15.4887
-15.0966
-15.011
-15.2129
-15.6381
-16.4111
-18.082
-20.4842
-23.0521
-25.7615
-28.588
-31.5027
-34.48
-37.5019
-40.5599
-43.6328
-46.6734
-49.6265
85.0965
86.665
88.473
90.1334
91.3566
92.0272
92.2084
91.8182
90.6206
88.5301
85.5713
81.8023
77.2744
71.9978
65.9241
58.918
50.7326
40.8669
29.2337
13.2373
83.769
82.4959
81.3087
80.3299
79.5256
78.7408
77.989
77.28
76.622
76.0764
75.6135
75.1837
74.787
74.4281
74.1089
73.8301
73.591
73.3906
73.2269
73.0971
72.9984
72.9272
72.8802
72.8531
72.8419
72.8426
72.8511
72.8677
72.8731
2.25552
-11.2291
-23.3143
-31.0028
-34.2279
-34.2017
-33.4247
-32.1689
-30.6041
-28.8337
-26.9315
-24.9682
-23.0007
-21.1102
-19.5545
-18.4409
-17.717
-17.3466
-17.3028
-17.5652
-18.067
-19.4127
-21.5719
-23.9449
-26.4955
-29.1904
-31.9938
-34.8728
-37.7999
-40.7546
-43.7286
-46.7028
-49.628
-52.4485
84.8642
86.4536
88.3194
90.1171
91.5718
92.5276
93.0396
93.086
92.3992
90.787
88.2596
84.894
80.7648
75.9167
70.3408
63.9632
56.6083
47.9873
37.4578
24.6909
6.47785
83.5241
82.2656
81.228
80.3797
79.5431
78.7345
77.965
77.2443
76.6471
76.1396
75.663
75.2175
74.8092
74.4413
74.1148
73.8302
73.587
73.3836
73.2181
73.0877
72.9892
72.9191
72.8734
72.8477
72.8379
72.8399
72.8495
72.8673
72.8733
-7.33074
-23.4565
-33.5465
-38.2035
-39.0462
-38.4433
-37.2441
-35.651
-33.8116
-31.8288
-29.7512
-27.6419
-25.5548
-23.5703
-21.9525
-20.8107
-20.0867
-19.7399
-19.7409
-20.0678
-21.1378
-22.952
-25.0593
-27.4002
-29.9271
-32.5947
-35.3611
-38.1905
-41.052
-43.9233
-46.7972
-49.656
-52.4488
-55.1198
84.5963
86.2052
88.11
90.0066
91.6542
92.8608
93.661
94.0892
93.9069
92.8368
90.7835
87.8331
84.0959
79.6476
74.5174
68.675
62.0174
54.3324
45.2988
34.075
20.1174
-1.07094
83.268
82.1751
81.2862
80.4004
79.5364
78.7071
77.9233
77.275
76.7239
76.2007
75.7058
75.2468
74.8278
74.4509
74.1172
73.8271
73.5799
73.374
73.2072
73.0767
72.9792
72.9105
72.8663
72.8422
72.8339
72.8372
72.848
72.867
72.8736
-20.1881
-37.3441
-43.3796
-44.3567
-44.117
-42.8696
-41.2264
-39.2943
-37.1725
-34.9676
-32.712
-30.4542
-28.2462
-26.1677
-24.488
-23.319
-22.5966
-22.2758
-22.3249
-23.2206
-24.7411
-26.474
-28.5297
-30.8345
-33.327
-35.9544
-38.6708
-41.4362
-44.2164
-46.9894
-49.7479
-52.4749
-55.119
-57.6239
84.3153
85.9151