/*--------------------------------*- C++ -*----------------------------------*\
  =========                 |
  \\      /  F ield         | OpenFOAM: The Open Source CFD Toolbox
   \\    /   O peration     | Website:  https://openfoam.org
    \\  /    A nd           | Version:  8
     \\/     M anipulation  |
\*---------------------------------------------------------------------------*/
FoamFile
{
    version     2.0;
    format      ascii;
    class       volScalarField;
    location    "0.31";
    object      p;
}
// * * * * * * * * * * * * * * * * * * * * * * * * * * * * * * * * * * * * * //

dimensions      [0 2 -2 0 0 0 0];

internalField   nonuniform List<scalar> 
15677
(
77.0739
76.6678
76.3341
76.8221
76.3328
76.2784
76.742
76.3518
76.2881
76.225
76.7225
76.3519
76.2886
76.2337
76.1428
76.7043
76.355
76.289
76.2331
76.1504
76.0601
76.6814
76.3577
76.2892
76.2335
76.1504
76.0668
75.9688
76.6566
76.3594
76.289
76.2337
76.1511
76.0669
75.9747
75.8583
76.6308
76.3604
76.2883
76.2334
76.1518
76.0676
75.9749
75.8635
75.7222
76.6039
76.3607
76.2872
76.2327
76.1522
76.0683
75.9756
75.8637
75.7266
75.554
76.5758
76.3605
76.2856
76.2317
76.1525
76.0689
75.9763
75.8646
75.727
75.5577
75.3462
76.5464
76.3597
76.2838
76.2306
76.153
76.0695
75.9771
75.8654
75.728
75.5582
75.3492
75.0912
76.5153
76.3581
76.2818
76.2296
76.1535
76.0703
75.9779
75.8664
75.7291
75.5594
75.3499
75.0934
74.7809
76.483
76.3557
76.28
76.2286
76.1541
76.0713
75.9791
75.8677
75.7304
75.5608
75.3513
75.0943
74.7823
74.4076
76.4529
76.3525
76.2784
76.2278
76.1553
76.0729
75.9808
75.8695
75.7322
75.5625
75.3531
75.096
74.7833
74.408
73.9636
76.4271
76.3488
76.2773
76.2271
76.1571
76.0754
75.9834
75.8721
75.7348
75.565
75.3554
75.0982
74.7854
74.4093
73.9631
73.4421
76.4049
76.3448
76.2766
76.2267
76.1597
76.079
75.9873
75.8761
75.7386
75.5686
75.3588
75.1013
74.7882
74.4117
73.9645
73.4406
72.837
76.3861
76.3399
76.2761
76.2268
76.1633
76.0843
75.993
75.8819
75.7443
75.5739
75.3636
75.1057
74.7921
74.4151
73.9673
73.4421
72.8342
72.1432
76.3699
76.3342
76.2755
76.2274
76.1677
76.0915
76.0011
75.8904
75.7526
75.5818
75.3708
75.1121
74.7978
74.4202
73.9716
73.4454
72.836
72.1392
71.3573
76.3559
76.3283
76.2747
76.2283
76.1724
76.1002
76.0122
75.9024
75.7647
75.5933
75.3814
75.1216
74.8062
74.4274
73.9779
73.4506
72.8398
72.1412
71.3518
70.4771
76.3438
76.3223
76.2739
76.2297
76.1776
76.1097
76.0258
75.9188
75.7817
75.6098
75.3969
75.1355
74.8184
74.438
73.9869
73.4582
72.8459
72.1455
71.354
70.47
69.5021
76.3336
76.3164
76.273
76.2315
76.1833
76.1199
76.0405
75.9387
75.8049
75.633
75.419
75.1558
74.8364
74.4535
74
73.4692
72.855
72.1526
71.3588
70.4723
69.4933
68.434
76.3253
76.3111
76.272
76.2335
76.1893
76.1309
76.0566
75.9604
75.833
75.6648
75.45
75.1849
74.8625
74.4762
74.0192
73.4851
72.8681
72.1632
71.3669
70.4776
69.4959
68.4234
67.2764
76.3186
76.3065
76.2711
76.2358
76.1956
76.1424
76.0738
75.984
75.8637
75.7035
75.4926
75.2255
74.8998
74.5091
74.0473
73.5085
72.8872
72.1785
71.379
70.4867
69.5016
68.4261
67.2639
66.0351
76.3131
76.3025
76.2701
76.2382
76.2021
76.1543
76.0919
76.0093
75.8971
75.7456
75.5443
75.2812
74.952
74.5561
74.0881
73.5427
72.9151
72.2009
71.3967
70.5003
69.5115
68.4321
67.2666
66.0206
64.7224
76.3085
76.2992
76.2693
76.2404
76.2085
76.1665
76.1108
76.036
75.933
75.7916
75.6007
75.349
75.0235
74.6219
74.1463
73.5923
72.9559
72.2336
71.4223
70.5202
69.5265
68.4427
67.2727
66.023
64.7043
63.3664
76.3046
76.2963
76.2685
76.2423
76.2144
76.1784
76.1302
76.0638
75.9709
75.841
75.6625
75.4231
75.1108
74.7122
74.2278
73.6631
73.0152
72.2815
71.4599
70.549
69.5483
68.4588
67.2837
66.0287
64.7042
63.3076
61.9119
76.3013
76.2939
76.2678
76.2441
76.2196
76.1891
76.149
76.0925
76.0105
75.8932
75.7289
75.5044
75.2063
74.8225
74.3398
73.7624
73.0999
72.3511
71.5151
70.5914
69.5801
68.4823
67.3005
66.0395
64.7083
63.3134
61.844
60.3436
76.2984
76.2917
76.2671
76.2457
76.2242
76.1987
76.1662
76.1204
76.0512
75.9478
75.7992
75.5918
75.3112
74.9435
74.4769
73.899
73.2188
72.4506
71.5953
70.6538
69.627
68.5165
67.3249
66.0562
64.7173
63.3144
61.8492
60.3187
58.7297
76.296
76.2899
76.2665
76.247
76.2283
76.2073
76.1815
76.1458
76.0909
76.0041
75.8728
75.6846
75.4243
75.0765
74.6275
74.0667
73.3828
72.5907
71.7105
70.7448
69.6962
68.5672
67.3608
66.0806
64.7322
63.32
61.8428
60.308
58.7214
57.0842
76.2939
76.2882
76.2659
76.2482
76.2319
76.2148
76.1951
76.1686
76.1272
76.0591
75.9489
75.7818
75.5445
75.2202
74.7935
74.2511
73.5844
72.7845
71.873
70.8759
69.7977
68.6426
67.4144
66.117
64.755
63.332
61.8462
60.2979
58.7049
57.0796
55.2331
76.292
76.2868
76.2654
76.2492
76.2351
76.2214
76.2072
76.1889
76.1598
76.1094
76.0232
75.8824
75.6705
75.3732
74.9731
74.4549
73.807
73.0235
72.0985
71.0614
69.9444
68.7537
67.4947
66.1721
64.7902
63.3521
61.8566
60.302
58.6954
57.0609
55.2316
53.1608
76.2904
76.2856
76.265
76.2501
76.2378
76.2272
76.2179
76.207
76.1889
76.1546
76.0913
75.981
75.8013
75.534
75.1648
74.676
74.0534
73.2879
72.3774
71.3197
70.1529
68.9152
67.6142
66.2558
64.845
63.3847
61.8745
60.312
58.7004
57.0526
55.2142
53.1613
51.0888
76.289
76.2845
76.2645
76.2509
76.2402
76.2323
76.2272
76.2229
76.2147
76.1951
76.1527
76.0714
75.9296
75.7011
75.3666
74.9124
74.3215
73.5815
72.6869
71.6404
70.4443
69.1459
67.789
66.3817
64.9301
63.4377
61.9046
60.3285
58.7103
57.057
55.206
53.1454
51.0905
49.0417
76.2878
76.2835
76.2641
76.2516
76.2423
76.2368
76.2355
76.237
76.2376
76.231
76.2076
76.153
76.0475
75.8654
75.5769
75.1621
74.6089
73.9018
73.0317
71.9975
70.8078
69.4699
68.0402
66.5677
65.0603
63.5226
61.9554
60.3568
58.7261
57.0662
55.2078
53.1369
51.0762
49.0434
47.0385
76.2826
76.2863
76.2636
76.2521
76.2441
76.2407
76.2427
76.2494
76.2578
76.2629
76.2565
76.2261
76.1541
76.0167
75.7841
75.4227
74.9132
74.2462
73.4091
72.3968
71.2141
69.8759
68.3951
66.8373
65.255
63.6549
62.0389
60.4054
58.7528
57.0809
55.2149
53.1359
51.0673
49.0301
47.0398
45.0917
76.2633
76.2816
76.2845
76.2527
76.2457
76.2442
76.2491
76.2603
76.2756
76.2912
76.3
76.2913
76.2497
76.1537
75.9753
75.6803
75.2318
74.6121
73.8162
72.8354
71.6701
70.3318
68.8424
67.2205
65.5398
63.8556
62.1716
60.4869
58.799
57.1053
55.2269
53.1399
51.0634
49.0201
47.0271
45.0925
43.2101
76.2531
76.2629
76.2804
76.2826
76.2471
76.2472
76.2547
76.2699
76.2914
76.3161
76.3385
76.3493
76.3352
76.2769
76.1488
75.9186
75.5476
74.9963
74.2501
73.3102
72.1729
70.8456
69.347
67.7065
65.9479
64.1523
62.3758
60.6185
58.8774
57.1479
55.2472
53.1474
51.0636
49.0129
47.0158
45.0802
43.2104
41.4011
76.2482
76.2537
76.2624
76.2792
76.2808
76.2498
76.2597
76.2783
76.3053
76.3382
76.3725
76.4008
76.4113
76.3871
76.3051
76.1352
75.8406
75.3784
74.7075
73.8181
72.7195
71.4145
69.9183
68.2575
66.4687
64.5808
62.6806
60.8234
59.0058
57.2215
55.2838
53.1609
51.0653
49.0086
47.0051
45.0672
43.1981
41.4007
39.6702
76.2521
76.2498
76.2544
76.2619
76.2779
76.279
76.264
76.2858
76.3175
76.3576
76.4026
76.4464
76.4789
76.4853
76.4451
76.3308
76.1076
75.734
75.1639
74.3556
73.3065
72.0356
70.5537
68.8844
67.0626
65.1317
63.1246
61.1324
59.2085
57.3444
55.3498
53.1883
51.0706
49.0036
46.9955
45.0527
43.1834
41.3883
39.669
38.0209
76.2677
76.2549
76.2514
76.2549
76.2614
76.2766
76.2772
76.2924
76.3283
76.3748
76.4292
76.4867
76.5388
76.5727
76.5702
76.5064
76.3492
76.059
75.5902
74.8943
73.9304
72.7056
71.2505
69.585
67.7417
65.7634
63.6997
61.5863
59.5172
57.5412
55.4634
53.2424
51.0867
48.9993
46.9828
45.0374
43.165
41.3716
39.6564
38.019
36.4553
76.2979
76.2723
76.2578
76.2529
76.2554
76.2609
76.2752
76.2754
76.3379
76.39
76.4528
76.5224
76.5919
76.6503
76.6816
76.6635
76.5666
76.3538
75.981
75.3992
74.5584
73.421
72.0058
70.3571
68.5044
66.4896
64.3629
62.1787
59.9749
57.8448
55.6496
53.3413
51.1258
49.0022
46.9677
45.0164
43.1436
41.3494
39.6378
38.0062
36.4527
34.9737
76.3459
76.3048
76.2767
76.2606
76.2544
76.2558
76.2603
76.2738
76.2736
76.4034
76.4736
76.554
76.6389
76.7191
76.7806
76.8036
76.7614
76.6197
76.3365
75.8637
75.1495
74.1446
72.8163
71.1982
69.3493
67.3095
65.1295
62.8658
60.5765
58.2994
55.942
53.5099
51.2059
49.024
46.9559
44.9896
43.1139
41.3219
39.6117
37.9856
36.4396
34.9706
33.5757
76.4147
76.3557
76.3112
76.281
76.2633
76.2557
76.2562
76.2597
76.2723
76.2719
76.492
76.582
76.6805
76.7801
76.8686
76.9284
76.9355
76.8585
76.6581
76.2876
75.6954
74.8287
73.6404
72.1057
70.2747
68.2227
65.9996
63.6644
61.2788
58.9017
56.3854
53.7821
51.3514
49.0817
46.9582
44.9618
43.0749
41.2833
39.5781
37.9557
36.417
34.9571
33.572
32.2597
76.5076
76.4283
76.3646
76.3174
76.2851
76.2657
76.2569
76.2564
76.259
76.2708
76.2701
76.6068
76.7176
76.8342
76.9466
77.0393
77.0907
77.0723
76.9475
76.6721
76.1953
75.4632
74.4234
73.0334
71.2787
69.2286
66.9744
64.5762
62.0997
59.6093
56.9786
54.2018
51.5956
49.1995
46.991
44.9431
43.0304
41.2317
39.5305
37.9161
36.3835
34.9327
33.5583
32.2554
31.0233
76.6276
76.526
76.4403
76.3731
76.3233
76.289
76.268
76.2579
76.2565
76.2583
76.2693
76.2682
76.7503
76.8823
77.0158
77.1377
77.2289
77.2633
77.2072
77.0192
76.6502
76.0464
75.1526
73.9194
72.3112
70.3264
68.0546
65.6038
63.0429
60.4417
57.6809
54.7707
51.9804
49.4086
47.0772
44.9489
42.9896
41.17
39.4663
37.8596
36.3381
34.8956
33.5319
32.2414
31.0185
29.864
76.7777
76.6523
76.5419
76.4518
76.3813
76.3288
76.2925
76.27
76.2587
76.2565
76.2576
76.2676
76.2664
76.9248
77.0775
77.2253
77.3518
77.4336
77.4397
77.3313
77.062
76.5789
75.8259
74.7487
73.3028
71.4624
69.2409
66.7496
64.1124
61.4042
58.5135
55.4512
52.5103
49.7485
47.2453
45.0003
42.967
41.1068
39.3875
37.783
36.2729
34.8446
33.4916
32.2133
31.0043
29.8587
28.7784
76.9605
76.8103
76.673
76.5571
76.4628
76.3889
76.3339
76.2957
76.2718
76.2593
76.2563
76.2568
76.2659
76.2647
77.132
77.3033
77.4612
77.5852
77.6472
77.6112
77.4333
77.0625
76.4428
75.5176
74.2356
72.5598
70.4765
68.0162
65.3127
62.5028
59.4832
56.2653
53.1522
50.2264
47.5315
45.1226
42.9813
41.0551
39.3018
37.6873
36.1841
34.7711
33.4352
32.1698
30.9745
29.8442
28.7728
27.7633
77.1777
77.003
76.837
76.6928
76.5716
76.473
76.3959
76.3385
76.2986
76.2733
76.2598
76.256
76.256
76.2643
76.263
77.3723
77.5588
77.7204
77.8324
77.8617
77.7671
77.4998
77.005
76.2251
75.1046
73.5978
71.6776
69.3446
66.6486
63.744
60.5982
57.2215
53.9277
50.8139
47.9459
45.3481
43.0543
41.0308
39.2208
37.5795
36.072
34.6706
33.3537
32.1084
30.9282
29.8129
28.7581
27.7573
26.8151
77.43
77.2323
77.0371
76.8626
76.7118
76.5851
76.4824
76.4022
76.3426
76.301
76.2745
76.2601
76.2555
76.2551
76.2626
76.2614
77.645
77.841
77.9977
78.0855
78.0664
77.8938
77.5149
76.8721
75.9075
74.5695
72.82
70.6443
68.0601
65.1356
61.8679
58.3306
54.8471
51.5316
48.4649
45.6893
43.2137
41.0521
39.1572
37.4694
35.9427
34.5427
33.242
32.0193
30.8619
29.7639
28.7253
27.7424
26.8087
25.9302
77.7171
77.4998
77.2757
77.0698
76.887
76.7293
76.5973
76.4907
76.4077
76.3461
76.303
76.2754
76.2602
76.2549
76.2543
76.2611
76.2599
77.9476
78.1454
78.2857
78.3343
78.248
77.9757
77.4608
76.6447
75.4714
73.8951
71.888
69.4506
66.6169
63.303
59.6053
55.9235
52.391
49.1069
46.1272
43.4736
41.1415
39.1254
37.3664
35.804
34.3927
33.0991
31.897
30.7658
29.6931
28.6738
27.7082
26.7936
25.9236
25.1052
78.0367
77.8055
77.5544
77.3171
77.1009
76.9094
76.745
76.6082
76.498
76.4125
76.349
76.3046
76.276
76.2601
76.254
76.2534
76.2596
76.2585
78.2757
78.4647
78.5744
78.5659
78.3909
77.9945
77.3178
76.3028
74.8977
73.0648
70.7897
68.0866
64.8443
61.0606
57.1729
53.407
49.8837
46.6769
43.8196
41.3141
39.1425
37.2812
35.6622
34.2263
32.9294
31.7399
30.6334
29.5903
28.5989
27.6545
26.7582
25.9083
25.0981
24.3364
78.3846
78.1477
77.8739
77.6067
77.3566
77.1295
76.9296
76.7589
76.6176
76.5042
76.4164
76.3513
76.3057
76.2763
76.2598
76.2531
76.2526
76.2581
76.2571
78.6225
78.7895
78.8512
78.7644
78.4766
77.9299
77.0648
75.8258
74.1677
72.0638
69.5113
66.3869
62.6405
58.6136
54.5973
50.8102
47.3488
44.2618
41.5592
39.2234
37.2251
35.5241
34.0467
32.7363
31.5515
30.4631
29.4487
28.4898
27.5757
26.7024
25.8716
25.0826
24.3284
23.6213
78.7542
78.5231
78.2331
77.9396
77.6565
77.3927
77.1549
76.9472
76.7709
76.6256
76.5093
76.4194
76.3528
76.3063
76.2762
76.2593
76.252
76.2517
76.2567
76.2557
78.9786
79.1071
79.1005
78.9114
78.4845
77.76
76.6798
75.1932
73.2639
70.875
67.8944
64.2378
60.1928
55.9808
51.9034
48.1561
44.8081
41.8811
39.3609
37.2114
35.3949
33.8569
32.5204
31.3332
30.2571
29.266
28.3396
27.4609
26.6201
25.8141
25.0449
24.3128
23.6105
23.0315
79.1364
78.926
78.6293
78.3154
78.0022
77.7019
77.4248
77.1772
76.9623
76.7809
76.6319
76.5131
76.4214
76.3537
76.3063
76.2758
76.2587
76.2509
76.2508
76.2553
76.2544
79.3318
79.4023
79.3037
78.986
78.3917
77.4616
76.1404
74.3848
72.1665
69.3477
65.8109
61.8006
57.5075
53.1811
49.1134
45.4682
42.2837
39.5523
37.2369
35.2858
33.6555
32.2805
31.0825
30.0149
29.0436
28.1454
27.3026
26.5
25.7285
24.9858
24.2743
23.5957
23.0266
22.5355
79.519
79.3483
79.0578
78.7322
78.3938
78.059
77.7421
77.4526
77.1961
76.9748
76.7888
76.6365
76.5155
76.4225
76.3538
76.306
76.2752
76.2578
76.2499
76.2498
76.254
76.2532
79.6665
79.6564
79.4397
78.9646
78.1742
77.0105
75.4245
73.3788
70.7317
67.3345
63.3907
59.0715
54.6024
50.2402
46.2563
42.7741
39.7978
37.2912
35.1969
33.4515
32.0088
30.7946
29.7312
28.7788
27.9077
27.0979
26.3343
25.6035
24.8972
24.214
23.5567
23.0159
22.5381
22.015
79.8865
79.7788
79.5113
79.186
78.83
78.4648
78.1092
77.7768
77.4761
77.2114
76.9843
76.7943
76.6394
76.5166
76.4226
76.3534
76.3052
76.2743
76.2568
76.2489
76.2487
76.2528
76.252
79.9642
79.8482
79.4845
78.8223
77.8062
76.3832
74.5079
72.0357
68.7894
64.937
60.6315
56.0781
51.5144
47.1972
43.3677
40.1026
37.3714
35.1112
33.2486
31.7118
30.455
29.3976
28.464
27.6218
26.8459
26.1198
25.431
24.7678
24.1227
23.4954
22.9766
22.529
22.015
21.4561
80.22
80.2035
79.9799
79.6708
79.3079
78.9186
78.5274
78.1525
77.8059
77.495
77.223
76.9909
76.7976
76.6405
76.5165
76.4218
76.3524
76.3042
76.2732
76.2556
76.2478
76.2476
76.2516
76.2507
80.2031
79.9533
79.4124
78.5321
77.2625
75.5523
73.2528
70.1631
66.4231
62.1703
57.582
52.8731
48.2936
44.0969
40.4842
37.4807
35.0222
33.0228
31.397
30.0682
28.9932
28.0873
27.2779
26.5403
25.8546
25.2075
24.5891
23.9893
23.4016
22.9149
22.49
22.0032
21.4515
20.8473
80.4974
80.605
80.4507
80.1777
79.8222
79.4182
78.9966
78.5813
78.1886
77.8292
77.5091
77.2308
76.9945
76.7984
76.6398
76.5152
76.4203
76.3509
76.3028
76.272
76.2544
76.2467
76.2466
76.2502
76.2493
80.3583
79.9452
79.1954
78.0673
76.5127
74.3802
71.4495
67.84
63.677
59.1052
54.3046
49.5105
44.9883
40.9808
37.638
34.9313
32.7648
31.034
29.6452
28.5205
27.6214
26.8607
26.1693
25.5308
24.9301
24.3573
23.8048
23.2645
22.8192
22.4278
21.9639
21.4362
20.8403
20.1855
80.693
80.9627
80.9077
80.6954
80.3656
79.9593
79.5153
79.0637
78.6261
78.2173
77.8463
77.5182
77.2345
76.9948
76.797
76.6377
76.5129
76.4182
76.349
76.3011
76.2706
76.253
76.2456
76.2454
76.2488
76.248
80.4023
79.795
78.8052
77.3941
75.4183
72.6465
69.1829
65.1427
60.6361
55.8021
50.8465
46.0341
41.6402
37.885
34.8567
32.4728
30.61
29.1496
27.9943
27.0676
26.3368
25.7142
25.1345
24.5894
24.0686
23.5654
23.0747
22.6791
22.3304
21.9009
21.3958
20.8233
20.1775
19.4688
80.7782
81.2526
81.3315
81.2093
80.9279
80.5359
80.0803
79.5989
79.1195
78.6616
78.2382
77.8571
77.5222
77.2343
76.9924
76.7937
76.6343
76.5098
76.4155
76.3467
76.2993
76.269
76.2516
76.2444
76.244
76.2474
76.2466
80.3047
79.4727
78.2051
76.3729
73.7549
70.4482
66.5573
62.158
57.3474
52.293
47.24
42.4799
38.2856
34.8404
32.1631
30.1196
28.5652
27.3722
26.4438
25.7069
25.1362
24.6441
24.1697
23.7123
23.2663
22.8283
22.4851
22.1878
21.8015
21.3311
20.7817
20.1602
19.4604
18.6941
80.7207
81.4483
81.6995
81.7017
81.4962
81.1389
80.6863
80.1845
79.6685
79.1636
78.6873
78.2511
77.8614
77.5211
77.2304
76.9875
76.7888
76.6298
76.506
76.4123
76.3441
76.2971
76.2673
76.2502
76.243
76.2425
76.2459
76.2453
80.033
78.9391
77.254
74.7816
71.6338
67.9103
63.652
58.9153
53.8268
48.5977
43.5131
38.8817
34.9577
31.8739
29.5752
27.8819
26.6346
25.7024
24.9917
24.4354
24.0157
23.6467
23.271
22.8956
22.5197
22.2331
21.9903
21.6562
21.2294
20.715
20.1176
19.4428
18.6853
17.8569
80.4843
81.5205
81.9861
82.1519
82.0545
81.7571
81.3259
80.8164
80.2716
79.7236
79.1956
78.7031
78.2558
77.8592
77.5154
77.2235
76.9805
76.7824
76.6243
76.5015
76.4087
76.3412
76.2949
76.2657
76.2486
76.2414
76.2411
76.2445
76.244
79.5444
78.0497
75.7378
72.7444
69.1928
65.0987
60.4783
55.4163
50.0822
44.735
39.695
35.273
31.6869
29.0078
27.1066
25.7662
24.8199
24.1387
23.6351
23.2493
22.9716
22.7177
22.4344
22.1358
21.9169
21.7337
21.455
21.0812
20.6109
20.0489
19.3993
18.6673
17.8478
16.9524
80.0215
81.4374
82.1624
82.5355
82.5836
82.376
81.9891
81.4881
80.9254
80.3407
79.7637
79.2151
78.7085
78.2524
77.8514
77.5059
77.2139
76.9717
76.7748
76.618
76.4964
76.4046
76.338
76.2929
76.264
76.2469
76.2398
76.2395
76.2431
76.2428
78.69
76.6047
73.79
70.4049
66.4827
62.0099
57.0276
51.6591
46.1234
40.7279
35.8177
31.6872
28.5007
26.2602
24.7668
23.776
23.1208
22.6785
22.3704
22.1447
21.9996
21.8532
21.6561
21.5223
21.4111
21.1935
20.876
20.4593
19.9421
19.3287
18.6228
17.8293
16.9431
15.9759
81.1573
79.1814
82.196
82.8256
83.0613
82.9785
82.6632
82.1913
81.6248
81.0124
80.3914
79.7884
79.2218
78.7039
78.2419
77.8386
77.493
77.202
76.9614
76.7662
76.6109
76.4906
76.4
76.3357
76.2912
76.2622
76.245
76.238
76.238
76.2419
76.2417
77.2853
74.7433
71.5546
67.8
63.4881
58.6278
53.2906
47.6453
41.966
36.6051
31.9166
28.1573
25.423
23.6447
22.5617
21.9118
21.5347
21.3182
21.1934
21.1172
21.0955
21.0494
21.028
21.0077
20.864
20.6091
20.2498
19.7869
19.2191
18.5502
17.7838
16.9243
15.9666
14.9228
82.0476
80.5387
77.7848
82.9907
83.4623
83.5439
83.3327
82.9147
82.3625
81.7347
81.0769
80.4231
79.7973
79.2161
78.6905
78.2255
77.8218
77.4772
77.1882
76.9497
76.7565
76.6029
76.4845
76.397
76.3339
76.2892
76.26
76.243
76.2362
76.2365
76.2407
76.2406
75.4789
72.6062
69.0576
64.9057
60.1889
54.9384
49.2616
43.3819
37.6323
32.4008
28.0291
24.7146
22.4743
21.1712
20.4936
20.172
20.0582
20.0534
20.0995
20.1622
20.2554
20.4009
20.5014
20.4512
20.2723
19.9771
19.5727
19.0601
18.4378
17.7093
16.8777
15.9474
14.9134
13.7882
82.9937
81.5978
79.4344
76.0013
83.7572
84.0491
83.979
83.6447
83.1291
82.5015
81.8173
81.1184
80.4356
79.7909
79.1996
78.6697
78.2038
77.8013
77.4591
77.1727
76.9368
76.7457
76.5945
76.4805
76.3954
76.3317
76.2868
76.2576
76.2408
76.2345
76.235
76.2395
76.2395
73.4073
70.212
66.2685
61.6995
56.568
50.9301
44.9393
38.8829
33.1521
28.1544
24.1933
21.3873
19.6705
18.8455
18.5623
18.5532
18.6869
18.8792
19.0838
19.2756
19.5781
19.8572
19.9319
19.8494
19.6325
19.294
18.841
18.2748
17.5939
16.8013
15.8999
14.8939
13.7788
12.5673
83.9118
82.7333
80.6801
77.9617
73.9638
84.4666
84.5808
84.3646
83.9125
83.3048
82.6074
81.8717
81.1362
80.4293
79.7713
79.174
78.6426
78.1779
77.778
77.439
77.1557
76.9223
76.7344
76.5895
76.4792
76.393
76.3289
76.2839
76.255
76.2389
76.2329
76.2335
76.2383
76.2384
71.0831
67.5247
63.1642
58.1631
52.6099
46.5943
40.3277
34.1694
28.5624
23.9088
20.4465
18.2001
17.0232
16.67
16.7653
17.0511
17.4154
17.7905
18.142
18.5617
19.0107
19.2696
19.3163
19.1989
18.941
18.5557
18.0503
17.4266
16.6828
15.8215
14.8455
13.759
12.5578
11.2552
84.7658
83.8453
82.0447
79.4025
76.2281
71.6813
85.1128
85.0549
84.698
84.1342
83.4406
82.6794
81.8976
81.1311
80.4067
79.7405
79.1406
78.6101
78.1484
77.7523
77.4169
77.1367
76.9073
76.7282
76.5889
76.4766
76.3899
76.3256
76.2808
76.2528
76.237
76.2312
76.2319
76.2371
76.2373
68.464
64.5215
59.7266
54.2792
48.3006
41.9254
35.4367
29.2711
23.9067
19.7091
16.8232
15.1726
14.5394
14.6442
15.0987
15.66
16.2382
16.7823
17.3845
17.964
18.3977
18.6346
18.6509
18.4958
18.1938
17.7581
17.1966
16.511
15.6998
14.7652
13.7097
12.5375
11.246
9.84757
85.5481
84.8886
83.3955
81.0073
77.8703
74.2587
69.1053
85.6928
85.4682
84.9769
84.3082
83.5357
82.7166
81.8954
81.1062
80.3704
79.7002
79.1008
78.5734
78.116
77.7242
77.3924
77.1171
76.8996
76.7275
76.5861
76.473
76.3859
76.3219
76.2783
76.2508
76.235
76.2293
76.2303
76.2358
76.2363
65.5279
61.186
55.9386
50.0305
43.6265
36.921
30.2835
24.226
19.2344
15.6001
13.3538
12.3193
12.2226
12.7653
13.5567
14.3739
15.1495
15.9726
16.751
17.3187
17.7356
17.9486
17.9321
17.7364
17.3868
16.8971
16.2753
15.5235
14.6402
13.6275
12.4876
11.2253
9.83887
8.33918
86.2545
85.8536
84.6732
82.6098
79.7204
76.1302
72.009
66.2123
86.2022
85.8173
85.1991
84.4334
83.589
82.72
81.8691
81.0645
80.3227
79.652
79.0557
78.5331
78.0806
77.6929
77.3672
77.1074
76.8993
76.7248
76.582
76.4683
76.3814
76.3191
76.2764
76.2486
76.2329
76.2273
76.2285
76.2345
76.2352
62.26
57.5031
51.7823
45.398
38.5736
31.5822
24.8937
19.0816
14.5986
11.6244
10.0628
9.64954
10.0724
11.0281
12.1329
13.1864
14.2767
15.2963
16.0675
16.6222
17.0209
17.2079
17.156
16.9166
16.5158
15.9682
15.2817
14.4591
13.4992
12.4036
11.1749
9.81848
8.33264
6.44045
86.8796
86.7348
85.8679
84.1358
81.5773
78.2493
74.1423
69.4567
62.9886
86.637
86.0997
85.3632
84.5085
83.6011
82.6939
81.8225
81.0089
80.2653
79.5975
79.0063
78.4893
78.0415
77.661
77.3552
77.1078
76.8966
76.7202
76.5764
76.4629
76.3786
76.3175
76.2742
76.2461
76.2305
76.2251
76.2267
76.2332
76.2341
58.6475
53.4562
47.2358
40.3587
33.1265
25.9158
19.3043
13.8943
10.0543
7.81989
6.96902
7.16795
8.08532
9.42624
10.8206
12.2359
13.5486
14.5673
15.3306
15.8712
16.2499
16.4087
16.3186
16.0321
15.5764
14.9667
14.2113
13.3133
12.272
11.089
9.76746
8.313
6.43162
4.19567
87.4179
87.5244
86.9742
85.5743
83.3538
80.3778
76.5611
71.8809
66.5948
59.4229
86.9937
86.3134
85.4674
84.534
83.5776
82.6431
81.7588
80.9416
80.2003
79.5379
78.9528
78.4409
78.0016
77.6462
77.3565
77.1053
76.8915
76.7137
76.5699
76.4601
76.3775
76.3155
76.2716
76.2433
76.2278
76.2228
76.2248
76.2319
76.233
54.6752
49.0237
42.2719
34.8828
27.269
19.9386
13.5655
8.7279
5.65484
4.21869
4.08497
4.87419
6.2556
7.95242
9.77211
11.4442
12.7647
13.7825
14.5371
15.062
15.4189
15.5471
15.4157
15.0785
14.5641
13.888
13.0591
12.0812
10.9541
9.67968
8.26179
6.40881
4.18466
1.9279
87.8653
88.2142
87.9832
86.9203
85.0374
82.4191
78.9866
74.6273
69.3402
63.4203
55.5014
87.2697
86.4559
85.5121
84.5162
83.5241
82.5716
81.6812
80.8651
80.1291
79.4732
78.8937
78.3915
77.9834
77.6487
77.3542
77.0996
76.8839
76.7059
76.5673
76.4599
76.376
76.3129
76.2686
76.2402
76.225
76.2202
76.2228
76.2306
76.2319
50.3221
44.1775
36.8516
28.934
20.9921
13.683
7.7419
3.65072
1.44953
0.845487
1.41629
2.76437
4.57565
6.77739
8.90027
10.5932
11.9222
12.9386
13.6834
14.1911
14.524
14.6189
14.4431
14.0515
13.4742
12.7275
11.8208
10.7585
9.54136
8.17221
6.3554
4.15993
1.91959
-0.336092
88.2184
88.7973
88.8845
88.1642
86.624
84.3601
81.3172
77.3717
72.4431
66.5224
59.9313
51.2047
87.4618
86.527
85.5043
84.4621
83.4455
82.4832
81.5922
80.7812
80.052
79.4019
78.8333
78.3695
77.9875
77.6466
77.3478
77.0907
76.8746
76.7036
76.5685
76.4593
76.3737
76.3098
76.2651
76.2368
76.2218
76.2176
76.2207
76.2293
76.2309
45.5607
38.8773
30.9255
22.4776
14.3008
7.20142
1.91165
-1.26755
-2.51892
-2.2837
-1.03681
0.831517
3.23979
5.80227
7.96483
9.68006
11.018
12.0325
12.7662
13.2548
13.5613
13.6201
13.3964
12.9467
12.3024
11.4807
10.4917
9.34091
8.03048
6.26243
4.10381
1.89771
-0.342648
-2.58392
88.4729
89.2682
89.6678
89.2945
88.1036
86.196
83.5405
80.0111
75.5271
70.0142
63.435
56.1237
46.5067
87.5686
86.535
85.4526
84.3777
83.3465
82.3813
81.4945
80.6902
79.9669
79.329
78.8068
78.3755
77.9859
77.6397
77.3375
77.0795
76.8729
76.7068
76.5692
76.4577
76.3707
76.3062
76.2612
76.233
76.2184
76.2147
76.2185
76.2279
76.23
40.3513
33.064
24.4294
15.4755
7.21519
0.569624
-3.83588
-5.96012
-6.21774
-5.16072
-3.27924
-0.700825
2.13416
4.75823
6.96336
8.70232
10.0492
11.0611
11.7822
12.2495
12.5272
12.5466
12.2714
11.7596
11.0441
10.1432
9.06787
7.8252
6.11612
4.00683
1.84302
-0.363065
-2.58959
-4.81145
88.6262
89.6206
90.3237
90.2992
89.4648
87.9166
85.651
82.5356
78.4915
73.4605
67.3539
60.0879
51.9904
41.3732
87.5994
86.4899
85.3643
84.2685
83.231
82.2686
81.3882
80.5897
79.8799
79.2974
78.8152
78.3745
77.9782
77.6277
77.3243
77.0789
76.8789
76.7095
76.5686
76.4551
76.367
76.3019
76.2568
76.2288
76.2147
76.2116
76.2162
76.2266
76.2291
34.6293
26.6497
17.2763
7.88968
-0.219992
-6.11287
-9.40573
-10.3688
-9.62434
-7.78534
-5.0509
-1.96522
0.953593
3.64355
5.8939
7.65752
9.01329
10.0214
10.7283
11.1719
11.418
11.3947
11.0642
10.4863
9.69536
8.71113
7.54603
5.90503
3.85514
1.74547
-0.416415
-2.60978
-4.81633
-7.01291
88.6887
89.8497
90.8401
91.1669
90.695
89.5095
87.6371
84.9406
81.3304
76.7663
71.1882
64.4801
56.4912
47.5231
35.748
87.5663
86.4006
85.246
84.1394
83.1026
82.1459
81.2707
80.4868
79.8425
79.3087
78.815
78.3661
77.9644
77.612
77.3249
77.0883
76.8841
76.7105
76.5669
76.4516
76.3625
76.2969
76.2518
76.2242
76.2107
76.2083
76.2138
76.2254
76.2284
28.302
19.5185
9.36829
-0.29329
-7.92298
-12.7264
-14.7055
-14.4463
-12.7276
-9.85083
-6.50729
-3.31099
-0.302412
2.4573
4.75479
6.54367
7.90785
8.91108
9.60165
10.0191
10.2303
10.1607
9.77102
9.12277
8.25243
7.18136
5.61876
3.63772
1.59126
-0.513639
-2.66265
-4.83615
-7.01694
-9.18096
88.6744
89.9669
91.2048
91.8808
91.781
90.9615
89.4847
87.2142
84.0411
79.9308
74.8531
68.7325
61.4128
52.6533
42.7023
29.5466
87.4799
86.2749
85.1037
83.9947
82.9623
82.0098
81.1503
80.4431
79.8572
79.3094
78.8058
78.3502
77.9459
77.6144
77.3389
77.097
76.8873
76.71
76.564
76.4471
76.3571
76.2912
76.2462
76.2191
76.2064
76.205
76.2115
76.2242
76.2277
21.2437
11.5191
0.613572
-9.04559
-15.7677
-19.1376
-19.65
-18.1598
-15.1592
-11.541
-8.05126
-4.73658
-1.63307
1.19911
3.5451
5.35941
6.73131
7.72807
8.40008
8.78835
8.9612
8.84143
8.3885
7.66592
6.71249
5.24517
3.3444
1.37012
-0.668853
-2.76013
-4.88825
-7.0361
-9.18414
-11.3081
88.5961
89.9894
91.4272
92.4207
92.7025
92.2595
91.1786
89.3422
86.6136
82.9542
78.3538
72.7765
66.1193
58.1715
48.5815
37.4924
22.6514
87.3496
86.1202
84.9425
83.8359
82.8062
81.8701
81.0994
80.4617
79.8591
79.2994
78.7877
78.3284
77.9504
77.6339
77.3519
77.1032
76.8888
76.7081
76.5597
76.4414
76.3507
76.2846
76.24
76.2135
76.2019
76.2016
76.2093
76.2231
76.2271
13.2626
2.45506
-9.05087
-18.2878
-23.5838
-25.2071
-24.1664
-21.0554
-17.1374
-13.3238
-9.67797
-6.23841
-3.03663
-0.130286
2.26485
4.10433
5.48279
6.47111
7.12192
7.47773
7.60841
7.43435
6.91399
6.11333
4.76533
2.96276
1.07256
-0.891611
-2.9164
-4.9858
-7.08703
-9.2025
-11.3104
-13.3873
88.465
89.9328
91.5267
92.791
93.4317
93.381
92.7035
91.308
89.0352
85.8301
81.6947
76.6243
70.5653
63.3752
54.7771
44.2827
31.8466
14.881
87.1842
85.9429
84.7645
83.6585
82.6455
81.8115
81.1227
80.465
79.8483
79.2788
78.7621
78.3356
77.9768
77.6525
77.3619
77.1072
76.8884
76.7046
76.554
76.4345
76.3432
76.2771
76.2331
76.2076
76.1973
76.1982
76.207
76.222
76.2266
4.06794
-7.91553
-19.6267
-27.8819
-31.1622
-30.7995
-27.6716
-23.3938
-19.2099
-15.189
-11.3794
-7.8114
-4.50963
-1.52861
0.915498
2.77913
4.16239
5.13982
5.76638
6.08602
6.17035
5.93765
5.3458
4.15301
2.47388
0.686399
-1.19071
-3.14001
-5.14278
-7.18415
-9.25199
-11.3279
-13.3888
-15.4115
88.2914
89.811
91.5224
93.0105
93.969
94.2925
94.0328
93.0935
91.2902
88.5491
84.8744
80.2865
74.7721
68.2502
60.528
51.2539
39.7607
25.7033
5.95277
86.9913
85.7453
84.5647
83.4753
82.5786
81.8401
81.1276
80.4534
79.8248
79.2489
78.7726
78.3702
78.0019
77.6672
77.3693
77.109
76.886
76.6992
76.5467
76.4261
76.3345
76.2688
76.2257
76.2015
76.1926
76.1947
76.2048
76.221
76.2262
-6.80402
-19.8448
-31.0461
-37.6387
-38.2428
-35.1367
-30.4704
-25.8208
-21.3575
-17.1214
-13.1453
-9.44795
-6.04636
-2.9916
-0.499975
1.38585
2.77142
3.73493
4.33362
4.61302
4.64644
4.35055
3.36982
1.85178
0.193434
-1.57782
-3.43889
-5.36644
-7.34102
-9.34824
-11.3759
-13.4054
-15.412
-17.3728
88.0846
89.6366
91.4321
93.098
94.3333
94.9918
95.1257
94.6662
93.3602
91.0987
87.8888
83.768
78.7591
72.8292
65.8628
57.6078
47.6302
35.017
18.9857
-4.60323
86.7744
85.5222
84.3575
83.3993
82.6133
81.847
81.1152
80.4267
79.7901
79.2632
78.8167
78.4033
78.0225
77.6788
77.374
77.1083
76.8813
76.6917
76.5375
76.4161
76.3246
76.2597
76.2179
76.1953
76.1878
76.1913
76.2026
76.2201
76.2259
-20.1515
-33.5383
-43.2276
-47.1015
-43.7185
-38.5479
-33.3304
-28.3013
-23.5535
-19.1027
-14.9618
-11.1373
-7.63833
-4.51282
-1.97673
-0.0718232
1.31265
2.25842
2.8251
3.0597
3.03715
2.35661
1.05837
-0.431541
-2.07
-3.82395
-5.66349
-7.56344
-9.50421
-11.471
-13.4518
-15.4278
-17.3726
-19.2631
87.8489
89.4206
91.2721
93.0723
94.5434
95.499
95.9786
95.9739
95.2081
93.4625
90.73
87.0713
82.5387
77.1443
70.8282
63.436
54.646
43.9386
30.0522
11.6096
-17.6985
86.5275
85.2899
84.2719
83.441
82.6225
81.8337
81.0851
80.3865
79.8088
79.3184
78.8592
78.431
78.0394
77.6873
77.3756
77.1047
76.8739
76.6818
76.5262
76.4045
76.3136
76.2501
76.2099
76.1889
76.183
76.1879
76.2004
76.2192
76.2257
-37.5054
-48.5227
-55.3929
-54.5245
-47.9731
-41.9467
-36.1911
-30.7908
-25.7677
-21.1103
-16.8111
-12.865
-9.27413
-6.08336
-3.50777
-1.58835
-0.209538
0.713814
1.24365
1.4282
1.02371
0.0355341
-1.22573
-2.69135
-4.31104
-6.04384
-7.85675
-9.72417
-11.6255
-13.5454
-15.4725
-17.3876
-19.2616
-21.0694
87.5786
89.1681
91.057
92.9523
94.6179
95.834
96.6149
97.0061
96.7701
95.6022
93.3865
90.1953
86.1222
81.2179
75.4747
68.8018
61.0023
51.6757
40.2265
24.8683
3.52188
-35.459
86.269
85.1942
84.3215
83.4528
82.6082
81.7998
81.0386
80.4102
79.8767
79.3717
78.8951
78.4541
78.0524
77.692
77.3737
77.0979
76.8636
76.6694
76.5129
76.3915
76.3019
76.2401
76.2017
76.1824
76.1782
76.1845
76.1983
76.2183
76.2255
-58.8949
-62.4888
-66.6539
-59.9342
-52.0491
-45.2311
-38.9827
-33.2413
-27.9649
-23.1163
-18.6708
-14.6129
-10.9392
-7.69156
-5.08375
-3.1562
-1.78894
-0.893701
-0.406606
-0.601992
-1.30407
-2.24545
-3.47775
-4.92298
-6.522
-8.22971
-10.012
-11.8419
-13.6977
-15.5645
-17.4305
-19.2752
-21.0685
-22.7834
87.2945
88.8748
90.7942
92.7561
94.5751
96.0161
97.058
97.7858
98.0253
97.4435
95.8212
93.1351
89.5162
85.0715
79.8377
73.7822
66.7803
58.5951
48.7451
36.553
19.4976
-5.06731
-58.918
86.1626
85.2527
84.3362
83.4376
82.5702
81.7463