# Time currentProc (coordinatesa coordinatesb coordinatesc coordinatesd) celli tetFacei tetPti facei stepFraction behind nBehind origProc origId active typeId nParticle d dTarget  (Ux Uy Uz) rho age tTurb (UTurbx UTurby UTurbz) T Cp mass0 nPhases(Y1..YN)
0.0400124 0 (0 0.5 0.0295394 0.470461) 2605 15715 1 15715 0.62516 0 0 0 1250 1 -1 0.00986825 0.000156566 0 (-8.94915 4.12724 0) 683.224 0.0394037 0 (0 0 0) 296.168 2232 2.27252e-10 1(1) 8.68427e-05 (-5.14576e-05 -0.295 2.71051e-20) 0.0200329 0.000392419 0 1 0 0 0.00861361 0 1 0.0110121 0
0.0400124 0 (0 0.5 0.135708 0.364292) 2535 15713 1 15713 0.584281 0 0 0 2469 1 -1 0.00956954 0.000200827 0 (-11.0652 3.06432 0) 680.933 0.0387899 0 (0 0 0) 298.877 2241.78 4.61217e-10 1(1) 0.000109951 (-3.1884e-05 -0.295 2.71051e-20) 0.019755 0.000381342 0 1 0 0 -4.5036e+15 0 1 0.0146126 0
0.0400124 0 (0 0.105293 0.5 0.394707) 2535 15713 2 15713 0.389971 0 0 0 2793 1 -1 0.0110353 0.000198836 0 (-10.932 3.19601 0) 680.956 0.0386248 0 (0 0 0) 298.85 2241.68 4.45534e-10 1(1) 0.00010869 (-2.8629e-05 -0.295 1.35525e-19) 0.0197578 0.000381451 0 1 0 0 -4.5036e+15 0 1 0.0144665 0
0.0400124 0 (0 0.5 0.305096 0.194904) 2675 15717 1 15717 0.745779 0 0 0 4128 1 -1 0.021861 0.000179325 0 (-9.92064 4.04854 0) 681.601 0.0379654 0 (0 0 0) 298.088 2238.91 3.25836e-10 1(1) 9.79258e-05 (-1.86237e-05 -0.295 2.71051e-20) 0.0198358 0.000384507 0 1 0 0 0.0084013 0 1 0.0128608 0
0.0400124 0 (0 0.386455 0.5 0.113545) 2850 15722 2 15722 0.180854 0 0 0 4133 1 -1 0.0169009 0.000196873 0 (-11.4818 4.35812 0) 680.669 0.0379572 0 (0 0 0) 299.189 2242.91 4.28754e-10 1(1) 0.000107308 (-3.59037e-05 -0.295 2.71051e-20) 0.0197231 0.000380105 0 1 0 0 -4.5036e+15 0 1 0.0137038 0
0.0400124 0 (0 0.5 0.278886 0.221114) 2885 15723 1 15723 0.646957 0 0 0 5835 1 -1 0.0242042 0.000196106 0 (-10.4274 4.49665 0) 680.122 0.0371071 0 (0 0 0) 299.834 2245.27 4.18742e-10 1(1) 0.000106467 (-2.09511e-05 -0.295 2.71051e-20) 0.0196571 0.000377567 0 1 0 0 0.00824775 0 1 0.0141918 0
0.0400124 0 (0 0.221018 0.5 0.278982) 2920 15724 2 15724 0.913276 0 0 0 7195 1 -1 0.0239788 0.000213025 0 (-9.80982 4.42512 0) 678.399 0.0364323 0 (0 0 0) 301.86 2252.73 5.28406e-10 1(1) 0.00011505 (-1.90269e-05 -0.295 8.13152e-20) 0.01945 0.000369799 0 1 0 0 0.00898862 0 1 0.0164816 0
0.0400124 0 (0 0.260793 0.5 0.239207) 2850 15722 2 15722 0.560773 0 0 0 7513 1 -1 0.0220378 0.000220933 0 (-9.5266 4.13735 0) 677.865 0.0362675 0 (0 0 0) 302.486 2255.05 5.86219e-10 1(1) 0.000119102 (-1.83591e-05 -0.295 8.13152e-20) 0.0193861 0.000367459 0 1 0 0 0.00933476 0 1 0.0177189 0
0.0400124 0 (0 0.5 0.199937 0.300063) 2990 15726 1 15726 0.476846 0 0 0 7615 1 -1 0.0389871 0.000183484 0 (-8.81959 4.90605 0) 680.026 0.0362152 0 (0 0 0) 299.946 2245.68 3.42093e-10 1(1) 9.95281e-05 (-1.49102e-05 -0.295 8.13152e-20) 0.0196456 0.000377129 0 1 0 0 0.00973649 0 1 0.0137241 0
0.0400124 0 (0 0.327249 0.5 0.172751) 2605 15715 2 15715 0.0427216 0 0 0 8405 1 -1 0.0223264 0.000230195 0 (-8.28933 3.29194 0) 677.228 0.0358151 0 (0 0 0) 303.232 2257.83 6.58563e-10 1(1) 0.000123812 (-1.0368e-05 -0.295 8.13152e-20) 0.01931 0.000364704 0 1 0 0 0.0108232 0 1 0.020446 0
0.0400124 0 (0 0.0468014 0.5 0.453199) 2920 15724 2 15724 0.660207 0 0 0 9511 1 -1 0.0723163 0.000159524 0 (-6.98665 5.04052 0) 681.731 0.0352701 0 (0 0 0) 297.935 2238.36 2.27978e-10 1(1) 8.69351e-05 (-9.49801e-06 -0.295 8.13152e-20) 0.0198515 0.000385128 0 1 0 0 0 0 1 0.0121295 0
0.0400124 0 (0 0.5 0.477239 0.0227613) 2815 15721 1 15721 0.0613099 0 0 0 56336 1 -1 1.59983 9.79118e-05 0 (-10.992 6.08427 0) 683.126 0.0118469 0 (0 0 0) 296.284 2232.42 7.28777e-10 1(1) 0.000128065 (-2.82456e-05 -0.295 5.42101e-20) 0.0200209 0.000391931 0 1 0 0 -4.5036e+15 -8.89877e-11 1 0.00483482 0
0.0400124 0 (0 0.5 0.203745 0.296255) 2430 15710 1 15710 0.639615 0 0 0 58572 1 -1 1.29727 0.000106132 0 (-11.4309 3.89996 0) 682.03 0.010736 0 (0 0 0) 297.581 2237.08 9.56303e-10 1(1) 0.000140205 (-1.20739e-05 -0.295 1.0842e-19) 0.0198878 0.000386567 0 1 0 0 -4.5036e+15 -2.28884e-10 1 0.00556656 0
0.0400124 0 (0 0.5 0.410639 0.0893612) 2360 15708 1 15708 0.913458 0 0 0 60299 1 -1 0.971648 0.000117381 0 (-14.3054 2.58295 0) 680.63 0.00987477 0 (0 0 0) 299.235 2243.08 1.00539e-09 1(1) 0.000142564 (-1.21872e-05 -0.295 5.42101e-20) 0.0197184 0.000379925 0 1 0 0 -4.5036e+15 1.19084e-09 1 0.00587592 0
0.0400124 1 (0 0.0925759 0.407424 0.5) 2911 15631 1 15631 0.841642 0 0 0 8205 1 -1 0.205067 0.000104316 0 (6.91409 8.62815 0) 685.214 0.035927 0 (0 0 0) 293.804 2223.62 6.75954e-11 1(1) 5.797e-05 (1.07072e-05 -0.295 5.42101e-20) 0.020276 0.000402574 0 1 0 0 0 0 1 0.00565452 0
0.0400124 1 (0 0.0393764 0.460624 0.5) 3209 15647 1 15647 0.733067 0 0 0 40123 1 -1 7.81722 4.933e-05 0 (2.92479 16.3868 0) 687.753 0.0199661 0 (0 0 0) 290.775 2213.07 3.32402e-11 1(1) 4.57564e-05 (1.60992e-05 -0.295 0) 0.0205883 0.000416307 0 1 0 0 -4.5036e+15 0 1 0.00148837 0
0.0400124 1 (0 0.5 0.440701 0.0592992) 2891 15630 2 15630 0.12824 0 0 0 6955 1 -1 0.018011 0.000230618 0 (11.5862 6.41895 0) 677.19 0.0365431 0 (0 0 0) 303.276 2258 7.81708e-10 1(1) 0.000131093 (4.31039e-05 -0.295 0) 0.0193054 0.000364542 0 1 0 0 -4.5036e+15 0 1 0.0164129 0
0.0400124 1 (0 0.5 0.498956 0.0010439) 3065 15639 2 15639 0.942398 0 0 0 42473 1 -1 1.37616 9.39684e-05 0 (10.3634 13.2534 0) 684.779 0.0187946 0 (0 0 0) 294.322 2225.45 5.81756e-10 1(1) 0.000118799 (8.74271e-05 -0.295 0) 0.0202227 0.000400308 0 1 0 0 -4.5036e+15 -8.59486e-11 1 0.00389306 0
0.0400124 1 (0 0.490196 0.0098041 0.5) 2262 15724 1 15724 0.989629 0 0 0 7821 1 -1 0.0303069 0.000202285 0 (8.89049 4.13772 0) 678.841 0.0361199 0 (0 0 0) 301.341 2250.81 4.53241e-10 1(1) 0.000109314 (1.45068e-05 -0.295 0) 0.019503 0.000371761 0 1 0 0 0.00993606 0 1 0.0160728 0
0.0400124 1 (0 0.5 0.180507 0.319493) 2951 15633 2 15633 0.356618 0 0 0 6103 1 -1 0.031248 0.000182657 0 (11.8873 8.15532 0) 680.448 0.0369697 0 (0 0 0) 299.449 2243.86 3.73533e-10 1(1) 0.000102488 (5.02867e-05 -0.295 5.42101e-20) 0.0196964 0.000379076 0 1 0 0 -4.5036e+15 0 1 0.0111793 0
0.0400124 1 (0 0.445231 0.0547688 0.5) 2192 15722 1 15722 0.679928 0 0 0 7635 1 -1 0.0174399 0.000241027 0 (9.58651 3.49636 0) 676.785 0.0362115 0 (0 0 0) 303.752 2259.78 7.54443e-10 1(1) 0.000129551 (1.79438e-05 -0.295 -5.42101e-20) 0.019257 0.00036281 0 1 0 0 0.00947853 0 1 0.0202936 0
0.0400124 1 (0 0.440234 0.0597664 0.5) 2192 15722 1 15722 0.538374 0 0 0 7647 1 -1 0.0178506 0.000239102 0 (9.54975 3.51721 0) 676.875 0.0362002 0 (0 0 0) 303.646 2259.38 7.37e-10 1(1) 0.000128544 (1.77105e-05 -0.295 -5.42101e-20) 0.0192678 0.000363195 0 1 0 0 0.00950612 0 1 0.0200892 0
0.0400124 1 (0 0.1016 0.3984 0.5) 2951 15633 1 15633 0.175828 0 0 0 46358 1 -1 0.98274 0.000109406 0 (11.7968 10.1924 0) 683.607 0.0168398 0 (0 0 0) 295.714 2230.38 1.04029e-09 1(1) 0.000144195 (7.87731e-05 -0.295 0) 0.0200796 0.000394334 0 1 0 0 -4.5036e+15 -1.07242e-09 1 0.00508081 0
0.0400124 1 (0 0.5 0.261536 0.238464) 2297 15725 2 15725 0.315979 0 0 0 5691 1 -1 0.0372083 0.000167502 0 (9.35068 4.71584 0) 681.765 0.0371752 0 (0 0 0) 297.894 2238.21 2.65659e-10 1(1) 9.14827e-05 (1.49475e-05 -0.295 0) 0.0198557 0.000385294 0 1 0 0 0.00889261 0 1 0.0117703 0
0.0400124 1 (0 0.5 0.204936 0.295064) 2297 15725 2 15725 0.66069 0 0 0 5695 1 -1 0.0370805 0.000167704 0 (9.34948 4.70664 0) 681.754 0.037177 0 (0 0 0) 297.908 2238.26 2.6658e-10 1(1) 9.15884e-05 (1.48907e-05 -0.295 5.42101e-20) 0.0198543 0.000385237 0 1 0 0 0.00889687 0 1 0.0117943 0
0.0400124 1 (0 0.342968 0.157032 0.5) 2052 15718 1 15718 0.921822 0 0 0 3829 1 -1 0.01441 0.00020226 0 (11.0191 3.33013 0) 680.532 0.0381159 0 (0 0 0) 299.35 2243.5 4.62891e-10 1(1) 0.000110084 (2.53662e-05 -0.295 0) 0.0197066 0.000379468 0 1 0 0 0.00782014 0 1 0.0147378 0
0.0400124 1 (0 0.5 0.422181 0.0778188) 2725 15699 2 15699 0.542382 0 0 0 5193 1 -1 0.0208461 0.000198528 0 (11.8452 5.45898 0) 680.23 0.0374307 0 (0 0 0) 299.706 2244.8 4.34994e-10 1(1) 0.000107826 (3.96698e-05 -0.295 0) 0.0196701 0.000378067 0 1 0 0 -4.5036e+15 0 1 0.0133676 0
0.0400124 1 (0 0.15231 0.34769 0.5) 2297 15725 1 15725 0.0994459 0 0 0 3969 1 -1 0.0159627 0.000197809 0 (11.766 4.24174 0) 680.645 0.0380336 0 (0 0 0) 299.217 2243.01 4.36633e-10 1(1) 0.000107962 (4.00477e-05 -0.295 -5.42101e-20) 0.0197202 0.000379992 0 1 0 0 -4.5036e+15 0 1 0.0136226 0
0.0400124 1 (0 0.477579 0.0224214 0.5) 2017 15717 1 15717 0.0378911 0 0 0 2674 1 -1 0.00971589 0.000204506 0 (11.4814 3.05025 0) 680.705 0.0386839 0 (0 0 0) 299.146 2242.76 4.8445e-10 1(1) 0.000111767 (3.81461e-05 -0.295 5.42101e-20) 0.0197274 0.000380274 0 1 0 0 -4.5036e+15 0 1 0.0147197 0
0.0400124 1 (0 0.464683 0.0353168 0.5) 1982 15716 1 15716 0.695719 0 0 0 1181 1 -1 0.00434501 0.000203074 0 (11.8245 2.82849 0) 681.069 0.0394347 0 (0 0 0) 298.718 2241.19 4.90138e-10 1(1) 0.000112203 (8.99788e-05 -0.295 5.42101e-20) 0.0197714 0.000381979 0 1 0 0 -4.5036e+15 0 1 0.0143864 0
0.0400124 1 (0 0.171822 0.328178 0.5) 2402 15728 1 15728 0.655995 0 0 0 2318 1 -1 0.0117844 0.000180937 0 (12.0252 4.72707 0) 681.813 0.0388697 0 (0 0 0) 297.839 2238.01 3.4548e-10 1(1) 9.98554e-05 (8.23875e-05 -0.295 0) 0.0198614 0.00038552 0 1 0 0 -4.5036e+15 0 1 0.011758 0
0.0400124 1 (0 0.5 0.169833 0.330167) 2530 15692 2 15692 0.517648 0 0 0 54191 1 -1 2.47625 8.27669e-05 0 (7.67338 6.96369 0) 684.765 0.0129293 0 (0 0 0) 294.339 2225.5 4.24151e-10 1(1) 0.000106923 (1.87352e-05 -0.295 0) 0.0202209 0.000400236 0 1 0 0 -4.5036e+15 -8.80498e-11 1 0.0041188 0
0.0400124 1 (0 0.5 0.113349 0.386651) 2623 15695 2 15695 0.5614 0 0 0 54345 1 -1 2.28241 8.52862e-05 0 (8.83227 7.19451 0) 684.487 0.0128506 0 (0 0 0) 294.668 2226.67 4.45786e-10 1(1) 0.000108711 (2.79078e-05 -0.295 0) 0.020187 0.000398807 0 1 0 0 -4.5036e+15 -9.30976e-11 1 0.00411978 0
0.0400124 1 (0 0.5 0.22813 0.27187) 2650 15696 2 15696 0.249701 0 0 0 54257 1 -1 2.04274 8.8647e-05 0 (9.69113 7.24929 0) 684.201 0.0128894 0 (0 0 0) 295.009 2227.88 5.29087e-10 1(1) 0.000115099 (3.37515e-05 -0.295 0) 0.020152 0.00039734 0 1 0 0 -4.5036e+15 -8.20307e-11 1 0.00423899 0
0.0400124 1 (0 0.5 0.0519195 0.44808) 2851 15705 2 15705 0.301443 0 0 0 50978 1 -1 1.33651 0.00010078 0 (11.5353 8.35428 0) 683.682 0.0145303 0 (0 0 0) 295.625 2230.07 8.30788e-10 1(1) 0.000133781 (5.78644e-05 -0.295 5.42101e-20) 0.0200887 0.000394709 0 1 0 0 -4.5036e+15 -7.33079e-10 1 0.00472792 0
0.0400124 1 (0 0.0041502 0.49585 0.5) 2087 15719 1 15719 0.471687 0 0 0 57309 1 -1 1.6538 9.73407e-05 0 (10.6885 5.3459 0) 682.986 0.0113679 0 (0 0 0) 296.45 2233.01 7.16342e-10 1(1) 0.000127332 (2.07782e-05 -0.295 1.0842e-19) 0.0200039 0.000391237 0 1 0 0 -4.5036e+15 -8.45722e-11 1 0.00491556 0
0.0400124 1 (0 0.235979 0.264021 0.5) 2122 15720 1 15720 0.642833 0 0 0 57830 1 -1 1.04002 0.000114056 0 (14.2286 4.78632 0) 681.496 0.0111103 0 (0 0 0) 298.213 2239.37 1.08089e-09 1(1) 0.000146046 (3.56953e-05 -0.295 5.42101e-20) 0.019823 0.000384003 0 1 0 0 -4.5036e+15 2.29132e-09 1 0.00553213 0
0.0400124 1 (0 0.24012 0.25988 0.5) 1842 15712 1 15712 0.733196 0 0 0 60570 1 -1 1.04554 0.000115448 0 (14.7474 3.05591 0) 680.655 0.0097386 0 (0 0 0) 299.206 2242.97 9.74525e-10 1(1) 0.00014109 (1.29309e-05 -0.295 5.42101e-20) 0.0197214 0.000380039 0 1 0 0 -4.5036e+15 1.27723e-09 1 0.00562185 0
0.0400124 3 (0 0.5 0.23341 0.26659) 1758 15588 1 15588 0.94078 0 0 0 16827 1 -1 1.87199 6.05972e-05 0 (-3.03929 17.7301 0) 687.527 0.0316184 0 (0 0 0) 291.045 2214 1.52561e-11 1(1) 3.52949e-05 (-4.49663e-05 -0.295 1.35525e-19) 0.0205605 0.000415049 0 1 0 0 0 0 1 0.00196461 0
0.0400124 3 (0 0.134977 0.5 0.365023) 1443 15579 2 15579 0.744343 0 0 0 42335 1 -1 6.193 5.53948e-05 0 (-4.49417 15.7486 0) 687.099 0.0188587 0 (0 0 0) 291.556 2215.77 5.56864e-11 1(1) 5.43435e-05 (-6.13334e-05 -0.295 0) 0.0205077 0.000412685 0 1 0 0 -4.5036e+15 0 1 0.00179057 0
0.0400124 3 (0 0.5 0.0960181 0.403982) 1198 15572 1 15572 0.41325 0 0 0 4482 1 -1 0.0561758 0.000133216 0 (-11.2387 11.51 0) 683.685 0.0377848 0 (0 0 0) 295.621 2230.05 1.53288e-10 1(1) 7.61612e-05 (-8.74137e-05 -0.295 5.42101e-20) 0.0200891 0.000394727 0 1 0 0 -4.5036e+15 0 1 0.00664835 0
0.0400124 3 (0 0.227293 0.5 0.272707) 1233 15573 2 15573 0.0301526 0 0 0 44628 1 -1 3.48523 6.88019e-05 0 (-7.14211 13.4682 0) 686.215 0.0177025 0 (0 0 0) 292.612 2219.44 1.66956e-10 1(1) 7.83608e-05 (-6.50918e-05 -0.295 2.71051e-20) 0.0203988 0.00040788 0 1 0 0 -4.5036e+15 0 1 0.00257315 0
0.0400124 3 (0 0.5 0.156259 0.343741) 1128 15570 1 15570 0.233385 0 0 0 7339 1 -1 0.322817 8.60965e-05 0 (-6.22604 10.6861 0) 686.157 0.03635 0 (0 0 0) 292.681 2219.68 3.95171e-11 1(1) 4.84722e-05 (-9.47931e-06 -0.295 1.35525e-19) 0.0203917 0.000407571 0 1 0 0 0 0 1 0.00400425 0
0.0400124 3 (0 0.0997862 0.5 0.400214) 1128 15570 2 15570 0.322472 0 0 0 47486 1 -1 4.13551 6.63356e-05 0 (-6.40558 11.9571 0) 686.388 0.0162769 0 (0 0 0) 292.405 2218.72 1.69446e-10 1(1) 7.87483e-05 (-4.70455e-05 -0.295 8.13152e-20) 0.0204201 0.000408812 0 1 0 0 -4.5036e+15 0 1 0.00258017 0
0.0400124 3 (0 0.121269 0.5 0.378731) 1128 15570 2 15570 0.560455 0 0 0 45726 1 -1 2.39229 7.97819e-05 0 (-8.77945 12.1813 0) 685.509 0.0171612 0 (0 0 0) 293.453 2222.38 3.37524e-10 1(1) 9.9083e-05 (-6.68435e-05 -0.295 8.13152e-20) 0.0203122 0.000404126 0 1 0 0 -4.5036e+15 0 1 0.00324264 0
0.0400124 3 (0 0.298351 0.5 0.201649) 918 15564 2 15564 0.655221 0 0 0 6392 1 -1 0.0236587 0.000203266 0 (-11.6507 7.00347 0) 679.251 0.0368308 0 (0 0 0) 300.859 2249.03 4.92647e-10 1(1) 0.000112394 (-4.22456e-05 -0.295 5.42101e-20) 0.0195522 0.000373599 0 1 0 0 -4.5036e+15 0 1 0.0134973 0
0.0400124 3 (0 0.5 0.131647 0.368353) 1093 15569 1 15569 0.197387 0 0 0 46617 1 -1 2.22934 8.2207e-05 0 (-9.03823 11.4797 0) 685.32 0.0167109 0 (0 0 0) 293.678 2223.17 3.86249e-10 1(1) 0.000103638 (-6.38578e-05 -0.295 2.71051e-20) 0.020289 0.000403132 0 1 0 0 -4.5036e+15 -8.8985e-11 1 0.00343906 0
0.0400124 3 (0 0.396809 0.5 0.103191) 560 15563 2 15563 0.689872 0 0 0 49966 1 -1 1.16314 0.000105607 0 (-11.6688 8.74729 0) 683.479 0.0150412 0 (0 0 0) 295.866 2230.93 9.82269e-10 1(1) 0.000141462 (-6.22737e-05 -0.295 5.42101e-20) 0.0200639 0.000393691 0 1 0 0 -4.5036e+15 -7.02235e-10 1 0.00500398 0
0.0400124 3 (0 0.5 0.0352842 0.464716) 525 15562 1 15562 0.113824 0 0 0 50805 1 -1 1.41879 9.87448e-05 0 (-10.9915 8.65153 0) 683.854 0.0146148 0 (0 0 0) 295.421 2229.34 7.4179e-10 1(1) 0.000128822 (-5.57954e-05 -0.295 5.42101e-20) 0.0201096 0.000395577 0 1 0 0 -4.5036e+15 -3.8101e-10 1 0.00462917 0
0.0400124 3 (0 0.5 0.0934635 0.406537) 385 15558 1 15558 0.831358 0 0 0 4980 1 -1 0.0228169 0.000189361 0 (-11.7566 5.93249 0) 680.708 0.0375379 0 (0 0 0) 299.143 2242.74 3.89015e-10 1(1) 0.000103885 (-4.27554e-05 -0.295 5.42101e-20) 0.0197278 0.000380286 0 1 0 0 -4.5036e+15 0 1 0.0124195 0
0.0400124 3 (0 0.5 0.21179 0.28821) 280 15555 1 15555 0.900605 0 0 0 7101 1 -1 0.0128179 0.000261252 0 (-11.0888 4.65212 0) 676.1 0.0364803 0 (0 0 0) 304.551 2262.78 9.59285e-10 1(1) 0.00014035 (-3.2256e-05 -0.295 5.42101e-20) 0.0191756 0.000359929 0 1 0 0 -4.5036e+15 0 1 0.0207758 0
0.0400124 3 (0 0.5 0.0313808 0.468619) 350 15557 1 15557 0.262837 0 0 0 53193 1 -1 2.19329 8.63409e-05 0 (-9.10331 7.9639 0) 684.535 0.0134235 0 (0 0 0) 294.612 2226.47 4.64542e-10 1(1) 0.000110215 (-3.52494e-05 -0.295 8.13152e-20) 0.0201929 0.000399052 0 1 0 0 -4.5036e+15 -9.2364e-11 1 0.00407636 0
0.0400124 3 (0 0.5 0.218095 0.281905) 210 15553 1 15553 0.16819 0 0 0 5690 1 -1 0.0208616 0.000204836 0 (-11.3818 5.12765 0) 679.691 0.037174 0 (0 0 0) 300.341 2247.13 4.77994e-10 1(1) 0.000111268 (-3.15259e-05 -0.295 1.0842e-19) 0.0196052 0.000375594 0 1 0 0 -4.5036e+15 0 1 0.0143387 0
0.0400124 3 (0 0.00841866 0.5 0.491581) 210 15553 2 15553 0.84365 0 0 0 53837 1 -1 0.959901 0.00011437 0 (-13.2024 6.7682 0) 682.306 0.0131095 0 (0 0 0) 297.255 2235.9 1.11857e-09 1(1) 0.000147725 (-5.24922e-05 -0.295 5.42101e-20) 0.0199213 0.000387906 0 1 0 0 -4.5036e+15 3.98687e-09 1 0.00558556 0
0.0400124 3 (0 0.199563 0.5 0.300437) 105 15550 2 15550 0.686881 0 0 0 54572 1 -1 1.83588 9.27649e-05 0 (-10.1614 7.12904 0) 683.836 0.0127372 0 (0 0 0) 295.442 2229.42 6.09279e-10 1(1) 0.000120643 (-3.40465e-05 -0.295 8.13152e-20) 0.0201075 0.000395486 0 1 0 0 -4.5036e+15 -9.34471e-11 1 0.00448631 0
0.0400248 0 (0 0.224224 0.5 0.275776) 2710 15718 2 15718 0.0869168 0 0 0 992 1 -1 0.0105516 0.000142034 0 (-8.36751 4.82717 0) 683.924 0.0395353 0 (0 0 0) 295.337 2229.04 1.71754e-10 1(1) 7.91043e-05 (-6.65073e-05 -0.295 -2.71051e-20) 0.0201183 0.000395935 0 1 0 0 0.00890215 0 1 0.00962781 0
0.0400248 0 (0 0.5 0.187198 0.312802) 2465 15711 1 15711 0.0163282 0 0 0 1165 1 -1 0.00412172 0.000206775 0 (-11.4421 2.5673 0) 680.922 0.0394496 0 (0 0 0) 298.89 2241.82 5.17698e-10 1(1) 0.000114268 (-5.57591e-05 -0.295 5.42101e-20) 0.0197537 0.000381292 0 1 0 0 -4.5036e+15 0 1 0.0150698 0
0.0400248 0 (0 0.5 0.27439 0.22561) 2570 15714 1 15714 0.370826 0 0 0 1188 1 -1 0.00458516 0.000199322 0 (-11.6909 3.11875 0) 681.238 0.0394401 0 (0 0 0) 298.518 2240.47 4.63601e-10 1(1) 0.00011014 (-9.10746e-05 -0.295 5.42101e-20) 0.0197918 0.000382778 0 1 0 0 -4.5036e+15 0 1 0.0140432 0
0.0400248 0 (0 0.5 0.0783662 0.421634) 2605 15715 1 15715 0.348417 0 0 0 1275 1 -1 0.00983823 0.000156734 0 (-8.93946 4.11953 0) 683.215 0.0393958 0 (0 0 0) 296.178 2232.04 2.27889e-10 1(1) 8.69238e-05 (-4.9839e-05 -0.295 5.42101e-20) 0.0200318 0.000392375 0 1 0 0 0.00862754 0 1 0.0110367 0
0.0400248 0 (0 0.5 0.228185 0.271815) 2605 15715 1 15715 0.253945 0 0 0 3392 1 -1 0.0135364 0.000198095 0 (-10.8896 3.42982 0) 680.852 0.0383381 0 (0 0 0) 298.973 2242.13 4.37501e-10 1(1) 0.000108033 (-2.67105e-05 -0.295 5.42101e-20) 0.0197452 0.00038096 0 1 0 0 0.00784766 0 1 0.0143679 0
0.0400248 0 (0 0.168728 0.5 0.331272) 2745 15719 2 15719 0.0294982 0 0 0 3418 1 -1 0.0138216 0.000196723 0 (-11.5382 4.02113 0) 680.883 0.0383218 0 (0 0 0) 298.937 2241.99 4.28356e-10 1(1) 0.000107275 (-4.04998e-05 -0.295 2.71051e-20) 0.0197489 0.000381105 0 1 0 0 0.0073606 0 1 0.0136978 0
0.0400248 0 (0 0.5 0.434257 0.0657428) 2990 15726 1 15726 0.294571 0 0 0 6900 1 -1 0.022316 0.000213302 0 (-10.1762 4.52885 0) 678.527 0.0365827 0 (0 0 0) 301.709 2252.17 5.31503e-10 1(1) 0.000115274 (-2.05512e-05 -0.295 0) 0.0194654 0.000370367 0 1 0 0 0.00863185 0 1 0.0162004 0
0.0400248 0 (0 0.5 0.177999 0.322001) 2780 15720 1 15720 0.175801 0 0 0 7694 1 -1 0.0189135 0.000234848 0 (-9.41168 3.73647 0) 677.089 0.0361845 0 (0 0 0) 303.396 2258.45 6.99412e-10 1(1) 0.000126321 (-1.77653e-05 -0.295 5.42101e-20) 0.0192933 0.000364106 0 1 0 0 0.00956593 0 1 0.019633 0
0.0400248 0 (0 0.5 0.33788 0.16212) 2885 15723 1 15723 0.0871817 0 0 0 7812 1 -1 0.0325659 0.000197299 0 (-8.80621 4.45441 0) 679.155 0.0361291 0 (0 0 0) 300.972 2249.44 4.21683e-10 1(1) 0.000106715 (-1.49466e-05 -0.295 2.71051e-20) 0.0195407 0.000373169 0 1 0 0 0.00990726 0 1 0.0154491 0
0.0400248 0 (0 0.293009 0.5 0.206991) 2710 15718 2 15718 0.194076 0 0 0 8085 1 -1 0.0240625 0.000219685 0 (-8.67899 3.73625 0) 677.826 0.0359912 0 (0 0 0) 302.532 2255.22 5.75308e-10 1(1) 0.000118358 (-1.378e-05 -0.295 1.6263e-19) 0.0193814 0.000367287 0 1 0 0 0.0102666 0 1 0.0185083 0
0.0400248 0 (0 0.111879 0.5 0.388121) 2885 15723 2 15723 0.242099 0 0 0 52438 1 -1 2.33888 8.35057e-05 0 (-6.13906 6.62336 0) 685.045 0.0138123 0 (0 0 0) 294.006 2224.33 4.37209e-10 1(1) 0.000108009 (-1.08197e-05 -0.295 5.42101e-20) 0.0202552 0.00040169 0 1 0 0 -4.5036e+15 -8.49803e-11 1 0.0044538 0
0.0400248 1 (0 0.481277 0.018723 0.5) 2991 15635 1 15635 0.811038 0 0 0 7080 1 -1 0.0249688 0.000209165 0 (11.5852 8.49088 0) 678.121 0.0364992 0 (0 0 0) 302.186 2253.94 6.15123e-10 1(1) 0.000121028 (5.56528e-05 -0.295 0) 0.0194166 0.000368575 0 1 0 0 -4.5036e+15 0 1 0.013604 0
0.0400248 1 (0 0.5 0.429291 0.0707092) 2262 15724 2 15724 0.712096 0 0 0 9220 1 -1 0.0576987 0.00017063 0 (7.25303 4.4852 0) 680.916 0.0354284 0 (0 0 0) 298.898 2241.85 2.76694e-10 1(1) 9.27322e-05 (9.41127e-06 -0.295 0) 0.0197529 0.00038126 0 1 0 0 0 0 1 0.0134694 0
0.0400248 1 (0 0.0967569 0.403243 0.5) 2811 15703 1 15703 0.88844 0 0 0 1012 1 -1 0.0255432 0.000104051 0 (6.92467 7.46904 0) 685.592 0.039535 0 (0 0 0) 293.354 2222.04 6.98417e-11 1(1) 5.86052e-05 (7.77265e-05 -0.295 5.42101e-20) 0.0203224 0.000404564 0 1 0 0 0.00974872 0 1 0.00587269 0
0.0400248 1 (0 0.289639 0.210361 0.5) 2725 15699 1 15699 0.268119 0 0 0 6756 1 -1 0.0850272 0.000133848 0 (8.02418 6.40612 0) 683.392 0.0366546 0 (0 0 0) 295.969 2231.29 2.38792e-10 1(1) 8.82885e-05 (1.09388e-05 -0.295 0) 0.0200534 0.000393258 0 1 0 0 0 0 1 0.00853078 0
0.0400248 1 (0 0.0121569 0.487843 0.5) 2911 15631 1 15631 0.371564 0 0 0 46856 1 -1 3.93296 6.71213e-05 0 (4.41557 9.19153 0) 686.716 0.0166075 0 (0 0 0) 292.014 2217.36 2.01751e-10 1(1) 8.34647e-05 (9.40019e-06 -0.295 5.42101e-20) 0.0204604 0.000410588 0 1 0 0 -4.5036e+15 0 1 0.00300303 0
0.0400248 1 (0 0.5 0.481122 0.0188778) 2891 15630 2 15630 0.346456 0 0 0 6672 1 -1 0.0213005 0.000215928 0 (11.6914 6.66218 0) 678.244 0.0366971 0 (0 0 0) 302.042 2253.4 6.18333e-10 1(1) 0.000121238 (4.22478e-05 -0.295 0) 0.0194314 0.000369115 0 1 0 0 -4.5036e+15 0 1 0.0148012 0
0.0400248 1 (0 0.484399 0.0156012 0.5) 2650 15696 1 15696 0.310557 0 0 0 7073 1 -1 0.0127747 0.000263019 0 (11.1556 4.39658 0) 676.017 0.0364962 0 (0 0 0) 304.649 2263.15 9.79131e-10 1(1) 0.000141312 (3.12668e-05 -0.295 0) 0.0191657 0.000359581 0 1 0 0 -4.5036e+15 0 1 0.0210039 0
0.0400248 1 (0 0.0766912 0.423309 0.5) 3083 15640 1 15640 0.00866945 0 0 0 46344 1 -1 7.02421 5.44755e-05 0 (4.22564 13.364 0) 687.26 0.0168619 0 (0 0 0) 291.364 2215.1 7.17229e-11 1(1) 5.91267e-05 (2.87434e-05 -0.295 0) 0.0205275 0.000413571 0 1 0 0 -4.5036e+15 0 1 0.00187756 0
0.0400248 1 (0 0.485288 0.0147116 0.5) 2017 15717 1 15717 0.671718 0 0 0 1116 1 -1 0.00849348 0.000158817 0 (8.98332 3.81989 0) 683.134 0.0394839 0 (0 0 0) 296.275 2232.39 2.37608e-10 1(1) 8.81423e-05 (5.37878e-05 -0.295 0) 0.0200219 0.00039197 0 1 0 0 0.00861495 0 1 0.0113012 0
0.0400248 1 (0 0.30956 0.19044 0.5) 2157 15721 1 15721 0.26123 0 0 0 4993 1 -1 0.0191351 0.000201125 0 (10.7982 3.80047 0) 680.212 0.0375354 0 (0 0 0) 299.728 2244.88 4.5211e-10 1(1) 0.000109223 (2.20652e-05 -0.295 0) 0.0196679 0.000377983 0 1 0 0 0.00801676 0 1 0.014657 0
0.0400248 1 (0 0.18228 0.31772 0.5) 3083 15640 1 15640 0.144931 0 0 0 41918 1 -1 2.03464 8.2256e-05 0 (9.26058 14.1611 0) 685.439 0.0190746 0 (0 0 0) 293.536 2222.68 3.14487e-10 1(1) 9.67754e-05 (8.5364e-05 -0.295 0) 0.0203036 0.000403758 0 1 0 0 -4.5036e+15 0 1 0.00318757 0
0.0400248 1 (0 0.416182 0.0838185 0.5) 2530 15692 1 15692 0.890557 0 0 0 5794 1 -1 0.0191611 0.000212126 0 (11.4198 4.65575 0) 679.248 0.0371434 0 (0 0 0) 300.863 2249.04 5.31034e-10 1(1) 0.00011524 (2.95256e-05 -0.295 5.42101e-20) 0.0195519 0.000373586 0 1 0 0 -4.5036e+15 0 1 0.0151807 0
0.0400248 1 (0 0.5 0.279163 0.220837) 1947 15715 2 15715 0.00491953 0 0 0 2283 1 -1 0.00902141 0.000198331 0 (10.7399 2.85293 0) 681.088 0.0388899 0 (0 0 0) 298.694 2241.11 4.45849e-10 1(1) 0.000108716 (2.67279e-05 -0.295 0) 0.0197738 0.000382073 0 1 0 0 -4.5036e+15 0 1 0.014607 0
0.0400248 1 (0 0.5 0.435 0.0650004) 1947 15715 2 15715 0.67226 0 0 0 2465 1 -1 0.00969497 0.00019991 0 (10.7922 2.85739 0) 680.982 0.0388063 0 (0 0 0) 298.819 2241.57 4.54957e-10 1(1) 0.000109451 (2.58455e-05 -0.295 1.0842e-19) 0.0197609 0.000381572 0 1 0 0 -4.5036e+15 0 1 0.0147389 0
0.0400248 1 (0 0.5 0.349528 0.150472) 2931 15632 2 15632 0.837692 0 0 0 50313 1 -1 4.13964 6.75912e-05 0 (5.9071 9.82002 0) 686.286 0.0148821 0 (0 0 0) 292.526 2219.14 2.1727e-10 1(1) 8.55522e-05 (2.65219e-05 -0.295 5.42101e-20) 0.0204076 0.000408266 0 1 0 0 -4.5036e+15 -9.4519e-11 1 0.00287654 0
0.0400248 1 (0 0.100731 0.399269 0.5) 2770 15701 1 15701 0.740723 0 0 0 52063 1 -1 3.04028 7.55288e-05 0 (6.2382 7.95224 0) 685.619 0.0140054 0 (0 0 0) 293.321 2221.92 3.11362e-10 1(1) 9.64538e-05 (1.7004e-05 -0.295 5.42101e-20) 0.0203257 0.000404708 0 1 0 0 -4.5036e+15 -1.88962e-10 1 0.00362025 0
0.0400248 1 (0 0.5 0.211765 0.288235) 2017 15717 2 15717 0.471388 0 0 0 2491 1 -1 0.0089078 0.000205903 0 (11.5543 2.96907 0) 680.687 0.0387913 0 (0 0 0) 299.168 2242.84 4.95648e-10 1(1) 0.000112622 (4.07973e-05 -0.295 -5.42101e-20) 0.0197252 0.000380187 0 1 0 0 -4.5036e+15 0 1 0.0148311 0
0.0400248 1 (0 0.5 0.131848 0.368152) 2831 15704 2 15704 0.120928 0 0 0 3756 1 -1 0.0229424 0.000170928 0 (12.0921 6.5821 0) 681.978 0.0381519 0 (0 0 0) 297.643 2237.3 2.92123e-10 1(1) 9.44248e-05 (6.69195e-05 -0.295 0) 0.0198815 0.000386317 0 1 0 0 -4.5036e+15 0 1 0.0104392 0
0.0400248 1 (0 0.133438 0.366562 0.5) 1877 15713 1 15713 0.496989 0 0 0 929 1 -1 0.0030281 0.000210638 0 (11.6348 2.29832 0) 680.796 0.0395738 0 (0 0 0) 299.039 2242.36 5.51562e-10 1(1) 0.000116707 (7.15827e-05 -0.295 5.42101e-20) 0.0197385 0.0003807 0 1 0 0 -4.5036e+15 0 1 0.0153786 0
0.0400248 1 (0 0.407144 0.092856 0.5) 1912 15714 1 15714 0.771745 0 0 0 1139 1 -1 0.00385207 0.000209059 0 (11.6469 2.44435 0) 680.82 0.039469 0 (0 0 0) 299.01 2242.26 5.35369e-10 1(1) 0.000115553 (6.83915e-05 -0.295 5.42101e-20) 0.0197414 0.000380813 0 1 0 0 -4.5036e+15 0 1 0.0151844 0
0.0400248 1 (0 0.327646 0.172354 0.5) 2192 15722 1 15722 0.100794 0 0 0 2160 1 -1 0.00961902 0.000191557 0 (11.974 3.90771 0) 681.378 0.0389505 0 (0 0 0) 298.352 2239.87 4.05191e-10 1(1) 0.000105305 (7.27651e-05 -0.295 -5.42101e-20) 0.0198088 0.000383445 0 1 0 0 -4.5036e+15 0 1 0.0129571 0
0.0400248 1 (0 0.0103527 0.489647 0.5) 1947 15715 1 15715 0.923326 0 0 0 1207 1 -1 0.00445033 0.000205581 0 (11.8028 2.70396 0) 680.956 0.0394411 0 (0 0 0) 298.85 2241.68 5.08092e-10 1(1) 0.000113556 (8.2613e-05 -0.295 5.42101e-20) 0.0197578 0.000381451 0 1 0 0 -4.5036e+15 0 1 0.0146783 0
0.0400248 1 (0 0.0270334 0.472967 0.5) 3029 15637 1 15637 0.531091 0 0 0 46497 1 -1 4.14591 6.59421e-05 0 (6.75487 12.5767 0) 686.353 0.0167864 0 (0 0 0) 292.447 2218.87 1.53537e-10 1(1) 7.62024e-05 (5.56256e-05 -0.295 5.42101e-20) 0.0204158 0.000408622 0 1 0 0 -4.5036e+15 0 1 0.00249427 0
0.0400248 1 (0 0.109211 0.390789 0.5) 2811 15703 1 15703 0.592621 0 0 0 52320 1 -1 2.91813 7.73135e-05 0 (7.47637 8.42667 0) 685.363 0.013877 0 (0 0 0) 293.627 2223 3.26906e-10 1(1) 9.80329e-05 (2.94265e-05 -0.295 0) 0.0202942 0.000403354 0 1 0 0 -4.5036e+15 -1.83145e-10 1 0.00356499 0
0.0400248 1 (0 0.5 0.457295 0.0427052) 2951 15633 2 15633 0.177584 0 0 0 49306 1 -1 3.06893 7.43407e-05 0 (7.84208 10.5771 0) 685.716 0.0153806 0 (0 0 0) 293.206 2221.52 2.71445e-10 1(1) 9.21421e-05 (4.78931e-05 -0.295 0) 0.0203376 0.00040522 0 1 0 0 -4.5036e+15 -9.27767e-11 1 0.0031122 0
0.0400248 1 (0 0.5 0.216315 0.283685) 2851 15705 2 15705 0.486093 0 0 0 51961 1 -1 2.95997 7.69293e-05 0 (7.60098 8.69951 0) 685.408 0.0140565 0 (0 0 0) 293.573 2222.81 3.20925e-10 1(1) 9.74314e-05 (3.27123e-05 -0.295 -5.42101e-20) 0.0202998 0.000403594 0 1 0 0 -4.5036e+15 -1.7333e-10 1 0.00349548 0
0.0400248 1 (0 0.0437234 0.456277 0.5) 2676 15697 1 15697 0.313735 0 0 0 53907 1 -1 2.31455 8.48685e-05 0 (8.89712 7.51011 0) 684.569 0.0130801 0 (0 0 0) 294.571 2226.33 4.50789e-10 1(1) 0.000109116 (3.09199e-05 -0.295 5.42101e-20) 0.020197 0.000399227 0 1 0 0 -4.5036e+15 -8.51848e-11 1 0.00404519 0
0.0400248 1 (0 0.351511 0.148489 0.5) 2851 15705 1 15705 0.760655 0 0 0 50476 1 -1 1.09772 0.00010777 0 (12.1429 8.31517 0) 683.268 0.0147993 0 (0 0 0) 296.116 2231.82 1.03095e-09 1(1) 0.000143762 (6.30903e-05 -0.295 0) 0.0200382 0.000392637 0 1 0 0 -4.5036e+15 -8.60677e-10 1 0.00513219 0
0.0400248 1 (0 0.5 0.134574 0.365426) 2831 15704 2 15704 0.471088 0 0 0 51073 1 -1 0.98488 0.000112115 0 (12.6244 7.81125 0) 682.893 0.0144983 0 (0 0 0) 296.56 2233.41 9.62855e-10 1(1) 0.000140524 (6.28539e-05 -0.295 5.42101e-20) 0.0199927 0.000390781 0 1 0 0 -4.5036e+15 3.10102e-09 1 0.00541512 0
0.0400248 1 (0 0.5 0.478377 0.0216233) 2499 15691 2 15691 0.562925 0 0 0 54870 1 -1 2.16069 8.69663e-05 0 (9.05074 6.88392 0) 684.288 0.0126032 0 (0 0 0) 294.906 2227.51 4.69695e-10 1(1) 0.000110621 (2.66288e-05 -0.295 5.42101e-20) 0.0201626 0.000397783 0 1 0 0 -4.5036e+15 -9.57427e-11 1 0.00424904 0
0.0400248 1 (0 0.5 0.316567 0.183433) 2748 15700 2 15700 0.104991 0 0 0 53142 1 -1 1.52612 9.80084e-05 0 (11.3183 7.53581 0) 683.611 0.0134616 0 (0 0 0) 295.708 2230.36 7.54159e-10 1(1) 0.000129534 (4.77297e-05 -0.295 0) 0.0200801 0.000394356 0 1 0 0 -4.5036e+15 -6.90866e-10 1 0.00464705 0
0.0400248 1 (0 0.5 0.167339 0.332661) 2052 15718 2 15718 0.909753 0 0 0 57634 1 -1 1.60431 9.76013e-05 0 (10.3621 5.06781 0) 682.923 0.011222 0 (0 0 0) 296.525 2233.28 7.24213e-10 1(1) 0.000127797 (1.57233e-05 -0.295 -5.42101e-20) 0.0199962 0.000390925 0 1 0 0 -4.5036e+15 -1.48549e-10 1 0.00502306 0
0.0400248 1 (0 0.36829 0.13171 0.5) 2227 15723 1 15723 0.972032 0 0 0 56830 1 -1 1.36623 0.000103312 0 (12.2944 5.65448 0) 682.565 0.0116238 0 (0 0 0) 296.949 2234.8 8.9155e-10 1(1) 0.000136966 (3.33163e-05 -0.295 0) 0.0199527 0.000389166 0 1 0 0 -4.5036e+15 -5.232e-10 1 0.00504334 0
0.0400248 3 (0 0.5 0.417319 0.082681) 1408 15578 1 15578 0.960011 0 0 0 3387 1 -1 0.318868 6.44706e-05 0 (-4.69861 14.3153 0) 687.019 0.0383512 0 (0 0 0) 291.651 2216.1 1.81737e-11 1(1) 3.7415e-05 (-2.3379e-05 -0.295 2.71051e-20) 0.0204979 0.000412248 0 1 0 0 0 0 1 0.00234625 0
0.0400248 3 (0 0.492562 0.5 0.00743817) 1198 15572 2 15572 0.904323 0 0 0 43360 1 -1 1.29186 9.67034e-05 0 (-10.4237 12.6773 0) 684.605 0.0183604 0 (0 0 0) 294.528 2226.17 6.64393e-10 1(1) 0.000124176 (-8.44242e-05 -0.295 0) 0.0202015 0.000399414 0 1 0 0 -4.5036e+15 -1.57714e-10 1 0.00411573 0
0.0400248 3 (0 0.340019 0.5 0.159981) 1093 15569 2 15569 0.0521125 0 0 0 9745 1 -1 0.347834 9.25796e-05 0 (-6.36395 10.2436 0) 685.922 0.035157 0 (0 0 0) 292.961 2220.66 4.80821e-11 1(1) 5.17478e-05 (-9.078e-06 -0.295 -2.71051e-20) 0.0203628 0.000406314 0 1 0 0 0 0 1 0.00452369 0