/*--------------------------------*- C++ -*----------------------------------*\
  =========                 |
  \\      /  F ield         | OpenFOAM: The Open Source CFD Toolbox
   \\    /   O peration     | Website:  https://openfoam.org
    \\  /    A nd           | Version:  8
     \\/     M anipulation  |
\*---------------------------------------------------------------------------*/
FoamFile
{
    version     2.0;
    format      ascii;
    class       volScalarField;
    location    "200";
    object      epsilon;
}
// * * * * * * * * * * * * * * * * * * * * * * * * * * * * * * * * * * * * * //

dimensions      [0 2 -3 0 0 0 0];

internalField   nonuniform List<scalar> 
15677
(
1182.96
450.74
1558.79
85.8082
451.645
1455.66
19.81
116.596
388.104
1275.6
7.21259
35.9264
104.771
360.503
1158.61
3.82901
14.3044
37.2929
92.6158
360.991
1085.65
2.64034
7.18076
17.1136
35.2355
94.1182
365.897
1041.6
2.1617
4.33783
9.17355
17.286
33.6969
99.4774
372.435
1011.07
1.97289
3.03441
5.58351
9.92113
17.0564
33.9547
109.078
373.015
991.123
1.90448
2.3828
3.7925
6.27459
10.1569
16.6784
35.4103
119.153
372.056
975.128
1.87844
2.06059
2.83783
4.30799
6.63537
10.1324
16.7245
38.3636
129.199
368.158
964.209
1.86721
1.92147
2.31396
3.19106
4.63773
6.78551
10.0796
17.0223
42.2901
137.093
363.451
957.77
1.86735
1.86801
2.02991
2.5393
3.44683
4.83114
6.83256
10.084
17.7001
46.4508
143.396
358.861
955.622
1.86899
1.84318
1.89333
2.15982
2.71933
3.62225
4.9349
6.8465
10.141
18.7163
50.7171
147.994
354.89
956.664
1.86962
1.83738
1.83764
1.9488
2.27424
2.85592
3.73602
4.98902
6.85132
10.2843
19.9439
54.5772
151.431
351.738
960.343
1.86972
1.83718
1.81462
1.84527
2.0098
2.36881
2.95484
3.80797
5.0145
6.8646
10.5463
21.1974
58.1687
153.523
349.376
967.929
1.8697
1.83753
1.80889
1.80067
1.86356
2.066
2.4431
3.02471
3.85129
5.02524
6.89863
10.8375
22.5358
61.1109
154.878
347.7
979.534
1.86967
1.83769
1.80791
1.78609
1.79397
1.88813
2.11369
2.4998
3.07237
3.8756
5.03142
6.95141
11.1801
23.761
63.6153
155.372
346.698
994.71
1.86965
1.83772
1.80788
1.782
1.76781
1.79444
1.91112
2.15262
2.5417
3.1037
3.88783
5.03673
7.02194
11.5137
24.9513
65.4285
155.356
346.299
1013.57
1.86965
1.8377
1.80793
1.78102
1.75908
1.75496
1.79654
1.93163
2.18326
2.57191
3.12282
3.89262
5.04433
7.0949
11.8603
25.9648
66.7674
155.069
346.417
1036.14
1.86965
1.83769
1.80793
1.78084
1.75638
1.74003
1.74514
1.80068
1.94889
2.20678
2.59256
3.13355
3.89214
5.05167
7.17403
12.1759
26.8312
67.5687
154.447
346.909
1062.47
1.86965
1.83767
1.8079
1.78081
1.75563
1.73473
1.72374
1.73809
1.80498
1.96292
2.2241
2.60615
3.1376
3.88967
5.05994
7.24789
12.4626
27.4857
67.9792
153.436
347.936
1092.54
1.86965
1.83766
1.80788
1.78078
1.75541
1.73301
1.71522
1.7103
1.73263
1.8089
1.97382
2.23651
2.61394
3.137
3.88473
5.06625
7.3151
12.6964
27.9569
67.9181
152.292
349.462
1126.28
1.86966
1.83764
1.80786
1.78075
1.75532
1.73248
1.71206
1.69841
1.69871
1.72847
1.8121
1.98208
2.24483
2.61777
3.13445
3.87753
5.07136
7.37039
12.8809
28.2398
67.6657
151.097
351.385
1163.61
1.86966
1.83763
1.80786
1.78071
1.75526
1.7323
1.71093
1.69364
1.68322
1.6892
1.72497
1.81465
1.98815
2.25029
2.61819
3.12918
3.86952
5.0717
7.41052
13.0018
28.3224
67.123
149.751
353.731
1204.36
1.86965
1.83762
1.80786
1.78068
1.75522
1.7322
1.71052
1.69183
1.67653
1.67045
1.68084
1.72224
1.81672
1.99269
2.25352
2.61752
3.12294
3.85982
5.06991
7.43757
13.0752
28.2688
66.3298
148.351
356.428
1248.49
1.86965
1.83762
1.80786
1.78064
1.75519
1.73212
1.71033
1.69114
1.67378
1.66197
1.65881
1.67418
1.72011
1.81857
1.99629
2.25572
2.61609
3.11584
3.85047
5.06533
7.44532
13.0722
28.1209
65.402
146.884
359.536
1295.63
1.86964
1.83762
1.80786
1.78061
1.75517
1.73205
1.71022
1.69083
1.67266
1.65829
1.64832
1.64957
1.66861
1.71891
1.82083
1.99983
2.25797
2.6144
3.11035
3.84034
5.05719
7.43967
13.0457
27.839
64.3403
145.442
362.908
1345.8
1.86963
1.83763
1.80786
1.78059
1.75516
1.73198
1.71015
1.69065
1.67216
1.65672
1.64355
1.63751
1.64124
1.66477
1.71929
1.82399
2.00404
2.26091
2.61487
3.10521
3.83301
5.04655
7.42494
12.9847
27.4658
63.2061
143.948
366.681
1398.45
1.86962
1.83764
1.80786
1.78057
1.75515
1.73192
1.7101
1.69052
1.6719
1.656
1.64143
1.6318
1.62732
1.63585
1.66294
1.72103
1.82867
2.00999
2.26605
2.61717
3.10527
3.82665
5.03561
7.39917
12.8792
27.0368
61.9983
142.545
370.61
1453.25
1.86962
1.83765
1.80785
1.78055
1.75513
1.73186
1.71007
1.69042
1.67174
1.65564
1.64044
1.62912
1.62056
1.62091
1.63156
1.66386
1.72495
1.83596
2.01867
2.27448
2.62281
3.10765
3.82506
5.02619
7.36558
12.7526
26.5608
60.7867
141.101
374.94
1516.25
1.86961
1.83766
1.80784
1.78053
1.75512
1.73181
1.71005
1.69033
1.67164
1.65542
1.63993
1.62782
1.61735
1.61333
1.61485
1.63197
1.66703
1.73243
1.84675
2.03135
2.28703
2.63381
3.11437
3.82729
5.0179
7.32884
12.609
26.065
59.5464
139.777
379.867
1588.57
1.86961
1.83766
1.80783
1.78051
1.7551
1.73178
1.71006
1.69025
1.67159
1.65525
1.63961
1.62716
1.61577
1.60953
1.60651
1.6148
1.63457
1.67376
1.74416
1.86231
2.04904
2.30541
2.65093
3.12792
3.83406
5.01438
7.29076
12.4592
25.5527
58.3414
138.317
385.836
1662.42
1.86961
1.83767
1.80782
1.7805
1.75509
1.73177
1.71007
1.69021
1.67156
1.6551
1.63939
1.62678
1.61493
1.60758
1.60236
1.60565
1.61697
1.64078
1.68585
1.76141
1.88375
2.07337
2.33062
2.67551
3.14937
3.84799
5.0163
7.25557
12.3048
25.0464
57.0161
136.819
391.999
1737.17
1.86961
1.83767
1.80781
1.78049
1.75508
1.73177
1.7101
1.69017
1.67155
1.65495
1.63922
1.62651
1.6144
1.60655
1.60023
1.60093
1.60768
1.62289
1.65277
1.70409
1.78532
1.91267
2.10536
2.36435
2.70847
3.17937
3.87098
5.0231
7.22223
12.1548
24.4928
55.6127
135.453
398.247
1812.6
1.83767
1.86965
1.80781
1.78048
1.75508
1.73178
1.71013
1.69015
1.67154
1.6548
1.63908
1.62627
1.61396
1.60592
1.59905
1.59847
1.60289
1.61352
1.6347
1.6717
1.72969
1.81756
1.95024
2.14683
2.40737
2.75133
3.21861
3.90322
5.03714
7.19732
11.9932
23.9073
54.3028
134.126
404.831
1887.52
1.80781
1.83776
1.86973
1.78048
1.75507
1.73179
1.71016
1.69014
1.67152
1.65463
1.63897
1.626
1.61356
1.60546
1.59828
1.59712
1.60039
1.60874
1.62533
1.65423
1.69861
1.7644
1.85942
1.99833
2.19862
2.46145
2.80458
3.26846
3.94451
5.0614
7.17521
11.8279
23.3649
53.0681
133.032
411.195
1962.14
1.78048
1.80798
1.83795
1.86981
1.75507
1.7318
1.71018
1.69012
1.67147
1.65446
1.63885
1.62568
1.61318
1.60508
1.59767
1.59628
1.59905
1.6063
1.62066
1.64542
1.68227
1.7353
1.8096
1.91291
2.05804
2.26281
2.52706
2.86959
3.3289
3.99642
5.09798
7.16719
11.6836
22.8643
51.9582
131.908
417.946
2035.28
1.75506
1.78068
1.80831
1.83814
1.86989
1.73179
1.71019
1.6901
1.67142
1.6543
1.63872
1.62532
1.61283
1.60475
1.59712
1.59569
1.59825
1.60506
1.6184
1.64132
1.67454
1.72091
1.78345
1.86731
1.97901
2.13138
2.33969
2.6059
2.94661
3.40099
4.06563
5.15237
7.17241
11.5571
22.4167
50.9099
131.052
424.262
2107.16
1.73178
1.75531
1.7811
1.80865
1.83834
1.86997
1.71018
1.69007
1.67136
1.65415
1.63857
1.62494
1.61254
1.60445
1.59663
1.59527
1.59771
1.60439
1.6174
1.63973
1.67161
1.7151
1.77194
1.84551
1.93947
2.0604
2.21883
2.43122
2.69793
3.03642
3.494
4.15803
5.22151
7.18784
11.4532
22.0091
49.9915
130.159
430.824
2176.94
1.71017
1.73203
1.75582
1.78154
1.809
1.83854
1.87006
1.69006
1.6713
1.65402
1.63841
1.62457
1.61233
1.60418
1.59623
1.59502
1.59738
1.60402
1.61703
1.63938
1.67108
1.71396
1.76901
1.83851
1.92385
2.02897
2.15849
2.32355
2.53698
2.80441
3.15117
3.61453
4.26595
5.30375
7.21847
11.3672
21.6545
49.1277
129.508
436.967
2244.74
1.69004
1.71047
1.73259
1.75635
1.78199
1.80935
1.83876
1.87015
1.67127
1.65392
1.63826
1.62425
1.6122
1.60396
1.59597
1.59497
1.59726
1.60391
1.61701
1.63965
1.67182
1.71522
1.77039
1.8391
1.92189
2.02112
2.13807
2.27707
2.44606
2.66046
2.93791
3.29607
3.7514
4.38748
5.39773
7.26253
11.3046
21.3343
48.3813
128.835
443.208
2310.07
1.67126
1.6904
1.7111
1.73317
1.7569
1.78245
1.80971
1.83897
1.87024
1.65386
1.63814
1.624
1.61213
1.60379
1.59588
1.59512
1.59737
1.60406
1.61734
1.64034
1.67321
1.71784
1.77447
1.84459
1.92798
2.02613
2.13856
2.26852
2.41656
2.59022
2.81743
3.10968
3.46058
3.90359
4.52086
5.50235
7.31866
11.2552
21.0613
47.6843
128.355
449.088
2372.95
1.65385
1.67168
1.69113
1.71175
1.73377
1.75746
1.78292
1.81008
1.8392
1.87033
1.63807
1.62383
1.61211
1.60367
1.59594
1.59544
1.59771
1.6045
1.61802
1.64144
1.67508
1.72113
1.77997
1.85299
1.9393
2.04009
2.15359
2.28117
2.4215
2.57882
2.77381
3.0219
3.30662
3.64442
4.0703
4.66556
5.61633
7.38351
11.2278
20.8169
47.0859
127.868
454.945
2433.16
1.63805
1.65432
1.67251
1.69186
1.71241
1.7344
1.75804
1.78341
1.81046
1.83943
1.87043
1.62373
1.61209
1.60358
1.59612
1.59586
1.59823
1.60522
1.61909
1.64301
1.67747
1.72495
1.78618
1.86302
1.95395
2.05983
2.17824
2.30965
2.45031
2.60246
2.78521
3.00845
3.25489
3.52924
3.84802
4.25107
4.81949
5.73768
7.45741
11.2074
20.6108
46.5312
127.532
460.496
2490.68
1.6237
1.63854
1.65523
1.67335
1.69261
1.7131
1.73505
1.75864
1.78391
1.81085
1.83967
1.87052
1.61205
1.60351
1.59635
1.59627
1.59888
1.60616
1.62053
1.64505
1.68043
1.72938
1.79299
1.87381
1.97056
2.08371
2.20964
2.34907
2.49634
2.65223
2.83526
3.05443
3.27697
3.51329
3.77333
4.06965
4.44396
4.98217
5.86558
7.53726
11.2076
20.4287
46.0612
127.195
465.93
2545.45
1.61198
1.62416
1.63949
1.65615
1.67419
1.69338
1.71381
1.73573
1.75926
1.78442
1.81124
1.83993
1.87062
1.60342
1.5965
1.59662
1.59955
1.60722
1.62224
1.64751
1.68395
1.73444
1.8005
1.88528
1.98804
2.11023
2.24648
2.39697
2.5554
2.72176
2.91437
3.14233
3.36678
3.58057
3.79762
4.03523
4.30799
4.64956
5.15236
5.99809
7.62283
11.213
20.2754
45.6245
126.976
471.109
2597.47
1.60329
1.61223
1.62513
1.64046
1.65709
1.67505
1.69416
1.71456
1.73644
1.75989
1.78494
1.81165
1.84018
1.87071
1.59651
1.59684
1.60012
1.60827
1.62405
1.65022
1.68789
1.74007
1.8087
1.89746
2.00628
2.13789
2.28704
2.45254
2.62567
2.80781
3.01753
3.26488
3.5032
3.72404
3.91906
4.1078
4.31359
4.55584
4.86412
5.32774
6.13425
7.71236
11.2259
20.1402
45.2593
126.759
476.107
2646.78
1.59636
1.60339
1.61292
1.62614
1.64145
1.65803
1.67592
1.69497
1.71533
1.73716
1.76053
1.78548
1.81206
1.84044
1.8708
1.59685
1.60045
1.60914
1.62576
1.65294
1.69199
1.74603
1.81741
1.91027
2.02527
2.16646
2.32916
2.51382
2.70713
2.90959
3.14299
3.41933
3.68315
3.92196
4.12775
4.2922
4.44207
4.60819
4.81208
5.08612
5.50803
6.27304
7.80465
11.248
20.0283
44.9184
126.639
480.89
2693.37
1.5966
1.59618
1.60381
1.6137
1.62717
1.64244
1.65898
1.67681
1.69581
1.71613
1.73791
1.76119
1.78602
1.81247
1.84069
1.87089
1.60047
1.60965
1.62714
1.6554
1.69592
1.75196
1.82626
1.92335
2.04475
2.19569
2.37233
2.57769
2.7974
3.02828
3.29174
3.60687
3.90776
4.17727
4.40307
4.57951
4.69925
4.79852
4.91661
5.07474
5.31075
5.69153
6.41325
7.89863
11.2762
19.9302
44.6358
126.51
485.452
2737.38
1.60014
1.59594
1.59625
1.60429
1.6146
1.62823
1.64345
1.65995
1.67773
1.69668
1.71697
1.73868
1.76186
1.78656
1.81287
1.84094
1.87097
1.6097
1.62795
1.65734
1.69937
1.75747
1.83479
1.93621
2.06421
2.22505
2.4161
2.64318
2.89176
3.16106
3.46726
3.83221
4.18335
4.4977
4.75719
4.95197
5.08084
5.13919
5.17505
5.23636
5.34301
5.53558
5.87596
6.55356
7.99356
11.3088
19.85
44.3716
126.474
489.836
2778.79
1.60932
1.59908
1.595
1.59648
1.60487
1.61559
1.62929
1.64447
1.66093
1.67867
1.69758
1.71783
1.73946
1.76252
1.78709
1.81326
1.84118
1.87105
1.62808
1.65847
1.70203
1.76217
1.8425
1.94828
2.08296
2.25378
2.45966
2.7093
2.98839
3.3013
3.66682
4.1037
4.52176
4.89928
5.20959
5.43621
5.57515
5.63337
5.61086
5.56947
5.56513
5.61509
5.75957
6.05978
6.69305
8.08834
11.345
19.7803
44.1541
126.392
493.967
2817.79
1.6276
1.60766
1.59756
1.59411
1.59694
1.60552
1.61664
1.63035
1.64551
1.66193
1.67965
1.69852
1.71871
1.74024
1.76317
1.7876
1.81364
1.84141
1.87113
1.65869
1.7036
1.76576
1.84899
1.95902
2.10031
2.281
2.50197
2.77468
3.08574
3.44656
3.88086
4.41943
4.94118
5.40839
5.79461
6.07186
6.23081
6.2799
6.23869
6.11292
5.97952
5.90068
5.88894
5.98161
6.24124
6.83023
8.1823
11.3838
19.7244
43.9515
126.402
497.958
2854.35
1.65815
1.62492
1.60504
1.59613
1.59345
1.59757
1.60626
1.61774
1.63142
1.64657
1.66296
1.68066
1.69949
1.7196
1.741
1.76379
1.78809
1.814
1.84164
1.87121
1.70399
1.76795
1.85397
1.96801
2.11567
2.30594
2.54198
2.83782
3.1821
3.59475
4.10487
4.76488
5.44543
6.06513
6.56662
6.92431
7.11852
7.15843
7.07293
6.89766
6.64368
6.40285
6.24084
6.1627
6.20071
6.42002
6.96543
8.27509
11.4245
19.6763
43.7848
126.422
501.683
2883.94
1.70349
1.65426
1.62038
1.60256
1.59499
1.59304
1.59831
1.60708
1.61884
1.6325
1.64764
1.66403
1.6817
1.70046
1.72046
1.74173
1.76439
1.78857
1.81436
1.84186
1.87128
1.76865
1.85721
1.97501
2.12865
2.32804
2.57881
2.89736
3.27571
3.74314
4.33464
5.13407
6.01844
6.8905
7.60476
8.09136
8.34787
8.38143
8.23301
7.95819
7.60958
7.20078
6.83696
6.58354
6.43477
6.41566
6.59331
7.09784
8.36588
11.4664
19.6386
43.631
126.459
504.817
2908.84
1.76835
1.6981
1.64725
1.61604
1.60048
1.59411
1.59286
1.59911
1.60799
1.61995
1.63361
1.64874
1.66512
1.68274
1.70142
1.72131
1.74245
1.76498
1.78904
1.8147
1.84207
1.87135
1.85862
1.97989
2.13907
2.34698
2.61188
2.95234
3.3651
3.88888
4.56598
5.52384
6.65723
7.86706
8.95445
9.70453
10.0714
10.1124
9.88115
9.46058
8.93506
8.37151
7.78102
7.2792
6.92677
6.70365
6.62629
6.76058
7.22644
8.4546
11.5089
19.6066
43.5048
126.518
507.427
2936.15
1.8589
1.76108
1.6878
1.64045
1.61233
1.59873
1.59346
1.59292
1.59993
1.60897
1.62106
1.63475
1.64985
1.66622
1.68376
1.70235
1.72213
1.74315
1.76556
1.78949
1.81504
1.84227
1.87142
1.9827
2.14687
2.36269
2.6409
3.00221
3.4492
4.02956
4.7958
5.9318
7.36002
8.98806
10.5816
11.8309
12.4814
12.5662
12.2412
11.622
10.8375
9.99775
9.1781
8.38038
7.72674
7.26856
6.96806
6.83169
6.92159
7.35083
8.54028
11.5514
19.5827
43.4077
126.574
510.354
2965.92
1.98409
1.8493
1.7463
1.67773
1.63447
1.60913
1.59725
1.59301
1.5933
1.60074
1.61002
1.62218
1.63592
1.65096
1.66729
1.68475
1.70326
1.72293
1.74382
1.76612
1.78994
1.81536
1.84247
1.87145
2.15221
2.3752
2.66584
3.04679
3.52738
4.16355
5.02235
6.35571
8.12094
10.2413
12.4604
14.4003
15.6654
16.0074
15.5998
14.733
13.593
12.3513
11.136
10.022
8.99413
8.1766
7.60705
7.22686
7.03104
7.07623
7.47018
8.62335
11.5938
19.5659
43.3349
126.647
513.51
2998.53
2.15571
1.97165
1.82842
1.73182
1.66876
1.62907
1.60636
1.596
1.59256
1.59392
1.60156
1.61113
1.6233
1.63707
1.65204
1.66833
1.68572
1.70414
1.7237
1.74448
1.76666
1.79037
1.81568
1.84257
1.87145
2.38476
2.68678
3.08617
3.5994
4.28998
5.24494
6.79292
8.93059
11.606
14.5574
17.3583
19.5053
20.5524
20.3125
19.1652
17.5659
15.77
13.9823
12.336
10.8945
9.61698
8.6257
7.94047
7.47902
7.22369
7.22413
7.58492
8.70265
11.6296
19.5551
43.2548
126.732
517.034
3034.16
2.39184
2.14002
1.94229
1.80802
1.71883
1.66059
1.62418
1.60394
1.59498
1.5922
1.5947
1.60239
1.61228
1.62441
1.63819
1.6531
1.66934
1.68667
1.70501
1.72446
1.74512
1.76719
1.7908
1.81584
1.84256
1.87145
2.70407
3.12056
3.66531
4.4086
5.4635
7.24042
9.77796
13.0578
16.8301
20.6436
23.9108
26.0249
26.5362
25.3861
23.2271
20.7002
18.1196
15.7057
13.5807
11.7846
10.243
9.071
8.26706
7.72357
7.40905
7.36567
7.69361
8.76824
11.661
19.5432
43.177
126.835
520.899
3073.06
2.71766
2.37223
2.09889
1.91376
1.78959
1.70686
1.65308
1.61978
1.60187
1.59414
1.59198
1.59558
1.60328
1.61341
1.62549
1.63928
1.65413
1.67033
1.68759
1.70584
1.72518
1.74574
1.76771
1.79101
1.81584
1.84256
1.87145
3.1505
3.72526
4.51957
5.67817
7.69492
10.6521
14.573
19.235
24.1858
28.784
32.2888
34.029
33.6139
31.1866
27.7333
24.0889
20.6055
17.4961
14.8537
12.6823
10.866
9.50895
8.58514
7.95963
7.58689
7.49965
7.78339
8.82416
11.696
19.535
43.0917
126.972
525.148
3115.71
3.17485
2.69379
2.31434
2.05923
1.8879
1.77246
1.69574
1.64619
1.61585
1.60007
1.59347
1.59191
1.59651
1.60421
1.61451
1.62657
1.64034
1.65515
1.6713
1.68848
1.70665
1.72589
1.74634
1.76797
1.79102
1.81584
1.84256
1.87145
3.77985
4.62336
5.8892
8.15303
11.5427
16.1303
21.7326
27.9156
34.0146
39.1993
42.6015
43.5333
41.7404
37.6451
32.6173
27.6792
23.1898
19.3283
16.1389
13.5776
11.4802
9.93607
8.89278
8.18649
7.75629
7.61035
7.85937
8.88588
11.7356
19.5249
43.0135
127.117
529.944
3162.06
3.82538
3.14588
2.61176
2.25914
2.02316
1.86371
1.75643
1.68542
1.63987
1.61234
1.59851
1.59296
1.592
1.59742
1.60518
1.61557
1.62764
1.64137
1.65615
1.67225
1.68935
1.70743
1.72657
1.74664
1.76797
1.79102
1.81584
1.84256
1.87145
4.72087
6.09684
8.61141
12.4405
17.7108
24.2881
31.7704
39.4973
46.5926
52.0452
54.8904
54.4945
50.8287
44.6694
37.8035
31.416
25.8353
21.1779
17.4207
14.461
12.08
10.3493
9.18799
8.40294
7.89515
7.70368
7.94286
8.95413
11.7799
19.522
42.9249
127.339
535.079
3213.04
4.80387
3.79138
3.02744
2.53458
2.20883
1.98925
1.84092
1.74139
1.67582
1.63408
1.6092
1.59717
1.59263
1.59226
1.59828
1.60619
1.6166
1.62869
1.64238
1.65712
1.67317
1.6902
1.70819
1.72689
1.74663
1.76797
1.79102
1.81584
1.84256
1.87142
6.30138
9.067
13.337
19.2983
26.8718
35.6965
45.137
54.3091
62.1217
67.3969
69.1237
66.8115
60.7558
52.1514
43.2114
35.2449
28.5071
23.0228
18.685
15.3232
12.66
10.7456
9.46831
8.57802
8.01265
7.80606
8.03471
9.0297
11.8305
19.5156
42.854
127.547
541.084
3268.19
4.76152
6.4821
3.61666
2.91812
2.46414
2.16137
1.95714
1.81941
1.72728
1.66689
1.62876
1.60641
1.59603
1.59244
1.59275
1.59909
1.60722
1.61761
1.62973
1.64337
1.65809
1.67408
1.69103
1.70856
1.72688
1.74663
1.76797
1.79102
1.81584
1.84247
1.87135
9.51693
14.2255
20.8785
29.4577
39.6488
50.853
62.2063
72.5954
80.7151
85.2445
85.1958
80.3311
71.3709
59.9724
48.76
39.1145
31.1732
24.8427
19.9186
16.1557
13.2147
11.1205
9.69459
8.72641
8.14207
7.91849
8.13589
9.11353
11.8873
19.5186
42.7674
127.893
547.345
3328.91
4.49054
6.44464
9.91417
3.45866
2.81843
2.39752
2.11627
1.92669
1.7991
1.71404
1.65858
1.62385
1.60398
1.59509
1.59224
1.59341
1.59988
1.60825
1.61859
1.63076
1.64433
1.65904
1.67497
1.69144
1.70855
1.72688
1.74663
1.76797
1.79102
1.81568
1.84226
1.87128
15.0996
22.4402
32.0246
43.59
56.5796
70.1652
83.2557
94.505
102.394
105.492
102.933
94.8573
82.5041
68.0104
54.3719
42.9787
33.8057
26.6198
21.1096
16.9504
13.7374
11.4221
9.88646
8.89003
8.28428
8.04214
8.24744
9.20655
11.9523
19.5252
42.7129
128.201
554.864
3394.42
4.25068
5.99817
9.90787
15.8828
3.31515
2.7241
2.33407
2.07336
1.89781
1.77992
1.70161
1.65082
1.61933
1.6019
1.59433
1.59205
1.59416
1.60066
1.60927
1.61956
1.63176
1.64529
1.65998
1.67543
1.69145
1.70855
1.72688
1.74663
1.76797
1.7908
1.81536
1.84206
1.8712
23.9738
34.5562
47.4899
62.264
78.092
93.9293
108.46
120.091
127.086
127.963
122.1
110.162
93.9756
76.1467
59.9767
46.7966
36.3802
28.3387
22.2471
17.6979
14.1566
11.6778
10.098
9.07033
8.44059
8.1782
8.37045
9.30988
12.0256
19.541
42.6388
128.717
562.654
3466.24
4.0348
5.60436
9.14441
15.9675
25.3655
3.17966
2.6342
2.27356
2.03254
1.87043
1.76182
1.68992
1.64364
1.61532
1.60015
1.59371
1.59195
1.59494
1.60146
1.61027
1.62051
1.63276
1.64623
1.66047
1.67544
1.69145
1.70855
1.72688
1.74663
1.76771
1.79037
1.81503
1.84184
1.87113
37.039
51.3272
67.8666
85.9154
104.484
122.329
137.898
149.317
154.633
152.402
142.415
125.996
105.606
84.2709
65.5127
50.5342
38.8768
29.9857
23.3199
18.298
14.5122
11.9597
10.3311
9.26908
8.61249
8.32799
8.50623
9.42484
12.1099
19.5607
42.6113
129.196
571.968
3543.8
3.83292
5.24953
8.4493
14.7451
25.6493
39.3129
3.05077
2.54843
2.21592
1.99375
1.8445
1.74473
1.67903
1.63716
1.61185
1.59868
1.59323
1.59196
1.59571
1.60227
1.61122
1.62144
1.63375
1.6467
1.66048
1.67545
1.69145
1.70855
1.72689
1.74633
1.76719
1.78994
1.81469
1.84162
1.87105
55.0849
73.3616
93.5855
114.827
135.929
155.452
171.565
182.061
184.789
178.49
163.558
142.105
117.224
92.2843
70.9281
54.1647
41.279
31.5479
24.1864
18.8085
14.9048
12.2704
10.588
9.48814
8.8016
8.4929
8.65583
9.55336
12.2051
19.5979
42.5536
129.936
581.958
3627.87
3.64257
4.91948
7.81073
13.6001
23.8408
39.9524
58.5485
2.92803
2.46673
2.16111
1.95697
1.81997
1.72873
1.66914
1.63145
1.60884
1.59743
1.59288
1.59207
1.59646
1.6031
1.61212
1.62238
1.63425
1.64668
1.6605
1.67545
1.69145
1.70855
1.72655
1.74573
1.76665
1.78949
1.81434
1.8414
1.87097
78.7291
101.074
124.897
149.136
172.497
193.315
209.389
218.118
217.228
205.847
185.19
158.236
128.672
100.102
76.1828
57.6668
43.5719
32.8213
24.9267
19.374
15.3382
12.6129
10.8711
9.72942
9.00962
8.67469
8.82
9.69663
12.3149
19.641
42.5618
130.721
593.338
3719.04
3.46283
4.61072
7.21233
12.5173
22.1085
37.4541
59.7386
83.6934
2.8113
2.38907
2.10912
1.92214
1.79697
1.71416
1.66034
1.62639
1.60623
1.59638
1.59265
1.59229
1.59716
1.60394
1.61301
1.62281
1.63424
1.64668
1.6605
1.67545
1.69145
1.70818
1.72587
1.7451
1.76611
1.78903
1.81399
1.84116
1.87088
108.362
134.668
161.881
188.869
214.199
235.885
251.229
257.199
251.543
234.055
206.966
174.152
139.808
107.656
81.2453
61.0227
45.4582
33.9147
25.7501
20.0004
15.8171
12.9907
11.1831
9.99448
9.23835
8.87509
9.00023
9.85628
12.4393
19.7054
42.5856
131.741
606.524
3835.03
3.29323
4.32329
6.65051
11.4769
20.4332
35.0268
56.4727
85.6408
115.103
2.70059
2.31549
2.05995
1.88949
1.77599
1.70113
1.65248
1.62192
1.60397
1.59551
1.59252
1.59265
1.59783
1.60482
1.61338
1.62276
1.63425
1.64669
1.66049
1.67544
1.69103
1.70741
1.72516
1.74446
1.76555
1.78856
1.81362
1.84093
1.8708
144.126
174.149
204.494
234.001
261.023
283.097
296.877
298.919
287.26
262.671
228.547
189.63
150.51
114.889
86.0897
63.7986
47.0841
35.1348
26.666
20.6954
16.3467
13.4076
11.5271
10.2857
9.48967
9.09574
9.19802
10.0338
12.5818
19.7866
42.6438
133.049
622.94
3974.42
3.13351
4.05649
6.12205
10.4736
18.7908
32.6392
53.2813
81.5438
117.992
152.846
2.59594
2.24603
2.01391
1.85973
1.75721
1.68946
1.64547
1.61795
1.60204
1.59479
1.59239
1.59312
1.59856
1.60521
1.61326
1.62276
1.63425
1.64669
1.66048
1.67499
1.6902
1.70662
1.72442
1.7438
1.76497
1.78808
1.81325
1.84068
1.87071
185.938
219.379
252.641
284.503
312.961
334.851
346.035
342.801
323.851
291.243
249.609
204.467
160.668
121.752
90.0913
66.1968
48.9019
36.4961
27.6861
21.4674
16.9332
13.8681
11.9063
10.6054
9.76555
9.3382
9.41513
10.2303
12.7451
19.888
42.7632
134.659
646.808
4110.26
2.98346
3.80979
5.62843
9.51257
17.1742
30.2603
50.1078
77.5554
112.992
156.802
196.728
2.49744
2.18118
1.97204
1.8331
1.74037
1.67901
1.63922
1.61445
1.60043
1.59419
1.59227
1.59375
1.59883
1.60512
1.61323
1.62275
1.63424
1.64671
1.66
1.67408
1.68934
1.70581
1.72367
1.74312
1.76438
1.78759
1.81286
1.84043
1.87062
233.553
270.169
306.238
340.392
370.032
391.004
398.31
388.28
360.747
319.327
269.85
218.469
170.177
127.36
93.5498
68.8796
50.9333
38.0165
28.8236
22.3261
17.5834
14.377
12.324
10.9563
10.0679
9.60415
9.65256
10.4487
12.9277
20.0316
42.9312
137.651
668.819
4248.38
2.84288
3.5825
5.17164
8.6012
15.5875
27.8767
46.9107
73.5736
108.194
150.782
201.783
246.371
2.4058
2.1224
1.93467
1.80926
1.72529
1.66967
1.63368
1.61138
1.59907
1.59374
1.5924
1.59399
1.59865
1.60512
1.61322
1.62276
1.63426
1.64624
1.65904
1.67317
1.68846
1.70497
1.72289
1.74243
1.76378
1.78708
1.81246
1.84018
1.87052
286.665
326.339
365.289
401.808
432.315
451.368
453.202
434.7
397.368
346.496
288.963
231.429
177.798
132.202
97.4186
71.8772
53.204
39.716
30.0937
23.2827
18.3052
14.9399
12.7826
11.3406
10.3986
9.89462
9.91275
10.6873
13.143
20.2096
43.3596
140.165
698.596
4376.17
2.71259
3.37366
4.75308
7.74858
14.0415
25.489
43.6637
69.5419
103.423
145.157
194.541
252.436
301.304
2.32312
2.07012
1.90127
1.7879
1.71177
1.66135
1.62878
1.60872
1.59796
1.59363
1.59232
1.59382
1.59864
1.60512
1.61324
1.62281
1.63376
1.64529
1.65809
1.67224
1.68756
1.70411
1.7221
1.74171
1.76316
1.78656
1.81205
1.83992
1.87043
344.971
387.838
429.996
469.068
499.974
515.694
510.077
481.353
433.144
372.321
306.607
241.621
184.368
137.623
101.736
75.2242
55.7426
41.6173
31.5138
24.3499
19.1074
15.5627
13.2861
11.7611
10.7591
10.2115
10.1946
10.9531
13.4188
20.5485
43.7648
144.868
724.792
4505.94
2.59544
3.18317
4.3736
6.96318
12.5496
23.108
40.3573
65.414
98.6041
139.635
188.033
243.631
308.132
361.051
2.24994
2.02358
1.87141
1.76876
1.6997
1.65396
1.62448
1.60649
1.5974
1.59341
1.59201
1.59385
1.59865
1.60512
1.61336
1.62236
1.63275
1.64433
1.65712
1.67129
1.68664
1.70322
1.72128
1.74098
1.76253
1.78602
1.81164
1.83967
1.87033
408.31
454.83
500.807
542.695
573.214
583.594
568.185
527.519
467.508
396.304
320.354
250.397
191.747
143.671
106.547
78.9586
58.5809
43.7459
33.1034
25.5421
19.9999
16.2521
13.8384
12.2199
11.1514
10.5537
10.5025
11.2953
13.8062
20.8552
44.6369
148.41
760.991
4613.88
2.49219
3.01344
4.03773
6.24611
11.1277
20.7513
36.9952
61.1619
93.6629
134.122
181.79
236.112
297.244
368.247
425.31
2.18508
1.98209
1.8447
1.75165
1.68894
1.64742
1.62079
1.60511
1.59691
1.59304
1.59204
1.59385
1.59866
1.60521
1.61298
1.62141
1.63175
1.64335
1.65614
1.67032
1.6857
1.70232
1.72044
1.74024
1.76187
1.78548
1.81123
1.83942
1.87024
476.787
527.872
578.631
623.512
652.174
654.501
626.703
572.491
499.808
415.052
332.186
260.302
200
150.402
111.899
83.1219
61.7541
46.1304
34.8845
26.8753
20.994
17.0126
14.4435
12.7196
11.5748
10.925
10.8987
11.7263
14.1816
21.3775
45.3454
155.316
794.477
4726.77
2.40115
2.86429
3.75094
5.60479
9.79712
18.4419
33.5909
56.7717
88.5453
128.508
175.693
229.132
288.487
354.533
432.391
494.167
2.12753
1.94507
1.8208
1.73636
1.67936
1.64174
1.61828
1.60414
1.59642
1.5931
1.59204
1.59382
1.59884
1.60482
1.61208
1.62047
1.63073
1.64237
1.65514
1.66933
1.68473
1.70139
1.71959
1.73947
1.76121
1.78494
1.81083
1.83919
1.87014
551.1
608.304
665.135
712.64
736.975
727.684
684.881
615.498
525.378
431.188
345.584
271.424
209.201
157.876
117.842
87.7585
65.3003
48.8018
36.8811
28.3675
22.1016
17.8505
15.1052
13.2605
12.0335
11.4013
11.3788
12.1502
14.6451
21.8117
46.8468
160.691
836.494
4800.81
2.32083
2.73279
3.50878
5.05425
8.58368
16.2086
30.1673
52.2404
83.2089
122.706
169.589
222.546
280.689
344.209
414.787
500.671
568.473
2.07638
1.91203
1.79945
1.7227
1.67096
1.63767
1.61668
1.60347
1.59653
1.5931
1.59202
1.59399
1.59857
1.60394
1.61117
1.61952
1.6297
1.64136
1.65413
1.66832
1.68375
1.70045
1.71871
1.73868
1.76054
1.78441
1.81044
1.83896
1.87005
632.948
698.653
762.881
811.804
827.393
802.849
742.012
650.258
547.426
449.469
360.671
283.875
219.435
166.157
124.43
92.9152
69.2598
51.7937
39.1198
30.0381
23.3358
18.7731
15.8262
13.8482
12.6216
11.9692
11.8525
12.6027
15.0673
22.5547
48.0348
170.319
882.615
4870.95
2.24987
2.61673
3.30208
4.59438
7.53029
14.0973
26.7575
47.5767
77.6197
116.64
163.362
216.149
273.667
335.429
402.468
477.642
574.115
650.432
2.03088
1.88252
1.78031
1.71065
1.66471
1.63517
1.61581
1.60365
1.59654
1.59306
1.59235
1.59376
1.59783
1.6031
1.61022
1.61855
1.62867
1.64033
1.6531
1.66728
1.68274
1.69949
1.71783
1.73791
1.75989
1.7839
1.81006
1.83874
1.86997
725.677
803.331
876.369
921.838
925.323
880.05
789.706
680.422
572.41
470.07
377.606
297.771
230.788
175.311
131.719
98.6401
73.6752
55.1419
41.6287
31.908
24.704
19.7862
16.6138
14.6038
13.3219
12.5287
12.3286
13.0277
15.6047
23.1771
50.3036
178.887
945.574
4871.74
2.18709
2.51436
3.12328
4.21286
6.64255
12.1878
23.4278
42.8038
71.7533
110.23
156.892
209.791
267.149
327.958
392.457
462.843
543.448
655.523
744.578
1.99037
1.85609
1.76334
1.70142
1.66094
1.63402
1.61605
1.60367
1.59646
1.59346
1.59246
1.59313
1.59716
1.60228
1.60923
1.61757
1.62762
1.63928
1.65205
1.66622
1.68171
1.69852
1.71696
1.73715
1.75926
1.7834
1.80969
1.83853
1.86988
835.767
930.704
1008.43
1052.2
1033.76
947.703
831.718
714.781
600.625
493.228
396.559
313.238
243.352
185.408
139.763
104.982
78.589
58.8826
44.4371
33.9984
26.2173
20.9002
17.6322
15.51
14.0144
13.0762
12.78
13.485
16.0841
24.1561
52.4779
191.802
1015.82
4852.91
2.13145
2.42412
2.96684
3.89952
5.90096
10.528
20.3126
37.9959
65.5997
103.4
150.051
203.314
260.955
321.443
384.457
451.293
525.662
613.964
750.68
861.28
1.95416
1.83259
1.75003
1.69592
1.65939
1.63434
1.61608
1.60353
1.59698
1.59371
1.59234
1.59268
1.59646
1.60147
1.60822
1.61657
1.62656
1.6382
1.65098
1.66514
1.68067
1.69757
1.71612
1.73642
1.75864
1.78292
1.80933
1.83833
1.8698
975.767
1089.56
1189.67
1214.41
1134.79
1008.76
880.319
753.944
632.484
519.214
417.717
330.41
257.221
196.516
148.616
111.987
84.0429
63.052
47.574
36.3224
27.8905
22.351
18.8682
16.4146
14.6898
13.5961
13.2265
13.9023
16.6936
25.0985
55.4658
207.08
1092.77
4804.67
2.08192
2.34456
2.82907
3.63917
5.28591
9.10991
17.504
33.3418
59.2143
96.0815
142.7
196.543
254.89
315.669
378.008
442.613
512.251
592.541
694.139
874.58
1018.48
1.92192
1.81382
1.74212
1.6939
1.65981
1.63438
1.61589
1.60426
1.59752
1.59384
1.59248
1.59235
1.59571
1.60068
1.6072
1.61555
1.6255
1.63709
1.64989
1.66405
1.67965
1.69667
1.71531
1.73572
1.75804
1.78245
1.80898
1.83813
1.86972
1174.29
1354.48
1447.09
1373.8
1228.28
1081.19
937.016
798.882
668.549
548.369
441.297
349.428
272.493
208.703
158.332
119.698
90.0751
67.683
51.0649
38.8957
30.0817
24.1321
20.1175
17.3045
15.3353
14.0904
13.6363
14.3571
17.2731
26.322
59.2519
224.43
1188.15
4705.1
2.03797
2.27415
2.70739
3.41988
4.78028
7.91847
15.0147
28.995
52.8206
88.2737
134.689
189.274
248.739
310.411
372.84
436.235
502.669
577.015
667.703
794.586
1067.73
1280.4
1.89575
1.80281
1.73946
1.69442
1.65985
1.63413
1.61684
1.6053
1.59811
1.59432
1.59262
1.59215
1.59495
1.5999
1.60619
1.6145
1.62442
1.63595
1.64877
1.66297
1.67867
1.6958
1.71454
1.73504
1.75746
1.782
1.80864
1.83794
1.86964
1558.08
1754.28
1703.71
1522.4
1342.91
1168.73
1004.65
851.035
709.682
581.154
467.563
370.453
289.271
222.036
168.955
128.153
96.717
72.8025
54.9182
42.2696
32.7902
25.9537
21.3624
18.1651
15.9444
14.5438
14.0404
14.7826
17.966
27.7399
63.5603
248.018
1281.54
4585.92
2.00198
2.21206
2.59967
3.23201
4.36743
6.9306
12.8452
25.0029
46.6309
80.1903
125.925
181.271
242.247
305.425
368.71
431.783
496.266
566.171
649.927
761.636
944.867
1458.55
1861.82
1.88043
1.79943
1.7401
1.69447
1.65952
1.63537
1.61854
1.60674
1.59926
1.59495
1.59277
1.59206
1.59419
1.59912
1.6052
1.61342
1.62333
1.63479
1.64766
1.66193
1.67772
1.69496
1.7138
1.73438
1.75689
1.78155
1.80831
1.83776
1.8696
2178.94
2207.2
1962.13
1724.58
1490.81
1282.69
1086.65