/*--------------------------------*- C++ -*----------------------------------*\
  =========                 |
  \\      /  F ield         | OpenFOAM: The Open Source CFD Toolbox
   \\    /   O peration     | Website:  https://openfoam.org
    \\  /    A nd           | Version:  8
     \\/     M anipulation  |
\*---------------------------------------------------------------------------*/
FoamFile
{
    version     2.0;
    format      ascii;
    class       volScalarField;
    location    "500";
    object      k;
}
// * * * * * * * * * * * * * * * * * * * * * * * * * * * * * * * * * * * * * //

dimensions      [0 2 -2 0 0 0 0];

internalField   nonuniform List<scalar> 
15677
(
0.991539
0.878709
1.19177
0.495983
0.831008
1.13863
0.398763
0.479959
0.693334
1.04271
0.380438
0.386828
0.414435
0.659575
0.97798
0.375731
0.37261
0.358583
0.359294
0.668546
0.936486
0.374332
0.370445
0.355689
0.317531
0.358547
0.691655
0.911073
0.373838
0.370028
0.359204
0.329886
0.296002
0.368842
0.717181
0.893162
0.373577
0.369928
0.36205
0.342611
0.309252
0.283175
0.392614
0.732009
0.881459
0.373422
0.36999
0.364006
0.350928
0.326925
0.2924
0.284209
0.423447
0.744599
0.87199
0.37333
0.370043
0.365278
0.356119
0.339393
0.312663
0.282009
0.289378
0.456255
0.747398
0.865509
0.373281
0.370047
0.366076
0.359367
0.347558
0.328245
0.300838
0.275547
0.300393
0.483659
0.749986
0.861687
0.373257
0.370013
0.366542
0.361409
0.352857
0.33897
0.318056
0.291627
0.272408
0.315289
0.50781
0.75096
0.860445
0.373248
0.369972
0.366772
0.362671
0.356302
0.346192
0.330702
0.309278
0.28438
0.272831
0.331756
0.527159
0.751179
0.861086
0.373246
0.369936
0.366849
0.363404
0.358521
0.351034
0.339589
0.323157
0.301664
0.279369
0.274537
0.347429
0.543619
0.751014
0.863311
0.373245
0.369915
0.366849
0.363775
0.359901
0.354255
0.345744
0.333339
0.316296
0.295401
0.275784
0.277938
0.363226
0.555398
0.751019
0.867874
0.373244
0.369905
0.366826
0.363919
0.360693
0.356344
0.349957
0.340623
0.327485
0.310263
0.290195
0.273343
0.282849
0.376729
0.565285
0.75095
0.874798
0.373244
0.369899
0.366806
0.363944
0.361082
0.357624
0.352777
0.34575
0.335736
0.322143
0.304969
0.28595
0.271965
0.287885
0.389242
0.571443
0.75107
0.883795
0.373243
0.369896
0.366792
0.363933
0.361212
0.358329
0.354582
0.349278
0.341692
0.331173
0.317301
0.300409
0.282518
0.271367
0.293491
0.398796
0.576797
0.751072
0.894897
0.373243
0.369894
0.366784
0.363917
0.361237
0.358621
0.355642
0.351614
0.345889
0.337849
0.326954
0.313002
0.296464
0.279814
0.271486
0.298544
0.407113
0.579542
0.751067
0.908095
0.373243
0.369891
0.366778
0.363903
0.36123
0.358719
0.35613
0.353056
0.348742
0.342659
0.334257
0.323128
0.309176
0.29317
0.277669
0.271873
0.303353
0.41301
0.581288
0.751092
0.923346
0.373243
0.36989
0.366774
0.363893
0.361215
0.358739
0.356326
0.353773
0.350564
0.346007
0.339628
0.330956
0.31968
0.305889
0.290344
0.276107
0.272619
0.307327
0.417686
0.581202
0.751164
0.940613
0.373243
0.369888
0.366772
0.363885
0.361202
0.35873
0.356389
0.354093
0.351515
0.348214
0.343441
0.336822
0.32797
0.316662
0.303026
0.288125
0.274848
0.273629
0.3108
0.420307
0.580666
0.751323
0.95977
0.373243
0.369887
0.366769
0.363878
0.361191
0.358714
0.356397
0.354219
0.351967
0.349418
0.346009
0.341067
0.334293
0.325331
0.314044
0.300701
0.286244
0.274134
0.274632
0.313389
0.422188
0.579451
0.751461
0.980752
0.373243
0.369887
0.366768
0.363873
0.361182
0.358698
0.356386
0.354253
0.352165
0.350024
0.347446
0.343995
0.33895
0.332057
0.323067
0.31188
0.298767
0.284958
0.273585
0.27569
0.315433
0.422148
0.577205
0.75173
1.00338
0.373243
0.369886
0.366767
0.363869
0.361176
0.358684
0.35637
0.354248
0.352236
0.35031
0.348193
0.345696
0.342212
0.337082
0.330177
0.321215
0.310172
0.297413
0.283958
0.273574
0.276682
0.316838
0.421639
0.574524
0.751976
1.02758
0.373243
0.369886
0.366766
0.363866
0.361171
0.358672
0.356355
0.354229
0.352248
0.350423
0.348565
0.346617
0.344124
0.340674
0.335599
0.328708
0.319837
0.308943
0.296386
0.283517
0.273743
0.277693
0.317582
0.420484
0.571292
0.752425
1.05314
0.373243
0.369886
0.366765
0.363864
0.361166
0.358663
0.356341
0.354207
0.352235
0.350449
0.34873
0.347093
0.345172
0.342873
0.33954
0.334451
0.327636
0.318876
0.308248
0.296131
0.28361
0.274165
0.278647
0.317993
0.418414
0.5678
0.75282
1.07993
0.373243
0.369885
0.366764
0.363863
0.361163
0.358656
0.35633
0.354187
0.352214
0.350436
0.348787
0.347308
0.345738
0.344133
0.341906
0.338648
0.333818
0.327257
0.318777
0.308332
0.296334
0.28398
0.274916
0.279634
0.317951
0.415862
0.563921
0.753446
1.10776
0.373243
0.369885
0.366763
0.363861
0.36116
0.358651
0.356321
0.35417
0.352192
0.350408
0.348789
0.34738
0.346022
0.344823
0.343248
0.341398
0.338581
0.333921
0.327479
0.3191
0.30879
0.296938
0.28477
0.275993
0.280672
0.317779
0.412903
0.559976
0.753992
1.13628
0.373243
0.369885
0.366763
0.36386
0.361158
0.358646
0.356313
0.354157
0.352173
0.350378
0.348767
0.347382
0.346143
0.345152
0.34402
0.343062
0.341543
0.338907
0.334449
0.328198
0.319981
0.30983
0.298159
0.286169
0.277378
0.281823
0.317435
0.4097
0.555767
0.754926
1.16865
0.373243
0.369885
0.366763
0.36386
0.361156
0.358643
0.356306
0.354146
0.352156
0.350351
0.348736
0.347352
0.346172
0.345281
0.344463
0.344032
0.343317
0.342115
0.339799
0.335637
0.329691
0.321718
0.311732
0.300126
0.28807
0.279126
0.283142
0.316977
0.406286
0.551637
0.756032
1.20524
0.373242
0.369885
0.366762
0.363859
0.361154
0.35864
0.356301
0.354137
0.352141
0.350328
0.348705
0.347311
0.346154
0.345307
0.344675
0.344531
0.344372
0.344075
0.343355
0.341571
0.337846
0.332181
0.324367
0.314445
0.302758
0.290542
0.281221
0.284633
0.316549
0.402827
0.546901
0.757851
1.24195
0.373242
0.369885
0.366762
0.363858
0.361153
0.358638
0.356296
0.354129
0.352129
0.350309
0.348678
0.347272
0.346115
0.34528
0.344747
0.344773
0.344957
0.34527
0.345614
0.345618
0.344394
0.341068
0.335659
0.327969
0.317986
0.306137
0.293557
0.28372
0.286376
0.316193
0.39894
0.541689
0.75962
1.27868
0.373242
0.369885
0.366762
0.363858
0.361151
0.358636
0.356292
0.354123
0.352118
0.350293
0.348654
0.347237
0.346072
0.345232
0.344744
0.344863
0.345254
0.34597
0.347046
0.348213
0.348951
0.34835
0.345423
0.340247
0.33257
0.322448
0.310242
0.297183
0.286591
0.288295
0.316054
0.394961
0.53643
0.761871
1.31503
0.369885
0.373246
0.366761
0.363858
0.36115
0.358634
0.356288
0.354118
0.352109
0.35028
0.348633
0.347207
0.346031
0.345181
0.344704
0.344871
0.34538
0.346348
0.347929
0.349907
0.351958
0.353533
0.353588
0.351054
0.346018
0.338277
0.327825
0.315149
0.301384
0.289914
0.290628
0.316171
0.391197
0.531392
0.764006
1.3508
0.366761
0.369896
0.373253
0.363857
0.361149
0.358633
0.356285
0.354114
0.352101
0.350268
0.348614
0.347181
0.345995
0.345133
0.344652
0.344837
0.345412
0.346533
0.348446
0.350997
0.353988
0.357052
0.359541
0.36028
0.358068
0.353097
0.345103
0.334209
0.320819
0.306207
0.294075
0.293574
0.316524
0.387872
0.526483
0.76654
1.38579
0.363857
0.366778
0.369917
0.373261
0.361149
0.358631
0.356283
0.35411
0.352094
0.350259
0.348598
0.347158
0.345963
0.345091
0.344601
0.344788
0.345394
0.346608
0.348734
0.351683
0.355355
0.359514
0.363703
0.367176
0.368565
0.366609
0.361522
0.353158
0.341559
0.327313
0.312226
0.299327
0.296847
0.317249
0.384813
0.521831
0.768926
1.41979
0.361148
0.363879
0.366811
0.369938
0.373268
0.35863
0.356281
0.354107
0.352088
0.35025
0.348584
0.34714
0.345935
0.345054
0.344554
0.344739
0.345357
0.346623
0.348889
0.352115
0.35628
0.361252
0.366721
0.372141
0.376614
0.378621
0.376747
0.37142
0.362405
0.349955
0.335398
0.319783
0.305176
0.30048
0.318302
0.382228
0.517471
0.771286
1.45271
0.358629
0.361174
0.363924
0.366845
0.36996
0.373276
0.356279
0.354104
0.352083
0.350243
0.348572
0.347123
0.34591
0.345021
0.344512
0.344694
0.345316
0.346613
0.348969
0.352395
0.356922
0.362507
0.368955
0.375872
0.382577
0.388067
0.390551
0.388633
0.38277
0.372948
0.360388
0.345524
0.328178
0.311586
0.304429
0.319758
0.379917
0.513572
0.773603
1.48438
0.356277
0.35866
0.361229
0.36397
0.36688
0.369983
0.373284
0.354101
0.352078
0.350237
0.348561
0.34711
0.345889
0.344993
0.344476
0.344653
0.345278
0.346594
0.349011
0.352583
0.357396
0.363454
0.370665
0.378757
0.387216
0.395261
0.40167
0.404537
0.402264
0.395696
0.386033
0.373441
0.356756
0.337338
0.318497
0.308702
0.321424
0.378042
0.509964
0.775845
1.5148
0.354099
0.356311
0.358724
0.361285
0.364017
0.366917
0.370007
0.373293
0.352074
0.350232
0.348551
0.347098
0.345869
0.344969
0.344444
0.344618
0.345244
0.346576
0.349037
0.35272
0.357763
0.36422
0.372049
0.381092
0.39096
0.401047
0.410366
0.417647
0.420589
0.417796
0.411746
0.402407
0.387913
0.368996
0.347183
0.325851
0.313247
0.323452
0.376443
0.506736
0.778128
1.54384
0.35207
0.354137
0.356383
0.35879
0.361343
0.364065
0.366954
0.370031
0.373301
0.350227
0.348543
0.347087
0.345852
0.344949
0.344416
0.344587
0.345214
0.346559
0.349057
0.352831
0.35806
0.364862
0.373247
0.383092
0.394139
0.405915
0.417607
0.428184
0.436041
0.438916
0.43708
0.431828
0.420556
0.403678
0.382135
0.357628
0.333588
0.318033
0.325609
0.375194
0.503781
0.780287
1.57155
0.350223
0.352109
0.354215
0.356457
0.358858
0.361403
0.364115
0.366992
0.370055
0.37331
0.348535
0.347078
0.345836
0.344931
0.344391
0.344559
0.345188
0.346544
0.349076
0.352929
0.358317
0.365412
0.374308
0.384913
0.396992
0.410223
0.423922
0.437248
0.448812
0.457145
0.461716
0.461242
0.45409
0.440316
0.42058
0.396051
0.368581
0.341638
0.323034
0.328092
0.37422
0.501146
0.782519
1.59786
0.348529
0.350263
0.352193
0.354296
0.356533
0.358927
0.361464
0.364166
0.367031
0.37008
0.373319
0.347071
0.345822
0.344916
0.344368
0.344535
0.345165
0.346532
0.349093
0.353017
0.358547
0.365901
0.37525
0.38659
0.399695
0.414247
0.429722
0.44542
0.460119
0.472621
0.483552
0.490453
0.4881
0.478341
0.461489
0.438464
0.410621
0.379945
0.349939
0.32817
0.330584
0.373661
0.498791
0.784611
1.62283
0.347064
0.348568
0.35035
0.352278
0.354379
0.356611
0.358999
0.361527
0.364219
0.367072
0.370106
0.373328
0.345809
0.344903
0.344348
0.344512
0.345144
0.346521
0.349108
0.353098
0.358757
0.366347
0.376107
0.388117
0.402264
0.41819
0.435323
0.453181
0.470636
0.486713
0.502583
0.517067
0.522603
0.517495
0.504384
0.4839
0.45716
0.425702
0.391618
0.358417
0.33348
0.333114
0.373257
0.496685
0.786765
1.64643
0.345798
0.347101
0.348653
0.35044
0.352367
0.354465
0.356692
0.359072
0.361592
0.364273
0.367113
0.370133
0.373338
0.344892
0.344328
0.344492
0.345125
0.34651
0.349122
0.353171
0.358947
0.366755
0.376893
0.389524
0.404655
0.422038
0.440967
0.460908
0.480932
0.500221
0.520429
0.540944
0.554842
0.557994
0.549219
0.532032
0.507342
0.476495
0.441159
0.4035
0.367012
0.338906
0.335671
0.37318
0.494837
0.788788
1.66873
0.344883
0.345826
0.347185
0.348742
0.350532
0.352459
0.354554
0.356775
0.359148
0.361659
0.364328
0.367156
0.37016
0.373347
0.34431
0.344474
0.345108
0.346501
0.349134
0.353236
0.35912
0.367128
0.377617
0.390829
0.40689
0.425678
0.446592
0.468903
0.491469
0.51383
0.538059
0.564069
0.58461
0.59679
0.596431
0.583047
0.561073
0.531633
0.496304
0.45686
0.4155
0.375662
0.344405
0.338252
0.373242
0.493189
0.790838
1.68976
0.344294
0.344907
0.345894
0.347271
0.348834
0.350628
0.352554
0.354645
0.35686
0.359226
0.361727
0.364385
0.367199
0.370187
0.373356
0.344456
0.345092
0.346492
0.349144
0.353294
0.359275
0.367467
0.378281
0.392039
0.408983
0.429116
0.452005
0.477057
0.502619
0.52812
0.556348
0.587696
0.61437
0.633656
0.642817
0.637727
0.618733
0.591255
0.556577
0.51643
0.472686
0.427529
0.384311
0.349926
0.340853
0.373405
0.491739
0.792784
1.70954
0.344444
0.344287
0.344964
0.345965
0.347361
0.348931
0.350727
0.352652
0.354738
0.356949
0.359305
0.361798
0.364443
0.367243
0.370213
0.373365
0.345076
0.346483
0.349152
0.353345
0.359413
0.367773
0.378887
0.393155
0.410934
0.432361
0.457191
0.485036
0.514184
0.543601
0.576105
0.613042
0.645819
0.671742
0.688238
0.692886
0.68169
0.656031
0.622342
0.58198
0.536729
0.488529
0.439509
0.392906
0.355435
0.343453
0.373717
0.490462
0.794701
1.72816
0.345067
0.344419
0.344284
0.345023
0.346042
0.347455
0.349031
0.350828
0.352753
0.354835
0.357039
0.359387
0.36187
0.364501
0.367285
0.370239
0.373374
0.346474
0.349157
0.353389
0.359536
0.368049
0.379437
0.39418
0.412745
0.435412
0.462144
0.492764
0.525647
0.560059
0.598106
0.641313
0.680762
0.713537
0.736946
0.748746
0.747049
0.728163
0.694718
0.654118
0.607662
0.557072
0.504292
0.451372
0.401402
0.360895
0.346048
0.374136
0.489334
0.796557
1.74561
0.346472
0.345011
0.344376
0.344282
0.345087
0.346125
0.347552
0.349136
0.350933
0.352858
0.354934
0.357133
0.359471
0.361941
0.364557
0.367325
0.370263
0.373382
0.349159
0.353426
0.359645
0.368295
0.379934
0.395116
0.414415
0.438263
0.466843
0.500198
0.536906
0.576803
0.622059
0.673753
0.72128
0.762138
0.792973
0.811357
0.815829
0.805458
0.777036
0.734598
0.686388
0.633457
0.577339
0.519892
0.46306
0.409757
0.366282
0.348621
0.374636
0.488352
0.798323
1.76203
0.34917
0.346368
0.344892
0.344329
0.344295
0.345153
0.346214
0.347652
0.349245
0.351042
0.352966
0.355036
0.357228
0.359554
0.36201
0.364612
0.367365
0.370287
0.37339
0.353456
0.35974
0.368516
0.380382
0.395966
0.415949
0.440913
0.471269
0.507304
0.547927
0.593628
0.646765
0.710222
0.770162
0.821849
0.861988
0.887362
0.896743
0.890241
0.868296
0.828214
0.775493
0.718979
0.65922
0.597424
0.535256
0.474522
0.41794
0.371567
0.351166
0.3752
0.487478
0.800076
1.77737
0.353497
0.348985
0.346131
0.344766
0.344289
0.344328
0.345221
0.346311
0.347756
0.349359
0.351153
0.353077
0.35514
0.357323
0.359635
0.362078
0.364665
0.367403
0.370311
0.373398
0.359822
0.368711
0.380785
0.396738
0.417353
0.443364
0.475414
0.51406
0.558652
0.610342
0.671805
0.749606
0.829006
0.898883
0.951944
0.986029
0.999816
0.994536
0.97249
0.935618
0.881568
0.81723
0.751731
0.684826
0.617235
0.550321
0.485718
0.425919
0.376735
0.353668
0.375809
0.486727
0.801682
1.78993
0.359914
0.353217
0.348547
0.345882
0.344655
0.344243
0.344379
0.345291
0.346414
0.347863
0.349477
0.351269
0.353191
0.355244
0.357415
0.359714
0.362144
0.364716
0.367441
0.370334
0.373406
0.368883
0.381146
0.397439
0.418634
0.445622
0.479276
0.520449
0.569004
0.626741
0.697123
0.792283
0.897284
0.996807
1.07248
1.1186
1.13758
1.1316
1.10504
1.06248
1.00721
0.93688
0.85962
0.784498
0.710165
0.636695
0.565038
0.496613
0.433676
0.381762
0.356123
0.376458
0.48605
0.8031
1.80048
0.369063
0.359508
0.352517
0.348094
0.345659
0.344555
0.344198
0.344442
0.345364
0.346523
0.347975
0.349599
0.351387
0.353304
0.355345
0.357505
0.359791
0.362207
0.364767
0.367477
0.370356
0.373414
0.381468
0.39807
0.419803
0.447699
0.482863
0.526462
0.578915
0.642701
0.722868
0.83871
0.974689
1.11187
1.22531
1.29523
1.32221
1.31551
1.28131
1.22708
1.1594
1.08255
0.993827
0.902456
0.817139
0.735141
0.655736
0.579366
0.507184
0.441184
0.386644
0.358521
0.377124
0.485546
0.80422
1.81196
0.381789
0.368496
0.358435
0.351793
0.347678
0.345455
0.344463
0.344161
0.344514
0.345441
0.346638
0.348092
0.349724
0.351506
0.353415
0.355444
0.357592
0.359866
0.362269
0.364815
0.367513
0.370377
0.373421
0.398639
0.420865
0.449606
0.486188
0.532098
0.588341
0.658184
0.7492
0.888644
1.05938
1.23899
1.39856
1.51162
1.56147
1.55703
1.51503
1.44542
1.35831
1.26183
1.16084
1.05199
0.945508
0.849517
0.759669
0.674304
0.593273
0.517405
0.448443
0.391361
0.360854
0.377727
0.485123
0.805581
1.82439
0.399187
0.381019
0.366902
0.357332
0.351123
0.34729
0.345265
0.344379
0.344134
0.344594
0.345526
0.346757
0.348213
0.349849
0.351622
0.353522
0.35554
0.357677
0.359939
0.36233
0.364863
0.367547
0.370398
0.373424
0.421832
0.451354
0.489265
0.537363
0.597273
0.67321
0.776126
0.941144
1.14835
1.37234
1.58178
1.74714
1.84426
1.86085
1.81462
1.72972
1.6194
1.49579
1.36799
1.2411
1.1109
0.988542
0.881503
0.783678
0.692355
0.60673
0.52727
0.455424
0.395916
0.362829
0.378254
0.484711
0.80694
1.83791
0.422736
0.398169
0.378702
0.365273
0.356303
0.350487
0.346924
0.345088
0.344306
0.344118
0.344679
0.345618
0.34688
0.348336
0.349971
0.351735
0.353627
0.355634
0.35776
0.360009
0.362388
0.364909
0.36758
0.370408
0.373424
0.452959
0.492106
0.542272
0.605723
0.687808
0.803476
0.994942
1.23858
1.50663
1.76674
1.9881
2.14319
2.21059
2.18281
2.08657
1.95324
1.79873
1.63648
1.47601
1.32228
1.17003
1.03133
0.91299
0.807106
0.709852
0.619722
0.536754
0.46215
0.399731
0.364533
0.378877
0.48427
0.808627
1.85257
0.454427
0.42142
0.394855
0.376351
0.363748
0.35532
0.349878
0.346578
0.344923
0.344244
0.344115
0.344768
0.345719
0.347003
0.348457
0.350089
0.351846
0.353729
0.355726
0.35784
0.360078
0.362445
0.364954
0.367597
0.370408
0.373424
0.494735
0.54684
0.613715
0.701992
0.83097
1.0488
1.32763
1.63803
1.94759
2.22552
2.44283
2.57373
2.5996
2.51823
2.36569
2.18012
1.97945
1.77769
1.58416
1.40337
1.22887
1.07363
0.943883
0.829901
0.726775
0.632228
0.54588
0.467749
0.403007
0.366435
0.379574
0.483857
0.810304
1.86852
0.497095
0.45275
0.416727
0.391519
0.374144
0.362283
0.354372
0.349295
0.346254
0.344772
0.344195
0.344127
0.344858
0.345826
0.347122
0.348578
0.350205
0.351955
0.353828
0.355815
0.357918
0.360145
0.3625
0.364976
0.367597
0.370408
0.373424
0.551104
0.621276
0.715758
0.85829
1.10172
1.41383
1.76413
2.12069
2.45355
2.73379
2.9334
3.02799
3.00215
2.85966
2.64615
2.40603
2.15842
1.9172
1.691
1.48348
1.28694
1.11522
0.974082
0.852053
0.743103
0.644257
0.553463
0.472555
0.406635
0.368555
0.380413
0.483417
0.812392
1.88583
0.554883
0.494965
0.446154
0.412049
0.388382
0.372018
0.360868
0.35346
0.348737
0.345953
0.344635
0.344156
0.344162
0.344945
0.345937
0.347238
0.348696
0.350317
0.352061
0.353924
0.355901
0.357994
0.36021
0.362528
0.364976
0.367597
0.370408
0.373424
0.628459
0.729096
0.885141
1.15294
1.49615
1.88358
2.28403
2.66877
3.00995
3.27934
3.44926
3.49684
3.41062
3.20105
2.92339
2.62761
2.33323
2.05333
1.79535
1.56189
1.34386
1.1559
1.00351
0.873532
0.758852
0.654304
0.55998
0.477865
0.41066
0.370936
0.381344
0.48303
0.814499
1.90468
0.634829
0.552163
0.485711
0.439646
0.407643
0.385354
0.369959
0.3595
0.352583
0.348203
0.345675
0.34451
0.344116
0.344221
0.34503
0.346049
0.347352
0.348812
0.350427
0.352164
0.354018
0.355986
0.358068
0.360242
0.362528
0.364976
0.367597
0.370408
0.373424
0.74201
0.911291
1.20195
1.57397
1.99573
2.43672
2.86947
3.26776
3.60462
3.85163
3.98116
3.97233
3.81852
3.53749
3.19391
2.84241
2.50215
2.18486
1.89639
1.63804
1.39928
1.19554
1.03212
0.894359
0.772139
0.662939
0.567183
0.483744
0.415135
0.373602
0.382482
0.482625
0.817084
1.92515
0.753493
0.631383
0.539041
0.476688
0.433507
0.403383
0.382415
0.367964
0.358179
0.35174
0.347693
0.345418
0.344398
0.344075
0.344294
0.345114
0.346162
0.347464
0.348927
0.350534
0.352265
0.354109
0.356068
0.358104
0.360242
0.362528
0.364976
0.367597
0.370408
0.373421
0.936566
1.24843
1.64702
2.10033
2.57848
3.05504
3.50553
3.90513
4.22674
4.44111
4.5207
4.44739
4.22036
3.86508
3.45507
3.04869
2.66401
2.31095
1.99352
1.71153
1.453
1.23403
1.05991
0.911972
0.783558
0.672479
0.57516
0.490267
0.42012
0.376617
0.383742
0.482308
0.819781
1.94742
0.749267
0.958838
0.611951
0.52652
0.468162
0.427566
0.399244
0.379562
0.366033
0.356908
0.350934
0.347213
0.345185
0.344303
0.344045
0.344373
0.345199
0.346273
0.347574
0.349039
0.350639
0.352364
0.354198
0.356109
0.358104
0.360242
0.362528
0.364976
0.367597
0.370398
0.373413
1.29222
1.7152
2.19741
2.7094
3.22554
3.72284
4.17892
4.56942
4.86629
5.03892
5.06016
4.91572
4.61151
4.18075
3.70497
3.24528
2.81807
2.4311
2.08637
1.78212
1.50487
1.27136
1.0834
0.927105
0.796175
0.68306
0.584012
0.497518
0.425689
0.380011
0.385298
0.481992
0.822987
1.97167
0.71881
0.954542
1.33
0.593976
0.514711
0.459901
0.421791
0.395222
0.376798
0.36417
0.355686
0.350167
0.346769
0.344981
0.344224
0.344027
0.344455
0.345286
0.346384
0.347683
0.349148
0.350741
0.352459
0.354242
0.356109
0.358104
0.360242
0.362528
0.364976
0.36758
0.370377
0.373406
1.77857
2.28718
2.82985
3.38145
3.92014
4.42575
4.87729
5.25003
5.51397
5.63679
5.59248
5.37185
4.9882
4.48218
3.9423
3.43147
2.96392
2.54505
2.17475
1.84966
1.55484
1.30278
1.10356
0.943822
0.810149
0.694814
0.593856
0.5056
0.431926
0.38388
0.38703
0.48185
0.826507
1.99799
0.690935
0.906335
1.32585
1.83268
0.577291
0.503264
0.451869
0.416175
0.391321
0.374126
0.362377
0.354519
0.349447
0.346373
0.344805
0.344162
0.344023
0.344539
0.345374
0.346493
0.347789
0.349255
0.350841
0.352507
0.354241
0.356109
0.358104
0.360242
0.362528
0.364953
0.367546
0.370355
0.373398
2.36992
2.94035
3.52353
4.09839
4.64654
5.15024
5.58924
5.93719
6.1611
6.227
6.11127
5.81107
5.34743
4.76775
4.1663
3.60692
3.10141
2.65272
2.25863
1.91414
1.59655
1.32963
1.12579
0.962328
0.825656
0.707895
0.604829
0.514631
0.438935
0.388264
0.389115
0.481887
0.830524
2.02668
0.665413
0.860875
1.25632
1.82968
2.4399
0.561292
0.49212
0.444061
0.410726
0.387546
0.371551
0.360658
0.353416
0.348793
0.346025
0.344655
0.344115
0.344031
0.344621
0.345465
0.346599
0.347895
0.34936
0.35089
0.352506
0.354241
0.356109
0.358104
0.360242
0.3625
0.364908
0.367512
0.370333
0.37339
3.04149
3.65274
4.25891
4.84295
5.38982
5.8839
6.30445
6.62197
6.79959
6.80245
6.61088
6.22952
5.68701
5.03642
4.37655
3.77155
3.2306
2.7542
2.33805
1.96746
1.63201
1.35913
1.15034
0.982846
0.842898
0.722483
0.617092
0.524751
0.446831
0.393332
0.391401
0.482049
0.8352
2.05778
0.641452
0.818341
1.18808
1.74145
2.4391
3.12635
0.545821
0.48128
0.436489
0.405451
0.383907
0.369079
0.359029
0.352406
0.348209
0.34572
0.344526
0.344082
0.344053
0.344701
0.345557
0.346703
0.347999
0.349411
0.350888
0.352506
0.354241
0.356109
0.358104
0.36021
0.362444
0.364861
0.367476
0.37031
0.373382
3.77008
4.40329
5.0171
5.59862
6.13631
6.61569
7.0138
7.2962
7.42197
7.35668
7.08649
6.62424
6.00546
5.28764
4.57301
3.9255
3.35169
2.84966
2.40319
2.01252
1.67074
1.39157
1.17748
1.00563
0.862109
0.73879
0.630834
0.536129
0.455764
0.399144
0.394173
0.482441
0.840299
2.09165
0.618775
0.77819
1.12151
1.65308
2.33487
3.12835
3.86743
0.530828
0.470764
0.429166
0.400364
0.380411
0.366732
0.357531
0.351499
0.347688
0.345456
0.344418
0.344057
0.344094
0.344778
0.345651
0.346808
0.34805
0.349409
0.350888
0.352506
0.354241
0.356109
0.358067
0.360144
0.362386
0.364814
0.36744
0.370287
0.373374
4.53307
5.17143
5.77984
6.3503
6.87409
7.33625
7.7093
7.95245
8.02127
7.88395
7.53419
6.99312
6.30195
5.52129
4.75587
4.06909
3.46495
2.92745
2.45801
2.06146
1.71307
1.42725
1.20752
1.03097
0.883566
0.757058
0.64628
0.548964
0.465904
0.405917
0.397304
0.483148
0.84659
2.1283
0.597238
0.740374
1.05623
1.56487
2.22947
3.01035
3.87167
4.63884
0.516312
0.460597
0.422108
0.395476
0.37709
0.364571
0.356183
0.350685
0.347222
0.345229
0.344325
0.344029
0.344148
0.344855
0.34575
0.346857
0.348047
0.349409
0.350888
0.352506
0.354241
0.356067
0.357992
0.360076
0.362327
0.364765
0.367402
0.370263
0.373365
5.30824
5.93707
6.5305
7.08493
7.59334
8.03787
8.38392
8.58378
8.59113
8.37939
7.95111
7.33487
6.57618
5.73761
4.92554
4.2027
3.55675
2.9927
2.5173
2.11463
1.75932
1.46651
1.24078
1.05917
0.907583
0.777572
0.663691
0.563497
0.477474
0.413753
0.401098
0.484413
0.85324
2.17544
0.576751
0.704955
0.992423
1.47625
2.1231
2.89075
3.74147
4.6433
5.41667
0.502288
0.45081
0.415334
0.390834
0.37403
0.362621
0.354968
0.349954
0.346804
0.345033
0.344249
0.344005
0.34421
0.344937
0.345796
0.346852
0.348046
0.349409
0.350888
0.352506
0.354197
0.355984
0.357916
0.360007
0.362267
0.364714
0.367364
0.370238
0.373356
6.07359
6.68197
7.25464
7.79203
8.28656
8.71411
9.03127
9.18366
9.12586
8.83919
8.3353
7.64897
6.82841
5.93711
5.08255
4.31044
3.63358
3.06308
2.58144
2.17236
1.80984
1.50969
1.27762
1.0906
0.934499
0.800659
0.68338
0.580015
0.490727
0.422975
0.405565
0.485872
0.863329
2.23221
0.557246
0.671995
0.930534
1.38712
2.01508
2.76951
3.60992
4.50156
5.41781
6.17814
0.488788
0.441432
0.408907
0.386559
0.371269
0.360862
0.353874
0.349298
0.346436
0.344867
0.344185
0.343992
0.344285
0.34497
0.345791
0.346851
0.348046
0.349409
0.350889
0.352458
0.354107
0.355899
0.357837
0.359936
0.362205
0.364663
0.367324
0.370213
0.373347
6.80932
7.39021
7.94087
8.46416
8.94792
9.35953
9.64536
9.74591
9.62065
9.26053
8.68581
7.93558
7.05924
6.12045
5.20842
4.40043
3.7163
3.13898
2.65076
2.23501
1.86497
1.55717
1.31841
1.12563
0.964697
0.826694
0.705707
0.598873
0.505999
0.433765
0.410979
0.488941
0.875499
2.29038
0.538673
0.641506
0.871153
1.29775
1.90501
2.64587
3.4767
4.3596
5.26397
6.17146
6.90222
0.475848
0.432556
0.402992
0.382701
0.368776
0.359276
0.352889
0.348711
0.346112
0.344722
0.344134
0.344003
0.34432
0.344956
0.345791
0.346851
0.348046
0.34941
0.35084
0.352361
0.354015
0.355811
0.357757
0.359863
0.362141
0.36461
0.367284
0.370187
0.373338
7.49795
8.04925
8.58175
9.09584
9.5728
9.96964
10.2199
10.2651
10.0716
9.64182
9.00267
8.19542
7.26953
6.26637
5.3133
4.49714
3.8053
3.22078
2.72564
2.30292
1.92509
1.60931
1.36355
1.1647
0.9986
0.856101
0.731105
0.620472
0.523679
0.446613
0.418832
0.492838
0.890651
2.34952
0.520995
0.613413
0.814963
1.20863
1.79279
2.51914
3.34103
4.21668
5.11211
6.00318
6.88201
7.57011
0.463597
0.424411
0.397661
0.379223
0.366528
0.357846
0.352004
0.348187
0.345826
0.3446
0.344115
0.343995
0.344309
0.344954
0.345791
0.346851
0.348049
0.349358
0.350738
0.352262
0.35392
0.355722
0.357674
0.359788
0.362076
0.364556
0.367242
0.37016
0.373328
8.12552
8.65217
9.16787
9.67482
10.149
10.5361
10.7502
10.7358
10.4761
9.98272
9.28664
8.42958
7.43532
6.38753
5.42577
4.60098
3.90098
3.30882
2.80643
2.37644
1.99055
1.66651
1.41346
1.20823
1.03667
0.88936
0.760039
0.645343
0.544292
0.464653
0.430031
0.499483
0.906533
2.40936
0.50431
0.587568
0.762643
1.12049
1.67851
2.38879
3.20194
4.07211
4.96092
5.84059
6.69567
7.52918
8.16695
0.452366
0.41709
0.392857
0.376086
0.3645
0.356559
0.35121
0.347719
0.345578
0.344524
0.344089
0.343966
0.344313
0.344953
0.34579
0.346856
0.347997
0.349252
0.350635
0.35216
0.353823
0.35563
0.357589
0.359712
0.362009
0.3645
0.367199
0.370133
0.373319
8.68313
9.18689
9.69728
10.2064
10.6762
11.0497
11.2283
11.1542
10.8332
10.2839
9.53906
8.61195
7.57225
6.51698
5.54618
4.71232
4.00369
3.40348
2.89346
2.45591
2.06169
1.72913
1.46853
1.2567
1.07938
0.926973
0.793109
0.674017
0.572801
0.489769
0.444244
0.506502
0.925735
2.46956
0.489007
0.563905
0.714762
1.03431
1.56246
2.25451
3.05851
3.92469
4.8099
5.68147
6.52021
7.32056
8.09386
8.6866
0.442295
0.410511
0.388531
0.373259
0.362672
0.3554
0.350495
0.347305
0.345401
0.344465
0.344054
0.343966
0.344312
0.344954
0.345795
0.346805
0.347891
0.349144
0.35053
0.352056
0.353724
0.355536
0.357502
0.359633
0.36194
0.364443
0.367156
0.370106
0.37331
9.1669
9.65593
10.1713
10.6934
11.159
11.5086
11.6492
11.5182
11.1433
10.547
9.73255
8.76143
7.71771
6.65496
5.67484
4.83149
4.11377
3.50508
2.98705
2.54164
2.13883
1.79752
1.52917
1.31055
1.12723
0.969524
0.830813
0.713282
0.611355
0.519652
0.461741
0.517608
0.946631
2.52961
0.475258
0.542683
0.672007
0.951303
1.44517
2.11615
2.90994
3.77315
4.65764
5.52547
6.35234
7.12911
7.85971
8.55855
9.11216
0.433278
0.404598
0.384636
0.370712
0.361026
0.354354
0.349858
0.346992
0.345281
0.344417
0.344055
0.343965
0.344308
0.344969
0.345747
0.346699
0.347785
0.349033
0.350422
0.35195
0.353622
0.35544
0.357413
0.359553
0.361869
0.364385
0.367113
0.37008
0.373301
9.5652
10.0521
10.5855
11.1302
11.5945
11.9092
12.0089
11.8279
11.408
10.7444
9.88944
8.91886
7.87166
6.80158
5.81196
4.95876
4.23152
3.61389
3.08747
2.63389
2.22225
1.87198
1.59572
1.37017
1.1807
1.01744
0.881822
0.765167
0.655635
0.55504
0.484229
0.529796
0.971004
2.5892
0.462927
0.523837
0.63522
0.873489
1.32752
1.97376
2.75553
3.61623
4.50261
5.37099
6.19175
6.95066
7.64884
8.29754
8.91847
9.4353
0.425211
0.399285
0.381132
0.368419
0.359539
0.353418
0.349361
0.346796
0.345212
0.344421
0.344054
0.343964
0.344317
0.344934
0.345647
0.346594
0.347677
0.348921
0.350312
0.351841
0.353518
0.355342
0.357321
0.35947
0.361797
0.364327
0.367071
0.370055
0.373292
9.8742
10.374
10.9407
11.5132
11.9742
12.2454
12.3045
12.0848
11.6008
10.9021
10.0526
9.08373
8.03385
6.95681
5.95765
5.09431
4.35713
3.73015
3.19495
2.73288
2.31215
1.95276
1.66847
1.43591
1.24011
1.08135
0.947608
0.822989
0.705985
0.596855
0.512143
0.547957
0.998653
2.6477
0.451895
0.506965
0.604287
0.804213
1.2116
1.82763
2.59469
3.45261
4.34312
5.2163
6.03659
6.7849
7.45745
8.06439
8.62371
9.16555
9.6516
0.417995
0.394513
0.377981
0.366349
0.358207
0.352674
0.34906
0.346706
0.345218
0.34442
0.344051
0.343992
0.344282
0.34485
0.345551
0.346486
0.347568
0.348806
0.350199
0.35173
0.353411
0.355241
0.357227
0.359386
0.361726
0.364271
0.36703
0.37003
0.373284
10.0897
10.6221
11.2368
11.84
12.289
12.5128
12.5341
12.2638
11.7512
11.063
10.2209
9.25522
8.20377
7.12042
6.11186
5.2382
4.49073
3.85398
3.3096
2.83871
2.40866
2.03999
1.74764
1.50795
1.31815
1.16176
1.01884
0.886483
0.762529
0.645333
0.547533
0.569077
1.03106
2.70489
0.442048
0.491795
0.578069
0.74495
1.10212
1.67944
2.42699
3.28098
4.17731
5.05939
5.88496
6.62952
7.28519
7.85777
8.36458
8.83072
9.28945
9.75181
0.411539
0.390228
0.37514
0.364492
0.357131
0.352233
0.34894
0.346716
0.345217
0.344414
0.344085
0.343998
0.344204
0.344772
0.345457
0.346377
0.347457
0.348689
0.350083
0.351617
0.353301
0.355138
0.357131
0.359303
0.361657
0.364217
0.366991
0.370006
0.373276
10.2093
10.7968
11.4756
12.0982
12.5329
12.7102
12.6775
12.3979
11.9004
11.2251
10.3926
9.43212
8.38063
7.29193
6.27436
5.39034
4.63231
3.98541
3.43147
2.95143
2.51181
2.13373
1.83325
1.60115
1.41405
1.24662
1.09474
0.955107
0.824784
0.700822
0.590695
0.597445
1.06897
2.76014
0.433277
0.478145
0.555546
0.695192
1.00251
1.53426
2.25351
3.10005
4.00312
4.89796
5.73464
6.48247
7.12921
7.67745
8.14065
8.54139
8.91183
9.2789
9.72819
0.405762
0.386372
0.372593
0.362978
0.356504
0.352077
0.348956
0.346715
0.345208
0.344461
0.344109
0.343985
0.344141
0.344693
0.345366
0.346265
0.347345
0.348571
0.349965
0.351502
0.353189
0.355034
0.357037
0.359223
0.361589
0.364164
0.366952
0.369982
0.373268
10.2279
10.9062
11.6367
12.2886
12.6957
12.8212
12.7736
12.5233
12.0453
11.3859
10.5657
9.6128
8.56324
7.47056