/*--------------------------------*- C++ -*----------------------------------*\
  =========                 |
  \\      /  F ield         | OpenFOAM: The Open Source CFD Toolbox
   \\    /   O peration     | Website:  https://openfoam.org
    \\  /    A nd           | Version:  8
     \\/     M anipulation  |
\*---------------------------------------------------------------------------*/
FoamFile
{
    version     2.0;
    format      ascii;
    class       volScalarField;
    location    "500";
    object      p;
}
// * * * * * * * * * * * * * * * * * * * * * * * * * * * * * * * * * * * * * //

dimensions      [0 2 -2 0 0 0 0];

internalField   nonuniform List<scalar> 
15677
(
48.6352
45.6179
45.7071
45.5966
44.7487
45.1697
45.8224
45.2683
44.9834
45.0199
45.7861
45.3217
45.1855
45.002
44.8768
45.7243
45.2646
45.1129
45.0432
44.8835
44.7547
45.6832
45.2636
45.0992
45.0034
44.8865
44.7609
44.6295
45.6451
45.2705
45.1114
45.0159
44.8786
44.7603
44.6333
44.4816
45.6047
45.2715
45.1139
45.0197
44.8894
44.7621
44.6344
44.4842
44.3045
45.5628
45.2707
45.1138
45.0177
44.8897
44.7671
44.6374
44.4865
44.3063
44.0908
45.5198
45.2694
45.1143
45.017
44.8905
44.7679
44.64
44.4892
44.3091
44.0923
43.8323
45.4762
45.2671
45.1148
45.0167
44.8925
44.7702
44.6419
44.4915
44.3118
44.0951
43.8336
43.5211
45.4325
45.263
45.1153
45.0166
44.8946
44.7728
44.6446
44.4943
44.3143
44.0981
43.8364
43.5222
43.1482
45.3895
45.2566
45.1156
45.0167
44.8971
44.7757
44.6474
44.4973
44.3177
44.1012
43.8398
43.5249
43.149
42.7047
45.3516
45.2477
45.1158
45.0174
44.9005
44.7795
44.6509
44.5008
44.3213
44.105
43.8435
43.5288
43.1516
42.7051
42.1824
45.3201
45.2372
45.1156
45.0188
44.9051
44.7845
44.6557
44.5053
44.3258
44.1095
43.8481
43.5332
43.1561
42.7078
42.1827
41.5743
45.2931
45.2268
45.1151
45.0209
44.911
44.7913
44.6622
44.5116
44.3318
44.1153
43.8537
43.5386
43.1613
42.7128
42.1853
41.5743
40.8735
45.2699
45.2164
45.1143
45.0236
44.9185
44.8003
44.6711
44.5202
44.34
44.1231
43.861
43.5455
43.1679
42.719
42.191
41.5771
40.8732
40.0742
45.25
45.2065
45.1135
45.0268
44.927
44.8121
44.6832
44.5321
44.3514
44.1338
43.8711
43.5548
43.1763
42.727
42.1984
41.5834
40.876
40.0736
39.1718
45.2329
45.1971
45.1127
45.0303
44.9358
44.8257
44.6994
44.5485
44.3673
44.1489
43.885
43.5675
43.1878
42.7373
42.208
41.5921
40.883
40.0764
39.1708
38.1631
45.2181
45.1885
45.112
45.0342
44.9451
44.8401
44.7185
44.5705
44.3891
44.1698
43.9046
43.5854
43.2038
42.7514
42.2204
41.6033
40.8931
40.0841
39.1737
38.1618
37.0465
45.2059
45.1808
45.1114
45.0385
44.9549
44.8554
44.7389
44.5967
44.4186
44.1985
43.9318
43.6105
43.2264
42.7714
42.2376
41.6182
40.9063
40.0956
39.182
38.1647
37.0449
35.8222
45.1963
45.1741
45.1111
45.0432
44.9651
44.8715
44.7609
44.625
44.454
44.2376
43.9693
43.6455
43.2582
42.7995
42.262
41.6387
40.9237
40.1108
39.195
38.1736
37.0477
35.8202
34.4918
45.1887
45.1687
45.1109
45.0481
44.9756
44.8883
44.7843
44.6556
44.4923
44.2845
44.0203
43.6937
43.3025
42.8392
42.2965
41.668
40.9478
40.1309
39.2122
38.1881
37.0573
35.8231
34.4894
33.059
45.1826
45.1643
45.1109
45.0531
44.9864
44.9057
44.8088
44.6882
44.534
44.3356
44.0818
43.7592
43.3636
42.8945
42.3452
41.7097
40.9824
40.1588
39.235
38.2073
37.073
35.8331
34.4922
33.0562
31.5286
45.1776
45.1608
45.1111
45.0578
44.997
44.9235
44.8343
44.7226
44.5786
44.3913
44.1488
43.8386
43.4468
42.9708
42.4133
41.7686
41.0319
40.1991
39.2669
38.2327
37.0942
35.85
34.5028
33.0588
31.5254
29.9073
45.1736
45.1579
45.1114
45.0621
45.0066
44.9407
44.8605
44.7584
44.6256
44.4509
44.2219
43.9251
43.5476
43.0749
42.5073
41.8511
41.1021
40.2569
39.3129
38.2684
37.1221
35.8728
34.5207
33.0697
31.5279
29.9038
28.2032
45.1703
45.1556
45.1117
45.0661
45.0153
44.9565
44.8859
44.7952
44.6746
44.514
44.3005
44.0199
43.6579
43.2012
42.6355
41.9651
41.2005
40.3392
39.3794
38.3202
37.1613
35.9029
34.5448
33.0884
31.5389
29.906
28.1993
26.4251
45.1675
45.1536
45.1121
45.0696
45.0232
44.9707
44.9092
44.8311
44.7251
44.5799
44.3837
44.1218
43.7788
43.3396
42.7916
42.121
41.3368
40.4548
39.4743
38.3954
37.2187
35.9454
34.5767
33.1136
31.5582
29.9171
28.2012
26.4208
24.5834
45.1652
45.152
45.1125
45.0728
45.0301
44.9833
44.9302
44.864
44.7745
44.6479
44.4707
44.2299
43.909
43.4916
42.9629
42.311
41.5233
40.6152
39.6081
38.5033
37.3026
36.0079
34.622
33.1468
31.584
29.9366
28.2121
26.4223
24.5787
22.6872
45.1632
45.1506
45.1129
45.0756
45.0363
44.9946
44.9489
44.8936
44.8197
44.7144
44.5607
44.3431
44.0473
43.6557
43.1513
42.5198
41.7514
40.8355
39.7945
38.6562
37.4236
36.1001
34.689
33.1941
31.6178
29.9624
28.2315
26.4329
24.5799
22.6823
20.5355
45.1615
45.1494
45.1133
45.0782
45.0419
45.0047
44.9656
44.9201
44.8605
44.7754
44.6488
44.4603
44.1924
43.8302
43.355
42.7501
42.0026
41.1056
40.0511
38.8696
37.5955
36.2337
34.7886
33.2648
31.6663
29.9963
28.2569
26.4518
24.5899
22.6828
20.5306
18.1129
45.1601
45.1485
45.1137
45.0804
45.0467
45.0136
44.9805
44.9438
44.897
44.8305
44.7297
44.5753
44.3429
44.0136
43.5722
42.9997
42.2803
41.4037
40.3665
39.1643
37.8366
36.4244
34.934
33.3707
31.7396
30.045
28.29
26.4761
24.6079
22.692
20.5307
18.1075
15.6618
45.1589
45.1476
45.1141
45.0824
45.0511
45.0215
44.9936
44.9648
44.9296
44.8798
44.8028
44.6809
44.4907
44.2041
43.8007
43.2662
42.5819
41.7341
40.7155
39.5276
38.1704
36.6929
35.1427
33.5267
31.8507
30.1197
28.3379
26.5076
24.6307
22.7087
20.5389
18.1068
15.656
13.2127
45.1579
45.1469
45.1144
45.0842
45.0549
45.0284
45.0053
44.9834
44.9586
44.9239
44.8683
44.7764
44.6267
44.3914
44.0386
43.5473
42.9047
42.0938
41.1034
39.931
38.5835
37.0662
35.4378
33.7519
32.0156
30.2342
28.4125
26.5536
24.6596
22.7292
20.5541
18.1139
15.6544
13.2067
10.7917
45.1463
45.1567
45.1147
45.0858
45.0583
45.0346
45.0156
45
44.9844
44.9631
44.9269
44.8621
44.7497
44.5641
44.273
43.8405
43.246
42.4797
41.5269
40.3805
39.0438
37.5301
35.8499
34.0721
32.2554
30.4061
28.5287
26.6265
24.7025
22.7547
20.5716
18.1268
15.6596
13.2041
10.7854
8.41342
45.115
45.1456
45.1553
45.0872
45.0614
45.0401
45.0248
45.0146
45.0072
44.9979
44.9791
44.9388
44.8603
44.7205
44.4894
44.1301
43.6028
42.8888
41.9826
40.8729
39.5584
38.0487
36.3643
34.5212
32.5982
30.6579
28.7052
26.7425
24.7723
22.7932
20.5928
18.14
15.6693
13.2075
10.7819
8.40697
6.09012
45.0884
45.1155
45.1449
45.1539
45.064
45.0449
45.0329
45.0276
45.0274
45.0288
45.0254
45.0072
44.9593
44.8613
44.6857
44.3978
43.956
43.3177
42.4669
41.4043
40.1238
38.6305
36.9413
35.0845
33.0816
31.0203
28.9661
26.9209
24.8858
22.8581
20.6254
18.1547
15.6773
13.2138
10.7833
8.40245
6.08349
3.83352
45.0663
45.0902
45.1163
45.1443
45.1526
45.0492
45.04
45.0391
45.0454
45.0562
45.0666
45.068
45.0477
44.9875
44.8627
44.6412
44.2834
43.7434
42.9763
41.971
40.7361
39.272
37.5913
35.719
33.6909
31.5341
29.3441
27.1875
25.0633
22.9669
20.6833
18.1787
15.6842
13.216
10.7859
8.40153
6.07792
3.82674
1.65313
45.0528
45.0696
45.0924
45.1171
45.1436
45.1514
45.0464
45.0493
45.0612
45.0805
45.1031
45.1219
45.1263
45.1002
45.0215
44.861
44.5816
44.139
43.4834
42.5689
41.3913
39.9693
38.3106
36.4365
34.3804
32.1854
29.8837
27.5768
25.3317
23.1406
20.7845
18.2262
15.6977
13.2142
10.7817
8.4001
6.07468
3.82011
1.64623
-0.44407
45.0517
45.058
45.0733
45.0946
45.1178
45.143
45.1502
45.0583
45.0753
45.102
45.1354
45.1698
45.1961
45.2005
45.1634
45.0584
44.8513
44.5002
43.956
43.1661
42.0851
40.7181
39.0955
37.2338
35.1633
32.926
30.5718
28.1365
25.7275
23.4069
20.9506
18.3157
15.7322
13.216
10.7705
8.38913
6.06899
3.81453
1.63855
-0.45106
-2.45321
45.0658
45.0591
45.0634
45.077
45.0967
45.1186
45.1424
45.1491
45.0878
45.1211
45.1641
45.2123
45.2581
45.2897
45.2899
45.2351
45.0941
44.8275
44.3885
43.7244
42.7806
41.514
39.9415
38.1071
36.0368
33.7705
31.3579
28.855
26.3012
23.8041
21.21
18.4689
15.8064
13.2357
10.7592
8.36755
6.05085
3.80441
1.63059
-0.459795
-2.46026
-4.37107
45.0981
45.0762
45.0666
45.069
45.0807
45.0988
45.1193
45.1419
45.1481
45.138
45.1896
45.2499
45.3131
45.369
45.4026
45.3928
45.3116
45.1226
44.7815
44.2369
43.4331
42.3153
40.8446
39.0525
36.9977
34.7167
32.2585
29.68
27.0426
24.385
21.6029
18.7152
15.942
13.2919
10.7624
8.34219
6.01844
3.77892
1.61597
-0.470128
-2.47004
-4.37816
-6.19589
45.152
45.1123
45.0861
45.0743
45.0745
45.0843
45.1009
45.1201
45.1413
45.1471
45.2121
45.2834
45.3619
45.4393
45.5027
45.5334
45.506
45.3876
45.1366
44.7037
44.0339
43.0696
41.7576
40.066
38.0425
35.7623
33.2721
30.6295
27.8984
25.1409
22.1838
19.0956
16.169
13.4062
10.7982
8.32739
5.97816
3.73532
1.583
-0.489283
-2.48268
-4.38897
-6.20299
-7.92732
45.2307
45.1711
45.1252
45.0963
45.0819
45.0798
45.0879
45.1029
45.1208
45.1409
45.1462
45.3131
45.4054
45.5018
45.5916
45.6584
45.6795
45.6247
45.4559
45.1265
44.5827
43.7666
42.6207
41.0954
39.1678
36.9044
34.3975
31.7034
28.8883
26.0184
22.946
19.6654
16.5283
13.6085
10.8881
8.34082
5.94426
3.67961
1.52797
-0.529779
-2.50636
-4.40384
-6.21481
-7.93442
-9.56604
45.3374
45.256
45.1875
45.1386
45.1063
45.0891
45.0849
45.0913
45.1049
45.1215
45.1404
45.1454
45.4439
45.5574
45.6705
45.7695
45.8339
45.8366
45.7423
45.5076
45.081
44.4054
43.4211
42.0726
40.3162
38.1406
35.6327
32.9016
30.0137
27.0389
23.837
20.421
17.0748
13.9385
11.0607
8.40353
5.93405
3.62601
1.45654
-0.596313
-2.55437
-4.43198
-6.23182
-7.94723
-9.57312
-11.1136
45.4752
45.3705
45.2767
45.2047
45.1516
45.116
45.0962
45.0899
45.0946
45.1067
45.1222
45.14
45.1446
45.6067
45.7409
45.8683
45.9714
46.0255
45.9985
45.8499
45.5313
44.987
44.1571
42.9824
41.4113
39.4084
36.9763
34.2233
31.2756
28.2052
24.8799
21.312
17.8085
14.4506
11.3545
8.54227
5.96728
3.59122
1.38293
-0.683565
-2.63235
-4.48738
-6.26432
-7.96627
-9.58687
-11.1206
-12.5721
45.6466
45.5182
45.3965
45.2986
45.2214
45.164
45.1252
45.1029
45.0947
45.0977
45.1086
45.1229
45.1397
45.1439
45.8034
45.9564
46.0936
46.1937
46.2272
46.1567
45.9368
45.5139
44.8293
43.822
42.4351
40.6232
38.3617
35.6684
32.6747
29.5198
26.0787
22.3624
18.6824
15.1488
11.8225
8.79381
6.06864
3.59312
1.32292
-0.777186
-2.7353
-4.57667
-6.32698
-8.00297
-9.60786
-11.1353
-12.5791
-13.9446
45.8536
45.7018
45.5503
45.4241
45.3198
45.2372
45.1759
45.134
45.1093
45.0992
45.1008
45.1103
45.1236
45.1394
45.1434
46.0346
46.2028
46.3435
46.4312
46.4311
46.3008
45.9895
45.4401
44.5915
43.3836
41.7639
39.6956
37.1665
34.2129
30.9852
27.4378
23.5779
19.7204
15.9893
12.4723
9.20898
6.27282
3.6544
1.29226
-0.862803
-2.84873
-4.69497
-6.42732
-8.0727
-9.64861
-11.1581
-12.5946
-13.9515
-15.2341
46.0971
45.9239
45.7416
45.585
45.4507
45.3397
45.2522
45.1871
45.1423
45.1154
45.1036
45.1036
45.1119
45.1242
45.1391
45.1429
46.2997
46.4775
46.6131
46.6762
46.6269
46.4174
45.9927
45.2928
44.256
42.825
40.9539
38.6165
35.8167
32.6052
28.9618
24.9651
20.9299
16.9954
13.2637
9.79841
6.62791
3.80738
1.31153
-0.926684
-2.96002
-4.82786
-6.56051
-8.18378
-9.72515
-11.2027
-12.6192
-13.9679
-15.2409
-16.4438
46.3767
46.1858
45.9728
45.7848
45.6183
45.4757
45.3585
45.2662
45.1975
45.1501
45.1211
45.1076
45.1063
45.1134
45.1248
45.1389
45.1425
46.5963
46.7759
46.8949
46.9185
46.8015
46.4911
45.929
45.0535
43.8043
42.1292
39.9908
37.3772
34.3038
30.6571
26.5315
22.3201
18.1763
14.2188
10.5258
7.14607
4.09614
1.41048
-0.950623
-3.05735
-4.96463
-6.71237
-8.3313
-9.84659
-11.2858
-12.6675
-13.994
-15.258
-16.4506
-17.5777
46.6902
46.4878
46.2457
46.0264
45.8261
45.6493
45.4989
45.3759
45.2793
45.2073
45.1573
45.1264
45.1113
45.1087
45.1148
45.1253
45.1387
45.1421
46.9203
47.0911
47.1793
47.1455
46.9395
46.5042
45.7791
44.7026
43.2181
41.28
38.8633
35.9654
32.4466
28.2869
23.901
19.5423
15.347
11.4105
7.79547
4.53357
1.62777
-0.907715
-3.12499
-5.09525
-6.87416
-8.50153
-10.0078
-11.4171
-12.7568
-14.0457
-15.2856
-16.4684
-17.5844
-18.6391
47.0335
46.8285
46.561
46.312
46.0775
45.8644
45.6779
45.5204
45.3919
45.2912
45.2162
45.1639
45.1312
45.1147
45.1108
45.1159
45.1257
45.1386
45.1419
47.2649
47.4136
47.4537
47.3418
47.0228
46.4369
45.5225
44.2204
42.4791
40.2633
37.5555
34.2091
30.1544
25.6843
21.1043
16.6583
12.4609
8.5911
5.09237
1.97653
-0.765843
-3.1394
-5.20651
-7.03758
-8.68769
-10.1957
-11.5914
-12.8976
-14.1409
-15.3407
-16.4973
-17.6029
-18.6457
-19.6322
47.4002
47.2045
46.9177
46.6427
46.3749
46.1245
45.8995
45.7041
45.5399
45.4064
45.302
45.2242
45.1698
45.1354
45.1175
45.1126
45.117
45.1261
45.1385
45.1417
47.621
47.7312
47.7028
47.4891
47.0314
46.2678
45.1381
43.5866
41.5705
39.0606
35.9063
32.0056
27.5915
22.8728
18.162
13.6848
9.53897
5.78173
2.43388
-0.512003
-3.07573
-5.27886
-7.19195
-8.88312
-10.4055
-11.7963
-13.0842
-14.2907
-15.4414
-16.5555
-17.6329
-18.6648
-19.6387
-20.4364
47.7809
47.6105
47.3133
47.0183
46.72
46.4326
46.1675
45.9314
45.7277
45.5573
45.4193
45.3116
45.2312
45.1749
45.139
45.12
45.1142
45.1179
45.1265
45.1384
45.1415
47.9765
48.0287
47.9084
47.5671
46.943
45.9746
44.6037
42.7822
40.4719
37.5206
33.7951
29.4872
24.7701
19.8685
15.0914
10.6456
6.60579
3.00291
-0.16448
-2.9211
-5.29496
-7.3222
-9.07975
-10.6319
-12.0286
-13.3053
-14.4889
-15.5996
-16.6615
-17.6939
-18.6959
-19.6585
-20.4428
-21.1126
48.1635
48.0382
47.7428
47.4368
47.1131
46.7906
46.485
46.2062
45.9599
45.7486
45.5726
45.4305
45.3198
45.2371
45.179
45.1419
45.122
45.1156
45.1186
45.1268
45.1384
45.1414
48.3162
48.2879
48.0498
47.5527
46.7345
45.5336
43.8986
41.7851
39.0392
35.4993
31.3221
26.6632
21.7113
16.6971
11.9242
7.5719
3.68701
0.274094
-2.68898
-5.24182
-7.41847
-9.26726
-10.8696
-12.2848
-13.5591
-14.7254
-15.8088
-16.8276
-17.8048
-18.7596
-19.6904
-20.4633
-21.1188
-21.8474
48.5326
48.4769
48.1991
47.8942
47.5528
47.1992
46.8543
46.5318
46.2404
45.9847
45.7666
45.5856
45.4399
45.3264
45.2418
45.1824
45.1444
45.1237
45.1167
45.1193
45.1271
45.1384
45.1413
48.622
48.488
48.1035
47.4221
46.3804
44.9223
42.9986
40.4542
37.103
33.075
28.5112
23.5738
18.4574
13.4025
8.70012
4.49593
0.807316
-2.38703
-5.12789
-7.46719
-9.44298
-11.1132
-12.5623
-13.8438
-14.9997
-16.0597
-17.0469
-17.9783
-18.875
-19.7567
-20.4957
-21.1393
-21.8535
-22.6469
48.8694
48.9126
48.6723
48.3846
48.0361
47.6579
47.2768
46.9111
46.5729
46.2699
46.0058
45.7815
45.5961
45.4471
45.3314
45.2454
45.185
45.1463
45.1251
45.1177
45.1199
45.1274
45.1384
45.1412
48.8726
48.6051
48.0447
47.1484
45.857
44.1138
41.7625
38.599
34.7355
30.3015
25.4272
20.2763
15.0609
10.031
5.45728
1.44761
-2.01124
-4.96536
-7.47185
-9.59226
-11.3666
-12.8603
-14.1595
-15.3115
-16.3533
-17.3115
-18.2072
-19.0555
-19.8762
-20.5639
-21.1726
-21.8741
-22.6529
-23.5163
49.1519
49.3283
49.1495
48.8991
48.5578
48.1644
47.7524
47.3455
46.9604
46.608
46.2945
46.0228
45.7932
45.6039
45.4524
45.3351
45.2481
45.187
45.1478
45.1263
45.1185
45.1204
45.1277
45.1384
45.1412
49.0438
48.6139
47.8456
46.7063
45.1336
42.9651
39.9863
36.3
32.0261
27.2612
22.1312
16.8219
11.5673
6.6225
2.2292
-1.54699
-4.75007
-7.44881
-9.71401
-11.6139
-13.1889
-14.5098
-15.6637
-16.6908
-17.6233
-18.4844
-19.2931
-20.0631
-20.6866
-21.2423
-21.9082
-22.6736
-23.5223
-24.4619
49.3545
49.704
49.6146
49.4263
49.1104
48.7145
48.2795
47.8358
47.405
47.0021
46.6366
46.3139
46.0356
45.8014
45.6091
45.4558
45.3375
45.2499
45.1884
45.1489
45.1272
45.1191
45.1208
45.1279
45.1384
45.1412
49.1092
48.4858
47.4791
46.0613
44.0652
41.2675
37.7672
33.6775
29.0614
24.0066
18.6639
13.2481
8.01326
3.21128
-0.955275
-4.466
-7.39421
-9.82843
-11.8498
-13.5308
-14.9104
-16.0638
-17.0776
-17.985
-18.8133
-19.5823
-20.3088
-20.8783
-21.3675
-21.9796
-22.7086
-23.5433
-24.4679
-25.4906
49.4489
50.0163
50.0485
49.9517
49.6837
49.3016
48.8548
48.3808
47.9075
47.4547
47.0358
46.6588
46.328
46.044
45.8063
45.612
45.4577
45.3388
45.2509
45.1893
45.1497
45.1278
45.1196
45.1212
45.128
45.1385
45.1413
49.0393
48.1918
46.9073
45.0667
42.4464
39.1375
35.2478
30.8107
25.8788
20.5644
15.0514
9.5846
4.43056
-0.172866
-4.07178
-7.29169
-9.9324
-12.098
-13.8767
-15.3427
-16.533
-17.525
-18.4043
-19.1976
-19.9271
-20.6091
-21.13
-21.5625
-22.1075
-22.7817
-23.5793
-24.4893
-25.4965
-26.6097
49.4026
50.2398
50.4287
50.4577
50.2647
49.9168
49.4728
48.9781
48.4677
47.9672
47.4944
47.0612
46.6741
46.3363
46.0483
45.8082
45.6129
45.4581
45.3391
45.2513
45.1897
45.1501
45.1282
45.1201
45.1214
45.1281
45.1386
45.1415
48.8026
47.6914
45.9822
43.5261
40.4111
36.7302
32.4924
27.7212
22.4919
16.9498
11.315
5.85852
0.848249
-3.50393
-7.10016
-10.0105
-12.3566
-14.2536
-15.7939
-17.0512
-18.0589
-18.8962
-19.6474
-20.3324
-20.9686
-21.4385
-21.8188
-22.3064
-22.913
-23.6545
-24.5264
-25.5183
-26.6157
-27.8273
49.178
50.3469
50.7296
50.9236
50.8374
50.5487
50.1258
49.6233
49.0838
48.5396
48.0143
47.5237
47.0779
46.6824
46.3396
46.0488
45.8076
45.612
45.4573
45.3386
45.251
45.1897
45.1503
45.1287
45.1206
45.1216
45.1282
45.1387
45.1417
48.3557
46.8352
44.5205
41.587
38.1188
34.0927
29.5092
24.4125
18.9071
13.1765
7.47692
2.09707
-2.70647
-6.75927
-10.0244
-12.6125
-14.6616
-16.2937
-17.6021
-18.6581
-19.4909
-20.181
-20.8108
-21.3934
-21.8091
-22.1337
-22.5679
-23.1166
-23.7895
-24.6039
-25.5567
-26.6379
-27.8333
-29.152
48.7244
50.3067
50.9227
51.3255
51.3827
51.1827
50.8038
50.3098
49.7522
49.171
48.5961
48.0485
47.5423
47.0859
46.6842
46.3382
46.0462
45.8048
45.6095
45.4554
45.3373
45.2501
45.1892
45.1507
45.1294
45.1208
45.1217
45.1283
45.1389
45.1419
47.5456
45.4573
42.6784
39.4078
35.6004
31.223
26.2949
20.8841
15.1311
9.26076
3.56133
-1.67199
-6.20808
-9.91973
-12.8321
-15.0908
-16.8449
-18.2185
-19.3031
-20.1661
-20.8325
-21.3832
-21.8984
-22.2488
-22.5128
-22.89
-23.3841
-23.9984
-24.7432
-25.6368
-26.6777
-27.8561
-29.1581
-30.5932
50.078
47.8879
50.9742
51.637
51.8784
51.8016
51.4937
51.0287
50.4674
49.8586
49.2392
48.6366
48.0694
47.5499
47.0859
46.6804
46.333
46.0409
45.8001
45.6057
45.4525
45.3351
45.2487
45.1896
45.1518
45.1298
45.121
45.1218
45.1284
45.139
45.1421
46.2282
43.7161
40.6092
37.0057
32.8465
28.1135
22.8441
17.1372
11.1744
5.22275
-0.404626
-5.42049
-9.63325
-12.9693
-15.5143
-17.4417
-18.9061
-20.0295
-20.8996
-21.5789
-22.0877
-22.5067
-22.7743
-22.9644
-23.2787
-23.7146
-24.2729
-24.9581
-25.781
-26.7608
-27.8975
-29.1815
-30.5992
-32.1606
50.8462
49.5148
46.5262
51.8253
52.2999
52.3846
52.1801
51.7688
51.222
50.5979
49.9418
49.288
48.6608
48.077
47.5479
47.079
46.6718
46.3243
46.0332
45.7937
45.6007
45.4486
45.3323
45.2487
45.191
45.1523
45.13
45.1209
45.1217
45.1283
45.1392
45.1424
44.5627
41.7577
38.3202
34.3659
29.8474
24.7559
19.1537
13.1765
7.0517
1.087
-4.39137
-9.12078
-12.9611
-15.8954
-18.0648
-19.6639
-20.8464
-21.7293
-22.395
-22.9005
-23.2602
-23.4108
-23.5063
-23.7433
-24.1142
-24.6128
-25.2404
-26.0025
-26.9103
-27.9838
-29.2245
-30.6233
-32.1667
-33.8648
51.8548
50.4157
48.5157
44.8334
52.6163
52.9092
52.8439
52.5161
52.0061
51.3826
50.7003
50.0013
49.3167
48.6687
48.0727
47.5374
47.0663
46.659
46.3128
46.0234
45.7859
45.5943
45.4437
45.3319
45.2507
45.1918
45.1525
45.1299
45.1207
45.1216
45.1282
45.1393
45.1427
42.6886
39.5835
35.7922
31.4779
26.5933
21.1445
15.2238
9.01071
2.78278
-3.11785
-8.36798
-12.7465
-16.1736
-18.6884
-20.4806
-21.7577
-22.6682
-23.3217
-23.7938
-24.1349
-24.2033
-24.1658
-24.3034
-24.5936
-25.0247
-25.5908
-26.2937
-27.1393
-28.1393
-29.3146
-30.6682
-32.1914
-33.8708
-35.7168
52.7959
51.6167
49.5412
47.1982
42.9473
53.3463
53.4645
53.2535
52.8074
52.2041
51.5093
50.7739
50.0365
49.3256
48.662
48.0582
47.5199
47.0486
46.6428
46.2988
46.0119
45.7763
45.5868
45.4426
45.3346
45.2518
45.192
45.1523
45.1294
45.1205
45.1213
45.1281
45.1395
45.1431
40.6029
37.1702
33.0147
28.3315
23.0775
17.276
11.0573
4.65309
-1.60763
-7.3599
-12.303
-16.2733
-19.2562
-21.3423
-22.7608
-23.7251
-24.3752
-24.8109
-25.1
-25.1279
-24.9906
-24.9881
-25.1739
-25.5207
-26.0166
-26.6558
-27.4403
-28.3766
-29.4765
-30.7623
-32.2384
-33.8963
-35.7229
-37.7281
53.6683
52.7499
50.9772
48.3497
45.6717
40.8602
54.0146
53.9621
53.6105
53.052
52.3616
51.6013
50.818
50.0475
49.3169
48.643
48.035
47.4962
47.0266
46.6236
46.2828
45.9983
45.7652
45.5847
45.4462
45.3359
45.252
45.1916
45.1516
45.1292
45.1202
45.121
45.128
45.1398
45.1435
38.2777
34.5083
29.9784
24.9205
19.2948
13.1482
6.6598
0.121471
-6.09012
-11.6047
-16.1659
-19.6801
-22.1979
-23.8536
-24.9062
-25.5696
-25.9719
-26.2016
-26.1517
-25.9571
-25.8481
-25.8863
-26.1232
-26.5307
-27.0969
-27.8154
-28.6885
-29.723
-30.9315
-32.337
-33.9456
-35.7492
-37.7342
-39.9109
54.4712
53.8076
52.342
50.0274
46.9571
43.9432
38.5368
54.6168
54.3985
53.9124
53.2483
52.4777
51.6579
50.833
50.0373
49.2932
48.6136
48.0045
47.4675
47.0012
46.602
46.264
45.9827
45.7618
45.5894
45.4479
45.3361
45.2514
45.1905
45.1514
45.129
45.1197
45.1206
45.1278
45.14
45.144
35.7048
31.5903
26.6783
21.2396
15.24
8.76025
2.04035
-4.56123
-10.6305
-15.8162
-19.9279
-22.9495
-24.9912
-26.221
-26.9195
-27.2956
-27.4631
-27.323
-27.0307
-26.8599
-26.7843
-26.8657
-27.1576
-27.6309
-28.2734
-29.0779
-30.0469
-31.188
-32.5141
-34.0492
-35.8008
-37.7613
-39.917
-42.2755
55.1984
54.7906
53.6241
51.631
48.8761
45.3947
41.9769
35.9683
55.1483
54.7705
54.1573
53.3952
52.5511
51.6792
50.8222
50.0089
49.2569
48.5753
47.9678
47.4346
46.9728
46.577
46.2429
45.9777
45.7679
45.5916
45.4482
45.3353
45.2498
45.1905
45.1515
45.1286
45.1192
45.1201
45.1276
45.1403
45.1446
32.879
28.4135
23.1102
17.2821
10.9071
4.11139
-2.78849
-9.36597
-15.1906
-19.9588
-23.564
-26.068
-27.6313
-28.446
-28.8048
-28.9081
-28.668
-28.2617
-27.987
-27.8449
-27.805
-27.9329
-28.2845
-28.8293
-29.5542
-30.452
-31.5251
-32.7817
-34.2349
-35.9099
-37.8156
-39.945
-42.2817
-45.3169
55.844
55.6912
54.8278
53.1472
50.7143
47.5774
43.6234
39.7672
33.1496
55.6053
55.0756
54.3437
53.4911
52.5821
51.6695
50.7896
49.9654
49.21
48.5297
47.9263
47.3982
46.9404
46.5492
46.2358
45.9855
45.7707
45.5919
45.447
45.3331
45.2501
45.1913
45.1514
45.128
45.1184
45.1195
45.1274
45.1407
45.1453
29.8005
24.9764
19.268
13.0397
6.28721
-0.798669
-7.80832
-14.2572
-19.7292
-23.9985
-27.0526
-29.0257
-30.1171
-30.5313
-30.5668
-30.214
-29.6783
-29.2815
-29.0286
-28.9175
-28.9165
-29.0951
-29.5117
-30.1339
-30.9484
-31.9474
-33.1332
-34.5146
-36.1051
-37.9306
-40.002
-42.3106
-45.3233
-48.9852
56.4029
56.501
55.9454
54.582
52.4612
49.6653
46.0922
41.6326
37.3155
30.0814
55.9844
55.3116
54.4695
53.5363
52.5758
51.6335
50.7388
49.9092
49.1544
48.4782
47.8806
47.357
46.9045
46.5394
46.2456
45.9889
45.771
45.5903
45.444
45.3339
45.252
45.1917
45.1509
45.1271
45.1175
45.1189
45.1272
45.141
45.146
26.4698
21.2748
15.1434
8.49769
1.36744
-5.96644
-12.9931
-19.1929
-24.2041
-27.9041
-30.3766
-31.8174
-32.4494
-32.4814
-31.9972
-31.3112
-30.7744
-30.3903
-30.1615
-30.0846
-30.1263
-30.3604
-30.8474
-31.5538
-32.4652
-33.5739
-34.8818
-36.398
-38.1363
-40.1237
-42.3707
-45.3529
-48.9913
-52.7243
56.8712
57.2119
56.9674
55.928
54.123
51.657
48.4466
44.4068
39.4232
34.6291
26.7655
56.2828
55.4761
54.5345
53.5365
52.5379
51.5756
50.6727
49.8426
49.0918
48.4219
47.8293
47.3115
46.8915
46.5517
46.2498
45.9893
45.7689
45.5862
45.4456
45.3373
45.2532
45.1916
45.15
45.1259
45.1164
45.118
45.1269
45.1415
45.1469
22.8859
17.3027
10.7198
3.63624
-3.85991
-11.3765
-18.3056
-24.1258
-28.5737
-31.6486
-33.5244
-34.4405
-34.6315
-34.0678
-33.2012
-32.4996
-31.9636
-31.5944
-31.3925
-31.3536
-31.4423
-31.7368
-32.3004
-33.0982
-34.1149
-35.3423
-36.7821
-38.4434
-40.3406
-42.4998
-45.4174
-49.0219
-52.7303
-56.5236
57.2456
57.8167
57.8841
57.1744
55.6923
53.5577
50.7022
47.0394
42.5223
37.0037
31.7189
23.2021
56.4971
55.5683
54.5456
53.4988
52.4736
51.4994
50.5942
49.7675
49.0235
48.359
47.7726
47.2947
46.9068
46.5568
46.2503
45.9866
45.7636
45.5889
45.451
45.3399
45.2539
45.191
45.1488
45.1245
45.115
45.1171
45.1265
45.142
45.1478
19.0453
13.0482
5.97436
-1.56705
-9.40121
-17.0041
-23.6966
-29.004
-32.7984
-35.2108
-36.488
-36.8962
-36.4092
-35.405
-34.5031
-33.7862
-33.2528
-32.9008
-32.7292
-32.7324
-32.8727
-33.2332
-33.88
-34.777
-35.9078
-37.2637
-38.8457
-40.6631
-42.7292
-45.5557
-49.0902
-52.7621
-56.5293
-60.3719
57.5218
58.3097
58.6857
58.3104
57.1585
55.3586
52.8622
49.5704
45.4441
40.4489
34.3899
28.5955
19.3887
56.6255
55.5958
54.5111
53.4295
52.3874
51.4083
50.5057
49.6859
48.9474
48.2895
47.7514
47.3134
46.913
46.5573
46.2469
45.9796
45.7676
45.5971
45.4555
45.3416
45.2539
45.19
45.1472
45.1227
45.1135
45.116
45.1261
45.1425
45.1488
14.9398
8.48423
0.867252
-7.14912
-15.2652
-22.8179
-29.1083
-33.7739
-36.8441
-38.5748
-39.2647
-38.8982
-37.9087
-36.8488
-35.9096
-35.1784
-34.6492
-34.3171
-34.1794
-34.2291
-34.426
-34.8586
-35.596
-36.6006
-37.8548
-39.3494
-41.0846
-43.0679
-45.8006
-49.2403
-52.8349
-56.5622
-60.3773
-64.2522
57.6969
58.6843
59.3624
59.3247
58.5106
57.0483
54.9173
52.0009
48.2598
43.6705
38.2046
31.6
25.2685
15.3225
56.6767
55.5687
54.4387
53.3339
52.2834
51.3054
50.4093
49.5951
48.8633
48.2632
47.7741
47.3209
46.9135
46.5531
46.2379
45.9854
45.7795
45.6041
45.4589
45.3426
45.2533
45.1883
45.1451
45.1206
45.1117
45.1148
45.1257
45.1431
45.1499
10.547
3.56821
-4.65761
-13.149
-21.4493
-28.7706
-34.477
-38.3838
-40.6821
-41.7304
-41.5291
-40.5867
-39.525
-38.4052
-37.4285
-36.6835
-36.1602
-35.851
-35.7511
-35.852
-36.1111
-36.6224
-37.4583
-38.5794
-39.967
-41.6111
-43.5095
-46.16
-49.5055
-52.9972
-56.6394
-60.411
-64.2574
-68.1462
57.7802
58.9352
59.9019
60.206
59.7371
58.6156
56.8546
54.3226
50.9674
46.7793
41.7377
35.8121
28.6532
21.751
10.993
56.6625
55.4961
54.3348
53.2169
52.1652
51.1932
50.3024
49.4948
48.8312
48.2907
47.783
47.3215
46.9083
46.5418
46.246
46.0019
45.7898
45.6097
45.4613
45.3427
45.2519
45.1861
45.1425
45.1181
45.1096
45.1134
45.1252
45.1438
45.1511
5.83479
-1.75326
-10.6588
-19.5999
-27.926
-34.7973
-39.7339
-42.7861
-44.2909
-44.304
-43.437
-42.4043
-41.2638
-40.0825
-39.0673
-38.3091
-37.7938
-37.5105
-37.4524
-37.6097
-37.9372
-38.5342
-39.477
-40.7242
-42.2556
-44.059
-46.6267
-49.8898
-53.2822
-56.8146
-60.4926
-64.2917
-68.151
-72.0351
57.7858
59.0733
60.2909
60.9378
60.8255
60.0477
58.6611
56.5229
53.5611
49.7681
45.1477
39.67
33.2954
25.5678
18.0505
6.37547
56.5938
55.3859
54.2053
53.083
52.036
51.0686
50.1839
49.4561
48.8641
48.301
47.7836
47.3152
46.8942
46.5526
46.2681
46.0164
45.7983
45.6141
45.4626
45.3419
45.2497
45.1831
45.1393
45.1151
45.1072
45.1119
45.1247
45.1444
45.1523
0.754416
-7.55652
-17.2128
-26.512
-34.6494
-40.8113
-44.8115
-46.9388
-47.2343
-46.4692
-45.488
-44.3558
-43.1334
-41.8881
-40.8332
-40.0626
-39.5574
-39.3034
-39.2917
-39.5109
-39.9132
-40.6036
-41.6622
-43.0455
-44.7301
-47.2041
-50.3839
-53.6889
-57.1188
-60.6807
-64.3777
-68.1859
-72.0395
-75.8996
57.7263
59.1161
60.537
61.4992
61.7553
61.3327
60.3216
58.5885
56.03
52.6354
48.4201
43.3902
37.4945
30.6783
22.3637
14.1648
1.43367
56.4799
55.2449
54.0556
52.936
51.8925
50.9303
50.1379
49.4952
48.8762
48.3017
47.776
47.2977
46.9082
46.5816
46.2878
46.0286
45.8053
45.6172
45.4627
45.34
45.2465
45.1794
45.1356
45.1117
45.1046
45.1103
45.1242
45.1451
45.1535
-4.76985
-13.9612
-24.3871
-33.8989
-41.5237
-46.7262
-49.6368
-50.3254
-49.7055
-48.7934
-47.6856
-46.449
-45.1406
-43.8286
-42.7334
-41.9513
-41.4585
-41.2376
-41.277
-41.564
-42.0482
-42.8401
-44.0237
-45.5519
-47.9071
-50.9904
-54.2055
-57.5453
-61.003
-64.5786
-68.2761
-72.0748
-75.9035
-79.7189
57.6129
59.079
60.6592
61.8936
62.4984
62.4485
61.8209
60.5031
58.3624
55.373
51.5595
46.9479
41.535
35.2388
27.9847
19.0638
10.0922
-3.88242
56.3292
55.0796
53.8902
52.7724
51.7327
50.8761
50.1841
49.5092
48.8769
48.2927
47.7546
47.3156
46.9456
46.6077
46.3047
46.0391
45.8108
45.6187
45.4615
45.3369
45.2424
45.1749
45.1312
45.108
45.1018
45.1086
45.1236
45.1458
45.1549
-10.8602
-21.1124
-32.309
-41.671
-48.4799
-52.4028
-53.5851
-53.16
-52.3522
-51.2783
-50.0362
-48.6891
-47.2906
-45.91
-44.7741
-43.9819
-43.5044
-43.3204
-43.416
-43.7772
-44.3505
-45.2524
-46.5693
-48.7665
-51.7251
-54.834
-58.0794
-61.4458
-64.9169
-68.4891
-72.1691
-75.939
-79.7223
-83.4719
57.4553
58.9758
60.6765
62.1386
63.0544
63.3621
63.1329
62.2487
60.5426
57.9724
54.5616
50.3567
45.38
39.6112
32.9305
25.2404
15.6916
5.82435
-9.64836
56.1493
54.8958
53.7056
52.5896
51.6696
50.9305
50.2003
49.51
48.8663
48.2666
47.7771
47.3628
46.9792
46.6303
46.3196
46.0476
45.8142
45.6185
45.4587
45.3324
45.2371
45.1694
45.1262
45.1039
45.0989
45.1069
45.1231
45.1466
45.1562
-17.6991
-29.3401
-40.8627
-49.9059
-55.2299
-57.0718
-56.8843
-56.1872
-55.1716
-53.9269
-52.5422
-51.0791
-49.5877
-48.1372
-46.9609
-46.1605
-45.7013
-45.5586
-45.7159
-46.1578
-46.828
-47.8475
-49.8293
-52.6216
-55.5918
-58.7235
-61.992
-65.3712
-68.8403
-72.3928
-76.0369
-79.7576
-83.4749
-87.1368
57.2627
58.8187
60.6066
62.252
63.441
64.0706
64.2171
63.7932
62.5525
60.4203
57.4223
53.6162
49.0546
43.7456
37.6476
30.599
22.4711
12.2692
1.3542
-15.9442
55.9471
54.6896
53.4982
52.5168
51.7332
50.9489
50.2011
49.4976
48.8349
48.2945
47.8358
47.4054
47.0087
46.6505
46.332
46.0537
45.8155
45.6163
45.4541
45.3265
45.2306
45.1632
45.1208
45.0996
45.0958
45.1051
45.1225
45.1473
45.1577
-25.7067
-38.6153
-50.5546
-57.9324
-60.8681
-60.9594
-60.3944
-59.4018
-58.1599
-56.7366
-55.203
-53.6199
-52.0339
-50.5135
-49.2981
-48.4918
-48.0548
-47.9581
-48.1829
-48.7123
-49.4865
-51.1643
-53.7289
-56.5148
-59.4967
-62.645
-65.9234
-69.301
-72.7529
-76.2692
-79.8585
-83.5094
-87.1394
-90.6911
57.0433
58.6186
60.4653
62.2516
63.6761
64.593
65.069
65.0842
64.3555
62.7003
60.1324
56.7284
52.5632
47.6823
42.0741
35.6737
28.2709
19.7035
8.83343
-3.28493
-22.8976
55.7189
54.4567
53.415
52.5907
51.7541
50.9499
50.1867
49.4601
48.8688
48.3662
47.8886
47.4431
47.0353
46.6677
46.3414
46.0571
45.8143
45.6118
45.4475
45.3189
45.223
45.1563
45.1151
45.0951
45.0926
45.1032
45.1219
45.1481
45.1591
-35.1334
-50.7377
-59.7261
-64.9905
-65.5309
-65.0547
-64.0968
-62.794
-61.3076
-59.6995
-58.0142
-56.3094
-54.6289
-53.0403
-51.788
-50.9794
-50.5688
-50.5235
-50.8219
-51.445
-52.8754
-55.1189
-57.6541
-60.4371
-63.4262
-66.5786
-69.8534
-73.2148
-76.6336
-80.0965
-83.6124
-87.1724
-90.6935
-94.1119
56.7937
58.3848
60.2675
62.1549
63.7775
64.9476
65.7111
66.1096
65.888
64.7744
62.6792
59.6892
55.9147
51.4312
46.2689
40.3948
33.7145
25.9747
16.9804
5.43258
-8.03393
-30.6121