/*--------------------------------*- C++ -*----------------------------------*\
  =========                 |
  \\      /  F ield         | OpenFOAM: The Open Source CFD Toolbox
   \\    /   O peration     | Website:  https://openfoam.org
    \\  /    A nd           | Version:  8
     \\/     M anipulation  |
\*---------------------------------------------------------------------------*/
FoamFile
{
    version     2.0;
    format      ascii;
    class       volScalarField;
    location    "0.28";
    object      p;
}
// * * * * * * * * * * * * * * * * * * * * * * * * * * * * * * * * * * * * * //

dimensions      [0 2 -2 0 0 0 0];

internalField   nonuniform List<scalar> 
15677
(
74.5648
74.2083
73.7955
74.2728
73.7837
73.7974
74.2478
73.8109
73.8068
73.691
74.2225
73.8123
73.807
73.7
73.5995
74.2007
73.8146
73.8069
73.6992
73.6071
73.5034
74.1772
73.8169
73.8065
73.7003
73.607
73.51
73.3889
74.1521
73.8194
73.8057
73.7007
73.608
73.51
73.3947
73.2522
74.1259
73.8225
73.8043
73.7007
73.6085
73.5109
73.3948
73.2572
73.0859
74.0986
73.8246
73.8023
73.7006
73.609
73.5115
73.3958
73.2574
73.0903
72.8826
74.07
73.826
73.7997
73.7001
73.6093
73.5122
73.3965
73.2585
73.0906
72.8863
72.6345
74.0405
73.8277
73.7964
73.6999
73.6097
73.5128
73.3973
73.2594
73.0919
72.8868
72.6374
72.3333
74.0106
73.8288
73.793
73.7
73.6103
73.5137
73.3984
73.2605
73.093
72.8882
72.6381
72.3354
71.9706
73.9808
73.8288
73.7896
73.7004
73.6113
73.5149
73.3998
73.262
73.0945
72.8897
72.6398
72.3363
71.9719
71.538
73.9542
73.8276
73.786
73.7013
73.613
73.5169
73.4019
73.2641
73.0966
72.8917
72.6416
72.3382
71.9729
71.5383
71.0274
73.9313
73.8255
73.7825
73.7026
73.6157
73.52
73.4051
73.2673
73.0996
72.8945
72.6443
72.3407
71.9752
71.5397
71.0267
70.4313
73.9114
73.8234
73.7796
73.7046
73.6196
73.5245
73.41
73.272
73.1041
72.8987
72.6481
72.3442
71.9783
71.5423
71.0283
70.4294
69.7428
73.894
73.8214
73.7775
73.7072
73.625
73.5311
73.417
73.279
73.1107
72.9048
72.6537
72.3492
71.9828
71.5462
71.0314
70.4312
69.7396
68.9563
73.8789
73.8194
73.7759
73.7102
73.6317
73.5401
73.427
73.2892
73.1205
72.9139
72.6619
72.3564
71.9892
71.5518
71.0361
70.4348
69.7418
68.9517
68.0675
73.8658
73.8176
73.7748
73.7136
73.639
73.5511
73.4407
73.3034
73.1345
72.9271
72.674
72.3672
71.9986
71.5599
71.0431
70.4405
69.7458
68.9542
68.0613
67.0734
73.8546
73.8159
73.7743
73.7174
73.647
73.5631
73.4573
73.323
73.1543
72.9462
72.6916
72.383
72.0124
71.5718
71.0532
70.449
69.7526
68.9588
68.0641
67.0655
65.973
73.8457
73.8144
73.7743
73.7217
73.6557
73.5763
73.4754
73.3467
73.1813
72.9728
72.7168
72.4059
72.0326
71.5891
71.0678
70.4613
69.7628
68.9667
68.0692
67.0686
65.9633
64.7669
73.8388
73.8129
73.7748
73.7263
73.665
73.5904
73.4952
73.3726
73.2142
73.0093
72.752
72.4386
72.0619
71.6146
71.0893
70.4791
69.7774
68.9786
68.0783
67.0742
65.9666
64.7552
63.4584
73.8335
73.8115
73.7756
73.7313
73.6748
73.6055
73.5165
73.4009
73.25
73.0537
72.8003
72.4844
72.1037
71.6514
71.1208
70.5053
69.7987
68.9958
68.0919
67.0845
65.9727
64.7588
63.4445
62.0518
73.8294
73.8104
73.7766
73.7363
73.685
73.6213
73.539
73.4313
73.2891
73.1021
72.8591
72.5472
72.1622
71.7039
71.1662
70.5434
69.8299
69.0207
68.1117
67.0998
65.984
64.7652
63.4483
62.0357
60.5595
73.8262
73.8094
73.7777
73.741
73.695
73.6376
73.5626
73.4635
73.3312
73.1551
72.9232
72.6236
72.2423
71.7773
71.231
70.5987
69.8755
69.0573
68.1405
67.1222
66.001
64.7775
63.4548
62.0395
60.5406
59.0118
73.8236
73.8086
73.7789
73.7453
73.7043
73.6537
73.587
73.4972
73.3759
73.2121
72.9936
72.7071
72.3401
71.878
71.3217
70.6774
69.9415
69.1109
68.1827
67.1547
66.0258
64.7959
63.4677
62.0456
60.5417
58.9562
57.3481
73.8214
73.808
73.78
73.7493
73.7126
73.6684
73.6109
73.532
73.4226
73.2726
73.0693
72.7988
72.447
72.0009
71.4462
70.7877
70.0357
69.1885
68.2444
67.2024
66.0618
64.8227
63.487
62.0586
60.5464
58.9589
57.2809
55.5536
73.8197
73.8075
73.7811
73.7529
73.7201
73.6817
73.6329
73.5662
73.4709
73.3359
73.1496
72.8976
72.5645
72.1357
71.5986
70.9393
70.1677
69.2993
68.3342
67.2726
66.1149
64.8619
63.5154
62.0783
60.5579
58.9598
57.2835
55.5234
53.7016
73.8183
73.8071
73.782
73.7561
73.7269
73.6937
73.6527
73.5975
73.5183
73.4015
73.2339
73.0025
72.6913
72.2839
71.7658
71.1252
70.3496
69.455
68.4627
67.3748
66.1932
64.9198
63.5569
62.1072
60.5761
58.9683
57.2779
55.5156
53.6901
51.7978
73.8171
73.8067
73.7827
73.7592
73.7329
73.7044
73.6704
73.6257
73.5617
73.4657
73.3211
73.1126
72.8262
72.4442
71.9501
71.3296
70.5731
69.6701
68.6437
67.5216
66.3078
65.0058
63.6188
62.15
60.6039
58.9837
57.2857
55.5062
53.6732
51.7923
49.6512
73.8162
73.8065
73.7834
73.762
73.7382
73.7139
73.6863
73.6511
73.6009
73.5248
73.4068
73.2268
72.9678
72.6148
72.1495
71.5553
70.8194
69.9351
68.8945
67.729
66.4729
65.132
63.7113
62.2146
60.6461
59.009
57.2995
55.5155
53.6647
51.7736
49.649
47.2326
73.8153
73.8062
73.784
73.7644
73.743
73.7224
73.7004
73.6737
73.6361
73.578
73.4854
73.339
73.1149
72.7944
72.3624
71.8001
71.0919
70.2277
69.2041
68.017
66.707
65.3149
63.8481
62.3122
60.7116
59.0492
57.323
55.5289
53.6744
51.7671
49.6311
47.2323
44.7865
73.8146
73.806
73.7846
73.7666
73.7472
73.7299
73.7129
73.6938
73.6676
73.6259
73.5565
73.4421
73.2596
72.9811
72.5866
72.0618
71.3882
70.5523
69.547
68.3739
67.0333
65.5754
64.0477
62.4581
60.8124
59.1139
57.3617
55.5521
53.6879
51.7754
49.6245
47.2157
44.7879
42.3554
73.8141
73.8059
73.7852
73.7685
73.7509
73.7365
73.7241
73.7117
73.6955
73.6686
73.6204
73.5354
73.3927
73.1649
72.8202
72.338
71.7056
70.906
69.9284
68.7704
67.4391
65.9401
64.3335
62.6725
60.9652
59.2161
57.4254
55.59
53.7111
51.7889
49.6295
47.2086
44.7734
42.357
39.9595
73.8057
73.8134
73.7857
73.7702
73.7542
73.7424
73.7339
73.7276
73.7204
73.7067
73.6774
73.6193
73.5133
73.3344
73.0507
72.6264
72.0414
71.2859
70.3452
69.2127
67.8916
66.3957
64.7356
62.9818
61.1923
59.3738
57.5282
55.6531
53.7482
51.8114
49.6417
47.2103
44.7662
42.3435
39.961
37.6116
73.7861
73.8056
73.8126
73.7717
73.7572
73.7477
73.7427
73.7417
73.7425
73.7405
73.7283
73.6943
73.6218
73.4881
73.2635
72.9115
72.3928
71.6888
70.794
69.6975
68.3981
66.9054
65.2404
63.4194
61.5224
59.611
57.6893
55.756
53.8099
51.8466
49.6615
47.2196
44.7649
42.3352
39.9482
37.6123
35.3238
73.7729
73.7868
73.8056
73.8119
73.7598
73.7523
73.7504
73.7541
73.762
73.7705
73.7735
73.7611
73.7189
73.6265
73.4567
73.1753
72.741
72.1116
71.2715
70.2212
68.955
67.4781
65.8075
63.9717
61.9927
59.959
57.9344
55.9191
53.9116
51.9057
49.6928
47.2348
44.7709
42.3304
39.9384
37.6001
35.3236
33.1071
73.762
73.7747
73.7878
73.8055
73.8112
73.7564
73.7573
73.7652
73.7794
73.7972
73.8137
73.8206
73.8056
73.7505
73.631
73.4152
73.0639
72.5316
71.774
70.7801
69.5587
68.1101
66.4472
64.5951
62.5897
60.4583
58.297
56.1696
54.0747
52.0043
49.7469
47.2599
44.7804
42.3317
39.9297
37.5884
35.3118
33.1059
30.9701
73.7599
73.7651
73.7768
73.7887
73.8054
73.8105
73.7633
73.775
73.7947
73.8208
73.8493
73.8735
73.8827
73.8613
73.7873
73.6318
73.3581
72.9221
72.2747
71.3702
70.2051
68.7976
67.1558
65.3011
63.2668
61.0961
58.821
56.5432
54.3275
52.1646
49.8395
47.3056
44.7976
42.3341
39.9252
37.5756
35.2978
33.0943
30.9678
28.9187
73.7685
73.7647
73.7684
73.7788
73.7896
73.8053
73.8099
73.7837
73.8084
73.8417
73.8808
73.9204
73.9513
73.96
73.9271
73.8265
73.6243
73.2788
72.7416
71.9603
70.8901
69.5366
67.9297
66.0864
64.0369
61.823
59.4946
57.087
54.7077
52.416
49.9934
47.3878
44.8324
42.3416
39.9193
37.5647
35.2807
33.0779
30.9563
28.9154
26.9572
73.791
73.7754
73.7696
73.7719
73.7808
73.7905
73.8053
73.8094
73.8204
73.8603
73.9088
73.962
74.0122
74.0478
74.0518
74.0009
73.864
73.6023
73.1691
72.5122
71.5776
70.3227
68.7648
66.9474
64.897
62.6533
60.2659
57.7901
55.2654
52.7982
50.239
47.5299
44.9009
42.3631
39.9153
37.5496
35.263
33.0564
30.9373
28.904
26.953
25.0882
73.8305
73.8007
73.7823
73.7747
73.7752
73.7828
73.7914
73.8052
73.8088
73.8767
73.9337
73.9989
74.0662
74.1258
74.1628
74.1565
74.0789
73.894
73.5577
73.0191
72.2229
71.1149
69.6569
67.8806
65.8443
63.5847
61.1509
58.5992
55.9908
53.3631
50.6177
47.7631
45.0265
42.4147
39.9213
37.5328
35.238
33.0316
30.9113
28.8822
26.9414
25.0831
23.3128
73.8904
73.844
73.81
73.7893
73.7796
73.7785
73.7847
73.7923
73.8052
73.8084
73.9558
74.0317
74.1141
74.195
74.2615
74.2952
74.271
74.156
73.909
73.4811
72.8175
71.8613
70.5599
68.8819
66.8755
64.6153
62.1484
59.5319
56.8297
54.1024
51.1827
48.1297
45.2412
42.5197
39.9532
37.5215
35.2074
32.9962
30.8793
28.8519
26.917
25.0714
23.3069
21.6309
73.9741
73.9086
73.8561
73.8195
73.7962
73.7844
73.7816
73.7866
73.7932
73.8052
73.8079
74.0607
74.1568
74.2565
74.3492
74.4186
74.4424
74.3905
74.225
73.8996
73.361
72.5515
71.4142
69.9002
67.9873
65.7425
63.2573
60.5882
57.8016
54.9619
51.9277
48.6834
45.5871
42.7104
40.0343
37.5316
35.1776
32.951
30.8331
28.8124
26.8823
25.0443
23.295
21.6243
20.0414
74.0848
73.9983
73.9243
73.8686
73.8287
73.8028
73.789
73.7847
73.7883
73.7941
73.8051
73.8075
74.1946
74.3112
74.427
74.5283
74.5951
74.6001
74.5085
74.277
73.8546
73.1843
72.2069
70.8676
69.1234
66.9637
64.476
61.7683
58.9079
55.9631
52.7997
49.4207
46.1171
43.0272
40.1959
37.586
35.1643
32.9019
30.7729
28.7554
26.8354
25.0053
23.2652
21.6121
20.0341
18.5423
74.2257
74.1167
74.0183
73.9406
73.8808
73.8376
73.8092
73.7935
73.7876
73.79
73.7949
73.8051
73.8072
74.3597
74.4965
74.6259
74.7309
74.787
74.7621
74.6162
74.3008
73.7607
72.9364
71.7691
70.2078
68.218
65.8032
63.0718
60.15
57.1086
53.8216
50.291
46.8313
43.5223
40.4763
37.7139
35.1896
32.8642
30.7041
28.68
26.7676
24.9511
23.2222
21.5798
20.0216
18.5345
17.1312
74.3995
74.2672
74.1419
74.0392
73.9564
73.8924
73.8461
73.8153
73.7977
73.7904
73.7917
73.7957
73.8051
73.8069
74.5579
74.713
74.8519
74.9535
74.9887
74.9202
74.7028
74.2832
73.603
72.6016
71.2225
69.4211
67.1737
64.4989
61.5291
58.4014
54.9975
51.3182
47.6825
44.1993
40.9262
37.9517
35.2802
32.8586
30.6414
28.5912
26.6771
24.8726
23.1608
21.5329
19.9869
18.5217
17.1228
15.8049
74.6082
74.4529
74.2987
74.1685
74.0594
73.9713
73.9034
73.8541
73.8211
73.8017
73.793
73.7932
73.7965
73.8051
73.8066
74.79
74.9599
75.1019
75.1908
75.1922
75.0637
74.7549
74.209
73.3649
72.1632
70.5518
68.4947
65.9807
63.0474
59.8448
56.3325
52.508
48.6946
45.0149
41.5529
38.3475
35.4702
32.9091
30.6036
28.5033
26.5686
24.7672
23.0718
21.4645
19.9363
18.4847
17.1098
15.7961
14.5602
74.8528
74.6762
74.4921
74.3322
74.1941
74.0784
73.9854
73.9138
73.8616
73.8265
73.8055
73.7955
73.7947
73.7972
73.8051
73.8064
75.0554
75.2345
75.371
75.4351
75.3872
75.1795
74.7574
74.0609
73.0289
71.6044
69.7422
67.4167
64.6333
61.4429
57.8321
53.868
49.8754
45.9921
42.3169
38.9118
35.8044
33.0471
30.612
28.4325
26.4554
24.6394
22.9519
21.3654
19.8612
18.4306
17.0706
15.7828
14.5509
13.3935
75.1329
74.9387
74.7247
74.5341
74.3644
74.218
74.0962
73.9985
73.9234
73.8686
73.8315
73.809
73.7978
73.796
73.7978
73.8051
73.8062
75.3518
75.5324
75.6521
75.6765
75.5607
75.2522
74.6927
73.8208
72.5766
70.9083
68.7792
66.1785
63.122
59.503
55.4067
51.2348
47.1405
43.2396
39.6089
36.2952
33.3136
30.6949
28.3976
26.3514
24.5013
22.8054
21.2314
19.7523
18.349
17.0132
15.7415
14.5374
13.3837
12.3012
75.4464
75.2406
74.9984
74.777
74.5743
74.3943
74.2402
74.1126
74.0106
73.9323
73.8751
73.8361
73.8122
73.7999
73.7971
73.7984
73.8051
73.806
75.6749
75.8467
75.9355
75.9023
75.6975
75.264
74.5416
73.4689
71.9896
70.0586
67.6519
64.7669
61.2706
57.1346
52.7844
48.4718
44.3314
40.4576
36.9113
33.7214
30.8887
28.4237
26.2726
24.3642
22.6428
21.0668
19.6049
18.2308
16.9254
15.681
14.4941
13.37
12.2907
11.279
75.7894
75.5805
75.3139
75.0632
74.8268
74.6114
74.4219
74.2606
74.1277
74.0217
73.9404
73.8809
73.8403
73.815
73.8016
73.798
73.7988
73.8051
73.8059
76.0183
76.168
76.2085
76.0972
75.7793
75.1954
74.2837
72.9855
71.2495
69.0414
66.3434
63.0144
58.9775
54.5368
49.9986
45.6036
41.4672
37.6671
34.2436
31.2054
28.5408
26.2406
24.2416
22.4733
20.8805
19.423
18.0706
16.7984
15.5873
14.4307
13.3248
12.2768
11.2675
10.3276
76.1554
75.9553
75.6703
75.394
75.1249
74.8727
74.6454
74.447
74.2791
74.1412
74.0315
73.9475
73.8861
73.8438
73.8174
73.8031
73.7988
73.7993
73.8051
73.8058
76.3728
76.4841
76.4562
76.2428
75.7863
75.0247
73.8978
72.3503
70.3399
67.8373
64.6963
60.8085
56.4169
51.7325
47.0676
42.6473
38.5695
34.889
31.6229
28.7602
26.2785
24.1512
22.3073
20.6793
19.2137
17.8722
16.6261
15.452
14.3315
13.2589
12.2299
11.2536
10.3105
9.53392
76.5353
76.3595
76.0651
75.769
75.4699
75.1813
74.9145
74.6762
74.4696
74.2956
74.1532
74.0402
73.9538
73.8904
73.8468
73.8194
73.8044
73.7995
73.7996
73.8051
73.8057
76.7262
76.7799
76.6601
76.3191
75.6962
74.7298
73.3618
71.5445
69.2396
66.2984
62.5818
58.2906
53.5993
48.7351
44.0091
39.627
35.6626
32.1437
29.0646
26.3963
24.1083
22.1587
20.4708
18.9818
17.6408
16.4119
15.2683
14.1884
13.1545
12.1617
11.2054
10.2973
9.52783
8.86502
76.9171
76.785
76.4936
76.1866
75.8624
75.5391
75.2324
74.952
74.7035
74.4894
74.3098
74.1634
74.0475
73.9588
73.8939
73.8492
73.821
73.8054
73.8001
73.7999
73.8051
73.8057
77.0637
77.0372
76.7998
76.3029
75.4858
74.287
72.6551
70.5454
67.8072
64.2733
60.1083
55.4678
50.5432
45.5703
40.8547
36.5735
32.7717
29.4503
26.5819
24.1223
22.0348
20.265
18.7322
17.3794
16.1595
15.0393
13.9939
13.0041
12.0524
11.1354
10.2476
9.52095
8.87211
8.1698
77.2854
77.221
76.9486
76.6427
76.301
75.9471
75.6016
75.278
74.9851
74.7273
74.5063
74.3218
74.1718
74.0533
73.9628
73.8966
73.851
73.8223
73.8062
73.8005
73.8002
73.8051
73.8056
77.3667
77.2354
76.8518
76.1703
75.1298
73.674
71.753
69.2144
65.8671
61.8479
57.2964
52.3774
47.2905
42.2817
37.6436
33.5185
29.9214
26.8262
24.1863
21.9447
20.0608
18.4704
17.0902
15.8699
14.7669
13.751
12.7995
11.8952
11.0215
10.1762
9.47064
8.86654
8.17023
7.41776
77.6217
77.6537
77.4203
77.1314
76.7829
76.4047
76.0234
75.657
75.3179
75.0134
74.7472
74.5202
74.3314
74.1782
74.0575
73.9657
73.8986
73.8525
73.8233
73.8069
73.8009
73.8004
73.8051
73.8055
77.6144
77.3505
76.7914
75.8947
74.6045
72.8634
70.5166
67.3556
63.4984
59.0717
54.2084
49.0762
43.8931
38.915
34.4135
30.4919
27.1334
24.2861
21.8866
19.8679
18.1877
16.7741
15.5427
14.4504
13.4596
12.5434
11.6812
10.8581
10.0581
9.39888
8.8174
8.15935
7.41068
6.59356
77.9041
78.0659
77.896
77.644
77.3028
76.9097
76.4978
76.0907
75.7052
75.3518
75.0369
74.7632
74.5309
74.3383
74.1826
74.0604
73.9676
73.9001
73.8535
73.8241
73.8074
73.8012
73.8005
73.8051
73.8055
77.7822
77.3572
76.5908
75.4508
73.879
71.7144
68.7372
65.0551
60.7848
56.025
50.905
45.6151
40.3961
35.5098
31.1979
27.5196
24.426
21.8417
19.6893
17.8946
16.4156
15.1746
14.0871
13.1176
12.2341
11.4128
10.6352
9.8889
9.27708
8.74458
8.11026
7.39526
6.58351
5.69576
78.1071
78.4377
78.3597
78.1691
77.8535
77.4579
77.0233
76.5797
76.1489
75.7456
75.3793
75.0552
74.775
74.5381
74.3426
74.1853
74.0621
73.9688
73.9009
73.8542
73.8246
73.8077
73.8015
73.8007
73.8051
73.8055
77.8438
77.2269
76.2231
74.8039
72.8104
70.0141
66.5166
62.4273
57.8121
52.7605
47.4266
42.0311
36.8361
32.1006
28.0256
24.6233
21.814
19.5018
17.5985
16.0257
14.7432
13.6691
12.72
11.8681
11.0866
10.3552
9.6577
9.10329
8.62002
8.0353
7.34462
6.56676
5.68449
4.72143
78.2028
78.7455
78.7924
78.6923
78.4247
78.043
77.5967
77.1231
76.6501
76.1973
75.7781
75.4003
75.0682
74.7824
74.5421
74.3447
74.1864
74.0627
73.9692
73.9013
73.8545
73.8249
73.8079
73.8017
73.8008
73.8051
73.8055
77.7694
76.931
75.6503
73.8095
71.189
67.8824
63.9911
59.5519
54.6182
49.3044
43.7987
38.3537
33.2448
28.7171
24.9212
21.8207
19.3085
17.2722
15.6164
14.2609
13.1686
12.2549
11.4382
10.6981
10.0132
9.36685
8.86526
8.44217
7.9077
7.26649
6.51438
5.66732
4.70926
3.66413
78.1592
78.9639
79.1717
79.1961
79.0035
78.6561
78.2126
77.7185
77.2086
76.7085
76.2358
75.8023
75.4145
75.0755
74.7857
74.5432
74.3448
74.1861
74.0624
73.969
73.9012
73.8545
73.8249
73.8082
73.8018
73.8008
73.8051
73.8055
77.5275
76.4287
74.7268
72.2669
69.1517
65.4685
61.2269
56.4505
51.2158
45.6711
40.0425
34.6099
29.6516
25.3858
21.9049
19.1253
16.9172
15.1564
13.7434
12.5985
11.6888
10.9284
10.2377
9.6034
9.00996
8.56558
8.19852
7.72531
7.13532
6.43275
5.61331
4.69117
3.65139
2.51681
77.9395
79.0647
79.4723
79.6599
79.5741
79.2857
78.8634
78.3615
77.8227
77.2792
76.7543
76.2639
75.8179
75.4217
75.0778
74.7854
74.5418
74.3431
74.1846
74.0613
73.9682
73.9006
73.8542
73.8252
73.8085
73.8019
73.8008
73.8051
73.8055
77.0742
75.5725
73.2647
70.3259
66.8523
62.8224
58.232
53.1258
47.6106
41.8739
36.1796
30.8271
26.0838
22.1296
18.9929
16.5473
14.6453
13.1558
11.9783
11.0359
10.3008
9.68599
9.11445
8.58035
8.19661
7.89132
7.47559
6.94782
6.29759
5.52838
4.63551
3.63215
2.50382
1.27234
77.4938
79.0169
79.6658
80.0598
80.1173
79.9176
79.539
79.0457
78.4889
77.9085
77.3343
76.7873
76.2813
75.8248
75.4226
75.0756
74.782
74.5383
74.34
74.1821
74.0594
73.9668
73.8997
73.8544
73.8258
73.8087
73.8019
73.8008
73.8051
73.8056
76.2582
74.1918
71.4221
68.1399
64.3257
59.9415
55.0019
49.5764
43.8085
37.9284
32.2342
27.0333
22.5675
18.968
16.1979
14.0932
12.4951
11.2697
10.319
9.57014
9.00072
8.52354
8.06469
7.75089
7.51218
7.16022
6.69145
6.1044
5.3889
4.54736
3.57483
2.4838
1.25921
-0.0768852
78.7782
76.6707
79.7193
80.3694
80.6112
80.5344
80.2268
79.7623
79.2018
78.5938
77.9754
77.3736
76.8071
76.2879
75.8239
75.4179
75.0695
74.7759
74.5329
74.3355
74.1786
74.0567
73.9649
73.8997
73.8552
73.8261
73.8087
73.8018
73.8007
73.8051
73.8057
74.9289
72.4477
69.3479
65.7303
61.5611
56.8169
51.5306
45.8028
39.8193
33.8546
28.2336
23.2569
19.1266
15.9175
13.5291
11.767
10.4668
9.49641
8.76249
8.19727
7.78443
7.43714
7.21357
7.05291
6.77008
6.36719
5.84075
5.18948
4.40324
3.48331
2.42457
1.23864
-0.0901685
-1.53892
79.5941
78.2053
75.3256
80.5564
81.0311
81.1157
80.911
80.5
79.954
79.3307
78.6756
78.0228
77.3966
76.8135
76.2848
75.8161
75.4085
75.0601
74.7675
74.5258
74.3299
74.1741
74.0533
73.9646
73.901
73.8556
73.8261
73.8085
73.8017
73.8005
73.8051
73.8057
73.2517
70.4823
67.0536
63.0808
58.5477
53.44
47.8142
41.8089
35.6573
29.6767
24.2075
19.5263
15.7824
12.9911
10.9927
9.5699
8.55893
7.83305
7.3049
6.91316
6.64793
6.55643
6.49741
6.29616
5.96511
5.5068
4.91791
4.19707
3.33413
2.3294
1.17733
-0.111373
-1.55233
-3.12206
80.5844
79.169
77.1862
73.6491
81.3465
81.6387
81.573
81.2452
80.7356
80.1129
79.4316
78.7338
78.0504
77.4033
76.8082
76.2735
75.8026
75.395
75.0479
74.7571
74.5174
74.323
74.1687
74.0525
73.9664
73.9016
73.8556
73.8258
73.8082
73.8014
73.8004
73.8051
73.8058
71.3625
68.3012
64.5184
60.1796
55.2754
49.8043
43.8521
37.6027
31.3416
25.4233
20.1874
15.8686
12.5536
10.1986
8.59179
7.50141
6.76899
6.27566
5.94194
5.71359
5.7269
5.81547
5.721
5.47534
5.09177
4.5734
3.9169
3.12067
2.17471
1.07832
-0.174733
-1.57425
-3.13555
-4.83484
81.5249
80.3477
78.302
75.8478
71.7735
82.0749
82.1919
81.9807
81.5347
80.932
80.2381
79.5038
78.7677
78.0581
77.3957
76.7928
76.2552
75.7841
75.3781
75.0333
74.745
74.5072
74.3148
74.1672
74.055
73.9672
73.9016
73.8552
73.8252
73.8079
73.8012
73.8002
73.8051
73.8059
69.2621
65.8795
61.7308
57.0168
51.737
45.9057
39.6462
33.1965
26.8965
21.1266
16.2053
12.3088
9.45557
7.54662
6.32758
5.55951
5.09304
4.8198
4.66919
4.74187
4.95222
5.01223
4.8789
4.58486
4.14436
3.56093
2.83119
1.9534
0.917684
-0.277705
-1.63963
-3.1582
-4.84832
-6.68597
82.3959
81.4801
79.7076
77.1184
74.2985
69.6954
82.7412
82.6876
82.3358
81.7776
81.0879
80.3287
79.5467
78.7776
78.0483
77.3758
76.7688
76.2308
75.7615
75.3583
75.0167
74.7307
74.4955
74.3124
74.1705
74.056
73.9672
73.901
73.8544
73.8249
73.8077
73.8009
73.7999
73.8051
73.806
66.9209
63.2066
58.6819
53.5854
47.9268
41.7416
35.2012
28.6074
22.3513
16.8215
12.2928
8.86893
6.49971
5.03896
4.19925
3.74057
3.52652
3.46078
3.63869
3.92482
4.11248
4.14118
3.96543
3.61894
3.11673
2.46278
1.65386
0.687937
-0.444724
-1.74675
-3.2256
-4.87168
-6.69936
-8.68389
83.1967
82.5365
81.0721
78.757
75.7299
72.5496
67.3786
83.3414
83.1221
82.636
81.9722
81.2025
80.3839
79.5604
78.7663
78.0237
77.3455
76.7376
76.2014
75.7354
75.3361
74.9973
74.7146
74.4918
74.3168
74.1719
74.056
73.9664
73.8997
73.8542
73.8248
73.8073
73.8005
73.7996
73.8051
73.8062
64.3295
60.2758
55.3661
49.8798
43.839
37.3097
30.5249
23.8574
17.74
12.5446
8.47936
5.56726
3.69438
2.67705
2.20398
2.04016
2.06454
2.36089
2.77256
3.03929
3.20212
3.19655
2.97474
2.57136
2.00226
1.27201
0.377556
-0.683482
-1.9206
-3.33712
-4.9411
-6.72338
-8.69671
-10.8408
83.9219
83.5172
82.354
80.3612
77.6024
74.1701
70.5648
64.8134
83.8709
83.4923
82.8792
82.1175
81.2745
80.404
79.5486
78.737
77.9866
77.3065
76.7003
76.1679
75.7064
75.3105
74.9756
74.7092
74.4975
74.3186
74.1719
74.055
73.9646
73.8997
73.8545
73.8246
73.8068
73.8
73.7992
73.8051
73.8064
61.4834
57.0839
51.7792
45.8933
39.4668
32.608
25.6283
18.9749
13.1012
8.33258
4.79141
2.41835
1.0447
0.459693
0.337803
0.453253
0.881613
1.43684
1.83413
2.07965
2.21524
2.17237
1.90053
1.43545
0.793947
-0.0187764
-1.0055
-2.16895
-3.51824
-5.05727
-6.79463
-8.72084
-10.8495
-13.5616
84.5656
84.4154
83.5559
81.8778
79.4434
76.2987
72.4016
68.3364
61.996
84.326
83.7955
83.0639
82.2121
81.3042
80.3931
79.515
78.6927
77.9391
77.2603
76.6581
76.1309
75.6735
75.2821
74.9682
74.7166
74.4999
74.3186
74.1705
74.0525
73.9649
73.9007
73.8545
73.8241
73.8062
73.7994
73.7988
73.8051
73.8066
58.3818
53.6292
47.9153
41.6166
34.7996
27.6343
20.5282
13.9949
8.47662
4.22059
1.25167
-0.567176
-1.44769
-1.61601
-1.40414
-0.830659
-0.1118
0.436049
0.817645
1.03989
1.14576
1.06227
0.736052
0.204163
-0.515618
-1.41736
-2.50342
-3.77679
-5.24614
-6.91562
-8.79404
-10.8736
-13.5754
-16.8076
85.1225
85.2228
84.6715
83.3109
81.1923
78.3912
74.8095
70.4119
65.8658
58.9268
84.7031
84.0299
83.1881
82.2559
81.2967
80.3562
79.4634
78.6358
77.8828
77.2082
76.6119
76.0892
75.637
75.272
74.9775
74.7195
74.4999
74.3168
74.1672
74.0533
73.9669
73.9012
73.8541
73.8233
73.8053
73.7988
73.7984
73.8051
73.8069
55.0253
49.9083
43.7657
37.0341
29.8235
22.3906
15.2498
8.95921
3.90912
0.241298
-2.12145
-3.38317
-3.78362
-3.5543
-2.8136
-1.90849
-1.18725
-0.647461
-0.283037
-0.0862193
-0.0127979
-0.140542
-0.525735
-1.1299
-1.93421
-2.93183
-4.12452
-5.5155
-7.11262
-8.92015
-10.9469
-13.606
-16.8256
-20.1222
85.5889
85.9313
85.6915
84.6551
82.8533
80.3856
77.1715
73.1187
68.2024
63.1603
55.6083
84.9997
84.1927
83.2517
82.2549
81.2578
80.2974
79.3966
78.5685
77.8196
77.1514
76.56
76.0431
75.6238
75.2838
74.9812
74.7195
74.4975
74.3124
74.1687
74.0568
73.9683
73.9013
73.8535
73.8223
73.8043
73.798
73.7978
73.8051
73.8072
51.4135
45.9152
39.3142
32.1255
24.529
16.8902
9.8296
3.91548
-0.55787
-3.57651
-5.31498
-6.02697
-5.96611
-5.12287
-3.99639
-3.0748
-2.35104
-1.82002
-1.47428
-1.30523
-1.26727
-1.44312
-1.89221
-2.57447
-3.46987
-4.57043
-5.87728
-7.39341
-9.12583
-11.0778
-13.6852
-16.8588
-20.135
-23.4409
85.9615
86.5337
86.606
85.8996
84.4217
82.2862
79.4303
75.7631
71.2278
65.7824
60.2306
52.0416
85.2122
84.2833
83.2615
82.2161
81.1926
80.2205
79.3174
78.4929
77.7508
77.0878
76.5027
76.0262
75.6384
75.2883
74.9812
74.7166
74.4918
74.3148
74.1742
74.0595
73.969
73.9009
73.8524
73.821
73.8031
73.797
73.7972
73.8051
73.8075
47.5433
41.6388
34.5371
26.8652
18.9051
11.1543
4.31553
-1.08316
-4.8828
-7.20994
-8.32057
-8.49912
-7.73257
-6.4388
-5.27569
-4.33635
-3.60974
-3.08814
-2.76274
-2.62402
-2.62469
-2.85278
-3.37104
-4.13749
-5.13074
-6.34154
-7.76998
-9.41871
-11.2925
-13.8265
-16.9458
-20.1642
-23.4518
-26.7466
86.2358
87.0243
87.4052
87.0335
85.8866
84.0867
81.5906
78.2981
74.1661
69.1473
63.1679
57.0875
48.2263
85.3388
84.3094
83.2259
82.1457
81.1057
80.1288
79.2284
78.4107
77.674
77.0178
76.4815
76.0442
75.644
75.2883
74.9775
74.7092
74.4956
74.3231
74.1787
74.0613
73.9692
73.9
73.851
73.8193
73.8016
73.7959
73.7965
73.8051
73.8079
43.4073
37.0521
29.3921
21.2122
12.9377
5.21007
-1.23594
-5.98125
-9.02914
-10.6417
-11.1345
-10.5005
-9.21365
-7.8614
-6.65876
-5.69996
-4.97002
-4.45857
-4.1553
-4.04958
-4.09229
-4.37707
-4.96998
-5.82693
-6.92503
-8.2533
-9.81072
-11.5981
-14.054
-17.0992
-20.2504
-23.4813
-26.7566
-30.0281
86.409
87.3967
88.0794
88.0456
87.2371
85.776
83.6455
80.73
76.9865
72.391
66.8956
60.3776
53.7425
44.1614
85.3884
84.2811
83.1524
82.0493
81.001
80.0253
79.1315
78.3192
77.5895
76.9916
76.5034
76.0508
75.644
75.2838
74.9681
74.7147
74.5074
74.3301
74.1822
74.0624
73.9688
73.8986
73.8491
73.8173
73.7998
73.7947
73.7957
73.8051
73.8084
38.9848
32.1132
23.8225
15.1218
6.62527
-0.899019
-6.76003
-10.7246
-12.9661
-13.8608
-13.4135
-12.1776
-10.8137
-9.39844
-8.15266
-7.17242
-6.43869
-5.9382
-5.65889
-5.589
-5.67742
-6.02351
-6.69677
-7.65072
-8.8606
-10.3136
-12.0061
-14.3763
-17.3431
-20.4086
-23.5687
-26.7875
-30.037
-33.2652
86.4907
87.6454
88.6164
88.9245
88.4616
87.3425
85.5824
83.0523
79.6967
75.5048
70.457
64.4956
57.4314
50.2092
39.8378
85.3729
84.2074
83.0476
81.9317
80.8823
79.9126
79.0237
78.2185
77.5576
77.0181
76.5114
76.0508
75.6384
75.272
74.9757
74.731
74.5177
74.3357
74.1847
74.0627
73.9676
73.8965
73.8467
73.815
73.7978
73.7932
73.7949
73.8052
73.8088
34.2459
26.7695
17.7629
8.55641
-0.0132018
-7.10808
-12.1864
-15.2618
-16.6702
-16.4697
-15.3218
-13.9881
-12.5408
-11.0571
-9.7642
-8.76054
-8.02258
-7.53384
-7.2804
-7.24934
-7.3873
-7.7995
-8.55896
-9.61638
-10.9449
-12.5286
-14.804
-17.685
-20.663
-23.7323
-26.8768
-30.0687
-33.2729
-36.4355
86.4948
87.7817
89.0026
89.6538
89.5477
88.7737
87.3882
85.2528
82.292
78.4976
73.872
68.3886
61.972
54.3487
46.4961
35.2355
85.3029
84.0961
82.9174
81.7972
80.7525
79.787
78.905
78.1801
77.5893
77.0275
76.5114
76.0442
75.6238
75.2822
74.9977
74.7454
74.5261
74.3401
74.1861
74.0621
73.9656
73.8938
73.8438
73.8122
73.7955
73.7917
73.7941
73.8052
73.8094
29.1447
20.9404
11.1289
1.49222
-6.93559
-13.334
-17.4417
-19.5482
-19.6757
-18.6525
-17.3796
-15.94
-14.4021
-12.8439
-11.5
-10.471
-9.72829
-9.25212
-9.02657
-9.03743
-9.22885
-9.71209
-10.5635
-11.7309
-13.1837
-15.35
-18.1347
-21.019
-23.9964
-27.0473
-30.1592
-33.3049
-36.442
-39.5176
86.4339
87.8228
89.2463
90.2125
90.4749
90.0574
89.0477
87.318
84.7619
81.3673
77.1498
72.1133
66.2132
59.349
51.15
42.6052
30.3245
85.188
83.9543
82.767
81.6496
80.6079
79.6486
78.8594
78.2179
77.6004
77.0275
76.5034
76.0261
75.6372
75.311
75.0171
74.7575
74.5331
74.3432
74.1863
74.0603
73.9627
73.8903
73.8402
73.809
73.793
73.79
73.7932
73.8052
73.8099
23.6099
14.5033
3.82194
-6.08015
-14.0685
-19.4763
-22.4512
-23.0308
-22.1873
-21.0034
-19.5948
-18.0395
-16.4032
-14.765
-13.3662
-12.3098
-11.562
-11.0993
-10.9037
-10.9595
-11.2085
-11.7676
-12.7168
-13.9992
-16.0325
-18.7046
-21.4845
-24.3634
-27.3209
-30.3355
-33.3961
-36.4742
-39.5228
-42.4901
86.3191
87.7842
89.3662
90.604
91.2152
91.1715
90.5459
89.2316
87.0945
84.1066
80.2925
75.6779
70.2572
63.9584
56.6522
47.8585
38.5405
25.0646
85.0363
83.7884
82.601
81.4847
80.4481
79.5951
78.904
78.2309
77.6004
77.0181
76.4814
76.0433
75.6741
75.3367
75.0338
74.7678
74.5385
74.3448
74.1852
74.0574
73.9587
73.8861
73.8361
73.8054
73.7903
73.7883
73.7923
73.8053
73.8105
17.5302
7.27224
-4.27469
-14.1276
-21.3099
-25.4004
-26.5428
-25.936
-24.8858
-23.5286
-21.9716
-20.291
-18.5491
-16.8255
-15.3682
-14.2825
-13.5292
-13.081
-12.9173
-13.0213
-13.3317
-13.9715
-15.0229
-16.8821
-19.4143
-22.0713
-24.8397
-27.6968
-30.6163
-33.5768
-36.5654
-39.5547
-42.494
-45.3322
86.1604
87.6796
89.3816
90.8463
91.7682
92.0828
91.8566
90.9759
89.2743
86.7068
83.297
79.0906
74.1105
68.3329
61.6522
53.9093
44.4971
34.3043
19.398
84.8557
83.6039
82.4148
81.302
80.3859
79.6474
78.9191
78.2309
77.5893
76.9915
76.503
76.0899
75.7073
75.359
75.0484
74.7762
74.5419
74.3446
74.1825
74.0532
73.9537
73.8809
73.8314
73.8016
73.7875
73.7865
73.7914
73.8053
73.8112
10.7172
-1.06669
-13.1997
-22.6116
-28.4191
-30.2664
-29.9565
-29.0508
-27.7732
-26.2287
-24.5118
-22.6969
-20.843
-19.0291
-17.51
-16.3935
-15.6345
-15.2017
-15.072
-15.2271
-15.6028
-16.327
-17.9489
-20.2967
-22.7997
-25.4368
-28.18
-30.9976
-33.8619
-36.7489
-39.6452
-42.5252
-45.3346
-48.0236
85.967
87.5211
89.3099
90.957
92.1519
92.7886
92.9392
92.5186
91.2832
89.1548
86.159
82.3533
77.7895
72.4768
66.3699
59.3238
51.1479
41.0875
29.9095
13.2605
84.6527
83.3957
82.2078
81.2304
80.447
79.6648
78.9191
78.2179
77.5574
77.0182
76.5609
76.1319
75.7363
75.3788
75.0605
74.7821
74.5432
74.3425
74.1781
74.0474
73.9475
73.875
73.8263
73.7976
73.7846
73.7846
73.7905
73.8054
73.8119
2.8227
-10.8552
-23.11
-31.0997
-34.3216
-34.3193
-33.6026
-32.3758
-30.8443
-29.1
-27.2138
-25.2571
-23.2856
-21.3776
-19.7941
-18.6456
-17.881
-17.4645
-17.3708
-17.5797
-18.0236
-19.3092
-21.405
-23.7049
-26.1759
-28.7817
-31.4826
-34.244
-37.0351
-39.8296
-42.6142
-45.3647
-48.0248
-50.5457
85.7466
87.32
89.1671
90.9541
92.384
93.3079
93.7893
93.8077
93.0848
91.4344
88.8696
85.4672
81.3018
76.4184
70.8065
64.3975
56.9999
48.398
37.6663
25.4161
6.57664
84.4222
83.1635
82.1261
81.3013
80.4669
79.6648
78.904
78.1799
77.59
77.089
76.6132
76.169
75.7624
75.3956
75.0698
74.7854
74.542
74.3381
74.1718
74.0401
73.9402
73.8685
73.8209
73.7933
73.7815
73.7827
73.7895
73.8055
73.8126
-6.72767
-23.2755
-33.1867
-38.4298
-39.1802
-38.6066
-37.4636
-35.8972
-34.089
-32.1332
-30.0718
-27.968
-25.8751
-23.8705
-22.2209
-21.0398
-20.2698
-19.8709
-19.815
-20.0795
-21.0801
-22.8193
-24.8426
-27.0945
-29.5244
-32.0826
-34.7253
-37.4137
-40.1133
-42.7969
-45.4512
-48.0532
-50.5454
-52.8814
85.4944
87.0851
88.9681
90.8552
92.4824
93.6594
94.4291
94.8309
94.6153
93.5075
91.4164
88.4289
84.6554
80.1713
75.0063
69.1286
62.4414
54.7092
45.705
34.2815
20.9361
-0.728551
84.1637
83.0711
82.2079
81.324
80.4669
79.6474
78.8592
78.2191
77.6754
77.153
76.6596
76.2025
75.7849
75.4089
75.0757
74.7856
74.538
74.3313
74.1633
74.0314
73.9321
73.8614
73.8151
73.7888
73.7783
73.7808
73.7886
73.8056
73.8134
-20.4172
-36.8691
-43.2011
-44.5746
-44.2778
-43.0769
-41.4918
-39.5863
-37.4923
-35.3139
-33.0752
-30.8218
-28.6059
-26.504
-24.7881
-23.5745
-22.7998
-22.4198
-22.4026
-23.2248
-24.6614
-26.296
-28.2503
-30.4477
-32.8218
-35.3176
-37.8861
-40.4842
-43.0745
-45.6297
-48.136
-50.5714
-52.8796