/*--------------------------------*- C++ -*----------------------------------*\
  =========                 |
  \\      /  F ield         | OpenFOAM: The Open Source CFD Toolbox
   \\    /   O peration     | Website:  https://openfoam.org
    \\  /    A nd           | Version:  8
     \\/     M anipulation  |
\*---------------------------------------------------------------------------*/
FoamFile
{
    version     2.0;
    format      ascii;
    class       volScalarField;
    location    "0.15";
    object      nut;
}
// * * * * * * * * * * * * * * * * * * * * * * * * * * * * * * * * * * * * * //

dimensions      [0 2 -1 0 0 0 0];

internalField   nonuniform List<scalar> 
15677
(
0.000168168
0.000652158
0.000148202
0.00151204
0.000443119
0.0001413
0.00267195
0.000878265
0.000381094
0.0001422
0.00391618
0.00152281
0.000687424
0.000354371
0.000145345
0.0050189
0.00236051
0.00114814
0.000586175
0.000340355
0.000151132
0.00583665
0.00332123
0.00178315
0.000948898
0.000529657
0.000332083
0.000156949
0.00633334
0.00430115
0.00257015
0.00146494
0.000821676
0.000492735
0.000327042
0.000162397
0.00656224
0.00518819
0.00345502
0.00213346
0.00125843
0.000737784
0.000467641
0.000324148
0.000167184
0.00665816
0.00589321
0.00435671
0.00292391
0.00184304
0.00111317
0.000677787
0.000450587
0.000322582
0.000171406
0.00670537
0.00633807
0.00518148
0.00378037
0.00255856
0.00163295
0.00100529
0.000634426
0.000438835
0.000322009
0.000174973
0.00671433
0.00655338
0.00584544
0.00462615
0.0033642
0.0022878
0.00147362
0.000924784
0.000602487
0.000430874
0.000321962
0.000178103
0.00670988
0.00666151
0.00629553
0.0053775
0.00419807
0.00304655
0.00207895
0.00134986
0.000862757
0.000578834
0.000425428
0.000322429
0.000180712
0.00670626
0.00669877
0.00652943
0.00596452
0.0049849
0.00385837
0.00279696
0.00191277
0.00125202
0.000814587
0.000561116
0.000421924
0.000323075
0.00018306
0.0067054
0.00670439
0.00664668
0.00635687
0.00565041
0.00465661
0.00358448
0.00259471
0.00177884
0.00117375
0.000776837
0.000547923
0.000419609
0.000323978
0.000185105
0.00670547
0.00670284
0.00668781
0.0065629
0.00614214
0.0053689
0.00438224
0.00335809
0.0024291
0.0016691
0.00111041
0.00074706
0.000537891
0.000418361
0.000324823
0.000186915
0.00670567
0.00670158
0.00669637
0.00665652
0.00644671
0.00593384
0.00512167
0.00414964
0.00316973
0.00229114
0.00157891
0.00105874
0.000723476
0.000530614
0.000417492
0.000325869
0.000188572
0.00670579
0.00670107
0.00669715
0.00668484
0.0066048
0.00632182
0.00573784
0.00490469
0.00395216
0.00301066
0.00217618
0.00150387
0.00101696
0.000705013
0.00052496
0.000417362
0.0003268
0.000189983
0.00670585
0.00670092
0.00669682
0.00669155
0.0066637
0.00654125
0.00618841
0.00555753
0.00471544
0.0037828
0.00287642
0.00207939
0.00144193
0.000982978
0.000690301
0.00052109
0.000417305
0.000327886
0.000191413
0.00670587
0.00670088
0.00669659
0.00669255
0.00668235
0.00663451
0.00646783
0.00605836
0.00539454
0.00454989
0.00363788
0.00276226
0.00199844
0.0013906
0.000955427
0.000678965
0.000518063
0.000417838
0.000328857
0.000192526
0.00670589
0.00670086
0.00669651
0.00669242
0.00668742
0.00666903
0.00659803
0.00638971
0.00593536
0.00524812
0.00440582
0.00351342
0.00266575
0.00193067
0.00134848
0.000933283
0.000670072
0.000516342
0.000418252
0.000329939
0.000193859
0.00670589
0.00670085
0.0066965
0.00669223
0.00668845
0.0066806
0.00665148
0.00655631
0.00631118
0.00582075
0.00511783
0.00428052
0.00340715
0.0025844
0.00187457
0.00131409
0.000915787
0.000663519
0.000514991
0.000419205
0.000330969
0.000194743
0.00670589
0.00670083
0.0066965
0.00669212
0.00668851
0.0066839
0.00667189
0.00663039
0.00651137
0.00623389
0.00571573
0.00500263
0.00417242
0.0033171
0.00251655
0.00182857
0.00128665
0.00090212
0.000658683
0.000514751
0.00041992
0.000332015
0.000196068
0.00670589
0.00670083
0.0066965
0.00669207
0.00668844
0.0066846
0.00667887
0.00666126
0.00660622
0.00646573
0.00616082
0.00562106
0.00490214
0.0040802
0.00324139
0.00246084
0.00179169
0.00126519
0.000892181
0.00065556
0.00051451
0.000421166
0.00033318
0.00019679
0.00670589
0.00670082
0.0066965
0.00669203
0.00668839
0.00668463
0.00668095
0.00667295
0.00664875
0.00658105
0.00641964
0.00609378
0.00553715
0.00481526
0.0040021
0.00317949
0.00241628
0.00176328
0.00124931
0.000884844
0.000653678
0.00051541
0.000422096
0.000334097
0.000198118
0.00670588
0.00670083
0.00669649
0.00669201
0.00668835
0.00668453
0.00668143
0.00667689
0.00666633
0.00663547
0.00655425
0.00637752
0.00603203
0.00546327
0.00474191
0.00393896
0.00312997
0.0023819
0.00174184
0.00123796
0.00088087
0.000653185
0.000515894
0.000423603
0.000335581
0.000198819
0.00670588
0.00670083
0.00669649
0.00669199
0.00668833
0.00668444
0.00668148
0.006678
0.00667296
0.00665925
0.00662103
0.00652982
0.00633609
0.00597793
0.00540224
0.00468237
0.00388708
0.00309143
0.00235666
0.00172866
0.00123238
0.00087881
0.000653687
0.000517855
0.000424639
0.00033637
5.33911e-05
0.00670587
0.00670084
0.00669648
0.00669198
0.00668832
0.00668438
0.00668143
0.00667819
0.0066752
0.00666881
0.00665186
0.00660789
0.00650476
0.00630325
0.00593301
0.00534947
0.00463288
0.00385048
0.0030675
0.00234343
0.00172233
0.00122974
0.000879672
0.000655522
0.00051902
0.000427125
0.000283994
6.3463e-05
0.00670586
0.00670085
0.00669646
0.00669198
0.0066883
0.00668433
0.00668138
0.00667812
0.00667583
0.00667229
0.00666506
0.00664527
0.0065945
0.00648631
0.00626973
0.00589279
0.00531344
0.00460492
0.00382857
0.00305303
0.00233619
0.00172069
0.0012314
0.0008822
0.000657566
0.00052155
0.000420819
0.000219937
7.097e-05
0.00670585
0.00670086
0.00669645
0.00669199
0.00668828
0.0066843
0.00668134
0.00667802
0.00667592
0.00667334
0.00667028
0.00666195
0.00663913
0.00658557
0.00646685
0.00624868
0.00587375
0.0052903
0.00458368
0.00381424
0.0030466
0.00233581
0.00172482
0.0012369
0.00088636
0.000660766
0.000522865
0.000401337
0.00017828
7.65405e-05
0.00670585
0.00670087
0.00669644
0.00669199
0.00668825
0.00668429
0.0066813
0.00667793
0.00667588
0.0066735
0.00667213
0.00666882
0.00665991
0.00663616
0.00657675
0.00645815
0.00624092
0.00585801
0.00527462
0.00457231
0.00381089
0.00305064
0.00234458
0.00173533
0.00124558
0.000892655
0.000664851
0.000521159
0.000368769
0.000152642
8.1095e-05
0.00670584
0.00670088
0.00669642
0.006692
0.00668823
0.00668428
0.00668126
0.00667786
0.00667582
0.00667342
0.00667263
0.00667131
0.00666895
0.00666034
0.00663442
0.00657785
0.00645745
0.00623548
0.00585043
0.00527108
0.00457662
0.00382228
0.00306625
0.00236163
0.00175082
0.00125804
0.000900644
0.000668701
0.000515721
0.000337646
0.000134174
8.46483e-05
0.00670584
0.00670088
0.00669641
0.00669201
0.00668821
0.00668428
0.00668121
0.00667781
0.00667574
0.00667328
0.0066727
0.00667198
0.00667257
0.00667113
0.0066629
0.00664201
0.00658198
0.006462
0.00623793
0.00585844
0.00528497
0.00459594
0.00384599
0.00309188
0.00238611
0.00177157
0.00127342
0.000910092
0.000672597
0.000505102
0.000307591
0.000121083
8.72078e-05
0.00670583
0.00670089
0.0066964
0.00669202
0.00668818
0.00668429
0.00668117
0.00667778
0.00667567
0.00667315
0.00667263
0.00667201
0.00667377
0.00667549
0.00667615
0.00667452
0.00664973
0.00659281
0.00647423
0.00625679
0.00588246
0.00531353
0.00462934
0.00388193
0.00312741
0.00241797
0.00179684
0.00129216
0.000920885
0.00067513
0.000490522
0.000281569
0.000112477
8.91332e-05
0.00670582
0.0067009
0.00669639
0.00669203
0.00668816
0.0066843
0.00668113
0.00667777
0.00667559
0.00667305
0.00667254
0.00667186
0.00667407
0.0066769
0.00668193
0.00669003
0.00668452
0.00666496
0.00661422
0.00650143
0.00629022
0.00592161
0.0053578
0.00467697
0.00393015
0.00317267
0.00245687
0.00182691
0.00131332
0.000932807
0.000676657
0.000474411
0.000261872
0.000106619
9.06525e-05
0.0067009
0.00670582
0.00669638
0.00669204
0.00668814
0.00668431
0.00668108
0.00667776
0.00667552
0.00667298
0.00667243
0.00667167
0.00667407
0.00667719
0.0066841
0.006697
0.00670145
0.00670268
0.0066929
0.00664801
0.00654303
0.00633903
0.00597752
0.00541789
0.0047391
0.00399065
0.00322759
0.00250275
0.00186116
0.00133762
0.000947441
0.000677558
0.000460355
0.000246764
0.000102481
9.19066e-05
0.00669638
0.00670093
0.00670583
0.00669205
0.00668812
0.00668432
0.00668104
0.00667777
0.00667544
0.00667294
0.00667231
0.0066715
0.00667396
0.00667709
0.0066848
0.00669971
0.00670924
0.00672149
0.0067351
0.00673152
0.00669613
0.00660043
0.00640585
0.00605086
0.005495
0.00481619
0.00406339
0.00329192
0.0025553
0.00189977
0.00136697
0.000964958
0.000678448
0.000448379
0.000235107
9.95233e-05
9.29854e-05
0.00669206
0.00669639
0.00670097
0.00670583
0.00668811
0.00668433
0.00668101
0.00667777
0.00667537
0.00667291
0.0066722
0.00667136
0.00667384
0.00667687
0.00668495
0.00670062
0.00671248
0.00673049
0.00675691
0.00677729
0.00678481
0.00676031
0.00667635
0.00649147
0.00614339
0.0055897
0.00490794
0.00414828
0.00336555
0.00261431
0.00194749
0.00140239
0.000983989
0.000679706
0.000438664
0.000225893
9.73287e-05
9.39404e-05
0.00668809
0.0066921
0.00669643
0.00670101
0.00670583
0.00668434
0.00668097
0.00667779
0.00667529
0.00667291
0.00667207
0.00667126
0.0066737
0.00667662
0.00668491
0.00670085
0.00671372
0.0067345
0.00676791
0.00680167
0.00683461
0.00685445
0.00684355
0.00677145
0.00659784
0.00625522
0.00570262
0.0050154
0.00424519
0.00344795
0.00268682
0.00200658
0.00144036
0.00100394
0.000682549
0.000430759
0.000218596
9.57217e-05
9.48086e-05
0.00668435
0.00668812
0.00669218
0.00669647
0.00670105
0.00670584
0.00668094
0.0066778
0.00667523
0.00667291
0.00667195
0.0066712
0.00667356
0.0066764
0.00668481
0.00670082
0.00671416
0.00673625
0.00677322
0.00681455
0.00686211
0.00690818
0.00694295
0.00694602
0.00688818
0.0067245
0.00638729
0.0058339
0.00513787
0.00435366
0.00354929
0.00277602
0.00207078
0.00148095
0.00102578
0.00068629
0.000424604
0.000212627
9.44778e-05
9.56058e-05
0.00668092
0.00668441
0.00668818
0.00669226
0.00669651
0.00670109
0.00670584
0.00667781
0.00667516
0.00667292
0.00667182
0.00667117
0.0066734
0.00667621
0.00668471
0.0067007
0.0067143
0.00673709
0.00677591
0.00682147
0.00687808
0.00694025
0.00700363
0.00705339
0.00707113
0.00702501
0.00687246
0.00653897
0.00598199
0.00527642
0.00448728
0.00367333
0.00287326
0.00213985
0.00152342
0.00104804
0.000691275
0.000419814
0.000207681
9.35557e-05
9.63505e-05
0.00667782
0.00668094
0.00668452
0.00668825
0.00669234
0.00669655
0.00670113
0.00670585
0.00667511
0.00667294
0.0066717
0.00667117
0.00667323
0.00667607
0.00668461
0.00670055
0.00671431
0.00673754
0.00677748
0.00682541
0.00688746
0.00695975
0.00704111
0.0071217
0.00719016
0.00722207
0.00718668
0.00703945
0.00670871
0.00614693
0.00544497
0.00465282
0.00380977
0.00297753
0.00221305
0.00156846
0.00107037
0.000697613
0.000416244
0.00020355
9.28142e-05
9.70441e-05
0.00667506
0.00667789
0.00668101
0.00668463
0.00668832
0.00669242
0.0066966
0.00670116
0.00670586
0.00667296
0.00667159
0.0066712
0.00667304
0.00667598
0.00668451
0.00670041
0.00671428
0.00673782
0.00677851
0.00682804
0.00689351
0.00697226
0.00706586
0.00716601
0.00726768
0.0073531
0.0074013
0.00737545
0.00722992
0.00689516
0.00634553
0.00564994
0.00483225
0.00395593
0.00308811
0.00228986
0.00161544
0.00109356
0.000704841
0.000413765
0.000200059
9.22655e-05
9.76995e-05
0.00667298
0.00667506
0.00667803
0.00668108
0.00668474
0.00668839
0.0066925
0.00669665
0.0067012
0.00670587
0.00667149
0.00667123
0.00667285
0.00667596
0.0066844
0.00670027
0.00671424
0.00673802
0.00677927
0.00683006
0.00689797
0.00698112
0.00708343
0.00719749
0.00732134
0.00744216
0.00754691
0.00760804
0.00759134
0.00744614
0.00712221
0.00658396
0.0058689
0.00502162
0.00410985
0.00320388
0.00236971
0.00166396
0.00111738
0.00071281
0.000412219
0.000197113
9.1808e-05
9.83115e-05
0.00667139
0.00667305
0.0066751
0.00667816
0.00668117
0.00668486
0.00668847
0.00669258
0.0066967
0.00670124
0.00670588
0.00667128
0.00667265
0.006676
0.00668427
0.00670014
0.0067142
0.00673818
0.00677988
0.00683174
0.00690156
0.00698817
0.00709701
0.00722154
0.00736253
0.00750776
0.0076511
0.00777137
0.00784502
0.00783355
0.00771369
0.00740567
0.00683698
0.00609665
0.00521872
0.00426937
0.00332358
0.00245181
0.00171371
0.00114148
0.00072094
0.000411416
0.000194588
9.14761e-05
9.88925e-05
0.00667132
0.00667131
0.00667318
0.00667514
0.00667829
0.00668126
0.00668497
0.00668855
0.00669266
0.00669676
0.00670128
0.00670589
0.00667245
0.00667609
0.00668409
0.00670002
0.00671416
0.00673833
0.00678042
0.00683322
0.00690462
0.00699423
0.00710838
0.00724115
0.00739653
0.00756158
0.00773277
0.00789422
0.00803049
0.00811245
0.00813274
0.00804279
0.00771753
0.0071117
0.00633077
0.00541956
0.00443206
0.00344583
0.00253557
0.00176423
0.00116616
0.000729207
0.000411133
0.000192433
9.11887e-05
9.94336e-05
0.00667226
0.00667138
0.00667122
0.00667331
0.0066752
0.00667843
0.00668135
0.00668508
0.00668865
0.00669274
0.00669682
0.00670132
0.0067059
0.00667621
0.00668386
0.00669993
0.00671414
0.00673848
0.00678091
0.00683454
0.00690731
0.00699965
0.00711834
0.00725822
0.00742593
0.0076084
0.00780394
0.00799622
0.00817749
0.00832483
0.008445
0.00850385
0.00840207
0.00804975
0.00740429
0.00657431
0.00562206
0.00459641
0.0035696
0.00262022
0.00181521
0.00119118
0.000737629
0.000411317
0.000190562
9.09884e-05
9.99484e-05
0.00667637
0.00667194
0.00667144
0.00667114
0.00667344
0.00667528
0.00667856
0.00668146
0.00668519
0.00668874
0.00669282
0.00669688
0.00670135
0.00670591
0.00668357
0.00669989
0.00671415
0.00673863
0.00678137
0.00683575
0.00690973
0.00700456
0.00712724
0.00727369
0.00745239
0.00765001
0.00786911
0.0080901
0.00830643
0.00850157
0.00869392
0.0088613
0.00891226
0.00878828
0.00839959
0.00770899
0.00682779
0.00582556
0.00476069
0.00369335
0.00270511
0.00186631
0.00121636
0.000746108
0.000411873
0.000188958
9.0808e-05
0.000100426
0.00668323
0.0066764
0.00667145
0.00667151
0.00667109
0.00667357
0.00667537
0.00667868
0.00668159
0.0066853
0.00668885
0.0066929
0.00669695
0.00670139
0.00670593
0.00669991
0.00671419
0.0067388
0.0067818
0.00683685
0.00691191
0.00700905
0.00713528
0.00728794
0.00747661
0.00768808
0.00792945
0.00817973
0.00843041
0.00866412
0.00891245
0.00916168
0.00932463
0.00935568
0.00919869
0.00876434
0.00802146
0.00708778
0.00602957
0.00492265
0.00381606
0.00278955
0.00191722
0.00124149
0.000754664
0.000412526
0.000187557
9.06913e-05
0.000100881
0.00670003
0.00668215
0.00667635
0.00667096
0.00667158
0.00667106
0.00667368
0.00667548
0.00667881
0.00668172
0.00668541
0.00668896
0.00669298
0.00669701
0.00670142
0.00670594
0.00671426
0.00673897
0.0067822
0.00683784
0.00691389
0.00701315
0.00714259
0.00730115
0.00749887
0.00772357
0.00798642
0.00826434
0.00855209
0.00882719
0.0091246
0.00944109
0.00968975
0.00983494
0.00983335
0.00963168
0.00914169
0.00833964
0.00735118
0.00623656
0.00508218
0.00393697
0.00287305
0.00196764
0.00126647
0.000763168
0.000413344
0.000186373
9.05811e-05
0.0001013
0.00671434
0.00669965
0.00668016
0.00667634
0.00667052
0.00667162
0.00667107
0.00667378
0.00667561
0.00667892
0.00668186
0.00668552
0.00668907
0.00669306
0.00669708
0.00670146
0.00670595
0.00673914
0.00678254
0.00683873
0.0069157
0.00701688
0.00714926
0.00731336
0.00751933
0.00775694
0.0080404
0.00834438
0.00866956
0.0089944
0.00934756
0.00972624
0.0100486
0.0102841
0.0103972
0.0103477
0.0100873
0.00953023
0.00866191
0.00761438
0.00644418
0.00523912
0.00405565
0.00295514
0.00201733
0.00129112
0.000771718
0.00041427
0.000185316
9.05188e-05
0.0001017
0.00673932
0.00671336
0.00669884
0.00667816
0.00667628
0.00667016
0.00667163
0.00667114
0.00667386
0.00667577
0.00667903
0.00668201
0.00668562
0.00668918
0.00669313
0.00669714
0.00670149
0.00670596
0.00678282
0.00683953
0.00691734
0.00702027
0.00715536
0.00732462
0.00753815
0.00778837
0.00809121
0.00842032
0.00878434
0.0091624
0.00958175
0.0100365
0.0104362
0.0107576
0.0109642
0.0110237
0.0109043
0.0105668
0.00992929
0.00898692
0.00787634
0.00665064
0.0053926
0.0041712
0.00303531
0.00206603
0.00131536
0.00078015
0.000415237
0.000184424
9.04554e-05
0.000102067
0.00678306
0.0067376
0.00671117
0.00669801
0.00667653
0.00667607
0.00666993
0.00667157
0.00667125
0.00667392
0.00667594
0.00667914
0.00668217
0.00668573
0.00668929
0.00669321
0.0066972
0.00670152
0.00670598
0.00684024
0.00691884
0.00702336
0.00716093
0.00733496
0.00755546
0.00781787
0.00813869
0.00849273
0.00889733
0.00932942
0.0098153
0.0103747
0.0108915
0.0113162
0.0116153
0.0117582
0.011728
0.0115085
0.0110716
0.0103383
0.0093136
0.00813614
0.00685479
0.0055433
0.00428295
0.00311322
0.00211355
0.00133907
0.000788536
0.000416272
0.000183637
9.0429e-05
0.000102419
0.00684091
0.00678009
0.0067338
0.00670891
0.00669678
0.00667542
0.00667567
0.00666984
0.00667146
0.00667141
0.00667397
0.00667613
0.00667926
0.00668232
0.00668584
0.0066894
0.00669328
0.00669726
0.00670155
0.00670599
0.00692019
0.00702616
0.00716603
0.00734443
0.00757139
0.0078454
0.00818285
0.00856207
0.00900776
0.0094923
0.010046
0.0107413
0.0114472
0.0120375
0.0124439
0.0126594
0.0126806
0.0125142
0.0121604
0.0116007
0.0107562
0.00964087
0.00839299
0.0070551
0.00569177
0.00439098
0.00318866
0.00215973
0.00136219
0.000796679
0.000417303
0.000182913
9.03969e-05
0.0001027
0.00692148
0.00683702
0.00677363
0.00673
0.00670668
0.00669502
0.00667479
0.00667505
0.00666989
0.0066713
0.00667161
0.00667402
0.00667633
0.00667937
0.00668247
0.00668595
0.0066895
0.00669335
0.00669731
0.00670159
0.006706
0.00702869
0.00717066
0.00735306
0.00758602
0.00787093
0.00822385
0.00862843
0.00911395
0.00964883
0.0102799
0.0111545
0.0121127
0.0129611
0.0135345
0.0138215
0.0138725
0.0137131
0.0133691
0.0128521
0.0121496
0.0111808
0.0099675
0.00864607
0.00725042
0.00583708
0.00449526
0.00326147
0.00220443
0.00138464
0.000804676
0.000418366
0.0001823
9.03916e-05
0.000102936
0.00703103
0.00691605
0.00682811
0.00676704
0.00672641
0.00670444
0.00669288
0.00667461
0.00667425
0.00667006
0.00667112
0.00667183
0.00667408
0.00667652
0.00667949
0.00668262
0.00668605
0.00668959
0.00669343
0.00669736
0.00670162
0.00670601
0.00717487
0.0073609
0.00759944
0.00789448
0.00826191
0.00869153
0.00921442
0.00979949
0.0105258
0.0116249
0.012876
0.0140181
0.0148454
0.0152662
0.0153457
0.0151791
0.0148069
0.0142639
0.0135681
0.0127109
0.0116086
0.0102919
0.00889456
0.00744042
0.00597857
0.00459576
0.00333155
0.00224757
0.00140635
0.000812478
0.000419449
0.000181815
9.03838e-05
0.000103191
0.00717875
0.00702368
0.00690316
0.00681932
0.00676068
0.00672304
0.00670227
0.00669018
0.00667476
0.00667333
0.00667029
0.00667093
0.00667205
0.00667416
0.0066767
0.00667961
0.00668275
0.00668616
0.00668968
0.0066935
0.00669742
0.00670165
0.00670602
0.007368
0.00761169
0.0079161
0.00829717
0.00875096
0.00930852
0.00994653
0.0107893
0.0121425
0.0136884
0.0151024
0.0161766
0.0168233
0.0170225
0.0168719
0.0164842
0.0159023
0.0151635
0.0142892
0.0132748
0.0120355
0.0106124
0.0091376
0.00762476
0.00611576
0.00469241
0.00339883
0.00228908
0.0014273
0.000820009
0.000420367
0.000181433
9.03869e-05
0.000103468
0.00737445
0.00716883
0.00700535
0.00689029
0.00681083
0.00675465
0.00671987
0.00670074
0.00668714
0.00667511
0.00667239
0.00667054
0.00667079
0.00667226
0.00667425
0.00667687
0.00667974
0.00668288
0.00668627
0.00668977
0.00669357
0.00669746
0.00670168
0.00670602
0.00762284
0.00793585
0.00832975
0.00880638
0.00939644
0.0100923
0.0110688
0.0126822
0.0144877
0.0161129
0.0173737
0.0182207
0.0186414
0.0186332
0.0182852
0.0177103
0.0169482
0.0160355
0.0149963
0.0138312
0.0124569
0.0109268
0.00937436
0.00780313
0.00624831
0.00478517
0.00346328
0.0023289
0.00144746
0.000826319
0.00042118
0.000181024
9.03887e-05
0.000103769
0.00763295
0.00736156
0.00714302
0.00698699
0.0068778
0.00680259
0.00674892
0.00671683
0.00669959
0.00668401
0.0066755
0.00667153
0.00667074
0.0066707
0.00667243
0.00667436
0.00667701
0.00667988
0.00668299
0.00668637
0.00668986
0.00669364
0.00669751
0.00670169
0.00670602
0.00795384
0.00835972
0.00885764
0.00947886
0.0102378
0.011357
0.013215
0.0152235
0.0169853
0.0183574
0.0193369
0.0199435
0.0201745
0.0200132
0.0195236
0.0188109
0.01791
0.0168555
0.0156737
0.0143711
0.0128683
0.0112334
0.00960406
0.00797524
0.00637594
0.00487403
0.00352489
0.00236703
0.00146424
0.000831752
0.000422092
0.000180619
9.0405e-05
0.000104098
0.00796998
0.00761622
0.00732589
0.00711719
0.00696909
0.00686565
0.00679456
0.00674336
0.00671399
0.00669858
0.00668102
0.00667577
0.00667084
0.00667086
0.00667069
0.00667256
0.0066745
0.00667715
0.00668001
0.0066831
0.00668648
0.00668994
0.0066937
0.00669754
0.00670169
0.00670602
0.00838718
0.00890477
0.00955657
0.0103827
0.0116441
0.0137174
0.0158672
0.0176963
0.0191107
0.020153
0.0208753
0.0212967
0.0213985
0.0211436
0.0205682
0.0197673
0.0187701
0.0176085
0.0163101
0.014887
0.0132657
0.0115304
0.00982597
0.00814082
0.00649849
0.00495896
0.00358366
0.00239862
0.00147863
0.000837787
0.000423143
0.000180181
9.04182e-05
0.000104454
0.00841179
0.00794885
0.00756729
0.00729014
0.00709197
0.00695166
0.00685381
0.00678664
0.00673807
0.00671131
0.0066976
0.00667841
0.00667577
0.00667039
0.00667089
0.00667075
0.00667267
0.00667465
0.00667727
0.00668015
0.00668321
0.00668658
0.00669001
0.00669374
0.00669753
0.00670169
0.00670602
0.00894803
0.00963015
0.0105252
0.0119206
0.0141748
0.0164099
0.0182509
0.0196539
0.0207011
0.0214731
0.0220108
0.022312
0.0223399
0.0220409
0.0214261
0.0205793
0.0195239
0.0182878
0.0168987
0.0153738
0.013646
0.0118162
0.0100394
0.0082997
0.00661588
0.00504011
0.00363209
0.00242561
0.00149455
0.000844512
0.000424325
0.000179754
9.04508e-05
0.000104845
0.00898661
0.00838491
0.00788265
0.00751827
0.00725516
0.00706737
0.00693464
0.00684222
0.0067788
0.0067332
0.00670867
0.00669649
0.00667662
0.00667542
0.00667018
0.00667083
0.00667087
0.00667276
0.00667481
0.00667739
0.00668029
0.00668331
0.00668668
0.00669005
0.00669374
0.00669753
0.00670169
0.00670602
0.00969998
0.0106631
0.0121794
0.0145807
0.0168554
0.0186688
0.0200229
0.0210327
0.0218017
0.0223898
0.022812
0.0230463
0.0230424
0.0227359
0.0221166
0.0212572
0.0201749
0.0188924
0.0174366
0.0158284
0.014007
0.0120896
0.010244
0.00845171
0.00672795
0.0051076
0.00367332
0.00245536
0.00151219
0.000852015
0.000425694
0.00017929
9.04802e-05
0.000105268
0.00976381
0.00895305
0.00829537
0.00781624
0.00747027
0.007221
0.00704336
0.00691804
0.00683088
0.00677099
0.0067286
0.00670597
0.00669465
0.00667568
0.0066748
0.00667014
0.00667072
0.00667101
0.00667283
0.00667497
0.0066775
0.00668043
0.00668341
0.00668674
0.00669005
0.00669374
0.00669753
0.00670169
0.00670602
0.0107947
0.01242
0.0149349
0.0172142
0.0189741
0.0202557
0.0211998
0.0219277
0.022515
0.0229921
0.0233515
0.023557
0.0235508
0.0232621
0.0226633
0.0218162
0.0207311
0.0194255
0.0179238
0.0162492
0.0143472
0.0123497
0.0104392
0.00859677
0.0068205
0.00516536
0.00371863
0.0024882
0.00153179
0.000860414
0.000427237
0.00017885
9.05368e-05
0.000105732
0.0109131
0.00972138
0.00883096
0.00820582
0.0077511
0.00742336
0.00718764
0.00701994
0.00690185
0.00681982
0.00676333
0.00672416
0.00670331
0.00669219
0.00667538
0.00667401
0.00667023
0.00667059
0.00667118
0.00667289
0.00667514
0.0066776
0.00668056
0.00668346
0.00668674
0.00669005
0.00669374
0.00669753
0.00670169
0.00670602
0.0126427
0.0152382
0.0174994
0.0191905
0.0203862
0.0212475
0.0219088
0.022458
0.0229388
0.0233576
0.0236908
0.0238935
0.0239049
0.0236508
0.0230896
0.0222723
0.0212027
0.0198922
0.0183619
0.0166364
0.0146658
0.0125961
0.010625
0.00871659
0.00689937
0.00522915
0.00376854
0.00252452
0.0015536
0.000869825
0.000429035
0.000178353
9.05899e-05
0.000106232
0.0108655
0.0128383
0.0095419
0.008711
0.00811777
0.00768737
0.0073775
0.00715507
0.00699712
0.00688611
0.00680913
0.00675581
0.00672007
0.00670087
0.00668913
0.00667545
0.00667317
0.00667037
0.00667046
0.00667136
0.00667296
0.0066753
0.0066777
0.00668064
0.00668345
0.00668674
0.00669005
0.00669374
0.00669754
0.00670168
0.00670601
0.015494
0.0177238
0.0193384
0.0204422
0.0212116
0.0217905
0.022276
0.0227231
0.0231504
0.0235468
0.023878
0.0240952
0.0241374
0.0239293
0.0234168
0.0226415
0.0216004
0.0202989
0.0187541
0.0169906
0.0149628
0.0128284
0.0107778
0.00881869
0.00698611
0.00529971
0.0038236
0.00256475
0.00157792
0.000880415
0.000431067
0.00017789
9.06803e-05
0.000106783
0.0105926
0.0127864
0.0157051
0.00937002
0.00859387
0.00803141
0.00762504
0.0073327
0.00712334
0.00697495
0.00687088
0.00679897
0.00674864
0.00671645
0.00669938
0.00668598
0.00667567
0.00667237
0.00667052
0.00667035
0.00667153
0.00667302
0.00667546
0.00667774
0.00668065
0.00668345
0.00668674
0.00669005
0.00669374
0.00669751
0.00670165
0.006706
0.0178991
0.0194347
0.0204454
0.0211196
0.0216075
0.0220127
0.022399
0.0227968
0.0232065
0.0236041
0.0239496
0.0241931
0.0242751
0.0241201
0.0236636
0.022938
0.0219344
0.0206521
0.019104
0.0173136
0.0152386
0.0130178
0.0109076
0.00893093
0.00708163
0.00537785
0.00388448
0.00260939
0.00160511
0.000892344
0.000433454
0.000177362
9.07679e-05
0.000107372
0.0103221
0.0124107
0.0156271
0.0180334
0.00920763
0.00847884
0.00794685
0.00756412
0.00728901
0.00709248
0.00695346
0.00685624
0.0067894
0.00674211
0.0067132
0.00669822
0.00668303
0.00667587
0.00667168
0.00667065
0.00667026
0.00667169
0.0066731
0.00667556
0.00667773
0.00668065
0.00668345
0.00668674
0.00669005
0.0066937
0.00669746
0.00670162
0.00670599
0.0194927
0.0204122
0.0209914
0.0213847
0.0216999
0.0220073
0.0223472
0.0227317
0.0231474
0.0235621
0.0239328
0.0242109
0.0243392
0.0242419
0.0238454
0.0231743
0.022214
0.0209582
0.0194154
0.0176073
0.0154599
0.0131778
0.0110498
0.0090544
0.00718699
0.00546451
0.00395194
0.00265906
0.00163557
0.000905847
0.000436167
0.000176889
9.09073e-05
0.000108022
0.0100681
0.0119976
0.0152768
0.0179199
0.019516
0.00905208
0.00836566
0.0078642
0.00750465
0.0072465
0.00706256
0.00693274
0.0068423
0.00678049
0.00673613
0.00671036
0.00669718
0.00668045
0.00667594
0.00667113
0.00667075
0.00667021
0.00667185
0.00667311
0.00667558
0.00667772
0.00668065
0.00668345
0.00668674
0.00669001
0.00669363
0.00669741
0.00670158
0.00670597
0.0203548
0.0208417
0.0211403
0.0213608
0.0215776
0.0218392
0.0221687
0.0225641
0.0230017
0.023444
0.0238479
0.0241671
0.0243465
0.0243097
0.0239754
0.0233611
0.0224476
0.0212233
0.0196922
0.0178382
0.015645
0.0133517
0.0112056
0.00919034
0.00730333
0.00556075
0.00402686
0.00271442
0.0016698
0.00092115
0.000439378
0.000176345
9.10467e-05
0.000108711
0.00983138
0.0115849
0.0148362
0.0176802
0.0193503
0.0202728
0.00890117
0.00825451
0.00778359
0.00744675
0.00720528
0.00703366
0.00691295
0.00682936
0.00677224
0.0067308
0.00670779
0.00669617
0.00667842
0.00667583
0.00667072
0.00667081
0.0066702
0.00667195
0.00667308
0.00667559
0.00667772
0.00668065
0.00668346
0.00668668
0.00668993
0.00669357
0.00669736
0.00670155
0.00670596
0.0206808
0.020887
0.0210117
0.0211314
0.021301
0.0215528
0.0218968
0.0223195
0.0227895
0.023267
0.0237104
0.0240762
0.0243103
0.0243358
0.0240642
0.0235074
0.0226424
0.0214528
0.0199049
0.0180289
0.015844
0.0135406
0.0113762
0.00934007
0.00743196
0.00566779
0.00411028
0.00277631
0.00170837
0.000938595
0.000443058
0.000175892
9.12585e-05
0.000109473
0.00960917
0.0111892
0.0143399
0.0173629
0.019186
0.0200543
0.0205042
0.00875392
0.0081457
0.00770517
0.00739053
0.00716544
0.00700603
0.00689458
0.00681751
0.0067646
0.00672616
0.00670537
0.00669497
0.00667714
0.00667552
0.00667045
0.00667085
0.00667017
0.00667197
0.00667306
0.00667559
0.00667773
0.00668064
0.00668341
0.00668658
0.00668985
0.0066935
0.00669731
0.00670152
0.00670595
0.0206339
0.0206643
0.0206843
0.0207533
0.0209111
0.0211788
0.0215546
0.0220155
0.022525
0.0230435
0.0235323
0.0239495
0.0242414
0.0243298
0.0241204
0.0236207
0.0228045
0.0216241
0.0200786
0.018231
0.0160573
0.0137455
0.0115629
0.00950503
0.00757435
0.00578703
0.00420338
0.00284567
0.00175199
0.000958514
0.000447448
0.000175364
9.14781e-05
0.000110271
0.00939883
0.0108166
0.0138121
0.0169901
0.0189567
0.0199241
0.0202336
0.0203708
0.00861012
0.00803957
0.00762914
0.00733616
0.00712736
0.00698038
0.00687783
0.00680665
0.0067575
0.00672207
0.00670304
0.00669312
0.0066764
0.00667509
0.00667028
0.00667086
0.00667013
0.00667199
0.00667306
0.00667558
0.00667774
0.00668056
0.00668331
0.00668648
0.00668977
0.00669342
0.00669725
0.00670149
0.00670594
0.0203265
0.0202471
0.0202114
0.0202643
0.0204366
0.0207387
0.0211578
0.021664
0.0222184
0.0227833
0.023323
0.0237963
0.0241483
0.0242996
0.0241512
0.0237072
0.0229201
0.0217621
0.0202597
0.0184443
0.0162853
0.0139673
0.0117671
0.00968677
0.00773212
0.00592003
0.00430758
0.00292369
0.00180144
0.000981407
0.000452535
0.000174982
9.17981e-05
0.000111304
0.00919844
0.0104699
0.0132651
0.0165703
0.0186876
0.0197419
0.020109
0.0200482
0.0199832
0.00846998
0.00793648
0.00755569
0.00728416
0.00709203
0.00695704
0.00686256
0.00679672
0.00675088
0.00671843
0.00670098
0.00669083
0.00667602
0.00667461
0.00667023
0.00667084
0.00667012
0.00667199
0.00667308
0.00667556
0.0066777
0.00668043
0.00668321
0.00668637
0.00668968
0.00669335
0.0066972
0.00670146
0.00670593
0.019827
0.0196861
0.019628
0.0196914
0.0198982
0.0202468
0.020717
0.0212733
0.0218769
0.0224938
0.0230903
0.0236239
0.0240377
0.0242513
0.0241622
0.0237616
0.0230114
0.0219031
0.0204475
0.0186684
0.0165284
0.0142068
0.0119899
0.00988692
0.00790706
0.00606857
0.00442445
0.00301162
0.0018578
0.00100779
0.000458658
0.000174528
9.2214e-05
0.000112542
0.00900667
0.01015
0.0127067
0.0161044
0.0183895
0.0195343
0.0199409
0.0199116
0.0196088
0.0194136
0.00833367
0.00783686
0.0074855
0.00723592
0.00705991
0.00693579
0.00684864
0.00678771
0.00674473
0.0067153
0.00669946
0.00668842
0.00667584
0.00667424
0.00667027
0.00667083
0.00667012
0.00667197
0.00667311
0.00667546
0.0066776
0.00668029
0.0066831
0.00668626
0.00668959
0.00669328
0.00669714
0.00670142
0.00670591
0.0191847
0.0190135
0.0189596
0.0190554
0.0193087
0.0197128
0.0202392
0.0208486
0.0215059
0.0221815
0.0228409
0.0234383
0.0239151
0.02419
0.0241562
0.0238024
0.0231014
0.0220461
0.0206412
0.0189028
0.0167864
0.0144647
0.0122328
0.0101071
0.00810107
0.00623463
0.00455603
0.00311134
0.0019222
0.00103841
0.000465851
0.000174301
9.28398e-05
0.000113777