/*--------------------------------*- C++ -*----------------------------------*\
  =========                 |
  \\      /  F ield         | OpenFOAM: The Open Source CFD Toolbox
   \\    /   O peration     | Website:  https://openfoam.org
    \\  /    A nd           | Version:  8
     \\/     M anipulation  |
\*---------------------------------------------------------------------------*/
FoamFile
{
    version     2.0;
    format      ascii;
    class       volScalarField;
    location    "0.15";
    object      p;
}
// * * * * * * * * * * * * * * * * * * * * * * * * * * * * * * * * * * * * * //

dimensions      [0 2 -2 0 0 0 0];

internalField   nonuniform List<scalar> 
15677
(
73.9564
73.5999
73.1871
73.6644
73.1753
73.189
73.6394
73.2025
73.1984
73.0826
73.6141
73.2039
73.1986
73.0916
72.9911
73.5923
73.2061
73.1985
73.0908
72.9987
72.895
73.5688
73.2085
73.1981
73.0919
72.9986
72.9016
72.7805
73.5437
73.211
73.1973
73.0923
72.9996
72.9016
72.7863
72.6438
73.5175
73.2141
73.1959
73.0923
73.0001
72.9026
72.7864
72.6488
72.4776
73.4902
73.2162
73.1939
73.0922
73.0006
72.9031
72.7874
72.6491
72.4819
72.2743
73.4616
73.2176
73.1913
73.0917
73.0009
72.9038
72.7881
72.6501
72.4823
72.2779
72.0262
73.4321
73.2193
73.188
73.0915
73.0013
72.9044
72.7889
72.651
72.4835
72.2784
72.0291
71.725
73.4022
73.2204
73.1847
73.0916
73.0019
72.9053
72.79
72.6521
72.4846
72.2798
72.0298
71.7271
71.3623
73.3724
73.2204
73.1812
73.092
73.0029
72.9066
72.7914
72.6536
72.4861
72.2813
72.0314
71.728
71.3636
70.9297
73.3458
73.2192
73.1776
73.0929
73.0046
72.9085
72.7935
72.6558
72.4882
72.2833
72.0333
71.7299
71.3646
70.93
70.4191
73.3229
73.2171
73.1742
73.0942
73.0073
72.9116
72.7967
72.6589
72.4912
72.2862
72.036
71.7323
71.3669
70.9313
70.4184
69.823
73.303
73.215
73.1712
73.0962
73.0112
72.9162
72.8016
72.6636
72.4957
72.2903
72.0398
71.7358
71.37
70.934
70.42
69.8211
69.1345
73.2856
73.213
73.1691
73.0988
73.0166
72.9227
72.8086
72.6707
72.5023
72.2964
72.0453
71.7408
71.3745
70.9378
70.423
69.8229
69.1313
68.3481
73.2704
73.211
73.1675
73.1018
73.0233
72.9317
72.8186
72.6808
72.5121
72.3055
72.0535
71.7481
71.3809
70.9435
70.4278
69.8265
69.1335
68.3435
67.4592
73.2574
73.2092
73.1664
73.1052
73.0306
72.9427
72.8323
72.6951
72.5262
72.3188
72.0656
71.7588
71.3903
70.9516
70.4348
69.8322
69.1376
68.3459
67.4531
66.4652
73.2462
73.2075
73.1659
73.109
73.0386
72.9547
72.8489
72.7146
72.5459
72.3378
72.0832
71.7746
71.404
70.9634
70.4448
69.8407
69.1444
68.3505
67.4558
66.4573
65.3648
73.2372
73.206
73.1659
73.1133
73.0474
72.9679
72.867
72.7384
72.5729
72.3644
72.1084
71.7976
71.4243
70.9808
70.4595
69.853
69.1545
68.3584
67.461
66.4603
65.355
64.1587
73.2304
73.2045
73.1664
73.1179
73.0566
72.9821
72.8868
72.7642
72.6058
72.4009
72.1437
71.8303
71.4536
71.0063
70.481
69.8708
69.1691
68.3703
67.47
66.466
65.3584
64.147
62.8501
73.2251
73.2031
73.1672
73.1229
73.0664
72.9971
72.9081
72.7925
72.6416
72.4453
72.192
71.8761
71.4954
71.0431
70.5125
69.897
69.1904
68.3875
67.4837
66.4762
65.3645
64.1506
62.8363
61.4436
73.221
73.2019
73.1682
73.1279
73.0766
73.0129
72.9306
72.8229
72.6807
72.4937
72.2507
71.9388
71.5539
71.0956
70.5579
69.9351
69.2216
68.4125
67.5035
66.4916
65.3758
64.157
62.8401
61.4275
59.9513
73.2178
73.201
73.1693
73.1326
73.0866
73.0292
72.9542
72.8551
72.7229
72.5467
72.3149
72.0153
71.634
71.169
70.6227
69.9904
69.2672
68.4491
67.5322
66.514
65.3928
64.1692
62.8466
61.4313
59.9324
58.4036
73.2151
73.2002
73.1705
73.1369
73.0959
73.0453
72.9786
72.8888
72.7675
72.6037
72.3852
72.0988
71.7317
71.2696
70.7134
70.0691
69.3332
68.5026
67.5744
66.5465
65.4175
64.1877
62.8594
61.4374
59.9335
58.348
56.7399
73.213
73.1996
73.1716
73.1409
73.1042
73.06
73.0025
72.9236
72.8142
72.6642
72.4609
72.1904
71.8387
71.3926
70.8379
70.1794
69.4274
68.5802
67.6362
66.5942
65.4536
64.2145
62.8788
61.4504
59.9382
58.3507
56.6727
54.9454
73.2113
73.1991
73.1727
73.1445
73.1117
73.0734
73.0245
72.9578
72.8625
72.7275
72.5413
72.2892
71.9562
71.5274
70.9903
70.3311
69.5594
68.691
67.7259
66.6643
65.5067
64.2536
62.9071
61.4701
59.9497
58.3516
56.6753
54.9152
53.0934
73.2099
73.1987
73.1736
73.1477
73.1185
73.0853
73.0443
72.9891
72.9099
72.7931
72.6255
72.3942
72.0829
71.6756
71.1575
70.5169
69.7413
68.8467
67.8544
66.7665
65.585
64.3116
62.9486
61.499
59.9679
58.3601
56.6697
54.9074
53.0819
51.1896
73.2087
73.1983
73.1743
73.1508
73.1245
73.096
73.062
73.0173
72.9533
72.8574
72.7128
72.5043
72.2178
71.8359
71.3417
70.7213
69.9648
69.0619
68.0355
66.9134
65.6995
64.3975
63.0106
61.5418
59.9957
58.3756
56.6775
54.898
53.065
51.1841
49.043
73.2077
73.198
73.1749
73.1535
73.1298
73.1055
73.0779
73.0427
72.9926
72.9164
72.7984
72.6185
72.3595
72.0065
71.5412
70.947
70.2111
69.3268
68.2862
67.1207
65.8647
64.5238
63.103
61.6064
60.0379
58.4008
56.6913
54.9073
53.0565
51.1654
49.0408
46.6244
73.2069
73.1978
73.1756
73.156
73.1346
73.114
73.092
73.0653
73.0277
72.9697
72.8771
72.7306
72.5066
72.186
71.7541
71.1918
70.4837
69.6194
68.5958
67.4088
66.0987
64.7067
63.2399
61.704
60.1034
58.441
56.7148
54.9207
53.0662
51.1589
49.0229
46.6241
44.1783
73.2062
73.1976
73.1762
73.1582
73.1388
73.1215
73.1045
73.0854
73.0592
73.0175
72.9481
72.8338
72.6512
72.3728
71.9783
71.4535
70.7799
69.944
68.9387
67.7656
66.425
64.9672
63.4395
61.8499
60.2042
58.5057
56.7535
54.9439
53.0797
51.1672
49.0163
46.6074
44.1797
41.7471
73.2056
73.1975
73.1767
73.1601
73.1425
73.1281
73.1157
73.1033
73.0872
73.0602
73.012
72.9271
72.7844
72.5566
72.2119
71.7297
71.0973
70.2977
69.3202
68.1621
66.8309
65.3319
63.7253
62.0643
60.357
58.6079
56.8172
54.9818
53.1029
51.1807
49.0213
46.6004
44.1651
41.7487
39.3512
73.1973
73.205
73.1773
73.1618
73.1458
73.134
73.1255
73.1192
73.112
73.0983
73.0691
73.0109
72.905
72.7261
72.4424
72.0181
71.4331
70.6776
69.7369
68.6045
67.2834
65.7874
64.1274
62.3736
60.5841
58.7656
56.92
55.0449
53.14
51.2032
49.0334
46.6021
44.1579
41.7352
39.3527
37.0033
73.1777
73.1972
73.2042
73.1633
73.1488
73.1393
73.1343
73.1333
73.1341
73.1321
73.1199
73.0859
73.0134
72.8797
72.6552
72.3032
71.7845
71.0805
70.1858
69.0893
67.7899
66.2972
64.6322
62.8112
60.9142
59.0028
57.0811
55.1478
53.2017
51.2384
49.0533
46.6114
44.1567
41.727
39.3399
37.004
34.7155
73.1645
73.1784
73.1971
73.2034
73.1513
73.1439
73.142
73.1457
73.1536
73.1622
73.1651
73.1528
73.1105
73.0181
72.8484
72.567
72.1327
71.5033
70.6632
69.613
68.3468
66.8699
65.1993
63.3635
61.3845
59.3508
57.3262
55.3109
53.3035
51.2975
49.0846
46.6266
44.1626
41.7222
39.3301
36.9918
34.7153
32.4988
73.1536
73.1663
73.1793
73.1971
73.2028
73.148
73.1489
73.1568
73.171
73.1888
73.2053
73.2123
73.1972
73.1422
73.0226
72.8068
72.4556
71.9233
71.1657
70.1719
68.9505
67.5019
65.839
63.9869
61.9815
59.8502
57.6888
55.5614
53.4665
51.3961
49.1387
46.6516
44.1721
41.7234
39.3214
36.9801
34.7034
32.4975
30.3617
73.1515
73.1567
73.1684
73.1803
73.197
73.2021
73.1549
73.1666
73.1863
73.2124
73.2409
73.2651
73.2744
73.2529
73.179
73.0235
72.7498
72.3139
71.6664
70.762
69.5969
68.1894
66.5476
64.6929
62.6586
60.4879
58.2128
55.935
53.7193
51.5564
49.2313
46.6974
44.1893
41.7259
39.3169
36.9673
34.6895
32.486
30.3594
28.3103
73.1601
73.1563
73.16
73.1704
73.1812
73.1969
73.2015
73.1753
73.2
73.2333
73.2725
73.312
73.3429
73.3516
73.3188
73.2182
73.016
72.6705
72.1333
71.3521
70.2819
68.9283
67.3215
65.4782
63.4287
61.2148
58.8864
56.4788
54.0995
51.8078
49.3852
46.7796
44.2242
41.7333
39.3111
36.9564
34.6724
32.4696
30.348
28.307
26.3487
73.1826
73.167
73.1612
73.1634
73.1724
73.1821
73.1969
73.2009
73.212
73.2519
73.3005
73.3536
73.4038
73.4394
73.4435
73.3925
73.2557
72.994
72.5608
71.904
70.9694
69.7145
68.1566
66.3392
64.2889
62.0451
59.6577
57.1819
54.6573
52.19
49.6308
46.9217
44.2927
41.7548
39.307
36.9413
34.6547
32.448
30.3289
28.2955
26.3445
24.4797
73.2221
73.1923
73.1739
73.1663
73.1668
73.1744
73.183
73.1968
73.2004
73.2683
73.3254
73.3905
73.4578
73.5174
73.5545
73.5482
73.4706
73.2857
72.9495
72.4109
71.6147
70.5067
69.0487
67.2724
65.2361
62.9766
60.5428
57.991
55.3827
52.755
50.0095
47.1549
44.4183
41.8064
39.313
36.9245
34.6297
32.4233
30.303
28.2738
26.333
24.4746
22.7043
73.2821
73.2356
73.2016
73.1809
73.1712
73.1701
73.1763
73.1839
73.1968
73.1999
73.3474
73.4233
73.5058
73.5866
73.6532
73.6869
73.6627
73.5477
73.3007
72.8728
72.2093
71.2531
69.9517
68.2737
66.2674
64.0072
61.5402
58.9237
56.2215
53.4942
50.5745
47.5216
44.633
41.9115
39.3449
36.9132
34.599
32.3878
30.2709
28.2434
26.3086
24.4629
22.6984
21.0224
73.3657
73.3002
73.2477
73.2111
73.1878
73.176
73.1732
73.1782
73.1848
73.1967
73.1995
73.4524
73.5484
73.6481
73.7408
73.8103
73.8341
73.7822
73.6167
73.2913
72.7527
71.9432
70.806
69.292
67.3792
65.1344
62.6492
59.9801
57.1935
54.3538
51.3195
48.0752
44.9789
42.1022
39.426
36.9233
34.5693
32.3426
30.2247
28.204
26.2738
24.4358
22.6865
21.0157
19.4328
73.4764
73.3899
73.3159
73.2602
73.2203
73.1944
73.1806
73.1763
73.1799
73.1857
73.1967
73.1991
73.5862
73.7029
73.8187
73.92
73.9868
73.9918
73.9002
73.6688
73.2464
72.576
71.5987
70.2595
68.5152
66.3556
63.8679
61.1602
58.2997
55.355
52.1915
48.8126
45.5089
42.419
39.5876
36.9777
34.556
32.2936
30.1646
28.1469
26.2269
24.3968
22.6567
21.0035
19.4255
17.9337
73.6174
73.5083
73.4099
73.3322
73.2724
73.2292
73.2008
73.1851
73.1792
73.1816
73.1865
73.1967
73.1988
73.7513
73.8881
74.0176
74.1226
74.1787
74.1539
74.0079
73.6926
73.1525
72.3282
71.1609
69.5996
67.6099
65.1951
62.4637
59.5418
56.5005
53.2135
49.6829
46.2231
42.9141
39.8681
37.1056
34.5813
32.2559
30.0957
28.0716
26.1591
24.3426
22.6137
20.9713
19.4131
17.9259
16.5226
73.7912
73.6588
73.5335
73.4308
73.348
73.284
73.2377
73.2069
73.1893
73.182
73.1833
73.1873
73.1967
73.1985
73.9496
74.1046
74.2435
74.3452
74.3804
74.312
74.0945
73.675
72.9948
71.9934
70.6143
68.8129
66.5655
63.8908
60.921
57.7933
54.3894
50.7101
47.0744
43.5911
40.318
37.3435
34.6719
32.2503
30.033
27.9828
26.0686
24.2641
22.5523
20.9244
19.3784
17.9131
16.5142
15.1963
73.9999
73.8445
73.6903
73.5601
73.451
73.3629
73.295
73.2457
73.2127
73.1933
73.1846
73.1848
73.1881
73.1966
73.1982
74.1817
74.3515
74.4936
74.5825
74.5839
74.4555
74.1467
73.6007
72.7568
71.5551
69.9437
67.8866
65.3726
62.4393
59.2367
55.7244
51.8999
48.0865
44.4067
40.9447
37.7393
34.8619
32.3007
29.9952
27.8949
25.9601
24.1587
22.4633
20.856
19.3278
17.8761
16.5012
15.1874
13.9515
74.2444
74.0678
73.8837
73.7239
73.5857
73.47
73.377
73.3054
73.2532
73.2181
73.1971
73.1871
73.1863
73.1888
73.1966
73.198
74.4471
74.6262
74.7627
74.8268
74.7789
74.5713
74.1492
73.4527
72.4207
70.9963
69.1341
66.8086
64.0252
60.8349
57.224
53.2599
49.2673
45.384
41.7087
38.3036
35.1961
32.4387
30.0036
27.8241
25.847
24.0309
22.3434
20.7569
19.2526
17.822
16.462
15.1742
13.9422
12.7848
74.5245
74.3303
74.1164
73.9257
73.756
73.6096
73.4878
73.3901
73.315
73.2602
73.2231
73.2006
73.1894
73.1875
73.1894
73.1966
73.1978
74.7434
74.9241
75.0438
75.0683
74.9525
74.644
74.0845
73.2126
71.9685
70.3002
68.1711
65.5704
62.5139
58.8949
54.7987
50.6267
46.5324
42.6315
39.0007
35.687
32.7053
30.0866
27.7892
25.7429
23.8928
22.1968
20.6229
19.1437
17.7404
16.4046
15.1328
13.9287
12.775
11.6925
74.8381
74.6322
74.3901
74.1686
73.9659
73.7859
73.6319
73.5042
73.4022
73.3239
73.2667
73.2277
73.2038
73.1915
73.1886
73.19
73.1966
73.1976
75.0666
75.2384
75.3272
75.2941
75.0892
74.6558
73.9335
72.8608
71.3815
69.4505
67.0438
64.1589
60.6625
56.5265
52.1763
47.8638
43.7233
39.8495
36.3031
33.1131
30.2803
27.8152
25.6641
23.7557
22.0343
20.4583
18.9963
17.6222
16.3167
15.0724
13.8854
12.7613
11.682
10.6703
75.1811
74.9722
74.7055
74.4549
74.2185
74.003
73.8135
73.6523
73.5193
73.4133
73.332
73.2725
73.2319
73.2066
73.1932
73.1896
73.1904
73.1966
73.1975
75.41
75.5597
75.6003
75.4889
75.1711
74.5872
73.6755
72.3774
70.6414
68.4333
65.7354
62.4063
58.3695
53.9288
49.3906
44.9956
40.8591
37.0589
33.6354
30.5971
27.9324
25.6322
23.6331
21.8647
20.2719
18.8144
17.462
16.1898
14.9787
13.8221
12.7161
11.6681
10.6588
9.71893
75.5471
75.347
75.062
74.7856
74.5165
74.2643
74.037
73.8387
73.6707
73.5328
73.4231
73.3391
73.2777
73.2354
73.209
73.1947
73.1904
73.1908
73.1966
73.1974
75.7645
75.8758
75.8479
75.6346
75.1782
74.4165
73.2896
71.7422
69.7318
67.2292
64.0883
60.2005
55.8089
51.1245
46.4596
42.0392
37.9614
34.2808
31.0146
28.1518
25.6701
23.5427
21.6987
20.0707
18.6051
17.2635
16.0174
14.8433
13.7228
12.6502
11.6212
10.6449
9.70175
8.9252
75.9271
75.7512
75.4568
75.1607
74.8616
74.5729
74.3061
74.0678
73.8612
73.6872
73.5448
73.4318
73.3454
73.282
73.2384
73.211
73.1959
73.1911
73.1912
73.1966
73.1973
76.118
76.1717
76.0519
75.7109
75.088
74.1217
72.7537
70.9364
68.6315
65.6904
61.9738
57.6827
52.9913
48.1271
43.4011
39.019
35.0544
31.5354
28.4562
25.7879
23.4998
21.5502
19.8622
18.3731
17.0322
15.8033
14.6596
13.5797
12.5458
11.553
10.5967
9.68856
8.9191
8.25629
76.3088
76.1767
75.8853
75.5782
75.254
74.9308
74.624
74.3436
74.0952
73.881
73.7015
73.555
73.4391
73.3504
73.2855
73.2407
73.2126
73.197
73.1916
73.1915
73.1967
73.1972
76.4554
76.429
76.1916
75.6947
74.8777
73.6789
72.047
69.9373
67.1992
63.6653
59.5003
54.8598
49.9353
44.9623
40.2466
35.9654
32.1635
28.842
25.9736
23.5139
21.4263
19.6564
18.1235
16.7707
15.5509
14.4306
13.3852
12.3954
11.4437
10.5266
9.63891
8.91222
8.26338
7.56106
76.6772
76.6128
76.3403
76.0344
75.6927
75.3388
74.9932
74.6697
74.3767
74.1189
73.8979
73.7135
73.5634
73.4449
73.3544
73.2882
73.2426
73.2139
73.1978
73.1921
73.1917
73.1967
73.1972
76.7585
76.6272
76.2436
75.5622
74.5217
73.0659
71.1449
68.6064
65.2592
61.24
56.6885
51.7695
46.6826
41.6738
37.0355
32.9104
29.3132
26.2178
23.5779
21.3362
19.4523
17.8618
16.4815
15.2612
14.1582
13.1423
12.1908
11.2865
10.4128
9.5675
8.8619
8.25781
7.56149
6.80902
77.0135
77.0455
76.812
76.5231
76.1746
75.7964
75.415
75.0487
74.7096
74.4051
74.1388
73.9118
73.723
73.5698
73.4491
73.3573
73.2902
73.2441
73.2149
73.1984
73.1925
73.1919
73.1967
73.1971
77.0062
76.7423
76.1832
75.2866
73.9964
72.2553
69.9086
66.7477
62.8905
58.4638
53.6005
48.4683
43.2852
38.307
33.8054
29.8838
26.5251
23.6777
21.2781
19.2593
17.5791
16.1655
14.934
13.8416
12.8508
11.9347
11.0725
10.2493
9.44933
8.79014
8.20867
7.55062
6.80194
5.98481
77.2959
77.4577
77.2877
77.0357
76.6945
76.3014
75.8894
75.4824
75.0968
74.7434
74.4285
74.1548
73.9225
73.7299
73.5742
73.452
73.3592
73.2916
73.2451
73.2157
73.1989
73.1928
73.1921
73.1967
73.1971
77.174
76.749
75.9826
74.8427
73.2709
71.1064
68.1293
64.4472
60.1769
55.4171
50.2972
45.0073
39.7882
34.9018
30.5898
26.9114
23.8176
21.2333
19.0808
17.2859
15.8069
14.5658
13.4783
12.5089
11.6253
10.804
10.0264
9.28014
8.66833
8.13584
7.50152
6.78652
5.97476
5.087
77.4989
77.8294
77.7514
77.5608
77.2452
76.8496
76.415
75.9714
75.5405
75.1372
74.7709
74.4468
74.1666
73.9297
73.7342
73.5769
73.4537
73.3604
73.2925
73.2457
73.2162
73.1993
73.193
73.1922
73.1967
73.1971
77.2356
76.6188
75.615
74.1958
72.2024
69.4061
65.9087
61.8195
57.2043
52.1527
46.8188
41.4233
36.2282
31.4926
27.4175
24.015
21.2056
18.8933
16.9899
15.417
14.1345
13.0604
12.1112
11.2594
10.4778
9.74642
9.04893
8.49453
8.01127
7.42656
6.73588
5.95801
5.07573
4.11265
77.5947
78.1373
78.1842
78.084
77.8164
77.4347
76.9884
76.5148
76.0418
75.589
75.1697
74.792
74.4598
74.174
73.9337
73.7363
73.578
73.4543
73.3608
73.2929
73.2461
73.2164
73.1995
73.1932
73.1923
73.1967
73.1971
77.1613
76.3229
75.0422
73.2015
70.581
67.2745
63.3832
58.944
54.0104
48.6966
43.191
37.7459
32.6369
28.1091
24.3131
21.2124
18.7
16.6636
15.0077
13.6522
12.5598
11.6461
10.8294
10.0892
9.40435
8.75805
8.25648
7.83341
7.29895
6.65774
5.90563
5.05856
4.10048
3.05535
77.551
78.3557
78.5635
78.5879
78.3952
78.0478
77.6043
77.1102
76.6003
76.1001
75.6274
75.1939
74.8062
74.4672
74.1773
73.9348
73.7364
73.5777
73.454
73.3606
73.2928
73.246
73.2165
73.1998
73.1934
73.1924
73.1966
73.1971
76.9194
75.8207
74.1188
71.6589
68.5437
64.8606
60.6191
55.8427
50.6081
45.0634
39.4348
34.0022
29.0437
24.7778
21.2967
18.517
16.3087
14.5478
13.1347
11.9897
11.08
10.3196
9.62882
8.99457
8.40115
7.95678
7.58975
7.11654
6.52656
5.824
5.00454
4.08239
3.0426
1.90801
77.3314
78.4565
78.8641
79.0517
78.9658
78.6775
78.2551
77.7532
77.2144
76.6709
76.146
75.6556
75.2096
74.8134
74.4694
74.177
73.9334
73.7347
73.5762
73.4529
73.3598
73.2922
73.2457
73.2168
73.2001
73.1935
73.1924
73.1967
73.1971
76.4661
74.9644
72.6567
69.718
66.2444
62.2146
57.6242
52.5181
47.0029
41.2662
35.5719
30.2194
25.476
21.5216
18.3847
15.9388
14.0368
12.5471
11.3695
10.4271
9.69196
9.07713
8.50559
7.97151
7.58779
7.28252
6.86682
6.33905
5.68882
4.91961
4.02674
3.02337
1.89501
0.663516
76.8857
78.4088
79.0577
79.4516
79.5091
79.3094
78.9308
78.4374
77.8806
77.3002
76.726
76.179
75.6729
75.2165
74.8142
74.4672
74.1736
73.9299
73.7316
73.5737
73.451
73.3584
73.2913
73.246
73.2174
73.2003
73.1935
73.1923
73.1967
73.1972
75.6501
73.5838
70.8142
67.532
63.7179
59.3337
54.3942
48.9688
43.2009
37.3208
31.6266
26.4255
21.9597
18.3599
15.5896
13.4847
11.8865
10.6609
9.71014
8.96125
8.39182
7.91464
7.45582
7.14204
6.90337
6.55143
6.08267
5.49562
4.78012
3.93858
2.96604
1.87499
0.650387
-0.685734
78.1701
76.0626
79.1111
79.7612
80.003
79.9262
79.6185
79.154
78.5935
77.9855
77.3671
76.7653
76.1987
75.6795
75.2155
74.8096
74.4612
74.1675
73.9245
73.7271
73.5702
73.4483
73.3565
73.2913
73.2468
73.2176
73.2003
73.1934
73.1922
73.1967
73.1972
74.3209
71.8397
68.74
65.1225
60.9533
56.2092
50.9229
45.1952
39.2118
33.247
27.626
22.6492
18.5187
15.3093
12.9208
11.1584
9.85806
8.88757
8.15359
7.58834
7.1755
6.82823
6.60469
6.44407
6.16126
5.75839
5.23196
4.58069
3.79445
2.87451
1.81576
0.629811
-0.699019
-2.14779
78.9859
77.5973
74.7176
79.9482
80.4229
80.5075
80.3028
79.8918
79.3457
78.7224
78.0673
77.4145
76.7882
76.2052
75.6765
75.2078
74.8001
74.4518
74.1591
73.9174
73.7215
73.5657
73.4449
73.3562
73.2926
73.2472
73.2176
73.2001
73.1932
73.1921
73.1967
73.1973
72.6437
69.8744
66.4458
62.473
57.94
52.8324
47.2066
41.2014
35.0498
29.0692
23.6
18.9186
15.1745
12.3829
10.3842
8.96127
7.95014
7.22415
6.69595
6.30419
6.03897
5.94752
5.88854
5.68732
5.35629
4.89799
4.3091
3.58826
2.72532
1.72058
0.568496
-0.720225
-2.16121
-3.73096
79.9763
78.5609
76.5782
73.0412
80.7383
81.0305
80.9648
80.6369
80.1274
79.5046
78.8233
78.1255
77.442
76.795
76.1998
75.6652
75.1942
74.7866
74.4395
74.1487
73.909
73.7146
73.5602
73.4441
73.358
73.2932
73.2472
73.2174
73.1998
73.193
73.1919
73.1966
73.1974
70.7546
67.6933
63.9106
59.5719
54.6678
49.1967
43.2446
36.9953
30.7342
24.816
19.5799
15.2609
11.9457
9.59038
7.98329
6.8927
6.16013
5.66671
5.33294
5.10459
5.11794
5.20657
5.11213
4.8665
4.48294
3.96458
3.30807
2.51184
1.56588
0.46948
-0.783591
-2.18312
-3.74446
-5.44377
80.9168
79.7396
77.694
75.2398
71.1656
81.4667
81.5837
81.3724
80.9264
80.3238
79.6298
78.8955
78.1594
77.4497
76.7873
76.1844
75.6468
75.1758
74.7697
74.4249
74.1366
73.8988
73.7064
73.5588
73.4466
73.3588
73.2932
73.2468
73.2168
73.1995
73.1928
73.1917
73.1966
73.1975
68.6542
65.2716
61.1231
56.4091
51.1294
45.2983
39.0388
32.5892
26.2893
20.5193
15.5979
11.7011
8.8476
6.93833
5.71902
4.95073
4.48412
4.2108
4.06015
4.13286
4.34326
4.40333
4.27003
3.97601
3.53552
2.95209
2.22235
1.34455
0.308829
-0.886572
-2.24851
-3.76711
-5.45725
-7.29492
81.7878
80.872
79.0995
76.5104
73.6906
69.0875
82.133
82.0794
81.7276
81.1693
80.4797
79.7204
78.9384
78.1692
77.44
76.7674
76.1604
75.6224
75.1531
74.7499
74.4083
74.1223
73.8871
73.704
73.5621
73.4476
73.3588
73.2926
73.246
73.2165
73.1993
73.1925
73.1915
73.1966
73.1976
66.3131
62.5989
58.0742
52.9778
47.3193
41.1342
34.594
28.0002
21.7441
16.2143
11.6854
8.26125
5.8917
4.43061
3.59062
3.13174
2.91754
2.85174
3.02964
3.31582
3.50354
3.53228
3.35655
3.01007
2.50787
1.85392
1.045
0.0790654
-1.05361
-2.35565
-3.83451
-5.48062
-7.30831
-9.29287
82.5885
81.9284
80.464
78.149
75.1219
71.9417
66.7708
82.7332
82.5139
82.0278
81.3639
80.5942
79.7756
78.9521
78.1579
77.4154
76.7372
76.1292
75.593
75.127
74.7277
74.3889
74.1062
73.8834
73.7084
73.5635
73.4476
73.358
73.2913
73.2457
73.2164
73.1989
73.1921
73.1912
73.1966
73.1978
63.7218
59.6681
54.7585
49.2724
43.2316
36.7025
29.9178
23.2504
17.133
11.9375
7.87199
4.95957
3.08633
2.06865
1.59529
1.43126
1.45551
1.75183
2.16353
2.4303
2.59317
2.58763
2.36584
1.96248
1.39338
0.663123
-0.231334
-1.29238
-2.52951
-3.94605
-5.55004
-7.33234
-9.30569
-11.4498
83.3137
82.909
81.7459
79.7531
76.9944
73.5622
69.957
64.2056
83.2627
82.884
82.2709
81.5093
80.6662
79.7956
78.9402
78.1287
77.3783
76.6982
76.0919
75.5595
75.098
74.7021
74.3672
74.1008
73.8891
73.7102
73.5635
73.4466
73.3562
73.2913
73.246
73.2162
73.1984
73.1916
73.1908
73.1966
73.198
60.8757
56.4763
51.1717
45.2859
38.8596
32.001
25.0214
18.368
12.4943
7.72552
4.18407
1.81064
0.436603
-0.148776
-0.270956
-0.155702
0.27257
0.827789
1.2251
1.47064
1.60628
1.56343
1.29161
0.826537
0.185037
-0.627691
-1.61443
-2.77788
-4.12719
-5.66623
-7.4036
-9.32982
-11.4585
-14.1706
83.9573
83.8072
82.9477
81.2698
78.8354
75.6907
71.7937
67.7285
61.3883
83.7177
83.1873
82.4556
81.6038
80.6959
79.7848
78.9067
78.0843
77.3307
76.6519
76.0497
75.5225
75.0651
74.6737
74.3598
74.1082
73.8915
73.7102
73.5621
73.4441
73.3565
73.2922
73.246
73.2156
73.1977
73.191
73.1904
73.1966
73.1982
57.7741
53.0217
47.3079
41.0094
34.1926
27.0275
19.9215
13.3883
7.86985
3.6136
0.644336
-1.17491
-2.05584
-2.22454
-2.01296
-1.43964
-0.720838
-0.173004
0.208599
0.430862
0.536766
0.453304
0.127102
-0.40478
-1.12456
-2.02631
-3.11238
-4.38576
-5.85511
-7.5246
-9.40304
-11.4826
-14.1844
-17.4166
84.5143
84.6146
84.0633
82.7028
80.5842
77.7832
74.2015
69.804
65.258
58.3192
84.0948
83.4216
82.5798
81.6476
80.6884
79.7479
78.855
78.0274
77.2744
76.5999
76.0035
75.4808
75.0286
74.6636
74.3691
74.1111
73.8915
73.7084
73.5588
73.4449
73.3584
73.2928
73.2457
73.2149
73.1969
73.1903
73.1899
73.1966
73.1984
54.4178
49.3009
43.1585
36.4271
29.2167
21.784
14.6433
8.35271
3.30247
-0.365636
-2.72878
-3.99094
-4.39183
-4.1629
-3.42244
-2.51746
-1.79629
-1.25653
-0.892111
-0.695279
-0.621828
-0.749544
-1.13472
-1.73888
-2.54319
-3.54081
-4.73351
-6.12449
-7.72163
-9.52916
-11.5559
-14.215
-17.4345
-20.7311
84.9806
85.3231
85.0833
84.047
82.2453
79.7776
76.5636
72.5108
67.5946
62.5526
55.0007
84.3914
83.5844
82.6434
81.6465
80.6495
79.6891
78.7882
77.9601
77.2112
76.543
75.9516
75.4347
75.0154
74.6754
74.3728
74.1111
73.8891
73.7039
73.5603
73.4483
73.3598
73.2928
73.245
73.2139
73.1959
73.1895
73.1894
73.1966
73.1987
50.8061
45.308
38.7071
31.5187
23.9224
16.2838
9.22333
3.30916
-1.1644
-4.1834
-5.92231
-6.63478
-6.57437
-5.7315
-4.60525
-3.68378
-2.96011
-2.42912
-2.0834
-1.91434
-1.87634
-2.05217
-2.50125
-3.1835
-4.07889
-5.17946
-6.48631
-8.00244
-9.73486
-11.6869
-14.2942
-17.4677
-20.7438
-24.0496
85.3532
85.9254
85.9978
85.2914
83.8136
81.6781
78.8223
75.1551
70.62
65.1747
59.6229
51.4342
84.6039
83.675
82.6531
81.6078
80.5843
79.6122
78.709
77.8846
77.1424
76.4794
75.8943
75.4178
75.0301
74.6799
74.3728
74.1082
73.8834
73.7064
73.5658
73.451
73.3606
73.2925
73.244
73.2125
73.1946
73.1886
73.1888
73.1966
73.1991
46.9361
41.0317
33.9303
26.2587
18.2988
10.5482
3.70951
-1.68929
-5.48922
-7.81679
-8.92792
-9.10698
-8.34088
-7.04745
-5.88456
-4.94537
-4.21885
-3.6973
-3.37191
-3.23319
-3.23382
-3.46189
-3.98012
-4.74656
-5.73981
-6.95061
-8.37904
-10.0278
-11.9015
-14.4355
-17.5548
-20.7731
-24.0605
-27.3551
85.6276
86.4161
86.797
86.4253
85.2785
83.4786
80.9826
77.6901
73.5582
68.5395
62.5602
56.48
47.619
84.7306
83.7011
82.6175
81.5374
80.4973
79.5204
78.62
77.8024
77.0656
76.4095
75.8731
75.4358
75.0356
74.6799
74.3691
74.1008
73.8872
73.7147
73.5703
73.4529
73.3608
73.2916
73.2425
73.2109
73.1932
73.1875
73.1881
73.1967
73.1995
42.8002
36.4452
28.7855
20.6059
12.3317
4.6043
-1.84168
-6.58719
-9.63546
-11.2485
-11.7419
-11.1084
-9.82199
-8.47008
-7.26767
-6.30903
-5.57919
-5.0678
-4.76455
-4.65882
-4.70149
-4.98624
-5.57912
-6.43606
-7.53414
-8.8624
-10.4198
-12.2071
-14.6631
-17.7083
-20.8593
-24.0901
-27.365
-30.6362
85.8008
86.7884
87.4712
87.4374
86.629
85.1679
83.0374
80.122
76.3786
71.7832
66.2879
59.77
53.135
43.5543
84.7802
83.6728
82.5441
81.441
80.3926
79.4169
78.5232
77.7108
76.9811
76.3832
75.895
75.4424
75.0356
74.6754
74.3597
74.1063
73.899
73.7217
73.5738
73.454
73.3603
73.2901
73.2407
73.2089
73.1914
73.1862
73.1873
73.1967
73.1999
38.3779
31.5065
23.2161
14.5158
6.01964
-1.50445
-7.3655
-11.3303
-13.5723
-14.4676
-14.0209
-12.7856
-11.4221
-10.0072
-8.76163
-7.78157
-7.04794
-6.54752
-6.26822
-6.19832
-6.28671
-6.63275
-7.30598
-8.2599
-9.46976
-10.9227
-12.6152
-14.9854
-17.9522
-21.0175
-24.1774
-27.396
-30.6451
-33.8726
85.8824
87.0372
88.0081
88.3163
87.8534
86.7344
84.9743
82.4443
79.0888
74.8969
69.8492
63.8879
56.8239
49.6019
39.2309
84.7646
83.5991
82.4393
81.3233
80.2739
79.3042
78.4153
77.6102
76.9492
76.4097
75.903
75.4424
75.03
74.6636
74.3673
74.1226
73.9092
73.7273
73.5762
73.4543
73.3591
73.2881
73.2383
73.2065
73.1894
73.1848
73.1865
73.1967
73.2004
33.6391
26.1631
17.1569
7.95084
-0.618413
-7.71314
-12.7916
-15.8674
-17.2764
-17.0765
-15.9293
-14.5961
-13.1493
-11.6659
-10.3733
-9.36978
-8.63194
-8.14327
-7.88984
-7.85878
-7.99668
-8.40882
-9.16823
-10.2256
-11.5541
-13.1378
-15.4132
-18.2941
-21.272
-24.3411
-27.4853
-30.6768
-33.8804
-37.0422
85.8865
87.1734
88.3944
89.0456
88.9395
88.1656
86.78
84.6447
81.6839
77.8896
73.2641
67.7809
61.3644
53.7413
45.8889
34.6287
84.6946
83.4878
82.309
81.1889
80.1442
79.1786
78.2967
77.5717
76.9809
76.4191
75.903
75.4357
75.0154
74.6738
74.3893
74.1369
73.9177
73.7317
73.5777
73.4536
73.3571
73.2854
73.2353
73.2038
73.1871
73.1832
73.1856
73.1968
73.2009
28.5382
20.3344
10.5233
0.887096
-7.54031
-13.9387
-18.0467
-20.1537
-20.2819
-19.2594
-17.9872
-16.548
-15.0106
-13.4528
-12.1092
-11.0803
-10.3378
-9.86168
-9.63615
-9.64698
-9.83834
-10.3215
-11.1729
-12.3402
-13.7929
-15.9592
-18.7438
-21.628
-24.6052
-27.6558
-30.7673
-33.9124
-37.0487
-40.1232
85.8255
87.2145
88.638
89.6042
89.8667
89.4493
88.4396
86.7099
84.1538
80.7593
76.5419
71.5055
65.6055
58.7415
50.5427
41.9982
29.718
84.5796
83.346
82.1587
81.0413
79.9995
79.0402
78.2511
77.6095
76.992
76.4191
75.895
75.4177
75.0287
74.7026
74.4087
74.149
73.9247
73.7348
73.5779
73.4519
73.3542
73.2819
73.2318
73.2005
73.1846
73.1816
73.1847
73.1968
73.2015
23.0037
13.8976
3.21686
-6.68472
-14.6727
-20.0806
-23.0558
-23.6361
-22.7935
-21.6104
-20.2024
-18.6476
-17.0118
-15.374
-13.9755
-12.9193
-12.1716
-11.709
-11.5134
-11.5692
-11.8181
-12.3772
-13.3262
-14.6085
-16.6418
-19.3138
-22.0936
-24.9722
-27.9294
-30.9436
-34.0036
-37.0809
-40.1284
-43.0944
85.7108
87.1758
88.758
89.9958
90.607
90.5633
89.9378
88.6235
86.4864
83.4986
79.6845
75.0701
69.6494
63.3508
56.0448
47.2513
37.9336
24.4583
84.428
83.1801
81.9927
80.8763
79.8398
78.9867
78.2957
77.6225
76.992
76.4097
75.873
75.4349
75.0657
74.7283
74.4254
74.1594
73.93
73.7364
73.5768
73.449
73.3503
73.2776
73.2277
73.197
73.1819
73.1798
73.1839
73.1969
73.2021
16.9244
6.66708
-4.87915
-14.7316
-21.9134
-26.0042
-27.1473
-26.5414
-25.4921
-24.1355
-22.5793
-20.8992
-19.1579
-17.4346
-15.9777
-14.8922
-14.1391
-13.6909
-13.5272
-13.6312
-13.9415
-14.5812
-15.6324
-17.4915
-20.0236
-22.6805
-25.4486
-28.3054
-31.2244
-34.1843
-37.1721
-40.1604
-43.0983
-45.9347
85.5521
87.0713
88.7733
90.238
91.16
91.4746
91.2484
90.3678
88.6662
86.0987
82.689
78.4827
73.5026
67.7252
61.0447
53.3019
43.89
33.6975
18.792
84.2474
82.9955
81.8065
80.6937
79.7775
79.0391
78.3107
77.6225
76.9809
76.3831
75.8946
75.4815
75.0989
74.7506
74.44
74.1677
73.9335
73.7362
73.5741
73.4447
73.3453
73.2725
73.223
73.1932
73.1791
73.1781
73.1829
73.1969
73.2028
10.1118
-1.67108
-13.8037
-23.2149
-29.0218
-30.8699
-30.5609
-29.6562
-28.3794
-26.8358
-25.1195
-23.3053
-21.4519
-19.6384
-18.1197
-17.0034
-16.2446
-15.8118
-15.6821
-15.8371
-16.2127
-16.9367
-18.5585
-20.9061
-23.409
-26.0458
-28.7887
-31.6057
-34.4695
-37.3556
-40.2509
-43.1295
-45.9371
-48.6239
85.3587
86.9128
88.7016
90.3487
91.5436
92.1804
92.331
91.9105
90.6751
88.5467
85.5509
81.7453
77.1816
71.869
65.7622
58.7163
50.5406
40.4805
29.3029
12.6548
84.0443
82.7874
81.5995
80.6221
79.8386
79.0564
78.3107
77.6095
76.949
76.4098
75.9525
75.5235
75.1279
74.7703
74.4521
74.1737
73.9348
73.7341
73.5697
73.439
73.3391
73.2665
73.2179
73.1891
73.1761
73.1762
73.182
73.197
73.2034
2.21786
-11.4588
-23.7129
-31.702
-34.9236
-34.9227
-34.207
-32.9812
-31.4505
-29.7071
-27.8216
-25.8656
-23.8947
-21.9872
-20.404
-19.2558
-18.4913
-18.0749
-17.9812
-18.19
-18.6337
-19.9191
-22.0147
-24.3143
-26.785
-29.3904
-32.0908
-34.8516
-37.6418
-40.4352
-43.2185
-45.9673
-48.6251
-51.1433
85.1382
86.7117
88.5588
90.3458
91.7757
92.6997
93.181
93.1995
92.4766
90.8263
88.2615
84.8592
80.6938
75.8105
70.1988
63.7899
56.3924
47.7908
37.0594
24.8096
5.97116
83.8139
82.5551
81.5177
80.693
79.8585
79.0564
78.2956
77.5715
76.9816
76.4806
76.0048
75.5606
75.154
74.7872
74.4614
74.177
73.9336
73.7297
73.5633
73.4317
73.3318
73.26
73.2124
73.1849
73.1731
73.1743
73.1811
73.197
73.2042
-7.33161
-23.8769
-33.7889
-39.0315
-39.7818
-39.2099
-38.0679
-36.5026
-34.6952
-32.7403
-30.6798
-28.5767
-26.4844
-24.4803
-22.8311
-21.6503
-20.8804
-20.4816
-20.4256
-20.69
-21.6904
-23.4294
-25.4524
-27.7039
-30.1333
-32.691
-35.3329
-38.0205
-40.719
-43.4012
-46.0537
-48.6535
-51.143
-53.4757
84.886
86.4767
88.3598
90.2469
91.8741
93.0511
93.8208
94.2227
94.0071
92.8993
90.8083
87.8208
84.0474
79.5634
74.3984
68.5208
61.8338
54.1018
45.0979
33.6747
20.3298
-1.33392
83.5553
82.4627
81.5995
80.7157
79.8586
79.039
78.2508
77.6107
77.067
76.5446
76.0512
75.5941
75.1765
74.8005
74.4673
74.1772
73.9296
73.7229
73.5549
73.4229
73.3236
73.2529
73.2066
73.1804
73.1699
73.1723
73.1802
73.1971
73.2049
-21.0194
-37.4687
-43.8036
-45.1765
-44.8792
-43.6802
-42.096
-40.1917
-38.0986
-35.9212
-33.6833
-31.4307
-29.2155
-27.1142
-25.3987
-24.1854
-23.4109
-23.0309
-23.0136
-23.8357
-25.2719
-26.9062
-28.86
-31.0569
-33.4304
-35.9253
-38.4929
-41.0898
-43.6788
-46.2322
-48.7364