/*--------------------------------*- C++ -*----------------------------------*\
  =========                 |
  \\      /  F ield         | OpenFOAM: The Open Source CFD Toolbox
   \\    /   O peration     | Website:  https://openfoam.org
    \\  /    A nd           | Version:  8
     \\/     M anipulation  |
\*---------------------------------------------------------------------------*/
FoamFile
{
    version     2.0;
    format      ascii;
    class       surfaceScalarField;
    location    "0.15";
    object      phi;
}
// * * * * * * * * * * * * * * * * * * * * * * * * * * * * * * * * * * * * * //

dimensions      [0 3 -1 0 0 0 0];

internalField   nonuniform List<scalar> 
31053
(
6.40145e-07
1.27399e-05
8.6316e-07
1.5157e-05
3.57383e-07
1.23825e-05
9.488e-07
1.75544e-05
5.67566e-07
1.49468e-05
2.75238e-07
1.21072e-05
9.73476e-07
2.02153e-05
6.82325e-07
1.74396e-05
4.7111e-07
1.47509e-05
2.16688e-07
1.18905e-05
9.64858e-07
2.32486e-05
7.41076e-07
2.01566e-05
5.97071e-07
1.73136e-05
3.96999e-07
1.45706e-05
1.7225e-07
1.17183e-05
9.34929e-07
2.66899e-05
7.66166e-07
2.32235e-05
6.72254e-07
2.00814e-05
5.24388e-07
1.71863e-05
3.32873e-07
1.441e-05
1.37927e-07
1.15804e-05
8.89493e-07
3.06654e-05
7.69382e-07
2.66867e-05
7.14375e-07
2.31814e-05
6.05456e-07
2.00003e-05
4.55067e-07
1.70641e-05
2.78657e-07
1.42693e-05
1.10876e-07
1.14695e-05
8.3164e-07
3.51979e-05
7.57177e-07
3.06776e-05
7.34335e-07
2.66668e-05
6.53739e-07
2.31331e-05
5.36143e-07
1.99192e-05
3.91763e-07
1.6951e-05
2.31674e-07
1.41485e-05
8.84046e-08
1.13811e-05
7.65158e-07
4.03865e-05
7.33733e-07
3.52213e-05
7.38582e-07
3.06734e-05
6.79301e-07
2.66412e-05
5.85187e-07
2.30841e-05
4.6913e-07
1.98419e-05
3.33019e-07
1.68496e-05
1.89563e-07
1.40473e-05
6.87015e-08
1.13124e-05
6.92633e-07
4.63525e-05
7.00203e-07
4.042e-05
7.30996e-07
3.52289e-05
6.88142e-07
3.06646e-05
6.11212e-07
2.66152e-05
5.15653e-07
2.30376e-05
4.03643e-07
1.97713e-05
2.77186e-07
1.6762e-05
1.50541e-07
1.39655e-05
5.06195e-08
1.12618e-05
6.15912e-07
5.32167e-05
6.58109e-07
4.63946e-05
7.11914e-07
4.04391e-05
6.83193e-07
3.52338e-05
6.20133e-07
3.06556e-05
5.38968e-07
2.65919e-05
4.44889e-07
2.29963e-05
3.38562e-07
1.97099e-05
2.2289e-07
1.66896e-05
1.13316e-07
1.39028e-05
3.33775e-08
1.12284e-05
5.36954e-07
6.1059e-05
6.09256e-07
5.32656e-05
6.81784e-07
4.64247e-05
6.67335e-07
4.0455e-05
6.15326e-07
3.52386e-05
5.44835e-07
3.06498e-05
4.62837e-07
2.65739e-05
3.72141e-07
2.29627e-05
2.72762e-07
1.966e-05
1.69029e-07
1.66339e-05
7.69404e-08
1.38592e-05
1.64653e-08
1.12119e-05
4.57616e-07
7.00613e-05
5.55212e-07
6.1113e-05
6.41702e-07
5.33057e-05
6.41535e-07
4.64505e-05
5.99034e-07
4.04712e-05
5.36712e-07
3.52468e-05
4.6285e-07
3.06498e-05
3.82354e-07
2.65637e-05
2.96356e-07
2.29391e-05
2.05236e-07
1.96238e-05
1.14798e-07
1.65961e-05
4.07201e-08
1.3835e-05
-2.89002e-10
1.12122e-05
3.79591e-07
8.041e-05
4.97394e-07
7.01192e-05
5.92907e-07
6.11618e-05
6.05853e-07
5.33413e-05
5.72363e-07
4.64772e-05
5.16565e-07
4.04914e-05
4.483e-07
3.52613e-05
3.73984e-07
3.06581e-05
2.96482e-07
2.65636e-05
2.16522e-07
2.29279e-05
1.35294e-07
1.96033e-05
5.95747e-08
1.65772e-05
4.28133e-09
1.38304e-05
-1.71189e-08
1.12293e-05
3.16766e-07
7.62528e-05
4.37098e-07
8.04703e-05
5.36842e-07
7.01752e-05
5.60606e-07
6.1207e-05
5.35586e-07
5.33781e-05
4.85383e-07
4.65084e-05
4.21037e-07
4.05187e-05
3.5022e-07
3.52851e-05
2.77224e-07
3.06774e-05
2.04173e-07
2.65759e-05
1.31957e-07
2.29312e-05
6.24031e-08
1.96005e-05
3.01435e-09
1.65785e-05
-3.2593e-08
1.38459e-05
-3.42157e-08
1.12635e-05
2.63462e-07
7.62433e-05
3.85432e-07
7.63045e-05
4.75163e-07
8.0532e-05
5.06509e-07
7.02293e-05
4.88799e-07
6.12538e-05
4.43509e-07
5.342e-05
3.81929e-07
4.65475e-05
3.12793e-07
4.05561e-05
2.41498e-07
3.53208e-05
1.71477e-07
3.07101e-05
1.04693e-07
2.66032e-05
4.21408e-08
2.29515e-05
-1.36566e-08
1.96171e-05
-5.50136e-08
1.66009e-05
-7.00611e-08
1.38817e-05
-5.15491e-08
1.13151e-05
2.18446e-07
7.6235e-05
3.38732e-07
7.629e-05
4.2056e-07
7.63591e-05
4.44769e-07
8.05937e-05
4.32308e-07
7.02858e-05
3.9102e-07
6.13063e-05
3.31265e-07
5.34707e-05
2.62446e-07
4.65979e-05
1.90865e-07
4.06067e-05
1.20995e-07
3.53713e-05
5.59466e-08
3.07588e-05
-2.48147e-09
2.66478e-05
-5.30596e-08
2.29909e-05
-9.28589e-08
1.9655e-05
-1.14473e-07
1.66453e-05
-1.08022e-07
1.39382e-05
-6.89566e-08
1.13841e-05
1.80623e-07
7.62298e-05
2.96596e-07
7.62772e-05
3.69914e-07
7.63407e-05
3.88483e-07
7.64154e-05
3.66969e-07
8.06591e-05
3.28065e-07
7.03488e-05
2.69112e-07
6.13685e-05
1.9936e-07
5.35337e-05
1.25914e-07
4.66628e-05
5.40561e-08
4.06737e-05
-1.21615e-08
3.54394e-05
-6.99125e-08
3.08263e-05
-1.17447e-07
2.67122e-05
-1.5347e-07
2.30515e-05
-1.74923e-07
1.97154e-05
-1.75063e-07
1.67123e-05
-1.462e-07
1.40154e-05
-8.63041e-08
1.14704e-05
1.49026e-07
7.62216e-05
2.58644e-07
7.62678e-05
3.23175e-07
7.63239e-05
3.35267e-07
7.63939e-05
3.06763e-07
7.64756e-05
2.55301e-07
8.07318e-05
1.95588e-07
7.04223e-05
1.23566e-07
6.14443e-05
4.66901e-08
5.3613e-05
-2.89556e-08
4.67458e-05
-9.86026e-08
4.07601e-05
-1.58539e-07
3.5528e-05
-2.06168e-07
3.0915e-05
-2.39893e-07
2.67986e-05
-2.58573e-07
2.31351e-05
-2.59256e-07
1.97996e-05
-2.36262e-07
1.68024e-05
-1.84225e-07
1.41133e-05
-1.03331e-07
1.15737e-05
1.22821e-07
7.62162e-05
2.24532e-07
7.62557e-05
2.80226e-07
7.63107e-05
2.85515e-07
7.63736e-05
2.49501e-07
7.64511e-05
1.88179e-07
7.65427e-05
1.11323e-07
8.08161e-05
3.51908e-08
7.05107e-05
-4.6839e-08
6.15378e-05
-1.28162e-07
5.37122e-05
-2.0325e-07
4.68505e-05
-2.67701e-07
4.08693e-05
-3.18176e-07
3.564e-05
-3.52354e-07
3.10274e-05
-3.6909e-07
2.69091e-05
-3.67474e-07
2.32433e-05
-3.44972e-07
1.99083e-05
-2.97408e-07
1.69156e-05
-2.21618e-07
1.42316e-05
-1.1985e-07
1.16935e-05
1.01202e-07
7.62116e-05
1.93916e-07
7.62468e-05
2.40931e-07
7.6295e-05
2.39403e-07
7.63568e-05
1.95876e-07
7.64273e-05
1.24354e-07
7.6515e-05
3.39577e-08
7.66201e-05
-6.50496e-08
8.09163e-05
-1.54526e-07
7.06184e-05
-2.43681e-07
6.16533e-05
-3.26437e-07
5.38354e-05
-3.97586e-07
4.69804e-05
-4.53249e-07
4.10043e-05
-4.90439e-07
3.57781e-05
-5.07544e-07
3.11659e-05
-5.03834e-07
2.70455e-05
-4.78872e-07
2.33772e-05
-4.31041e-07
2.0042e-05
-3.57702e-07
1.70517e-05
-2.57865e-07
1.43696e-05
-1.35525e-07
1.18291e-05
8.47463e-08
6.95985e-05
1.665e-07
7.6239e-05
2.05137e-07
7.62826e-05
1.97012e-07
7.63374e-05
1.46279e-07
7.64064e-05
6.47684e-08
7.64869e-05
-3.93016e-08
7.65882e-05
-1.56433e-07
7.67115e-05
-2.75497e-07
8.10373e-05
-3.75346e-07
7.075e-05
-4.68396e-07
6.17953e-05
-5.48793e-07
5.39866e-05
-6.11955e-07
4.71391e-05
-6.54433e-07
4.11683e-05
-6.74196e-07
3.59448e-05
-6.70215e-07
3.13323e-05
-6.42412e-07
2.7209e-05
-5.91322e-07
2.35375e-05
-5.16231e-07
2.02005e-05
-4.16253e-07
1.72101e-05
-2.92348e-07
1.45265e-05
-1.50166e-07
1.19792e-05
7.21683e-08
6.25566e-05
1.44059e-07
6.96209e-05
1.72716e-07
7.62715e-05
1.58372e-07
7.63213e-05
1.00946e-07
7.63827e-05
1.0017e-08
7.64612e-05
-1.07307e-07
7.65549e-05
-2.42462e-07
7.66742e-05
-3.85001e-07
7.6821e-05
-5.22077e-07
8.1184e-05
-6.28947e-07
7.09106e-05
-7.217e-07
6.19682e-05
-7.95215e-07
5.41698e-05
-8.45354e-07
4.733e-05
-8.69907e-07
4.1364e-05
-8.67591e-07
3.61421e-05
-8.38224e-07
3.15281e-05
-7.82926e-07
2.74006e-05
-7.0308e-07
2.37244e-05
-5.99222e-07
2.03835e-05
-4.72088e-07
1.73898e-05
-3.24559e-07
1.47009e-05
-1.63303e-07
1.21425e-05
6.238e-08
5.62278e-05
1.25874e-07
6.25748e-05
1.45973e-07
6.96476e-05
1.23493e-07
7.63063e-05
6.0024e-08
7.63622e-05
-3.95109e-08
7.64323e-05
-1.69265e-07
7.65231e-05
-3.21798e-07
7.66342e-05
-4.87491e-07
7.67767e-05
-6.54098e-07
7.6953e-05
-8.06771e-07
8.13619e-05
-9.16137e-07
7.1105e-05
-1.0036e-06
6.21766e-05
-1.06451e-06
5.4389e-05
-1.09621e-06
4.75563e-05
-1.09745e-06
4.15939e-05
-1.06801e-06
3.63719e-05
-1.00919e-06
3.17544e-05
-9.23102e-07
2.76207e-05
-8.12351e-07
2.39375e-05
-6.78574e-07
2.059e-05
-5.24307e-07
1.75896e-05
-3.53537e-07
1.48911e-05
-1.74175e-07
1.23167e-05
5.46462e-08
5.05397e-05
1.11028e-07
5.62426e-05
1.24195e-07
6.25965e-05
9.49268e-08
6.96762e-05
2.361e-08
7.63427e-05
-8.3557e-08
7.64062e-05
-2.24625e-07
7.64876e-05
-3.93448e-07
7.65948e-05
-5.81423e-07
7.67281e-05
-7.77044e-07
7.68997e-05
-9.66021e-07
7.71122e-05
-1.13053e-06
8.15763e-05
-1.23698e-06
7.13384e-05
-1.31271e-06
6.24248e-05
-1.35487e-06
5.46476e-05
-1.36193e-06
4.78208e-05
-1.33396e-06
4.18598e-05
-1.27258e-06
3.66353e-05
-1.18031e-06
3.20116e-05
-1.06062e-06
2.78689e-05
-9.17145e-07
2.41761e-05
-7.52963e-07
2.08186e-05
-5.71515e-07
1.78075e-05
-3.78635e-07
1.50956e-05
-1.82755e-07
1.24995e-05
4.84544e-08
4.54262e-05
9.88196e-08
5.05519e-05
1.06373e-07
5.62605e-05
7.19119e-08
6.26196e-05
-5.66019e-09
6.97055e-05
-1.21945e-07
7.63811e-05
-2.73008e-07
7.64546e-05
-4.56687e-07
7.65509e-05
-6.65594e-07
7.6679e-05
-8.89143e-07
7.68402e-05
-1.11375e-06
7.70474e-05
-1.32189e-06
7.73036e-05
-1.49353e-06
8.18328e-05
-1.58993e-06
7.16156e-05
-1.64702e-06
6.27169e-05
-1.6633e-06
5.4949e-05
-1.63885e-06
4.81257e-05
-1.57602e-06
4.21633e-05
-1.4779e-06
3.69329e-05
-1.34865e-06
3.22996e-05
-1.19288e-06
2.81447e-05
-1.01565e-06
2.44388e-05
-8.20537e-07
2.10676e-05
-6.12906e-07
1.80418e-05
-3.96358e-07
1.53092e-05
-1.50585e-07
1.265e-05
4.34363e-08
4.0831e-05
8.87091e-08
4.54363e-05
9.17116e-08
5.05666e-05
5.33512e-08
5.6279e-05
-2.87101e-08
6.26426e-05
-1.51962e-07
6.97355e-05
-3.14146e-07
7.64223e-05
-5.10994e-07
7.65089e-05
-7.3908e-07
7.66243e-05
-9.88959e-07
7.67788e-05
-1.24793e-06
7.69744e-05
-1.49894e-06
7.72245e-05
-1.72204e-06
7.75321e-05
-1.89408e-06
8.2137e-05
-1.97275e-06
7.19413e-05
-2.00309e-06
6.30567e-05
-1.98558e-06
5.52957e-05
-1.92301e-06
4.84726e-05
-1.81957e-06
4.2505e-05
-1.6804e-06
3.72647e-05
-1.51099e-06
3.26177e-05
-1.31754e-06
2.84465e-05
-1.10554e-06
2.47238e-05
-8.80015e-07
2.13347e-05
-6.43473e-07
1.82889e-05
-3.91187e-07
1.55498e-05
-1.0177e-07
1.27518e-05
3.93213e-08
3.67001e-05
8.02959e-08
4.08394e-05
7.95919e-08
4.54484e-05
3.83661e-08
5.05816e-05
-4.68002e-08
5.62971e-05
-1.74798e-07
6.26654e-05
-3.45237e-07
6.97666e-05
-5.55998e-07
7.64673e-05
-8.01199e-07
7.6571e-05
-1.07534e-06
7.67107e-05
-1.36685e-06
7.68977e-05
-1.65934e-06
7.71348e-05
-1.93314e-06
7.74356e-05
-2.16471e-06
7.78027e-05
-2.32983e-06
8.2494e-05
-2.38165e-06
7.23199e-05
-2.37615e-06
6.34473e-05
-2.3171e-06
5.56898e-05
-2.20958e-06
4.88626e-05
-2.06033e-06
4.28849e-05
-1.87615e-06
3.76298e-05
-1.6644e-06
3.29646e-05
-1.43178e-06
2.87728e-05
-1.18498e-06
2.50287e-05
-9.26571e-07
2.16178e-05
-6.56215e-07
1.85539e-05
-3.67113e-07
1.58151e-05
-8.16774e-08
1.28335e-05
3.59103e-08
3.29894e-05
7.3272e-08
3.67071e-05
6.9541e-08
4.08495e-05
2.62518e-08
4.54605e-05
-6.0951e-08
5.05957e-05
-1.91972e-07
5.63143e-05
-3.67839e-07
6.2688e-05
-5.88754e-07
6.97993e-05
-8.51451e-07
7.65175e-05
-1.14742e-06
7.66431e-05
-1.4691e-06
7.6813e-05
-1.80107e-06
7.70394e-05
-2.12414e-06
7.73258e-05
-2.4146e-06
7.76855e-05
-2.64754e-06
7.81204e-05
-2.79664e-06
8.2909e-05
-2.81119e-06
7.27549e-05
-2.76083e-06
6.3891e-05
-2.65222e-06
5.61325e-05
-2.49355e-06
4.92959e-05
-2.29367e-06
4.33024e-05
-2.06165e-06
3.80271e-05
-1.80557e-06
3.33383e-05
-1.53327e-06
2.91211e-05
-1.24971e-06
2.53519e-05
-9.55431e-07
2.19171e-05
-6.55835e-07
1.88427e-05
-3.45587e-07
1.6079e-05
-7.66977e-08
1.29102e-05
3.30574e-08
2.96509e-05
6.73834e-08
3.29953e-05
6.11915e-08
3.67155e-05
1.64228e-08
4.08593e-05
-7.1986e-08
4.54716e-05
-2.04711e-07
5.06085e-05
-3.83823e-07
5.63303e-05
-6.11303e-07
6.27106e-05
-8.86677e-07
6.98346e-05
-1.20453e-06
7.65746e-05
-1.55359e-06
7.67276e-05
-1.92243e-06
7.69343e-05
-2.29266e-06
7.72079e-05
-2.64066e-06
7.75519e-05
-2.94103e-06
7.79789e-05
-3.16612e-06
7.84899e-05
-3.28835e-06
8.33862e-05
-3.25531e-06
7.32494e-05
-3.15073e-06
6.43895e-05
-2.98521e-06
5.66241e-05
-2.76954e-06
4.97717e-05
-2.51546e-06
4.37562e-05
-2.23307e-06
3.84546e-05
-1.93171e-06
3.37368e-05
-1.61823e-06
2.94896e-05
-1.29594e-06
2.56924e-05
-9.71732e-07
2.2233e-05
-6.51682e-07
1.91488e-05
-3.34827e-07
1.63371e-05
-8.22597e-08
1.29925e-05
3.06532e-08
2.66504e-05
6.24194e-08
2.96558e-05
5.42376e-08
3.30023e-05
8.40684e-09
3.67235e-05
-8.05714e-08
4.08679e-05
-2.14005e-07
4.54809e-05
-3.94702e-07
5.06194e-05
-6.25975e-07
5.63449e-05
-9.09512e-07
6.27334e-05
-1.24322e-06
6.98732e-05
-1.61945e-06
7.66405e-05
-2.02204e-06
7.68272e-05
-2.43665e-06
7.70783e-05
-2.84011e-06
7.74074e-05
-3.20675e-06
7.78176e-05
-3.50785e-06
7.83207e-05
-3.71378e-06
7.89153e-05
-3.79836e-06
8.39292e-05
-3.70681e-06
7.38055e-05
-3.53931e-06
6.49436e-05
-3.30981e-06
5.71644e-05
-3.03269e-06
5.0289e-05
-2.72126e-06
4.42444e-05
-2.38712e-06
3.891e-05
-2.03933e-06
3.41579e-05
-1.68359e-06
2.98772e-05
-1.32809e-06
2.60487e-05
-9.82776e-07
2.25641e-05
-6.49368e-07
1.94633e-05
-3.33796e-07
1.65887e-05
-1.11479e-07
1.31039e-05
2.86138e-08
2.3956e-05
5.82105e-08
2.66546e-05
4.84232e-08
2.96616e-05
1.84249e-09
3.30088e-05
-8.72393e-08
3.67302e-05
-2.20641e-07
4.08745e-05
-4.01683e-07
4.54878e-05
-6.34648e-07
5.0628e-05
-9.22861e-07
5.63583e-05
-1.26681e-06
6.2757e-05
-1.6628e-06
6.99166e-05
-2.09882e-06
7.67173e-05
-2.55441e-06
7.6945e-05
-3.01049e-06
7.72487e-05
-3.44147e-06
7.76421e-05
-3.81778e-06
7.81275e-05
-4.10805e-06
7.87149e-05
-4.2835e-06
7.94005e-05
-4.31864e-06
8.45411e-05
-4.15828e-06
7.44245e-05
-3.91933e-06
6.55531e-05
-3.62035e-06
5.77521e-05
-3.27788e-06
5.08456e-05
-2.90726e-06
4.47646e-05
-2.52046e-06
3.93911e-05
-2.1259e-06
3.46002e-05
-1.73275e-06
3.02819e-05
-1.35246e-06
2.64184e-05
-9.91965e-07
2.29067e-05
-6.50299e-07
1.97798e-05
-4.15664e-07
1.68929e-05
-1.20302e-07
1.32242e-05
2.68742e-08
2.15337e-05
5.4623e-08
2.39596e-05
4.35367e-08
2.66595e-05
-3.54414e-09
2.9667e-05
-9.24068e-08
3.3014e-05
-2.2524e-07
3.67348e-05
-4.05723e-07
4.08786e-05
-6.38819e-07
4.5492e-05
-9.29064e-07
5.06342e-05
-1.27893e-06
5.63704e-05
-1.68782e-06
6.2782e-05
-2.14828e-06
6.99661e-05
-2.64457e-06
7.68074e-05
-3.14971e-06
7.70842e-05
-3.64225e-06
7.74495e-05
-4.09216e-06
7.79165e-05
-4.46656e-06
7.8486e-05
-4.7343e-06
7.91657e-05
-4.86665e-06
7.99485e-05
-4.84083e-06
8.52236e-05
-4.60142e-06
7.51065e-05
-4.28424e-06
6.6217e-05
-3.91094e-06
5.83851e-05
-3.50076e-06
5.14391e-05
-3.07011e-06
4.53142e-05
-2.63083e-06
3.9896e-05
-2.19378e-06
3.50612e-05
-1.77084e-06
3.07003e-05
-1.37177e-06
2.67982e-05
-9.99721e-07
2.32561e-05
-8.05581e-07
2.01697e-05
-4.17157e-07
1.71897e-05
-1.30339e-07
1.33546e-05
2.53829e-08
1.93535e-05
5.15512e-08
2.15368e-05
3.94086e-08
2.39638e-05
-7.9721e-09
2.66639e-05
-9.63972e-08
2.9671e-05
-2.28289e-07
3.3017e-05
-4.07572e-07
3.67366e-05
-6.39668e-07
4.08794e-05
-9.2998e-07
4.54929e-05
-1.28247e-06
5.06378e-05
-1.69892e-06
5.63815e-05
-2.17555e-06
6.28093e-05
-2.70189e-06
7.00234e-05
-3.25606e-06
7.69138e-05
-3.80658e-06
7.72485e-05
-4.32754e-06
7.76849e-05
-4.78499e-06
7.82349e-05
-5.14559e-06
7.88973e-05
-5.37746e-06
7.96765e-05
-5.45405e-06
8.05617e-05
-5.35554e-06
8.59777e-05
-5.02871e-06
7.5851e-05
-4.62728e-06
6.69334e-05
-4.17659e-06
5.90609e-05
-3.69774e-06
5.20667e-05
-3.20755e-06
4.58909e-05
-2.71964e-06
4.04219e-05
-2.24693e-06
3.55373e-05
-1.80012e-06
3.11286e-05
-1.38618e-06
2.71847e-05
-1.24147e-06
2.3692e-05
-8.00806e-07
2.05534e-05
-4.19036e-07
1.74784e-05
-1.38133e-07
1.34927e-05
1.73973e-05
2.4099e-08
4.891e-08
1.93561e-05
3.59039e-08
2.15403e-05
-1.16213e-08
2.39674e-05
-9.94634e-08
2.6667e-05
-2.30168e-07
2.96729e-05
-4.07814e-07
3.30173e-05
-6.38115e-07
3.67351e-05
-9.27072e-07
4.08765e-05
-1.27973e-06
4.54902e-05
-1.69969e-06
5.06385e-05
-2.18603e-06
5.6392e-05
-2.73253e-06
6.284e-05
-3.32329e-06
7.00906e-05
-3.93232e-06
7.70395e-05
-4.52089e-06
7.74419e-05
-5.05929e-06
7.79592e-05
-5.51241e-06
7.86017e-05
-5.84534e-06
7.93652e-05
-6.02775e-06
8.02502e-05
-6.0354e-06
8.12416e-05
-5.85423e-06
8.68033e-05
-5.43241e-06
7.66561e-05
-4.9427e-06
6.76995e-05
-4.41329e-06
5.97765e-05
-3.86632e-06
5.27255e-05
-3.32009e-06
4.64914e-05
-2.78974e-06
4.09647e-05
-2.28718e-06
3.60244e-05
-1.82081e-06
3.15633e-05
-1.72398e-06
2.76672e-05
-1.2337e-06
2.41249e-05
-7.93267e-07
2.09276e-05
-4.18354e-07
1.77586e-05
-1.4317e-07
1.36359e-05
1.73996e-05
4.66271e-08
2.78121e-05
2.2021e-08
3.29152e-08
1.93591e-05
-1.46376e-08
2.15433e-05
-1.01805e-07
2.39697e-05
-2.31171e-07
2.6668e-05
-4.06902e-07
2.9672e-05
-6.34872e-07
3.3014e-05
-9.21475e-07
3.67295e-05
-1.27252e-06
4.08693e-05
-1.69295e-06
4.54835e-05
-2.18405e-06
5.06366e-05
-2.74298e-06
5.64024e-05
-3.35872e-06
6.28754e-05
-4.01193e-06
7.01702e-05
-4.66958e-06
7.71882e-05
-5.28584e-06
7.76684e-05
-5.83008e-06
7.82768e-05
-6.26469e-06
7.90211e-05
-6.55559e-06
7.9893e-05
-6.67405e-06
8.08889e-05
-6.6013e-06
8.19887e-05
-6.32806e-06
8.76989e-05
-5.80587e-06
7.75193e-05
-5.22584e-06
6.8512e-05
-4.61807e-06
6.05282e-05
-4.00616e-06
5.34116e-05
-3.40959e-06
4.71112e-05
-2.8425e-06
4.152e-05
-2.31479e-06
3.65184e-05
-2.26561e-06
3.21049e-05
-1.71428e-06
2.81478e-05
-1.21836e-06
2.45499e-05
-7.81216e-07
2.12905e-05
-4.14219e-07
1.80297e-05
-1.45563e-07
1.37814e-05
1.74021e-05
3.03573e-08
2.78157e-05
4.29685e-08
2.8552e-05
2.00433e-08
-1.71385e-08
1.93616e-05
-1.03579e-07
2.15451e-05
-2.31527e-07
2.39701e-05
-4.05184e-07
2.66663e-05
-6.30486e-07
2.96676e-05
-9.14062e-07
3.30066e-05
-1.26224e-06
3.67192e-05
-1.68093e-06
4.08573e-05
-2.17309e-06
4.54725e-05
-2.73848e-06
5.06321e-05
-3.37002e-06
5.64137e-05
-4.05392e-06
6.29174e-05
-4.76444e-06
7.02651e-05
-5.46143e-06
7.73638e-05
-6.09429e-06
7.79326e-05
-6.6301e-06
7.86423e-05
-7.03129e-06
7.94968e-05
-7.26457e-06
8.04836e-05
-7.30621e-06
8.15938e-05
-7.14188e-06
8.28025e-05
-6.76928e-06
8.86623e-05
-6.14356e-06
7.8437e-05
-5.47304e-06
6.9367e-05
-4.78972e-06
6.13118e-05
-4.1182e-06
5.41202e-05
-3.47695e-06
4.77457e-05
-2.87824e-06
4.20835e-05
-2.88085e-06
3.71336e-05
-2.25335e-06
3.2644e-05
-1.69195e-06
2.86214e-05
-1.19519e-06
2.49639e-05
-7.6416e-07
2.16404e-05
-4.0669e-07
1.82908e-05
-1.45601e-07
1.3927e-05
1.74042e-05
-1.92207e-08
2.78193e-05
2.68239e-08
2.85555e-05
3.94562e-08
2.93119e-05
1.81684e-08
-1.04909e-07
1.9363e-05
-2.31412e-07
2.1545e-05
-4.02923e-07
2.39678e-05
-6.25371e-07
2.66612e-05
-9.05501e-07
2.9659e-05
-1.24996e-06
3.29943e-05
-1.66536e-06
3.67036e-05
-2.15584e-06
4.084e-05
-2.7232e-06
4.54572e-05
-3.36346e-06
5.06255e-05
-4.06732e-06
5.64271e-05
-4.81521e-06
6.29681e-05
-5.57486e-06
7.03785e-05
-6.30114e-06
7.75707e-05
-6.93654e-06
7.82391e-05
-7.44873e-06
7.90597e-05
-7.80002e-06
8.00322e-05
-7.96148e-06
8.11388e-05
-7.91338e-06
8.23653e-05
-7.64836e-06
8.36815e-05
-7.17133e-06
8.96901e-05
-6.44095e-06
7.9405e-05
-5.68226e-06
7.02595e-05
-4.92839e-06
6.2122e-05
-4.20291e-06
5.48461e-05
-3.52254e-06
4.839e-05
-3.58303e-06
4.27856e-05
-2.86548e-06
3.77457e-05
-2.22337e-06
3.31754e-05
-1.65791e-06
2.90841e-05
-1.16457e-06
2.53643e-05
-7.42529e-07
2.19762e-05
-3.96106e-07
1.85413e-05
-1.43703e-07
1.40707e-05
1.74052e-05
-1.05895e-07
2.78211e-05
-2.10026e-08
2.85588e-05
2.35196e-08
2.93152e-05
3.6096e-08
3.00898e-05
1.63974e-08
-2.30963e-07
1.93625e-05
-4.00321e-07
2.15424e-05
-6.1984e-07
2.39623e-05
-8.96293e-07
2.6652e-05
-1.23651e-06
2.96456e-05
-1.64754e-06
3.29765e-05
-2.13441e-06
3.66822e-05
-2.70042e-06
4.08173e-05
-3.344e-06
4.54378e-05
-4.05947e-06
5.06176e-05
-4.83235e-06
5.64443e-05
-5.6371e-06
6.30304e-05
-6.43696e-06
7.05143e-05
-7.17933e-06
7.78135e-05
-7.80206e-06
7.85924e-05
-8.27348e-06
7.95332e-05
-8.55953e-06
8.06303e-05
-8.63462e-06
8.18601e-05
-8.48582e-06
8.32028e-05
-8.11316e-06
8.46234e-05
-7.52858e-06
9.07777e-05
-6.69506e-06
8.04178e-05
-5.85281e-06
7.1184e-05
-5.03404e-06
6.29531e-05
-4.26064e-06
5.55842e-05
-4.38677e-06
4.91937e-05
-3.56452e-06
4.34847e-05
-2.82692e-06
3.83493e-05
-2.17757e-06
3.3695e-05
-1.61335e-06
2.95329e-05
-1.12757e-06
2.57494e-05
-7.1701e-07
2.22971e-05
-3.83015e-07
1.87806e-05
-1.40281e-07
1.4211e-05
1.74045e-05
-2.30283e-07
2.78194e-05
-1.04244e-07
2.85603e-05
-2.24932e-08
2.93183e-05
2.04446e-08
3.0093e-05
3.289e-08
3.08897e-05
1.47307e-08
-3.97529e-07
1.93597e-05
-6.14124e-07
2.15367e-05
-8.8681e-07
2.39528e-05
-1.22249e-06
2.66379e-05
-1.62847e-06
2.96265e-05
-2.1104e-06
3.29525e-05
-2.67268e-06
3.66544e-05
-3.31558e-06
4.07888e-05
-4.03626e-06
4.54145e-05
-4.82439e-06
5.06097e-05
-5.66009e-06
5.64673e-05
-6.51388e-06
6.31073e-05
-7.34179e-06
7.06768e-05
-8.08572e-06
7.80971e-05
-8.67827e-06
7.89972e-05
-9.09269e-06
8.00663e-05
-9.29742e-06
8.12931e-05
-9.27334e-06
8.26476e-05
-9.01492e-06
8.41045e-05
-8.52958e-06
8.56244e-05
-7.83695e-06
9.19196e-05
-6.90433e-06
8.14693e-05
-5.98418e-06
7.21341e-05
-5.107e-06
6.37995e-05
-5.30885e-06
5.65063e-05
-4.36558e-06
4.99948e-05
-3.5167e-06
4.41745e-05
-2.76804e-06
3.89398e-05
-2.11796e-06
3.41996e-05
-1.56012e-06
2.99654e-05
-1.08543e-06
2.61178e-05
-6.88451e-07
2.26026e-05
-3.67997e-07
1.90083e-05
-1.3571e-07
1.43467e-05
1.74016e-05
-3.94657e-07
2.78127e-05
-2.23564e-07
2.85582e-05
-1.02185e-07
2.93195e-05
-2.36787e-08
3.00958e-05
1.76024e-08
3.08927e-05
2.9843e-08
3.17096e-05
1.31672e-08
-6.08395e-07
1.9354e-05
-8.77325e-07
2.15272e-05
-1.20835e-06
2.39387e-05
-1.60891e-06
2.66184e-05
-2.08503e-06
2.96011e-05
-2.64192e-06
3.29218e-05
-3.28124e-06
3.66201e-05
-4.00234e-06
4.07549e-05
-4.7982e-06
4.53884e-05
-5.65364e-06
5.06032e-05
-6.54537e-06
5.64987e-05
-7.43712e-06
6.32026e-05
-8.27948e-06
7.08705e-05
-9.00789e-06
7.84267e-05
-9.55337e-06
7.94579e-05
-9.89338e-06
8.06623e-05
-1.00023e-05
8.2022e-05
-9.86813e-06
8.35008e-05
-9.493e-06
8.5068e-05
-8.89258e-06
8.668e-05
-8.09402e-06
9.31093e-05
-7.06769e-06
8.25528e-05
-6.07646e-06
7.31036e-05
-6.36811e-06
6.48587e-05
-5.28601e-06
5.74267e-05
-4.30811e-06
5.07862e-05
-3.44343e-06
4.48498e-05
-2.69172e-06
3.95135e-05
-2.0471e-06
3.46866e-05
-1.5001e-06
3.03801e-05
-1.03946e-06
2.64688e-05
-6.57696e-07
2.28923e-05
-3.51612e-07
1.92242e-05
-1.30319e-07
1.44771e-05
1.7396e-05
-6.02772e-07
2.77991e-05
-3.81099e-07
2.8551e-05
-2.16322e-07
2.9317e-05
-9.97354e-08
3.00967e-05
-2.45576e-08
3.08953e-05
1.49917e-08
3.17124e-05
2.69585e-08
3.25535e-05
1.17086e-08
-8.68033e-07
1.93447e-05
-1.19441e-06
2.15132e-05
-1.58938e-06
2.39192e-05
-2.0592e-06
2.65925e-05
-2.60962e-06
2.95688e-05
-3.24331e-06
3.28838e-05
-3.96132e-06
3.65791e-05
-4.75924e-06
4.07159e-05
-5.62569e-06
4.53604e-05
-6.54258e-06
5.06004e-05
-7.48031e-06
5.65419e-05
-8.39743e-06
6.33206e-05
-9.23793e-06
7.11006e-05
-9.93408e-06
7.88075e-05
-1.0414e-05
7.99785e-05
-1.06635e-05
8.13235e-05
-1.06637e-05
8.28175e-05
-1.04103e-05
8.44181e-05
-9.91404e-06
8.60894e-05
-9.19897e-06
8.7785e-05
-8.29806e-06
9.43397e-05
-7.18494e-06
8.36613e-05
-7.58415e-06
7.43196e-05
-6.34539e-06
6.59181e-05
-5.21883e-06
5.83375e-05
-4.21926e-06
5.1562e-05
-3.34855e-06
4.55067e-05
-2.60128e-06
4.00677e-05
-1.96756e-06
3.51541e-05
-1.43515e-06
3.07758e-05
-9.9086e-07
2.6802e-05
-6.25533e-07
2.31662e-05
-3.34372e-07
1.94283e-05
-1.2437e-07
1.46014e-05
1.73871e-05
-8.59069e-07
2.77767e-05
-5.80361e-07
2.85367e-05
-3.66824e-07
2.93092e-05
-2.08499e-07
3.00938e-05
-9.68625e-08
3.08959e-05
-2.51302e-08
3.17148e-05
1.26122e-08
3.25562e-05
2.42339e-08
3.34194e-05
1.03517e-08
-1.1809e-06
1.93312e-05
-1.57027e-06
2.14941e-05
-2.03357e-06
2.38935e-05
-2.57686e-06
2.65598e-05
-3.20356e-06
2.95291e-05
-3.91598e-06
3.28385e-05
-4.71176e-06
3.65316e-05
-5.58255e-06
4.06728e-05
-6.51456e-06
4.53324e-05
-7.48387e-06
5.0604e-05
-8.45607e-06
5.66006e-05
-9.38317e-06
6.34658e-05
-1.02056e-05
7.13721e-05
-1.08508e-05
7.92442e-05
-1.12476e-05
8.05627e-05
-1.13918e-05
8.20516e-05
-1.12719e-05
8.36792e-05
-1.08927e-05
8.53967e-05
-1.02739e-05
8.71644e-05
-9.44628e-06
8.89332e-05
-8.44849e-06
9.56032e-05
-8.97883e-06
8.5056e-05
-7.56452e-06
7.55387e-05
-6.26893e-06
6.69682e-05
-5.11332e-06
5.92315e-05
-4.10389e-06
5.23174e-05
-3.23625e-06
4.61416e-05
-2.50001e-06
4.06001e-05
-1.88179e-06
3.56007e-05
-1.36691e-06
3.11518e-05
-9.40714e-07
2.71171e-05
-5.9268e-07
2.34245e-05
-3.16669e-07
1.96206e-05
-1.18096e-07
1.47195e-05
1.73741e-05
-1.16798e-06
2.77431e-05
-8.25438e-07
2.85134e-05
-5.57064e-07
2.92943e-05
-3.51876e-07
3.00855e-05
-2.00184e-07
3.08926e-05
-9.35924e-08
3.17151e-05
-2.53936e-08
3.25583e-05
1.04637e-08
3.34219e-05
2.16728e-08
3.43053e-05
9.09528e-09
-1.55186e-06
1.93128e-05
-2.00859e-06
2.14692e-05
-2.54444e-06
2.38611e-05
-3.16331e-06
2.65195e-05
-3.86844e-06
2.94816e-05
-4.65904e-06
3.27858e-05
-5.52918e-06
3.64782e-05
-6.46856e-06
4.06268e-05
-7.45802e-06
4.53065e-05
-8.46924e-06
5.06172e-05
-9.46151e-06
5.66789e-05
-1.03832e-05
6.36434e-05
-1.11691e-05
7.16904e-05
-1.17451e-05
7.97417e-05
-1.20424e-05
8.12132e-05
-1.20677e-05
8.28475e-05
-1.1819e-05
8.46055e-05
-1.13104e-05
8.64332e-05
-1.05694e-05
8.82875e-05
-9.63338e-06
9.01181e-05
-1.05757e-05
9.72001e-05
-8.96764e-06
8.64591e-05
-7.48029e-06
7.67501e-05
-6.14598e-06
6.80009e-05
-4.97546e-06
6.01031e-05
-3.96717e-06
5.30483e-05
-3.11056e-06
4.67522e-05
-2.39096e-06
4.11093e-05
-1.79192e-06
3.60257e-05
-1.29687e-06
3.1508e-05
-8.90007e-07
2.74145e-05
-5.59659e-07
2.36675e-05
-2.98871e-07
1.98014e-05
-1.11672e-07
1.48312e-05
1.73566e-05
-1.53433e-06
2.76958e-05
-1.12071e-06
2.84787e-05
-7.90708e-07
2.927e-05
-5.32827e-07
3.00698e-05
-3.36199e-07
3.08838e-05
-1.91325e-07
3.17114e-05
-8.99164e-08
3.25583e-05
-2.53551e-08
3.34238e-05
8.53993e-09
3.43077e-05
1.9273e-08
3.52192e-05
7.9379e-09
-1.9846e-06
1.92888e-05
-2.51291e-06
2.14376e-05
-3.1235e-06
2.38213e-05
-3.82027e-06
2.64713e-05
-4.60358e-06
2.94261e-05
-5.46943e-06
3.2726e-05
-6.4103e-06
3.642e-05
-7.41099e-06
4.05798e-05
-8.44836e-06
4.52857e-05
-9.48813e-06
5.06438e-05
-1.0486e-05
5.67817e-05
-1.13842e-05
6.38585e-05
-1.21154e-05
7.20607e-05
-1.26048e-05
8.03041e-05
-1.27869e-05
8.19324e-05
-1.26824e-05
8.37109e-05
-1.2299e-05
8.5594e-05
-1.16594e-05
8.75232e-05
-1.07987e-05
8.94529e-05
-1.20812e-05
9.16235e-05
-1.0582e-05
9.88145e-05
-8.87945e-06
8.78582e-05
-7.34012e-06
7.79442e-05
-5.98379e-06
6.90092e-05
-4.81153e-06
6.09475e-05
-3.81402e-06
5.37518e-05
-2.97529e-06
4.73365e-05
-2.27685e-06
4.15942e-05
-1.69985e-06
3.64287e-05
-1.22632e-06
3.18443e-05
-8.39435e-07
2.76942e-05
-5.26976e-07
2.38956e-05
-2.81255e-07
1.9971e-05
-1.0523e-07
1.49364e-05
1.73338e-05
-1.9618e-06
2.76319e-05
-1.47037e-06
2.84301e-05
-1.07209e-06
2.92343e-05
-7.54928e-07
3.00447e-05
-5.07724e-07
3.08674e-05
-3.19865e-07
3.17021e-05
-1.81963e-07
3.25542e-05
-8.58505e-08
3.34235e-05
-2.50119e-08
3.43094e-05
6.83829e-09
3.52214e-05
1.70312e-08
3.61551e-05
6.87622e-09
-2.48267e-06
1.92585e-05
-3.08482e-06
2.1399e-05
-3.7726e-06
2.37736e-05
-4.54725e-06
2.6415e-05
-5.40623e-06
2.93629e-05
-6.34424e-06
3.266e-05
-7.34932e-06
3.63583e-05
-8.40268e-06
4.05341e-05
-9.4756e-06
4.52731e-05
-1.05304e-05
5.06882e-05
-1.15165e-05
5.6914e-05
-1.23734e-05
6.41166e-05
-1.30319e-05
7.24878e-05
-1.34177e-05
8.09349e-05
-1.34713e-05
8.27214e-05
-1.32288e-05
8.46407e-05
-1.27069e-05
8.66416e-05
-1.19371e-05
8.86615e-05
-1.3571e-05
9.09426e-05
-1.21127e-05
9.31543e-05
-1.04965e-05
0.000100432
-8.72409e-06
8.92422e-05
-7.15267e-06
7.91131e-05
-5.78995e-06
6.99876e-05
-4.62752e-06
6.1761e-05
-3.64907e-06
5.44255e-05
-2.83376e-06
4.78934e-05
-2.16004e-06
4.20544e-05
-1.60727e-06
3.68097e-05
-1.15619e-06
3.2161e-05
-7.8968e-07
2.7957e-05
-4.95007e-07
2.41094e-05
-2.64016e-07
2.01297e-05
-9.88737e-08
1.50353e-05
1.73051e-05
-2.45398e-06
2.7548e-05
-1.87797e-06
2.83643e-05
-1.40464e-06
2.91841e-05
-1.02188e-06
3.00077e-05
-7.17923e-07
3.08415e-05
-4.81751e-07
3.16851e-05
-3.02903e-07
3.25444e-05
-1.72111e-07
3.34191e-05
-8.14032e-08
3.43087e-05
-2.43678e-08
3.52229e-05
5.35182e-09
3.61572e-05
1.49422e-08
3.6589e-05
5.92013e-09
-3.04773e-06
1.92215e-05
-3.72626e-06
2.13526e-05
-4.49142e-06
2.37178e-05
-5.34178e-06
2.63506e-05
-6.27381e-06
2.92925e-05
-7.27813e-06
3.25888e-05
-8.3396e-06
3.62952e-05
-9.43422e-06
4.04927e-05
-1.05301e-05
4.52729e-05
-1.15835e-05
5.07551e-05
-1.25405e-05
5.70811e-05
-1.33381e-05
6.44228e-05
-1.39062e-05
7.29763e-05
-1.41734e-05
8.1637e-05
-1.4088e-05
8.35805e-05
-1.37012e-05
8.5635e-05
-1.30395e-05
8.7744e-05
-1.50369e-05
9.01274e-05
-1.36379e-05
9.24678e-05
-1.20386e-05
9.46964e-05
-1.03306e-05
0.000102038
-8.51154e-06
9.06011e-05
-6.92683e-06
8.025e-05
-5.57164e-06
7.09317e-05
-4.42903e-06
6.25409e-05
-3.47637e-06
5.50681e-05
-2.68887e-06
4.84223e-05
-2.04263e-06
4.24898e-05
-1.51533e-06
3.71688e-05
-1.08735e-06
3.24587e-05
-7.4124e-07
2.82032e-05
-4.63999e-07
2.43093e-05
-2.47314e-07
2.02782e-05
-9.26864e-08
1.5128e-05
1.72699e-05
-3.01255e-06
2.74409e-05
-2.34683e-06
2.82788e-05
-1.79239e-06
2.91168e-05
-1.33736e-06
2.99563e-05
-9.70437e-07
3.08035e-05
-6.79972e-07
3.16583e-05
-4.54965e-07
3.25268e-05
-2.85292e-07
3.34087e-05
-1.61794e-07
3.43039e-05
-7.65944e-08
3.52219e-05
-2.34219e-08
3.61584e-05
4.07753e-09
3.65909e-05
1.30218e-08
3.55528e-05
5.09307e-09
-3.68181e-06
1.9177e-05
-4.43706e-06
2.12983e-05
-5.27771e-06
2.36537e-05
-6.20158e-06
2.62784e-05
-7.20139e-06
2.92157e-05
-8.26495e-06
3.25141e-05
-9.37227e-06
3.62333e-05
-1.04965e-05
4.04591e-05
-1.15999e-05
4.52893e-05
-1.26351e-05
5.08497e-05
-1.35454e-05
5.72883e-05
-1.42657e-05
6.47823e-05
-1.47271e-05
7.353e-05
-1.48633e-05
8.24122e-05
-1.46301e-05
8.45094e-05
-1.40955e-05
8.6691e-05
-1.64688e-05
8.9176e-05
-1.51507e-05
9.16402e-05
-1.35855e-05
9.40146e-05
-1.18712e-05
9.62371e-05
-1.00955e-05
0.000103622
-8.25223e-06
9.19265e-05
-6.67102e-06
8.13494e-05
-5.3356e-06
7.18383e-05
-4.22095e-06
6.32855e-05
-3.29947e-06
5.56787e-05
-2.54321e-06
4.89228e-05
-1.92606e-06
4.29005e-05
-1.42517e-06
3.75066e-05
-1.02046e-06
3.27379e-05
-6.94424e-07
2.84336e-05
-4.34161e-07
2.44962e-05
-2.31275e-07
2.04168e-05
-8.67229e-08
1.52147e-05
1.72277e-05
-3.63961e-06
2.73076e-05
-2.87926e-06
2.81697e-05
-2.23774e-06
2.9029e-05
-1.70461e-06
2.98874e-05
-1.26849e-06
3.07508e-05
-9.17695e-07
3.16193e-05
-6.41008e-07
3.24993e-05
-4.27484e-07
3.33906e-05
-2.67155e-07
3.42932e-05
-1.51067e-07
3.52168e-05
-7.14521e-08
3.61572e-05
-2.22025e-08
3.65919e-05
3.02346e-09
3.55545e-05
1.13167e-08
3.45447e-05
4.37503e-09
-4.38486e-06
1.91248e-05
-5.21519e-06
2.12357e-05
-6.12948e-06