/*--------------------------------*- C++ -*----------------------------------*\
  =========                 |
  \\      /  F ield         | OpenFOAM: The Open Source CFD Toolbox
   \\    /   O peration     | Website:  https://openfoam.org
    \\  /    A nd           | Version:  8
     \\/     M anipulation  |
\*---------------------------------------------------------------------------*/
FoamFile
{
    version     2.0;
    format      ascii;
    class       volScalarField;
    location    "0.2";
    object      p;
}
// * * * * * * * * * * * * * * * * * * * * * * * * * * * * * * * * * * * * * //

dimensions      [0 2 -2 0 0 0 0];

internalField   nonuniform List<scalar> 
15677
(
80.3441
79.9875
79.5749
80.052
79.5631
79.5771
80.0271
79.5903
79.5865
79.4713
80.0017
79.5917
79.5867
79.4803
79.3808
79.9799
79.5939
79.5866
79.4795
79.3884
79.2861
79.9564
79.5962
79.5862
79.4806
79.3882
79.2928
79.174
79.9313
79.5988
79.5854
79.4809
79.3892
79.2928
79.1798
79.0405
79.9051
79.6019
79.5839
79.481
79.3898
79.2937
79.1799
79.0456
78.8788
79.8778
79.6039
79.582
79.4808
79.3902
79.2943
79.1808
79.0458
78.8832
78.6817
79.8492
79.6054
79.5794
79.4804
79.3906
79.2949
79.1815
79.0469
78.8836
78.6854
78.4418
79.8197
79.607
79.576
79.4801
79.3909
79.2956
79.1823
79.0477
78.8848
78.6859
78.4447
78.1512
79.7897
79.608
79.5727
79.4802
79.3915
79.2964
79.1834
79.0488
78.8859
78.6873
78.4454
78.1534
77.802
79.76
79.608
79.5691
79.4805
79.3924
79.2976
79.1847
79.0503
78.8873
78.6887
78.447
78.1543
77.8034
77.3864
79.7333
79.6067
79.5655
79.4813
79.394
79.2995
79.1868
79.0523
78.8893
78.6907
78.4489
78.1561
77.8045
77.3869
76.8968
79.7104
79.6046
79.5619
79.4826
79.3966
79.3024
79.1898
79.0553
78.8922
78.6934
78.4514
78.1585
77.8067
77.3882
76.8963
76.3263
79.6903
79.6025
79.5589
79.4844
79.4003
79.3068
79.1945
79.0599
78.8965
78.6974
78.4551
78.1618
77.8096
77.3907
76.8978
76.3247
75.6689
79.6729
79.6004
79.5566
79.4868
79.4055
79.3131
79.2013
79.0666
78.9029
78.7032
78.4604
78.1666
77.8139
77.3944
76.9008
76.3265
75.666
74.9195
79.6577
79.5984
79.5549
79.4896
79.4119
79.3217
79.2108
79.0763
78.9123
78.7119
78.4682
78.1736
77.8201
77.3998
76.9053
76.3299
75.668
74.9152
74.0745
79.6446
79.5965
79.5537
79.4928
79.4189
79.3323
79.224
79.09
78.9257
78.7246
78.4798
78.1838
77.829
77.4075
76.912
76.3353
75.6719
74.9175
74.0688
73.1319
79.6333
79.5947
79.5531
79.4965
79.4266
79.3439
79.24
79.1088
78.9447
78.7429
78.4967
78.1989
77.8422
77.4188
76.9216
76.3434
75.6784
74.9219
74.0714
73.1246
72.0914
79.6243
79.5931
79.553
79.5005
79.435
79.3565
79.2574
79.1316
78.9706
78.7684
78.5208
78.2208
77.8615
77.4354
76.9355
76.355
75.688
74.9294
74.0762
73.1275
72.0823
70.9544
79.6175
79.5916
79.5533
79.5049
79.444
79.3702
79.2765
79.1565
79.0022
78.8034
78.5546
78.2521
77.8894
77.4596
76.9559
76.372
75.7018
74.9406
74.0848
73.1327
72.0854
70.9435
69.7249
79.6122
79.5901
79.554
79.5097
79.4534
79.3847
79.297
79.1837
79.0366
78.846
78.6008
78.2959
77.9293
77.4947
76.9858
76.3967
75.722
74.9568
74.0976
73.1423
72.0911
70.9469
69.712
68.4081
79.608
79.5889
79.5549
79.5145
79.4632
79.3999
79.3187
79.2129
79.0742
78.8924
78.6571
78.356
77.9852
77.5447
77.029
76.4329
75.7515
74.9804
74.1162
73.1567
72.1016
70.9528
69.7155
68.3931
67.0168
79.6047
79.588
79.5559
79.519
79.4728
79.4156
79.3414
79.2439
79.1147
78.9433
78.7186
78.4291
78.0617
77.6146
77.0907
76.4853
75.7945
75.0148
74.1432
73.1776
72.1175
70.9641
69.7214
68.3965
66.9992
65.5817
79.6021
79.5872
79.557
79.5232
79.4818
79.4311
79.3649
79.2764
79.1576
78.9981
78.786
78.5091
78.1551
77.7107
77.1769
76.56
75.857
75.0653
74.1827
73.208
72.1405
70.9811
69.7332
68.402
67
65.5278
64.0433
79.6
79.5865
79.558
79.527
79.4898
79.4454
79.388
79.31
79.2025
79.0562
78.8587
78.5968
78.2573
77.828
77.2954
76.6646
75.946
75.1384
74.2407
73.2525
72.1739
71.0058
69.7509
68.4138
67.0039
65.5301
63.9775
62.3873
79.5983
79.586
79.5591
79.5304
79.4971
79.4582
79.4092
79.3428
79.2491
79.117
78.9358
78.6915
78.3697
77.9566
77.4405
76.8087
76.071
75.2429
74.3249
73.318
72.2232
71.0419
69.7768
68.4316
67.0139
65.5302
63.98
62.3581
60.6859
79.5969
79.5855
79.5599
79.5336
79.5036
79.4698
79.4283
79.373
79.2946
79.1801
79.0167
78.7921
78.4911
78.0982
77.5999
76.9854
76.2434
75.3898
74.4457
73.4135
72.296
71.0954
69.8148
68.4577
67.03
65.5371
63.9735
62.3502
60.6758
58.9466
79.5957
79.5852
79.5606
79.5365
79.5094
79.4801
79.4454
79.4003
79.3365
79.2419
79.1005
78.8977
78.6203
78.2514
77.7756
77.1798
76.4553
75.593
74.6159
73.5509
72.4024
71.1747
69.8714
68.4964
67.0547
65.5503
63.9796
62.34
60.6588
58.9423
56.9934
79.5947
79.5849
79.5613
79.5392
79.5146
79.4894
79.4608
79.4247
79.3743
79.2987
79.1828
79.0073
78.756
78.4147
77.966
77.3947
76.689
75.8435
74.8519
73.7451
72.5561
71.2914
69.9561
68.5549
67.0923
65.572
63.9909
62.3474
60.6495
58.9232
56.9922
54.8063
79.5939
79.5847
79.5619
79.5416
79.5192
79.4976
79.4744
79.4466
79.4082
79.35
79.2584
79.115
78.8971
78.5865
78.1694
77.628
76.948
76.1206
75.1438
74.0151
72.7743
71.4606
70.0817
68.6434
67.1508
65.6071
64.0106
62.3581
60.6572
58.916
56.9742
54.807
52.6109
79.5932
79.5845
79.5624
79.5437
79.5233
79.5048
79.4865
79.4661
79.4385
79.396
79.3268
79.2141
79.0359
78.7654
78.3838
77.8776
77.2298
76.4283
75.4675
74.3503
73.0789
71.702
70.2651
68.7761
67.2412
65.6639
64.0436
62.3772
60.6676
58.922
56.9671
54.7903
52.6132
50.4431
79.5926
79.5843
79.563
79.5456
79.5269
79.5113
79.4973
79.4833
79.4655
79.4372
79.3882
79.3038
79.1637
78.9417
78.6074
78.1414
77.5321
76.764
75.8281
74.7233
73.4584
72.0407
70.5283
68.9717
67.3789
65.7544
64.0987
62.4088
60.6864
58.9322
56.97
54.783
52.5982
50.4454
48.3207
79.5842
79.5919
79.5635
79.5472
79.5301
79.517
79.5068
79.4987
79.4895
79.4739
79.4432
79.3845
79.2796
79.1043
78.8282
78.4172
77.8524
77.1252
76.2228
75.1402
73.8825
72.4647
70.8995
69.2545
67.5841
65.8948
64.1883
62.4624
60.7167
58.95
56.9789
54.7827
52.5907
50.4315
48.3226
46.254
79.5639
79.5841
79.5912
79.5487
79.533
79.5221
79.5153
79.5123
79.5108
79.5065
79.4922
79.4566
79.3839
79.2519
79.0323
78.6901
78.188
77.5089
76.6486
75.598
74.3581
72.9403
71.3667
69.6557
67.8835
66.107
64.3299
62.5508
60.7681
58.9779
56.9939
54.789
52.5874
50.423
48.3094
46.2555
44.2534
79.5499
79.5646
79.584
79.5905
79.5355
79.5266
79.5228
79.5243
79.5297
79.5355
79.5358
79.521
79.4773
79.3849
79.2178
78.9429
78.521
77.9122
77.1024
76.0937
74.8824
73.4759
71.8931
70.1637
68.3114
66.4196
64.5467
62.6922
60.854
59.026
57.0178
54.7994
52.5904
50.4165
48.2996
46.2428
44.2541
42.3273
79.5377
79.5517
79.5655
79.5839
79.5898
79.5306
79.5295
79.535
79.5464
79.5612
79.5745
79.5783
79.5607
79.5042
79.3852
79.1731
78.8303
78.3135
77.581
76.6238
75.452
74.0686
72.4886
70.7389
68.8565
66.87
64.8691
62.911
60.9932
59.1076
57.0604
54.817
52.5952
50.415
48.2894
46.2313
44.2417
42.3271
40.4817
79.534
79.5407
79.5537
79.5664
79.5839
79.5891
79.5354
79.5445
79.5613
79.584
79.6088
79.6293
79.635
79.6107
79.5355
79.3811
79.1124
78.6872
78.0588
77.1848
76.0636
74.7152
73.1503
71.3926
69.4771
67.4476
65.3371
63.2392
61.2109
59.242
57.1348
54.8509
52.6051
50.4131
48.2827
46.2174
44.2284
42.3149
40.4806
38.7206
79.5403
79.5386
79.544
79.5557
79.5673
79.5838
79.5886
79.5529
79.5745
79.6042
79.6393
79.6745
79.701
79.7058
79.67
79.5683
79.3681
79.0291
78.5053
77.7472
76.7136
75.4124
73.8754
72.1222
70.1857
68.1088
65.9416
63.7195
61.5406
59.455
57.2608
54.9142
52.6281
50.4137
48.2732
46.205
44.2106
42.2995
40.4684
38.7186
37.0462
79.56
79.5471
79.5435
79.5474
79.5577
79.5683
79.5838
79.588
79.5861
79.6221
79.6663
79.7146
79.7597
79.7903
79.79
79.736
79.5984
79.3396
78.9148
78.2744
77.3678
76.1565
74.6606
72.9255
70.9805
68.8675
66.6372
64.3441
62.0271
59.7813
57.4644
55.0265
52.6772
50.4239
48.2633
46.1872
44.1923
42.2779
40.4509
38.7064
37.0435
35.4596
79.5959
79.5695
79.5539
79.5485
79.5507
79.5597
79.5692
79.5838
79.5875
79.638
79.6903
79.7501
79.8117
79.8654
79.8969
79.8858
79.8051
79.6199
79.2877
78.7596
77.9834
76.9089
75.5027
73.7995
71.8596
69.7225
67.4394
65.0667
62.664
60.2672
57.7815
55.2141
52.7716
50.4561
48.2588
46.1657
44.1658
42.2534
40.4255
38.6867
37.0312
35.4561
33.9602
79.6513
79.609
79.5786
79.5608
79.5533
79.554
79.5616
79.5701
79.5837
79.5871
79.7116
79.7818
79.858
79.9322
79.992
80.0194
79.99
79.8719
79.6252
79.2027
78.5521
77.62
76.3583
74.7415
72.8211
70.6733
68.3482
65.9044
63.405
60.9076
58.259
55.5133
52.9376
50.529
48.2719
46.1454
44.1321
42.2179
40.3948
38.6576
37.0092
35.4436
33.9561
32.5469
79.7293
79.6689
79.6208
79.5878
79.5675
79.558
79.5571
79.5635
79.571
79.5837
79.5867
79.8098
79.8991
79.9915
80.0765
80.1383
80.1551
80.0977
79.9292
79.6047
79.073
78.2793
77.1707
75.7037
73.863
71.7188
69.3642
66.8585
64.2686
61.6574
58.8937
55.9704
53.2109
50.6686
48.3206
46.1379
44.0951
42.1717
40.3503
38.6208
36.9766
35.4195
33.9435
32.5421
31.2174
79.8331
79.7527
79.6842
79.6331
79.5969
79.5741
79.5626
79.5601
79.5652
79.5719
79.5837
79.5863
79.9355
80.0443
80.1516
80.2441
80.3023
80.2997
80.2022
79.9679
79.5472
78.8855
77.9272
76.6219
74.9331
72.858
70.4877
67.9313
65.2582
62.5364
59.6422
56.585
53.636
50.9088
48.4298
46.1602
44.0658
42.1177
40.2914
38.5673
36.9338
35.3835
33.9173
32.5293
31.2121
29.9693
79.9656
79.8639
79.7722
79.7001
79.645
79.6056
79.5803
79.567
79.5631
79.567
79.5728
79.5837
79.586
80.091
80.2186
80.3382
80.4334
80.48
80.4468
80.2946
79.9765
79.439
78.6254
77.4808
75.9596
74.035
71.7191
69.1244
66.3771
63.5494
60.5259
57.3165
54.2154
51.2917
48.6306
46.2356
44.0603
42.066
40.2201
38.4958
36.8715
35.3348
33.878
32.5012
31.1991
29.9635
28.7992
80.1295
80.0057
79.8885
79.7926
79.7155
79.6564
79.614
79.5864
79.5713
79.5659
79.5686
79.5736
79.5838
79.5857
80.2778
80.4223
80.5501
80.6407
80.6654
80.5879
80.3638
79.9418
79.2652
78.2767
76.9245
75.1703
72.9993
70.4402
67.629
64.7017
61.5511
58.1872
54.9128
51.8228
48.9626
46.3921
44.0993
42.0317
40.146
38.4075
36.7877
35.2641
33.8238
32.4589
31.1691
29.9502
28.793
27.7039
80.3264
80.1811
80.0365
79.9144
79.8123
79.7302
79.6672
79.6219
79.5921
79.5753
79.5685
79.5702
79.5744
79.5838
79.5855
80.4966
80.6544
80.784
80.8606
80.8505
80.7122
80.3965
79.8481
79.0088
77.8226
76.2429
74.2414
71.8169
69.0185
65.9993
62.7252
59.2051
55.7502
52.4706
49.4339
46.6658
44.2078
42.0327
40.0826
38.3112
36.6827
35.1682
33.7449
32.3992
31.124
29.9185
28.7796
27.6973
26.6797
80.5572
80.3922
80.2194
80.0692
79.9394
79.8309
79.744
79.6774
79.6293
79.5975
79.579
79.571
79.5717
79.5751
79.5838
79.5853
80.7466
80.9121
81.0348
81.0853
81.0248
80.8064
80.3769
79.6782
78.6521
77.2461
75.4213
73.161
70.4825
67.4492
64.0568
60.38
56.7371
53.2554
50.0176
47.0672
44.4173
42.0903
40.0445
38.2186
36.5647
35.0472
33.6375
32.3126
31.0593
29.8707
28.7462
27.6836
26.6728
25.7231
80.8215
80.6404
80.4396
80.2603
80.1006
79.9628
79.8483
79.7569
79.6869
79.6363
79.6025
79.5826
79.5733
79.5731
79.5758
79.5839
79.5852
81.0255
81.1909
81.2952
81.3046
81.175
80.8548
80.2873
79.4133
78.1765
76.5301
74.445
71.9211
68.9875
65.5559
61.7239
57.8859
54.1885
50.7321
47.574
44.7406
42.2316
40.0497
38.1411
36.4433
34.9083
33.5011
32.1943
30.9653
29.8012
28.6959
27.6487
26.6589
25.7158
24.8303
81.117
80.926
80.6988
80.4905
80.2995
80.1298
79.9846
79.8645
79.7688
79.6957
79.6427
79.6071
79.5858
79.5754
79.5743
79.5764
79.5839
79.5851
81.3288
81.4836
81.5554
81.5057
81.2856
80.8394
80.1083
79.0336
77.5632
75.6581
73.3036
70.5092
67.1592
63.2504
59.2117
55.2839
51.5888
48.2011
45.1591
42.47
40.1201
38.0932
36.3269
34.7587
33.3421
32.0434
30.8367
29.7004
28.622
27.5962
26.6226
25.7017
24.8226
23.9975
81.4396
81.2472
80.9977
80.7621
80.5392
80.3358
80.1568
80.0046
79.8793
79.7797
79.7037
79.6486
79.6113
79.5886
79.5772
79.5753
79.577
79.584
79.585
81.6498
81.7807
81.8025
81.6729
81.3383
80.7401
79.8189
78.5188
76.7936
74.6167
71.9804
68.7582
64.8996
60.7314
56.5584
52.602
48.9592
45.6835
42.7909
40.2685
38.0912
36.2261
34.6042
33.1654
31.8652
30.6721
29.562
28.5147
27.5181
26.568
25.6641
24.8083
23.9891
23.2243
81.7827
81.6009
81.3353
81.076
80.8223
80.584
80.369
80.1814
80.0228
79.8927
79.7895
79.7109
79.6538
79.6149
79.5911
79.5788
79.5762
79.5774
79.584
79.585
81.9793
82.0698
82.0213
81.7878
81.3126
80.5351
79.3975
77.8482
75.8515
73.3855
70.3163
66.56
62.3874
58.0291
53.7873
49.8599
46.3215
43.1991
40.4846
38.1466
36.1513
34.4513
32.9739
31.6625
30.4757
29.3846
28.3672
27.4048
26.486
25.6078
24.7695
23.9747
23.2117
22.5828
82.137
81.9814
81.7088
81.432
81.1503
80.8775
80.625
80.3992
80.2036
80.039
79.9045
79.7982
79.7171
79.6582
79.6179
79.5931
79.5801
79.577
79.5779
79.5841
79.585
82.3049
82.3357
82.1931
81.8296
81.1858
80.2016
78.8216
77.0033
74.714
71.8147
68.1893
64.0646
59.6402
55.1602
50.9172
47.0818
43.6988
40.7659
38.2527
36.112
34.3043
32.7704
31.4355
30.2483
29.1711
28.1779
27.2489
26.3672
25.5221
24.7116
23.9351
23.1978
22.5784
22.0434
82.4905
82.3805
82.1135
81.828
81.5234
81.2181
80.9277
80.6618
80.4261
80.2232
80.0532
79.9148
79.8055
79.7223
79.6617
79.6204
79.5949
79.5812
79.5776
79.5782
79.5841
79.5849
82.6116
82.5598
82.2971
81.7751
80.9344
79.7154
78.0705
75.9592
73.2389
69.7622
65.7153
61.2797
56.674
52.1479
47.9779
44.2959
41.1133
38.3998
36.1053
34.1702
32.5525
31.1831
29.9874
28.9203
27.9484
27.0485
26.2035
25.3983
24.6227
23.8759
23.1573
22.5689
22.0485
21.4814
82.8275
82.7874
82.5422
82.2601
81.9404
81.6066
81.2794
80.9725
80.6944
80.4496
80.2399
80.0651
79.9232
79.8114
79.7263
79.6646
79.6224
79.5963
79.5821
79.5781
79.5786
79.5842
79.5849
82.8806
82.7212
82.3093
81.5995
80.5322
79.054
77.1176
74.5781
71.2597
67.3139
62.9057
58.2331
53.5245
49.0328
45.006
41.5312
38.5862
36.1146
34.0503
32.3251
30.8963
29.6883
28.6273
27.6756
26.804
25.9927
25.2272
24.4942
23.7839
23.0971
22.5281
22.0401
21.4815
20.8744
83.1292
83.1879
82.9849
82.7224
82.3981
82.0424
81.6816
81.334
81.0118
80.7224
80.4694
80.2538
80.0748
79.9297
79.8158
79.7294
79.6667
79.624
79.5974
79.5828
79.5786
79.5789
79.5842
79.585
83.0906
82.7954
82.2044
81.2758
79.9555
78.1884
75.8263
72.6701
68.845
64.5022
59.8111
54.977
50.2431
45.8601
42.0379
38.8148
36.1356
33.9214
32.0935
30.5784
29.3353
28.2838
27.3523
26.5105
25.7342
25.007
24.3164
23.6512
23.0024
22.4677
22.0001
21.4693
20.869
20.2113
83.3736
83.5648
83.4289
83.206
82.8916
82.5232
82.1341
81.7481
81.3815
81.0453
80.7457
80.4854
80.2646
80.0818
79.9343
79.8189
79.7316
79.6683
79.6251
79.5983
79.5834
79.579
79.5791
79.5843
79.585
83.2168
82.7566
81.9543
80.7782
79.1724
76.9813
73.9882
70.301
66.0598
61.4001
56.4929
51.566
46.8783
42.671
39.1058
36.1697
33.7766
31.8284
30.2383
28.9303
27.8676
26.9668
26.1588
25.4216
24.7355
24.0873
23.4672
22.8658
22.3707
21.9391
21.4293
20.8536
20.2038
19.4912
83.5348
83.8977
83.8579
83.6996
83.4133
83.045
82.6355
82.2151
81.8056
81.4216
81.0727
80.7641
80.4973
80.2721
80.0864
79.9372
79.8208
79.7329
79.6693
79.6259
79.5989
79.5839
79.5793
79.5793
79.5844
79.585
83.2322
82.5756
81.5313
80.0723
78.0434
75.2134
71.6782
67.5699
62.9886
58.0649
52.9977
48.0434
43.471
39.5012
36.2374
33.6149
31.5203
29.8412
28.4861
27.3799
26.4907
25.7338
25.0432
24.4049
23.8038
23.23
22.676
22.231
21.8402
21.3669
20.8124
20.1875
19.4827
18.7117
83.5844
84.1628
84.2529
84.1885
83.9532
83.6012
83.1824
82.7344
82.2849
81.8537
81.454
81.0939
80.7773
80.505
80.2764
80.0888
79.9386
79.8217
79.7336
79.6699
79.6264
79.5993
79.5842
79.5796
79.5794
79.5845
79.5851
83.1065
82.2234
80.8987
79.0157
76.3463
72.9745
69.0234
64.5602
59.675
54.5288
49.3579
44.4449
40.0573
36.3819
33.4557
31.165
29.3745
27.9626
26.8368
25.925
25.2014
24.5813
24.0017
23.4565
22.9352
22.4313
22.0366
21.6979
21.2661
20.748
20.1451
19.4663
18.7026
17.8683
83.4898
84.334
84.591
84.6553
84.4982
84.1833
83.7697
83.3034
82.8194
82.343
81.8922
81.4785
81.1085
80.7851
80.5088
80.278
80.0893
79.9387
79.8217
79.7336
79.67
79.6265
79.5995
79.5845
79.5799
79.5796
79.5845
79.5852
82.808
81.661
79.9114
77.3902
74.1872
70.411
66.0968
61.2981
56.1356
50.8117
45.6011
40.8037
36.6699
33.3394
30.7789
28.8306
27.344
26.1935
25.2889
24.5627
23.9962
23.5053
23.0303
22.5725
22.1262
21.7858
21.4997
21.1207
20.6448
20.0783
19.4226
18.6858
17.8588
16.9559
83.2146
84.3827
84.8468
85.0791
85.0325
84.7796
84.3898
83.9181
83.4073
82.8898
82.389
81.9206
81.4946
81.1162
80.788
80.5091
80.2771
80.0881
79.9376
79.8209
79.7331
79.6696
79.6264
79.5999
79.585
79.5801
79.5796
79.5847
79.5853
82.2951
80.7395
78.3604
75.3162
71.7231
67.5809
62.9079
57.787
52.3791
46.9324
41.756
37.1525
33.3387
30.3962
28.2209
26.6186
25.4309
24.5329
23.8395
23.2894
22.8711
22.5017
22.1249
21.7491
21.4723
21.2439
20.9185
20.4961
19.9725
19.3537
18.6408
17.8414
16.9461
15.9695
82.7117
84.2775
84.9913
85.4358
85.5369
85.376
85.0328
84.5719
84.0454
83.4932
82.9453
82.4226
81.9387
81.5023
81.1179
80.7865
80.5063
80.2741
80.0854
79.9355
79.8193
79.7319
79.6689
79.6268
79.6006
79.5853
79.5802
79.5796
79.5848
79.5855
81.4128
79.2649
76.3765
72.9544
68.9964
64.4799
59.4502
54.026
48.4153
42.9134
37.8538
33.5242
30.0908
27.5701
25.7911
24.5328
23.635
22.9784
22.4851
22.1012
21.822
21.5666
21.2817
21.0837
20.9234
20.6572
20.2894
19.8201
19.2452
18.5699
17.7952
16.9283
15.9595
14.9039
83.9795
81.8231
84.9915
85.6986
85.989
85.9551
85.6859
85.2564
84.7284
84.1508
83.5608
82.9854
82.4432
81.9463
81.5023
81.1141
80.7812
80.501
80.2693
80.0815
79.9325
79.817
79.7303
79.6691
79.6277
79.6009
79.5854
79.5802
79.5796
79.5848
79.5856
79.9854
77.3736
74.1187
70.3332
65.9921
61.095
55.7156
50.0167
44.2596
38.7826
33.9289
29.951
26.9499
24.875
23.4959
22.574
21.9543
21.5267
21.222
20.9938
20.8447
20.6958
20.6005
20.5251
20.3292
20.0223
19.6087
19.0888
18.4584
17.7221
16.8808
15.9413
14.8939
13.7539
84.8117
83.3376
80.3766
85.8351
86.3643
86.4964
86.3336
85.9604
85.4492
84.8583
84.2336
83.6093
83.0096
82.4509
81.9445
81.4957
81.1058
80.7728
80.4934
80.263
80.0765
79.9284
79.8139
79.7302
79.6705
79.6283
79.6011
79.5853
79.5801
79.5796
79.5849
79.5857
78.1563
75.2195
71.605
67.4296
62.6931
57.4127
51.6986
45.7665
39.9338
34.5735
30.018
26.4634
23.936
22.3207
21.3379
20.7408
20.3855
20.1736
20.0454
19.9627
19.9351
19.9923
20.0286
19.9206
19.6862
19.3352
18.8722
18.2977
17.6075
16.8057
15.8927
14.8751
13.7438
12.5139
85.812
84.3229
82.2192
78.5436
86.6319
86.977
86.9572
86.6703
86.198
85.6097
84.9607
84.2934
83.6384
83.0179
82.4472
81.9346
81.4835
81.0934
80.7616
80.4838
80.2552
80.0701
79.9235
79.8134
79.7321
79.6712
79.6284
79.6009
79.5851
79.58
79.5795
79.585
79.5859
76.0739
72.8138
68.8059
64.2244
59.0828
53.422
47.3984
41.289
35.4669
30.3245
26.1582
23.0893
21.0652
19.9133
19.317
19.0304
18.9245
18.9144
18.9508
19.0036
19.2006
19.402
19.4099
19.2665
18.9904
18.592
18.0756
17.4423
16.6877
15.8153
14.8255
13.7245
12.5038
11.1787
86.7622
85.5164
83.3655
80.734
76.4697
87.368
87.536
87.3691
86.9629
86.3969
85.7371
85.0351
84.3293
83.6481
83.0122
82.4335
81.9179
81.4665
81.0777
80.748
80.4727
80.2458
80.0626
79.9223
79.816
79.7331
79.6714
79.6282
79.6005
79.5849
79.5799
79.5794
79.5851
79.5861
73.7445
70.1219
65.7018
60.6995
55.1466
49.1153
42.8193
36.6051
30.895
26.0773
22.3859
19.853
18.3489
17.6554
17.4313
17.4387
17.5662
17.744
17.9334
18.2298
18.5845
18.7634
18.7405
18.5588
18.2378
17.7881
17.2144
16.5177
15.6939
14.7459
13.6738
12.484
11.1687
9.74316
87.6438
86.6632
84.794
82.0486
78.997
74.1576
88.0428
88.0379
87.7289
87.2094
86.5558
85.8305
85.0805
84.3416
83.6407
82.9944
82.4115
81.8952
81.4454
81.0593
80.7325
80.4594
80.235
80.0606
79.9257
79.8172
79.7332
79.671
79.6275
79.6003
79.5848
79.5797
79.5793
79.5851
79.5863
71.1277
67.1247
62.2745
56.8387
50.8718
44.4876
37.9717
31.744
26.2608
21.8759
18.735
16.7738
15.7945
15.5468
15.6769
15.9601
16.3051
16.6574
17.1133
17.5811
17.9182
18.0727
18.0164
17.7934
17.424
16.9191
16.2836
15.5189
14.6209
13.5921
12.4323
11.1482
9.73342
8.20231
88.4557
87.7351
86.1804
83.7241
80.4855
77.0291
71.5587
88.6519
88.4791
88.0342
87.4082
86.674
85.8889
85.0972
84.3331
83.6187
82.9665
82.3824
81.8677
81.4209
81.0384
80.7144
80.4442
80.2317
80.065
79.9273
79.8174
79.7327
79.67
79.6274
79.6004
79.5845
79.5794
79.579
79.5852
79.5866
68.2052
63.8057
58.5079
52.6261
46.2456
39.5373
32.8724
26.7428
21.612
17.7642
15.2353
13.866
13.4054
13.5851
14.0487
14.5889
15.1356
15.7825
16.4263
16.8798
17.1978
17.3258
17.2335
16.9659
16.5443
15.9801
15.2783
14.4407
13.4633
12.3483
11.0957
9.71243
8.19312
6.54939
89.1924
88.7315
87.4856
85.3638
82.4108
78.7231
74.7838
68.6537
89.1908
88.8564
88.283
87.5582
86.75
85.9126
85.0887
84.3069
83.5844
82.9301
82.3473
81.8361
81.3936
81.0144
80.694
80.4394
80.2375
80.067
79.9276
79.8166
79.7312
79.67
79.6278
79.6002
79.5842
79.579
79.5788
79.5853
79.5869
64.9621
60.1506
54.3856
48.0439
41.2556
34.2664
27.5468
21.6477
17.0007
13.7836
11.9108
11.1392
11.1818
11.7655
12.5404
13.319
14.1952
15.0503
15.684
16.122
16.4193
16.5186
16.3873
16.0717
15.594
14.966
14.1933
13.2776
12.2158
11.0094
9.65909
8.1722
6.54306
4.47214
89.8479
89.6452
88.711
86.9168
84.3034
80.9228
76.7163
72.2443
65.428
89.6554
89.1669
88.4736
87.6578
86.7842
85.9058
85.0588
84.2659
83.5398
82.8865
82.3075
81.8012
81.3625
80.9875
80.6872
80.4469
80.24
80.0673
79.9265
79.8145
79.7316
79.6711
79.6279
79.5998
79.5836
79.5785
79.5785
79.5855
79.5872
61.3868
56.1444
49.8869
43.0712
35.888
28.6818
22.0313
16.5138
12.4804
9.97141
8.78026
8.59815
9.12032
10.0821
11.1454
12.2991
13.409
14.2597
14.8826
15.3038
15.5785
15.6465
15.4733
15.106
14.568
13.8718
13.0232
12.0245
10.873
9.57054
8.11794
6.52278
4.46242
2.01373
90.4169
90.4678
89.85
88.3861
86.1043
83.0849
79.2202
74.444
69.4041
61.8708
90.0422
89.4088
88.6041
87.7069
86.7813
85.873
85.0109
84.2124
83.4866
82.8372
82.2637
81.7617
81.3279
80.9783
80.6966
80.45
80.2403
80.0658
79.9235
79.8154
79.7336
79.6717
79.6276
79.5991
79.5829
79.578
79.5781
79.5856
79.5876
57.466
51.7671
44.9866
37.6804
30.1277
22.8004
16.3746
11.4031
8.10304
6.35887
5.85592
6.24268
7.21575
8.52762
10.0269
11.4476
12.5609
13.407
14.0181
14.4208
14.6708
14.705
14.4865
14.0637
13.4612
12.6921
11.7627
10.6761
9.4301
8.02698
6.46852
4.43809
2.00155
-0.466223
90.8954
91.1908
90.8927
89.7653
87.817
85.1485
81.6759
77.2792
71.9009
66.2607
57.9693
90.3484
89.5793
88.674
87.7113
86.7472
85.8186
84.9481
84.1487
83.4266
82.7832
82.2143
81.7179
81.3157
80.99
80.7005
80.4503
80.2384
80.0619
79.9251
79.8188
79.735
79.6719
79.6271
79.5983
79.582
79.5773
79.5777
79.5857
79.588
53.1806
46.9927
39.6481
31.8366
23.9663
16.6538
10.6397
6.38219
3.91689
2.97027
3.14354
4.06936
5.4608
7.28348
9.09444
10.5302
11.6474
12.4885
13.0864
13.4688
13.6919
13.6894
13.4222
12.9399
12.2685
11.4218
10.4068
9.22739
7.88245
6.37552
4.38088
1.9753
-0.474545
-2.92692
91.28
91.8072
91.8286
91.0432
89.4354
87.1168
84.0266
80.0478
75.096
69.0887
62.8134
53.705
90.5703
89.6774
88.6901
87.6781
86.687
85.7462
84.873
84.0768
83.3611
82.7226
82.1599
81.7021
81.3303
80.9947
80.7008
80.4478
80.2332
80.0645
79.9306
79.8216
79.7359
79.6716
79.6262
79.5971
79.5809
79.5765
79.5772
79.5859
79.5885
48.5055
41.7842
33.8247
25.5087
17.411
10.293
4.90229
1.51895
-0.0363737
-0.178676
0.64358
2.07149
4.05972
6.24842
8.09128
9.54343
10.6648
11.4999
12.0832
12.4431
12.6369
12.5948
12.2753
11.7293
10.9845
10.0556
8.95046
7.67385
6.22696
4.28328
1.91471
-0.497737
-2.93376
-5.35846
91.566
92.3113
92.6474
92.2086
90.9483
88.9828
86.2757
82.7034
78.1968
72.6758
66.0152
59.0593
49.0529
90.706
89.7109
88.6608
87.6134
86.6052
85.6591
84.7882
83.9984
83.2878
82.6558
82.14
81.72
81.336
80.9951
80.6977
80.4411
80.237
80.0725
79.9351
79.8235
79.7362
79.6709
79.6249
79.5956
79.5796
79.5755
79.5766
79.5861
79.589
43.4049
36.0861
27.4565
18.6619
10.4819
3.79152
-0.7506
-3.12149
-3.72477
-3.07983
-1.64864
0.481397
2.89724
5.13681
7.01422
8.48374
9.60891
10.4371
11.0041
11.3395
11.5014
11.4164
11.0408
10.427
9.60446
8.58893
7.3892
6.01246
4.12901
1.81215
-0.556573
-2.95674
-5.36451
-7.75196
91.7501
92.6967
93.3395
93.2498
92.3443
90.7348
88.4151
85.2506
81.1731
76.1299
70.0317
62.6909
54.9918
43.9816
90.7641
89.6898
88.5936
87.5226
86.5056
85.5603
84.6956
83.9108
83.207
82.6311
82.1617
81.7269
81.3365
80.9912
80.689
80.4466
80.2486
80.0794
79.9385
79.8247
79.7359
79.6696
79.6232
79.5938
79.5781
79.5744
79.576
79.5862
79.5896
37.8187
29.8149
20.4609
11.2577
3.22164
-2.75456
-6.22584
-7.48251
-7.12617
-5.73298
-3.46626
-0.833637
1.65181
3.94611
5.8601
7.34747
8.47606
9.29614
9.84505
10.1535
10.2807
10.1495
9.71401
9.0283
8.12368
7.01725
5.72007
3.90711
1.65128
-0.659468
-3.01495
-5.38788
-7.75716
-10.0933
91.8418
92.9577
93.8921
94.155
93.611
92.3607
90.4318
87.6816
84.0307
79.4428
73.8628
67.1819
59.126
50.6053
38.4389
90.7566
89.6231
88.4951
87.4106
86.3921
85.4523
84.5922
83.8144
83.1768
82.6573
82.1699
81.7274
81.3316
80.9803
80.6966
80.4625
80.2586
80.085
79.9411
79.8251
79.7349
79.6678
79.6211
79.5917
79.5762
79.5731
79.5753
79.5864
79.5902
31.6592
22.8625
12.7428
3.28105
-4.29059
-9.22992
-11.4327
-11.5183
-10.2298
-7.82758
-4.96323
-2.2383
0.32201
2.67395
4.6258
6.13122
7.26259
8.07323
8.6021
8.88109
8.97053
8.78975
8.29043
7.52875
6.53798
5.33778
3.60556
1.42129
-0.823112
-3.1184
-5.44582
-7.78047
-10.0976
-12.3677
91.8552
93.1054
94.2918
94.9075
94.7354
93.8476
92.3119
89.9836
86.7636
82.6214
77.5295
71.4177
64.1462
55.3285
45.883
32.3427
90.6943
89.5187
88.3711
87.2819
86.2676
85.3317
84.4783
83.778
83.2082
82.667
82.1704
81.7214
81.3179
80.9904
80.7179
80.4765
80.2669
80.0894
79.9426
79.8246
79.7331
79.6653
79.6184
79.5891
79.5742
79.5717
79.5746
79.5866
79.5909
24.8108
15.0888
4.21234
-5.24611
-11.9297
-15.5053
-16.2881
-15.1971
-12.6676
-9.54377
-6.55608
-3.7319
-1.093
1.31824
3.30874
4.83205
5.96536
6.765
7.27164
7.51839
7.567
7.33303
6.76613
5.92462
4.84485
3.21123
1.11018
-1.05773
-3.28408
-5.55028
-7.83751
-10.1205
-12.3711
-14.5615
91.8028
93.157
94.547
95.4854
95.6966
95.1828
94.0403
92.1426
89.3608
85.6629
81.0392
75.4579
68.8201
60.9444
51.3054
40.7922
25.5827
90.5868
89.3836
88.227
87.1401
86.1285
85.1986
84.4349
83.8153
83.2196
82.6676
82.1632
81.7045
81.3311
81.0183
80.7368
80.4883
80.2738
80.0926
79.943
79.8232
79.7305
79.6622
79.6152
79.5862
79.5719
79.5702
79.5739
79.5868
79.5915
17.0939
6.31358
-5.20795
-14.2455
-19.5262
-21.4466
-20.7206
-18.0707
-14.6516
-11.3607
-8.24059
-5.31269
-2.59349
-0.122221
1.90704
3.44773
4.58176
5.36856
5.85059
6.06223
6.06672
5.77603
5.13786
4.2138
2.70284
0.703945
-1.37496
-3.52161
-5.7179
-7.94228
-10.1763
-12.3935
-14.5638
-16.6607
91.6961
93.1282
94.6772
95.8923
96.4656
96.3436
95.6017
94.1421
91.8103
88.5597
84.3937
79.3087
73.2564
66.0958
57.5976
47.0621
35.2958
17.9876
90.4424
89.2244
88.0671
86.9811
85.9745
85.1475
84.4791
83.8286
83.2202
82.659
82.1425
81.7214
81.3669
81.0433
80.7531
80.4985
80.2792
80.0943
79.9421
79.8205
79.7269
79.6582
79.6113
79.5829
79.5695
79.5686
79.5732
79.587
79.5923
8.23155
-3.70035
-15.5346
-23.5563
-26.8913
-26.9115
-24.162
-20.3892
-16.7378
-13.2683
-10.0108
-6.97797
-4.17833
-1.64746
0.419916
1.97682
3.10991
3.88173
4.33662
4.51011
4.46717
4.11626
3.40414
2.05202
0.180862
-1.78911
-3.84237
-5.95749
-8.11066
-10.2806
-12.4477
-14.5856
-16.6621
-18.6523
91.5451
93.0326
94.702
96.1465
97.0415
97.2953
96.9695
95.9642
94.0963
91.303
87.5901
82.9795
77.4591
70.9554
63.2714
54.1312
42.5986
29.3511
9.27668
90.2688
89.0464
87.8873
86.8047
85.915
85.1994
84.4944
83.8292
83.21
82.6339
82.1637
81.7666
81.3991
81.065
80.7673
80.5067
80.2827
80.0943
79.9397
79.8166
79.7222
79.6534
79.607
79.5794
79.5669
79.567
79.5724
79.5872
79.593
-2.24761
-15.1314
-26.7064
-33.0077
-33.7647
-31.1432
-26.9058
-22.8029
-18.9061
-15.2535
-11.8591
-8.72286
-5.84456
-3.25596
-1.15226
0.41892
1.54891
2.30332
2.72826
2.86054
2.76682
2.35306
1.21701
-0.488117
-2.32167
-4.26079
-6.27991
-8.35063
-10.4484
-12.5509
-14.6378
-16.683
-18.6527
-20.5233
91.3591
92.8826
94.6392
96.2667
97.4433
98.0347
98.1021
97.5763
96.201
93.8803
90.625
86.4731
81.4495
75.5218
68.5859
60.3754
50.5756
37.9089
22.9074
-1.04393
90.0727
88.845
87.687
86.736
85.9755
85.2171
84.4952
83.8173
83.1798
82.66
82.2198
81.8073
81.4273
81.0843
80.7793
80.5127
80.2842
80.0925
79.9357
79.8113
79.7165
79.6479
79.6022
79.5756
79.5642
79.5653
79.5717
79.5874
79.5938
-15.007
-28.1966
-38.8784
-42.0444
-39.1267
-34.4486
-29.7187
-25.2754
-21.1324
-17.3014
-13.775
-10.5399
-7.58703
-4.94452
-2.80769
-1.22507
-0.100922
0.633207
1.02529
1.11323
0.966118
0.133845
-1.34574
-3.00185
-4.79786
-6.69942
-8.67228
-10.6868
-12.7169
-14.7391
-16.7329
-18.6721
-20.5226
-22.2606
91.1458
92.6893
94.5048
96.2714
97.6894
98.5812
98.9948
98.9248
98.0873
96.2757
93.4904
89.793
85.2364
79.835
73.5285
66.1803
57.4382
46.9627
32.9853
15.9391
-13.8332
89.8493
88.6198
87.6084
86.8064
85.9958
85.2179
84.4812
83.7812
83.2116
82.7287
82.2705
81.8433
81.4527
81.1007
80.7884
80.5161
80.2833
80.0886
79.9299
79.8045
79.7096
79.6418
79.5971
79.5717
79.5614
79.5636
79.5709
79.5876
79.5947
-31.6877
-43.048
-50.7378
-49.2082
-43.2534
-37.745
-32.5359
-27.7648
-23.3901
-19.3928
-15.7443
-12.4185
-9.39832
-6.70802
-4.54288
-2.95272
-1.8379
-1.12728
-0.771163
-0.729968
-1.29327
-2.45677
-3.87293
-5.48277
-7.23646
-9.08941
-11.005
-12.9519
-14.902
-16.8315
-18.7196
-20.5407
-22.2606
-23.8576
90.9008
92.4617
94.3138
96.1792
97.7982
98.9543
99.6706
99.9979
99.6901
98.4511
96.1753
92.9376
88.8324
83.9109
78.1679
71.5114
63.7706
54.4897
43.3367
27.8387
8.52711
-31.6189
89.5981
88.5307
87.6897
86.8295
85.9966
85.2017
84.4384
83.8194
83.2945
82.7907
82.3155
81.8759
81.4746
81.1138
80.7943
80.5165
80.2797
80.0822
79.922
79.7963
79.702
79.6351
79.5917
79.5675
79.5584
79.5618
79.5702
79.5878
79.5956
-52.1893
-55.8282
-61.9421
-54.3936
-47.1777
-40.9334
-35.2915
-30.2278
-25.6486
-21.5045
-17.7494
-14.3457
-11.2687
-8.53927
-6.35248
-4.75997
-3.6587
-2.97525
-2.65764
-3.03363
-3.91752
-4.99986
-6.35903
-7.92012
-9.62183
-11.4161
-13.264
-15.1318
-16.99
-18.8147
-20.5856
-22.2778
-23.8564
-25.3017
90.6243
92.1957
94.0778
96.0086
97.7874
99.1732
100.153
100.818
100.987
100.332
98.6428
95.9022
92.2433
87.7729
82.5279
76.4798
69.5001
61.3874
51.5773
39.7534
22.5648
0.54782
-53.8122
89.4978
88.6242
87.716
86.8304
85.978
85.1512
84.4837
83.9183