/*--------------------------------*- C++ -*----------------------------------*\
  =========                 |
  \\      /  F ield         | OpenFOAM: The Open Source CFD Toolbox
   \\    /   O peration     | Website:  https://openfoam.org
    \\  /    A nd           | Version:  8
     \\/     M anipulation  |
\*---------------------------------------------------------------------------*/
FoamFile
{
    version     2.0;
    format      ascii;
    class       volScalarField;
    location    "0.22";
    object      k;
}
// * * * * * * * * * * * * * * * * * * * * * * * * * * * * * * * * * * * * * //

dimensions      [0 2 -2 0 0 0 0];

internalField   nonuniform List<scalar> 
15677
(
0.333993
0.36468
0.29434
0.368613
0.357022
0.280635
0.370641
0.359745
0.365649
0.282426
0.371857
0.361481
0.361179
0.383045
0.28867
0.372597
0.363664
0.357593
0.368121
0.401546
0.300181
0.373032
0.365621
0.357773
0.358027
0.379984
0.419313
0.311724
0.373261
0.36716
0.359421
0.354515
0.360946
0.393234
0.434727
0.322563
0.373349
0.368292
0.361333
0.354728
0.353007
0.36685
0.40613
0.447867
0.33206
0.37335
0.369074
0.363051
0.356311
0.351087
0.353459
0.373528
0.418263
0.45872
0.340462
0.373315
0.369563
0.364433
0.3582
0.351907
0.348763
0.354762
0.380685
0.42909
0.467885
0.347542
0.373275
0.369823
0.365457
0.359948
0.3537
0.348366
0.347133
0.357107
0.387651
0.438834
0.475392
0.353771
0.373249
0.369925
0.366146
0.361388
0.355653
0.349751
0.345344
0.346316
0.359705
0.394456
0.447249
0.481826
0.358959
0.373238
0.369939
0.366546
0.362472
0.357418
0.351711
0.346198
0.342919
0.345888
0.362618
0.4007
0.454735
0.487123
0.363611
0.373237
0.369921
0.366735
0.363205
0.358853
0.353673
0.348064
0.343085
0.340859
0.345905
0.365484
0.406583
0.46108
0.491703
0.367666
0.373238
0.369906
0.366792
0.363632
0.359913
0.355383
0.35015
0.344742
0.340286
0.33919
0.346043
0.368403
0.41177
0.466705
0.495495
0.371254
0.373238
0.369899
0.366792
0.36383
0.360605
0.356731
0.352082
0.346871
0.341692
0.337811
0.337743
0.346382
0.371091
0.416569
0.471377
0.498847
0.374542
0.373238
0.369897
0.366782
0.363888
0.360987
0.357686
0.353684
0.348969
0.343825
0.338912
0.335577
0.336527
0.346785
0.373732
0.42064
0.475496
0.501742
0.377338
0.373238
0.369896
0.366774
0.363897
0.361136
0.358273
0.354883
0.350788
0.346054
0.341004
0.336368
0.333577
0.335461
0.347306
0.376017
0.424326
0.47889
0.504292
0.380172
0.373237
0.369896
0.366768
0.363892
0.361179
0.358543
0.355675
0.352214
0.348062
0.343329
0.338406
0.334046
0.331771
0.33458
0.347755
0.378175
0.427332
0.481863
0.506663
0.382376
0.373237
0.369896
0.366764
0.363887
0.361183
0.358648
0.356075
0.353211
0.349694
0.345502
0.340813
0.336016
0.331936
0.330169
0.333793
0.348244
0.379929
0.430018
0.484316
0.508688
0.385007
0.373236
0.369895
0.366761
0.363883
0.361176
0.358682
0.356248
0.353757
0.350882
0.347322
0.343135
0.33849
0.333846
0.330034
0.328747
0.333135
0.348619
0.381543
0.432097
0.486449
0.510819
0.386756
0.373236
0.369895
0.366758
0.36388
0.361168
0.358687
0.356312
0.354021
0.351564
0.348698
0.345132
0.340947
0.33639
0.331889
0.328357
0.327506
0.332561
0.348989
0.382747
0.433965
0.48823
0.512508
0.389362
0.373236
0.369894
0.366757
0.363877
0.36116
0.358683
0.356326
0.354138
0.351909
0.34953
0.346682
0.343109
0.338987
0.33451
0.330182
0.326895
0.326457
0.332083
0.349255
0.383868
0.435294
0.489811
0.514651
0.390778
0.373236
0.369894
0.366756
0.363874
0.361154
0.358676
0.356322
0.35418
0.352068
0.349981
0.347644
0.344832
0.341321
0.337245
0.33289
0.328714
0.325695
0.325607
0.331736
0.34951
0.384595
0.436566
0.491107
0.516082
0.393387
0.373236
0.369893
0.366755
0.363872
0.361149
0.358669
0.356312
0.354188
0.352129
0.350212
0.348176
0.345946
0.343217
0.339737
0.335779
0.33155
0.327573
0.324761
0.324982
0.33144
0.349692
0.385331
0.437333
0.492474
0.518606
0.39475
0.373237
0.369893
0.366754
0.36387
0.361146
0.358662
0.356301
0.354182
0.352142
0.350315
0.348451
0.346598
0.344455
0.341796
0.338476
0.334637
0.330556
0.326697
0.324096
0.324584
0.331419
0.349953
0.385758
0.43826
0.493361
0.52025
0.504419
0.373237
0.369893
0.366754
0.363868
0.361143
0.358657
0.356292
0.35417
0.352135
0.35035
0.348576
0.346962
0.345179
0.343201
0.340754
0.337505
0.333795
0.329872
0.326281
0.323906
0.324613
0.331511
0.35018
0.386239
0.438696
0.495351
0.528944
0.710332
0.373237
0.369892
0.366754
0.363867
0.361141
0.358652
0.356284
0.354158
0.352121
0.350351
0.348619
0.347144
0.34558
0.344074
0.342287
0.339916
0.336951
0.333548
0.329881
0.326371
0.324054
0.324823
0.331754
0.350495
0.386592
0.439599
0.495915
0.54571
0.885333
0.373237
0.369892
0.366754
0.363866
0.36114
0.358648
0.356278
0.354147
0.352107
0.350337
0.348622
0.347219
0.345779
0.344596
0.343211
0.341661
0.339768
0.33704
0.33376
0.330182
0.326768
0.324507
0.325319
0.332252
0.350936
0.387003
0.440277
0.495625
0.558505
1.02671
0.373238
0.369891
0.366754
0.363864
0.361139
0.358645
0.356274
0.354138
0.352093
0.350318
0.348608
0.347234
0.345863
0.344879
0.343749
0.342816
0.341734
0.340025
0.337493
0.334399
0.330957
0.327648
0.325429
0.326263
0.33307
0.351525
0.387615
0.440023
0.494135
0.567945
1.14882
0.373238
0.369891
0.366754
0.363863
0.361138
0.358642
0.35627
0.35413
0.352082
0.3503
0.348587
0.347219
0.345886
0.345006
0.344037
0.343541
0.342979
0.342161
0.34076
0.338511
0.335707
0.332461
0.329211
0.326939
0.327614
0.334211
0.352371
0.388094
0.439111
0.49099
0.574401
1.24754
0.373238
0.369891
0.366754
0.363863
0.361138
0.358639
0.356267
0.354124
0.352073
0.350284
0.348567
0.347192
0.345876
0.345041
0.344177
0.343962
0.343768
0.343557
0.34315
0.342241
0.340411
0.337852
0.334708
0.331434
0.328991
0.329422
0.335712
0.353408
0.388442
0.437211
0.485609
0.578573
1.32004
0.373238
0.36989
0.366754
0.363862
0.361137
0.358637
0.356264
0.354118
0.352065
0.35027
0.348548
0.347165
0.345851
0.345029
0.344237
0.344179
0.344236
0.344458
0.344778
0.34504
0.344656
0.343185
0.340837
0.337749
0.334342
0.331654
0.331696
0.337586
0.354636
0.388391
0.433985
0.478847
0.581204
1.37499
0.373238
0.36989
0.366755
0.363861
0.361137
0.358635
0.356263
0.354113
0.352058
0.350258
0.348531
0.34714
0.345822
0.344996
0.344244
0.34426
0.344488
0.34501
0.345868
0.346962
0.347886
0.348056
0.346933
0.344759
0.341627
0.338013
0.334932
0.334473
0.339822
0.355982
0.388106
0.429692
0.47209
0.583444
1.41836
0.36989
0.373242
0.366755
0.36386
0.361137
0.358633
0.356261
0.354108
0.352053
0.350248
0.348517
0.347118
0.345794
0.34496
0.344221
0.344277
0.344604
0.345328
0.346568
0.348278
0.350157
0.351823
0.352565
0.351771
0.349682
0.346428
0.342455
0.338876
0.337722
0.342403
0.357594
0.387444
0.425248
0.465731
0.585708
1.45406
0.366755
0.3699
0.37325
0.36386
0.361137
0.358632
0.35626
0.354104
0.352048
0.350239
0.348505
0.347099
0.345769
0.344926
0.344188
0.344261
0.344644
0.345498
0.347002
0.34916
0.351765
0.354535
0.356996
0.35832
0.35778
0.355702
0.352171
0.34773
0.343443
0.341451
0.345644
0.359599
0.38657
0.420862
0.460015
0.588392
1.48464
0.363859
0.366772
0.36992
0.373258
0.361137
0.35863
0.356259
0.354101
0.352045
0.350231
0.348495
0.347082
0.345747
0.344895
0.344154
0.344231
0.344644
0.345579
0.347266
0.349746
0.352894
0.356521
0.360265
0.363567
0.36543
0.365074
0.362848
0.358924
0.353792
0.348654
0.346088
0.349589
0.361763
0.385711
0.416831
0.455008
0.591394
1.51164
0.361136
0.363881
0.366806
0.369942
0.373266
0.358629
0.356258
0.354098
0.352042
0.350224
0.348487
0.347067
0.345727
0.344868
0.344122
0.3442
0.344627
0.345613
0.347424
0.35014
0.353695
0.357981
0.362739
0.367533
0.37167
0.374027
0.373697
0.3712
0.366644
0.360667
0.355103
0.351897
0.35386
0.364107
0.384965
0.413108
0.450706
0.594885
1.53611
0.358628
0.361164
0.363925
0.36684
0.369963
0.373274
0.356257
0.354095
0.352039
0.350217
0.348479
0.347055
0.345711
0.344845
0.344093
0.344171
0.344606
0.345623
0.34752
0.350416
0.354283
0.359081
0.364642
0.370635
0.3765
0.381463
0.384174
0.383745
0.38072
0.375364
0.369141
0.363103
0.358288
0.358421
0.366602
0.384409
0.409789
0.44706
0.598595
1.55859
0.356257
0.358659
0.36122
0.363971
0.366876
0.369986
0.373282
0.354092
0.352037
0.350212
0.348473
0.347043
0.345696
0.344824
0.344069
0.344144
0.344585
0.345624
0.347582
0.350618
0.354742
0.359953
0.366159
0.373123
0.3804
0.387355
0.39303
0.395988
0.395183
0.391453
0.38609
0.379614
0.371858
0.365164
0.36323
0.369288
0.384137
0.406844
0.443986
0.602664
1.57955
0.35409
0.356293
0.358722
0.361277
0.364018
0.366913
0.370009
0.373291
0.352036
0.350207
0.348468
0.347033
0.345684
0.344806
0.344047
0.344121
0.344566
0.345624
0.347629
0.350774
0.355115
0.360689
0.367437
0.375211
0.38366
0.392266
0.400215
0.406523
0.40944
0.408074
0.404644
0.39932
0.39104
0.381252
0.372436
0.368237
0.372086
0.384201
0.404357
0.441358
0.606775
1.59912
0.352034
0.354128
0.356366
0.358788
0.361336
0.364066
0.366951
0.370032
0.3733
0.350202
0.348464
0.347024
0.345674
0.34479
0.344028
0.344101
0.344549
0.345623
0.347669
0.350905
0.355426
0.361325
0.368579
0.377061
0.386518
0.39653
0.406395
0.415278
0.42193
0.424632
0.423916
0.420905
0.413736
0.403269
0.391164
0.380018
0.373418
0.37492
0.384419
0.402225
0.439187
0.611111
1.61759
0.350198
0.352076
0.354206
0.356442
0.358855
0.361396
0.364115
0.366989
0.370057
0.373309
0.348461
0.347015
0.345665
0.344777
0.344012
0.344084
0.344535
0.345623
0.347704
0.351021
0.355699
0.361881
0.369615
0.378791
0.389158
0.400415
0.411946
0.42304
0.432574
0.43941
0.443331
0.443465
0.438613
0.429144
0.416148
0.401478
0.387827
0.378746
0.377791
0.384865
0.400482
0.437354
0.615349
1.63489
0.348458
0.350239
0.352163
0.354287
0.35652
0.358925
0.361458
0.364166
0.367029
0.370082
0.373318
0.347008
0.345658
0.344764
0.343998
0.344069
0.344524
0.345624
0.347737
0.351125
0.355945
0.36238
0.370548
0.380415
0.391718
0.404137
0.417182
0.430234
0.442267
0.452318
0.461052
0.466525
0.464797
0.457536
0.445342
0.42952
0.412078
0.395782
0.38416
0.380689
0.385501
0.399005
0.435866
0.619711
1.65131
0.347001
0.348502
0.350326
0.352252
0.354371
0.356599
0.358996
0.361522
0.364219
0.36707
0.370107
0.373328
0.345652
0.344753
0.343985
0.344056
0.344514
0.345625
0.347768
0.351221
0.356168
0.362835
0.3714
0.38191
0.394187
0.407859
0.422358
0.437237
0.451519
0.464386
0.47691
0.4881
0.491991
0.487656
0.477439
0.462139
0.443231
0.422848
0.40381
0.389605
0.383619
0.386317
0.397859
0.43463
0.623879
1.66665
0.345648
0.347039
0.348594
0.350417
0.352344
0.354457
0.356682
0.359069
0.361588
0.364272
0.367112
0.370134
0.373337
0.344742
0.343974
0.344045
0.344506
0.345627
0.347796
0.35131
0.356373
0.363253
0.372186
0.383295
0.396505
0.411539
0.427667
0.444359
0.460789
0.47624
0.49215
0.507918
0.518027
0.519473
0.511808
0.498105
0.479344
0.457129
0.433679
0.411836
0.395036
0.386544
0.387178
0.396951
0.433658
0.628109
1.68123
0.344734
0.345686
0.347125
0.348689
0.35051
0.352439
0.354545
0.356766
0.359145
0.361655
0.364328
0.367155
0.370161
0.373347
0.343964
0.344035
0.344499
0.34563
0.347822
0.35139
0.356561
0.363637
0.372912
0.384583
0.398683
0.415052
0.433022
0.451844
0.470463
0.488447
0.507556
0.527554
0.542576
0.550597
0.548696
0.537002
0.519305
0.496771
0.471075
0.444474
0.419799
0.400411
0.389486
0.388077
0.396273
0.432863
0.632082
1.6948
0.343957
0.344759
0.345768
0.347212
0.348788
0.350606
0.352536
0.354636
0.356853
0.359222
0.361724
0.364384
0.367199
0.370187
0.373356
0.344027
0.344492
0.345632
0.347846
0.351464
0.356732
0.363989
0.373581
0.38578
0.400729
0.418387
0.43821
0.459562
0.48086
0.501504
0.523867
0.548046
0.567636
0.580726
0.585565
0.579384
0.562982
0.540838
0.514257
0.484946
0.455149
0.427642
0.405697
0.392416
0.389015
0.395748
0.432264
0.636082
1.70771
0.344022
0.343969
0.344819
0.345852
0.347304
0.34889
0.350705
0.352637
0.35473
0.356942
0.359302
0.361795
0.364442
0.367242
0.370213
0.373365
0.344485
0.345634
0.347867
0.351531
0.356888
0.364311
0.374197
0.386891
0.402646
0.421546
0.443202
0.467175
0.491767
0.515845
0.541775
0.570437
0.594625
0.612418
0.622229
0.622699
0.611264
0.589491
0.562508
0.531655
0.498638
0.465629
0.435317
0.410869
0.395311
0.389978
0.395388
0.431785
0.639789
1.71965
0.344482
0.344011
0.343998
0.344879
0.345942
0.347399
0.348996
0.350808
0.35274
0.354827
0.357034
0.359384
0.361867
0.3645
0.367284
0.370239
0.373374
0.345634
0.347886
0.351592
0.357031
0.364606
0.374762
0.387918
0.404434
0.424527
0.44799
0.474597
0.502656
0.531221
0.561967
0.59579
0.625082
0.647711
0.662059
0.667027
0.661797
0.644084
0.6163
0.584137
0.548838
0.51206
0.475854
0.442785
0.415901
0.398152
0.39096
0.395123
0.431449
0.643507
1.73105
0.345639
0.344442
0.343983
0.344035
0.344943
0.346038
0.347498
0.349106
0.350914
0.352847
0.354926
0.357128
0.359468
0.361939
0.364556
0.367325
0.370263
0.373382
0.347901
0.351647
0.357161
0.364875
0.37528
0.388865
0.406095
0.427326
0.452555
0.481776
0.51339
0.546953
0.584185
0.625228
0.660771
0.689116
0.708222
0.717013
0.715191
0.702715
0.677631
0.643211
0.605574
0.565704
0.525141
0.485776
0.450017
0.420776
0.400924
0.391951
0.394979
0.431191
0.64691
1.74151
0.347923
0.34556
0.344352
0.34394
0.344087
0.345011
0.346139
0.3476
0.34922
0.351024
0.352957
0.355029
0.357225
0.359551
0.362009
0.36461
0.367365
0.370287
0.373391
0.351695
0.357278
0.36512
0.375753
0.389735
0.407634
0.429944
0.45688
0.488667
0.523923
0.562862
0.607333
0.658545
0.70398
0.740124
0.765235
0.77782
0.778034
0.766905
0.745367
0.711734
0.670061
0.626691
0.582168
0.537826
0.495358
0.456988
0.425478
0.403617
0.392942
0.394887
0.431037
0.650324
1.75153
0.35175
0.347777
0.345369
0.344256
0.343902
0.344151
0.345082
0.346245
0.347707
0.349337
0.351137
0.353069
0.355134
0.35732
0.359633
0.362076
0.364663
0.367403
0.370311
0.373399
0.357381
0.365341
0.376185
0.390534
0.409054
0.432382
0.460955
0.495243
0.53421
0.57879
0.630935
0.69448
0.75591
0.806096
0.840002
0.857302
0.858482
0.845917
0.82235
0.789677
0.746241
0.696714
0.647382
0.598163
0.550072
0.504574
0.463682
0.429998
0.40622
0.393929
0.394891
0.430931
0.65342
1.75955
0.357491
0.351523
0.347414
0.34517
0.344172
0.343871
0.344222
0.345157
0.346356
0.347818
0.349458
0.351254
0.353184
0.355238
0.357413
0.359712
0.362142
0.364715
0.367441
0.370333
0.373406
0.365539
0.376576
0.391264
0.410361
0.434644
0.464776
0.501488
0.544196
0.594536
0.654771
0.733202
0.816366
0.891191
0.94241
0.966766
0.968486
0.951527
0.921058
0.881527
0.835511
0.781008
0.723052
0.667567
0.613638
0.56185
0.513406
0.47009
0.434327
0.408727
0.394898
0.394916
0.430917
0.656107
1.7663
0.365738
0.357156
0.350924
0.347036
0.344993
0.344097
0.343849
0.344301
0.345239
0.346471
0.347934
0.349582
0.351374
0.353299
0.35534
0.357503
0.359788
0.362206
0.364765
0.367477
0.370355
0.373414
0.37693
0.391929
0.411563
0.436739
0.468348
0.507394
0.553817
0.609927
0.678856
0.775298
0.885985
0.994253
1.0776
1.1193
1.1228
1.0993
1.05678
1.00312
0.944131
0.882639
0.815875
0.748975
0.687182
0.628553
0.573139
0.521843
0.476203
0.438461
0.411133
0.395854
0.394967
0.430928
0.658303
1.77358
0.377272
0.365266
0.356223
0.350303
0.346691
0.344829
0.344032
0.343837
0.344384
0.345327
0.34659
0.348055
0.349709
0.351494
0.35341
0.35544
0.35759
0.359863
0.362268
0.364814
0.367512
0.370377
0.373421
0.392534
0.412661
0.438675
0.471675
0.512957
0.563025
0.624874
0.70334
0.820946
0.963999
1.1122
1.23789
1.31638
1.33456
1.30517
1.24723
1.17247
1.09101
1.00954
0.930721
0.850669
0.774389
0.706175
0.642883
0.583928
0.529882
0.482021
0.442399
0.413436
0.396789
0.395041
0.430955
0.660752
1.78151
0.393105
0.376628
0.363868
0.355262
0.349726
0.346367
0.344677
0.343977
0.343835
0.344471
0.345423
0.346713
0.348182
0.349835
0.351612
0.353518
0.355536
0.357675
0.359936
0.362329
0.364861
0.367547
0.370397
0.373425
0.413669
0.440456
0.474768
0.518177
0.571791
0.639353
0.728322
0.869618
1.048
1.23979
1.41384
1.54092
1.59892
1.58023
1.50761
1.40785
1.29577
1.18309
1.07687
0.979331
0.885195
0.799209
0.724511
0.656612
0.594213
0.537522
0.487544
0.446142
0.415633
0.39758
0.395112
0.431019
0.66338
1.79011
0.414597
0.392254
0.374584
0.362435
0.354362
0.349178
0.346063
0.344537
0.343932
0.343845
0.344561
0.345529
0.346837
0.348309
0.349958
0.351727
0.353623
0.355631
0.357758
0.360007
0.362387
0.364907
0.36758
0.370408
0.373425
0.442102
0.477633
0.523061
0.580103
0.653373
0.753757
0.920275
1.13498
1.37142
1.59657
1.77868
1.89058
1.91383
1.84699
1.7231
1.57623
1.42351
1.2775
1.14516
1.028
0.919255
0.823354
0.742159
0.669732
0.603995
0.544767
0.492777
0.449691
0.41745
0.398263
0.39521
0.431106
0.666332
1.79952
0.443588
0.413495
0.389317
0.372502
0.361086
0.353499
0.348651
0.34578
0.344409
0.343897
0.343872
0.344651
0.345643
0.346962
0.348434
0.350077
0.351839
0.353725
0.355722
0.357839
0.360076
0.362444
0.364952
0.367597
0.370408
0.373425
0.480297
0.52762
0.587966
0.666943
0.779463
0.97173
1.22226
1.50253
1.77898
2.01909
2.19265
2.27469
2.25083
2.12651
1.9453
1.74789
1.55274
1.37245
1.21342
1.07624
0.95265
0.846755
0.759098
0.682239
0.61328
0.551626
0.497726
0.452608
0.418998
0.399025
0.395329
0.431262
0.669491
1.80972
0.482659
0.44218
0.409329
0.38635
0.370538
0.359789
0.352667
0.348144
0.345517
0.344291
0.343868
0.343925
0.344741
0.345761
0.347083
0.348558
0.350194
0.351949
0.353824
0.355812
0.357917
0.360143
0.3625
0.364974
0.367597
0.370408
0.373425
0.531886
0.5954
0.680072
0.805181
1.0229
1.30782
1.62999
1.95627
2.25455
2.49359
2.64406
2.68317
2.60139
2.41198
2.16909
1.91914
1.68097
1.4664
1.28078
1.12363
0.985203
0.869349
0.775314
0.694138
0.622078
0.558108
0.501783
0.455084
0.420701
0.399877
0.395491
0.431445
0.673051
1.82091
0.535625
0.48089
0.436318
0.405158
0.383545
0.368642
0.358534
0.351865
0.347658
0.34527
0.344183
0.343829
0.343998
0.344831
0.34588
0.347202
0.348679
0.350308
0.352055
0.353921
0.355899
0.357993
0.360208
0.362527
0.364974
0.367597
0.370408
0.373425
0.602448
0.692774
0.830653
1.07293
1.39029
1.75189
2.12545
2.48011
2.78507
3.00909
3.12329
3.1076
2.95851
2.69792
2.39045
2.08719
1.8063
1.55811
1.34651
1.16978
1.01675
0.891083
0.7908
0.705437
0.6304
0.563419
0.50522
0.457796
0.422576
0.400833
0.395687
0.431722
0.676872
1.83301
0.608617
0.5334
0.472659
0.430506
0.401205
0.380831
0.366802
0.357318
0.351092
0.347195
0.345042
0.344088
0.343796
0.344081
0.344921
0.345999
0.347319
0.348797
0.350419
0.352159
0.354015
0.355983
0.358067
0.36024
0.362527
0.364974
0.367597
0.370408
0.373425
0.705067
0.855663
1.12117
1.4688
1.86711
2.28488
2.69279
3.06152
3.36006
3.55633
3.62195
3.54067
3.3163
2.98002
2.60637
2.24997
1.92732
1.64666
1.41003
1.2144
1.04716
0.911919
0.805553
0.716145
0.637224
0.567918
0.508979
0.460769
0.424644
0.401905
0.395946
0.432045
0.681198
1.8463
0.71591
0.605844
0.521751
0.464594
0.424989
0.397374
0.378192
0.365017
0.356143
0.35035
0.34676
0.344834
0.344003
0.343775
0.344169
0.345012
0.346116
0.347434
0.348913
0.350527
0.35226
0.354107
0.356065
0.358103
0.36024
0.362527
0.364974
0.367597
0.370408
0.373421
0.880006
1.16723
1.54287
1.97509
2.43376
2.89102
3.31955
3.69011
3.97031
4.1268
4.13232
3.97585
3.66978
3.25485
2.81466
2.40605
2.04309
1.7314
1.47095
1.25723
1.07634
0.931828
0.819578
0.724942
0.64301
0.572836
0.513093
0.464031
0.426927
0.403113
0.396253
0.432496
0.685858
1.86062
0.712562
0.901447
0.588708
0.51056
0.45692
0.419635
0.393643
0.375625
0.363287
0.355012
0.349643
0.346353
0.344645
0.343933
0.343767
0.344258
0.345105
0.346231
0.347547
0.349025
0.350633
0.352359
0.354197
0.356106
0.358103
0.36024
0.362527
0.364974
0.367597
0.370397
0.373414
1.21082
1.61231
2.07566
2.57181
3.07418
3.55743
3.99497
4.35642
4.60714
4.71239
4.64712
4.40723
4.01478
3.51981
3.01375
2.55451
2.15301
1.81194
1.52897
1.29813
1.10421
0.950794
0.831127
0.732408
0.649339
0.578217
0.517597
0.467614
0.429453
0.40447
0.39665
0.43302
0.691159
1.87636
0.685699
0.898614
1.24839
0.572759
0.499918
0.449463
0.414413
0.390009
0.373134
0.361616
0.353926
0.348973
0.345978
0.344479
0.343881
0.343773
0.344346
0.345201
0.346344
0.347659
0.349135
0.350736
0.352455
0.354241
0.356106
0.358103
0.36024
0.362527
0.364974
0.36758
0.370376
0.373406
1.677
2.1689
2.69914
3.24226
3.77466
4.27255
4.70901
5.05142
5.26208
5.30517
5.15944
4.82956
4.34785
3.77291
3.20262
2.69481
2.25677
1.88804
1.58395
1.33699
1.13073
0.966433
0.840945
0.740587
0.656269
0.584108
0.522534
0.471553
0.432248
0.406007
0.39712
0.433716
0.696894
1.89322
0.661141
0.85538
1.24643
1.73212
0.557799
0.48956
0.442189
0.409324
0.386478
0.370723
0.360006
0.352888
0.348344
0.345642
0.344338
0.343843
0.343793
0.344431
0.345299
0.346453
0.347769
0.349242
0.350837
0.352502
0.35424
0.356106
0.358103
0.36024
0.362527
0.364952
0.367546
0.370355
0.373398
2.25493
2.81618
3.39574
3.97156
4.52244
5.02536
5.45206
5.76638
5.92682
5.8974
5.66285
5.23825
4.66627
4.01282
3.3807
2.82671
2.35425
1.95962
1.63582
1.37377
1.15255
0.979738
0.851717
0.749553
0.663863
0.590563
0.527949
0.475888
0.435348
0.40774
0.397719
0.434529
0.703457
1.91176
0.638519
0.814806
1.18243
1.73206
2.32788
0.543357
0.479442
0.435099
0.404374
0.383056
0.368397
0.358463
0.351908
0.347771
0.34535
0.344219
0.343816
0.343831
0.344514
0.345399
0.34656
0.347877
0.349347
0.350887
0.352502
0.35424
0.356106
0.358103
0.36024
0.362499
0.364907
0.367511
0.370332
0.37339
2.92331
3.53546
4.14913
4.74545
5.3052
5.80544
6.21512
6.49289
6.59316
6.48158
6.15144
5.62947
4.968
4.23869
3.54771
2.95019
2.44549
2.02673
1.68457
1.40387
1.17109
0.994343
0.863545
0.759393
0.672192
0.597643
0.533894
0.480662
0.438789
0.409711
0.398426
0.435568
0.710584
1.93145
0.617155
0.776858
1.11966
1.64946
2.33092
3.01347
0.529308
0.469573
0.428205
0.399574
0.379752
0.366162
0.357
0.35101
0.347259
0.3451
0.344117
0.34379
0.343886
0.344594
0.3455
0.346665
0.347985
0.349398
0.350886
0.352502
0.35424
0.356106
0.358103
0.360207
0.362443
0.36486
0.367476
0.37031
0.373382
3.66221
4.30884
4.94335
5.55002
6.11134
6.60332
6.98989
7.22277
7.25297
7.05058
6.62003
6.00019
5.25169
4.45009
3.70366
3.06538
2.53064
2.08945
1.72423
1.42935
1.19141
1.01038
0.876543
0.770201
0.681336
0.605414
0.540428
0.485927
0.442616
0.411941
0.399314
0.436795
0.718806
1.95313
0.59679
0.741053
1.05833
1.56658
2.23177
3.02007
3.76752
0.515631
0.459975
0.421523
0.394937
0.376575
0.364039
0.355655
0.350203
0.3468
0.344884
0.344032
0.343764
0.343951
0.344672
0.345602
0.346769
0.348038
0.349396
0.350886
0.352502
0.35424
0.356106
0.358066
0.360142
0.362386
0.364812
0.367439
0.370286
0.373374
4.45203
5.11853
5.76265
6.37214
6.93066
7.41082
7.76867
7.94795
7.89826
7.59777
7.06426
6.34824
5.51657
4.64697
3.84876
3.17256
2.60991
2.14022
1.75766
1.45714
1.21366
1.02801
0.890838
0.782082
0.691383
0.613954
0.547614
0.49174
0.446876
0.414485
0.400365
0.438276
0.727753
1.97584
0.577313
0.707302
0.998196
1.48349
2.13135
2.90589
3.77683
4.56865
0.502341
0.450676
0.41507
0.390476
0.373554
0.362082
0.354443
0.349479
0.346392
0.344698
0.343961
0.343746
0.344021
0.34475
0.345706
0.346818
0.348036
0.349396
0.350887
0.352502
0.354241
0.356065
0.357991
0.360074
0.362327
0.364763
0.367402
0.370262
0.373365
5.27312
5.94677
6.59204
7.20047
7.75486
8.22102
8.54414
8.66027
8.52122
8.11729
7.48081
6.67222
5.76236
4.82957
3.98339
3.27205
2.67386
2.18288
1.79397
1.48745
1.23804
1.04737
0.906568
0.795155
0.702435
0.623346
0.555526
0.498163
0.451628
0.417376
0.401671
0.439879
0.738162
2.00517
0.558662
0.67564
0.939482
1.39983
2.0296
2.78999
3.64814
4.57813
5.39517
0.489466
0.441707
0.408866
0.386234
0.370768
0.360316
0.353351
0.34883
0.346034
0.344539
0.343903
0.343737
0.344096
0.344835
0.345758
0.346813
0.348037
0.349396
0.350887
0.352502
0.354196
0.355982
0.357915
0.360005
0.362266
0.364713
0.367363
0.370238
0.373356
6.10562
6.77648
7.41872
8.02625
8.57783
9.02786
9.3089
9.35139
9.11449
8.60428
7.86733
6.97149
5.98928
4.99834
4.10798
3.35209
2.72746
2.22905
1.83338
1.52047
1.26473
1.06866
0.923887
0.80955
0.714601
0.633686
0.564247
0.505269
0.456933
0.420686
0.403217
0.441814
0.751519
2.03998
0.540797
0.646098
0.882646
1.31559
1.92601
2.67203
3.51802
4.43417
5.4004
6.22583
0.477046
0.433098
0.402971
0.382323
0.368252
0.358724
0.352369
0.34825
0.345719
0.344402
0.343857
0.343739
0.344181
0.344869
0.345755
0.346812
0.348037
0.349396
0.350887
0.352454
0.354106
0.355896
0.357836
0.359934
0.362204
0.364662
0.367324
0.370213
0.373347
6.93019
7.5931
8.23295
8.84389
9.39486
9.8256
10.0552
10.0129
9.67145
9.05502
8.22252
7.24613
6.19789
5.15388
4.20791
3.41904
2.78533
2.27899
1.87612
1.55643
1.29394
1.09206
0.942959
0.825411
0.728006
0.645081
0.573868
0.513141
0.46287
0.424464
0.405102
0.444424
0.768953
2.07452
0.523695
0.618652
0.828288
1.23109
1.82028
2.5515
3.38576
4.29005
5.23882
6.22089
7.04041
0.465123
0.424936
0.397539
0.378793
0.365982
0.357288
0.351486
0.347733
0.345443
0.344284
0.343824
0.343765
0.344222
0.344855
0.345757
0.346812
0.348036
0.349398
0.350837
0.352357
0.354013
0.355809
0.357755
0.359861
0.36214
0.364609
0.367283
0.370187
0.373337
7.73037
8.38544
9.0294
9.64966
10.2024
10.6082
10.7743
10.6365
10.1865
9.46707
8.54613
7.49677
6.38895
5.27806
4.2913
3.49118
2.84775
2.33293
1.92241
1.59553
1.32588
1.11775
0.963963
0.842895
0.742789
0.65765
0.584497
0.521871
0.469519
0.428803
0.40778
0.448006
0.788292
2.10832
0.507354
0.593206
0.77705
1.14689
1.71235
2.42779
3.25092
4.14457
5.07963
6.03705
7.01819
7.82018
0.453821
0.417436
0.392639
0.375608
0.363933
0.355995
0.350694
0.347273
0.3452
0.344186
0.34382
0.343765
0.344214
0.344854
0.345757
0.346813
0.348038
0.349346
0.350734
0.352258
0.353918
0.355719
0.357672
0.359786
0.362074
0.364555
0.367241
0.37016
0.373328
8.493
9.14854
9.80367
10.4405
10.9974
11.3681
11.4575
11.2144
10.6554
9.83947
8.83874
7.7244
6.54046
5.38134
4.38091
3.5688
2.915
2.39114
1.97248
1.638
1.36075
1.14594
0.987086
0.862173
0.759097
0.671529
0.596246
0.531565
0.476986
0.43471
0.411509
0.452282
0.809512
2.14106
0.49189
0.569599
0.729538
1.06379
1.60237
2.30049
3.11267
3.99745
4.92094
5.86004
6.80511
7.77116
8.55044
0.443449
0.410687
0.388222
0.372736
0.362086
0.354831
0.349985
0.346861
0.344991
0.344131
0.343806
0.34374
0.344218
0.344854
0.345755
0.346819
0.347984
0.34924
0.35063
0.352156
0.353821
0.355627
0.357587
0.359709
0.362007
0.364499
0.367198
0.370133
0.373318
9.21029
9.87019
10.5445
11.2065
11.7729
12.0986
12.0944
11.7397
11.0758
10.1725
9.10163
7.90324
6.66583
5.49186
4.47701
3.65218
2.98733
2.45383
2.02654
1.68403
1.39875
1.17684
1.01252
0.883422
0.777095
0.686859
0.609256
0.542348
0.486934
0.442472
0.415962
0.457194
0.832863
2.17246
0.477686
0.54781
0.686263
0.982774
1.49069
2.16935
2.97018
3.84765
4.76271
5.68682
6.60561
7.52087
8.45915
9.22575
0.434144
0.404617
0.384244
0.370148
0.360422
0.353784
0.349345
0.346498
0.344851
0.344087
0.343776
0.34374
0.344218
0.344855
0.345758
0.346769
0.347875
0.349132
0.350524
0.352052
0.353721
0.355533
0.3575
0.359631
0.361938
0.364442
0.367154
0.370107
0.373309
9.87879
10.5584
11.2673
11.9541
12.521
12.7864
12.6751
12.2075
11.4471
10.4677
9.30562
8.05018
6.79917
5.60983
4.57987
3.74158
3.06499
2.52125
2.08481
1.73381
1.44009
1.21064
1.04046
0.906827
0.79695
0.703811
0.623668
0.556578
0.499638
0.451169
0.421069
0.463207
0.858626
2.20215
0.464917
0.528149
0.647361
0.905065
1.37792
2.03431
2.82278
3.69404
4.60377
5.51759
6.41508
7.29275
8.16409
9.0627
9.83012
0.425807
0.39916
0.380662
0.367816
0.358924
0.352839
0.348777
0.346227
0.344759
0.344047
0.343779
0.34374
0.344214
0.344869
0.345706
0.346663
0.347766
0.349022
0.350415
0.351945
0.353619
0.355437
0.35741
0.35955
0.361867
0.364384
0.367111
0.370081
0.373299
10.4924
11.2123
11.9767
12.6881
13.2378
13.4196
13.191
12.6155
11.7706
10.693
9.47163
8.20514
6.94047
5.73538
4.68968
3.83721
3.14818
2.59357
2.14744
1.78752
1.48492
1.24751
1.07109
0.93257
0.818848
0.722535
0.642616
0.574497
0.513444
0.460809
0.427198
0.470062
0.886774
2.22993
0.453467
0.510595
0.613904
0.832877
1.26498
1.89547
2.66982
3.53543
4.44266
5.35097
6.23372
7.08082
7.90048
8.71648
9.57591
10.3541
0.418345
0.394254
0.37744
0.365717
0.35757
0.351995
0.348339
0.346058
0.344702
0.344052
0.343779
0.34374
0.344222
0.344834
0.3456
0.346558
0.347656
0.348909
0.350304
0.351836
0.353515
0.355338
0.357319
0.359468
0.361795
0.364327
0.367069
0.370056
0.37329
11.0506
11.8374
12.6749
13.409
13.9142
13.9848
13.6357
12.9637
12.0124
10.874
9.64469
8.36769
7.08957
5.86851
4.80654
3.93923
3.23707
2.67094
2.21459
1.84528
1.53339
1.2876
1.10457
0.960828
0.842935
0.747073
0.666286
0.593672
0.528397
0.471626
0.434121
0.478524
0.918076
2.25531
0.443226
0.494828
0.585661
0.768958
1.15408
1.75316
2.51079
3.3706
4.27778
5.18526
6.0598
6.88509
7.66226
8.41067
9.16477
9.98969
10.7966
0.411665
0.389848
0.374542
0.36382
0.356359
0.351331
0.348076
0.345977
0.34471
0.344052
0.343776
0.343766
0.34418
0.344749
0.345498
0.34645
0.347543
0.348793
0.35019
0.351724
0.353407
0.355237
0.357224
0.359384
0.361723
0.364271
0.367028
0.370032
0.373282
11.5583
12.4441
13.3665
14.1049
14.5345
14.4693
14.0066
13.2166
12.2033
11.0598
9.82374
8.53717
7.24608
6.00907
4.93046
4.04772
3.33177
2.75349
2.28634
1.90717
1.58557
1.33103
1.14103
0.99172
0.874338
0.777468
0.691345
0.614131
0.544632
0.483556
0.442459
0.488107
0.952037
2.27832
0.434089
0.480636
0.561545
0.714678
1.04976
1.60905
2.34532
3.19829
4.10732
5.01849
5.89135
6.70317
7.44916
8.14116
8.80862
9.49805
10.2903
11.1554
0.405687
0.385891
0.371928
0.362123
0.355392
0.350942
0.347969
0.345989
0.34471
0.344047
0.343806
0.343765
0.344094
0.34467
0.345396
0.34634
0.34743
0.348675
0.350074
0.35161
0.353297
0.355134
0.357128
0.359301
0.361653
0.364217
0.366988
0.370008
0.373273
12.0255
13.0471
14.052
14.7601
15.0767
14.8651
14.2659
13.4114
12.3949
11.2483
10.0073
8.71255
7.40939
6.15676
5.06131
4.16265
3.43228
2.84122
2.36271
1.9732
1.64149
1.37785
1.18053
1.03168
0.9128
0.809271
0.717732
0.635901
0.562143
0.496948
0.451779
0.499976
0.99005
2.29833
0.425952
0.46787
0.540672
0.66929
0.955333
1.46814
2.17452
3.01727
3.92925
4.84831
5.72604
6.53272
7.25775
7.90751
8.50286
9.08261
9.70453
10.463
11.4291
0.400335
0.382328
0.369589
0.360752
0.354832
0.350802
0.347985
0.345989
0.344702
0.344088
0.343821
0.343739
0.344019
0.344591
0.345296
0.346227
0.347315
0.348554
0.349955
0.351493
0.353184
0.355029
0.357033
0.35922
0.361586
0.364164
0.366949
0.369985
0.373265
12.4702
13.6546
14.7269
15.3678
15.5102