/*--------------------------------*- C++ -*----------------------------------*\
  =========                 |
  \\      /  F ield         | OpenFOAM: The Open Source CFD Toolbox
   \\    /   O peration     | Website:  https://openfoam.org
    \\  /    A nd           | Version:  8
     \\/     M anipulation  |
\*---------------------------------------------------------------------------*/
FoamFile
{
    version     2.0;
    format      ascii;
    class       volVectorField;
    location    "0.09";
    object      U;
}
// * * * * * * * * * * * * * * * * * * * * * * * * * * * * * * * * * * * * * //

dimensions      [0 1 -1 0 0 0 0];

internalField   nonuniform List<vector> 
15677
(
(-0.0399015 9.66595 0)
(0.0484951 9.92199 0)
(-0.00181361 9.37829 0)
(0.0206523 9.97702 0)
(0.0198921 9.78866 0)
(0.00731344 9.14125 0)
(0.0258391 9.99515 0)
(0.0165373 9.92467 0)
(0.0111792 9.65398 0)
(0.00649144 8.96067 0)
(0.0263308 10.0025 0)
(0.0205524 9.97871 0)
(0.0165509 9.85203 0)
(0.00912493 9.53081 0)
(0.00515971 8.81703 0)
(0.0255703 10.0057 0)
(0.0215843 10.003 0)
(0.0194061 9.94152 0)
(0.0153648 9.77951 0)
(0.00798041 9.41984 0)
(0.00424048 8.70238 0)
(0.0245087 10.0071 0)
(0.0218659 10.0147 0)
(0.0210022 9.98479 0)
(0.0182523 9.90244 0)
(0.0138546 9.70811 0)
(0.00692511 9.32158 0)
(0.00354489 8.61019 0)
(0.023097 10.0075 0)
(0.0217423 10.0205 0)
(0.0218694 10.0069 0)
(0.0201986 9.96497 0)
(0.0169615 9.86193 0)
(0.0124419 9.64084 0)
(0.00596855 9.23643 0)
(0.00295865 8.53617 0)
(0.021409 10.0074 0)
(0.0211909 10.0233 0)
(0.0221525 10.0184 0)
(0.021288 9.99809 0)
(0.0190532 9.94371 0)
(0.0156078 9.82229 0)
(0.0110791 9.57966 0)
(0.00507698 9.16416 0)
(0.00241881 8.47763 0)
(0.0195159 10.007 0)
(0.0203302 10.0235 0)
(0.0221097 10.0241 0)
(0.0217804 10.0162 0)
(0.0202164 9.98815 0)
(0.0177201 9.92276 0)
(0.0141429 9.78537 0)
(0.00968567 9.52576 0)
(0.00419877 9.10455 0)
(0.00188727 8.43311 0)
(0.0175005 10.0063 0)
(0.0192739 10.0223 0)
(0.0216663 10.0271 0)
(0.0218025 10.0261 0)
(0.0207471 10.0131 0)
(0.0188614 9.97855 0)
(0.0161742 9.9036 0)
(0.0125192 9.75242 0)
(0.00820369 9.4801 0)
(0.00328854 9.05741 0)
(0.00133493 8.40162 0)
(0.015399 10.0056 0)
(0.0179647 10.0206 0)
(0.0209336 10.0281 0)
(0.0214563 10.0315 0)
(0.0207802 10.0273 0)
(0.0193191 10.0103 0)
(0.0171879 9.97058 0)
(0.0143581 9.88721 0)
(0.0106812 9.72459 0)
(0.00658246 9.44349 0)
(0.00230468 9.02268 0)
(0.000739205 8.38288 0)
(0.0132619 10.0048 0)
(0.0164814 10.0185 0)
(0.0198589 10.0274 0)
(0.0207814 10.034 0)
(0.0203995 10.0354 0)
(0.0192408 10.0289 0)
(0.0174619 10.0092 0)
(0.0151325 9.96505 0)
(0.0121994 9.8746 0)
(0.00856731 9.70298 0)
(0.00477078 9.41667 0)
(0.00121296 9.00043 0)
(5.66153e-05 8.37667 0)
(0.0111597 10.0041 0)
(0.0148848 10.0162 0)
(0.0185077 10.0258 0)
(0.0197957 10.0345 0)
(0.019665 10.0396 0)
(0.0187142 10.0396 0)
(0.0171491 10.0319 0)
(0.0151053 10.0103 0)
(0.0126083 9.96284 0)
(0.00961852 9.86678 0)
(0.00611321 9.68863 0)
(0.00272171 9.40029 0)
(-1.49329e-05 8.9908 0)
(-0.000614009 8.38297 0)
(0.00927037 10.0034 0)
(0.0131861 10.014 0)
(0.0169189 10.0235 0)
(0.0185004 10.0334 0)
(0.018592 10.0412 0)
(0.0177884 10.0456 0)
(0.0163399 10.0453 0)
(0.0144266 10.0371 0)
(0.0121438 10.0146 0)
(0.00951431 9.96485 0)
(0.00653181 9.86474 0)
(0.00325856 9.68251 0)
(0.000397634 9.395 0)
(-0.00137817 8.99413 0)
(-0.0014023 8.40191 0)
(0.00772492 10.0029 0)
(0.0116228 10.0119 0)
(0.015132 10.0209 0)
(0.0169095 10.0313 0)
(0.0171812 10.0409 0)
(0.0164827 10.0483 0)
(0.0150794 10.053 0)
(0.0131881 10.0531 0)
(0.0109492 10.0453 0)
(0.00845429 10.0228 0)
(0.00574373 9.97197 0)
(0.00285787 9.86948 0)
(-6.10579e-05 9.68559 0)
(-0.00226031 9.40141 0)
(-0.002941 9.01057 0)
(-0.0022922 8.43377 0)
(0.00641342 10.0024 0)
(0.0102303 10.0102 0)
(0.013393 10.0184 0)
(0.0150531 10.0286 0)
(0.0154367 10.0392 0)
(0.0148006 10.0488 0)
(0.0133854 10.0569 0)
(0.0114321 10.0624 0)
(0.0091138 10.0638 0)
(0.00656911 10.0573 0)
(0.00390463 10.0358 0)
(0.00119122 9.98514 0)
(-0.00147952 9.88198 0)
(-0.00388225 9.69871 0)
(-0.00526675 9.42008 0)
(-0.00469586 9.04038 0)
(-0.00328011 8.4786 0)
(0.00530901 10.002 0)
(0.00897392 10.0087 0)
(0.0118142 10.0162 0)
(0.0131756 10.0257 0)
(0.0133756 10.0364 0)
(0.0127428 10.0475 0)
(0.0112613 10.058 0)
(0.0091729 10.0674 0)
(0.00667603 10.0747 0)
(0.00394246 10.0781 0)
(0.00112674 10.0739 0)
(-0.0016379 10.0545 0)
(-0.00424601 10.0053 0)
(-0.00655438 9.90316 0)
(-0.00826232 9.72269 0)
(-0.00864922 9.45142 0)
(-0.0066478 9.08363 0)
(-0.00436092 8.53647 0)
(0.00438502 10.0016 0)
(0.00784158 10.0074 0)
(0.0103563 10.0143 0)
(0.011437 10.0231 0)
(0.01126 10.0333 0)
(0.0103187 10.0448 0)
(0.00870714 10.0571 0)
(0.00641099 10.0691 0)
(0.00364448 10.0805 0)
(0.000605404 10.0904 0)
(-0.00251656 10.0969 0)
(-0.00554054 10.096 0)
(-0.00830206 10.0797 0)
(-0.0106602 10.0332 0)
(-0.012424 9.93388 0)
(-0.0132308 9.75813 0)
(-0.0124247 9.49573 0)
(-0.00880191 9.14044 0)
(-0.00553314 8.60724 0)
(0.00361099 10.0013 0)
(0.00682172 10.0062 0)
(0.00901359 10.0126 0)
(0.0098044 10.0206 0)
(0.00928619 10.0303 0)
(0.00782635 10.0415 0)
(0.00573099 10.0545 0)
(0.00314605 10.0685 0)
(1.53459e-05 10.0828 0)
(-0.00344135 10.0971 0)
(-0.00700524 10.1104 0)
(-0.0104589 10.1209 0)
(-0.0135904 10.1242 0)
(-0.0162051 10.1122 0)
(-0.0181268 10.0699 0)
(-0.019126 9.97487 0)
(-0.0188012 9.80555 0)
(-0.016592 9.55316 0)
(-0.0111465 9.21058 0)
(-0.00678388 8.69056 0)
(0.00297824 10.001 0)
(0.00591016 10.0052 0)
(0.00778195 10.011 0)
(0.00828524 10.0184 0)
(0.00742545 10.0274 0)
(0.00549916 10.0381 0)
(0.00268898 10.0509 0)
(-0.000611862 10.0658 0)
(-0.00421289 10.0823 0)
(-0.00820776 10.0997 0)
(-0.0123496 10.1178 0)
(-0.0163885 10.1355 0)
(-0.0200747 10.1509 0)
(-0.0231671 10.1595 0)
(-0.0254428 10.1529 0)
(-0.0266978 10.1159 0)
(-0.026679 10.0267 0)
(-0.0249691 9.86521 0)
(-0.0211379 9.62367 0)
(-0.0136732 9.29387 0)
(-0.00810631 8.78602 0)
(0.00247758 10.0008 0)
(0.00508733 10.0044 0)
(0.00665882 10.0096 0)
(0.00688318 10.0164 0)
(0.0056949 10.0247 0)
(0.00330854 10.0347 0)
(-0.000141099 10.047 0)
(-0.00442047 10.0618 0)
(-0.00902608 10.0794 0)
(-0.0136973 10.0992 0)
(-0.0185681 10.1206 0)
(-0.0233546 10.1433 0)
(-0.0277711 10.1664 0)
(-0.0315383 10.1877 0)
(-0.0343894 10.2026 0)
(-0.0360827 10.2024 0)
(-0.0363975 10.1719 0)
(-0.0350769 10.0898 0)
(-0.0317122 9.93724 0)
(-0.0260335 9.70707 0)
(-0.0163513 9.38967 0)
(-0.00947701 8.89278 0)
(0.00209294 10.0007 0)
(0.00438368 10.0037 0)
(0.00563705 10.0084 0)
(0.00559978 10.0145 0)
(0.00410415 10.0221 0)
(0.00128103 10.0314 0)
(-0.00279283 10.043 0)
(-0.00794347 10.0573 0)
(-0.0138639 10.0748 0)
(-0.0198906 10.0958 0)
(-0.0256674 10.1198 0)
(-0.0313873 10.1462 0)
(-0.0367248 10.1745 0)
(-0.0413617 10.2039 0)
(-0.0449944 10.232 0)
(-0.0473426 10.2541 0)
(-0.0481573 10.2613 0)
(-0.0472187 10.2383 0)
(-0.0442874 10.1643 0)
(-0.038986 10.0215 0)
(-0.0312353 9.80288 0)
(-0.0191602 9.49743 0)
(-0.0108772 9.01014 0)
(0.00179646 10.0006 0)
(0.00381278 10.0032 0)
(0.00475515 10.0074 0)
(0.00443531 10.0129 0)
(0.00265908 10.0198 0)
(-0.000567078 10.0283 0)
(-0.00523009 10.039 0)
(-0.0112251 10.0526 0)
(-0.0183126 10.0695 0)
(-0.0260719 10.0905 0)
(-0.033622 10.1158 0)
(-0.0404984 10.145 0)
(-0.0469816 10.1772 0)
(-0.0527083 10.2121 0)
(-0.0573352 10.2487 0)
(-0.0605496 10.2845 0)
(-0.0620704 10.3147 0)
(-0.0616602 10.33 0)
(-0.0591185 10.3153 0)
(-0.0542488 10.2502 0)
(-0.0467254 10.1177 0)
(-0.0366897 9.91049 0)
(-0.0220348 9.6161 0)
(-0.0122417 9.13649 0)
(0.00156373 10.0005 0)
(0.00334794 10.0028 0)
(0.00403273 10.0065 0)
(0.00343536 10.0114 0)
(0.00136379 10.0175 0)
(-0.00222492 10.0253 0)
(-0.00742894 10.0351 0)
(-0.0142189 10.0477 0)
(-0.0224327 10.0638 0)
(-0.0317268 10.0842 0)
(-0.041518 10.1094 0)
(-0.0506557 10.14 0)
(-0.0585611 10.1753 0)
(-0.0656445 10.2144 0)
(-0.0715153 10.2568 0)
(-0.0758231 10.3015 0)
(-0.0782609 10.3458 0)
(-0.0785683 10.3847 0)
(-0.07654 10.4088 0)
(-0.0720191 10.403 0)
(-0.0648724 10.3474 0)
(-0.0548457 10.2252 0)
(-0.0422805 10.029 0)
(-0.0248597 9.74442 0)
(-0.0132729 9.26999 0)
(0.00137853 10.0005 0)
(0.00296691 10.0025 0)
(0.00344245 10.0059 0)
(0.00262324 10.0102 0)
(0.000269916 10.0156 0)
(-0.00368487 10.0224 0)
(-0.00937262 10.0313 0)
(-0.0168921 10.0428 0)
(-0.0261661 10.0578 0)
(-0.0369387 10.0772 0)
(-0.0487131 10.1017 0)
(-0.0606986 10.1322 0)
(-0.0714245 10.1691 0)
(-0.0802016 10.2115 0)
(-0.0876277 10.2584 0)
(-0.0933064 10.3093 0)
(-0.0968982 10.3628 0)
(-0.0981271 10.4162 0)
(-0.096778 10.4643 0)
(-0.0927041 10.4977 0)
(-0.0858053 10.5012 0)
(-0.0760399 10.4552 0)
(-0.0632002 10.3433 0)
(-0.0479602 10.1573 0)
(-0.0278246 9.88185 0)
(-0.0156012 9.41064 0)
(0.0012293 10.0004 0)
(0.00265225 10.0022 0)
(0.00295854 10.0053 0)
(0.00196873 10.0092 0)
(-0.00060015 10.0139 0)
(-0.00488803 10.0198 0)
(-0.0110491 10.0276 0)
(-0.0192208 10.038 0)
(-0.0294696 10.0517 0)
(-0.0416354 10.0697 0)
(-0.0553198 10.0932 0)
(-0.0698248 10.1228 0)
(-0.0841103 10.1595 0)
(-0.096336 10.2037 0)
(-0.10572 10.2543 0)
(-0.113126 10.31 0)
(-0.118175 10.37 0)
(-0.120568 10.433 0)
(-0.120088 10.496 0)
(-0.116592 10.5537 0)
(-0.110009 10.5967 0)
(-0.100325 10.6096 0)
(-0.0875668 10.5731 0)
(-0.0716459 10.4709 0)
(-0.0529692 10.2944 0)
(-0.0246747 10.0221 0)
(-0.0115196 9.49612 0)
(0.0011076 10.0004 0)
(0.00239092 10.002 0)
(0.00256108 10.0049 0)
(0.00143989 10.0083 0)
(-0.00128401 10.0125 0)
(-0.00581566 10.0176 0)
(-0.0123905 10.0242 0)
(-0.0211873 10.0332 0)
(-0.03231 10.0455 0)
(-0.0457608 10.0621 0)
(-0.0612492 10.084 0)
(-0.0781839 10.1123 0)
(-0.0956191 10.1481 0)
(-0.112223 10.192 0)
(-0.125746 10.2446 0)
(-0.135356 10.3044 0)
(-0.142266 10.3696 0)
(-0.146145 10.4395 0)
(-0.146769 10.5125 0)
(-0.144014 10.5854 0)
(-0.137836 10.6528 0)
(-0.128267 10.7052 0)
(-0.115353 10.7274 0)
(-0.0992655 10.7002 0)
(-0.0796705 10.607 0)
(-0.0569677 10.4374 0)
(-0.0201717 10.1937 0)
(-0.00294962 9.56191 0)
(0.00100722 10.0003 0)
(0.00217303 10.0018 0)
(0.00222895 10.0045 0)
(0.00101226 10.0076 0)
(-0.00181982 10.0112 0)
(-0.00651727 10.0156 0)
(-0.0133846 10.0212 0)
(-0.0227117 10.0287 0)
(-0.0346626 10.0394 0)
(-0.0492706 10.0543 0)
(-0.0664293 10.0743 0)
(-0.0856662 10.1009 0)
(-0.106146 10.1352 0)
(-0.126627 10.1781 0)
(-0.145459 10.2304 0)
(-0.159952 10.2925 0)
(-0.169271 10.3623 0)
(-0.175076 10.4378 0)
(-0.177137 10.5181 0)
(-0.175348 10.6013 0)
(-0.169705 10.6842 0)
(-0.160288 10.7613 0)
(-0.147216 10.8229 0)
(-0.130648 10.854 0)
(-0.110595 10.8354 0)
(-0.0864612 10.7505 0)
(-0.0601751 10.5944 0)
(-0.0215847 10.367 0)
(0.00235691 9.61927 0)
(0.000923604 10.0003 0)
(0.00199077 10.0017 0)
(0.0019532 10.0041 0)
(0.000668511 10.007 0)
(-0.00223835 10.0102 0)
(-0.00704132 10.0139 0)
(-0.0140977 10.0186 0)
(-0.0237913 10.0248 0)
(-0.0364317 10.0336 0)
(-0.0521308 10.0464 0)
(-0.070802 10.0644 0)
(-0.0921804 10.0889 0)
(-0.115557 10.1211 0)
(-0.1398 10.1623 0)
(-0.163336 10.2136 0)
(-0.184172 10.2753 0)
(-0.199152 10.3478 0)
(-0.207507 10.4285 0)
(-0.211484 10.5149 0)
(-0.210997 10.6059 0)
(-0.206088 10.6994 0)
(-0.196909 10.7922 0)
(-0.183656 10.8787 0)
(-0.166571 10.9491 0)
(-0.145718 10.9885 0)
(-0.120942 10.9781 0)
(-0.092047 10.9023 0)
(-0.0622296 10.7641 0)
(-0.0244055 10.5369 0)
(0.00320557 9.67619 0)
(0.000853377 10.0003 0)
(0.00183756 10.0016 0)
(0.00172458 10.0038 0)
(0.000388134 10.0064 0)
(-0.00256399 10.0093 0)
(-0.00742691 10.0125 0)
(-0.014593 10.0163 0)
(-0.0245155 10.0213 0)
(-0.0376263 10.0284 0)
(-0.0542244 10.0389 0)
(-0.0743212 10.0544 0)
(-0.097651 10.0764 0)
(-0.123737 10.1061 0)
(-0.151575 10.145 0)
(-0.179694 10.1944 0)
(-0.206157 10.255 0)
(-0.228605 10.3272 0)
(-0.243426 10.411 0)
(-0.250013 10.5034 0)
(-0.251331 10.6011 0)
(-0.247484 10.7029 0)
(-0.238704 10.8066 0)
(-0.225297 10.909 0)
(-0.207606 11.0043 0)
(-0.185868 11.0829 0)
(-0.160049 11.1303 0)
(-0.130673 11.1281 0)
(-0.0974774 11.0622 0)
(-0.0640299 10.9411 0)
(-0.0270716 10.7024 0)
(0.00272145 9.74963 0)
(0.000793991 10.0003 0)
(0.00170801 10.0015 0)
(0.00153492 10.0036 0)
(0.000158274 10.006 0)
(-0.00281723 10.0085 0)
(-0.00770531 10.0112 0)
(-0.0149213 10.0143 0)
(-0.0249673 10.0182 0)
(-0.0383667 10.0238 0)
(-0.0555755 10.0321 0)
(-0.0768419 10.0447 0)
(-0.102016 10.0637 0)
(-0.130588 10.0905 0)
(-0.161809 10.1266 0)
(-0.194333 10.1733 0)
(-0.226306 10.2319 0)
(-0.25539 10.3031 0)
(-0.278891 10.3867 0)
(-0.292744 10.4827 0)
(-0.296626 10.5872 0)
(-0.294355 10.6964 0)
(-0.286275 10.8089 0)
(-0.272826 10.9226 0)
(-0.254494 11.0341 0)
(-0.231693 11.1376 0)
(-0.204648 11.2239 0)
(-0.173822 11.279 0)
(-0.140419 11.2844 0)
(-0.103622 11.2292 0)
(-0.0666927 11.1204 0)
(-0.029922 10.8824 0)
(0.00158896 9.83431 0)
(0.000743451 10.0002 0)
(0.00159787 10.0014 0)
(0.00137541 10.0034 0)
(-3.08695e-05 10.0056 0)
(-0.00301374 10.0078 0)
(-0.00790132 10.0101 0)
(-0.0151227 10.0125 0)
(-0.0252133 10.0155 0)
(-0.0387622 10.0197 0)
(-0.0563434 10.0261 0)
(-0.0784056 10.0359 0)
(-0.105094 10.0513 0)
(-0.136028 10.0745 0)
(-0.170377 10.1073 0)
(-0.207072 10.1508 0)
(-0.244372 10.2065 0)
(-0.279994 10.2756 0)
(-0.311217 10.3583 0)
(-0.335032 10.4543 0)
(-0.346949 10.5631 0)
(-0.347062 10.68 0)
(-0.340193 10.8007 0)
(-0.326961 10.9238 0)
(-0.308038 11.0469 0)
(-0.284055 11.1668 0)
(-0.255496 11.2779 0)
(-0.222989 11.3716 0)
(-0.187482 11.4335 0)
(-0.150346 11.446 0)
(-0.110492 11.4004 0)
(-0.0705868 11.3203 0)
(-0.0328634 11.0774 0)
(-0.0001719 9.92824 0)
(0.000700149 10.0002 0)
(0.00150378 10.0013 0)
(0.00124085 10.0032 0)
(-0.000185589 10.0052 0)
(-0.00316582 10.0072 0)
(-0.00803442 10.0091 0)
(-0.015229 10.011 0)
(-0.0253061 10.0132 0)
(-0.0389001 10.0161 0)
(-0.0566716 10.0207 0)
(-0.0792213 10.0281 0)
(-0.106947 10.0401 0)
(-0.139828 10.0589 0)
(-0.177171 10.0873 0)
(-0.217754 10.127 0)
(-0.260134 10.1792 0)
(-0.302119 10.2452 0)
(-0.341 10.3259 0)
(-0.373687 10.4212 0)
(-0.396887 10.5303 0)
(-0.405748 10.6524 0)
(-0.40093 10.7818 0)
(-0.388401 10.9138 0)
(-0.369083 11.0469 0)
(-0.34388 11.1789 0)
(-0.31357 11.3065 0)
(-0.278982 11.4247 0)
(-0.2412 11.5247 0)
(-0.201243 11.5927 0)
(-0.160391 11.6109 0)
(-0.118293 11.594 0)
(-0.075335 11.5395 0)
(-0.0360347 11.2679 0)
(-0.00210956 10.029 0)
(0.000663091 10.0002 0)
(0.00142283 10.0013 0)
(0.00112698 10.0031 0)
(-0.000312832 10.0049 0)
(-0.00328298 10.0067 0)
(-0.00811985 10.0083 0)
(-0.0152651 10.0097 0)
(-0.0252869 10.0111 0)
(-0.0388497 10.013 0)
(-0.0566747 10.016 0)
(-0.0794753 10.0211 0)
(-0.107842 10.03 0)
(-0.14207 10.0447 0)
(-0.181899 10.0678 0)
(-0.226238 10.1024 0)
(-0.273394 10.1503 0)
(-0.321495 10.2124 0)
(-0.367885 10.29 0)
(-0.409428 10.3834 0)
(-0.442687 10.4922 0)
(-0.464166 10.615 0)
(-0.468723 10.7506 0)
(-0.457744 10.8925 0)
(-0.438471 11.0354 0)
(-0.412152 11.1779 0)
(-0.379926 11.3179 0)
(-0.342898 11.4526 0)
(-0.302296 11.5769 0)
(-0.259388 11.6824 0)
(-0.215082 11.7545 0)
(-0.171446 11.7974 0)
(-0.126702 11.8088 0)
(-0.0804761 11.7547 0)
(-0.0391281 11.453 0)
(-0.00396193 10.1345 0)
(0.0013526 10.0012 0)
(0.000619152 10.0002 0)
(0.00102963 10.0029 0)
(-0.000417637 10.0046 0)
(-0.00337265 10.0062 0)
(-0.0081695 10.0075 0)
(-0.0152501 10.0085 0)
(-0.0251879 10.0093 0)
(-0.0386648 10.0102 0)
(-0.0564431 10.0118 0)
(-0.0793168 10.015 0)
(-0.108022 10.021 0)
(-0.143096 10.0318 0)
(-0.184664 10.0499 0)
(-0.232154 10.0782 0)
(-0.28397 10.1202 0)
(-0.337871 10.1777 0)
(-0.391538 10.2511 0)
(-0.441832 10.3413 0)
(-0.485206 10.4485 0)
(-0.517946 10.5716 0)
(-0.536443 10.7086 0)
(-0.535352 10.8577 0)
(-0.516947 11.0117 0)
(-0.489866 11.1648 0)
(-0.455699 11.316 0)
(-0.415926 11.4633 0)
(-0.372032 11.6041 0)
(-0.325435 11.7335 0)
(-0.277433 11.8426 0)
(-0.230312 11.9371 0)
(-0.183264 12.0046 0)
(-0.134878 12.0212 0)
(-0.0855926 11.964 0)
(-0.0420184 11.6324 0)
(-0.00573014 10.2427 0)
(0.000944389 10.0028 0)
(0.00127214 10.0012 0)
(0.000566859 10.0002 0)
(-0.000504701 10.0044 0)
(-0.00344043 10.0058 0)
(-0.00819239 10.0069 0)
(-0.015199 10.0075 0)
(-0.0250336 10.0077 0)
(-0.0383872 10.0077 0)
(-0.0560471 10.0081 0)
(-0.0788632 10.0095 0)
(-0.107678 10.013 0)
(-0.143213 10.0204 0)
(-0.185896 10.0337 0)
(-0.235617 10.056 0)
(-0.29139 10.0906 0)
(-0.351019 10.1413 0)
(-0.411652 10.2097 0)
(-0.470499 10.2957 0)
(-0.523949 10.3998 0)
(-0.568099 10.5217 0)
(-0.599042 10.6596 0)
(-0.613166 10.8109 0)
(-0.605025 10.9733 0)
(-0.57794 11.1389 0)
(-0.542057 11.3016 0)
(-0.499367 11.4605 0)
(-0.451729 11.6141 0)
(-0.400865 11.7599 0)
(-0.348233 11.8927 0)
(-0.297115 12.0232 0)
(-0.246473 12.1398 0)
(-0.194579 12.2104 0)
(-0.142591 12.229 0)
(-0.0904551 12.1663 0)
(-0.0446226 11.8055 0)
(-0.00734678 10.3518 0)
(-0.000582129 10.0042 0)
(0.000855663 10.0027 0)
(0.00117445 10.0011 0)
(0.000517122 10.0002 1.82426e-19)
(-0.0034916 10.0055 0)
(-0.00819502 10.0063 0)
(-0.015123 10.0066 0)
(-0.0248432 10.0063 0)
(-0.0380487 10.0056 0)
(-0.0555411 10.0048 0)
(-0.0782061 10.0046 0)
(-0.106961 10.0059 0)
(-0.142665 10.0102 0)
(-0.185978 10.0193 0)
(-0.237161 10.0359 0)
(-0.295779 10.0633 0)
(-0.360334 10.1054 0)
(-0.427935 10.1662 0)
(-0.495052 10.2469 0)
(-0.558438 10.3468 0)
(-0.614049 10.466 0)
(-0.657702 10.6033 0)
(-0.685409 10.7564 0)
(-0.69368 10.9219 0)
(-0.677073 11.0973 0)
(-0.640115 11.2737 0)
(-0.594576 11.445 0)
(-0.542864 11.6106 0)
(-0.48712 11.7694 0)
(-0.429172 11.9185 0)
(-0.373015 12.0723 0)
(-0.317918 12.2236 0)
(-0.261714 12.341 0)
(-0.205177 12.4123 0)
(-0.149691 12.4305 0)
(-0.0949508 12.3609 0)
(-0.0469143 11.972 0)
(-0.00878386 10.4602 0)
(-0.00353926 10.0052 0)
(-0.00064473 10.004 0)
(0.000756414 10.0025 8.14819e-19)
(0.00108094 10.001 -5.7804e-19)
(0.000469791 10.0002 -3.63835e-19)
(-0.00818319 10.0058 0)
(-0.0150297 10.0058 0)
(-0.0246306 10.005 0)
(-0.0376738 10.0037 0)
(-0.0549665 10.0019 0)
(-0.077416 10.0003 0)
(-0.105989 9.99965 0)
(-0.141645 10.0011 0)
(-0.18522 10.0063 0)
(-0.237263 10.0178 0)
(-0.297786 10.0385 0)
(-0.365939 10.0722 0)
(-0.43962 10.1232 0)
(-0.515123 10.1955 0)
(-0.588215 10.29 0)
(-0.655233 10.4051 0)
(-0.711766 10.5402 0)
(-0.753455 10.6935 0)
(-0.77636 10.8619 0)
(-0.777249 11.0414 0)
(-0.750796 11.2289 0)
(-0.702889 11.4153 0)
(-0.646998 11.5941 0)
(-0.585867 11.7653 0)
(-0.521805 11.9276 0)
(-0.459864 12.0975 0)
(-0.399191 12.2716 0)
(-0.337432 12.4225 0)
(-0.275844 12.5386 0)
(-0.214899 12.6088 0)
(-0.156112 12.6247 0)
(-0.0990196 12.5472 0)
(-0.0489024 12.1314 0)
(-0.0100358 10.5666 0)
(-0.00817739 10.0054 0)
(-0.00353922 10.0048 -1.74129e-18)
(-0.000695388 10.0037 -8.59499e-19)
(0.000662923 10.0023 4.06519e-19)
(0.000991316 10.0009 -3.84199e-19)
(0.000424931 10.0001 0)
(-0.0149253 10.0051 0)
(-0.0244049 10.0039 0)
(-0.0372804 10.002 0)
(-0.0543548 9.9994 0)
(-0.0765463 9.99655 0)
(-0.104854 9.99408 0)
(-0.140306 9.993 0)
(-0.183866 9.99482 0)
(-0.236307 10.0016 0)
(-0.297995 10.0162 0)
(-0.368612 10.042 0)
(-0.446808 10.0832 0)
(-0.529747 10.1444 0)
(-0.612825 10.2299 0)
(-0.691103 10.3395 0)
(-0.760577 10.4709 0)
(-0.816563 10.6227 0)
(-0.854654 10.7924 0)
(-0.871102 10.9759 0)
(-0.863079 11.1689 0)
(-0.825486 11.3678 0)
(-0.765699 11.5629 0)
(-0.698882 11.748 0)
(-0.628009 11.9231 0)
(-0.559367 12.1063 0)
(-0.492253 12.2965 0)
(-0.423695 12.4696 0)
(-0.355475 12.6179 0)
(-0.288712 12.731 0)
(-0.223676 12.7986 0)
(-0.161828 12.8111 0)
(-0.102636 12.7249 0)
(-0.0506082 12.2833 0)
(-0.0111097 10.6699 0)
(-0.0148409 10.0044 0)
(-0.00807473 10.0048 3.67228e-18)
(-0.00347951 10.0044 0)
(-0.00074181 10.0034 8.57291e-19)
(0.000575906 10.0021 1.3765e-22)
(0.000905511 10.0009 0)
(0.000382565 10.0001 0)
(-0.0241726 10.003 0)
(-0.0368793 10.0005 0)
(-0.0537288 9.99716 0)
(-0.0756379 9.9932 0)
(-0.103624 9.98914 0)
(-0.138762 9.98584 0)
(-0.182107 9.98458 0)
(-0.234599 9.98719 0)
(-0.29688 9.99615 0)
(-0.369062 10.0147 0)
(-0.45042 10.0467 0)
(-0.538971 10.0967 0)
(-0.631055 10.1698 0)
(-0.7211 10.2699 0)
(-0.803486 10.3961 0)
(-0.873978 10.5448 0)
(-0.927743 10.7139 0)
(-0.960477 10.8999 0)
(-0.968776 11.0983 0)
(-0.950352 11.3039 0)
(-0.900436 11.513 0)
(-0.827982 11.7156 0)
(-0.74977 11.9054 0)
(-0.673648 12.1018 0)
(-0.59902 12.3054 0)
(-0.522537 12.4944 0)
(-0.446323 12.6643 0)
(-0.371903 12.8083 0)
(-0.300276 12.9172 0)
(-0.231487 12.9811 0)
(-0.166848 12.989 0)
(-0.105803 12.8937 0)
(-0.0520567 12.4276 0)
(-0.0120188 10.7694 0)
(-0.0239799 10.0021 0)
(-0.0145885 10.0037 4.92136e-22)
(-0.00783396 10.0042 0)
(-0.0034194 10.0039 -9.03944e-19)
(-0.000778434 10.0031 8.51401e-23)
(0.000495237 10.002 0)
(0.000823647 10.0008 0)
(0.000342699 10.0001 0)
(-0.0364773 9.99919 0)
(-0.0531019 9.99517 0)
(-0.07472 9.99024 0)
(-0.102352 9.98478 0)
(-0.137102 9.9795 0)
(-0.180091 9.97549 0)
(-0.23238 9.97434 0)
(-0.294821 9.97825 0)
(-0.367866 9.99013 0)
(-0.451303 10.0136 0)
(-0.543872 10.0532 0)
(-0.642869 10.1136 0)
(-0.743714 10.2 0)
(-0.839816 10.3162 0)
(-0.924939 10.4602 0)
(-0.994767 10.6271 0)
(-1.04447 10.8138 0)
(-1.07001 11.0161 0)
(-1.06848 11.2286 0)
(-1.03825 11.4457 0)
(-0.974955 11.6638 0)
(-0.889159 11.8722 0)
(-0.804923 12.0839 0)
(-0.721862 12.3011 0)
(-0.636105 12.5036 0)
(-0.550492 12.6892 0)
(-0.466932 12.8542 0)
(-0.386671 12.9927 0)
(-0.310543 13.0964 0)
(-0.238356 13.1556 0)
(-0.1712 13.1581 0)
(-0.108539 13.0535 0)
(-0.0532735 12.5642 0)
(-0.0127803 10.8646 0)
(-0.0361416 9.99802 0)
(-0.0235193 10.0011 -2.04035e-18)
(-0.0140788 10.0029 0)
(-0.0076005 10.0036 0)
(-0.00334462 10.0035 2.70372e-18)
(-0.00080544 10.0028 0)
(0.000420957 10.0018 0)
(0.000745833 10.0007 7.59753e-19)
(0.000305361 10.0001 0)
(-0.0524809 9.99341 0)
(-0.0738088 9.98761 0)
(-0.101076 9.98092 0)
(-0.135394 9.97388 0)
(-0.177931 9.96743 0)
(-0.229834 9.96291 0)
(-0.292115 9.96229 0)
(-0.365488 9.96815 0)
(-0.450152 9.98387 0)
(-0.545451 10.0136 0)
(-0.649502 10.062 0)
(-0.758779 10.1344 0)
(-0.867703 10.2358 0)
(-0.96864 10.3696 0)
(-1.05485 10.5325 0)
(-1.12212 10.7181 0)
(-1.1658 10.9225 0)
(-1.18228 11.1405 0)
(-1.16928 11.3662 0)
(-1.12595 11.5938 0)
(-1.04835 11.819 0)
(-0.955565 12.0503 0)
(-0.863249 12.2836 0)
(-0.766983 12.5 0)
(-0.670354 12.699 0)
(-0.57597 12.8793 0)
(-0.485476 13.0382 0)
(-0.399801 13.1704 0)
(-0.319556 13.268 0)
(-0.244329 13.3218 0)
(-0.174931 13.3183 0)
(-0.110875 13.2044 0)
(-0.0542853 12.6931 0)
(-0.0134122 10.9553 0)
(-0.051962 9.99185 0)
(-0.0354008 9.99673 0)
(-0.0226286 10 -2.12339e-18)
(-0.0135897 10.0021 -2.00931e-18)
(-0.00734563 10.003 -3.8003e-18)
(-0.00325509 10.0031 0)
(-0.000822832 10.0025 -1.69701e-18)
(0.000353219 10.0017 -1.60246e-18)
(0.000672084 10.0007 7.56145e-19)
(0.000270507 10.0001 0)
(-0.0729116 9.98529 0)
(-0.0998142 9.97749 0)
(-0.133685 9.96891 0)
(-0.17571 9.96027 0)
(-0.227103 9.95277 0)
(-0.288992 9.94808 0)
(-0.362292 9.94852 0)
(-0.447528 9.95716 0)
(-0.544533 9.97781 0)
(-0.652123 10.015 0)
(-0.767692 10.074 0)
(-0.886796 10.1599 0)
(-1.0028 10.2779 0)
(-1.10704 10.4307 0)
(-1.19243 10.6133 0)
(-1.25508 10.818 0)
(-1.29069 11.0398 0)
(-1.29625 11.2727 0)
(-1.27026 11.5106 0)
(-1.21266 11.7468 0)
(-1.12829 11.9962 0)
(-1.02596 12.2502 0)
(-0.917895 12.4833 0)
(-0.808683 12.6964 0)
(-0.701603 12.8901 0)
(-0.598925 13.0639 0)
(-0.501981 13.2156 0)
(-0.411353 13.3407 0)
(-0.327388 13.4316 0)
(-0.249468 13.4794 0)
(-0.178092 13.4697 0)
(-0.112846 13.3466 0)
(-0.0551176 12.8144 0)
(-0.0139317 11.0412 0)
(-0.0721634 9.98323 0)
(-0.0508528 9.99016 -2.26891e-18)
(-0.033987 9.99531 2.23661e-18)
(-0.0217808 9.99897 -1.17683e-21)
(-0.0130702 10.0013 2.00249e-18)
(-0.00706925 10.0025 1.89354e-18)
(-0.00315131 10.0027 3.57809e-18)
(-0.000830476 10.0023 2.53429e-18)
(0.000291993 10.0015 -7.97406e-19)
(0.000602444 10.0006 0)
(0.000238119 10.0001 0)
(-0.0985757 9.97446 0)
(-0.132001 9.96449 0)
(-0.173492 9.95393 0)
(-0.224295 9.94376 0)
(-0.28563 9.93544 0)
(-0.358564 9.93102 0)
(-0.443875 9.93326 0)
(-0.541791 9.94566 0)
(-0.651704 9.9725 0)
(-0.7718 10.0188 0)
(-0.898649 10.0898 0)
(-1.02681 10.191 0)
(-1.14858 10.3271 0)
(-1.2543 10.5 0)
(-1.33675 10.7031 0)
(-1.39259 10.9268 0)
(-1.41805 11.1654 0)
(-1.4109 11.4123 0)
(-1.37047 11.6607 0)
(-1.30745 11.9225 0)
(-1.21333 12.196 0)
(-1.09212 12.4508 0)
(-0.968493 12.6809 0)
(-0.846762 12.8888 0)
(-0.72979 13.0757 0)
(-0.619391 13.242 0)
(-0.516523 13.3858 0)
(-0.421417 13.5031 0)
(-0.334125 13.587 0)
(-0.253845 13.6285 0)
(-0.18074 13.6123 0)
(-0.114491 13.4801 0)
(-0.0557942 12.9283 0)
(-0.0143551 11.1222 0)
(-0.0975472 9.97177 0)
(-0.0705796 9.98103 -3.4667e-21)
(-0.0487396 9.98833 0)
(-0.0326507 9.99394 -1.89011e-21)
(-0.0208902 9.99795 0)
(-0.0125197 10.0005 -1.99531e-18)
(-0.00677219 10.0019 -3.77158e-18)
(-0.00303311 10.0023 8.92841e-23)
(-0.000828547 10.0021 1.68124e-18)
(0.000236991 10.0014 -7.9315e-19)
(0.000536899 10.0005 7.47951e-19)
(0.000208167 10.0001 0)
(-0.130348 9.96058 0)
(-0.171305 9.9483 0)
(-0.221488 9.93576 0)
(-0.282164 9.92421 0)
(-0.354523 9.91544 0)
(-0.439542 9.91192 0)
(-0.53776 9.91683 0)
(-0.649039 9.93415 0)
(-0.772232 9.96862 0)
(-0.904797 10.0255 0)
(-1.04239 10.1104 0)
(-1.17852 10.2286 0)
(-1.30441 10.3841 0)
(-1.40954 10.5781 0)
(-1.48674 10.8019 0)
(-1.5335 11.0444 0)
(-1.54679 11.299 0)
(-1.52519 11.5584 0)
(-1.48048 11.8339 0)
(-1.40871 12.1216 0)
(-1.29354 12.3975 0)
(-1.15356 12.6501 0)
(-1.01483 12.875 0)
(-0.881163 13.076 0)
(-0.754951 13.2551 0)
(-0.637457 13.413 0)
(-0.529216 13.5484 0)
(-0.430104 13.6576 0)
(-0.339866 13.7341 0)
(-0.257535 13.769 0)
(-0.182934 13.7463 0)
(-0.115846 13.6053 0)
(-0.0563368 13.035 0)
(-0.0146968 11.1985 0)
(-0.128984 9.95711 0)
(-0.0953613 9.96895 2.51645e-18)
(-0.06755 9.97871 -2.48671e-18)
(-0.0467545 9.98658 2.35026e-18)
(-0.0312561 9.99262 0)
(-0.0199559 9.99697 0)
(-0.0119401 9.99982 1.98714e-18)
(-0.00645499 10.0014 -1.87703e-18)
(-0.0029006 10.002 1.19354e-22)
(-0.000816651 10.0018 8.36235e-19)
(0.000188309 10.0013 -7.88693e-19)
(0.000475374 10.0005 -7.42698e-19)
(0.000180781 10.0001 0)
(-0.169161 9.94331 0)
(-0.218718 9.92866 0)
(-0.278691 9.91423 0)
(-0.350339 9.90158 0)
(-0.434799 9.89289 0)
(-0.532862 9.89104 0)
(-0.644766 9.8997 0)
(-0.769919 9.9233 0)
(-0.906536 9.96696 0)
(-1.05124 10.0363 0)
(-1.19872 10.1368 0)
(-1.34141 10.2734 0)
(-1.4695 10.4496 0)
(-1.57172 10.6654 0)
(-1.64124 10.9099 0)
(-1.67666 11.1707 0)
(-1.67575 11.44 0)
(-1.65129 11.7282 0)
(-1.59859 12.0316 0)
(-1.50464 12.3237 0)
(-1.36831 12.5986 0)
(-1.21001 12.8464 0)
(-1.05682 13.0643 0)
(-0.911945 13.2571 0)
(-0.777193 13.4274 0)
(-0.653258 13.5764 0)
(-0.540194 13.703 0)
(-0.437534 13.8039 0)
(-0.344715 13.8729 0)
(-0.260614 13.9012 0)
(-0.184728 13.8721 0)
(-0.116949 13.7226 0)
(-0.0567662 13.1348 0)
(-0.0149696 11.27 0)
(-0.167403 9.93888 0)
(-0.126047 9.95351 0)
(-0.0911517 9.96602 2.61556e-18)
(-0.0647189 9.97648 -4.9607e-18)
(-0.0446907 9.9849 4.6917e-18)
(-0.0298015 9.99136 -4.43524e-18)
(-0.0189817 9.99604 0)
(-0.0113323 9.99914 1.97887e-18)
(-0.00611791 10.0009 -1.86766e-18)
(-0.00275513 10.0016 -1.7629e-18)
(-0.000794125 10.0016 0)
(0.000145665 10.0011 7.83131e-19)
(0.000417997 10.0004 0)
(0.000156462 10 0)
(-0.216001 9.92236 0)
(-0.275257 9.90536 0)
(-0.346133 9.88925 0)
(-0.429855 9.87594 0)
(-0.527425 9.86801 0)
(-0.639392 9.86882 0)
(-0.765614 9.88249 0)
(-0.904944 9.91388 0)
(-1.05486 9.96846 0)
(-1.21108 10.0519 0)
(-1.36725 10.1697 0)
(-1.51478 10.3263 0)
(-1.64289 10.5243 0)
(-1.7397 10.7621 0)
(-1.79907 11.0272 0)
(-1.82084 11.305 0)
(-1.81883 11.605 0)
(-1.78742 11.9235 0)
(-1.71109 12.2336 0)
(-1.5945 12.5264 0)
(-1.43724 12.7975 0)
(-1.26131 13.0384 0)
(-1.0945 13.248 0)
(-0.93924 13.4314 0)
(-0.796677 13.5923 0)
(-0.666953 13.7319 0)
(-0.549609 13.8495 0)
(-0.443833 13.9421 0)
(-0.34877 14.0037 0)
(-0.263157 14.0253 0)
(-0.186177 13.9898 0)
(-0.117832 13.8322 0)
(-0.0571001 13.2281 0)
(-0.0151836 11.337 0)
(-0.213789 9.91677 0)
(-0.163543 9.93434 0)
(-0.120344 9.94984 0)
(-0.0872401 9.96322 5.21716e-18)
(-0.0617853 9.97437 -4.93705e-18)
(-0.0425472 9.98331 4.66857e-18)
(-0.0282937 9.99018 0)
(-0.0179691 9.99516 -2.0842e-18)
(-0.0106969 9.99849 0)
(-0.00576176 10.0005 1.85757e-18)
(-0.00259552 10.0013 0)
(-0.000762583 10.0014 0)
(0.000110254 10.001 0)
(0.00036604 10.0004 7.57092e-19)
(0.000135245 10 3.64675e-19)
(-0.271884 9.89749 0)
(-0.341958 9.87828 0)
(-0.42486 9.86084 0)
(-0.521708 9.84747 0)
(-0.633315 9.8412 0)
(-0.759919 9.84584 0)
(-0.900901 9.86596 0)
(-1.05446 9.90683 0)
(-1.21725 9.97413 0)
(-1.38403 10.0736 0)
(-1.54741 10.2103 0)
(-1.69776 10.3881 0)
(-1.82348 10.6085 0)
(-1.91232 10.8687 0)
(-1.95898 11.1533 0)
(-1.9818 11.4638 0)
(-1.97426 11.7966 0)
(-1.91791 12.1246 0)
(-1.8171 12.4376 0)
(-1.67779 12.7281 0)
(-1.50013 12.993 0)
(-1.30747 13.2252 0)
(-1.12801 13.425 0)
(-0.963235 13.5984 0)
(-0.813609 13.7494 0)
(-0.678722 13.8794 0)
(-0.557612 13.988 0)
(-0.449124 14.0723 0)
(-0.352129 14.1265 0)
(-0.265231 14.1417 0)
(-0.187328 14.0999 0)
(-0.118527 13.9345 0)
(-0.057354 13.3151 0)
(-0.0153471 11.3997 0)
(-0.269166 9.8905 0)
(-0.208815 9.91107 0)
(-0.155984 9.92977 5.81984e-18)
(-0.115074 9.94636 5.51021e-18)
(-0.0831949 9.96058 5.21216e-18)
(-0.0587485 9.97238 -4.92717e-18)
(-0.0403344 9.98182 0)
(-0.0267346 9.98906 0)
(-0.0169192 9.99433 0)
(-0.0100352 9.99789 3.91651e-18)
(-0.00538865 10 1.84709e-18)
(-0.00242217 10.001 1.74005e-18)
(-0.000722042 10.0012 0)
(8.13502e-05 10.0009 -7.98235e-19)
(0.000319335 10.0004 -3.85176e-19)
(0.000116651 10 0)
(-0.337853 9.86854 0)
(-0.419881 9.84741 0)
(-0.515894 9.82916 0)
(-0.626849 9.81652 0)
(-0.75331 9.81298 0)
(-0.895115 9.82282 0)
(-1.05107 9.85103 0)
(-1.21864 9.90317 0)
(-1.39358 9.98506 0)
(-1.56964 10.1023 0)
(-1.73842 10.2595 0)
(-1.88936 10.4595 0)
(-2.01016 10.7029 0)
(-2.08831 10.9847 0)
(-2.13867 11.3042 0)
(-2.15792 11.6502 0)
(-2.12439 11.9959 0)
(-2.04176 12.3295 0)
(-1.916 12.642 0)
(-1.75425 12.9274 0)
(-1.55699 13.1839 0)
(-1.34865 13.4058 0)
(-1.15754 13.595 0)
(-0.984157 13.7578 0)
(-0.828212 13.8985 0)
(-0.688752 14.0189 0)
(-0.564358 14.1186 0)
(-0.453526 14.1947 0)
(-0.354879 14.2417 0)
(-0.266902 14.2505 0)
(-0.188226 14.2027 0)
(-0.119063 14.03 0)
(-0.0575388 13.3962 0)
(-0.0154715 11.4581 0)
(-0.33458 9.85988 0)
(-0.262855 9.88341 0)
(-0.198977 9.90543 -1.22443e-17)
(-0.149028 9.92545 1.78194e-20)