/*--------------------------------*- C++ -*----------------------------------*\
  =========                 |
  \\      /  F ield         | OpenFOAM: The Open Source CFD Toolbox
   \\    /   O peration     | Website:  https://openfoam.org
    \\  /    A nd           | Version:  8
     \\/     M anipulation  |
\*---------------------------------------------------------------------------*/
FoamFile
{
    version     2.0;
    format      ascii;
    class       volScalarField;
    location    "0.44";
    object      k;
}
// * * * * * * * * * * * * * * * * * * * * * * * * * * * * * * * * * * * * * //

dimensions      [0 2 -2 0 0 0 0];

internalField   nonuniform List<scalar> 
15677
(
0.333988
0.364671
0.294332
0.368611
0.357009
0.280634
0.370639
0.359738
0.365642
0.28243
0.371856
0.361477
0.361175
0.383051
0.288687
0.372596
0.363661
0.357591
0.368124
0.401571
0.300213
0.373032
0.365618
0.357772
0.358029
0.379998
0.419361
0.31177
0.373261
0.367157
0.359421
0.354518
0.360955
0.393265
0.434795
0.32262
0.373348
0.368291
0.361333
0.354731
0.353014
0.366868
0.406178
0.447953
0.332122
0.37335
0.369074
0.363051
0.356314
0.351093
0.353469
0.373555
0.418328
0.458815
0.340519
0.373315
0.369564
0.364434
0.358203
0.351911
0.34877
0.354777
0.380725
0.429168
0.467979
0.347594
0.373275
0.369823
0.365459
0.35995
0.353704
0.348371
0.34714
0.357128
0.387701
0.438919
0.475483
0.353801
0.373248
0.369926
0.366147
0.36139
0.355656
0.349755
0.345349
0.346326
0.35973
0.394513
0.447339
0.481899
0.358979
0.373238
0.36994
0.366548
0.362474
0.35742
0.351714
0.346201
0.342923
0.345898
0.362647
0.400768
0.454817
0.487184
0.363602
0.373236
0.369922
0.366737
0.363208
0.358856
0.353675
0.348066
0.343086
0.340861
0.345915
0.365521
0.40665
0.461158
0.491741
0.367637
0.373237
0.369907
0.366794
0.363634
0.359915
0.355385
0.350151
0.344741
0.340284
0.339189
0.346054
0.36844
0.411843
0.466768
0.495516
0.371199
0.373238
0.3699
0.366794
0.363833
0.360607
0.356733
0.352082
0.34687
0.341687
0.337804
0.337739
0.346391
0.371136
0.416636
0.471434
0.498845
0.374465
0.373238
0.369897
0.366784
0.363891
0.36099
0.357687
0.353684
0.348966
0.343819
0.338902
0.335565
0.336518
0.346799
0.373776
0.420711
0.475537
0.501724
0.377238
0.373237
0.369896
0.366775
0.363899
0.361138
0.358274
0.354883
0.350784
0.346046
0.340992
0.33635
0.333558
0.335451
0.347317
0.376069
0.424393
0.478924
0.504255
0.380052
0.373237
0.369896
0.366769
0.363895
0.361181
0.358544
0.355675
0.352209
0.348054
0.343316
0.338385
0.334021
0.331746
0.334564
0.347771
0.378229
0.427402
0.481886
0.506613
0.382239
0.373237
0.369895
0.366765
0.363889
0.361185
0.358649
0.356075
0.353206
0.349685
0.345487
0.34079
0.335988
0.331902
0.330136
0.333777
0.348259
0.379988
0.430087
0.484335
0.508626
0.384849
0.373236
0.369895
0.366762
0.363884
0.361178
0.358683
0.356248
0.353752
0.350874
0.347306
0.343111
0.338461
0.333806
0.329991
0.328709
0.333112
0.348639
0.381609
0.432172
0.486463
0.510745
0.386585
0.373236
0.369894
0.366759
0.363881
0.361169
0.358688
0.356312
0.354015
0.351557
0.348681
0.345108
0.340917
0.336346
0.331841
0.328304
0.327457
0.33254
0.349011
0.382819
0.434043
0.488243
0.512431
0.389171
0.373236
0.369894
0.366758
0.363878
0.361161
0.358684
0.356326
0.354132
0.351903
0.349512
0.346659
0.343077
0.338939
0.334458
0.330118
0.32683
0.326404
0.332052
0.349276
0.383949
0.435381
0.489828
0.514564
0.390576
0.373237
0.369893
0.366756
0.363875
0.361155
0.358677
0.35632
0.354175
0.352062
0.349962
0.347624
0.344796
0.341273
0.337191
0.332819
0.328639
0.325617
0.325533
0.331704
0.34954
0.384685
0.436663
0.491126
0.515995
0.393166
0.373237
0.369893
0.366756
0.363873
0.36115
0.35867
0.356309
0.354184
0.352122
0.350193
0.348159
0.345907
0.343171
0.339682
0.335701
0.331464
0.327474
0.324663
0.324909
0.3314
0.349715
0.385429
0.43744
0.492504
0.518514
0.394518
0.373237
0.369892
0.366755
0.363871
0.361146
0.358664
0.356298
0.354179
0.352134
0.350298
0.348435
0.346558
0.344415
0.341736
0.338391
0.334545
0.330449
0.326587
0.323985
0.324468
0.331353
0.349975
0.385863
0.438383
0.493397
0.520156
0.504086
0.373237
0.369892
0.366755
0.363869
0.361143
0.358659
0.356288
0.354169
0.352126
0.350336
0.348559
0.346923
0.345144
0.343133
0.34067
0.337417
0.33368
0.329735
0.326117
0.323741
0.324481
0.331435
0.350194
0.386356
0.438828
0.495394
0.528846
0.709682
0.373237
0.369891
0.366755
0.363868
0.361141
0.358654
0.35628
0.354158
0.352111
0.35034
0.348601
0.347109
0.345548
0.344003
0.342216
0.339822
0.336808
0.333379
0.329695
0.326183
0.323869
0.324663
0.331656
0.350502
0.386706
0.439745
0.495974
0.545605
0.884147
0.373238
0.369891
0.366755
0.363867
0.36114
0.35865
0.356274
0.354148
0.352095
0.350329
0.348602
0.347189
0.345748
0.344526
0.343147
0.341544
0.339616
0.336874
0.333566
0.329966
0.32654
0.324282
0.32512
0.332114
0.350921
0.38713
0.440443
0.495688
0.558348
1.02489
0.373238
0.369891
0.366755
0.363865
0.361139
0.358647
0.35627
0.354139
0.352081
0.350312
0.348586
0.34721
0.345829
0.344814
0.343689
0.342697
0.341596
0.33985
0.337287
0.334161
0.330689
0.327353
0.325137
0.325999
0.332886
0.351485
0.387729
0.440193
0.4942
0.567739
1.14616
0.373238
0.36989
0.366755
0.363864
0.361138
0.358644
0.356266
0.354131
0.35207
0.350296
0.348565
0.347201
0.345848
0.344952
0.34398
0.343424
0.342841
0.341989
0.340545
0.338245
0.335394
0.332107
0.328836
0.326565
0.32728
0.333962
0.352293
0.388218
0.439281
0.491065
0.574108
1.24386
0.373238
0.36989
0.366755
0.363863
0.361138
0.358641
0.356263
0.354125
0.352061
0.350281
0.348544
0.347178
0.345836
0.344999
0.344115
0.34385
0.343632
0.343385
0.342928
0.341954
0.340062
0.337447
0.334256
0.330955
0.328516
0.328996
0.335388
0.353281
0.388527
0.437383
0.485653
0.578228
1.31531
0.373239
0.36989
0.366755
0.363863
0.361137
0.358639
0.356261
0.354119
0.352054
0.350267
0.348526
0.347153
0.345812
0.344995
0.344165
0.344076
0.344105
0.344288
0.344548
0.344738
0.34428
0.342733
0.340315
0.337171
0.333733
0.331052
0.331158
0.337157
0.354446
0.388459
0.434122
0.478909
0.580786
1.36918
0.373239
0.369889
0.366755
0.363862
0.361137
0.358637
0.356259
0.354114
0.352048
0.350256
0.34851
0.34713
0.345784
0.344967
0.344174
0.344173
0.344366
0.344846
0.345639
0.346658
0.347491
0.347566
0.346348
0.344088
0.34089
0.337241
0.334173
0.333792
0.339281
0.355707
0.388135
0.429819
0.4721
0.582987
1.41145
0.369889
0.373242
0.366755
0.363861
0.361137
0.358635
0.356258
0.354109
0.352043
0.350246
0.348497
0.347109
0.345758
0.344934
0.344156
0.344195
0.344492
0.345172
0.346344
0.347974
0.349756
0.351306
0.351927
0.351014
0.348823
0.345491
0.341482
0.337923
0.336871
0.341697
0.357203
0.387388
0.425298
0.465757
0.585224
1.44604
0.366755
0.369899
0.37325
0.36386
0.361137
0.358633
0.356257
0.354105
0.352039
0.350236
0.348486
0.34709
0.345735
0.344902
0.344127
0.344184
0.344539
0.34535
0.346785
0.348861
0.351362
0.354006
0.356321
0.357493
0.356808
0.354606
0.350988
0.34651
0.342257
0.340397
0.344772
0.359023
0.386422
0.420882
0.459986
0.587886
1.4755
0.36386
0.366772
0.36992
0.373258
0.361137
0.358632
0.356256
0.354101
0.352036
0.350228
0.348477
0.347074
0.345715
0.344873
0.344097
0.34416
0.344546
0.345441
0.347056
0.349454
0.352494
0.355987
0.359571
0.36269
0.364363
0.363832
0.361461
0.357438
0.352274
0.34719
0.344757
0.348473
0.361003
0.385424
0.41674
0.454992
0.590908
1.50136
0.361137
0.363882
0.366806
0.369941
0.373266
0.35863
0.356255
0.354098
0.352033
0.350221
0.348469
0.34706
0.345697
0.344847
0.344068
0.344133
0.344535
0.345481
0.347225
0.349857
0.353302
0.35745
0.362036
0.366627
0.370535
0.372659
0.372121
0.369455
0.364794
0.358792
0.353273
0.350201
0.352457
0.363083
0.384539
0.41297
0.45064
0.594393
1.52468
0.358629
0.361164
0.363926
0.366841
0.369963
0.373274
0.356255
0.354095
0.352031
0.350214
0.348463
0.347047
0.345682
0.344825
0.344043
0.344107
0.344518
0.345499
0.347331
0.350145
0.3539
0.358557
0.363939
0.369714
0.375324
0.380004
0.382433
0.381759
0.378545
0.373078
0.366802
0.360787
0.356161
0.356676
0.365335
0.383804
0.409571
0.447015
0.598158
1.546
0.356255
0.35866
0.36122
0.363971
0.366876
0.369985
0.373282
0.354092
0.35203
0.350209
0.348458
0.347036
0.345669
0.344805
0.34402
0.344084
0.344502
0.345506
0.347403
0.350359
0.354373
0.35944
0.365463
0.372199
0.379202
0.385841
0.391172
0.393791
0.392703
0.388761
0.383235
0.376656
0.368968
0.362541
0.361092
0.367662
0.383284
0.406526
0.44391
0.602244
1.56579
0.35409
0.356291
0.358723
0.361277
0.364018
0.366913
0.370008
0.373291
0.352028
0.350203
0.348454
0.347025
0.345658
0.344788
0.344001
0.344063
0.344487
0.345511
0.347458
0.350525
0.354759
0.360189
0.366751
0.374292
0.382454
0.390718
0.398281
0.404173
0.406694
0.405001
0.401279
0.395706
0.387351
0.377697
0.369245
0.365667
0.370178
0.383025
0.403901
0.441314
0.606434
1.5842
0.352028
0.354127
0.356364
0.358789
0.361336
0.364066
0.366951
0.370032
0.3733
0.350198
0.348451
0.347016
0.345649
0.344773
0.343984
0.344046
0.344474
0.345515
0.347505
0.350666
0.355083
0.360841
0.367908
0.376152
0.385314
0.394968
0.404415
0.412827
0.418987
0.421224
0.420071
0.416641
0.409227
0.398735
0.386853
0.376195
0.370337
0.372668
0.383066
0.401669
0.439121
0.610814
1.60151
0.350194
0.35207
0.354206
0.35644
0.358856
0.361396
0.364116
0.36699
0.370056
0.373309
0.348448
0.347007
0.345642
0.344759
0.343969
0.34403
0.344463
0.345519
0.347546
0.35079
0.355367
0.361411
0.368961
0.377898
0.387965
0.398852
0.409942
0.420524
0.429498
0.435751
0.439061
0.438587
0.43329
0.423601
0.410655
0.396324
0.383303
0.375115
0.37517
0.383225
0.399762
0.437317
0.615141
1.61767
0.348446
0.350235
0.352157
0.354287
0.356518
0.358925
0.361459
0.364167
0.367029
0.370081
0.373318
0.346999
0.345636
0.344747
0.343956
0.344017
0.344453
0.345523
0.347584
0.350902
0.355622
0.361923
0.36991
0.379541
0.390541
0.402583
0.415171
0.427683
0.439104
0.448487
0.456455
0.461097
0.458704
0.450991
0.438627
0.422955
0.405993
0.390495
0.379938
0.377677
0.383552
0.398168
0.435815
0.619573
1.63294
0.346992
0.348491
0.350322
0.352247
0.35437
0.356598
0.358996
0.361522
0.364219
0.36707
0.370107
0.373328
0.345631
0.344736
0.343945
0.344006
0.344446
0.345528
0.347619
0.351004
0.355855
0.36239
0.370777
0.381054
0.39303
0.406321
0.420353
0.434672
0.448305
0.460438
0.472086
0.482242
0.485188
0.480149
0.469505
0.454116
0.435487
0.415752
0.397702
0.384758
0.380176
0.384033
0.396824
0.434599
0.623832
1.64717
0.345628
0.34703
0.348584
0.350412
0.352339
0.354456
0.356681
0.35907
0.361588
0.364273
0.367112
0.370134
0.373337
0.344725
0.343936
0.343997
0.344439
0.345532
0.347651
0.351098
0.356067
0.362818
0.371576
0.382456
0.395367
0.410022
0.425677
0.441794
0.457548
0.472218
0.487167
0.501755
0.51067
0.511073
0.502688
0.488618
0.469883
0.448109
0.425501
0.404859
0.389532
0.382665
0.384634
0.395741
0.43361
0.628152
1.66064
0.344716
0.345668
0.347115
0.34868
0.350505
0.352435
0.354544
0.356765
0.359145
0.361655
0.364328
0.367155
0.370161
0.373347
0.343928
0.343988
0.344434
0.345537
0.34768
0.351183
0.356261
0.36321
0.372314
0.383759
0.397563
0.413556
0.431052
0.449291
0.467214
0.484381
0.502466
0.521169
0.534813
0.541488
0.538469
0.526072
0.508106
0.485752
0.460691
0.435153
0.411909
0.394225
0.385123
0.385265
0.394869
0.432829
0.632213
1.67316
0.343922
0.344741
0.345752
0.347203
0.34878
0.350602
0.352533
0.354635
0.356853
0.359223
0.361724
0.364385
0.367199
0.370187
0.373356
0.343981
0.344428
0.345541
0.347706
0.35126
0.356438
0.36357
0.372993
0.38497
0.399625
0.416911
0.43626
0.457025
0.477616
0.497416
0.518704
0.541499
0.559565
0.571083
0.574442
0.567101
0.550053
0.527775
0.50157
0.473121
0.444631
0.418805
0.398809
0.387562
0.38592
0.394176
0.432213
0.636317
1.68501
0.343977
0.343937
0.3448
0.345838
0.347294
0.348883
0.350701
0.352634
0.354729
0.356942
0.359302
0.361795
0.364443
0.367242
0.370213
0.373365
0.344423
0.345544
0.34773
0.351331
0.356599
0.363899
0.373618
0.386093
0.401556
0.420089
0.441271
0.464657
0.488536
0.511747
0.536563
0.563766
0.586313
0.602348
0.610404
0.60929
0.596695
0.574383
0.547444
0.517202
0.485307
0.453873
0.425508
0.403261
0.389959
0.386598
0.393624
0.431745
0.640106
1.69596
0.34442
0.343966
0.343971
0.34486
0.34593
0.347389
0.34899
0.350804
0.352738
0.354825
0.357034
0.359384
0.361868
0.3645
0.367284
0.370239
0.373374
0.345545
0.34775
0.351395
0.356746
0.3642
0.374191
0.38713
0.403357
0.423085
0.446075
0.472098
0.499439
0.527119
0.556717
0.589021
0.616565
0.637274
0.649632
0.652691
0.645817
0.627004
0.598846
0.566951
0.532539
0.497172
0.46283
0.431988
0.407565
0.3923
0.38729
0.393197
0.431393
0.643935
1.70636
0.345552
0.344382
0.343937
0.344013
0.344924
0.346027
0.347488
0.349101
0.35091
0.352845
0.354925
0.357128
0.359468
0.361939
0.364556
0.367325
0.370263
0.373382
0.347767
0.351452
0.356879
0.364474
0.374716
0.388085
0.40503
0.425898
0.450653
0.479294
0.510183
0.542843
0.578904
0.61837
0.652056
0.678315
0.695212
0.70181
0.697979
0.683871
0.657823
0.623258
0.586162
0.547489
0.508658
0.471464
0.43822
0.411706
0.394573
0.387991
0.392864
0.431144
0.647415
1.71592
0.347791
0.345475
0.344295
0.343896
0.344069
0.344991
0.34613
0.347591
0.349215
0.35102
0.352955
0.355028
0.357224
0.359551
0.362009
0.364611
0.367365
0.370287
0.373391
0.351502
0.356999
0.364723
0.375195
0.388963
0.406578
0.428527
0.454991
0.4862
0.520719
0.55874
0.602031
0.651594
0.695028
0.728895
0.751563
0.761685
0.759572
0.746423
0.723359
0.688984
0.64747
0.604966
0.561984
0.519719
0.479747
0.44419
0.415676
0.396768
0.388693
0.392619
0.430975
0.650942
1.725
0.35156
0.347651
0.34529
0.344202
0.34386
0.344134
0.345063
0.346237
0.347698
0.349333
0.351133
0.353068
0.355133
0.35732
0.359633
0.362077
0.364664
0.367403
0.370311
0.373399
0.357106
0.364948
0.375632
0.389768
0.408007
0.430975
0.459077
0.492788
0.531003
0.574661
0.625613
0.687395
0.746623
0.794304
0.825527
0.840086
0.838625
0.82369
0.798197
0.764208
0.720353
0.671363
0.623277
0.575973
0.530328
0.487662
0.449887
0.419469
0.39888
0.389393
0.392436
0.430877
0.654108
1.73228
0.357218
0.351339
0.347295
0.345097
0.344121
0.343832
0.344207
0.34514
0.346348
0.34781
0.349454
0.351251
0.353183
0.355237
0.357413
0.359712
0.362142
0.364715
0.367441
0.370333
0.373406
0.36515
0.376028
0.390505
0.409322
0.433246
0.462908
0.49904
0.540984
0.590402
0.649407
0.7259
0.806642
0.878752
0.92708
0.948432
0.947159
0.927427
0.89461
0.853331
0.806308
0.751803
0.694839
0.641029
0.58942
0.540464
0.495199
0.455307
0.423081
0.400904
0.390082
0.392316
0.430832
0.656892
1.73839
0.365352
0.356892
0.350752
0.346927
0.344924
0.34405
0.343813
0.344286
0.345223
0.346464
0.347927
0.349578
0.351371
0.353297
0.35534
0.357503
0.359789
0.362206
0.364765
0.367477
0.370355
0.373414
0.376386
0.391174
0.41053
0.435349
0.466488
0.504951
0.5506
0.605788
0.673404
0.767702
0.875809
0.98131
1.06172
1.10025
1.10039
1.07359
1.02811
0.972115
0.911592
0.849472
0.783204
0.717817
0.658176
0.602299
0.550118
0.502356
0.460448
0.426511
0.402837
0.390759
0.392232
0.430835
0.659133
1.74497
0.376732
0.364892
0.355976
0.350144
0.346589
0.344764
0.343987
0.343804
0.34437
0.345313
0.346583
0.348049
0.349705
0.351492
0.353408
0.355439
0.35759
0.359863
0.362268
0.364814
0.367512
0.370377
0.373421
0.391785
0.411636
0.437291
0.469823
0.510516
0.559804
0.62072
0.69775
0.813022
0.953459
1.09905
1.22205
1.29753
1.31218
1.27891
1.21717
1.13913
1.05526
0.97245
0.893417
0.814416
0.74023
0.674684
0.614598
0.559288
0.509135
0.465312
0.429761
0.404679
0.391418
0.3922
0.430851
0.661688
1.75212
0.392359
0.376105
0.363518
0.355033
0.349578
0.346273
0.344617
0.343935
0.343805
0.344457
0.345411
0.346705
0.348176
0.349832
0.35161
0.353517
0.355536
0.357675
0.359936
0.362329
0.364861
0.367547
0.370397
0.373425
0.41265
0.439078
0.472921
0.515737
0.568566
0.63517
0.722556
0.861381
1.03723
1.22673
1.39857
1.52316
1.578
1.55524
1.47801
1.37373
1.25785
1.14256
1.03514
0.937783
0.845286
0.762013
0.690531
0.626313
0.567978
0.515539
0.469906
0.432834
0.406428
0.391975
0.392178
0.430897
0.664371
1.75986
0.413581
0.391532
0.374094
0.362111
0.354149
0.34904
0.345976
0.344481
0.343893
0.343818
0.344546
0.345518
0.34683
0.348304
0.349954
0.351725
0.353622
0.35563
0.357758
0.360007
0.362387
0.364908
0.36758
0.370408
0.373425
0.440731
0.475792
0.520622
0.576873
0.649144
0.747794
0.91177
1.12411
1.35863
1.58216
1.76256
1.87214
1.89193
1.82025
1.69078
1.53847
1.38125
1.23228
1.09877
0.982163
0.875653
0.783112
0.705704
0.637445
0.576195
0.52158
0.474236
0.435734
0.407868
0.392453
0.392178
0.430963
0.667463
1.7683
0.442218
0.412508
0.388643
0.372049
0.360786
0.353302
0.348523
0.345699
0.344356
0.34386
0.343851
0.344635
0.345634
0.346954
0.34843
0.350074
0.351838
0.353724
0.355722
0.357839
0.360076
0.362444
0.364952
0.367597
0.370408
0.373425
0.478462
0.525182
0.584729
0.662653
0.773299
0.963009
1.21138
1.49012
1.76555
2.00481
2.17718
2.25695
2.22911
2.09895
1.91093
1.70694
1.50644
1.32271
1.16246
1.02614
0.905358
0.803481
0.720198
0.648001
0.583953
0.527269
0.478311
0.438106
0.409091
0.39299
0.392188
0.431115
0.670694
1.77744
0.480823
0.440848
0.40841
0.385727
0.370118
0.35951
0.352484
0.348024
0.345442
0.344241
0.34383
0.343908
0.344726
0.345753
0.347076
0.348554
0.350191
0.351947
0.353824
0.355812
0.357917
0.360143
0.3625
0.364974
0.367597
0.370408
0.373425
0.52945
0.592153
0.675709
0.798827
1.01402
1.29699
1.61799
1.9438
2.24211
2.48117
2.63093
2.66766
2.5811
2.3845
2.13331
1.87549
1.63097
1.41238
1.22537
1.06933
0.934257
0.823078
0.734008
0.657994
0.591265
0.532619
0.481635
0.440113
0.410432
0.393587
0.392218
0.431249
0.674438
1.78739
0.533182
0.479104
0.435081
0.404311
0.382968
0.368254
0.358275
0.351694
0.347546
0.345201
0.344136
0.343793
0.343983
0.344816
0.345873
0.347195
0.348676
0.350305
0.352054
0.353921
0.355898
0.357993
0.360208
0.362527
0.364974
0.367597
0.370408
0.373425
0.599189
0.688334
0.824127
1.06391
1.37953
1.74026
2.11387
2.46936
2.77557
3.00058
3.11444
3.09598
2.94094
2.67144
2.35389
2.04127
1.75293
1.50004
1.28683
1.11139
0.962219
0.841868
0.74714
0.667438
0.598148
0.536979
0.484443
0.442305
0.411904
0.394263
0.392264
0.431548
0.678355
1.79815
0.60533
0.531022
0.471005
0.429367
0.400422
0.380298
0.366443
0.357078
0.350933
0.347092
0.344978
0.344044
0.343762
0.344067
0.344907
0.345993
0.347313
0.348794
0.350416
0.352158
0.354015
0.355983
0.358067
0.36024
0.362527
0.364974
0.367597
0.370408
0.373425
0.700546
0.848991
1.11207
1.45812
1.85584
2.27409
2.68355
3.05467
3.35586
3.55404
3.6195
3.53469
3.30273
2.9554
2.56962
2.20219
1.8709
1.5848
1.34627
1.15205
0.989136
0.85983
0.759602
0.676348
0.603764
0.540662
0.487503
0.444698
0.413521
0.395013
0.392371
0.431786
0.682921
1.80988
0.711298
0.602643
0.519558
0.463073
0.423938
0.396651
0.377699
0.364684
0.355922
0.350204
0.346665
0.344774
0.343962
0.343744
0.344156
0.344999
0.34611
0.347428
0.34891
0.350525
0.35226
0.354107
0.356065
0.358103
0.36024
0.362527
0.364974
0.367597
0.370408
0.373421
0.873213
1.15807
1.53228
1.96413
2.42366
2.88308
3.315
3.68976
3.97412
4.13335
4.13854
3.97726
3.66144
3.23289
2.77823
2.35679
1.9839
1.666
1.40331
1.19108
1.01493
0.876946
0.771403
0.683635
0.608509
0.544672
0.490838
0.447313
0.415297
0.395869
0.39247
0.432284
0.687715
1.82249
0.708046
0.894531
0.585785
0.508549
0.45552
0.418666
0.392976
0.37517
0.36298
0.354807
0.349508
0.346266
0.344589
0.343895
0.343738
0.344245
0.345094
0.346225
0.347542
0.349023
0.350631
0.352358
0.354196
0.356106
0.358103
0.36024
0.362527
0.364974
0.367597
0.370397
0.373414
1.20162
1.60181
2.06498
2.56229
3.06735
3.55484
3.99793
4.36559
4.62196
4.73053
4.66428
4.41772
4.01279
3.5012
2.97808
2.50407
2.09133
1.74323
1.45767
1.22835
1.03953
0.893208
0.781083
0.689801
0.613683
0.549042
0.494474
0.450171
0.417254
0.396817
0.392684
0.432695
0.693328
1.83621
0.681599
0.891845
1.23911
0.570102
0.498067
0.448175
0.413521
0.389395
0.372715
0.361333
0.353737
0.348848
0.345897
0.344427
0.343845
0.343747
0.344333
0.345191
0.346338
0.347655
0.349133
0.350735
0.352454
0.354241
0.356106
0.358103
0.36024
0.362527
0.364974
0.36758
0.370376
0.373406
1.66658
2.15847
2.69014
3.23637
3.7737
4.27826
4.72269
5.07343
5.29113
5.33773
5.18976
4.85066
4.35318
3.75825
3.16808
2.64348
2.19283
1.81624
1.50917
1.26374
1.0629
0.90658
0.789291
0.696534
0.619325
0.553806
0.49844
0.453298
0.419406
0.397906
0.392875
0.433464
0.699258
1.85088
0.65746
0.849136
1.23731
1.72174
0.555371
0.487859
0.441006
0.408504
0.385913
0.370338
0.359746
0.352714
0.348229
0.345568
0.344289
0.343809
0.343769
0.344418
0.34529
0.346448
0.347765
0.34924
0.350836
0.352502
0.35424
0.356106
0.358103
0.36024
0.362527
0.364952
0.367546
0.370355
0.373398
2.24472
2.80762
3.39063
3.97195
4.53038
5.0427
5.48
5.8048
5.9734
5.9471
5.70834
5.27129
4.6797
4.00255
3.34757
2.7747
2.28824
1.88493
1.55775
1.2972
1.08211
0.917938
0.798276
0.703891
0.625483
0.559
0.502768
0.456719
0.421783
0.39911
0.39324
0.434129
0.706221
1.86681
0.63521
0.809147
1.17373
1.7218
2.3178
0.541135
0.477882
0.434014
0.403622
0.382538
0.368043
0.358224
0.351748
0.347664
0.345281
0.344173
0.343784
0.343811
0.3445
0.345391
0.346555
0.347874
0.349345
0.350886
0.352501
0.354241
0.356106
0.358104
0.36024
0.362499
0.364907
0.367511
0.370332
0.37339
2.91514
3.53103
4.15062
4.75518
5.3254
5.83804
6.26111
6.55139
6.6605
6.55097
6.21383
5.6755
4.99013
4.23313
3.51621
2.89765
2.37757
1.9493
1.60337
1.32456
1.09841
0.930388
0.808117
0.711936
0.632206
0.564668
0.507492
0.460464
0.424399
0.400504
0.393575
0.435273
0.713641
1.88365
0.614177
0.77177
1.11148
1.63939
2.32084
3.00551
0.527274
0.468144
0.427212
0.398885
0.379278
0.365837
0.35678
0.350862
0.347159
0.345036
0.344073
0.343756
0.343869
0.34458
0.345493
0.346659
0.347982
0.349396
0.350886
0.352501
0.354241
0.356106
0.358104
0.360208
0.362443
0.36486
0.367476
0.37031
0.373382
3.65835
4.31124
4.95448
5.57238
6.14741
6.65503
7.05784
7.30503
7.34413
7.14185
6.70069
6.05996
5.2829
4.44946
3.67392
3.01245
2.46095
2.00944
1.64046
1.34771
1.11626
0.944042
0.818905
0.720739
0.639552
0.570853
0.51265
0.464565
0.427296
0.40204
0.394155
0.436313
0.722367
1.90189
0.594106
0.736514
1.05069
1.55682
2.22153
3.01192
3.76396
0.513771
0.458671
0.420616
0.394307
0.376141
0.363741
0.355452
0.350066
0.346706
0.344823
0.34399
0.343731
0.343936
0.344659
0.345596
0.346764
0.348036
0.349394
0.350886
0.352502
0.354241
0.356106
0.358067
0.360142
0.362386
0.364812
0.367439
0.370286
0.373374
4.45517
5.13076
5.78658
6.41063
6.98638
7.48565
7.86255
8.05748
8.01595
7.71269
7.16418
6.4222
5.55704
4.65134
3.82085
3.11932
2.53855
2.05808
1.67171
1.37296
1.13581
0.959025
0.830736
0.730378
0.647582
0.577608
0.518283
0.46906
0.430485
0.40383
0.394708
0.437975
0.731757
1.92086
0.574892
0.703282
0.99114
1.47409
2.12112
2.89704
3.77277
4.5721
0.500644
0.449488
0.414244
0.389901
0.373157
0.361809
0.354255
0.34935
0.346305
0.344642
0.343921
0.343714
0.344008
0.344737
0.345701
0.346813
0.348034
0.349394
0.350887
0.352502
0.354241
0.356065
0.357992
0.360074
0.362327
0.364763
0.367402
0.370262
0.373365
5.28621
5.97181
6.63211
7.25871
7.83417
8.32305
8.66783
8.80028
8.66764
8.25709
7.60052
6.76054
5.81212
4.83894
3.95731
3.21853
2.60112
2.09895
1.70567
1.4005
1.15721
0.975467
0.843719
0.740937
0.656364
0.584986
0.524438
0.473983
0.434025
0.4058
0.395592
0.439571
0.742817
1.94492
0.556475
0.672102
0.933028
1.39083
2.01944
2.78065
3.64259
4.58063
5.4085
0.487923
0.440628
0.408114
0.38571
0.370404
0.360064
0.353177
0.34871
0.345952
0.344486
0.343865
0.343707
0.344083
0.344822
0.345753
0.346808
0.348035
0.349395
0.350887
0.352502
0.354197
0.355982
0.357915
0.360005
0.362266
0.364713
0.367363
0.370238
0.373356
6.1314
6.81749
7.47828
8.10796
8.68473
9.16119
9.46604
9.52456
9.29122
8.76964
8.00696
7.07408
6.04819
5.01261
4.0837
3.29835
2.65358
2.1432
1.74253
1.43051
1.18064
0.993512
0.857969
0.752511
0.665973
0.593048
0.531164
0.479381
0.437923
0.408104
0.396478
0.441942
0.757035
1.97272
0.538817
0.642997
0.876818
1.30704
1.916
2.66232
3.51129
4.43413
5.41214
6.25188
0.475646
0.432121
0.402287
0.381845
0.367918
0.35849
0.352207
0.348138
0.345643
0.344352
0.343821
0.343711
0.344169
0.344857
0.34575
0.346807
0.348035
0.349395
0.350888
0.352455
0.354106
0.355897
0.357836
0.359934
0.362204
0.364661
0.367324
0.370213
0.373347
6.97164
7.65309
8.31542
8.95281
9.53348
9.99417
10.2489
10.2212
9.87937
9.24604
8.38182
7.36268
6.26567
5.17288
4.18512
3.36516
2.71025
2.19108
1.78251
1.46319
1.20627
1.01331
0.873613
0.7652
0.676491
0.601861
0.538516
0.485297
0.442259
0.410645
0.397785
0.444771
0.775781
1.99946
0.521905
0.615934
0.823103
1.22304
1.8105
2.54154
3.37803
4.28791
5.24661
6.24467
7.08177
0.463857
0.424052
0.396917
0.378355
0.365673
0.357071
0.351335
0.347628
0.345372
0.344236
0.34379
0.343738
0.34421
0.344843
0.345752
0.346808
0.348035
0.349397
0.350837
0.352358
0.354014
0.355809
0.357756
0.359861
0.36214
0.364609
0.367283
0.370187
0.373337
7.79011
8.46751
9.13807
9.78975
10.3768
10.8154
11.0072
10.8812
10.4257
9.68334
8.72454
7.62677
6.46527
5.30098
4.26982
3.43719
2.77142
2.24283
1.82583
1.49871
1.23426
1.03501
0.890783
0.779114
0.688007
0.611497
0.546553
0.491789
0.447035
0.413618
0.399431
0.449039
0.796497
2.02465
0.505736
0.590815
0.772512
1.1394
1.70287
2.41771
3.24237
4.14058
5.08413
6.05499
7.05621
7.87909
0.452679
0.416634
0.392071
0.375205
0.363648
0.355793
0.350553
0.347175
0.345132
0.34414
0.343787
0.343739
0.344202
0.344842
0.345752
0.346809
0.348037
0.349346
0.350735
0.352258
0.353919
0.35572
0.357673
0.359786
0.362074
0.364554
0.367241
0.370161
0.373327
8.57383
9.25551
9.9413
10.6144
11.2107
11.6174
11.7311
11.4957
10.9254
10.0801
9.03548
7.86725
6.62381
5.40763
4.36094
3.51477
2.83736
2.29867
1.87268
1.53728
1.2648
1.05878
0.909619
0.794371
0.700617
0.622036
0.555341
0.498904
0.452359
0.417526
0.402029
0.453689
0.819274
2.04798
0.490432
0.567482
0.725638
1.0569
1.59327
2.29039
3.10346
3.99186
4.92253
5.87316
6.83514
7.82519
8.62955
0.442419
0.409957
0.387702
0.372365
0.361821
0.354643
0.349852
0.346768
0.344927
0.344087
0.343773
0.343713
0.344206
0.344842
0.34575
0.346814
0.347983
0.34924
0.350631
0.352157
0.353822
0.355628
0.357588
0.359709
0.362007
0.364499
0.367198
0.370134
0.373318
9.31399
10.0037
10.7141
11.4178
12.0281
12.3917
12.4093
12.057
11.3753
10.4364
9.3157
8.05661
6.75517
5.5219
4.45876
3.59818
2.90832
2.35884
1.92325
1.57907
1.29805
1.08478
0.93026
0.811091
0.714423
0.633558
0.564953
0.50672
0.459316
0.422702
0.404939
0.459248
0.844535
2.06907
0.476369
0.545927
0.682919
0.976535
1.48203
2.15936
2.9605
3.84072
4.76176
5.69573
6.62903
7.56446
8.53012
9.32631
0.43321
0.403951
0.383765
0.369804
0.360176
0.353608
0.34922
0.34641
0.344791
0.344044
0.343744
0.343714
0.344206
0.344844
0.345753
0.346765
0.347874
0.349132
0.350524
0.352053
0.353722
0.355534
0.357501
0.359631
0.361938
0.364442
0.367154
0.370107
0.373308
10.0081
10.7229
11.4742
12.2069
12.8211
13.1246
13.0308
12.5592
11.7744
10.7532
9.53378
8.21244
6.89509
5.64404
4.56358
3.68768
2.98454
2.42353
1.97773
1.62422
1.33417
1.11314
0.952844
0.829396
0.729526
0.646164
0.575465
0.516873
0.468062
0.428329
0.408397
0.465899
0.872032
2.08774
0.463725
0.52646
0.644496
0.899544
1.36977
2.02453
2.81278
3.686
4.60061
5.52283
6.43278
7.32769
8.22204
9.15185
9.95308
0.424959
0.398549
0.380221
0.367497
0.358694
0.352673
0.348659
0.346142
0.3447
0.344004
0.343746
0.343714
0.344202
0.344858
0.345701
0.346659
0.347765
0.349022
0.350416
0.351946
0.35362
0.355438
0.357411
0.35955
0.361867
0.364384
0.367111
0.370081
0.373299
10.6487
11.4096
12.2234
12.9875
13.5855
13.8027
13.5856
12.9992
12.1237
10.996
9.7116
8.37706
7.04359
5.77418
4.6756
3.78349
3.06621
2.49292
2.03626
1.67287
1.37327
1.144
0.977497
0.849402
0.746043
0.659931
0.58909
0.529408
0.47734
0.434506
0.412534
0.473396
0.902584
2.10342
0.452387
0.509066
0.611459
0.828097
1.25742
1.88601
2.65967
3.5265
4.43762
5.35302
6.24647
7.10833
7.94757
8.78918
9.68375
10.5005
0.417571
0.393693
0.377032
0.36542
0.357355
0.35184
0.348226
0.345975
0.344644
0.344009
0.343746
0.343714
0.34421
0.344823
0.345595
0.346554
0.347654
0.348909
0.350305
0.351837
0.353516
0.355339
0.357319
0.359468
0.361794
0.364326
0.367068
0.370056
0.37329
11.2356
12.0703
12.9645
13.7571
14.3104
14.4111
14.0663
13.3767
12.3858
11.1915
9.89736
8.55006
7.20053
5.91237
4.79493
3.88576
3.15348
2.56712
2.09893
1.72511
1.41545
1.17746
1.00432
0.871222
0.764052
0.677763
0.605801
0.54254
0.4872
0.441343
0.417086
0.48289
0.935821
2.11567
0.442245
0.493437
0.583542
0.764878
1.14717
1.74413
2.50065
3.36102
4.27115
5.18454
6.06826
6.90627
7.70009
8.46998
9.25205
10.116
10.967
0.410957
0.38933
0.374163
0.363543
0.356158
0.351183
0.347965
0.345894
0.344652
0.344009
0.343744
0.343739
0.344168
0.344737
0.345492
0.346446
0.347542
0.348793
0.350191
0.351725
0.353409
0.355238
0.357225
0.359384
0.361723
0.364271
0.367027
0.370032
0.373282
11.7737
12.7157
13.7028
14.5033
14.978
14.9351
14.4694
13.6524
12.5934
11.3927
10.0899
8.73076
7.36554
6.05847
4.92157
3.99455
3.24643
2.64621
2.16581
1.78097
1.46074
1.21358
1.0334
0.894911
0.787318
0.699522
0.623182
0.55629
0.497722
0.448708
0.422783
0.493341
0.97274
2.12455
0.433196
0.479366
0.559674
0.711251
1.04354
1.60053
2.33535
3.18827
4.09938
5.01537
5.89608
6.7189
7.47918
8.18924
8.87966
9.59907
10.4341
11.3501
0.405036
0.385412
0.371576
0.361865
0.3552
0.350796
0.347859
0.345906
0.344652
0.344004
0.343774
0.343737
0.344081
0.344658
0.34539
0.346336
0.347429
0.348675
0.350075
0.351611
0.353299
0.355135
0.357129
0.359301
0.361653
0.364217
0.366987
0.370008
0.373273
12.2734
13.361
14.4382
15.2082
15.5646
15.3657
14.7531
13.8655
12.8024
11.5973
10.2878
8.91812
7.53797
6.21213
5.05539
4.10981
3.34504
2.73017
2.23685
1.84042
1.50913
1.25235
1.06473
0.925344
0.815479
0.721975
0.64121
0.570702
0.508861
0.456996
0.428846
0.506617
1.01242
2.13012
0.425136
0.46671
0.538996
0.666381
0.949802
1.4602
2.16487
3.00704
3.9203
4.84316
5.72752
6.54371
7.28112
7.94627
8.56059
9.16428
9.81779
10.6229
11.648
0.399735
0.381884
0.369261
0.360507
0.354644
0.350657
0.347875
0.345906
0.344644
0.344045
0.343787
0.34371
0.344005
0.344579
0.345289
0.346224
0.347314
0.348555
0.349957
0.351495
0.353186
0.35503
0.357034
0.35922
0.361585
0.364164
0.366949
0.369986
0.373265
12.7531
14.0151