/*--------------------------------*- C++ -*----------------------------------*\
  =========                 |
  \\      /  F ield         | OpenFOAM: The Open Source CFD Toolbox
   \\    /   O peration     | Website:  https://openfoam.org
    \\  /    A nd           | Version:  8
     \\/     M anipulation  |
\*---------------------------------------------------------------------------*/
FoamFile
{
    version     2.0;
    format      ascii;
    class       volScalarField;
    location    "0.05";
    object      k;
}
// * * * * * * * * * * * * * * * * * * * * * * * * * * * * * * * * * * * * * //

dimensions      [0 2 -2 0 0 0 0];

internalField   nonuniform List<scalar> 
3910
(
0.138134
0.459816
0.199193
0.409408
1.29001
0.392054
0.384544
0.676788
2.04589
0.405636
0.378331
0.431925
1.27143
2.00512
0.415653
0.375861
0.383015
0.589753
1.59312
1.97707
0.41085
0.374708
0.374121
0.398843
0.893228
1.77593
1.92264
0.407854
0.374106
0.372406
0.368686
0.466976
1.23548
1.82322
1.88708
0.40937
0.373693
0.372086
0.3665
0.370932
0.628001
1.4435
1.84997
1.87214
0.407952
0.373391
0.372071
0.367503
0.358002
0.39342
0.865546
1.56386
1.87862
1.8518
0.407329
0.373187
0.372029
0.368551
0.359849
0.353853
0.457928
1.06798
1.65771
1.88535
1.83825
0.407132
0.373087
0.37187
0.369208
0.362673
0.352776
0.357778
0.575039
1.23956
1.70635
1.8905
1.8284
0.40812
0.373087
0.371554
0.369441
0.364719
0.35636
0.346186
0.375107
0.724486
1.35311
1.74237
1.89221
1.82361
0.409727
0.373176
0.371165
0.369356
0.365963
0.359609
0.34975
0.343383
0.415447
0.865811
1.43654
1.76504
1.89543
1.82196
0.411862
0.373282
0.370805
0.369027
0.366547
0.361869
0.354235
0.343941
0.345763
0.4823
0.990149
1.49398
1.78374
1.89695
1.8235
0.414278
0.373339
0.370564
0.368573
0.366604
0.363247
0.357577
0.34872
0.340085
0.353885
0.561934
1.08718
1.53974
1.79534
1.89902
1.82751
0.418314
0.373346
0.370401
0.368163
0.366301
0.363886
0.359786
0.353023
0.344259
0.336548
0.370894
0.642929
1.16635
1.57102
1.80374
1.90074
1.83665
0.423183
0.373323
0.370265
0.36784
0.365848
0.363931
0.361047
0.356108
0.348992
0.339664
0.336597
0.396999
0.72344
1.22582
1.59378
1.80851
1.90459
1.84961
0.428734
0.373301
0.370137
0.367574
0.365422
0.363615
0.361528
0.358067
0.35267
0.344943
0.336313
0.338165
0.430758
0.79567
1.27119
1.60889
1.81258
1.91003
1.86547
0.435387
0.37328
0.370033
0.36735
0.365049
0.363186
0.361426
0.359067
0.355191
0.349287
0.341279
0.333595
0.342035
0.467962
0.857349
1.30389
1.61955
1.8158
1.9168
1.88515
0.442765
0.373261
0.369967
0.367169
0.364737
0.36276
0.361068
0.359267
0.356658
0.352391
0.346092
0.337994
0.331642
0.349371
0.505196
0.907379
1.32818
1.62668
1.81812
1.92531
1.90763
0.450919
0.373248
0.369933
0.367035
0.364484
0.362384
0.360627
0.359059
0.357165
0.354338
0.349721
0.343112
0.335178
0.330596
0.358243
0.541481
0.946203
1.34562
1.63026
1.81993
1.93472
1.93298
0.459877
0.373239
0.369908
0.366943
0.36429
0.362071
0.360199
0.358665
0.357122
0.355177
0.352126
0.347212
0.340447
0.332725
0.330668
0.368648
0.573286
0.977069
1.35602
1.63075
1.82136
1.94542
1.96119
0.469577
0.373234
0.369887
0.366881
0.364148
0.361824
0.359825
0.358226
0.356801
0.355336
0.353291
0.350069
0.344935
0.338035
0.330825
0.33116
0.379543
0.601182
0.998718
1.3621
1.6297
1.8226
1.95748
1.9922
0.479931
0.37323
0.369872
0.366836
0.364049
0.361636
0.359518
0.357815
0.356367
0.355125
0.353652
0.351576
0.348202
0.342881
0.33599
0.329282
0.332243
0.390804
0.623856
1.01361
1.36296
1.62708
1.82383
1.97052
2.02558
0.490865
0.373227
0.369862
0.366803
0.36398
0.361499
0.359276
0.357462
0.355926
0.354731
0.353549
0.352173
0.35003
0.346549
0.341125
0.334243
0.328155
0.333921
0.401703
0.641219
1.02277
1.36152
1.62298
1.82481
1.98455
2.06103
0.502268
0.373225
0.369854
0.366777
0.36393
0.361401
0.359098
0.357173
0.355527
0.354285
0.353198
0.35222
0.350834
0.348703
0.345168
0.339656
0.332885
0.327385
0.336059
0.410682
0.654593
1.02579
1.3578
1.61761
1.82584
1.99945
2.09819
0.51408
0.373224
0.369849
0.366756
0.363892
0.361329
0.35897
0.356951
0.355189
0.353856
0.352747
0.351946
0.351001
0.349765
0.347667
0.344102
0.338572
0.331867
0.327147
0.338191
0.41858
0.662298
1.02501
1.35109
1.6114
1.8269
2.01508
2.13681
0.526207
0.373223
0.369845
0.366739
0.363863
0.361273
0.358877
0.356788
0.354925
0.353478
0.352287
0.351516
0.350784
0.350125
0.348936
0.34688
0.343339
0.337804
0.331288
0.327285
0.340413
0.424009
0.667755
1.02216
1.34274
1.60451
1.82799
2.03126
2.17663
0.53857
0.373222
0.369842
0.366724
0.36384
0.36123
0.358807
0.356666
0.354729
0.353172
0.351863
0.35104
0.350367
0.350023
0.349389
0.348442
0.34663
0.343224
0.337751
0.331337
0.327684
0.342346
0.428527
0.667721
1.01633
1.33301
1.59719
1.82905
2.04796
2.21738
0.551077
0.373221
0.36984
0.366712
0.363821
0.361195
0.358753
0.356571
0.354582
0.352937
0.351511
0.350582
0.349871
0.349642
0.34934
0.34919
0.348514
0.346817
0.343475
0.338018
0.331653
0.328454
0.344273
0.430895
0.666469
1.0082
1.32234
1.58944
1.83028
2.06505
2.2588
0.565111
0.37322
0.369839
0.366702
0.363806
0.361166
0.35871
0.356498
0.35447
0.352757
0.351237
0.350188
0.349368
0.349139
0.349011
0.349335
0.349382
0.34891
0.347408
0.344181
0.338739
0.332393
0.329614
0.346001
0.43239
0.6635
0.998545
1.31083
1.58161
1.83158
2.08244
2.30533
0.580724
0.37322
0.369837
0.366694
0.363793
0.361143
0.358676
0.356438
0.354383
0.352615
0.351027
0.349872
0.348921
0.348611
0.348508
0.349051
0.349597
0.349964
0.349809
0.348634
0.345591
0.340158
0.333808
0.331133
0.347758
0.432431
0.65802
0.987727
1.29903
1.57365
1.83306
2.10209
2.35705
0.596045
0.37322
0.369836
0.366687
0.363783
0.361124
0.358648
0.356391
0.354314
0.352502
0.350863
0.349621
0.34856
0.348129
0.347934
0.348556
0.349375
0.3503
0.351157
0.35151
0.350685
0.347806
0.342334
0.335829
0.33308
0.349461
0.432099
0.651565
0.97629
1.28687
1.56582
1.83487
2.12416
2.4082
0.611045
0.37322
0.369834
0.366683
0.363775
0.361108
0.358625
0.356351
0.354258
0.352411
0.350733
0.349418
0.348274
0.347723
0.347383
0.347971
0.348899
0.350164
0.351692
0.353177
0.354033
0.353593
0.350873
0.345282
0.338519
0.335456
0.35128
0.43136
0.643997
0.964314
1.27482
1.55725
1.83718
2.1461
2.45867
0.625668
0.369833
0.373223
0.366679
0.363769
0.361095
0.358606
0.356319
0.354212
0.352336
0.350629
0.349253
0.348047
0.347385
0.346924
0.347398
0.348304
0.349724
0.351697
0.35394
0.356093
0.357511
0.357484
0.354881
0.349092
0.341906
0.338319
0.353325
0.430057
0.636157
0.952359
1.26146
1.54814
1.83964
2.16797
2.50817
0.639888
0.366676
0.369842
0.37323
0.363764
0.361085
0.35859
0.356292
0.354174
0.352274
0.350544
0.349117
0.347864
0.347105
0.346556
0.346887
0.347702
0.349129
0.351324
0.354103
0.357151
0.360044
0.36209
0.362472
0.359938
0.353812
0.346063
0.341679
0.355628
0.428848
0.627815
0.938947
1.24714
1.53945
1.84243
2.18957
2.55649
0.65364
0.363759
0.36669
0.369861
0.373238
0.361076
0.358577
0.35627
0.354143
0.352222
0.350474
0.349005
0.347714
0.346874
0.346257
0.346446
0.347164
0.348504
0.35074
0.353837
0.357517
0.361487
0.365203
0.367909
0.36869
0.366119
0.359529
0.350995
0.345594
0.358261
0.427497
0.618838
0.924689
1.2334
1.5314
1.8454
2.21093
2.6034
0.666871
0.361068
0.363777
0.366721
0.369881
0.373246
0.358566
0.356251
0.354116
0.352179
0.350415
0.34891
0.347591
0.346681
0.346011
0.346075
0.346702
0.347938
0.350093
0.353314
0.357417
0.362135
0.367141
0.371739
0.375127
0.37624
0.373532
0.366261
0.35677
0.350057
0.361283
0.426493
0.608809
0.910784
1.22044
1.52387
1.84869
2.23191
2.6487
0.679558
0.358556
0.361086
0.363817
0.366753
0.369901
0.373255
0.356235
0.354094
0.352142
0.350366
0.348831
0.347489
0.346519
0.345808
0.345763
0.346312
0.347449
0.349492
0.352695
0.357006
0.362275
0.368198
0.374297
0.379841
0.383877
0.385254
0.38221
0.37409
0.363359
0.355096
0.365073
0.42541
0.599641
0.897414
1.20822
1.51703
1.85216
2.25246
2.69229
0.691673
0.356222
0.358577
0.361132
0.363859
0.366786
0.369922
0.373263
0.354075
0.352111
0.350324
0.348764
0.347403
0.346382
0.345638
0.345501
0.345983
0.347033
0.348966
0.352103
0.356464
0.36206
0.368653
0.3759
0.383191
0.389676
0.394319
0.395794
0.392258
0.382979
0.37081
0.361348
0.369988
0.425466
0.591598
0.88474
1.19685
1.51075
1.85591
2.27252
2.73405
0.703218
0.354058
0.356242
0.35863
0.36118
0.363902
0.36682
0.369944
0.373272
0.352084
0.350288
0.348707
0.34733
0.346267
0.345496
0.34528
0.345705
0.346681
0.348514
0.351578
0.355925
0.361667
0.368737
0.376841
0.385515
0.394025
0.401441
0.406544
0.407986
0.403639
0.392994
0.380008
0.369091
0.375392
0.425935
0.584519
0.872925
1.18628
1.50513
1.85987
2.29203
2.77397
0.714183
0.352062
0.354078
0.356297
0.358685
0.361231
0.363947
0.366856
0.369966
0.373281
0.350258
0.348658
0.347267
0.346168
0.345375
0.345092
0.34547
0.346383
0.34813
0.351124
0.355439
0.361248
0.368606
0.377365
0.387128
0.397294
0.407047
0.415264
0.420712
0.421803
0.416444
0.405312
0.391402
0.377674
0.381143
0.426983
0.578496
0.861997
1.17657
1.50004
1.86401
2.31097
2.81198
0.724581
0.350231
0.352077
0.354136
0.356357
0.358743
0.361283
0.363994
0.366893
0.369989
0.37329
0.348616
0.347213
0.346083
0.345272
0.344931
0.34527
0.346131
0.347804
0.350737
0.355017
0.360863
0.368406
0.377636
0.388294
0.399824
0.411549
0.422444
0.431373
0.436828
0.437375
0.432169
0.420524
0.403884
0.387056
0.387196
0.42884
0.573408
0.852002
1.16764
1.49554
1.8683
2.32927
2.8481
0.734416
0.34858
0.350244
0.352133
0.354199
0.356419
0.358803
0.361338
0.364043
0.366931
0.370013
0.3733
0.347167
0.34601
0.345184
0.344793
0.3451
0.345915
0.347528
0.350408
0.354658
0.36053
0.368213
0.377798
0.389175
0.4019
0.415314
0.428529
0.44051
0.44981
0.455094
0.45655
0.451596
0.437136
0.417326
0.397102
0.393591
0.431209
0.569214
0.842905
1.1595
1.49154
1.87269
2.34691
2.88233
0.743704
0.347127
0.348583
0.350299
0.352194
0.354264
0.356485
0.358866
0.361396
0.364093
0.36697
0.370038
0.37331
0.345947
0.345108
0.344674
0.344953
0.345731
0.347294
0.350128
0.354355
0.36025
0.368053
0.377934
0.3899
0.403671
0.418661
0.43393
0.448623
0.461338
0.470853
0.477722
0.480367
0.47283
0.454968
0.431557
0.407682
0.400256
0.434041
0.56578
0.834677
1.15208
1.48802
1.87716
2.36388
2.91472
0.752464
0.345893
0.347123
0.348627
0.350358
0.35226
0.354334
0.356554
0.358932
0.361456
0.364144
0.36701
0.370064
0.37332
0.345042
0.344571
0.344826
0.345572
0.347096
0.349889
0.354098
0.360018
0.367931
0.378075
0.390556
0.405237
0.421713
0.439005
0.456185
0.472004
0.485333
0.497097
0.506043
0.506608
0.495698
0.473808
0.446412
0.418666
0.407163
0.43723
0.563062
0.827263
1.14535
1.48497
1.88167
2.38015
2.94528
0.760703
0.344986
0.34587
0.347159
0.348676
0.350422
0.35233
0.354407
0.356627
0.359
0.361518
0.364198
0.367051
0.37009
0.373329
0.34448
0.344716
0.345436
0.346927
0.349684
0.35388
0.359827
0.367843
0.37823
0.391181
0.40669
0.424519
0.443835
0.463613
0.482362
0.499244
0.515531
0.530292
0.537499
0.535068
0.519981
0.49346
0.461724
0.429925
0.414227
0.440723
0.560923
0.820602
1.13926
1.48233
1.88618
2.39572
2.97409
0.768467
0.344401
0.344951
0.345878
0.3472
0.348732
0.350491
0.352404
0.354484
0.356703
0.359072
0.361582
0.364253
0.367094
0.370117
0.373339
0.344621
0.345317
0.346782
0.349507
0.353695
0.359669
0.367784
0.378399
0.391788
0.408069
0.427159
0.448392
0.470949
0.492913
0.51326
0.533907
0.554246
0.567607
0.571948
0.565508
0.545443
0.513712
0.477326
0.441334
0.421392
0.444421
0.559333
0.814636
1.13375
1.48005
1.89067
2.41059
3.00122
0.775733
0.34454
0.34432
0.34494
0.345894
0.347247
0.348795
0.350564
0.352484
0.354565
0.356782
0.359145
0.361649
0.364309
0.367136
0.370143
0.373348
0.345214
0.346657
0.349355
0.353538
0.35954
0.367749
0.378576
0.392376
0.409387
0.429672
0.452747
0.478049
0.503623
0.528012
0.553112
0.579102
0.598448
0.609044
0.609222
0.597697
0.571857
0.534382
0.493064
0.45278
0.428599
0.448291
0.55816
0.809301
1.12879
1.47812
1.89512
2.42477
3.02669
0.782592
0.345126
0.344433
0.344235
0.344933
0.34592
0.347299
0.348864
0.350643
0.352568
0.354649
0.356865
0.359222
0.361717
0.364365
0.367177
0.370168
0.346547
0.349222
0.353403
0.359433
0.367731
0.378758
0.392944
0.410644
0.432068
0.456934
0.484935
0.514164
0.543441
0.574046
0.606141
0.631734
0.648487
0.654671
0.649216
0.631434
0.598993
0.555294
0.508803
0.464163
0.435784
0.452239
0.557397
0.804536
1.12432
1.47648
1.8995
2.43824
3.05063
0.788959
0.346455
0.344976
0.344296
0.344161
0.344933
0.345955
0.347358
0.34894
0.350727
0.352657
0.354738
0.356951
0.359301
0.361786
0.364419
0.367216
0.349106
0.353287
0.359344
0.367727
0.37894
0.393487
0.411837
0.434346
0.460953
0.491606
0.524517
0.559066
0.596645
0.636736
0.669486
0.692983
0.705094
0.704807
0.691936
0.666563
0.626647
0.576285
0.524426
0.4754
0.442898
0.456256
0.556916
0.800278
1.12031
1.4751
1.90379
2.45104
3.07303
0.79501
0.349011
0.346245
0.344755
0.344157
0.344113
0.344938
0.346001
0.347423
0.349022
0.350815
0.352751
0.354831
0.35704
0.35938
0.361852
0.364472
0.353186
0.35927
0.367733
0.379119
0.394004
0.412963
0.436503
0.464793
0.498041
0.53469
0.574833
0.62002
0.670919
0.714319
0.746337
0.765222
0.769662
0.760037
0.737486
0.702976
0.654657
0.597217
0.539833
0.486421
0.44989
0.460248
0.556733
0.796485
1.1167
1.47396
1.90798
2.46317
3.09409
0.800542
0.35311
0.348703
0.345897
0.344531
0.344014
0.344089
0.344948
0.346057
0.347494
0.349111
0.35091
0.35285
0.354927
0.357129
0.359457
0.361918
0.359208
0.367744
0.379293
0.394492
0.414022
0.438536
0.468441
0.504217
0.544664
0.590647
0.64384
0.707689
0.767788
0.814379
0.842382
0.85191
0.843904
0.821011
0.785984
0.740584
0.682884
0.617973
0.554944
0.497168
0.456734
0.464242
0.556803
0.793104
1.11346
1.47303
1.91205
2.47466
3.11373
0.805145
0.359173
0.352693
0.348146
0.345548
0.344326
0.343878
0.344083
0.344966
0.346122
0.347572
0.349206
0.351009
0.352952
0.355023
0.357217
0.359533
0.367761
0.379458
0.39495
0.415013
0.440444
0.471891
0.510117
0.554388
0.606336
0.667975
0.747432
0.830092
0.9019
0.947271
0.963584
0.955975
0.929017
0.888081
0.83743
0.779276
0.711206
0.638453
0.569691
0.507598
0.463379
0.468126
0.557014
0.790096
1.11055
1.47229
1.91599
2.48551
3.12974
0.809016
0.367803
0.35862
0.351873
0.347584
0.345224
0.344135
0.343754
0.344091
0.344992
0.346195
0.347657
0.349307
0.351114
0.353056
0.355119
0.357303
0.379617
0.395377
0.415936
0.442227
0.475141
0.515729
0.563805
0.621744
0.692489
0.790868
0.902166
1.00835
1.08616
1.11921
1.11232
1.07802
1.02494
0.961022
0.891604
0.818878
0.739499
0.658576
0.584027
0.517677
0.469834
0.471837
0.557425
0.787423
1.10794
1.4717
1.91979
2.49439
3.14319
0.813227
0.379792
0.367083
0.357435
0.35104
0.347057
0.344925
0.343959
0.343647
0.344111
0.345029
0.346276
0.347751
0.349414
0.351221
0.353158
0.355213
0.39578
0.416793
0.443889
0.478189
0.521042
0.572863
0.636784
0.717555
0.838216
0.983319
1.13086
1.25201
1.32184
1.3282
1.286
1.21588
1.13022
1.03897
0.948032
0.859141
0.767636
0.678268
0.597913
0.527382
0.476089
0.475383
0.557982
0.785049
1.10559
1.47124
1.92296
2.50193
3.15777
0.817795
0.396175
0.378869
0.365396
0.356229
0.350251
0.346566
0.344645
0.343799
0.343558
0.344139
0.345079
0.346365
0.347852
0.349523
0.351327
0.353259
0.417597
0.445435
0.481041
0.526052
0.581527
0.651428
0.743272
0.888911
1.07103
1.26405
1.43529
1.5547
1.60046
1.56659
1.47874
1.36555
1.2424
1.12057
1.00604
0.899751
0.795481
0.697466
0.61132
0.5367
0.482121
0.478768
0.558631
0.78294
1.10348
1.47095
1.92569
2.51017
3.17361
0.822741
0.418346
0.395013
0.376496
0.363682
0.355081
0.349504
0.346104
0.344385
0.343656
0.343491
0.344173
0.345143
0.34646
0.347958
0.349631
0.351432
0.446886
0.483706
0.530764
0.589783
0.665674
0.769574
0.941836
1.16211
1.40194
1.62661
1.80307
1.90367
1.91075
1.82528
1.68383
1.52246
1.35866
1.20425
1.06484
0.940357
0.822896
0.716112
0.624228
0.54562
0.487915
0.481997
0.559346
0.781066
1.10184
1.47075
1.92872
2.51921
3.19082
0.828104
0.448199
0.416908
0.391702
0.374093
0.362047
0.353988
0.348793
0.345673
0.344143
0.34353
0.343454
0.344212
0.34522
0.346558
0.348065
0.349739
0.486209
0.535193
0.597633
0.679523
0.796249
0.995709
1.25369
1.53967
1.81837
2.05565
2.22015
2.28674
2.24251
2.0961
1.89519
1.68242
1.47631
1.28847
1.12363
0.980596
0.849742
0.734162
0.636621
0.554138
0.493462
0.485074
0.560105
0.77962
1.10049
1.47059
1.93208
2.52911
3.20952
0.833924
0.488427
0.446457
0.41231
0.388368
0.371798
0.360482
0.35294
0.348113
0.345275
0.343919
0.343409
0.34345
0.344256
0.345307
0.346658
0.348174
0.539368
0.605102
0.692985
0.823017
1.04937
1.3436
1.67385
2.00531
2.30417
2.53749
2.67489
2.6939
2.58728
2.37235
2.10785
1.84194
1.5931
1.37186
1.1817
1.02013
0.875894
0.751574
0.648487
0.562256
0.498757
0.488
0.560787
0.778451
1.09907
1.47045
1.93581
2.53996
3.22982
0.840245
0.543018
0.486313
0.440086
0.407718
0.385182
0.369594
0.358975
0.351934
0.347463
0.344906
0.343715
0.343288
0.343473
0.344308
0.345401
0.34676
0.612223
0.706076
0.849611
1.10188
1.43035
1.80235
2.18412
2.54308
2.84649
3.06132
3.15777
3.11679
2.93818
2.64873
2.31796
1.99836
1.70724
1.45332
1.23841
1.05866
0.901238
0.768315
0.659824
0.569977
0.503797
0.490414
0.5614
0.777225
1.09759
1.47041
1.93999
2.55187
3.2519
0.847114
0.618442
0.540427
0.477488
0.433782
0.403326
0.382112
0.367463
0.357523
0.35097
0.346851
0.344565
0.343531
0.343184
0.343513
0.344366
0.345498
0.718784
0.875795
1.15259
1.513
1.92395
2.35291
2.76896
3.14082
3.4352
3.61806
3.66048
3.54819
3.28941
2.92103
2.52265
2.14974
1.81744
1.53201
1.29328
1.09594
0.925677
0.78436
0.67063
0.577306
0.507954
0.492469
0.562107
0.775958
1.09603
1.47044
1.94465
2.56496
3.27589
0.854587
0.729975
0.615302
0.528057
0.468842
0.427751
0.399085
0.379137
0.365403
0.356126
0.350053
0.346279
0.344256
0.343368
0.343104
0.343564
0.344433
0.901298
1.20107
1.59107
2.038
2.5107
2.97992
3.41644
3.78861
4.06137
4.19934
4.17537
3.98161
3.63611
3.18598
2.71985
2.29476
1.92282
1.60736
1.34594
1.13177
0.949138
0.799696
0.680908
0.583336
0.511491
0.494727
0.562923
0.774637
1.09442
1.47055
1.94988
2.57934
3.30198
0.862723
0.726284
0.923727
0.597215
0.516163
0.460565
0.421919
0.394965
0.376252
0.363415
0.354789
0.349184
0.345749
0.343977
0.343232
0.34305
0.34362
1.24692
1.66431
2.14433
2.65715
3.1751
3.67115
4.11637
4.47741
4.71651
4.79708
4.69512
4.41118
3.97419
3.44108
2.9081
2.43257
2.02284
1.67898
1.39615
1.16602
0.971569
0.81431
0.689379
0.588459
0.515375
0.497211
0.563864
0.773297
1.09273
1.47081
1.95574
2.5952
3.33035
0.871581
0.698037
0.920712
1.28639
0.580355
0.504798
0.452544
0.416243
0.39096
0.37346
0.361503
0.353513
0.348367
0.345266
0.343734
0.343124
0.343024
1.7325
2.24297
2.79237
3.35438
3.90411
4.41568
4.85924
5.19848
5.39223
5.40326
5.21274
4.83164
4.30031
3.6845
3.08647
2.56267
2.11721
1.74667
1.44377
1.19861
0.992934
0.826369
0.696583
0.594078
0.519644
0.499948
0.564954
0.771908
1.09104
1.47123
1.96235
2.61267
3.36121
0.881245
0.672151
0.875465
1.28455
1.79062
0.56448
0.493765
0.444731
0.410719
0.387079
0.370769
0.359672
0.352303
0.347607
0.34484
0.343527
0.343038
2.33394
2.91673
3.51826
4.11549
4.68566
5.20312
5.63583
5.94321
6.08008
6.00991
5.72164
5.2384
4.61182
3.91496
3.25446
2.68488
2.20582
1.81035
1.48872
1.22949
1.01054
0.836633
0.704493
0.600246
0.524342
0.502968
0.566207
0.770541
1.08925
1.4719
1.9698
2.63197
3.39476
0.891761
0.648219
0.832854
1.21806
1.79122
2.4111
0.549186
0.482997
0.437123
0.405357
0.383329
0.368183
0.357926
0.351168
0.346921
0.344477
0.343351
3.03047
3.66753
4.30631
4.92688
5.50805
6.02345
6.43734
6.70311
6.77157
6.60924
6.21575
5.62763
4.90676
4.13172
3.41186
2.79918
2.28871
1.87005
1.531
1.25479
1.02551
0.847905
0.713185
0.607024
0.529516
0.506307
0.567661
0.769131
1.08755
1.4728
1.97826
2.65329
3.43121
0.903269
0.625644
0.792849
1.1526
1.70596
2.41543
3.12623
0.534319
0.4725
0.429735
0.400169
0.37972
0.365711
0.356282
0.350137
0.346311
0.344166
3.80277
4.47802
5.14116
5.77522
6.3601
6.86753
7.2555
7.46971
7.4581
7.1937
6.6897
5.99628
5.18387
4.33443
3.5587
2.90574
2.36604
1.92585
1.56543
1.27622
1.04192
0.860295
0.722746
0.614482
0.535222
0.510004
0.569331
0.767811
1.08574
1.4741
1.98783
2.67693
3.47084
0.915752
0.604126
0.755092
1.08838
1.62013
2.31342
3.13482
3.91519
0.519856
0.462301
0.422587
0.395171
0.376263
0.363374
0.354779
0.349218
0.345776
4.6317
5.33087
6.00752
6.64768
7.23196
7.72736
8.08249
8.23443
8.13107
7.75624
7.139
6.34222
5.44241
4.52307
3.69524
3.00482
2.43801
1.97102
1.59445
1.29961
1.05991
0.87392
0.733273
0.622696
0.541522
0.514105
0.571273
0.766459
1.08412
1.47576
1.99876
2.70311
3.51374
0.929456
0.583546
0.719512
1.02526
1.53377
2.20979
3.0174
3.92711
4.75686
0.505815
0.452432
0.415699
0.390377
0.372989
0.361233
0.353436
0.348403
5.49786
6.2087
6.89052
7.53327
8.11571
8.59615
8.91056
8.98836
8.78193
8.29058
7.5602
6.66407
5.68219
4.69792
3.82184
3.09676
2.49606
2.00897
1.62597
1.32513
1.07965
0.888913
0.744875
0.631755
0.548487
0.518665
0.5735
0.765302
1.08242
1.47801
2.0112
2.73221
3.56038
0.947216
0.563871
0.686035
0.963453
1.4466
2.10444
2.89788
3.79453
4.76934
5.62959
0.492227
0.442927
0.409093
0.385834
0.369984
0.359312
0.352236
6.38166
7.09418
7.77758
8.42368
9.00565
9.46775
9.73166
9.72216
9.40253
8.79153
7.95092
6.96126
5.90348
4.85946
3.93896
3.17069
2.54469
2.05004
1.6602
1.35297
1.10129
0.905414
0.757671
0.641757
0.556196
0.523743
0.576094
0.764127
1.08109
1.48085
2.02549
2.76449
3.61994
0.968382
0.545062
0.654708
0.903557
1.3586
1.99696
2.77589
3.66014
4.62042
5.63773
6.51191
0.479135
0.433822
0.402832
0.381662
0.367284
0.357591
7.26305
7.97287
8.65945
9.31413
9.89746
10.3361
10.5369
10.4262
9.98554
9.25514
8.30986
7.23393
6.10685
5.0083
4.03286
3.23252
2.59717
2.09443
1.69731
1.3833
1.125
0.923579
0.771795
0.652814
0.564739
0.529413
0.579069
0.763311
1.07961
1.48455
2.04185
2.80723
3.69143
0.990488
0.52708
0.625694
0.846232
1.27011
1.88704
2.65097
3.52322
4.47102
5.46951
6.50892
7.38325
0.466585
0.425207
0.397082
0.37791
0.36486
8.12548
8.83388
9.53189
10.2016
10.7878
11.1945
11.3162
11.0909
10.5248
9.67889
8.63685
7.48274
6.29311
5.12712
4.11121
3.29909
2.65375
2.14239
1.73753
1.41631
1.15097
0.943571
0.787392
0.66505
0.574222
0.535752
0.582535
0.762559
1.0787
1.4892
2.06426
2.86062
3.7649
1.01321
0.509922
0.598858
0.792089
1.18173
1.7746
2.52253
3.38335
4.31993
5.30348
6.3159
7.36118
8.22424
0.454712
0.417309
0.391912
0.374539
8.95582
9.67357
10.3923
11.0855
11.6743
12.0338
12.0586
11.7075
11.0158
10.0619
8.93257
7.70877
6.44084
5.22593
4.19535
3.37068
2.71468
2.19411
1.78102
1.45219
1.17937
0.965563
0.804619
0.678604
0.584759
0.542865
0.586514
0.762495
1.07769
1.49618
2.09379
2.91779
3.83908
1.0368
0.493719
0.574001
0.741916
1.09429
1.65979
2.39015
3.23973
4.16689
5.13781
6.12976
7.13478
8.17227
9.01987
0.443837
0.410222
0.387268
9.74702
10.4807
11.2303
11.9575
12.5497
12.8437
12.7523
12.2682
11.456
10.4045
9.19837
7.88644
6.56309
5.33164
4.28556
3.44755
2.78017
2.2498
1.828
1.49112
1.21038
0.98973
0.823645
0.693628
0.596486
0.550854
0.591151
0.762723
1.07775
1.50656
2.12686
2.9784
3.91446
1.06079
0.478869
0.551115
0.696186
1.0088
1.54299
2.25358
3.09154
4.01094
4.97245
5.94762
6.92274
7.90267
8.92037
9.76567
0.434098
0.403866
10.4973
11.264
12.0585
12.8217
13.4078
13.611
13.3858
12.7676
11.845
10.7084
9.40482
8.03246
6.69311
5.44445
4.38208
3.52993
2.85045
2.30965
1.87862
1.53325
1.24418
1.01625
0.844641
0.710292
0.609547
0.559859
0.596508
0.763586
1.07849
1.51919
2.16391
3.04294
3.98903
1.08458
0.465543
0.53055
0.655033
0.926685
1.4248
2.11276
2.93807
3.85092
4.80634
5.76961
6.72054
7.6571
8.59787
9.58496
10.4464
0.425394
11.2036
12.0299
12.8919
13.6839
14.2378
14.3199
13.9485
13.2032
12.1843
10.9407
9.57297
8.18653
6.83093
5.5645
4.48508
3.61801
2.92569
2.37384
1.93305
1.57875
1.28091
1.04528
0.867783
0.728768
0.62412
0.570023
0.603903
0.765751
1.08037
1.53469
2.20502
3.11099
4.06402
1.11074
0.453614
0.512262
0.619516
0.850338
1.3062
1.96777
2.77866
3.6856
4.638
5.59454
6.52821
7.42969
8.31004
9.20077
10.1612
11.0543
11.8683
12.7859
13.7351
14.5435
15.0215
14.9526
14.4329
13.5752
12.4383
11.1277
9.74845
8.34828
6.97641
5.69181
4.59468
3.71193
3.00606
2.44249
1.99139
1.62771
1.3207
1.07698
0.893232
0.749252
0.64037
0.583667
0.613626
0.769145
1.08426
1.55303
2.2511
3.18247
4.13668
1.13698
0.495874
0.589724
0.782788
1.18949
1.81897
2.61277
3.51371
4.46575
5.42064
6.34421
7.22007
8.05126
8.86181
9.69762
10.6417
11.5916
12.5018
13.5507
14.595
15.3889
15.7322
15.4922
14.8359
13.846
12.6394
11.3199
9.93028
8.5171
7.12923
5.82627
4.7109
3.81178
3.09162
2.51569
2.05373
1.68021
1.36364
1.11146
0.921147
0.77189
0.661883
0.601207
0.624666
0.773858
1.08992
1.57521
2.30155
3.25795
4.20573
1.16338
0.564407
0.725387
1.07948
1.66804
2.44
3.33394
4.28771
5.24584
6.16646
7.02602
7.82044
8.56521
9.29658
10.0781
11.0143
12.0604
13.1234
14.3486
15.4693
16.1905
16.3381
15.9269
15.1177
14.0551
12.8418
11.5155
10.1171
8.69209
7.28884
5.96762
4.83362
3.91754
3.18242
2.59347
2.12008
1.73628
1.40977
1.14881
0.95161
0.801546
0.688923
0.620379
0.636835
0.780134
1.09807
1.60087
2.35817
3.33539
4.27303
1.18885
0.677358
0.979598
1.52022
2.26149
3.14498
4.10176
5.06769
5.99247
6.84493
7.61426
8.30893
8.95562
9.60234
10.3318
11.2663
12.4659
13.7655
15.2016
16.3322
16.8924
16.8091
16.2124
15.3274
14.2592
13.0424
11.7121
10.3073
8.87202
7.45446
6.11537
4.96261
4.02907
3.27836
2.67577
2.19041
1.79586
1.45906
1.189
0.990932
0.838074
0.717654
0.641225
0.650151
0.788043
1.10841
1.6316
2.41923
3.41626
4.33629
1.21436
0.891052
1.37984
2.0826
2.94702
3.90556
4.88333
5.81934
6.67384
7.42929
8.08803
8.66993
9.21076
9.76959
10.4472
11.3765
12.8206
14.4681
16.1162
17.1116
17.3976
17.0875
16.4112
15.5218
14.4534
13.2376
11.9069
10.4985
9.05531
7.62496
6.26883
5.09741
4.1461
3.37928
2.76246
2.26458
1.85884
1.51139
1.24009
1.03822
0.875934
0.7479
0.663907
0.664618
0.797561
1.1221
1.6665
2.48706
3.4976
4.39748
1.23811
1.24832
1.90807
2.74497
3.69811
4.68947
5.64365
6.50948
7.26192
7.89789
8.43177
8.89265
9.32243
9.78916
10.41
11.3105
13.1338
15.2797
16.9914
17.6244
17.5973
17.25
16.5791
15.6939
14.6326
13.4233
12.0967
10.6882
9.23999
7.79894
6.42703
5.2374
4.2682
3.48486
2.85329
2.34237
1.92498
1.57693
1.30014
1.08599
0.914717
0.779466
0.68822
0.680596
0.808993
1.13849
1.70789
2.55904
3.58227
4.45251
1.26193
1.73923
2.54349
3.48319
4.48375
5.46133
6.34804
7.10846
7.73394
8.23487
8.63533
8.97052
9.28732
9.66191
10.1954
10.9938
13.389
15.9062
17.3987
17.6847
17.6501
17.3368
16.7057
15.8374
14.7914
13.5951
12.2777
10.8736
9.42372
7.97463
6.5887
5.38169
4.39474
3.59463
2.94787
2.42342
2.00691
1.65247
1.35948
1.13369
0.953996
0.812046
0.714117
0.698015
0.822132
1.15934
1.75388
2.6386
3.66558
4.50511
1.28276
2.34375
3.26471
4.26829
5.26878
6.18499
6.96487
7.59196
8.07331
8.43027
8.69337
8.90596
9.10495
9.35579
9.73619
10.2158
13.0369
15.4611
17.0912
17.593
17.6185
17.3504
16.7871
15.9464
14.9254
13.749
12.4464
11.0514
9.60388
8.14994
6.75229
5.52914
4.52488
3.70795
3.04568
2.52302
2.1
1.72577
1.41747
1.18078
0.993335
0.845335
0.74127
0.717132
0.837672
1.18351
1.80804
2.72161
3.75212
4.54889
1.30421
3.04314
4.04541
5.06614
6.01588
6.82654
7.46774
7.94214
8.26968
8.47938
8.61205
8.69408
8.75309
8.83979
8.8938
9.41963
9.84922
14.4051
16.6515
17.3917
17.5368
17.3207
16.8166
16.0197
15.0313
13.8813
12.5992
11.2183
9.7776
8.32253
6.91596
5.67836
4.65757
3.82399
3.16484
2.63488
2.18915
1.79624
1.4736
1.22681
1.03233
0.878974
0.769549
0.737841
0.855017
1.21336
1.86736
2.81286
3.83469
4.59105
1.32092
3.81429
4.85352
5.83886
6.68865
7.35684
7.8369
8.14771
8.31847
8.39014
8.38469
8.32215
8.2245
8.02899
7.82889
3.89438
8.43592
13.9648
16.2509
17.1847
17.4184
17.2541
16.8096
16.0584
15.1086
13.99
12.7332
11.3712
9.94192
8.48978
7.07759
5.82769
4.7915
3.96375
3.29696
2.74081
2.27379
1.86338
1.52742
1.27138
1.07062
0.912657
0.798579
0.760203
0.875477
1.24679
1.93649
2.90634
3.92046
4.621
1.33913
4.62815
5.6516
6.54774
7.25471
7.7534
8.0598
8.20325
8.22811
8.15524
8.00556
7.78697
7.47273
6.9252
4.24059
8.39684
1.05999
13.9097
16.1761
17.0812
17.3174
17.1882
16.7783
16.0716
15.1589
14.0739
12.846
11.5073
10.0939
8.649
7.23486
5.97522
4.95012
4.11599
3.42037
2.8402
2.35344
1.92679
1.57858
1.31419
1.10792
0.94608
0.828187
0.78415
0.898259
1.28738
2.01132
3.00807
3.99953
4.65129
5.44905
6.39928
7.15677
7.68807
8.00102
8.12986
8.11705
7.99169
7.7717
7.47375
7.05376
6.4614
3.4469
7.95011
2.11881
13.6912
16.1933
17.107
17.3037
17.1549
16.7346
16.0625
15.1864
14.133
12.9367
11.6243
10.231
8.79747
7.3853
6.14561
5.11846
4.25541
3.5344
2.93258
2.42774
1.98621
1.62685
1.35502
1.14402
0.979002
0.858063
0.809546
0.924781
1.33256
2.09728
3.11067
4.08052
6.23613
7.05688
7.63562
7.97028
8.09513
8.05605
7.88548
7.60707
7.23871
6.76134
6.06435
3.19007
6.81357
2.13529
13.102
16.1611
17.1986
17.3399
17.1661
16.7089
16.0423
15.1877
14.1713
13.004
11.7212
10.3507
8.93278
7.55245
6.31953
5.26822
4.38144
3.63861
3.01756
2.49642
2.04143
1.67208
1.39372
1.17873
1.01125
0.888033
0.836682
0.953922
1.38673
2.18939
3.21994
6.94662
7.5891
7.96175
8.09
8.03447
7.83407
7.5042
7.07321
6.52933
5.79917
2.91837
5.83994
2.06555
12.1457
15.986
17.2652
17.4257
17.2137
16.7175
16.0279
15.1821
14.1853
13.0518
11.7965
10.4525
9.07409
7.7131
6.46767
5.39919
4.49376
3.73263
3.0949
2.55931
2.09234
1.71417
1.4302
1.21199
1.04265
0.91795
0.865118
0.987761
1.44688
2.2932
7.54004
7.96775
8.11898
8.04754
7.81994
7.45633
6.96982
6.36128
5.56438
2.77152
5.19302
1.996
11.013
15.5316
17.2024
17.5058
17.2844
16.7539
16.029
15.1698
14.1844
13.0765
11.854
10.5476
9.19719
7.84067
6.5908
5.51164
4.5922
3.8163
3.16444
2.61633
2.13889
1.75311
1.46445
1.24372
1.07318
0.947516
0.895229
1.02491
1.51799
7.98214
8.17282
8.10362
7.84683
7.44338
6.92067
6.25041
5.37022
2.6178
4.7034
2.0363
9.85146
14.6988
16.9663
17.4813
17.3017
16.8054
16.0376
15.1634
14.178
13.0848
11.8922
10.6151
9.28241
7.93781
6.69038
5.60577
4.67689
3.88955
3.22614
2.66741
2.18108
1.7889
1.49647
1.27394
1.1027
0.976902
0.926371
1.06789
8.24544
8.19378
7.92312
7.47298
6.90476
6.193
5.2329
2.51556
4.39944
2.14341
8.669
13.6325
16.4171
17.3378
17.2684
16.8153
16.067
15.1575
14.1679
13.0782
11.894
10.6448
9.33499
8.00752
6.76707
5.68247
4.74795
3.95253
3.28
2.71263
2.21896
1.82162
1.52634
1.30264
1.13131
1.00587
0.959235
8.31424