/*--------------------------------*- C++ -*----------------------------------*\
  =========                 |
  \\      /  F ield         | OpenFOAM: The Open Source CFD Toolbox
   \\    /   O peration     | Website:  https://openfoam.org
    \\  /    A nd           | Version:  8
     \\/     M anipulation  |
\*---------------------------------------------------------------------------*/
FoamFile
{
    version     2.0;
    format      ascii;
    class       volScalarField;
    location    "0.05";
    object      epsilon;
}
// * * * * * * * * * * * * * * * * * * * * * * * * * * * * * * * * * * * * * //

dimensions      [0 2 -3 0 0 0 0];

internalField   nonuniform List<scalar> 
3919
(
1.87086
1.84066
1.87094
1.81284
1.8409
1.87102
1.78715
1.8132
1.84112
1.87109
1.76336
1.78763
1.81355
1.84134
1.87117
1.7413
1.76395
1.7881
1.8139
1.84156
1.87124
1.72078
1.74198
1.76452
1.78855
1.81423
1.84176
1.87131
1.70169
1.72155
1.74265
1.76508
1.78899
1.81456
1.84196
1.87134
1.6839
1.70253
1.7223
1.7433
1.76562
1.78943
1.81487
1.84206
1.87134
1.66738
1.68481
1.70336
1.72303
1.74394
1.76615
1.78985
1.81503
1.84206
1.87134
1.65203
1.66833
1.6857
1.70416
1.72375
1.74456
1.76667
1.79006
1.81503
1.84206
1.87134
1.63791
1.65302
1.66927
1.68657
1.70495
1.72445
1.74516
1.76692
1.79005
1.81503
1.84206
1.87134
1.62492
1.63892
1.654
1.6702
1.68742
1.70573
1.72513
1.74546
1.76692
1.79005
1.81503
1.84206
1.87134
1.6133
1.62595
1.63992
1.65497
1.6711
1.68825
1.70648
1.72546
1.74545
1.76692
1.79005
1.81503
1.84206
1.87131
1.60303
1.61426
1.62697
1.64091
1.65592
1.672
1.68907
1.70685
1.72546
1.74545
1.76692
1.79005
1.81503
1.84196
1.87124
1.59448
1.60397
1.61523
1.62797
1.64189
1.65685
1.67287
1.68946
1.70684
1.72545
1.74545
1.76692
1.79006
1.81487
1.84176
1.87117
1.58807
1.59518
1.60491
1.61621
1.62897
1.64285
1.65776
1.6733
1.68945
1.70684
1.72545
1.74545
1.76692
1.78985
1.81455
1.84155
1.87109
1.58361
1.58867
1.59594
1.60584
1.61719
1.62995
1.64381
1.65821
1.67329
1.68944
1.70684
1.72546
1.74546
1.76666
1.78942
1.81422
1.84134
1.87101
1.58399
1.58362
1.58927
1.59676
1.60677
1.61818
1.63092
1.64427
1.65819
1.67328
1.68944
1.70684
1.72546
1.74516
1.76614
1.78898
1.81388
1.84112
1.87094
1.58678
1.58347
1.58389
1.58986
1.59762
1.60769
1.61918
1.63137
1.64425
1.65818
1.67328
1.68945
1.70685
1.72513
1.74455
1.76561
1.78854
1.81354
1.84089
1.87085
1.59356
1.58562
1.58296
1.58433
1.59045
1.59852
1.60864
1.61966
1.63133
1.64424
1.65818
1.67329
1.68946
1.70648
1.72444
1.74392
1.76506
1.78808
1.81319
1.84066
1.87077
1.60676
1.59142
1.58467
1.58255
1.58486
1.5911
1.59949
1.60906
1.61961
1.63131
1.64424
1.65818
1.6733
1.68906
1.70571
1.72373
1.74328
1.7645
1.78761
1.81283
1.84042
1.87069
1.62774
1.60296
1.58961
1.58388
1.58228
1.58548
1.59185
1.59994
1.60895
1.6196
1.63131
1.64425
1.65821
1.67286
1.68824
1.70493
1.72301
1.74263
1.76393
1.78713
1.81246
1.84018
1.8706
1.6581
1.62187
1.59967
1.58807
1.58324
1.5822
1.58628
1.59211
1.59986
1.60891
1.6196
1.63133
1.64427
1.65776
1.67198
1.6874
1.70414
1.72228
1.74196
1.76334
1.78664
1.81208
1.83993
1.87051
1.70027
1.64941
1.6167
1.59681
1.58675
1.58284
1.58245
1.58662
1.59188
1.59985
1.60891
1.61961
1.63137
1.6438
1.65683
1.67108
1.68654
1.70333
1.72153
1.74128
1.76275
1.78614
1.81169
1.83968
1.87041
1.75748
1.68775
1.64169
1.61213
1.59431
1.58576
1.58285
1.5824
1.58642
1.59183
1.59985
1.60895
1.61966
1.63091
1.64283
1.65589
1.67016
1.68567
1.7025
1.72076
1.74058
1.76213
1.78563
1.8113
1.83942
1.87032
1.83377
1.73976
1.67659
1.63482
1.60808
1.59231
1.58536
1.58266
1.58198
1.58641
1.59183
1.59986
1.60906
1.61917
1.62993
1.64186
1.65493
1.66924
1.68478
1.70166
1.71998
1.73987
1.76151
1.78511
1.81089
1.83917
1.87023
1.935
1.80898
1.72394
1.66661
1.62868
1.6047
1.59123
1.5849
1.58216
1.58191
1.58641
1.59188
1.59995
1.60864
1.61816
1.62894
1.64087
1.65396
1.6683
1.68387
1.7008
1.71918
1.73915
1.76087
1.78458
1.8105
1.83892
1.87014
2.06788
1.90049
1.78686
1.70978
1.65766
1.62348
1.60252
1.59035
1.58422
1.5821
1.58191
1.58643
1.59212
1.59949
1.60768
1.61717
1.62794
1.63988
1.65298
1.66735
1.68295
1.69993
1.71837
1.73841
1.76022
1.78405
1.81011
1.83869
1.87005
2.24496
2.02012
1.86978
1.76708
1.69708
1.65002
1.61994
1.60093
1.58943
1.58416
1.5821
1.58198
1.58662
1.59185
1.59851
1.60675
1.61618
1.62693
1.63888
1.65199
1.66638
1.68202
1.69904
1.71755
1.73766
1.75957
1.78355
1.80973
1.83846
1.86997
2.17833
2.51936
1.97774
1.84239
1.74934
1.68617
1.64461
1.61753
1.59964
1.58937
1.58416
1.58216
1.58241
1.58629
1.59109
1.5976
1.60582
1.6152
1.62591
1.63787
1.65099
1.6654
1.68107
1.69814
1.71672
1.73693
1.75895
1.78306
1.80937
1.83825
1.86989
2.11967
2.42235
2.98125
1.94003
1.81789
1.73404
1.67825
1.64105
1.61585
1.59956
1.58937
1.58422
1.58267
1.58246
1.58548
1.59045
1.59674
1.60488
1.61423
1.62489
1.63686
1.64998
1.66441
1.68012
1.69723
1.7159
1.73622
1.75835
1.78259
1.80901
1.83804
1.86981
2.06785
2.33682
2.83717
3.70687
1.9064
1.79676
1.72267
1.67321
1.63887
1.61577
1.59956
1.58942
1.58491
1.58287
1.58221
1.58485
1.58985
1.59593
1.60395
1.61327
1.62387
1.63584
1.64897
1.6634
1.67916
1.69634
1.71511
1.73554
1.75777
1.78213
1.80867
1.83783
1.86973
2.0219
2.26166
2.7097
3.45227
5.08989
1.87735
1.7808
1.71557
1.67043
1.6388
1.61577
1.59963
1.59035
1.58538
1.58285
1.58229
1.58432
1.58926
1.59517
1.60301
1.61233
1.62286
1.63481
1.64796
1.6624
1.67822
1.69548
1.71435
1.73489
1.7572
1.78169
1.80834
1.83764
1.86966
1.98224
2.1957
2.59599
3.24514
4.5756
7.84041
1.85504
1.77108
1.71201
1.67038
1.63879
1.61584
1.60093
1.59126
1.58578
1.58326
1.58257
1.58389
1.58867
1.59448
1.60209
1.61139
1.62186
1.63378
1.64695
1.66142
1.67733
1.69467
1.71362
1.73427
1.75666
1.78127
1.80802
1.83745
1.86959
1.95142
2.13933
2.49474
3.07133
4.1586
6.79309
13.1745
1.8416
1.76664
1.712
1.67038
1.63886
1.61753
1.60255
1.59235
1.58679
1.58391
1.58299
1.58363
1.58808
1.59386
1.60121
1.61046
1.62088
1.63275
1.64598
1.6605
1.67647
1.69389
1.71292
1.73368
1.75614
1.78086
1.80771
1.83726
1.86955
1.93315
2.09522
2.4071
2.92161
3.82245
5.93954
11.1379
22.81
1.83605
1.76669
1.71199
1.67041
1.64106
1.61999
1.60476
1.59437
1.58813
1.58471
1.58351
1.58363
1.58751
1.59329
1.60037
1.60953
1.61994
1.63177
1.64506
1.65962
1.67565
1.69315
1.71225
1.73311
1.75564
1.78047
1.80741
1.83718
1.86955
1.92607
2.06918
2.33656
2.79222
3.55299
5.25143
9.44942
19.1979
38.7732
1.83617
1.76668
1.712
1.67322
1.64468
1.62357
1.60817
1.5969
1.58968
1.58567
1.58403
1.58385
1.58699
1.59278
1.59961
1.60862
1.61905
1.63085
1.64419
1.6588
1.67488
1.69244
1.71161
1.73256
1.75516
1.78009
1.80728
1.83719
1.86955
1.92616
2.05965
2.29374
2.68449
3.33943
4.70081
8.06539
16.0843
32.8785
63.6304
1.83616
1.76662
1.71558
1.67835
1.65015
1.62883
1.61227
1.59978
1.5915
1.58684
1.58467
1.58426
1.58657
1.59229
1.59896
1.60776
1.61823
1.62999
1.64336
1.65802
1.67413
1.69177
1.71099
1.73205
1.7547
1.77993
1.80729
1.8372
1.86956
1.92615
2.05936
2.27768
2.61553
3.1714
4.26454
6.94437
13.4575
27.633
54.6876
100.275
1.83602
1.7711
1.72281
1.68636
1.65788
1.63503
1.61688
1.60309
1.59366
1.58822
1.58551
1.58487
1.58632
1.59181
1.59842
1.60697
1.61747
1.62921
1.64258
1.65729
1.67343
1.69114
1.7104
1.73155
1.75449
1.77996
1.80732
1.83721
1.86956
1.92604
2.05935
2.27508
2.58731
3.06955
3.92677
6.04955
11.2815
23.0676
46.4324
87.6759
151.559
1.84162
1.78099
1.73432
1.69739
1.66691
1.64195
1.62208
1.60691
1.59618
1.58987
1.58657
1.58566
1.58636
1.59136
1.59801
1.60627
1.61677
1.62849
1.64184
1.65661
1.67276
1.69054
1.70984
1.73135
1.75454
1.78001
1.80735
1.83723
1.86956
1.93318
2.05962
2.27507
2.57929
3.02862
3.72897
5.34797
9.51114
19.1781
39.0009
75.5346
135.181
219.756
1.8553
1.79714
1.74979
1.71022
1.67697
1.64971
1.62796
1.61128
1.59917
1.59181
1.58786
1.58654
1.58672
1.59097
1.59768
1.60567
1.6161
1.62783
1.64115
1.65597
1.67212
1.68998
1.7096
1.73143
1.75459
1.78006
1.80739
1.83724
1.86957
1.95177
2.06923
2.27765
2.57927
3.01398
3.65676
4.92548
8.09619
15.9298
32.4802
64.158
118.582
200.354
306.003
1.87788
1.81853
1.7677
1.72448
1.68819
1.65842
1.63461
1.6162
1.60265
1.59408
1.58938
1.58743
1.5873
1.59068
1.59741
1.60518
1.61549
1.62724
1.6405
1.65538
1.67152
1.68977
1.70969
1.73152
1.75465
1.78013
1.80744
1.83726
1.86958
1.98297
2.09572
2.29382
2.58728
3.01397
3.62766
4.76262
7.21731
13.2597
26.8978
53.8162
102.254
179.48
285.53
409.906
1.90728
1.84326
1.78763
1.74038
1.70074
1.66819
1.64206
1.62175
1.60665
1.59671
1.59111
1.58847
1.58806
1.59053
1.59718
1.60479
1.61492
1.62671
1.6399
1.65483
1.6713
1.68989
1.70979
1.73163
1.75473
1.78021
1.8075
1.83728
1.86959
2.02311
2.14038
2.3373
2.61564
3.0286
3.62766
4.68788
6.86212
11.5368
22.2145
44.6995
86.7384
157.694
261.813
391.615
529.524
1.94123
1.87086
1.80986
1.75816
1.71477
1.67912
1.65043
1.62803
1.61121
1.59969
1.59301
1.58968
1.58896
1.59056
1.59697
1.60451
1.61441
1.62624
1.63933
1.65467
1.67144
1.69004
1.7099
1.73175
1.75483
1.7803
1.80759
1.83731
1.8696
2.06951
2.19743
2.40875
2.68556
3.0697
3.65679
4.6879
6.6941
10.7931
19.0738
36.8758
72.5379
135.806
235.179
368.114
517.77
661.844
1.97923
1.90173
1.83472
1.778
1.73044
1.69133
1.65981
1.63507
1.61627
1.60294
1.59509
1.59104
1.58996
1.59082
1.5968
1.60432
1.61396
1.62581
1.63917
1.65487
1.6716
1.69022
1.71004
1.7319
1.75495
1.78042
1.80769
1.83735
1.86962
2.12174
2.26407
2.49745
2.79468
3.17294
3.72919
4.7627
6.69413
10.4441
17.6031
31.4253
59.9927
114.765
206.467
339.021
499.198
661.665
804.516
2.02185
1.93633
1.86252
1.80015
1.74792
1.70496
1.67024
1.64273
1.62168
1.6065
1.59734
1.59253
1.59098
1.59133
1.59668
1.60422
1.61355
1.62577
1.63938
1.65511
1.67179
1.69042
1.71021
1.73208
1.7551
1.78056
1.80781
1.83741
1.86964
2.18073
2.33985
2.5997
2.92561
3.3433
3.92942
4.92573
6.86224
10.4441
16.9168
28.6941
50.8933
95.4319
177.039
304.633
472.307
653.923
820.813
955.716
2.06974
1.9751
1.89358
1.82485
1.7674
1.72007
1.68151
1.65084
1.62736
1.61033
1.59976
1.59412
1.59197
1.59202
1.59664
1.60415
1.61351
1.62608
1.63963
1.65539
1.67201
1.69066
1.71041
1.73229
1.75529
1.78074
1.80795
1.8375
1.86967
2.24758
2.42588
2.71428
3.07689
3.55983
4.27223
5.35297
7.21758
10.7932
16.9168
27.4262
46.0612
80.7527
148.508
266.283
435.929
636.26
829.863
991.974
1120.22
2.12356
2.0185
1.92826
1.85237
1.78893
1.73631
1.69336
1.65934
1.63333
1.61441
1.60236
1.59584
1.59308
1.59284
1.59665
1.60435
1.6138
1.62645
1.63992
1.65571
1.67228
1.69095
1.71066
1.73255
1.75553
1.78094
1.80813
1.83761
1.86973
2.32335
2.52318
2.84243
3.25232
3.83292
4.71489
6.06518
8.10579
11.5371
17.6031
27.4262
43.8308
72.5328
125.621
226.288
390.338
604.803
830.358
1026.5
1178.86
1317.11
2.18409
2.06705
1.96696
1.88279
1.81205
1.75335
1.70576
1.66823
1.63959
1.61874
1.60516
1.5977
1.59431
1.59368
1.59686
1.60481
1.61416
1.62686
1.64027
1.65608
1.6726
1.69129
1.71097
1.73286
1.75583
1.78121
1.80837
1.83777
1.86983
2.40912
2.63255
2.98697
3.46112
4.17289
5.27284
6.97304
9.542
13.2773
19.0739
28.6939
43.8306
68.7614
112.112
191.931
337.78
557.306
813.995
1054.45
1243.08
1398.64
1608.98
2.25216
2.12132
2.00978
1.91545
1.83625
1.77112
1.71867
1.67749
1.64616
1.62335
1.60818
1.59972
1.59553
1.59438
1.59727
1.60534
1.61457
1.62734
1.64067
1.65652
1.67299
1.6917
1.71136
1.73324
1.75621
1.78155
1.8087
1.83795
1.86998
2.50592
2.75489
3.15255
3.71738
4.59373
5.96888
8.10872
11.3375
15.9866
22.2451
31.4251
46.0606
68.761
105.947
170.45
288.491
493.921
774.855
1065.67
1309.47
1495.29
1713.12
2231.94
2.32871
2.18151
2.05578
1.94963
1.86146
1.78957
1.73206
1.68712
1.65304
1.62826
1.61143
1.60168
1.59642
1.595
1.59776
1.60595
1.61506
1.6279
1.64116
1.65704
1.67346
1.6922
1.71185
1.73373
1.75673
1.78201
1.80914
1.83818
1.87015
2.6148
2.89173
3.34572
4.03025
5.11122
6.83017
9.50805
13.5404
19.2789
26.9961
36.9269
50.8927
72.5317
105.946
160.681
255.513
427.127
707.462
1050.36
1367.88
1607.73
1843.57
2365.17
4513.45
2.41411
2.24638
2.10398
1.98524
1.88761
1.80868
1.74593
1.69715
1.6603
1.63348
1.61462
1.60289
1.59704
1.59571
1.59834
1.60663
1.61563
1.62855
1.64174
1.65766
1.67406
1.69282
1.71248
1.73435
1.75742
1.78267
1.8098
1.83864
1.87035
2.73606
3.04603
3.57657
4.40989
5.74495
7.88363
11.2108
16.1935
23.2132
32.6511
44.8614
60.0758
80.7516
112.11
160.68
240.506
378.515
623.494
993.432
1394.93
1731.97
2006.9
2540.99
4745.82
2.50654
2.31454
2.15422
2.02216
1.91464
1.8284
1.7603
1.70769
1.66799
1.63851
1.61638
1.60352
1.59778
1.5965
1.59902
1.60742
1.61632
1.6293
1.64246
1.65839
1.6748
1.69359
1.71332
1.73519
1.75839
1.78364
1.81078
1.83939
1.8706
2.86703
3.22067
3.85431
4.86818
6.51453
9.15568
13.2575
19.3287
27.8189
39.2412
54.0903
72.7942
95.5628
125.62
170.447
240.505
356.239
555.317
898.609
1372.38
1840.2
2213.78
2767.85
5057.86
2.60389
2.38579
2.20635
2.0603
1.9425
1.84879
1.77534
1.71882
1.67544
1.64102
1.617
1.60429
1.59861
1.5974
1.59983
1.60833
1.61715
1.63018
1.64334
1.65929
1.67575
1.69457
1.71444
1.73637
1.75971
1.78497
1.81211
1.84024
1.87065
3.00512
3.41505
4.18225
5.41815
7.43858
10.6712
15.6659
22.9537
33.0943
46.729
64.5305
87.1566
115.153
148.707
191.928
255.51
356.238
523.589
808.819
1283.35
1884.56
2457.11
3084.2
5480.28
2.70576
2.45987
2.26023
2.0996
1.97125
1.87007
1.79122
1.72967
1.67882
1.64153
1.61779
1.60516
1.59956
1.59845
1.60078
1.60939
1.61816
1.63123
1.64443
1.6604
1.67699
1.69589
1.71599
1.738
1.76145
1.78671
1.81372
1.84098
1.87025
3.15076
3.62958
4.55708
6.06961
8.53435
12.4579
18.4465
27.0677
39.0022
55.0195
75.977
102.797
136.409
177.597
226.581
288.486
378.511
523.589
765.982
1174.25
1834.45
2647.16
3519.04
6083.52
2.81185
2.5366
2.31577
2.1401
2.00119
1.89253
1.80679
1.73411
1.67906
1.64224
1.61868
1.60616
1.60066
1.59966
1.60191
1.61063
1.61939
1.63249
1.64581
1.66181
1.67865
1.69769
1.71809
1.74019
1.76374
1.78892
1.81565
1.84167
1.86911
3.30436
3.86556
4.97181
6.81207
9.80873
14.5265
21.5902
31.6484
45.4772
63.9685
88.1499
119.197
158.434
207.278
267.035
338.186
427.118
555.313
765.982
1120.27
1715.15
2697.82
4079.04
6960.62
2.92196
2.61579
2.37302
2.18223
2.03281
1.91477
1.81252
1.73385
1.67952
1.64305
1.61972
1.60731
1.60193
1.60108
1.60325
1.61208
1.62091
1.63403
1.64758
1.66365
1.68091
1.70016
1.7209
1.74327
1.76705
1.79218
1.81872
1.84325
1.86747
3.46605
4.12093
5.42532
7.62737
11.2346
16.8608
25.0854
36.6548
52.4321
73.4055
100.737
135.806
180.267
236.104
305.634
391.27
494.445
623.477
808.818
1120.27
1651.63
2588.07
4417.53
8291.09
3.03591
2.69749
2.43253
2.22682
2.0645
1.92208
1.81135
1.73381
1.68006
1.64399
1.62092
1.60864
1.60342
1.60275
1.60489
1.61379
1.62282
1.63595
1.64991
1.66617
1.68399
1.70362
1.725
1.74814
1.77291
1.79884
1.82655
1.85007
1.86797
3.63588
4.39474
5.91627
8.50845
12.7737
19.3773
28.8882
42.0382
59.7696
83.1569
113.444
152.137
201.106
262.724
340.057
437.026
558.327
708.07
898.576
1174.25
1651.63
2510.81
4350.43
10356.2
3.15379
2.78238
2.49556
2.27213
2.07359
1.9194
1.81034
1.73382
1.68069
1.64508
1.62231
1.6102
1.60516
1.60472
1.60693
1.61585
1.62525
1.63846
1.65305
1.6697
1.68829
1.70895
1.73192
1.75741
1.78584
1.81678
1.85092
1.87222
1.87669
3.81432
4.68636
6.44209
9.44844
14.4011
21.9859
32.8575
47.7092
67.3978
93.0686
126.029
167.824
220.409
286.335
369.034
473.292
605.795
775.763
994.019
1283.28
1715.15
2510.79
4210.19
10486.9
3.27676
2.87246
2.56057
2.2833
2.06835
1.91675
1.80931
1.73387
1.68146
1.64637
1.62395
1.61203
1.60722
1.60702
1.60949
1.6184
1.6284
1.64186
1.65737
1.67483
1.69504
1.7184
1.74566
1.77789
1.81875
1.86536
1.90314
1.91698
1.89501
4.00365
4.99604
7.00068
10.443
16.0964
24.659
36.8646
53.4584
75.1865
103.025
138.328
182.654
237.917
306.65
392.347
499.943
636.943
814.562
1050.81
1372.71
1834.28
2588.04
4210.13
10040.2
3.4085
2.96738
2.57428
2.27396
2.06279
1.91396
1.80822
1.734
1.68238
1.6479
1.62586
1.61419
1.60967
1.60974
1.61269
1.62168
1.63263
1.64665
1.66355
1.68318
1.70713
1.73719
1.77585
1.82766
1.89901
1.98019
2.03045
2.02648
1.93543
4.21082
5.32711
7.59104
11.4895
17.8405
27.3709
40.874
59.1229
82.8728
112.889
150.26
196.553
253.618
323.818
410.43
518.253
654.259
830.418
1065.41
1394.43
1884.22
2697.41
4350.31
10040.1
3.55214
2.98456
2.55793
2.26369
2.05691
1.91099
1.8071
1.73424
1.68351
1.6497
1.62814
1.61677
1.6126
1.61311
1.61676
1.62609
1.63845
1.65375
1.67347
1.69824
1.73098
1.77695
1.84499
1.95212
2.08087
2.23449
2.323
2.28176
2.03668
4.44544
5.69087
8.21751
12.5804
19.6166
30.1001
44.8592
64.678
90.2864
122.39
161.749
209.574
267.675
338.242
424.206
529.777
661.691
829.544
1053.6
1366.42
1838.29
2645.54
4416.64
10486.6
3.57326
2.95681
2.5394
2.25286
2.0506
1.90783
1.80597
1.73461
1.68489
1.65185
1.63086
1.61988
1.61619
1.61738
1.62216
1.63221
1.64678
1.66548
1.69129
1.72739
1.77998
1.86468
2.00438
2.20054
2.4393
2.73723
2.93713
2.85714
2.27971
4.47124
6.1058
8.89626
13.7198
21.4233
32.8336
48.8034
70.113
97.4434
131.398
172.59
221.79
280.381
350.455
434.635
536.609
661.67
820.155
1025.12
1307.07
1728.33
2452.28
4074.19
10355.1
3.52447
2.92486
2.51986
2.24128
2.04383
1.90451
1.80487
1.73517
1.68658
1.65444
1.63416
1.62367
1.62073
1.62302
1.62951
1.64124
1.66
1.68644
1.72549
1.78575
1.88579
2.05631
2.30793
2.66804
3.12317
3.73822
4.2268
4.15886
2.86116
4.38147
6.12435
9.65272
14.9267
23.2706
35.572
52.7029
75.4307
104.373
140.006
182.755
233.151
292.042
361.065
442.678
540.091
658.19
803.794
990.484
1240.47
1603.53
2207.45
3509.61
8279.1
3.46768
2.89138
2.49906
2.22892
2.03662
1.90103
1.80383
1.73597
1.68868
1.65757
1.63817
1.62843
1.62666
1.63066
1.64005
1.65621
1.68321
1.72566
1.79264
1.90757
2.10815
2.41197
2.86693
3.55017
4.47794
5.87874
7.269
7.49303
4.36006
4.27893
5.92471
9.63382
16.23
25.1844
38.3325
56.5698
80.6483
111.116
148.31
192.446
243.78
302.837
370.66
449.271
541.63
651.789
785.938
954.362
1176.43
1491.34
2000.64
3074.24
6941.3
3.40836
2.85612
2.47692
2.21574
2.02898
1.89741
1.80292
1.73707
1.69129
1.6614
1.64318
1.63465
1.63466
1.64155
1.65646
1.68269
1.72671
1.80028
1.92924
2.1579
2.51382
3.06422
3.92652
5.33463
7.46828
11.179
15.9858
18.3592
8.94959
4.17468
5.6978
9.18556
16.1222
27.2092
41.1518
60.4357
85.8001
117.725
156.408
201.846
254.006
313.069
379.689
455.285
542.447
644.887
767.922
920.319
1118.2
1395.26
1838.26
2758.93
6064.37
3.34626
2.81891
2.45341
2.20171
2.02094
1.8937
1.80221
1.73858
1.69456
1.66619
1.64965
1.64311
1.64598
1.65859
1.68399
1.72918
1.80832
1.94969
2.20536
2.61064
3.25925
4.32321
6.14172
9.51657
15.4585
27.5542
47.7543
64.1893
26.8674
4.06817
5.4702
8.68179
15.2206
26.886
44.1051
64.3544
90.941
124.269
164.405
211.127
264.11
323.185
388.626
461.418
543.609
638.62
751.438
889.663
1067.34
1314.46
1708.78
2534.06
5463.64
3.28135
2.77964
2.42858
2.18685
2.01257
1.88995
1.80179
1.74062
1.69871
1.67238
1.65818
1.65502
1.66374
1.68752
1.73377
1.81682
1.96895
2.24844
2.70322
3.45048
4.73333
7.07879
11.6924
21.8757
43.1493
91.2721
189.94
286.811
106.836
3.95837
5.24509
8.17566
14.2109
25.2411
43.3912
68.4549
96.1488
130.837
172.415
220.456
274.342
333.553
397.992
468.273
545.976
634.105
737.433
863.294
1024.28
1247.56
1605.68
2359.4
5045.09
3.21385
2.73824
2.40251
2.17115
2.00393
1.88623
1.80179
1.74344
1.70414
1.68058
1.67015
1.67367
1.69441
1.74021
1.82614
1.98729
2.2879
2.7874
3.63865
5.16423
8.14053
14.5804
29.7347
68.4475
153.231
327.16
696.688
1005.94
266.495
3.84464
5.02561
7.67293
13.1843
23.4111
40.6297
67.1307
101.64
137.536
180.57
230.005
284.944
344.507
408.223
476.356
550.214
632.33
726.951
841.688
988.766
1193.75
1524.27
2227.52
4735.66
3.14414
2.69469
2.37532
2.1547
1.99512
1.88267
1.80231
1.74737
1.71148
1.69213
1.68888
1.7052
1.74904
1.83647
2.0048
2.32439
2.86597
3.81565
5.60926
9.35577
18.2268
41.1025
98.0256
222.168
446.32
830.364
1587.9
384.183
3.727
4.8115
7.17766
12.1541
21.5402
37.5661
62.8134
99.4725
144.715
189.014
239.963
296.158
356.375
419.733
486.152
556.643
633.736
720.813
825.695
960.698
1150.95
1462.71
2129.9
4505.86
3.07257
2.6491
2.34714
2.13762
1.98622
1.8794
1.80375
1.75306
1.72207
1.71035
1.72054
1.7609
1.84814
2.02176
2.35749
2.9391
3.98942
6.05835
10.6917
22.6196
54.9419
131.723
274.64
500.593
839.618
1428.42
755.117
3.60611
4.60196
6.6962
11.1321
19.6511
34.4198
58.0208
93.136
141.51
198.29
250.519
308.25
369.484
432.957
498.164
565.866
638.265
720.123
815.95
940.69
1118.98
1415.94
2063.86
4338.49
2.9994
2.60177
2.31808
2.1201
1.97733
1.87679
1.80676
1.76185
1.73921
1.74147
1.77652
1.86177
2.0383
2.38772
3.00529
4.15578
6.52927
12.1685
27.5999
69.9062
161.435
311.75
515.394
808.489
1269.87
781.084
3.48317
4.39586
6.23465
10.1317
17.7652
31.2272
53.0735
86.0731
132.729
193.959
262.486
321.465
384.212
448.334
512.969
578.469
647.035
723.172
813.686
929.017
1098.01
1385.75
2019.03
4227.49
2.92479
2.55315
2.28827
2.10232
1.96878
1.87576
1.81281
1.77696
1.76905
1.79689
1.87802
2.0552
2.41451
3.06511
4.30993
6.99869
13.776
33.2177
84.2082
185.247
331.456
518.527
770.264
1159.62
800.254
3.35976
4.19216
5.79787
9.16768
15.907
28.024
48.0265
78.7361
122.862
182.418
257.126
337.002
400.893
466.423
531.147
595.217
660.483
731.279
816.28
926.741
1087.76
1370.24
2005.14
4155.48
2.84895
2.50377
2.2579
2.08471
1.96171
1.87755
1.82506
1.80459
1.823
1.89791
2.07305
2.43906
3.11647
4.45282
7.44619
15.4017
38.9093
97.4594
202.055
341.333
514.096
744.314
1085.49
790.921
3.23738
3.99062
5.38885
8.25501
14.1039
24.8517
42.9346
71.2026
112.53
169.281
242.706
330.981
421.306
487.715
553.577
616.882
679.68
746.128
824.429
929.856
1087.93
1368.41
2009.93
4147.09
2.77229
2.4541
2.22752
2.06877
1.95772
1.88521
1.84943
1.85606
1.92236
2.09294
2.46178
3.16166
4.57681
7.87655
16.9846
44.2828
108.662
213.741
345.152
506.136
719.879
1038.35
784.998
3.1171
3.79243
5.00835
7.40803
12.3851
21.7584
37.8643
63.5499
101.835
155.388
225.964
313.837
415.347
514.976
581.029
644.933
705.656
768.451
841.228
939.485
1093.7
1374.79
2028.94
4173.59
2.69554
2.40489
2.19927
2.05634
1.95962
1.90508
1.89725
1.95259
2.11573
2.48395
3.19958
4.68895
8.26471
18.507
49.1432
117.56
221.075
345.992
497.746
700.051
999.631
787.773
2.99951
3.60001
4.65513
6.63886
10.78
18.7955
32.8958
55.8789
90.8789
140.862
208.035
293.341
395.98
510.204
618.203
680.584
740.936
799.737
867.616
960.09
1108.36
1392.56
2066.5
4230.53
2.62014
2.3591
2.17536
2.05032
1.97282
1.94795
1.9896
2.14275
2.50616
3.23264
4.77956
8.62473
19.8873
53.2541
124.15
225.295
345.115
490.27
683.808
971.47
784.859
2.88609
3.41595
4.32729
5.95524
9.31738
16.0154
28.1167
48.3162
79.8058
125.826
189.054
271.035
371.795
489.494
616.138
732.562
787.281
844.193
905.538
991.829
1137.86
1423.02
2128.55
4328.76
2.5505
2.31931
2.15842
2.05543
2.00915
2.03477
2.17489
2.53006
3.25999
4.85529
8.91316
21.1161
56.4796
128.61
227.283
342.982
483.279
671.54
950.677
783.471
2.78277
3.2431
4.02411
5.35803
8.02294
13.4703
23.6183
41.0063
68.8075
110.476
169.159
247.051
344.913
461.87
595.311
734.927
861.293
903.942
961.355
1038.41
1176.82
1472.42
2208.91
4481.09
2.48965
2.28776
2.15393
2.08283
2.08897
2.21363
2.55646
3.28445
4.9087
9.14982
22.0396
58.9604
131.373
227.31
339.894
477.164
661.948
936.767
782.896
2.69306
3.08927
3.74831
4.8409
6.91417
11.2083
19.4905
34.1032
58.1131
95.0943
148.605
221.524
315.439
430.318
564.591
714.979
870.128
1009.9
1037.74
1107.56
1236.12
1523.15
2315.46
4681.09
2.43922
2.26969
2.17003
2.15372
2.25961
2.58694
3.30631
4.94862
9.30225
22.7285
60.4317
132.945
226.7
336.454
471.613
654.955
927.857
784.605
2.61756
2.95757
3.51081
4.39719
5.99431
9.26836
15.8151
27.7599
47.9743
80.0322
127.798
194.788
283.494
394.874
528.218
681.679
851.753
1028.86
1190.32
1205.37
1318.44
1604.75
2403.06
4975.26
2.40383
2.27386
2.22961
2.31419
2.6224
3.32799
4.97044
9.40615
23.1299
61.3752
132.918
225.238
333.046
467.005
650.041
923.407
787.506
2.56
2.84654
3.31287
4.03292
5.25371
7.67261
12.6578
22.1136
38.6442
65.6874
107.264
167.416
249.512
355.629
486.189
640.153
816.216
1012.57
1224.56
1428.94
1441.02
1692.57
2555.65
5258.67
2.39314
2.31862
2.378
2.66422
3.35049
4.98209
9.4266
23.28
61.3653
132.422
222.84
329.627
463.401
647.302
923.191
791.424
2.52952
2.75829
3.14816
3.74032
4.68557
6.42548
10.059
17.27
30.3487
52.4653
87.6128
140.185
214.312
313.18
438.532
590.52
768.687
974.246
1209.59
1477.64
1782.68
1850.05
2690.49
5768.13
2.42153
2.45223
2.71314
3.37591
4.98315
9.4102
23.2233
61.0836
131.212
220.011
326.102
460.473
646.984
926.518
795.892
2.54056
2.70048
3.01531
3.5027
4.25366
5.52052
8.03951
13.2889
23.2563
40.7264
69.4713
114.005
179.025
268.71
386.118
532.888
709.567
918.103
1166.08
1462.98
1837.12
2445.24
3051.09
6255.72
2.53727
2.77041
3.4056
4.98128
9.36519
23.0539
60.3991
129.224
216.952
322.66
458.232
648.059
934.273
803.489
2.63447
2.68972
2.91943
3.31187
3.91611
4.87496
6.61048
10.1989
17.4525
30.7323
53.3929
89.8105
144.977
223.851
330.679
468.559
639.52
845.9
1095.01
1406.87
1812.96
2463.79
4499
7718.4
2.8361
3.4409
4.97736
9.27824
22.724
59.2713
126.951
213.653
319.321
456.666
650.87
945.506
812.682
2.91134
2.75689
2.8764
3.16833
3.65014
4.39671
5.63852
8.02764
12.9647
22.605
39.769
68.4163
113.512
180.485
274.545
400.101
560.627
759.467
1002.99
1308.29
1720.88
2379.25
3555.19
7130.42
3.48255
4.97207
9.17215
22.2834
57.9401
124.371
210.167
316.065
455.666
655.433
960.153
823.204
3.53189
3.00543
2.91241
3.08423
3.44747
4.03243
4.95783
6.58549
9.82087
16.3615
28.7683
50.3819
85.7741
140.471
220.312
330.784
476.642
662.299
893.881
1184.85
1569.75
2159.33
3186.93
5595.87
4.97244
9.05185
21.7847
56.4405
121.572
206.58
312.935
455.204
661.309
977.991
835.851
4.97602
3.59498
3.12495
3.08865
3.31454
3.75673
4.46259
5.61781
7.75115
12.0086
20.3866
35.9289
62.5255
105.347
170.449
264.063
392.019
559.714
773.319
1043.62
1395.48
1896.85
2737.44
4701.17
5805.34
8.9291
21.2421
54.8472
118.659
202.945
309.905
455.274
668.487
998.862
849.895
8.80674
4.98639
3.67698
3.259
3.27972
3.56627
4.09614
4.94653
6.39601
9.15431
14.5841
25.0146
44.0365
76.0915
126.923
203.077
311.167
457.48
648.444
892.979
1208.77
1638.41
2294.31
3676.47
5309.77
6190.91
20.6885
53.2079
115.671
199.328
306.999
455.641
676.895
1022.66
865.449
20.1317
8.67874
5.0088
3.77045
3.40889
3.48395
3.83803
4.46623
5.49168
7.30674
10.7948
17.5228
30.1998
53.0049
90.9149
150.205
237.868
360.902
526.185
741.615
1019.89
1388.17
1911.83
2806.06
4173.13
5884.78
5841.88
51.5682
112.694
195.738
304.248
456.44
686.344
1049.27
882.539
49.9589
19.5352
8.54865
5.04409
3.87561
3.57294
3.70045
4.12835
4.86819
6.10509
8.35483
12.657
20.7878
35.8788
62.7178
106.783
174.83
274.249
412.426
596.968
837.645
1151.91
1578.28
2215.54
3183.74
4611.46
6471.47
4822.81
109.741
192.243
301.632
457.641
696.772
1078.43
901.065
106.878
48.2319
18.9046
8.43957
5.09076
3.99189
3.7478
3.92719
4.43597
5.30361
6.79087
9.53477
14.7153
24.3337
41.9744
73.0354
123.45
200.392
311.595
464.827
668.53
934.669
1285.97
1773.6
2463.97
3472.45
5123.77
6799.02
3623.32
188.843
299.184
459.142
708.063
1109.92
920.856
185.58
103.798
46.424
18.3298
8.34915
5.14842
4.11802
3.93331
4.16407
4.75987
5.77369
7.54858
10.8328
16.9382
28.1096
48.4
83.8033
140.653
226.47
349.27
517.179
739.55
1030.64
1418.35
1935.93
2664.8
3786.39
5737.6
6734.53
296.894
460.938
720.141
1143.49
941.767
294.778
182.115
100.572
44.7522
17.8112
8.28057
5.21598
4.25162
4.12293
4.40939
5.09923
6.27844
8.37288
12.2297
19.292
32.0619
55.0639
94.8624
158.127
252.652
386.664
568.623
808.774
1123.53
1527.98
2071.04
2870.75
4133.47
6244.92
6442.24
463.003
732.899
1178.9
963.585
465.307
292.62
178.508
97.5682
43.2265
17.3536
8.22789
5.2923
4.3933
4.31486
4.66133
5.45312
6.816
9.25449
13.7042
21.7423
36.1364
61.8751
106.058
175.623
278.558
423.242
618.41
875.114
1199.97
1620.18
2213.24
3094.57
4569.55
6546.44
746.251
1215.9
986.188
760.097
468.144
290.497
175.171
94.7942
41.8478
16.9501
8.19675
5.37577
4.5407
4.50809
4.91833
5.82031
7.38261
10.1817
15.2344
24.2561
40.2814
68.7475
117.246
192.914
303.866
458.56
665.943
929.507
1264.37
1718.87
2363.23
3341.95
5117.03
1254.31
1009.4
1293.86
775.963
471.653
288.646
172.115
92.2488
40.6094
16.6028
8.1756
5.46611
4.69147
4.70156
5.17897
6.19901
7.97296
11.1419
16.7994
26.8025
44.4488
75.6019
128.299
209.812
328.313
492.276
704.898
975.35
1333.77
1823.53
2523.57
3634.12
1033.08
1057.03
1338.87
793.988
475.42
287.072
169.332
89.9285
39.503
16.3013
8.17599
5.56148
4.84367
4.89427
5.44191
6.58692
8.58077
12.1223
18.3802
29.3539
48.5955
82.3685
139.109
226.163
351.699
519.961
737.766
1024.89
1407.96
1934.23
2700.72
1083.9
1389.62
812.203
479.418
285.758
166.813
87.8213
38.5195
16.0447
8.18231
5.66019
4.99584
5.08531
5.70584
6.98126
9.19935
13.1114
19.9601
31.8859
52.6836
88.9898
149.59
241.851
370.965
543.372
773.377
1078.1
1486.71
2051.58
1113.8
1440.54
830.542
483.605
284.687
164.547
85.9189
37.6464
15.8267
8.19698
5.76099
5.1466
5.27378
5.96942
7.37896
9.82218
14.0988
21.5245
34.3775
56.6825
95.4189
159.675
254.826
387.305
568.818
811.779
1134.88
1569.86
1143.15
1491.39
848.903
487.944
283.852
162.513
84.2024
36.8746
15.641
8.22255
5.86268
5.29529
5.45926
6.23134
7.77692
10.4433
15.0754
23.0611
36.8118
60.5669
101.619
168.047
265.864
405.133
596.379
852.972
1195.08
1171.89
1541.87
867.193
492.422
283.25
160.706
82.6644
36.1922
15.4847
8.25461
5.964
5.44035
5.64146
6.49027
8.17214
11.0573
16.0338
24.5604
39.1752
64.3172
106.781
175.191
277.956
424.535
626.107
896.902
1199.92
1591.72
885.338
496.932
282.892
159.094
81.2795
35.5898
15.3536
8.29174
6.0645
5.57997
5.81963
6.74498
8.56186
11.6598
16.9682
26.0145
41.4569
67.4444
111.196
183.044
291.178
445.585
658.017
1227.16
1640.63
903.213
501.509
282.675
157.676
80.0476
35.0582
15.2442
8.3326
6.16415
5.7142
5.99315
6.99429
8.94363
12.247
17.8737
27.4175
43.3603
70.1227
116.063
191.67
305.608
468.338
1253.52
1688.34
920.763
506.09
282.687
156.417
78.9361
34.5886
15.1535
8.37635
6.26195
5.84302
6.1615
7.23715
9.31544
12.8161
18.7469
28.5874
44.9913
73.081
121.428
201.134
321.311
1278.87
1734.68
937.904
510.691
282.773
155.319
77.9541
34.1748
15.0785
8.42213
6.3572
5.96644
6.32423
7.47268
9.67565
13.3649
19.4747
29.5897
46.7943
76.3495
127.339
211.497
1303.18
1779.46
954.596
515.265
282.963
154.342
77.0885
33.8091
15.0172
8.46916
6.44942
6.08446
6.48102
7.70018
10.023
13.8224
20.0982
30.6979
48.7885
79.9612
133.846
1326.4
1822.59