/*--------------------------------*- C++ -*----------------------------------*\
  =========                 |
  \\      /  F ield         | OpenFOAM: The Open Source CFD Toolbox
   \\    /   O peration     | Website:  https://openfoam.org
    \\  /    A nd           | Version:  8
     \\/     M anipulation  |
\*---------------------------------------------------------------------------*/
FoamFile
{
    version     2.0;
    format      ascii;
    class       volScalarField;
    location    "0.05";
    object      T;
}
// * * * * * * * * * * * * * * * * * * * * * * * * * * * * * * * * * * * * * //

dimensions      [0 0 0 1 0 0 0];

internalField   nonuniform List<scalar> 
3919
(
899.93
899.854
899.93
899.779
899.855
899.931
899.705
899.78
899.856
899.931
899.633
899.706
899.781
899.857
899.932
899.564
899.635
899.708
899.782
899.858
899.932
899.498
899.567
899.637
899.71
899.784
899.858
899.932
899.433
899.501
899.569
899.639
899.711
899.785
899.859
899.932
899.37
899.436
899.503
899.571
899.641
899.713
899.786
899.859
899.932
899.309
899.374
899.44
899.506
899.574
899.643
899.714
899.786
899.859
899.932
899.25
899.313
899.378
899.443
899.509
899.576
899.645
899.715
899.786
899.859
899.932
899.191
899.254
899.317
899.381
899.446
899.511
899.578
899.645
899.715
899.786
899.859
899.932
899.134
899.196
899.259
899.321
899.384
899.448
899.513
899.579
899.646
899.715
899.786
899.859
899.932
899.078
899.14
899.201
899.263
899.325
899.388
899.451
899.515
899.579
899.646
899.715
899.786
899.859
899.932
899.023
899.084
899.145
899.206
899.267
899.329
899.391
899.453
899.515
899.579
899.646
899.715
899.786
899.859
899.932
898.969
899.03
899.09
899.15
899.21
899.271
899.332
899.392
899.453
899.515
899.579
899.646
899.715
899.786
899.858
899.932
898.916
898.976
899.036
899.095
899.155
899.215
899.275
899.334
899.392
899.453
899.515
899.579
899.645
899.714
899.785
899.858
899.931
898.864
898.924
898.983
899.042
899.101
899.16
899.219
899.277
899.334
899.392
899.453
899.515
899.579
899.645
899.713
899.784
899.857
899.931
898.814
898.872
898.931
898.989
899.048
899.106
899.164
899.221
899.277
899.334
899.392
899.453
899.515
899.578
899.643
899.711
899.782
899.856
899.93
898.764
898.822
898.88
898.938
898.996
899.053
899.111
899.167
899.221
899.277
899.334
899.392
899.453
899.513
899.576
899.641
899.71
899.781
899.855
899.93
898.715
898.773
898.831
898.888
898.945
899.002
899.059
899.114
899.167
899.221
899.277
899.334
899.392
899.451
899.511
899.574
899.639
899.708
899.78
899.854
899.93
898.667
898.725
898.782
898.839
898.895
898.951
899.008
899.062
899.114
899.167
899.221
899.277
899.334
899.391
899.448
899.508
899.571
899.637
899.706
899.779
899.854
899.929
898.62
898.677
898.734
898.79
898.846
898.902
898.958
899.011
899.062
899.114
899.167
899.221
899.277
899.332
899.388
899.446
899.506
899.569
899.635
899.705
899.777
899.853
899.929
898.574
898.631
898.687
898.743
898.799
898.854
898.909
898.961
899.011
899.062
899.114
899.167
899.221
899.275
899.329
899.384
899.443
899.503
899.567
899.633
899.703
899.776
899.852
899.928
898.529
898.585
898.641
898.697
898.752
898.806
898.861
898.912
898.961
899.011
899.062
899.114
899.167
899.219
899.271
899.325
899.381
899.44
899.5
899.564
899.631
899.701
899.775
899.851
899.928
898.484
898.541
898.596
898.651
898.706
898.76
898.814
898.865
898.912
898.961
899.011
899.062
899.114
899.164
899.215
899.267
899.321
899.378
899.436
899.498
899.562
899.629
899.699
899.773
899.85
899.927
898.441
898.497
898.552
898.607
898.661
898.715
898.768
898.818
898.865
898.912
898.961
899.011
899.062
899.111
899.16
899.21
899.263
899.317
899.374
899.433
899.495
899.559
899.627
899.698
899.772
899.849
899.927
898.398
898.454
898.509
898.564
898.617
898.671
898.723
898.772
898.818
898.865
898.912
898.961
899.011
899.059
899.106
899.155
899.206
899.259
899.313
899.37
899.43
899.492
899.556
899.624
899.696
899.77
899.848
899.927
898.355
898.412
898.467
898.521
898.574
898.627
898.68
898.728
898.772
898.818
898.865
898.912
898.961
899.008
899.053
899.101
899.15
899.201
899.254
899.309
899.367
899.426
899.488
899.554
899.622
899.694
899.769
899.847
899.926
898.312
898.37
898.425
898.479
898.532
898.585
898.637
898.684
898.728
898.773
898.818
898.865
898.912
898.958
899.002
899.048
899.095
899.145
899.196
899.25
899.305
899.363
899.423
899.485
899.551
899.62
899.692
899.768
899.846
899.926
898.328
898.258
898.384
898.438
898.491
898.543
898.595
898.642
898.684
898.728
898.773
898.818
898.865
898.909
898.951
898.996
899.042
899.09
899.139
899.191
899.245
899.301
899.359
899.419
899.482
899.548
899.617
899.69
899.766
899.845
899.925
898.343
898.275
898.202
898.398
898.451
898.503
898.554
898.6
898.642
898.684
898.728
898.772
898.818
898.861
898.902
898.945
898.989
899.036
899.084
899.134
899.186
899.24
899.296
899.354
899.415
899.479
899.545
899.615
899.688
899.765
899.845
899.925
898.357
898.29
898.219
898.145
898.411
898.463
898.514
898.559
898.6
898.642
898.684
898.728
898.772
898.814
898.854
898.895
898.938
898.983
899.029
899.078
899.128
899.181
899.235
899.291
899.35
899.411
899.476
899.543
899.613
899.687
899.764
899.844
899.925
898.371
898.305
898.236
898.164
898.087
898.424
898.475
898.519
898.559
898.6
898.642
898.684
898.728
898.768
898.806
898.846
898.888
898.931
898.976
899.023
899.072
899.122
899.175
899.23
899.287
899.346
899.408
899.472
899.54
899.611
899.685
899.763
899.843
899.924
898.384
898.32
898.252
898.181
898.106
898.029
898.436
898.481
898.52
898.559
898.6
898.642
898.684
898.723
898.76
898.798
898.838
898.88
898.924
898.969
899.016
899.065
899.116
899.169
899.224
899.282
899.342
899.404
899.469
899.538
899.609
899.684
899.762
899.842
899.924
898.397
898.334
898.267
898.198
898.125
898.049
897.973
898.442
898.481
898.52
898.56
898.6
898.642
898.68
898.715
898.752
898.79
898.83
898.872
898.916
898.962
899.009
899.059
899.11
899.163
899.219
899.277
899.338
899.401
899.467
899.535
899.607
899.682
899.761
899.842
899.924
898.404
898.347
898.281
898.214
898.144
898.069
897.993
897.919
898.442
898.481
898.52
898.559
898.6
898.637
898.671
898.706
898.743
898.782
898.822
898.864
898.908
898.954
899.002
899.052
899.104
899.158
899.214
899.273
899.334
899.398
899.464
899.533
899.605
899.681
899.76
899.841
899.924
898.404
898.354
898.296
898.23
898.161
898.088
898.013
897.94
897.867
898.442
898.481
898.52
898.559
898.595
898.627
898.661
898.697
898.734
898.773
898.814
898.856
898.9
898.947
898.995
899.045
899.097
899.152
899.209
899.268
899.33
899.394
899.461
899.531
899.603
899.679
899.759
899.841
899.924
898.404
898.355
898.304
898.245
898.178
898.107
898.033
897.96
897.888
897.816
898.442
898.481
898.52
898.554
898.585
898.617
898.651
898.687
898.725
898.764
898.805
898.847
898.892
898.939
898.987
899.038
899.091
899.147
899.204
899.264
899.327
899.391
899.458
899.529
899.602
899.679
899.759
899.841
899.924
898.404
898.355
898.305
898.254
898.194
898.125
898.053
897.981
897.91
897.839
897.767
898.442
898.481
898.514
898.543
898.574
898.607
898.641
898.677
898.715
898.754
898.795
898.839
898.884
898.93
898.98
899.031
899.085
899.141
899.2
899.26
899.323
899.388
899.456
899.526
899.601
899.679
899.759
899.841
899.924
898.404
898.355
898.305
898.256
898.204
898.142
898.071
898
897.93
897.86
897.79
897.718
898.442
898.475
898.503
898.532
898.564
898.596
898.631
898.667
898.705
898.744
898.786
898.829
898.875
898.922
898.972
899.025
899.079
899.136
899.195
899.256
899.32
899.385
899.454
899.525
899.601
899.678
899.759
899.841
899.924
898.404
898.355
898.305
898.257
898.207
898.154
898.09
898.019
897.95
897.881
897.812
897.742
897.671
898.436
898.463
898.491
898.521
898.552
898.585
898.62
898.656
898.694
898.734
898.776
898.82
898.866
898.914
898.965
899.018
899.074
899.131
899.191
899.252
899.316
899.382
899.452
899.525
899.601
899.678
899.759
899.841
899.924
898.398
898.354
898.305
898.257
898.209
898.158
898.102
898.038
897.97
897.902
897.834
897.765
897.695
897.624
898.424
898.451
898.479
898.509
898.541
898.574
898.609
898.645
898.684
898.724
898.766
898.811
898.858
898.907
898.958
899.012
899.068
899.126
899.186
899.249
899.313
899.381
899.452
899.525
899.601
899.678
899.759
899.841
899.924
898.384
898.347
898.304
898.256
898.209
898.16
898.108
898.052
897.989
897.922
897.855
897.788
897.719
897.649
897.578
898.411
898.438
898.467
898.497
898.529
898.562
898.597
898.634
898.673
898.713
898.756
898.802
898.849
898.899
898.952
899.006
899.063
899.121
899.182
899.245
899.311
899.381
899.452
899.525
899.6
899.678
899.759
899.841
899.924
898.371
898.334
898.296
898.254
898.207
898.161
898.111
898.059
898.003
897.942
897.876
897.81
897.743
897.674
897.603
897.533
898.398
898.425
898.454
898.484
898.516
898.55
898.585
898.623
898.662
898.703
898.747
898.793
898.841
898.892
898.945
899
899.057
899.117
899.178
899.243
899.311
899.381
899.452
899.525
899.6
899.678
899.759
899.841
899.924
898.357
898.32
898.281
898.245
898.204
898.158
898.111
898.062
898.011
897.957
897.896
897.832
897.766
897.698
897.629
897.559
897.489
898.384
898.412
898.441
898.471
898.504
898.537
898.573
898.611
898.65
898.693
898.737
898.784
898.834
898.885
898.939
898.995
899.052
899.112
899.176
899.243
899.311
899.381
899.452
899.525
899.6
899.678
899.759
899.841
899.924
898.343
898.305
898.267
898.23
898.194
898.154
898.108
898.062
898.015
897.965
897.912
897.852
897.788
897.722
897.654
897.585
897.515
897.446
898.37
898.398
898.427
898.458
898.49
898.525
898.561
898.599
898.64
898.683
898.728
898.776
898.826
898.878
898.933
898.989
899.048
899.11
899.176
899.243
899.311
899.381
899.452
899.525
899.6
899.678
899.759
899.841
899.924
898.328
898.29
898.251
898.214
898.178
898.142
898.103
898.059
898.015
897.97
897.922
897.869
897.81
897.745
897.679
897.611
897.542
897.473
897.405
898.355
898.384
898.413
898.444
898.477
898.511
898.548
898.587
898.629
898.673
898.719
898.768
898.819
898.872
898.927
898.984
899.045
899.11
899.176
899.243
899.311
899.381
899.452
899.525
899.6
899.678
899.759
899.841
899.924
898.312
898.275
898.236
898.198
898.161
898.125
898.09
898.052
898.011
897.97
897.927
897.88
897.828
897.768
897.703
897.637
897.568
897.5
897.432
897.365
898.34
898.369
898.399
898.43
898.463
898.498
898.536
898.576
898.619
898.664
898.711
898.76
898.811
898.865
898.921
898.981
899.045
899.11
899.176
899.243
899.311
899.381
899.452
899.525
899.6
899.678
899.759
899.841
899.923
898.297
898.259
898.219
898.181
898.143
898.107
898.071
898.038
898.003
897.966
897.927
897.886
897.84
897.787
897.727
897.662
897.595
897.527
897.459
897.392
897.326
898.325
898.354
898.384
898.416
898.449
898.486
898.524
898.565
898.609
898.654
898.702
898.752
898.805
898.859
898.918
898.981
899.045
899.11
899.176
899.243
899.311
899.381
899.452
899.525
899.6
899.678
899.759
899.841
899.923
898.28
898.242
898.202
898.164
898.125
898.088
898.052
898.019
897.989
897.957
897.922
897.886
897.846
897.8
897.747
897.686
897.621
897.554
897.486
897.419
897.353
897.287
898.309
898.338
898.369
898.401
898.436
898.473
898.513
898.555
898.599
898.646
898.694
898.745
898.798
898.856
898.918
898.981
899.045
899.11
899.176
899.243
899.311
899.381
899.452
899.525
899.6
899.678
899.759
899.841
899.923
898.264
898.225
898.185
898.145
898.106
898.069
898.033
898
897.97
897.942
897.912
897.88
897.846
897.807
897.762
897.708
897.647
897.581
897.514
897.446
897.38
897.314
897.246
898.293
898.322
898.354
898.387
898.423
898.461
898.502
898.545
898.59
898.637
898.686
898.738
898.795
898.856
898.918
898.981
899.045
899.11
899.176
899.243
899.311
899.381
899.452
899.525
899.601
899.678
899.759
899.841
899.923
898.246
898.207
898.167
898.127
898.087
898.049
898.013
897.981
897.95
897.922
897.896
897.87
897.84
897.807
897.769
897.724
897.67
897.607
897.541
897.474
897.407
897.341
897.273
897.199
898.276
898.306
898.339
898.374
898.411
898.45
898.491
898.535
898.581
898.629
898.679
898.734
898.795
898.856
898.918
898.981
899.045
899.11
899.176
899.243
899.311
899.381
899.452
899.525
899.601
899.678
899.759
899.841
899.923
898.229
898.189
898.148
898.107
898.067
898.029
897.993
897.961
897.93
897.902
897.876
897.853
897.828
897.801
897.77
897.733
897.687
897.632
897.569
897.502
897.435
897.369
897.3
897.226
898.259
898.291
898.325
898.361
898.398
898.439
898.481
898.525
898.572
898.621
898.675
898.734
898.795
898.856
898.918
898.981
899.045
899.11
899.176
899.243
899.312
899.381
899.452
899.526
899.601
899.679
899.759
899.841
899.923
898.211
898.171
898.129
898.087
898.047
898.009
897.973
897.94
897.91
897.881
897.855
897.832
897.81
897.787
897.762
897.733
897.697
897.651
897.595
897.53
897.464
897.397
897.328
897.254
898.243
898.276
898.311
898.348
898.387
898.428
898.471
898.516
898.563
898.617
898.675
898.734
898.795
898.856
898.918
898.981
899.045
899.11
899.176
899.244
899.312
899.382
899.453
899.526
899.601
899.679
899.759
899.841
899.923
898.195
898.153
898.109
898.067
898.026
897.988
897.953
897.92
897.889
897.86
897.834
897.81
897.788
897.768
897.748
897.725
897.697
897.661
897.615
897.558
897.493
897.425
897.357
897.282
898.228
898.262
898.298
898.336
898.375
898.417
898.461
898.507
898.56
898.617
898.675
898.735
898.795
898.856
898.918
898.981
899.046
899.111
899.177
899.244
899.312
899.382
899.453
899.526
899.601
899.679
899.759
899.841
899.923
898.178
898.135
898.09
898.047
898.006
897.967
897.932
897.899
897.868
897.839
897.812
897.788
897.766
897.745
897.727
897.709
897.688
897.661
897.626
897.58
897.521
897.454
897.385
897.311
898.213
898.248
898.285
898.324
898.364
898.407
898.452
898.503
898.56
898.617
898.675
898.735
898.795
898.856
898.919
898.982
899.046
899.111
899.177
899.244
899.313
899.382
899.453
899.526
899.601
899.679
899.759
899.841
899.923
898.162
898.118
898.072
898.027
897.985
897.946
897.911
897.877
897.846
897.817
897.79
897.765
897.743
897.722
897.703
897.687
897.67
897.651
897.626
897.592
897.545
897.484
897.415
897.341
898.198
898.235
898.273
898.312
898.354
898.397
898.448
898.503
898.56
898.617
898.676
898.735
898.795
898.857
898.919
898.982
899.046
899.111
899.178
899.245
899.313
899.383
899.454
899.527
899.602
899.679
899.759
899.841
899.923
898.147
898.101
898.054
898.008
897.965
897.926
897.89
897.856
897.825
897.795
897.768
897.743
897.719
897.698
897.679
897.662
897.647
897.632
897.616
897.592
897.558
897.509
897.444
897.371
898.184
898.222
898.261
898.301
898.344
898.393
898.448
898.504
898.56
898.618
898.676
898.735
898.796
898.857
898.919
898.983
899.047
899.112
899.178
899.245
899.314
899.383
899.454
899.527
899.602
899.68
899.759
899.841
899.923
898.132
898.086
898.037
897.99
897.946
897.906
897.868
897.834
897.803
897.773
897.745
897.719
897.696
897.674
897.654
897.636
897.621
897.608
897.595
897.58
897.558
897.524
897.472
897.401
898.171
898.21
898.25
898.291
898.34
898.394
898.448
898.504
898.56
898.618
898.676
898.736
898.796
898.858
898.92
898.983
899.048
899.113
899.179
899.246
899.315
899.384
899.455
899.528
899.603
899.68
899.76
899.841
899.923
898.118
898.07
898.02
897.972
897.928
897.886
897.848
897.813
897.781
897.75
897.722
897.696
897.672
897.649
897.629
897.611
897.595
897.581
897.569
897.558
897.545
897.524
897.488
897.429
898.158
898.198
898.239
898.287
898.34
898.394
898.449
898.504
898.561
898.618
898.677
898.737
898.797
898.858
898.921
898.984
899.048
899.114
899.18
899.247
899.315
899.385
899.456
899.529
899.604
899.681
899.76
899.841
899.923
898.105
898.056
898.005
897.956
897.911
897.868
897.829
897.792
897.759
897.728
897.699
897.672
897.647
897.625
897.604
897.585
897.568
897.554
897.541
897.531
897.521
897.509
897.488
897.448
898.146
898.187
898.234
898.287
898.341
898.395
898.449
898.505
898.562
898.619
898.678
898.737
898.798
898.859
898.922
898.985
899.05
899.115
899.181
899.248
899.317
899.386
899.457
899.53
899.604
899.681
899.761
899.842
899.923
898.092
898.042
897.99
897.94
897.894
897.851
897.81
897.773
897.738
897.706
897.676
897.649
897.623
897.6
897.579
897.559
897.542
897.527
897.514
897.502
897.493
897.484
897.472
897.448
898.134
898.182
898.235
898.288
898.341
898.395
898.45
898.506
898.563
898.62
898.679
898.738
898.799
898.86
898.923
898.986
899.051
899.116
899.182
899.25
899.318
899.387
899.458
899.531
899.605
899.682
899.761
899.842
899.924
898.079
898.028
897.976
897.926
897.879
897.835
897.793
897.754
897.718
897.685
897.654
897.626
897.6
897.576
897.554
897.534
897.516
897.5
897.486
897.474
897.464
897.454
897.444
897.429
898.13
898.183
898.236
898.289
898.342
898.396
898.451
898.507
898.564
898.621
898.68
898.74
898.8
898.862
898.924
898.988
899.052
899.118
899.184
899.251
899.319
899.389
899.459
899.532
899.606
899.683
899.762
899.842
899.924
898.075
898.015
897.962
897.912
897.864
897.819
897.777
897.737
897.7
897.665
897.632
897.603
897.576
897.551
897.529
897.508
897.49
897.473
897.459
897.446
897.435
897.425
897.414
897.401
898.131
898.185
898.237
898.29
898.343
898.397
898.452
898.508
898.565
898.623
898.681
898.741
898.802
898.864
898.926
898.99
899.054
899.119
899.185
899.253
899.321
899.39
899.46
899.532
899.607
899.683
899.762
899.843
899.925
898.077
898.011
897.95
897.899
897.85
897.805
897.761
897.721
897.682
897.646
897.612
897.581
897.553
897.527
897.504
897.483
897.464
897.447
897.432
897.419
897.407
897.396
897.385
897.371
898.133
898.186
898.239
898.292
898.345
898.399
898.454
898.51
898.567
898.624
898.683
898.743
898.804
898.866
898.928
898.992
899.056
899.121
899.187
899.254
899.322
899.391
899.461
899.533
899.607
899.683
899.762
899.843
899.926
898.08
898.014
897.946
897.886
897.837
897.791
897.747
897.705
897.666
897.628
897.594
897.561
897.531
897.504
897.48
897.459
897.439
897.421
897.406
897.392
897.38
897.368
897.356
897.341
898.135
898.188
898.241
898.293
898.347
898.401
898.456
898.512
898.569
898.627
898.685
898.745
898.806
898.868
898.931
898.994
899.058
899.123
899.189
899.256
899.323
899.392
899.461
899.533
899.606
899.683
899.762
899.843
899.927
898.083
898.017
897.949
897.883
897.826
897.778
897.734
897.691
897.651
897.612
897.576
897.542
897.511
897.483
897.457
897.435
897.414
897.396
897.38
897.366
897.353
897.341
897.328
897.311
898.137
898.19
898.243
898.295
898.349
898.403
898.458
898.514
898.571
898.629
898.688
898.748
898.809
898.87
898.933
898.996
899.06
899.125
899.191
899.257
899.324
899.392
899.461
899.531
899.604
899.68
899.76
899.843
899.929
898.086
898.02
897.953
897.887
897.823
897.767
897.721
897.678
897.636
897.597
897.56
897.525
897.492
897.463
897.435
897.411
897.39
897.371
897.355
897.34
897.326
897.314
897.3
897.282
898.14
898.193
898.245
898.298
898.351
898.405
898.461
898.517
898.574
898.632
898.691
898.751
898.812
898.873
898.935
898.999
899.062
899.127
899.192
899.257
899.323
899.39
899.458
899.527
899.597
899.672
899.752
899.84
899.934
898.089
898.024
897.957
897.891
897.827
897.764
897.71
897.666
897.623
897.583
897.545
897.509
897.475
897.444
897.415
897.39
897.367
897.347
897.33
897.315
897.301
897.287
897.273
897.253
898.143
898.196
898.248
898.301
898.354
898.409
898.464
898.52
898.577
898.636
898.694
898.754
898.815
898.876
898.938
899.001
899.064
899.128
899.192
899.256
899.321
899.385
899.448
899.512
899.578
899.65
899.734
899.831
899.942
898.093
898.028
897.961
897.896
897.832
897.769
897.708
897.655
897.611
897.57
897.531
897.494
897.459
897.427
897.397
897.37
897.346
897.324
897.306
897.29
897.276
897.262
897.246
897.225
898.147
898.199
898.251
898.304
898.358
898.412
898.468
898.524
898.581
898.639
898.698
898.757
898.818
898.879
898.941
899.003
899.065
899.128
899.19
899.252
899.312
899.368
899.422
899.477
899.54
899.615
899.705
899.812
898.097
898.033
897.967
897.901
897.837
897.775
897.714
897.654
897.601
897.559
897.518
897.48
897.445
897.411
897.38
897.351
897.326
897.303
897.283
897.266
897.251
897.237
897.221
897.198
898.151
898.203
898.255
898.308
898.362
898.416
898.472
898.528
898.585
898.643
898.701
898.761
898.821
898.881
898.943
899.004
899.065
899.125
899.184
899.238
899.285
899.327
899.371
899.425
899.492
899.574
899.666
898.102
898.039
897.972
897.907
897.843
897.781
897.72
897.66
897.601
897.549
897.507
897.468
897.431
897.396
897.364
897.335
897.308
897.283
897.262
897.244
897.227
897.212
897.195
897.172
898.155
898.207
898.26
898.313
898.367
898.421
898.477
898.533
898.59
898.647
898.705
898.764
898.824
898.884
898.943
899.003
899.061
899.116
899.163
899.2
899.229
899.262
899.307
899.366
899.442
899.526
898.108
898.045
897.979
897.914
897.85
897.788
897.727
897.667
897.608
897.549
897.498
897.457
897.419
897.383
897.35
897.319
897.291
897.265
897.243
897.223
897.205
897.189
897.171
897.147
898.161
898.213
898.265
898.318
898.372
898.427
898.482
898.537
898.594
898.651
898.709
898.767
898.826
898.884
898.942
898.998
899.048
899.088
899.112
899.128
899.15
899.187
899.239
899.309
899.389
898.114
898.051
897.986
897.921
897.857
897.795
897.734
897.675
897.615
897.557
897.499
897.448
897.408
897.371
897.337
897.305
897.276
897.249
897.225
897.203
897.184
897.166
897.147
897.122
898.167
898.219
898.271
898.324
898.378
898.432
898.487
898.542
898.598
898.655
898.712
898.77
898.827
898.883
898.936
898.982
899.012
899.022
899.025
899.037
899.065
899.111
899.176
899.252
898.121
898.059
897.995
897.93
897.866
897.804
897.743
897.683
897.624
897.566
897.507
897.45
897.4
897.361
897.325
897.292
897.262
897.234
897.208
897.186
897.165
897.145
897.125
897.098
898.173
898.226
898.278
898.331
898.384
898.438
898.492
898.547
898.603
898.659
898.715
898.77
898.824
898.875
898.916
898.935
898.932
898.922
898.923
898.942
898.981
899.04
899.112
898.129
898.067
898.004
897.939
897.875
897.813
897.752
897.693
897.634
897.575
897.517
897.46
897.402
897.353
897.315
897.281
897.249
897.22
897.193
897.169
897.147
897.126
897.104
897.075
898.181
898.233
898.285
898.338
898.391
898.444
898.497
898.552
898.607
898.661
898.715
898.768
898.815
898.85
898.859
898.842
898.82
898.809
898.819
898.85
898.903
898.97
898.137
898.076
898.014
897.95
897.886
897.823
897.763
897.703
897.644
897.586
897.528
897.47
897.413
897.356
897.307
897.27
897.237
897.207
897.179
897.154
897.131
897.108
897.085
897.055
898.19
898.241
898.293
898.345
898.397
898.449
898.503
898.556
898.609
898.662
898.712
898.757
898.786
898.784
898.754
898.718
898.697
898.697
898.719
898.765
898.827
898.147
898.086
898.025
897.962
897.898
897.835
897.774
897.715
897.656
897.598
897.54
897.482
897.424
897.367
897.311
897.262
897.227
897.195
897.167
897.14
897.116
897.092
897.067
897.036
898.199
898.249
898.3
898.352
898.403
898.455
898.507
898.559
898.61
898.658
898.7
898.723
898.711
898.667
898.62
898.588
898.577
898.59
898.628
898.682
898.157
898.097
898.037
897.974
897.911
897.848
897.787
897.728
897.669
897.611
897.553
897.495
897.437
897.38
897.322
897.266
897.218
897.185
897.155
897.127
897.102
897.077
897.051
897.018
898.208
898.258
898.308
898.358
898.409
898.46
898.511
898.56
898.606
898.645
898.662
898.64
898.585
898.526
898.482
898.46
898.463
898.492
898.539
898.167
898.108
898.049
897.988
897.926
897.863
897.801
897.742
897.683
897.625
897.567
897.509
897.451
897.393
897.335
897.277
897.22
897.175
897.143
897.115
897.089
897.063
897.036
897.002
898.216
898.266
898.315
898.365
898.414
898.464
898.511
898.556
898.591
898.603
898.571
898.506
898.436
898.382
898.349
898.341
898.36
898.398
898.176
898.119
898.062
898.003
897.941
897.879
897.817
897.757
897.699
897.641
897.583
897.525
897.467
897.408
897.349
897.289
897.229
897.171
897.132
897.101
897.076
897.049
897.022
896.987
898.225
898.274
898.322
898.37
898.418
898.464
898.507
898.54
898.546
898.506
898.431
898.352
898.287
898.244
898.226
898.234
898.261
898.186
898.13
898.074
898.017
897.958
897.896
897.835
897.774
897.716
897.658
897.6
897.542
897.484
897.425
897.364
897.302
897.238
897.173
897.11
897.09
897.059
897.035
897.007
896.973
898.234
898.281
898.328
898.375
898.419
898.46
898.49
898.492
898.444
898.361
898.273
898.199
898.145
898.117
898.115
898.131
898.195
898.14
898.086
898.031
897.974
897.915
897.854
897.793
897.734
897.676
897.619
897.561
897.503
897.443
897.381
897.316
897.247
897.171
897.091
897.017
897.056
897.015
896.991
896.957
898.242
898.288
898.333
898.376
898.415
898.442
898.44
898.386
898.295
898.199
898.116
898.054
898.015
898.003
898.009
898.203
898.15
898.097
898.044
897.989
897.933
897.874
897.814
897.754
897.696
897.639
897.581
897.523
897.463
897.4
897.333
897.257
897.168
897.06
896.933
896.82
897.049
896.966
896.939
898.249
898.293
898.334
898.371
898.396
898.391
898.331
898.234
898.131
898.041
897.97
897.922
897.9
897.896
898.211
898.159
898.108
898.056
898.004
897.95
897.894
897.836
897.776
897.718
897.66
897.603
897.545
897.485
897.422
897.352
897.27
897.167
897.026
896.824
896.533
896.221
897.161
896.94
898.254
898.294
898.33
898.353
898.344
898.28
898.178
898.069
897.972
897.893
897.837
897.806
897.792
898.217
898.168
898.118
898.067
898.017
897.966
897.913
897.857
897.799
897.741
897.684
897.627
897.569
897.509
897.446
897.374
897.288
897.174
897.004
896.724
896.218
895.251
893.46
897.811
898.256
898.29
898.311
898.299
898.232
898.126
898.012
897.908
897.823
897.76
897.721
897.698
898.219
898.174
898.127
898.078
898.03
897.981
897.931
897.878
897.823
897.765
897.708
897.651
897.594
897.536
897.473
897.401
897.314
897.193
897.005
896.672
896.006
894.481
890.273
870.162
898.252
898.271
898.257
898.188
898.078
897.959
897.851
897.76
897.69
897.644
897.614
898.215
898.177
898.133
898.088
898.041
897.994
897.947
897.897
897.845
897.79
897.734
897.678
897.621
897.563
897.502
897.432
897.346
897.226
897.034
896.684
895.958
894.231
889.209
866.78
636.884
898.233
898.217
898.146
898.033
897.912
897.799
897.703
897.628
897.576
897.539
898.197
898.173
898.136
898.095
898.052
898.007
897.961
897.914
897.865
897.814
897.76
897.705
897.649
897.592
897.532
897.465
897.384
897.27
897.089
896.755
896.062
894.434
889.915
873.056
779.019
551.721
898.18
898.107
897.992
897.868
897.752
897.652
897.572
897.515
897.472
898.144
898.154
898.133
898.098
898.059
898.018
897.974
897.93
897.884
897.835
897.784
897.732
897.678
897.622
897.564
897.5
897.425
897.322
897.16
896.866
896.265
894.892
891.329
880.102
837.851
707.013
505.901
898.07
897.954
897.828
897.709
897.606
897.522
897.461
897.414
898.036
898.103
898.115
898.095
898.063
898.026
897.986
897.944
897.901
897.855
897.807
897.757
897.706
897.652
897.596
897.536
897.466
897.375
897.237
896.994
896.507
895.431
892.808
885.537
863.986
797.131
650.403
476.705
897.919
897.791
897.67
897.565
897.478
897.413
897.362
897.887
897.997
898.064
898.078
898.06
898.03
897.995
897.956
897.915
897.873
897.829
897.781
897.732
897.681
897.628
897.571
897.507
897.428
897.313
897.12
896.745
895.945
894.091
889.39
877.373
843.36
754.334
606.8
456.019
897.758
897.635
897.528
897.438
897.371
897.317
897.727
897.85
897.961
898.029
898.044
898.027
897.999
897.966
897.929
897.889
897.847
897.804
897.757
897.709
897.659
897.605
897.547
897.477
897.383
897.233
896.955
896.382
895.108
892.075
884.988
866.931
817.723
713.711
572.484
897.603
897.494
897.403
897.334
897.278
897.574
897.692
897.816
897.927
897.996
898.011
897.997
897.97
897.938
897.903
897.864
897.823
897.78
897.735
897.687
897.637
897.584
897.522
897.444
897.329
897.127
896.729
895.873
893.927
889.631
879.534
852.913
789.05
677.079
544.326
897.464
897.371
897.301
897.243
897.436
897.542
897.661
897.785
897.897
897.965
897.982
897.969
897.944
897.913
897.879
897.841
897.801
897.758
897.714
897.667
897.618
897.563
897.497
897.407
897.262
896.99
896.427
895.189
892.556
886.697
872.052
835.55
759.28
644.549
897.343
897.271
897.213
897.318
897.406
897.512
897.632
897.757
897.868
897.937
897.954
897.942
897.919
897.889
897.856
897.819
897.78
897.738
897.694
897.648
897.599
897.542
897.47
897.364
897.18
896.815
896.036
894.421
890.955
882.678
862.292
815.473
729.702
897.245
897.187
897.222
897.29
897.379
897.486
897.606
897.731
897.842
897.91
897.928
897.917
897.895
897.867
897.835
897.799
897.761
897.719
897.676
897.631
897.581
897.522
897.442
897.315
897.08
896.596
895.611
893.547
888.785
877.332
850.186
793.462
897.163
897.142
897.197
897.265
897.355
897.462
897.583
897.707
897.818
897.885
897.904
897.895
897.874
897.847
897.816
897.78
897.742
897.702
897.659
897.614
897.564
897.501
897.411
897.257
896.959
896.364
895.136
892.375
885.886
870.452
835.858
897.12
897.175
897.243
897.333
897.441
897.561
897.685
897.795
897.862
897.881
897.873
897.853
897.828
897.797
897.763
897.726
897.686
897.644
897.599
897.547
897.48
897.377
897.191
896.834
896.11
894.509
890.816
882.09
861.897
897.101
897.155
897.224
897.314
897.421
897.541
897.665
897.775
897.841
897.86
897.853
897.835
897.81
897.78
897.746
897.71
897.671
897.629
897.584
897.531
897.458
897.339
897.125
896.701
895.779
893.68
888.764
877.235
897.084
897.138
897.206
897.296
897.403
897.523
897.646
897.755
897.821
897.841
897.835
897.817
897.793
897.765
897.731
897.695
897.657
897.616
897.57
897.514
897.435
897.303
897.055
896.528
895.345
892.59
886.1
897.069
897.123
897.19
897.28
897.387
897.506
897.629
897.737
897.803
897.823
897.818
897.801
897.778
897.75
897.717
897.682
897.644
897.603
897.556
897.498
897.414
897.266
896.967
896.306
894.777
891.166
897.056
897.109
897.176
897.265
897.372
897.491
897.613
897.72
897.786
897.806
897.802
897.786
897.764
897.736
897.704
897.669
897.632
897.591
897.543
897.484
897.394
897.221
896.854
896.017
894.035
897.045
897.097
897.164
897.252
897.358
897.476
897.598
897.705
897.77
897.791
897.787
897.772
897.75
897.724
897.692
897.657
897.62
897.579
897.532
897.471
897.369
897.164
896.71
895.64
897.034
897.086
897.152
897.24
897.345
897.463
897.584
897.69
897.755
897.776
897.773
897.759
897.738
897.712
897.68
897.646
897.609
897.569
897.522
897.455
897.339
897.093
896.523
897.025
897.076
897.141
897.228
897.333
897.451
897.571
897.677
897.741
897.763
897.76
897.747
897.727
897.701
897.67
897.636
897.601
897.561
897.511
897.437
897.302
897.002
897.017
897.067
897.132
897.218
897.322
897.439
897.559
897.665
897.729
897.75
897.748
897.735
897.716
897.69
897.66
897.628
897.592
897.551
897.498
897.416
897.257
897.01
897.059
897.123
897.208