/*--------------------------------*- C++ -*----------------------------------*\
  =========                 |
  \\      /  F ield         | OpenFOAM: The Open Source CFD Toolbox
   \\    /   O peration     | Website:  https://openfoam.org
    \\  /    A nd           | Version:  8
     \\/     M anipulation  |
\*---------------------------------------------------------------------------*/
FoamFile
{
    version     2.0;
    format      ascii;
    class       volScalarField;
    location    "0.35";
    object      nut;
}
// * * * * * * * * * * * * * * * * * * * * * * * * * * * * * * * * * * * * * //

dimensions      [0 2 -1 0 0 0 0];

internalField   nonuniform List<scalar> 
15677
(
0.000168253
0.000653022
0.00014841
0.00151373
0.000442462
0.000141501
0.00267545
0.000875841
0.000381169
0.00014237
0.00392122
0.00151896
0.000686701
0.000354268
0.000145454
0.00502422
0.00235615
0.00114649
0.000585692
0.000340289
0.000151217
0.00584077
0.00331736
0.00178088
0.000947869
0.00052937
0.000332057
0.000157021
0.00633514
0.00429862
0.00256773
0.00146344
0.000821053
0.000492559
0.000327034
0.000162481
0.00656294
0.00518764
0.00345299
0.00213176
0.00125741
0.000737362
0.000467513
0.000324169
0.000167272
0.00665851
0.00589345
0.00435544
0.00292234
0.00184177
0.00111248
0.000677471
0.000450501
0.000322604
0.000171507
0.00670553
0.00633832
0.00518098
0.00377924
0.00255725
0.00163203
0.00100474
0.000634169
0.00043874
0.000322049
0.00017508
0.0067144
0.00655352
0.00584546
0.00462559
0.0033631
0.00228682
0.00147285
0.000924309
0.000602203
0.0004308
0.000321999
0.000178219
0.00670992
0.00666155
0.00629577
0.00537746
0.00419736
0.0030457
0.00207804
0.00134917
0.000862221
0.000578561
0.000425333
0.000322478
0.000180834
0.00670628
0.00669877
0.00652969
0.00596475
0.00498466
0.00385783
0.00279605
0.00191193
0.0012512
0.000814036
0.00056079
0.000421841
0.000323121
0.00018318
0.00670538
0.00670439
0.00664685
0.00635709
0.00565054
0.00465646
0.00358375
0.00259383
0.00177776
0.00117287
0.000776161
0.000547595
0.000419497
0.000324031
0.000185222
0.00670542
0.00670289
0.0066879
0.00656305
0.0061425
0.00536909
0.00438182
0.00335732
0.00242784
0.0016679
0.00110929
0.000746334
0.000537501
0.000418263
0.000324879
0.000187029
0.00670557
0.00670167
0.00669638
0.00665664
0.00644711
0.00593421
0.00512162
0.0041491
0.00316845
0.0022897
0.00157732
0.00105749
0.000722609
0.000530218
0.000417385
0.000325927
0.000188681
0.00670565
0.00670121
0.00669711
0.00668497
0.00660506
0.00632215
0.0057381
0.00490442
0.00395103
0.0030091
0.00217418
0.00150204
0.00101544
0.000704089
0.0005245
0.000417257
0.000326863
0.000190089
0.00670567
0.00670111
0.0066967
0.00669172
0.00666384
0.0065415
0.00618883
0.00555749
0.00471462
0.00378127
0.00287413
0.002077
0.00143963
0.000981279
0.000689196
0.000520624
0.000417193
0.000327942
0.00019151
0.00670566
0.00670112
0.00669639
0.0066928
0.00668236
0.00663471
0.00646826
0.00605843
0.00539412
0.00454854
0.00363553
0.00275942
0.00199538
0.00138794
0.000953367
0.00067781
0.000517517
0.000417707
0.000328919
0.000192623
0.00670565
0.00670115
0.00669623
0.00669276
0.00668729
0.00666926
0.00659834
0.00638978
0.00593532
0.00524705
0.00440363
0.00351034
0.00266207
0.00192701
0.00134524
0.000931023
0.000668656
0.00051577
0.000418119
0.000329989
0.00019394
0.00670564
0.00670117
0.00669615
0.00669267
0.00668816
0.00668096
0.0066516
0.00655638
0.00631143
0.00581994
0.00511604
0.00427747
0.00340311
0.00257984
0.00187009
0.00131037
0.000913026
0.000662065
0.000514325
0.000419022
0.000331015
0.000194826
0.00670563
0.00670119
0.0066961
0.00669265
0.00668808
0.00668441
0.00667176
0.00663056
0.00651167
0.00623323
0.00571452
0.0049999
0.00416832
0.00331187
0.00251101
0.00182325
0.00128219
0.000899139
0.000656832
0.000513995
0.000419735
0.000332051
0.00019613
0.00670563
0.00670119
0.00669606
0.00669265
0.00668789
0.00668527
0.00667849
0.00666164
0.00660636
0.00646522
0.00616028
0.00561877
0.0048983
0.00407474
0.00323514
0.00245405
0.00178533
0.00126001
0.000888422
0.000653675
0.000513674
0.000420901
0.000333187
0.000196852
0.00670563
0.00670119
0.00669604
0.00669266
0.00668774
0.00668544
0.00668032
0.00667358
0.00664856
0.00658079
0.00641961
0.00609187
0.00553399
0.00481018
0.00399555
0.00317137
0.00240809
0.00175561
0.00124318
0.000880921
0.000651225
0.000514346
0.0004218
0.000334101
0.000198157
0.00670563
0.00670119
0.00669603
0.00669265
0.00668764
0.00668545
0.00668061
0.00667778
0.00666574
0.00663564
0.00655424
0.00637569
0.00603006
0.00545893
0.00473527
0.00392991
0.00312048
0.00237214
0.00173307
0.00123084
0.000875667
0.000650653
0.000514821
0.000423229
0.000335543
0.000198847
0.00670564
0.00670118
0.00669603
0.00669264
0.00668759
0.00668542
0.00668051
0.00667911
0.00667201
0.00665991
0.0066206
0.00652847
0.00633542
0.00597393
0.00539584
0.00467367
0.00387751
0.00307988
0.00234487
0.00171735
0.00122345
0.000873426
0.00065033
0.000516283
0.000424127
0.000336292
5.33686e-05
0.00670564
0.00670118
0.00669603
0.00669262
0.00668757
0.00668539
0.00668038
0.00667945
0.00667397
0.0066699
0.00665083
0.00660745
0.00650446
0.006299
0.0059283
0.00534259
0.00462292
0.0038358
0.00305185
0.0023283
0.00170919
0.00122004
0.000872591
0.000651804
0.00051737
0.000426505
0.000283759
6.3347e-05
0.00670564
0.00670117
0.00669604
0.0066926
0.00668756
0.00668535
0.00668028
0.00667947
0.00667441
0.00667368
0.00666351
0.00664578
0.00659349
0.00648264
0.00626798
0.00588633
0.00530134
0.00458912
0.00381218
0.0030357
0.00231916
0.00170572
0.00121926
0.000874331
0.000653423
0.000519445
0.000420123
0.000219653
7.07352e-05
0.00670565
0.00670116
0.00669605
0.00669258
0.00668756
0.0066853
0.00668023
0.00667941
0.0066744
0.00667493
0.00666837
0.00666318
0.00663713
0.00658377
0.00646625
0.00624135
0.00586303
0.00527699
0.00456666
0.0037951
0.00302625
0.00231601
0.0017068
0.00122276
0.000877308
0.000655706
0.000520693
0.000400264
0.000178134
7.61815e-05
0.00670565
0.00670115
0.00669606
0.00669255
0.00668757
0.00668525
0.0066802
0.00667932
0.00667431
0.00667519
0.00667
0.00667047
0.00665716
0.00663623
0.00657456
0.00645131
0.00623267
0.00584619
0.0052587
0.00455229
0.00378738
0.00302542
0.00232025
0.00171388
0.00122911
0.000881784
0.000658933
0.000518546
0.000367512
0.00015263
8.05907e-05
0.00670566
0.00670115
0.00669606
0.00669253
0.00668758
0.0066852
0.00668019
0.00667923
0.00667423
0.00667514
0.00667041
0.00667318
0.00666581
0.0066616
0.00663024
0.00657317
0.00645025
0.00622552
0.00583598
0.00525011
0.00455083
0.00379277
0.00303574
0.0023325
0.0017256
0.00123828
0.000887908
0.000661927
0.000512512
0.000336349
0.000134255
8.39821e-05
0.00670566
0.00670114
0.00669607
0.00669251
0.0066876
0.00668515
0.00668019
0.00667914
0.00667418
0.006675
0.00667045
0.00667392
0.00666927
0.00667286
0.00665763
0.00663934
0.00657623
0.00645309
0.0062243
0.00583838
0.00525849
0.00456387
0.00381011
0.00305511
0.00235132
0.0017417
0.00125026
0.00089515
0.000664577
0.000501202
0.000306176
0.000121282
8.6383e-05
0.00670566
0.00670113
0.00669608
0.00669249
0.00668761
0.00668511
0.0066802
0.00667905
0.00667415
0.00667485
0.00667039
0.00667397
0.00667045
0.00667737
0.00667075
0.00667282
0.00664515
0.00658502
0.00646198
0.00623828
0.00585662
0.00528022
0.00458972
0.0038383
0.00308313
0.00237658
0.00176172
0.00126473
0.000903461
0.000665746
0.000485824
0.000280101
0.000112776
8.81543e-05
0.00670567
0.00670113
0.00669609
0.00669247
0.00668763
0.00668507
0.00668022
0.00667897
0.00667413
0.00667471
0.00667032
0.0066738
0.00667076
0.00667881
0.00667657
0.00668843
0.00668063
0.00665799
0.0066028
0.00648464
0.00626576
0.00588846
0.005316
0.00462811
0.00387728
0.00311962
0.00240765
0.00178557
0.00128141
0.000912474
0.000665768
0.000469
0.000260254
0.000107009
8.95226e-05
0.00670112
0.00670568
0.0066961
0.00669245
0.00668764
0.00668502
0.00668023
0.0066789
0.00667412
0.00667458
0.00667025
0.00667359
0.00667078
0.00667908
0.0066788
0.00669545
0.00669779
0.00669627
0.00668209
0.00663221
0.00652011
0.00630712
0.00593531
0.00536579
0.00467933
0.00392667
0.00316404
0.00244456
0.00181278
0.0013001
0.000923033
0.000664615
0.000453891
0.00024502
0.00010296
9.063e-05
0.00669611
0.00670113
0.00670569
0.00669244
0.00668766
0.00668499
0.00668025
0.00667882
0.00667412
0.00667446
0.0066702
0.00667339
0.00667071
0.00667897
0.00667953
0.00669821
0.00670566
0.00671541
0.00672472
0.00671637
0.00667433
0.00656994
0.0063642
0.00599716
0.00543012
0.00474289
0.00398633
0.00321636
0.00248655
0.00184332
0.00132341
0.000935723
0.000662879
0.000441037
0.000233175
0.000100091
9.15633e-05
0.00669242
0.00669614
0.00670115
0.00670571
0.00668767
0.00668495
0.00668028
0.00667876
0.00667413
0.00667434
0.00667015
0.0066732
0.00667061
0.00667874
0.00667972
0.00669915
0.00670895
0.00672452
0.00674684
0.00676258
0.00676375
0.00673091
0.00663589
0.00643797
0.00607575
0.00550935
0.00481923
0.00405585
0.00327567
0.00253368
0.00188038
0.00135097
0.000949057
0.000661597
0.000430251
0.0002238
9.79894e-05
9.23771e-05
0.00668769
0.00669244
0.0066962
0.00670117
0.00670572
0.00668492
0.0066803
0.00667869
0.00667414
0.00667424
0.00667012
0.00667304
0.00667051
0.00667849
0.0066797
0.00669939
0.00671022
0.00672858
0.00675785
0.00678733
0.00681403
0.00682574
0.00680407
0.00671884
0.00652947
0.00617071
0.00560371
0.0049073
0.00413464
0.00334207
0.00259086
0.00192595
0.00137989
0.000962996
0.000660838
0.000421413
0.000216279
9.64741e-05
9.31049e-05
0.00668489
0.00668775
0.00669248
0.00669627
0.00670119
0.00670574
0.00668032
0.00667863
0.00667416
0.00667414
0.00667009
0.00667289
0.00667041
0.00667825
0.00667963
0.00669937
0.00671068
0.00673037
0.00676314
0.00680045
0.0068418
0.00687991
0.00690436
0.00689447
0.00682033
0.00663847
0.00628247
0.00571308
0.00500799
0.00422253
0.00342245
0.00266057
0.00197496
0.00141003
0.00097759
0.000661067
0.000413962
0.000210141
9.53325e-05
9.37667e-05
0.00668034
0.0066849
0.00668785
0.00669253
0.00669633
0.00670121
0.00670576
0.00667858
0.00667418
0.00667405
0.00667008
0.00667276
0.00667033
0.00667804
0.00667953
0.00669926
0.00671083
0.00673123
0.0067658
0.00680746
0.00685798
0.00691227
0.00696509
0.00700189
0.0070035
0.0069393
0.00676503
0.00641037
0.00583636
0.00511999
0.00432912
0.00352041
0.00273525
0.00202666
0.00144115
0.000992641
0.000661924
0.000407915
0.00020506
9.4511e-05
9.43772e-05
0.00667853
0.00668042
0.00668495
0.00668796
0.00669257
0.0066964
0.00670124
0.00670578
0.00667421
0.00667397
0.00667008
0.00667265
0.00667024
0.00667786
0.00667944
0.00669912
0.00671085
0.00673168
0.00676732
0.00681145
0.00686743
0.00693198
0.00700284
0.00707037
0.00712247
0.00713464
0.00707737
0.00690787
0.00655297
0.00597195
0.00525715
0.00445952
0.0036251
0.00281409
0.0020805
0.001473
0.00100831
0.000664055
0.000402904
0.000200739
9.38791e-05
9.49421e-05
0.00667423
0.00667852
0.00668056
0.006685
0.00668807
0.00669262
0.00669647
0.00670126
0.0067058
0.00667389
0.00667008
0.00667254
0.00667017
0.00667772
0.00667935
0.00669897
0.00671083
0.00673197
0.00676833
0.00681409
0.00687352
0.00694457
0.00702767
0.00711482
0.00719986
0.00726553
0.00729001
0.00723776
0.00706633
0.00670889
0.00613591
0.00542162
0.00459971
0.00373614
0.00289604
0.00213595
0.00150532
0.00102368
0.000666798
0.000398804
0.000197071
9.34325e-05
9.54707e-05
0.00667381
0.00667432
0.00667856
0.0066807
0.00668506
0.00668819
0.00669267
0.00669655
0.00670128
0.00670582
0.0066701
0.00667243
0.00667011
0.00667761
0.00667925
0.00669884
0.00671079
0.00673217
0.00676908
0.0068161
0.00687798
0.00695345
0.00704521
0.00714631
0.00725338
0.00735411
0.00743455
0.0074681
0.00742092
0.00724513
0.0068935
0.00632901
0.00559533
0.00474671
0.00385198
0.00298034
0.00219236
0.00153814
0.001039
0.000669859
0.000395514
0.000193912
9.30901e-05
9.59618e-05
0.00667011
0.00667377
0.00667447
0.00667861
0.00668085
0.00668512
0.00668831
0.00669272
0.00669662
0.0067013
0.00670584
0.00667233
0.00667007
0.00667752
0.00667914
0.00669872
0.00671075
0.00673234
0.00676969
0.00681775
0.00688156
0.00696046
0.00705871
0.0071703
0.00729431
0.0074192
0.00753761
0.00762939
0.00767047
0.00762464
0.00746586
0.00712013
0.00653158
0.00577547
0.00489738
0.00396997
0.00306605
0.00224927
0.00157118
0.00105405
0.000673483
0.000392818
0.000191156
9.28552e-05
9.64243e-05
0.00667224
0.00667017
0.00667376
0.00667463
0.00667865
0.00668101
0.00668518
0.00668843
0.00669277
0.0066967
0.00670132
0.00670586
0.00667004
0.00667746
0.00667902
0.00669863
0.00671073
0.00673249
0.00677022
0.0068192
0.00688459
0.00696644
0.00706999
0.0071898
0.00732794
0.00747245
0.00761819
0.00775026
0.00785238
0.00789724
0.00787385
0.00773447
0.00736615
0.00674081
0.00595666
0.00504942
0.00408935
0.00315228
0.00230618
0.00160407
0.00106901
0.000677433
0.000390628
0.000188776
9.26846e-05
9.68532e-05
0.00667003
0.00667212
0.00667026
0.00667376
0.0066748
0.0066787
0.00668117
0.00668524
0.00668855
0.00669282
0.00669677
0.00670135
0.00670588
0.0066774
0.00667887
0.00669857
0.00671072
0.00673263
0.00677069
0.00682048
0.00688725
0.00697176
0.00707985
0.00720671
0.00735691
0.00751874
0.00768826
0.00785029
0.00799594
0.00810409
0.00817664
0.008179
0.0080232
0.00762771
0.0069613
0.00613952
0.00520185
0.0042081
0.00323805
0.00236263
0.00163661
0.0010836
0.000681511
0.000388906
0.000186646
9.25738e-05
9.72584e-05
0.00667735
0.00666994
0.00667198
0.00667037
0.00667376
0.00667497
0.00667875
0.00668134
0.0066853
0.00668868
0.00669288
0.00669685
0.00670137
0.0067059
0.00667871
0.00669856
0.00671073
0.00673276
0.0067711
0.00682163
0.0068896
0.00697657
0.00708865
0.00722196
0.00738298
0.00755992
0.00775227
0.00794213
0.00812155
0.00827557
0.00841692
0.00852199
0.00851018
0.00832908
0.00789835
0.00718871
0.00632024
0.00535078
0.00432495
0.00332266
0.0024182
0.00166855
0.00109802
0.000685524
0.00038752
0.000184815
9.25075e-05
9.76325e-05
0.00667854
0.00667711
0.00666976
0.00667184
0.00667049
0.00667375
0.00667516
0.00667881
0.00668151
0.00668537
0.00668881
0.00669294
0.00669693
0.0067014
0.00670592
0.00669861
0.00671076
0.00673289
0.00677146
0.00682266
0.00689172
0.00698095
0.00709658
0.00723597
0.00740688
0.00759756
0.00781136
0.00802982
0.00824242
0.00843298
0.00862688
0.00880847
0.00890113
0.00886442
0.00864881
0.00817537
0.00742077
0.00650383
0.00549627
0.00443905
0.00340538
0.00247255
0.00169974
0.00111222
0.000689446
0.000386427
0.000183134
9.24713e-05
9.7987e-05
0.00669874
0.00667782
0.00667672
0.0066696
0.00667169
0.00667063
0.00667375
0.00667536
0.00667887
0.00668168
0.00668545
0.00668894
0.006693
0.00669701
0.00670143
0.00670594
0.00671078
0.00673299
0.00677177
0.00682359
0.00689364
0.00698494
0.00710377
0.00724892
0.00742886
0.00763254
0.00786709
0.00811297
0.00836135
0.00859066
0.00883
0.00907362
0.00924467
0.00931222
0.00923917
0.00897971
0.00845651
0.00765226
0.00668755
0.0056379
0.00454976
0.00348584
0.00252539
0.00173004
0.00112603
0.00069329
0.000385536
0.000181698
9.24686e-05
9.83124e-05
0.00671077
0.00669828
0.00667649
0.00667629
0.0066695
0.00667153
0.0066708
0.00667375
0.00667556
0.00667894
0.00668185
0.00668553
0.00668907
0.00669306
0.00669708
0.00670145
0.00670596
0.00673307
0.00677202
0.00682441
0.00689539
0.00698858
0.00711033
0.00726091
0.00744906
0.00766536
0.00792002
0.008192
0.00847603
0.00875186
0.00904349
0.009344
0.00958017
0.00972669
0.00975541
0.00963354
0.00932008
0.00873983
0.00788176
0.00686941
0.00577537
0.00465665
0.00356346
0.00257648
0.00175934
0.00113944
0.00069702
0.000384828
0.000180348
9.24778e-05
9.86217e-05
0.00673315
0.00670972
0.0066972
0.00667546
0.00667577
0.00666948
0.00667134
0.006671
0.00667375
0.00667577
0.00667901
0.00668203
0.00668562
0.00668919
0.00669313
0.00669715
0.00670148
0.00670597
0.00677222
0.00682516
0.00689698
0.0069919
0.00711632
0.00727196
0.00746763
0.00769622
0.00797003
0.00826705
0.00858746
0.00891386
0.00926953
0.00963906
0.00994007
0.0101568
0.010263
0.0102354
0.0100488
0.00966929
0.009024
0.00810815
0.00704795
0.00590813
0.0047586
0.00363793
0.00262563
0.00178756
0.00115239
0.000700651
0.000384239
0.000179203
9.25135e-05
9.89041e-05
0.0067724
0.00673148
0.0067075
0.0066956
0.00667479
0.00667512
0.00666955
0.00667113
0.00667121
0.00667376
0.00667598
0.0066791
0.0066822
0.00668572
0.00668931
0.0066932
0.00669721
0.00670151
0.00670598
0.00682585
0.00689845
0.00699492
0.0071218
0.00728211
0.00748471
0.00772521
0.00801688
0.00833837
0.00869679
0.00907633
0.00949757
0.00995961
0.0103568
0.0106545
0.0108324
0.0108709
0.0107601
0.0104876
0.0100274
0.00930819
0.0083306
0.00722213
0.00603783
0.00485582
0.00370907
0.00267272
0.00181464
0.00116485
0.000704144
0.000383777
0.000178102
9.25496e-05
9.91734e-05
0.00682652
0.0067696
0.00672796
0.0067053
0.00669366
0.00667446
0.00667434
0.0066697
0.00667091
0.00667144
0.00667378
0.00667618
0.0066792
0.00668236
0.00668582
0.00668942
0.00669327
0.00669727
0.00670154
0.006706
0.00689979
0.00699766
0.00712681
0.00729141
0.00750042
0.00775228
0.0080605
0.0084064
0.00880394
0.00923671
0.00972243
0.0102996
0.0108554
0.0112902
0.011552
0.0116425
0.0115666
0.0113358
0.0109514
0.0103942
0.00959177
0.00854855
0.00739044
0.00616361
0.00494843
0.00377681
0.00271767
0.00184053
0.00117678
0.000707521
0.000383398
0.000177179
9.26081e-05
9.93876e-05
0.00690106
0.00682303
0.00676358
0.00672456
0.00670311
0.00669133
0.00667446
0.00667346
0.00666991
0.0066707
0.00667167
0.00667383
0.00667638
0.00667931
0.00668251
0.00668592
0.00668952
0.00669334
0.00669733
0.00670157
0.00670601
0.00700016
0.00713138
0.0072999
0.00751486
0.0077774
0.00810098
0.00847139
0.00890767
0.0093918
0.00994533
0.0106739
0.0114528
0.0121203
0.0125265
0.0126662
0.0125957
0.0123503
0.0119608
0.0114389
0.0107688
0.00987401
0.00876144
0.00755269
0.00628488
0.00503652
0.00384113
0.00276044
0.0018652
0.00118818
0.000710743
0.000383108
0.000176271
9.26509e-05
9.95676e-05
0.00700246
0.00689613
0.00681499
0.00675762
0.00672137
0.00670125
0.00668852
0.0066747
0.00667254
0.00667014
0.00667052
0.00667188
0.0066739
0.00667656
0.00667944
0.00668265
0.00668603
0.00668962
0.00669341
0.00669738
0.0067016
0.00670602
0.00713554
0.00730761
0.00752809
0.00780059
0.00813853
0.00853322
0.00900646
0.0095404
0.0101733
0.0110996
0.0121587
0.0131189
0.0137721
0.0140232
0.0139483
0.0136554
0.0131994
0.0126231
0.0119442
0.0111486
0.0101539
0.00896886
0.00770877
0.00640129
0.00512017
0.00390207
0.00280103
0.00188866
0.00119903
0.000713843
0.000382836
0.00017562
9.27072e-05
9.97608e-05
0.00713934
0.00699578
0.00688434
0.00680699
0.00675192
0.00671836
0.00669997
0.00668551
0.00667504
0.00667165
0.00667035
0.0066704
0.00667207
0.006674
0.00667673
0.00667957
0.00668278
0.00668613
0.00668971
0.00669348
0.00669744
0.00670163
0.00670603
0.00731462
0.0075402
0.00782188
0.00817332
0.00859157
0.00909927
0.00968362
0.0104135
0.0115779
0.0129434
0.0142033
0.0151266
0.0156042
0.0156168
0.015288
0.0147537
0.0140757
0.0133031
0.0124585
0.0115298
0.0104302
0.00917034
0.0078586
0.00651266
0.00519949
0.00395969
0.00283946
0.00191091
0.00120935
0.000716779
0.000382681
0.000175028
9.27537e-05
9.9971e-05
0.00732095
0.00713034
0.00697895
0.00687255
0.00679916
0.00674645
0.00671548
0.00669893
0.0066825
0.00667536
0.00667087
0.00667051
0.00667034
0.00667223
0.00667413
0.00667688
0.0066797
0.00668291
0.00668624
0.0066898
0.00669354
0.00669749
0.00670166
0.00670604
0.00755125
0.00784134
0.00820548
0.00864607
0.00918591
0.00982352
0.0106683
0.0120915
0.0137482
0.0152648
0.0164169
0.0171237
0.017361
0.0171352
0.0165738
0.0158206
0.014938
0.0139785
0.0129709
0.011908
0.0107012
0.00936545
0.00800214
0.0066189
0.00527457
0.00401408
0.00287577
0.00193198
0.00121912
0.00071922
0.000382513
0.000174459
9.28335e-05
0.000100197
0.00756121
0.00730932
0.00710665
0.00696209
0.00686099
0.00679146
0.00674117
0.0067128
0.00669797
0.00667969
0.00667551
0.00667028
0.00667057
0.00667036
0.00667235
0.00667427
0.00667702
0.00667984
0.00668302
0.00668634
0.00668989
0.00669361
0.00669754
0.00670167
0.00670604
0.00785911
0.0082351
0.00869654
0.00926684
0.0099616
0.0109336
0.0126135
0.0145154
0.0162177
0.017527
0.0184068
0.0188608
0.0188832
0.0184705
0.0177305
0.0168045
0.0157525
0.0146295
0.0134711
0.0122785
0.0109655
0.00955374
0.00813937
0.00671999
0.00534555
0.00406538
0.00291001
0.00195187
0.00122716
0.000721296
0.000382403
0.000173805
9.29011e-05
0.000100445
0.00787498
0.00754612
0.00727658
0.00708289
0.00694553
0.00684969
0.00678383
0.00673621
0.00671022
0.00669699
0.00667733
0.00667536
0.00666991
0.00667054
0.00667045
0.00667245
0.00667442
0.00667715
0.00667998
0.00668314
0.00668645
0.00668997
0.00669368
0.00669756
0.00670167
0.00670604
0.00826233
0.00874298
0.00934275
0.010098
0.0112016
0.0131183
0.0152053
0.0170189
0.018411
0.0193935
0.020003
0.0202508
0.0201182
0.0195821
0.0187238
0.0176769
0.0164974
0.0152408
0.0139501
0.0126369
0.0112212
0.00973481
0.0082703
0.00681598
0.00541251
0.00411357
0.00294224
0.00196816
0.00123397
0.000723594
0.000382203
0.000173159
9.30107e-05
0.000100711
0.00828664
0.00785612
0.00750125
0.00724371
0.00705958
0.00692936
0.00683861
0.00677625
0.00673161
0.00670763
0.00669581
0.00667587
0.00667487
0.00666977
0.00667044
0.00667058
0.00667253
0.00667458
0.00667727
0.00668011
0.00668325
0.00668655
0.00669005
0.00669371
0.00669756
0.00670167
0.00670604
0.00878562
0.00941429
0.0102318
0.0114635
0.0135874
0.0158
0.0176609
0.0190736
0.0200952
0.020793
0.0211987
0.0213051
0.0210765
0.0204726
0.019549
0.0184287
0.0171618
0.0158031
0.0144014
0.0129798
0.0114672
0.00990829
0.00839494
0.00690697
0.00547589
0.00415874
0.00296854
0.00198196
0.00124144
0.000726118
0.00038209
0.000172448
9.31067e-05
0.000101002
0.00882346
0.00826295
0.00779541
0.00745621
0.0072114
0.00703679
0.00691353
0.00682774
0.00676871
0.00672718
0.00670497
0.00669369
0.00667515
0.00667412
0.00666978
0.00667031
0.00667073
0.00667262
0.00667474
0.00667739
0.00668024
0.00668335
0.00668664
0.00669009
0.00669371
0.00669756
0.00670167
0.00670604
0.0094819
0.0103611
0.0117119
0.0140106
0.0162972
0.018157
0.0195448
0.0205561
0.0212845
0.021781
0.0220528
0.0220734
0.0217949
0.0211655
0.0202177
0.0190627
0.0177435
0.016312
0.0148209
0.0133044
0.0117021
0.0100739
0.00851335
0.00699294
0.00553591
0.0041955
0.00299076
0.00199703
0.00124962
0.00072891
0.000381898
0.000171709
9.32543e-05
0.000101314
0.00954324
0.00879425
0.00818089
0.0077344
0.0074119
0.00717977
0.00701451
0.00689807
0.00681713
0.00676132
0.0067229
0.00670238
0.00669093
0.00667498
0.00667325
0.00666989
0.00667018
0.00667089
0.0066727
0.00667489
0.00667751
0.00668037
0.00668346
0.00668669
0.00669008
0.00669371
0.00669756
0.00670167
0.00670604
0.0104844
0.0119451
0.0143852
0.0167043
0.0185295
0.0198617
0.0208282
0.0215435
0.0220754
0.022445
0.0226371
0.0226123
0.0223164
0.021691
0.0207491
0.0195891
0.0182459
0.0167668
0.0152067
0.0136091
0.0119251
0.0102314
0.00862562
0.00707401
0.00558514
0.0042265
0.00301497
0.0020135
0.00125859
0.00073199
0.000381772
0.000170937
9.33921e-05
0.000101654
0.0105951
0.00950672
0.00868289
0.00809859
0.0076743
0.00736849
0.00714883
0.00699275
0.00688301
0.0068069
0.00675401
0.00671899
0.0067001
0.00668767
0.00667511
0.00667238
0.00667001
0.00667008
0.00667104
0.00667279
0.00667504
0.00667763
0.0066805
0.00668351
0.00668669
0.00669008
0.00669371
0.00669756
0.00670167
0.00670603
0.012164
0.0147103
0.017033
0.018802
0.0200602
0.0209594
0.0216308
0.0221559
0.0225689
0.0228656
0.0230153
0.0229723
0.0226809
0.0220794
0.0211641
0.0200208
0.0186754
0.0171696
0.0155584
0.0138929
0.0121358
0.0103807
0.00873182
0.00714026
0.00562686
0.00426025
0.00304136
0.00203151
0.00126843
0.000735388
0.000381579
0.000170109
9.35893e-05
0.000102018
0.0105536
0.0123586
0.00934509
0.00857281
0.00801735
0.00761535
0.00732597
0.00711859
0.00697154
0.00686841
0.0067972
0.00674706
0.00671537
0.00669863
0.00668442
0.00667532
0.0066716
0.00667012
0.00667001
0.00667118
0.00667289
0.00667519
0.00667775
0.00668056
0.0066835
0.00668669
0.00669008
0.00669371
0.00669756
0.00670166
0.00670602
0.0149872
0.0172958
0.0189963
0.0201704
0.0209893
0.0215962
0.022084
0.0224984
0.0228465
0.0231063
0.0232381
0.0231948
0.0229223
0.0223577
0.0214829
0.0203712
0.0190398
0.0175238
0.0158769
0.0141558
0.0123338
0.0105217
0.0088188
0.00719631
0.00567251
0.00429701
0.00307015
0.00205121
0.00127924
0.00073914
0.000381459
0.000169255
9.3789e-05
0.000102415
0.0103064
0.0123195
0.0152128
0.0091898
0.00846457
0.00793749
0.00755756
0.00728436
0.00708909
0.00695093
0.00685434
0.00678789
0.00674052
0.00671208
0.00669746
0.00668146
0.00667543
0.00667098
0.00667019
0.00666999
0.0066713
0.006673
0.00667532
0.0066778
0.00668056
0.0066835
0.00668669
0.00669008
0.00669371
0.00669754
0.00670163
0.00670601
0.0175045
0.0191307
0.0202167
0.0209487
0.0214785
0.0219075
0.0222917
0.0226496
0.0229684
0.0232142
0.0233438
0.0233122
0.0230684
0.022549
0.0217233
0.0206532
0.0193473
0.0178339
0.0161638
0.0143981
0.0125192
0.010637
0.00889251
0.00725754
0.00572248
0.00433709
0.00310154
0.00207277
0.0012911
0.000743285
0.000381263
0.000168341
9.40529e-05
0.000102836
0.0100637
0.011966
0.0151463
0.01766
0.00904168
0.00835786
0.00785913
0.00750094
0.00724372
0.00706038
0.00693098
0.00684078
0.00677892
0.00673444
0.00670918
0.00669637
0.00667899
0.00667535
0.00667054
0.00667019
0.00667001
0.00667141
0.00667312
0.00667539
0.0066778
0.00668056
0.0066835
0.00668669
0.00669009
0.00669367
0.00669749
0.0067016
0.006706
0.0192197
0.0202178
0.0208607
0.0213065
0.0216625
0.0219931
0.0223279
0.0226648
0.0229768
0.0232231
0.023361
0.0233495
0.0231413
0.0226722
0.0219007
0.0208783
0.0196057
0.0181043
0.0164214
0.0146204
0.0126692
0.0107346
0.00897313
0.00732446
0.00577721
0.00438081
0.00313582
0.00209638
0.00130417
0.000747883
0.000381142
0.000167399
9.43448e-05
0.000103294
0.00983613
0.0115841
0.0147885
0.0175601
0.0192654
0.00889847
0.00825262
0.00778237
0.00744557
0.00720415
0.00703253
0.00691172
0.00682778
0.00677043
0.00672905
0.00670652
0.00669524
0.00667727
0.00667504
0.00667027
0.00667015
0.00667008
0.00667151
0.00667318
0.00667539
0.0066778
0.00668056
0.0066835
0.00668669
0.00669005
0.00669361
0.00669744
0.00670157
0.00670598
0.0201875
0.0207426
0.0211013
0.0213757
0.0216362
0.0219221
0.0222433
0.0225819
0.0229009
0.0231569
0.0233107
0.0233261
0.0231584
0.0227427
0.0220279
0.0210565
0.0198222
0.0183396
0.016652
0.0147968
0.0127952
0.010841
0.00906135
0.00739767
0.00583718
0.00442855
0.00317324
0.00212226
0.0013185
0.000753002
0.000380955
0.000166398
9.46999e-05
0.000103774
0.00962299
0.0112084
0.0143443
0.017325
0.0191114
0.0201256
0.00875847
0.00814908
0.00770733
0.00739157
0.00716573
0.0070056
0.00689326
0.00681562
0.00676257
0.00672441
0.00670397
0.00669359
0.00667629
0.00667452
0.00667015
0.00667008
0.00667017
0.00667154
0.00667318
0.00667538
0.0066778
0.00668056
0.0066835
0.00668664
0.00668996
0.00669354
0.00669738
0.00670154
0.00670597
0.0206064
0.0208786
0.0210668
0.0212458
0.0214633
0.0217407
0.0220717
0.0224261
0.0227604
0.0230326
0.0232088
0.0232568
0.0231335
0.0227729
0.0221154
0.0211963
0.020003
0.018544
0.0168305
0.0149433
0.0129316
0.0109571
0.0091579
0.00747781
0.00590294
0.00448072
0.00321414
0.00215059
0.00133432
0.000758579
0.000380815
0.000165356
9.51294e-05
0.000104295
0.00942121
0.0108518
0.0138544
0.0170026
0.0189498
0.0199157
0.0204473
0.00862115
0.00804758
0.00763418
0.00733907
0.00712855
0.00697981
0.00687608
0.00680448
0.0067552
0.00672028
0.0067016
0.00669135
0.00667584
0.00667388
0.00667013
0.00666999
0.00667024
0.00667151
0.00667318
0.00667538
0.0066778
0.00668055
0.00668345
0.00668654
0.00668988
0.00669347
0.00669733
0.00670151
0.00670595
0.0206487
0.02075
0.0208407
0.0209756
0.0211864
0.0214799
0.0218359
0.0222141
0.0225689
0.0228627
0.0230672
0.0231532
0.0230775
0.0227724
0.0221719
0.0213049
0.0201539
0.0186974
0.0169766
0.0150995
0.0130789
0.0110837
0.00926358
0.00756557
0.00597509
0.00453778
0.00325884
0.00218167
0.00135169
0.000764777
0.00038065
0.000164273
9.56133e-05
0.000104833
0.00922831
0.0105181
0.0133404
0.0166187
0.0187169
0.0197873
0.0201813
0.0204012
0.00848658
0.00794841
0.00756312
0.00728824
0.00709297
0.00695583
0.00686041
0.00679432
0.00674839
0.00671666
0.00669961
0.00668869
0.00667572
0.00667318
0.0066702
0.00666987
0.00667028
0.0066715
0.00667318
0.00667538
0.00667781
0.00668049
0.00668335
0.00668644
0.00668979
0.0066934
0.00669727
0.00670148
0.00670593
0.0204348
0.0204347
0.0204775
0.0206042
0.0208343
0.0211606
0.0215501
0.0219563
0.0223355
0.0226564
0.0228956
0.0230246
0.0229988
0.0227491
0.0222041
0.0213881
0.0202618
0.018821
0.0171297
0.0152655
0.0132378
0.0112215
0.00937924
0.00766176
0.0060543
0.00460026
0.00330774
0.00221574
0.0013708
0.000771668
0.00038047
0.000163115
9.62457e-05
0.000105514
0.00904273
0.0102085
0.012813
0.0161856
0.01844
0.019601
0.0200553
0.0200787
0.0201049
0.00835512
0.00785197
0.00749436
0.00723958
0.00705992
0.006934
0.00684614
0.00678516
0.00674213
0.00671352
0.00669827
0.006686
0.00667576
0.0066725
0.00667035
0.00666975
0.0066703
0.0066715
0.00667318
0.00667538
0.00667775
0.00668036
0.00668324
0.00668633
0.0066897
0.00669333
0.00669721
0.00670145
0.00670591
0.0200369
0.0199833
0.0200133
0.0201588
0.0204271
0.0207961
0.021223
0.0216592
0.0220667
0.0224211
0.0227016
0.0228782
0.0229042
0.022709
0.0222176
0.021441
0.0203469
0.0189476
0.0172894
0.0154414
0.0134086
0.0113714
0.0095058
0.00776721
0.00614129
0.00466872
0.00336127
0.00225309
0.00139191
0.000779121
0.000380322
0.000161965
9.70521e-05
0.000106295
0.00886387
0.00992223
0.0122803
0.0157046
0.0181317
0.0193859
0.0198799
0.0199352
0.0197249
0.0196341
0.00822701
0.00775867
0.00742855
0.0071944
0.00702986
0.00691414
0.0068332
0.00677697
0.00673648
0.00671068
0.00669715
0.00668351
0.00667589
0.00667193
0.00667049
0.00666969
0.00667029
0.00667151
0.00667318
0.00667531
0.00667763
0.00668023
0.00668313
0.00668623
0.00668961
0.00669326
0.00669715
0.00670143
0.00670589
0.0195023
0.0194289
0.0194737
0.0196596
0.0199775
0.0203936
0.0208585
0.0213266
0.0217677
0.0221631
0.0224917
0.0227201
0.0227988
0.022657
0.0222149
0.0214806
0.0204311
0.0190765
0.0174549
0.0156267
0.0135917
0.0115341
0.00964417
0.00788285
0.00623688
0.00474382
0.00341988
0.00229413
0.00141495
0.00078759
0.000380063
0.000160393