/*--------------------------------*- C++ -*----------------------------------*\
  =========                 |
  \\      /  F ield         | OpenFOAM: The Open Source CFD Toolbox
   \\    /   O peration     | Website:  https://openfoam.org
    \\  /    A nd           | Version:  8
     \\/     M anipulation  |
\*---------------------------------------------------------------------------*/
FoamFile
{
    version     2.0;
    format      ascii;
    class       volVectorField;
    location    "200";
    object      U;
}
// * * * * * * * * * * * * * * * * * * * * * * * * * * * * * * * * * * * * * //

dimensions      [0 1 -1 0 0 0 0];

internalField   nonuniform List<vector> 
15677
(
(-2.53765 9.06507 0)
(0.79133 10.3666 0)
(0.128835 10.0153 0)
(0.00640761 10.0051 0)
(0.0282718 10.0104 0)
(0.0300709 10.0104 0)
(0.0275106 10.0096 0)
(0.0251556 10.0086 0)
(0.0229562 10.0075 0)
(0.0206786 10.0065 0)
(0.0183379 10.0054 0)
(0.0159947 10.0044 0)
(0.0137015 10.0036 0)
(0.0115215 10.0028 0)
(0.00966861 10.0022 0)
(0.00817857 10.0017 0)
(0.00694829 10.0014 0)
(0.00592407 10.0011 0)
(0.00506513 10.0009 0)
(0.00434087 10.0007 0)
(0.00372843 10.0006 0)
(0.00322724 10.0005 0)
(0.00283027 10.0004 0)
(0.00251411 10.0003 0)
(0.00225883 10.0003 0)
(0.00205 10.0003 0)
(0.00187725 10.0002 0)
(0.00173297 10.0002 0)
(0.0016115 10.0002 0)
(0.00150848 10.0002 0)
(0.00142056 10.0002 0)
(0.00134512 10.0002 0)
(0.00128005 10.0001 0)
(0.00122355 10.0001 0)
(0.00117468 10.0001 0)
(-1.3322 8.26624 0)
(0.665865 10.1116 0)
(-0.0358557 10.0874 0)
(0.0130857 10.0516 0)
(0.0455171 10.0448 0)
(0.0398385 10.0407 0)
(0.0369672 10.0374 0)
(0.0352772 10.0344 0)
(0.0333868 10.0313 0)
(0.0312514 10.0282 0)
(0.0289452 10.025 0)
(0.0264891 10.0217 0)
(0.0239112 10.0184 0)
(0.0212485 10.0153 0)
(0.0187827 10.0127 0)
(0.0166252 10.0107 0)
(0.0146922 10.009 0)
(0.0129605 10.0077 0)
(0.0114093 10.0066 0)
(0.0100201 10.0056 0)
(0.0087776 10.0049 0)
(0.00771499 10.0042 0)
(0.00684702 10.0038 0)
(0.0061386 10.0034 0)
(0.00555571 10.0031 0)
(0.00507233 10.0028 0)
(0.00466859 10.0026 0)
(0.00432914 10.0024 0)
(0.00404196 10.0023 0)
(0.00379762 10.0022 0)
(0.00358864 10.0021 0)
(0.00340904 10.002 0)
(0.00325401 10.0019 0)
(0.00311932 10.0018 0)
(0.00300196 10.0018 0)
(-0.415285 7.73525 0)
(0.294355 9.67998 0)
(-0.0468426 10.0467 0)
(0.0452038 10.0706 0)
(0.0439805 10.0629 0)
(0.0376833 10.0571 0)
(0.036888 10.053 0)
(0.0358353 10.0494 0)
(0.0343706 10.0461 0)
(0.0327079 10.0427 0)
(0.0308442 10.0391 0)
(0.028749 10.0354 0)
(0.0264212 10.0314 0)
(0.0238891 10.0274 0)
(0.0214413 10.0238 0)
(0.0192257 10.0208 0)
(0.017178 10.0183 0)
(0.0152917 10.0161 0)
(0.0135592 10.0142 0)
(0.0119729 10.0125 0)
(0.0105263 10.0111 0)
(0.00926689 10.0099 0)
(0.00822111 10.0089 0)
(0.00735503 10.0081 0)
(0.0066339 10.0074 0)
(0.00603023 10.0069 0)
(0.00552223 10.0064 0)
(0.0050926 10.006 0)
(0.00472751 10.0057 0)
(0.00441584 10.0054 0)
(0.00414865 10.0052 0)
(0.00391872 10.005 0)
(0.00372019 10.0048 0)
(0.00354756 10.0046 0)
(0.00339489 10.0045 0)
(-0.0848077 7.35121 0)
(0.0985337 9.29124 0)
(-0.00442397 9.93989 0)
(0.050817 10.0622 0)
(0.0384168 10.071 0)
(0.0372098 10.0679 0)
(0.0369339 10.0641 0)
(0.0357415 10.0605 0)
(0.0343475 10.0571 0)
(0.0328018 10.0537 0)
(0.031039 10.0501 0)
(0.0290225 10.0463 0)
(0.0267296 10.0421 0)
(0.0241598 10.0377 0)
(0.0216089 10.0336 0)
(0.019266 10.0301 0)
(0.0170741 10.0269 0)
(0.0150358 10.0241 0)
(0.0131505 10.0216 0)
(0.0114161 10.0194 0)
(0.00982982 10.0173 0)
(0.00844962 10.0156 0)
(0.00730875 10.0141 0)
(0.00637016 10.0129 0)
(0.0055949 10.0119 0)
(0.00495188 10.0111 0)
(0.00441627 10.0103 0)
(0.00396821 10.0097 0)
(0.00359178 10.0092 0)
(0.00327414 10.0087 0)
(0.00300498 10.0083 0)
(0.00277603 10.0079 0)
(0.0025807 10.0076 0)
(0.00241282 10.0074 0)
(0.00226232 10.0071 0)
(-0.00295189 7.07983 0)
(0.0303559 8.97523 0)
(0.0200289 9.80179 0)
(0.0421531 10.0337 0)
(0.0347094 10.0729 0)
(0.0357786 10.0768 0)
(0.0350686 10.0746 0)
(0.0338446 10.0714 0)
(0.0324942 10.068 0)
(0.0309446 10.0646 0)
(0.0291605 10.0609 0)
(0.0271185 10.057 0)
(0.0247904 10.0527 0)
(0.0221572 10.048 0)
(0.0195027 10.0434 0)
(0.0170341 10.0393 0)
(0.0147045 10.0356 0)
(0.0125276 10.0322 0)
(0.0105113 10.0291 0)
(0.00865996 10.0262 0)
(0.00697574 10.0236 0)
(0.00552423 10.0213 0)
(0.00434039 10.0193 0)
(0.00338188 10.0176 0)
(0.0026044 10.0162 0)
(0.00197229 10.015 0)
(0.00145702 10.014 0)
(0.00103573 10.0131 0)
(0.000690209 10.0123 0)
(0.000405849 10.0116 0)
(0.000170991 10.011 0)
(-2.35859e-05 10.0105 0)
(-0.000184986 10.0101 0)
(-0.000319743 10.0097 0)
(-0.00044381 10.0094 0)
(0.00796765 6.89124 0)
(0.0126296 8.71899 0)
(0.0253532 9.65214 0)
(0.0339623 9.99146 0)
(0.0323807 10.0683 0)
(0.033263 10.0828 0)
(0.0323268 10.0839 0)
(0.0311341 10.0817 0)
(0.0297064 10.0787 0)
(0.0280178 10.0753 0)
(0.0260672 10.0717 0)
(0.0238351 10.0677 0)
(0.0212938 10.0633 0)
(0.0184225 10.0584 0)
(0.0155212 10.0534 0)
(0.0128169 10.0489 0)
(0.0102647 10.0445 0)
(0.00788593 10.0405 0)
(0.00569524 10.0367 0)
(0.00370247 10.0332 0)
(0.0019141 10.0299 0)
(0.000401184 10.0269 0)
(-0.000804732 10.0243 0)
(-0.00175479 10.0221 0)
(-0.0025012 10.0202 0)
(-0.00308609 10.0186 0)
(-0.00354322 10.0171 0)
(-0.00389949 10.0159 0)
(-0.0041763 10.0148 0)
(-0.00439061 10.0139 0)
(-0.00455588 10.0131 0)
(-0.00468258 10.0124 0)
(-0.00477844 10.0118 0)
(-0.0048501 10.0112 0)
(-0.00492176 10.0107 0)
(0.00558125 6.7582 0)
(0.00877614 8.5144 0)
(0.0229537 9.50663 0)
(0.0286503 9.94039 0)
(0.0299952 10.0587 0)
(0.0303058 10.0868 0)
(0.0293692 10.0927 0)
(0.0280817 10.0923 0)
(0.0264267 10.0899 0)
(0.0244497 10.0867 0)
(0.022161 10.0831 0)
(0.0195437 10.0791 0)
(0.0165745 10.0746 0)
(0.0132377 10.0694 0)
(0.00988091 10.064 0)
(0.00676363 10.0589 0)
(0.00383649 10.0539 0)
(0.00112733 10.0492 0)
(-0.00134252 10.0446 0)
(-0.0035575 10.0403 0)
(-0.00550664 10.0361 0)
(-0.00711195 10.0323 0)
(-0.0083486 10.029 0)
(-0.00928242 10.0261 0)
(-0.00997843 10.0236 0)
(-0.010489 10.0215 0)
(-0.010856 10.0196 0)
(-0.0111126 10.0179 0)
(-0.0112847 10.0165 0)
(-0.0113929 10.0152 0)
(-0.0114532 10.0141 0)
(-0.011478 10.0132 0)
(-0.0114758 10.0123 0)
(-0.0114531 10.0116 0)
(-0.0114457 10.0109 0)
(0.00298485 6.66209 0)
(0.00734235 8.35574 0)
(0.0189104 9.37265 0)
(0.0247807 9.8856 0)
(0.0270985 10.0469 0)
(0.0270727 10.0905 0)
(0.0260811 10.1021 0)
(0.0245363 10.104 0)
(0.0225169 10.1026 0)
(0.0200971 10.0997 0)
(0.0172904 10.0962 0)
(0.0140854 10.092 0)
(0.0104651 10.0873 0)
(0.00642219 10.0817 0)
(0.00238105 10.0758 0)
(-0.00135006 10.07 0)
(-0.00483023 10.0643 0)
(-0.00802429 10.0586 0)
(-0.0109033 10.0531 0)
(-0.0134448 10.0478 0)
(-0.0156325 10.0426 0)
(-0.0173785 10.0377 0)
(-0.0186678 10.0335 0)
(-0.0195873 10.0298 0)
(-0.0202203 10.0265 0)
(-0.0206339 10.0237 0)
(-0.020881 10.0212 0)
(-0.0210037 10.019 0)
(-0.0210346 10.0171 0)
(-0.0209992 10.0154 0)
(-0.0209172 10.014 0)
(-0.0208034 10.0127 0)
(-0.0206677 10.0115 0)
(-0.0205163 10.0105 0)
(-0.020401 10.0096 0)
(0.00161123 6.59271 0)
(0.00599118 8.23475 0)
(0.0150673 9.25517 0)
(0.0212552 9.8306 0)
(0.0237253 10.0349 0)
(0.0235048 10.0951 0)
(0.0222795 10.1132 0)
(0.0203243 10.1178 0)
(0.0177904 10.1175 0)
(0.0147537 10.1151 0)
(0.0112301 10.1116 0)
(0.00721321 10.1072 0)
(0.00269152 10.1021 0)
(-0.00233146 10.096 0)
(-0.00732135 10.0894 0)
(-0.0119011 10.0828 0)
(-0.0161445 10.076 0)
(-0.0200077 10.0693 0)
(-0.0234526 10.0626 0)
(-0.0264486 10.056 0)
(-0.0289722 10.0494 0)
(-0.0309223 10.0433 0)
(-0.0322963 10.0378 0)
(-0.0332093 10.033 0)
(-0.0337692 10.0288 0)
(-0.0340628 10.0251 0)
(-0.0341583 10.0218 0)
(-0.0341095 10.019 0)
(-0.0339582 10.0165 0)
(-0.0337365 10.0142 0)
(-0.0334691 10.0123 0)
(-0.0331745 10.0106 0)
(-0.0328641 10.0091 0)
(-0.0325437 10.0077 0)
(-0.0322874 10.0065 0)
(0.000879632 6.54282 0)
(0.0045243 8.14423 0)
(0.0116207 9.15822 0)
(0.0175908 9.77886 0)
(0.0199144 10.0241 0)
(0.0194488 10.1017 0)
(0.0177934 10.1267 0)
(0.0152666 10.1344 0)
(0.0120419 10.1353 0)
(0.00818803 10.1334 0)
(0.00372182 10.1299 0)
(-0.00136181 10.1254 0)
(-0.00707014 10.1197 0)
(-0.0133873 10.1129 0)
(-0.0196329 10.1053 0)
(-0.0253371 10.0976 0)
(-0.0305933 10.0897 0)
(-0.0353466 10.0815 0)
(-0.0395475 10.0733 0)
(-0.043155 10.0651 0)
(-0.0461364 10.0569 0)
(-0.0483721 10.0491 0)
(-0.0498742 10.0421 0)
(-0.0507948 10.0359 0)
(-0.0512739 10.0305 0)
(-0.0514236 10.0257 0)
(-0.0513326 10.0214 0)
(-0.0510702 10.0177 0)
(-0.0506899 10.0144 0)
(-0.0502329 10.0115 0)
(-0.0497305 10.0089 0)
(-0.0492059 10.0067 0)
(-0.048673 10.0047 0)
(-0.0481364 10.0029 0)
(-0.0477013 10.0013 0)
(0.000303935 6.5114 0)
(0.00295904 8.0786 0)
(0.00836894 9.08194 0)
(0.0136475 9.73336 0)
(0.0156346 10.0164 0)
(0.0147481 10.1115 0)
(0.012468 10.1437 0)
(0.00918361 10.1545 0)
(0.00505996 10.1569 0)
(0.000157126 10.1555 0)
(-0.00551215 10.152 0)
(-0.0119556 10.1471 0)
(-0.0191784 10.1408 0)
(-0.0271517 10.133 0)
(-0.0350087 10.1243 0)
(-0.0421593 10.1152 0)
(-0.048722 10.1057 0)
(-0.0546276 10.0958 0)
(-0.0598121 10.0857 0)
(-0.0642214 10.0755 0)
(-0.0678108 10.0652 0)
(-0.0704351 10.0553 0)
(-0.0721239 10.0465 0)
(-0.0730753 10.0386 0)
(-0.0734703 10.0316 0)
(-0.0734536 10.0253 0)
(-0.0731396 10.0199 0)
(-0.0726177 10.015 0)
(-0.0719568 10.0107 0)
(-0.0712094 10.0069 0)
(-0.0704157 10.0036 0)
(-0.0696051 10.0007 0)
(-0.0687944 9.99805 0)
(-0.0679872 9.99574 0)
(-0.0673301 9.99369 0)
(-0.000217383 6.49703 0)
(0.00136869 8.03426 0)
(0.00519957 9.02578 0)
(0.00942023 9.69689 0)
(0.0108349 10.0134 0)
(0.0093062 10.1257 0)
(0.00619726 10.1651 0)
(0.0019347 10.1791 0)
(-0.00333277 10.1829 0)
(-0.00955579 10.182 0)
(-0.0167313 10.1784 0)
(-0.0248745 10.1731 0)
(-0.0339912 10.166 0)
(-0.0440393 10.1571 0)
(-0.0539199 10.1468 0)
(-0.0628918 10.1361 0)
(-0.0711054 10.1246 0)
(-0.0784732 10.1126 0)
(-0.0849131 10.1002 0)
(-0.0903541 10.0875 0)
(-0.0947362 10.0746 0)
(-0.0978799 10.0622 0)
(-0.0998334 10.051 0)
(-0.100852 10.0409 0)
(-0.101167 10.032 0)
(-0.100964 10.0241 0)
(-0.100391 10.017 0)
(-0.0995612 10.0108 0)
(-0.0985635 10.0053 0)
(-0.0974653 10.0004 0)
(-0.0963179 9.99608 0)
(-0.0951586 9.99227 0)
(-0.0940081 9.98889 0)
(-0.0928686 9.9859 0)
(-0.0919421 9.98325 0)
(-0.000670404 6.49677 0)
(-0.000202855 8.01015 0)
(0.00199084 8.98916 0)
(0.00486378 9.67156 0)
(0.0054232 10.0165 0)
(0.00301626 10.1454 0)
(-0.00114757 10.1918 0)
(-0.0066378 10.2089 0)
(-0.013323 10.2141 0)
(-0.0211708 10.2137 0)
(-0.0301946 10.21 0)
(-0.0404212 10.204 0)
(-0.051861 10.196 0)
(-0.0644593 10.1856 0)
(-0.0768345 10.1736 0)
(-0.088059 10.1608 0)
(-0.0983226 10.147 0)
(-0.107515 10.1325 0)
(-0.115533 10.1173 0)
(-0.122282 10.1016 0)
(-0.127683 10.0855 0)
(-0.131511 10.07 0)
(-0.133833 10.0559 0)
(-0.134973 10.0432 0)
(-0.135225 10.0319 0)
(-0.134824 10.0218 0)
(-0.133959 10.0129 0)
(-0.132774 10.0049 0)
(-0.131382 9.99787 0)
(-0.129869 9.99164 0)
(-0.128301 9.98612 0)
(-0.126725 9.98124 0)
(-0.125166 9.97691 0)
(-0.123626 9.97307 0)
(-0.122378 9.96967 0)
(-0.00112223 6.50828 0)
(-0.00183075 8.0053 0)
(-0.00136586 8.97171 0)
(-7.91497e-05 9.65914 0)
(-0.000674273 10.0274 0)
(-0.00421556 10.1716 0)
(-0.0096873 10.2248 0)
(-0.0166781 10.2449 0)
(-0.025082 10.2514 0)
(-0.0348901 10.2513 0)
(-0.0461391 10.2474 0)
(-0.0588743 10.2407 0)
(-0.0731141 10.2315 0)
(-0.0887938 10.2194 0)
(-0.104193 10.2052 0)
(-0.118159 10.19 0)
(-0.130929 10.1735 0)
(-0.142367 10.1558 0)
(-0.152338 10.1373 0)
(-0.160724 10.118 0)
(-0.16742 10.0982 0)
(-0.17214 10.079 0)
(-0.174969 10.0614 0)
(-0.176312 10.0455 0)
(-0.176537 10.0313 0)
(-0.175941 10.0186 0)
(-0.174759 10.0073 0)
(-0.173176 9.99732 0)
(-0.171334 9.98842 0)
(-0.169342 9.98052 0)
(-0.167283 9.97353 0)
(-0.165218 9.96732 0)
(-0.163179 9.96182 0)
(-0.161164 9.95695 0)
(-0.159543 9.95263 0)
(-0.00165524 6.53216 0)
(-0.00362272 8.01834 0)
(-0.00495999 8.97276 0)
(-0.00547327 9.66059 0)
(-0.00752511 10.0472 0)
(-0.0124754 10.2053 0)
(-0.0195253 10.2648 0)
(-0.0283067 10.2877 0)
(-0.0387497 10.2954 0)
(-0.0508796 10.2955 0)
(-0.0647612 10.2913 0)
(-0.080465 10.2838 0)
(-0.0980259 10.2731 0)
(-0.11737 10.259 0)
(-0.13638 10.2423 0)
(-0.153634 10.2242 0)
(-0.169428 10.2045 0)
(-0.183592 10.1833 0)
(-0.195958 10.1608 0)
(-0.206372 10.1374 0)
(-0.214697 10.1132 0)
(-0.220571 10.0895 0)
(-0.224088 10.0677 0)
(-0.22575 10.0481 0)
(-0.226011 10.0304 0)
(-0.225241 10.0146 0)
(-0.223734 10.0005 0)
(-0.221721 9.98797 0)
(-0.21938 9.97682 0)
(-0.216849 9.96692 0)
(-0.214233 9.95813 0)
(-0.211608 9.95033 0)
(-0.209013 9.94341 0)
(-0.206447 9.93728 0)
(-0.204401 9.93183 0)
(-0.00227212 6.56883 0)
(-0.00561915 8.04794 0)
(-0.00883135 8.99164 0)
(-0.0113577 9.6768 0)
(-0.0151649 10.0771 0)
(-0.0218092 10.2473 0)
(-0.0307208 10.3126 0)
(-0.041596 10.338 0)
(-0.0544163 10.3467 0)
(-0.0692489 10.347 0)
(-0.0861959 10.3423 0)
(-0.10536 10.3337 0)
(-0.126798 10.3215 0)
(-0.150437 10.3051 0)
(-0.173703 10.2855 0)
(-0.194852 10.2642 0)
(-0.21425 10.2407 0)
(-0.231684 10.2154 0)
(-0.246947 10.1885 0)
(-0.259847 10.1601 0)
(-0.270202 10.1307 0)
(-0.277551 10.1019 0)
(-0.281992 10.0752 0)
(-0.284133 10.0511 0)
(-0.28453 10.0294 0)
(-0.283639 10.0099 0)
(-0.281822 9.99247 0)
(-0.279364 9.97693 0)
(-0.276489 9.9631 0)
(-0.273369 9.95079 0)
(-0.270133 9.93985 0)
(-0.26688 9.93014 0)
(-0.263656 9.92151 0)
(-0.260464 9.91384 0)
(-0.257944 9.90705 0)
(-0.00296606 6.61854 0)
(-0.00781611 8.09361 0)
(-0.0130063 9.02754 0)
(-0.0177364 9.70793 0)
(-0.0235901 10.1179 0)
(-0.0322128 10.2984 0)
(-0.043275 10.3688 0)
(-0.0565566 10.3964 0)
(-0.0721044 10.4058 0)
(-0.0900367 10.4062 0)
(-0.110501 10.4008 0)
(-0.133641 10.3911 0)
(-0.159551 10.3771 0)
(-0.188161 10.3582 0)
(-0.216365 10.3353 0)
(-0.242061 10.3103 0)
(-0.265697 10.2827 0)
(-0.287013 10.2528 0)
(-0.30575 10.2207 0)
(-0.321667 10.1868 0)
(-0.334532 10.1515 0)
(-0.343755 10.1166 0)
(-0.349423 10.0844 0)
(-0.352262 10.0551 0)
(-0.352947 10.0286 0)
(-0.352027 10.0047 0)
(-0.349948 9.98341 0)
(-0.347059 9.96434 0)
(-0.343635 9.94733 0)
(-0.339889 9.93217 0)
(-0.335985 9.91868 0)
(-0.332045 9.90668 0)
(-0.328126 9.89601 0)
(-0.324235 9.88653 0)
(-0.321203 9.87813 0)
(-0.00372473 6.68117 0)
(-0.0101915 8.15449 0)
(-0.0174828 9.07994 0)
(-0.0246013 9.75419 0)
(-0.0327746 10.1703 0)
(-0.0436581 10.359 0)
(-0.0571562 10.4337 0)
(-0.073159 10.4631 0)
(-0.0917876 10.4732 0)
(-0.113219 10.4734 0)
(-0.13766 10.4674 0)
(-0.165309 10.4564 0)
(-0.196295 10.4405 0)
(-0.230568 10.4187 0)
(-0.26444 10.3923 0)
(-0.295388 10.3633 0)
(-0.323956 10.3311 0)
(-0.34983 10.2959 0)
(-0.372692 10.2581 0)
(-0.392243 10.218 0)
(-0.408186 10.176 0)
(-0.419769 10.1343 0)
(-0.427048 10.0957 0)
(-0.430877 10.0604 0)
(-0.432059 10.0284 0)
(-0.431258 9.99954 0)
(-0.429009 9.97364 0)
(-0.425738 9.95045 0)
(-0.421782 9.92972 0)
(-0.417402 9.91121 0)
(-0.412802 9.89472 0)
(-0.408134 9.88003 0)
(-0.403466 9.86695 0)
(-0.398817 9.85532 0)
(-0.39525 9.84501 0)
(-0.00453496 6.7563 0)
(-0.0127339 8.23007 0)
(-0.0222507 9.14799 0)
(-0.0319233 9.81526 0)
(-0.0426613 10.2345 0)
(-0.0560733 10.4294 0)
(-0.0722865 10.5076 0)
(-0.0913162 10.5386 0)
(-0.113367 10.5491 0)
(-0.138697 10.5491 0)
(-0.167575 10.5423 0)
(-0.200254 10.5299 0)
(-0.236925 10.5119 0)
(-0.27758 10.4871 0)
(-0.317879 10.4569 0)
(-0.354823 10.4235 0)
(-0.389066 10.3863 0)
(-0.420236 10.3454 0)
(-0.447946 10.3013 0)
(-0.471829 10.2544 0)
(-0.491511 10.2049 0)
(-0.506038 10.1556 0)
(-0.515402 10.1096 0)
(-0.520596 10.0676 0)
(-0.522564 10.0293 0)
(-0.522095 9.99473 0)
(-0.519826 9.96359 0)
(-0.516274 9.93563 0)
(-0.511845 9.91059 0)
(-0.506859 9.8882 0)
(-0.501566 9.8682 0)
(-0.496153 9.85037 0)
(-0.490703 9.83448 0)
(-0.485252 9.82033 0)
(-0.48115 9.80779 0)
(-0.00538731 6.84348 0)
(-0.0154229 8.31955 0)
(-0.0272928 9.23101 0)
(-0.0396596 9.8907 0)
(-0.0531722 10.3104 0)
(-0.0693556 10.5097 0)
(-0.0885413 10.5907 0)
(-0.110888 10.6228 0)
(-0.136699 10.6336 0)
(-0.166302 10.6333 0)
(-0.200048 10.6256 0)
(-0.238271 10.6117 0)
(-0.281239 10.5915 0)
(-0.328995 10.5636 0)
(-0.376488 10.5294 0)
(-0.420196 10.4914 0)
(-0.460898 10.4488 0)
(-0.498156 10.4019 0)
(-0.531508 10.3509 0)
(-0.560506 10.2964 0)
(-0.584687 10.2388 0)
(-0.602848 10.181 0)
(-0.614877 10.127 0)
(-0.621908 10.0773 0)
(-0.62504 10.032 0)
(-0.625196 9.99093 0)
(-0.623133 9.95382 0)
(-0.619463 9.92042 0)
(-0.614676 9.89043 0)
(-0.609158 9.86356 0)
(-0.603215 9.83952 0)
(-0.597075 9.81805 0)
(-0.590838 9.79889 0)
(-0.584568 9.78182 0)
(-0.579964 9.76668 0)
(-0.00626551 6.94199 0)
(-0.0182442 8.42218 0)
(-0.0325609 9.32798 0)
(-0.0477514 9.97969 0)
(-0.0642024 10.3978 0)
(-0.0833803 10.5998 0)
(-0.105775 10.6827 0)
(-0.131703 10.7156 0)
(-0.161565 10.7266 0)
(-0.19579 10.7258 0)
(-0.234818 10.7173 0)
(-0.279077 10.7019 0)
(-0.328925 10.6795 0)
(-0.384476 10.6484 0)
(-0.439928 10.61 0)
(-0.491177 10.5672 0)
(-0.539151 10.519 0)
(-0.583335 10.4656 0)
(-0.623188 10.4075 0)
(-0.65817 10.3449 0)
(-0.687713 10.2784 0)
(-0.71031 10.2115 0)
(-0.7257 10.1485 0)
(-0.735153 10.0905 0)
(-0.739932 10.0373 0)
(-0.741106 9.98887 0)
(-0.739559 9.94504 0)
(-0.736013 9.90547 0)
(-0.731051 9.86987 0)
(-0.725136 9.83789 0)
(-0.718639 9.80923 0)
(-0.711838 9.78359 0)
(-0.704847 9.76067 0)
(-0.697778 9.74024 0)
(-0.692744 9.72209 0)
(-0.00715173 7.05093 0)
(-0.021156 8.53695 0)
(-0.0379972 9.43776 0)
(-0.0560997 10.0814 0)
(-0.0756364 10.4962 0)
(-0.0979848 10.6993 0)
(-0.123788 10.7834 0)
(-0.153526 10.8168 0)
(-0.187706 10.8278 0)
(-0.226871 10.8266 0)
(-0.271557 10.8171 0)
(-0.322295 10.8004 0)
(-0.379561 10.7757 0)
(-0.443569 10.7414 0)
(-0.50772 10.6988 0)
(-0.567285 10.6511 0)
(-0.623355 10.5972 0)
(-0.675339 10.5372 0)
(-0.722605 10.4714 0)
(-0.764518 10.4004 0)
(-0.800388 10.3244 0)
(-0.828345 10.2476 0)
(-0.847915 10.175 0)
(-0.860498 10.1078 0)
(-0.867525 10.0459 0)
(-0.870217 9.98944 0)
(-0.869599 9.93811 0)
(-0.866512 9.89164 0)
(-0.861642 9.84971 0)
(-0.85554 9.81196 0)
(-0.848652 9.77807 0)
(-0.841315 9.74768 0)
(-0.833655 9.72049 0)
(-0.825854 9.69622 0)
(-0.820516 9.67464 0)
(-0.00803705 7.16927 0)
(-0.024122 8.6627 0)
(-0.043557 9.5592 0)
(-0.0646136 10.1946 0)
(-0.0873467 10.6049 0)
(-0.112997 10.8077 0)
(-0.142369 10.8924 0)
(-0.176107 10.926 0)
(-0.214832 10.9368 0)
(-0.259201 10.9352 0)
(-0.309865 10.9249 0)
(-0.367472 10.9067 0)
(-0.432638 10.88 0)
(-0.505711 10.8425 0)
(-0.579262 10.7959 0)
(-0.647895 10.7433 0)
(-0.712882 10.6836 0)
(-0.773554 10.6168 0)
(-0.829192 10.5433 0)
(-0.879051 10.4634 0)
(-0.922307 10.3776 0)
(-0.956664 10.2903 0)
(-0.981359 10.2074 0)
(-0.997909 10.1302 0)
(-1.00791 10.059 0)
(-1.01275 9.99362 0)
(-1.01359 9.93402 0)
(-1.0114 9.8799 0)
(-1.00699 9.83093 0)
(-1.001 9.78674 0)
(-0.993965 9.74697 0)
(-0.986286 9.71125 0)
(-0.978105 9.67924 0)
(-0.969696 9.65061 0)
(-0.964245 9.62512 0)
(-0.0089089 7.29587 0)
(-0.0271013 8.79813 0)
(-0.0491644 9.69102 0)
(-0.0732018 10.318 0)
(-0.0991813 10.7227 0)
(-0.128229 10.9242 0)
(-0.161291 11.0089 0)
(-0.199172 11.0425 0)
(-0.242617 11.0532 0)
(-0.2924 11.0512 0)
(-0.349296 11.04 0)
(-0.414099 11.0206 0)
(-0.487577 10.9919 0)
(-0.570253 10.9515 0)
(-0.653846 10.901 0)
(-0.732256 10.8437 0)
(-0.806954 10.7783 0)
(-0.877207 10.7048 0)
(-0.942201 10.6235 0)
(-1.00108 10.5346 0)
(-1.05287 10.4385 0)
(-1.09478 10.3404 0)
(-1.12567 10.2466 0)
(-1.14716 10.1588 0)
(-1.16101 10.0775 0)
(-1.16874 10.0025 0)
(-1.17169 9.93391 0)
(-1.17097 9.87141 0)
(-1.16749 9.81467 0)
(-1.16201 9.76335 0)
(-1.15517 9.71705 0)
(-1.14743 9.67539 0)
(-1.13895 9.63797 0)
(-1.13013 9.60447 0)
(-1.12483 9.57459 0)
(-0.00975779 7.42945 0)
(-0.0300625 8.94189 0)
(-0.0547494 9.8318 0)
(-0.0817655 10.4505 0)
(-0.111002 10.8488 0)
(-0.143497 11.048 0)
(-0.180319 11.1321 0)
(-0.222437 11.1657 0)
(-0.270719 11.1761 0)
(-0.326062 11.1737 0)
(-0.389384 11.1619 0)
(-0.461631 11.1414 0)
(-0.543753 11.111 0)
(-0.636481 11.068 0)
(-0.730681 11.0138 0)
(-0.819513 10.9521 0)
(-0.904677 10.8813 0)
(-0.985386 10.8013 0)
(-1.06072 10.7122 0)
(-1.12972 10.6143 0)
(-1.19126 10.5079 0)
(-1.24198 10.3985 0)
(-1.28027 10.2935 0)
(-1.30781 10.1946 0)
(-1.32649 10.1025 0)
(-1.33803 10.0173 0)
(-1.34388 9.93903 0)
(-1.34531 9.86743 0)
(-1.34336 9.80224 0)
(-1.33891 9.74311 0)
(-1.3327 9.68964 0)
(-1.32528 9.64141 0)
(-1.31681 9.59802 0)
(-1.30785 9.55909 0)
(-1.30305 9.5243 0)
(-0.0105699 7.56875 0)
(-0.0329667 9.09254 0)
(-0.0602395 9.98002 0)
(-0.0901964 10.5905 0)
(-0.122667 10.9818 0)
(-0.158613 11.178 0)
(-0.199221 11.2613 0)
(-0.245619 11.2946 0)
(-0.298794 11.3048 0)
(-0.359782 11.3021 0)
(-0.429648 11.2898 0)
(-0.509504 11.2684 0)
(-0.600509 11.2366 0)
(-0.703645 11.1913 0)
(-0.808921 11.134 0)
(-0.908735 11.0682 0)
(-1.00507 10.9923 0)
(-1.09706 10.9061 0)
(-1.18372 10.8097 0)
(-1.26397 10.703 0)
(-1.33653 10.5863 0)
(-1.3974 10.4656 0)
(-1.44439 10.349 0)
(-1.47921 10.2387 0)
(-1.50388 10.1353 0)
(-1.52025 10.0393 0)
(-1.52994 9.95069 0)
(-1.53435 9.86935 0)
(-1.53466 9.79505 0)
(-1.53188 9.72746 0)
(-1.52687 9.66618 0)
(-1.52024 9.61078 0)
(-1.51218 9.56083 0)
(-1.50345 9.51593 0)
(-1.4996 9.47571 0)
(-0.0113378 7.71241 0)
(-0.0357828 9.24864 0)
(-0.065578 10.1342 0)
(-0.098403 10.7366 0)
(-0.134049 11.1206 0)
(-0.173403 11.3133 0)
(-0.217774 11.3954 0)
(-0.268443 11.4283 0)
(-0.326512 11.4384 0)
(-0.393162 11.4356 0)
(-0.469613 11.4229 0)
(-0.557159 11.4009 0)
(-0.657192 11.368 0)
(-0.770981 11.3209 0)
(-0.887684 11.2608 0)
(-0.998959 11.1916 0)
(-1.10708 11.1112 0)
(-1.21113 11.0193 0)
(-1.31005 10.9159 0)
(-1.40266 10.8008 0)
(-1.48754 10.6742 0)
(-1.55997 10.5423 0)
(-1.61708 10.414 0)
(-1.66054 10.292 0)
(-1.69247 10.1771 0)
(-1.71485 10.0698 0)
(-1.72944 9.97028 0)
(-1.7378 9.87863 0)
(-1.74125 9.79464 0)
(-1.74091 9.71799 0)
(-1.73776 9.64831 0)
(-1.73254 9.58517 0)
(-1.7254 9.5281 0)
(-1.71736 9.47668 0)
(-1.715 9.4305 0)
(-0.0120475 7.85912 0)
(-0.0384733 9.4087 0)
(-0.0706988 10.2929 0)
(-0.106291 10.8874 0)
(-0.14502 11.2638 0)
(-0.187703 11.4526 0)
(-0.235772 11.5334 0)
(-0.290655 11.5659 0)
(-0.353564 11.5759 0)
(-0.425828 11.573 0)
(-0.50883 11.5603 0)
(-0.604059 11.538 0)
(-0.713166 11.5043 0)
(-0.83773 11.4559 0)
(-0.966095 11.3937 0)
(-1.08921 11.3216 0)
(-1.20963 11.2374 0)
(-1.32643 11.1405 0)
(-1.43849 11.0308 0)
(-1.54456 10.9079 0)
(-1.64307 10.7718 0)
(-1.72852 10.629 0)
(-1.79724 10.4893 0)
(-1.8508 10.3555 0)
(-1.8914 10.2288 0)
(-1.92113 10.1099 0)
(-1.94187 9.9992 0)
(-1.9553 9.89679 0)
(-1.9629 9.80258 0)
(-1.96592 9.71633 0)
(-1.96547 9.63771 0)
(-1.96238 9.56626 0)
(-1.9568 9.50154 0)
(-1.95005 9.44312 0)
(-1.94987 9.39049 0)
(-0.0127044 8.00765 0)
(-0.0410236 9.57143 0)
(-0.0755651 10.4548 0)
(-0.113796 11.0417 0)
(-0.155482 11.4104 0)
(-0.201376 11.595 0)
(-0.25304 11.6743 0)
(-0.312028 11.7064 0)
(-0.379668 11.7165 0)
(-0.457438 11.7137 0)
(-0.546883 11.7011 0)
(-0.649708 11.6787 0)
(-0.76783 11.6448 0)
(-0.903165 11.5956 0)
(-1.04332 11.532 0)
(-1.17854 11.4577 0)
(-1.31167 11.3704 0)
(-1.4418 11.2694 0)
(-1.56781 11.1542 0)
(-1.68837 11.0243 0)
(-1.80181 10.8794 0)
(-1.90179 10.7264 0)
(-1.9837 10.5756 0)
(-2.04894 10.4302 0)
(-2.09976 10.2918 0)
(-2.1383 10.1612 0)
(-2.16655 10.0389 0)
(-2.18635 9.92539 0)
(-2.19931 9.82057 0)
(-2.20681 9.7243 0)
(-2.2101 9.63629 0)
(-2.21009 9.55611 0)
(-2.20693 9.48329 0)
(-2.20225 9.41742 0)
(-2.20518 9.35789 0)
(-0.0132658 8.15663 0)
(-0.0433603 9.7352 0)
(-0.0800899 10.6181 0)
(-0.12082 11.1976 0)
(-0.165321 11.5587 0)
(-0.214287 11.7391 0)
(-0.269411 11.8169 0)
(-0.332359 11.8487 0)
(-0.404576 11.8588 0)
(-0.487687 11.8563 0)
(-0.583402 11.8441 0)
(-0.693656 11.822 0)
(-0.820632 11.7883 0)
(-0.96661 11.7389 0)
(-1.11857 11.6746 0)
(-1.26601 11.599 0)
(-1.41213 11.5094 0)
(-1.55608 11.4052 0)
(-1.69674 11.2855 0)
(-1.83276 11.1497 0)
(-1.9624 10.997 0)
(-2.07842 10.8345 0)
(-2.17515 10.6732 0)
(-2.25377 10.5167 0)
(-2.3165 10.3667 0)
(-2.36557 10.2244 0)
(-2.40308 10.0906 0)
(-2.43097 9.96594 0)
(-2.45093 9.85041 0)
(-2.46445 9.74396 0)
(-2.47289 9.64633 0)
(-2.47721 9.55711 0)
(-2.47753 9.47589 0)
(-2.47587 9.40224 0)
(-2.48293 9.33541 0)
(0.00111525 10.0001 0)
(0.00104258 10.0001 0)
(0.000972534 10.0001 0)
(0.000904513 10.0001 -5.78508e-19)
(0.000838627 10.0001 0)
(0.000774909 10.0001 0)
(0.000713367 10.0001 0)
(0.000653993 10.0001 0)
(0.000596771 10.0001 6.55542e-19)
(0.000541675 10.0001 0)
(0.000488684 10 0)
(0.000438095 10 -6.91556e-19)
(0.000390927 10 0)
(0.000347623 10 -6.75056e-19)
(0.000307752 10 0)
(0.000270908 10 0)
(0.000236721 10 0)
(0.000204872 10 6.29042e-19)
(0.000175082 10 0)
(0.000147115 10 3.0295e-19)
(0.000120744 10 0)
(9.56797e-05 10 0)
(0.00286254 10.0017 0)
(0.00268762 10.0016 0)
(0.00251845 10.0015 0)
(0.00235323 10.0014 6.10534e-19)
(0.00219191 10.0013 0)
(0.00203462 10.0013 0)
(0.00188145 10.0012 -1.31609e-18)
(0.00173244 10.0011 0)
(0.00158761 10.001 -2.07386e-18)
(0.00144691 10.001 1.41647e-18)
(0.0013103 10.0009 1.44652e-18)
(0.00117865 10.0009 7.29145e-19)
(0.00105516 10.0008 0)
(0.000941385 10.0008 7.11961e-19)
(0.000836198 10.0007 0)
(0.000738569 10.0007 0)
(0.000647582 10.0007 0)
(0.000562439 10.0006 -1.99125e-18)
(0.000482427 10.0006 0)
(0.000406934 10.0006 -3.1977e-19)
(0.000335595 10.0006 0)
(0.000268194 10.0006 -6.48177e-19)
(0.00322464 10.0043 0)
(0.00301741 10.0041 0)
(0.00281763 10.0039 0)
(0.00262379 10.0037 0)
(0.00243564 10.0035 0)
(0.00225339 10.0033 1.3484e-18)
(0.00207718 10.0031 1.38239e-18)
(0.00190707 10.0029 0)
(0.00174307 10.0027 1.45104e-18)
(0.00158513 10.0025 -1.48612e-18)
(0.00143313 10.0024 -1.51704e-18)
(0.00128791 10.0022 0)
(0.00115259 10.0021 0)
(0.00102843 10.002 0)
(0.000913953 10.0019 1.469e-18)
(0.000807866 10.0018 0)
(0.000709039 10.0017 0)
(0.000616483 10.0017 1.39466e-18)
(0.000529301 10.0016 0)
(0.000446692 10.0016 0)
(0.000368295 10.0015 0)
(0.000294962 10.0015 6.81573e-19)
(0.00211281 10.0068 0)
(0.00194585 10.0065 0)
(0.00178425 10.0061 0)
(0.00163098 10.0058 -1.34822e-18)
(0.00148562 10.0054 0)
(0.00134823 10.0051 1.41566e-18)
(0.0012189 10.0048 0)
(0.00109765 10.0045 0)
(0.000984404 10.0042 0)
(0.000879009 10.0039 0)
(0.000781193 10.0037 -3.17917e-18)
(0.000691238 10.0034 0)
(0.000610735 10.0032 0)
(0.000539714 10.003 0)
(0.000476494 10.0029 1.54078e-18)
(0.000419654 10.0027 3.03113e-18)
(0.000367973 10.0026 0)
(0.000320403 10.0025 0)
(0.000276015 10.0024 0)
(0.00023398 10.0023 0)
(0.000193887 10.0023 1.38645e-18)
(0.000156996 10.0022 0)
(-0.000533187 10.0089 -2.39392e-18)
(-0.000594758 10.0084 0)
(-0.000655456 10.0079 -2.7637e-18)
(-0.00070359 10.0074 1.4164e-18)
(-0.000739712 10.0069 0)
(-0.000764111 10.0064 -2.97304e-18)
(-0.000776844 10.006 -3.04434e-18)
(-0.000778032 10.0055 -3.117e-18)
(-0.000767926 10.0051 0)
(-0.000746917 10.0047 0)
(-0.000715567 10.0044 3.33021e-18)
(-0.000674882 10.004 0)
(-0.000627157 10.0037 0)
(-0.000575167 10.0034 0)
(-0.000520696 10.0032 -6.46253e-18)
(-0.00046517 10.003 -3.17917e-18)
(-0.000409772 10.0029 0)
(-0.000355473 10.0027 -3.07374e-18)
(-0.000303085 10.0026 0)
(-0.000253323 10.0025 2.96697e-18)
(-0.000206847 10.0024 -1.45661e-18)
(-0.000162594 10.0024 0)
(-0.00490821 10.0101 2.5169e-18)
(-0.00478961 10.0094 -2.83195e-18)
(-0.00467886 10.0087 5.80374e-18)
(-0.00454919 10.0081 2.97278e-18)
(-0.00440123 10.0074 0)
(-0.00423591 10.0068 0)
(-0.00405358 10.0062 3.19166e-18)
(-0.0038546 10.0056 3.26647e-18)
(-0.00363955 10.005 0)
(-0.0034092 10.0045 0)
(-0.00316457 10.004 0)
(-0.00290876 10.0036 0)
(-0.00265038 10.0032 0)
(-0.00239669 10.0029 3.43846e-18)
(-0.00214952 10.0026 3.38539e-18)
(-0.00191022 10.0023 -3.33297e-18)
(-0.00167982 10.0021 0)
(-0.00145913 10.002 3.2243e-18)
(-0.00124867 10.0018 0)
(-0.00104887 10.0017 6.72531e-22)
(-0.000861043 10.0017 3.05999e-18)
(-0.000685781 10.0016 -3.16122e-18)
(-0.0112815 10.0101 -2.64495e-18)
(-0.0108946 10.0092 2.97302e-18)
(-0.0105303 10.0083 -3.04524e-18)
(-0.0101381 10.0074 7.01428e-22)
(-0.00971866 10.0066 3.19364e-18)
(-0.00927403 10.0058 0)
(-0.00880501 10.005 0)
(-0.00831235 10.0043 0)
(-0.00779711 10.0036 0)
(-0.00726065 10.0029 7.157e-18)
(-0.00670472 10.0023 0)
(-0.00613544 10.0018 0)
(-0.00557063 10.0013 0)
(-0.00502402 10.0009 -3.59855e-18)
(-0.0044974 10.0005 0)
(-0.00399194 10.0003 6.98448e-18)
(-0.00350842 10 0)
(-0.00304731 9.99986 0)
(-0.00260867 9.99973 0)
(-0.0021924 9.99964 -3.26887e-18)
(-0.00180099 9.99959 -3.21205e-18)
(-0.00143876 9.99956 3.31823e-18)
(-0.0200302 10.0086 2.77771e-18)
(-0.0192662 10.0074 0)
(-0.0185483 10.0062 0)
(-0.0177905 10.0051 -6.54152e-18)
(-0.0169936 10.0041 1.84804e-21)
(-0.0161611 10.003 -3.4261e-18)
(-0.0152945 10.0021 -7.00916e-18)
(-0.0143953 10.0012 0)
(-0.0134651 10.0003 -7.32709e-18)
(-0.0125063 9.99949 5.26102e-21)
(-0.0115216 9.99876 -7.62697e-18)
(-0.0105213 9.99811 7.67973e-18)
(-0.00953601 9.99755 0)
(-0.00858817 9.99709 0)
(-0.00767945 9.99671 0)
(-0.00681068 9.99642 3.66216e-18)
(-0.00598221 9.99619 0)
(-0.005194 9.99603 0)
(-0.00444536 9.99593 0)
(-0.00373535 9.99587 0)
(-0.0030683 9.99586 0)
(-0.00245499 9.99589 0)
(-0.031641 10.0052 0)
(-0.0303635 10.0037 0)
(-0.029168 10.0022 3.35138e-18)
(-0.0279167 10.0008 -2.94124e-21)
(-0.026611 9.9995 3.51227e-18)
(-0.0252567 9.99822 1.0764e-17)
(-0.0238564 9.99702 7.33245e-18)
(-0.0224122 9.99589 0)
(-0.020927 9.99485 7.65772e-18)
(-0.0194044 9.99389 -7.82153e-18)
(-0.0178484 9.99302 7.96309e-18)
(-0.0162751 9.99226 8.96717e-21)
(-0.014732 9.99163 0)
(-0.0132529 9.99112 0)
(-0.0118394 9.99072 0)
(-0.0104916 9.99043 8.69581e-21)
(-0.00920918 9.99022 0)
(-0.00799131 9.9901 0)
(-0.00683622 9.99005 0)
(-0.00574168 9.99006 0)
(-0.00471464 9.99013 0)
(-0.00377583 9.99025 0)
(-0.0466953 9.99961 0)
(-0.0447344 9.99772 3.43241e-18)
(-0.0429077 9.99589 -7.0211e-18)
(-0.0410053 9.99415 3.58919e-18)
(-0.0390294 9.99248 -7.34129e-18)
(-0.0369889 9.99091 1.02736e-20)
(-0.0348879 9.98944 -7.68158e-18)
(-0.0327298 9.98807 0)
(-0.030519 9.98681 0)
(-0.0282606 9.98567 0)
(-0.0259608 9.98467 0)
(-0.0236432 9.9838 -8.3689e-18)
(-0.0213769 9.98309 0)
(-0.0192109 9.98255 0)
(-0.0171459 9.98216 0)
(-0.0151813 9.98189 -8.00867e-18)
(-0.0133155 9.98174 0)
(-0.0115468 9.98169 -7.7901e-18)
(-0.00987153 9.98173 -7.6713e-18)
(-0.00828579 9.98184 3.77536e-18)
(-0.00680003 9.98203 0)