/*--------------------------------*- C++ -*----------------------------------*\
  =========                 |
  \\      /  F ield         | OpenFOAM: The Open Source CFD Toolbox
   \\    /   O peration     | Website:  https://openfoam.org
    \\  /    A nd           | Version:  8
     \\/     M anipulation  |
\*---------------------------------------------------------------------------*/
FoamFile
{
    version     2.0;
    format      ascii;
    class       volScalarField;
    location    "0.13";
    object      epsilon;
}
// * * * * * * * * * * * * * * * * * * * * * * * * * * * * * * * * * * * * * //

dimensions      [0 2 -3 0 0 0 0];

internalField   nonuniform List<scalar> 
15677
(
59.7003
18.3535
52.6122
8.08764
25.8887
50.162
4.62722
13.2619
31.5741
50.4817
3.17784
7.72265
17.0788
37.2617
51.5979
2.48949
5.04242
10.0235
20.8056
42.6337
53.6525
2.14571
3.62249
6.4605
12.1575
24.5334
47.6444
55.7176
1.97986
2.8208
4.52363
7.72126
14.2696
28.241
52.0027
57.6516
1.91169
2.35296
3.40097
5.3082
8.91189
16.4156
31.7406
55.6817
59.3511
1.88416
2.08028
2.72279
3.90785
6.01908
10.1005
18.5253
34.9357
58.6989
60.8497
1.87055
1.9394
2.30686
3.05465
4.3561
6.70383
11.267
20.5551
37.7531
61.1709
62.1161
1.86765
1.87831
2.05634
2.52061
3.34679
4.77413
7.35932
12.4096
22.4442
40.2112
63.1605
63.2273
1.86862
1.84885
1.91652
2.18582
2.7117
3.61374
5.16293
7.99621
13.4957
24.1851
42.3024
64.7821
64.1534
1.86953
1.8387
1.85192
1.98254
2.3064
2.88548
3.85657
5.53304
8.59946
14.5248
25.744
44.0865
66.0822
64.9868
1.86976
1.83698
1.82112
1.86771
2.05113
2.41761
3.04181
4.08288
5.87816
9.17357
15.4717
27.1386
45.5729
67.1356
65.713
1.86976
1.83725
1.81049
1.81333
1.89808
2.1172
2.51798
3.18534
4.29025
6.20357
9.70417
16.3439
28.3517
46.8225
67.9946
66.3554
1.86971
1.83752
1.80818
1.78977
1.81537
1.93019
2.1783
2.6097
3.31507
4.48289
6.5018
10.197
17.1219
29.4076
47.8571
68.6929
66.9436
1.86969
1.83763
1.80788
1.78275
1.77568
1.82145
1.96212
2.23475
2.6921
3.43391
4.65725
6.77726
10.6395
17.8176
30.3022
48.7025
69.2901
67.4445
1.86967
1.83765
1.80789
1.78104
1.76143
1.76613
1.83163
1.99286
2.2857
2.7669
3.54025
4.81656
7.02308
11.0395
18.4171
31.0553
49.3973
69.7612
67.9525
1.86966
1.83765
1.80791
1.78072
1.75695
1.74392
1.76033
1.84301
2.02124
2.33192
2.83334
3.63631
4.95719
7.24451
11.3855
18.9348
31.6722
49.938
70.2055
68.3475
1.86966
1.83764
1.8079
1.78069
1.75567
1.7359
1.72948
1.75736
1.85434
2.04736
2.37297
2.89284
3.72032
5.08257
7.43482
11.6871
19.3597
32.1672
50.385
70.5316
68.8207
1.86966
1.83764
1.80788
1.78068
1.75535
1.7332
1.71726
1.718
1.75579
1.86548
2.07083
2.4096
2.94462
3.79442
5.18933
7.6001
11.9337
19.7101
32.5527
50.7024
70.8985
69.1346
1.86966
1.83763
1.80786
1.78067
1.75526
1.73237
1.71264
1.70132
1.70843
1.7557
1.87588
2.09188
2.44152
2.98999
3.85718
5.28116
7.73439
12.1386
19.975
32.8382
50.9728
71.1382
69.6048
1.86966
1.83763
1.80785
1.78064
1.75522
1.73213
1.711
1.69452
1.68722
1.70085
1.75602
1.88548
2.11045
2.46955
3.02852
3.91083
5.35535
7.84499
12.2907
20.1794
33.0406
51.1379
71.4823
69.861
1.86966
1.83762
1.80784
1.78062
1.75518
1.73204
1.71045
1.69192
1.67797
1.67535
1.69458
1.7568
1.89435
2.12703
2.49365
3.06153
3.95437
5.41598
7.92699
12.4087
20.3087
33.1646
51.2826
71.679
70.3325
1.86967
1.83762
1.80784
1.7806
1.75515
1.73198
1.71025
1.69097
1.67416
1.66375
1.66488
1.68957
1.7583
1.90264
2.1417
2.51474
3.08909
3.99049
5.46161
7.98927
12.4784
20.3946
33.2351
51.3683
72.0602
70.5813
1.86967
1.83761
1.80783
1.78059
1.75513
1.73193
1.71015
1.6906
1.67266
1.65872
1.65073
1.65639
1.68597
1.76019
1.91061
2.15529
2.5333
3.11274
4.01865
5.49605
8.0269
12.5258
20.4186
33.2372
51.4185
72.3517
430.216
1.86967
1.83761
1.80783
1.78057
1.75511
1.73189
1.71007
1.69042
1.67206
1.65661
1.64432
1.64019
1.64916
1.68332
1.76318
1.91891
2.16815
2.55025
3.13283
4.04165
5.5196
8.05158
12.5312
20.4079
33.2201
51.5173
88.5863
722.505
1.86967
1.8376
1.80783
1.78056
1.75509
1.73185
1.71002
1.6903
1.67178
1.65571
1.64153
1.63256
1.63059
1.64422
1.68332
1.76748
1.92788
2.18131
2.56656
3.15144
4.06045
5.53633
8.05789
12.5221
20.3781
33.1832
52.3979
121.8
1010.42
1.86968
1.8376
1.80783
1.78055
1.75508
1.73182
1.70997
1.69022
1.67162
1.65529
1.64032
1.62906
1.62166
1.62425
1.64081
1.6847
1.77353
1.93852
2.19562
2.58364
3.16944
4.07716
5.547
8.05533
12.5003
20.3219
33.1901
54.878
157.551
1267.51
1.86968
1.8376
1.80783
1.78054
1.75507
1.7318
1.70993
1.69015
1.67151
1.65505
1.63975
1.62745
1.61751
1.61424
1.6186
1.64129
1.68839
1.78224
1.9516
2.21228
2.60234
3.1885
4.09304
5.55446
8.04884
12.4629
20.2626
33.2601
59.3719
190.564
1507.51
1.86968
1.83759
1.80784
1.78053
1.75507
1.73177
1.7099
1.6901
1.67141
1.65489
1.63943
1.62666
1.61558
1.60936
1.60766
1.61827
1.64385
1.69566
1.79444
1.96828
2.23222
2.62433
3.20983
4.11049
5.56189
8.03744
12.4241
20.2
33.4754
64.0383
222.03
1714.47
1.86968
1.83759
1.80784
1.78052
1.75506
1.73175
1.70988
1.69005
1.67134
1.65476
1.63921
1.62623
1.61462
1.60698
1.60237
1.60625
1.62021
1.64978
1.70739
1.81131
1.98956
2.25703
2.65066
3.23551
4.13087
5.57141
8.02846
12.3837
20.1303
33.8953
68.7785
249.96
1874.74
1.86968
1.83759
1.80784
1.78052
1.75506
1.73173
1.70986
1.69
1.67127
1.65466
1.63904
1.62595
1.61408
1.60578
1.59978
1.60024
1.60799
1.62562
1.66111
1.72459
1.83388
2.01695
2.28773
2.68314
3.26642
4.15673
5.58576
8.02139
12.3441
20.069
34.4098
73.096
271.801
2001.67
1.86969
1.83758
1.80784
1.78051
1.75506
1.73172
1.70985
1.68996
1.67122
1.65457
1.63891
1.62574
1.61372
1.60511
1.59844
1.59727
1.60188
1.61323
1.63645
1.67866
1.74834
1.86365
2.05149
2.32599
2.72266
3.30485
4.18902
5.60643
8.02173
12.3047
20.0139
34.9126
76.426
289.205
2105.78
1.83758
1.86972
1.80785
1.7805
1.75506
1.7317
1.70984
1.68993
1.67118
1.6545
1.63879
1.62557
1.61345
1.60469
1.59768
1.59575
1.59887
1.6071
1.62393
1.65442
1.70345
1.78024
1.90176
2.09494
2.37282
2.77115
3.35129
4.22988
5.63434
8.02523
12.264
19.9575
35.2803
78.9821
303.368
2194.39
1.80785
1.83768
1.8698
1.7805
1.75506
1.73169
1.70983
1.68989
1.67115
1.65443
1.63869
1.62543
1.61322
1.60438
1.59718
1.59492
1.59736
1.60414
1.61786
1.6424
1.68025
1.73712
1.82142
1.94994
2.14817
2.42987
2.82918
3.40787
4.27907
5.67019
8.03512
12.2237
19.8948
35.5361
80.9143
315.403
2272.57
1.78049
1.80801
1.83787
1.86987
1.75506
1.73168
1.70982
1.68986
1.67112
1.65436
1.63861
1.6253
1.61303
1.60413
1.5968
1.5944
1.59656
1.60273
1.61508
1.63689
1.66925
1.71571
1.78104
1.87377
2.00925
2.21293
2.49802
2.89865
3.47406
4.33796
5.7189
8.056
12.1923
19.8258
35.6735
82.4329
325.844
2343.31
1.75506
1.7807
1.80833
1.83808
1.86995
1.73166
1.70982
1.68984
1.6711
1.65431
1.63855
1.62519
1.61287
1.60393
1.59649
1.59403
1.59608
1.60205
1.6139
1.63473
1.66479
1.70645
1.76235
1.83741
1.93866
2.08175
2.28991
2.57862
2.97914
3.55154
4.41367
5.78484
8.08842
12.1665
19.7491
35.7482
83.6216
335.294
2408.87
1.73165
1.75532
1.78111
1.80866
1.83828
1.87003
1.70982
1.68981
1.67109
1.65425
1.6385
1.62509
1.61274
1.60375
1.59624
1.59374
1.59575
1.6017
1.6135
1.6342
1.66371
1.70387
1.75598
1.82279
1.90781
2.01858
2.16843
2.38109
2.67174
3.07234
3.64912
4.51194
5.86364
8.13015
12.1503
19.6715
35.7449
84.617
343.896
2470.15
1.70981
1.73194
1.75584
1.78154
1.809
1.8385
1.87011
1.68979
1.67107
1.6542
1.63846
1.625
1.61263
1.6036
1.59602
1.59351
1.5955
1.60149
1.61341
1.6344
1.66418
1.70438
1.75567
1.82005
1.89875
1.99538
2.11492
2.27174
2.48703
2.77845
3.18883
3.77402
4.62398
5.95345
8.18164
12.1398
19.593
35.7247
85.4419
351.983
2528.32
1.68977
1.71015
1.73253
1.75637
1.78199
1.80934
1.83872
1.87019
1.67106
1.65416
1.63842
1.62491
1.61254
1.60346
1.59583
1.59331
1.5953
1.60135
1.61345
1.63489
1.66541
1.70663
1.75877
1.82339
1.90061
1.99263
2.10095
2.23105
2.39255
2.60966
2.91284
3.33557
3.91313
4.74865
6.05314
8.24134
12.1404
19.5198
35.681
86.1812
359.53
2583.31
1.67105
1.69012
1.71083
1.73314
1.75692
1.78244
1.8097
1.83895
1.87028
1.65412
1.6384
1.62483
1.61247
1.60334
1.59566
1.59315
1.59514
1.60125
1.61355
1.63546
1.66686
1.70962
1.76368
1.83039
1.90926
2.00145
2.1064
2.22721
2.36649
2.53387
2.76513
3.08424
3.50044
4.06634
4.88411
6.1616
8.30887
12.1452
19.4516
35.623
86.8251
366.749
2636
1.65409
1.67144
1.69084
1.71152
1.73377
1.75749
1.78291
1.81007
1.83918
1.87036
1.63838
1.62476
1.61241
1.60322
1.59553
1.59301
1.595
1.60119
1.61367
1.63604
1.66834
1.71272
1.7693
1.83939
1.9218
2.01756
2.12468
2.24435
2.3755
2.52383
2.71294
2.96541
3.27846
3.68331
4.23253
5.02912
6.27746
8.38286
12.1558
19.3914
35.5593
87.434
373.549
2685.85
1.63836
1.65446
1.67224
1.69159
1.71224
1.73441
1.75807
1.78339
1.81044
1.83942
1.87045
1.62469
1.61237
1.60311
1.59542
1.59289
1.59489
1.60114
1.61381
1.63659
1.66976
1.71572
1.77489
1.84917
1.93665
2.03809
2.15091
2.27537
2.40777
2.55038
2.72363
2.94138
3.19406
3.49578
3.88267
4.41067
5.18238
6.39953
8.46197
12.1746
19.3383
35.5004
87.985
380.097
2733.74
1.62463
1.63877
1.65527
1.67306
1.69236
1.71298
1.73508
1.75866
1.78388
1.81083
1.83966
1.87054
1.61234
1.603
1.59533
1.59278
1.5948
1.6011
1.61395
1.63712
1.67111
1.71854
1.78025
1.85877
1.95238
2.06159
2.18245
2.31559
2.45538
2.60232
2.77486
2.98347
3.20067
3.44599
3.73484
4.09828
4.59978
5.34259
6.52627
8.54537
12.1988
19.2933
35.4453
88.5234
386.272
2778.86
1.61232
1.62499
1.63963
1.6561
1.67391
1.69315
1.71374
1.73576
1.75927
1.78439
1.81122
1.83992
1.87063
1.60289
1.59527
1.59269
1.59471
1.60108
1.61408
1.63761
1.67237
1.72117
1.78532
1.86793
1.96776
2.08641
2.21804
2.3627
2.51416
2.67212
2.85437
3.07001
3.28347
3.49242
3.72049
3.99116
4.32845
4.79795
5.50802
6.65649
8.63197
12.2278
19.2552
35.3982
89.0212
392.233
2822.25
1.6028
1.6127
1.62578
1.64052
1.65695
1.67478
1.69397
1.71452
1.73647
1.7599
1.78491
1.81163
1.84018
1.87073
1.59522
1.5926
1.59463
1.60106
1.61421
1.63807
1.67354
1.72361
1.79007
1.87655
1.98249
2.11082
2.25559
2.41575
2.58233
2.75641
2.9559
3.19032
3.41527
3.62487
3.81603
4.01749
4.26123
4.57037
5.00355
5.67781
6.78896
8.72084
12.2606
19.2246
35.3586
89.5144
397.835
2862.86
1.59521
1.60305
1.61352
1.6266
1.64143
1.65784
1.67567
1.69481
1.71532
1.73719
1.76054
1.78545
1.81204
1.84044
1.87081
1.5925
1.59456
1.60104
1.61432
1.63849
1.67462
1.72585
1.79448
1.88459
1.99647
2.13435
2.29268
2.47231
2.65953
2.85426
3.07738
3.34023
3.58949
3.81403
4.0087
4.17077
4.33594
4.54349
4.82109
5.21584
5.85054
6.92272
8.81105
12.2968
19.1999
35.3268
89.9761
403.252
2901.94
1.59241
1.59548
1.60364
1.61436
1.62745
1.64238
1.65876
1.67659
1.69568
1.71614
1.73794
1.7612
1.786
1.81245
1.84069
1.8709
1.59447
1.60101
1.61443
1.63888
1.67561
1.7279
1.79857
1.89206
2.00967
2.15679
2.32867
2.52906
2.74272
2.96622
3.21945
3.52041
3.80568
4.05911
4.27014
4.43613
4.55566
4.67367
4.83637
5.07559
5.4321
6.0248
7.0566
8.90179
12.3353
19.1818
35.3027
90.4348
408.311
2938.26
1.59443
1.59236
1.59604
1.60423
1.61524
1.62834
1.64335
1.65971
1.67753
1.69658
1.71698
1.7387
1.76188
1.78654
1.81285
1.84093
1.87098
1.60098
1.61452
1.63924
1.67651
1.72979
1.80234
1.89897
2.02207
2.17799
2.36335
2.58497
2.82688
3.08869
3.38482
3.73519
4.06968
4.36647
4.60884
4.78884
4.90854
4.96965
5.02851
5.13877
5.33269
5.64997
6.19891
7.18971
8.99231
12.3758
19.1679
35.2843
90.8674
413.217
2973.26
1.601
1.59424
1.59225
1.59661
1.60487
1.61615
1.62927
1.64435
1.66069
1.6785
1.6975
1.71785
1.73949
1.76254
1.78707
1.81323
1.84116
1.87106
1.6146
1.63955
1.67733
1.73151
1.80579
1.90534
2.03363
2.19789
2.39658
2.63945
2.91034
3.21523
3.57029
3.99221
4.39338
4.7526
5.0442
5.25295
5.37727
5.42798
5.41182
5.3985
5.44839
5.59105
5.8681
6.37229
7.32148
9.08203
12.4175
19.1597
35.2736
91.2948
417.759
3005.55
1.61475
1.60057
1.5938
1.5921
1.59726
1.60557
1.61709
1.63025
1.64537
1.66171
1.6795
1.69845
1.71873
1.74027
1.76319
1.78758
1.81361
1.84139
1.87114
1.63982
1.67806
1.73308
1.80895
1.91119
2.04437
2.21649
2.42825
2.69196
2.9924
3.34415
3.7668
4.28935
4.79566
5.24678
5.6147
5.87173
6.01085
6.04444
5.99696
5.88138
5.78172
5.76315
5.84919
6.08385
6.54435
7.45123
9.17043
12.4601
19.154
35.2659
91.6997
422.189
3036.71
1.64018
1.61392
1.59944
1.59329
1.59206
1.59794
1.60633
1.61806
1.63127
1.64643
1.66277
1.68052
1.69943
1.71961
1.74103
1.76382
1.78809
1.81397
1.84162
1.87122
1.67869
1.73448
1.81183
1.91657
2.05431
2.2338
2.45826
2.74213
3.07274
3.47449
3.97036
4.61356
5.2838
5.89614
6.38518
6.72229
6.89032
6.90421
6.79941
6.61767
6.37735
6.17629
6.08112
6.10623
6.29499
6.71363
7.57832
9.25708
12.5029
19.1535
35.266
92.0968
426.254
3061.79
1.67942
1.63873
1.61165
1.59822
1.5929
1.59211
1.59864
1.60716
1.61906
1.63234
1.64751
1.66386
1.68156
1.7004
1.72046
1.74176
1.76444
1.78857
1.81433
1.84184
1.87129
1.73574
1.81442
1.9215
2.06347
2.24988
2.48655
2.78975
3.15109
3.60481
4.17796
4.96182
5.84879
6.73429
7.45285
7.92379
8.14722
8.13902
7.95109
7.64855
7.29082
6.8982
6.58026
6.40058
6.36127
6.50109
6.87912
7.70218
9.34159
12.5458
19.1548
35.2681
92.4716
429.708
3082.99
1.73707
1.67722
1.63467
1.60925
1.59717
1.59261
1.5923
1.59934
1.60808
1.62007
1.63346
1.64862
1.66498
1.6826
1.70134
1.72129
1.74248
1.76504
1.78905
1.81467
1.84205
1.87137
1.81676
1.92599
2.07189
2.26481
2.5131
2.83478
3.22721
3.73347
4.38764
5.33537
6.49426
7.75368
8.8823
9.63553
9.96552
9.94427
9.64281
9.16034
8.59314
8.01479
7.44163
6.99154
6.71992
6.61299
6.7017
7.04007
7.82235
9.42367
12.5884
19.1577
35.2726
92.7881
432.554
3105.91
1.81911
1.73389
1.67072
1.63036
1.60713
1.59622
1.59237
1.59268
1.60004
1.60907
1.62112
1.63462
1.64976
1.6661
1.68361
1.70226
1.7221
1.74318
1.76562
1.78951
1.81501
1.84225
1.87144
1.93008
2.07959
2.27864
2.53794
2.87725
3.3008
3.85909
4.59894
5.73588
7.22216
8.95024
10.6437
11.9459
12.5732
12.5749
12.1389
11.4071
10.5293
9.62852
8.78528
8.00442
7.40787
7.0376
6.86029
6.89643
7.19591
7.93845
9.50304
12.6302
19.1632
35.2798
93.0533
435.666
3131.03
1.93404
1.81472
1.72391
1.66391
1.62642
1.60516
1.59534
1.59206
1.59325
1.60074
1.61012
1.6222
1.63582
1.6509
1.66718
1.6846
1.70316
1.72289
1.74386
1.76618
1.78995
1.81533
1.84245
1.87147
2.08668
2.29141
2.5611
2.91729
3.37155
3.98082
4.81244
6.1634
8.02721
10.3104
12.709
14.7844
16.086
16.3441
15.7769
14.7285
13.4195
12.0451
10.7447
9.59564
8.58255
7.82683
7.35216
7.10225
7.08489
7.34624
8.05024
9.57956
12.6712
19.1693
35.2869
93.3494
439.036
3158.37
2.09331
1.9281
1.7998
1.71358
1.65765
1.62272
1.60331
1.59454
1.59175
1.59393
1.60148
1.61124
1.62332
1.63701
1.65202
1.66824
1.68556
1.70402
1.72365
1.74451
1.76673
1.79039
1.81565
1.84255
1.87147
2.30329
2.58264
2.95497
3.43924
4.09833
5.02902
6.61578
8.89876
11.8109
15.0421
18.0955
20.3886
21.4157
20.9862
19.5659
17.6899
15.655
13.6876
11.928
10.4375
9.17139
8.24594
7.66225
7.33807
7.26677
7.49078
8.15751
9.65303
12.7058
19.1754
35.2962
93.6717
442.753
3188.51
2.31414
2.08553
1.90612
1.78453
1.70403
1.65172
1.61922
1.6016
1.59381
1.59152
1.59469
1.60228
1.61239
1.62446
1.63818
1.65311
1.66926
1.6865
1.70487
1.7244
1.74516
1.76726
1.79081
1.81581
1.84255
1.87147
2.60278
2.99039
3.50369
4.21174
5.24941
7.08903
9.82353
13.4244
17.598
21.8177
25.3961
27.6284
28.0079
26.5041
23.9132
20.9863
18.0808
15.4328
13.1628
11.3017
9.76606
8.66271
7.96658
7.56706
7.44185
7.62942
8.26019
9.71418
12.7358
19.183
35.3082
94.0368
446.775
3221.35
2.62075
2.30392
2.05347
1.88392
1.77038
1.69493
1.64603
1.61591
1.60002
1.59316
1.59138
1.59552
1.60314
1.61354
1.62559
1.63931
1.65418
1.67026
1.68742
1.70569
1.72513
1.74578
1.76778
1.79102
1.81581
1.84255
1.87147
3.02387
3.56492
4.3215
5.47377
7.57788
10.7876
15.1234
20.3289
25.8771
31.0124
34.8602
36.6313
35.8937
32.8719
28.7725
24.5716
20.6607
17.2552
14.4328
12.1788
10.3617
9.07476
8.26395
7.78871
7.60996
7.76186
8.34565
9.76654
12.7692
19.1925
35.3243
94.4349
451.228
3257.67
3.0533
2.60756
2.25726
2.02153
1.86332
1.75685
1.68616
1.64059
1.61281
1.59856
1.59262
1.59135
1.59638
1.60407
1.61465
1.62671
1.64041
1.65523
1.67123
1.68831
1.70649
1.72583
1.74638
1.76804
1.79102
1.81581
1.84255
1.87147
3.62332
4.42828
5.70169
8.07623
11.7769
16.8814
23.1876
30.1945
37.1186
42.9631
46.6841
47.4694
45.0591
40.035
34.0827
28.3951
23.3574
19.13
15.7228
13.0599
10.9537
9.47982
8.55338
8.00257
7.77105
7.871
8.41878
9.82444
12.8066
19.2045
35.3449
94.8892
456.059
3297.21
3.67418
3.0359
2.53952
2.21148
1.99188
1.84358
1.74378
1.67773
1.63541
1.60989
1.59722
1.5922
1.59145
1.59723
1.60503
1.61574
1.62782
1.64148
1.65626
1.67218
1.68918
1.70726
1.72652
1.74668
1.76804
1.79102
1.81581
1.84255
1.87147
4.5328
5.93048
8.57786
12.7783
18.6729
26.1285
34.6914
43.5854
51.7481
57.9427
60.9934
60.1511
55.4442
47.9133
39.7729
32.4036
26.1349
21.034
17.0186
13.937
11.5379
9.87596
8.83399
8.2083
7.90493
7.96387
8.49953
9.88856
12.8486
19.2196
35.3718
95.3856
461.445
3341.05
4.62493
3.65168
2.93513
2.4739
2.16899
1.96342
1.82449
1.73116
1.66963
1.63047
1.60718
1.59603
1.59189
1.59172
1.59802
1.60603
1.61679
1.62891
1.64252
1.65726
1.6731
1.69003
1.70802
1.72686
1.74668
1.76804
1.79102
1.81581
1.84255
1.87143
6.15769
9.07857
13.7794
20.4739
29.1088
39.2925
50.2845
61.0083
70.1136
76.1365
77.829
74.6163
66.9447
56.4058
45.7655
36.544
28.959
22.9464
18.3077
14.8029
12.1106
10.2615
9.10505
8.37967
8.01945
8.0659
8.58878
9.95972
12.8959
19.2383
35.4056
95.9392
467.303
3388.67
4.59497
6.35871
3.49727
2.84025
2.41296
2.12819
1.93588
1.80602
1.71899
1.66187
1.62577
1.6047
1.59497
1.59167
1.59223
1.59878
1.60705
1.61782
1.62998
1.64353
1.65824
1.67399
1.69085
1.70839
1.72686
1.74668
1.76804
1.79102
1.81581
1.84245
1.87136
9.57403
14.7697
22.2631
32.0887
43.9285
57.0957
70.5403
82.8751
92.4589
97.6266
97.1402
90.7377
79.4197
65.3969
51.9801
40.7653
31.7993
24.8491
19.5796
15.6518
12.6689
10.635
9.3316
8.52649
8.14591
8.17817
8.68755
10.0388
12.9493
19.2615
35.4489
96.5311
473.878
3441.62
4.34086
6.33012
10.0119
3.35696
2.75228
2.35448
2.08872
1.90923
1.78819
1.7073
1.65445
1.62129
1.60247
1.59405
1.59136
1.59288
1.59953
1.60807
1.61882
1.63104
1.64452
1.65919
1.67487
1.69126
1.70839
1.72686
1.74668
1.76804
1.79102
1.81565
1.84225
1.87129
15.7392
24.0222
35.0336
48.5373
63.9126
80.1596
95.9155
109.477
118.909
122.382
118.783
108.328
92.6987
74.7624
58.3376
45.0207
34.6285
26.7262
20.8255
16.4787
13.2101
10.9478
9.5261
8.6889
8.28577
8.30194
8.79698
10.1269
13.0098
19.2902
35.502
97.2
481.041
3498.89
4.11799
5.88207
10.0027
16.597
3.22817
2.66794
2.29798
2.05053
1.88349
1.77102
1.69609
1.64738
1.61711
1.60049
1.59328
1.59113
1.59359
1.60027
1.60909
1.61982
1.63207
1.64549
1.66012
1.67529
1.69126
1.70838
1.72686
1.74668
1.76804
1.7908
1.81533
1.84204
1.87122
25.7346
37.9154
53.0673
70.6442
89.71
108.961
126.727
140.973
149.46
150.255
142.527
127.15
106.592
84.3766
64.7633
49.2675
37.4227
28.5653
22.0384
17.28
13.6636
11.2167
9.74171
8.86887
8.44069
8.43862
8.91837
10.2253
13.0785
19.3258
35.5686
97.9186
489.15
3562.79
3.91748
5.49123
9.18713
16.652
27.2586
3.10542
2.58658
2.24339
2.01366
1.85869
1.75453
1.68538
1.64072
1.61335
1.59882
1.59264
1.591
1.59434
1.60104
1.61009
1.6208
1.63307
1.64645
1.66058
1.67529
1.69126
1.70838
1.72686
1.74668
1.76778
1.79038
1.815
1.84183
1.87114
40.7088
57.4785
77.219
99.0656
121.791
143.815
163.15
177.389
183.979
180.985
168.064
146.93
120.903
94.1186
71.1886
53.468
40.1625
30.3558
23.2129
17.9507
14.0534
11.5151
9.98109
9.06863
8.61257
8.58986
9.05325
10.3352
13.1566
19.3696
35.6497
98.7439
497.98
3631.41
3.72989
5.14038
8.45906
15.2856
27.4772
43.2031
2.98752
2.50814
2.19076
1.97816
1.83488
1.73877
1.67527
1.63467
1.61008
1.59738
1.59214
1.59098
1.59508
1.60182
1.61106
1.62176
1.63407
1.64691
1.66058
1.67528
1.69126
1.70839
1.72686
1.74638
1.76726
1.78994
1.81466
1.84161
1.87106
61.736
83.5852
108.134
134.24
160.436
184.88
205.226
218.616
222.199
214.208
195.026
167.375
135.438
103.875
77.552
57.5913
42.832
32.0896
24.1954
18.5269
14.486
11.8467
10.2473
9.29073
8.80359
8.75753
9.20332
10.4584
13.2459
19.4236
35.7503
99.6367
508.093
3708.28
3.55274
4.81479
7.79735
14.0201
25.384
43.7277
65.5403
2.87427
2.43271
2.14017
1.9441
1.81211
1.72387
1.66602
1.62929
1.60721
1.59615
1.59177
1.59106
1.59582
1.60262
1.61202
1.62273
1.63456
1.64689
1.66058
1.67528
1.69126
1.70839
1.72651
1.74577
1.76672
1.78949
1.81432
1.84139
1.87098
89.6986
116.856
146.197
176.381
205.753
232.19
252.874
264.416
263.73
249.466
223.004
188.189
150.013
113.545
83.8022
61.6113
45.4182
33.5403
25.0392
19.1657
14.9664
12.2156
10.5437
9.53805
9.01625
8.94383
9.3706
10.5968
13.3482
19.4898
35.8727
100.681
519.047
3789.97
3.38531
4.51051
7.17987
12.8338
23.4109
40.7308
66.5472
95.151
2.76568
2.36041
2.09172
1.91157
1.79057
1.71021
1.65775
1.62451
1.6047
1.59512
1.59152
1.59126
1.59653
1.60345
1.613
1.6232
1.63454
1.64689
1.66058
1.67529
1.69126
1.70801
1.72582
1.74514
1.76616
1.78903
1.81396
1.84116
1.8709
125.18
157.602
191.527
225.509
257.73
285.678
305.907
314.42
308.063
286.235
251.576
209.087
164.462
123.042
89.8966
65.507
47.5828
34.786
25.9743
19.8748
15.5007
12.6266
10.8743
9.81395
9.2534
9.15127
9.55734
10.7523
13.4658
19.5712
36.0234
101.821
531.806
3897.51
3.22723
4.22696
6.60011
11.706
21.5235
37.8784
62.4804
96.8258
132.569
2.66183
2.29141
2.04551
1.88083
1.77082
1.69795
1.65035
1.62027
1.60253
1.59425
1.59136
1.59162
1.59723
1.60434
1.61346
1.62316
1.63455
1.64689
1.66058
1.67529
1.69085
1.70725
1.72511
1.74449
1.7656
1.78855
1.8136
1.84092
1.87081
168.408
205.83
244.026
281.525
316.282
345.212
364.033
368.133
354.586
323.95
280.322
229.809
178.642
132.296
95.8003
68.7677
49.4419
36.1667
27.0117
20.6625
16.0954
13.085
11.2435
10.1222
9.51831
9.38273
9.76635
10.928
13.6011
19.6708
36.2077
103.171
547.87
4028.95
3.07809
3.96427
6.05833
10.6303
19.6922
35.1122
58.6039
91.5329
135.071
177.923
2.5629
2.22584
2.00194
1.85268
1.75308
1.68694
1.64372
1.61648
1.60069
1.59352
1.59116
1.5921
1.59799
1.60475
1.6134
1.62316
1.63455
1.64689
1.66058
1.67486
1.69001
1.70646
1.72438
1.74383
1.76501
1.78807
1.81322
1.84068
1.87072
219.26
261.298
303.469
344.284
381.309
410.611
426.856
424.934
402.613
362.033
308.85
250.129
192.438
141.248
100.738
71.5678
51.5025
37.6984
28.1638
21.5385
16.7579
13.5968
11.6561
10.467
9.81469
9.64157
10.0003
11.1259
13.7577
19.7933
36.4335
104.955
569.179
4163.01
2.93714
3.72303
5.55624
9.61012
17.9063
32.3902
54.8159
86.5207
128.39
181.34
230.939
2.4692
2.16426
1.96211
1.82741
1.73715
1.67707
1.63779
1.6131
1.59911
1.5929
1.59101
1.59277
1.5983
1.60468
1.6134
1.62316
1.63454
1.64691
1.66012
1.67398
1.68916
1.70566
1.72363
1.74315
1.76442
1.78757
1.81284
1.84043
1.87063
277.334
323.626
369.603
413.676
452.757
481.678
493.88
484.092
451.407
399.924
336.819
269.862
205.754
148.721
104.974
74.6702
53.7883
39.3993
29.4443
22.5134
17.4966
14.1684
12.1179
10.8532
10.1468
9.93161
10.2638
11.3517
13.9396
19.9433
36.7635
107.323
592.424
4298.47
2.80387
3.50564
5.09478
8.65489
16.1671
29.6929
51.0562
81.6167
122.158
173.074
235.248
291.032
2.38158
2.10814
1.92644
1.80474
1.72285
1.66821
1.63249
1.61011
1.59775
1.59242
1.59113
1.59306
1.59815
1.60469
1.6134
1.62316
1.63456
1.64644
1.65917
1.67307
1.68828
1.70484
1.72286
1.74246
1.76381
1.78706
1.81244
1.84018
1.87054
342.08
392.427
442.289
489.802
530.738
558.224
564.498
544.776
500.221
437.125
363.944
288.859
216.84
155.124
109.664
78.11
56.3261
41.2895
30.8686
23.5988
18.3204
14.8072
12.6348
11.2861
10.5192
10.257
10.5578
11.6091
14.1522
20.1618
37.2367
110.108
618.008
4433.77
2.67926
3.30777
4.6735
7.76712
14.4819
27.0174
47.289
76.735
116.093
165.541
225.124
296.059
357.448
2.3022
2.05803
1.8945
1.7844
1.71001
1.66027
1.62776
1.60748
1.59662
1.59229
1.59105
1.59293
1.59814
1.60469
1.6134
1.6232
1.63406
1.64548
1.65821
1.67215
1.68739
1.70399
1.72207
1.74174
1.76318
1.78653
1.81204
1.83992
1.87045
412.962
467.48
521.696
573.09
615.568
640.043
637.961
606.08
548.356
473.21
389.999
304.623
226.317
162.197
114.856
81.9257
59.1452
43.3912
32.4536
24.808
19.2394
15.5213
13.2137
11.7715
10.9372
10.6234
10.8867
11.9029
14.4463
20.4783
37.8334
113.291
645.756
4568.14
2.56632
3.12766
4.29414
6.9485
12.8682
24.3724
43.4997
71.8154
110.079
158.306
216.185
283.685
362.85
429.458
2.23175
2.01329
1.8659
1.76614
1.69849
1.65317
1.62353
1.60522
1.59601
1.59205
1.59074
1.59297
1.59814
1.60468
1.61346
1.62273
1.63306
1.6445
1.65723
1.6712
1.68647
1.70312
1.72127
1.74101
1.76253
1.78599
1.81162
1.83966
1.87036
489.63
548.921
608.425
664.323
707.686
726.79
713.35
667.092
595.193
507.837
411.551
318.063
236.756
170.009
120.605
86.1595
62.2779
45.7293
34.2182
26.1551
20.2646
16.3192
13.8617
12.3158
11.4065
11.0363
11.2561
12.2993
14.8449
20.8665
38.5574
116.995
676.394
4699.77
2.46621
2.96709
3.95828
6.20499
11.3444
21.7752
39.6888
66.8212
104.02
151.213
207.773
273.167
347.649
434.739
506.57
2.16923
1.97334
1.8403
1.74978
1.68816
1.64677
1.61982
1.60375
1.59548
1.59167
1.59076
1.59297
1.59815
1.60475
1.61299
1.62174
1.63204
1.6435
1.65622
1.67023
1.68553
1.70223
1.72044
1.74026
1.76187
1.78544
1.81121
1.83941
1.87027
572.175
637.505
703.794
764.823
807.569
817.879
789.625
726.957
640.223
536.425
429.88
332.821
248.247
178.633
126.969
90.857
65.7596
48.3306
36.1826
27.6558
21.4077
17.2103
14.5866
12.9254
11.9331
11.5008
11.7487
12.815
15.3013
21.3368
39.4508
121.279
709.562
4827.7
2.37771
2.82507
3.67154
5.54547
9.92947
19.2492
35.8685
61.7339
97.849
144.122
199.689
263.541
335.286
415.868
511.143
588.822
2.11368
1.93767
1.81738
1.73511
1.67886
1.64112
1.61719
1.60269
1.59496
1.59171
1.59076
1.59292
1.5983
1.60433
1.61201
1.62077
1.631
1.64248
1.65519
1.66923
1.68457
1.70132
1.71959
1.73948
1.7612
1.7849
1.81082
1.83917
1.87019
661.464
735.008
810.216
876.522
915.656
912.493
865.746
784.93
677.432
560.696
449.944
349.001
260.88
188.145
134.009
96.0669
69.6281
51.2242
38.3692
29.3267
22.6813
18.2041
15.3961
13.6074
12.5229
12.1198
12.378
13.3818
15.822
21.9032
40.549
126.239
746.354
4949.82
2.29962
2.69851
3.43548
4.98334
8.6545
16.8213
32.0608
56.5472
91.514
136.926
191.742
254.557
324.347
401.273
487.375
592.058
677.205
2.06428
1.90584
1.79687
1.72191
1.6706
1.63696
1.61546
1.60196
1.59504
1.59171
1.59074
1.59306
1.59799
1.60343
1.61104
1.61978
1.62994
1.64144
1.65415
1.6682
1.68359
1.70038
1.71873
1.7387
1.76053
1.78437
1.81043
1.83894
1.87011
759.617
844.901
931.568
1001.99
1032.17
1009.86
940.712
833.126
709.027
587.204
471.857
366.705
274.743
198.619
141.79
101.84
73.9236
54.441
40.8012
31.1854
24.0982
19.3106
16.2983
14.3678
13.3051
12.9032
13.0574
14.0018
16.411
22.5887
41.8899
132.048
786.203
5065.23
2.23075
2.58582
3.23688
4.51556
7.54975
14.5355
28.2981
51.268
84.9751
129.532
183.78
245.959
314.516
388.834
470.044
561.658
678.654
774.401
2.02035
1.87743
1.77843
1.71017
1.66434
1.63433
1.6145
1.60207
1.59504
1.59167
1.59105
1.59277
1.59721
1.6026
1.61005
1.61879
1.62887
1.64037
1.65308
1.66715
1.68258
1.69942
1.71784
1.73792
1.75988
1.78386
1.81005
1.83871
1.87002
871.028
973.303
1074
1144
1158.29
1108.94
1003.98
874.204
743.536
616.079
495.725
386.024
289.918
210.131
150.372
108.229
78.6876
58.0133
43.5033
33.2502
25.6718
20.5397
17.3002
15.3715
14.2859
13.7381
13.7856
14.6735
17.0785
23.4042
43.5527
138.771
830.631
5171.74
2.16998
2.48585
3.06643
4.12961
6.62021
12.4843
24.6479
45.9183
78.2034
121.85
175.661
237.551
305.461
378.15
455.822
541.014
639.063
774.276
886.082
1.98127
1.85199
1.76205
1.70113
1.66047
1.63306
1.61465
1.60207
1.59496
1.59205
1.59113
1.59209
1.59651
1.60179
1.60905
1.61778
1.62778
1.63927
1.65199
1.66608
1.68156
1.69845
1.71697
1.73717
1.75925
1.78337
1.80969
1.83849
1.86995
1003.86
1131.37
1245.16
1310.92
1294.06
1194.74
1058.41
919.254
781.132
647.437
521.634
407.032
306.478
222.747
159.818
115.284
83.9616
61.9736
46.5001
35.5394
27.4154
21.9
18.6168
16.6197
15.3203
14.6183
14.5582
15.3994
17.8259
24.3873
45.564
146.765
878.824
5268.94
2.1163
2.39763
2.91757
3.81224
5.84823
10.7115
21.2537
40.5759
71.1861
113.794
167.236
229.14
296.938
368.783
444.209
524.644
614.537
721.591
886.107
1024.57
1.94638
1.82942
1.74921
1.69565
1.65881
1.63328
1.61465
1.60196
1.59548
1.59229
1.59101
1.59161
1.5958
1.60101
1.60803
1.61675
1.62667
1.63815
1.65088
1.66497
1.68051
1.69748
1.71612
1.73644
1.75864
1.78289
1.80933
1.83828
1.86987
1174.68
1335.9
1473.67
1507.83
1415.61
1269.58
1118.75
968.612
821.997
681.379
549.651
429.787
324.477
236.524
170.18
123.053
89.7856
66.3538
49.8158
38.0708
29.3403
23.6815
20.2435
17.9251
16.3988
15.5362
15.3713
16.1732
18.6676
25.5403
48.0626
156.038
932.733
5354.84
2.06866
2.32009
2.78583
3.55398
5.21366
9.20824
18.2073
35.442
63.9828
105.286
158.347
220.52
288.706
360.441
434.61
511.953
595.597
692.572
814.839
1031.41
1214.38
1.9155
1.81156
1.74152
1.69354
1.65911
1.63328
1.6145
1.6027
1.59602
1.59243
1.59116
1.59126
1.59506
1.60025
1.60701
1.6157
1.62556
1.63699
1.64976
1.66386
1.67948
1.69655
1.71529
1.73574
1.75805
1.78242
1.80898
1.83807
1.86979
1419.07
1658.22
1775.25
1687.97
1523.03
1353.83
1185.87
1022.8
866.379
718.019
579.827
454.32
343.951
251.502
181.502
131.578
96.1952
71.1827
53.473
40.8598
31.8548
25.8719
21.9345
19.2753
17.5109
16.484
16.2188
16.9993
19.5991
26.9206
51.041
167.234
991.312
5430.13
2.02666
2.25189
2.66865
3.34165
4.69471
7.95221
15.515
30.6733
56.8351
96.3296
148.829
211.457
280.51
352.831
426.672
502.126
581.604
670.629
780.23
931.792
1256.96
1525.99
1.89075
1.80107
1.73881
1.69395
1.65911
1.63306
1.61547
1.60377
1.59664
1.59292
1.59136
1.59106
1.59431
1.5995
1.606
1.61463
1.62444
1.63581
1.64862
1.66275
1.67848
1.69565
1.71449
1.73505
1.75747
1.78197
1.80865
1.83787
1.86972
1867.48
2110.22
2043.27
1847.66
1646.97
1450.05
1261.63
1082.74
914.7
757.516
612.207
480.638
364.904
267.701
193.812
140.889
103.219
76.4847
57.4892
44.4938
34.9348
28.1393
23.674
20.657
18.6457
17.4532
17.0977
17.874
20.6447
28.5159
54.7155
180.253
1056.69
5493.11
1.99279
2.19241
2.5644
3.16277
4.27324
6.91255
13.179
26.3132
49.9621
87.1584
138.582
201.687
272.056
345.666
420.053
494.728
571.488
655.013
754.906
889.711
1105.42
1712.19
2186.85
1.8763
1.79769
1.73935
1.69395
1.65881
1.63433
1.61723
1.60526
1.59779
1.59354
1.59153
1.59098
1.59357
1.59876
1.60501
1.61352
1.62332
1.63462
1.64749
1.66169
1.6775
1.69478
1.71371
1.73439
1.75691
1.78153
1.80832
1.83767
1.86969
2550.45
2537.4
2302.87
2049.89
1797.04