/*--------------------------------*- C++ -*----------------------------------*\
  =========                 |
  \\      /  F ield         | OpenFOAM: The Open Source CFD Toolbox
   \\    /   O peration     | Website:  https://openfoam.org
    \\  /    A nd           | Version:  8
     \\/     M anipulation  |
\*---------------------------------------------------------------------------*/
FoamFile
{
    version     2.0;
    format      ascii;
    class       surfaceScalarField;
    location    "0.13";
    object      phi;
}
// * * * * * * * * * * * * * * * * * * * * * * * * * * * * * * * * * * * * * //

dimensions      [0 3 -1 0 0 0 0];

internalField   nonuniform List<scalar> 
31053
(
6.40145e-07
1.27399e-05
8.6316e-07
1.5157e-05
3.57382e-07
1.23825e-05
9.488e-07
1.75544e-05
5.67565e-07
1.49468e-05
2.75238e-07
1.21072e-05
9.73476e-07
2.02153e-05
6.82324e-07
1.74396e-05
4.71109e-07
1.47509e-05
2.16687e-07
1.18905e-05
9.64857e-07
2.32486e-05
7.41075e-07
2.01566e-05
5.9707e-07
1.73136e-05
3.96999e-07
1.45706e-05
1.7225e-07
1.17183e-05
9.34928e-07
2.66899e-05
7.66165e-07
2.32235e-05
6.72253e-07
2.00814e-05
5.24388e-07
1.71863e-05
3.32872e-07
1.441e-05
1.37927e-07
1.15804e-05
8.89492e-07
3.06654e-05
7.6938e-07
2.66867e-05
7.14374e-07
2.31814e-05
6.05455e-07
2.00003e-05
4.55066e-07
1.70641e-05
2.78657e-07
1.42693e-05
1.10876e-07
1.14695e-05
8.31639e-07
3.51979e-05
7.57175e-07
3.06776e-05
7.34333e-07
2.66668e-05
6.53738e-07
2.31331e-05
5.36143e-07
1.99192e-05
3.91763e-07
1.6951e-05
2.31675e-07
1.41485e-05
8.84049e-08
1.13811e-05
7.65156e-07
4.03865e-05
7.33731e-07
3.52213e-05
7.3858e-07
3.06734e-05
6.793e-07
2.66412e-05
5.85186e-07
2.30841e-05
4.69129e-07
1.98419e-05
3.33019e-07
1.68496e-05
1.89563e-07
1.40473e-05
6.87019e-08
1.13124e-05
6.92632e-07
4.63525e-05
7.002e-07
4.042e-05
7.30993e-07
3.52289e-05
6.88141e-07
3.06646e-05
6.11211e-07
2.66152e-05
5.15653e-07
2.30376e-05
4.03644e-07
1.97713e-05
2.77187e-07
1.6762e-05
1.50542e-07
1.39655e-05
5.06201e-08
1.12618e-05
6.1591e-07
5.32167e-05
6.58106e-07
4.63946e-05
7.11911e-07
4.04391e-05
6.8319e-07
3.52338e-05
6.20131e-07
3.06556e-05
5.38968e-07
2.65919e-05
4.4489e-07
2.29963e-05
3.38563e-07
1.97099e-05
2.22892e-07
1.66896e-05
1.13317e-07
1.39028e-05
3.33782e-08
1.12284e-05
5.36952e-07
6.1059e-05
6.09252e-07
5.32656e-05
6.8178e-07
4.64247e-05
6.67332e-07
4.0455e-05
6.15324e-07
3.52386e-05
5.44834e-07
3.06498e-05
4.62837e-07
2.65739e-05
3.72143e-07
2.29627e-05
2.72764e-07
1.966e-05
1.69031e-07
1.66339e-05
7.69419e-08
1.38592e-05
1.64662e-08
1.12119e-05
4.57613e-07
7.00613e-05
5.55207e-07
6.1113e-05
6.41697e-07
5.33057e-05
6.41532e-07
4.64505e-05
5.99032e-07
4.04712e-05
5.36711e-07
3.52468e-05
4.62851e-07
3.06498e-05
3.82356e-07
2.65637e-05
2.96358e-07
2.29391e-05
2.05239e-07
1.96238e-05
1.14801e-07
1.65961e-05
4.07221e-08
1.3835e-05
-2.87968e-10
1.12122e-05
3.79589e-07
8.041e-05
4.97388e-07
7.01192e-05
5.92901e-07
6.11618e-05
6.05849e-07
5.33413e-05
5.7236e-07
4.64772e-05
5.16564e-07
4.04914e-05
4.48301e-07
3.52613e-05
3.73986e-07
3.06581e-05
2.96485e-07
2.65636e-05
2.16526e-07
2.29279e-05
1.35297e-07
1.96033e-05
5.95779e-08
1.65772e-05
4.28362e-09
1.38304e-05
-1.71176e-08
1.12293e-05
3.16763e-07
7.62528e-05
4.37091e-07
8.04703e-05
5.36835e-07
7.01752e-05
5.60601e-07
6.1207e-05
5.35582e-07
5.33781e-05
4.85382e-07
4.65084e-05
4.21038e-07
4.05187e-05
3.50223e-07
3.52851e-05
2.77228e-07
3.06774e-05
2.04177e-07
2.65759e-05
1.31961e-07
2.29312e-05
6.24076e-08
1.96005e-05
3.01809e-09
1.65785e-05
-3.25902e-08
1.38459e-05
-3.42142e-08
1.12635e-05
2.63458e-07
7.62433e-05
3.85424e-07
7.63045e-05
4.75155e-07
8.0532e-05
5.06503e-07
7.02293e-05
4.88795e-07
6.12538e-05
4.43507e-07
5.342e-05
3.8193e-07
4.65475e-05
3.12796e-07
4.05561e-05
2.41502e-07
3.53208e-05
1.71482e-07
3.07101e-05
1.04699e-07
2.66032e-05
4.21467e-08
2.29514e-05
-1.36513e-08
1.96171e-05
-5.50091e-08
1.66009e-05
-7.00581e-08
1.38817e-05
-5.15475e-08
1.13151e-05
2.18443e-07
7.6235e-05
3.38723e-07
7.629e-05
4.20551e-07
7.63591e-05
4.44762e-07
8.05937e-05
4.32303e-07
7.02858e-05
3.91018e-07
6.13063e-05
3.31265e-07
5.34707e-05
2.62449e-07
4.65979e-05
1.9087e-07
4.06067e-05
1.21001e-07
3.53713e-05
5.59535e-08
3.07588e-05
-2.47417e-09
2.66478e-05
-5.30527e-08
2.29908e-05
-9.28525e-08
1.9655e-05
-1.14468e-07
1.66453e-05
-1.08019e-07
1.39382e-05
-6.89547e-08
1.1384e-05
1.80619e-07
7.62298e-05
2.96586e-07
7.62772e-05
3.69904e-07
7.63407e-05
3.88474e-07
7.64154e-05
3.66963e-07
8.06591e-05
3.28062e-07
7.03488e-05
2.69112e-07
6.13685e-05
1.99364e-07
5.35337e-05
1.25919e-07
4.66628e-05
5.40633e-08
4.06737e-05
-1.21533e-08
3.54394e-05
-6.99036e-08
3.08262e-05
-1.17438e-07
2.67122e-05
-1.53461e-07
2.30515e-05
-1.74915e-07
1.97154e-05
-1.75057e-07
1.67123e-05
-1.46195e-07
1.40154e-05
-8.6302e-08
1.14703e-05
1.49021e-07
7.62216e-05
2.58634e-07
7.62678e-05
3.23164e-07
7.63239e-05
3.35257e-07
7.63939e-05
3.06757e-07
7.64756e-05
2.55298e-07
8.07318e-05
1.95589e-07
7.04223e-05
1.2357e-07
6.14443e-05
4.66966e-08
5.3613e-05
-2.89473e-08
4.67458e-05
-9.85929e-08
4.07601e-05
-1.58528e-07
3.5528e-05
-2.06157e-07
3.0915e-05
-2.39882e-07
2.67986e-05
-2.58564e-07
2.31351e-05
-2.59247e-07
1.97996e-05
-2.36255e-07
1.68024e-05
-1.84221e-07
1.41133e-05
-1.03329e-07
1.15737e-05
1.22816e-07
7.62162e-05
2.24521e-07
7.62557e-05
2.80213e-07
7.63107e-05
2.85504e-07
7.63736e-05
2.49494e-07
7.64511e-05
1.88175e-07
7.65427e-05
1.11324e-07
8.08161e-05
3.51954e-08
7.05107e-05
-4.68316e-08
6.15378e-05
-1.28152e-07
5.37122e-05
-2.03239e-07
4.68505e-05
-2.67688e-07
4.08693e-05
-3.18164e-07
3.564e-05
-3.52341e-07
3.10274e-05
-3.69078e-07
2.69091e-05
-3.67463e-07
2.32433e-05
-3.44963e-07
1.99083e-05
-2.97401e-07
1.69156e-05
-2.21613e-07
1.42316e-05
-1.19847e-07
1.16935e-05
1.01196e-07
7.62116e-05
1.93904e-07
7.62468e-05
2.40918e-07
7.6295e-05
2.39391e-07
7.63568e-05
1.95867e-07
7.64273e-05
1.2435e-07
7.6515e-05
3.39585e-08
7.66201e-05
-6.50445e-08
8.09164e-05
-1.54518e-07
7.06184e-05
-2.4367e-07
6.16533e-05
-3.26424e-07
5.38354e-05
-3.97572e-07
4.69803e-05
-4.53234e-07
4.10043e-05
-4.90424e-07
3.57781e-05
-5.0753e-07
3.11659e-05
-5.0382e-07
2.70455e-05
-4.7886e-07
2.33772e-05
-4.31031e-07
2.0042e-05
-3.57693e-07
1.70517e-05
-2.57859e-07
1.43696e-05
-1.35522e-07
1.1829e-05
8.47405e-08
6.95985e-05
1.66487e-07
7.6239e-05
2.05122e-07
7.62826e-05
1.96999e-07
7.63374e-05
1.4627e-07
7.64064e-05
6.4764e-08
7.64869e-05
-3.93009e-08
7.65882e-05
-1.56427e-07
7.67115e-05
-2.75487e-07
8.10373e-05
-3.75333e-07
7.075e-05
-4.6838e-07
6.17953e-05
-5.48776e-07
5.39866e-05
-6.11938e-07
4.71391e-05
-6.54415e-07
4.11683e-05
-6.74179e-07
3.59448e-05
-6.70198e-07
3.13323e-05
-6.42396e-07
2.7209e-05
-5.91308e-07
2.35375e-05
-5.16219e-07
2.02005e-05
-4.16244e-07
1.721e-05
-2.92341e-07
1.45264e-05
-1.50162e-07
1.19792e-05
7.21622e-08
6.25566e-05
1.44046e-07
6.96209e-05
1.727e-07
7.62715e-05
1.58358e-07
7.63213e-05
1.00936e-07
7.63827e-05
1.00121e-08
7.64612e-05
-1.07306e-07
7.65549e-05
-2.42456e-07
7.66742e-05
-3.84991e-07
7.6821e-05
-5.22062e-07
8.1184e-05
-6.28929e-07
7.09106e-05
-7.2168e-07
6.19682e-05
-7.95194e-07
5.41698e-05
-8.45333e-07
4.733e-05
-8.69886e-07
4.1364e-05
-8.67571e-07
3.61421e-05
-8.38205e-07
3.15281e-05
-7.82908e-07
2.74006e-05
-7.03065e-07
2.37243e-05
-5.99209e-07
2.03835e-05
-4.72078e-07
1.73898e-05
-3.24551e-07
1.47008e-05
-1.63299e-07
1.21425e-05
6.23736e-08
5.62278e-05
1.2586e-07
6.25748e-05
1.45957e-07
6.96476e-05
1.23478e-07
7.63063e-05
6.00132e-08
7.63622e-05
-3.95163e-08
7.64323e-05
-1.69264e-07
7.65231e-05
-3.21792e-07
7.66342e-05
-4.87479e-07
7.67767e-05
-6.54082e-07
7.6953e-05
-8.06751e-07
8.13619e-05
-9.16114e-07
7.1105e-05
-1.00358e-06
6.21766e-05
-1.06448e-06
5.4389e-05
-1.09619e-06
4.75563e-05
-1.09743e-06
4.15939e-05
-1.06799e-06
3.63719e-05
-1.00917e-06
3.17543e-05
-9.23082e-07
2.76206e-05
-8.12334e-07
2.39375e-05
-6.7856e-07
2.05899e-05
-5.24295e-07
1.75895e-05
-3.53529e-07
1.48911e-05
-1.74171e-07
1.23167e-05
5.46395e-08
5.05397e-05
1.11014e-07
5.62426e-05
1.24178e-07
6.25965e-05
9.4911e-08
6.96762e-05
2.35983e-08
7.63428e-05
-8.3563e-08
7.64062e-05
-2.24625e-07
7.64876e-05
-3.93442e-07
7.65948e-05
-5.8141e-07
7.67281e-05
-7.77026e-07
7.68997e-05
-9.65999e-07
7.71122e-05
-1.1305e-06
8.15763e-05
-1.23695e-06
7.13384e-05
-1.31269e-06
6.24248e-05
-1.35485e-06
5.46476e-05
-1.3619e-06
4.78207e-05
-1.33393e-06
4.18598e-05
-1.27256e-06
3.66353e-05
-1.18028e-06
3.20115e-05
-1.0606e-06
2.78689e-05
-9.17125e-07
2.4176e-05
-7.52947e-07
2.08186e-05
-5.71502e-07
1.78075e-05
-3.78627e-07
1.50955e-05
-1.82751e-07
1.24994e-05
4.84475e-08
4.54262e-05
9.88044e-08
5.05519e-05
1.06355e-07
5.62605e-05
7.18954e-08
6.26196e-05
-5.67263e-09
6.97055e-05
-1.21951e-07
7.63811e-05
-2.73007e-07
7.64546e-05
-4.5668e-07
7.65509e-05
-6.6558e-07
7.6679e-05
-8.89124e-07
7.68402e-05
-1.11373e-06
7.70474e-05
-1.32186e-06
7.73036e-05
-1.4935e-06
8.18328e-05
-1.58989e-06
7.16156e-05
-1.64698e-06
6.27169e-05
-1.66327e-06
5.4949e-05
-1.63881e-06
4.81256e-05
-1.57599e-06
4.21633e-05
-1.47787e-06
3.69329e-05
-1.34863e-06
3.22996e-05
-1.19286e-06
2.81446e-05
-1.01563e-06
2.44387e-05
-8.20519e-07
2.10676e-05
-6.12892e-07
1.80418e-05
-3.96348e-07
1.53091e-05
-1.5058e-07
1.265e-05
4.34292e-08
4.0831e-05
8.86935e-08
4.54363e-05
9.16937e-08
5.05666e-05
5.3334e-08
5.6279e-05
-2.87232e-08
6.26426e-05
-1.51969e-07
6.97355e-05
-3.14146e-07
7.64223e-05
-5.10987e-07
7.65089e-05
-7.39066e-07
7.66243e-05
-9.88938e-07
7.67788e-05
-1.24791e-06
7.69744e-05
-1.49891e-06
7.72245e-05
-1.722e-06
7.75321e-05
-1.89404e-06
8.2137e-05
-1.97271e-06
7.19413e-05
-2.00306e-06
6.30567e-05
-1.98554e-06
5.52957e-05
-1.92297e-06
4.84726e-05
-1.81954e-06
4.25049e-05
-1.68037e-06
3.72646e-05
-1.51096e-06
3.26177e-05
-1.31751e-06
2.84465e-05
-1.10551e-06
2.47237e-05
-8.79995e-07
2.13347e-05
-6.43457e-07
1.82889e-05
-3.91177e-07
1.55497e-05
-1.01765e-07
1.27518e-05
3.93139e-08
3.67001e-05
8.02799e-08
4.08394e-05
7.95735e-08
4.54484e-05
3.83483e-08
5.05816e-05
-4.68139e-08
5.62971e-05
-1.74806e-07
6.26654e-05
-3.45237e-07
6.97666e-05
-5.55991e-07
7.64673e-05
-8.01184e-07
7.6571e-05
-1.07532e-06
7.67107e-05
-1.36682e-06
7.68977e-05
-1.65931e-06
7.71348e-05
-1.9331e-06
7.74356e-05
-2.16467e-06
7.78027e-05
-2.32979e-06
8.2494e-05
-2.38161e-06
7.23199e-05
-2.3761e-06
6.34472e-05
-2.31706e-06
5.56898e-05
-2.20954e-06
4.88626e-05
-2.0603e-06
4.28849e-05
-1.87611e-06
3.76298e-05
-1.66436e-06
3.29645e-05
-1.43175e-06
2.87727e-05
-1.18496e-06
2.50287e-05
-9.26549e-07
2.16178e-05
-6.56199e-07
1.85539e-05
-3.67102e-07
1.5815e-05
-8.16718e-08
1.28334e-05
3.59028e-08
3.29894e-05
7.32556e-08
3.67071e-05
6.95222e-08
4.08495e-05
2.62334e-08
4.54605e-05
-6.09652e-08
5.05957e-05
-1.91979e-07
5.63143e-05
-3.67839e-07
6.2688e-05
-5.88747e-07
6.97993e-05
-8.51436e-07
7.65175e-05
-1.1474e-06
7.66431e-05
-1.46907e-06
7.6813e-05
-1.80104e-06
7.70394e-05
-2.12409e-06
7.73258e-05
-2.41455e-06
7.76854e-05
-2.64749e-06
7.81204e-05
-2.79659e-06
8.2909e-05
-2.81114e-06
7.27549e-05
-2.76078e-06
6.3891e-05
-2.65218e-06
5.61324e-05
-2.49351e-06
4.92958e-05
-2.29363e-06
4.33024e-05
-2.06161e-06
3.8027e-05
-1.80553e-06
3.33383e-05
-1.53324e-06
2.9121e-05
-1.24968e-06
2.53518e-05
-9.55407e-07
2.1917e-05
-6.55817e-07
1.88426e-05
-3.45574e-07
1.60789e-05
-7.66915e-08
1.29101e-05
3.30497e-08
2.96509e-05
6.73668e-08
3.29953e-05
6.11723e-08
3.67155e-05
1.6404e-08
4.08593e-05
-7.20006e-08
4.54716e-05
-2.0472e-07
5.06085e-05
-3.83824e-07
5.63303e-05
-6.11296e-07
6.27106e-05
-8.86661e-07
6.98346e-05
-1.20451e-06
7.65746e-05
-1.55356e-06
7.67276e-05
-1.92239e-06
7.69343e-05
-2.29261e-06
7.72079e-05
-2.64061e-06
7.75519e-05
-2.94097e-06
7.79789e-05
-3.16606e-06
7.84899e-05
-3.28829e-06
8.33862e-05
-3.25525e-06
7.32494e-05
-3.15068e-06
6.43895e-05
-2.98515e-06
5.66241e-05
-2.76949e-06
4.97717e-05
-2.51542e-06
4.37562e-05
-2.23302e-06
3.84545e-05
-1.93167e-06
3.37367e-05
-1.61819e-06
2.94895e-05
-1.29591e-06
2.56923e-05
-9.71706e-07
2.22329e-05
-6.51663e-07
1.91487e-05
-3.34813e-07
1.63371e-05
-8.22528e-08
1.29924e-05
3.06454e-08
2.66504e-05
6.24026e-08
2.96558e-05
5.42181e-08
3.30023e-05
8.38762e-09
3.67235e-05
-8.05864e-08
4.08679e-05
-2.14014e-07
4.54809e-05
-3.94702e-07
5.06194e-05
-6.25967e-07
5.63449e-05
-9.09496e-07
6.27334e-05
-1.24319e-06
6.98732e-05
-1.61942e-06
7.66405e-05
-2.022e-06
7.68272e-05
-2.4366e-06
7.70783e-05
-2.84006e-06
7.74074e-05
-3.2067e-06
7.78176e-05
-3.50779e-06
7.83206e-05
-3.71372e-06
7.89153e-05
-3.79829e-06
8.39292e-05
-3.70675e-06
7.38054e-05
-3.53925e-06
6.49436e-05
-3.30975e-06
5.71644e-05
-3.03264e-06
5.02889e-05
-2.7212e-06
4.42444e-05
-2.38707e-06
3.89099e-05
-2.03929e-06
3.41578e-05
-1.68355e-06
2.98772e-05
-1.32806e-06
2.60487e-05
-9.82748e-07
2.2564e-05
-6.49346e-07
1.94632e-05
-3.33781e-07
1.65886e-05
-1.1147e-07
1.31039e-05
2.8606e-08
2.3956e-05
5.81934e-08
2.66546e-05
4.84034e-08
2.96616e-05
1.82291e-09
3.30088e-05
-8.72546e-08
3.67302e-05
-2.2065e-07
4.08745e-05
-4.01684e-07
4.54878e-05
-6.3464e-07
5.0628e-05
-9.22844e-07
5.63583e-05
-1.26679e-06
6.2757e-05
-1.66277e-06
6.99166e-05
-2.09877e-06
7.67173e-05
-2.55436e-06
7.6945e-05
-3.01043e-06
7.72487e-05
-3.44141e-06
7.76421e-05
-3.81771e-06
7.81275e-05
-4.10798e-06
7.87149e-05
-4.28343e-06
7.94005e-05
-4.31856e-06
8.4541e-05
-4.15821e-06
7.44244e-05
-3.91926e-06
6.55531e-05
-3.62028e-06
5.7752e-05
-3.27782e-06
5.08455e-05
-2.9072e-06
4.47645e-05
-2.52041e-06
3.9391e-05
-2.12585e-06
3.46001e-05
-1.73271e-06
3.02818e-05
-1.35242e-06
2.64183e-05
-9.91934e-07
2.29066e-05
-6.50276e-07
1.97797e-05
-4.15644e-07
1.68928e-05
-1.20292e-07
1.32242e-05
2.68662e-08
2.15337e-05
5.46058e-08
2.39596e-05
4.35167e-08
2.66595e-05
-3.56403e-09
2.9667e-05
-9.24224e-08
3.3014e-05
-2.25249e-07
3.67348e-05
-4.05724e-07
4.08786e-05
-6.38812e-07
4.5492e-05
-9.29047e-07
5.06342e-05
-1.2789e-06
5.63704e-05
-1.68778e-06
6.2782e-05
-2.14824e-06
6.99661e-05
-2.64452e-06
7.68074e-05
-3.14965e-06
7.70842e-05
-3.64219e-06
7.74495e-05
-4.09209e-06
7.79165e-05
-4.46649e-06
7.8486e-05
-4.73422e-06
7.91657e-05
-4.86657e-06
7.99485e-05
-4.84075e-06
8.52236e-05
-4.60134e-06
7.51065e-05
-4.28416e-06
6.6217e-05
-3.91086e-06
5.8385e-05
-3.50069e-06
5.1439e-05
-3.07005e-06
4.53141e-05
-2.63077e-06
3.98959e-05
-2.19373e-06
3.50611e-05
-1.77079e-06
3.07002e-05
-1.37173e-06
2.67981e-05
-9.99687e-07
2.3256e-05
-8.05549e-07
2.01696e-05
-4.17135e-07
1.71896e-05
-1.30328e-07
1.33545e-05
2.53749e-08
1.93535e-05
5.15338e-08
2.15368e-05
3.93884e-08
2.39638e-05
-7.99223e-09
2.66639e-05
-9.64131e-08
2.9671e-05
-2.28298e-07
3.3017e-05
-4.07573e-07
3.67366e-05
-6.39661e-07
4.08794e-05
-9.29963e-07
4.54929e-05
-1.28244e-06
5.06378e-05
-1.69888e-06
5.63815e-05
-2.17551e-06
6.28093e-05
-2.70184e-06
7.00234e-05
-3.256e-06
7.69138e-05
-3.80651e-06
7.72485e-05
-4.32747e-06
7.76849e-05
-4.78491e-06
7.82349e-05
-5.1455e-06
7.88973e-05
-5.37738e-06
7.96765e-05
-5.45396e-06
8.05617e-05
-5.35544e-06
8.59777e-05
-5.02862e-06
7.58509e-05
-4.62719e-06
6.69333e-05
-4.17651e-06
5.90609e-05
-3.69767e-06
5.20666e-05
-3.20748e-06
4.58908e-05
-2.71957e-06
4.04218e-05
-2.24687e-06
3.55372e-05
-1.80007e-06
3.11285e-05
-1.38613e-06
2.71846e-05
-1.24142e-06
2.36919e-05
-8.00771e-07
2.05533e-05
-4.19012e-07
1.74783e-05
-1.38121e-07
1.34926e-05
1.73973e-05
2.40909e-08
4.88925e-08
1.93561e-05
3.58836e-08
2.15403e-05
-1.16417e-08
2.39674e-05
-9.94795e-08
2.6667e-05
-2.30177e-07
2.96729e-05
-4.07815e-07
3.30173e-05
-6.38108e-07
3.67351e-05
-9.27055e-07
4.08765e-05
-1.2797e-06
4.54902e-05
-1.69965e-06
5.06385e-05
-2.18598e-06
5.6392e-05
-2.73248e-06
6.284e-05
-3.32323e-06
7.00906e-05
-3.93225e-06
7.70395e-05
-4.52082e-06
7.74419e-05
-5.0592e-06
7.79592e-05
-5.51232e-06
7.86017e-05
-5.84525e-06
7.93652e-05
-6.02765e-06
8.02502e-05
-6.0353e-06
8.12415e-05
-5.85413e-06
8.68032e-05
-5.43231e-06
7.66561e-05
-4.9426e-06
6.76994e-05
-4.4132e-06
5.97764e-05
-3.86624e-06
5.27254e-05
-3.32001e-06
4.64913e-05
-2.78966e-06
4.09646e-05
-2.28712e-06
3.60243e-05
-1.82076e-06
3.15632e-05
-1.72392e-06
2.76671e-05
-1.23365e-06
2.41247e-05
-7.93229e-07
2.09275e-05
-4.18328e-07
1.77585e-05
-1.43157e-07
1.36358e-05
1.73996e-05
4.66095e-08
2.78121e-05
2.20129e-08
3.28947e-08
1.93591e-05
-1.46581e-08
2.15433e-05
-1.01821e-07
2.39697e-05
-2.3118e-07
2.6668e-05
-4.06904e-07
2.9672e-05
-6.34864e-07
3.3014e-05
-9.21457e-07
3.67295e-05
-1.27249e-06
4.08693e-05
-1.69291e-06
4.54835e-05
-2.18401e-06
5.06366e-05
-2.74293e-06
5.64024e-05
-3.35865e-06
6.28754e-05
-4.01186e-06
7.01702e-05
-4.6695e-06
7.71882e-05
-5.28575e-06
7.76684e-05
-5.82998e-06
7.82768e-05
-6.26459e-06
7.90211e-05
-6.55548e-06
7.9893e-05
-6.67394e-06
8.08888e-05
-6.60119e-06
8.19886e-05
-6.32795e-06
8.76988e-05
-5.80576e-06
7.75192e-05
-5.22573e-06
6.85119e-05
-4.61796e-06
6.05281e-05
-4.00607e-06
5.34114e-05
-3.4095e-06
4.71111e-05
-2.84242e-06
4.15199e-05
-2.31471e-06
3.65182e-05
-2.26553e-06
3.21048e-05
-1.71422e-06
2.81476e-05
-1.21831e-06
2.45498e-05
-7.81175e-07
2.12903e-05
-4.14192e-07
1.80295e-05
-1.4555e-07
1.37813e-05
1.74021e-05
3.03367e-08
2.78157e-05
4.29509e-08
2.8552e-05
2.00351e-08
-1.71591e-08
1.93616e-05
-1.03595e-07
2.15451e-05
-2.31536e-07
2.39701e-05
-4.05185e-07
2.66663e-05
-6.30478e-07
2.96676e-05
-9.14044e-07
3.30066e-05
-1.26221e-06
3.67192e-05
-1.6809e-06
4.08573e-05
-2.17304e-06
4.54725e-05
-2.73842e-06
5.06321e-05
-3.36996e-06
5.64137e-05
-4.05385e-06
6.29174e-05
-4.76436e-06
7.02651e-05
-5.46134e-06
7.73638e-05
-6.09419e-06
7.79326e-05
-6.63e-06
7.86422e-05
-7.03118e-06
7.94968e-05
-7.26446e-06
8.04835e-05
-7.30609e-06
8.15937e-05
-7.14176e-06
8.28024e-05
-6.76916e-06
8.86622e-05
-6.14344e-06
7.84369e-05
-5.47292e-06
6.93669e-05
-4.78961e-06
6.13117e-05
-4.1181e-06
5.412e-05
-3.47686e-06
4.77455e-05
-2.87815e-06
4.20833e-05
-2.88076e-06
3.71335e-05
-2.25326e-06
3.26438e-05
-1.69188e-06
2.86212e-05
-1.19514e-06
2.49638e-05
-7.64116e-07
2.16403e-05
-4.0666e-07
1.82907e-05
-1.45587e-07
1.39269e-05
1.74042e-05
-1.92415e-08
2.78193e-05
2.68032e-08
2.85555e-05
3.94385e-08
2.93119e-05
1.81602e-08
-1.04926e-07
1.9363e-05
-2.31422e-07
2.1545e-05
-4.02924e-07
2.39678e-05
-6.25363e-07
2.66612e-05
-9.05483e-07
2.9659e-05
-1.24994e-06
3.29943e-05
-1.66532e-06
3.67036e-05
-2.15579e-06
4.084e-05
-2.72314e-06
4.54572e-05
-3.36339e-06
5.06255e-05
-4.06725e-06
5.64271e-05
-4.81513e-06
6.29681e-05
-5.57476e-06
7.03785e-05
-6.30104e-06
7.75707e-05
-6.93644e-06
7.82391e-05
-7.44862e-06
7.90597e-05
-7.79989e-06
8.00322e-05
-7.96136e-06
8.11388e-05
-7.91325e-06
8.23652e-05
-7.64823e-06
8.36815e-05
-7.17119e-06
8.969e-05
-6.44082e-06
7.94048e-05
-5.68213e-06
7.02594e-05
-4.92827e-06
6.21218e-05
-4.2028e-06
5.4846e-05
-3.52243e-06
4.83898e-05
-3.58291e-06
4.27855e-05
-2.86538e-06
3.77456e-05
-2.22328e-06
3.31752e-05
-1.65783e-06
2.90839e-05
-1.1645e-06
2.53642e-05
-7.42483e-07
2.19761e-05
-3.96075e-07
1.85411e-05
-1.43688e-07
1.40706e-05
1.74052e-05
-1.05911e-07
2.78211e-05
-2.10236e-08
2.85588e-05
2.34988e-08
2.93152e-05
3.60782e-08
3.00898e-05
1.63892e-08
-2.30972e-07
1.93625e-05
-4.00323e-07
2.15424e-05
-6.19832e-07
2.39623e-05
-8.96275e-07
2.6652e-05
-1.23648e-06
2.96456e-05
-1.6475e-06
3.29765e-05
-2.13436e-06
3.66822e-05
-2.70036e-06
4.08173e-05
-3.34393e-06
4.54378e-05
-4.0594e-06
5.06176e-05
-4.83226e-06
5.64443e-05
-5.637e-06
6.30304e-05
-6.43686e-06
7.05143e-05
-7.17922e-06
7.78134e-05
-7.80194e-06
7.85924e-05
-8.27335e-06
7.95331e-05
-8.5594e-06
8.06302e-05
-8.63448e-06
8.186e-05
-8.48567e-06
8.32027e-05
-8.11301e-06
8.46233e-05
-7.52843e-06
9.07776e-05
-6.69491e-06
8.04176e-05
-5.85267e-06
7.11838e-05
-5.03391e-06
6.29529e-05
-4.26051e-06
5.55841e-05
-4.38663e-06
4.91935e-05
-3.56439e-06
4.34845e-05
-2.82681e-06
3.83491e-05
-2.17747e-06
3.36948e-05
-1.61327e-06
2.95327e-05
-1.1275e-06
2.57492e-05
-7.16961e-07
2.2297e-05
-3.82983e-07
1.87804e-05
-1.40266e-07
1.42108e-05
1.74045e-05
-2.30293e-07
2.78194e-05
-1.04261e-07
2.85603e-05
-2.25142e-08
2.93183e-05
2.04237e-08
3.0093e-05
3.28722e-08
3.08897e-05
1.47225e-08
-3.9753e-07
1.93597e-05
-6.14116e-07
2.15367e-05
-8.86792e-07
2.39528e-05
-1.22246e-06
2.66379e-05
-1.62844e-06
2.96265e-05
-2.11035e-06
3.29525e-05
-2.67262e-06
3.66544e-05
-3.31551e-06
4.07888e-05
-4.03619e-06
4.54145e-05
-4.8243e-06
5.06097e-05
-5.65999e-06
5.64673e-05
-6.51377e-06
6.31073e-05
-7.34168e-06
7.06768e-05
-8.0856e-06
7.80971e-05
-8.67814e-06
7.89972e-05
-9.09255e-06
8.00663e-05
-9.29728e-06
8.1293e-05
-9.27319e-06
8.26475e-05
-9.01476e-06
8.41044e-05
-8.52941e-06
8.56243e-05
-7.83679e-06
9.19195e-05
-6.90418e-06
8.14691e-05
-5.98403e-06
7.21339e-05
-5.10686e-06
6.37993e-05
-5.30868e-06
5.65061e-05
-4.36543e-06
4.99946e-05
-3.51656e-06
4.41742e-05
-2.76792e-06
3.89395e-05
-2.11785e-06
3.41994e-05
-1.56003e-06
2.99652e-05
-1.08536e-06
2.61176e-05
-6.884e-07
2.26024e-05
-3.67964e-07
1.90081e-05
-1.35694e-07
1.43465e-05
1.74016e-05
-3.94658e-07
2.78127e-05
-2.23574e-07
2.85582e-05
-1.02202e-07
2.93195e-05
-2.36999e-08
3.00958e-05
1.75814e-08
3.08927e-05
2.98252e-08
3.17096e-05
1.3159e-08
-6.08386e-07
1.9354e-05
-8.77306e-07
2.15272e-05
-1.20832e-06
2.39387e-05
-1.60887e-06
2.66184e-05
-2.08498e-06
2.96011e-05
-2.64186e-06
3.29218e-05
-3.28117e-06
3.66201e-05
-4.00226e-06
4.07549e-05
-4.79811e-06
4.53884e-05
-5.65354e-06
5.06032e-05
-6.54527e-06
5.64987e-05
-7.437e-06
6.32026e-05
-8.27936e-06
7.08705e-05
-9.00776e-06
7.84267e-05
-9.55323e-06
7.94578e-05
-9.89323e-06
8.06622e-05
-1.00021e-05
8.20219e-05
-9.86796e-06
8.35007e-05
-9.49283e-06
8.50678e-05
-8.89241e-06
8.66799e-05
-8.09385e-06
9.31091e-05
-7.06752e-06
8.25526e-05
-6.07629e-06
7.31034e-05
-6.36791e-06
6.48585e-05
-5.28583e-06
5.74265e-05
-4.30795e-06
5.0786e-05
-3.44328e-06
4.48496e-05
-2.69159e-06
3.95133e-05
-2.04699e-06
3.46864e-05
-1.50001e-06
3.03799e-05
-1.03939e-06
2.64686e-05
-6.57644e-07
2.28921e-05
-3.51578e-07
1.9224e-05
-1.30303e-07
1.44768e-05
1.7396e-05
-6.02763e-07
2.77991e-05
-3.811e-07
2.8551e-05
-2.16332e-07
2.9317e-05
-9.97525e-08
3.00967e-05
-2.45789e-08
3.08953e-05
1.49707e-08
3.17124e-05
2.69406e-08
3.25535e-05
1.17004e-08
-8.68014e-07
1.93447e-05
-1.19438e-06
2.15132e-05
-1.58934e-06
2.39192e-05
-2.05915e-06
2.65925e-05
-2.60956e-06
2.95688e-05
-3.24324e-06
3.28838e-05
-3.96124e-06
3.65791e-05
-4.75915e-06
4.07159e-05
-5.62559e-06
4.53604e-05
-6.54247e-06
5.06004e-05
-7.48019e-06
5.65419e-05
-8.39731e-06
6.33206e-05
-9.2378e-06
7.11006e-05
-9.93394e-06
7.88074e-05
-1.04139e-05
7.99785e-05
-1.06633e-05
8.13234e-05
-1.06635e-05
8.28175e-05
-1.04101e-05
8.4418e-05
-9.91385e-06
8.60893e-05
-9.19878e-06
8.77848e-05
-8.29786e-06
9.43395e-05
-7.18475e-06
8.36611e-05
-7.58392e-06
7.43194e-05
-6.34517e-06
6.59179e-05
-5.21864e-06
5.83372e-05
-4.21908e-06
5.15618e-05
-3.34839e-06
4.55064e-05
-2.60114e-06
4.00674e-05
-1.96745e-06
3.51538e-05
-1.43505e-06
3.07755e-05
-9.90786e-07
2.68017e-05
-6.25479e-07
2.3166e-05
-3.34337e-07
1.9428e-05
-1.24354e-07
1.46012e-05
1.73871e-05
-8.59051e-07
2.77767e-05
-5.80353e-07
2.85367e-05
-3.66825e-07
2.93092e-05
-2.0851e-07
3.00938e-05
-9.68798e-08
3.08959e-05
-2.51517e-08
3.17148e-05
1.25911e-08
3.25562e-05
2.42161e-08
3.34194e-05
1.03435e-08
-1.18087e-06
1.93312e-05
-1.57023e-06
2.14941e-05
-2.03352e-06
2.38935e-05
-2.5768e-06
2.65598e-05
-3.20349e-06
2.95291e-05
-3.9159e-06
3.28385e-05
-4.71167e-06
3.65316e-05
-5.58245e-06
4.06728e-05
-6.51445e-06
4.53324e-05
-7.48375e-06
5.0604e-05
-8.45595e-06
5.66006e-05
-9.38303e-06
6.34658e-05
-1.02055e-05
7.13721e-05
-1.08506e-05
7.92442e-05
-1.12475e-05
8.05626e-05
-1.13916e-05
8.20516e-05
-1.12717e-05
8.36791e-05
-1.08925e-05
8.53966e-05
-1.02737e-05
8.71642e-05
-9.44607e-06
8.8933e-05
-8.44828e-06
9.5603e-05
-8.97857e-06
8.50557e-05
-7.56427e-06
7.55385e-05
-6.2687e-06
6.69679e-05
-5.11311e-06
5.92312e-05
-4.1037e-06
5.23171e-05
-3.23608e-06
4.61414e-05
-2.49986e-06
4.05998e-05
-1.88166e-06
3.56004e-05
-1.36682e-06
3.11515e-05
-9.40638e-07
2.71169e-05
-5.92625e-07
2.34242e-05
-3.16634e-07
1.96203e-05
-1.18079e-07
1.47193e-05
1.73741e-05
-1.16795e-06
2.77431e-05
-8.2542e-07
2.85134e-05
-5.57056e-07
2.92943e-05
-3.51878e-07
3.00855e-05
-2.00194e-07
3.08926e-05
-9.36099e-08
3.17151e-05
-2.54151e-08
3.25583e-05
1.04425e-08
3.34219e-05
2.16549e-08
3.43053e-05
9.08708e-09
-1.55182e-06
1.93128e-05
-2.00854e-06
2.14692e-05
-2.54438e-06
2.38611e-05
-3.16324e-06
2.65195e-05
-3.86836e-06
2.94816e-05
-4.65895e-06
3.27858e-05
-5.52908e-06
3.64782e-05
-6.46845e-06
4.06268e-05
-7.4579e-06
4.53065e-05
-8.46912e-06
5.06172e-05
-9.46138e-06
5.66789e-05
-1.0383e-05
6.36434e-05
-1.11689e-05
7.16904e-05
-1.1745e-05
7.97417e-05
-1.20422e-05
8.12132e-05
-1.20676e-05
8.28474e-05
-1.18188e-05
8.46054e-05
-1.13102e-05
8.64331e-05
-1.05692e-05
8.82874e-05
-9.63316e-06
9.01179e-05
-1.05755e-05
9.71999e-05
-8.96736e-06
8.64588e-05
-7.48003e-06
7.67498e-05
-6.14573e-06
6.80005e-05
-4.97524e-06
6.01028e-05
-3.96697e-06
5.3048e-05
-3.11038e-06
4.67519e-05
-2.39081e-06
4.1109e-05
-1.79179e-06
3.60254e-05
-1.29677e-06
3.15077e-05
-8.8993e-07
2.74142e-05
-5.59604e-07
2.36672e-05
-2.98836e-07
1.98011e-05
-1.11656e-07
1.48309e-05
1.73566e-05
-1.53429e-06
2.76958e-05
-1.12068e-06
2.84787e-05
-7.9069e-07
2.927e-05
-5.3282e-07
3.00698e-05
-3.36201e-07
3.08838e-05
-1.91336e-07
3.17114e-05
-8.99341e-08
3.25583e-05
-2.53767e-08
3.34238e-05
8.51863e-09
3.43077e-05
1.92551e-08
3.52192e-05
7.92973e-09
-1.98455e-06
1.92888e-05
-2.51285e-06
2.14376e-05
-3.12343e-06
2.38213e-05
-3.82019e-06
2.64713e-05
-4.60349e-06
2.94261e-05
-5.46933e-06
3.2726e-05
-6.41019e-06
3.642e-05
-7.41087e-06
4.05798e-05
-8.44824e-06
4.52856e-05
-9.48799e-06
5.06438e-05
-1.04858e-05
5.67817e-05
-1.13841e-05
6.38585e-05
-1.21152e-05
7.20607e-05
-1.26046e-05
8.0304e-05
-1.27867e-05
8.19323e-05
-1.26822e-05
8.37108e-05
-1.22988e-05
8.5594e-05
-1.16591e-05
8.75231e-05
-1.07985e-05
8.94527e-05
-1.20809e-05
9.16233e-05
-1.05817e-05
9.88142e-05
-8.87914e-06
8.78579e-05
-7.33983e-06
7.79439e-05
-5.98353e-06
6.90088e-05
-4.81129e-06
6.09471e-05
-3.8138e-06
5.37514e-05
-2.97511e-06
4.73362e-05
-2.2767e-06
4.15939e-05
-1.69972e-06
3.64284e-05
-1.22622e-06
3.1844e-05
-8.39357e-07
2.76939e-05
-5.2692e-07
2.38953e-05
-2.8122e-07
1.99706e-05
-1.05214e-07
1.49361e-05
1.73338e-05
-1.96175e-06
2.76319e-05
-1.47033e-06
2.84301e-05
-1.07206e-06
2.92343e-05
-7.54911e-07
3.00447e-05
-5.07717e-07
3.08674e-05
-3.19867e-07
3.17021e-05
-1.81974e-07
3.25542e-05
-8.58684e-08
3.34235e-05
-2.50336e-08
3.43094e-05
6.8169e-09
3.52214e-05
1.70133e-08
3.61551e-05
6.86806e-09
-2.48261e-06
1.92585e-05
-3.08475e-06
2.1399e-05
-3.77252e-06
2.37736e-05
-4.54716e-06
2.6415e-05
-5.40613e-06
2.93629e-05
-6.34414e-06
3.266e-05
-7.3492e-06
3.63583e-05
-8.40256e-06
4.05341e-05
-9.47546e-06
4.52731e-05
-1.05302e-05
5.06882e-05
-1.15164e-05
5.6914e-05
-1.23733e-05
6.41166e-05
-1.30317e-05
7.24878e-05
-1.34175e-05
8.09349e-05
-1.34711e-05
8.27213e-05
-1.32286e-05
8.46406e-05
-1.27067e-05
8.66415e-05
-1.19368e-05
8.86614e-05
-1.35707e-05
9.09425e-05
-1.21124e-05
9.3154e-05
-1.04962e-05
0.000100431
-8.72376e-06
8.92418e-05
-7.15236e-06
7.91127e-05
-5.78966e-06
6.99872e-05
-4.62726e-06
6.17606e-05
-3.64885e-06
5.44251e-05
-2.83357e-06
4.7893e-05
-2.15988e-06
4.20541e-05
-1.60714e-06
3.68093e-05
-1.15608e-06
3.21607e-05
-7.89601e-07
2.79566e-05
-4.94951e-07
2.4109e-05
-2.63981e-07
2.01294e-05
-9.88578e-08
1.5035e-05
1.73051e-05
-2.45391e-06
2.7548e-05
-1.87792e-06
2.83643e-05
-1.4046e-06
2.91841e-05
-1.02186e-06
3.00077e-05
-7.17906e-07
3.08415e-05
-4.81744e-07
3.16851e-05
-3.02906e-07
3.25444e-05
-1.72123e-07
3.34191e-05
-8.14213e-08
3.43087e-05
-2.43896e-08
3.52229e-05
5.33036e-09
3.61572e-05
1.49243e-08
3.6589e-05
5.91201e-09
-3.04766e-06
1.92215e-05
-3.72617e-06
2.13526e-05
-4.49133e-06
2.37178e-05
-5.34168e-06
2.63506e-05
-6.2737e-06
2.92925e-05
-7.27802e-06
3.25888e-05
-8.33948e-06
3.62952e-05
-9.43408e-06
4.04927e-05
-1.053e-05
4.52729e-05
-1.15833e-05
5.07551e-05
-1.25404e-05
5.70811e-05
-1.3338e-05
6.44228e-05
-1.3906e-05
7.29763e-05
-1.41732e-05
8.16369e-05
-1.40878e-05
8.35805e-05
-1.3701e-05
8.5635e-05
-1.30392e-05
8.77439e-05
-1.50366e-05
9.01273e-05
-1.36375e-05
9.24676e-05
-1.20383e-05
9.46962e-05
-1.03302e-05
0.000102038
-8.51119e-06
9.06007e-05
-6.9265e-06
8.02496e-05
-5.57134e-06
7.09313e-05
-4.42876e-06
6.25405e-05
-3.47614e-06
5.50677e-05
-2.68867e-06
4.84218e-05
-2.04247e-06
4.24894e-05
-1.5152e-06
3.71684e-05
-1.08725e-06
3.24583e-05
-7.41161e-07
2.82028e-05
-4.63943e-07
2.4309e-05
-2.47279e-07
2.02778e-05
-9.26707e-08
1.51277e-05
1.72699e-05
-3.01248e-06
2.74409e-05
-2.34677e-06
2.82788e-05
-1.79234e-06
2.91168e-05
-1.33732e-06
2.99563e-05
-9.70411e-07
3.08035e-05
-6.79956e-07
3.16583e-05
-4.54959e-07
3.25268e-05
-2.85296e-07
3.34087e-05
-1.61806e-07
3.43039e-05
-7.66127e-08
3.52219e-05
-2.34437e-08
3.61584e-05
4.05601e-09
3.65909e-05
1.3004e-08
3.55528e-05
5.08497e-09
-3.68173e-06
1.9177e-05
-4.43697e-06
2.12983e-05
-5.27761e-06
2.36537e-05
-6.20148e-06
2.62783e-05
-7.20127e-06
2.92157e-05
-8.26482e-06
3.25141e-05
-9.37213e-06
3.62333e-05
-1.04964e-05
4.04591e-05
-1.15997e-05
4.52893e-05
-1.2635e-05
5.08497e-05
-1.35452e-05
5.72883e-05
-1.42655e-05
6.47823e-05
-1.47269e-05
7.353e-05
-1.48631e-05
8.24122e-05
-1.46299e-05
8.45094e-05
-1.40953e-05
8.6691e-05
-1.64685e-05
8.91759e-05
-1.51503e-05
9.16401e-05
-1.35851e-05
9.40144e-05
-1.18708e-05
9.62368e-05
-1.00952e-05
0.000103622
-8.25185e-06
9.1926e-05
-6.67068e-06
8.13489e-05
-5.33529e-06
7.18378e-05
-4.22067e-06
6.3285e-05
-3.29923e-06
5.56783e-05
-2.54301e-06
4.89224e-05
-1.92589e-06
4.29001e-05
-1.42503e-06
3.75062e-05
-1.02036e-06
3.27375e-05
-6.94346e-07
2.84332e-05
-4.34106e-07
2.44958e-05
-2.31241e-07
2.04164e-05
-8.67075e-08
1.52144e-05
1.72277e-05
-3.63953e-06
2.73076e-05
-2.87919e-06
2.81697e-05
-2.23769e-06
2.9029e-05
-1.70456e-06
2.98874e-05
-1.26845e-06
3.07508e-05
-9.17669e-07
3.16193e-05
-6.40993e-07
3.24993e-05
-4.27479e-07
3.33906e-05
-2.67159e-07
3.42932e-05
-1.51079e-07
3.52168e-05
-7.14705e-08
3.61572e-05
-2.22244e-08
3.65919e-05
3.00188e-09
3.55545e-05
1.1299e-08
3.45447e-05
4.36698e-09
-4.38477e-06
1.91248e-05
-5.21509e-06
2.12357e-05
-6.12937e-06
2.35816e-05