/*--------------------------------*- C++ -*----------------------------------*\
  =========                 |
  \\      /  F ield         | OpenFOAM: The Open Source CFD Toolbox
   \\    /   O peration     | Website:  https://openfoam.org
    \\  /    A nd           | Version:  8
     \\/     M anipulation  |
\*---------------------------------------------------------------------------*/
FoamFile
{
    version     2.0;
    format      ascii;
    class       surfaceScalarField;
    location    "0.49";
    object      phi;
}
// * * * * * * * * * * * * * * * * * * * * * * * * * * * * * * * * * * * * * //

dimensions      [0 3 -1 0 0 0 0];

internalField   nonuniform List<scalar> 
31053
(
6.39879e-07
1.27401e-05
8.62627e-07
1.51573e-05
3.56916e-07
1.23832e-05
9.47979e-07
1.75546e-05
5.66555e-07
1.49476e-05
2.74739e-07
1.21085e-05
9.72326e-07
2.02157e-05
6.80708e-07
1.74405e-05
4.6999e-07
1.47524e-05
2.16216e-07
1.18923e-05
9.63335e-07
2.3249e-05
7.38772e-07
2.01576e-05
5.95213e-07
1.73153e-05
3.95924e-07
1.45727e-05
1.71935e-07
1.17203e-05
9.32993e-07
2.66903e-05
7.63081e-07
2.32247e-05
6.69546e-07
2.00833e-05
5.22577e-07
1.71886e-05
3.32133e-07
1.44125e-05
1.37866e-07
1.15824e-05
8.87111e-07
3.06659e-05
7.65407e-07
2.6688e-05
7.10682e-07
2.31835e-05
6.02774e-07
2.00031e-05
4.53779e-07
1.7067e-05
2.78472e-07
1.42718e-05
1.11119e-07
1.14713e-05
8.28907e-07
3.51982e-05
7.52187e-07
3.06791e-05
7.29486e-07
2.66692e-05
6.5004e-07
2.31363e-05
5.34179e-07
1.99227e-05
3.9136e-07
1.69541e-05
2.32162e-07
1.41508e-05
8.89911e-08
1.13823e-05
7.62051e-07
4.03869e-05
7.27438e-07
3.5223e-05
7.32353e-07
3.06762e-05
6.7442e-07
2.66448e-05
5.82416e-07
2.3088e-05
4.68404e-07
1.98456e-05
3.33711e-07
1.68525e-05
1.90805e-07
1.4049e-05
6.96566e-08
1.13127e-05
6.88942e-07
4.63531e-05
6.92397e-07
4.04219e-05
7.22986e-07
3.52323e-05
6.81888e-07
3.06688e-05
6.07502e-07
2.66197e-05
5.14504e-07
2.30419e-05
4.04477e-07
1.97748e-05
2.79111e-07
1.67642e-05
1.52589e-07
1.39661e-05
5.19683e-08
1.12607e-05
6.11509e-07
5.32174e-05
6.48709e-07
4.63968e-05
7.01831e-07
4.04431e-05
6.75478e-07
3.52387e-05
6.15354e-07
3.06609e-05
5.37304e-07
2.65969e-05
4.45801e-07
2.30006e-05
3.41162e-07
1.97128e-05
2.26133e-07
1.66907e-05
1.16223e-07
1.39018e-05
3.51563e-08
1.12256e-05
5.31795e-07
6.10597e-05
5.98034e-07
5.32681e-05
6.69541e-07
4.64291e-05
6.57946e-07
4.04606e-05
6.09362e-07
3.52447e-05
5.42565e-07
3.06557e-05
4.63774e-07
2.6579e-05
3.75399e-07
2.29664e-05
2.77261e-07
1.96617e-05
1.73674e-07
1.66332e-05
8.07745e-08
1.38562e-05
1.8713e-08
1.12068e-05
4.5175e-07
7.0062e-05
5.4186e-07
6.11159e-05
6.27097e-07
5.33106e-05
6.30092e-07
4.64569e-05
5.91714e-07
4.04782e-05
5.33742e-07
3.52535e-05
4.63773e-07
3.06557e-05
3.86268e-07
2.65681e-05
3.02155e-07
2.29415e-05
2.11759e-07
1.96236e-05
1.2095e-07
1.65931e-05
4.55724e-08
1.38293e-05
2.46122e-09
1.12044e-05
3.73283e-07
8.04105e-05
4.8152e-07
7.01224e-05
5.75618e-07
6.11674e-05
5.92026e-07
5.33486e-05
5.63425e-07
4.64852e-05
5.12779e-07
4.04992e-05
4.49173e-07
3.52681e-05
3.78574e-07
3.06633e-05
3.03639e-07
2.65666e-05
2.25039e-07
2.29282e-05
1.43991e-07
1.96005e-05
6.73769e-08
1.65713e-05
1.02596e-08
1.38215e-05
-1.37866e-08
1.12182e-05
3.10106e-07
7.62532e-05
4.18137e-07
8.04739e-05
5.16434e-07
7.01816e-05
5.44043e-07
6.12153e-05
5.24744e-07
5.33873e-05
4.80635e-07
4.65174e-05
4.21821e-07
4.05265e-05
3.55525e-07
3.52912e-05
2.85829e-07
3.06812e-05
2.14809e-07
2.65768e-05
1.43396e-07
2.29288e-05
7.34698e-08
1.95945e-05
1.26481e-08
1.65689e-05
-2.53404e-08
1.38331e-05
-3.01921e-08
1.12484e-05
2.56262e-07
7.62438e-05
3.63557e-07
7.63078e-05
4.51085e-07
8.05392e-05
4.86804e-07
7.02388e-05
4.75747e-07
6.12643e-05
4.37618e-07
5.34303e-05
3.82582e-07
4.65566e-05
3.18868e-07
4.05632e-05
2.51675e-07
3.53253e-05
1.84404e-07
3.07116e-05
1.19079e-07
2.66012e-05
5.67623e-08
2.29455e-05
4.13229e-11
1.96071e-05
-4.33018e-08
1.65868e-05
-6.13366e-08
1.38642e-05
-4.67447e-08
1.12951e-05
2.10605e-07
7.62357e-05
3.14145e-07
7.62933e-05
3.93042e-07
7.63658e-05
4.21459e-07
8.06045e-05
4.16711e-07
7.02978e-05
3.83781e-07
6.13182e-05
3.31726e-07
5.34812e-05
2.69352e-07
4.66061e-05
2.02768e-07
4.06121e-05
1.36428e-07
3.53733e-05
7.35366e-08
3.07571e-05
1.59906e-08
2.66419e-05
-3.49082e-08
2.29805e-05
-7.61748e-08
1.96399e-05
-1.00393e-07
1.66259e-05
-9.76228e-08
1.39151e-05
-6.32716e-08
1.13584e-05
1.72034e-07
7.62306e-05
2.69443e-07
7.62804e-05
3.39118e-07
7.63472e-05
3.61802e-07
7.64255e-05
3.48454e-07
8.06728e-05
3.19238e-07
7.03624e-05
2.69298e-07
6.13806e-05
2.07162e-07
5.35434e-05
1.39716e-07
4.66692e-05
7.22546e-08
4.06763e-05
8.95035e-09
3.54379e-05
-4.72344e-08
3.08203e-05
-9.44439e-08
2.67015e-05
-1.31324e-07
2.30356e-05
-1.54855e-07
1.96944e-05
-1.58289e-07
1.66865e-05
-1.33905e-07
1.39857e-05
-7.96375e-08
1.1438e-05
1.39572e-07
7.62225e-05
2.29084e-07
7.62709e-05
2.89264e-07
7.63302e-05
3.05296e-07
7.64037e-05
2.8548e-07
7.64884e-05
2.44597e-07
8.07474e-05
1.95378e-07
7.04363e-05
1.32309e-07
6.14555e-05
6.25802e-08
5.36205e-05
-7.69735e-09
4.67491e-05
-7.35954e-08
4.07588e-05
-1.31226e-07
3.55219e-05
-1.77847e-07
3.09037e-05
-2.11781e-07
2.67819e-05
-2.31908e-07
2.31127e-05
-2.35345e-07
1.97714e-05
-2.16448e-07
1.67691e-05
-1.69816e-07
1.40759e-05
-9.55808e-08
1.15336e-05
1.12344e-07
7.62172e-05
1.92721e-07
7.62588e-05
2.4337e-07
7.63168e-05
2.52345e-07
7.63832e-05
2.25438e-07
7.64637e-05
1.75616e-07
7.65574e-05
1.10526e-07
8.08323e-05
4.48813e-08
7.05237e-05
-2.86837e-08
6.15467e-05
-1.03528e-07
5.37163e-05
-1.73926e-07
4.68495e-05
-2.35257e-07
4.08629e-05
-2.8399e-07
3.5628e-05
-3.17689e-07
3.10096e-05
-3.35201e-07
2.68852e-05
-3.35684e-07
2.3213e-05
-3.16737e-07
1.98717e-05
-2.74198e-07
1.68735e-05
-2.04869e-07
1.41852e-05
-1.10917e-07
1.16445e-05
8.95706e-08
7.62128e-05
1.6002e-07
7.62499e-05
2.01293e-07
7.63009e-05
2.03119e-07
7.63661e-05
1.69018e-07
7.64396e-05
1.0983e-07
7.65295e-05
3.24327e-08
7.66355e-05
-5.44907e-08
8.09317e-05
-1.33971e-07
7.0629e-05
-2.15361e-07
6.16586e-05
-2.92346e-07
5.38347e-05
-3.59453e-07
4.69737e-05
-4.12563e-07
4.09914e-05
-4.48535e-07
3.57589e-05
-4.65708e-07
3.11402e-05
-4.63405e-07
2.70129e-05
-4.41324e-07
2.33376e-05
-3.9797e-07
1.99955e-05
-3.30735e-07
1.69993e-05
-2.38568e-07
1.43129e-05
-1.25319e-07
1.17698e-05
7.20559e-08
6.95995e-05
1.30653e-07
7.62421e-05
1.62868e-07
7.62884e-05
1.57683e-07
7.63463e-05
1.16601e-07
7.64185e-05
4.81613e-08
7.65013e-05
-4.17569e-08
7.66037e-05
-1.45321e-07
7.67263e-05
-2.52506e-07
8.10502e-05
-3.43077e-07
7.07567e-05
-4.29091e-07
6.17953e-05
-5.04374e-07
5.39797e-05
-5.64061e-07
4.71252e-05
-6.045e-07
4.11474e-05
-6.23573e-07
3.59168e-05
-6.2027e-07
3.1297e-05
-5.94631e-07
2.71663e-05
-5.47334e-07
2.3487e-05
-4.77824e-07
2.01426e-05
-3.85199e-07
1.7146e-05
-2.70303e-07
1.44578e-05
-1.38604e-07
1.19084e-05
5.85737e-08
6.25575e-05
1.06471e-07
6.96237e-05
1.27928e-07
7.62771e-05
1.16046e-07
7.633e-05
6.84101e-08
7.63945e-05
-8.80772e-09
7.64754e-05
-1.10923e-07
7.65704e-05
-2.31111e-07
7.66895e-05
-3.60084e-07
7.68339e-05
-4.8571e-07
8.11928e-05
-5.84036e-07
7.09117e-05
-6.70406e-07
6.19613e-05
-7.39356e-07
5.4155e-05
-7.86514e-07
4.73072e-05
-8.09533e-07
4.13334e-05
-8.07111e-07
3.61036e-05
-7.79161e-07
3.14815e-05
-7.26936e-07
2.73459e-05
-6.52001e-07
2.36611e-05
-5.54998e-07
2.03124e-05
-4.36615e-07
1.73123e-05
-2.99592e-07
1.46188e-05
-1.50323e-07
1.20588e-05
4.80158e-08
5.62286e-05
8.67183e-08
6.25772e-05
9.89251e-08
6.96527e-05
7.81921e-08
7.63149e-05
2.45837e-08
7.63738e-05
-6.06939e-08
7.64464e-05
-1.74289e-07
7.65388e-05
-3.10554e-07
7.66499e-05
-4.61079e-07
7.67905e-05
-6.1436e-07
7.69626e-05
-7.56e-07
8.13648e-05
-8.57442e-07
7.10987e-05
-9.3903e-07
6.2161e-05
-9.95828e-07
5.43643e-05
-1.02502e-06
4.75227e-05
-1.02528e-06
4.15515e-05
-9.96452e-07
3.63209e-05
-9.39956e-07
3.16946e-05
-8.58063e-07
2.75519e-05
-7.53523e-07
2.38597e-05
-6.2807e-07
2.05039e-05
-4.8415e-07
1.74968e-05
-3.25511e-07
1.4794e-05
-1.5972e-07
1.22185e-05
3.96199e-08
5.05404e-05
7.04606e-08
5.62448e-05
7.51276e-08
6.2601e-05
4.69111e-08
6.9684e-05
-1.47828e-08
7.63543e-05
-1.07237e-07
7.64204e-05
-2.31308e-07
7.65034e-05
-3.82681e-07
7.66109e-05
-5.53996e-07
7.67428e-05
-7.34505e-07
7.69106e-05
-9.1036e-07
7.71169e-05
-1.06408e-06
8.15714e-05
-1.16304e-06
7.13227e-05
-1.23327e-06
6.23985e-05
-1.27173e-06
5.4611e-05
-1.27678e-06
4.77742e-05
-1.24852e-06
4.18036e-05
-1.18865e-06
3.65696e-05
-1.09983e-06
3.19363e-05
-9.85687e-07
2.77841e-05
-8.49965e-07
2.40816e-05
-6.95793e-07
2.07155e-05
-5.26431e-07
1.76978e-05
-3.47416e-07
1.49817e-05
-1.66815e-07
1.23853e-05
3.28502e-08
4.54268e-05
5.69889e-08
5.05539e-05
5.55056e-08
5.62644e-05
2.14537e-08
6.26265e-05
-4.67868e-08
6.9716e-05
-1.48252e-07
7.63953e-05
-2.81596e-07
7.64706e-05
-4.46775e-07
7.65675e-05
-6.37661e-07
7.66946e-05
-8.44434e-07
7.68527e-05
-1.05393e-06
7.70542e-05
-1.24893e-06
7.73018e-05
-1.40975e-06
8.18182e-05
-1.49891e-06
7.15884e-05
-1.55081e-06
6.26775e-05
-1.56381e-06
5.4898e-05
-1.53799e-06
4.80636e-05
-1.47575e-06
4.20907e-05
-1.3803e-06
3.68501e-05
-1.25591e-06
3.22066e-05
-1.1073e-06
2.80414e-05
-9.39593e-07
2.43254e-05
-7.56348e-07
2.09454e-05
-5.62696e-07
1.7913e-05
-3.61908e-07
1.51768e-05
-1.32997e-07
1.25183e-05
2.73185e-08
4.08315e-05
4.57782e-08
4.5438e-05
3.9244e-08
5.05701e-05
6.96358e-10
5.62852e-05
-7.23227e-08
6.2652e-05
-1.80773e-07
6.97485e-05
-3.24876e-07
7.64386e-05
-5.02312e-07
7.65262e-05
-7.11167e-07
7.6641e-05
-9.42751e-07
7.67929e-05
-1.18476e-06
7.69835e-05
-1.4204e-06
7.72257e-05
-1.63e-06
7.7522e-05
-1.79095e-06
8.21102e-05
-1.8625e-06
7.19001e-05
-1.88794e-06
6.30017e-05
-1.86769e-06
5.52277e-05
-1.8046e-06
4.83925e-05
-1.70292e-06
4.24133e-05
-1.56787e-06
3.7162e-05
-1.40502e-06
3.25043e-05
-1.22062e-06
2.83224e-05
-1.02014e-06
2.45891e-05
-8.08558e-07
2.11913e-05
-5.88052e-07
1.81392e-05
-3.53462e-07
1.53973e-05
-8.26101e-08
1.26009e-05
2.27454e-08
3.67006e-05
3.64087e-08
4.08409e-05
2.57156e-08
4.54515e-05
-1.62638e-08
5.05871e-05
-9.26724e-08
5.63055e-05
-2.05941e-07
6.26772e-05
-3.58119e-07
6.97817e-05
-5.48914e-07
7.64852e-05
-7.73833e-07
7.65889e-05
-1.02833e-06
7.67266e-05
-1.30119e-06
7.69093e-05
-1.57623e-06
7.71394e-05
-1.83399e-06
7.74297e-05
-2.05139e-06
7.77825e-05
-2.20489e-06
8.24526e-05
-2.24966e-06
7.22618e-05
-2.23965e-06
6.33736e-05
-2.17866e-06
5.56018e-05
-2.07178e-06
4.87613e-05
-1.9258e-06
4.27712e-05
-1.74752e-06
3.75045e-05
-1.54433e-06
3.2828e-05
-1.32292e-06
2.86252e-05
-1.08991e-06
2.48705e-05
-8.47694e-07
2.14509e-05
-5.95616e-07
1.83813e-05
-3.26081e-07
1.56407e-05
-6.12073e-08
1.26621e-05
1.89235e-08
3.29898e-05
2.85311e-08
3.67085e-05
1.44276e-08
4.08522e-05
-3.01851e-08
4.54654e-05
-1.08877e-07
5.06033e-05
-2.25275e-07
5.63249e-05
-3.82812e-07
6.27019e-05
-5.83443e-07
6.98163e-05
-8.25158e-07
7.65365e-05
-1.10032e-06
7.66608e-05
-1.40186e-06
7.68273e-05
-1.71449e-06
7.70476e-05
-2.01915e-06
7.73245e-05
-2.29252e-06
7.76708e-05
-2.51025e-06
7.80878e-05
-2.64706e-06
8.285e-05
-2.65474e-06
7.26769e-05
-2.60053e-06
6.37955e-05
-2.49107e-06
5.60211e-05
-2.33455e-06
4.91701e-05
-2.1398e-06
4.31635e-05
-1.91582e-06
3.7876e-05
-1.67067e-06
3.31757e-05
-1.41204e-06
2.89474e-05
-1.14474e-06
2.51675e-05
-8.69129e-07
2.17244e-05
-5.90128e-07
1.86454e-05
-3.01326e-07
1.58809e-05
-5.4902e-08
1.2717e-05
1.5696e-08
2.96512e-05
2.18747e-08
3.29965e-05
4.9666e-09
3.67179e-05
-4.16576e-08
4.08637e-05
-1.21783e-07
4.54783e-05
-2.40008e-07
5.0618e-05
-4.008e-07
5.63429e-05
-6.07838e-07
6.27263e-05
-8.61817e-07
6.98529e-05
-1.15805e-06
7.65943e-05
-1.48568e-06
7.67447e-05
-1.8335e-06
7.69463e-05
-2.18318e-06
7.72116e-05
-2.51138e-06
7.75434e-05
-2.79314e-06
7.79537e-05
-3.00182e-06
7.84426e-05
-3.11111e-06
8.33063e-05
-3.07157e-06
7.31479e-05
-2.96409e-06
6.42685e-05
-2.79916e-06
5.64857e-05
-2.58758e-06
4.96179e-05
-2.3409e-06
4.35886e-05
-2.06912e-06
3.82745e-05
-1.78138e-06
3.35451e-05
-1.48431e-06
2.92869e-05
-1.18102e-06
2.54794e-05
-8.78132e-07
2.20124e-05
-5.80854e-07
1.89249e-05
-2.87323e-07
1.61133e-05
-5.84207e-08
1.27754e-05
1.29524e-08
2.66507e-05
1.62257e-08
2.96569e-05
-2.9988e-09
3.30044e-05
-5.11271e-08
3.67274e-05
-1.32071e-07
4.0874e-05
-2.51131e-07
4.54895e-05
-4.13573e-07
5.06308e-05
-6.24368e-07
5.63594e-05
-8.86308e-07
6.27508e-05
-1.19791e-06
6.98928e-05
-1.5518e-06
7.66604e-05
-1.93194e-06
7.68431e-05
-2.32409e-06
7.70872e-05
-2.70528e-06
7.74055e-05
-3.05017e-06
7.78004e-05
-3.33095e-06
7.82828e-05
-3.51917e-06
7.88506e-05
-3.59022e-06
8.3825e-05
-3.49284e-06
7.36767e-05
-3.32375e-06
6.47931e-05
-3.09679e-06
5.69949e-05
-2.82615e-06
5.01031e-05
-2.52487e-06
4.40444e-05
-2.2043e-06
3.86974e-05
-1.87317e-06
3.39339e-05
-1.53688e-06
2.96428e-05
-1.20333e-06
2.58046e-05
-8.81946e-07
2.23135e-05
-5.73385e-07
1.9211e-05
-2.82593e-07
1.63375e-05
-8.03017e-08
1.28557e-05
1.06117e-08
2.39563e-05
1.14083e-08
2.66556e-05
-9.73053e-09
2.96636e-05
-5.89637e-08
3.30123e-05
-1.40279e-07
3.67356e-05
-2.59439e-07
4.08823e-05
-4.22331e-07
4.54982e-05
-6.34869e-07
5.06413e-05
-9.01435e-07
5.63745e-05
-1.22307e-06
6.27759e-05
-1.5962e-06
6.99372e-05
-2.00871e-06
7.67372e-05
-2.44024e-06
7.69592e-05
-2.87184e-06
7.72538e-05
-3.27822e-06
7.76336e-05
-3.63058e-06
7.81e-05
-3.89862e-06
7.86623e-05
-4.05503e-06
7.93155e-05
-4.07625e-06
8.44084e-05
-3.91112e-06
7.4264e-05
-3.67242e-06
6.53687e-05
-3.37842e-06
5.75472e-05
-3.04537e-06
5.06236e-05
-2.68813e-06
4.45282e-05
-2.31826e-06
3.91425e-05
-1.94374e-06
3.43408e-05
-1.57334e-06
3.00128e-05
-1.21799e-06
2.61407e-05
-8.83958e-07
2.26241e-05
-5.68907e-07
1.94973e-05
-3.48268e-07
1.66054e-05
-8.84045e-08
1.29441e-05
8.61037e-09
2.1534e-05
7.28097e-09
2.39605e-05
-1.5445e-08
2.66613e-05
-6.54692e-08
2.96701e-05
-1.46827e-07
3.30188e-05
-2.65564e-07
3.67417e-05
-4.28023e-07
4.0888e-05
-6.40804e-07
4.55042e-05
-9.09468e-07
5.06493e-05
-1.23699e-06
5.63884e-05
-1.62281e-06
6.28025e-05
-2.05921e-06
6.99877e-05
-2.53025e-06
7.68272e-05
-3.00903e-06
7.70964e-05
-3.47446e-06
7.745e-05
-3.8971e-06
7.79001e-05
-4.24507e-06
7.84465e-05
-4.48854e-06
7.90958e-05
-4.60065e-06
7.98399e-05
-4.56085e-06
8.50581e-05
-4.31823e-06
7.49099e-05
-4.0037e-06
6.5994e-05
-3.63843e-06
5.81402e-05
-3.24114e-06
5.11766e-05
-2.82757e-06
4.50375e-05
-2.40898e-06
3.96077e-05
-1.99567e-06
3.47631e-05
-1.5989e-06
3.03937e-05
-1.22778e-06
2.64845e-05
-8.84503e-07
2.29397e-05
-6.98428e-07
1.98475e-05
-3.46812e-07
1.68638e-05
-9.71275e-08
1.30413e-05
6.89421e-09
1.93537e-05
3.73134e-09
2.15376e-05
-2.03222e-08
2.39653e-05
-7.08879e-08
2.66667e-05
-1.52053e-07
2.96753e-05
-2.70001e-07
3.30233e-05
-4.314e-07
3.67451e-05
-6.43334e-07
4.08905e-05
-9.1221e-07
4.55069e-05
-1.24246e-06
5.06548e-05
-1.63587e-06
5.64015e-05
-2.08825e-06
6.28316e-05
-2.58872e-06
7.00462e-05
-3.11516e-06
7.69333e-05
-3.63642e-06
7.72584e-05
-4.12719e-06
7.76801e-05
-4.55437e-06
7.82094e-05
-4.88585e-06
7.88438e-05
-5.09148e-06
7.95866e-05
-5.14688e-06
8.04259e-05
-5.03474e-06
8.57746e-05
-4.70684e-06
7.5613e-05
-4.31109e-06
6.66667e-05
-3.8721e-06
5.87712e-05
-3.41015e-06
5.17592e-05
-2.94122e-06
4.55697e-05
-2.47815e-06
4.00902e-05
-2.03307e-06
3.51973e-05
-1.61594e-06
3.07819e-05
-1.23287e-06
2.68329e-05
-1.08996e-06
2.33312e-05
-6.88341e-07
2.0189e-05
-3.45684e-07
1.71124e-05
-1.03783e-07
1.31451e-05
1.73975e-05
5.41697e-09
6.6751e-10
1.93568e-05
-2.45067e-08
2.15417e-05
-7.54194e-08
2.39699e-05
-1.56223e-07
2.66709e-05
-2.73139e-07
2.96785e-05
-4.33052e-07
3.30249e-05
-6.43367e-07
3.67451e-05
-9.11086e-07
4.08894e-05
-1.24171e-06
4.55061e-05
-1.6388e-06
5.06577e-05
-2.10097e-06
5.64142e-05
-2.62142e-06
6.28643e-05
-3.18377e-06
7.01148e-05
-3.76196e-06
7.70589e-05
-4.31786e-06
7.7449e-05
-4.8226e-06
7.79483e-05
-5.24219e-06
7.85657e-05
-5.5433e-06
7.92956e-05
-5.69765e-06
8.01374e-05
-5.6835e-06
8.10747e-05
-5.48955e-06
8.65573e-05
-5.06947e-06
7.63714e-05
-4.58916e-06
6.73837e-05
-4.07573e-06
5.94368e-05
-3.55025e-06
5.23682e-05
-3.02991e-06
4.61215e-05
-2.52882e-06
4.05859e-05
-2.05795e-06
3.56393e-05
-1.62481e-06
3.11738e-05
-1.52252e-06
2.72654e-05
-1.07439e-06
2.37173e-05
-6.75963e-07
2.05193e-05
-3.42471e-07
1.73511e-05
-1.08008e-07
1.32531e-05
1.74001e-05
-1.98913e-09
2.78122e-05
3.18992e-09
-2.81125e-08
1.93604e-05
-7.92243e-08
2.15455e-05
-1.59552e-07
2.39732e-05
-2.75284e-07
2.6673e-05
-4.33434e-07
2.96789e-05
-6.41607e-07
3.30232e-05
-9.07205e-07
3.67412e-05
-1.23649e-06
4.08841e-05
-1.63434e-06
4.55017e-05
-2.10153e-06
5.06583e-05
-2.63454e-06
5.64273e-05
-3.22168e-06
6.29022e-05
-3.8433e-06
7.01961e-05
-4.4665e-06
7.72075e-05
-5.04621e-06
7.76727e-05
-5.55302e-06
7.82592e-05
-5.95074e-06
7.89732e-05
-6.20718e-06
7.98052e-05
-6.29603e-06
8.07499e-05
-6.20128e-06
8.17864e-05
-5.9167e-06
8.74046e-05
-5.39979e-06
7.7182e-05
-4.83359e-06
6.81416e-05
-4.24675e-06
6.01333e-05
-3.66146e-06
5.29998e-05
-3.09578e-06
4.66885e-05
-2.56262e-06
4.10906e-05
-2.07081e-06
3.60853e-05
-2.00803e-06
3.16593e-05
-1.50228e-06
2.76933e-05
-1.05225e-06
2.40936e-05
-6.59914e-07
2.08367e-05
-3.3648e-07
1.75795e-05
-1.09859e-07
1.33629e-05
1.74032e-05
-3.12283e-08
2.78161e-05
-5.88757e-09
2.85521e-05
1.07561e-09
-8.24323e-08
1.93636e-05
-1.6221e-07
2.15482e-05
-2.76672e-07
2.39746e-05
-4.329e-07
2.66725e-05
-6.38601e-07
2.96759e-05
-9.01423e-07
3.30174e-05
-1.22815e-06
3.67329e-05
-1.62462e-06
4.08744e-05
-2.09325e-06
4.54934e-05
-2.63308e-06
5.06568e-05
-3.23623e-06
5.64419e-05
-3.88836e-06
6.29473e-05
-4.56358e-06
7.02932e-05
-5.22199e-06
7.73833e-05
-5.81411e-06
7.79337e-05
-6.30857e-06
7.8617e-05
-6.66948e-06
7.94355e-05
-6.86583e-06
8.0375e-05
-6.8766e-06
8.14252e-05
-6.69061e-06
8.25603e-05
-6.30879e-06
8.83136e-05
-5.69268e-06
7.80411e-05
-5.04118e-06
6.8936e-05
-4.38438e-06
6.08562e-05
-3.74508e-06
5.36491e-05
-3.14005e-06
4.72659e-05
-2.58018e-06
4.16e-05
-2.56006e-06
3.66373e-05
-1.98205e-06
3.21391e-05
-1.47093e-06
2.8112e-05
-1.02352e-06
2.44572e-05
-6.39913e-07
2.11401e-05
-3.27724e-07
1.77974e-05
-1.09648e-07
1.34726e-05
1.7406e-05
-8.51493e-08
2.78202e-05
-3.52768e-08
2.85558e-05
-9.61853e-09
2.9312e-05
-9.29803e-10
-1.64332e-07
1.93657e-05
-2.77491e-07
2.1549e-05
-4.31723e-07
2.39734e-05
-6.34764e-07
2.66686e-05
-8.94397e-07
2.96688e-05
-1.21774e-06
3.3007e-05
-1.61132e-06
3.67196e-05
-2.07875e-06
4.08599e-05
-2.62104e-06
4.54814e-05
-3.23335e-06
5.0654e-05
-3.90572e-06
5.64592e-05
-4.61816e-06
6.30018e-05
-5.3383e-06
7.04095e-05
-6.02155e-06
7.75907e-05
-6.6118e-06
7.8237e-05
-7.07859e-06
7.90261e-05
-7.38629e-06
7.99559e-05
-7.50856e-06
8.10069e-05
-7.42881e-06
8.21634e-05
-7.14308e-06
8.33946e-05
-6.6597e-06
8.92806e-05
-5.9441e-06
7.8944e-05
-5.21034e-06
6.9762e-05
-4.48916e-06
6.16003e-05
-3.80194e-06
5.4311e-05
-3.16346e-06
4.78492e-05
-3.19082e-06
4.22307e-05
-2.52725e-06
3.71825e-05
-1.94045e-06
3.26086e-05
-1.42955e-06
2.8518e-05
-9.88776e-07
2.4806e-05
-6.16356e-07
2.14288e-05
-3.16555e-07
1.80043e-05
-1.07779e-07
1.35803e-05
1.74077e-05
-1.66026e-07
2.78227e-05
-8.76331e-08
2.85597e-05
-3.90959e-08
2.93156e-05
-1.31758e-08
3.00899e-05
-2.81966e-09
-2.77884e-07
1.93661e-05
-4.30108e-07
2.15474e-05
-6.30411e-07
2.39691e-05
-8.86623e-07
2.66609e-05
-1.20606e-06
2.96571e-05
-1.5957e-06
3.29914e-05
-2.06004e-06
3.67009e-05
-2.60157e-06
4.08404e-05
-3.21783e-06
4.54658e-05
-3.90236e-06
5.06506e-05
-4.64014e-06
5.64812e-05
-5.40527e-06
6.30688e-05
-6.16109e-06
7.0549e-05
-6.85575e-06
7.78347e-05
-7.42874e-06
7.85871e-05
-7.85071e-06
7.94905e-05
-8.08996e-06
8.05373e-05
-8.12395e-06
8.17021e-05
-7.94323e-06
8.29636e-05
-7.55151e-06
8.42864e-05
-6.96429e-06
9.03008e-05
-6.15156e-06
7.98853e-05
-5.34089e-06
7.06137e-05
-4.56155e-06
6.23599e-05
-3.83287e-06
5.49804e-05
-3.91384e-06
4.85722e-05
-3.15053e-06
4.2854e-05
-2.47394e-06
3.7716e-05
-1.88523e-06
3.30643e-05
-1.37957e-06
2.89088e-05
-9.49091e-07
2.51388e-05
-5.89911e-07
2.17021e-05
-3.03482e-07
1.82e-05
-1.0464e-07
1.3685e-05
1.74077e-05
-2.77964e-07
2.7822e-05
-1.65389e-07
2.85619e-05
-8.98207e-08
2.93191e-05
-4.26674e-08
3.00933e-05
-1.65605e-08
3.08898e-05
-4.58771e-09
-4.28214e-07
1.93642e-05
-6.25777e-07
2.15428e-05
-8.78473e-07
2.39609e-05
-1.19371e-06
2.66485e-05
-1.57874e-06
2.96402e-05
-2.03867e-06
3.297e-05
-2.57712e-06
3.66764e-05
-3.19342e-06
4.0816e-05
-3.88392e-06
4.54474e-05
-4.63763e-06
5.06481e-05
-5.43418e-06
5.65101e-05
-6.24388e-06
6.31516e-05
-7.02301e-06
7.07163e-05
-7.71435e-06
7.81203e-05
-8.25247e-06
7.89889e-05
-8.61338e-06
8.00139e-05
-8.76834e-06
8.11817e-05
-8.70166e-06
8.24605e-05
-8.41168e-06
8.38237e-05
-7.90975e-06
8.52319e-05
-7.21907e-06
9.13683e-05
-6.3141e-06
8.08585e-05
-5.43284e-06
7.1485e-05
-4.60235e-06
6.31294e-05
-4.74482e-06
5.58113e-05
-3.86577e-06
4.92874e-05
-3.08423e-06
4.34643e-05
-2.4031e-06
3.82339e-05
-1.81862e-06
3.35033e-05
-1.3228e-06
2.92825e-05
-9.05674e-07
2.54545e-05
-5.61369e-07
2.196e-05
-2.89033e-07
1.83844e-05
-1.00576e-07
1.37856e-05
1.74057e-05
-4.26158e-07
2.78166e-05
-2.7258e-07
2.85608e-05
-1.64337e-07
2.9321e-05
-9.17002e-08
3.00966e-05
-4.59896e-08
3.0893e-05
-1.97758e-08
3.17096e-05
-6.23365e-09
-6.21038e-07
1.93595e-05
-8.70219e-07
2.15345e-05
-1.18112e-06
2.39483e-05
-1.56116e-06
2.66309e-05
-2.01584e-06
2.96173e-05
-2.54956e-06
3.29424e-05
-3.16306e-06
3.66461e-05
-3.85485e-06
4.0787e-05
-4.61722e-06
4.5427e-05
-5.43435e-06
5.06483e-05
-6.2826e-06
5.65488e-05
-7.12559e-06
6.32542e-05
-7.91426e-06
7.09162e-05
-8.58505e-06
7.84529e-05
-9.07132e-06
7.94468e-05
-9.35386e-06
8.05995e-05
-9.41027e-06
8.18903e-05
-9.23255e-06
8.32814e-05
-8.82696e-06
8.47409e-05
-8.21332e-06
8.62261e-05
-7.42221e-06
9.24764e-05
-6.43124e-06
8.18569e-05
-5.48691e-06
7.23695e-05
-5.70188e-06
6.40864e-05
-4.68911e-06
5.66347e-05
-3.78537e-06
4.99886e-05
-2.99592e-06
4.40571e-05
-2.31781e-06
3.87331e-05
-1.74318e-06
3.39237e-05
-1.2611e-06
2.9638e-05
-8.59743e-07
2.57529e-05
-5.31493e-07
2.22025e-05
-2.73702e-07
1.85575e-05
-9.58835e-08
1.38814e-05
1.7401e-05
-6.1632e-07
2.78048e-05
-4.14279e-07
2.85549e-05
-2.66687e-07
2.93196e-05
-1.62901e-07
3.00982e-05
-9.32611e-08
3.08961e-05
-4.90589e-08
3.17127e-05
-2.2818e-08
3.25535e-05
-7.7618e-09
-8.62061e-07
1.93513e-05
-1.16863e-06
2.1522e-05
-1.54349e-06
2.39307e-05
-1.99241e-06
2.66075e-05
-2.52032e-06
2.95881e-05
-3.129e-06
3.29084e-05
-3.81864e-06
3.66099e-05
-4.58411e-06
4.07539e-05
-5.41336e-06
4.5406e-05
-6.28781e-06
5.06535e-05
-7.17758e-06
5.66008e-05
-8.04114e-06
6.33811e-05
-8.82287e-06
7.1154e-05
-9.45623e-06
7.88378e-05
-9.87215e-06
7.99651e-05
-1.00603e-05
8.12495e-05
-1.00057e-05
8.26635e-05
-9.70836e-06
8.41628e-05
-9.18362e-06
8.57112e-05
-8.45959e-06
8.72635e-05
-7.57261e-06
9.36178e-05
-6.50347e-06
8.28734e-05
-6.80476e-06
7.34724e-05
-5.63935e-06
6.50367e-05
-4.59377e-06
5.74431e-05
-3.67777e-06
5.06704e-05
-2.88966e-06
4.4629e-05
-2.22141e-06
3.92113e-05
-1.66139e-06
3.4324e-05
-1.1962e-06
2.99744e-05
-8.12392e-07
2.60338e-05
-5.00977e-07
2.24297e-05
-2.57932e-07
1.87196e-05
-9.07952e-08
1.39722e-05
1.7393e-05
-8.54138e-07
2.77844e-05
-5.95984e-07
2.85423e-05
-4.0171e-07
2.93131e-05
-2.60219e-07
3.00963e-05
-1.61033e-07
3.08973e-05
-9.45003e-08
3.17155e-05
-5.18721e-08
3.25564e-05
-2.56801e-08
3.34194e-05
-9.17288e-09
-1.15646e-06
1.93391e-05
-1.52612e-06
2.15047e-05
-1.96902e-06
2.39073e-05
-2.49047e-06
2.65776e-05
-3.09297e-06
2.95521e-05
-3.77797e-06
3.28677e-05
-4.5424e-06
3.65682e-05
-5.37724e-06
4.07177e-05
-6.26814e-06
4.53863e-05
-7.19078e-06
5.06667e-05
-8.11044e-06
5.66701e-05
-8.97904e-06
6.35372e-05
-9.73748e-06
7.14353e-05
-1.03146e-05
7.92802e-05
-1.06426e-05
8.05474e-05
-1.07219e-05
8.19657e-05
-1.05454e-05
8.35005e-05
-1.01226e-05
8.51018e-05
-9.47814e-06
8.67298e-05
-8.64684e-06
8.83377e-05
-7.67043e-06
9.47847e-05
-8.07646e-06
8.41451e-05
-6.73727e-06
7.45703e-05
-5.52859e-06
6.59715e-05
-4.46509e-06
5.82304e-05
-3.54808e-06
5.13288e-05
-2.76965e-06
4.51772e-05
-2.1171e-06
3.9667e-05
-1.57557e-06
3.47033e-05
-1.12961e-06
3.02916e-05
-7.64578e-07
2.62974e-05
-4.70431e-07
2.26422e-05
-2.42058e-07
1.88708e-05
-8.5511e-08
1.40578e-05
1.73814e-05
-1.14477e-06
2.77533e-05
-8.23045e-07
2.85212e-05
-5.74802e-07
2.92999e-05
-3.885e-07
3.00893e-05
-2.53277e-07
3.0895e-05
-1.58765e-07
3.17164e-05
-9.54071e-08
3.25589e-05
-5.44203e-08
3.34221e-05
-2.83632e-08
3.43053e-05
-1.04698e-08
-1.50932e-06
1.93223e-05
-1.94615e-06
2.14818e-05
-2.46077e-06
2.38776e-05
-3.05623e-06
2.65409e-05
-3.73489e-06
2.9509e-05
-4.49528e-06
3.28206e-05
-5.33079e-06
3.65217e-05
-6.23054e-06
4.06801e-05
-7.17493e-06
4.53705e-05
-8.13519e-06
5.06914e-05
-9.07024e-06
5.67613e-05
-9.92833e-06
6.37281e-05
-1.06449e-05
7.17656e-05
-1.11475e-05
7.97851e-05
-1.13712e-05
8.11967e-05
-1.13284e-05
8.27487e-05
-1.10217e-05
8.43997e-05
-1.04708e-05
8.60944e-05
-9.70796e-06
8.77909e-05
-8.77468e-06
8.9442e-05
-9.54338e-06
9.62516e-05
-8.0079e-06
8.54158e-05
-6.61142e-06
7.56532e-05
-5.37716e-06
6.68836e-05
-4.30934e-06
5.89916e-05
-3.4015e-06
5.19607e-05
-2.63987e-06
4.57e-05
-2.00778e-06
4.00993e-05
-1.48769e-06
3.50614e-05
-1.06264e-06
3.05897e-05
-7.17138e-07
2.65441e-05
-4.4029e-07
2.28405e-05
-2.26378e-07
1.90117e-05
-8.01793e-08
1.41379e-05
1.73653e-05
-1.49327e-06
2.77091e-05
-1.10058e-06
2.8489e-05
-7.909e-07
2.92778e-05
-5.52719e-07
3.00754e-05
-3.74583e-07
3.08875e-05
-2.45794e-07
3.17137e-05
-1.56077e-07
3.25595e-05
-9.60009e-08
3.34244e-05
-5.67143e-08
3.43078e-05
-3.08638e-08
3.52192e-05
-1.16565e-08
-1.92411e-06
1.93003e-05
-2.43179e-06
2.14528e-05
-3.01972e-06
2.38411e-05
-3.69094e-06
2.6497e-05
-4.44516e-06
2.94589e-05
-5.27772e-06
3.27675e-05
-6.18052e-06
3.64717e-05
-7.13791e-06
4.06431e-05
-8.12624e-06
4.53615e-05
-9.11069e-06
5.07319e-05
-1.00465e-05
5.68795e-05
-1.0876e-05
6.39592e-05
-1.15324e-05
7.21504e-05
-1.19429e-05
8.03568e-05
-1.20468e-05
8.19152e-05
-1.18712e-05
8.35982e-05
-1.14293e-05
8.53582e-05
-1.07496e-05
8.7136e-05
-9.8721e-06
8.88883e-05
-1.09397e-05
9.08383e-05
-9.48141e-06
9.77252e-05
-7.86916e-06
8.66735e-05
-6.43622e-06
7.67122e-05
-5.19269e-06
6.77669e-05
-4.13288e-06
5.9723e-05
-3.24287e-06
5.25637e-05
-2.50392e-06
4.61961e-05
-1.89595e-06
4.05075e-05
-1.39945e-06
3.53982e-05
-9.96402e-07
3.0869e-05
-6.70644e-07
2.67745e-05
-4.10955e-07
2.30251e-05
-2.11111e-07
1.91426e-05
-7.49058e-08
1.42128e-05
1.73443e-05
-1.90311e-06
2.76489e-05
-1.43306e-06
2.84435e-05
-1.0551e-06
2.92447e-05
-7.57755e-07
3.00525e-05
-5.29807e-07
3.0873e-05
-3.60033e-07
3.17057e-05
-2.37814e-07
3.25564e-05
-1.52979e-07
3.34246e-05
-9.62591e-08
3.43098e-05
-5.87433e-08
3.52215e-05
-3.31809e-08
3.61551e-05
-1.27347e-08
-2.40392e-06
1.92724e-05
-2.98411e-06
2.14172e-05
-3.64723e-06
2.37974e-05
-4.39388e-06
2.64457e-05
-5.22088e-06
2.9402e-05
-6.1224e-06
3.27094e-05
-7.08601e-06
3.64198e-05
-8.09242e-06
4.06093e-05
-9.11232e-06
4.53631e-05
-1.01074e-05
5.07928e-05
-1.10267e-05
5.70302e-05
-1.18096e-05
6.42364e-05
-1.23875e-05
7.2595e-05
-1.2689e-05
8.0999e-05
-1.26599e-05
8.27039e-05
-1.23439e-05
8.45127e-05
-1.17638e-05
8.63724e-05
-1.09571e-05
8.8221e-05
-1.23368e-05
9.02855e-05
-1.08929e-05
9.22498e-05
-9.33508e-06
9.91911e-05
-7.67078e-06
8.79081e-05
-6.22079e-06
7.77403e-05
-4.98284e-06
6.86169e-05
-3.94158e-06
6.04217e-05
-3.07663e-06
5.31364e-05
-2.36488e-06
4.66651e-05
-1.78373e-06
4.08918e-05
-1.31228e-06
3.57141e-05
-9.31645e-07
3.113e-05
-6.25623e-07
2.69891e-05
-3.82709e-07
2.31967e-05
-1.964e-07
1.92641e-05
-6.9773e-08
1.42826e-05
1.73178e-05
-2.3774e-06
2.75696e-05
-1.82382e-06
2.83816e-05
-1.37114e-06
2.91977e-05
-1.0081e-06
3.00182e-05
-7.23433e-07
3.08492e-05
-5.06059e-07
3.16906e-05
-3.44878e-07
3.2548e-05
-2.29343e-07
3.34212e-05
-1.49487e-07
3.43098e-05
-9.62009e-08
3.52233e-05
-6.05158e-08
3.61572e-05
-3.53174e-08
3.6589e-05
-1.36944e-08
-2.94988e-06
1.92382e-05
-3.60457e-06
2.13745e-05
-4.34277e-06
2.37463e-05
-5.16243e-06
2.63872e-05
-6.0595e-06
2.93391e-05
-7.0242e-06
3.26476e-05
-8.04088e-06
3.63682e-05
-9.08495e-06
4.05819e-05
-1.01239e-05
4.53796e-05
-1.11131e-05
5.08792e-05
-1.19984e-05
5.7219e-05
-1.27164e-05
6.45653e-05
-1.31981e-05
7.31041e-05
-1.33755e-05
8.17146e-05
-1.32031e-05
8.35631e-05
-1.27411e-05
8.549e-05
-1.20224e-05
8.74378e-05
-1.37292e-05
8.96134e-05
-1.23158e-05
9.17084e-05
-1.07481e-05
9.36628e-05
-9.11643e-06
0.000100637
-7.42334e-06
8.91106e-05
-5.9743e-06
7.87318e-05
-4.7547e-06
6.943e-05
-3.74082e-06
6.10859e-05
-2.9065e-06
5.3678e-05
-2.22533e-06
4.71067e-05
-1.6729e-06
4.12524e-05
-1.22712e-06
3.60096e-05
-8.69058e-07
3.13734e-05
-5.8244e-07
2.71889e-05
-3.55715e-07
2.3356e-05
-1.82355e-07
1.93767e-05
-6.4842e-08
1.43474e-05
1.72852e-05
-2.91732e-06
2.7468e-05
-2.27577e-06
2.83006e-05
-1.74284e-06
2.91343e-05
-1.30773e-06
2.997e-05
-9.59908e-07
3.0814e-05
-6.88207e-07
3.16661e-05
-4.81524e-07
3.25322e-05
-3.29091e-07
3.34122e-05
-2.20388e-07
3.43059e-05
-1.45611e-07
3.52229e-05
-9.58269e-08
3.61587e-05
-6.20335e-08
3.65909e-05
-3.7247e-08
3.55528e-05
-1.45121e-08
-3.56353e-06
1.91972e-05
-4.29281e-06
2.13246e-05
-5.10397e-06
2.36878e-05
-5.99436e-06
2.63221e-05
-6.95633e-06
2.92713e-05
-7.97725e-06
3.25839e-05
-9.03657e-06
3.63199e-05
-1.01068e-05
4.05648e-05
-1.11493e-05
4.54158e-05
-1.21159e-05
5.09967e-05
-1.29492e-05
5.74518e-05
-1.35841e-05
6.49513e-05
-1.39533e-05
7.36819e-05
-1.3994e-05
8.25054e-05
-1.367e-05
8.4492e-05
-1.30591e-05
8.65267e-05
-1.51094e-05
8.88179e-05
-1.37464e-05
9.10439e-05
-1.21828e-05
9.31431e-05
-1.05183e-05
9.50647e-05
-8.83767e-06
0.000102051
-7.13753e-06
9.02738e-05
-5.7052e-06
7.96823e-05
-4.51475e-06
7.02039e-05
-3.53514e-06
6.17146e-05
-2.73569e-06
5.41884e-05
-2.08752e-06
4.75213e-05
-1.56466e-06
4.159e-05
-1.14488e-06
3.62854e-05
-8.09111e-07
3.16001e-05
-5.41291e-07
2.73744e-05
-3.30103e-07
2.35037e-05
-1.69055e-07
1.94809e-05
-6.01499e-08
1.44076e-05
1.72462e-05
-3.52449e-06
2.73414e-05
-2.79068e-06
2.81971e-05
-2.17225e-06
2.90511e-05
-1.65973e-06
2.99051e-05
-1.24279e-06
3.07646e-05
-9.10471e-07
3.16298e-05
-6.52006e-07
3.2507e-05
-4.5632e-07
3.33959e-05
-3.12783e-07
3.42965e-05
-2.11001e-07
3.52187e-05
-1.41365e-07
3.6158e-05
-9.51399e-08
3.65922e-05
-6.33026e-08
3.55545e-05
-3.89206e-08
3.45447e-05
-1.52072e-08
-4.24467e-06