/*--------------------------------*- C++ -*----------------------------------*\
  =========                 |
  \\      /  F ield         | OpenFOAM: The Open Source CFD Toolbox
   \\    /   O peration     | Website:  https://openfoam.org
    \\  /    A nd           | Version:  8
     \\/     M anipulation  |
\*---------------------------------------------------------------------------*/
FoamFile
{
    version     2.0;
    format      ascii;
    class       volScalarField;
    location    "0.43";
    object      k;
}
// * * * * * * * * * * * * * * * * * * * * * * * * * * * * * * * * * * * * * //

dimensions      [0 2 -2 0 0 0 0];

internalField   nonuniform List<scalar> 
15677
(
0.33415
0.365027
0.294807
0.368712
0.357782
0.281087
0.370677
0.360131
0.366234
0.282816
0.371871
0.361666
0.361543
0.383453
0.288952
0.3726
0.363767
0.357784
0.368441
0.401795
0.30025
0.37303
0.365682
0.357877
0.358221
0.380235
0.419368
0.311812
0.373257
0.367198
0.359479
0.354634
0.361115
0.393358
0.434767
0.322416
0.373345
0.368313
0.361367
0.354801
0.353101
0.366959
0.406271
0.447666
0.331985
0.373348
0.369084
0.36307
0.356355
0.351143
0.353537
0.373659
0.418214
0.45854
0.340133
0.373316
0.369567
0.364443
0.358226
0.35194
0.348803
0.354841
0.380695
0.429096
0.467422
0.347301
0.373278
0.369822
0.36546
0.35996
0.353718
0.348385
0.347174
0.357121
0.387727
0.438586
0.474984
0.353313
0.373254
0.369924
0.366144
0.36139
0.35566
0.349757
0.345361
0.346321
0.359762
0.394352
0.447082
0.481151
0.358575
0.373245
0.369938
0.366542
0.362467
0.357415
0.351708
0.346198
0.342912
0.345903
0.362583
0.400687
0.454298
0.486506
0.363071
0.373243
0.369922
0.366731
0.363197
0.358843
0.353663
0.348054
0.343068
0.340856
0.345902
0.365511
0.406349
0.460727
0.490878
0.36712
0.373243
0.369906
0.366789
0.363622
0.359897
0.355368
0.350131
0.344717
0.340272
0.339172
0.34604
0.368288
0.411633
0.466105
0.494708
0.370718
0.373242
0.369898
0.36679
0.36382
0.360586
0.356712
0.352056
0.346842
0.341668
0.337782
0.337738
0.34633
0.371064
0.416204
0.47086
0.497923
0.373859
0.373241
0.369895
0.366781
0.363878
0.360968
0.357664
0.353653
0.348936
0.343793
0.338876
0.33556
0.336491
0.346787
0.373542
0.420377
0.474765
0.500778
0.376881
0.37324
0.369893
0.366773
0.363885
0.361119
0.35825
0.354849
0.350753
0.346015
0.340964
0.336338
0.333545
0.335455
0.347223
0.375912
0.423827
0.478208
0.503309
0.379332
0.37324
0.369892
0.366768
0.363879
0.361165
0.358519
0.35564
0.352178
0.348018
0.343286
0.338367
0.334013
0.331751
0.334546
0.347718
0.377888
0.426931
0.481009
0.505514
0.382067
0.373239
0.369891
0.366765
0.363872
0.361173
0.358622
0.356042
0.353175
0.349644
0.345457
0.340766
0.335977
0.331906
0.330152
0.333775
0.348119
0.37973
0.429363
0.48347
0.507685
0.383977
0.373239
0.36989
0.366764
0.363866
0.361169
0.358653
0.356219
0.35372
0.35083
0.347277
0.343082
0.338445
0.333807
0.330019
0.328731
0.333104
0.348534
0.381129
0.431553
0.48546
0.509457
0.386645
0.373239
0.36989
0.366763
0.363862
0.361164
0.358655
0.356289
0.353982
0.351513
0.348656
0.345073
0.340897
0.336346
0.33187
0.328339
0.327512
0.332529
0.348805
0.38244
0.433128
0.487246
0.511555
0.388149
0.373239
0.369889
0.366762
0.363858
0.36116
0.358648
0.35631
0.354095
0.351864
0.349489
0.346616
0.343059
0.338938
0.334481
0.330155
0.326911
0.326455
0.332059
0.349118
0.383311
0.434619
0.488633
0.51299
0.390813
0.373239
0.369889
0.366762
0.363856
0.361157
0.35864
0.356311
0.354133
0.352032
0.349938
0.347576
0.344787
0.341266
0.337203
0.332854
0.328732
0.325713
0.32566
0.331701
0.34926
0.384162
0.435511
0.490101
0.515447
0.392197
0.373239
0.369888
0.366762
0.363854
0.361154
0.358632
0.356306
0.354137
0.352102
0.350162
0.348114
0.345908
0.34315
0.339685
0.335744
0.331568
0.327593
0.32483
0.325009
0.33143
0.349506
0.384647
0.436569
0.49099
0.517026
0.506873
0.373239
0.369888
0.366762
0.363853
0.361152
0.358626
0.356299
0.354129
0.352124
0.350258
0.3484
0.346559
0.344378
0.34175
0.33845
0.334635
0.33055
0.32676
0.32418
0.324727
0.331447
0.349692
0.385204
0.437027
0.493065
0.526086
0.718231
0.373239
0.369888
0.366761
0.363852
0.36115
0.358621
0.356293
0.354117
0.352125
0.350288
0.348538
0.346915
0.345102
0.343172
0.340717
0.337464
0.33379
0.329978
0.326446
0.324126
0.324797
0.331569
0.349966
0.385513
0.438053
0.493381
0.543297
0.894371
0.373239
0.369888
0.366761
0.363851
0.361148
0.358618
0.356287
0.354107
0.352116
0.350287
0.348594
0.347087
0.345514
0.344051
0.342223
0.339871
0.336994
0.333662
0.330034
0.326591
0.324328
0.32508
0.331878
0.350305
0.385988
0.438542
0.492934
0.556076
1.03238
0.37324
0.369888
0.366761
0.363851
0.361147
0.358616
0.356283
0.354098
0.352105
0.350273
0.348606
0.347153
0.345731
0.344566
0.343137
0.341655
0.339818
0.337123
0.333919
0.330418
0.327087
0.324885
0.325697
0.332499
0.350823
0.386499
0.438171
0.491048
0.564203
1.13793
0.37324
0.369887
0.366761
0.363851
0.361146
0.358614
0.356279
0.354091
0.352094
0.350257
0.348598
0.347164
0.345832
0.344833
0.343679
0.342817
0.341757
0.34011
0.337646
0.334651
0.33132
0.328142
0.325992
0.32682
0.333476
0.351569
0.386992
0.436987
0.487136
0.569708
1.22631
0.37324
0.369887
0.36676
0.363851
0.361145
0.358613
0.356275
0.354086
0.352085
0.350242
0.348582
0.347151
0.345864
0.344946
0.343983
0.343544
0.343005
0.342236
0.340915
0.33879
0.336122
0.333042
0.329926
0.327744
0.328404
0.334852
0.352566
0.387088
0.434616
0.481539
0.572756
1.29761
0.37324
0.369887
0.36676
0.363851
0.361144
0.358612
0.356272
0.354082
0.352076
0.35023
0.348564
0.347128
0.34586
0.344976
0.344147
0.343964
0.343795
0.343632
0.34331
0.342531
0.340866
0.338497
0.335555
0.332452
0.330118
0.330532
0.336636
0.35372
0.386927
0.43111
0.474847
0.574844
1.35139
0.37324
0.369887
0.36676
0.363851
0.361143
0.358612
0.356269
0.354079
0.352069
0.350219
0.348548
0.347105
0.345839
0.344967
0.344213
0.344165
0.344258
0.344532
0.344945
0.34535
0.345143
0.343897
0.341796
0.338962
0.335765
0.333208
0.333202
0.338853
0.355052
0.386458
0.426904
0.467276
0.576632
1.39428
0.37324
0.369887
0.36676
0.363851
0.361142
0.358611
0.356267
0.354076
0.352063
0.350211
0.348534
0.347085
0.345814
0.344939
0.344223
0.344248
0.344504
0.345078
0.346033
0.347274
0.348403
0.348827
0.348002
0.34615
0.343327
0.339971
0.337019
0.336464
0.341482
0.356465
0.385695
0.42177
0.460402
0.57889
1.43028
0.369887
0.373244
0.36676
0.363851
0.361141
0.358611
0.356265
0.354074
0.352058
0.350204
0.348522
0.347067
0.34579
0.344908
0.344204
0.344268
0.344619
0.345393
0.346728
0.348589
0.350685
0.35264
0.353732
0.353328
0.351644
0.348773
0.345085
0.34162
0.340297
0.344543
0.35834
0.384485
0.417063
0.454249
0.581441
1.46199
0.36676
0.369897
0.373251
0.363851
0.361141
0.358611
0.356263
0.354072
0.352053
0.350198
0.348511
0.347051
0.345768
0.344879
0.344175
0.344255
0.34466
0.34556
0.34716
0.349469
0.352297
0.355377
0.358237
0.36003
0.359989
0.358417
0.355326
0.351192
0.346976
0.344708
0.348325
0.360595
0.383592
0.412613
0.448978
0.584835
1.4908
0.363851
0.366776
0.369918
0.373259
0.36114
0.358611
0.356261
0.354071
0.352049
0.350193
0.348502
0.347038
0.345749
0.344853
0.344146
0.344231
0.344664
0.345643
0.34742
0.350052
0.353427
0.357375
0.36155
0.365389
0.367863
0.36814
0.366514
0.363092
0.358255
0.353126
0.350283
0.352995
0.363252
0.382754
0.408718
0.444567
0.588403
1.51763
0.36114
0.363873
0.36681
0.36994
0.373267
0.35861
0.35626
0.35407
0.352045
0.350189
0.348494
0.347027
0.345732
0.34483
0.344119
0.344205
0.344652
0.345679
0.347578
0.350441
0.354225
0.358841
0.36405
0.369427
0.37427
0.377411
0.377851
0.376062
0.372032
0.36633
0.360814
0.357322
0.358175
0.366173
0.382431
0.405274
0.440858
0.592654
1.54298
0.35861
0.361167
0.363918
0.366844
0.369962
0.373275
0.356259
0.354069
0.352042
0.350185
0.348487
0.347018
0.345718
0.34481
0.344096
0.34418
0.344636
0.345694
0.347676
0.350716
0.354809
0.359941
0.365966
0.372574
0.379212
0.385087
0.388771
0.389271
0.387027
0.382227
0.376384
0.370466
0.365157
0.363826
0.369518
0.38257
0.40241
0.437763
0.596872
1.56705
0.356258
0.358642
0.361222
0.363964
0.36688
0.369985
0.373283
0.354068
0.35204
0.350182
0.34848
0.34701
0.345706
0.344794
0.344076
0.34416
0.344621
0.345702
0.347744
0.35092
0.355267
0.360809
0.367487
0.375089
0.383187
0.391148
0.39797
0.402121
0.402375
0.399519
0.394896
0.388964
0.381174
0.37372
0.369895
0.373045
0.382994
0.40008
0.435175
0.601511
1.59013
0.354067
0.356293
0.358708
0.361279
0.364012
0.366916
0.370008
0.373292
0.352037
0.35018
0.348475
0.347003
0.345695
0.344779
0.344059
0.344142
0.344609
0.345708
0.347799
0.351081
0.355641
0.361542
0.368764
0.37719
0.386497
0.396178
0.405401
0.413133
0.417453
0.417305
0.415028
0.410725
0.402884
0.392843
0.382917
0.37642
0.376749
0.383815
0.398224
0.433105
0.606077
1.61204
0.352035
0.354107
0.356366
0.358775
0.361337
0.364061
0.366954
0.370032
0.373301
0.350177
0.34847
0.346998
0.345686
0.344767
0.344045
0.344127
0.344599
0.345715
0.347847
0.351221
0.355959
0.362182
0.369907
0.379045
0.389383
0.400525
0.411767
0.42225
0.430604
0.434953
0.435842
0.434398
0.428218
0.418023
0.405354
0.39267
0.383315
0.380669
0.385089
0.396875
0.431382
0.610683
1.63317
0.350175
0.352076
0.354188
0.35644
0.358844
0.361397
0.364111
0.366992
0.370056
0.37331
0.348466
0.346992
0.345678
0.344757
0.344033
0.344115
0.344591
0.345724
0.347893
0.351347
0.356242
0.362745
0.370949
0.380781
0.392042
0.404466
0.417453
0.430289
0.441763
0.450643
0.456736
0.459033
0.455795
0.44721
0.434219
0.418584
0.402892
0.390516
0.384757
0.386532
0.395945
0.430104
0.6154
1.65308
0.348463
0.350219
0.352162
0.354271
0.356517
0.358914
0.361459
0.364163
0.367031
0.370081
0.373319
0.346988
0.34567
0.344748
0.344023
0.344105
0.344586
0.345733
0.347936
0.351464
0.356501
0.363256
0.371892
0.382415
0.394618
0.408231
0.422791
0.437701
0.451867
0.46428
0.47573
0.484128
0.4847
0.47903
0.467503
0.45131
0.432403
0.413486
0.397947
0.389055
0.388114
0.3954
0.429038
0.619753
1.67232
0.346984
0.348506
0.35031
0.35225
0.354356
0.356597
0.358987
0.361522
0.364216
0.367072
0.370107
0.373328
0.345664
0.344741
0.344014
0.344097
0.344582
0.345742
0.347977
0.351574
0.35674
0.363727
0.372761
0.383924
0.397109
0.41199
0.428049
0.444881
0.461461
0.476957
0.492629
0.507503
0.514664
0.512689
0.503885
0.488895
0.469119
0.446675
0.424355
0.405548
0.393518
0.389839
0.395099
0.428323
0.624393
1.6903
0.345659
0.347026
0.348597
0.350403
0.352341
0.354444
0.356678
0.359062
0.361587
0.36427
0.367113
0.370134
0.373338
0.344734
0.344006
0.34409
0.34458
0.345753
0.348017
0.351676
0.356961
0.364163
0.373567
0.385329
0.399452
0.415709
0.433433
0.452154
0.471024
0.48934
0.508781
0.528857
0.543189
0.548166
0.542776
0.530135
0.511178
0.487476
0.461269
0.435404
0.413258
0.398096
0.391673
0.395129
0.427745
0.628479
1.70766
0.344729
0.345696
0.347116
0.34869
0.350499
0.352435
0.354535
0.356763
0.359138
0.361654
0.364326
0.367156
0.370161
0.373347
0.343998
0.344084
0.344578
0.345763
0.348054
0.351771
0.357166
0.364568
0.374316
0.386643
0.401662
0.419261
0.438861
0.459785
0.480965
0.502026
0.525018
0.549904
0.56996
0.58269
0.584409
0.574718
0.557569
0.534155
0.506209
0.476051
0.446542
0.421021
0.402744
0.393614
0.395258
0.427435
0.632858
1.72377
0.343991
0.344759
0.345777
0.347208
0.348788
0.350598
0.352532
0.354628
0.356849
0.359217
0.361723
0.364383
0.3672
0.370188
0.373357
0.344079
0.344577
0.345773
0.348089
0.351859
0.357356
0.364943
0.375011
0.387872
0.403745
0.422641
0.444126
0.467645
0.491614
0.515536
0.542123
0.571754
0.597161
0.61599
0.625864
0.623163
0.608252
0.585946
0.557617
0.525158
0.490904
0.457686
0.428781
0.407423
0.395626
0.39551
0.427234
0.636663
1.73933
0.344076
0.344001
0.344827
0.345859
0.347303
0.348889
0.3507
0.352632
0.354723
0.356938
0.359298
0.361794
0.364442
0.367243
0.370214
0.373365
0.344575
0.345782
0.348121
0.35194
0.35753
0.365288
0.375655
0.389016
0.405702
0.425852
0.449201
0.475389
0.502756
0.530331
0.560834
0.595523
0.626332
0.650909
0.667022
0.672611
0.664211
0.64312
0.61504
0.581393
0.544181
0.505719
0.468759
0.436488
0.412099
0.397704
0.395904
0.427246
0.640713
1.75366
0.344575
0.344067
0.344028
0.344894
0.345947
0.347401
0.348994
0.350804
0.352735
0.354821
0.35703
0.359381
0.361866
0.3645
0.367285
0.37024
0.373374
0.345789
0.34815
0.352015
0.357691
0.365606
0.376249
0.39008
0.407535
0.42889
0.454076
0.482935
0.513872
0.546181
0.581868
0.622326
0.659143
0.689739
0.711761
0.723327
0.722919
0.707367
0.679088
0.644626
0.605314
0.563152
0.520404
0.479699
0.444099
0.416741
0.399834
0.396331
0.427312
0.644221
1.7675
0.345799
0.344539
0.34405
0.344059
0.344964
0.346041
0.347503
0.349104
0.350912
0.352842
0.354922
0.357124
0.359465
0.361938
0.364556
0.367326
0.370264
0.373383
0.348174
0.352082
0.357838
0.365898
0.376796
0.391064
0.409243
0.431752
0.45873
0.490237
0.524847
0.562398
0.604919
0.653324
0.697543
0.735377
0.763839
0.780884
0.785428
0.776871
0.752493
0.715955
0.674511
0.629227
0.581959
0.534878
0.490448
0.451575
0.421325
0.401981
0.396872
0.427446
0.647911
1.78017
0.348201
0.345722
0.344456
0.344018
0.344106
0.345037
0.346142
0.347608
0.349217
0.351023
0.352952
0.355025
0.357221
0.359549
0.362008
0.364611
0.367366
0.370288
0.373391
0.352142
0.35797
0.366165
0.377298
0.391972
0.41083
0.434435
0.463145
0.497259
0.535642
0.578772
0.628814
0.688351
0.744164
0.791907
0.828633
0.851554
0.859846
0.85396
0.834585
0.799468
0.753539
0.704527
0.652996
0.600504
0.549072
0.500957
0.458885
0.425826
0.404139
0.397404
0.42772
0.65112
1.79243
0.352205
0.348057
0.345537
0.344364
0.343984
0.344167
0.345112
0.346248
0.347717
0.349335
0.351137
0.353065
0.355131
0.357316
0.359631
0.362076
0.364664
0.367404
0.370312
0.373399
0.358089
0.366406
0.377758
0.392808
0.412299
0.436941
0.467312
0.503976
0.546199
0.595115
0.653131
0.726328
0.800589
0.86538
0.913895
0.94433
0.955821
0.949979
0.929366
0.896083
0.848151
0.79167
0.734523
0.676507
0.618712
0.562932
0.511189
0.466002
0.430228
0.406277
0.398035
0.427931
0.654455
1.80221
0.358209
0.351977
0.347697
0.345339
0.344281
0.343955
0.34424
0.34519
0.34636
0.347829
0.349456
0.351255
0.35318
0.355236
0.35741
0.359711
0.362142
0.364716
0.367442
0.370334
0.373406
0.366625
0.378175
0.393574
0.413655
0.439272
0.471228
0.510371
0.556445
0.611232
0.677807
0.767656
0.866499
0.95963
1.02939
1.07055
1.08586
1.07798
1.05162
1.01158
0.961166
0.898335
0.830172
0.764364
0.699658
0.636515
0.576414
0.521114
0.472904
0.434513
0.408396
0.398627
0.428335
0.656971
1.8105
0.366839
0.35787
0.351377
0.347315
0.345158
0.344207
0.343933
0.344321
0.345272
0.346477
0.347945
0.349582
0.351376
0.353295
0.355338
0.3575
0.359788
0.362206
0.364766
0.367478
0.370356
0.373414
0.378555
0.394274
0.414904
0.441435
0.474896
0.516431
0.566313
0.626997
0.702987
0.812855
0.941816
1.07151
1.17762
1.24099
1.26274
1.25248
1.21689
1.16379
1.09988
1.02936
0.949722
0.868854
0.793923
0.722359
0.653856
0.589482
0.530707
0.479574
0.438669
0.410469
0.399302
0.428551
0.65934
1.81941
0.37892
0.366357
0.356929
0.350747
0.34696
0.344993
0.344143
0.343921
0.344408
0.34536
0.346599
0.348067
0.34971
0.351496
0.353407
0.355438
0.357588
0.359863
0.362268
0.364815
0.367513
0.370378
0.373421
0.394916
0.416049
0.443435
0.478319
0.522146
0.575755
0.642364
0.728838
0.861771
1.0249
1.19633
1.34755
1.45254
1.49528
1.48533
1.43985
1.36939
1.28437
1.193
1.09994
1.00193
0.907508
0.823078
0.744539
0.670692
0.60211
0.539951
0.486
0.442686
0.4125
0.399837
0.428899
0.661597
1.8292
0.395518
0.378258
0.364936
0.355945
0.350151
0.34663
0.344841
0.344088
0.343919
0.344501
0.345455
0.346725
0.348192
0.349838
0.351614
0.353516
0.355535
0.357674
0.359936
0.362329
0.364863
0.367548
0.370399
0.373425
0.417107
0.445282
0.481505
0.527515
0.58475
0.657338
0.755383
0.913532
1.11285
1.32836
1.52898
1.68536
1.77372
1.78254
1.73038
1.642
1.53126
1.41067
1.28933
1.17203
1.05452
0.945913
0.851715
0.766133
0.686985
0.614275
0.548834
0.492174
0.446556
0.414209
0.400365
0.42913
0.664413
1.83979
0.418082
0.394636
0.376163
0.363461
0.355012
0.34959
0.346321
0.344701
0.344043
0.343928
0.344597
0.345559
0.346853
0.348319
0.349962
0.351729
0.353622
0.35563
0.357757
0.360007
0.362387
0.364909
0.367581
0.370409
0.373425
0.446998
0.484464
0.532541
0.593294
0.671931
0.782464
0.966905
1.20265
1.46231
1.71364
1.92579
2.0713
2.12912
2.09268
1.9899
1.8529
1.6983
1.5399
1.38717
1.24468
1.10702
0.983847
0.879725
0.787088
0.702705
0.625966
0.55735
0.498091
0.449783
0.415691
0.400899
0.429621
0.667121
1.85147
0.448555
0.416922
0.391608
0.374008
0.362058
0.354125
0.349054
0.346031
0.344572
0.344009
0.34395
0.344694
0.34567
0.34698
0.348444
0.350082
0.351841
0.353725
0.355722
0.357838
0.360076
0.362444
0.364954
0.367598
0.370409
0.373425
0.487229
0.537241
0.601399
0.686142
0.809802
1.02065
1.29182
1.59423
1.89549
2.1646
2.37238
2.49296
2.50817
2.41695
2.25698
2.06738
1.86678
1.66956
1.48497
1.31699
1.15898
1.0211
0.907011
0.807357
0.717833
0.637174
0.565493
0.503
0.45255
0.417337
0.401602
0.429957
0.67049
1.86412
0.489697
0.447058
0.4126
0.38852
0.371957
0.360718
0.353274
0.348541
0.345764
0.344456
0.343985
0.343992
0.344792
0.345787
0.347104
0.348568
0.3502
0.351951
0.353825
0.355812
0.357916
0.360144
0.3625
0.364976
0.367598
0.370409
0.373425
0.541656
0.609093
0.699963
0.837077
1.07371
1.3786
1.72155
2.07062
2.39557
2.66708
2.85674
2.94004
2.90209
2.74815
2.52599
2.28122
2.03369
1.79759
1.58138
1.38818
1.20999
1.05747
0.933481
0.826904
0.732354
0.647894
0.57224
0.507198
0.455614
0.419193
0.402303
0.430645
0.673746
1.8781
0.545557
0.48779
0.440936
0.408236
0.38558
0.369992
0.359427
0.352455
0.348048
0.345516
0.344351
0.343963
0.344057
0.344887
0.345906
0.347224
0.348689
0.350314
0.352058
0.353922
0.355899
0.357993
0.360209
0.362527
0.364976
0.367598
0.370409
0.373425
0.616428
0.713394
0.863999
1.12529
1.46184
1.84274
2.23677
2.61488
2.94871
3.20943
3.36878
3.4037
3.30344
3.08037
2.7925
2.49122
2.19675
1.92238
1.67535
1.45759
1.25969
1.09279
0.959064
0.845702
0.746261
0.656779
0.578002
0.51183
0.459015
0.421257
0.40325
0.431124
0.677777
1.89323
0.622922
0.543113
0.47914
0.434822
0.40408
0.382756
0.368092
0.358179
0.351666
0.347578
0.345286
0.344258
0.343935
0.344139
0.344979
0.346026
0.347341
0.348808
0.350425
0.352163
0.354016
0.355984
0.358067
0.360241
0.362528
0.364976
0.367598
0.370409
0.373425
0.726429
0.89033
1.17483
1.54083
1.95698
2.39278
2.82043
3.21316
3.54328
3.78152
3.89951
3.87618
3.70587
3.40881
3.05308
2.69498
2.35427
2.04278
1.76607
1.52471
1.30779
1.12693
0.983703
0.863731
0.7578
0.66437
0.584354
0.516951
0.462794
0.423604
0.404187
0.432079
0.681746
1.90996
0.73803
0.61982
0.53077
0.470612
0.429001
0.400081
0.380021
0.366252
0.356975
0.35091
0.347134
0.345074
0.344176
0.343915
0.344228
0.345071
0.346144
0.347456
0.348924
0.350534
0.352264
0.354108
0.356067
0.358103
0.360242
0.362528
0.364976
0.367598
0.370409
0.373421
0.915851
1.22197
1.61521
2.06388
2.53814
3.01127
3.45821
3.85339
4.16879
4.37406
4.44071
4.35049
4.10391
3.72957
3.30512
2.89079
2.50512
2.15798
1.85299
1.58915
1.35407
1.15977
1.00735
0.878711
0.767667
0.672739
0.591368
0.522621
0.467007
0.426222
0.405467
0.432685
0.686575
1.92805
0.734229
0.938408
0.601428
0.51887
0.462492
0.423393
0.396201
0.377366
0.364472
0.355816
0.350188
0.346719
0.344885
0.344107
0.343907
0.34432
0.345163
0.346261
0.347569
0.349038
0.350639
0.352363
0.354198
0.356108
0.358104
0.360242
0.362528
0.364976
0.367598
0.370399
0.373414
1.26646
1.68483
2.16336
2.67278
3.18719
3.68304
4.13721
4.52445
4.81549
4.97834
4.98472
4.82032
4.49291
4.03956
3.5467
3.07748
2.64858
2.26751
1.93575
1.65068
1.39839
1.19124
1.02701
0.891527
0.778547
0.681981
0.599125
0.528914
0.471709
0.42922
0.406746
0.433879
0.691496
1.94805
0.705128
0.934747
1.30496
0.584272
0.507582
0.454655
0.417945
0.39243
0.374794
0.362753
0.354704
0.349503
0.346337
0.344718
0.344054
0.34391
0.344412
0.345257
0.346376
0.34768
0.349148
0.350743
0.35246
0.354242
0.356108
0.358104
0.360242
0.362528
0.364977
0.367581
0.370377
0.373406
1.74961
2.25555
2.79694
3.34846
3.88775
4.39398
4.84531
5.21589
5.47419
5.58613
5.52442
5.28011
4.869
4.33641
3.77652
3.25436
2.78423
2.37109
2.01416
1.70915
1.44064
1.21734
1.04382
0.905664
0.790565
0.692204
0.607722
0.535909
0.476979
0.43258
0.408468
0.434696
0.697253
1.96964
0.678349
0.888158
1.30173
1.80506
0.568283
0.496678
0.44704
0.412648
0.388773
0.372307
0.361101
0.353642
0.348861
0.345995
0.344576
0.344015
0.343925
0.344503
0.345353
0.346487
0.347789
0.349257
0.350844
0.352508
0.354242
0.356109
0.358104
0.360242
0.362528
0.364954
0.367547
0.370356
0.373398
2.34057
2.91104
3.49572
4.07309
4.62424
5.13068
5.57118
5.91803
6.13626
6.18968
6.05331
5.72499
5.22906
4.61842
3.99375
3.42105
2.91192
2.46863
2.08817
1.76451
1.4755
1.23962
1.06236
0.921282
0.803861
0.703532
0.617266
0.543705
0.482887
0.436454
0.410253
0.436166
0.70351
1.9935
0.653793
0.844018
1.23397
1.80338
2.41273
0.553003
0.486066
0.439636
0.407507
0.385234
0.369912
0.359517
0.352639
0.348278
0.345695
0.344455
0.34399
0.343952
0.344592
0.34545
0.346596
0.347897
0.349363
0.350894
0.352509
0.354243
0.356109
0.358105
0.360243
0.362501
0.364909
0.367513
0.370334
0.37339
3.01547
3.62982
4.24028
4.82942
5.3817
5.88069
6.30455
6.62201
6.79359
6.78175
6.56552
6.1509
5.57074
4.88448
4.19796
3.57745
3.03167
2.56021
2.15779
1.80987
1.50514
1.26412
1.08281
0.93856
0.818595
0.716109
0.627887
0.552412
0.489547
0.440829
0.412566
0.43741
0.710279
2.01913
0.63083
0.802702
1.16711
1.71704
2.41365
3.10346
0.538226
0.475738
0.432453
0.402531
0.381822
0.367611
0.358016
0.35172
0.347757
0.345435
0.344354
0.343975
0.343995
0.344676
0.345548
0.346703
0.348004
0.349416
0.350893
0.352509
0.354243
0.35611
0.358105
0.36021
0.362445
0.364863
0.367477
0.370311
0.373382
3.75151
4.3908
5.0116
5.60077
6.14632
6.63297
7.03637
7.31969
7.4386
7.35563
7.05594
6.55463
5.89244
5.13397
4.38903
3.72368
3.14367
2.64595
2.21451
1.84826
1.53759
1.29107
1.10541
0.9577
0.83495
0.7301
0.639732
0.562165
0.497059
0.445894
0.415125
0.439142
0.718496
2.04746
0.609116
0.763843
1.10178
1.6301
2.31118
3.10758
3.85284
0.523895
0.465717
0.425506
0.39773
0.378543
0.365427
0.356635
0.350895
0.347291
0.345213
0.344269
0.34396
0.344052
0.344758
0.345647
0.346811
0.348057
0.349415
0.350894
0.35251
0.354244
0.35611
0.358069
0.360145
0.362388
0.364815
0.367441
0.370287
0.373374
4.52586
5.17311
5.79112
6.37173
6.90605
7.37819
7.75872
8.0036
8.06415
7.90527
7.52035
6.93383
6.19316
5.36668
4.56716
3.86002
3.24816
2.7155
2.26234
1.89008
1.57313
1.32075
1.13039
0.978927
0.853134
0.745696
0.652976
0.573117
0.505578
0.451696
0.418226
0.441215
0.726275
2.07768
0.588488
0.727323
1.03779
1.5431
2.20705
2.99103
3.85941
4.63626
0.510009
0.456026
0.418809
0.393118
0.375429
0.363415
0.355391
0.350154
0.346872
0.345021
0.3442
0.343945
0.344118
0.344839
0.345752
0.346863
0.348055
0.349416
0.350894
0.352511
0.354245
0.356069
0.357994
0.360077
0.362329
0.364766
0.367403
0.370263
0.373365
5.31589
5.95631
6.56173
7.12903
7.65108
8.10873
8.46464
8.6667
8.66351
8.42536
7.95547
7.28699
6.47249
5.58279
4.73268
3.98683
3.33265
2.77398
2.31423
1.93564
1.61204
1.35342
1.15802
1.0025
0.873383
0.763116
0.667821
0.585458
0.515261
0.458403
0.422012
0.443164
0.737383
2.11682
0.568858
0.693184
0.975292
1.45569
2.10176
2.87238
3.73022
4.64303
5.42927
0.496587
0.446695
0.41238
0.388736
0.372557
0.361599
0.35427
0.349487
0.346502
0.344858
0.344143
0.343935
0.344189
0.344928
0.345804
0.346859
0.348056
0.349417
0.350895
0.352512
0.354201
0.355987
0.357918
0.360008
0.362268
0.364716
0.367365
0.370239
0.373356
6.09917
6.72143
7.30867
7.86209
8.37401
8.81832
9.14778
9.30221
9.23054
8.91158
8.359
7.61334
6.73057
5.78275
4.8861
4.08904
3.40352
2.83725
2.37053
1.98525
1.65462
1.38939
1.1886
1.02869
0.895966
0.782614
0.684505
0.599405
0.526311
0.466262
0.426181
0.446652
0.747744
2.16487
0.550158
0.66143
0.914711
1.36776
1.99479
2.75191
3.59919
4.50165
5.43235
6.20844
0.48366
0.437753
0.406277
0.384697
0.369964
0.359959
0.353259
0.34889
0.346176
0.344718
0.344097
0.343934
0.344275
0.344969
0.3458
0.346859
0.348057
0.349418
0.350898
0.352464
0.354111
0.355902
0.35784
0.359937
0.362206
0.364664
0.367325
0.370214
0.373347
6.85493
7.45217
8.02038
8.56356
9.06914
9.50174
9.80208
9.9035
9.75981
9.36057
8.72964
7.91289
6.96793
5.96718
5.00929
4.1746
3.48003
2.90568
2.43156
2.03921
1.70119
1.42896
1.22244
1.05782
0.921183
0.80448
0.703305
0.615223
0.539006
0.47528
0.431936
0.449503
0.767541
2.21299
0.532332
0.632112
0.856697
1.27954
1.88575
2.62899
3.46636
4.35962
5.27793
6.20282
6.95202
0.471265
0.429284
0.400658
0.381053
0.367623
0.358479
0.35235
0.348357
0.34589
0.344597
0.34406
0.343959
0.344319
0.344956
0.345803
0.346861
0.348059
0.349421
0.350848
0.352367
0.354019
0.355815
0.357759
0.359865
0.362143
0.364612
0.367285
0.370188
0.373338
7.56525
8.1357
8.68948
9.22802
9.73228
10.1548
10.4208
10.4645
10.2467
9.77018
9.0671
8.18622
7.18536
6.1145
5.11214
4.26676
3.56256
2.97961
2.49765
2.09785
1.75208
1.47248
1.25987
1.09022
0.949371
0.829044
0.724547
0.633232
0.553562
0.48619
0.438746
0.456793
0.781587
2.26207
0.515345
0.605124
0.801902
1.19155
1.77449
2.50291
3.331
4.2166
5.1252
6.03268
6.93163
7.64053
0.459526
0.421508
0.395592
0.377764
0.365509
0.357144
0.351532
0.34788
0.345636
0.344494
0.344055
0.343966
0.344312
0.344957
0.345805
0.346864
0.348064
0.349369
0.350747
0.352269
0.353925
0.355726
0.357677
0.35979
0.362078
0.364558
0.367243
0.370161
0.373328
8.21578
8.76491
9.30628
9.84351
10.3514
10.7693
10.9993
10.979
10.6876
10.1396
9.37194
8.43433
7.35775
6.23702
5.22259
4.3659
3.65148
3.05938
2.56913
2.16149
1.8076
1.52028
1.30125
1.12625
0.980895
0.856678
0.7486
0.653787
0.570537
0.500873
0.450932
0.461867
0.805645
2.31076
0.4993
0.580274
0.751026
1.10455
1.66112
2.37314
3.19214
4.07189
4.97332
5.86813
6.74155
7.59765
8.25868
0.448759
0.414516
0.391026
0.374797
0.363601
0.35594
0.350795
0.347451
0.345418
0.344439
0.344048
0.343945
0.344318
0.344961
0.345807
0.346871
0.348013
0.349264
0.350645
0.352168
0.353829
0.355634
0.357592
0.359714
0.362011
0.364502
0.3672
0.370134
0.373319
8.79717
9.32757
9.86896
10.4154
10.9265
11.3354
11.528
11.4416
11.0809
10.469
9.64538
8.62905
7.50032
6.36803
5.341
4.47239
3.74714
3.14534
2.64631
2.23045
1.86807
1.57268
1.34693
1.16629
1.01615
0.887785
0.775898
0.677387
0.593671
0.522074
0.462519
0.472381
0.824105
2.35936
0.484576
0.55749
0.70468
1.01951
1.54594
2.23936
3.04884
3.92427
4.82161
5.70754
6.56267
7.38289
8.18105
8.79986
0.439101
0.408231
0.386912
0.372121
0.361878
0.354852
0.350129
0.347079
0.345276
0.344405
0.344023
0.343951
0.344322
0.344968
0.345817
0.346823
0.347907
0.349156
0.35054
0.352064
0.35373
0.355541
0.357506
0.359636
0.361942
0.364445
0.367156
0.370107
0.37331
9.30581
9.8265
10.38
10.9483
11.4614
11.8502
12.0003
11.8491
11.4262
10.76
9.85706
8.78887
7.6518
6.50774
5.46765
4.58653
3.84983
3.23778
2.7295
2.30501
1.9338
1.63002
1.39727
1.21071
1.05554
0.922813
0.806909
0.709449
0.625111
0.545643
0.480479
0.479856
0.852228
2.40778
0.471338
0.537055
0.663193
0.937658
1.42948
2.10145
2.90029
3.77245
4.66873
5.55022
6.39229
7.1861
7.93785
8.66379
9.24676
0.430451
0.40258
0.383205
0.369705
0.360318
0.353865
0.349544
0.346815
0.34519
0.344369
0.344032
0.34396
0.344325
0.344989
0.345771
0.346718
0.347801
0.349047
0.350433
0.351958
0.353629
0.355445
0.357417
0.359556
0.361871
0.364387
0.367113
0.370081
0.373301
9.72957
10.2549
10.8359
11.4369
11.9545
12.3084
12.4106
12.1998
11.7248
10.981
10.029
8.95714
7.8121
6.65626
5.60273
4.70857
3.95985
3.33698
2.81895
2.38544
2.00505
1.69259
1.45258
1.25989
1.09949
0.962187
0.84869
0.751742
0.660402
0.574828
0.498511
0.495818
0.877272
2.45487
0.459461
0.518899
0.627464
0.861218
1.31264
1.95944
2.74576
3.61511
4.51306
5.39466
6.22957
7.00381
7.71934
8.39034
9.0408
9.59087
0.422708
0.397498
0.379866
0.367518
0.3589
0.352994
0.349113
0.346664
0.345136
0.344383
0.344042
0.343972
0.344344
0.344957
0.345671
0.346613
0.347694
0.348936
0.350323
0.35185
0.353525
0.355347
0.357325
0.359474
0.361799
0.36433
0.367071
0.370056
0.373292
10.0648
10.6122
11.2385
11.8784
12.3948
12.7011
12.754
12.4951
11.9457
11.1578
10.2077
9.13329
7.98094
6.81349
5.74631
4.83867
4.07737
3.44314
2.91488
2.47194
2.08204
1.76063
1.51316
1.31417
1.14834
1.01464
0.902539
0.798519
0.701035
0.607211
0.525084
0.507538
0.909446
2.50212
0.448829
0.50262
0.597534
0.793366
1.19759
1.81367
2.58468
3.45089
4.35281
5.239
6.07279
6.83489
7.52246
8.14687
8.72967
9.30364
9.82743
0.415777
0.392929
0.376849
0.36553
0.357645
0.352336
0.348876
0.346592
0.345155
0.344394
0.344055
0.344015
0.344312
0.344874
0.345576
0.346508
0.347586
0.348822
0.350211
0.351739
0.353419
0.355246
0.357232
0.35939
0.361728
0.364275
0.36703
0.370031
0.373284
10.3077
10.8995
11.5904
12.268
12.7695
13.0182
13.0271
12.7052
12.1184
11.3382
10.3918
9.31637
8.15771
6.97915
5.8983
4.97684
4.20249
3.55638
3.01741
2.56465
2.16494
1.83434
1.57924
1.37378
1.21264
1.08082
0.960873
0.850239
0.745914
0.646652
0.552882
0.531075
0.944569
2.5471
0.439335
0.487962
0.572191
0.73544
1.08906
1.66583
2.41663
3.27843
4.18605
5.08112
5.91985
6.67722
7.3458
7.93284
8.45719
8.94799
9.44135
9.94769
0.40957
0.388811
0.37411
0.363763
0.35668
0.351983
0.348785
0.346619
0.34517
0.344409
0.344107
0.344028
0.344235
0.344799
0.345485
0.346401
0.347477
0.348706
0.350096
0.351626
0.35331
0.355144
0.357136
0.359308
0.361658
0.364221
0.36699
0.370008
0.373276
10.4541
11.1221
11.8905
12.592
13.0635
13.252
13.2007
12.8633
12.2896
11.5199
10.5796
9.505
8.34148
7.15266
6.0584
5.12296
4.33517
3.67672
3.1266
2.66362
2.2538
1.91382
1.65094
1.45119
1.29211
1.15099
1.02348
0.906141
0.796508
0.689897
0.590592
0.553092
0.981449
2.59197
0.43087
0.47476
0.55041
0.687026
0.990421
1.52103
2.24273
3.09643
4.01064
4.91858
5.76842
6.52846
7.18667
7.74668
8.22371
8.64213
9.03816
9.44108
9.93761
0.403997
0.385085
0.371669
0.362384
0.35617
0.35187
0.348822
0.346638
0.345188
0.34448
0.344139
0.344015
0.344174
0.344724
0.345396
0.346292
0.347366
0.348588
0.349979
0.351511
0.353198
0.35504
0.357042
0.359228
0.361591
0.364168
0.366952
0.369984
0.373268
10.5067
11.2818
12.1236
12.8296
13.258
13.3852
13.3171
13.0113
12.4555
11.6997
10.7685
9.69731
8.53091
7.33313
6.22603
5.27667
4.47521