/*--------------------------------*- C++ -*----------------------------------*\
  =========                 |
  \\      /  F ield         | OpenFOAM: The Open Source CFD Toolbox
   \\    /   O peration     | Website:  https://openfoam.org
    \\  /    A nd           | Version:  8
     \\/     M anipulation  |
\*---------------------------------------------------------------------------*/
FoamFile
{
    version     2.0;
    format      ascii;
    class       volScalarField;
    location    "0.43";
    object      nut;
}
// * * * * * * * * * * * * * * * * * * * * * * * * * * * * * * * * * * * * * //

dimensions      [0 2 -1 0 0 0 0];

internalField   nonuniform List<scalar> 
15677
(
0.000168247
0.000653001
0.000148437
0.00151369
0.000442461
0.000141529
0.00267545
0.000875761
0.00038102
0.000142399
0.00392115
0.00151893
0.000686196
0.000354167
0.000145489
0.00502401
0.00235634
0.00114549
0.00058536
0.000340088
0.000151178
0.00584048
0.00331786
0.00177927
0.000947159
0.000528826
0.000331847
0.000156999
0.00633492
0.00429937
0.00256555
0.00146235
0.000819828
0.000492151
0.000326851
0.000162339
0.00656281
0.00518839
0.00345038
0.00213026
0.00125526
0.000736569
0.000467125
0.000323906
0.000167157
0.00665846
0.005894
0.0043527
0.00292047
0.00183865
0.00111107
0.000676584
0.000450122
0.000322424
0.000171259
0.00670555
0.00633836
0.00517852
0.00377715
0.00255326
0.00162977
0.00100296
0.000633522
0.000438509
0.000321733
0.000174868
0.00671445
0.00655341
0.00584377
0.00462349
0.00335852
0.00228367
0.00146997
0.000923118
0.000601731
0.000430468
0.000321799
0.000177895
0.00670997
0.00666147
0.00629471
0.0053756
0.00419263
0.00304175
0.00207401
0.00134716
0.00086113
0.000578173
0.000425214
0.000322114
0.000180544
0.00670633
0.00669873
0.00652914
0.00596325
0.00498027
0.00385336
0.00279102
0.0019089
0.00124916
0.000813406
0.000560697
0.000421542
0.000322881
0.000182808
0.00670544
0.00670435
0.00664661
0.00635591
0.00564694
0.00465189
0.00357808
0.00258973
0.00177472
0.0011718
0.000775814
0.000547403
0.00041943
0.000323634
0.000184847
0.00670548
0.00670282
0.00668781
0.00656226
0.00613996
0.00536494
0.00437599
0.00335232
0.00242383
0.00166595
0.00110831
0.000746161
0.000537661
0.000417986
0.000324627
0.000186658
0.00670563
0.00670156
0.00669639
0.0066562
0.00644557
0.00593092
0.00511619
0.00414362
0.00316364
0.00228678
0.00157578
0.00105722
0.000722889
0.000530172
0.000417403
0.000325508
0.000188239
0.00670571
0.00670106
0.0066972
0.00668464
0.00660421
0.0063199
0.00573357
0.00489903
0.00394575
0.00300529
0.00217196
0.00150141
0.00101568
0.000704366
0.00052487
0.000416987
0.000326571
0.000189761
0.00670574
0.00670092
0.00669688
0.00669135
0.00666347
0.00654014
0.00618547
0.00555279
0.00470931
0.00377684
0.00287128
0.00207585
0.00143967
0.000981893
0.000689956
0.000520679
0.000417231
0.000327505
0.000190995
0.00670574
0.00670089
0.00669667
0.00669232
0.00668233
0.00663382
0.00646609
0.00605487
0.00538923
0.00454393
0.00363219
0.00275775
0.00199515
0.00138878
0.000954515
0.000678438
0.00051803
0.000417419
0.000328575
0.000192372
0.00670574
0.00670088
0.00669662
0.00669215
0.00668754
0.00666848
0.0065971
0.00638743
0.00593121
0.00524276
0.00440005
0.0035082
0.00266161
0.00192792
0.00134676
0.000932455
0.000669831
0.000515888
0.000418158
0.000329554
0.000193334
0.00670573
0.00670087
0.00669663
0.00669192
0.00668869
0.00668006
0.00665108
0.00655486
0.00630831
0.00581646
0.00511247
0.00427501
0.00340239
0.00258077
0.00187197
0.00131268
0.000915049
0.00066299
0.000514953
0.000418723
0.0003306
0.000194677
0.00670573
0.00670086
0.00669665
0.00669178
0.00668886
0.00668328
0.00667184
0.00662935
0.00650958
0.00623095
0.00571118
0.00499739
0.0041674
0.00331274
0.00251318
0.00182632
0.0012852
0.000901349
0.000658433
0.000514195
0.000419793
0.000331681
0.000195434
0.00670573
0.00670085
0.00669667
0.0066917
0.00668887
0.00668389
0.0066791
0.00666034
0.00660522
0.0064637
0.00615733
0.00561656
0.00489722
0.00407538
0.00323736
0.00245778
0.0017894
0.00126387
0.000891449
0.000654937
0.000514449
0.000420597
0.000332615
0.000196775
0.00670573
0.00670085
0.00669667
0.00669165
0.00668888
0.00668383
0.00668138
0.00667198
0.00664834
0.00657955
0.00641714
0.00609029
0.00553267
0.00481036
0.00399762
0.00317567
0.00241326
0.00176115
0.00124789
0.00088396
0.000653328
0.000514673
0.000421977
0.000334004
0.000197472
0.00670573
0.00670085
0.00669667
0.00669163
0.00668888
0.00668369
0.00668202
0.00667582
0.00666635
0.00663418
0.00655257
0.00637497
0.00602826
0.00545864
0.00473726
0.00393454
0.00312626
0.00237899
0.00173953
0.0012364
0.00087994
0.000652399
0.000515861
0.000422832
0.00033477
5.34791e-05
0.00670574
0.00670085
0.00669666
0.00669163
0.00668887
0.0066836
0.00668216
0.00667685
0.00667329
0.00665797
0.00662002
0.00652787
0.00633314
0.00597376
0.00539776
0.00467765
0.00388289
0.00308757
0.00235332
0.00172596
0.00123062
0.000877716
0.00065317
0.000516835
0.000425411
0.000279314
6.36595e-05
0.00670574
0.00670086
0.00669665
0.00669164
0.00668885
0.00668355
0.00668216
0.00667701
0.00667572
0.00666748
0.00665136
0.00660625
0.00650245
0.00629947
0.00592931
0.00534477
0.00462801
0.00384503
0.00306285
0.00233977
0.00171957
0.00122792
0.000878439
0.000654463
0.000519118
0.0004177
0.000213596
7.10373e-05
0.00670574
0.00670086
0.00669663
0.00669165
0.00668881
0.00668353
0.00668212
0.00667696
0.00667645
0.00667093
0.00666489
0.00664378
0.00659258
0.00648313
0.00626735
0.0058874
0.00530709
0.00459847
0.0038235
0.0030486
0.00233253
0.00171768
0.00122922
0.000880678
0.000656706
0.00051977
0.000395632
0.000172421
7.63211e-05
0.00670574
0.00670087
0.00669661
0.00669168
0.00668877
0.00668354
0.00668206
0.00667689
0.00667658
0.00667201
0.00667027
0.00666056
0.00663743
0.00658329
0.0064648
0.00624274
0.00586774
0.00528446
0.00457783
0.00380888
0.0030418
0.0023317
0.00172123
0.00123419
0.000884544
0.000659678
0.000517078
0.000360338
0.000147644
8.01272e-05
0.00670574
0.00670088
0.00669659
0.0066917
0.00668873
0.00668356
0.006682
0.00667685
0.00667654
0.00667224
0.00667219
0.00666753
0.00665834
0.00663471
0.00657357
0.00645235
0.00623511
0.00585212
0.00526836
0.00456595
0.00380432
0.00304464
0.00233942
0.00173112
0.00124235
0.000890536
0.000662785
0.000509768
0.000327976
0.000131772
8.31804e-05
0.00670574
0.00670089
0.00669657
0.00669173
0.00668868
0.0066836
0.00668193
0.00667684
0.00667646
0.00667223
0.00667271
0.00667015
0.00666744
0.00665931
0.00662993
0.0065736
0.00645187
0.00622955
0.00584364
0.0052628
0.00456823
0.00381428
0.00305915
0.00235557
0.00174587
0.00125419
0.000897936
0.000665032
0.000496706
0.000300411
0.000119965
8.55638e-05
0.00670574
0.00670089
0.00669655
0.00669176
0.00668863
0.00668364
0.00668185
0.00667685
0.00667637
0.00667218
0.00667277
0.00667093
0.00667109
0.00667032
0.00665817
0.00663939
0.00657705
0.00645571
0.00623003
0.00584876
0.00527486
0.00458584
0.00383652
0.00308348
0.002379
0.00176578
0.00126884
0.0009067
0.00066605
0.000481661
0.000276319
0.000111413
8.73185e-05
0.00670574
0.0067009
0.00669653
0.00669178
0.00668858
0.00668369
0.00668178
0.00667688
0.00667627
0.00667212
0.00667271
0.00667107
0.00667232
0.00667484
0.00667144
0.00667227
0.00664539
0.00658656
0.00646623
0.00624666
0.00587068
0.00530123
0.00461721
0.00387068
0.00311754
0.00240968
0.00179015
0.00128674
0.000916561
0.000665969
0.000465856
0.000255978
0.00010571
8.8693e-05
0.00670574
0.0067009
0.00669652
0.00669181
0.00668853
0.00668373
0.00668169
0.00667692
0.00667617
0.00667209
0.0066726
0.00667101
0.00667264
0.00667638
0.00667727
0.00668791
0.00668042
0.00665873
0.00660569
0.00649095
0.00627752
0.00590722
0.00534292
0.0046625
0.00391692
0.00316116
0.00244729
0.00181917
0.00130724
0.000927088
0.000665058
0.000449872
0.000240871
0.000101803
8.98304e-05
0.00670091
0.00670574
0.0066965
0.00669183
0.00668849
0.00668378
0.00668161
0.00667697
0.00667606
0.00667208
0.00667249
0.00667091
0.00667266
0.00667677
0.00667951
0.00669495
0.00669746
0.00669658
0.00668396
0.00663697
0.00652959
0.00632324
0.00596008
0.00540007
0.00472202
0.00397519
0.00321429
0.00249173
0.00185253
0.00133056
0.000940305
0.000663379
0.000437248
0.000229183
9.90276e-05
9.08204e-05
0.00669649
0.00670093
0.00670575
0.00669185
0.00668845
0.00668383
0.00668154
0.00667703
0.00667595
0.00667209
0.00667237
0.0066708
0.00667258
0.00667676
0.00668027
0.00669775
0.00670534
0.00671549
0.00672613
0.00672005
0.00668204
0.00658359
0.0063864
0.00602973
0.00547378
0.00479613
0.0040455
0.00327664
0.00254278
0.00188998
0.00135894
0.000956051
0.000663389
0.000426617
0.000220235
9.70748e-05
9.17106e-05
0.00669187
0.0066965
0.00670097
0.00670577
0.00668841
0.00668387
0.00668147
0.00667709
0.00667584
0.00667213
0.00667224
0.00667072
0.00667248
0.00667661
0.0066805
0.00669874
0.00670866
0.00672457
0.00674794
0.00676567
0.00677026
0.00674264
0.00665548
0.00646783
0.00611818
0.00556466
0.00488473
0.00412767
0.00334807
0.00260016
0.00193642
0.00139323
0.000973794
0.000663854
0.000418674
0.000213096
9.56175e-05
9.2532e-05
0.00668838
0.00669193
0.00669653
0.006701
0.00670578
0.00668391
0.0066814
0.00667715
0.00667573
0.00667218
0.00667211
0.00667067
0.00667238
0.00667643
0.00668054
0.00669904
0.00670998
0.00672866
0.00675887
0.00679006
0.00681985
0.00683622
0.00682166
0.00674606
0.0065695
0.00622542
0.0056733
0.00498837
0.00422155
0.00342814
0.00267076
0.00199399
0.00143012
0.000992576
0.000666506
0.000412046
0.00020741
9.45852e-05
9.33014e-05
0.00668395
0.00668838
0.00669202
0.00669656
0.00670104
0.00670579
0.00668134
0.00667721
0.00667563
0.00667223
0.00667198
0.00667065
0.00667227
0.00667626
0.00668052
0.00669908
0.00671052
0.00673051
0.00676416
0.00680305
0.00684718
0.00688958
0.00692052
0.00691957
0.00685779
0.00669103
0.00635247
0.00579992
0.00510679
0.00432671
0.00352662
0.00275768
0.00205673
0.00146938
0.00101351
0.000670711
0.000407092
0.000202656
9.37738e-05
9.4026e-05
0.00668128
0.00668404
0.00668842
0.00669211
0.0066966
0.00670108
0.0067058
0.00667726
0.00667553
0.0066723
0.00667184
0.00667066
0.00667215
0.00667611
0.0066805
0.00669902
0.00671074
0.00673144
0.0067669
0.00681006
0.00686313
0.00692138
0.00698044
0.00702579
0.00703911
0.00698931
0.00683348
0.00649875
0.00594303
0.00524055
0.00445628
0.00364736
0.00285249
0.0021241
0.00151089
0.00103482
0.000675853
0.000403476
0.00019875
9.32035e-05
9.47157e-05
0.00667731
0.00668127
0.00668418
0.00668846
0.00669221
0.00669663
0.00670112
0.00670582
0.00667545
0.00667236
0.00667171
0.00667069
0.00667202
0.00667599
0.00668048
0.00669893
0.00671084
0.00673199
0.00676852
0.00681412
0.00687256
0.00694075
0.00701755
0.00709326
0.00715676
0.00718371
0.00714437
0.00699482
0.00666283
0.0061026
0.00540413
0.00461652
0.00377968
0.00295414
0.00219566
0.00155485
0.00105688
0.000682198
0.000400958
0.00019546
9.27427e-05
9.53658e-05
0.00667537
0.00667743
0.0066813
0.00668433
0.0066885
0.00669231
0.00669667
0.00670116
0.00670583
0.00667242
0.00667159
0.00667074
0.00667187
0.00667593
0.00668047
0.00669884
0.0067109
0.00673238
0.00676965
0.00681688
0.00687872
0.00695324
0.00704204
0.00713702
0.00723318
0.00731315
0.00735608
0.00732576
0.0071779
0.00684365
0.00629537
0.00560288
0.00479097
0.0039221
0.00306204
0.00227074
0.00160088
0.00107951
0.000689891
0.000399398
0.00019264
9.24065e-05
9.59886e-05
0.00667248
0.00667533
0.00667761
0.00668133
0.00668449
0.00668855
0.0066924
0.00669672
0.0067012
0.00670585
0.00667147
0.0066708
0.00667172
0.00667591
0.00668044
0.00669875
0.00671093
0.00673269
0.00677055
0.00681903
0.0068833
0.00696216
0.00705949
0.0071681
0.00728605
0.00740083
0.00749959
0.00755521
0.00753394
0.00738603
0.00706239
0.00652735
0.00581621
0.00497538
0.00407191
0.00317501
0.00234888
0.00164854
0.00110263
0.000697903
0.000398607
0.000190346
9.21577e-05
9.65717e-05
0.00667136
0.0066726
0.00667532
0.0066778
0.00668138
0.00668464
0.00668861
0.0066925
0.00669676
0.00670124
0.00670586
0.00667086
0.00667156
0.00667593
0.0066804
0.00669867
0.00671097
0.00673296
0.00677131
0.00682086
0.00688705
0.00696932
0.00707306
0.00719193
0.00732665
0.00746537
0.00760202
0.00771593
0.0077837
0.00776775
0.00764466
0.00733551
0.00677122
0.00603756
0.00516715
0.00422761
0.00329205
0.00242933
0.00169734
0.00112676
0.000706148
0.000398499
0.000188237
9.19454e-05
9.71318e-05
0.00667092
0.00667126
0.00667279
0.00667533
0.00667799
0.00668143
0.00668478
0.00668867
0.00669259
0.00669681
0.00670127
0.00670588
0.00667141
0.006676
0.00668032
0.00669861
0.00671101
0.00673321
0.006772
0.00682249
0.00689028
0.00697552
0.00708449
0.00721146
0.00736026
0.00751834
0.00768226
0.00783658
0.00796595
0.00804198
0.00805686
0.00796263
0.0076371
0.00703648
0.006266
0.00536376
0.00438662
0.0034115
0.00251142
0.00174704
0.00115144
0.000714631
0.000398693
0.000186606
9.18228e-05
9.76523e-05
0.00667127
0.00667101
0.00667115
0.00667299
0.00667534
0.00667818
0.00668149
0.00668493
0.00668874
0.00669269
0.00669686
0.00670131
0.00670589
0.00667609
0.00668019
0.00669857
0.00671106
0.00673345
0.00677263
0.00682397
0.00689315
0.00698111
0.00709458
0.00722855
0.00738941
0.00756456
0.00775227
0.00793672
0.00811015
0.00825041
0.00836346
0.00841547
0.00830986
0.00795867
0.0073191
0.00650098
0.00556125
0.00454713
0.00353274
0.00259452
0.00179729
0.0011764
0.000723212
0.000399504
0.000185012
9.16915e-05
9.81525e-05
0.00667619
0.006671
0.00667113
0.00667106
0.00667317
0.00667538
0.00667836
0.00668156
0.00668507
0.00668881
0.00669278
0.00669692
0.00670135
0.00670591
0.00668001
0.00669857
0.00671113
0.00673369
0.00677322
0.00682532
0.00689575
0.00698622
0.00710366
0.00724412
0.00741577
0.00760581
0.00781654
0.008029
0.00823663
0.00842368
0.00860749
0.00876594
0.00881024
0.00868337
0.00829724
0.00761466
0.00674627
0.00576044
0.00470844
0.00365417
0.00267791
0.00184774
0.00120151
0.000731962
0.00040029
0.000183827
9.1641e-05
9.86142e-05
0.00667979
0.00667619
0.00667059
0.00667124
0.00667099
0.00667335
0.00667543
0.00667853
0.00668165
0.00668521
0.0066889
0.00669287
0.00669698
0.00670139
0.00670592
0.00669863
0.00671122
0.00673393
0.00677376
0.00682657
0.00689812
0.00699092
0.00711193
0.00725853
0.00744002
0.00764371
0.00787624
0.00811734
0.00835847
0.00858311
0.00882159
0.00906004
0.00921397
0.00923906
0.00908032
0.00865026
0.00791771
0.00699796
0.00595819
0.00486738
0.00377468
0.00276104
0.00189806
0.00122664
0.000740701
0.000401305
0.000182636
9.15644e-05
9.9058e-05
0.00669878
0.00667894
0.00667611
0.00667018
0.00667135
0.00667095
0.00667352
0.00667551
0.00667869
0.00668176
0.00668534
0.00668899
0.00669296
0.00669704
0.00670142
0.00670594
0.00671131
0.00673415
0.00677426
0.0068277
0.00690029
0.00699523
0.00711949
0.00727194
0.00746242
0.00767918
0.00793276
0.00820101
0.00847841
0.00874338
0.0090296
0.00933352
0.00957099
0.00970756
0.00970091
0.009499
0.00901546
0.00822622
0.00725402
0.00615886
0.00502388
0.00389358
0.00284323
0.00194796
0.00125161
0.000749518
0.00040241
0.000181797
9.15592e-05
9.9465e-05
0.00671139
0.00669839
0.00667734
0.00667604
0.00666983
0.00667142
0.00667095
0.00667366
0.00667562
0.00667884
0.00668188
0.00668547
0.00668909
0.00669305
0.0066971
0.00670146
0.00670595
0.00673435
0.00677469
0.00682873
0.00690229
0.0069992
0.00712643
0.00728441
0.0074831
0.00771264
0.0079865
0.00828048
0.00859457
0.00890815
0.00924859
0.00961285
0.00992178
0.010146
0.0102511
0.0101979
0.00993934
0.00939143
0.00853872
0.00751006
0.00636059
0.0051776
0.00401016
0.00292421
0.0019972
0.00127631
0.000758302
0.000403574
0.000180901
9.15189e-05
9.98567e-05
0.00673455
0.00671046
0.00669752
0.00667589
0.00667588
0.00666957
0.00667145
0.00667101
0.00667378
0.00667575
0.00667898
0.00668201
0.0066856
0.0066892
0.00669313
0.00669716
0.00670149
0.00670596
0.00677506
0.00682966
0.00690412
0.00700283
0.00713281
0.00729595
0.0075022
0.00774426
0.00803725
0.00835616
0.00870836
0.00907408
0.00947916
0.00991725
0.0103009
0.010608
0.0108035
0.0108562
0.0107354
0.0104026
0.00977745
0.00885388
0.00776486
0.00656156
0.00532856
0.00412435
0.00300346
0.00204554
0.00130061
0.000767042
0.000404806
0.000180233
9.15406e-05
0.000100214
0.00677538
0.00673297
0.00670838
0.00669635
0.00667484
0.00667557
0.00666944
0.00667142
0.00667112
0.00667387
0.00667591
0.00667911
0.00668216
0.00668572
0.0066893
0.00669321
0.00669722
0.00670153
0.00670598
0.0068305
0.0069058
0.00700615
0.00713866
0.0073066
0.00751984
0.00777401
0.00808483
0.00842855
0.00882057
0.00923949
0.0097097
0.0102498
0.010747
0.0111538
0.011438
0.0115707
0.011536
0.0113183
0.0108899
0.010173
0.00917062
0.00801758
0.00676033
0.00547545
0.00423485
0.00308059
0.00209278
0.00132443
0.000775624
0.000406022
0.000179582
9.15249e-05
0.000100558
0.00683131
0.00677262
0.0067295
0.00670627
0.00669473
0.0066742
0.00667508
0.00666944
0.00667132
0.00667129
0.00667395
0.00667609
0.00667924
0.00668231
0.00668583
0.0066894
0.00669329
0.00669727
0.00670156
0.00670599
0.00690734
0.00700919
0.00714404
0.00731638
0.00753613
0.00780185
0.00812923
0.00849803
0.00893044
0.00940129
0.00993796
0.0106111
0.0112932
0.0118609
0.0122481
0.0124492
0.0124623
0.0122948
0.011947
0.0114004
0.0105769
0.00948793
0.00826744
0.00695613
0.00562016
0.0043416
0.00315536
0.00213874
0.00134766
0.000784091
0.000407313
0.000179042
9.15629e-05
0.000100832
0.00690879
0.00682781
0.00676657
0.00672609
0.00670417
0.00669278
0.00667396
0.00667441
0.00666957
0.00667118
0.00667149
0.00667402
0.00667628
0.00667937
0.00668246
0.00668594
0.0066895
0.00669336
0.00669733
0.00670159
0.006706
0.00701195
0.00714896
0.00732534
0.00755115
0.00782775
0.0081706
0.00856465
0.00903629
0.00955726
0.0101696
0.0110195
0.0119507
0.0127722
0.0133211
0.0135885
0.0136262
0.0134615
0.0131203
0.0126142
0.01193
0.0109872
0.0098046
0.00851373
0.00714725
0.00576215
0.00444467
0.0032276
0.00218329
0.00137025
0.000792288
0.000408506
0.000178571
9.15608e-05
0.000101064
0.00701449
0.00690382
0.00681965
0.00676052
0.00672287
0.00670212
0.00669036
0.00667407
0.00667358
0.00666981
0.00667101
0.00667173
0.00667408
0.00667648
0.00667949
0.0066826
0.00668605
0.00668959
0.00669344
0.00669738
0.00670162
0.00670601
0.00715344
0.0073335
0.00756495
0.00785169
0.00820909
0.0086281
0.00913663
0.00970777
0.0104136
0.0114864
0.0127095
0.0138227
0.0146211
0.0150158
0.0150754
0.0148967
0.0145216
0.0139854
0.0133053
0.0124715
0.0114007
0.0101192
0.00875565
0.00733317
0.00590067
0.00454404
0.0032972
0.00222634
0.00139213
0.000800295
0.000409823
0.000178187
9.16004e-05
0.000101312
0.00715756
0.0070077
0.0068918
0.00681152
0.00675473
0.00671985
0.00670058
0.00668756
0.00667442
0.00667268
0.0066701
0.00667083
0.00667197
0.00667416
0.00667666
0.00667962
0.00668273
0.00668616
0.00668969
0.00669351
0.00669743
0.00670165
0.00670602
0.00734093
0.00757758
0.00787371
0.00824484
0.00868793
0.00923078
0.00985501
0.0106753
0.0120025
0.0135219
0.0149073
0.0159507
0.0165663
0.0167378
0.0165668
0.0161677
0.015585
0.0148562
0.0140018
0.0130159
0.0118134
0.0104299
0.00899236
0.00751361
0.00603521
0.00463967
0.00336409
0.00226781
0.00141327
0.00080809
0.000410856
0.000177907
9.16017e-05
0.000101584
0.00734767
0.00714832
0.00699047
0.00687977
0.00680358
0.00674924
0.00671695
0.00669946
0.0066846
0.00667488
0.00667179
0.00667039
0.0066707
0.00667219
0.00667425
0.00667684
0.00667975
0.00668286
0.00668627
0.00668977
0.00669358
0.00669748
0.00670168
0.00670602
0.00758913
0.00789388
0.00827794
0.00874378
0.00931894
0.0100012
0.0109534
0.012543
0.0143249
0.0159231
0.0171528
0.0179666
0.0183547
0.0183175
0.0179486
0.0173628
0.0166013
0.0157011
0.0146855
0.0135534
0.0122208
0.010735
0.00922306
0.00768829
0.00616537
0.00473153
0.00342823
0.00230766
0.00143363
0.000814609
0.000411828
0.000177581
9.16579e-05
0.000101877
0.00759959
0.0073356
0.0071239
0.00697317
0.00686801
0.00679586
0.00674394
0.00671423
0.00669852
0.00668168
0.00667531
0.006671
0.00667062
0.00667062
0.00667238
0.00667436
0.00667699
0.00667988
0.00668299
0.00668638
0.00668986
0.00669365
0.00669753
0.0067017
0.00670602
0.00791231
0.00830843
0.00879546
0.00940177
0.0101475
0.0112405
0.0130786
0.0150667
0.0168031
0.0181449
0.0190911
0.0196633
0.0198608
0.01967
0.0191591
0.0184359
0.0175366
0.0164964
0.0153411
0.0140754
0.0126189
0.0110326
0.00944701
0.00785694
0.00629085
0.00481961
0.00348961
0.00234584
0.0014506
0.000820203
0.000412837
0.000177298
9.16675e-05
0.0001022
0.00792886
0.00758377
0.00730167
0.0070994
0.00695623
0.00685656
0.00678826
0.00673888
0.00671168
0.00669761
0.00667901
0.00667556
0.00667041
0.00667076
0.00667063
0.00667254
0.0066745
0.00667714
0.00668002
0.0066831
0.00668649
0.00668994
0.00669372
0.00669755
0.0067017
0.00670602
0.00833645
0.00884304
0.00948002
0.010293
0.0115267
0.0135852
0.0157176
0.0175226
0.0189077
0.0199178
0.0206065
0.0209935
0.0210614
0.0207764
0.0201795
0.0193682
0.0183733
0.0172274
0.0159577
0.0145746
0.0130037
0.011321
0.00966351
0.00801932
0.0064115
0.0049039
0.00354823
0.00237753
0.00146515
0.000826449
0.000414089
0.000176944
9.17434e-05
0.000102548
0.0083616
0.0079089
0.00753699
0.0072676
0.0070754
0.00693972
0.00684537
0.00678074
0.00673424
0.00670921
0.00669666
0.00667689
0.00667548
0.00667005
0.0066708
0.0066707
0.00667266
0.00667464
0.00667727
0.00668016
0.00668321
0.00668659
0.00669002
0.00669375
0.00669755
0.0067017
0.00670602
0.00888678
0.00955428
0.0104362
0.0118023
0.0140476
0.0162677
0.0180857
0.0194608
0.0204779
0.0212185
0.0217232
0.0219901
0.0219835
0.0216536
0.0210166
0.0201593
0.0191066
0.0178871
0.0165285
0.0150463
0.0133724
0.0115988
0.00987193
0.00817523
0.00652717
0.00498441
0.00359678
0.00240463
0.00148128
0.000833378
0.000415383
0.000176666
9.17638e-05
0.000102932
0.00892589
0.00833616
0.00784529
0.00749007
0.00723417
0.00705199
0.0069236
0.00683442
0.00677324
0.00672986
0.00670673
0.00669532
0.00667563
0.00667507
0.00666993
0.00667076
0.00667082
0.00667275
0.0066748
0.00667739
0.00668029
0.00668332
0.00668669
0.00669006
0.00669375
0.00669755
0.0067017
0.00670602
0.00962488
0.0105745
0.01206
0.0144591
0.0167202
0.0185115
0.0198394
0.0208219
0.021563
0.0221215
0.0225114
0.0227108
0.0226713
0.0223323
0.0216897
0.0208194
0.0197398
0.0184747
0.0170506
0.0154871
0.0137226
0.0118648
0.0100718
0.00832456
0.00663781
0.00505107
0.00363815
0.00243455
0.00149917
0.000841164
0.000416999
0.000176286
9.18632e-05
0.000103346
0.00968955
0.00889399
0.0082498
0.00778143
0.007444
0.00720151
0.00702915
0.00690788
0.00682371
0.00676588
0.00672563
0.00670421
0.00669319
0.00667509
0.00667441
0.00666996
0.00667066
0.00667098
0.00667283
0.00667497
0.00667751
0.00668043
0.00668342
0.00668675
0.00669006
0.00669375
0.00669755
0.0067017
0.00670602
0.0107064
0.0123016
0.0148194
0.0170857
0.0188241
0.0200815
0.0210017
0.0217058
0.0222679
0.0227167
0.0230438
0.0232131
0.0231693
0.0228458
0.0222221
0.0213633
0.0202809
0.018993
0.0175239
0.0158959
0.0140531
0.0121182
0.0102629
0.00846724
0.00672952
0.00510817
0.00368363
0.00246761
0.00151908
0.000849823
0.000418687
0.000176028
9.19024e-05
0.000103801
0.0108251
0.00964925
0.00877577
0.00816336
0.00771866
0.00739898
0.00716964
0.00700689
0.00689256
0.00681333
0.00675865
0.0067216
0.00670177
0.00669049
0.00667505
0.00667362
0.0066701
0.00667054
0.00667116
0.00667291
0.00667514
0.00667761
0.00668057
0.00668347
0.00668675
0.00669006
0.00669375
0.00669755
0.0067017
0.00670602
0.0125261
0.0151276
0.0173769
0.0190472
0.0202209
0.0210619
0.0217039
0.0222331
0.0226908
0.0230816
0.0233813
0.0235457
0.0235166
0.0232252
0.022637
0.0218069
0.0207396
0.019447
0.0179502
0.0162723
0.0143632
0.0123586
0.0104449
0.00858534
0.00680778
0.00517133
0.00373372
0.00250422
0.00154123
0.000859626
0.000420775
0.000175609
9.20284e-05
0.000104291
0.0107792
0.0127244
0.00947465
0.0086596
0.00807819
0.00765725
0.00735498
0.00713854
0.0069852
0.00687769
0.0068034
0.0067516
0.00671792
0.00669988
0.00668745
0.00667527
0.0066728
0.00667029
0.00667042
0.00667134
0.00667298
0.0066753
0.00667772
0.00668064
0.00668346
0.00668676
0.00669006
0.00669375
0.00669755
0.00670169
0.00670601
0.0153877
0.0176067
0.0192013
0.0202854
0.0210382
0.0216025
0.0220732
0.0225028
0.0229078
0.0232754
0.0235712
0.0237472
0.0237458
0.0234971
0.0229553
0.0221659
0.0211266
0.019843
0.0183322
0.0166175
0.0146528
0.0125857
0.010595
0.00868612
0.00689385
0.00524129
0.00378901
0.00254482
0.00156603
0.000870559
0.00042303
0.000175369
9.21014e-05
0.000104831
0.0105116
0.0126765
0.0156024
0.00930753
0.00854602
0.00799467
0.00759722
0.00731201
0.00710824
0.00696414
0.00686335
0.00679398
0.00674498
0.00671458
0.00669862
0.00668446
0.00667556
0.00667205
0.00667046
0.00667032
0.00667152
0.00667305
0.00667547
0.00667777
0.00668066
0.00668346
0.00668676
0.00669006
0.00669375
0.00669753
0.00670166
0.006706
0.0177869
0.0193032
0.0202965
0.0209577
0.0214354
0.0218311
0.0222057
0.0225873
0.0229743
0.0233416
0.0236488
0.0238479
0.0238827
0.0236837
0.0231953
0.0224541
0.0214516
0.0201872
0.0186735
0.0169328
0.0149223
0.0127713
0.0107227
0.00879691
0.00698867
0.00531889
0.00385019
0.00258997
0.00159373
0.000883043
0.000425735
0.000174921
9.22525e-05
0.00010541
0.0102466
0.0123054
0.0155284
0.0179235
0.00914959
0.00843445
0.00791291
0.00753856
0.00727012
0.00707879
0.00694376
0.00684958
0.00678499
0.00673888
0.00671163
0.00669758
0.00668173
0.00667578
0.00667142
0.00667061
0.00667025
0.00667169
0.00667313
0.00667557
0.00667775
0.00668067
0.00668346
0.00668676
0.00669007
0.00669372
0.00669748
0.00670163
0.00670599
0.0193663
0.0202708
0.0208404
0.0212277
0.0215382
0.0218394
0.0221691
0.0225374
0.0229292
0.0233112
0.0236406
0.0238707
0.023948
0.0238032
0.0233722
0.0226839
0.021724
0.0204861
0.0189779
0.0172202
0.0151392
0.0129283
0.0108626
0.00891882
0.00709329
0.00540511
0.00391804
0.00264024
0.00162493
0.000897022
0.000428808
0.000174713
9.23906e-05
0.000106046
0.00999798
0.0118969
0.0151823
0.0178157
0.0193935
0.0089984
0.00832468
0.00783301
0.00748131
0.00722937
0.00705025
0.0069241
0.00683643
0.00677655
0.00673335
0.00670902
0.00669663
0.00667942
0.00667584
0.00667093
0.00667072
0.00667022
0.00667186
0.00667315
0.00667559
0.00667774
0.00668067
0.00668347
0.00668675
0.00669003
0.00669365
0.00669743
0.0067016
0.00670598
0.0202201
0.0207009
0.0209972
0.0212173
0.0214331
0.0216902
0.0220098
0.0223881
0.0227999
0.0232068
0.0235661
0.0238335
0.0239581
0.0238704
0.0234989
0.0228657
0.0219519
0.0207454
0.0192492
0.0174468
0.0153208
0.013099
0.0110158
0.00905311
0.00720889
0.00550102
0.0039935
0.00269643
0.00165995
0.000913119
0.000432404
0.000174284
9.25541e-05
0.000106725
0.00976666
0.0114893
0.0147421
0.0175888
0.0192344
0.0201449
0.00885177
0.00821686
0.0077551
0.00742558
0.00718987
0.00702269
0.00690532
0.00682417
0.00676873
0.00672848
0.00670663
0.00669565
0.00667773
0.0066757
0.00667058
0.00667079
0.00667022
0.00667197
0.00667312
0.00667561
0.00667774
0.00668067
0.00668348
0.0066867
0.00668996
0.00669358
0.00669738
0.00670157
0.00670597
0.0205493
0.0207569
0.020885
0.0210082
0.0211783
0.021426
0.0217595
0.0221637
0.0226056
0.0230446
0.02344
0.0237503
0.0239259
0.023897
0.0235856
0.0230083
0.0221423
0.0209703
0.0194582
0.0176341
0.0155158
0.0132843
0.0111836
0.00920111
0.00733681
0.0056079
0.00407764
0.00275933
0.00169966
0.000931307
0.000436564
0.000174111
9.28172e-05
0.00010747
0.00954993
0.0110992
0.0142479
0.017284
0.0190812
0.0199345
0.0203817
0.00870866
0.00811131
0.00767933
0.00737147
0.0071517
0.00699633
0.00688787
0.00681294
0.00676149
0.00672428
0.00670434
0.00669428
0.0066767
0.00667538
0.00667037
0.00667085
0.00667021
0.00667199
0.00667311
0.00667561
0.00667775
0.00668066
0.00668343
0.0066866
0.00668988
0.00669351
0.00669733
0.00670153
0.00670596
0.0205152
0.0205527
0.0205802
0.0206539
0.0208126
0.0210758
0.0214401
0.0218807
0.0223596
0.0228367
0.023274
0.0236321
0.0238618
0.0238925
0.0236408
0.0231192
0.0223013
0.0211388
0.019629
0.0178324
0.0157249
0.0134853
0.0113674
0.00936431
0.00747855
0.00572718
0.00417173
0.00283006
0.00174455
0.000952323
0.000441549
0.000173801
9.2967e-05
0.00010826
0.00934498
0.010733
0.0137225
0.0169196
0.0188637
0.0198132
0.0201202
0.0202631
0.00856885
0.00800836
0.00760587
0.00731915
0.0071152
0.00697184
0.00687193
0.00680264
0.0067547
0.00672051
0.00670219
0.00669239
0.00667615
0.00667494
0.00667025
0.00667087
0.00667018
0.00667201
0.00667311
0.00667561
0.00667777
0.00668059
0.00668334
0.0066865
0.00668979
0.00669344
0.00669727
0.0067015
0.00670595
0.0202281
0.0201601
0.0201325
0.0201905
0.0203634
0.0206602
0.0210667
0.0215505
0.0220716
0.0225922
0.0230771
0.0234877
0.023774
0.0238645
0.0236715
0.0232042
0.0224151
0.0212746
0.0198067
0.0180415
0.0159485
0.0137031
0.0115685
0.00954429
0.0076358
0.0058605
0.00427726
0.00290977
0.00179576
0.000976527
0.000447281
0.000173669
9.34501e-05
0.000109274
0.0091498
0.0103939
0.0131776
0.0165059
0.0186054
0.0196408
0.0200028
0.0199502
0.0198963
0.00843252
0.00790836
0.0075349
0.0072691
0.00708133
0.00694954
0.00685739
0.00679323
0.00674841
0.00671718
0.00670031
0.00669007
0.00667591
0.00667449
0.00667026
0.00667085
0.00667018
0.00667202
0.00667312
0.0066756
0.00667773
0.00668046
0.00668324
0.00668639
0.00668971
0.00669337
0.00669721
0.00670147
0.00670593
0.0197551
0.0196252
0.0195754
0.0196434
0.0198503
0.0201931
0.0206491
0.0211807
0.0217485
0.0223184
0.0228569
0.0233243
0.0236691
0.0238191
0.0236832
0.0232582
0.0225049
0.021413
0.019991
0.0182613
0.0161869
0.0139383
0.0117882
0.00974274
0.00781042
0.00600975
0.00439594
0.00299999
0.0018543
0.00100441
0.00045429
0.000173638
9.35883e-05
0.000110507
0.008963
0.0100813
0.0126211
0.016044
0.0183174
0.0194429
0.0198427
0.0198197
0.0195316
0.0193512
0.00829992
0.00781173
0.00746709
0.00722266
0.00705052
0.00692923
0.00684414
0.00678476
0.00674263
0.00671429
0.00669904
0.00668772
0.00667582
0.00667414
0.00667033
0.00667085
0.00667019
0.00667202
0.00667316
0.00667551
0.00667763
0.00668032
0.00668313
0.00668628
0.00668962
0.0066933
0.00669715
0.00670144
0.00670592
0.0191392
0.0189793
0.0189328
0.0190327
0.0192863
0.0196836
0.0201937
0.0207759
0.021396
0.0220216
0.0226198
0.0231479
0.0235525
0.023761
0.0236784
0.0232986
0.0225932
0.0215531
0.0201808
0.0184912
0.01644
0.0141919
0.012028
0.00996139
0.00800442
0.00617702
0.00452986
0.00310253
0.00192142
0.00103743
0.000462649