/*--------------------------------*- C++ -*----------------------------------*\
  =========                 |
  \\      /  F ield         | OpenFOAM: The Open Source CFD Toolbox
   \\    /   O peration     | Website:  https://openfoam.org
    \\  /    A nd           | Version:  8
     \\/     M anipulation  |
\*---------------------------------------------------------------------------*/
FoamFile
{
    version     2.0;
    format      ascii;
    class       volVectorField;
    location    "0.43";
    object      U;
}
// * * * * * * * * * * * * * * * * * * * * * * * * * * * * * * * * * * * * * //

dimensions      [0 1 -1 0 0 0 0];

internalField   nonuniform List<vector> 
15677
(
(-0.0199389 9.66494 0)
(0.0436139 9.92078 0)
(0.0024173 9.37693 0)
(0.0147859 9.97639 0)
(0.0187103 9.78685 0)
(0.00708255 9.13921 0)
(0.0280265 9.99426 0)
(0.0172775 9.924 0)
(0.0108683 9.6521 0)
(0.00617572 8.95423 0)
(0.0262024 10.0014 0)
(0.0217371 9.97778 0)
(0.0166501 9.85074 0)
(0.00920859 9.52469 0)
(0.0050183 8.80766 0)
(0.0250701 10.0046 0)
(0.0226925 10.002 0)
(0.0195653 9.94035 0)
(0.0157371 9.77388 0)
(0.00811103 9.41042 0)
(0.00416105 8.68951 0)
(0.024126 10.0061 0)
(0.0229371 10.0136 0)
(0.0213201 9.98363 0)
(0.0188341 9.89713 0)
(0.0143405 9.69908 0)
(0.00707214 9.3086 0)
(0.0035074 8.59342 0)
(0.0227779 10.0066 0)
(0.0229136 10.0194 0)
(0.0223136 10.0057 0)
(0.0209414 9.9598 0)
(0.0177173 9.85325 0)
(0.012972 9.62818 0)
(0.00615215 9.21939 0)
(0.00295999 8.51535 0)
(0.0211077 10.0066 0)
(0.0225072 10.0223 0)
(0.0228164 10.0172 0)
(0.0222762 9.99296 0)
(0.0200154 9.93525 0)
(0.0164301 9.80998 0)
(0.0116626 9.56286 0)
(0.00529895 9.14296 0)
(0.00245754 8.45279 0)
(0.0192061 10.0063 0)
(0.0217573 10.0226 0)
(0.0229865 10.0227 0)
(0.0230436 10.0111 0)
(0.0214847 9.97977 0)
(0.0187912 9.91071 0)
(0.0150451 9.76893 0)
(0.0103202 9.5047 0)
(0.00446068 9.0791 0)
(0.0019614 8.40404 0)
(0.0171165 10.0057 0)
(0.0208673 10.0215 0)
(0.0228081 10.0257 0)
(0.0233971 10.021 0)
(0.0223511 10.0047 0)
(0.0202807 9.96666 0)
(0.0173667 9.88747 0)
(0.013498 9.73169 0)
(0.00888788 9.45468 0)
(0.00359126 9.02766 0)
(0.00144479 8.36836 0)
(0.0149177 10.0051 0)
(0.0198241 10.0198 0)
(0.0223748 10.0267 0)
(0.0234117 10.0264 0)
(0.0227711 10.019 0)
(0.0211252 9.99853 0)
(0.0187749 9.95467 0)
(0.015665 9.86681 0)
(0.0117319 9.69945 0)
(0.0073181 9.41366 0)
(0.00265362 8.98854 0)
(0.000885263 8.34519 0)
(0.0126769 10.0043 0)
(0.0186348 10.0177 0)
(0.0216704 10.0261 0)
(0.0231403 10.029 0)
(0.0228194 10.027 0)
(0.0214855 10.0171 0)
(0.0194875 9.99339 0)
(0.0168784 9.94491 0)
(0.013613 9.84981 0)
(0.00969126 9.67336 0)
(0.00556657 9.38233 0)
(0.00161589 8.96178 0)
(0.000263251 8.33452 0)
(0.0104504 10.0034 0)
(0.0173746 10.0153 0)
(0.020735 10.0244 0)
(0.0226287 10.0295 0)
(0.0225764 10.0313 0)
(0.0214561 10.0279 0)
(0.0196716 10.0162 0)
(0.0173381 9.99034 0)
(0.0145016 9.93833 0)
(0.0111407 9.83748 0)
(0.00732028 9.65442 0)
(0.00358767 9.36137 0)
(0.000457864 8.94753 0)
(-0.000362378 8.33614 0)
(0.00862565 10.0026 0)
(0.0160827 10.0127 0)
(0.0196292 10.0219 0)
(0.0218602 10.0285 0)
(0.0220743 10.0329 0)
(0.021099 10.0339 0)
(0.0194281 10.0297 0)
(0.0172126 10.0173 0)
(0.0145694 9.99027 0)
(0.0115556 9.93584 0)
(0.0081757 9.83082 0)
(0.00456029 9.64365 0)
(0.0013398 9.35134 0)
(-0.000850489 8.94599 0)
(-0.00112594 8.35025 0)
(0.00731399 10.002 0)
(0.0148108 10.0102 0)
(0.0184188 10.019 0)
(0.0208562 10.0264 0)
(0.0213142 10.0326 0)
(0.020445 10.0367 0)
(0.0188124 10.0374 0)
(0.0166043 10.0334 0)
(0.0139815 10.0212 0)
(0.0110734 9.99401 0)
(0.00794659 9.93836 0)
(0.00464127 9.83086 0)
(0.00135181 9.64193 0)
(-0.00123252 9.35286 0)
(-0.00234147 8.95742 0)
(-0.00197637 8.37695 0)
(0.00623857 10.0015 0)
(0.0135731 10.0083 0)
(0.0172392 10.0162 0)
(0.019651 10.0236 0)
(0.0203043 10.031 0)
(0.0195075 10.0372 0)
(0.0178535 10.0414 0)
(0.0155668 10.0428 0)
(0.0128383 10.0398 0)
(0.00984871 10.0288 0)
(0.00673217 10.0024 0)
(0.00357746 9.94682 0)
(0.000472825 9.83853 0)
(-0.0023314 9.65013 0)
(-0.00410782 9.36643 0)
(-0.00400572 8.98192 0)
(-0.00291652 8.41643 0)
(0.00538423 10.0012 0)
(0.0124759 10.0067 0)
(0.0161575 10.0138 0)
(0.018423 10.0206 0)
(0.0190619 10.0283 0)
(0.0182963 10.036 0)
(0.0165663 10.0427 0)
(0.014126 10.0478 0)
(0.01119 10.0508 0)
(0.00797626 10.0497 0)
(0.004671 10.0408 0)
(0.00143284 10.0164 0)
(-0.00164319 9.9621 0)
(-0.00440825 9.85474 0)
(-0.00654675 9.66895 0)
(-0.00735314 9.39244 0)
(-0.0058629 9.01969 0)
(-0.00395 8.46866 0)
(0.00470541 10.001 0)
(0.0114978 10.0055 0)
(0.0151909 10.0117 0)
(0.0172959 10.018 0)
(0.0177642 10.0252 0)
(0.0168289 10.0335 0)
(0.0149619 10.0419 0)
(0.0122952 10.0498 0)
(0.00905818 10.0568 0)
(0.00549994 10.0622 0)
(0.00184987 10.0639 0)
(-0.00169183 10.0581 0)
(-0.00496462 10.0368 0)
(-0.00781037 9.98507 0)
(-0.0100551 9.88029 0)
(-0.0113373 9.69906 0)
(-0.0109815 9.43118 0)
(-0.00790948 9.07067 0)
(-0.00507052 8.53352 0)
(0.0041623 10.0008 0)
(0.0106251 10.0045 0)
(0.0143226 10.01 0)
(0.0162631 10.0156 0)
(0.016555 10.0223 0)
(0.0153051 10.0303 0)
(0.0130598 10.0395 0)
(0.0100862 10.0493 0)
(0.00645252 10.0593 0)
(0.00243398 10.069 0)
(-0.00170263 10.0777 0)
(-0.00572557 10.0832 0)
(-0.00940553 10.0815 0)
(-0.012554 10.0643 0)
(-0.014993 10.0165 0)
(-0.0165076 9.91592 0)
(-0.0167126 9.74088 0)
(-0.0149898 9.48279 0)
(-0.0101449 9.13483 0)
(-0.00627352 8.61073 0)
(0.0037253 10.0006 0)
(0.00985278 10.0037 0)
(0.0135565 10.0085 0)
(0.0153319 10.0135 0)
(0.0154311 10.0196 0)
(0.0138914 10.0271 0)
(0.0111106 10.0361 0)
(0.00752171 10.0469 0)
(0.00338398 10.059 0)
(-0.00121559 10.0719 0)
(-0.00598151 10.0852 0)
(-0.0106358 10.0981 0)
(-0.0149186 10.1084 0)
(-0.0185892 10.1119 0)
(-0.0214318 10.0998 0)
(-0.023244 10.0572 0)
(-0.023783 9.96216 0)
(-0.0226691 9.79473 0)
(-0.0193635 9.54725 0)
(-0.0125452 9.21174 0)
(-0.00754088 8.69969 0)
(0.00338649 10.0005 0)
(0.00917595 10.003 0)
(0.0128781 10.0072 0)
(0.0144981 10.0117 0)
(0.0144147 10.017 0)
(0.0125858 10.0239 0)
(0.00931726 10.0325 0)
(0.00492808 10.0432 0)
(-0.000117418 10.0564 0)
(-0.00543719 10.0716 0)
(-0.0109832 10.0883 0)
(-0.0164378 10.1062 0)
(-0.0215014 10.1242 0)
(-0.0258962 10.1403 0)
(-0.0293631 10.1498 0)
(-0.0316673 10.1439 0)
(-0.0325886 10.1076 0)
(-0.0318775 10.0194 0)
(-0.0291841 9.86068 0)
(-0.0240723 9.6243 0)
(-0.0150966 9.30105 0)
(-0.00885822 8.79985 0)
(0.00313309 10.0004 0)
(0.0086151 10.0025 0)
(0.0122819 10.0061 0)
(0.0137707 10.01 0)
(0.0135108 10.0148 0)
(0.0114152 10.0209 0)
(0.0076749 10.0288 0)
(0.00255895 10.0391 0)
(-0.00361606 10.0523 0)
(-0.0101966 10.0687 0)
(-0.0167003 10.0879 0)
(-0.0231432 10.1093 0)
(-0.0291828 10.1326 0)
(-0.0345006 10.1568 0)
(-0.0388014 10.1794 0)
(-0.041814 10.1959 0)
(-0.0432947 10.1973 0)
(-0.043022 10.1682 0)
(-0.0407589 10.0879 0)
(-0.0362111 9.93864 0)
(-0.0290735 9.71354 0)
(-0.0177463 9.4019 0)
(-0.0101836 8.90979 0)
(0.00294134 10.0004 0)
(0.00817514 10.0021 0)
(0.0117852 10.0052 0)
(0.0131511 10.0086 0)
(0.0127368 10.0127 0)
(0.0104003 10.0181 0)
(0.00621737 10.0252 0)
(0.000402477 10.0348 0)
(-0.00679153 10.0475 0)
(-0.0149155 10.0638 0)
(-0.0230923 10.0844 0)
(-0.0307467 10.1085 0)
(-0.0379889 10.1356 0)
(-0.0444535 10.1653 0)
(-0.0498049 10.1964 0)
(-0.0537403 10.2266 0)
(-0.0559872 10.2509 0)
(-0.0563095 10.2602 0)
(-0.0545019 10.2391 0)
(-0.0503631 10.1676 0)
(-0.043683 10.0282 0)
(-0.0342704 9.81429 0)
(-0.0203957 9.5132 0)
(-0.0111458 9.02798 0)
(0.00279358 10.0003 0)
(0.00783133 10.0018 0)
(0.0113859 10.0045 0)
(0.0126568 10.0073 0)
(0.0120882 10.0108 0)
(0.00954306 10.0155 0)
(0.00496857 10.0218 0)
(-0.00149738 10.0304 0)
(-0.00966953 10.0423 0)
(-0.0191784 10.0581 0)
(-0.0293955 10.0785 0)
(-0.0391988 10.1041 0)
(-0.047919 10.1342 0)
(-0.0557996 10.1679 0)
(-0.0624555 10.2049 0)
(-0.0675455 10.2439 0)
(-0.070772 10.2823 0)
(-0.0718795 10.3151 0)
(-0.07066 10.3329 0)
(-0.0669464 10.3206 0)
(-0.060598 10.2582 0)
(-0.0514735 10.129 0)
(-0.039612 9.92552 0)
(-0.0230478 9.63476 0)
(-0.0118214 9.15448 0)
(0.00267798 10.0003 0)
(0.00756069 10.0016 0)
(0.0110653 10.0039 0)
(0.0122897 10.0063 0)
(0.0115875 10.0091 0)
(0.0088559 10.013 0)
(0.00394359 10.0185 0)
(-0.00311062 10.0261 0)
(-0.0121956 10.0369 0)
(-0.0230296 10.0517 0)
(-0.0350725 10.0715 0)
(-0.0475036 10.097 0)
(-0.0589161 10.1286 0)
(-0.0685479 10.1656 0)
(-0.0768223 10.2069 0)
(-0.0833489 10.252 0)
(-0.087797 10.2996 0)
(-0.0898962 10.3469 0)
(-0.0894332 10.3887 0)
(-0.0862502 10.4156 0)
(-0.0802369 10.4123 0)
(-0.0713014 10.3593 0)
(-0.0594425 10.2399 0)
(-0.0442366 10.0467 0)
(-0.0192944 9.76006 0)
(-0.00643964 9.2223 0)
(0.00258637 10.0002 0)
(0.00734582 10.0014 0)
(0.0108077 10.0035 0)
(0.0120233 10.0055 0)
(0.011234 10.0077 0)
(0.00836171 10.0108 0)
(0.00315298 10.0153 0)
(-0.00441512 10.0219 0)
(-0.0143292 10.0314 0)
(-0.0264021 10.045 0)
(-0.0401929 10.0637 0)
(-0.0549719 10.0884 0)
(-0.0697002 10.1198 0)
(-0.0826349 10.1585 0)
(-0.0929275 10.2034 0)
(-0.10125 10.2532 0)
(-0.107229 10.3072 0)
(-0.110569 10.364 0)
(-0.111056 10.4207 0)
(-0.108539 10.4719 0)
(-0.102931 10.508 0)
(-0.0941776 10.5139 0)
(-0.0822852 10.4701 0)
(-0.0670117 10.3603 0)
(-0.048742 10.1746 0)
(-0.0148794 9.91839 0)
(0.000801981 9.26976 0)
(0.00251298 10.0002 0)
(0.00717369 10.0012 0)
(0.0106003 10.0031 0)
(0.0118329 10.0048 0)
(0.0109968 10.0066 0)
(0.00805061 10.009 0)
(0.00262479 10.0124 0)
(-0.00539498 10.0178 0)
(-0.0160391 10.026 0)
(-0.0292429 10.0382 0)
(-0.0446739 10.0553 0)
(-0.0617062 10.0787 0)
(-0.0793941 10.1092 0)
(-0.0964353 10.1476 0)
(-0.110703 10.1945 0)
(-0.121294 10.2482 0)
(-0.129213 10.3074 0)
(-0.134124 10.371 0)
(-0.135803 10.4375 0)
(-0.134118 10.5039 0)
(-0.129014 10.5645 0)
(-0.120477 10.6099 0)
(-0.108528 10.6248 0)
(-0.0930025 10.59 0)
(-0.0736067 10.4889 0)
(-0.0521184 10.3182 0)
(-0.0166052 10.0789 0)
(0.00486459 9.31002 0)
(0.00245358 10.0002 0)
(0.00703459 10.0011 0)
(0.0104345 10.0028 0)
(0.0116996 10.0042 0)
(0.0108474 10.0056 0)
(0.00788169 10.0074 0)
(0.00233768 10.0099 0)
(-0.00601406 10.0139 0)
(-0.0173032 10.0207 0)
(-0.0315102 10.0312 0)
(-0.0484468 10.0466 0)
(-0.0676037 10.0682 0)
(-0.0881413 10.0972 0)
(-0.108847 10.1347 0)
(-0.12812 10.1811 0)
(-0.143417 10.2371 0)
(-0.15382 10.3007 0)
(-0.160748 10.3699 0)
(-0.163961 10.4436 0)
(-0.163342 10.5201 0)
(-0.158875 10.5963 0)
(-0.150605 10.6664 0)
(-0.138602 10.7208 0)
(-0.122783 10.7444 0)
(-0.102862 10.7183 0)
(-0.0788191 10.627 0)
(-0.0532478 10.4765 0)
(-0.0199737 10.2365 0)
(0.00547615 9.35266 0)
(0.00240508 10.0002 0)
(0.00692124 10.001 0)
(0.0103015 10.0025 0)
(0.0116072 10.0037 0)
(0.0107637 10.0048 0)
(0.00781861 10.006 0)
(0.00223453 10.0077 0)
(-0.00630633 10.0106 0)
(-0.0180744 10.0156 0)
(-0.033174 10.0242 0)
(-0.0514569 10.0377 0)
(-0.0725765 10.0572 0)
(-0.0958147 10.0842 0)
(-0.120064 10.1199 0)
(-0.143806 10.1653 0)
(-0.165115 10.2209 0)
(-0.180985 10.2871 0)
(-0.190551 10.3613 0)
(-0.195784 10.441 0)
(-0.196579 10.5252 0)
(-0.192963 10.6119 0)
(-0.18505 10.6977 0)
(-0.172995 10.7769 0)
(-0.156847 10.84 0)
(-0.136476 10.8721 0)
(-0.112103 10.8548 0)
(-0.0838373 10.775 0)
(-0.0548741 10.6431 0)
(-0.0225459 10.3907 0)
(0.00458744 9.40151 0)
(0.00236515 10.0002 0)
(0.00682812 10.0009 0)
(0.0101947 10.0023 0)
(0.0115459 10.0033 0)
(0.010729 10.0041 0)
(0.00783258 10.0049 0)
(0.00226591 10.0059 0)
(-0.00635068 10.0077 0)
(-0.0184016 10.0112 0)
(-0.0341713 10.0176 0)
(-0.0536632 10.0287 0)
(-0.0765529 10.0459 0)
(-0.102303 10.0704 0)
(-0.12993 10.1038 0)
(-0.158014 10.1473 0)
(-0.184691 10.2018 0)
(-0.207668 10.2676 0)
(-0.223492 10.3448 0)
(-0.231439 10.4303 0)
(-0.234163 10.5211 0)
(-0.231741 10.6159 0)
(-0.224366 10.7126 0)
(-0.2123 10.8078 0)
(-0.195753 10.8958 0)
(-0.17481 10.9672 0)
(-0.149799 11.0077 0)
(-0.121456 10.999 0)
(-0.0897885 10.9315 0)
(-0.0574506 10.8135 0)
(-0.0253882 10.5416 0)
(0.00298585 9.4704 0)
(0.00233202 10.0001 0)
(0.006751 10.0008 0)
(0.0101087 10.0021 0)
(0.0115084 10.003 0)
(0.0107297 10.0035 0)
(0.00790114 10.0039 0)
(0.00239311 10.0043 0)
(-0.00621483 10.0052 0)
(-0.0183925 10.0073 0)
(-0.0345695 10.0117 0)
(-0.0549807 10.0201 0)
(-0.0794774 10.0343 0)
(-0.107513 10.056 0)
(-0.138304 10.0866 0)
(-0.170552 10.1275 0)
(-0.202474 10.18 0)
(-0.231806 10.2447 0)
(-0.25592 10.3217 0)
(-0.270916 10.4107 0)
(-0.27633 10.508 0)
(-0.275631 10.6101 0)
(-0.269114 10.7155 0)
(-0.257175 10.8219 0)
(-0.240197 10.9261 0)
(-0.218501 11.0224 0)
(-0.192542 11.1019 0)
(-0.163145 11.1502 0)
(-0.131257 11.1497 0)
(-0.0965968 11.094 0)
(-0.0610958 10.9844 0)
(-0.0286176 10.7076 0)
(0.00118134 9.55328 0)
(0.00230431 10.0001 0)
(0.00668653 10.0008 0)
(0.010039 10.002 0)
(0.0114868 10.0027 0)
(0.0107542 10.003 0)
(0.00800705 10.003 0)
(0.00258624 10.0029 0)
(-0.00595205 10.003 0)
(-0.0181396 10.0039 0)
(-0.0345139 10.0065 0)
(-0.0554986 10.0123 0)
(-0.081235 10.0232 0)
(-0.11137 10.0413 0)
(-0.145066 10.0686 0)
(-0.181245 10.1063 0)
(-0.218228 10.156 0)
(-0.25381 10.2186 0)
(-0.285345 10.2946 0)
(-0.309887 10.3836 0)
(-0.323115 10.4851 0)
(-0.32495 10.5947 0)
(-0.319821 10.708 0)
(-0.30829 10.8237 0)
(-0.290954 10.9395 0)
(-0.268368 11.0522 0)
(-0.241178 11.1564 0)
(-0.210285 11.2432 0)
(-0.176778 11.2984 0)
(-0.141407 11.3055 0)
(-0.103833 11.2595 0)
(-0.0659274 11.1746 0)
(-0.0318523 10.8889 0)
(-0.000865698 9.64662 0)
(0.0022811 10.0001 0)
(0.00663217 10.0007 0)
(0.0099824 10.0018 0)
(0.0114778 10.0024 0)
(0.0107966 10.0025 0)
(0.00813677 10.0023 0)
(0.00282245 10.0017 0)
(-0.00560362 10.0011 0)
(-0.0177159 10.0009 0)
(-0.0341297 10.0019 0)
(-0.0554105 10.0054 0)
(-0.0819394 10.0131 0)
(-0.11372 10.0271 0)
(-0.150118 10.0501 0)
(-0.18994 10.0841 0)
(-0.231738 10.1302 0)
(-0.273394 10.1897 0)
(-0.312277 10.2636 0)
(-0.345371 10.3519 0)
(-0.369443 10.4538 0)
(-0.379802 10.5683 0)
(-0.376909 10.6901 0)
(-0.366295 10.8146 0)
(-0.348815 10.9402 0)
(-0.325311 11.0649 0)
(-0.296653 11.1854 0)
(-0.263898 11.2968 0)
(-0.228227 11.39 0)
(-0.190647 11.451 0)
(-0.151615 11.4642 0)
(-0.111949 11.4461 0)
(-0.0714079 11.383 0)
(-0.035102 11.0672 0)
(-0.00286914 9.74757 0)
(0.0022623 10.0001 0)
(0.00658611 10.0007 0)
(0.00993652 10.0017 0)
(0.0114775 10.0022 0)
(0.0108509 10.0021 0)
(0.00828061 10.0016 0)
(0.00308448 10.0007 0)
(-0.00520108 9.9994 0)
(-0.0171781 9.99825 0)
(-0.0335156 9.99789 0)
(-0.0548827 9.99934 0)
(-0.0818434 10.0041 0)
(-0.1147 10.0141 0)
(-0.153251 10.0321 0)
(-0.196505 10.0611 0)
(-0.242809 10.103 0)
(-0.290292 10.1586 0)
(-0.336376 10.2293 0)
(-0.377997 10.3157 0)
(-0.411791 10.4171 0)
(-0.43431 10.5324 0)
(-0.440573 10.6602 0)
(-0.431736 10.7943 0)
(-0.414565 10.9296 0)
(-0.390254 11.0645 0)
(-0.35999 11.1974 0)
(-0.325029 11.325 0)
(-0.286723 11.4425 0)
(-0.246279 11.5408 0)
(-0.204475 11.6061 0)
(-0.162842 11.6438 0)
(-0.120613 11.6523 0)
(-0.0769377 11.5874 0)
(-0.038204 11.2417 0)
(-0.00472507 9.85322 0)
(0.00654868 10.0006 0)
(0.00223594 10.0001 0)
(0.00989894 10.0016 0)
(0.0114836 10.002 0)
(0.0109126 10.0018 0)
(0.00843121 10.0011 0)
(0.00335933 9.99977 0)
(-0.00476829 9.99795 0)
(-0.0165696 9.99596 0)
(-0.0327484 9.99434 0)
(-0.0540471 9.99396 0)
(-0.0811653 9.99609 0)
(-0.114637 10.0025 0)
(-0.154627 10.0157 0)
(-0.200661 10.0386 0)
(-0.25127 10.0747 0)
(-0.30426 10.1257 0)
(-0.357311 10.1923 0)
(-0.407356 10.2754 0)
(-0.45092 10.3752 0)
(-0.48435 10.4906 0)
(-0.504079 10.6198 0)
(-0.504923 10.7609 0)
(-0.488894 10.907 0)
(-0.464139 11.0524 0)
(-0.432256 11.1961 0)
(-0.394827 11.3362 0)
(-0.353429 11.4699 0)
(-0.309503 11.5922 0)
(-0.264146 11.6941 0)
(-0.219601 11.7813 0)
(-0.17479 11.8431 0)
(-0.128855 11.8557 0)
(-0.0822535 11.7866 0)
(-0.0410292 11.4117 0)
(-0.00645888 9.96131 0)
(0.00986999 10.0016 0)
(0.00649322 10.0006 0)
(0.00220011 10.0001 0)
(0.0114945 10.0019 0)
(0.0109781 10.0015 0)
(0.0085834 10.0006 0)
(0.00363735 9.99898 0)
(-0.00432306 9.99668 0)
(-0.015923 9.99396 0)
(-0.0318871 9.99123 0)
(-0.0530064 9.98922 0)
(-0.0800782 9.98901 0)
(-0.113811 9.99218 0)
(-0.154659 10.0009 0)
(-0.202594 10.018 0)
(-0.256751 10.0469 0)
(-0.315078 10.0913 0)
(-0.37478 10.1528 0)
(-0.433051 10.2317 0)
(-0.486347 10.3284 0)
(-0.530829 10.4426 0)
(-0.562645 10.5726 0)
(-0.578217 10.7159 0)
(-0.572262 10.8701 0)
(-0.547823 11.0277 0)
(-0.514562 11.1826 0)
(-0.474519 11.334 0)
(-0.42963 11.4804 0)
(-0.381633 11.619 0)
(-0.331926 11.7445 0)
(-0.283584 11.867 0)
(-0.235582 11.9756 0)
(-0.186049 12.0404 0)
(-0.136535 12.0545 0)
(-0.087179 11.9793 0)
(-0.0435271 11.5762 0)
(-0.00803178 10.0699 0)
(0.0115083 10.0017 0)
(0.00982479 10.0015 0)
(0.00641178 10.0005 0)
(0.00216672 10.0001 4.03726e-20)
(0.0110453 10.0013 0)
(0.00873397 10.0002 0)
(0.00391187 9.9983 0)
(-0.00387854 9.99558 0)
(-0.0152629 9.9922 0)
(-0.0309759 9.9885 0)
(-0.0518394 9.98505 0)
(-0.0787175 9.98276 0)
(-0.112447 9.983 0)
(-0.153703 9.98768 0)
(-0.202815 9.99936 0)
(-0.259452 10.0213 0)
(-0.322256 10.0574 0)
(-0.388502 10.1115 0)
(-0.454709 10.1851 0)
(-0.517599 10.2775 0)
(-0.573186 10.3889 0)
(-0.617344 10.5183 0)
(-0.646131 10.6632 0)
(-0.65609 10.8205 0)
(-0.641951 10.9876 0)
(-0.607961 11.1558 0)
(-0.565404 11.3194 0)
(-0.51673 11.4774 0)
(-0.464105 11.6288 0)
(-0.409314 11.7706 0)
(-0.356244 11.9163 0)
(-0.304049 12.0588 0)
(-0.250502 12.1682 0)
(-0.196493 12.234 0)
(-0.143541 12.2473 0)
(-0.0916338 12.1648 0)
(-0.0456932 11.7347 0)
(-0.00942801 10.1774 0)
(0.011112 10.0011 0)
(0.0115252 10.0016 0)
(0.00975604 10.0013 1.83763e-19)
(0.00633586 10.0005 -1.28002e-19)
(0.00213506 10.0001 -7.92399e-20)
(0.00888132 9.99983 0)
(0.00417919 9.9977 0)
(-0.00344361 9.99462 0)
(-0.0146072 9.99067 0)
(-0.0300482 9.9861 0)
(-0.0506055 9.98137 0)
(-0.077187 9.97724 0)
(-0.11072 9.97486 0)
(-0.152047 9.97591 0)
(-0.201771 9.98268 0)
(-0.259997 9.99816 0)
(-0.325998 10.026 0)
(-0.397836 10.0706 0)
(-0.471975 10.136 0)
(-0.54422 10.2229 0)
(-0.610859 10.3302 0)
(-0.667528 10.4573 0)
(-0.709922 10.6024 0)
(-0.73414 10.7625 0)
(-0.736984 10.9336 0)
(-0.71332 11.1127 0)
(-0.66875 11.2908 0)
(-0.616228 11.4617 0)
(-0.558511 11.6253 0)
(-0.497891 11.78 0)
(-0.43928 11.9419 0)
(-0.381832 12.107 0)
(-0.323094 12.249 0)
(-0.264243 12.3575 0)
(-0.206002 12.4224 0)
(-0.149825 12.4331 0)
(-0.095596 12.3424 0)
(-0.0475448 11.8866 0)
(-0.0106472 10.2825 0)
(0.00901812 9.99952 0)
(0.0112055 10.0008 -4.15324e-19)
(0.0115486 10.0014 -1.94186e-19)
(0.0096949 10.0012 9.0173e-20)
(0.00626333 10.0004 -8.3735e-20)
(0.00210492 10.0001 0)
(0.00443802 9.99718 0)
(-0.00302281 9.99377 0)
(-0.0139681 9.98932 0)
(-0.0291285 9.984 0)
(-0.0493493 9.97814 0)
(-0.0755657 9.97237 0)
(-0.108766 9.96766 0)
(-0.149914 9.96546 0)
(-0.199823 9.96779 0)
(-0.25894 9.97737 0)
(-0.327057 9.99762 0)
(-0.402972 10.0327 0)
(-0.484017 10.0872 0)
(-0.565767 10.1653 0)
(-0.643303 10.2671 0)
(-0.712549 10.3904 0)
(-0.768861 10.534 0)
(-0.807881 10.6952 0)
(-0.8259 10.8702 0)
(-0.820128 11.0546 0)
(-0.785678 11.245 0)
(-0.729622 11.4317 0)
(-0.666561 11.6089 0)
(-0.599451 11.7762 0)
(-0.534435 11.9511 0)
(-0.470809 12.1322 0)
(-0.405644 12.2962 0)
(-0.340595 12.436 0)
(-0.276703 12.5419 0)
(-0.214524 12.6042 0)
(-0.155374 12.6113 0)
(-0.099068 12.5118 0)
(-0.0491116 12.0317 0)
(-0.0116981 10.3844 0)
(0.00467394 9.99672 0)
(0.00922345 9.99916 8.77873e-19)
(0.0113517 10.0006 0)
(0.0115771 10.0012 1.90561e-19)
(0.0096362 10.0011 1.24889e-23)
(0.00619364 10.0004 0)
(0.00207613 10.0001 0)
(-0.00261719 9.99303 0)
(-0.0133509 9.98814 0)
(-0.028233 9.98215 0)
(-0.048104 9.9753 0)
(-0.0739127 9.96809 0)
(-0.106689 9.96131 0)
(-0.147479 9.9562 0)
(-0.197255 9.95454 0)
(-0.256728 9.95876 0)
(-0.326108 9.97199 0)
(-0.404802 9.99814 0)
(-0.490986 10.0417 0)
(-0.581174 10.1077 0)
(-0.66997 10.2001 0)
(-0.751757 10.3182 0)
(-0.822204 10.4586 0)
(-0.87651 10.6192 0)
(-0.910419 10.7966 0)
(-0.920567 10.9862 0)
(-0.904714 11.1831 0)
(-0.858318 11.3835 0)
(-0.789993 11.5777 0)
(-0.715915 11.7593 0)
(-0.643745 11.9472 0)
(-0.572916 12.1416 0)
(-0.500161 12.3213 0)
(-0.427522 12.4824 0)
(-0.356455 12.6182 0)
(-0.287841 12.7202 0)
(-0.222055 12.7789 0)
(-0.160213 12.7813 0)
(-0.102072 12.6729 0)
(-0.0504251 12.1695 0)
(-0.012591 10.4822 0)
(-0.0022513 9.99238 0)
(0.00503838 9.99623 2.63971e-22)
(0.0095613 9.99878 0)
(0.0115072 10.0003 -2.01357e-19)
(0.0116119 10.001 -6.11239e-24)
(0.00958018 10.001 0)
(0.00612688 10.0003 0)
(0.00204875 10.0001 0)
(-0.0127559 9.98711 0)
(-0.0273686 9.98052 0)
(-0.0468914 9.9728 0)
(-0.072272 9.96431 0)
(-0.104564 9.95569 0)
(-0.144874 9.94801 0)
(-0.194288 9.94278 0)
(-0.253716 9.94216 0)
(-0.323697 9.949 0)
(-0.404138 9.96692 0)
(-0.493926 10.0002 0)
(-0.590519 10.0539 0)
(-0.689511 10.1329 0)
(-0.784485 10.2411 0)
(-0.869185 10.3767 0)
(-0.939176 10.5351 0)
(-0.989658 10.713 0)
(-1.01664 10.9064 0)
(-1.01725 11.1101 0)
(-0.989921 11.3184 0)
(-0.930534 11.5276 0)
(-0.849269 11.7274 0)
(-0.769353 11.9303 0)
(-0.690434 12.138 0)
(-0.608785 12.3311 0)
(-0.527148 12.5076 0)
(-0.447371 12.664 0)
(-0.370646 12.7947 0)
(-0.29768 12.8917 0)
(-0.228631 12.9459 0)
(-0.164388 12.9429 0)
(-0.104644 12.8254 0)
(-0.051517 12.3 0)
(-0.0133364 10.5757 0)
(-0.0122223 9.9862 0)
(-0.0016687 9.9917 -4.90413e-19)
(0.00565409 9.99572 0)
(0.00990167 9.99842 0)
(0.011673 10.0001 5.92887e-19)
(0.0116465 10.0009 0)
(0.0095269 10.0008 0)
(0.00606277 10.0003 1.58276e-19)
(0.00202271 10.0001 0)
(-0.0265348 9.97909 0)
(-0.0457202 9.9706 0)
(-0.0706727 9.96098 0)
(-0.102452 9.95074 0)
(-0.142202 9.94076 0)
(-0.191091 9.93235 0)
(-0.250181 9.9274 0)
(-0.320263 9.92846 0)
(-0.401643 9.93884 0)
(-0.493799 9.96262 0)
(-0.595 10.0046 0)
(-0.701882 10.0698 0)
(-0.809043 10.1635 0)
(-0.909009 10.2891 0)
(-0.994998 10.4433 0)
(-1.06266 10.6202 0)
(-1.10736 10.8156 0)
(-1.12556 11.0246 0)
(-1.11502 11.2413 0)
(-1.07494 11.4598 0)
(-1.00163 11.676 0)
(-0.913552 11.898 0)
(-0.825756 12.1214 0)
(-0.734008 12.3282 0)
(-0.641798 12.518 0)
(-0.551655 12.6896 0)
(-0.465158 12.8401 0)
(-0.383202 12.9646 0)
(-0.306279 13.0559 0)
(-0.234311 13.1049 0)
(-0.167948 13.0961 0)
(-0.106825 12.9693 0)
(-0.0524127 12.4232 0)
(-0.0139488 10.6644 0)
(-0.025791 9.97784 0)
(-0.0113592 9.98526 0)
(-0.00066308 9.991 -4.85068e-19)
(0.00626661 9.99523 -4.50152e-19)
(0.0102518 9.99808 -8.35531e-19)
(0.0118535 9.99989 0)
(0.0116819 10.0008 -3.60188e-19)
(0.0094761 10.0007 -3.34486e-19)
(0.00600126 10.0003 1.55327e-19)
(0.00199773 10 0)
(-0.0445892 9.96866 0)
(-0.0691262 9.95804 0)
(-0.100389 9.94636 0)
(-0.139536 9.93435 0)
(-0.187794 9.92311 0)
(-0.246337 9.91429 0)
(-0.316148 9.91014 0)
(-0.397849 9.91369 0)
(-0.491397 9.92869 0)
(-0.595746 9.95969 0)
(-0.708444 10.0118 0)
(-0.825212 10.0904 0)
(-0.939581 10.2003 0)
(-1.04304 10.3446 0)
(-1.12843 10.5184 0)
(-1.19171 10.7141 0)
(-1.2286 10.9267 0)
(-1.23616 11.1505 0)
(-1.21294 11.3792 0)
(-1.15894 11.6062 0)
(-1.07899 11.8459 0)
(-0.981569 12.0895 0)
(-0.87847 12.3125 0)
(-0.774158 12.5162 0)
(-0.671818 12.7009 0)
(-0.573655 12.8661 0)
(-0.480923 13.0097 0)
(-0.394199 13.1275 0)
(-0.313716 13.2124 0)
(-0.239172 13.2556 0)
(-0.170948 13.2407 0)
(-0.108659 13.1049 0)
(-0.0531383 12.5392 0)
(-0.0144452 10.7483 0)
(-0.043585 9.96695 0)
(-0.0245618 9.97657 -5.49302e-19)
(-0.00983371 9.98432 5.12485e-19)
(0.000321294 9.99034 -4.24425e-22)
(0.00689628 9.99477 4.41494e-19)
(0.0106173 9.99777 4.10038e-19)
(0.0120442 9.99971 7.61257e-19)
(0.011719 10.0006 5.30172e-19)
(0.00942795 10.0006 -1.64126e-19)
(0.00594201 10.0002 0)
(0.00197379 10 0)
(-0.0676307 9.95544 0)
(-0.0983904 9.9425 0)
(-0.136927 9.92868 0)
(-0.184493 9.91493 0)
(-0.242347 9.90265 0)
(-0.31162 9.89385 0)
(-0.393177 9.89122 0)
(-0.487361 9.89822 0)
(-0.593692 9.91911 0)
(-0.710499 9.95883 0)
(-0.834508 10.0228 0)
(-0.960438 10.1163 0)
(-1.08073 10.2442 0)
(-1.18588 10.4083 0)
(-1.26856 10.6023 0)
(-1.32527 10.8169 0)
(-1.35229 11.0462 0)
(-1.34742 11.2838 0)
(-1.31008 11.5227 0)
(-1.2507 11.7746 0)
(-1.16115 12.0374 0)
(-1.04536 12.2816 0)
(-0.927151 12.5019 0)
(-0.810712 12.7004 0)
(-0.698806 12.8785 0)
(-0.593192 13.0364 0)
(-0.494756 13.1725 0)
(-0.403741 13.2828 0)
(-0.32009 13.361 0)
(-0.243291 13.3981 0)
(-0.173448 13.3769 0)
(-0.110182 13.2324 0)
(-0.0537192 12.6481 0)
(-0.0148439 10.8274 0)
(-0.0663093 9.95315 0)
(-0.0418886 9.96524 -1.13999e-21)
(-0.022348 9.97531 0)
(-0.00834168 9.98343 -6.1829e-22)
(0.00133203 9.98973 0)
(0.00754883 9.99435 -4.33254e-19)
(0.0109982 9.99749 -8.04631e-19)
(0.0122398 9.99956 8.28394e-23)
(0.0117566 10.0005 3.4686e-19)
(0.00938246 10.0006 -1.61077e-19)
(0.00588475 10.0002 1.49605e-19)
(0.00195078 10 0)
(-0.0964551 9.93908 0)
(-0.134394 9.92367 0)
(-0.181253 9.90769 0)
(-0.238333 9.89234 0)
(-0.306881 9.87937 0)
(-0.387955 9.87119 0)
(-0.4822 9.87094 0)
(-0.589598 9.88257 0)
(-0.709137 9.91078 0)
(-0.838419 9.96087 0)
(-0.973246 10.0384 0)
(-1.10729 10.1486 0)
(-1.23189 10.2957 0)
(-1.33666 10.4808 0)
(-1.41433 10.6953 0)
(-1.46221 10.9285 0)
(-1.47731 11.1737 0)
(-1.45828 11.4236 0)
(-1.41664 11.6889 0)
(-1.34858 11.9657 0)
(-1.23851 12.2306 0)
(-1.10447 12.4726 0)
(-0.971602 12.6878 0)
(-0.843626 12.8796 0)
(-0.722809 13.05 0)
(-0.610373 13.1999 0)
(-0.506785 13.3278 0)
(-0.411945 13.4304 0)
(-0.325503 13.5016 0)
(-0.246747 13.5324 0)
(-0.175507 13.5049 0)
(-0.111438 13.3519 0)
(-0.0541785 12.7501 0)
(-0.0151593 10.9017 0)
(-0.0947536 9.93607 0)
(-0.0640234 9.9509 6.14061e-19)
(-0.0387811 9.96358 -5.74619e-19)
(-0.0201936 9.97413 5.31926e-19)
(-0.00681933 9.98262 0)
(0.00237712 9.98917 0)
(0.00822405 9.99397 4.25165e-19)
(0.0113981 9.99725 -3.94707e-19)
(0.012445 9.99941 8.32114e-23)
(0.0117937 10.0004 1.70209e-19)
(0.00933909 10.0005 -1.58084e-19)
(0.00582918 10.0002 -1.46817e-19)
(0.00192868 10 0)
(-0.131937 9.91924 0)
(-0.1781 9.90128 0)
(-0.234379 9.88319 0)
(-0.302089 9.86651 0)
(-0.382436 9.85336 0)
(-0.476314 9.84657 0)
(-0.584076 9.84978 0)
(-0.705254 9.86739 0)
(-0.8382 9.90451 0)
(-0.97968 9.96673 0)
(-1.12451 10.0596 0)
(-1.26528 10.1881 0)
(-1.39228 10.3558 0)
(-1.49436 10.5624 0)
(-1.5646 10.7976 0)
(-1.60136 11.0488 0)
(-1.60252 11.3085 0)
(-1.58053 11.5865 0)
(-1.53086 11.8787 0)
(-1.44112 12.1595 0)
(-1.31045 12.4235 0)
(-1.15861 12.6608 0)
(-1.01176 12.8691 0)
(-0.872977 13.0529 0)
(-0.743955 13.2149 0)
(-0.625347 13.3561 0)
(-0.517152 13.4756 0)
(-0.418935 13.5703 0)
(-0.33006 13.6343 0)
(-0.249619 13.6587 0)
(-0.177182 13.6249 0)
(-0.112457 13.4637 0)
(-0.0545372 12.8456 0)
(-0.0154058 10.9713 0)
(-0.129789 9.91532 0)
(-0.0917339 9.93312 0)
(-0.0597722 9.94872 6.06916e-19)
(-0.0357707 9.96203 -1.12798e-18)
(-0.0180008 9.97305 1.04585e-18)
(-0.00524922 9.98187 -9.69991e-19)
(0.00345531 9.98866 0)
(0.00891971 9.99363 4.17488e-19)
(0.0118078 9.99704 -3.87343e-19)
(0.0126575 9.99928 -3.59799e-19)
(0.0118347 10.0003 0)
(0.00929749 10.0004 1.55143e-19)
(0.00577519 10.0002 0)
(0.00190792 10 0)
(-0.175036 9.8956 0)
(-0.230519 9.87508 0)
(-0.297345 9.85509 0)
(-0.376815 9.8375 0)
(-0.470017 9.82484 0)
(-0.57761 9.82042 0)
(-0.699572 9.82835 0)
(-0.834889 9.85347 0)
(-0.981167 9.90126 0)
(-1.13426 9.97742 0)
(-1.28794 10.0874 0)
(-1.43373 10.2357 0)
(-1.56096 10.425 0)
(-1.65786 10.6536 0)
(-1.71815 10.9091 0)
(-1.7415 11.1772 0)
(-1.74137 11.4669 0)
(-1.71232 11.7741 0)
(-1.63948 12.0727 0)
(-1.52762 12.3542 0)
(-1.37659 12.6144 0)
(-1.20768 12.8449 0)
(-1.04769 13.0449 0)
(-0.898916 13.2197 0)
(-0.762411 13.3725 0)
(-0.638278 13.5047 0)
(-0.526012 13.6156 0)
(-0.42484 13.7023 0)
(-0.33386 13.7592 0)
(-0.251981 13.7773 0)
(-0.178528 13.7373 0)
(-0.113274 13.5683 0)
(-0.054812 12.9348 0)
(-0.0155936 11.0364 0)
(-0.172373 9.89057 0)
(-0.125869 9.91151 0)
(-0.0860403 9.93031 0)
(-0.055674 9.94671 1.19131e-18)
(-0.0327139 9.96061 -1.10474e-18)
(-0.0157436 9.97206 1.02468e-18)
(-0.00363302 9.98119 0)
(0.0045632 9.98821 -4.41096e-19)
(0.00963842 9.99333 0)
(0.0122297 9.99685 3.80152e-19)
(0.0128696 9.99916 0)
(0.0118765 10.0002 0)
(0.00925744 10.0004 0)
(0.00572388 10.0002 1.50804e-19)
(0.00188865 10 7.36474e-20)
(-0.226763 9.86789 0)
(-0.292696 9.84496 0)
(-0.37122 9.8234 0)
(-0.463546 9.80548 0)
(-0.570578 9.7942 0)
(-0.692671 9.79333 0)
(-0.829336 9.80743 0)
(-0.978901 9.84177 0)
(-1.13814 9.90205 0)
(-1.30193 9.994 0)
(-1.46299 10.1228 0)
(-1.61181 10.2922 0)
(-1.73684 10.5038 0)
(-1.82596 10.7545 0)
(-1.87374 11.0295 0)
(-1.89789 11.3297 0)
(-1.89203 11.6511 0)
(-1.83845 11.9674 0)
(-1.74161 12.2689 0)
(-1.60757 12.548 0)
(-1.43675 12.8019 0)
(-1.2517 13.0239 0)
(-1.07953 13.2145 0)
(-0.921644 13.3794 0)
(-0.778394 13.5227 0)
(-0.649354 13.6457 0)
(-0.53352 13.7479 0)
(-0.429785 13.8267 0)
(-0.337 13.8765 0)
(-0.253903 13.8883 0)
(-0.179591 13.8424 0)
(-0.113917 13.666 0)
(-0.055018 13.018 0)
(-0.0157326 11.0973 0)
(-0.223519 9.86153 0)
(-0.167362 9.8857 0)
(-0.118384 9.90791 1.36607e-18)
(-0.0805783 9.92771 1.26537e-18)
(-0.0515198 9.94486 1.17242e-18)
(-0.0295733 9.95932 -1.08651e-18)
(-0.0134242 9.97117 0)
(-0.00197447 9.9806 0)
(0.00569866 9.98782 0)
(0.0103781 9.99307 8.04201e-19)
(0.0126743 9.99669 3.73235e-19)
(0.0130844 9.99905 3.46521e-19)
(0.0119177 10.0001 0)
(0.00921926 10.0003 -1.59342e-19)
(0.00567588 10.0001 -7.78415e-20)
(0.00187053 10 0)
(-0.288167 9.83597 0)
(-0.365711 9.81087 0)
(-0.457061 9.78825 0)
(-0.563273 9.77079 0)
(-0.685007 9.76196 0)
(-0.822224 9.76602 0)
(-0.973864 9.78795 0)
(-1.13751 9.83334 0)
(-1.30902 9.90802 0)
(-1.48227 10.0176 0)
(-1.64892 10.1667 0)
(-1.7985 10.3583 0)
(-1.91879 10.5928 0)
(-1.9974 10.8651 0)
(-2.04857 11.1743 0)
(-2.06885 11.509 0)
(-2.03734 11.8429 0)
(-1.95791 12.1647 0)
(-1.83664 12.4655 0)
(-1.68075 12.7396 0)
(-1.49096 12.9851 0)
(-1.29082 13.197 0)
(-1.10751 13.3771 0)
(-0.941398 13.5318 0)
(-0.792134 13.6652 0)
(-0.658763 13.7789 0)
(-0.53983 13.8726 0)
(-0.433888 13.9436 0)
(-0.339568 13.9866 0)
(-0.255449 13.9923 0)
(-0.180416 13.9405 0)
(-0.114414 13.757 0)
(-0.0551653 13.0956 0)
(-0.0158322 11.154 0)
(-0.284284 9.82799 0)
(-0.217199 9.85537 0)
(-0.157678 9.88114 -2.89129e-18)
(-0.11123 9.9046 4.93417e-21)
(-0.075047 9.92533 -2.48035e-18)
(-0.0472567 9.94318 2.29847e-18)
(-0.0263496 9.95816 -1.06641e-18)
(-0.011048 9.9704 0)
(-0.000277589 9.9801 0)
(0.00685988 9.98749 -8.49704e-19)
(0.0111231 9.99287 3.94889e-19)