/*--------------------------------*- C++ -*----------------------------------*\
  =========                 |
  \\      /  F ield         | OpenFOAM: The Open Source CFD Toolbox
   \\    /   O peration     | Website:  https://openfoam.org
    \\  /    A nd           | Version:  8
     \\/     M anipulation  |
\*---------------------------------------------------------------------------*/
FoamFile
{
    version     2.0;
    format      ascii;
    class       surfaceScalarField;
    location    "0.33";
    object      phi;
}
// * * * * * * * * * * * * * * * * * * * * * * * * * * * * * * * * * * * * * //

dimensions      [1 0 -1 0 0 0 0];

internalField   nonuniform List<scalar> 
31053
(
-5.74266e-06
1.1881e-05
-5.48876e-06
7.00533e-06
-4.25386e-06
7.49532e-06
-2.39111e-06
8.53822e-06
1.95509e-07
9.51905e-06
4.09605e-06
9.97993e-06
1.05867e-05
9.3131e-06
2.18112e-05
6.70636e-06
4.1531e-05
5.92976e-07
7.64341e-05
-1.1839e-05
0.000133767
-3.10242e-05
0.000216538
-5.26125e-05
0.000315637
-6.43975e-05
0.000412041
-5.63924e-05
0.000474848
-2.4239e-05
0.000508329
5.35257e-06
0.000515248
3.20257e-05
0.000499969
5.41984e-05
0.00046835
7.03686e-05
0.000430897
7.59046e-05
0.000395952
7.31207e-05
0.000368239
6.2586e-05
0.000346338
5.33662e-05
0.000328735
4.60657e-05
0.000314552
4.00178e-05
0.000303218
3.48595e-05
0.000294312
3.03947e-05
0.000287566
2.64358e-05
0.000282764
2.28908e-05
0.000279572
1.98634e-05
0.000277594
1.73817e-05
0.000276536
1.53249e-05
0.000276231
1.3541e-05
0.000276636
1.19029e-05
1.06428e-05
0.000277141
-7.60177e-05
8.78916e-05
-0.000171617
0.000102602
-0.00027813
0.000114011
-0.000392974
0.000123392
-0.000513353
0.000129915
-0.000635226
0.000131876
-0.000752517
0.000126632
-0.000855954
0.000110179
-0.000931953
7.66364e-05
-0.000964145
2.03981e-05
-0.00093133
-6.38064e-05
-0.000830405
-0.000153517
-0.00067013
-0.000224647
-0.000470576
-0.000255888
-0.000296952
-0.000197728
-0.000152435
-0.000138943
-3.32483e-05
-8.68711e-05
6.50899e-05
-4.38057e-05
0.000144506
-8.66887e-06
0.00020906
1.1785e-05
0.000261866
2.0869e-05
0.000303077
2.19722e-05
0.000338063
1.90082e-05
0.000369835
1.49348e-05
0.000399824
1.06646e-05
0.00042836
6.9263e-06
0.000455979
3.33548e-06
0.000483194
-2.91835e-07
0.000509044
-2.54045e-06
0.000533271
-3.988e-06
0.000555813
-4.82499e-06
0.000576597
-5.16062e-06
0.00059555
-5.14547e-06
0.000612644
-4.94615e-06
-4.93344e-06
0.000628444
-1.4601e-06
8.93669e-05
3.21552e-06
9.79414e-05
1.17061e-05
0.000105537
2.20865e-05
0.000113031
3.27015e-05
0.000119322
4.18024e-05
0.000122801
4.7188e-05
0.000121278
4.55606e-05
0.000111843
3.14968e-05
9.07422e-05
-3.03935e-06
5.4966e-05
-7.74404e-05
1.0632e-05
-0.000208265
-2.27163e-05
-0.000386306
-4.70782e-05
-0.000585877
-5.5181e-05
-0.000732453
-5.06466e-05
-0.000820301
-5.08818e-05
-0.000845998
-6.09254e-05
-0.000806751
-8.27271e-05
-0.000708963
-0.00010612
-0.000574796
-0.000121972
-0.000424903
-0.000128604
-0.000284875
-0.000117707
-0.000163168
-0.000102434
-6.07475e-05
-8.73021e-05
2.30525e-05
-7.30262e-05
8.98121e-05
-5.97907e-05
0.000141009
-4.78755e-05
0.000178114
-3.74357e-05
0.00020409
-2.85473e-05
0.000221521
-2.14437e-05
0.000232995
-1.63188e-05
0.000240322
-1.25107e-05
0.000244948
-9.79303e-06
0.000247922
-7.9411e-06
-6.41816e-06
0.000249391
4.4974e-05
4.44074e-05
9.03411e-05
5.25898e-05
0.000137793
5.81021e-05
0.000188646
6.21955e-05
0.000243453
6.4534e-05
0.000301744
6.45316e-05
0.000361779
6.12657e-05
0.000419836
5.38122e-05
0.00046886
4.17447e-05
0.000496111
2.77459e-05
0.00048949
1.72653e-05
0.000457403
9.30573e-06
0.000410149
6.6615e-07
0.000358401
-4.50771e-06
0.000318651
-1.13106e-05
0.000298029
-3.0381e-05
0.000298252
-6.12714e-05
0.00031784
-0.000102456
0.00035204
-0.00014051
0.000396319
-0.000166498
0.000444916
-0.000177471
0.000488362
-0.000161409
0.000523891
-0.000138172
0.000551194
-0.00011476
0.000570303
-9.22128e-05
0.000581467
-7.09619e-05
0.000585145
-5.14987e-05
0.000582139
-3.43261e-05
0.000573363
-1.96273e-05
0.000559504
-7.42315e-06
0.000541545
1.79599e-06
0.000521291
7.87616e-06
0.000499216
1.23823e-05
0.000476111
1.52399e-05
1.64855e-05
0.000453263
1.76977e-05
2.66896e-05
3.61041e-05
3.41614e-05
5.68007e-05
3.73809e-05
7.92642e-05
3.97038e-05
0.000102822
4.09439e-05
0.000126804
4.05116e-05
0.000150421
3.76041e-05
0.000172997
3.11828e-05
0.000194895
1.97868e-05
0.000218744
3.82838e-06
0.000248713
-1.27679e-05
0.000286109
-2.80453e-05
0.000333406
-4.67238e-05
0.000394262
-6.5517e-05
0.000452205
-6.94193e-05
0.000496997
-7.5291e-05
0.000516054
-8.04049e-05
0.000498034
-8.44664e-05
0.000444576
-8.70519e-05
0.000365714
-8.76098e-05
0.000274076
-8.57809e-05
0.000188813
-7.60674e-05
0.000117054
-6.63207e-05
5.9393e-05
-5.70015e-05
1.49275e-05
-4.76421e-05
-1.75629e-05
-3.83644e-05
-3.93947e-05
-2.95761e-05
-5.18638e-05
-2.17876e-05
-5.60582e-05
-1.53741e-05
-5.32951e-05
-1.01357e-05
-4.57736e-05
-5.68788e-06
-3.61982e-05
-1.66042e-06
-2.50176e-05
1.23781e-06
-1.28872e-05
3.14606e-06
4.68428e-06
-1.05456e-06
4.01082e-05
-1.34029e-05
8.5289e-05
-1.10029e-05
0.000134192
-1.15047e-05
0.000186944
-1.3028e-05
0.000243409
-1.5499e-05
0.000302964
-1.90183e-05
0.000364227
-2.36305e-05
0.000424576
-2.91338e-05
0.000479211
-3.48111e-05
0.000522768
-3.96863e-05
0.000555047
-4.49998e-05
0.000577011
-4.99505e-05
0.000586241
-5.58935e-05
0.000584474
-6.36872e-05
0.000575624
-6.05215e-05
0.000562048
-6.16751e-05
0.000544882
-6.32078e-05
0.000525038
-6.46012e-05
0.00050335
-6.53582e-05
0.00048104
-6.53074e-05
0.000459549
-6.43183e-05
0.000440258
-5.68275e-05
0.000422363
-4.84938e-05
0.000405295
-4.00109e-05
0.000388536
-3.09759e-05
0.000371417
-2.13452e-05
0.000353127
-1.13868e-05
0.000332846
-1.6039e-06
0.000312267
5.10955e-06
0.000291789
1.02506e-05
0.000271666
1.43499e-05
0.000252785
1.71373e-05
0.000235232
1.87152e-05
0.000218968
1.934e-05
1.90673e-05
0.000204523
-2.23019e-06
-1.11809e-05
9.57559e-07
-1.41994e-05
6.34863e-06
-1.69052e-05
1.31864e-05
-1.98762e-05
2.09774e-05
-2.33017e-05
2.92971e-05
-2.73513e-05
3.78377e-05
-3.21865e-05
4.66504e-05
-3.79646e-05
5.66059e-05
-4.4788e-05
6.95508e-05
-5.26566e-05
8.60357e-05
-6.15151e-05
0.000107301
-7.12521e-05
0.000133057
-8.16942e-05
0.00016215
-9.28357e-05
0.000188197
-8.66248e-05
0.000210437
-8.39742e-05
0.000227398
-8.02289e-05
0.000238282
-7.55467e-05
0.000242809
-6.99448e-05
0.000240699
-6.32563e-05
0.000231594
-5.52673e-05
0.000217237
-4.25172e-05
0.000199984
-3.12805e-05
0.000182329
-2.23903e-05
0.000166721
-1.53969e-05
0.000155137
-9.7854e-06
0.000148724
-4.99732e-06
0.000146984
1.14866e-07
0.000147284
4.79175e-06
0.000148473
9.04283e-06
0.000151177
1.16275e-05
0.000155112
1.31872e-05
0.00015981
1.40043e-05
0.000164873
1.42679e-05
1.42545e-05
0.000169681
6.24233e-06
-1.74109e-05
1.30739e-05
-2.10175e-05
2.03721e-05
-2.41888e-05
2.82138e-05
-2.77014e-05
3.6687e-05
-3.17564e-05
4.58116e-05
-3.64548e-05
5.55401e-05
-4.18911e-05
6.57706e-05
-4.81677e-05
7.63824e-05
-5.53684e-05
8.73227e-05
-6.35612e-05
9.86204e-05
-7.27718e-05
0.000110318
-8.29032e-05
0.00012241
-9.37333e-05
0.000134613
-0.000104978
0.000143657
-9.56129e-05
0.000150537
-9.08018e-05
0.000155622
-8.52637e-05
0.000159283
-7.91626e-05
0.000161855
-7.24804e-05
0.000163326
-6.46993e-05
0.000162887
-5.48086e-05
0.000159101
-3.87192e-05
0.000151419
-2.35916e-05
0.00013911
-1.00781e-05
0.000122216
1.49633e-06
0.000103628
8.79822e-06
8.39115e-05
1.47116e-05
6.50797e-05
1.89384e-05
4.83441e-05
2.15164e-05
3.46143e-05
2.27637e-05
2.32628e-05
2.29717e-05
1.38858e-05
2.25592e-05
6.0831e-06
2.18007e-05
-4.65081e-07
2.08089e-05
1.95523e-05
-5.7686e-06
1.73213e-06
-1.91513e-05
4.35213e-06
-2.36463e-05
7.85602e-06
-2.77019e-05
1.21772e-05
-3.20328e-05
1.72108e-05
-3.68012e-05
2.28588e-05
-4.21155e-05
2.90139e-05
-4.80604e-05
3.55345e-05
-5.47045e-05
4.22355e-05
-6.20878e-05
4.88422e-05
-7.01885e-05
5.49482e-05
-7.89012e-05
6.00568e-05
-8.80382e-05
6.36491e-05
-9.73551e-05
6.50629e-05
-0.000106425
6.46362e-05
-9.52163e-05
6.25275e-05
-8.87217e-05
5.85602e-05
-8.13236e-05
5.24933e-05
-7.3121e-05
4.44144e-05
-6.44248e-05
3.49859e-05
-5.52929e-05
2.53684e-05
-4.52121e-05
1.7982e-05
-3.13503e-05
1.36288e-05
-1.92524e-05
1.30043e-05
-9.46521e-06
1.59531e-05
-1.46132e-06
1.7597e-05
7.14811e-06
1.89386e-05
1.33665e-05
2.06215e-05
1.72544e-05
2.26273e-05
1.95119e-05
2.48121e-05
2.05819e-05
2.70346e-05
2.07527e-05
2.92327e-05
2.03657e-05
3.1373e-05
1.96641e-05
3.34236e-05
1.87611e-05
1.78101e-05
3.51675e-05
1.22412e-06
-2.03694e-05
2.23004e-06
-2.46455e-05
3.03154e-06
-2.8496e-05
3.72847e-06
-3.27214e-05
4.44322e-06
-3.75065e-05
5.29443e-06
-4.2956e-05
6.40834e-06
-4.91622e-05
7.91157e-06
-5.61939e-05
9.91772e-06
-6.40782e-05
1.25002e-05
-7.27531e-05
1.56872e-05
-8.20679e-05
1.94812e-05
-9.1809e-05
2.37668e-05
-0.000101614
2.81698e-05
-0.000110798
3.11024e-05
-9.81206e-05
3.2891e-05
-9.04824e-05
3.36193e-05
-8.20249e-05
3.32377e-05
-7.27134e-05
3.14479e-05
-6.26101e-05
2.78935e-05
-5.17145e-05
2.22879e-05
-3.9584e-05
1.47283e-05
-2.37716e-05
4.83498e-06
-9.34235e-06
-7.35873e-06
2.74429e-06
-1.89467e-05
1.01394e-05
-2.77259e-05
1.59383e-05
-3.43631e-05
2.0014e-05
-3.97106e-05
2.26117e-05
-4.41631e-05
2.39735e-05
-4.80012e-05
2.44285e-05
-5.15156e-05
2.42747e-05
-5.48497e-05
2.37073e-05
-5.80255e-05
2.2846e-05
-6.10399e-05
2.17805e-05
2.05294e-05
-6.37553e-05
2.36419e-07
-2.06094e-05
6.71157e-07
-2.50842e-05
1.38827e-06
-2.92175e-05
2.31531e-06
-3.36533e-05
3.34766e-06
-3.85443e-05
4.36416e-06
-4.39787e-05
5.21716e-06
-5.00221e-05
5.74261e-06
-5.67271e-05
5.77368e-06
-6.41181e-05
5.18132e-06
-7.21708e-05
3.86648e-06
-8.07644e-05
1.68647e-06
-8.96417e-05
-1.5377e-06
-9.84045e-05
-5.89255e-06
-0.000106459
-1.01328e-05
-9.38944e-05
-1.45662e-05
-8.60619e-05
-1.92551e-05
-7.73476e-05
-2.41646e-05
-6.78145e-05
-2.92512e-05
-5.7533e-05
-3.44806e-05
-4.6494e-05
-3.95273e-05
-3.45451e-05
-4.30615e-05
-2.0243e-05
-4.42735e-05
-8.13339e-06
-4.28551e-05
1.323e-06
-4.32433e-05
1.05263e-05
-4.38216e-05
1.65166e-05
-4.43579e-05
2.05512e-05
-4.48072e-05
2.30628e-05
-4.51876e-05
2.43562e-05
-4.54929e-05
2.47366e-05
-4.57072e-05
2.44919e-05
-4.58258e-05
2.3829e-05
-4.5869e-05
2.28921e-05
-4.58656e-05
2.17797e-05
2.05909e-05
-4.5925e-05
-2.67433e-07
-2.03392e-05
-8.22592e-07
-2.45261e-05
-1.66402e-06
-2.83729e-05
-2.74466e-06
-3.25691e-05
-4.02035e-06
-3.72647e-05
-5.45546e-06
-4.25392e-05
-7.03539e-06
-4.84373e-05
-8.75442e-06
-5.50026e-05
-1.06078e-05
-6.22585e-05
-1.25769e-05
-7.01947e-05
-1.46185e-05
-7.87149e-05
-1.66851e-05
-8.75663e-05
-1.87432e-05
-9.63366e-05
-2.08573e-05
-0.000104334
-2.2962e-05
-9.17791e-05
-2.51129e-05
-8.39005e-05
-2.74143e-05
-7.50356e-05
-3.0074e-05
-6.51439e-05
-3.32758e-05
-5.43197e-05
-3.71655e-05
-4.25919e-05
-4.19107e-05
-2.97864e-05
-4.73352e-05
-1.48053e-05
-5.40593e-05
-1.39801e-06
-6.027e-05
7.54599e-06
-6.42813e-05
1.45492e-05
-6.74193e-05
1.96653e-05
-7.00402e-05
2.31821e-05
-7.23536e-05
2.53856e-05
-7.45245e-05
2.65359e-05
-7.66549e-05
2.68752e-05
-7.876e-05
2.66045e-05
-8.08051e-05
2.58808e-05
-8.27521e-05
2.48446e-05
-8.4581e-05
2.36135e-05
2.22473e-05
-8.62326e-05
-7.08478e-07
-1.96314e-05
-1.51582e-06
-2.37195e-05
-2.36232e-06
-2.75271e-05
-3.28719e-06
-3.1645e-05
-4.35609e-06
-3.61967e-05
-5.64276e-06
-4.12535e-05
-7.21263e-06
-4.68686e-05
-9.13918e-06
-5.30774e-05
-1.15082e-05
-5.98911e-05
-1.44227e-05
-6.7282e-05
-1.79849e-05
-7.51547e-05
-2.22408e-05
-8.33127e-05
-2.72026e-05
-9.13774e-05
-3.28984e-05
-9.86407e-05
-3.80742e-05
-8.6606e-05
-4.30455e-05
-7.89318e-05
-4.78009e-05
-7.02826e-05
-5.23192e-05
-6.06279e-05
-5.6661e-05
-4.998e-05
-6.09066e-05
-3.83484e-05
-6.49708e-05
-2.57242e-05
-6.81252e-05
-1.16521e-05
-6.8938e-05
-5.84812e-07
-7.06717e-05
9.27932e-06
-7.23142e-05
1.6192e-05
-7.37238e-05
2.10755e-05
-7.48771e-05
2.43364e-05
-7.57921e-05
2.63018e-05
-7.65045e-05
2.72495e-05
-7.70502e-05
2.74223e-05
-7.74661e-05
2.70219e-05
-7.77888e-05
2.62049e-05
-7.80404e-05
2.50973e-05
-7.82342e-05
2.38084e-05
2.24286e-05
-7.84146e-05
-9.57013e-07
-1.86725e-05
-2.21233e-06
-2.2462e-05
-3.74056e-06
-2.59965e-05
-5.526e-06
-2.98569e-05
-7.56613e-06
-3.41536e-05
-9.87177e-06
-3.89445e-05
-1.24551e-05
-4.42814e-05
-1.53306e-05
-5.01977e-05
-1.85131e-05
-5.67037e-05
-2.20179e-05
-6.37716e-05
-2.58501e-05
-7.13164e-05
-3.00171e-05
-7.91388e-05
-3.45217e-05
-8.68651e-05
-3.93801e-05
-9.37738e-05
-4.38076e-05
-8.21707e-05
-4.80316e-05
-7.47002e-05
-5.20357e-05
-6.62713e-05
-5.58318e-05
-5.68249e-05
-5.94765e-05
-4.63286e-05
-6.30568e-05
-3.47617e-05
-6.66827e-05
-2.20921e-05
-7.02559e-05
-8.07335e-06
-7.41607e-05
3.32523e-06
-7.66647e-05
1.17882e-05
-7.85883e-05
1.81202e-05
-8.01151e-05
2.26065e-05
-8.13571e-05
2.55822e-05
-8.23911e-05
2.73393e-05
-8.32692e-05
2.81306e-05
-8.4024e-05
2.81796e-05
-8.46754e-05
2.76755e-05
-8.52521e-05
2.67835e-05
-8.57825e-05
2.56297e-05
-8.62726e-05
2.43005e-05
2.28581e-05
-8.67001e-05
-9.58473e-07
-1.7713e-05
-2.13936e-06
-2.128e-05
-3.50245e-06
-2.46321e-05
-5.10782e-06
-2.825e-05
-6.99972e-06
-3.226e-05
-9.21444e-06
-3.67278e-05
-1.17948e-05
-4.16988e-05
-1.47859e-05
-4.7204e-05
-1.82301e-05
-5.32564e-05
-2.21666e-05
-5.98317e-05
-2.66282e-05
-6.68509e-05
-3.16424e-05
-7.41204e-05
-3.7247e-05
-8.12556e-05
-4.34347e-05
-8.75807e-05
-4.89489e-05
-7.66516e-05
-5.4103e-05
-6.95415e-05
-5.88742e-05
-6.14961e-05
-6.32351e-05
-5.24606e-05
-6.7165e-05
-4.23958e-05
-7.06468e-05
-3.12776e-05
-7.36372e-05
-1.91e-05
-7.57836e-05
-5.92593e-06
-7.72334e-05
4.77554e-06
-7.84353e-05
1.29903e-05
-7.93079e-05
1.89928e-05
-7.9884e-05
2.31823e-05
-8.0205e-05
2.59029e-05
-8.03219e-05
2.74556e-05
-8.02902e-05
2.80982e-05
-8.01577e-05
2.80461e-05
-7.9957e-05
2.74737e-05
-7.97092e-05
2.65348e-05
-7.94262e-05
2.53461e-05
-7.91211e-05
2.3995e-05
2.25549e-05
-7.8818e-05
-1.14836e-06
-1.65628e-05
-2.5859e-06
-1.98403e-05
-4.28948e-06
-2.29262e-05
-6.27816e-06
-2.62587e-05
-8.56731e-06
-2.99678e-05
-1.11758e-05
-3.41159e-05
-1.41225e-05
-3.8748e-05
-1.74266e-05
-4.38954e-05
-2.11117e-05
-4.95662e-05
-2.52049e-05
-5.57325e-05
-2.97442e-05
-6.23047e-05
-3.47632e-05
-6.90936e-05
-4.02715e-05
-7.57386e-05
-4.62532e-05
-8.15894e-05
-5.16023e-05
-7.12937e-05
-5.65885e-05
-6.45469e-05
-6.11701e-05
-5.69067e-05
-6.53135e-05
-4.831e-05
-6.89932e-05
-3.87096e-05
-7.21903e-05
-2.80748e-05
-7.48949e-05
-1.63905e-05
-7.69841e-05
-3.83293e-06
-7.84399e-05
6.23417e-06
-7.93149e-05
1.38673e-05
-7.97717e-05
1.94511e-05
-7.99203e-05
2.3332e-05
-7.98463e-05
2.58295e-05
-7.96159e-05
2.72255e-05
-7.92803e-05
2.77627e-05
-7.88799e-05
2.76453e-05
-7.84483e-05
2.70418e-05
-7.80016e-05
2.60876e-05
-7.75471e-05
2.48914e-05
-7.70952e-05
2.35432e-05
2.21075e-05
-7.66475e-05
-1.18495e-06
-1.53761e-05
-2.6075e-06
-1.84158e-05
-4.28829e-06
-2.12431e-05
-6.22098e-06
-2.43234e-05
-8.42887e-06
-2.77569e-05
-1.09444e-05
-3.1597e-05
-1.38065e-05
-3.5882e-05
-1.70602e-05
-4.06372e-05
-2.07556e-05
-4.58657e-05
-2.49439e-05
-5.15385e-05
-2.96726e-05
-5.75695e-05
-3.49811e-05
-6.37778e-05
-4.08882e-05
-6.98231e-05
-4.73675e-05
-7.51009e-05
-5.31322e-05
-6.55207e-05
-5.84753e-05
-5.91959e-05
-6.33411e-05
-5.20336e-05
-6.76721e-05
-4.39724e-05
-7.14139e-05
-3.49621e-05
-7.4516e-05
-2.49679e-05
-7.69283e-05
-1.39745e-05
-7.84493e-05
-2.30952e-06
-7.93089e-05
7.09518e-06
-7.96576e-05
1.42168e-05
-7.96093e-05
1.94029e-05
-7.92615e-05
2.2984e-05
-7.86944e-05
2.52618e-05
-7.79729e-05
2.65033e-05
-7.71493e-05
2.69382e-05
-7.62647e-05
2.67596e-05
-7.53506e-05
2.61266e-05
-7.44312e-05
2.5167e-05
-7.35277e-05
2.3987e-05
-7.26533e-05
2.26681e-05
2.12729e-05
-7.1819e-05
-1.25211e-06
-1.41221e-05
-2.82215e-06
-1.68435e-05
-4.6261e-06
-1.94366e-05
-6.67276e-06
-2.22738e-05
-8.98581e-06
-2.54406e-05
-1.15965e-05
-2.89826e-05
-1.45424e-05
-3.29319e-05
-1.78667e-05
-3.7308e-05
-2.16148e-05
-4.21121e-05
-2.58339e-05
-4.73131e-05
-3.05697e-05
-5.28266e-05
-3.58605e-05
-5.84788e-05
-4.17283e-05
-6.39462e-05
-4.81621e-05
-6.86568e-05
-5.39267e-05
-5.97468e-05
-5.92985e-05
-5.38152e-05
-6.42088e-05
-4.71149e-05
-6.85874e-05
-3.95862e-05
-7.23647e-05
-3.11779e-05
-7.5475e-05
-2.18517e-05
-7.7859e-05
-1.15857e-05
-7.93818e-05
-7.8307e-07
-8.01327e-05
7.84832e-06
-8.02998e-05
1.43855e-05
-8.0031e-05
1.91349e-05
-7.9446e-05
2.23993e-05
-7.86405e-05
2.44563e-05
-7.76894e-05
2.55519e-05
-7.66504e-05
2.58988e-05
-7.55673e-05
2.5676e-05
-7.44732e-05
2.50319e-05
-7.33938e-05
2.40869e-05
-7.23454e-05
2.2938e-05
-7.13381e-05
2.16604e-05
2.03125e-05
-7.03781e-05
-1.19178e-06
-1.29285e-05
-2.62847e-06
-1.54048e-05
-4.294e-06
-1.77688e-05
-6.21208e-06
-2.03531e-05
-8.41541e-06
-2.32342e-05
-1.09412e-05
-2.64533e-05
-1.38299e-05
-3.00391e-05
-1.7125e-05
-3.40084e-05
-2.08728e-05
-3.83592e-05
-2.5121e-05
-4.3059e-05
-2.99164e-05
-4.80244e-05
-3.52998e-05
-5.30877e-05
-4.12965e-05
-5.79408e-05
-4.78977e-05
-6.20459e-05
-5.38204e-05
-5.38151e-05
-5.93569e-05
-4.82701e-05
-6.44395e-05
-4.20242e-05
-6.89927e-05
-3.50255e-05
-7.29365e-05
-2.72273e-05
-7.61906e-05
-1.85917e-05
-7.86772e-05
-9.09417e-06
-8.01978e-05
7.40983e-07
-8.09457e-05
8.59857e-06
-8.10814e-05
1.45227e-05
-8.07529e-05
1.88072e-05
-8.00832e-05
2.173e-05
-7.91723e-05
2.35454e-05
-7.81002e-05
2.44797e-05
-7.69299e-05
2.47281e-05
-7.571e-05
2.44556e-05
-7.44774e-05
2.37987e-05
-7.32594e-05
2.28684e-05
-7.20754e-05
2.17535e-05
-7.09392e-05
2.05237e-05
1.92341e-05
-6.98614e-05
-1.20301e-06
-1.17238e-05
-2.65614e-06
-1.39497e-05
-4.34095e-06
-1.60817e-05
-6.2751e-06
-1.84164e-05
-8.48567e-06
-2.10207e-05
-1.10053e-05
-2.39303e-05
-1.38715e-05
-2.71692e-05
-1.71258e-05
-3.07497e-05
-2.0814e-05
-3.4666e-05
-2.49848e-05
-3.88826e-05
-2.96878e-05
-4.3315e-05
-3.49695e-05
-4.77987e-05
-4.08648e-05
-5.20373e-05
-4.73815e-05
-5.55197e-05
-5.32726e-05
-4.79153e-05
-5.88252e-05
-4.27091e-05
-6.39723e-05
-3.68691e-05
-6.86375e-05
-3.03527e-05
-7.27372e-05
-2.31208e-05
-7.61831e-05
-1.51396e-05
-7.88874e-05
-6.3845e-06
-8.06402e-05
2.49777e-06
-8.15707e-05
9.53197e-06
-8.18562e-05
1.48102e-05
-8.16482e-05
1.86006e-05
-8.10742e-05
2.11569e-05
-8.02392e-05
2.27109e-05
-7.92275e-05
2.34682e-05
-7.81055e-05
2.36062e-05
-7.69245e-05
2.32746e-05
-7.57235e-05
2.25977e-05
-7.45314e-05
2.16762e-05
-7.3369e-05
2.05909e-05
-7.22509e-05
1.94053e-05
1.81693e-05
-7.11867e-05
-1.15124e-06
-1.05711e-05
-2.538e-06
-1.25612e-05
-4.1449e-06
-1.44729e-05
-5.99339e-06
-1.65657e-05
-8.11352e-06
-1.8898e-05
-1.05403e-05
-2.15006e-05
-1.3313e-05
-2.43932e-05
-1.64748e-05
-2.7584e-05
-2.00725e-05
-3.1064e-05
-2.41552e-05
-3.47948e-05
-2.87731e-05
-3.86913e-05
-3.39738e-05
-4.25913e-05
-3.97958e-05
-4.62078e-05
-4.62545e-05
-4.90525e-05
-5.21168e-05
-4.2045e-05
-5.76753e-05
-3.71429e-05
-6.28713e-05
-3.16656e-05
-6.76349e-05
-2.5582e-05
-7.1886e-05
-1.8863e-05
-7.55366e-05
-1.14828e-05
-7.84942e-05
-3.42146e-06
-8.05088e-05
4.51673e-06
-8.17045e-05
1.0731e-05
-8.22434e-05
1.53516e-05
-8.22695e-05
1.86285e-05
-8.19068e-05
2.07955e-05
-8.12592e-05
2.20642e-05
-8.04115e-05
2.26213e-05
-7.9432e-05
2.26272e-05
-7.83742e-05
2.22173e-05
-7.72796e-05
2.15033e-05
-7.61791e-05
2.0576e-05
-7.50962e-05
1.9508e-05
-7.40473e-05
1.83562e-05
1.71658e-05
-7.30443e-05
-1.12894e-06
-9.44084e-06
-2.48481e-06
-1.12039e-05
-4.05451e-06
-1.29015e-05
-5.85722e-06
-1.4761e-05
-7.92044e-06
-1.68326e-05
-1.02768e-05
-1.91417e-05
-1.29633e-05
-2.17036e-05
-1.60217e-05
-2.45223e-05
-1.94975e-05
-2.75843e-05
-2.34402e-05
-3.08477e-05
-2.79012e-05
-3.42251e-05
-3.29314e-05
-3.75552e-05
-3.8575e-05
-4.05574e-05
-4.48583e-05
-4.27614e-05
-5.05922e-05
-3.63039e-05
-5.60647e-05
-3.16632e-05
-6.12244e-05
-2.64989e-05
-6.60092e-05
-2.07904e-05
-7.03464e-05
-1.45193e-05
-7.41537e-05
-7.66953e-06
-7.73413e-05
-2.28234e-07
-7.9629e-05
6.80902e-06
-8.11163e-05
1.22219e-05
-8.1951e-05
1.61892e-05
-8.2267e-05
1.89468e-05
-8.21817e-05
2.07119e-05
-8.17948e-05
2.16788e-05
-8.11895e-05
2.2017e-05
-8.0433e-05
2.18717e-05
-7.95791e-05
2.13642e-05
-7.867e-05
2.05948e-05
-7.77378e-05
1.96443e-05
-7.68069e-05
1.85774e-05
-7.58951e-05
1.74445e-05
1.62854e-05
-7.50149e-05
-1.07407e-06
-8.36567e-06
-2.36355e-06
-9.91312e-06
-3.85684e-06
-1.14068e-05
-5.5739e-06
-1.30423e-05
-7.54243e-06
-1.48621e-05
-9.79485e-06
-1.68871e-05
-1.23678e-05
-1.91281e-05
-1.53021e-05
-2.15851e-05
-1.86424e-05
-2.42407e-05
-2.24366e-05
-2.70496e-05
-2.67352e-05
-2.99221e-05
-3.15884e-05
-3.26968e-05
-3.7042e-05
-3.5098e-05
-4.31272e-05
-3.66695e-05
-4.86973e-05
-3.07274e-05
-5.40374e-05
-2.63168e-05
-5.91045e-05
-2.14255e-05
-6.38462e-05
-1.60425e-05
-6.81996e-05
-1.01599e-05
-7.20917e-05
-3.77168e-06
-7.54399e-05
3.12541e-06
-7.79461e-05
9.31981e-06
-7.96893e-05
1.3969e-05
-8.08012e-05
1.73043e-05
-8.14026e-05
1.95508e-05
-8.16008e-05
2.09122e-05
-8.14886e-05
2.15683e-05
-8.11443e-05
2.16743e-05
-8.06327e-05
2.13614e-05
-8.00061e-05
2.07389e-05
-7.93065e-05
1.98961e-05
-7.85661e-05
1.89049e-05
-7.78102e-05
1.78221e-05
-7.70574e-05
1.6692e-05
1.55495e-05
-7.63216e-05
-1.03201e-06
-7.33277e-06
-2.26784e-06
-8.67626e-06
-3.69787e-06
-9.97553e-06
-5.34077e-06
-1.1398e-05
-7.22257e-06
-1.29787e-05
-9.37391e-06
-1.47339e-05
-1.18297e-05
-1.66702e-05
-1.4629e-05
-1.87833e-05
-1.78149e-05
-2.10519e-05
-2.14343e-05
-2.3427e-05
-2.55368e-05
-2.58159e-05
-3.01725e-05
-2.80567e-05
-3.53882e-05
-2.98772e-05
-4.12192e-05
-3.08327e-05
-4.65716e-05
-2.53694e-05
-5.17215e-05
-2.11613e-05
-5.66327e-05
-1.65087e-05
-6.12609e-05
-1.14088e-05
-6.55527e-05
-5.86257e-06
-6.94452e-05
1.26168e-07
-7.28658e-05
6.55122e-06
-7.55079e-05
1.19665e-05
-7.74348e-05
1.58997e-05
-7.87632e-05
1.8636e-05
-7.96011e-05
2.03914e-05
-8.00452e-05
2.13587e-05
-8.01801e-05
2.17053e-05
-8.00782e-05
2.15741e-05
-7.97999e-05
2.10845e-05
-7.93947e-05
2.03351e-05
-7.89028e-05
1.94054e-05
-7.8356e-05
1.8359e-05
-7.7779e-05
1.72458e-05
-7.71908e-05
1.61043e-05
1.49643e-05
-7.66054e-05
-9.75487e-07
-6.35655e-06
-2.14383e-06
-7.50708e-06
-3.49636e-06
-8.62202e-06
-5.05146e-06
-9.84175e-06
-6.83429e-06
-1.11946e-05
-8.87437e-06
-1.26923e-05
-1.12052e-05
-1.43376e-05
-1.3864e-05
-1.61225e-05
-1.68921e-05
-1.80216e-05
-2.03338e-05
-1.99825e-05
-2.42365e-05
-2.191e-05
-2.86484e-05
-2.36412e-05
-3.3615e-05
-2.49064e-05
-3.9172e-05
-2.52706e-05
-4.42799e-05
-2.02568e-05
-4.92047e-05
-1.62316e-05
-5.39162e-05
-1.17924e-05
-5.8377e-05
-6.94303e-06
-6.25423e-05
-1.69236e-06
-6.63586e-05
3.94731e-06
-6.97636e-05
9.96105e-06
-7.24531e-05
1.46603e-05
-7.44787e-05
1.7929e-05
-7.59446e-05
2.01052e-05
-7.69476e-05
2.13972e-05
-7.75741e-05
2.19876e-05
-7.79002e-05
2.20335e-05
-7.79916e-05
2.16673e-05
-7.79038e-05
2.09983e-05
-7.76835e-05
2.01164e-05
-7.73691e-05
1.90922e-05
-7.69901e-05
1.79812e-05
-7.65704e-05
1.6827e-05
-7.61283e-05
1.56628e-05
1.45143e-05
-7.56778e-05
-9.25795e-07
-5.43018e-06
-2.03273e-06
-6.39948e-06
-3.31355e-06
-7.34041e-06
-4.78564e-06
-8.36876e-06
-6.47271e-06
-9.50648e-06
-8.40269e-06
-1.07611e-05
-1.06073e-05
-1.21316e-05
-1.31219e-05
-1.36062e-05
-1.59857e-05
-1.51559e-05
-1.92411e-05
-1.67249e-05
-2.29332e-05
-1.82153e-05
-2.71081e-05
-1.94633e-05
-3.18094e-05
-2.02016e-05
-3.70724e-05
-2.00035e-05
-4.19137e-05
-1.54115e-05
-4.65871e-05
-1.15541e-05
-5.10663e-05
-7.30896e-06
-5.53195e-05
-2.68552e-06
-5.93086e-05
2.30104e-06
-6.2988e-05
7.63105e-06
-6.63044e-05
1.32818e-05
-6.89631e-05
1.7323e-05
-7.10077e-05
1.99771e-05
-7.25326e-05
2.16331e-05
-7.36246e-05
2.24919e-05
-7.43625e-05
2.27279e-05
-7.4816e-05
2.24892e-05
-7.50462e-05
2.18994e-05
-7.51029e-05
2.10565e-05
-7.50233e-05
2.00382e-05
-7.48427e-05
1.89129e-05
-7.45912e-05
1.77309e-05
-7.42927e-05
1.65293e-05
-7.39652e-05
1.5336e-05
1.41722e-05
-7.36225e-05
-8.71311e-07
-4.55842e-06
-1.9133e-06
-5.35697e-06
-3.11938e-06
-6.13371e-06
-4.50618e-06
-6.98125e-06
-6.09625e-06
-7.91557e-06
-7.91603e-06
-8.94033e-06
-9.99547e-06
-1.00511e-05
-1.2368e-05
-1.12323e-05
-1.50704e-05
-1.24519e-05
-1.81427e-05
-1.36508e-05
-2.1627e-05
-1.47289e-05
-2.55665e-05
-1.55213e-05
-3.00022e-05
-1.5763e-05
-3.49671e-05
-1.50352e-05
-3.95343e-05
-1.08409e-05
-4.39444e-05
-7.14054e-06
-4.81743e-05
-3.0755e-06
-5.21964e-05
1.34029e-06
-5.5978e-05
6.08629e-06
-5.94798e-05
1.11366e-05
-6.2656e-05
1.64618e-05
-6.52265e-05
1.9897e-05
-6.72298e-05
2.19835e-05
-6.87518e-05
2.31579e-05
-6.98717e-05
2.36143e-05
-7.06608e-05
2.35192e-05
-7.11819e-05
2.30123e-05
-7.14892e-05
2.22084e-05
-7.16283e-05
2.11972e-05
-7.16384e-05
2.00498e-05
-7.15524e-05
1.88282e-05
-7.13951e-05
1.75746e-05
-7.11872e-05
1.63223e-05
-7.09465e-05
1.5096e-05
1.39124e-05
-7.06861e-05
-8.21702e-07
-3.73638e-06
-1.80337e-06
-4.3749e-06
-2.93924e-06
-4.99736e-06
-4.24496e-06
-5.67497e-06
-5.74176e-06
-6.41811e-06
-7.45453e-06
-7.22679e-06
-9.41149e-06
-8.09319e-06
-1.16441e-05
-8.99861e-06
-1.41872e-05
-9.90759e-06
-1.70782e-05
-1.07584e-05
-2.03566e-05
-1.14487e-05
-2.40628e-05
-1.18131e-05
-2.82347e-05
-1.15887e-05
-3.29028e-05
-1.03642e-05
-3.71956e-05
-6.54531e-06
-4.13398e-05
-2.99349e-06
-4.53146e-05
9.02375e-07
-4.90958e-05
5.12458e-06
-5.26545e-05
9.6481e-06
-5.59565e-05
1.44419e-05
-5.89618e-05
1.94704e-05
-6.14073e-05
2.23456e-05
-6.33281e-05
2.3907e-05
-6.48036e-05
2.46359e-05
-6.59063e-05
2.47192e-05
-6.67011e-05
2.4316e-05
-6.72447e-05
2.35576e-05
-6.75854e-05
2.25507e-05
-6.77668e-05
2.138e-05
-6.78301e-05
2.01143e-05
-6.78036e-05
1.88027e-05
-6.77093e-05
1.74814e-05
-6.75655e-05
1.61793e-05
-6.73869e-05
1.49181e-05
1.37117e-05
-6.71855e-05
-7.71159e-07
-2.96495e-06
-1.69345e-06
-3.4523e-06
-2.76077e-06
-3.92967e-06
-3.9878e-06
-4.44749e-06
-5.39452e-06
-5.01088e-06
-7.00433e-06
-5.61638e-06
-8.84375e-06
-6.25304e-06
-1.09423e-05
-6.89916e-06
-1.33326e-05
-7.51634e-06
-1.60495e-05
-8.04029e-06
-1.913e-05
-8.36686e-06
-2.26111e-05
-8.33028e-06
-2.65278e-05
-7.66997e-06
-3.09078e-05
-5.98186e-06
-3.49332e-05
-2.51766e-06
-3.8817e-05
8.92741e-07
-4.25406e-05
4.62849e-06
-4.60821e-05
8.66867e-06
-4.94158e-05
1.29845e-05
-5.25115e-05
1.75404e-05
-5.53341e-05
2.22958e-05
-5.7638e-05
2.46521e-05
-5.94558e-05
2.57273e-05
-6.08616e-05
2.60438e-05
-6.19223e-05
2.57818e-05
-6.26978e-05
2.50932e-05
-6.32413e-05
2.41025e-05
-6.35986e-05
2.29093e-05
-6.38093e-05
2.15918e-05
-6.39042e-05
2.02102e-05
-6.39091e-05
1.88086e-05
-6.38482e-05
1.74213e-05
-6.374e-05
1.60718e-05
-6.35981e-05
1.47768e-05
1.35476e-05
-6.34333e-05
-7.31477e-07
-2.23328e-06
-1.59874e-06
-2.5848e-06
-2.60071e-06
-2.92742e-06
-3.75201e-06
-3.29585e-06
-5.07176e-06
-3.69072e-06
-6.58213e-06
-4.10553e-06
-8.30813e-06
-4.52648e-06
-1.02775e-05
-4.92909e-06
-1.25207e-05
-5.27234e-06
-1.50704e-05
-5.48968e-06
-1.79606e-05
-5.47548e-06
-2.12258e-05
-5.06372e-06
-2.48979e-05
-3.99627e-06
-2.90018e-05
-1.87604e-06
-3.27708e-05
1.25326e-06
-3.64049e-05
4.52892e-06
-3.98872e-05
8.11287e-06
-4.31979e-05
1.19815e-05
-4.63139e-05
1.61028e-05
-4.92084e-05
2.04372e-05
-5.18501e-05
2.49398e-05
-5.40105e-05
2.68147e-05
-5.57204e-05
2.74392e-05
-5.70488e-05
2.73739e-05
-5.80577e-05
2.67923e-05
-5.88025e-05
2.58394e-05
-5.93318e-05
2.46331e-05
-5.96876e-05
2.32663e-05
-5.99055e-05
2.18107e-05
-6.00151e-05
2.03207e-05
-6.00419e-05
1.88361e-05
-6.0006e-05
1.73861e-05
-5.99241e-05
1.59905e-05
-5.98094e-05
1.46627e-05
-5.96723e-05
1.34112e-05
0.000271268
2.15069e-05
0.000264195
2.24749e-05
0.000256077
2.34694e-05
0.000246582
2.47657e-05
0.000235515
2.62595e-05
0.000222785
2.78322e-05
0.00020851
2.92916e-05
0.000193033
3.04119e-05
0.000176836
3.10613e-05
0.000160389
3.12609e-05
0.000143854
3.13323e-05
0.000126971
3.1487e-05
0.000110679
3.01736e-05
9.61678e-05
2.77131e-05
8.25972e-05
2.60946e-05
6.80992e-05
2.63538e-05
5.15704e-05
2.77709e-05
3.32571e-05
2.89807e-05
1.49846e-05
2.84332e-05
1.0631e-06
2.36968e-05
-7.99934e-06
1.85521e-05
1.47224e-05
-1.35816e-05
0.000658186
-7.86827e-06
0.000690557
-9.52795e-06
0.000724556
-1.01463e-05
0.000759828
-1.01169e-05
0.000796243
-9.74806e-06
0.000833975
-9.46114e-06
0.000873496
-9.7495e-06
0.000915487
-1.10361e-05
0.000960448
-1.32988e-05
0.00100818
-1.582e-05
0.00105716
-1.69447e-05
0.00110244
-1.30801e-05
0.00113291
3.58224e-07
0.00113811
2.3155e-05
0.00111702
4.78064e-05
0.00107239
7.15539e-05
0.00100813
9.254e-05
0.000927402
0.000110127
0.000831554
0.000124642
0.000718056
0.000137485
0.00058744
0.000149404
0.000160477
0.000441872
0.000243381
-1.88762e-06
0.00023416
-2.9574e-07
0.000223098
9.50598e-07
0.000210972
2.06988e-06
0.00019832
2.95236e-06
0.000185414
3.47479e-06
0.000172144
3.54213e-06
0.000158032
3.1297e-06
0.000142407
2.42202e-06
0.00012493
1.78711e-06
0.000106528
1.63312e-06
9.09319e-05
2.75306e-06
8.42355e-05
7.36331e-06
8.93848e-05
1.83108e-05
9.97096e-05
3.77647e-05
0.000111318
6.01736e-05
0.00012143
8.26007e-05
0.000126631
0.000105017
0.000124517
0.000126771
0.00011431
0.000147626
9.61926e-05
0.000167382
0.000186166
7.03108e-05
0.000419289
3.21573e-05
0.000382129
3.69574e-05
0.000341834
4.13688e-05
0.000298968
4.50903e-05
0.000253644
4.84373e-05
0.000205414
5.18669e-05
0.000153162
5.59552e-05
9.5335e-05
6.11185e-05
3.05165e-05
6.74021e-05
-4.19342e-05
7.44341e-05
-0.000121171
8.10899e-05
-0.000202412
8.42721e-05
-0.000275008
8.02733e-05
-0.000329741
7.3384e-05
-0.000358372
6.67552e-05
-0.000361342
6.35155e-05
-0.000342953
6.457e-05
-0.000307662
7.00424e-05
-0.000259515
7.88967e-05
-0.000201731
9.00801e-05
-0.000136564
0.00010243
0.00011453
-6.47245e-05
1.52999e-05
1.58287e-05
3.19366e-05
2.03073e-05
4.91248e-05
2.41354e-05
6.64455e-05
2.76849e-05
8.35509e-05
3.12143e-05
0.000100232
3.5034e-05
0.00011652
3.94872e-05
0.000132714
4.4728e-05
0.000149098
5.08168e-05
0.000165706
5.76404e-05
0.000181769
6.48645e-05
0.00019498
7.09191e-05
0.000202245
7.28839e-05
0.000201839
7.36716e-05
0.000194592
7.38801e-05
0.000183692
7.42813e-05
0.000172466
7.56516e-05
0.000164007
7.83585e-05
0.000160298
8.24715e-05
0.000162359
8.79001e-05
0.000170312
9.43739e-05
0.000101666
0.000183085
0.000183623
3.6632e-05
0.000163734
4.0089e-05
0.00014411
4.36451e-05
0.000124665
4.70063e-05
0.000105527
5.02217e-05
8.70836e-05
5.33386e-05
7.00563e-05
5.63679e-05
5.53179e-05
5.93145e-05
4.36319e-05
6.23462e-05
3.54346e-05
6.56784e-05
3.06052e-05
6.95321e-05
2.82635e-05
7.31078e-05
2.67015e-05
7.43148e-05
2.46378e-05
7.56324e-05