/*--------------------------------*- C++ -*----------------------------------*\
  =========                 |
  \\      /  F ield         | OpenFOAM: The Open Source CFD Toolbox
   \\    /   O peration     | Website:  https://openfoam.org
    \\  /    A nd           | Version:  8
     \\/     M anipulation  |
\*---------------------------------------------------------------------------*/
FoamFile
{
    version     2.0;
    format      ascii;
    class       volScalarField;
    location    "0.33";
    object      T;
}
// * * * * * * * * * * * * * * * * * * * * * * * * * * * * * * * * * * * * * //

dimensions      [0 0 0 1 0 0 0];

internalField   nonuniform List<scalar> 
15677
(
297.688
297.658
297.741
297.83
297.928
298.037
298.159
298.297
298.45
298.611
298.757
298.879
298.926
298.873
298.706
298.532
298.398
298.296
298.213
298.145
298.105
298.103
298.115
298.155
298.197
298.242
298.288
298.332
298.372
298.407
298.436
298.457
298.47
298.473
298.47
297.969
298.042
298.054
298.075
298.114
298.18
298.281
298.426
298.631
298.927
299.323
299.716
299.914
299.904
299.697
299.397
299.067
298.763
298.527
298.399
298.348
298.348
298.371
298.404
298.438
298.47
298.497
298.52
298.54
298.555
298.565
298.572
298.576
298.579
298.581
300.13
300.051
300.007
299.972
299.937
299.896
299.845
299.776
299.687
299.586
299.483
299.344
299.089
298.663
298.467
298.429
298.488
298.584
298.705
298.837
298.949
299.031
299.069
299.079
299.077
299.068
299.059
299.057
299.061
299.063
299.06
299.05
299.034
299.014
298.991
299.769
299.691
299.655
299.623
299.592
299.561
299.53
299.502
299.477
299.45
299.391
299.325
299.261
299.254
299.302
299.456
299.638
299.836
300
300.109
300.143
300.12
300.055
299.959
299.848
299.731
299.611
299.497
299.398
299.321
299.267
299.234
299.215
299.204
299.198
300.843
300.789
300.733
300.672
300.603
300.526
300.44
300.342
300.235
300.124
300.012
299.903
299.81
299.738
299.694
299.669
299.655
299.658
299.685
299.733
299.771
299.786
299.785
299.78
299.777
299.78
299.788
299.799
299.811
299.825
299.843
299.864
299.888
299.911
299.934
300.641
300.616
300.585
300.554
300.519
300.481
300.439
300.395
300.349
300.307
300.268
300.23
300.203
300.176
300.171
300.171
300.172
300.174
300.173
300.17
300.161
300.148
300.132
300.113
300.088
300.062
300.036
300.014
299.999
299.991
299.988
299.988
299.989
299.992
299.995
300.231
300.227
300.227
300.226
300.225
300.222
300.218
300.213
300.206
300.199
300.191
300.184
300.176
300.169
300.164
300.161
300.159
300.158
300.158
300.157
300.155
300.152
300.151
300.15
300.151
300.153
300.157
300.16
300.164
300.167
300.17
300.172
300.175
300.177
300.178
300.422
300.423
300.421
300.417
300.412
300.407
300.4
300.393
300.386
300.377
300.367
300.356
300.343
300.328
300.312
300.296
300.28
300.263
300.245
300.227
300.207
300.186
300.167
300.15
300.136
300.126
300.119
300.113
300.107
300.102
300.097
300.092
300.088
300.084
300.08
300.236
300.239
300.244
300.249
300.254
300.259
300.263
300.267
300.271
300.274
300.275
300.275
300.274
300.271
300.265
300.258
300.25
300.241
300.23
300.218
300.206
300.194
300.183
300.174
300.165
300.157
300.152
300.147
300.144
300.141
300.138
300.135
300.132
300.13
300.127
300.413
300.409
300.404
300.399
300.394
300.388
300.383
300.377
300.371
300.364
300.357
300.349
300.34
300.329
300.317
300.304
300.291
300.276
300.26
300.243
300.225
300.207
300.19
300.176
300.163
300.152
300.141
300.132
300.124
300.116
300.109
300.104
300.098
300.094
300.09
300.306
300.308
300.31
300.312
300.314
300.316
300.318
300.319
300.32
300.32
300.319
300.317
300.313
300.308
300.3
300.292
300.282
300.271
300.259
300.247
300.233
300.219
300.205
300.193
300.182
300.173
300.165
300.158
300.152
300.146
300.141
300.136
300.132
300.129
300.125
300.394
300.39
300.386
300.383
300.379
300.376
300.372
300.369
300.365
300.361
300.356
300.351
300.345
300.338
300.329
300.32
300.309
300.296
300.282
300.267
300.251
300.235
300.22
300.206
300.194
300.183
300.173
300.164
300.156
300.149
300.143
300.137
300.133
300.128
300.125
300.356
300.356
300.356
300.357
300.357
300.357
300.357
300.357
300.356
300.354
300.352
300.35
300.346
300.34
300.334
300.326
300.317
300.307
300.295
300.282
300.268
300.254
300.241
300.228
300.217
300.207
300.199
300.191
300.184
300.177
300.172
300.167
300.162
300.159
300.155
300.399
300.396
300.394
300.392
300.391
300.389
300.387
300.386
300.384
300.382
300.379
300.375
300.371
300.365
300.357
300.348
300.339
300.328
300.316
300.303
300.289
300.275
300.262
300.25
300.239
300.229
300.22
300.213
300.206
300.2
300.195
300.19
300.186
300.183
300.18
300.392
300.391
300.391
300.391
300.391
300.391
300.391
300.39
300.389
300.388
300.387
300.384
300.38
300.375
300.369
300.362
300.354
300.344
300.334
300.323
300.311
300.298
300.287
300.276
300.267
300.258
300.251
300.245
300.239
300.235
300.231
300.227
300.224
300.221
300.219
300.419
300.417
300.415
300.414
300.412
300.411
300.41
300.408
300.406
300.404
300.401
300.398
300.395
300.39
300.384
300.378
300.371
300.363
300.353
300.343
300.332
300.321
300.31
300.3
300.291
300.284
300.277
300.271
300.266
300.262
300.258
300.255
300.252
300.25
300.248
300.422
300.421
300.421
300.42
300.42
300.419
300.419
300.418
300.416
300.415
300.413
300.411
300.407
300.403
300.398
300.393
300.387
300.379
300.371
300.362
300.352
300.343
300.333
300.324
300.316
300.31
300.304
300.298
300.294
300.29
300.287
300.284
300.282
300.28
300.278
300.438
300.436
300.434
300.433
300.432
300.431
300.43
300.429
300.428
300.426
300.424
300.422
300.419
300.416
300.411
300.407
300.401
300.395
300.388
300.381
300.372
300.363
300.355
300.347
300.34
300.333
300.328
300.323
300.319
300.315
300.312
300.31
300.307
300.305
300.304
300.448
300.446
300.445
300.445
300.444
300.443
300.442
300.44
300.439
300.437
300.436
300.433
300.431
300.427
300.424
300.419
300.415
300.41
300.404
300.398
300.39
300.383
300.376
300.369
300.362
300.357
300.352
300.347
300.344
300.34
300.337
300.335
300.332
300.33
300.329
300.457
300.456
300.455
300.454
300.453
300.452
300.451
300.45
300.449
300.447
300.446
300.444
300.441
300.438
300.435
300.431
300.427
300.423
300.418
300.413
300.407
300.401
300.395
300.389
300.384
300.379
300.374
300.37
300.367
300.364
300.361
300.359
300.357
300.355
300.353
300.468
300.466
300.465
300.464
300.463
300.462
300.461
300.46
300.458
300.457
300.455
300.453
300.451
300.448
300.445
300.442
300.438
300.435
300.431
300.427
300.422
300.417
300.412
300.407
300.403
300.399
300.395
300.392
300.389
300.387
300.384
300.382
300.38
300.379
300.377
300.475
300.474
300.473
300.472
300.471
300.47
300.469
300.468
300.467
300.465
300.463
300.461
300.459
300.456
300.454
300.451
300.448
300.445
300.442
300.439
300.435
300.431
300.427
300.424
300.42
300.417
300.414
300.412
300.409
300.407
300.405
300.404
300.402
300.401
300.399
300.483
300.482
300.481
300.48
300.479
300.478
300.477
300.476
300.474
300.473
300.471
300.469
300.467
300.464
300.462
300.459
300.457
300.454
300.451
300.449
300.446
300.443
300.44
300.438
300.435
300.433
300.431
300.429
300.427
300.426
300.424
300.423
300.422
300.42
300.419
300.49
300.488
300.487
300.487
300.486
300.485
300.483
300.482
300.481
300.479
300.478
300.476
300.473
300.471
300.468
300.466
300.464
300.462
300.46
300.457
300.455
300.453
300.451
300.449
300.448
300.446
300.445
300.443
300.442
300.441
300.44
300.439
300.438
300.437
300.437
300.496
300.495
300.494
300.493
300.492
300.491
300.489
300.488
300.487
300.485
300.484
300.482
300.479
300.477
300.475
300.472
300.47
300.468
300.467
300.465
300.463
300.462
300.46
300.459
300.458
300.457
300.456
300.455
300.454
300.454
300.453
300.452
300.452
300.451
300.451
300.501
300.5
300.499
300.498
300.497
300.496
300.495
300.493
300.492
300.49
300.489
300.487
300.485
300.482
300.48
300.478
300.476
300.474
300.472
300.471
300.47
300.468
300.467
300.467
300.466
300.465
300.465
300.464
300.464
300.463
300.463
300.463
300.463
300.462
300.462
300.506
300.505
300.504
300.503
300.502
300.501
300.499
300.498
300.497
300.495
300.493
300.491
300.489
300.487
300.485
300.483
300.481
300.479
300.477
300.476
300.475
300.474
300.473
300.473
300.472
300.472
300.472
300.471
300.471
300.471
300.471
300.471
300.471
300.471
300.471
300.51
300.509
300.508
300.507
300.506
300.505
300.503
300.502
300.501
300.499
300.497
300.496
300.493
300.491
300.489
300.487
300.485
300.483
300.482
300.48
300.479
300.478
300.478
300.477
300.477
300.477
300.477
300.477
300.477
300.477
300.477
300.477
300.477
300.477
300.477
300.514
300.512
300.511
300.51
300.509
300.508
300.507
300.506
300.504
300.503
300.501
300.499
300.497
300.495
300.492
300.49
300.488
300.487
300.485
300.484
300.483
300.482
300.482
300.481
300.481
300.481
300.481
300.481
300.481
300.481
300.481
300.481
300.481
300.481
300.482
300.517
300.516
300.515
300.514
300.513
300.511
300.51
300.509
300.508
300.506
300.504
300.502
300.5
300.498
300.495
300.493
300.491
300.49
300.488
300.487
300.486
300.485
300.484
300.484
300.484
300.484
300.484
300.484
300.484
300.484
300.484
300.484
300.485
300.485
300.485
298.461
298.444
298.416
298.379
298.332
298.268
298.192
298.106
298.014
297.923
297.823
297.752
297.738
297.746
297.757
297.806
297.776
297.655
297.448
297.231
297.087
296.961
298.578
298.565
298.539
298.51
298.475
298.435
298.389
298.339
298.283
298.217
298.131
298.011
297.851
297.712
297.615
297.555
297.537
297.539
297.533
297.502
297.433
297.384
298.956
298.907
298.852
298.796
298.741
298.695
298.66
298.646
298.66
298.714
298.822
298.996
299.226
299.464
299.681
299.858
299.982
300.049
300.054
299.999
299.859
299.675
299.189
299.173
299.151
299.122
299.091
299.06
299.034
299.021
299.025
299.048
299.084
299.121
299.139
299.144
299.158
299.174
299.163
299.127
299.065
298.976
298.866
298.754
299.959
299.988
300.016
300.043
300.067
300.086
300.101
300.111
300.119
300.124
300.13
300.136
300.146
300.159
300.162
300.163
300.161
300.159
300.156
300.153
300.149
300.147
299.998
300.001
300.003
300.005
300.005
300.003
299.998
299.991
299.981
299.97
299.958
299.947
299.938
299.93
299.922
299.913
299.903
299.893
299.883
299.876
299.871
299.87
300.178
300.177
300.176
300.175
300.174
300.172
300.17
300.167
300.163
300.158
300.154
300.15
300.146
300.144
300.142
300.14
300.138
300.137
300.136
300.136
300.139
300.145
300.077
300.073
300.068
300.064
300.059
300.054
300.048
300.043
300.037
300.031
300.026
300.021
300.017
300.015
300.014
300.014
300.015
300.016
300.019
300.022
300.027
300.033
300.124
300.121
300.117
300.114
300.11
300.107
300.103
300.1
300.096
300.092
300.089
300.086
300.084
300.083
300.083
300.084
300.085
300.087
300.089
300.092
300.096
300.1
300.085
300.08
300.074
300.069
300.064
300.059
300.055
300.051
300.047
300.043
300.04
300.037
300.036
300.034
300.034
300.035
300.036
300.037
300.04
300.042
300.045
300.049
300.121
300.115
300.11
300.104
300.099
300.094
300.089
300.084
300.08
300.075
300.071
300.068
300.064
300.062
300.059
300.058
300.057
300.056
300.056
300.056
300.056
300.057
300.12
300.113
300.107
300.101
300.095
300.089
300.083
300.077
300.072
300.068
300.063
300.059
300.056
300.053
300.05
300.048
300.047
300.046
300.045
300.045
300.045
300.045
300.15
300.143
300.136
300.128
300.121
300.114
300.107
300.101
300.094
300.088
300.082
300.077
300.072
300.068
300.065
300.062
300.059
300.057
300.055
300.054
300.053
300.052
300.175
300.167
300.16
300.153
300.145
300.138
300.13
300.123
300.116
300.109
300.103
300.096
300.091
300.085
300.081
300.077
300.073
300.071
300.068
300.066
300.065
300.063
300.214
300.208
300.201
300.194
300.187
300.18
300.173
300.166
300.159
300.151
300.144
300.137
300.13
300.124
300.118
300.112
300.107
300.102
300.098
300.094
300.09
300.086
300.244
300.238
300.232
300.226
300.22
300.214
300.207
300.201
300.195
300.189
300.182
300.175
300.168
300.162
300.155
300.149
300.143
300.137
300.132
300.126
300.121
300.117
300.274
300.268
300.263
300.257
300.251
300.246
300.24
300.234
300.229
300.223
300.217
300.211
300.205
300.199
300.193
300.187
300.181
300.175
300.169
300.163
300.157
300.152
300.3
300.294
300.289
300.283
300.278
300.272
300.267
300.262
300.257
300.252
300.247
300.242
300.237
300.232
300.227
300.222
300.216
300.211
300.205
300.2
300.194
300.188
300.325
300.319
300.313
300.308
300.302
300.297
300.292
300.287
300.283
300.278
300.274
300.27
300.265
300.261
300.257
300.253
300.249
300.244
300.239
300.234
300.229
300.224
300.349
300.343
300.338
300.332
300.326
300.321
300.315
300.311
300.306
300.302
300.297
300.294
300.29
300.286
300.283
300.28
300.276
300.273
300.269
300.265
300.26
300.256
300.373
300.367
300.361
300.355
300.349
300.344
300.338
300.333
300.328
300.323
300.319
300.315
300.312
300.309
300.306
300.303
300.3
300.297
300.294
300.291
300.288
300.284
300.396
300.39
300.384
300.378
300.372
300.367
300.361
300.355
300.35
300.345
300.34
300.336
300.332
300.329
300.326
300.323
300.321
300.319
300.316
300.314
300.311
300.308
300.416
300.411
300.406
300.4
300.394
300.389
300.383
300.377
300.371
300.366
300.361
300.356
300.352
300.349
300.345
300.343
300.34
300.338
300.335
300.333
300.331
300.328
300.434
300.43
300.425
300.42
300.415
300.409
300.404
300.398
300.392
300.387
300.381
300.376
300.372
300.368
300.364
300.361
300.358
300.356
300.353
300.351
300.349
300.347
300.449
300.445
300.441
300.437
300.432
300.428
300.423
300.417
300.412
300.406
300.401
300.396
300.391
300.387
300.383
300.379
300.376
300.373
300.37
300.368
300.365
300.363
300.461
300.458
300.455
300.451
300.447
300.443
300.439
300.434
300.429
300.424
300.419
300.414
300.409
300.405
300.4
300.396
300.393
300.39
300.387
300.384
300.381
300.379
300.47
300.467
300.465
300.462
300.459
300.456
300.452
300.449
300.444
300.44
300.435
300.431
300.426
300.421
300.417
300.413
300.409
300.406
300.403
300.4
300.397
300.394
300.476
300.475
300.473
300.471
300.469
300.466
300.463
300.46
300.457
300.453
300.449
300.445
300.441
300.436
300.432
300.428
300.425
300.421
300.418
300.414
300.411
300.408
300.481
300.48
300.479
300.477
300.476
300.474
300.472
300.469
300.466
300.463
300.46
300.457
300.453
300.449
300.446
300.442
300.438
300.435
300.431
300.428
300.425
300.422
300.485
300.484
300.483
300.482
300.481
300.479
300.478
300.476
300.474
300.472
300.469
300.466
300.463
300.46
300.457
300.453
300.45
300.447
300.443
300.44
300.437
300.434
296.828
296.697
296.555
296.56
296.754
296.972
297.361
297.415
297.468
297.488
297.522
297.641
299.507
299.508
299.624
299.633
299.681
299.793
298.67
298.67
298.708
298.727
298.772
298.855
300.159
300.196
300.244
300.282
300.308
300.315
299.875
299.89
299.908
299.922
299.931
299.932
300.158
300.18
300.205
300.228
300.245
300.251
300.04
300.05
300.061
300.071
300.077
300.079
300.105
300.111
300.117
300.122
300.125
300.124
300.052
300.054
300.057
300.057
300.057
300.054
300.058
300.059
300.059
300.058
300.057
300.055
300.045
300.045
300.045
300.046
300.046
300.046
300.052
300.052
300.052
300.052
300.052
300.051
300.062
300.062
300.062
300.062
300.062
300.063
300.084
300.083
300.083
300.083
300.083
300.084
300.114
300.113
300.112
300.112
300.112
300.112
300.148
300.147
300.146
300.146
300.145
300.146
300.185
300.184
300.183
300.182
300.182
300.182
300.221
300.22
300.219
300.219
300.219
300.218
300.254
300.253
300.253
300.253
300.253
300.253
300.282
300.283
300.283
300.284
300.284
300.284
300.307
300.308
300.309
300.31
300.311
300.312
300.328
300.33
300.331
300.332
300.333
300.335
300.346
300.348
300.35
300.352
300.353
300.355
300.363
300.365
300.367
300.369
300.37
300.372
300.379
300.381
300.383
300.384
300.386
300.388
300.394
300.395
300.397
300.399
300.401
300.402
300.408
300.409
300.411
300.413
300.414
300.416
300.421
300.423
300.424
300.425
300.427
300.428
300.433
300.434
300.436
300.437
300.438
300.439
297.217
297.486
297.807
298.082
298.191
298.231
298.232
298.204
298.152
298.096
298.053
298.034
298.039
298.069
298.119
298.176
298.239
298.305
298.366
298.422
298.471
298.513
297.82
297.985
298.132
298.26
298.375
298.518
298.692
298.824
298.883
298.863
298.788
298.675
298.559
298.463
298.424
298.416
298.429
298.458
298.492
298.527
298.558
298.58
299.897
299.969
299.986
299.965
299.919
299.85
299.751
299.614
299.434
299.241
299.07
298.935
298.853
298.822
298.83
298.873
298.94
299.018
299.099
299.176
299.245
299.304
298.951
299.033
299.098
299.145
299.18
299.206
299.272
299.372
299.45
299.456
299.397
299.307
299.224
299.165
299.14
299.139
299.163
299.205
299.259
299.321
299.387
299.458
300.321
300.328
300.328
300.322
300.31
300.292
300.259
300.223
300.198
300.187
300.171
300.142
300.102
300.063
300.026
299.987
299.944
299.895
299.841
299.788
299.739
299.697
299.927
299.916
299.898
299.874
299.847
299.818
299.79
299.766
299.752
299.748
299.752
299.76
299.77
299.779
299.787
299.794
299.799
299.804
299.81
299.817
299.827
299.841
300.249
300.242
300.23
300.213
300.194
300.174
300.155
300.14
300.128
300.12
300.115
300.112
300.109
300.104
300.099
300.094
300.091
300.09
300.092
300.097
300.104
300.111
300.075
300.066
300.055
300.041
300.025
300.01
299.996
299.984
299.976
299.971
299.968
299.967
299.967
299.968
299.97
299.974
299.98
299.989
299.999
300.01
300.022
300.035
300.12
300.113
300.104
300.095
300.085
300.076
300.068
300.063
300.06
300.06
300.061
300.064
300.069
300.075
300.082
300.09
300.099
300.108
300.118
300.128
300.139
300.148
300.05
300.044
300.038
300.032
300.027
300.024
300.021
300.021
300.022
300.024
300.028
300.033
300.04
300.047
300.056
300.065
300.075
300.085
300.095
300.105
300.114
300.123
300.053
300.051
300.05
300.048
300.048
300.048
300.05
300.053
300.056
300.061
300.067
300.074
300.082
300.091
300.1
300.109
300.119
300.128
300.137
300.146
300.154
300.162
300.046
300.046
300.047
300.048
300.049
300.052
300.055
300.059
300.064
300.07
300.076
300.084
300.092
300.1
300.109
300.117
300.126
300.134
300.142
300.149
300.156
300.163
300.052
300.053
300.054
300.057
300.06
300.065
300.07
300.076
300.083
300.091
300.1
300.109
300.118
300.127
300.136
300.144
300.152
300.159
300.166
300.172
300.178
300.185
300.064
300.067
300.07
300.075
300.08
300.085
300.092
300.098
300.106
300.114
300.122
300.131
300.139
300.147
300.155
300.163
300.17
300.177
300.184
300.19
300.197
300.203
300.086
300.09
300.095
300.1
300.106
300.112
300.118
300.125
300.133
300.141
300.149
300.157
300.166
300.174
300.182
300.19
300.198
300.205
300.212
300.219
300.226
300.233
300.115
300.12
300.125
300.13
300.136
300.143
300.149
300.156
300.164
300.172
300.18
300.189
300.197
300.205
300.213
300.221
300.228
300.236
300.242
300.249
300.255
300.262
300.148
300.153
300.159
300.165
300.171
300.178
300.185
300.192
300.199
300.207
300.215
300.224
300.232
300.24
300.248
300.255
300.262
300.269
300.276
300.282
300.288
300.294
300.185
300.19
300.196
300.202
300.208
300.215
300.222
300.229
300.236
300.244
300.252
300.26
300.268
300.275
300.282
300.289
300.296
300.302
300.308
300.313
300.319
300.324
300.221
300.227
300.233
300.239
300.245
300.252
300.259
300.266
300.273
300.28
300.287
300.295
300.302
300.309
300.315
300.321
300.327
300.333
300.338
300.343
300.347
300.351
300.256
300.262
300.268
300.274
300.28
300.286
300.293
300.299
300.306
300.313
300.319
300.326
300.333
300.339
300.344
300.35
300.355
300.359
300.364
300.368
300.371
300.374
300.288
300.293
300.299
300.305
300.311
300.317
300.323
300.329
300.335
300.341
300.347
300.353
300.359
300.365
300.37
300.374
300.378
300.382
300.386
300.389
300.391
300.394
300.315
300.32
300.326
300.331
300.337
300.343
300.349
300.354
300.36
300.366
300.371
300.377
300.382
300.386
300.391
300.394
300.398
300.401
300.403
300.405
300.407
300.409
300.338
300.343
300.349
300.354
300.36
300.365
300.371
300.376
300.381
300.386
300.391
300.396
300.401
300.404
300.408
300.411
300.413
300.415
300.417
300.418
300.42
300.421
300.358
300.363
300.368
300.374
300.379
300.384
300.389
300.394
300.399
300.404
300.408
300.412
300.416
300.419
300.422
300.424
300.425
300.427
300.428
300.429
300.43
300.431
300.375
300.381
300.386
300.391
300.396
300.401
300.406
300.41
300.415
300.419
300.423
300.426
300.429
300.431
300.433
300.434
300.435
300.436
300.437
300.438
300.438
300.439
300.391
300.396
300.401
300.406
300.411
300.416
300.42
300.424
300.428
300.431
300.434
300.437
300.439
300.44
300.441
300.442
300.443
300.444
300.444
300.445
300.446
300.446
300.406
300.411
300.415
300.42
300.424
300.429
300.432
300.436
300.439
300.442
300.444
300.446
300.447
300.448
300.449
300.449
300.45
300.45
300.451
300.451
300.452
300.453
300.419
300.424
300.428
300.432
300.436
300.44
300.443
300.446
300.448
300.45
300.452
300.453
300.454
300.454
300.455
300.455
300.456
300.456
300.457
300.457
300.458
300.459
300.431
300.435
300.439
300.443
300.446
300.449
300.452
300.454
300.455
300.457
300.458
300.459
300.459
300.46
300.46
300.461
300.461
300.461
300.462
300.463
300.463
300.464
300.441
300.445
300.449
300.452
300.454
300.457
300.459
300.46
300.462
300.463
300.463
300.464
300.464
300.465
300.465
300.465
300.466
300.466
300.467
300.467
300.468
300.469
298.544
298.568
298.589
298.609
298.626
298.641
298.653
298.663
298.669
298.671
298.671
298.667
298.661
298.65
298.626
298.61
298.609
298.628
298.674
298.749
298.832
298.88
298.849
298.759
298.65
298.536
298.423
298.313
298.211
298.117
298.033
297.956
297.886
297.815
297.79
298.59
298.596
298.603
298.609
298.616
298.623
298.627
298.629
298.629
298.626
298.623
298.621
298.628
298.659
298.719
298.804
298.926
299.098
299.31
299.529
299.703
299.768
299.633
299.295
298.923
298.645
298.449
298.307
298.2
298.121
298.064
298.028
298.006
297.994
297.944
299.344
299.371
299.397
299.418
299.433
299.439
299.434
299.416
299.381
299.329
299.259
299.174
299.08
298.986
298.894
298.808
298.726
298.655
298.61
298.619
298.704
298.955
299.249
299.419
299.539
299.652
299.762
299.845
299.904
299.945
299.975
299.997
300.02
300.049
300.103
299.518
299.567
299.622
299.682
299.746
299.81
299.872
299.929
299.979
300.02
300.054
300.08
300.097
300.104
300.092
300.038
299.947
299.819
299.666
299.523
299.403
299.36
299.366
299.412
299.456
299.493
299.514
299.532
299.551
299.569
299.586
299.602
299.62
299.641
299.699
299.669
299.649
299.631
299.617
299.607
299.603
299.604
299.609
299.617
299.625
299.633
299.642
299.65
299.653
299.642
299.616
299.585
299.574
299.573
299.593
299.634
299.694
299.784
299.888
300.001
300.114
300.223
300.326
300.417
300.496
300.565
300.625
300.678
300.724
300.767
299.855
299.866
299.879
299.893
299.91
299.928
299.95
299.976
300.006
300.04
300.077
300.113
300.146
300.173
300.195
300.206
300.209
300.208
300.202
300.197
300.195
300.195
300.213
300.239
300.271
300.306
300.345
300.386
300.425
300.462
300.495
300.525
300.552
300.577
300.598
300.115
300.115
300.116
300.117
300.119
300.122
300.126
300.131
300.138
300.147
300.156
300.165
300.172
300.174
300.174
300.172
300.169
300.166
300.164
300.163
300.165
300.17
300.177
300.185
300.193
300.2
300.206
300.211
300.216
300.219
300.22
300.221
300.221
300.22
300.223
300.046
300.054
300.063
300.073
300.085
300.097
300.111
300.126
300.142
300.157
300.172
300.184
300.196
300.208
300.222
300.237
300.251
300.266
300.281
300.296
300.31
300.325
300.339
300.351
300.363
300.373
300.382
300.39
300.397
300.404
300.41
300.416
300.421
300.425
300.427
300.156
300.161
300.166
300.172
300.178
300.184
300.191
300.198
300.205
300.211
300.217
300.223
300.229
300.236
300.242
300.247
300.252
300.258
300.263
300.268
300.273
300.278
300.281
300.283
300.284
300.283
300.282
300.279
300.276
300.272
300.268
300.264
300.26
300.256
300.253
300.13
300.135
300.141
300.147
300.154
300.161
300.169
300.177
300.186
300.196
300.205
300.215
300.225
300.235
300.246
300.258
300.27
300.282
300.294
300.306
300.317
300.328
300.339
300.348
300.356
300.363
300.37
300.377
300.383
300.389
300.394
300.4
300.406
300.411
300.417
300.167
300.172
300.176
300.181
300.185
300.191
300.196
300.202
300.208
300.215
300.221
300.228
300.236
300.244
300.254
300.263
300.271
300.28
300.288
300.297
300.304
300.312
300.318
300.323
300.326
300.328
300.329
300.329
300.329
300.328
300.327
300.326
300.324
300.323
300.322
300.168
300.172
300.176
300.18
300.185
300.19
300.196
300.202
300.209
300.216
300.224
300.232
300.241
300.251
300.262
300.274
300.285
300.296
300.307
300.317
300.327
300.336
300.344
300.352
300.358
300.363
300.368
300.373
300.377
300.381
300.385
300.389
300.393
300.397
300.402
300.189
300.192
300.196
300.199
300.204
300.208
300.213
300.219
300.224
300.231
300.238
300.245
300.254
300.263
300.273
300.283
300.293
300.303
300.312
300.321
300.33
300.338
300.345
300.351
300.355
300.359
300.361
300.363
300.365
300.366
300.367
300.367
300.367
300.367
300.368
300.207
300.21
300.213
300.217
300.221
300.225
300.23
300.235
300.24
300.247
300.253
300.261
300.269
300.278
300.288
300.298
300.308
300.318
300.329
300.339
300.348
300.358
300.366
300.373
300.378
300.383
300.386
300.389
300.392
300.395
300.397
300.399
300.402
300.405
300.408
300.237
300.24
300.242
300.245
300.249
300.252
300.256
300.26
300.264
300.269
300.275
300.281
300.287
300.295
300.304
300.313
300.322
300.331
300.341
300.35
300.359
300.368
300.375
300.381
300.386
300.389
300.392
300.394
300.396
300.397
300.398
300.399
300.399
300.4
300.402
300.266
300.268
300.27
300.272
300.275
300.278
300.281
300.284
300.287
300.292
300.296
300.301
300.307
300.313
300.321
300.329
300.338
300.346
300.355
300.364
300.372
300.381
300.388
300.394
300.399
300.404
300.407
300.411
300.413
300.416
300.418
300.42
300.422
300.424
300.427
300.297
300.299
300.3
300.302
300.304
300.306
300.308
300.31
300.313
300.315
300.319
300.322
300.327
300.332
300.339
300.346
300.353
300.361
300.37
300.378
300.386
300.394
300.401
300.406
300.411
300.415
300.418
300.42
300.422
300.424
300.425
300.426
300.427
300.428
300.429
300.326
300.327
300.328
300.329
300.331
300.332
300.333
300.335
300.336
300.338
300.34
300.343
300.346
300.35
300.356
300.362
300.369
300.376
300.384
300.391
300.399
300.406
300.412
300.418
300.422
300.426
300.428
300.431
300.433
300.435
300.437
300.439
300.441
300.443
300.446
300.353
300.354
300.354
300.355
300.355
300.356
300.356
300.357
300.357
300.358
300.36
300.361
300.364
300.367
300.372
300.377
300.384
300.39
300.397
300.404
300.411
300.418
300.424
300.429
300.433
300.436
300.439
300.442
300.444
300.445
300.447
300.448
300.45
300.451
300.453
300.376
300.376
300.376
300.376
300.376
300.376
300.376
300.376
300.376
300.376
300.377
300.378
300.38
300.383
300.387
300.392
300.397
300.404
300.41
300.417
300.423
300.429
300.435
300.439
300.443
300.446
300.449
300.451
300.453
300.455
300.456
300.458
300.459
300.46
300.463
300.395
300.394
300.394
300.393
300.393
300.392
300.392
300.391
300.391
300.391
300.391
300.392
300.394
300.396
300.4
300.405
300.41
300.416
300.422
300.428
300.434
300.439
300.445
300.449
300.453
300.455
300.458
300.46
300.462
300.464
300.465
300.466
300.468
300.469
300.471
300.409
300.409
300.408
300.407
300.407
300.406
300.405
300.405
300.404
300.404
300.404
300.405
300.406
300.409
300.412
300.417
300.422
300.427
300.433
300.438
300.443
300.449
300.453
300.458
300.461
300.464
300.466
300.468
300.47
300.471
300.473
300.474
300.475
300.477
300.478
300.421
300.42
300.42
300.419
300.418
300.417
300.416
300.416
300.415
300.415
300.415
300.416
300.418
300.42
300.423
300.428
300.432
300.437
300.442
300.447
300.452
300.457
300.461
300.465
300.468
300.471
300.473
300.475
300.477
300.478
300.48
300.481
300.482
300.484
300.485
300.431
300.43
300.429
300.428
300.428
300.427
300.426
300.426
300.425
300.425
300.426
300.426
300.428
300.43
300.433
300.437
300.441
300.446
300.451
300.455
300.46
300.464
300.468
300.472
300.475
300.477
300.48
300.482
300.483
300.485
300.486
300.487
300.488
300.49
300.491
300.439
300.438
300.438
300.437
300.436
300.435
300.435
300.434
300.434
300.434
300.435
300.435
300.437
300.439
300.442
300.446
300.45
300.454
300.458
300.462
300.466
300.471
300.475
300.478
300.481
300.483
300.485
300.487
300.489
300.49
300.492
300.493
300.494
300.495
300.497
300.446
300.446
300.445
300.444
300.444
300.443
300.443
300.442
300.442
300.442
300.443
300.444
300.445
300.447
300.45
300.453
300.457
300.461
300.465
300.469
300.472
300.476
300.48
300.483
300.486
300.488
300.49
300.492
300.494
300.495
300.496
300.498
300.499
300.5
300.502
300.453
300.452
300.452
300.451
300.451
300.45
300.45
300.45
300.45
300.45
300.45
300.451
300.452
300.454
300.457
300.46
300.463
300.467
300.47
300.474
300.478
300.481
300.485
300.488
300.491
300.493
300.495
300.497
300.498
300.5
300.501
300.502
300.503
300.504
300.506
300.459
300.459
300.458
300.458
300.457
300.457
300.456
300.456
300.456
300.456
300.457
300.458
300.459
300.461
300.463
300.466
300.469
300.472
300.475
300.479
300.482
300.486
300.489
300.492
300.495
300.497
300.499
300.501
300.502
300.503
300.505
300.506
300.507
300.508
300.51
300.464
300.464
300.464
300.463
300.463
300.462
300.462
300.462
300.462
300.462
300.462
300.463
300.464
300.466
300.468
300.471
300.474
300.477
300.48
300.483
300.486
300.49
300.493
300.496
300.498
300.5
300.502
300.504
300.506
300.507
300.508
300.509
300.51
300.512
300.513
300.469
300.469
300.468
300.468
300.468
300.467
300.467
300.467
300.467
300.467
300.467
300.468
300.469
300.471
300.473
300.475
300.478
300.481
300.483
300.487
300.49
300.493
300.496
300.499
300.501
300.504
300.505
300.507
300.509
300.51
300.511
300.512
300.513
300.515
300.516
300.52
300.519
300.518
300.517
300.516
300.515
300.513
300.512
300.511
300.509
300.507
300.505
300.503
300.501
300.498
300.496
300.494
300.493
300.491
300.49
300.489
300.488
300.487
300.487
300.486
300.486
300.486
300.486
300.486
300.486
300.487
300.487
300.487
300.487
300.487
300.523
300.522
300.521
300.52
300.519
300.518
300.517
300.515
300.514
300.512
300.51
300.508
300.506
300.504
300.501
300.499
300.497
300.495
300.494
300.492
300.491
300.49
300.489
300.489
300.488
300.488
300.488
300.488
300.488
300.488
300.488
300.488
300.488
300.489
300.489
300.526
300.524
300.523
300.522
300.521
300.52
300.519
300.518
300.517
300.515
300.513
300.511
300.509
300.506
300.504
300.502
300.5
300.498
300.496
300.494
300.493
300.491
300.491
300.49
300.489
300.489
300.489
300.489
300.489
300.489
300.489
300.489
300.489
300.489
300.489
300.528
300.527
300.526
300.525