/*--------------------------------*- C++ -*----------------------------------*\
  =========                 |
  \\      /  F ield         | OpenFOAM: The Open Source CFD Toolbox
   \\    /   O peration     | Website:  https://openfoam.org
    \\  /    A nd           | Version:  8
     \\/     M anipulation  |
\*---------------------------------------------------------------------------*/
FoamFile
{
    version     2.0;
    format      ascii;
    class       volScalarField;
    location    "0.24";
    object      p;
}
// * * * * * * * * * * * * * * * * * * * * * * * * * * * * * * * * * * * * * //

dimensions      [1 -1 -2 0 0 0 0];

internalField   nonuniform List<scalar> 
15677
(
116983
116983
116988
116993
116999
117003
117001
116984
116951
116896
116813
116708
116598
116515
116457
116414
116389
116381
116378
116375
116370
116365
116358
116352
116347
116343
116339
116335
116331
116327
116323
116319
116315
116311
116311
89863.1
89802.1
89715.2
89630.5
89563.3
89514.7
89495.4
89522.1
89613.4
89776.9
89985.8
90131.2
90113.9
89928.9
89690.9
89488.5
89346.5
89258
89193.3
89127.2
89060.8
89003.6
88960.7
88928.2
88902.7
88883.9
88870.5
88860.7
88853.2
88847.3
88842.3
88837.9
88834
88829.5
88822.5
108499
108528
108536
108518
108479
108412
108325
108247
108184
108166
108193
108172
108037
107901
107960
108143
108355
108612
108887
109129
109344
109520
109647
109745
109826
109896
109954
110000
110038
110070
110096
110118
110137
110156
110171
96032.5
96044.2
96038
96010.4
95969.8
95926.2
95881.3
95837.9
95818.8
95833.1
95876.3
95894.9
95833.8
95734.1
95676.6
95734.6
95789.3
95807.4
95769.9
95684.4
95549
95389.1
95238.9
95107.6
94996.1
94907.1
94839.6
94779.5
94725.9
94679.7
94641.1
94609.9
94584.6
94562.2
94544.9
104066
104045
104025
104007
103993
103987
103994
104020
104069
104152
104270
104399
104500
104506
104466
104416
104448
104514
104568
104611
104672
104753
104846
104940
105025
105093
105157
105225
105291
105356
105418
105475
105526
105572
105613
99166.7
99146.3
99121.5
99098.6
99082.2
99070.7
99062
99061.6
99085.1
99135.8
99189.7
99225.2
99224.1
99172.8
99130.2
99102.1
99066.2
99027
98986.1
98936.8
98876.2
98816
98771.1
98736.2
98707.2
98686.3
98666
98647.1
98630
98612.5
98596.7
98583.1
98571.4
98560
98551.9
102784
102787
102786
102782
102775
102764
102749
102738
102730
102726
102725
102730
102739
102756
102772
102786
102807
102835
102870
102907
102949
102999
103039
103072
103097
103119
103138
103155
103170
103184
103197
103208
103218
103226
103230
100354
100355
100352
100347
100340
100330
100320
100308
100292
100275
100259
100245
100235
100236
100233
100224
100213
100203
100198
100191
100179
100168
100163
100160
100161
100160
100157
100155
100152
100149
100147
100145
100143
100141
100140
102133
102132
102131
102129
102128
102128
102129
102131
102136
102143
102153
102165
102187
102207
102222
102229
102232
102234
102233
102234
102233
102231
102229
102227
102225
102224
102224
102223
102223
102223
102223
102223
102223
102224
102222
100791
100791
100791
100791
100790
100789
100787
100785
100781
100777
100772
100766
100759
100754
100752
100752
100755
100761
100768
100775
100787
100798
100807
100814
100819
100822
100825
100826
100827
100828
100829
100830
100832
100832
100834
101790
101788
101787
101785
101785
101785
101786
101788
101790
101794
101798
101804
101810
101819
101824
101825
101822
101815
101808
101799
101789
101781
101776
101772
101769
101768
101767
101766
101765
101765
101764
101764
101763
101763
101761
101103
101103
101102
101101
101100
101099
101098
101096
101095
101094
101093
101092
101089
101087
101087
101092
101099
101109
101118
101127
101137
101144
101150
101153
101156
101158
101159
101159
101160
101161
101161
101162
101163
101163
101164
101612
101611
101611
101611
101610
101610
101610
101610
101609
101609
101608
101608
101607
101608
101605
101598
101591
101583
101575
101568
101562
101557
101555
101553
101552
101552
101552
101552
101552
101552
101552
101552
101552
101551
101551
101256
101255
101255
101254
101253
101252
101251
101251
101251
101252
101253
101253
101255
101257
101263
101271
101278
101285
101292
101298
101304
101308
101310
101312
101313
101313
101314
101314
101314
101314
101314
101314
101314
101315
101315
101525
101525
101525
101525
101525
101524
101524
101523
101521
101519
101517
101514
101509
101503
101496
101490
101484
101478
101473
101468
101465
101462
101461
101461
101461
101461
101461
101462
101462
101463
101463
101463
101462
101462
101462
101331
101331
101330
101329
101328
101328
101327
101328
101328
101330
101332
101335
101340
101345
101350
101355
101360
101365
101369
101372
101375
101377
101378
101379
101379
101379
101379
101379
101378
101378
101378
101379
101379
101379
101379
101478
101478
101479
101479
101478
101478
101477
101476
101474
101471
101467
101463
101458
101452
101447
101443
101439
101435
101433
101431
101429
101428
101428
101428
101428
101429
101429
101429
101430
101430
101430
101430
101430
101430
101430
101375
101374
101373
101373
101372
101372
101372
101373
101374
101376
101379
101382
101385
101388
101391
101394
101396
101398
101400
101402
101403
101403
101404
101404
101404
101404
101404
101404
101404
101404
101404
101404
101404
101404
101405
101450
101450
101450
101450
101449
101449
101448
101446
101445
101442
101440
101437
101433
101430
101427
101425
101423
101421
101420
101420
101419
101419
101419
101419
101419
101420
101420
101420
101420
101421
101421
101421
101421
101421
101421
101401
101401
101400
101400
101400
101400
101400
101400
101401
101402
101403
101405
101406
101407
101408
101410
101411
101411
101412
101412
101413
101413
101413
101414
101414
101414
101414
101414
101414
101414
101414
101414
101414
101414
101415
101434
101434
101434
101434
101434
101433
101432
101431
101430
101429
101427
101425
101424
101422
101421
101420
101419
101418
101418
101418
101418
101418
101418
101418
101418
101418
101418
101419
101419
101419
101419
101419
101419
101419
101420
101414
101414
101414
101414
101413
101413
101413
101413
101414
101414
101414
101414
101415
101415
101416
101416
101416
101416
101416
101417
101417
101417
101417
101417
101417
101417
101418
101418
101418
101418
101418
101418
101418
101418
101419
101427
101427
101427
101427
101427
101426
101426
101425
101424
101424
101423
101422
101421
101420
101419
101419
101418
101418
101418
101418
101418
101418
101418
101419
101419
101419
101419
101419
101420
101420
101420
101420
101420
101420
101420
101420
101420
101420
101419
101419
101419
101419
101419
101419
101419
101419
101419
101418
101418
101418
101418
101418
101418
101418
101418
101418
101419
101419
101419
101419
101419
101419
101420
101420
101420
101420
101420
101420
101420
101420
101425
101425
101424
101424
101424
101424
101423
101423
101422
101422
101421
101421
101420
101420
101419
101419
101419
101419
101419
101419
101419
101419
101419
101420
101420
101420
101420
101420
101421
101421
101421
101421
101421
101421
101421
101422
101422
101422
101422
101422
101421
101421
101421
101421
101421
101420
101420
101420
101420
101419
101419
101419
101419
101419
101419
101419
101420
101420
101420
101420
101420
101421
101421
101421
101421
101421
101421
101422
101422
101422
101424
101424
101424
101423
101423
101423
101423
101422
101422
101422
101421
101421
101420
101420
101420
101420
101420
101419
101420
101420
101420
101420
101420
101420
101421
101421
101421
101421
101421
101422
101422
101422
101422
101422
101422
101423
101423
101423
101423
101422
101422
101422
101422
101421
101421
101421
101421
101420
101420
101420
101420
101420
101420
101420
101420
101420
101420
101420
101421
101421
101421
101421
101422
101422
101422
101422
101422
101423
101423
101423
101424
101424
101423
101423
101423
101423
101422
101422
101422
101422
101421
101421
101421
101420
101420
101420
101420
101420
101420
101420
101420
101420
101421
101421
101421
101421
101422
101422
101422
101422
101423
101423
101423
101423
101423
101423
101423
101423
101423
101423
101423
101422
101422
101422
101421
101421
101421
101421
101420
101420
101420
101420
101420
101420
101420
101420
101421
101421
101421
101421
101422
101422
101422
101423
101423
101423
101423
101423
101423
101423
116324
116371
116428
116484
116542
116603
116668
116737
116810
116886
116966
117050
117136
117221
117304
117385
117465
117543
117618
117693
117760
117839
88820.8
88792.6
88750.1
88703.8
88652.7
88593.7
88524.4
88446.1
88365.6
88284.8
88205.5
88133.3
88065.6
88007.3
87961.3
87923.2
87887
87848.9
87810.1
87772
87735
87710
110163
110167
110181
110194
110200
110205
110220
110248
110281
110316
110358
110404
110455
110516
110583
110649
110707
110756
110798
110828
110837
110815
94557.6
94546.8
94531.5
94519.7
94512.5
94513.5
94522.5
94537.5
94552.3
94569.7
94593.9
94631
94682.5
94734.1
94782.7
94833.1
94890.7
94958.6
95033.5
95108
95182.2
95263.7
105641
105661
105681
105694
105700
105698
105687
105663
105621
105567
105506
105440
105377
105318
105262
105208
105156
105103
105050
104998
104947
104893
98564.5
98581.8
98596.8
98613.9
98632.2
98650.6
98669.6
98688.9
98708.7
98731.1
98755.5
98780.1
98803.7
98827.6
98852.3
98877.2
98902.3
98927.8
98953.5
98979.5
99006.5
99037.5
103215
103198
103183
103166
103148
103128
103106
103083
103058
103031
103003
102974
102947
102920
102894
102867
102842
102816
102792
102767
102742
102715
100153
100171
100188
100206
100224
100243
100263
100282
100302
100321
100341
100361
100378
100395
100411
100426
100440
100454
100468
100481
100494
100509
102206
102190
102176
102160
102144
102128
102110
102092
102074
102055
102036
102017
102000
101984
101969
101955
101941
101927
101914
101901
101888
101874
100845
100860
100874
100887
100901
100915
100929
100943
100957
100971
100985
100998
101010
101020
101030
101039
101047
101055
101063
101070
101077
101085
101750
101740
101730
101720
101709
101698
101687
101676
101665
101654
101643
101633
101623
101614
101606
101599
101591
101585
101578
101572
101566
101559
101172
101181
101190
101198
101206
101215
101223
101231
101239
101246
101254
101261
101267
101272
101276
101280
101284
101287
101290
101293
101296
101299
101544
101538
101533
101527
101521
101515
101509
101503
101498
101493
101488
101483
101478
101474
101470
101467
101464
101461
101458
101456
101453
101450
101319
101324
101329
101333
101338
101342
101346
101350
101353
101357
101360
101363
101365
101366
101368
101369
101370
101371
101372
101373
101374
101375
101458
101456
101453
101450
101447
101445
101442
101440
101437
101435
101433
101431
101429
101428
101427
101426
101425
101424
101423
101422
101421
101420
101381
101383
101386
101388
101390
101391
101393
101395
101396
101397
101398
101399
101400
101401
101402
101402
101402
101403
101403
101403
101404
101404
101429
101428
101427
101425
101424
101423
101422
101421
101421
101420
101419
101418
101418
101417
101417
101417
101416
101416
101415
101415
101415
101414
101406
101407
101407
101408
101409
101409
101410
101410
101411
101411
101412
101412
101412
101412
101412
101412
101412
101412
101412
101412
101412
101412
101421
101420
101420
101419
101419
101418
101418
101418
101417
101417
101417
101417
101416
101416
101416
101416
101416
101416
101416
101416
101415
101415
101415
101415
101415
101416
101416
101416
101416
101416
101416
101416
101416
101416
101416
101416
101416
101416
101416
101416
101416
101416
101416
101416
101419
101419
101419
101419
101419
101419
101418
101418
101418
101418
101418
101418
101418
101418
101418
101418
101418
101418
101417
101417
101417
101417
101419
101419
101419
101419
101419
101419
101419
101419
101419
101419
101419
101419
101419
101419
101419
101419
101418
101418
101418
101418
101418
101418
101420
101420
101420
101420
101420
101420
101420
101420
101420
101420
101420
101420
101420
101420
101420
101419
101419
101419
101419
101419
101419
101419
101421
101421
101421
101421
101421
101421
101421
101421
101421
101421
101421
101421
101420
101420
101420
101420
101420
101420
101420
101420
101420
101420
101421
101421
101421
101421
101421
101421
101421
101421
101421
101421
101421
101421
101421
101421
101421
101421
101421
101421
101421
101421
101421
101421
101422
101422
101422
101422
101422
101422
101422
101422
101422
101422
101422
101422
101422
101422
101422
101422
101422
101422
101422
101422
101421
101421
101423
101422
101423
101423
101423
101423
101423
101423
101423
101423
101423
101423
101423
101423
101422
101422
101422
101422
101422
101422
101422
101422
101423
101423
101423
101423
101423
101423
101423
101423
101423
101423
101423
101423
101423
101423
101423
101423
101423
101423
101423
101423
101423
101423
101424
101423
101423
101424
101424
101424
101424
101424
101424
101424
101424
101424
101424
101424
101424
101424
101424
101423
101423
101423
101423
101423
101424
101424
101424
101424
101424
101424
101424
101424
101424
101424
101424
101424
101424
101424
101424
101424
101424
101424
101424
101424
101424
101424
117874
117867
117868
117866
117865
117860
87700.6
87696.5
87695.2
87694.1
87693.1
87699.7
110767
110734
110690
110634
110565
110487
95340.6
95388.5
95425.3
95452.1
95470.4
95481.3
104847
104818
104791
104766
104742
104723
99063.3
99072.9
99081.5
99089.7
99096.6
99101.1
102696
102688
102680
102671
102662
102653
100519
100521
100523
100525
100527
100530
101865
101862
101859
101856
101853
101850
101088
101088
101088
101089
101090
101091
101555
101555
101554
101553
101552
101550
101300
101300
101300
101300
101301
101302
101449
101449
101449
101449
101449
101449
101375
101375
101375
101375
101376
101376
101419
101420
101420
101420
101420
101420
101404
101404
101404
101404
101404
101405
101414
101415
101415
101415
101415
101415
101412
101412
101413
101413
101413
101413
101415
101415
101416
101416
101416
101416
101416
101416
101416
101416
101416
101417
101417
101417
101418
101418
101418
101418
101418
101418
101418
101419
101419
101419
101419
101419
101419
101420
101420
101420
101420
101420
101420
101420
101420
101420
101421
101421
101421
101421
101421
101421
101421
101421
101422
101422
101422
101422
101422
101422
101422
101422
101422
101422
101423
101423
101423
101423
101423
101423
101423
101423
101423
101423
101424
101424
101424
101424
101424
101424
101424
101424
117824
117751
117673
117596
117517
117437
117356
117273
117190
117106
117021
116938
116858
116782
116711
116644
116582
116524
116469
116416
116364
116326
87717.8
87755.3
87806.3
87860.2
87917.7
87979.9
88047.5
88120.8
88199.9
88285
88375.4
88467.5
88555.8
88640.6
88721.4
88798.1
88871.1
88940.4
89006.6
89071.7
89136.7
89185.4
110434
110369
110287
110203
110117
110028
109937
109846
109756
109667
109581
109499
109426
109360
109298
109241
109189
109139
109092
109049
109008
108977
95461.6
95434.1
95413.7
95392.9
95370.6
95348.2
95326.3
95305.1
95284.7
95265.6
95247.7
95229.3
95210
95192.7
95178
95167.4
95160.3
95157.8
95166.8
95169.7
95174.5
95174
104730
104746
104757
104767
104779
104792
104806
104820
104836
104852
104868
104886
104905
104921
104935
104945
104951
104953
104951
104942
104929
104914
99089.2
99070.3
99054.9
99039.7
99023.9
99007.4
98990.1
98972.5
98954.8
98937.3
98919.8
98901.6
98882.4
98864.7
98848.9
98834.9
98822.7
98812.2
98803.5
98796.6
98791
98782.3
102657
102671
102683
102694
102706
102718
102731
102744
102759
102774
102790
102808
102827
102846
102864
102881
102897
102911
102925
102937
102947
102959
100523
100511
100501
100491
100480
100470
100459
100448
100436
100424
100410
100395
100379
100364
100348
100334
100320
100307
100295
100284
100274
100261
101852
101862
101870
101878
101886
101894
101904
101915
101927
101938
101951
101964
101979
101994
102009
102023
102037
102050
102063
102076
102088
102100
101087
101081
101076
101071
101066
101061
101056
101050
101044
101037
101029
101020
101010
101000
100990
100979
100969
100960
100950
100941
100932
100922
101551
101556
101561
101565
101570
101575
101580
101586
101593
101599
101607
101615
101623
101632
101641
101650
101659
101668
101677
101685
101693
101701
101300
101298
101296
101294
101292
101290
101288
101286
101283
101281
101277
101274
101269
101264
101258
101253
101248
101242
101237
101231
101226
101219
101449
101451
101453
101455
101458
101460
101463
101465
101468
101472
101475
101479
101484
101488
101493
101498
101503
101508
101512
101517
101522
101526
101376
101376
101375
101375
101374
101374
101374
101373
101373
101372
101371
101369
101368
101366
101364
101362
101359
101357
101354
101352
101349
101345
101420
101422
101423
101424
101425
101426
101428
101429
101430
101431
101432
101434
101435
101438
101440
101442
101445
101447
101450
101452
101454
101456
101405
101405
101405
101405
101405
101405
101406
101406
101406
101405
101405
101405
101404
101403
101403
101402
101401
101400
101399
101398
101397
101395
101415
101416
101416
101417
101418
101418
101419
101420
101420
101421
101422
101423
101424
101424
101425
101426
101427
101428
101429
101430
101431
101432
101413
101414
101414
101414
101415
101415
101415
101415
101416
101416
101416
101416
101416
101416
101416
101416
101416
101416
101415
101415
101415
101414
101416
101417
101417
101417
101418
101418
101419
101419
101419
101420
101420
101421
101421
101422
101422
101422
101423
101423
101424
101425
101425
101425
101417
101417
101417
101418
101418
101418
101419
101419
101419
101420
101420
101420
101420
101421
101421
101421
101421
101421
101421
101421
101421
101421
101418
101418
101419
101419
101419
101420
101420
101420
101421
101421
101421
101421
101422
101422
101422
101423
101423
101423
101423
101424
101424
101424
101419
101419
101420
101420
101420
101420
101421
101421
101421
101422
101422
101422
101422
101422
101423
101423
101423
101423
101423
101423
101423
101423
101420
101420
101420
101421
101421
101421
101422
101422
101422
101422
101423
101423
101423
101423
101423
101424
101424
101424
101424
101424
101424
101424
101421
101421
101421
101421
101422
101422
101422
101422
101423
101423
101423
101423
101424
101424
101424
101424
101424
101424
101424
101424
101425
101425
101421
101422
101422
101422
101422
101423
101423
101423
101423
101424
101424
101424
101424
101424
101424
101425
101425
101425
101425
101425
101425
101425
101422
101422
101423
101423
101423
101423
101423
101424
101424
101424
101424
101424
101425
101425
101425
101425
101425
101425
101425
101425
101425
101426
101423
101423
101423
101423
101424
101424
101424
101424
101424
101425
101425
101425
101425
101425
101425
101425
101426
101426
101426
101426
101426
101426
101423
101423
101424
101424
101424
101424
101425
101425
101425
101425
101425
101425
101426
101426
101426
101426
101426
101426
101426
101426
101426
101426
101424
101424
101424
101424
101425
101425
101425
101425
101425
101426
101426
101426
101426
101426
101426
101426
101426
101426
101426
101426
101426
101427
101424
101424
101425
101425
101425
101425
101426
101426
101426
101426
101426
101426
101426
101427
101427
101427
101427
101427
101427
101427
101427
101427
116324
116325
116331
116337
116343
116349
116355
116363
116372
116383
116399
116424
116457
116499
116551
116620
116699
116784
116873
116969
117079
117186
117247
117283
117312
117333
117349
117361
117371
117378
117383
117387
117389
117390
117388
89192.1
89215.1
89241.5
89269.9
89302.6
89338.9
89380
89427.7
89483.2
89548.5
89627
89723.3
89836.9
89957.5
90064.4
90128.1
90120.4
90049.5
89923.1
89717.5
89418
89013.9
88636.2
88428.2
88330.8
88329.3
88375.6
88425.4
88490
88579.3
88690.5
88815.7
88944.4
89051.9
89114.6
108961
108938
108915
108891
108863
108832
108793
108745
108685
108605
108499
108370
108218
108045
107853
107657
107465
107239
106981
106733
106508
106314
106247
106298
106453
106707
106971
107211
107409
107557
107661
107728
107767
107785
107793
95160.6
95170
95180.6
95191.5
95204.8
95221.3
95239.9
95258.3
95294.9
95356.9
95449.9
95574.7
95726.7
95895.7
96067.4
96222.3
96346.8
96438.4
96505
96554.2
96591.9
96610.9
96593.6
96572.8
96623.2
96662.2
96690.3
96704.9
96704.2
96694.3
96681.8
96667.8
96652.9
96639.1
96629.6
104894
104859
104819
104775
104727
104676
104623
104567
104499
104425
104351
104277
104200
104120
104037
103960
103891
103828
103773
103723
103672
103621
103594
103603
103585
103565
103541
103512
103478
103447
103421
103398
103377
103361
103349
98776.3
98786.2
98799.1
98812.4
98827.2
98843.2
98861.2
98882.2
98905.5
98932.8
98963.5
99007.2
99062.2
99129.3
99209.1
99298
99381.3
99443.8
99497.3
99554.5
99608.6
99654.6
99696.4
99726.9
99767.5
99827.7
99886
99926.7
99956.4
99976.3
99988.3
99994.2
99995.8
99994.9
99992.2
102971
102965
102955
102944
102932
102919
102905
102889
102868
102846
102825
102791
102754
102718
102690
102676
102673
102679
102690
102700
102706
102703
102693
102681
102672
102669
102671
102672
102671
102670
102667
102664
102660
102657
102655
100251
100253
100258
100263
100268
100274
100281
100290
100299
100309
100317
100330
100346
100366
100393
100420
100444
100467
100485
100495
100501
100508
100516
100526
100537
100551
100564
100573
100581
100588
100593
100597
100599
100600
100600
102112
102111
102109
102106
102103
102100
102097
102094
102090
102084
102078
102073
102069
102066
102057
102048
102043
102043
102048
102056
102068
102080
102091
102099
102104
102106
102104
102099
102091
102086
102083
102081
102080
102081
102082
100915
100914
100916
100917
100919
100921
100924
100927
100931
100934
100937
100940
100941
100942
100943
100946
100953
100961
100968
100973
100975
100975
100972
100969
100967
100965
100964
100963
100964
100965
100966
100967
100968
100968
100969
101710
101710
101709
101708
101707
101707
101706
101705
101703
101702
101701
101700
101701
101703
101706
101711
101716
101717
101717
101719
101723
101728
101735
101742
101747
101750
101753
101754
101755
101756
101756
101756
101755
101755
101755
101215
101214
101215
101215
101216
101218
101219
101221
101222
101224
101225
101226
101227
101226
101224
101221
101217
101214
101213
101214
101215
101215
101214
101212
101210
101208
101208
101207
101208
101209
101210
101211
101212
101213
101213
101531
101531
101531
101530
101530
101530
101530
101530
101529
101528
101528
101528
101528
101530
101533
101538
101543
101549
101555
101560
101562
101565
101569
101574
101577
101581
101583
101585
101587
101587
101588
101588
101588
101588
101588
101343
101343
101343
101344
101344
101345
101346
101346
101348
101349
101350
101351
101351
101351
101350
101348
101345
101342
101339
101335
101332
101330
101329
101329
101328
101327
101326
101326
101326
101326
101327
101328
101329
101330
101330
101459
101459
101459
101459
101459
101459
101459
101459
101459
101458
101458
101458
101458
101459
101461
101463
101467
101470
101475
101479
101484
101489
101493
101497
101500
101502
101504
101506
101507
101508
101509
101509
101509
101509
101509
101395
101394
101394
101395
101395
101395
101396
101396
101397
101398
101399
101399
101400
101400
101400
101399
101398
101396
101394
101392
101390
101388
101386
101384
101383
101382
101381
101381
101381
101381
101381
101382
101383
101383
101383
101433
101433
101434
101434
101434
101434
101434
101434
101434
101433
101433
101433
101434
101434
101435
101436
101438
101440
101442
101445
101448
101451
101455
101458
101461
101464
101466
101467
101469
101469
101470
101470
101470
101470
101470
101414
101413
101413
101414
101414
101414
101414
101415
101415
101416
101416
101417
101417
101417
101417
101417
101417
101417
101416
101415
101414
101413
101412
101411
101410
101409
101408
101408
101408
101408
101408
101408
101408
101409
101409
101426
101426
101426
101426
101426
101426
101426
101426
101426
101426
101426
101426
101426
101427
101427
101428
101429
101430
101431
101432
101434
101436
101438
101440
101442
101444
101446
101447
101448
101449
101449
101450
101450
101450
101450
101421
101421
101421
101421
101421
101421
101421
101421
101422
101422
101422
101422
101422
101423
101423
101423
101423
101423
101423
101423
101423
101423
101422
101422
101422
101422
101422
101421
101421
101421
101422
101422
101422
101422
101422
101424
101424
101424
101424
101424
101424
101424
101425
101425
101425
101425
101425
101425
101425
101425
101426
101426
101427
101427
101428
101429
101430
101431
101433
101434
101435
101436
101437
101437
101438
101438
101439
101439
101439
101439
101423
101423
101423
101423
101423
101424
101424
101424
101424
101424
101424
101424
101424
101424
101425
101425
101425
101425
101426
101426
101426
101426
101426
101426
101426
101426
101427
101427
101427
101427
101427
101428
101428
101428
101428
101425
101425
101425
101425
101425
101425
101425
101425
101425
101425
101425
101425
101425
101425
101425
101425
101426
101426
101426
101427
101427
101428
101429
101430
101430
101431
101432
101432
101433
101433
101434
101434
101434
101434
101434
101425
101425
101425
101425
101425
101425
101425
101425
101425
101425
101425
101425
101425
101425
101425
101425
101425
101426
101426
101426
101427
101427
101427
101427
101428
101428
101428
101428
101429
101429
101429
101429
101430
101430
101430
101425
101425
101425
101425
101425
101425
101425
101425
101425
101425
101425
101425
101425
101425
101425
101425
101425
101426
101426
101426
101427
101427
101428
101428
101429
101429
101430
101430
101430
101431
101431
101431
101432
101432
101432
101425
101425
101425
101425
101425
101425
101425
101425
101425
101425
101425
101425
101425
101425
101425
101425
101425
101426
101426
101426
101426
101427
101427
101427
101428
101428
101428
101429
101429
101429
101429
101430
101430
101430
101430
101426
101426
101426
101426
101426
101425
101425
101425
101425
101425
101425
101425
101425
101425
101425
101425
101425
101425
101426
101426
101426
101426
101427
101427
101428
101428
101428
101429
101429
101429
101430
101430
101430
101430
101430
101426
101426
101426
101426
101426
101426
101426
101425
101425
101425
101425
101425
101425
101425
101425
101425
101425
101425
101425
101426
101426
101426
101426
101427
101427
101428
101428
101428
101428
101429
101429
101429
101429
101430
101430
101426
101426
101426
101426
101426
101426
101426
101426
101425
101425
101425
101425
101425
101425
101425
101425
101425
101425
101425
101425
101425
101426
101426
101427
101427
101427
101428
101428
101428
101429
101429
101429
101429
101429
101429
101426
101426
101426
101426
101426
101426
101426
101426
101425
101425
101425
101425
101425
101425
101425
101425
101425
101425
101425
101425
101425
101425
101426
101426
101427
101427
101427
101428
101428
101428
101428
101429
101429
101429
101429
101424
101423
101423
101423
101423
101423
101422
101422
101422
101421
101421
101421
101421
101420
101420
101420
101420
101420
101420
101420
101420
101421
101421
101421
101422
101422
101422
101422
101423
101423
101423
101423
101424
101424
101424
101423
101423
101423
101423
101423
101423
101422
101422
101422
101421
101421
101421
101421
101420
101420
101420
101420
101420
101420
101420
101420
101421
101421
101421
101422
101422
101422
101423
101423
101423
101424
101424
101424
101424
101424
101423
101423
101423
101423
101423
101422
101422
101422
101422
101421
101421
101421
101420
101420
101420
101420
101420
101420
101420
101420
101420
101421
101421
101421
101422
101422
101422
101423
101423
101423
101424
101424
101424
101424
101424
101423
101423
101423
101423
101423
101422
101422
101422
101422
101421
101421
101421
101420
101420
101420
101420
101420
101420
101420
101420
101420
101421
101421
101421
101422
101422
101422
101423
101423
101424
101424
101424
101424
101425
101424
101423
101423
101423
101423
101422
101422
101422
101422
101421
101421
101421
101420
101420
101420
101420
101420
101420
101420
101420
101420
101420
101420
101421
101421
101421
101422
101422
101423
101423
101424
101424
101424
101425
101425
101424
101423
101423
101423
101423
101422
101422
101422
101422
101421
101421
101421
101420
101420
101420
101420
101419
101419
101419
101419
101420
101420
101420
101420
101421
101421
101422
101422
101423
101423
101423
101424
101424
101425
101425
101425
101423
101423
101423
101422
101422
101422
101422
101421
101421
101421
101420
101420
101420
101420
101419
101419
101419
101419
101419
101419
101420
101420
101420
101421
101421
101421
101422
101422
101423
101423
101424
101424
101425
101425
101424
101423
101423
101422
101422
101422
101422
101422
101421
101421
101421
101420
101420
101420
101419
101419
101419
101419
101419
101419
101419
101419
101420
101420
101420
101421
101421
101422
101422
101422
101423
101423
101424
101424
101425
101424
101423
101422
101422
101422
101422
101422
101421
101421
101421
101420
101420
101420
101420
101419
101419
101419
101419
101419
101419
101419
101419
101419
101419
101420
101420
101421
101421
101422
101422
101423
101423
101424
101424
101424
101424
101422
101422
101422
101422
101422
101421
101421
101421
101421
101420
101420
101420
101419
101419
101419
101419
101419
101419
101418
101418
101419
101419
101419
101419
101420
101420
101421
101421
101422
101422
101423
101423
101424
101424
101424
101422
101422
101422
101422
101422
101421
101421
101421
101420
101420
101420
101420
101419
101419
101419
101419
101418
101418
101418
101418
101418
101418
101418
101419
101419
101419
101420
101420
101421
101422
101422
101423
101423
101424
101424
101422
101422
101422
101422
101421
101421
101421
101421
101420
101420
101420
101419
101419
101419
101419
101418
101418
101418
101418
101418
101418
101418
101418
101418
101418
101419
101419
101420
101420
101421
101421
101422
101423
101423
101423
101422
101422
101422
101421
101421
101421
101421
101420
101420
101420
101420
101419
101419
101419
101418
101418
101418
101418
101418
101418
101417
101417
101418
101418
101418
101418
101418
101419
101419
101420
101421
101421
101422
101423
101423
101422
101422
101421
101421
101421
101421
101421
101420
101420
101420
101419
101419
101419
101418
101418
101418
101418
101418
101417
101417
101417
101417
101417
101417
101417
101417
101418
101418
101419
101419
101420
101420
101421
101422
101422
101421
101421
101421
101421
101421
101421
101420
101420
101420
101420
101419
101419
101419
101418
101418
101418
101418
101417
101417
101417
101417
101417
101416
101416
101416
101417
101417
101417
101417
101418
101419
101419
101420
101421
101421
101421
101421
101421
101421
101421
101421
101420
101420
101420
101419
101419
101419
101419
101418
101418
101418
101417
101417
101417