/*--------------------------------*- C++ -*----------------------------------*\
  =========                 |
  \\      /  F ield         | OpenFOAM: The Open Source CFD Toolbox
   \\    /   O peration     | Website:  https://openfoam.org
    \\  /    A nd           | Version:  8
     \\/     M anipulation  |
\*---------------------------------------------------------------------------*/
FoamFile
{
    version     2.0;
    format      ascii;
    class       volScalarField;
    location    "0.24";
    object      T;
}
// * * * * * * * * * * * * * * * * * * * * * * * * * * * * * * * * * * * * * //

dimensions      [0 0 0 1 0 0 0];

internalField   nonuniform List<scalar> 
15677
(
298.136
298.154
298.176
298.205
298.241
298.283
298.329
298.377
298.424
298.477
298.524
298.536
298.502
298.381
298.248
298.135
298.045
297.964
297.895
297.851
297.844
297.862
297.91
297.978
298.066
298.144
298.213
298.272
298.319
298.355
298.379
298.394
298.401
298.403
298.402
298.675
298.585
298.52
298.485
298.48
298.524
298.643
298.886
299.273
299.74
300.073
300.182
300.063
299.777
299.411
299.071
298.805
298.625
298.521
298.474
298.461
298.47
298.497
298.536
298.582
298.621
298.652
298.678
298.699
298.717
298.733
298.749
298.763
298.777
298.788
301.135
300.853
300.62
300.396
300.162
299.911
299.639
299.375
299.155
298.996
298.861
298.669
298.525
298.488
298.546
298.649
298.787
298.971
299.178
299.36
299.502
299.603
299.668
299.708
299.726
299.73
299.722
299.707
299.687
299.666
299.646
299.628
299.613
299.602
299.594
301.361
301.229
301.067
300.903
300.726
300.53
300.3
300.026
299.724
299.486
299.491
299.648
299.809
299.804
299.861
300.034
300.226
300.327
300.338
300.288
300.196
300.083
299.973
299.882
299.818
299.776
299.752
299.739
299.735
299.737
299.744
299.755
299.768
299.783
299.8
299.936
299.93
299.933
299.941
299.956
299.981
300.022
300.087
300.187
300.326
300.461
300.529
300.48
300.331
300.183
300.1
300.053
300.024
299.998
299.977
299.965
299.964
299.974
299.992
300.018
300.051
300.093
300.139
300.187
300.232
300.274
300.312
300.345
300.373
300.397
300.239
300.235
300.24
300.251
300.267
300.288
300.314
300.344
300.383
300.429
300.48
300.524
300.551
300.563
300.576
300.579
300.572
300.55
300.507
300.455
300.402
300.358
300.329
300.313
300.307
300.308
300.311
300.314
300.318
300.323
300.328
300.334
300.339
300.344
300.349
300.904
300.878
300.852
300.824
300.792
300.757
300.72
300.685
300.657
300.638
300.623
300.611
300.607
300.613
300.615
300.596
300.568
300.539
300.512
300.489
300.468
300.451
300.439
300.434
300.435
300.439
300.446
300.455
300.465
300.473
300.48
300.486
300.492
300.498
300.503
300.946
300.94
300.93
300.921
300.911
300.902
300.894
300.884
300.873
300.861
300.848
300.834
300.824
300.819
300.809
300.78
300.741
300.699
300.661
300.629
300.603
300.583
300.568
300.557
300.548
300.542
300.537
300.533
300.531
300.529
300.528
300.528
300.527
300.527
300.528
300.693
300.695
300.698
300.701
300.704
300.707
300.709
300.712
300.715
300.717
300.719
300.721
300.721
300.721
300.717
300.707
300.693
300.676
300.659
300.642
300.627
300.614
300.604
300.598
300.593
300.591
300.589
300.588
300.588
300.588
300.589
300.589
300.589
300.59
300.59
300.853
300.841
300.832
300.824
300.816
300.809
300.802
300.796
300.79
300.785
300.78
300.775
300.77
300.763
300.754
300.744
300.733
300.72
300.707
300.694
300.681
300.67
300.66
300.653
300.647
300.642
300.638
300.634
300.632
300.63
300.628
300.627
300.626
300.625
300.624
300.731
300.732
300.734
300.736
300.738
300.74
300.742
300.743
300.745
300.745
300.745
300.744
300.742
300.739
300.734
300.729
300.723
300.716
300.709
300.701
300.694
300.687
300.681
300.676
300.673
300.67
300.667
300.666
300.664
300.663
300.662
300.661
300.66
300.66
300.659
300.835
300.828
300.823
300.818
300.814
300.809
300.805
300.801
300.797
300.793
300.788
300.783
300.778
300.772
300.765
300.758
300.75
300.743
300.735
300.728
300.721
300.715
300.709
300.705
300.701
300.697
300.695
300.692
300.69
300.689
300.687
300.686
300.685
300.684
300.683
300.799
300.798
300.797
300.797
300.796
300.795
300.794
300.793
300.792
300.789
300.787
300.783
300.779
300.774
300.769
300.764
300.758
300.752
300.746
300.741
300.735
300.73
300.726
300.722
300.719
300.716
300.714
300.712
300.711
300.709
300.708
300.707
300.706
300.705
300.705
300.847
300.844
300.841
300.839
300.836
300.833
300.83
300.827
300.823
300.819
300.815
300.809
300.804
300.797
300.79
300.784
300.777
300.771
300.765
300.759
300.753
300.748
300.743
300.74
300.736
300.734
300.732
300.73
300.728
300.727
300.725
300.724
300.723
300.722
300.722
300.845
300.842
300.841
300.839
300.837
300.835
300.833
300.831
300.828
300.825
300.821
300.817
300.812
300.806
300.8
300.794
300.789
300.783
300.777
300.772
300.766
300.761
300.757
300.754
300.751
300.748
300.746
300.744
300.743
300.742
300.74
300.739
300.739
300.738
300.737
300.869
300.866
300.864
300.862
300.86
300.857
300.854
300.851
300.848
300.844
300.84
300.835
300.829
300.822
300.816
300.809
300.803
300.797
300.791
300.786
300.78
300.775
300.771
300.768
300.765
300.762
300.76
300.758
300.757
300.755
300.754
300.753
300.752
300.751
300.751
300.875
300.872
300.87
300.868
300.867
300.865
300.862
300.86
300.857
300.853
300.85
300.845
300.84
300.834
300.828
300.821
300.815
300.81
300.804
300.798
300.793
300.788
300.784
300.781
300.778
300.775
300.773
300.771
300.77
300.768
300.767
300.766
300.765
300.764
300.764
300.888
300.886
300.884
300.882
300.881
300.878
300.876
300.873
300.87
300.867
300.863
300.858
300.853
300.847
300.84
300.834
300.828
300.822
300.816
300.811
300.805
300.801
300.797
300.793
300.79
300.788
300.786
300.784
300.782
300.781
300.78
300.779
300.778
300.777
300.776
300.9
300.897
300.895
300.893
300.891
300.889
300.886
300.884
300.881
300.877
300.874
300.869
300.864
300.858
300.852
300.846
300.84
300.834
300.828
300.823
300.818
300.813
300.809
300.805
300.802
300.8
300.798
300.796
300.794
300.793
300.792
300.791
300.79
300.789
300.788
300.908
300.906
300.905
300.903
300.901
300.899
300.897
300.895
300.892
300.888
300.884
300.88
300.875
300.869
300.863
300.857
300.851
300.846
300.84
300.835
300.829
300.825
300.821
300.817
300.814
300.812
300.81
300.808
300.807
300.805
300.804
300.803
300.802
300.801
300.801
300.92
300.917
300.915
300.913
300.911
300.909
300.907
300.904
300.901
300.898
300.894
300.89
300.885
300.88
300.874
300.868
300.862
300.857
300.851
300.846
300.841
300.836
300.832
300.829
300.826
300.824
300.822
300.82
300.818
300.817
300.816
300.815
300.814
300.813
300.813
300.927
300.925
300.923
300.922
300.92
300.918
300.916
300.914
300.911
300.908
300.904
300.9
300.895
300.889
300.884
300.878
300.873
300.867
300.862
300.857
300.852
300.847
300.843
300.84
300.837
300.835
300.833
300.831
300.83
300.829
300.828
300.827
300.826
300.825
300.824
300.937
300.934
300.933
300.931
300.929
300.927
300.925
300.922
300.92
300.917
300.913
300.909
300.904
300.899
300.893
300.888
300.882
300.877
300.872
300.867
300.862
300.858
300.854
300.851
300.848
300.846
300.844
300.843
300.841
300.84
300.839
300.838
300.837
300.836
300.836
300.944
300.942
300.94
300.938
300.937
300.935
300.933
300.93
300.928
300.925
300.921
300.917
300.913
300.908
300.902
300.897
300.892
300.887
300.882
300.877
300.872
300.868
300.864
300.861
300.859
300.857
300.855
300.853
300.852
300.851
300.85
300.849
300.848
300.847
300.846
300.952
300.95
300.948
300.946
300.944
300.943
300.941
300.938
300.936
300.933
300.929
300.926
300.921
300.916
300.911
300.906
300.901
300.896
300.891
300.886
300.882
300.878
300.874
300.871
300.869
300.867
300.865
300.863
300.862
300.861
300.86
300.859
300.858
300.857
300.857
300.958
300.956
300.955
300.953
300.951
300.95
300.948
300.945
300.943
300.94
300.937
300.933
300.929
300.924
300.919
300.914
300.909
300.904
300.899
300.895
300.891
300.887
300.883
300.881
300.878
300.876
300.874
300.873
300.872
300.871
300.87
300.869
300.868
300.867
300.867
300.965
300.963
300.961
300.96
300.958
300.956
300.954
300.952
300.95
300.947
300.944
300.94
300.936
300.931
300.926
300.921
300.917
300.912
300.908
300.903
300.899
300.895
300.892
300.889
300.887
300.885
300.883
300.882
300.881
300.88
300.879
300.878
300.877
300.876
300.876
300.971
300.969
300.967
300.966
300.964
300.962
300.961
300.958
300.956
300.953
300.95
300.947
300.943
300.938
300.933
300.929
300.924
300.92
300.915
300.911
300.907
300.903
300.9
300.897
300.895
300.893
300.892
300.89
300.889
300.888
300.887
300.886
300.886
300.885
300.884
300.977
300.975
300.973
300.972
300.97
300.968
300.966
300.964
300.962
300.959
300.956
300.953
300.949
300.945
300.94
300.935
300.931
300.927
300.922
300.918
300.914
300.911
300.908
300.905
300.903
300.901
300.9
300.898
300.897
300.896
300.895
300.894
300.894
300.893
300.892
300.982
300.98
300.978
300.977
300.975
300.974
300.972
300.97
300.968
300.965
300.962
300.959
300.955
300.951
300.946
300.942
300.938
300.933
300.929
300.925
300.921
300.918
300.915
300.912
300.91
300.908
300.907
300.905
300.904
300.903
300.902
300.902
300.901
300.9
300.9
298.401
298.397
298.39
298.381
298.368
298.353
298.335
298.312
298.285
298.255
298.221
298.182
298.14
298.096
298.053
298.012
297.976
297.948
297.93
297.924
297.928
297.939
298.799
298.808
298.813
298.816
298.813
298.802
298.783
298.752
298.718
298.684
298.648
298.61
298.571
298.533
298.499
298.47
298.449
298.437
298.432
298.43
298.427
298.415
299.586
299.581
299.584
299.597
299.621
299.656
299.701
299.755
299.817
299.884
299.957
300.034
300.113
300.189
300.262
300.331
300.393
300.45
300.498
300.537
300.565
300.582
299.82
299.845
299.873
299.902
299.931
299.957
299.977
299.99
299.995
299.993
299.986
299.975
299.96
299.944
299.928
299.914
299.9
299.888
299.877
299.865
299.854
299.844
300.421
300.447
300.472
300.494
300.515
300.534
300.551
300.565
300.576
300.583
300.585
300.583
300.58
300.578
300.576
300.577
300.578
300.581
300.585
300.588
300.59
300.59
300.354
300.36
300.367
300.374
300.381
300.39
300.398
300.407
300.415
300.423
300.43
300.435
300.439
300.442
300.443
300.444
300.444
300.443
300.441
300.44
300.438
300.435
300.508
300.513
300.52
300.527
300.534
300.541
300.549
300.556
300.564
300.571
300.578
300.585
300.592
300.597
300.602
300.607
300.61
300.614
300.616
300.619
300.62
300.621
300.527
300.527
300.526
300.527
300.528
300.53
300.532
300.535
300.538
300.542
300.546
300.55
300.554
300.558
300.562
300.566
300.57
300.573
300.575
300.578
300.58
300.582
300.589
300.588
300.587
300.586
300.586
300.587
300.588
300.589
300.591
300.594
300.597
300.6
300.604
300.608
300.612
300.616
300.62
300.623
300.627
300.63
300.633
300.636
300.622
300.619
300.616
300.614
300.612
300.61
300.609
300.608
300.607
300.607
300.608
300.609
300.61
300.612
300.615
300.617
300.619
300.622
300.624
300.627
300.629
300.632
300.658
300.655
300.653
300.65
300.648
300.646
300.644
300.643
300.641
300.64
300.64
300.639
300.639
300.64
300.641
300.642
300.643
300.645
300.647
300.649
300.65
300.652
300.682
300.679
300.676
300.673
300.671
300.668
300.666
300.663
300.661
300.659
300.658
300.656
300.655
300.655
300.654
300.654
300.655
300.655
300.656
300.657
300.658
300.659
300.703
300.7
300.698
300.695
300.693
300.69
300.688
300.685
300.683
300.681
300.679
300.677
300.676
300.674
300.673
300.673
300.672
300.672
300.672
300.672
300.672
300.672
300.72
300.717
300.715
300.712
300.71
300.707
300.704
300.702
300.699
300.697
300.694
300.692
300.69
300.689
300.687
300.686
300.685
300.684
300.683
300.682
300.682
300.682
300.735
300.733
300.73
300.728
300.725
300.723
300.72
300.717
300.715
300.712
300.71
300.707
300.705
300.703
300.701
300.699
300.698
300.697
300.695
300.694
300.693
300.693
300.749
300.746
300.744
300.741
300.739
300.736
300.733
300.731
300.728
300.725
300.723
300.72
300.718
300.715
300.713
300.711
300.71
300.708
300.706
300.705
300.704
300.703
300.762
300.759
300.757
300.754
300.751
300.749
300.746
300.743
300.74
300.738
300.735
300.732
300.73
300.727
300.725
300.723
300.721
300.719
300.717
300.716
300.714
300.713
300.774
300.772
300.769
300.766
300.763
300.761
300.758
300.755
300.752
300.749
300.747
300.744
300.741
300.738
300.736
300.734
300.732
300.73
300.728
300.726
300.724
300.723
300.787
300.784
300.781
300.778
300.775
300.772
300.77
300.767
300.764
300.761
300.758
300.755
300.752
300.749
300.747
300.744
300.742
300.74
300.738
300.736
300.734
300.733
300.799
300.796
300.793
300.79
300.787
300.784
300.781
300.778
300.775
300.772
300.769
300.766
300.763
300.76
300.757
300.755
300.752
300.75
300.748
300.746
300.744
300.742
300.811
300.808
300.805
300.802
300.798
300.795
300.792
300.789
300.786
300.783
300.779
300.776
300.773
300.77
300.768
300.765
300.762
300.76
300.758
300.756
300.754
300.752
300.822
300.819
300.816
300.813
300.81
300.807
300.803
300.8
300.797
300.793
300.79
300.787
300.784
300.78
300.778
300.775
300.772
300.77
300.768
300.765
300.763
300.761
300.834
300.831
300.827
300.824
300.821
300.817
300.814
300.811
300.807
300.804
300.8
300.797
300.794
300.791
300.788
300.785
300.782
300.78
300.777
300.775
300.773
300.77
300.845
300.841
300.838
300.835
300.831
300.828
300.825
300.821
300.818
300.814
300.811
300.807
300.804
300.8
300.797
300.794
300.792
300.789
300.786
300.784
300.782
300.779
300.855
300.852
300.848
300.845
300.842
300.838
300.835
300.831
300.828
300.824
300.82
300.817
300.813
300.81
300.807
300.804
300.801
300.798
300.795
300.793
300.791
300.788
300.865
300.862
300.858
300.855
300.851
300.848
300.844
300.841
300.837
300.834
300.83
300.826
300.823
300.819
300.816
300.813
300.81
300.807
300.804
300.802
300.799
300.797
300.874
300.871
300.867
300.864
300.861
300.857
300.854
300.85
300.846
300.843
300.839
300.835
300.831
300.828
300.825
300.821
300.818
300.816
300.813
300.81
300.808
300.805
300.883
300.879
300.876
300.873
300.869
300.866
300.862
300.859
300.855
300.851
300.848
300.844
300.84
300.836
300.833
300.83
300.827
300.824
300.821
300.818
300.816
300.813
300.891
300.887
300.884
300.881
300.877
300.874
300.87
300.867
300.863
300.859
300.856
300.852
300.848
300.845
300.841
300.838
300.835
300.832
300.829
300.826
300.823
300.821
300.898
300.895
300.892
300.888
300.885
300.882
300.878
300.874
300.871
300.867
300.863
300.859
300.856
300.852
300.849
300.845
300.842
300.839
300.836
300.833
300.831
300.828
297.948
297.944
297.928
297.907
297.889
297.881
298.393
298.353
298.298
298.244
298.205
298.189
300.594
300.597
300.588
300.569
300.541
300.507
299.833
299.823
299.814
299.808
299.802
299.799
300.593
300.595
300.595
300.591
300.585
300.576
300.433
300.43
300.427
300.424
300.421
300.417
300.624
300.626
300.628
300.629
300.629
300.628
300.583
300.585
300.587
300.589
300.591
300.592
300.64
300.644
300.648
300.651
300.654
300.656
300.634
300.638
300.641
300.644
300.647
300.65
300.655
300.659
300.662
300.665
300.668
300.67
300.661
300.663
300.665
300.668
300.67
300.672
300.673
300.675
300.677
300.678
300.68
300.681
300.682
300.683
300.684
300.685
300.686
300.686
300.692
300.693
300.693
300.694
300.694
300.695
300.702
300.702
300.702
300.702
300.703
300.703
300.712
300.712
300.712
300.712
300.712
300.712
300.722
300.722
300.721
300.721
300.721
300.721
300.732
300.731
300.731
300.731
300.731
300.731
300.741
300.741
300.741
300.741
300.74
300.74
300.751
300.75
300.75
300.75
300.75
300.75
300.76
300.76
300.76
300.76
300.76
300.76
300.769
300.769
300.769
300.769
300.769
300.769
300.778
300.778
300.778
300.778
300.778
300.778
300.787
300.787
300.787
300.787
300.787
300.787
300.796
300.795
300.795
300.795
300.795
300.796
300.804
300.804
300.804
300.804
300.804
300.804
300.812
300.812
300.812
300.812
300.812
300.812
300.819
300.819
300.819
300.819
300.819
300.819
300.827
300.827
300.827
300.827
300.827
300.827
297.883
297.893
297.914
297.946
297.987
298.038
298.096
298.161
298.23
298.304
298.38
298.456
298.531
298.598
298.659
298.713
298.761
298.803
298.838
298.866
298.887
298.9
298.196
298.219
298.252
298.293
298.338
298.385
298.433
298.48
298.524
298.564
298.6
298.63
298.653
298.668
298.677
298.682
298.684
298.684
298.683
298.682
298.681
298.68
300.477
300.454
300.429
300.401
300.371
300.336
300.297
300.252
300.201
300.143
300.08
300.012
299.941
299.871
299.802
299.735
299.671
299.611
299.556
299.507
299.464
299.426
299.799
299.801
299.804
299.807
299.811
299.814
299.816
299.817
299.816
299.812
299.805
299.796
299.784
299.771
299.758
299.744
299.73
299.718
299.707
299.697
299.69
299.682
300.568
300.563
300.556
300.548
300.538
300.528
300.516
300.502
300.489
300.474
300.46
300.445
300.432
300.419
300.407
300.396
300.386
300.374
300.36
300.342
300.321
300.298
300.415
300.412
300.41
300.407
300.404
300.4
300.396
300.392
300.388
300.384
300.38
300.377
300.375
300.373
300.372
300.371
300.372
300.372
300.373
300.374
300.376
300.379
300.628
300.628
300.628
300.628
300.627
300.626
300.625
300.623
300.621
300.619
300.617
300.615
300.613
300.611
300.61
300.608
300.607
300.606
300.606
300.605
300.605
300.606
300.594
300.596
300.597
300.598
300.599
300.6
300.601
300.601
300.601
300.602
300.602
300.603
300.603
300.604
300.605
300.606
300.607
300.608
300.609
300.611
300.612
300.613
300.659
300.662
300.664
300.667
300.669
300.671
300.673
300.674
300.676
300.677
300.678
300.679
300.68
300.68
300.681
300.681
300.681
300.682
300.682
300.682
300.682
300.682
300.653
300.656
300.658
300.661
300.663
300.665
300.667
300.669
300.67
300.671
300.672
300.673
300.674
300.674
300.675
300.675
300.675
300.675
300.675
300.675
300.675
300.675
300.673
300.675
300.678
300.68
300.682
300.684
300.686
300.688
300.689
300.69
300.691
300.692
300.693
300.694
300.694
300.694
300.694
300.695
300.695
300.695
300.695
300.695
300.674
300.676
300.678
300.68
300.682
300.683
300.685
300.686
300.687
300.688
300.689
300.69
300.69
300.691
300.691
300.692
300.692
300.692
300.693
300.693
300.693
300.694
300.683
300.684
300.686
300.687
300.689
300.69
300.691
300.692
300.693
300.694
300.695
300.696
300.697
300.698
300.699
300.699
300.7
300.701
300.702
300.703
300.704
300.705
300.688
300.689
300.69
300.692
300.693
300.694
300.695
300.696
300.697
300.698
300.699
300.701
300.702
300.703
300.704
300.705
300.707
300.708
300.71
300.711
300.713
300.714
300.696
300.697
300.698
300.699
300.7
300.702
300.703
300.704
300.705
300.707
300.708
300.71
300.712
300.713
300.715
300.717
300.719
300.721
300.723
300.725
300.727
300.729
300.704
300.705
300.706
300.707
300.709
300.71
300.711
300.713
300.714
300.716
300.718
300.72
300.722
300.724
300.726
300.728
300.731
300.733
300.735
300.738
300.74
300.743
300.712
300.714
300.715
300.716
300.718
300.719
300.721
300.723
300.724
300.726
300.729
300.731
300.733
300.736
300.738
300.741
300.744
300.746
300.749
300.752
300.755
300.758
300.722
300.723
300.725
300.726
300.728
300.729
300.731
300.733
300.735
300.738
300.74
300.743
300.745
300.748
300.751
300.754
300.757
300.76
300.763
300.766
300.769
300.772
300.732
300.733
300.735
300.736
300.738
300.74
300.742
300.744
300.747
300.749
300.752
300.755
300.758
300.761
300.764
300.767
300.77
300.773
300.776
300.779
300.782
300.785
300.741
300.743
300.745
300.747
300.748
300.751
300.753
300.755
300.758
300.76
300.763
300.766
300.77
300.773
300.776
300.779
300.783
300.786
300.789
300.792
300.796
300.799
300.751
300.753
300.755
300.757
300.759
300.761
300.764
300.766
300.769
300.772
300.775
300.778
300.781
300.785
300.788
300.792
300.795
300.798
300.802
300.805
300.808
300.811
300.761
300.763
300.765
300.767
300.769
300.771
300.774
300.777
300.78
300.783
300.786
300.789
300.793
300.796
300.8
300.803
300.807
300.81
300.814
300.817
300.82
300.823
300.77
300.772
300.774
300.777
300.779
300.782
300.784
300.787
300.79
300.793
300.797
300.8
300.804
300.808
300.811
300.815
300.818
300.822
300.825
300.828
300.832
300.835
300.779
300.781
300.784
300.786
300.789
300.791
300.794
300.797
300.8
300.804
300.807
300.811
300.815
300.818
300.822
300.825
300.829
300.833
300.836
300.839
300.843
300.846
300.788
300.79
300.793
300.795
300.798
300.801
300.804
300.807
300.81
300.814
300.817
300.821
300.825
300.828
300.832
300.836
300.839
300.843
300.846
300.85
300.853
300.856
300.797
300.799
300.802
300.804
300.807
300.81
300.813
300.816
300.82
300.823
300.827
300.83
300.834
300.838
300.842
300.845
300.849
300.853
300.856
300.859
300.863
300.866
300.805
300.808
300.81
300.813
300.816
300.819
300.822
300.825
300.829
300.832
300.836
300.84
300.843
300.847
300.851
300.855
300.858
300.862
300.865
300.868
300.872
300.875
300.813
300.816
300.818
300.821
300.824
300.827
300.83
300.834
300.837
300.841
300.844
300.848
300.852
300.856
300.86
300.863
300.867
300.87
300.874
300.877
300.88
300.883
300.821
300.824
300.826
300.829
300.832
300.835
300.838
300.842
300.845
300.849
300.852
300.856
300.86
300.864
300.868
300.871
300.875
300.878
300.882
300.885
300.888
300.891
300.828
300.831
300.834
300.837
300.84
300.843
300.846
300.849
300.853
300.856
300.86
300.864
300.868
300.871
300.875
300.879
300.882
300.885
300.889
300.892
300.895
300.898
298.907
298.91
298.911
298.907
298.897
298.881
298.857
298.826
298.792
298.754
298.727
298.718
298.73
298.76
298.802
298.845
298.877
298.889
298.867
298.808
298.699
298.528
298.332
298.13
297.921
297.703
297.48
297.262
297.06
296.883
296.738
296.627
296.547
296.5
296.514
298.679
298.678
298.681
298.69
298.709
298.741
298.788
298.851
298.932
299.033
299.159
299.313
299.493
299.686
299.869
300.017
300.122
300.173
300.143
300.044
299.797
299.269
298.499
297.878
297.493
297.265
297.101
296.963
296.842
296.739
296.655
296.597
296.577
296.593
296.605
299.398
299.374
299.35
299.324
299.297
299.269
299.237
299.201
299.159
299.116
299.074
299.033
298.986
298.928
298.854
298.759
298.658
298.579
298.557
298.603
298.721
298.897
299.119
299.365
299.645
299.872
300.015
300.095
300.134
300.154
300.168
300.181
300.193
300.213
300.267
299.674
299.665
299.655
299.646
299.641
299.643
299.658
299.689
299.742
299.813
299.898
299.991
300.083
300.164
300.225
300.26
300.274
300.276
300.257
300.211
300.128
299.996
299.838
299.702
299.61
299.567
299.545
299.529
299.513
299.498
299.483
299.471
299.466
299.472
299.549
300.276
300.255
300.23
300.202
300.172
300.14
300.108
300.08
300.056
300.037
300.021
300.007
299.995
299.983
299.97
299.954
299.936
299.915
299.898
299.893
299.904
299.971
300.072
300.181
300.313
300.468
300.605
300.722
300.819
300.9
300.967
301.023
301.068
301.103
301.129
300.38
300.38
300.38
300.381
300.382
300.384
300.387
300.39
300.394
300.399
300.407
300.418
300.431
300.449
300.469
300.489
300.509
300.531
300.557
300.586
300.607
300.61
300.589
300.57
300.581
300.626
300.68
300.735
300.791
300.842
300.887
300.927
300.961
300.994
301.037
300.604
300.601
300.597
300.592
300.586
300.579
300.57
300.561
300.552
300.544
300.538
300.535
300.534
300.536
300.541
300.549
300.558
300.568
300.58
300.592
300.604
300.615
300.628
300.645
300.666
300.695
300.732
300.778
300.832
300.89
300.943
300.989
301.025
301.045
301.039
300.614
300.614
300.613
300.613
300.613
300.612
300.612
300.612
300.612
300.611
300.612
300.612
300.613
300.616
300.62
300.626
300.634
300.644
300.655
300.666
300.679
300.693
300.706
300.72
300.733
300.745
300.757
300.767
300.783
300.803
300.827
300.85
300.87
300.887
300.898
300.682
300.682
300.681
300.68
300.679
300.677
300.675
300.673
300.67
300.667
300.664
300.662
300.66
300.66
300.663
300.667
300.674
300.682
300.691
300.701
300.711
300.721
300.73
300.738
300.743
300.746
300.748
300.748
300.748
300.747
300.746
300.745
300.744
300.743
300.742
300.675
300.675
300.674
300.674
300.674
300.673
300.673
300.672
300.672
300.672
300.671
300.672
300.672
300.674
300.677
300.681
300.687
300.694
300.701
300.71
300.719
300.729
300.738
300.745
300.752
300.758
300.762
300.766
300.77
300.773
300.776
300.779
300.781
300.784
300.787
300.695
300.695
300.695
300.695
300.694
300.694
300.694
300.693
300.693
300.693
300.694
300.694
300.696
300.698
300.701
300.706
300.712
300.72
300.728
300.737
300.746
300.756
300.765
300.772
300.779
300.784
300.788
300.791
300.794
300.795
300.797
300.798
300.798
300.798
300.798
300.694
300.694
300.694
300.694
300.695
300.695
300.695
300.696
300.697
300.698
300.699
300.701
300.703
300.707
300.712
300.717
300.724
300.731
300.739
300.747
300.755
300.764
300.773
300.78
300.786
300.791
300.795
300.799
300.802
300.805
300.807
300.809
300.812
300.814
300.817
300.706
300.707
300.707
300.707
300.708
300.709
300.71
300.711
300.712
300.714
300.716
300.718
300.722
300.726
300.731
300.737
300.744
300.752
300.76
300.769
300.778
300.787
300.796
300.803
300.809
300.815
300.82
300.824
300.827
300.831
300.833
300.836
300.838
300.841
300.844
300.715
300.716
300.717
300.717
300.718
300.719
300.72
300.722
300.723
300.725
300.728
300.731
300.735
300.739
300.745
300.751
300.758
300.766
300.774
300.782
300.789
300.798
300.805
300.812
300.818
300.822
300.826
300.83
300.833
300.835
300.837
300.839
300.841
300.842
300.845
300.731
300.731
300.732
300.733
300.734
300.735
300.736
300.738
300.74
300.742
300.745
300.748
300.752
300.757
300.762
300.769
300.776
300.783
300.791
300.799
300.807
300.815
300.823
300.83
300.836
300.841
300.845
300.849
300.853
300.856
300.859
300.861
300.864
300.866
300.87
300.744
300.745
300.746
300.747
300.748
300.749
300.751
300.752
300.754
300.756
300.759
300.763
300.767
300.771
300.777
300.784
300.79
300.797
300.805
300.812
300.819
300.827
300.834
300.84
300.845
300.85
300.853
300.857
300.859
300.862
300.864
300.866
300.867
300.869
300.871
300.759
300.76
300.761
300.762
300.763
300.764
300.766
300.768
300.77
300.772
300.775
300.778
300.782
300.787
300.792
300.799
300.805
300.812
300.819
300.826
300.833
300.84
300.847
300.854
300.859
300.863
300.867
300.871
300.874
300.876
300.879
300.881
300.883
300.886
300.889
300.773
300.774
300.775
300.776
300.777
300.779
300.78
300.782
300.784
300.786
300.789
300.792
300.796
300.801
300.806
300.812
300.818
300.825
300.832
300.838
300.845
300.852
300.858
300.864
300.869
300.873
300.876
300.879
300.882
300.884
300.887
300.888
300.89
300.892
300.894
300.787
300.788
300.789
300.79
300.791
300.793
300.794
300.796
300.798
300.8
300.803
300.806
300.81
300.814
300.82
300.825
300.831
300.838
300.844
300.85
300.857
300.863
300.87
300.875
300.88
300.884
300.887
300.89
300.893
300.895
300.898
300.9
300.902
300.903
300.906
300.801
300.801
300.802
300.803
300.804
300.806
300.807
300.809
300.811
300.813
300.816
300.819
300.823
300.827
300.832
300.837
300.843
300.849
300.855
300.861
300.867
300.874
300.88
300.885
300.889
300.893
300.896
300.899
300.902
300.904
300.906
300.907
300.909
300.911
300.913
300.813
300.814
300.815
300.816
300.817
300.818
300.82
300.821
300.823
300.825
300.828
300.831
300.835
300.839
300.844
300.849
300.854
300.86
300.866
300.872
300.878
300.884
300.889
300.894
300.899
300.902
300.906
300.908
300.911
300.913
300.915
300.917
300.918
300.92
300.923
300.825
300.826
300.827
300.828
300.829
300.83
300.832
300.833
300.835
300.837
300.84
300.842
300.846
300.85
300.855
300.86
300.865
300.87
300.876
300.881
300.887
300.893
300.898
300.903
300.907
300.911
300.914
300.917
300.919
300.921
300.923
300.924
300.926
300.928
300.93
300.837
300.838
300.839
300.839
300.84
300.842
300.843
300.844
300.846
300.848
300.851
300.853
300.857
300.86
300.865
300.87
300.875
300.88
300.885
300.891
300.896
300.902
300.907
300.912
300.916
300.919
300.922
300.925
300.927
300.929
300.931
300.932
300.934
300.936
300.938
300.848
300.849
300.849
300.85
300.851
300.852
300.854
300.855
300.857
300.859
300.861
300.863
300.867
300.87
300.875
300.879
300.884
300.889
300.894
300.899
300.905
300.91
300.915
300.92
300.923
300.927
300.93
300.932
300.934
300.936
300.938
300.94
300.941
300.943
300.945
300.858
300.859
300.86
300.86
300.861
300.862
300.864
300.865
300.866
300.868
300.871
300.873
300.876
300.88
300.884
300.888
300.893
300.898
300.903
300.908
300.913
300.918
300.923
300.927
300.931
300.934
300.937
300.939
300.941
300.943
300.945
300.947
300.948
300.95
300.952
300.868
300.868
300.869
300.87
300.871
300.872
300.873
300.874
300.876
300.878
300.88
300.882
300.885
300.888
300.892
300.897
300.901
300.906
300.91
300.915
300.92
300.925
300.93
300.934
300.938
300.941
300.943
300.946
300.948
300.95
300.952
300.953
300.955
300.956
300.958
300.877
300.877
300.878
300.879
300.88
300.881
300.882
300.883
300.884
300.886
300.888
300.891
300.893
300.897
300.9
300.905
300.909
300.913
300.918
300.922
300.927
300.932
300.937
300.941
300.944
300.947
300.95
300.952
300.954
300.956
300.958
300.959
300.961
300.962
300.964
300.885
300.886
300.886
300.887
300.888
300.889
300.89
300.891
300.893
300.894
300.896
300.898
300.901
300.904
300.908
300.912
300.916
300.92
300.925
300.929
300.934
300.939
300.943
300.947
300.95
300.953
300.956
300.958
300.96
300.962
300.964
300.965
300.966
300.968
300.97
300.893
300.894
300.894
300.895
300.896
300.897
300.898
300.899
300.9
300.902
300.904
300.906
300.908
300.912
300.915
300.919
300.923
300.927
300.931
300.936
300.94
300.945
300.949
300.953
300.956
300.959
300.962
300.964
300.966
300.967
300.969
300.97
300.972
300.973
300.975
300.9
300.901
300.901
300.902
300.903
300.904
300.905
300.906
300.907
300.909
300.911
300.913
300.915
300.918
300.922
300.926
300.93
300.934
300.938
300.942
300.946
300.951
300.955
300.958
300.962
300.964
300.967
300.969
300.971
300.973
300.974
300.976
300.977
300.978
300.98
300.988
300.985
300.984
300.982
300.981
300.979
300.978
300.976
300.974
300.971
300.968
300.965
300.961
300.957
300.953
300.949
300.944
300.94
300.936
300.932
300.929
300.925
300.922
300.92
300.918
300.916
300.914
300.913
300.912
300.911
300.91
300.909
300.909
300.908
300.907
300.993
300.991
300.99
300.988
300.987
300.985
300.984
300.982
300.98
300.977
300.975
300.971
300.968
300.964
300.96
300.956
300.952
300.948
300.944
300.94
300.936
300.933
300.93
300.928
300.926
300.924
300.922
300.921
300.92
300.919
300.918
300.917
300.916
300.916
300.915
300.998
300.996
300.995
300.994
300.992
300.991
300.989
300.987
300.985
300.983
300.98
300.977
300.974
300.97
300.966
300.962
300.959
300.955
300.951
300.947
300.944
300.94
300.938
300.935
300.933
300.931
300.929
300.928
300.927
300.926
300.925
300.924
300.923
300.923
300.922
301.003
301.001
301
300.998
300.997
300.996
300.994
300.992
300.991
300.988