/*--------------------------------*- C++ -*----------------------------------*\
  =========                 |
  \\      /  F ield         | OpenFOAM: The Open Source CFD Toolbox
   \\    /   O peration     | Website:  https://openfoam.org
    \\  /    A nd           | Version:  8
     \\/     M anipulation  |
\*---------------------------------------------------------------------------*/
FoamFile
{
    version     2.0;
    format      ascii;
    class       volScalarField;
    location    "0.36";
    object      k;
}
// * * * * * * * * * * * * * * * * * * * * * * * * * * * * * * * * * * * * * //

dimensions      [0 2 -2 0 0 0 0];

internalField   nonuniform List<scalar> 
15677
(
56.2461
28.2212
41.7783
52.66
60.2187
65.8914
71.4294
78.6342
88.8208
102.415
117.308
128.52
136.392
142.11
139.278
131.479
115.747
98.4772
81.3036
65.3009
51.403
40.6268
33.7377
29.2645
25.7665
22.9691
20.6113
18.503
16.5068
14.6096
12.8602
11.3374
10.0695
9.0146
8.10528
192.799
309.36
373.639
413.303
440.968
461.928
480.02
498.843
521.09
539.333
521.202
448.886
359.704
300.445
276.017
266.375
250.97
223.176
188.49
154.019
127.005
108.923
96.6839
88.0116
81.4863
76.2872
71.9347
68.151
64.7781
61.7269
58.9492
56.413
54.1356
52.1187
50.3794
163.511
311.385
408.698
492.561
576.324
659.59
739.626
810.219
855.238
845.57
754.552
598.565
433.435
297.482
219.739
186.253
170.788
163.256
158.113
155.012
153.721
150.624
147.974
145.783
144.827
144.622
144.632
144.337
143.381
141.62
139.186
137.03
135.436
134.439
133.973
113.249
209.412
281.119
336.621
383.974
424.552
456.961
477.527
480.114
463.846
425.638
379.533
333.757
294.64
257.533
223.321
199.909
182.925
177.675
167.762
144.169
117.334
98.1208
89.5365
88.972
91.6101
97.7976
106.845
116.347
125.692
134.434
142.398
150.248
158.201
166.526
53.7261
114.004
154.6
187.351
217.226
246.097
274.552
300.573
312.731
308.001
287.239
251.072
205.661
167.808
145.525
133.994
126.042
116.545
104.048
89.5252
77.8652
71.1647
70.8092
74.9416
85.3789
100.576
120.833
145.628
173.141
201.436
229.095
255.278
279.536
301.667
321.639
11.5653
21.0414
32.0716
41.103
48.8463
55.3365
60.3478
63.0894
62.4586
59.8406
56.592
53.3327
49.9295
46.9703
45.2747
44.8812
45.2815
46.82
50.0254
53.4271
56.237
58.0707
60.658
65.402
73.7798
85.3607
99.4219
114.933
131.196
147.535
163.247
177.819
190.939
202.476
212.432
7.11636
8.1464
10.5616
12.7123
14.8006
16.9204
19.0908
21.2852
23.4676
25.6292
27.7795
29.9553
32.2102
34.6357
37.127
39.6904
42.6693
45.9187
48.945
52.0676
56.0062
61.259
67.9911
75.8248
85.2783
97.0487
111.209
126.369
141.187
154.616
166.163
175.881
184.046
191.008
196.893
5.32359
10.5173
14.0776
16.8381
19.2374
21.4361
23.5147
25.5585
27.6342
29.7891
32.0585
34.4698
37.0461
39.8399
42.6539
45.4462
48.3515
51.5092
55.128
59.5243
65.0163
71.2742
77.4
83.1499
88.9175
94.8877
100.998
107.213
113.423
119.466
125.178
130.456
135.292
139.717
143.766
9.31366
13.6174
17.4001
20.3357
22.8854
25.2505
27.5351
29.8024
32.0992
34.4664
36.9449
39.5769
42.4088
45.4937
48.57
51.507
54.4851
57.6538
61.2425
65.4895
70.5638
76.4966
82.9202
89.5829
96.098
101.922
106.957
111.297
115.14
118.582
121.718
124.579
127.187
129.569
131.836
7.36816
14.6968
18.8268
21.951
24.6568
27.1681
29.6023
32.0365
34.5312
37.1411
39.9207
42.9296
46.2241
49.8417
53.4434
56.8885
60.3578
63.9423
67.7473
71.9334
76.4898
81.0208
85
88.245
91.1459
94.1444
97.1487
100.03
102.705
105.13
107.311
109.298
111.135
112.863
114.501
9.67497
15.7996
20.1026
23.3652
26.1838
28.805
31.3611
33.9435
36.6208
39.452
42.488
45.7749
49.3418
53.138
56.8359
60.2625
63.5733
66.8258
70.0858
73.4586
77.0737
80.9075
84.7649
88.3678
91.5224
94.2178
96.5895
98.7053
100.61
102.335
103.903
105.328
106.623
107.809
108.95
8.90917
16.5757
21.0588
24.4415
27.3733
30.1093
32.7833
35.4858
38.2946
41.2816
44.5052
47.9981
51.7633
55.8525
59.8707
63.5681
67.0443
70.2948
73.3246
76.1326
78.7104
80.9675
82.8716
84.5347
86.132
87.6952
89.1928
90.6031
91.9197
93.144
94.2808
95.3372
96.321
97.2399
98.103
9.77709
16.8609
21.4243
24.8737
27.876
30.6972
33.4655
36.2742
39.1937
42.2824
45.5967
49.1885
53.1097
57.3815
61.5656
65.3768
68.8889
72.0628
74.8748
77.3274
79.4587
81.264
82.7842
84.0911
85.2267
86.2426
87.1821
88.0677
88.9091
89.7076
90.4627
91.169
91.8249
92.4306
92.9881
9.34158
17.0189
21.6095
25.0759
28.0939
30.9343
33.7428
36.6178
39.636
42.8599
46.3307
50.1161
54.2745
58.8468
63.3696
67.5102
71.3231
74.7388
77.6901
80.1253
82.0201
83.3288
84.145
84.6488
85.0035
85.301
85.5825
85.8654
86.1554
86.4524
86.7545
87.0566
87.3542
87.6437
87.9229
9.56989
17.0025
21.6238
25.1119
28.1492
31.011
33.843
36.7428
39.7877
43.0448
46.5776
50.4537
54.7382
59.4817
64.2084
68.5694
72.6159
76.2622
79.4245
82.0306
84.0386
85.3765
86.1395
86.5041
86.6233
86.6216
86.572
86.5182
86.4781
86.455
86.4439
86.4443
86.4547
86.4727
86.496
9.29553
16.9732
21.5599
25.0241
28.0546
30.9247
33.7798
36.7156
39.8024
43.0898
46.6536
50.5712
54.9205
59.7717
64.665
69.2501
73.5988
77.6179
81.1882
84.1917
86.541
88.115
88.9586
89.2665
89.2621
89.0569
88.7434
88.3857
88.0263
87.6908
87.3938
87.1338
86.9051
86.7011
86.515
9.26768
16.8095
21.3891
24.8472
27.8717
30.7322
33.5693
36.471
39.5144
42.7729
46.3195
50.2323
54.5951
59.4916
64.4779
69.2039
73.7385
77.9944
81.8691
85.2491
88.0052
89.9605
91.139
91.6905
91.8173
91.6661
91.3358
90.9059
90.4309
89.9455
89.4704
89.0194
88.5999
88.2145
87.8624
9.07548
16.7606
21.3102
24.7422
27.7378
30.5608
33.3522
36.2063
39.1992
42.4007
45.8833
49.728
54.0259
58.8765
63.8645
68.6518
73.3212
77.7899
81.9484
85.6697
88.8275
91.1959
92.7331
93.5922
93.928
93.9296
93.6895
93.2979
92.819
92.2963
91.7602
91.2317
90.7228
90.2394
89.7843
8.97942
16.6147
21.1315
24.5334
27.499
30.2913
33.0462
35.8533
38.7855
41.91
45.2966
49.0253
53.1896
57.8977
62.768
67.488
72.1546
76.6997
81.0235
85.0013
88.4949
91.2431
93.1606
94.3766
95.0303
95.2588
95.208
94.9528
94.5657
94.0997
93.5922
93.0693
92.5483
92.0405
91.5533
8.85209
16.5652
21.0711
24.4518
27.3875
30.1394
32.8442
35.5891
38.4407
41.4621
44.7199
48.2908
52.2669
56.7607
61.4253
65.979
70.5315
75.0331
79.4
83.5184
87.2539
90.3222
92.5686
94.0923
95.0353
95.5303
95.6931
95.6292
95.3978
95.0541
94.639
94.1837
93.7103
93.2341
92.7663
8.78924
16.5449
21.0491
24.4211
27.3403
30.0635
32.72
35.3949
38.159
41.0689
44.1835
47.5729
51.324
55.5466
59.9286
64.2242
68.5541
72.8885
77.1627
81.2806
85.1197
88.3946
90.9251
92.7664
94.0187
94.788
95.1799
95.2984
95.2282
95.0233
94.7321
94.3869
94.0096
93.6162
93.2193
8.74689
16.6039
21.1169
24.481
27.3815
30.0755
32.692
35.3096
37.9846
40.7778
43.7431
46.9396
50.4461
54.3654
58.4174
62.3932
66.4218
70.4921
74.5598
78.5475
82.3494
85.6873
88.3603
90.4026
91.9
92.9416
93.6118
93.9876
94.1332
94.1199
93.9862
93.7703
93.501
93.199
92.8803
8.73477
16.6964
21.2321
24.6005
27.4928
30.1656
32.7458
35.3098
37.913
40.5979
43.4163
46.422
49.6803
53.2832
56.9789
60.5963
64.2697
68.0056
71.7791
75.5332
79.1807
82.4618
85.1668
87.3079
88.9476
90.1591
91.0167
91.5905
91.9436
92.1243
92.1756
92.132
92.0178
91.8536
91.6555
8.74202
16.8426
21.4117
24.791
27.6806
30.3381
32.8884
35.4051
37.9387
40.5301
43.2131
46.0373
49.0557
52.3464
55.6815
58.9257
62.2167
65.5765
68.9979
72.4436
75.8466
78.9723
81.6133
83.7647
85.4705
86.7874
87.7757
88.4941
88.9957
89.3263
89.5247
89.6203
89.6408
89.6056
89.5316
8.76826
17.0136
21.6244
25.0223
27.9171
30.5676
33.0975
35.5775
38.0536
40.5605
43.129
45.7854
48.5825
51.5775
54.5633
57.4379
60.3407
63.307
66.3457
69.4377
72.5353
75.4337
77.9358
80.0247
81.7287
83.0897
84.155
84.9725
85.5865
86.0366
86.3566
86.5747
86.7139
86.7924
86.8247
8.80613
17.2117
21.8703
25.2914
28.1964
30.8457
33.3623
35.8143
38.244
40.6802
43.1461
45.6638
48.2569
50.9813
53.6408
56.1635
58.6892
61.2648
63.913
66.631
69.3895
72.0151
74.3266
76.299
77.9474
79.3003
80.3906
81.2651
81.9571
82.4976
82.914
83.2308
83.4685
83.6437
83.7694
8.8522
17.4217
22.1323
25.5808
28.5007
31.1547
33.6651
36.0982
38.4926
40.8719
43.252
45.6456
48.0674
50.5502
52.9132
55.1111
57.2829
59.485
61.7522
64.0964
66.5046
68.835
70.9259
72.7482
74.3083
75.6229
76.7105
77.6093
78.3451
78.9439
79.4289
79.8207
80.1365
80.3908
80.595
8.90204
17.6398
22.4042
25.8825
28.8204
31.4832
33.9931
36.4146
38.7833
41.1184
43.4291
45.7196
47.9951
50.2663
52.3678
54.2736
56.1222
57.978
59.8862
61.8714
63.9356
65.9666
67.8239
69.4758
70.9206
72.1671
73.2306
74.1318
74.8916
75.5303
76.0666
76.5172
76.8964
77.2164
77.4874
8.95256
17.8569
22.6759
26.1855
29.1438
31.8189
34.3329
36.7492
39.1007
41.4028
43.6588
45.8652
48.0161
50.112
51.9849
53.6334
55.1935
56.7359
58.315
59.9662
61.7048
63.4467
65.0725
66.5501
67.872
69.0395
70.0612
70.9493
71.7181
72.3825
72.9567
73.4534
73.8841
74.2588
74.5861
8.99804
18.0663
22.94
26.482
29.4624
32.1521
34.6739
37.0899
39.4311
41.7096
43.924
46.0635
48.1131
50.061
51.7396
53.1668
54.4743
55.7391
57.023
58.3711
59.8106
61.2829
62.6893
63.9986
65.1984
66.2844
67.2582
68.1256
68.8954
69.5769
70.1802
70.7146
71.1886
71.61
71.9862
7.00845
5.80411
4.73331
3.84262
3.15073
2.66021
2.33276
2.11635
2.04807
2.2014
2.71714
3.62615
4.87034
6.12978
7.04363
7.43842
7.32922
6.81368
5.96874
4.9871
4.56151
5.92664
48.1466
45.4687
43.0243
40.9049
39.2286
38.157
37.929
38.4505
40.3428
43.8648
49.8527
60.7879
81.5115
106.559
129.645
149.459
165.859
179.025
184.783
181.951
174.689
162.845
133.604
133.932
135.657
139.638
146.925
158.998
177.87
205.426
241.754
281.548
315.236
338.487
352.912
367.225
389.778
431.949
499.056
595.743
707.982
813.665
887.324
915.302
176.813
188.52
198.799
206.64
212.092
213.989
214.351
216.173
221.172
231.606
250.061
278.882
317.34
360.188
399.51
431.833
458.665
477.948
489.411
496.455
503.601
508.44
345.952
375.265
399.545
416.59
423.618
419.896
405.979
385.107
361.907
340.685
324.762
317.123
317.596
324.978
334.032
339.56
340.032
338.347
336.563
335.032
334.347
334.436
224.872
240.109
254.388
267.258
278.441
287.274
293.131
295.755
295.89
293.377
287.804
281.08
274.478
268.063
264.189
261.923
260.445
259.38
258.798
258.68
259.067
259.868
204.381
213.869
223.223
232.307
240.937
248.752
255.235
259.8
261.907
261.319
257.951
252.259
245.277
238.265
232.371
228.178
225.482
223.969
223.36
223.39
223.91
224.766
149.441
157.178
165.251
173.587
181.95
190.043
197.473
203.688
208.475
211.675
213.156
213.124
211.841
209.886
207.716
205.737
204.188
203.13
202.615
202.562
202.887
203.483
135.185
139.884
144.923
150.278
155.885
161.627
167.343
172.826
177.857
182.218
185.715
188.231
189.674
190.143
189.889
189.159
188.288
187.593
187.202
187.14
187.371
187.85
116.91
120.36
124.113
128.146
132.431
136.926
141.564
146.251
150.87
155.292
159.372
162.944
165.86
167.94
169.324
170.164
170.635
170.911
171.131
171.392
171.745
172.222
110.727
113.246
115.927
118.779
121.804
124.991
128.32
131.756
135.251
138.745
142.154
145.353
148.153
150.45
152.248
153.592
154.566
155.278
155.842
156.35
156.852
157.392
99.4739
101.521
103.729
106.09
108.599
111.246
114.019
116.9
119.864
122.875
125.886
128.817
131.526
133.921
135.987
137.725
139.16
140.33
141.289
142.09
142.788
143.43
93.8643
95.23
96.7375
98.3919
100.192
102.132
104.205
106.4
108.703
111.091
113.537
115.987
118.335
120.501
122.464
124.212
125.747
127.077
128.225
129.219
130.088
130.865
88.4199
89.2656
90.2487
91.377
92.6527
94.0747
95.6386
97.3365
99.1568
101.084
103.097
105.155
107.175
109.089
110.879
112.533
114.044
115.413
116.645
117.754
118.756
119.667
86.5671
86.803
87.1732
87.6882
88.3539
89.1731
90.1449
91.2655
92.5274
93.9198
95.4283
97.0237
98.6386
100.216
101.737
103.187
104.558
105.844
107.044
108.162
109.208
110.182
86.2583
85.9984
85.8566
85.8378
85.9616
86.2386
86.6734
87.2674
88.0181
88.919
89.9602
91.1206
92.348
93.5927
94.8345
96.0575
97.2504
98.4054
99.5183
100.589
101.619
102.604
87.3524
86.7105
86.1611
85.7131
85.3732
85.1692
85.1118
85.2101
85.4741
85.9043
86.4976
87.2416
88.0985
89.0244
89.9962
90.9954
92.0078
93.0229
94.0335
95.0354
96.0277
97.0012
89.1099
88.1946
87.3216
86.5233
85.8299
85.2566
84.8064
84.4969
84.3564
84.3745
84.5702
84.9414
85.4666
86.1083
86.8407
87.6424
88.496
89.3881
90.3082
91.2492
92.2064
93.1684
90.8381
89.8358
88.8257
87.8349
86.8936
86.0332
85.2805
84.6624
84.1927
83.8879
83.7663
83.8156
84.0474
84.4364
84.9567
85.5844
86.2998
87.0862
87.9299
88.8204
89.7499
90.7045
92.0983
91.1374
90.1131
89.0544
87.992
86.962
86.0018
85.1468
84.4339
83.8958
83.5261
83.3492
83.3421
83.5141
83.8521
84.3294
84.9244
85.6183
86.3949
87.2405
88.1442
89.0906
92.6825
91.8906
90.9839
89.987
88.9277
87.8399
86.7622
85.7358
84.8009
84.0003
83.3793
82.971
82.8027
82.8146
83.0102
83.3681
83.865
84.481
85.1984
86.002
86.878
87.8109
92.5014
91.9406
91.2402
90.4137
89.4795
88.4624
87.3969
86.3238
85.2875
84.3338
83.5143
82.8786
82.4671
82.2874
82.2926
82.5002
82.8786
83.3965
84.0361
84.7792
85.6095
86.5106
91.5007
91.2573
90.8313
90.2373
89.4959
88.636
87.6819
86.6661
85.6279
84.6153
83.6797
82.8789
82.2747
81.8944
81.736
81.7587
81.9635
82.3308
82.8379
83.4746
84.2221
85.0562
89.6123
89.7325
89.6693
89.4123
88.9632
88.3351
87.5577
86.6663
85.7044
84.7125
83.7388
82.8444
82.0983
81.5433
81.1936
81.0492
81.0769
81.2772
81.6345
82.1309
82.7487
83.4726
87.1028
87.5504
87.8178
87.8983
87.7895
87.4847
86.9898
86.3219
85.5141
84.6129
83.669
82.7424
81.908
81.2225
80.7082
80.379
80.2387
80.2603
80.444
80.776
81.2402
81.8253
84.224
84.944
85.5096
85.9023
86.1009
86.1097
85.92
85.5379
84.9747
84.2575
83.4268
82.5411
81.6854
80.924
80.2908
79.8083
79.4895
79.343
79.3468
79.5006
79.7925
80.2165
81.1889
82.1247
82.9344
83.5951
84.0857
84.3859
84.4873
84.3899
84.0929
83.609
82.9642
82.2032
81.4011
80.6293
79.9322
79.3428
78.8834
78.5679
78.405
78.3822
78.4954
78.7459
78.1832
79.2785
80.2759
81.1527
81.8848
82.4496
82.8267
82.9989
82.971
82.7389
82.3146
81.7277
81.0389
80.3181
79.6148
78.9698
78.4141
77.9698
77.651
77.4651
77.4089
77.4846
75.3523
76.5539
77.6857
78.7263
79.6498
80.4312
81.0467
81.4749
81.6955
81.7118
81.5204
81.1352
80.6004
79.9784
79.3201
78.6697
78.0643
77.5327
77.096
76.7676
76.5545
76.4687
72.7989
74.0626
75.2825
76.4389
77.5058
78.4572
79.2666
79.9093
80.3625
80.6057
80.6397
80.4636
80.1036
79.6121
79.0373
78.4239
77.8117
77.2339
76.7173
76.281
75.9377
75.7094
11.0231
13.8871
6.94011
3.34866
4.01784
8.82708
150.526
138.324
121.871
96.6458
64.7175
44.6078
898.744
822.814
694.38
536.557
385.035
278.378
505.316
484.636
445.202
395.476
353.741
334.639
333.445
328.65
320.701
313.52
309.899
310.537
260.185
259.805
259.565
259.623
260.035
260.611
225.392
225.697
226.109
226.559
226.989
227.334
203.888
204.073
204.331
204.58
204.811
205.054
188.117
188.181
188.354
188.567
188.78
189.007
172.342
172.233
172.279
172.417
172.611
172.879
157.465
157.203
157.051
157.035
157.144
157.405
143.514
143.19
142.919
142.758
142.728
142.833
131.056
130.798
130.558
130.39
130.325
130.384
120.016
119.911
119.826
119.793
119.844
120.004
110.68
110.772
110.903
111.093
111.374
111.763
103.236
103.549
103.932
104.396
104.97
105.666
97.75
98.2978
98.9469
99.7024
100.588
101.604
94.0247
94.7978
95.6953
96.7145
97.8701
99.1542
91.6484
92.5972
93.677
94.8772
96.2026
97.6374
90.0836
91.1218
92.2818
93.5468
94.9135
96.3611
88.8069
89.8396
90.9744
92.1917
93.4824
94.8253
87.4618
88.4087
89.434
90.5196
91.6528
92.8154
85.9138
86.7136
87.5703
88.4697
89.3973
90.3402
84.1913
84.8028
85.4554
86.1401
86.8406
87.5491
82.3776
82.7852
83.2239
83.6901
84.1677
84.6374
80.5869
80.7913
81.0205
81.276
81.5418
81.807
78.9307
78.9446
78.9799
79.0425
79.1166
79.2068
77.4923
77.3366
77.2003
77.0934
77.0009
76.9356
76.3188
76.0168
75.7337
75.4821
75.2479
75.0473
75.4161
74.998
74.5965
74.2264
73.8746
73.5605
13.6014
15.5443
14.65
12.0731
7.19302
3.50292
2.13113
1.70276
1.49446
1.29211
1.14176
1.17714
1.2567
1.43238
1.79249
2.44028
3.45789
4.9339
6.90983
9.37853
12.292
15.6035
42.4059
42.2503
40.946
40.409
40.6367
42.0009
44.1241
46.4302
48.4865
50.2295
51.8141
53.4713
54.9399
54.2606
52.7192
52.1898
52.9348
54.7556
57.1172
59.9442
63.1855
66.7595
260.295
296.02
365.016
440.063
510.993
572.172
619.529
647.729
650.205
623.252
565.247
487.433
413.203
366.449
341.203
331.303
323.45
308.533
283.791
251.174
217.948
191.255
338.533
355.126
379.242
402.293
418.292
423.69
419.64
404.982
379.749
347.126
308.865
271.266
239.507
213.472
191.44
172.963
158.252
147.522
139.663
133.297
127.349
122.23
313.563
316.521
317.604
314.437
309.434
303.204
296.237
289.221
282.851
277.935
275.444
275.29
278.092
280.933
279.489
273.003
261.764
246.203
227.217
206.207
184.457
163.684
260.043
257.976
255.323
252.182
248.823
245.481
242.385
239.735
237.621
235.851
233.957
231.675
226.633
218.988
209.719
199.523
188.873
178.249
167.971
158.208
148.995
140.308
227.16
226.422
225.737
225.16
224.719
224.379
223.999
223.273
221.826
219.324
215.442
210.034
203.418
196.241
189.011
182.12
175.806
170.23
165.596
161.944
159.001
156.067
204.898
204.297
203.676
203.022
202.292
201.412
200.271
198.746
196.705
194.029
190.638
186.511
181.897
177.07
172.256
167.697
163.494
159.68
156.236
152.999
149.855
146.781
188.847
188.318
187.804
187.29
186.741
186.107
185.321
184.312
183.03
181.409
179.404
177.013
174.293
171.413
168.454
165.514
162.637
159.834
157.097
154.406
151.759
149.164
172.699
172.125
171.563
171.024
170.491
169.936
169.325
168.621
167.762
166.694
165.377
163.795
161.977
160.022
157.935
155.652
153.138
150.489
147.771
145.051
142.373
139.761
157.231
156.674
156.163
155.711
155.305
154.925
154.542
154.125
153.641
153.062
152.362
151.523
150.543
149.44
148.208
146.852
145.386
143.836
142.226
140.575
138.897
137.198
142.532
141.867
141.276
140.769
140.343
139.989
139.695
139.446
139.224
139.008
138.776
138.504
138.174
137.778
137.305
136.747
136.098
135.355
134.511
133.562
132.499
131.347
130.061
129.422
128.899
128.503
128.242
128.123
128.146
128.305
128.611
129.038
129.56
130.142
130.722
131.247
131.679
131.991
132.16
132.174
132.036
131.734
131.282
130.693
119.822
119.375
119.08
118.96
119.025
119.29
119.777
120.472
121.362
122.422
123.608
124.859
126.074
127.166
128.09
128.813
129.314
129.585
129.629
129.462
129.089
128.532
111.866
111.772
111.872
112.19
112.748
113.548
114.587
115.849
117.301
118.894
120.561
122.212
123.715
124.977
125.953
126.623
126.976
127.019
126.773
126.248
125.473
124.478
106.154
106.51
107.093
107.909
108.961
110.239
111.718
113.358
115.101
116.873
118.589
120.141
121.401
122.298
122.815
122.953
122.731
122.172
121.311
120.187
118.841
117.316
102.496
103.285
104.292
105.501
106.894
108.439
110.09
111.785
113.452
115.006
116.359
117.411
118.067
118.303
118.133
117.587
116.704
115.529
114.111
112.499
110.739
108.873
100.346
101.432
102.682
104.059
105.529
107.042
108.541
109.956
111.215
112.239
112.952
113.281
113.191
112.696
111.837
110.664
109.23
107.587
105.798
103.894
101.921
99.9144
98.9655
100.136
101.391
102.68
103.959
105.176
106.272
107.185
107.853
108.208
108.219
107.834
107.059
105.948
104.557
102.942
101.159
99.2595
97.288
95.2838
93.2806
91.3032
97.6508
98.6983
99.7484
100.748
101.654
102.417
102.99
103.315
103.368
103.101
102.485
101.507
100.209
98.6676
96.9418
95.0861
93.1502
91.1773
89.2041
87.2607
85.3717
83.5511
95.9416
96.7208
97.4366
98.042
98.4995
98.7631
98.8131
98.6106
98.1286
97.3473
96.2568
94.8675
93.244
91.4725
89.6063
87.6929
85.7727
83.8794
82.0397
80.2748
78.6005
77.0214
93.6824
94.1268
94.4636
94.6488
94.6705
94.4942
94.0975
93.462
92.5761
91.4356
90.0446
88.4278
86.6616
84.8305
82.9793
81.1455
79.3596
77.6456
76.0212
74.4993
73.0889
71.7873
90.9316
91.0337
91.0114
90.8352
90.4882
89.9533
89.2189
88.2785
87.1316
85.7843
84.2496
82.5597
80.794
79.029
77.2996
75.6338
74.0529
72.5722
71.2024
69.95
68.8183
67.7999
87.8723
87.6811
87.357
86.8877
86.2622
85.4728
84.5162
83.3942
82.1136
80.6867
79.1313
77.4821
75.8154
74.1972
72.6532
71.2027
69.8593
68.6318
67.5251
66.5407
65.6779
64.9261
84.7279
84.303
83.7515
83.0724
82.2607
81.3151
80.2384
79.0375
77.7236
76.3121
74.8223
73.2889
71.7811
70.3542
69.0257
67.8078
66.7081
65.7302
64.8744
64.1385
63.5185
63.0023
81.7048
81.1095
80.4021
79.5903
78.6732
77.6538
76.5384
75.3368
74.062
72.7304
71.3614
69.9874
68.6693
67.4515
66.3452
65.3567
64.4887
63.7408
63.1096
62.5902
62.1759
61.854
78.951
78.2453
77.4465
76.5681
75.6118
74.5827
73.4891
72.342
71.1547
69.9431
68.7257
67.5315
66.4126
65.4035
64.5097
63.7331
63.0724
62.5237
62.0811
61.7374
61.4842
61.3087
76.5594
75.7976
74.9621
74.0705
73.1258
72.1343
71.1048
70.0483
68.9778
67.9079
66.855
65.8446
64.9196
64.1053
63.4029
62.8102
62.323
61.9346
61.6375
61.4232
61.2823
61.2029
74.5824
73.809
72.98
72.1157
71.2195
70.2981
69.3601
68.416
67.4772
66.5566
65.6683
64.8333
64.0856
63.4424
62.9008
62.4562
62.101
61.8269
61.6255
61.4875
61.4054
61.3688
73.038
72.2869
71.4965
70.6885
69.8661
69.0357
68.2052
67.3837
66.5809
65.807
65.0729
64.395
63.7987
63.2927
62.8713
62.5267
62.2548
62.0491
61.9016
61.8035
61.7452
61.7171
18.5189
20.8449
23.3825
26.1611
29.171
32.3767
35.7321
39.1834
42.669
46.2608
50.5355
56.0581
63.1596
71.8342
81.7829
92.5623
103.688
114.855
124.139
129.349
131.064
129.185
122.367
110.219
93.9441
78.3503
66.7654
59.6992
56.5227
55.4661
53.618
48.5722
39.1513
26.447
52.4224
69.8459
72.4258
75.5171
79.0067
82.8177
86.9081
91.2718
95.925
100.902
106.294
112.292
118.252
124.315
132.121
143.056
156.704
169.773
183.49
196.525
210.713
231.681
274.213
345.594
412.404
436.869
419.73
396.82
380.138
368.355
357.912
344.961
325.939
296.574
247.143
161.483
175.732
165.97
158.245
152.815
149.896
149.507
150.875
152.509
152.548
150.121
143.686
135.206
126.866
119.531
112.89
108.353
108.802
112.921
124.639
151.949
213.054
318.391
471.056
637.332
761.567
798.383
767.592
704.685
631.136
555.984
481.372
411.516
342.467
262.077
139.692
118.765
116.392
114.103
111.816
109.459
106.979
104.37
101.512
97.2218
90.6593
82.1397
74.9602
71.8545
72.0108
78.3939
89.2151
104.287
124.675
152.075
186.791
227.379
275.304
329.958
382.755
429.633
457.451
464.845
452.084
425.166
390.157
349.957
305.513
254.88
190.227
105.289
148.816
138.078
127.837
118.208
109.235
100.904
93.17
85.9453
79.1182
72.6042
66.4199
60.731
55.71
51.4777
48.7917
47.9725
49.6627
55.156
65.8816
84.3775
113.833
155.516
206.69
250.711
279.407
290.618
286.875
267.824
244.392
220.051
194.944
168.235
138.363
101.239
48.6743
133.457
127.728
121.296
114.253
106.766
99.0746
91.4613
84.1562
77.2651
70.4883
63.9828
58.1425
52.984
48.431
44.4763
41.3718
39.3292
38.3481
38.0196
38.1059
39.1329
40.9471
44.1707
48.3627
53.1304
58.3343
60.4445
60.5639
57.3689
52.4034
46.0957
38.6314
29.9963
19.5529
10.5485
153.976
152.433
150.652
147.994
144.169
138.86
131.86
123.344
114.156
105.388
97.4359
90.1827
83.1345
76.1604
69.3742
63.1243
57.5601
52.5647
48.061
43.9893
40.2694
36.8192
33.7638
31.1333
28.7373
26.4641
24.2347
22.0437
19.8897
17.7887
15.7304
13.6634
11.4698
8.90881
7.08309
144.328
142.351
140.128
137.623
134.809
131.678
128.256
124.588
120.69
115.996
110.472
104.277
97.6865
90.7942
83.4703
76.1077
69.3836
63.4456
58.1833
53.4475
49.1145
44.9557
41.132
37.837
34.8987
32.2166
29.7362
27.4003
25.132
22.846
20.475
17.922
15.0026
11.2212
5.39372
147.135
145.514
143.704
141.688
139.447
136.961
134.202
131.033
127.464
123.223
118.098
112.099
105.392
98.1656
91.0721
84.5144
78.5188
72.8785
67.4463
62.2204
57.214
52.2787
47.705
43.7811
40.3383
37.2471
34.4082
31.7405
29.179
26.6577
24.0975
21.3866
18.312
14.3675
9.56821
137.756
136.227
134.538
132.675
130.625
128.374
125.904
123.201
120.269
117.128
113.805
110.393
106.939
103.252
98.8044
92.8887
86.4032
79.8809
73.5964
67.6126
61.9346
56.4335
51.3491
46.9602
43.1356
39.7309
36.6253
33.7312
30.9741
28.2787
25.5549
22.6736
19.3976
15.1239
7.65847
135.864
134.824
133.627
132.258
130.703
128.946
126.964
124.728
122.204
119.351
116.118
112.435
108.201
103.344
97.759
91.7576
85.8034
79.9633
74.2906
68.811
63.5223
58.2436
53.2551
48.8934
45.0145
41.5061
38.2684
35.2589
32.407
29.6316
26.8359
23.8808
20.5134
16.1214
9.72193
130.397
129.692
128.94
128.12
127.198
126.12
124.825
123.22
121.218
118.797
115.937
112.623
108.845
104.552
99.582
93.9711
88.0723
82.0755
76.13
70.3427
64.7609
59.2324
54.0782
49.6387
45.7175
42.1637
38.9211
35.9115
33.052
30.2562
27.426
24.4227
20.9892
16.479
8.76415
130.147
129.674
129.08
128.341
127.431
126.312
124.939
123.257
121.204
118.721
115.747
112.224
108.073
103.197
97.5634
91.5855
85.6859
79.9317
74.3666
69.0078
63.8485
58.7194
53.8962
49.6961
45.9669
42.5787
39.4458
36.4908
33.6443
30.8326
27.965
24.9052
21.3988
16.7929
9.59386
128.008
127.609
127.068
126.356
125.438
124.275
122.82
121.021
118.821
116.164
112.995
109.272
104.975
100.109
94.7551
89.2063
83.7115
78.3281
73.1037
68.0604
63.1916
58.3321
53.7347
49.6998
46.0914
42.7938
39.7091
36.7694
33.9338
31.1351
28.2819
25.2342
21.727
17.0812
9.21423
123.682
123.173
122.527
121.715
120.699
119.439
117.893
116.016
113.762
111.091
107.967
104.357
100.236
95.5906
90.4669
85.1964
80.0964
75.2116
70.5425
66.0669
61.7423
57.3907
53.2111
49.4844
46.0807
42.9254
39.9515
37.1006
34.3155
31.5325
28.6662
25.5812
22.0109
17.2707
9.55254
116.21
115.582
114.835
113.945
112.881
111.607
110.087
108.282
106.155
103.672
100.802
97.5239
93.8284
89.7236
85.2743
80.7758
76.4472
72.2877
68.2896
64.4211
60.6296
56.7411
52.9233
49.4499
46.2271
43.1962
40.3052
37.505
34.7425
31.9692
29.1075
26.0217
22.4403
17.6535
9.49176
107.602
106.923
106.146
105.25
104.214
103.011
101.612
99.9894
98.1027
95.9232
93.4318
90.6172
87.4781
84.0243
80.3069
76.5658
72.9681
69.5282
66.2074
62.9504
59.6891
56.2561
52.7776
49.5153
46.4336
43.4938
40.6609
37.8982
35.1619
32.3955
29.517
26.3926
22.7536
17.8752
9.67444
98.6077
97.9485
97.2095
96.3749
95.4266
94.3448
93.1087
91.6963
90.0853
88.2562
86.1958
83.8993
81.3711
78.625
75.7055
72.7938
70.0052
67.3018
64.6311
61.9272
59.121
56.0627
52.8359
49.7457
46.7744
43.9046
41.1149
38.3764
35.6498
32.8818
29.9965
26.8594
23.1933
18.2568
9.71939
90.0653
89.4741
88.8234
88.1004
87.2908
86.3801
85.3542
84.1992
82.9023
81.4536
79.8484
78.0876
76.1785
74.1326
71.9774
69.8267
67.7435
65.6735
63.5491
61.3011
58.8627
56.0708
53.0387
50.0659
47.1625
44.329
41.5553
38.8202
36.089
33.3106
30.4051
27.2342
23.5182
18.4995
9.83489
82.4519
81.9555
81.4168
80.8263
80.1751
79.4542
78.6551
77.77
76.7935
75.7228
74.5593
73.3083
71.9782
70.5761
69.1114
67.637
66.1619
64.6162
62.929
61.0328
58.8481
56.2596
53.3609
50.4654
47.6045
44.7916
42.0246
39.2872
36.5479
33.757
30.8356
27.6452
23.8986
18.8215
9.89375
76.102
75.7094
75.2897
74.8364
74.3445
73.81
73.2293
72.6004
71.9235
71.2012
70.4392
69.6447
68.8245
67.978
67.0934
66.1681
65.1708
64.0263
62.6631
61.0057
59.0068
56.5537
53.7383
50.8857
48.0423
45.231
42.4555
39.7028
36.9436
34.1293
31.181
27.9591
24.1733
19.0359
9.95144
71.0583
70.7663
70.46
70.1355
69.7914
69.4275
69.0444
68.6445
68.232
67.8135
67.3967
66.9888
66.5927
66.1983
65.7743
65.2739
64.6358
63.7819
62.6371
61.1484
59.2706
56.9013
54.1342
51.3034
48.4658
45.6503
42.8645
40.098
37.3228
34.4908
31.5229
28.278
24.4613
19.2685
9.98717
67.255
67.0531
66.8471
66.6353
66.4195
66.2021
65.9871
65.7802
65.5884
65.4204
65.2846
65.1865
65.1232
65.0751
64.9937
64.8015
64.4164
63.756
62.7583
61.376
59.5715
57.2512
54.5099
51.6878
48.848
46.023
43.2232
40.4397
37.6455
34.7931
31.8033
28.5341
24.6872
19.4459
10.0089
64.5456
64.4184
64.2945
64.1748
64.0628
63.9635
63.8829
63.829
63.8107
63.8359
63.9152
64.0508
64.2337
64.4356
64.593
64.5996
64.3867
63.8549
62.9448
61.6242
59.8616
57.5689
54.8418
52.0235
49.1803
46.347
43.5355
40.7382
37.9287
35.0602
32.0532
28.7647
24.8936
19.6105
10.0155
62.7589
62.6878
62.6253
62.5739
62.5387
62.5262
62.5432
62.5999
62.7067
62.8722
63.1035
63.4007
63.7508
64.1181
64.4292
64.5632
64.4418
63.9903
63.1291
61.8427
60.1044
57.8293
55.1128
52.2985
49.4539
46.6147
43.7939
40.9848
38.1619
35.2787
32.2559
28.95
25.0574
19.7384
10.0088
61.7155
61.6804
61.657
61.6491
61.6621
61.7041
61.7844
61.9123
62.098
62.351
62.6769
63.0736
63.5243
63.9886
64.3864
64.589
64.514
64.1037
63.2676
62.0005
60.279
58.0194
55.3156
52.5093
49.6681
46.8278
44.0024
41.1861
38.354
35.4601
32.4254
29.1061
25.1965
19.8476
9.98999
61.2408
61.222
61.2159
61.2267
61.2615
61.3291
61.4384
61.5998
61.8237
62.1192
62.4912
62.9361
63.4346
63.9431
64.3783
64.609
64.5519
64.1585
63.3348
62.0798
60.3735
58.1331
55.4491
52.6572
49.8249
46.989
44.1636
41.3439
38.5059
35.6042
32.5603
29.2301
25.3067
19.9328
9.96224
61.1728
61.153
61.1449
61.1533
61.1855
61.2515
61.3607
61.5237
61.7513
62.0527
62.4324
62.8861
63.3931
63.9084
64.3482
64.5807
64.5253
64.1366
63.3214
62.0807
60.3938
58.1765
55.5163
52.7462
49.9299
47.1036
44.2831
41.4644
38.6242
35.7181
32.6681
29.3301
25.3961
20.0019
9.92722
61.34
61.3013
61.2744
61.265
61.2791
61.326
61.4169
61.5618
61.7716
62.0552
62.4167
62.852
63.3407
63.8382
64.2614
64.4809
64.4198
64.0314
63.2251
62.0027
60.3416
58.1564
55.5285
52.784
49.9885
47.1776
44.3663
41.5523
38.7131
35.8054
32.7516
29.4081
25.4661
20.0554
9.88708
61.6732
61.6072
61.55
61.5078
61.4881
61.499
61.55
61.6557
61.8257
62.0693
62.3923
62.7902
63.2427
63.7066
64.1013
64.3016
64.2335
63.8472
63.0543
61.8557
60.2265
58.0797
55.4912
52.7799
50.0091
47.2165
44.4189
41.6128
38.7775
35.8706
32.8153
29.468
25.5194
20.0941
9.83987
9.05041
18.2917
23.223
26.799
29.8035
32.5105
35.0433
37.4631
39.7993
42.0605
44.2409
46.323
48.2825
50.0949
51.5966
52.8124
53.8781
54.874
55.869
56.9176
58.0586
59.2592
60.4421
61.5778
62.6502
63.6491
64.57
65.4126
66.1796
66.8754
67.5056
68.0759
68.592
69.0593
69.4838
9.09972
18.5244
23.514
27.1251
30.1553
32.8821
35.4292
37.8574
40.1944
42.446
44.6023
46.6398
48.5255
50.2229
51.568
52.5982
53.4449
54.1937
54.9197
55.6863
56.5432
57.4828
58.4494
59.4157
60.3627
61.2753
62.1431
62.9598
63.7226
64.431
65.0862
65.6904
66.2463
66.757
67.227
9.13639
18.7279
23.7709
27.4147
30.4696
33.216
35.7787
38.2178
40.5599
42.809
44.9517
46.9598
48.7935
50.4061
51.6317
52.5168
53.1893
53.7382
54.2437
54.7763
55.395
56.1136
56.8957
57.7168
58.5558
59.3935
60.2147
61.0082
61.7664
62.4844
63.1597
63.7915
64.3802
64.9268
65.4341
9.16238
18.9036
23.9929
27.6653
30.7423
33.5071
36.085
38.5362
40.8862
43.1375