/*--------------------------------*- C++ -*----------------------------------*\
  =========                 |
  \\      /  F ield         | OpenFOAM: The Open Source CFD Toolbox
   \\    /   O peration     | Website:  https://openfoam.org
    \\  /    A nd           | Version:  8
     \\/     M anipulation  |
\*---------------------------------------------------------------------------*/
FoamFile
{
    version     2.0;
    format      ascii;
    class       volScalarField;
    location    "0.13";
    object      epsilon;
}
// * * * * * * * * * * * * * * * * * * * * * * * * * * * * * * * * * * * * * //

dimensions      [0 2 -3 0 0 0 0];

internalField   nonuniform List<scalar> 
15677
(
2.64475e+06
601274
384615
311464
267503
233293
204800
182289
170434
169009
175521
179668
171540
155406
140917
130681
123882
115896
107259
98947.8
91464.3
84608.4
78486
73318.9
69229.2
66379.9
64834.3
64402.9
64656.3
65293.7
66043
66712.1
67258.2
67711.6
68130
1.14498e+07
3.41657e+06
1.98833e+06
1.43502e+06
1.14209e+06
972183
885818
860650
877478
931240
960172
779172
516850
339792
241150
186419
156784
137433
125453
119237
116489
114458
111021
106488
101683
97521.4
94029.5
90919.3
87798.3
85025.7
82749.8
80874.1
79316.2
78011.1
76904.7
7.74582e+06
3.01335e+06
2.14971e+06
1.9038e+06
1.8914e+06
2.02184e+06
2.22592e+06
2.45852e+06
2.66721e+06
2.71775e+06
2.41548e+06
1.74631e+06
1.08147e+06
610316
350377
209424
132146
96485.4
83100.8
79915.7
82160
87364.2
92391.5
95519.7
97026.8
98066.2
99276.1
100777
102335
103282
102961
101244
98780.9
96191.1
93804.7
4.17179e+06
1.9447e+06
1.53477e+06
1.39997e+06
1.35943e+06
1.36479e+06
1.38862e+06
1.40886e+06
1.39148e+06
1.30156e+06
1.11172e+06
903647
691851
492638
333729
224197
154495
113418
91844.3
84462
88510
103956
128232
145067
149219
147763
144478
140534
136200
131531
126671
121809
117097
112608
108369
1.9638e+06
958225
804132
782974
814455
886037
976453
1.02997e+06
1.01633e+06
898265
644515
368268
186094
102205
66578.9
50418
44184.2
44512
49969.6
60394.6
75424.7
92645.5
109392
123467
131780
133683
128752
119070
110159
103056
97508.8
93082.2
89446.2
86386.3
83765.2
411370
249208
225446
223639
226478
230676
230721
224941
203593
159374
118494
92022
83939.4
76065.1
57768.8
43038.3
36030.6
35065.2
38062.7
44116
51421.9
57798.5
61963.8
63999.8
64465.6
64180.9
63569.6
62536.5
61252.3
59951.2
58695.5
57522.3
56450.5
55486.6
54629
101420
64435.6
62365.3
65976.8
72627.4
77591.1
75814.8
67213.3
54306.7
43079.5
34781.9
28962.7
25215.8
22785.1
21661.7
21950.9
23467.2
25679.2
28252.7
31089.2
34181
37316
40140.8
42148
43015.4
43021.4
42391.8
41623.4
40894.5
40250.2
39688.6
39196.4
38760
38368
38012
24798.3
15721.7
14167.4
14368.2
15431.1
16270.3
16115
15443.2
15803.7
17417.1
19258.9
19541.7
18573.4
16883.2
15783.5
15714.4
16551.2
18085.1
20033.9
22123.2
24021.3
25359.8
26167.4
26634.6
26919.8
27071.8
27116.7
27091.1
27019.8
26922.9
26814.2
26702.9
26594.8
26493.7
26403.7
86167
26531.3
16091.4
12078.9
10021
8801.19
8124.86
7815.42
7755.72
7880.85
8065.06
8322.57
8698.9
9272.68
10097.5
11114.5
12262.4
13470.4
14694
15900.6
17061.5
18099.3
18913.9
19474.8
19804.3
19949.1
19975.4
19960.1
19932
19901.6
19871.6
19842.7
19814.7
19787.5
19761.4
54733.6
19875.4
12989.7
10084.3
8453.22
7416.57
6724.2
6263.62
5982.12
5853.5
5863.23
6021.9
6344.37
6861.63
7547.08
8335.11
9209.24
10142.1
11095.5
12013.6
12827.9
13473.2
13979.5
14371.9
14665.5
14877.1
15025
15125.3
15191.3
15232.7
15257.2
15271.3
15279.2
15283.3
15284.8
56154.2
19862.6
12927
10002.8
8309.26
7175.04
6363.29
5772.79
5356.47
5093.78
4979.04
5013.19
5206.84
5573.45
6076.25
6644.41
7265.31
7916.79
8580.57
9239.11
9867.44
10411.3
10840.4
11165.9
11406.2
11578.6
11697.1
11784.4
11851.6
11905.1
11948.2
11983.2
12011.3
12032.3
12046.6
40860.6
14935.4
9655.93
7418.65
6165.21
5364.82
4821.32
4447.45
4201.3
4064.4
4025.08
4083.6
4249.65
4537.69
4924.62
5361.38
5839.88
6337.65
6832.29
7309.21
7759.52
8156.44
8481.39
8740
8942.31
9097.29
9216.3
9308.67
9380.86
9437.55
9482.18
9517.34
9544.93
9566.75
9584.15
34454.5
12726.9
8372.68
6505.32
5427.83
4717.44
4220.76
3869.79
3630.87
3487.22
3430.21
3455.95
3567.53
3770.64
4045.84
4357.19
4701.22
5066.62
5439.7
5806.4
6155.9
6466.41
6721.39
6926.62
7089.59
7217.18
7315.51
7393.22
7456.06
7507.43
7549.52
7584.12
7612.56
7635.91
7654.98
28268.7
10564.2
6853.81
5258.54
4361.1
3789.76
3404.93
3142.79
2970.97
2873.59
2841.03
2870.01
2964.17
3128.26
3344.54
3583.96
3842.74
4113.78
4390.56
4663.16
4928.14
5164.4
5362.41
5524.96
5657.23
5764.27
5850.73
5920.71
5977.59
6024.06
6062.23
6093.8
6120.1
6142.2
6160.92
22039
8448.45
5623.48
4399.75
3695.96
3236.83
2920.26
2699.82
2551.81
2463.81
2429.07
2444.25
2510.53
2630.81
2792.81
2974.27
3171.61
3377.95
3587.03
3794.77
3997.51
4180.69
4335.87
4464.86
4571.23
4658.36
4729.29
4786.98
4834.69
4874.55
4908.09
4936.44
4960.53
4981.07
4998.64
19685.1
7381.95
4820.15
3725.92
3112.34
2722.61
2460.48
2281.87
2164.08
2095.47
2069.15
2081.49
2133.67
2227.46
2352.81
2492.85
2644.99
2803.69
2964.79
3126.27
3283.25
3427.05
3550.14
3653.59
3739.96
3811.79
3871.46
3921.1
3962.54
3997.29
4026.58
4051.39
4072.53
4090.79
4106.75
14893.7
5871.81
3956.96
3124.5
2647.69
2338.81
2127.4
1981.06
1883.02
1824.29
1799.92
1807.19
1846.12
1917.78
2014.32
2122.32
2239.76
2362.81
2488.55
2614.61
2738.29
2852.45
2951.04
3034.74
3105.4
3164.82
3214.67
3256.42
3291.49
3321.27
3346.74
3368.66
3387.62
3404.11
3418.51
14269.9
5374.21
3528.99
2746.35
2310
2034.23
1849.38
1723.43
1639.84
1589.92
1568.8
1573.47
1604.16
1661.39
1738.61
1824.94
1918.47
2016.28
2116.39
2216.96
2316.32
2408.66
2489
2557.75
2616.29
2665.98
2708.12
2743.91
2774.36
2800.36
2822.64
2841.87
2858.61
2873.3
2886.24
10961
4385.64
2977.04
2363.53
2013.31
1787.59
1633.66
1527.09
1455.19
1411.05
1390.9
1392.4
1415.31
1460.02
1521.21
1589.95
1664.84
1743.68
1824.71
1906.43
1987.51
2063.31
2129.69
2186.94
2236.08
2278.17
2314.17
2344.98
2371.37
2394.08
2413.76
2430.91
2445.93
2459.09
2470.65
10847.3
4135.43
2738.5
2144.57
1812.53
1602.13
1460.58
1363.49
1298.23
1257.92
1238.86
1238.52
1256.54
1293
1343.3
1399.84
1461.3
1526.09
1592.85
1660.42
1727.73
1790.96
1846.65
1894.97
1936.72
1972.73
2003.76
2030.52
2053.64
2073.65
2091.04
2106.2
2119.45
2131.05
2141.23
9179.19
3609.42
2429.83
1920.46
1631.65
1446.34
1320.2
1232.72
1173.2
1135.69
1116.87
1114.58
1128.18
1157.64
1198.96
1245.63
1296.71
1350.75
1406.59
1463.27
1519.93
1573.39
1620.72
1662.01
1697.89
1729.02
1756
1779.41
1799.72
1817.38
1832.76
1846.19
1857.93
1868.21
1877.25
8812.56
3381.94
2247.94
1764.35
1492.96
1320.2
1203.32
1122.53
1067.56
1032.65
1014.53
1011.05
1021.35
1045.28
1079.56
1118.7
1161.77
1207.49
1254.87
1303.09
1351.45
1397.25
1437.96
1473.63
1504.76
1531.89
1555.5
1576.05
1593.95
1609.56
1623.18
1635.1
1645.54
1654.71
1662.78
7895.08
3069.68
2054.15
1617.79
1371.14
1213.15
1105.63
1030.85
979.537
946.44
928.493
923.72
931.252
950.888
979.773
1013.06
1049.89
1089.1
1129.82
1171.37
1213.15
1252.84
1288.24
1319.37
1346.65
1370.49
1391.32
1409.51
1425.4
1439.3
1451.46
1462.11
1471.47
1479.69
1486.94
7488.6
2875.43
1912.15
1501.11
1270.06
1122.6
1022.4
952.602
904.373
872.763
854.997
849.291
854.703
870.989
895.634
924.314
956.189
990.226
1025.66
1061.87
1098.36
1133.13
1164.23
1191.67
1215.78
1236.93
1255.46
1271.69
1285.91
1298.37
1309.3
1318.91
1327.36
1334.8
1341.37
6899.42
2663.35
1775.47
1395.32
1180.96
1043.73
950.145
884.663
839.15
809.002
791.603
785.299
789.12
802.795
824.086
849.093
877.01
906.896
938.063
969.975
1002.2
1032.97
1060.56
1084.98
1106.51
1125.44
1142.09
1156.71
1169.55
1180.84
1190.77
1199.52
1207.23
1214.03
1220.05
6522.9
2502.08
1663.27
1305.4
1103.93
974.99
886.993
825.319
782.289
753.553
736.627
729.964
732.586
744.207
762.818
784.871
809.592
836.119
863.829
892.247
920.991
948.501
973.241
995.191
1014.6
1031.74
1046.84
1060.15
1071.89
1082.23
1091.36
1099.42
1106.54
1112.85
1118.44
6110.61
2346.62
1560.25
1224.54
1035.38
914.184
831.355
773.179
732.446
705.064
688.674
681.827
683.55
693.551
710.01
729.673
751.8
775.595
800.491
826.061
851.971
876.825
899.237
919.183
936.88
952.556
966.426
978.696
989.55
999.155
1007.66
1015.2
1021.88
1027.81
1033.09
5793.09
2216.91
1471.43
1153.8
975.039
860.551
782.283
727.244
688.608
662.498
646.669
639.758
640.806
649.521
664.24
681.961
701.974
723.541
746.142
769.391
792.994
815.69
836.218
854.549
870.875
885.393
898.295
909.756
919.938
928.988
937.035
944.194
950.568
956.248
961.315
5488.4
2098.05
1391.6
1090.76
921.475
813.031
738.854
686.634
649.9
624.97
609.705
602.815
603.36
611.052
624.364
640.503
658.791
678.54
699.272
720.636
742.371
763.33
782.349
799.399
814.648
828.271
840.435
851.294
860.991
869.652
877.391
884.309
890.497
896.035
900.996
5231.22
1994.68
1321.31
1034.96
873.954
770.851
700.315
650.623
615.609
591.767
577.05
570.237
570.409
577.287
589.455
604.305
621.187
639.458
658.674
678.517
698.755
718.332
736.165
752.219
766.647
779.603
791.234
801.676
811.052
819.474
827.041
833.842
839.957
845.458
850.409
68648
69294.5
69838.7
70228.8
70425.2
70361.6
69921.5
69034.7
67647.1
65725.5
63252.2
60232
56783.6
53076.7
49222.7
45324.4
41472.9
37748.4
34219.4
30941.7
27961.3
25346
75557
74023
72619.9
71328.9
70120.2
68961
67829.4
66703.1
65562.3
64396.3
63210.9
62049.1
61112.7
60595.6
60642.4
61289.8
62782.4
65115.7
68121.9
71528.2
74907.3
77764.7
90904.6
87335.2
83666.7
80158.4
76978.3
74210.5
71875.7
69972.4
68497.5
67442.6
66805.4
66574.7
66655.3
66995.3
67592.8
68457.8
69597.7
70999.4
72625.9
74422.2
76324.6
78273.5
103059
96597.4
90442.8
84780.5
79732.2
75384.2
71784.7
68944.1
66809.7
65321.5
64421
64048.8
64108.6
64518.2
65209
66133.3
67253.7
68536.9
69954.3
71489.6
73139.4
74902.5
80929.2
77773.3
74719.7
71814.7
69091.4
66609.9
64414.9
62548
61054.7
59969.9
59310.1
59065.4
59184.9
59608.5
60269.2
61110.8
62083.1
63133
64236.8
65375.4
66522.3
67653.2
53877.5
53147.6
52391.3
51633.4
50901
50223.3
49630.9
49142.5
48777.8
48557.8
48489.4
48580.6
48823.4
49189.6
49652.8
50185.8
50762.9
51363
51972
52581
53187.6
53789.8
37791.7
37681.3
37559.8
37434.2
37310.6
37198.3
37107.7
37052.3
37040.4
37084.1
37194.6
37379.1
37633.1
37940.9
38289.4
38666.1
39059.6
39459.6
39857.5
40243.4
40608.4
40952.3
26455.8
26644.3
26822.1
26991.1
27154
27314.7
27480
27653.5
27835.1
28023.7
28223.5
28435.2
28654.8
28879.2
29108.8
29342.9
29579.7
29817.7
30055.6
30293.1
30530.3
30766.9
19844.6
20040.4
20230.2
20414.6
20594.2
20770.1
20943.5
21119.7
21299.7
21482.9
21670.4
21863.1
22057.4
22249.5
22439.5
22627
22811.8
22993.7
23172.4
23347.8
23519.4
23685.8
15379.9
15571.3
15760.5
15946.9
16130.7
16312
16491.1
16668
16842.8
17018.2
17191.3
17361.1
17523.5
17677.2
17824.3
17966.3
18104
18238.4
18370.3
18500.5
18629.8
18758
12141.4
12320.4
12498.3
12675
12850.3
13024
13196
13366.2
13534.8
13701.7
13869.5
14035.8
14195.4
14346
14488.6
14624.3
14753.9
14878.3
14998.3
15114.6
15227.8
15338
9674.71
9842.09
10010.4
10178.9
10347.3
10515.1
10682.1
10847.7
11012.1
11175.4
11337.4
11497.7
11651.5
11796.3
11932.9
12062.2
12185.1
12302.5
12415.1
12523.5
12628.5
12730.1
7739.14
7891.99
8046.53
8202.47
8359.57
8517.59
8676.25
8835.23
8994.26
9153.11
9311.65
9468.79
9621.3
9765.7
9902.28
10031.8
10154.8
10272
10384
10491.4
10594.7
10694
6236.95
6373.99
6513.44
6654.89
6798.17
6943.24
7090.02
7238.31
7387.9
7538.52
7689.91
7840.7
7986.69
8125.2
8256.68
8382.01
8501.92
8616.69
8726.6
8831.93
8933.05
9030.09
5065.95
5186.6
5310.17
5436.51
5565.49
5697.01
5830.94
5967.17
6105.55
6245.96
6388.26
6531.31
6671
6804.5
6932
7053.8
7170.25
7281.67
7388.39
7490.71
7588.93
7683.18
4165.44
4270.17
4378.06
4489.03
4603.06
4720.08
4840.02
4962.79
5088.32
5216.54
5347.39
5479.73
5609.69
5734.56
5854.44
5969.5
6079.91
6185.89
6287.64
6385.43
6479.48
6569.87
3469.47
3560.22
3654.15
3751.28
3851.65
3955.26
4062.06
4171.94
4284.8
4400.53
4518.96
4639.14
4757.73
4872.31
4982.93
5089.66
5192.62
5291.91
5387.67
5480.03
5569.16
5655.1
2930.51
3009.02
3090.56
3175.21
3262.97
3353.79
3447.67
3544.64
3644.68
3747.77
3853.83
3962.04
4069.32
4173.42
4274.38
4372.22
4466.99
4558.76
4647.6
4733.6
4816.85
4897.36
2509.18
2577.39
2648.33
2722.09
2798.72
2878.3
2960.85
3046.4
3134.98
3226.6
3321.25
3418.23
3514.8
3608.9
3700.5
3789.61
3876.24
3960.41
4042.17
4121.55
4198.62
4273.39
2174.86
2234.37
2296.43
2361.08
2428.42
2498.48
2571.35
2647.07
2725.7
2807.26
2891.79
2978.69
3065.51
3150.4
3233.31
3314.22
3393.11
3469.98
3544.86
3617.76
3688.7
3757.7
1906.85
1959.21
2013.89
2070.95
2130.48
2192.55
2257.22
2324.56
2394.63
2467.5
2543.21
2621.25
2699.44
2776.1
2851.17
2924.62
2996.42
3066.55
3135.02
3201.83
3266.98
3330.49
1689.08
1735.57
1784.16
1834.93
1887.96
1943.33
2001.1
2061.36
2124.17
2189.61
2257.73
2328.09
2398.75
2468.17
2536.3
2603.1
2668.53
2732.57
2795.22
2856.45
2916.28
2974.7
1510.45
1552.02
1595.51
1641.01
1688.58
1738.31
1790.26
1844.51
1901.15
1960.24
2021.85
2085.6
2149.72
2212.84
2274.89
2335.83
2395.62
2454.24
2511.67
2567.9
2622.91
2676.71
1362.55
1399.98
1439.18
1480.22
1523.17
1568.11
1615.12
1664.26
1715.62
1769.28
1825.29
1883.33
1941.8
1999.43
2056.16
2111.96
2166.79
2220.62
2273.42
2325.18
2375.89
2425.54
1239.27
1273.18
1308.71
1345.95
1384.95
1425.8
1468.56
1513.32
1560.14
1609.1
1660.27
1713.36
1766.91
1819.75
1871.84
1923.13
1973.59
2023.18
2071.88
2119.68
2166.55
2212.5
1136
1166.88
1199.27
1233.23
1268.83
1306.14
1345.24
1386.18
1429.06
1473.93
1520.89
1569.64
1618.88
1667.52
1715.52
1762.84
1809.43
1855.27
1900.34
1944.61
1988.07
2030.7
1049.24
1077.52
1107.19
1138.31
1170.96
1205.19
1241.08
1278.69
1318.1
1359.39
1402.62
1447.56
1492.98
1537.9
1582.27
1626.06
1669.22
1711.72
1753.54
1794.65
1835.05
1874.72
976.289
1002.31
1029.62
1058.27
1088.34
1119.88
1152.95
1187.63
1223.98
1262.08
1302.01
1343.54
1385.55
1427.14
1468.26
1508.88
1548.95
1588.45
1627.36
1665.64
1703.28
1740.26
914.987
939.055
964.316
990.827
1018.64
1047.82
1078.42
1110.5
1144.13
1179.39
1216.34
1254.8
1293.74
1332.31
1370.48
1408.22
1445.5
1482.28
1518.54
1554.26
1589.4
1623.95
863.597
885.981
909.473
934.125
959.983
987.096
1015.52
1045.3
1076.52
1109.23
1143.51
1179.18
1215.3
1251.11
1286.57
1321.67
1356.37
1390.65
1424.5
1457.87
1490.74
1523.09
22944.9
20875.2
19273.6
18025.3
17084.7
16523.8
80462.4
82908.5
83411.8
81955.9
78805.4
74496.8
80466.6
82977.9
85639.8
88545
91849.7
95748.7
76849.5
78930.3
80931
82904.1
84884.1
86785.7
68722.7
69698.2
70597.8
71367
72000.6
72527.8
54220.9
54428.5
54564.1
54637.1
54658.4
54641.8
41074.3
40957.8
40833.1
40697.8
40555.7
40413.2
30811.2
30655.5
30491.2
30324.2
30159.1
29999.8
23690.2
23529.7
23372.7
23219.7
23073.1
22935.7
18759.3
18634.2
18511.5
18392.2
18277.2
18167
15342.3
15241
15141.7
15044.4
14949.5
14857.7
12739.7
12658.6
12578.6
12499.8
12422.6
12347
10711
10646.7
10582.8
10519.1
10455.8
10393.1
9052.64
9001.96
8951.05
8899.97
8848.78
8797.49
7710.08
7670.54
7630.22
7589.18
7547.47
7505.12
6599.23
6568.43
6536.61
6503.87
6470.26
6435.8
5686.06
5662.61
5637.93
5612.11
5585.17
5557.15
4928.42
4910.48
4891.33
4871.06
4849.68
4827.24
4303.85
4290.3
4275.57
4259.69
4242.69
4224.62
3786.97
3776.72
3765.34
3752.87
3739.33
3724.76
3358.31
3350.57
3341.75
3331.89
3321.02
3309.15
3000.94
2995.05
2988.17
2980.3
2971.48
2961.72
2701.36
2696.87
2691.43
2685.09
2677.84
2669.71
2448.65
2445.19
2440.86
2435.67
2429.64
2422.78
2234.16
2231.47
2227.98
2223.68
2218.59
2212.72
2051.01
2048.91
2046.05
2042.44
2038.09
2033
1893.77
1892.13
1889.76
1886.69
1882.92
1878.46
1758.16
1756.86
1754.89
1752.24
1748.94
1744.97
1640.77
1639.74
1638.07
1635.77
1632.84
1629.28
1538.88
1538.05
1536.62
1534.6
1531.98
1528.78
16374.3
16481.5
16764.2
17208
17795.8
18509.2
19326.4
20220.4
21157.8
22100
23004
23815.9
24474.2
24948.9
25251
25442.1
25573.8
25687.5
25813
25966.9
26182.9
26495.1
70271.5
66374.8
62302.5
58561.5
55589.9
53642.1
52569.4
52190.2
52257.6
52665.2
53187.6
53622.6
53844.4
53817.7
53575.5
53248
52890.7
52274.1
51327.1
50005.7
48311.8
46496.1
100104
104880
110607
117408
125144
133143
140074
143445
142572
137303
128254
116992
105857
96720.6
89871.2
84671.2
80551.7
77236.6
74622.8
72619.5
71147.8
70165.3
88514.9
90079
91749.5
93455.1
95082.8
96492.2
97538.5
98129.5
98354.9
98492.8
98846.3
99647.8
100764
102013
103227
104306
105283
104920
103206
100193
97851.6
96243.8
72730.5
72622.9
72431
72163.2
71854.7
71559.6
71342.1
71266.7
71392.5
71778.8
72489.8
73568.2
75008.7
76491.9
77703.9
78597.1
79134.3
79288.2
79208
79001.9
78764.8
78548.8
54373.1
53862.4
53341.9
52826.2
52333.9
51883.8
51491.1
51170.1
50934.8
50795.6
50755.6
50803.5
50904.3
51007.1
51068.4
51061.5
50972
50795.9
50540.5
50214.4
49826
49383.7
40067.4
39522.4
38989
38472.2
37979.6
37518.6
37096.2
36718
36387.9
36106.5
35867.8
35666.7
35498.4
35350
35206.6
35056.5
34891.6
34707
34500.7
34272.7
34025.5
33759.7
29681.5
29205.2
28740.8
28291.6
27860.3
27449.4
27060.7
26695.1
26352.5
26030.8
25726.1
25434.5
25158.2
24898.2
24647.6
24397.6
24138.3
23867.4
23583.2
23284.9
22971.7
22644.1
22673.8
22286.1
21908.2
21539.6
21180.7
20832
20492.9
20162.3
19838.9
19521.4
19208.5
18900.3
18601.9
18315.6
18037.9
17766
17498
17232.6
16969.5
16708.9
16451.3
16198.3
17957.3
17648
17342.6
17041.8
16745.3
16452.6
16163.1
15875.8
15589.3
15301.9
15012.2
14719.9
14431.1
14150.7
13877.8
13611.4
13350.5
13094.5
12842.8
12595.2
12351.2
12110.8
14682.4
14422.9
14164.2
13905.6
13646.8
13387.3
13126.7
12864.2
12599
12329.9
12057
11782.4
11512.6
11252
10999.7
10754.7
10516.5
10284.8
10059.3
9839.71
9626.07
9418.44
12198
11974.9
11751.1
11526.4
11300.4
11072.9
10843.5
10611.6
10376.5
10137.6
9894.34
9647.82
9404.35
9168.49
8939.78
8717.77
8502.06
8292.74
8089.81
7893.18
7702.87
7518.97
10263.3
10066.3
9867.86
9667.62
9465.34
9260.77
9053.6
8843.54
8630.25
8413.45
8192.84
7969.81
7750.04
7538.58
7334.97
7138.92
6950.18
6768.57
6593.92
6426.09
6264.9
6110.22
8684.65
8510.13
8333.94
8155.95
7976
7793.95
7609.68
7423.06
7234.02
7042.45
6848.25
6652.68
6460.89
6276.42
6099.01
5928.49
5764.69
5607.42
5456.46
5311.75
5173.16
5040.62
7405.92
7250.2
7092.81
6933.64
6772.62
6609.75
6445.05
6278.58
6110.42
5940.49
5768.7
5596.23
5427.74
5266.4
5111.84
4964
4822.68
4687.64
4558.66
4435.48
4317.86
4205.56
6349.06
6210.53
6070.51
5928.99
5785.97
5641.51
5495.69
5348.59
5200.31
5050.95
4900.46
4749.88
4603.28
4463.38
4329.89
4202.5
4080.88
3964.7
3853.73
3747.75
3646.6
3550.19
5481.1
5357.9
5233.59
5108.18
4981.72
4854.23
4725.75
4596.31
4465.91
4334.52
4202.09
4069.72
3941.13
3818.76
3702.35
3591.55
3486.01
3385.44
3289.61
3198.3
3111.3
3028.41
4760.95
4651.72
4541.62
4430.68
4318.93
4206.39
4093.09
3979.05
3864.28
3748.83
3632.75
3516.99
3404.71
3297.98
3196.47
3099.95
3008.14
2920.75
2837.5
2758.18
2682.61
2610.63
4166.63
4069.7
3972.07
3873.77
3774.82
3675.24
3575.07
3474.33
3373.05
3271.28
3169.09
3067.28
2968.62
2874.89
2785.82
2701.12
2620.53
2543.79
2470.72
2401.21
2335.05
2272.06
3673.88
3587.65
3500.83
3413.44
3325.51
3237.06
3148.12
3058.72
2968.89
2878.68
2788.14
2697.97
2610.63
2527.69
2448.89
2374
2302.78
2235.06
2170.65
2109.39
2051.11
1995.66
3264.24
3187.19
3109.62
3031.56
2953.02
2874.03
2794.62
2714.82
2634.65
2554.16
2473.4
2392.99
2315.13
2241.23
2171.05
2104.39
2041.06
1980.87
1923.66
1869.28
1817.56
1768.37
2921.82
2852.61
2782.93
2712.8
2642.24
2571.27
2499.93
2428.23
2356.22
2283.93
2211.4
2139.21
2069.34
2003.04
1940.12
1880.37
1823.64
1769.75
1718.55
1669.88
1623.62
1579.64
2634
2571.46
2508.49
2445.1
2381.32
2317.17
2252.67
2187.86
2122.76
2057.42
1991.87
1926.66
1863.55
1803.7
1746.92
1693.04
1641.89
1593.32
1547.2
1503.39
1461.77
1422.21
2390.58
2333.74
2276.49
2218.86
2160.87
2102.53
2043.87
1984.93
1925.73
1866.33
1806.75
1747.49
1690.17
1635.83
1584.29
1535.41
1489.03
1445.02
1403.24
1363.57
1325.91
1290.13
2183.49
2131.53
2079.2
2026.51
1973.48
1920.14
1866.5
1812.62
1758.51
1704.21
1649.79
1595.66
1543.33
1493.74
1446.74
1402.17
1359.91
1319.82
1281.79
1245.71
1211.46
1178.95
2006.3
1958.57
1910.48
1862.07
1813.34
1764.33
1715.06
1665.57
1615.88
1566.04
1516.1
1466.45
1418.47
1373.03
1329.98
1289.17
1250.5
1213.83
1179.06
1146.08
1114.8
1085.12
1853.93
1809.88
1765.5
1720.83
1675.87
1630.66
1585.22
1539.58
1493.79
1447.87
1401.87
1356.18
1312.04
1270.24
1230.66
1193.17
1157.64
1123.97
1092.05
1061.79
1033.09
1005.87
1722.34
1681.54
1640.44
1599.07
1557.45
1515.6
1473.56
1431.35
1389.02
1346.59
1304.12
1261.94
1221.21
1182.66
1146.16
1111.59
1078.84
1047.8
1018.38
990.493
964.051
938.972
1608.32
1570.42
1532.24
1493.82
1455.18
1416.35
1377.36
1338.24
1299.03
1259.75
1220.45
1181.43
1143.76
1108.11
1074.35
1042.37
1012.07
983.347
956.118
930.3
905.818
882.597
1509.33
1474.01
1438.45
1402.68
1366.73
1330.65
1294.44
1258.15
1221.79
1185.39
1148.97
1112.81
1077.9
1044.84
1013.52
983.838
955.69
928.994
903.67
879.648
856.861
835.242
26820
27101.7
27465.2
27915.9
28448.9
29051.2
29710.3
30432.7
31275.2
32376.8
33977.7
36457.2
40345
46348
55339.9
67934.3
84556.4
105990
132859
165702
204687
250758
298622
350147
404713
459494
495766
505140
498710
496652
506537
536913
614207
881835
3.13881e+06
45243.4
44353
43590.1
43000.5
42645.5
42558.3
42802.9
43469.3
44677.2
46611.6
49563.7
54006.8
60742.8
71077.7
86940.4
109992
141372
183849
242935
322075
399026
450094
477832
534422
691167
1.04529e+06
1.65059e+06
2.28917e+06
2.59906e+06
2.51647e+06
2.41825e+06
2.47987e+06
2.84114e+06
4.11638e+06
1.19605e+07
69585.6
69111.7
68759.5
68590.5
68666.5
69078.8
69935
71373.1
73573.6
76781.4
81331.2
87611.1
95643.2
105311
117414
132086
147247
160807
168642
172277
184451
214796
286725
399703
599166
1.0128e+06
1.77707e+06
2.77226e+06
3.52588e+06
3.82377e+06
3.7205e+06
3.38126e+06
3.1309e+06
3.42995e+06
6.6015e+06
95473.6
95087.6
94966
95207.7
95943
97314
99477.8
102596
106809
112138
117519
119574
119399
118196
117879
118601
121451
129364
148934
206300
324853
480963
586876
566496
572301
648831
805382
980791
1.02938e+06
1.02247e+06
965517
922069
880033
862765
1.11838e+06
78589
78852.6
79237
79798.7
80625.8
81809.5
83375.2
85105.8
86242.9
85555.9
82539.7
77574.3
71651.3
65618.7
61351.8
61845.3
69569.8
90779.4
136012
218680
346015
519527
615281
588910
546003
605753
769046
904224
917896
858852
787349
749046
778805
1.03727e+06
2.93024e+06
49174
49211.6
49231.4
49224.5
49176
49066
48872.7
48572.2
48152.1
47594.9
46809.9
45518.3
43378.2
40288.4
36810.5
34902.1
35605.2
39945.2
49012.8
64994.2
90753.1
128754
179562
222065
236852
241812
240245
229725
206524
185162
174856
179111
207681
313252
985842
33663.3
33729.7
33780.7
33812.4
33825.3
33821.6
33811.3
33811.4
33815.9
33757.6
33421.5
32396.4
30499.3
27963.8
25281.9
23140.6
21999.3
21991.1
22928.3
24794.2
27225.1
30162.7
34411.5
37620.7
38537.8
39623.1
41809.8
46218
49551.5
50494.5
50930.4
52410.4
56546.4
67757.3
109477
22470.3
22452.3
22423.3
22376.4
22305.3
22201
22051.8
21843.7
21559.4
21178.6
20679
20053.8
19303.9
18423.4
17528.9
16988.5
17285.5
18761
21175.4
22229.6
20246.9
16504.7
14580.7
13973.3
13386.7
11412.7
9988.25
9208.38
8926.47
8927.51
9446.99
10482.5
11889
14334.9
21259.3
16067.9
16052.4
16025.8
15985.8
15929.9
15855.8
15760.8
15640.8
15488.7
15288.4
15003.3
14556.8
13941.7
13185.3
12385.7
11690.2
11170.6
10847.5
10715.9
10658.1
10536.5
10297.8
9949.69
9332.73
8651.05
8034.49
7569.68
7339.11
7367.43
7669.92
8373.12
9810.17
12890
21524.2
71833.5
11969.2
11921
11865.3
11800.1
11722.9
11629.8
11516.3
11376.1
11201.7
10983.7
10710.7
10370.5
9958.19
9479.24
8954.62
8429.12
7941.14
7513.05
7137.44
6790.91
6451.17
6110.04
5818.23
5607.7
5491.55
5478.43
5569.14
5778.95
6129.79
6662.17
7456.74
8694.61
10864.3
15830.1
35764.9
9293.69
9243.89
9186.97
9121.86
9047.44
8961.36
8861.1
8744.09
8607.45
8446.69
8254.67
8019.52
7723.15
7363.03
6946.53
6512.29
6098.89
5718.93
5382.6
5106.25
4900.88
4769.02
4740.19
4825.91
5052.05
5416.43
5930.75
6629.37
7558.93
8792.37
10467.8
12912.9
17095
26958
82434.2
7405.9
7356.17
7300.29
7237.34
7166.1
7085.06
6992.52
6886.19
6763.23
6620.02
6453.05
6257.26
6027.48
5760.33
5457.5
5140.6
4833.94
4545.91
4282.99
4053.87
3869.99
3744.12
3714.82
3789.63
3979.85
4304.3
4790.76
5480.38
6417.33
7635.99
9167.65
11176.2
14176
20406.7
51410.4
6016.05
5974.9
5928.5
5876.22
5817.2
5750.2
5674
5587.4
5489.01
5376.85
5247.62
5096.54
4918.52
4711.24
4475.64
4227.45
3984.22
3753.27
3542.77
3361.39
3220.16
3131.83
3130.52
3223.06
3415.96
3712.36
4115.95
4631.21
5265.49
6037.99
7000.76
8290.29
10325.1
14916.5
39311.8
4960.04
4924.98
4885.66
4841.49
4791.69
4735.51
4671.91
4599.63
4517.21
4422.84
4314.27
4189.42
4045.71
3881.24
3696.59
3503.56
3314.73
3134.81
2969.17
2824.05
2706.74
2625.59
2607.35
2660.15
2793.41
3020.37
3355.42
3814.68
4408.14
5165.32
6141.03
7468.81
9548.93
14052.1
36306.3
4137.98
4109.46
4077.42
4041.23
4000.34
3954.12
3901.86
3842.73
3775.72
3699.57
3612.52
3511.7
3395.98
3264.65
3117.84
2964.47
2814.11
2669.8
2535.34
2415.52
2316.85
2246.78
2226.15
2261.9
2355.48
2508.92
2725.24
3008.86
3367.28
3815.23
4387.43
5172.73
6433.95
9270.61
23406.3
3492.42
3468.49
3441.61
3411.38
3377.32
3338.86
3295.35
3246.02
3189.99
3126.21
3053.51
2970.54
2875.94
2768.81
2649.29
2524.42
2401.32
2282.76
2171.91
2072.1
1987.69
1923.2
1894.57
1907.9
1964.74
2071.96
2236.51
2468.28
2780.32
3197.2
3765.8
4588.74
5950.5
8982.85
23654.1
2979.14
2959.3
2936.94
2911.76
2883.36
2851.31
2815.11
2774.13
2727.61
2674.52
2613.94
2544.91
2466.46
2377.52
2278.91
2176.21
2075.47
1978.35
1887.11
1804.36
1733.43
1677.42
1648.02
1649.96
1683.23
1749.05
1849.25
1987.75
2171.3
2413.22
2740.91
3216.65
4011
5803.62
14289.6
2567.99
2551.12
2532.16
2510.8
2486.72
2459.5
2428.72
2393.83
2354.23
2309.24
2258.09
2199.98
2134.08
2059.63
1976.82
1890.84
1806.48
1724.86
1647.24
1575.96
1513.5
1461.78
1430.04
1422.67
1438.89
1480.4
1550.27
1653.42
1799.11
2003.77
2298.84
2752.99
3550.69
5401.13
14343.4
2234.95
2220.6
2204.45
2186.27
2165.76
2142.6
2116.39
2086.61
2052.79
2014.39
1970.82
1921.44
1865.6
1802.69
1732.82
1660.19
1588.76
1519.59
1453.89
1393.23
1339.57
1294.32
1265.03
1255.39
1265.11
1295.07
1347.24
1425.16
1535.28
1688.89
1907.87
2239.78
2810.87
4111.01
10097
1963.1
1950.72
1936.8
1921.11
1903.4
1883.37
1860.69
1835.01
1805.88
1772.87
1735.44
1693.08
1645.25
1591.44
1531.76
1469.64
1408.58
1349.34
1292.87
1240.22
1193.08
1152.6
1125.22
1114.4
1119.86
1142.2
1183.62
1247.53
1340.42
1474.07
1671.25
1981.34
2535.94
3843.84
10174.2
1739.62
1728.87
1716.73
1703.04
1687.59
1670.14
1650.39
1628.03
1602.7
1574.02
1541.57
1504.89
1463.53
1417.07
1365.62
1312.1
1259.45
1208.35
1159.59
1114.17
1073.42
1038.28
1014.38
1004.77
1009.35
1028.79
1064.88
1120.52
1200.92
1315.35
1481.48
1737.09
2181.67
3195.79
7867.45
1554
1544.57
1533.93
1521.93
1508.37
1493.05
1475.72
1456.12
1433.95
1408.86
1380.5
1348.48
1312.42
1271.95
1227.17
1180.64
1134.87
1090.43
1048
1008.4
972.669
941.745
920.611
912.1
916.218
933.625
966.113
1016.51
1089.99
1195.92
1352.31
1598.15
2037.12
3069.56
8038.45
1399.23
1390.86
1381.43
1370.8
1358.78
1345.22
1329.89
1312.56
1292.97
1270.83
1245.83
1217.64
1185.93
1150.39
1111.1
1070.3
1030.19
991.26
954.095
919.443
888.305
861.442
843.288
836.461
841.041
857.759
888.23
935.056
1002.88
1099.93
1241.85
1462.26
1849.83
2745.23
6956.52
1269.38
1261.88
1253.43
1243.91
1233.17
1221.05
1207.37
1191.91
1174.47
1154.77
1132.55
1107.53
1079.42
1047.94
1013.18
977.112
941.675
907.297
874.5
843.957
816.584
793.097
777.484
771.998
776.731
792.512
820.962
864.607
927.909
1018.8
1152.48
1361.86
1734.33
2607.37
6786.84
1160.09
1153.29
1145.63
1137.01
1127.3
1116.35
1104.01
1090.09
1074.4
1056.71
1036.78
1014.38
989.23
961.112
930.098
897.945
866.374
835.764
806.583
779.445
755.196
734.525
721.07
716.874
722.091
737.501
764.647
805.962
865.558
950.744
1075.43
1269.54
1612.43
2409.67
6192.53
1067.88
1061.62
1054.59
1046.68
1037.79
1027.78
1016.52
1003.84
989.576
973.525
955.48
935.221
912.524
887.183
859.266
830.355
801.989
774.505
748.328
724.021
702.37
684.046
672.389
669.26
674.837
689.932
715.937
755.071
811.238
891.453
1009.08
1192.95
1519.63
2284.83
5947
990.006
984.152
977.59
970.23
961.97
952.699
942.289
930.6
917.477
902.747
886.227
867.721
847.033
823.975
798.614
772.382
746.668
721.774
698.087
676.129
656.631
640.243
630.054
627.768
633.579
648.306
673.257
710.55
763.9
839.875
951.003
1124.34
1431.39
2148.11
5563.35
924.261
918.691
912.464
905.5
897.708
888.987
879.226
868.3
856.071
842.388
827.087
809.996
790.938
769.746
746.482
722.456
698.933
676.182
654.56
634.549
616.834
602.046
593.055
591.43
597.371
611.696
635.645
671.244
722.043
794.313
900.003
1064.91
1357.59
2043.12
5324.61
868.848
863.449
857.433
850.728
843.253
834.919
825.627
815.265
803.713
790.836
776.49
760.519
742.767
723.082
701.524
679.303
657.579
636.595
616.678
598.277
582.038
568.567
560.548
559.435
565.428
579.341
602.349
636.397
684.874
753.749
854.387
1011.31
1289.65
1941.34
5056.65
822.281
816.946
811.027
804.457
797.165
789.071
780.087
770.115
759.048
746.768
733.144
718.039
701.312
682.825
662.637
641.878
621.622
602.086
583.572
566.501
551.48
539.095
531.867
531.149
537.139
550.639
572.768
605.395
651.764
717.591
813.762
963.787
1230.19
1855.11
4848.8
4968.94
1891.13
1251.39
979.616
826.888
729.101
662.189
615.018
581.732
558.998
544.868
538.18
538.052
544.21
555.349
569.033
584.645
601.587
619.45
637.944
656.868
675.249
692.072
707.299
721.062
733.499
744.738
754.895
764.078
772.382
779.893
786.688
792.836
798.399
803.435
4717.64
1791.2
1183.72
926.012
781.299
688.675
625.294
580.59
549.007
527.383
513.865
507.352
507.009
512.566
522.825
535.509
550.038
565.857
582.589
599.978
617.847
635.295
651.359
665.993
679.314
691.438
702.478
712.533
721.696
730.047
737.659
744.597
750.92
756.681
761.931
4496.26
1703.54
1124.5
879.143
741.468
653.378
593.1
550.57
520.497
499.869
486.921
480.606
480.133
485.245
494.831
506.752
520.461
535.443
551.355
567.963
585.12
601.973
617.591
631.916
645.047
657.088
668.134
678.272
687.58
696.128
703.978
711.185
717.799
723.866
729.429
4301.68
1626.43
1072.4
837.936
706.465
622.377
564.843
524.239
495.511
475.78
463.359
457.253
456.713
461.496
470.573
481.915
495.014
509.392
524.732
540.831
557.561