/*--------------------------------*- C++ -*----------------------------------*\
  =========                 |
  \\      /  F ield         | OpenFOAM: The Open Source CFD Toolbox
   \\    /   O peration     | Website:  https://openfoam.org
    \\  /    A nd           | Version:  8
     \\/     M anipulation  |
\*---------------------------------------------------------------------------*/
FoamFile
{
    version     2.0;
    format      ascii;
    class       volScalarField;
    location    "0.22";
    object      p;
}
// * * * * * * * * * * * * * * * * * * * * * * * * * * * * * * * * * * * * * //

dimensions      [0 2 -2 0 0 0 0];

internalField   nonuniform List<scalar> 
15677
(
74.5858
74.1798
73.8443
74.3341
73.843
73.7804
74.2539
73.862
73.7901
73.7161
74.2344
73.8622
73.7906
73.7248
73.6202
74.2162
73.8653
73.791
73.7241
73.6278
73.5202
74.1933
73.8681
73.7912
73.7246
73.6278
73.5269
73.4077
74.1686
73.8698
73.7909
73.7248
73.6285
73.5269
73.4135
73.2719
74.1428
73.8709
73.7903
73.7245
73.6292
73.5277
73.4137
73.277
73.1061
74.116
73.8716
73.7892
73.7238
73.6296
73.5284
73.4144
73.2773
73.1105
72.9034
74.088
73.8721
73.7878
73.723
73.63
73.5291
73.4152
73.2782
73.1109
72.907
72.6559
74.0591
73.872
73.7862
73.722
73.6306
73.5298
73.4161
73.2791
73.1119
72.9076
72.6588
72.3554
74.0292
73.871
73.7847
73.7213
73.6313
73.5307
73.4171
73.2802
73.1131
72.9089
72.6595
72.3575
71.9934
73.9983
73.8692
73.7835
73.7207
73.6324
73.532
73.4185
73.2817
73.1146
72.9104
72.6611
72.3584
71.9947
71.5616
73.9701
73.8667
73.7826
73.7205
73.6341
73.5341
73.4206
73.2838
73.1167
72.9124
72.663
72.3603
71.9956
71.5618
71.0517
73.9458
73.8637
73.7824
73.7208
73.6368
73.5373
73.4237
73.287
73.1197
72.9152
72.6657
72.3628
71.9981
71.5632
71.051
70.4564
73.9248
73.8607
73.7829
73.7217
73.6406
73.542
73.4285
73.2917
73.1242
72.9193
72.6695
72.3662
72.0011
71.5658
71.0525
70.4545
69.7687
73.9074
73.8574
73.7839
73.7235
73.6459
73.5487
73.4355
73.2986
73.1308
72.9255
72.675
72.3712
72.0055
71.5696
71.0556
70.4562
69.7656
68.9831
73.8928
73.8534
73.7851
73.7259
73.6522
73.5579
73.4454
73.3087
73.1405
72.9345
72.6832
72.3784
72.012
71.5753
71.0604
70.4598
69.7675
68.9785
68.0951
73.8806
73.8492
73.7865
73.7289
73.6592
73.5691
73.459
73.3229
73.1546
72.9477
72.6952
72.3892
72.0213
71.5834
71.0673
70.4656
69.7717
68.9807
68.089
67.1019
73.8703
73.8451
73.7878
73.7326
73.6669
73.5813
73.4756
73.3424
73.1743
72.9667
72.7128
72.4049
72.0351
71.5952
71.0774
70.474
69.7785
68.9855
68.0914
67.094
66.0023
73.862
73.8412
73.7893
73.7368
73.6752
73.5946
73.4937
73.366
73.2012
72.9933
72.738
72.4278
72.0553
71.6126
71.092
70.4863
69.7886
68.9934
68.0968
67.0967
65.9926
64.7971
73.8556
73.8379
73.7909
73.7416
73.6842
73.6088
73.5135
73.3918
73.234
73.0297
72.7732
72.4605
72.0846
71.638
71.1135
70.5041
69.8032
69.0052
68.1058
67.1026
65.9955
64.7855
63.4892
73.8507
73.8352
73.7925
73.7467
73.6936
73.6239
73.5347
73.42
73.2697
73.074
72.8214
72.5063
72.1263
71.6748
71.1449
70.5302
69.8245
69.0224
68.1194
67.1128
66.002
64.7885
63.4755
62.0838
73.8467
73.833
73.7939
73.7519
73.7035
73.6397
73.5573
73.4502
73.3088
73.1223
72.88
72.5689
72.1847
71.7272
71.1904
70.5684
69.8557
69.0473
68.1391
67.1281
66.0131
64.7954
63.4786
62.0679
60.5926
73.8436
73.8313
73.7954
73.7568
73.7133
73.656
73.5808
73.4823
73.3508
73.1752
72.9441
72.6452
72.2647
71.8005
71.2551
70.6236
69.9012
69.0839
68.1679
67.1505
66.0301
64.8074
63.4857
62.0708
60.5729
59.0436
73.8411
73.83
73.7967
73.7613
73.7224
73.6719
73.6052
73.5159
73.3953
73.2321
73.0143
72.7286
72.3623
71.9011
71.3457
70.7022
69.9672
69.1374
68.2101
67.183
66.0548
64.8258
63.4983
62.0776
60.5734
58.983
57.3804
73.8391
73.8289
73.7979
73.7654
73.7306
73.6866
73.629
73.5506
73.4419
73.2925
73.0899
72.8201
72.4691
72.0239
71.4701
70.8124
70.0613
69.2149
68.2718
67.2307
66.0909
64.8526
63.5177
62.0903
60.5787
58.9889
57.3108
55.5868
73.8374
73.828
73.799
73.7691
73.7381
73.6998
73.6509
73.5847
73.4901
73.3557
73.1701
72.9188
72.5865
72.1585
71.6223
70.964
70.1933
69.3257
68.3615
67.3008
66.144
64.8918
63.546
62.1099
60.5898
58.9914
57.3161
55.5615
53.7341
73.836
73.8273
73.7998
73.7725
73.7447
73.7117
73.6706
73.6159
73.5373
73.4211
73.2541
73.0236
72.7131
72.3066
71.7894
71.1497
70.375
69.4814
68.4899
67.4029
66.2222
64.9497
63.5875
62.1387
60.608
58.9994
57.3114
55.5509
53.7236
51.8325
73.8349
73.8268
73.8006
73.7757
73.7507
73.7223
73.6883
73.644
73.5806
73.4852
73.3412
73.1335
72.8478
72.4667
71.9735
71.3539
70.5983
69.6963
68.6709
67.5497
66.3367
65.0356
63.6494
62.1814
60.6356
59.015
57.3172
55.5421
53.7075
51.8263
49.6837
73.8339
73.8263
73.8012
73.7785
73.756
73.7317
73.7041
73.6693
73.6197
73.5441
73.4267
73.2475
72.9893
72.6372
72.1728
71.5794
70.8445
69.961
68.9214
67.7569
66.5018
65.1618
63.7418
62.2459
60.6779
59.0404
57.3314
55.5489
53.6994
51.8085
49.6808
47.2612
73.8331
73.8259
73.8019
73.781
73.7607
73.7401
73.7182
73.6919
73.6548
73.5972
73.5052
73.3594
73.1362
72.8165
72.3854
71.8241
71.1169
70.2535
69.2308
68.0448
66.7357
65.3446
63.8786
62.3434
60.7433
59.0809
57.3551
55.5631
53.7075
51.8015
49.6641
47.2603
44.8189
73.8324
73.8256
73.8024
73.7832
73.7649
73.7476
73.7307
73.7119
73.6861
73.6449
73.5761
73.4624
73.2806
73.003
72.6094
72.0855
71.4129
70.578
69.5736
68.4014
67.0619
65.6049
64.0781
62.4892
60.844
59.1457
57.394
55.5859
53.722
51.8091
49.6569
47.2449
44.8196
42.3867
73.8318
73.8253
73.803
73.7851
73.7686
73.7542
73.7418
73.7298
73.714
73.6875
73.6398
73.5555
73.4136
73.1866
72.8428
72.3615
71.7301
70.9315
69.9549
68.7978
67.4675
65.9695
64.3637
62.7035
60.9968
59.248
57.4578
55.6237
53.7447
51.8234
49.6619
47.2373
44.8061
42.3877
39.9878
73.825
73.8312
73.8035
73.7868
73.7718
73.76
73.7516
73.7456
73.7388
73.7255
73.6967
73.6392
73.534
73.3559
73.073
72.6497
72.0657
71.3111
70.3714
69.24
67.9198
66.4248
64.7657
63.0126
61.2238
59.4057
57.5606
55.6866
53.7817
51.8454
49.6742
47.2394
44.798
42.3751
39.9887
37.6378
73.804
73.8248
73.8304
73.7883
73.7748
73.7652
73.7603
73.7596
73.7608
73.7592
73.7475
73.714
73.6422
73.5093
73.2856
72.9345
72.4168
71.7138
70.82
69.7245
68.4261
66.9344
65.2702
63.4502
61.5539
59.643
57.7217
55.7893
53.8433
51.8807
49.6938
47.2486
44.7973
42.3661
39.9767
37.6382
35.3483
73.7896
73.8047
73.8245
73.8296
73.7773
73.7698
73.768
73.772
73.7802
73.7892
73.7926
73.7808
73.7392
73.6475
73.4786
73.198
72.7646
72.1363
71.2972
70.248
68.9828
67.5069
65.8373
64.0023
62.0241
59.991
57.9668
55.9523
53.9449
51.9398
49.7256
47.2638
44.8027
42.362
39.9662
37.6265
35.3479
33.1294
73.7796
73.7914
73.8056
73.8243
73.8289
73.7738
73.7748
73.783
73.7975
73.8157
73.8327
73.8402
73.8257
73.7713
73.6526
73.4376
73.0873
72.556
71.7994
70.8067
69.5862
68.1386
66.4767
64.6255
62.621
60.4903
58.3294
56.2027
54.1078
52.0384
49.7798
47.2891
44.8122
42.3627
39.9583
37.6142
35.3364
33.1281
30.9896
73.7774
73.7826
73.7934
73.8066
73.8241
73.8283
73.7808
73.7928
73.8128
73.8392
73.8682
73.8929
73.9027
73.882
73.8087
73.6541
73.3812
72.9462
72.2998
71.3965
70.2324
68.8259
67.1851
65.3314
63.2979
61.128
58.8534
56.5763
54.3605
52.1987
49.8725
47.3349
44.8294
42.3653
39.9533
37.6021
35.322
33.1165
30.9875
28.9353
73.7861
73.782
73.7859
73.7955
73.8075
73.8239
73.8277
73.8014
73.8264
73.8601
73.8997
73.9397
73.9712
73.9805
73.9484
73.8486
73.6472
73.3026
72.7664
71.9861
70.9171
69.5646
67.9588
66.1164
64.0679
61.8547
59.5269
57.12
54.7408
52.4502
50.0265
47.4173
44.8642
42.3727
39.9477
37.5907
35.3055
33.0999
30.9757
28.9323
26.9707
73.8088
73.7927
73.787
73.7893
73.7975
73.8084
73.8237
73.8271
73.8384
73.8786
73.9276
73.9812
74.0319
74.0681
74.0729
74.0227
73.8867
73.6258
73.1936
72.5378
71.6042
70.3504
68.7936
66.9772
64.9278
62.685
60.2982
57.8232
55.2984
52.8324
50.2724
47.5595
44.9327
42.3942
39.9436
37.576
35.2873
33.0789
30.9567
28.9203
26.967
25.0985
73.8487
73.8181
73.7998
73.792
73.7926
73.7995
73.8093
73.8235
73.8265
73.895
73.9524
74.018
74.0858
74.146
74.1837
74.1782
74.1013
73.9173
73.582
73.0443
72.2492
71.1422
69.6854
67.9101
65.8749
63.6163
61.1832
58.6322
56.0239
53.3974
50.6512
47.7928
45.0584
42.4459
39.9498
37.5591
35.2626
33.0536
30.9311
28.8988
26.9546
25.094
23.3198
73.9089
73.8615
73.8277
73.8067
73.7968
73.7958
73.8014
73.8102
73.8233
73.826
73.9743
74.0508
74.1337
74.2151
74.2823
74.3167
74.2932
74.179
73.9329
73.506
72.8434
71.8883
70.5879
68.9112
66.9058
64.6466
62.1806
59.565
56.8629
54.1369
51.2164
48.1595
45.2734
42.5512
39.9819
37.5481
35.232
33.0186
30.8986
28.8687
26.9307
25.0813
23.3146
21.6345
73.993
73.9262
73.8741
73.837
73.8135
73.8016
73.799
73.8032
73.8111
73.8232
73.8256
74.0797
74.1763
74.2765
74.3698
74.4399
74.4645
74.4134
74.2487
73.9242
73.3865
72.578
71.4418
69.9289
68.0173
65.7736
63.2893
60.6213
57.8348
54.9967
51.9618
48.7134
45.6194
42.7422
40.0634
37.5585
35.2025
32.9733
30.8528
28.8289
26.896
25.0549
23.3016
21.6286
20.0416
74.1043
74.0159
73.9426
73.8864
73.8462
73.8201
73.8062
73.802
73.805
73.812
73.823
73.8251
74.2139
74.3312
74.4476
74.5495
74.6169
74.6228
74.532
74.3014
73.8799
73.2105
72.2342
70.896
69.1529
66.9945
64.5078
61.8012
58.9411
55.9981
52.8342
49.4512
46.1499
43.0594
40.2253
37.6132
35.1895
32.9246
30.7926
28.7722
26.8489
25.0159
23.2728
21.6153
20.035
18.5391
74.2458
74.1342
74.037
73.9586
73.8984
73.855
73.8264
73.8106
73.8049
73.8067
73.8128
73.8229
73.8248
74.3795
74.5169
74.647
74.7527
74.8095
74.7854
74.6403
74.3258
73.7867
72.9633
71.7971
70.2369
68.2484
65.8347
63.1046
60.1831
57.1437
53.8564
50.3218
46.865
43.5552
40.5065
37.7417
35.2152
32.8872
30.7241
28.6969
26.7814
24.9615
23.2294
21.5841
20.0214
18.5319
17.1246
74.4204
74.2846
74.1611
74.0575
73.9742
73.91
73.8634
73.8324
73.8147
73.8076
73.8083
73.8136
73.8227
73.8244
74.5782
74.734
74.8735
74.9758
75.0118
74.9441
74.7275
74.3089
73.6296
72.6292
71.2512
69.451
67.2047
64.5314
61.5622
58.4366
55.0326
51.3492
47.7167
44.2334
40.9574
37.9805
35.3065
32.882
30.6618
28.6085
26.6909
24.8832
23.168
21.5367
19.9879
18.518
17.1168
15.7949
74.6299
74.4701
74.3185
74.1872
74.0775
73.9891
73.9209
73.8713
73.8381
73.8187
73.8102
73.8098
73.8143
73.8226
73.8241
74.8108
74.9814
75.1242
75.2137
75.2158
75.0882
74.7803
74.2352
73.3922
72.1915
70.5813
68.5253
66.0128
63.0803
59.88
56.3677
52.5392
48.7294
45.0497
41.5856
38.3775
35.4977
32.9335
30.6245
28.5209
26.5829
24.7779
23.0792
21.4684
19.9366
18.4823
17.1027
15.7866
14.5468
74.8754
74.6931
74.5126
74.3514
74.2125
74.0964
74.003
73.9312
73.8788
73.8435
73.8224
73.8126
73.8113
73.815
73.8225
73.8239
75.0766
75.2566
75.3939
75.4586
75.4114
75.2046
74.7834
74.0878
73.0568
71.6334
69.7723
67.4483
64.6657
61.4779
57.8675
53.8992
49.9107
46.0279
42.3505
38.9436
35.8334
33.0729
30.634
28.4508
26.4701
24.6505
22.9594
21.3694
19.8617
18.4273
17.0648
15.7722
14.538
13.3768
75.1566
74.955
74.746
74.5537
74.3831
74.2363
74.1141
74.0161
73.9407
73.8857
73.8485
73.8259
73.8149
73.8126
73.8156
73.8224
73.8236
75.3734
75.555
75.6757
75.7007
75.5855
75.2779
74.7192
73.8482
72.6051
70.9379
68.8104
66.2104
63.1566
59.5385
55.4378
51.2703
47.1771
43.2746
39.6421
36.3265
33.3411
30.7187
28.4172
26.3668
24.5128
22.8133
21.2356
19.7529
18.3461
17.0064
15.7323
14.5234
13.3675
12.2811
75.4715
75.2563
75.0205
74.7971
74.5933
74.4129
74.2584
74.1304
74.0281
73.9495
73.8921
73.853
73.829
73.8168
73.8137
73.8161
73.8224
73.8235
75.697
75.8698
75.9597
75.9271
75.7228
75.2902
74.5687
73.497
72.0187
70.0892
67.6832
64.8012
61.3061
57.1655
52.8199
48.5088
44.3674
40.4925
36.9443
33.7516
30.9144
28.4451
26.2895
24.3767
22.6512
21.0714
19.6057
18.2279
16.9192
15.6707
14.4815
13.3527
12.2712
11.2561
75.8159
75.5953
75.337
75.0838
74.8463
74.6303
74.4404
74.2787
74.1453
74.039
73.9575
73.8979
73.8571
73.8318
73.8185
73.8146
73.8166
73.8223
73.8233
76.0407
76.1915
76.2334
76.1225
75.8052
75.2221
74.3114
73.0141
71.2795
69.0721
66.3772
63.0496
59.0079
54.572
50.0356
45.6403
41.5035
37.7022
34.2759
31.2343
28.5646
26.2597
24.2557
22.4826
20.8855
19.4241
18.0679
16.792
15.5777
14.417
13.309
12.2561
11.2449
10.2993
76.1836
75.969
75.6945
75.4152
75.1447
74.892
74.6642
74.4654
74.297
74.1587
74.0488
73.9646
73.9029
73.8606
73.8341
73.82
73.8154
73.8169
73.8223
73.8232
76.3953
76.508
76.4817
76.2687
75.8126
75.0519
73.926
72.3797
70.3701
67.8706
64.7309
60.8376
56.4512
51.7693
47.1046
42.6847
38.6065
34.924
31.6544
28.7877
26.3001
24.1676
22.3184
20.6854
19.2154
17.8698
16.62
15.4422
14.3186
13.2417
12.2108
11.2297
10.2839
9.5058
76.5656
76.3718
76.0906
75.7908
75.4902
75.201
74.9337
74.6948
74.4878
74.3133
74.1706
74.0573
73.9707
73.9072
73.8635
73.836
73.8212
73.816
73.8172
73.8222
73.823
76.7487
76.804
76.6864
76.3455
75.7229
74.7575
73.3907
71.5741
69.2723
66.3317
62.6095
58.3241
53.6358
48.7726
44.0472
39.6657
35.6999
32.1783
29.095
26.4221
24.1277
22.1724
20.4789
18.9846
17.6391
16.4061
15.2587
14.1751
13.1383
12.1412
11.1831
10.2699
9.49896
8.83684
76.9496
76.7956
76.5204
76.2089
75.8831
75.5593
75.252
74.971
74.722
74.5074
74.3275
74.1807
74.0645
73.9757
73.9106
73.8658
73.8376
73.8221
73.8166
73.8175
73.8222
73.8229
77.0859
77.0615
76.8269
76.33
75.5128
74.3152
72.6843
70.5772
67.8392
64.2999
60.1415
55.5045
50.5812
45.6096
40.8944
36.6131
32.8093
29.4845
26.6112
24.1463
22.0518
20.2758
18.7371
17.3789
16.1545
15.03
13.981
12.9874
12.033
11.1115
10.2223
9.49129
8.841
8.13495
77.3207
77.2295
76.977
76.6657
76.3221
75.9678
75.6216
75.2974
75.0038
74.7455
74.5242
74.3393
74.189
74.0702
73.9795
73.9132
73.8676
73.8389
73.8229
73.817
73.8177
73.8221
73.8228
77.3884
77.2596
76.8797
76.1979
75.1573
73.7025
71.7839
69.2452
65.8932
61.8814
57.3335
52.4159
47.3304
42.3228
37.6846
33.5589
29.959
26.8598
24.2143
21.9667
20.0754
18.4782
17.0919
15.8661
14.7584
13.7383
12.7833
11.8752
10.999
10.1492
9.44274
8.83539
8.13553
7.37958
77.6601
77.6597
77.4503
77.1549
76.8044
76.4258
76.0438
75.6768
75.3371
75.032
74.7653
74.5379
74.3487
74.1952
74.0743
73.9823
73.9152
73.869
73.8398
73.8235
73.8174
73.8179
73.8221
73.8228
77.635
77.3745
76.8201
75.923
74.6322
72.893
70.5465
67.3817
63.5323
59.1087
54.2466
49.1161
43.9346
38.9574
34.4558
30.533
27.171
24.319
21.9131
19.8878
18.1998
16.779
15.5412
14.4433
13.4477
12.5274
11.6617
10.8348
10.0326
9.3691
8.78728
8.12572
7.37358
6.55407
77.9461
78.069
77.9278
77.6681
77.3248
76.9313
76.5187
76.1109
75.7247
75.3707
75.0552
74.7811
74.5484
74.3554
74.1995
74.0771
73.9842
73.9165
73.87
73.8405
73.824
73.8177
73.818
73.8221
73.8227
77.8013
77.3806
76.6206
75.4797
73.9072
71.7431
68.7636
65.0894
60.8212
56.0622
50.9442
45.6565
40.4393
35.5539
31.2416
27.5614
24.4636
21.8739
19.7143
17.9123
16.425
15.1764
14.0824
13.1072
12.219
11.3934
10.6126
9.86241
9.249
8.71269
8.07727
7.3585
6.54461
5.65332
78.1536
78.4372
78.3935
78.1938
77.8759
77.48
77.0447
76.6004
76.1688
75.7649
75.398
75.0734
74.7927
74.5554
74.3596
74.202
74.0787
73.9853
73.9173
73.8706
73.841
73.8242
73.8179
73.8181
73.822
73.8227
77.8606
77.2496
76.2541
74.8336
72.8382
70.04
66.5507
62.4627
57.848
52.7985
47.4671
42.0742
36.8813
32.1465
28.0709
24.6659
21.8515
19.533
17.6218
16.0411
14.7499
13.6679
12.7121
11.8545
11.0682
10.3326
9.63199
9.07406
8.58973
8.001
7.30845
6.52693
5.64253
4.67459
78.2545
78.7408
78.8284
78.7175
78.4475
78.0655
77.6186
77.1442
76.6704
76.217
75.7971
75.4188
75.0861
74.7999
74.5593
74.3616
74.203
74.0793
73.9856
73.9176
73.8708
73.8412
73.8244
73.8181
73.8182
73.822
73.8226
77.7832
76.9526
75.6825
73.8402
71.2146
67.9153
64.0252
59.5866
54.6549
49.3437
43.841
38.3989
33.2924
28.7652
24.9681
21.864
19.3458
17.3024
15.638
14.274
13.1725
12.2507
11.4271
10.6812
9.99166
9.34113
8.83691
8.41075
7.87483
7.22944
6.47513
5.6241
4.66303
3.61267
78.2173
78.954
79.2102
79.2218
79.0266
78.6791
78.2349
77.74
77.2294
76.7285
76.2551
75.821
75.4328
75.0933
74.803
74.5602
74.3615
74.2027
74.0789
73.9854
73.9174
73.8707
73.8413
73.8247
73.8182
73.8182
73.8219
73.8226
77.5372
76.4481
74.7612
72.2967
69.1834
65.5004
61.2604
56.4862
51.2539
45.7122
40.0869
34.6577
29.7019
25.4362
21.9535
19.1694
16.9543
15.1855
13.7633
12.6092
11.6901
10.9213
10.2235
9.58343
8.9854
8.53717
8.16801
7.6914
7.09955
6.39273
5.57086
4.64387
3.60051
2.46052
78.006
79.0484
79.5136
79.6859
79.5975
79.3092
78.8862
78.3835
77.8438
77.2996
76.774
76.283
75.8364
75.4397
75.0954
74.8026
74.5587
74.3598
74.2011
74.0776
73.9845
73.9168
73.8705
73.8415
73.8249
73.8183
73.8181
73.8219
73.8226
77.0774
75.5904
73.2996
70.3619
66.8825
62.8538
58.2666
53.1627
47.6501
41.9169
36.2266
30.8778
26.1373
22.1825
19.0432
16.592
14.6822
13.1838
11.9964
11.0443
10.2994
9.67589
9.09728
8.55734
8.16941
7.86074
7.44258
6.91113
6.25863
5.48504
4.58929
3.58031
2.44805
1.21059
77.5701
78.9925
79.7105
80.0861
80.141
79.9415
79.5623
79.0681
78.5104
77.9293
77.3544
76.8067
76.3001
75.8431
75.4404
75.093
74.799
74.555
74.3565
74.1985
74.0756
73.9829
73.9159
73.8707
73.842
73.8251
73.8182
73.818
73.8219
73.8226
76.2559
74.2056
71.4634
68.1749
64.3553
59.9738
55.0376
49.6146
43.8498
37.9739
32.2843
27.0874
22.6244
19.0236
16.25
14.1385
12.5316
11.2965
10.3352
9.57617
8.99659
8.51057
8.04456
7.72525
7.48283
7.12716
6.65565
6.06463
5.34642
4.50018
3.52419
2.42699
1.19795
-0.14497
78.7414
76.7626
79.7687
80.3957
80.635
80.5586
80.2504
79.7851
79.2237
78.615
77.9958
77.3934
76.8261
76.3064
75.8418
75.4355
75.0867
74.7928
74.5495
74.352
74.1948
74.0727
73.9811
73.916
73.8714
73.8422
73.825
73.8181
73.8179
73.8219
73.8226
74.9162
72.4625
69.3892
65.7658
61.5915
56.85
51.5673
45.8424
39.8627
33.9029
28.2873
23.3151
19.1872
15.9759
13.5829
11.8129
10.5029
9.52197
8.7769
8.20097
7.77768
7.42136
7.19089
7.02515
6.73824
6.33134
5.80183
5.14627
4.35682
3.43169
2.36898
1.17624
-0.157755
-1.61425
79.646
78.159
75.4346
80.5835
81.0548
81.1403
80.935
80.5232
79.9763
79.3523
78.6964
78.0429
77.416
76.8323
76.3031
75.8339
75.4259
75.0771
74.7842
74.5423
74.3461
74.1901
74.0695
73.9809
73.917
73.8717
73.8422
73.8248
73.8178
73.8177
73.8219
73.8227
73.2336
70.4927
67.0966
63.1178
58.5783
53.4738
47.8522
41.8502
35.7032
29.7286
24.2655
19.589
15.847
13.0524
11.0482
9.61626
8.59456
7.85734
7.31746
6.91455
6.63859
6.53823
6.47266
6.26595
5.93049
5.46784
4.87548
4.14999
3.28327
2.27279
1.11621
-0.180126
-1.62717
-3.20566
80.6095
79.2282
77.1207
73.7792
81.3709
81.6633
81.5974
81.2687
80.7584
80.1348
79.4527
78.7542
78.0701
77.4224
76.8267
76.2915
75.8201
75.4122
75.0648
74.7737
74.5336
74.3389
74.1849
74.0689
73.9823
73.9175
73.8717
73.8418
73.8244
73.8176
73.8175
73.8218
73.8227
71.3346
68.3087
64.5644
60.2176
55.3062
49.8389
43.8915
37.646
31.3905
25.4795
20.2504
15.9361
12.6225
10.2629
8.649
7.54822
6.80413
6.29866
5.95266
5.71274
5.71532
5.79528
5.69384
5.44239
5.05406
4.53096
3.87053
3.06922
2.11885
1.0161
-0.242139
-1.65026
-3.21867
-4.92793
81.5463
80.3767
78.3682
75.7658
71.9186
82.1006
82.2163
82.0046
81.5577
80.9543
80.2596
79.5246
78.7877
78.0774
77.4144
76.811
76.2729
75.8015
75.3951
75.0501
74.7613
74.523
74.3311
74.1836
74.0708
73.983
73.9174
73.8712
73.8412
73.8241
73.8173
73.8173
73.8218
73.8228
69.2259
65.8854
61.7794
57.0557
51.7678
45.9412
39.6872
33.2422
26.9493
21.1879
16.2739
12.3817
9.52877
7.6139
6.38639
5.60671
5.12764
4.8415
4.67811
4.73904
4.93879
4.98974
4.84907
4.54886
4.10317
3.51455
2.78037
1.897
0.856173
-0.346307
-1.71426
-3.2425
-4.94095
-6.78991
82.4188
81.5034
79.7376
77.1945
74.1974
69.8558
82.7668
82.7114
82.3593
81.8001
81.1098
80.3498
79.567
78.7972
78.0673
77.3942
76.7867
76.2483
75.7787
75.3752
75.0329
74.7465
74.5119
74.329
74.1862
74.0718
73.983
73.9168
73.8703
73.8409
73.8238
73.8169
73.817
73.8218
73.8229
66.8773
63.2101
58.7332
53.625
47.9573
41.7779
35.2441
28.6561
22.4087
16.8887
12.3677
8.94746
6.57732
5.10917
4.25958
3.78811
3.56055
3.48121
3.646
3.92034
4.09694
4.11614
3.93262
3.5795
3.07163
2.41198
1.598
0.625911
-0.51263
-1.82265
-3.30853
-4.9655
-6.80287
-8.80057
83.2195
82.5612
81.0954
78.7897
75.8127
72.4314
67.5553
83.3664
83.1454
82.659
81.9943
81.2239
80.4045
79.5803
78.7855
78.0424
77.3637
76.7552
76.2187
75.7525
75.3524
75.013
74.7311
74.5086
74.3324
74.1877
74.0718
73.982
73.9156
73.87
73.8407
73.8234
73.8165
73.8166
73.8218
73.823
64.277
60.2769
55.4203
49.9198
43.8691
37.3471
30.57
23.9099
17.8033
12.6187
8.56117
5.65167
3.7764
2.75013
2.26575
2.08797
2.09798
2.38015
2.77852
3.03294
3.1842
3.16865
2.93856
2.52805
1.95273
1.2162
0.315994
-0.751904
-1.99579
-3.42135
-5.03356
-6.82803
-8.813
-10.9697
83.9443
83.5411
82.38
80.3851
77.6359
74.2575
70.4338
65.0047
83.8955
83.5151
82.9017
82.1392
81.2955
80.4242
79.5681
78.7559
78.005
77.3244
76.7178
76.185
75.7228
75.326
74.9923
74.7263
74.5131
74.3343
74.1876
74.0705
73.9804
73.9154
73.8702
73.8404
73.8229
73.8159
73.8162
73.8218
73.8232
61.4213
57.0825
51.8364
45.9332
39.4961
32.6466
25.6762
19.0323
13.1715
8.41457
4.88054
2.50875
1.13109
0.535539
0.400892
0.501273
0.914483
1.45511
1.83857
2.07119
2.19466
2.14124
1.86055
1.38775
0.739398
-0.0802673
-1.07356
-2.24468
-3.60178
-5.15106
-6.898
-8.83822
-10.9792
-13.7149
84.5879
84.4377
83.582
81.9045
79.4681
76.3291
72.4962
68.1928
62.2015
84.35
83.8179
83.0858
82.2332
81.3247
80.4129
79.5342
78.7112
77.9571
77.278
76.6755
76.1473
75.6888
75.2989
74.9856
74.732
74.5156
74.3342
74.1859
74.0684
73.9805
73.9162
73.8702
73.8398
73.8222
73.8153
73.8158
73.8218
73.8233
58.3092
53.6248
47.9755
41.656
34.8277
27.6744
20.5799
14.0584
8.55512
4.31123
1.34844
-0.470729
-1.35703
-1.53751
-1.33984
-0.78251
-0.0794472
0.453214
0.820358
1.02906
1.12217
1.0275
0.691777
0.151502
-0.575861
-1.48532
-2.57888
-3.86089
-5.33925
-7.02037
-8.9101
-11.0044
-13.7279
-16.9874
85.1451
85.2439
84.6966
83.3375
81.2211
78.4127
74.8399
70.513
65.7102
59.1464
84.7265
84.0518
83.2096
82.2765
81.3167
80.3756
79.4821
78.654
77.9007
77.2258
76.6283
76.1043
75.654
75.2898
74.9929
74.7352
74.5154
74.3321
74.1831
74.0688
73.9822
73.9167
73.8698
73.839
73.8213
73.8145
73.8153
73.8218
73.8236
54.9408
49.9006
43.8288
37.0722
29.8505
22.4334
15.3069
9.03057
3.9971
0.341255
-2.01683
-3.28071
-3.68884
-3.47333
-2.7483
-1.86028
-1.15546
-0.63156
-0.282283
-0.0997315
-0.0397895
-0.179444
-0.574882
-1.1882
-2.00094
-3.00717
-4.20845
-5.60921
-7.21675
-9.03759
-11.0773
-13.759
-17.0043
-20.3254
85.6115
85.9513
85.7156
84.6801
82.883
80.4113
77.1935
73.1484
68.3094
62.9931
55.8416
85.0225
84.2142
83.2727
82.2751
81.2774
80.3164
79.415
78.5865
77.8373
77.1679
76.5749
76.0603
75.6421
75.299
74.9969
74.7351
74.5127
74.3283
74.1842
74.072
73.9836
73.9167
73.869
73.8379
73.8202
73.8137
73.8147
73.8218
73.8238
51.3153
45.9036
39.3803
32.1616
24.5545
16.9368
9.89426
3.99682
-0.459276
-3.46676
-5.20243
-5.91863
-5.86743
-5.03979
-3.93032
-3.02651
-2.31992
-1.80557
-1.47576
-1.32179
-1.29812
-1.48671
-1.9469
-2.63921
-3.544
-4.65425
-5.97093
-7.49822
-9.24267
-11.2099
-13.8373
-17.0385
-20.3385
-23.6814
85.9841
86.5532
86.6289
85.9233
84.4505
82.3125
79.456
75.7863
71.2556
65.8955
60.0517
52.2886
85.2344
84.3043
83.2819
82.2358
81.2118
80.2391
79.3356
78.5109
77.7673
77.1025
76.5203
76.045
75.6535
75.304
74.9967
74.7316
74.5079
74.3303
74.1892
74.0747
73.9844
73.9162
73.8679
73.8365
73.8189
73.8127
73.814
73.8218
73.8241
47.4292
41.6218
34.6056
26.8976
18.9287
11.2058
4.38965
-0.98967
-4.77263
-7.09009
-8.20016
-8.38519
-7.63052
-6.35405
-5.20876
-4.28799
-3.57942
-3.07536
-2.76676
-2.64405
-2.65993
-2.90171
-3.43205
-4.20958
-5.21337
-6.43508
-7.87484
-9.53628
-11.4242
-13.9793
-17.1243
-20.3695
-23.6925
-27.0287
86.2582
87.0438
87.4268
87.0561
85.9148
84.1126
81.6161
78.3254
74.19
69.1727
63.2869
56.8964
48.4871
85.3605
84.3299
83.2458
82.165
81.1244
80.1472
79.2465
78.4273
77.6884
77.0356
76.5009
76.059
75.6597
75.3038
74.9924
74.7255
74.511
74.338
74.1938
74.0765
73.9845
73.9153
73.8664
73.8348
73.8174
73.8115
73.8132
73.8219
73.8245
43.2744
37.0288
29.4629
21.2399
12.9612
5.26897
-1.15003
-5.87363
-8.9066
-10.5117
-11.0066
-10.3817
-9.10893
-7.77479
-6.59087
-5.6516
-4.94065
-4.44772
-4.16224
-4.07356
-4.13256
-4.4321
-5.03824
-5.90747
-7.01741
-8.35807
-9.92847
-11.7307
-14.2064
-17.2784
-20.4558
-23.7225
-27.0387
-30.3531
86.4308
87.4166
88.0998
88.0669
87.2645
85.8018
83.6694
80.757
77.0145
72.4159
66.9181
60.5022
53.5384
44.4356
85.4096
84.3011
83.1719
82.0682
81.0196
80.0437
79.1481
78.3332
77.6076
77.0117
76.5181
76.0666
75.6595
75.2985
74.9846
74.7302
74.5221
74.3451
74.1972
74.0775
73.9839
73.9138
73.8644
73.8328
73.8156
73.8101
73.8124
73.822
73.8249
38.8301
32.0828
23.8957
15.1443
6.65246
-0.829426
-6.65946
-10.6013
-12.8306
-13.721
-13.2789
-12.0549
-10.7059
-9.30973
-8.08378
-7.12413
-6.41045
-5.92959
-5.66918
-5.61752
-5.72343
-6.08555
-6.77334
-7.74098
-8.96425
-10.4313
-12.139
-14.5293
-17.5219
-20.6162
-23.8096
-27.0697
-30.3621
-33.6379
86.5118
87.6657
88.6358
88.9445
88.488
87.3686
85.6053
83.0776
79.7243
75.5334
70.483
64.5145
57.5612
49.9904
40.1241
85.3935
84.2269
83.0667
81.9504
80.9008
79.9291
79.0373
78.2369
77.5784
77.0324
76.5272
76.0664
75.6529
75.2888
74.9913
74.7455
74.5325
74.3507
74.1996
74.0777
73.9826
73.9117
73.8619
73.8303
73.8135
73.8086
73.8115
73.822
73.8253
34.0649
26.7301
17.8372
8.57388
0.0238352
-7.0247
-12.0678
-15.122
-16.522
-16.3213
-15.182
-13.8609
-12.4297
-10.9661
-9.69431
-8.71241
-7.99572
-7.52784
-7.29457
-7.28309
-7.43993
-7.86959
-8.6451
-9.71786
-11.0615
-12.6616
-14.9576
-17.8644
-20.8716
-23.9752
-27.159
-30.3938
-33.6457
-36.8622
86.5151
87.8022
89.0217
89.6723
89.5728
88.8003
87.4103
85.2766
82.3181
78.5257
73.9012
68.4161
61.9864
54.4834
46.2602
35.5319
85.323
84.1151
82.9363
81.8159
80.7691
79.8001
78.9237
78.2018
77.6034
77.0433
76.527
76.0584
75.6409
75.2978
75.0119
74.76
74.5409
74.3549
74.2009
74.0769
73.9805
73.9088
73.8589
73.8275
73.8111
73.8069
73.8106
73.8221
73.8258
28.9322
20.8908
11.2012
1.50642
-6.87934
-13.2347
-17.3013
-19.3929
-19.5159
-18.4974
-17.2339
-15.8078
-14.2872
-12.7505
-11.4291
-10.4231
-9.70308
-9.24919
-9.04525
-9.07721
-9.28911
-9.7915
-10.6608
-11.8453
-13.3157
-15.5037
-18.3146
-21.2295
-24.24
-27.3309
-30.4852
-33.6777
-36.8687
-40.0036
86.4534
87.8432
89.2655
90.2295
90.4985
90.0843
89.0697
87.3404
84.7867
81.3938
77.1784
72.143
66.2422
59.3583
51.2892
42.3496
30.6278
85.2075
83.9732
82.786
81.6662
80.6205
79.6676
78.882
78.2316
77.6163
77.0431
76.5174
76.0437
75.6528
75.3249
75.0317
74.7722
74.5478
74.3579
74.201
74.0751
73.9775
73.9053
73.8553
73.8242
73.8086
73.8052
73.8096
73.8222
73.8263
23.3607
14.4444
3.88244
-6.05702
-13.9857
-19.3555
-22.2884
-22.8618
-22.0187
-20.8403
-19.4422
-17.9019
-16.2843
-14.669
-13.2943
-12.2625
-11.5388
-11.1
-10.9276
-11.0064
-11.2776
-11.8578
-12.8268
-14.129
-16.1855
-18.8847
-21.6965
-24.6091
-27.605
-30.663
-33.7703
-36.9007
-40.0087
-43.0407
86.338
87.8042
89.3861
90.6197
91.2372
91.1983
90.5682
89.2528
87.118
84.1319
80.3196
75.7072
70.287
63.989
56.6556
48.001
38.2606
25.3687
85.0557
83.8074
82.6177
81.4967
80.4674
79.6187
78.9173
78.2468
77.6161
77.0317
76.4995
76.0591
75.6877
75.3511
75.0485
74.7824
74.553
74.3593
74.1998
74.0721
73.9735
73.9009
73.8511
73.8206
73.8059
73.8034
73.8087
73.8224
73.8269
17.2416
7.20487
-4.23437
-14.0778
-21.1814
-25.2591
-26.3599
-25.7569
-24.7069
-23.3563
-21.8116
-20.1475
-18.4259
-16.7268
-15.2953
-14.2359
-13.5085
-13.0859
-12.9474
-13.0763
-13.4111
-14.0742
-15.1482
-17.0328
-19.5935
-22.2841
-25.0874
-27.983
-30.9449
-33.9527
-36.9937
-40.0405
-43.0444
-45.9523
86.179
87.6991
89.4022
90.8609
91.7886
92.109
91.8796
90.9961
89.2966
86.7307
83.3228
79.1184
74.1403
68.3626
61.6847
53.9058
44.6412
33.9936
19.6926
84.8753
83.6203
82.4262
81.3215
80.4107
79.6602
78.9351
78.2465
77.6026
77.0101
76.5189
76.1032
75.7215
75.3736
75.0629
74.7906
74.5563
74.359
74.1969
74.0677
73.9683
73.8956
73.8463
73.8167
73.803
73.8015
73.8077
73.8225
73.8275
10.3954
-1.12333
-13.2337
-22.4535
-28.2595
-30.1007
-29.7598
-28.8595
-27.5828
-26.0465
-24.3437
-22.5471
-20.7151
-18.9276
-17.4363
-16.348
-15.6169
-15.2117
-15.1094
-15.2916
-15.694
-16.4447
-18.0951
-20.4734
-23.0121
-25.6856
-28.4681
-31.3287
-34.2395
-37.1789
-40.1332
-43.0755
-45.9545
-48.7183
85.9857
87.5404
89.3311
90.9712
92.1707
92.8137
92.9631
92.5381
91.3043
89.1775
86.1834
82.3798
77.8178
72.5072
66.3993
59.3581
51.1364
41.2325
29.5589
13.5212
84.6696
83.4062
82.2276
81.2563
80.4592
79.6809
78.9349
78.2307
77.5767
77.0342
76.5738
76.146
75.7509
75.3931
75.0748
74.7964
74.5574
74.3567
74.1924
74.0618
73.962
73.8896
73.8411
73.8126
73.8
73.7996
73.8067
73.8226
73.8282
2.51166
-11.009
-23.1359
-30.8625
-34.1231
-34.1314
-33.3899
-32.1702
-30.6419
-28.9069
-27.0367
-25.1004
-23.1529
-21.2732
-19.7198
-18.6016
-17.8671
-17.4807
-17.4168
-17.6554
-18.1294
-19.4475
-21.5768
-23.9151
-26.4247
-29.0709
-31.816
-34.6247
-37.4672
-40.3193
-43.1669
-45.9847
-48.719
-51.3188
85.7623
87.3391
89.1892
90.9683
92.4013
93.3316
93.8139
93.8271
93.1045
91.4559
88.8926
85.4922
81.329
76.4472
70.8376
64.4259
57.036
48.3787
37.8106
25.0026
6.74768
84.4326
83.1831
82.1535
81.3127
80.4831
79.6806
78.9164
78.2
77.6061
77.1015
76.6271
76.1835
75.7767
75.4097
75.0839
74.7995
74.556
74.3522
74.1859
74.0544
73.9546
73.883
73.8356
73.8082
73.7969
73.7976
73.8057
73.8228
73.8288
-7.09131
-23.2606
-33.3918
-38.0826
-38.9571
-38.3909
-37.2293
-35.6748
-33.874
-31.9288
-29.8851
-27.8039
-25.7371
-23.7632
-22.1463
-20.9979
-20.2606
-19.8945
-19.871
-20.1689
-21.206
-22.9826
-25.048
-27.3413
-29.8136
-32.4175
-35.1088
-37.8494
-40.6056
-43.3515
-46.0738
-48.7476
-51.3182
-53.7363
85.5028
87.1002
88.9909
90.8706
92.4982
93.6815
94.4542
94.8508
94.634
93.5277
91.4381
88.4525
84.681
80.1991
75.0357
69.16
62.4685
54.7485
45.6785
34.4158
20.4167
-0.813567
84.1841
83.0995
82.2187
81.3403
80.4828
79.6592
78.8801
78.2354
77.6874
77.1668
76.674
76.2167
75.7989
75.4228
75.0896
74.7994
74.5519
74.3452
74.1773
74.0455
73.9463
73.8758
73.8297
73.8037
73.7936
73.7955
73.8047
73.823
73.8296
-19.9689
-37.1752
-43.2489
-44.2546
-44.0452
-42.8377
-41.2339
-39.3433
-37.2627
-35.0978
-32.8783
-30.65
-28.4627
-26.394
-24.7136
-23.5356
-22.7965
-22.4521
-22.4714
-23.3338
-24.8112
-26.4926
-28.4923
-30.7349
-33.1568
-35.703
-38.325
-40.9804
-43.6323
-46.2544
-48.8333
-51.3447
-53.7342
-55.9511