/*--------------------------------*- C++ -*----------------------------------*\
  =========                 |
  \\      /  F ield         | OpenFOAM: The Open Source CFD Toolbox
   \\    /   O peration     | Website:  https://openfoam.org
    \\  /    A nd           | Version:  8
     \\/     M anipulation  |
\*---------------------------------------------------------------------------*/
FoamFile
{
    version     2.0;
    format      ascii;
    class       volVectorField;
    location    "0.16";
    object      U;
}
// * * * * * * * * * * * * * * * * * * * * * * * * * * * * * * * * * * * * * //

dimensions      [0 1 -1 0 0 0 0];

internalField   nonuniform List<vector> 
15677
(
(-0.0199328 9.66504 0)
(0.0435805 9.92083 0)
(0.00238414 9.37789 0)
(0.0147454 9.97645 0)
(0.0186206 9.78763 0)
(0.00702304 9.14207 0)
(0.027973 9.99431 0)
(0.0171222 9.92468 0)
(0.0107419 9.65469 0)
(0.00608774 8.95962 0)
(0.026125 10.0015 0)
(0.0215248 9.97843 0)
(0.0164112 9.85314 0)
(0.00902991 9.52987 0)
(0.00491425 8.81614 0)
(0.0249756 10.0047 0)
(0.0224061 10.0025 0)
(0.0192083 9.94263 0)
(0.0153909 9.77883 0)
(0.00789622 9.41882 0)
(0.00404619 8.7014 0)
(0.0240046 10.0061 0)
(0.0225906 10.0141 0)
(0.0208301 9.98583 0)
(0.0183119 9.90192 0)
(0.0139229 9.70725 0)
(0.00682778 9.32053 0)
(0.00338144 8.60881 0)
(0.0226689 10.0067 0)
(0.0224403 10.0198 0)
(0.0216692 10.0078 0)
(0.0202239 9.96451 0)
(0.0170828 9.86122 0)
(0.0124989 9.63991 0)
(0.00588618 9.23504 0)
(0.00282726 8.53436 0)
(0.0209907 10.0066 0)
(0.021912 10.0222 0)
(0.0220078 10.0193 0)
(0.0213295 9.99766 0)
(0.0191371 9.9431 0)
(0.0157058 9.8215 0)
(0.0111473 9.57839 0)
(0.00502018 9.16235 0)
(0.00231991 8.47527 0)
(0.0190816 10.0063 0)
(0.0210867 10.0225 0)
(0.0219195 10.0252 0)
(0.0218454 10.0158 0)
(0.0203271 9.98758 0)
(0.0177858 9.92205 0)
(0.0142536 9.78423 0)
(0.00977759 9.52406 0)
(0.00417316 9.10219 0)
(0.00182172 8.42998 0)
(0.0170185 10.0057 0)
(0.0200444 10.0217 0)
(0.0214854 10.0282 0)
(0.0218939 10.0258 0)
(0.0208943 10.0125 0)
(0.0189569 9.97791 0)
(0.0162643 9.90255 0)
(0.0126617 9.75085 0)
(0.00832836 9.47786 0)
(0.00330089 9.05429 0)
(0.00130449 8.39746 0)
(0.0148142 10.0051 0)
(0.0187647 10.0202 0)
(0.020749 10.0289 0)
(0.0215953 10.0312 0)
(0.0209667 10.0268 0)
(0.0194446 10.0097 0)
(0.0173199 9.9696 0)
(0.0144946 9.88575 0)
(0.0108685 9.7225 0)
(0.0067525 9.4405 0)
(0.00236378 9.01854 0)
(0.000745966 8.37738 0)
(0.0125111 10.0043 0)
(0.0173615 10.0182 0)
(0.019716 10.0282 0)
(0.0209547 10.0337 0)
(0.0206036 10.0348 0)
(0.0194002 10.0282 0)
(0.0176329 10.0082 0)
(0.0153268 9.96366 0)
(0.0124005 9.87263 0)
(0.00881735 9.70015 0)
(0.00500141 9.41268 0)
(0.00132972 8.99495 0)
(0.000116587 8.36948 0)
(0.0102448 10.0036 0)
(0.0158872 10.016 0)
(0.0184339 10.0266 0)
(0.0199967 10.0341 0)
(0.0199154 10.039 0)
(0.0189078 10.039 0)
(0.0173635 10.0309 0)
(0.0153528 10.0089 0)
(0.0128873 9.96094 0)
(0.00990952 9.8641 0)
(0.00644705 9.68482 0)
(0.00303034 9.39499 0)
(0.000183984 8.98362 0)
(-0.000503421 8.3737 0)
(0.0083005 10.0029 0)
(0.0143067 10.0135 0)
(0.0169498 10.0242 0)
(0.0187337 10.0331 0)
(0.0188867 10.0405 0)
(0.0180274 10.0449 0)
(0.0166036 10.0443 0)
(0.0147338 10.0358 0)
(0.0124962 10.0127 0)
(0.00990974 9.96227 0)
(0.00694316 9.86112 0)
(0.00369816 9.67743 0)
(0.000792271 9.38801 0)
(-0.00111744 8.98481 0)
(-0.00124784 8.39006 0)
(0.00676146 10.0022 0)
(0.0127809 10.0112 0)
(0.0152953 10.0214 0)
(0.0171783 10.031 0)
(0.017525 10.0402 0)
(0.0167707 10.0476 0)
(0.0153994 10.052 0)
(0.0135631 10.0518 0)
(0.0113843 10.0435 0)
(0.00895138 10.0203 0)
(0.00629334 9.96849 0)
(0.00342384 9.86463 0)
(0.000509025 9.67889 0)
(-0.00175055 9.39233 0)
(-0.00259033 8.99863 0)
(-0.00208353 8.41882 0)
(0.00561193 10.0017 0)
(0.0113937 10.0093 0)
(0.0136712 10.0187 0)
(0.015358 10.0282 0)
(0.0158353 10.0385 0)
(0.0151438 10.0481 0)
(0.0137681 10.0559 0)
(0.0118842 10.0611 0)
(0.00964301 10.062 0)
(0.00718127 10.0549 0)
(0.00459414 10.0324 0)
(0.00194166 9.98047 0)
(-0.000705198 9.87556 0)
(-0.00313773 9.68997 0)
(-0.00459764 9.40842 0)
(-0.00423384 9.0253 0)
(-0.00300756 8.45996 0)
(0.00465335 10.0014 0)
(0.0100336 10.0076 0)
(0.0121949 10.0162 0)
(0.0135133 10.0253 0)
(0.0138313 10.0357 0)
(0.0131496 10.0468 0)
(0.0117132 10.057 0)
(0.00971157 10.066 0)
(0.00731186 10.0729 0)
(0.00468509 10.0757 0)
(0.00197712 10.0706 0)
(-0.000699705 10.0499 0)
(-0.00324967 9.99909 0)
(-0.00555042 9.89478 0)
(-0.00730517 9.71144 0)
(-0.0077981 9.43665 0)
(-0.00605578 9.06481 0)
(-0.00401729 8.51349 0)
(0.00387576 10.0011 0)
(0.00881422 10.0063 0)
(0.0107953 10.0141 0)
(0.0118078 10.0226 0)
(0.0117638 10.0326 0)
(0.0107973 10.0441 0)
(0.00923485 10.0561 0)
(0.00704577 10.0678 0)
(0.00440027 10.0787 0)
(0.00149562 10.088 0)
(-0.00148769 10.0936 0)
(-0.00439049 10.0915 0)
(-0.0070593 10.0737 0)
(-0.00936304 10.0252 0)
(-0.0111352 9.92309 0)
(-0.0120263 9.74386 0)
(-0.0113629 9.47726 0)
(-0.00806058 9.11723 0)
(-0.0051101 8.57922 0)
(0.00324363 10.0009 0)
(0.00771535 10.0053 0)
(0.00951151 10.0123 0)
(0.0102021 10.0201 0)
(0.00982442 10.0295 0)
(0.00837092 10.0407 0)
(0.00634085 10.0535 0)
(0.00388454 10.0672 0)
(0.000903937 10.081 0)
(-0.00238533 10.0947 0)
(-0.00577726 10.1072 0)
(-0.00906884 10.1165 0)
(-0.0120652 10.1183 0)
(-0.0145838 10.1044 0)
(-0.016462 10.0595 0)
(-0.0174935 9.96115 0)
(-0.0173062 9.78767 0)
(-0.0152853 9.53035 0)
(-0.0102341 9.18228 0)
(-0.00627454 8.65676 0)
(0.00272508 10.0007 0)
(0.00672326 10.0044 0)
(0.00832929 10.0107 0)
(0.00871141 10.0179 0)
(0.00798822 10.0266 0)
(0.00609601 10.0373 0)
(0.00337456 10.0499 0)
(0.000236481 10.0645 0)
(-0.00317824 10.0806 0)
(-0.00696684 10.0974 0)
(-0.0108949 10.1146 0)
(-0.0147273 10.1312 0)
(-0.0182303 10.1451 0)
(-0.0211772 10.1518 0)
(-0.0233617 10.1428 0)
(-0.0245916 10.1027 0)
(-0.0246384 10.0095 0)
(-0.0231343 9.8431 0)
(-0.0195475 9.59583 0)
(-0.0125674 9.25972 0)
(-0.0075023 8.74564 0)
(0.0023138 10.0006 0)
(0.00583159 10.0037 0)
(0.00724329 10.0093 0)
(0.00733802 10.0159 0)
(0.00627435 10.0239 0)
(0.00394813 10.0339 0)
(0.000607665 10.046 0)
(-0.00346968 10.0605 0)
(-0.00783422 10.0777 0)
(-0.012253 10.0969 0)
(-0.01686 10.1175 0)
(-0.021388 10.1391 0)
(-0.0255672 10.1607 0)
(-0.029133 10.1802 0)
(-0.0318362 10.1927 0)
(-0.0334501 10.1896 0)
(-0.0337683 10.1553 0)
(-0.0325571 10.0685 0)
(-0.029483 9.91021 0)
(-0.0241183 9.67344 0)
(-0.0150278 9.34887 0)
(-0.00877137 8.845 0)
(0.00199866 10.0005 0)
(0.00506993 10.0032 0)
(0.00625143 10.0081 0)
(0.00608392 10.0142 0)
(0.00469557 10.0215 0)
(0.00195305 10.0307 0)
(-0.0019887 10.0421 0)
(-0.00690542 10.0561 0)
(-0.0125273 10.0732 0)
(-0.0182281 10.0936 0)
(-0.0236808 10.1168 0)
(-0.0290804 10.1421 0)
(-0.0341178 10.169 0)
(-0.0384892 10.1965 0)
(-0.0419091 10.2224 0)
(-0.0441138 10.2416 0)
(-0.0448708 10.2453 0)
(-0.0439749 10.2178 0)
(-0.0412115 10.1383 0)
(-0.036304 9.98882 0)
(-0.0289508 9.76267 0)
(-0.0175941 9.44913 0)
(-0.0100639 8.95407 0)
(0.0017543 10.0004 0)
(0.00445563 10.0027 0)
(0.00538933 10.0072 0)
(0.00494879 10.0126 0)
(0.00325976 10.0192 0)
(0.000129131 10.0276 0)
(-0.00438076 10.0382 0)
(-0.0101123 10.0514 0)
(-0.0168528 10.068 0)
(-0.0242075 10.0884 0)
(-0.031337 10.113 0)
(-0.0378177 10.141 0)
(-0.0439258 10.1718 0)
(-0.0493125 10.2049 0)
(-0.0536519 10.2393 0)
(-0.0566483 10.2723 0)
(-0.0580397 10.299 0)
(-0.0576051 10.3102 0)
(-0.0551619 10.2902 0)
(-0.0505338 10.2187 0)
(-0.0435266 10.0786 0)
(-0.0339894 9.86287 0)
(-0.0202074 9.55944 0)
(-0.0113397 9.07123 0)
(0.00156145 10.0004 0)
(0.00395977 10.0024 0)
(0.00467237 10.0064 0)
(0.00397399 10.0112 0)
(0.00197084 10.0171 0)
(-0.00151097 10.0247 0)
(-0.00654512 10.0344 0)
(-0.0130454 10.0467 0)
(-0.0208662 10.0624 0)
(-0.0296891 10.0822 0)
(-0.0389556 10.1067 0)
(-0.0475739 10.1363 0)
(-0.055012 10.1701 0)
(-0.0616667 10.2074 0)
(-0.0671627 10.2476 0)
(-0.0711666 10.2895 0)
(-0.0733912 10.3305 0)
(-0.0735952 10.3653 0)
(-0.0715917 10.3845 0)
(-0.0672404 10.3727 0)
(-0.060428 10.3097 0)
(-0.0510633 10.1788 0)
(-0.0391214 9.97312 0)
(-0.0227558 9.67847 0)
(-0.0121649 9.19475 0)
(0.00140687 10.0003 0)
(0.00355425 10.0022 0)
(0.0040796 10.0057 0)
(0.00317977 10.01 0)
(0.000879646 10.0152 0)
(-0.00296024 10.022 0)
(-0.00846393 10.0307 0)
(-0.015672 10.042 0)
(-0.024512 10.0566 0)
(-0.0347492 10.0754 0)
(-0.0459108 10.0993 0)
(-0.0572424 10.1287 0)
(-0.0673458 10.1642 0)
(-0.0755841 10.2048 0)
(-0.0825317 10.2495 0)
(-0.087806 10.2976 0)
(-0.0910869 10.3478 0)
(-0.0921182 10.3973 0)
(-0.0907076 10.4406 0)
(-0.086724 10.4683 0)
(-0.0800899 10.4649 0)
(-0.0707724 10.4105 0)
(-0.0587674 10.2889 0)
(-0.0442915 10.0922 0)
(-0.0252571 9.80593 0)
(-0.0130194 9.32465 0)
(0.00128134 10.0003 0)
(0.00322145 10.0019 0)
(0.00359118 10.0052 0)
(0.00253602 10.0091 0)
(9.69612e-06 10.0136 0)
(-0.00416105 10.0195 0)
(-0.010126 10.0271 0)
(-0.0179677 10.0373 0)
(-0.027747 10.0507 0)
(-0.0393195 10.0683 0)
(-0.0523066 10.091 0)
(-0.0660438 10.1197 0)
(-0.0795361 10.155 0)
(-0.0910321 10.1975 0)
(-0.099808 10.2458 0)
(-0.106689 10.2987 0)
(-0.111311 10.3555 0)
(-0.113396 10.4145 0)
(-0.112751 10.4729 0)
(-0.109255 10.5251 0)
(-0.102853 10.5614 0)
(-0.0935486 10.5664 0)
(-0.0813805 10.5205 0)
(-0.066486 10.4075 0)
(-0.048612 10.2194 0)
(-0.0212938 9.93527 0)
(-0.00780043 9.39798 0)
(0.00117815 10.0003 0)
(0.00294631 10.0018 0)
(0.00318682 10.0048 0)
(0.0020133 10.0082 0)
(-0.000676406 10.0123 0)
(-0.00509256 10.0173 0)
(-0.0114647 10.0239 0)
(-0.0199162 10.0327 0)
(-0.0305386 10.0448 0)
(-0.0433446 10.0609 0)
(-0.0580588 10.0821 0)
(-0.0741166 10.1095 0)
(-0.0906142 10.1441 0)
(-0.106276 10.1863 0)
(-0.118957 10.2367 0)
(-0.127889 10.2937 0)
(-0.134232 10.3556 0)
(-0.137675 10.4216 0)
(-0.138014 10.4899 0)
(-0.135147 10.5574 0)
(-0.129054 10.6185 0)
(-0.119778 10.6634 0)
(-0.107392 10.6767 0)
(-0.0920437 10.6389 0)
(-0.0736407 10.5339 0)
(-0.0527726 10.3515 0)
(-0.0165902 10.0948 0)
(-0.000279205 9.45087 0)
(0.00109238 10.0003 0)
(0.00271769 10.0016 0)
(0.00284582 10.0044 0)
(0.00158888 10.0076 0)
(-0.00121685 10.0111 0)
(-0.00580235 10.0155 0)
(-0.0124657 10.021 0)
(-0.021439 10.0284 0)
(-0.0328635 10.0389 0)
(-0.0467812 10.0533 0)
(-0.0630969 10.0728 0)
(-0.0813572 10.0985 0)
(-0.100762 10.1316 0)
(-0.120121 10.173 0)
(-0.137847 10.2231 0)
(-0.151381 10.2825 0)
(-0.159957 10.349 0)
(-0.16517 10.4205 0)
(-0.166801 10.4962 0)
(-0.164767 10.574 0)
(-0.159088 10.6507 0)
(-0.149866 10.7206 0)
(-0.137235 10.7737 0)
(-0.121357 10.7948 0)
(-0.102225 10.7646 0)
(-0.0797409 10.6667 0)
(-0.0559208 10.4966 0)
(-0.0179703 10.255 0)
(0.00416832 9.49461 0)
(0.00102038 10.0002 0)
(0.00252681 10.0015 0)
(0.00256172 10.0041 0)
(0.00124657 10.007 0)
(-0.00164148 10.0101 0)
(-0.00633783 10.0139 0)
(-0.0131924 10.0185 0)
(-0.0225297 10.0246 0)
(-0.0346279 10.0333 0)
(-0.0495973 10.0458 0)
(-0.0673642 10.0633 0)
(-0.0876765 10.087 0)
(-0.109852 10.1181 0)
(-0.132801 10.1578 0)
(-0.155008 10.2071 0)
(-0.174566 10.2661 0)
(-0.188469 10.3353 0)
(-0.196026 10.4121 0)
(-0.199393 10.4938 0)
(-0.1985 10.5794 0)
(-0.193413 10.6668 0)
(-0.184303 10.7525 0)
(-0.171393 10.8308 0)
(-0.154914 10.8917 0)
(-0.134946 10.9201 0)
(-0.111385 10.897 0)
(-0.0843436 10.8068 0)
(-0.056648 10.6537 0)
(-0.021023 10.4112 0)
(0.00519885 9.53733 0)
(0.000959456 10.0002 0)
(0.00236663 10.0014 0)
(0.00232395 10.0038 0)
(0.000965356 10.0065 0)
(-0.00197421 10.0093 0)
(-0.00673699 10.0125 0)
(-0.0137058 10.0163 0)
(-0.0232736 10.0213 0)
(-0.0358359 10.0283 0)
(-0.0516789 10.0386 0)
(-0.0708172 10.0537 0)
(-0.0930007 10.075 0)
(-0.117772 10.1038 0)
(-0.144159 10.1413 0)
(-0.170738 10.1887 0)
(-0.195652 10.2469 0)
(-0.216636 10.3159 0)
(-0.230258 10.3958 0)
(-0.236001 10.4834 0)
(-0.236711 10.5756 0)
(-0.23251 10.6712 0)
(-0.22365 10.7679 0)
(-0.210457 10.8623 0)
(-0.193283 10.9485 0)
(-0.172359 11.0166 0)
(-0.14773 11.0519 0)
(-0.119733 11.0357 0)
(-0.0885374 10.9543 0)
(-0.0576236 10.8174 0)
(-0.0233254 10.5622 0)
(0.00482719 9.5932 0)
(0.000907535 10.0002 0)
(0.00223147 10.0014 0)
(0.00212629 10.0036 0)
(0.000734224 10.006 0)
(-0.00223524 10.0085 0)
(-0.00703034 10.0113 0)
(-0.0140552 10.0144 0)
(-0.0237512 10.0184 0)
(-0.0366017 10.0239 0)
(-0.0530433 10.0321 0)
(-0.0733152 10.0444 0)
(-0.0972716 10.0628 0)
(-0.124427 10.0888 0)
(-0.154055 10.1236 0)
(-0.184846 10.1686 0)
(-0.215013 10.2249 0)
(-0.242305 10.293 0)
(-0.264141 10.3729 0)
(-0.276677 10.4642 0)
(-0.279685 10.563 0)
(-0.276837 10.6659 0)
(-0.268488 10.7714 0)
(-0.255098 10.8771 0)
(-0.237159 10.9796 0)
(-0.2151 11.073 0)
(-0.18919 11.1478 0)
(-0.159878 11.1896 0)
(-0.127957 11.1799 0)
(-0.0934444 11.1082 0)
(-0.0593461 10.9826 0)
(-0.0256693 10.7252 0)
(0.00378104 9.65869 0)
(0.000862998 10.0002 0)
(0.00211676 10.0013 0)
(0.00196056 10.0034 0)
(0.000541904 10.0056 0)
(-0.00243973 10.0079 0)
(-0.00724203 10.0102 0)
(-0.0142795 10.0127 0)
(-0.0240267 10.0158 0)
(-0.0370309 10.02 0)
(-0.0538417 10.0263 0)
(-0.074891 10.036 0)
(-0.100313 10.051 0)
(-0.12974 10.0735 0)
(-0.162368 10.1051 0)
(-0.197158 10.147 0)
(-0.232416 10.2006 0)
(-0.265935 10.2669 0)
(-0.295099 10.346 0)
(-0.317039 10.4375 0)
(-0.327529 10.5408 0)
(-0.326764 10.6512 0)
(-0.319381 10.7646 0)
(-0.306008 10.8796 0)
(-0.287326 10.9938 0)
(-0.263971 11.1037 0)
(-0.236478 11.2037 0)
(-0.205442 11.2847 0)
(-0.171748 11.3323 0)
(-0.136376 11.3286 0)
(-0.0990525 11.2657 0)
(-0.0622491 11.1662 0)
(-0.0281825 10.9001 0)
(0.0022163 9.73243 0)
(0.000824604 10.0002 0)
(0.00201888 10.0012 0)
(0.00181994 10.0032 0)
(0.00038273 10.0053 0)
(-0.00259998 10.0073 0)
(-0.00739105 10.0093 0)
(-0.0144095 10.0113 0)
(-0.0241513 10.0136 0)
(-0.037208 10.0166 0)
(-0.0542122 10.0212 0)
(-0.0757422 10.0285 0)
(-0.102175 10.0402 0)
(-0.133487 10.0585 0)
(-0.168995 10.086 0)
(-0.207518 10.1243 0)
(-0.247647 10.1746 0)
(-0.287244 10.238 0)
(-0.323693 10.3153 0)
(-0.354033 10.4063 0)
(-0.375145 10.5101 0)
(-0.38248 10.6257 0)
(-0.376811 10.7477 0)
(-0.363875 10.8714 0)
(-0.344594 10.9954 0)
(-0.319876 11.1174 0)
(-0.29052 11.234 0)
(-0.257344 11.34 0)
(-0.221327 11.4264 0)
(-0.183577 11.4788 0)
(-0.144928 11.4799 0)
(-0.10551 11.4433 0)
(-0.0660381 11.3662 0)
(-0.0307918 11.0694 0)
(0.000499902 9.8127 0)
(0.000791731 10.0002 0)
(0.00193474 10.0012 0)
(0.00170003 10.0031 0)
(0.000251315 10.005 0)
(-0.00272517 10.0068 0)
(-0.00749222 10.0085 0)
(-0.0144692 10.01 0)
(-0.0241647 10.0116 0)
(-0.0371997 10.0136 0)
(-0.0542652 10.0167 0)
(-0.0760481 10.0218 0)
(-0.103113 10.0306 0)
(-0.135737 10.0449 0)
(-0.173654 10.0673 0)
(-0.215793 10.1008 0)
(-0.26051 10.147 0)
(-0.305968 10.2068 0)
(-0.349586 10.2812 0)
(-0.388337 10.3705 0)
(-0.418946 10.4743 0)
(-0.438119 10.591 0)
(-0.441074 10.7191 0)
(-0.429314 10.8524 0)
(-0.409795 10.9859 0)
(-0.383757 11.1182 0)
(-0.352345 11.2472 0)
(-0.316636 11.3699 0)
(-0.277791 11.481 0)
(-0.237018 11.5717 0)
(-0.195357 11.6275 0)
(-0.154234 11.6506 0)
(-0.112521 11.6394 0)
(-0.0701208 11.5611 0)
(-0.0332886 11.2329 0)
(-0.00117785 9.89739 0)
(0.00186163 10.0011 0)
(0.000752242 10.0002 0)
(0.00159664 10.0029 0)
(0.000142435 10.0047 0)
(-0.00282257 10.0064 0)
(-0.00755706 10.0078 0)
(-0.0144775 10.0089 0)
(-0.0240982 10.0098 0)
(-0.0370582 10.0109 0)
(-0.054088 10.0126 0)
(-0.0759522 10.0159 0)
(-0.103357 10.022 0)
(-0.136814 10.0326 0)
(-0.176427 10.0502 0)
(-0.221621 10.0777 0)
(-0.270831 10.1183 0)
(-0.321865 10.1737 0)
(-0.372456 10.2442 0)
(-0.419552 10.3308 0)
(-0.459745 10.4332 0)
(-0.489514 10.5503 0)
(-0.505492 10.6801 0)
(-0.502754 10.8206 0)
(-0.483693 10.9649 0)
(-0.456597 11.1076 0)
(-0.423039 11.2474 0)
(-0.384467 11.3826 0)
(-0.342283 11.5103 0)
(-0.297877 11.6255 0)
(-0.252467 11.7189 0)
(-0.208173 11.7946 0)
(-0.164087 11.8395 0)
(-0.119211 11.8322 0)
(-0.0741677 11.7498 0)
(-0.0355699 11.3903 0)
(-0.00269986 9.9846 0)
(0.00150656 10.0028 0)
(0.00177694 10.0011 0)
(0.000704721 10.0001 0)
(5.20155e-05 10.0045 0)
(-0.00289815 10.006 0)
(-0.00759423 10.0071 0)
(-0.0144487 10.0079 0)
(-0.0239759 10.0083 0)
(-0.0368241 10.0085 0)
(-0.0537484 10.0091 0)
(-0.0755676 10.0107 0)
(-0.103091 10.0143 0)
(-0.13701 10.0216 0)
(-0.177721 10.0348 0)
(-0.225097 10.0564 0)
(-0.278149 10.09 0)
(-0.334709 10.139 0)
(-0.392 10.2049 0)
(-0.44729 10.2875 0)
(-0.497076 10.3873 0)
(-0.537624 10.5036 0)
(-0.565263 10.6346 0)
(-0.57667 10.7776 0)
(-0.566882 10.9302 0)
(-0.539336 11.0848 0)
(-0.503754 11.2358 0)
(-0.462073 11.3822 0)
(-0.416073 11.5226 0)
(-0.367398 11.6542 0)
(-0.31749 11.7719 0)
(-0.269172 11.8844 0)
(-0.221624 11.9793 0)
(-0.173329 12.026 0)
(-0.125414 12.0199 0)
(-0.0779752 11.9311 0)
(-0.0376068 11.5412 0)
(-0.00409091 10.0727 0)
(-2.9347e-05 10.0043 0)
(0.00141294 10.0027 0)
(0.00167267 10.001 0)
(0.000659412 10.0001 4.58946e-20)
(-0.00295759 10.0057 0)
(-0.00761067 10.0066 0)
(-0.0143934 10.007 0)
(-0.0238161 10.0069 0)
(-0.0365283 10.0065 0)
(-0.0532992 10.006 0)
(-0.0749826 10.006 0)
(-0.102461 10.0075 0)
(-0.13656 10.0119 0)
(-0.177903 10.0209 0)
(-0.226721 10.0372 0)
(-0.28256 10.0639 0)
(-0.343913 10.1047 0)
(-0.407934 10.1635 0)
(-0.471178 10.2412 0)
(-0.530474 10.3372 0)
(-0.581911 10.4512 0)
(-0.621516 10.582 0)
(-0.645583 10.7271 0)
(-0.650962 10.8832 0)
(-0.632767 11.0474 0)
(-0.595629 11.2114 0)
(-0.550792 11.3698 0)
(-0.500562 11.5217 0)
(-0.446984 11.6662 0)
(-0.391806 11.8002 0)
(-0.338573 11.9365 0)
(-0.286599 12.067 0)
(-0.234084 12.1615 0)
(-0.181824 12.2083 0)
(-0.131018 12.2011 0)
(-0.0814282 12.1045 0)
(-0.0393654 11.6854 0)
(-0.00534828 10.1602 0)
(-0.00301115 10.0054 0)
(-9.87016e-05 10.0041 0)
(0.00130743 10.0025 2.08868e-19)
(0.00157227 10.0009 -1.45507e-19)
(0.000616208 10.0001 -9.00809e-20)
(-0.00761314 10.0061 0)
(-0.0143199 10.0063 0)
(-0.0236321 10.0057 0)
(-0.0361946 10.0046 0)
(-0.0527805 10.0032 0)
(-0.0742653 10.0019 0)
(-0.101581 10.0015 0)
(-0.135651 10.0031 0)
(-0.177269 10.0085 0)
(-0.226951 10.0199 0)
(-0.284674 10.0402 0)
(-0.349559 10.073 0)
(-0.419506 10.1224 0)
(-0.490858 10.1924 0)
(-0.559488 10.2833 0)
(-0.621827 10.3938 0)
(-0.673632 10.5229 0)
(-0.710805 10.6687 0)
(-0.729738 10.8279 0)
(-0.727601 10.9966 0)
(-0.699693 11.1716 0)
(-0.651983 11.3442 0)
(-0.597287 11.5087 0)
(-0.538213 11.665 0)
(-0.476958 11.8119 0)
(-0.417955 11.9644 0)
(-0.360513 12.1183 0)
(-0.30264 12.2472 0)
(-0.245423 12.3396 0)
(-0.189459 12.3847 0)
(-0.135967 12.3748 0)
(-0.0844732 12.2695 0)
(-0.0408402 11.8226 0)
(-0.00646062 10.246 0)
(-0.00761696 10.0057 0)
(-0.00302046 10.005 -4.71878e-19)
(-0.000156621 10.0038 -2.20718e-19)
(0.00120705 10.0023 1.02505e-19)
(0.0014749 10.0009 -9.51823e-20)
(0.000575136 10.0001 0)
(-0.0142357 10.0056 0)
(-0.0234335 10.0047 0)
(-0.0358397 10.003 0)
(-0.0522229 10.0008 0)
(-0.0734678 9.99828 0)
(-0.100539 9.99616 0)
(-0.134427 9.9954 0)
(-0.176055 9.99747 0)
(-0.226153 10.0044 0)
(-0.285048 10.0188 0)
(-0.352378 10.0441 0)
(-0.426767 10.0842 0)
(-0.505379 10.1436 0)
(-0.583672 10.2263 0)
(-0.656833 10.3318 0)
(-0.720981 10.4578 0)
(-0.771645 10.6028 0)
(-0.804734 10.7637 0)
(-0.816899 10.9369 0)
(-0.805772 11.1175 0)
(-0.766949 11.3023 0)
(-0.707843 11.4821 0)
(-0.642828 11.6516 0)
(-0.574706 11.8107 0)
(-0.509009 11.9761 0)
(-0.445135 12.1461 0)
(-0.380664 12.2977 0)
(-0.317171 12.4234 0)
(-0.255546 12.5123 0)
(-0.196188 12.5544 0)
(-0.140254 12.5405 0)
(-0.0870994 12.4261 0)
(-0.0420525 11.9527 0)
(-0.00742878 10.3292 0)
(-0.0141639 10.005 0)
(-0.0075309 10.0052 9.9722e-19)
(-0.00297495 10.0046 0)
(-0.000210398 10.0035 2.16577e-19)
(0.0011131 10.0022 3.29093e-23)
(0.00138139 10.0008 0)
(0.000536201 10.0001 0)
(-0.0232285 10.0038 0)
(-0.0354748 10.0016 0)
(-0.0516477 9.99862 0)
(-0.0726293 9.99506 0)
(-0.0994012 9.99143 0)
(-0.133001 9.98854 0)
(-0.174443 9.98765 0)
(-0.224623 9.99053 0)
(-0.284136 9.99958 0)
(-0.353044 10.0179 0)
(-0.430577 10.0493 0)
(-0.514726 10.0982 0)
(-0.601826 10.1691 0)
(-0.686379 10.2659 0)
(-0.762922 10.3873 0)
(-0.827382 10.5298 0)
(-0.875194 10.691 0)
(-0.902437 10.8671 0)
(-0.906174 11.0535 0)
(-0.884641 11.2453 0)
(-0.833831 11.4386 0)
(-0.762666 11.6244 0)
(-0.687001 11.7972 0)
(-0.613717 11.9751 0)
(-0.542318 12.158 0)
(-0.470075 12.3255 0)
(-0.398894 12.4733 0)
(-0.330116 12.5943 0)
(-0.264425 12.6786 0)
(-0.20201 12.7167 0)
(-0.143904 12.698 0)
(-0.0893226 12.5741 0)
(-0.0430315 12.0756 0)
(-0.00826001 10.4092 0)
(-0.0230514 10.0029 0)
(-0.0139377 10.0043 1.21024e-22)
(-0.00731686 10.0046 0)
(-0.0029263 10.0042 -2.28845e-19)
(-0.000255787 10.0032 1.87758e-23)
(0.00102527 10.002 0)
(0.00129171 10.0007 0)
(0.000499407 10.0001 0)
(-0.0351092 10.0003 0)
(-0.0510681 9.99671 0)
(-0.071777 9.99222 0)
(-0.0982187 9.98724 0)
(-0.131459 9.98245 0)
(-0.172576 9.97892 0)
(-0.222589 9.9782 0)
(-0.282302 9.98242 0)
(-0.352109 9.9944 0)
(-0.431744 10.0177 0)
(-0.5199 10.0565 0)
(-0.613836 10.1155 0)
(-0.708965 10.1995 0)
(-0.798789 10.3119 0)
(-0.877267 10.4504 0)
(-0.940299 10.6101 0)
(-0.983389 10.7876 0)
(-1.00296 10.9785 0)
(-0.996636 11.1776 0)
(-0.963381 11.3792 0)
(-0.899663 11.5798 0)
(-0.81593 11.7698 0)
(-0.73425 11.9619 0)
(-0.65428 12.1575 0)
(-0.572893 12.338 0)
(-0.492627 12.5013 0)
(-0.415133 12.6437 0)
(-0.341462 12.7588 0)
(-0.272085 12.8378 0)
(-0.206965 12.8712 0)
(-0.146955 12.847 0)
(-0.0911701 12.7134 0)
(-0.0438067 12.1912 0)
(-0.00896497 10.4855 0)
(-0.0347925 9.99923 0)
(-0.0226304 10.002 -5.56735e-19)
(-0.0134718 10.0035 0)
(-0.00710201 10.004 0)
(-0.00286557 10.0038 6.73761e-19)
(-0.000292441 10.003 0)
(0.000943516 10.0019 0)
(0.00120595 10.0007 1.79944e-19)
(0.000464761 10.0001 0)
(-0.0504946 9.99503 0)
(-0.070927 9.9897 0)
(-0.097026 9.98353 0)
(-0.129864 9.97706 0)
(-0.170564 9.97118 0)
(-0.220232 9.96723 0)
(-0.279831 9.9671 0)
(-0.350017 9.97332 0)
(-0.43093 9.98916 0)
(-0.521852 10.0186 0)
(-0.620843 10.0662 0)
(-0.724327 10.137 0)
(-0.826723 10.2356 0)
(-0.920507 10.365 0)
(-0.999191 10.5216 0)
(-1.05884 10.6989 0)
(-1.09523 10.8927 0)
(-1.10528 11.0978 0)
(-1.08734 11.3083 0)
(-1.0412 11.5186 0)
(-0.963799 11.7246 0)
(-0.87298 11.9347 0)
(-0.783428 12.1451 0)
(-0.691544 12.3384 0)
(-0.600553 12.5146 0)
(-0.512721 12.6721 0)
(-0.42938 12.808 0)
(-0.351255 12.9165 0)
(-0.278595 12.9895 0)
(-0.211112 13.0175 0)
(-0.14946 12.9874 0)
(-0.0926761 12.8444 0)
(-0.0444061 12.2998 0)
(-0.0095563 10.5579 0)
(-0.0499982 9.99353 0)
(-0.0341088 9.99799 0)
(-0.0218083 10.0009 -5.50478e-19)
(-0.0130106 10.0027 -5.11148e-19)
(-0.00687034 10.0034 -9.49279e-19)
(-0.00279124 10.0034 0)
(-0.000320298 10.0027 -4.09416e-19)
(0.000867899 10.0017 -3.80269e-19)
(0.00112397 10.0006 1.76598e-19)
(0.000432191 10.0001 0)
(-0.070091 9.98747 0)
(-0.0958427 9.98024 0)
(-0.128263 9.97228 0)
(-0.168488 9.96432 0)
(-0.217689 9.95749 0)
(-0.276947 9.95345 0)
(-0.34712 9.95447 0)
(-0.428672 9.96353 0)
(-0.52137 9.98433 0)
(-0.623956 10.0213 0)
(-0.733748 10.0793 0)
(-0.846249 10.1635 0)
(-0.954819 10.2782 0)
(-1.05094 10.4259 0)
(-1.12784 10.6013 0)
(-1.182 10.7965 0)
(-1.20962 11.0062 0)
(-1.20835 11.2245 0)
(-1.17737 11.4452 0)
(-1.11731 11.6623 0)
(-1.03273 11.8894 0)
(-0.93249 12.1187 0)
(-0.828657 12.3272 0)
(-0.725277 12.5162 0)
(-0.625216 12.6863 0)
(-0.530367 12.8369 0)
(-0.4417 12.9655 0)
(-0.35959 13.0669 0)
(-0.284042 13.1334 0)
(-0.214524 13.1557 0)
(-0.151474 13.1195 0)
(-0.0938768 12.9671 0)
(-0.0448562 12.4016 0)
(-0.0100467 10.6263 0)
(-0.069369 9.98549 0)
(-0.0489688 9.9919 -6.22632e-19)
(-0.0327978 9.99661 5.81592e-19)
(-0.0210008 9.99992 -2.65554e-22)
(-0.012527 10.002 5.01509e-19)
(-0.00661908 10.0029 4.65828e-19)
(-0.00270312 10.003 8.65213e-19)
(-0.00033926 10.0025 6.02681e-19)
(0.000798351 10.0016 -1.86606e-19)
(0.0010459 10.0006 0)
(0.000401674 10.0001 0)
(-0.0946827 9.97733 0)
(-0.126677 9.96804 0)
(-0.166405 9.95822 0)
(-0.215063 9.94883 0)
(-0.273821 9.94131 0)
(-0.343693 9.93766 0)
(-0.425397 9.94057 0)
(-0.519095 9.95347 0)
(-0.624097 9.98052 0)
(-0.738499 10.0265 0)
(-0.858784 10.0966 0)
(-0.979443 10.1958 0)
(-1.09277 10.3282 0)
(-1.18929 10.4952 0)
(-1.2622 10.6899 0)
(-1.30864 10.9027 0)
(-1.32545 11.1276 0)
(-1.31114 11.358 0)
(-1.2658 11.5872 0)
(-1.19946 11.8268 0)
(-1.10491 12.0744 0)
(-0.987378 12.3023 0)
(-0.869656 12.5066 0)
(-0.755378 12.6894 0)
(-0.6469 12.8522 0)
(-0.54565 12.995 0)
(-0.452205 13.1157 0)
(-0.366583 13.2096 0)
(-0.288528 13.2694 0)
(-0.217277 13.2858 0)
(-0.153058 13.2434 0)
(-0.0948115 13.0819 0)
(-0.0451805 12.4966 0)
(-0.0104489 10.6907 0)
(-0.093684 9.97475 0)
(-0.0678937 9.98338 -8.36511e-22)
(-0.0470036 9.99013 0)
(-0.0315183 9.99528 -4.25837e-22)
(-0.0201641 9.99893 0)
(-0.0120152 10.0012 -4.92181e-19)
(-0.00634734 10.0024 -9.14282e-19)
(-0.0026018 10.0026 1.8851e-23)
(-0.000349457 10.0022 3.94304e-19)
(0.000734953 10.0014 -1.83133e-19)
(0.000971768 10.0005 1.70107e-19)
(0.000373163 10.0001 0)
(-0.125125 9.96429 0)
(-0.164344 9.95282 0)
(-0.212426 9.94115 0)
(-0.270583 9.93052 0)
(-0.339949 9.92268 0)
(-0.421443 9.92006 0)
(-0.515543 9.92577 0)
(-0.622027 9.94371 0)
(-0.739654 9.97845 0)
(-0.86577 10.0351 0)
(-0.99592 10.119 0)
(-1.12355 10.2348 0)
(-1.23987 10.3862 0)
(-1.33462 10.5735 0)
(-1.40116 10.7876 0)
(-1.43758 11.0176 0)
(-1.44157 11.2566 0)
(-1.41259 11.4974 0)
(-1.36169 11.7507 0)
(-1.28587 12.0124 0)
(-1.17175 12.2599 0)
(-1.0373 12.4838 0)
(-0.906321 12.6817 0)
(-0.781873 12.857 0)
(-0.665706 13.0116 0)
(-0.558707 13.146 0)
(-0.461037 13.2585 0)
(-0.372359 13.3447 0)
(-0.292157 13.3976 0)
(-0.219453 13.4079 0)
(-0.154264 13.3593 0)
(-0.0955169 13.1892 0)
(-0.0454002 12.5853 0)
(-0.0107747 10.751 0)
(-0.123794 9.96095 0)
(-0.0916427 9.97203 6.95539e-19)
(-0.0650705 9.98112 -6.50944e-19)
(-0.0450958 9.98844 6.03392e-19)
(-0.0302018 9.99401 0)
(-0.0192879 9.99798 0)
(-0.0114751 10.0005 4.83024e-19)
(-0.00605612 10.0019 -4.48578e-19)
(-0.00248707 10.0023 2.41832e-23)
(-0.000350849 10.002 1.93518e-19)
(0.000677534 10.0013 -1.79752e-19)
(0.000901502 10.0005 -1.66944e-19)
(0.000346733 10.0001 0)
(-0.162327 9.94802 0)
(-0.209814 9.93433 0)
(-0.267323 9.92092 0)
(-0.336052 9.90935 0)
(-0.417072 9.90176 0)
(-0.511121 9.90097 0)
(-0.61836 9.91059 0)
(-0.738098 9.93494 0)
(-0.868434 9.97899 0)
(-1.00586 10.0481 0)
(-1.14493 10.1474 0)
(-1.27799 10.2815 0)
(-1.39526 10.453 0)
(-1.4858 10.661 0)
(-1.54347 10.8945 0)
(-1.56759 11.1409 0)
(-1.55683 11.3924 0)
(-1.52322 11.6592 0)
(-1.46307 11.9366 0)
(-1.36624 12.1997 0)
(-1.23276 12.444 0)
(-1.08208 12.6615 0)
(-0.938682 12.8515 0)
(-0.804882 13.0181 0)
(-0.681797 13.1639 0)
(-0.56971 13.2895 0)
(-0.468354 13.3936 0)
(-0.377052 13.472 0)
(-0.295032 13.518 0)
(-0.221127 13.5223 0)
(-0.155148 13.4677 0)
(-0.0960279 13.2891 0)
(-0.045534 12.6679 0)
(-0.0110352 10.8074 0)
(-0.160607 9.94377 0)
(-0.121046 9.95749 0)
(-0.0877137 9.96919 6.87513e-19)
(-0.0623418 9.97897 -1.27793e-18)
(-0.0431413 9.98681 1.18581e-18)
(-0.0288313 9.99279 -1.10053e-18)
(-0.0183722 9.99708 0)
(-0.0109075 9.99987 4.74202e-19)
(-0.00574637 10.0014 -4.40235e-19)
(-0.00235919 10.002 -4.08964e-19)
(-0.000343394 10.0018 0)
(0.000625913 10.0012 1.76415e-19)
(0.000835567 10.0004 0)
(0.000322838 10 0)
(-0.207258 9.92827 0)
(-0.264087 9.9124 0)
(-0.33211 9.89749 0)
(-0.412487 9.88544 0)
(-0.506151 9.87881 0)
(-0.613584 9.88087 0)
(-0.734555 9.89569 0)
(-0.867802 9.92802 0)
(-1.01065 9.98313 0)
(-1.15868 10.0665 0)
(-1.30535 10.183 0)
(-1.44199 10.3367 0)
(-1.55789 10.5293 0)
(-1.64162 10.7582 0)
(-1.68787 11.0105 0)
(-1.69743 11.2719 0)
(-1.68329 11.5515 0)
(-1.6409 11.8445 0)
(-1.55792 12.1253 0)
(-1.43997 12.3867 0)
(-1.28769 12.6251 0)
(-1.12173 12.8344 0)
(-0.96688 13.0151 0)
(-0.824613 13.1723 0)
(-0.695377 13.3088 0)
(-0.578848 13.4254 0)
(-0.474317 13.521 0)
(-0.380791 13.5917 0)
(-0.297253 13.6309 0)
(-0.222372 13.6292 0)
(-0.155759 13.5687 0)
(-0.0963748 13.3822 0)
(-0.0455977 12.7448 0)
(-0.0112399 10.8601 0)
(-0.20509 9.92289 0)
(-0.156991 9.93939 0)
(-0.115717 9.95393 0)
(-0.0839345 9.96648 1.34966e-18)
(-0.0595569 9.97693 -1.25257e-18)
(-0.0411158 9.98527 1.16256e-18)
(-0.0274079 9.99164 0)
(-0.0174192 9.99622 -5.00983e-19)
(-0.0103135 9.99924 0)
(-0.0054179 10.001 4.3209e-19)
(-0.00221984 10.0016 0)
(-0.000326296 10.0016 0)
(0.000580074 10.0011 0)
(0.000775497 10.0004 1.71493e-19)
(0.000301568 10 8.37562e-20)
(-0.260919 9.90482 0)
(-0.328184 9.88693 0)
(-0.407821 9.8709 0)
(-0.500879 9.85902 0)
(-0.608089 9.85426 0)
(-0.729609 9.86039 0)
(-0.864717 9.88191 0)
(-1.01147 9.92393 0)
(-1.16634 9.99196 0)
(-1.32389 10.0914 0)
(-1.47655 10.2268 0)
(-1.61461 10.4013 0)
(-1.72658 10.6155 0)
(-1.80079 10.8653 0)
(-1.83304 11.1353 0)
(-1.84087 11.4269 0)
(-1.81876 11.7353 0)
(-1.75176 12.0343 0)
(-1.64547 12.3151 0)
(-1.50669 12.5717 0)
(-1.3365 12.8019 0)
(-1.15638 13.0015 0)
(-0.991138 13.172 0)
(-0.841319 13.3192 0)
(-0.706681 13.4461 0)
(-0.586321 13.5537 0)
(-0.47909 13.6409 0)
(-0.383702 13.704 0)
(-0.298914 13.7366 0)
(-0.223252 13.7291 0)
(-0.15614 13.6629 0)
(-0.0965853 13.4689 0)
(-0.0456044 12.8162 0)
(-0.0113968 10.9092 0)
(-0.258251 9.89809 0)
(-0.200424 9.9174 0)
(-0.149921 9.93495 1.54326e-18)
(-0.110615 9.95055 1.43117e-18)
(-0.0800875 9.96392 1.32738e-18)
(-0.0566808 9.97499 -1.23122e-18)
(-0.0390209 9.98382 0)
(-0.0259348 9.99056 0)
(-0.0164307 9.99542 0)
(-0.00969453 9.99866 9.13599e-19)
(-0.00507231 10.0005 4.24165e-19)
(-0.00206763 10.0013 3.93921e-19)
(-0.0003014 10.0014 0)
(0.000540465 10.001 -1.81206e-19)
(0.000721697 10.0004 -8.85275e-20)
(0.000282577 10 0)
(-0.324337 9.87755 0)
(-0.403151 9.85796 0)
(-0.495472 9.84136 0)
(-0.602175 9.83046 0)
(-0.723726 9.82872 0)
(-0.859867 9.84033 0)
(-1.00928 9.87023 0)
(-1.16925 9.92381 0)
(-1.33532 10.0066 0)
(-1.50101 10.1239 0)
(-1.6577 10.2797 0)
(-1.79476 10.476 0)
(-1.9001 10.7121 0)
(-1.96198 10.982 0)
(-1.99465 11.2846 0)
(-1.99576 11.6081 0)
(-1.94739 11.9257 0)
(-1.85483 12.2269 0)
(-1.72522 12.5042 0)
(-1.56632 12.7533 0)
(-1.37931 12.9735 0)
(-1.18627 13.162 0)
(-1.01173 13.3217 0)
(-0.855273 13.4585 0)
(-0.715944 13.5757 0)
(-0.592323 13.6744 0)
(-0.482826 13.7534 0)
(-0.3859 13.8092 0)
(-0.300101 13.8353 0)
(-0.223828 13.8222 0)
(-0.156332 13.7506 0)
(-0.0966829 13.5494 0)
(-0.0455646 12.8825 0)
(-0.0115147 10.9548 0)
(-0.321123 9.86921 0)
(-0.252327 9.89126 0)
(-0.191214 9.91191 -3.26444e-18)