/*--------------------------------*- C++ -*----------------------------------*\
  =========                 |
  \\      /  F ield         | OpenFOAM: The Open Source CFD Toolbox
   \\    /   O peration     | Website:  https://openfoam.org
    \\  /    A nd           | Version:  8
     \\/     M anipulation  |
\*---------------------------------------------------------------------------*/
FoamFile
{
    version     2.0;
    format      ascii;
    class       surfaceScalarField;
    location    "0.29";
    object      phi;
}
// * * * * * * * * * * * * * * * * * * * * * * * * * * * * * * * * * * * * * //

dimensions      [0 3 -1 0 0 0 0];

internalField   nonuniform List<scalar> 
31053
(
6.40145e-07
1.27399e-05
8.63161e-07
1.5157e-05
3.57383e-07
1.23825e-05
9.48801e-07
1.75544e-05
5.67567e-07
1.49468e-05
2.75239e-07
1.21072e-05
9.73477e-07
2.02153e-05
6.82326e-07
1.74396e-05
4.71111e-07
1.47509e-05
2.16688e-07
1.18905e-05
9.64859e-07
2.32486e-05
7.41078e-07
2.01566e-05
5.97073e-07
1.73136e-05
3.97001e-07
1.45706e-05
1.7225e-07
1.17183e-05
9.3493e-07
2.66899e-05
7.66169e-07
2.32235e-05
6.72257e-07
2.00814e-05
5.2439e-07
1.71862e-05
3.32874e-07
1.441e-05
1.37927e-07
1.15804e-05
8.89495e-07
3.06654e-05
7.69385e-07
2.66867e-05
7.14379e-07
2.31814e-05
6.0546e-07
2.00003e-05
4.55069e-07
1.70641e-05
2.78659e-07
1.42693e-05
1.10876e-07
1.14695e-05
8.31642e-07
3.51979e-05
7.57181e-07
3.06776e-05
7.34339e-07
2.66668e-05
6.53743e-07
2.31331e-05
5.36147e-07
1.99192e-05
3.91766e-07
1.69509e-05
2.31676e-07
1.41485e-05
8.84054e-08
1.13811e-05
7.6516e-07
4.03865e-05
7.33738e-07
3.52213e-05
7.38588e-07
3.06734e-05
6.79307e-07
2.66412e-05
5.85192e-07
2.30841e-05
4.69134e-07
1.98419e-05
3.33022e-07
1.68496e-05
1.89564e-07
1.40473e-05
6.87024e-08
1.13124e-05
6.92636e-07
4.63525e-05
7.00209e-07
4.042e-05
7.31004e-07
3.52289e-05
6.8815e-07
3.06645e-05
6.11219e-07
2.66152e-05
5.15658e-07
2.30376e-05
4.03648e-07
1.97712e-05
2.77189e-07
1.6762e-05
1.50543e-07
1.39655e-05
5.06204e-08
1.12618e-05
6.15915e-07
5.32167e-05
6.58117e-07
4.63946e-05
7.11924e-07
4.04391e-05
6.83202e-07
3.52338e-05
6.20141e-07
3.06556e-05
5.38975e-07
2.65918e-05
4.44895e-07
2.29963e-05
3.38566e-07
1.97099e-05
2.22893e-07
1.66896e-05
1.13318e-07
1.39028e-05
3.33784e-08
1.12284e-05
5.36958e-07
6.1059e-05
6.09265e-07
5.32656e-05
6.81795e-07
4.64247e-05
6.67345e-07
4.04549e-05
6.15336e-07
3.52386e-05
5.44843e-07
3.06498e-05
4.62844e-07
2.65739e-05
3.72147e-07
2.29627e-05
2.72767e-07
1.966e-05
1.69032e-07
1.66339e-05
7.69424e-08
1.38592e-05
1.64663e-08
1.12119e-05
4.5762e-07
7.00613e-05
5.55223e-07
6.1113e-05
6.41715e-07
5.33057e-05
6.41548e-07
4.64505e-05
5.99046e-07
4.04712e-05
5.36722e-07
3.52468e-05
4.62859e-07
3.06497e-05
3.82361e-07
2.65637e-05
2.96362e-07
2.29391e-05
2.05241e-07
1.96238e-05
1.14802e-07
1.65961e-05
4.07224e-08
1.38349e-05
-2.87905e-10
1.12122e-05
3.79596e-07
8.041e-05
4.97406e-07
7.01192e-05
5.92923e-07
6.11618e-05
6.05868e-07
5.33413e-05
5.72377e-07
4.64772e-05
5.16577e-07
4.04914e-05
4.48311e-07
3.52613e-05
3.73993e-07
3.06581e-05
2.9649e-07
2.65636e-05
2.16528e-07
2.29278e-05
1.35298e-07
1.96033e-05
5.95783e-08
1.65772e-05
4.2837e-09
1.38304e-05
-1.71177e-08
1.12293e-05
3.1677e-07
7.62528e-05
4.37113e-07
8.04703e-05
5.3686e-07
7.01752e-05
5.60624e-07
6.1207e-05
5.35603e-07
5.33781e-05
4.85398e-07
4.65084e-05
4.2105e-07
4.05186e-05
3.50231e-07
3.52851e-05
2.77234e-07
3.06774e-05
2.0418e-07
2.65759e-05
1.31963e-07
2.29312e-05
6.24082e-08
1.96005e-05
3.01819e-09
1.65785e-05
-3.25903e-08
1.38458e-05
-3.42143e-08
1.12635e-05
2.63466e-07
7.62433e-05
3.85449e-07
7.63045e-05
4.75184e-07
8.0532e-05
5.0653e-07
7.02293e-05
4.88819e-07
6.12538e-05
4.43527e-07
5.342e-05
3.81945e-07
4.65475e-05
3.12807e-07
4.05561e-05
2.41509e-07
3.53208e-05
1.71486e-07
3.07101e-05
1.04701e-07
2.66032e-05
4.21476e-08
2.29514e-05
-1.36512e-08
1.96171e-05
-5.50094e-08
1.66009e-05
-7.00582e-08
1.38817e-05
-5.15476e-08
1.13151e-05
2.18452e-07
7.6235e-05
3.38751e-07
7.629e-05
4.20584e-07
7.63591e-05
4.44795e-07
8.05937e-05
4.32332e-07
7.02858e-05
3.91041e-07
6.13063e-05
3.31283e-07
5.34706e-05
2.62462e-07
4.65978e-05
1.90879e-07
4.06067e-05
1.21006e-07
3.53713e-05
5.59568e-08
3.07588e-05
-2.47276e-09
2.66478e-05
-5.30523e-08
2.29908e-05
-9.28528e-08
1.9655e-05
-1.14469e-07
1.66453e-05
-1.08019e-07
1.39382e-05
-6.89549e-08
1.1384e-05
1.80629e-07
7.62298e-05
2.96617e-07
7.62771e-05
3.69941e-07
7.63406e-05
3.88512e-07
7.64154e-05
3.66997e-07
8.06591e-05
3.28089e-07
7.03487e-05
2.69133e-07
6.13685e-05
1.99379e-07
5.35337e-05
1.2593e-07
4.66628e-05
5.40704e-08
4.06736e-05
-1.2149e-08
3.54394e-05
-6.99016e-08
3.08262e-05
-1.17437e-07
2.67122e-05
-1.53461e-07
2.30514e-05
-1.74916e-07
1.97154e-05
-1.75057e-07
1.67123e-05
-1.46196e-07
1.40154e-05
-8.63022e-08
1.14703e-05
1.49033e-07
7.62216e-05
2.58667e-07
7.62678e-05
3.23205e-07
7.63239e-05
3.35299e-07
7.63939e-05
3.06795e-07
7.64756e-05
2.5533e-07
8.07318e-05
1.95613e-07
7.04223e-05
1.23589e-07
6.14442e-05
4.67097e-08
5.36129e-05
-2.89385e-08
4.67458e-05
-9.85875e-08
4.07601e-05
-1.58525e-07
3.5528e-05
-2.06156e-07
3.0915e-05
-2.39882e-07
2.67986e-05
-2.58564e-07
2.31351e-05
-2.59248e-07
1.97996e-05
-2.36256e-07
1.68024e-05
-1.84221e-07
1.41133e-05
-1.03329e-07
1.15737e-05
1.22829e-07
7.62162e-05
2.24557e-07
7.62557e-05
2.80259e-07
7.63107e-05
2.8555e-07
7.63736e-05
2.49536e-07
7.64511e-05
1.88211e-07
7.65427e-05
1.11353e-07
8.08161e-05
3.52172e-08
7.05106e-05
-4.68159e-08
6.15378e-05
-1.28141e-07
5.37121e-05
-2.03232e-07
4.68504e-05
-2.67684e-07
4.08692e-05
-3.18162e-07
3.564e-05
-3.52341e-07
3.10274e-05
-3.69079e-07
2.69091e-05
-3.67464e-07
2.32433e-05
-3.44964e-07
1.99083e-05
-2.97401e-07
1.69156e-05
-2.21613e-07
1.42316e-05
-1.19848e-07
1.16935e-05
1.01211e-07
7.62116e-05
1.93943e-07
7.62468e-05
2.40966e-07
7.6295e-05
2.39441e-07
7.63568e-05
1.95914e-07
7.64273e-05
1.24391e-07
7.65149e-05
3.39917e-08
7.66201e-05
-6.50188e-08
8.09163e-05
-1.54499e-07
7.06183e-05
-2.43657e-07
6.16533e-05
-3.26416e-07
5.38353e-05
-3.97567e-07
4.69803e-05
-4.53232e-07
4.10043e-05
-4.90423e-07
3.57781e-05
-5.0753e-07
3.11659e-05
-5.03821e-07
2.70455e-05
-4.78861e-07
2.33772e-05
-4.31032e-07
2.0042e-05
-3.57694e-07
1.70517e-05
-2.57859e-07
1.43696e-05
-1.35522e-07
1.1829e-05
8.47563e-08
6.95985e-05
1.66528e-07
7.6239e-05
2.05174e-07
7.62826e-05
1.97054e-07
7.63374e-05
1.46321e-07
7.64064e-05
6.48088e-08
7.64868e-05
-3.92637e-08
7.65882e-05
-1.56398e-07
7.67114e-05
-2.75465e-07
8.10373e-05
-3.75318e-07
7.075e-05
-4.6837e-07
6.17952e-05
-5.4877e-07
5.39865e-05
-6.11934e-07
4.7139e-05
-6.54414e-07
4.11683e-05
-6.74179e-07
3.59447e-05
-6.70199e-07
3.13322e-05
-6.42397e-07
2.7209e-05
-5.91309e-07
2.35375e-05
-5.1622e-07
2.02005e-05
-4.16245e-07
1.721e-05
-2.92342e-07
1.45264e-05
-1.50163e-07
1.19792e-05
7.21791e-08
6.25566e-05
1.44089e-07
6.96209e-05
1.72755e-07
7.62715e-05
1.58416e-07
7.63212e-05
1.00991e-07
7.63827e-05
1.0061e-08
7.64612e-05
-1.07265e-07
7.65548e-05
-2.42424e-07
7.66742e-05
-3.84966e-07
7.68209e-05
-5.22044e-07
8.1184e-05
-6.28917e-07
7.09105e-05
-7.21672e-07
6.19681e-05
-7.9519e-07
5.41698e-05
-8.45331e-07
4.73299e-05
-8.69885e-07
4.1364e-05
-8.67571e-07
3.61421e-05
-8.38206e-07
3.1528e-05
-7.82909e-07
2.74006e-05
-7.03066e-07
2.37243e-05
-5.9921e-07
2.03834e-05
-4.72078e-07
1.73898e-05
-3.24552e-07
1.47008e-05
-1.633e-07
1.21425e-05
6.23915e-08
5.62278e-05
1.25904e-07
6.25748e-05
1.46014e-07
6.96476e-05
1.2354e-07
7.63063e-05
6.00723e-08
7.63622e-05
-3.94635e-08
7.64322e-05
-1.6922e-07
7.65231e-05
-3.21756e-07
7.66342e-05
-4.87451e-07
7.67767e-05
-6.54061e-07
7.6953e-05
-8.06736e-07
8.13618e-05
-9.16105e-07
7.1105e-05
-1.00357e-06
6.21765e-05
-1.06448e-06
5.43889e-05
-1.09619e-06
4.75562e-05
-1.09743e-06
4.15939e-05
-1.06799e-06
3.63719e-05
-1.00917e-06
3.17543e-05
-9.23083e-07
2.76206e-05
-8.12335e-07
2.39375e-05
-6.78561e-07
2.05899e-05
-5.24296e-07
1.75895e-05
-3.5353e-07
1.48911e-05
-1.74172e-07
1.23167e-05
5.46582e-08
5.05397e-05
1.1106e-07
5.62426e-05
1.24237e-07
6.25965e-05
9.49759e-08
6.96762e-05
2.36612e-08
7.63427e-05
-8.35064e-08
7.64062e-05
-2.24577e-07
7.64876e-05
-3.93402e-07
7.65948e-05
-5.8138e-07
7.67281e-05
-7.77003e-07
7.68996e-05
-9.65982e-07
7.71122e-05
-1.13049e-06
8.15762e-05
-1.23695e-06
7.13383e-05
-1.31268e-06
6.24247e-05
-1.35484e-06
5.46476e-05
-1.3619e-06
4.78207e-05
-1.33393e-06
4.18598e-05
-1.27256e-06
3.66353e-05
-1.18028e-06
3.20115e-05
-1.0606e-06
2.78689e-05
-9.17127e-07
2.4176e-05
-7.52948e-07
2.08186e-05
-5.71503e-07
1.78075e-05
-3.78627e-07
1.50955e-05
-1.82751e-07
1.24994e-05
4.84669e-08
4.54262e-05
9.88524e-08
5.05519e-05
1.06417e-07
5.62605e-05
7.19631e-08
6.26196e-05
-5.60641e-09
6.97055e-05
-1.21891e-07
7.63811e-05
-2.72956e-07
7.64546e-05
-4.56637e-07
7.65508e-05
-6.65546e-07
7.66789e-05
-8.89098e-07
7.68402e-05
-1.11371e-06
7.70474e-05
-1.32185e-06
7.73036e-05
-1.49349e-06
8.18328e-05
-1.58989e-06
7.16155e-05
-1.64698e-06
6.27169e-05
-1.66327e-06
5.4949e-05
-1.63882e-06
4.81256e-05
-1.57599e-06
4.21632e-05
-1.47787e-06
3.69329e-05
-1.34863e-06
3.22995e-05
-1.19286e-06
2.81446e-05
-1.01563e-06
2.44387e-05
-8.20521e-07
2.10676e-05
-6.12893e-07
1.80418e-05
-3.96349e-07
1.53091e-05
-1.50581e-07
1.265e-05
4.34492e-08
4.0831e-05
8.87428e-08
4.54363e-05
9.17569e-08
5.05666e-05
5.34041e-08
5.6279e-05
-2.86541e-08
6.26426e-05
-1.51906e-07
6.97355e-05
-3.14091e-07
7.64223e-05
-5.10941e-07
7.65089e-05
-7.3903e-07
7.66243e-05
-9.8891e-07
7.67787e-05
-1.24788e-06
7.69744e-05
-1.4989e-06
7.72244e-05
-1.72199e-06
7.75321e-05
-1.89404e-06
8.21369e-05
-1.97271e-06
7.19413e-05
-2.00306e-06
6.30567e-05
-1.98554e-06
5.52957e-05
-1.92297e-06
4.84726e-05
-1.81954e-06
4.25049e-05
-1.68037e-06
3.72646e-05
-1.51096e-06
3.26176e-05
-1.31751e-06
2.84465e-05
-1.10551e-06
2.47237e-05
-8.79996e-07
2.13347e-05
-6.43459e-07
1.82889e-05
-3.91178e-07
1.55497e-05
-1.01765e-07
1.27518e-05
3.93346e-08
3.67001e-05
8.03303e-08
4.08394e-05
7.96382e-08
4.54484e-05
3.84205e-08
5.05816e-05
-4.67424e-08
5.62971e-05
-1.7474e-07
6.26654e-05
-3.45179e-07
6.97666e-05
-5.55942e-07
7.64673e-05
-8.01146e-07
7.6571e-05
-1.07529e-06
7.67107e-05
-1.3668e-06
7.68977e-05
-1.65929e-06
7.71348e-05
-1.93309e-06
7.74355e-05
-2.16466e-06
7.78027e-05
-2.32979e-06
8.2494e-05
-2.38161e-06
7.23198e-05
-2.3761e-06
6.34472e-05
-2.31706e-06
5.56898e-05
-2.20954e-06
4.88626e-05
-2.0603e-06
4.28848e-05
-1.87611e-06
3.76297e-05
-1.66437e-06
3.29645e-05
-1.43175e-06
2.87727e-05
-1.18496e-06
2.50287e-05
-9.26551e-07
2.16178e-05
-6.562e-07
1.85539e-05
-3.67103e-07
1.5815e-05
-8.16722e-08
1.28334e-05
3.59239e-08
3.29894e-05
7.3307e-08
3.67071e-05
6.95882e-08
4.08495e-05
2.63075e-08
4.54605e-05
-6.08915e-08
5.05957e-05
-1.91911e-07
5.63143e-05
-3.67779e-07
6.2688e-05
-5.88696e-07
6.97993e-05
-8.51394e-07
7.65175e-05
-1.14737e-06
7.66431e-05
-1.46905e-06
7.68129e-05
-1.80102e-06
7.70394e-05
-2.12408e-06
7.73258e-05
-2.41455e-06
7.76854e-05
-2.64749e-06
7.81204e-05
-2.79659e-06
8.2909e-05
-2.81114e-06
7.27549e-05
-2.76078e-06
6.38909e-05
-2.65218e-06
5.61324e-05
-2.49351e-06
4.92958e-05
-2.29363e-06
4.33023e-05
-2.06161e-06
3.8027e-05
-1.80553e-06
3.33383e-05
-1.53324e-06
2.9121e-05
-1.24969e-06
2.53518e-05
-9.55409e-07
2.1917e-05
-6.55819e-07
1.88426e-05
-3.45575e-07
1.60789e-05
-7.66921e-08
1.29101e-05
3.30713e-08
2.96509e-05
6.74189e-08
3.29953e-05
6.12393e-08
3.67155e-05
1.64797e-08
4.08593e-05
-7.19252e-08
4.54716e-05
-2.04649e-07
5.06085e-05
-3.83761e-07
5.63303e-05
-6.11243e-07
6.27106e-05
-8.86618e-07
6.98345e-05
-1.20448e-06
7.65746e-05
-1.55353e-06
7.67276e-05
-1.92238e-06
7.69343e-05
-2.2926e-06
7.72079e-05
-2.6406e-06
7.75518e-05
-2.94097e-06
7.79789e-05
-3.16606e-06
7.84899e-05
-3.28829e-06
8.33861e-05
-3.25525e-06
7.32493e-05
-3.15068e-06
6.43894e-05
-2.98516e-06
5.66241e-05
-2.76949e-06
4.97717e-05
-2.51542e-06
4.37562e-05
-2.23303e-06
3.84545e-05
-1.93167e-06
3.37367e-05
-1.61819e-06
2.94895e-05
-1.29591e-06
2.56923e-05
-9.71709e-07
2.22329e-05
-6.51665e-07
1.91487e-05
-3.34814e-07
1.63371e-05
-8.22537e-08
1.29924e-05
3.06674e-08
2.66504e-05
6.24554e-08
2.96558e-05
5.42859e-08
3.30023e-05
8.46481e-09
3.67235e-05
-8.05093e-08
4.08679e-05
-2.13942e-07
4.54809e-05
-3.94639e-07
5.06193e-05
-6.25913e-07
5.63449e-05
-9.09451e-07
6.27334e-05
-1.24316e-06
6.98732e-05
-1.61939e-06
7.66405e-05
-2.02198e-06
7.68272e-05
-2.43659e-06
7.70783e-05
-2.84005e-06
7.74074e-05
-3.20669e-06
7.78175e-05
-3.50778e-06
7.83206e-05
-3.71371e-06
7.89153e-05
-3.79829e-06
8.39292e-05
-3.70675e-06
7.38054e-05
-3.53925e-06
6.49435e-05
-3.30975e-06
5.71643e-05
-3.03264e-06
5.02889e-05
-2.7212e-06
4.42443e-05
-2.38707e-06
3.89099e-05
-2.03929e-06
3.41578e-05
-1.68355e-06
2.98772e-05
-1.32806e-06
2.60487e-05
-9.82751e-07
2.2564e-05
-6.49349e-07
1.94632e-05
-3.33783e-07
1.65886e-05
-1.11471e-07
1.31039e-05
2.86283e-08
2.3956e-05
5.82468e-08
2.66546e-05
4.84719e-08
2.96616e-05
1.90137e-09
3.30088e-05
-8.71762e-08
3.67302e-05
-2.20577e-07
4.08745e-05
-4.01619e-07
4.54878e-05
-6.34585e-07
5.0628e-05
-9.22798e-07
5.63583e-05
-1.26675e-06
6.2757e-05
-1.66274e-06
6.99166e-05
-2.09875e-06
7.67173e-05
-2.55434e-06
7.69449e-05
-3.01042e-06
7.72487e-05
-3.4414e-06
7.76421e-05
-3.81771e-06
7.81275e-05
-4.10798e-06
7.87149e-05
-4.28343e-06
7.94004e-05
-4.31856e-06
8.4541e-05
-4.15821e-06
7.44244e-05
-3.91926e-06
6.5553e-05
-3.62028e-06
5.7752e-05
-3.27782e-06
5.08455e-05
-2.9072e-06
4.47645e-05
-2.52041e-06
3.9391e-05
-2.12585e-06
3.46001e-05
-1.73271e-06
3.02818e-05
-1.35243e-06
2.64183e-05
-9.91938e-07
2.29066e-05
-6.50279e-07
1.97797e-05
-4.15647e-07
1.68928e-05
-1.20294e-07
1.32242e-05
2.68889e-08
2.15337e-05
5.46598e-08
2.39596e-05
4.35859e-08
2.66595e-05
-3.48453e-09
2.9667e-05
-9.23429e-08
3.3014e-05
-2.25175e-07
3.67348e-05
-4.05658e-07
4.08786e-05
-6.38755e-07
4.5492e-05
-9.29e-07
5.06342e-05
-1.27887e-06
5.63704e-05
-1.68775e-06
6.2782e-05
-2.14822e-06
6.9966e-05
-2.64451e-06
7.68074e-05
-3.14964e-06
7.70841e-05
-3.64218e-06
7.74494e-05
-4.09208e-06
7.79164e-05
-4.46649e-06
7.8486e-05
-4.73422e-06
7.91657e-05
-4.86657e-06
7.99484e-05
-4.84075e-06
8.52235e-05
-4.60134e-06
7.51064e-05
-4.28416e-06
6.62169e-05
-3.91086e-06
5.8385e-05
-3.5007e-06
5.1439e-05
-3.07005e-06
4.53141e-05
-2.63077e-06
3.98959e-05
-2.19373e-06
3.50611e-05
-1.7708e-06
3.07002e-05
-1.37173e-06
2.67981e-05
-9.99693e-07
2.3256e-05
-8.05554e-07
2.01696e-05
-4.1714e-07
1.71896e-05
-1.3033e-07
1.33545e-05
2.53977e-08
1.93535e-05
5.15882e-08
2.15368e-05
3.94581e-08
2.39638e-05
-7.91189e-09
2.66639e-05
-9.63325e-08
2.9671e-05
-2.28223e-07
3.3017e-05
-4.07506e-07
3.67366e-05
-6.39603e-07
4.08794e-05
-9.29916e-07
4.54929e-05
-1.2824e-06
5.06378e-05
-1.69885e-06
5.63815e-05
-2.17549e-06
6.28093e-05
-2.70182e-06
7.00233e-05
-3.25599e-06
7.69138e-05
-3.80651e-06
7.72485e-05
-4.32746e-06
7.76848e-05
-4.7849e-06
7.82349e-05
-5.1455e-06
7.88973e-05
-5.37737e-06
7.96765e-05
-5.45396e-06
8.05616e-05
-5.35544e-06
8.59776e-05
-5.02862e-06
7.58509e-05
-4.62719e-06
6.69333e-05
-4.17652e-06
5.90608e-05
-3.69767e-06
5.20666e-05
-3.20748e-06
4.58908e-05
-2.71958e-06
4.04218e-05
-2.24688e-06
3.55372e-05
-1.80008e-06
3.11285e-05
-1.38614e-06
2.71846e-05
-1.24143e-06
2.36919e-05
-8.00778e-07
2.05533e-05
-4.19017e-07
1.74783e-05
-1.38124e-07
1.34926e-05
1.73973e-05
2.4114e-08
4.89473e-08
1.93561e-05
3.59538e-08
2.15403e-05
-1.15606e-08
2.39674e-05
-9.93981e-08
2.6667e-05
-2.30101e-07
2.96729e-05
-4.07748e-07
3.30173e-05
-6.38049e-07
3.67351e-05
-9.27007e-07
4.08765e-05
-1.27966e-06
4.54902e-05
-1.69962e-06
5.06385e-05
-2.18596e-06
5.6392e-05
-2.73246e-06
6.28399e-05
-3.32322e-06
7.00906e-05
-3.93224e-06
7.70395e-05
-4.52081e-06
7.74418e-05
-5.0592e-06
7.79591e-05
-5.51232e-06
7.86017e-05
-5.84525e-06
7.93651e-05
-6.02765e-06
8.02502e-05
-6.0353e-06
8.12415e-05
-5.85413e-06
8.68031e-05
-5.43232e-06
7.6656e-05
-4.94261e-06
6.76994e-05
-4.41321e-06
5.97764e-05
-3.86624e-06
5.27254e-05
-3.32002e-06
4.64913e-05
-2.78967e-06
4.09646e-05
-2.28712e-06
3.60243e-05
-1.82076e-06
3.15631e-05
-1.72393e-06
2.76671e-05
-1.23366e-06
2.41247e-05
-7.93238e-07
2.09275e-05
-4.18335e-07
1.77585e-05
-1.43161e-07
1.36358e-05
1.73996e-05
4.66647e-08
2.78121e-05
2.20361e-08
3.29654e-08
1.93591e-05
-1.45765e-08
2.15433e-05
-1.01739e-07
2.39697e-05
-2.31104e-07
2.6668e-05
-4.06835e-07
2.9672e-05
-6.34806e-07
3.3014e-05
-9.21409e-07
3.67295e-05
-1.27245e-06
4.08693e-05
-1.69288e-06
4.54834e-05
-2.18399e-06
5.06365e-05
-2.74291e-06
5.64024e-05
-3.35864e-06
6.28754e-05
-4.01185e-06
7.01702e-05
-4.6695e-06
7.71882e-05
-5.28575e-06
7.76684e-05
-5.82998e-06
7.82768e-05
-6.26459e-06
7.9021e-05
-6.55548e-06
7.9893e-05
-6.67394e-06
8.08888e-05
-6.60119e-06
8.19885e-05
-6.32795e-06
8.76988e-05
-5.80576e-06
7.75192e-05
-5.22573e-06
6.85119e-05
-4.61797e-06
6.05281e-05
-4.00607e-06
5.34114e-05
-3.40951e-06
4.71111e-05
-2.84243e-06
4.15199e-05
-2.31472e-06
3.65182e-05
-2.26555e-06
3.21048e-05
-1.71423e-06
2.81477e-05
-1.21832e-06
2.45498e-05
-7.81186e-07
2.12903e-05
-4.142e-07
1.80296e-05
-1.45554e-07
1.37813e-05
1.74021e-05
3.04077e-08
2.78157e-05
4.30062e-08
2.8552e-05
2.00584e-08
-1.70769e-08
1.93616e-05
-1.03513e-07
2.15451e-05
-2.31459e-07
2.39701e-05
-4.05116e-07
2.66663e-05
-6.30419e-07
2.96676e-05
-9.13996e-07
3.30066e-05
-1.26217e-06
3.67192e-05
-1.68087e-06
4.08573e-05
-2.17302e-06
4.54725e-05
-2.73841e-06
5.0632e-05
-3.36995e-06
5.64137e-05
-4.05384e-06
6.29173e-05
-4.76436e-06
7.0265e-05
-5.46133e-06
7.73638e-05
-6.09419e-06
7.79326e-05
-6.63e-06
7.86422e-05
-7.03118e-06
7.94967e-05
-7.26445e-06
8.04835e-05
-7.30609e-06
8.15937e-05
-7.14176e-06
8.28023e-05
-6.76916e-06
8.86622e-05
-6.14344e-06
7.84369e-05
-5.47293e-06
6.93668e-05
-4.78962e-06
6.13116e-05
-4.11811e-06
5.412e-05
-3.47687e-06
4.77455e-05
-2.87817e-06
4.20833e-05
-2.88078e-06
3.71335e-05
-2.25328e-06
3.26438e-05
-1.6919e-06
2.86212e-05
-1.19515e-06
2.49638e-05
-7.64129e-07
2.16403e-05
-4.0667e-07
1.82907e-05
-1.45592e-07
1.39269e-05
1.74042e-05
-1.91589e-08
2.78193e-05
2.68744e-08
2.85555e-05
3.9494e-08
2.93119e-05
1.81836e-08
-1.04843e-07
1.9363e-05
-2.31344e-07
2.1545e-05
-4.02856e-07
2.39678e-05
-6.25304e-07
2.66612e-05
-9.05435e-07
2.9659e-05
-1.2499e-06
3.29943e-05
-1.66529e-06
3.67036e-05
-2.15577e-06
4.084e-05
-2.72313e-06
4.54572e-05
-3.36338e-06
5.06255e-05
-4.06724e-06
5.64271e-05
-4.81513e-06
6.29681e-05
-5.57476e-06
7.03785e-05
-6.30104e-06
7.75706e-05
-6.93644e-06
7.8239e-05
-7.44862e-06
7.90596e-05
-7.79989e-06
8.00322e-05
-7.96135e-06
8.11387e-05
-7.91325e-06
8.23652e-05
-7.64823e-06
8.36814e-05
-7.1712e-06
8.96899e-05
-6.44083e-06
7.94048e-05
-5.68214e-06
7.02594e-05
-4.92828e-06
6.21218e-05
-4.20281e-06
5.4846e-05
-3.52245e-06
4.83898e-05
-3.58293e-06
4.27855e-05
-2.8654e-06
3.77456e-05
-2.2233e-06
3.31752e-05
-1.65785e-06
2.90839e-05
-1.16452e-06
2.53642e-05
-7.42499e-07
2.19761e-05
-3.96086e-07
1.85412e-05
-1.43694e-07
1.40706e-05
1.74052e-05
-1.05828e-07
2.78211e-05
-2.09408e-08
2.85588e-05
2.35701e-08
2.93152e-05
3.61338e-08
3.00898e-05
1.64126e-08
-2.30895e-07
1.93625e-05
-4.00253e-07
2.15424e-05
-6.19773e-07
2.39623e-05
-8.96227e-07
2.6652e-05
-1.23645e-06
2.96456e-05
-1.64747e-06
3.29765e-05
-2.13434e-06
3.66822e-05
-2.70035e-06
4.08172e-05
-3.34393e-06
4.54377e-05
-4.05939e-06
5.06176e-05
-4.83226e-06
5.64442e-05
-5.637e-06
6.30304e-05
-6.43686e-06
7.05143e-05
-7.17922e-06
7.78134e-05
-7.80194e-06
7.85923e-05
-8.27335e-06
7.95331e-05
-8.55939e-06
8.06302e-05
-8.63448e-06
8.186e-05
-8.48567e-06
8.32026e-05
-8.11301e-06
8.46232e-05
-7.52843e-06
9.07775e-05
-6.69492e-06
8.04176e-05
-5.85269e-06
7.11838e-05
-5.03393e-06
6.29529e-05
-4.26053e-06
5.5584e-05
-4.38666e-06
4.91935e-05
-3.56442e-06
4.34845e-05
-2.82683e-06
3.83491e-05
-2.1775e-06
3.36949e-05
-1.61329e-06
2.95327e-05
-1.12752e-06
2.57492e-05
-7.16979e-07
2.2297e-05
-3.82995e-07
1.87805e-05
-1.40272e-07
1.42109e-05
1.74045e-05
-2.30214e-07
2.78194e-05
-1.04177e-07
2.85603e-05
-2.24313e-08
2.93183e-05
2.04951e-08
3.0093e-05
3.29279e-08
3.08897e-05
1.47459e-08
-3.97461e-07
1.93597e-05
-6.14057e-07
2.15367e-05
-8.86744e-07
2.39528e-05
-1.22243e-06
2.66379e-05
-1.62841e-06
2.96265e-05
-2.11033e-06
3.29525e-05
-2.67261e-06
3.66544e-05
-3.3155e-06
4.07888e-05
-4.03618e-06
4.54145e-05
-4.8243e-06
5.06097e-05
-5.65999e-06
5.64672e-05
-6.51378e-06
6.31073e-05
-7.34168e-06
7.06767e-05
-8.0856e-06
7.80971e-05
-8.67814e-06
7.89971e-05
-9.09255e-06
8.00662e-05
-9.29727e-06
8.1293e-05
-9.27319e-06
8.26475e-05
-9.01476e-06
8.41044e-05
-8.52942e-06
8.56242e-05
-7.8368e-06
9.19194e-05
-6.90419e-06
8.14691e-05
-5.98404e-06
7.21339e-05
-5.10688e-06
6.37993e-05
-5.30871e-06
5.65061e-05
-4.36546e-06
4.99946e-05
-3.51659e-06
4.41742e-05
-2.76795e-06
3.89396e-05
-2.11789e-06
3.41994e-05
-1.56006e-06
2.99652e-05
-1.08539e-06
2.61176e-05
-6.88421e-07
2.26024e-05
-3.67978e-07
1.90082e-05
-1.35701e-07
1.43466e-05
1.74016e-05
-3.94589e-07
2.78127e-05
-2.23496e-07
2.85582e-05
-1.02118e-07
2.93195e-05
-2.36168e-08
3.00958e-05
1.76529e-08
3.08927e-05
2.98809e-08
3.17096e-05
1.31824e-08
-6.08327e-07
1.9354e-05
-8.77258e-07
2.15272e-05
-1.20828e-06
2.39387e-05
-1.60884e-06
2.66184e-05
-2.08496e-06
2.96011e-05
-2.64185e-06
3.29218e-05
-3.28116e-06
3.66201e-05
-4.00226e-06
4.07549e-05
-4.79811e-06
4.53883e-05
-5.65354e-06
5.06032e-05
-6.54527e-06
5.64987e-05
-7.43701e-06
6.32026e-05
-8.27936e-06
7.08705e-05
-9.00776e-06
7.84267e-05
-9.55323e-06
7.94578e-05
-9.89323e-06
8.06622e-05
-1.00021e-05
8.20219e-05
-9.86796e-06
8.35007e-05
-9.49283e-06
8.50678e-05
-8.89241e-06
8.66798e-05
-8.09386e-06
9.31091e-05
-7.06754e-06
8.25526e-05
-6.07631e-06
7.31033e-05
-6.36795e-06
6.48585e-05
-5.28586e-06
5.74265e-05
-4.30799e-06
5.0786e-05
-3.44332e-06
4.48496e-05
-2.69163e-06
3.95133e-05
-2.04703e-06
3.46864e-05
-1.50004e-06
3.03799e-05
-1.03942e-06
2.64686e-05
-6.57666e-07
2.28921e-05
-3.51593e-07
1.92241e-05
-1.3031e-07
1.44769e-05
1.7396e-05
-6.02704e-07
2.77991e-05
-3.81031e-07
2.8551e-05
-2.16253e-07
2.9317e-05
-9.96685e-08
3.00967e-05
-2.44958e-08
3.08953e-05
1.50423e-08
3.17124e-05
2.69964e-08
3.25535e-05
1.17238e-08
-8.67967e-07
1.93447e-05
-1.19434e-06
2.15132e-05
-1.58931e-06
2.39192e-05
-2.05914e-06
2.65925e-05
-2.60955e-06
2.95688e-05
-3.24323e-06
3.28838e-05
-3.96124e-06
3.65791e-05
-4.75915e-06
4.07159e-05
-5.62559e-06
4.53604e-05
-6.54248e-06
5.06004e-05
-7.4802e-06
5.65419e-05
-8.39731e-06
6.33206e-05
-9.2378e-06
7.11006e-05
-9.93394e-06
7.88074e-05
-1.04139e-05
7.99784e-05
-1.06633e-05
8.13234e-05
-1.06635e-05
8.28174e-05
-1.04101e-05
8.44179e-05
-9.91386e-06
8.60892e-05
-9.19879e-06
8.77848e-05
-8.29788e-06
9.43394e-05
-7.18477e-06
8.3661e-05
-7.58396e-06
7.43193e-05
-6.34521e-06
6.59178e-05
-5.21868e-06
5.83372e-05
-4.21913e-06
5.15618e-05
-3.34844e-06
4.55064e-05
-2.60119e-06
4.00675e-05
-1.96749e-06
3.51539e-05
-1.43509e-06
3.07756e-05
-9.90817e-07
2.68018e-05
-6.25504e-07
2.3166e-05
-3.34354e-07
1.94281e-05
-1.24362e-07
1.46013e-05
1.73871e-05
-8.59003e-07
2.77767e-05
-5.80294e-07
2.85367e-05
-3.66756e-07
2.93092e-05
-2.08431e-07
3.00938e-05
-9.67957e-08
3.08959e-05
-2.50684e-08
3.17148e-05
1.26628e-08
3.25562e-05
2.42718e-08
3.34194e-05
1.03669e-08
-1.18083e-06
1.93312e-05
-1.5702e-06
2.14941e-05
-2.0335e-06
2.38935e-05
-2.57679e-06
2.65598e-05
-3.20349e-06
2.95291e-05
-3.91591e-06
3.28385e-05
-4.71167e-06
3.65316e-05
-5.58246e-06
4.06728e-05
-6.51446e-06
4.53324e-05
-7.48376e-06
5.0604e-05
-8.45595e-06
5.66006e-05
-9.38304e-06
6.34658e-05
-1.02055e-05
7.13721e-05
-1.08506e-05
7.92442e-05
-1.12475e-05
8.05626e-05
-1.13916e-05
8.20515e-05
-1.12717e-05
8.36791e-05
-1.08925e-05
8.53966e-05
-1.02737e-05
8.71642e-05
-9.44608e-06
8.8933e-05
-8.4483e-06
9.56029e-05
-8.97861e-06
8.50557e-05
-7.56432e-06
7.55384e-05
-6.26875e-06
6.69679e-05
-5.11316e-06
5.92312e-05
-4.10376e-06
5.23171e-05
-3.23613e-06
4.61414e-05
-2.49991e-06
4.05999e-05
-1.88171e-06
3.56005e-05
-1.36686e-06
3.11516e-05
-9.40673e-07
2.71169e-05
-5.92652e-07
2.34243e-05
-3.16652e-07
1.96204e-05
-1.18088e-07
1.47193e-05
1.73741e-05
-1.16791e-06
2.77431e-05
-8.25373e-07
2.85134e-05
-5.56997e-07
2.92943e-05
-3.51808e-07
3.00855e-05
-2.00115e-07
3.08926e-05
-9.35257e-08
3.17151e-05
-2.53319e-08
3.25583e-05
1.05144e-08
3.34219e-05
2.17106e-08
3.43053e-05
9.11041e-09
-1.55179e-06
1.93128e-05
-2.00852e-06
2.14692e-05
-2.54437e-06
2.38611e-05
-3.16323e-06
2.65195e-05
-3.86837e-06
2.94816e-05
-4.65895e-06
3.27858e-05
-5.52909e-06
3.64782e-05
-6.46846e-06
4.06268e-05
-7.45791e-06
4.53065e-05
-8.46913e-06
5.06172e-05
-9.46138e-06
5.66789e-05
-1.0383e-05
6.36433e-05
-1.11689e-05
7.16904e-05
-1.1745e-05
7.97416e-05
-1.20422e-05
8.12132e-05
-1.20676e-05
8.28474e-05
-1.18188e-05
8.46054e-05
-1.13102e-05
8.64331e-05
-1.05692e-05
8.82873e-05
-9.63317e-06
9.01178e-05
-1.05755e-05
9.71998e-05
-8.96741e-06
8.64588e-05
-7.48008e-06
7.67498e-05
-6.14579e-06
6.80005e-05
-4.9753e-06
6.01028e-05
-3.96703e-06
5.3048e-05
-3.11045e-06
4.67519e-05
-2.39087e-06
4.1109e-05
-1.79185e-06
3.60255e-05
-1.29681e-06
3.15077e-05
-8.89967e-07
2.74142e-05
-5.59632e-07
2.36673e-05
-2.98854e-07
1.98012e-05
-1.11665e-07
1.4831e-05
1.73566e-05
-1.53426e-06
2.76958e-05
-1.12064e-06
2.84787e-05
-7.90643e-07
2.927e-05
-5.3276e-07
3.00698e-05
-3.36131e-07
3.08838e-05
-1.91257e-07
3.17114e-05
-8.98498e-08
3.25583e-05
-2.52936e-08
3.34238e-05
8.59062e-09
3.43077e-05
1.93109e-08
3.52192e-05
7.95297e-09
-1.98453e-06
1.92888e-05
-2.51284e-06
2.14376e-05
-3.12343e-06
2.38213e-05
-3.82019e-06
2.64713e-05
-4.6035e-06
2.94261e-05
-5.46934e-06
3.2726e-05
-6.4102e-06
3.642e-05
-7.41088e-06
4.05798e-05
-8.44825e-06
4.52856e-05
-9.488e-06
5.06438e-05
-1.04858e-05
5.67817e-05
-1.13841e-05
6.38585e-05
-1.21152e-05
7.20607e-05
-1.26046e-05
8.0304e-05
-1.27867e-05
8.19323e-05
-1.26822e-05
8.37108e-05
-1.22988e-05
8.55939e-05
-1.16592e-05
8.7523e-05
-1.07985e-05
8.94527e-05
-1.20809e-05
9.16233e-05
-1.05817e-05
9.88142e-05
-8.8792e-06
8.78579e-05
-7.3399e-06
7.79439e-05
-5.9836e-06
6.90088e-05
-4.81137e-06
6.09471e-05
-3.81388e-06
5.37514e-05
-2.97518e-06
4.73362e-05
-2.27676e-06
4.1594e-05
-1.69978e-06
3.64284e-05
-1.22627e-06
3.1844e-05
-8.39396e-07
2.7694e-05
-5.26949e-07
2.38954e-05
-2.8124e-07
1.99707e-05
-1.05223e-07
1.49362e-05
1.73338e-05
-1.96174e-06
2.76319e-05
-1.47031e-06
2.84301e-05
-1.07202e-06
2.92343e-05
-7.54863e-07
3.00447e-05
-5.07658e-07
3.08674e-05
-3.19797e-07
3.17021e-05
-1.81895e-07
3.25542e-05
-8.57841e-08
3.34235e-05
-2.49505e-08
3.43094e-05
6.889e-09
3.52214e-05
1.70689e-08
3.61551e-05
6.89121e-09
-2.48261e-06
1.92585e-05
-3.08475e-06
2.1399e-05
-3.77252e-06
2.37736e-05
-4.54717e-06
2.6415e-05
-5.40614e-06
2.93629e-05
-6.34415e-06
3.266e-05
-7.34922e-06
3.63583e-05
-8.40257e-06
4.05341e-05
-9.47547e-06
4.52731e-05
-1.05302e-05
5.06882e-05
-1.15164e-05
5.6914e-05
-1.23733e-05
6.41166e-05
-1.30317e-05
7.24878e-05
-1.34175e-05
8.09348e-05
-1.34711e-05
8.27213e-05
-1.32286e-05
8.46406e-05
-1.27067e-05
8.66414e-05
-1.19368e-05
8.86613e-05
-1.35707e-05
9.09424e-05
-1.21125e-05
9.3154e-05
-1.04962e-05
0.000100431
-8.72384e-06
8.92418e-05
-7.15244e-06
7.91127e-05
-5.78975e-06
6.99872e-05
-4.62735e-06
6.17606e-05
-3.64894e-06
5.44252e-05
-2.83365e-06
4.78931e-05
-2.15995e-06
4.20541e-05
-1.6072e-06
3.68094e-05
-1.15614e-06
3.21608e-05
-7.89643e-07
2.79567e-05
-4.94982e-07
2.41091e-05
-2.64001e-07
2.01295e-05
-9.88673e-08
1.50351e-05
1.73051e-05
-2.45391e-06
2.7548e-05
-1.8779e-06
2.83643e-05
-1.40458e-06
2.91841e-05
-1.02182e-06
3.00077e-05
-7.17858e-07
3.08415e-05
-4.81685e-07
3.16851e-05
-3.02836e-07
3.25444e-05
-1.72044e-07
3.34191e-05
-8.1337e-08
3.43087e-05
-2.43067e-08
3.52229e-05
5.40253e-09
3.61572e-05
1.49797e-08
3.6589e-05
5.93504e-09
-3.04766e-06
1.92215e-05
-3.72618e-06
2.13526e-05
-4.49134e-06
2.37178e-05
-5.34169e-06
2.63506e-05
-6.27372e-06
2.92925e-05
-7.27803e-06
3.25888e-05
-8.33949e-06
3.62952e-05
-9.43409e-06
4.04927e-05
-1.053e-05
4.52729e-05
-1.15833e-05
5.07551e-05
-1.25404e-05
5.70811e-05
-1.3338e-05
6.44228e-05
-1.3906e-05
7.29762e-05
-1.41732e-05
8.16369e-05
-1.40878e-05
8.35805e-05
-1.3701e-05
8.56349e-05
-1.30392e-05
8.77439e-05
-1.50366e-05
9.01272e-05
-1.36375e-05
9.24675e-05
-1.20383e-05
9.46961e-05
-1.03303e-05
0.000102038
-8.51128e-06
9.06006e-05
-6.9266e-06
8.02496e-05
-5.57144e-06
7.09313e-05
-4.42887e-06
6.25405e-05
-3.47623e-06
5.50678e-05
-2.68876e-06
4.84219e-05
-2.04254e-06
4.24895e-05
-1.51527e-06
3.71685e-05
-1.0873e-06
3.24584e-05
-7.41204e-07
2.82029e-05
-4.63975e-07
2.43091e-05
-2.473e-07
2.0278e-05
-9.26804e-08
1.51278e-05
1.72699e-05
-3.01248e-06
2.74409e-05
-2.34676e-06
2.82788e-05
-1.79232e-06
2.91168e-05
-1.3373e-06
2.99563e-05
-9.70374e-07
3.08035e-05
-6.79908e-07
3.16583e-05
-4.54899e-07
3.25268e-05
-2.85225e-07
3.34087e-05
-1.61726e-07
3.43039e-05
-7.65284e-08
3.52219e-05
-2.3361e-08
3.61584e-05
4.1282e-09
3.65909e-05
1.30592e-08
3.55528e-05
5.1079e-09
-3.68173e-06
1.9177e-05
-4.43698e-06
2.12983e-05
-5.27763e-06
2.36537e-05
-6.20149e-06
2.62784e-05
-7.20129e-06
2.92157e-05
-8.26484e-06
3.25141e-05
-9.37215e-06
3.62333e-05
-1.04964e-05
4.04591e-05
-1.15998e-05
4.52893e-05
-1.2635e-05
5.08497e-05
-1.35452e-05
5.72883e-05
-1.42655e-05
6.47823e-05
-1.47269e-05
7.353e-05
-1.4863e-05
8.24121e-05
-1.46299e-05
8.45094e-05
-1.40953e-05
8.66909e-05
-1.64685e-05
8.91758e-05
-1.51503e-05
9.164e-05
-1.35852e-05
9.40143e-05
-1.18709e-05
9.62367e-05
-1.00952e-05
0.000103622
-8.25196e-06
9.1926e-05
-6.67079e-06
8.13489e-05
-5.3354e-06
7.18378e-05
-4.22079e-06
6.32851e-05
-3.29933e-06
5.56783e-05
-2.5431e-06
4.89225e-05
-1.92597e-06
4.29002e-05
-1.4251e-06
3.75063e-05
-1.02042e-06
3.27377e-05
-6.9439e-07
2.84333e-05
-4.34138e-07
2.44959e-05
-2.31262e-07
2.04165e-05
-8.67174e-08
1.52145e-05
1.72277e-05
-3.63954e-06
2.73076e-05
-2.87919e-06
2.81697e-05
-2.23768e-06
2.9029e-05
-1.70454e-06
2.98874e-05
-1.26843e-06
3.07508e-05
-9.17633e-07
3.16193e-05
-6.40944e-07
3.24993e-05
-4.27419e-07
3.33906e-05
-2.67088e-07
3.42932e-05
-1.51e-07
3.52168e-05
-7.13864e-08
3.61572e-05
-2.21418e-08
3.65919e-05
3.07406e-09
3.55545e-05
1.13538e-08
3.45447e-05
4.38979e-09
-4.38478e-06
1.91248e-05
-5.2151e-06
2.12357e-05
-6.12939e-06