/*--------------------------------*- C++ -*----------------------------------*\
  =========                 |
  \\      /  F ield         | OpenFOAM: The Open Source CFD Toolbox
   \\    /   O peration     | Website:  https://openfoam.org
    \\  /    A nd           | Version:  8
     \\/     M anipulation  |
\*---------------------------------------------------------------------------*/
FoamFile
{
    version     2.0;
    format      ascii;
    class       volScalarField;
    location    "0.08";
    object      p;
}
// * * * * * * * * * * * * * * * * * * * * * * * * * * * * * * * * * * * * * //

dimensions      [0 2 -2 0 0 0 0];

internalField   nonuniform List<scalar> 
15677
(
73.6565
73.2505
72.9149
73.4048
72.9136
72.8509
73.3246
72.9326
72.8606
72.7865
73.3051
72.9328
72.8611
72.7952
72.6904
73.2869
72.9359
72.8615
72.7945
72.6979
72.5901
73.2641
72.9387
72.8617
72.795
72.6979
72.5968
72.4773
73.2393
72.9404
72.8615
72.7951
72.6987
72.5968
72.4831
72.3412
73.2135
72.9415
72.8608
72.7949
72.6993
72.5976
72.4833
72.3463
72.1751
73.1867
72.9422
72.8598
72.7942
72.6998
72.5983
72.4841
72.3466
72.1794
71.972
73.1588
72.9427
72.8583
72.7933
72.7002
72.599
72.4849
72.3475
72.1798
71.9756
71.7241
73.1299
72.9426
72.8568
72.7924
72.7008
72.5997
72.4857
72.3484
72.1809
71.9762
71.727
71.4231
73.0999
72.9417
72.8553
72.7917
72.7015
72.6006
72.4867
72.3496
72.1821
71.9774
71.7277
71.4253
71.0607
73.0691
72.9399
72.854
72.7912
72.7026
72.602
72.4882
72.3511
72.1836
71.979
71.7292
71.4261
71.062
70.6284
73.0408
72.9374
72.8532
72.791
72.7043
72.6041
72.4903
72.3532
72.1857
71.981
71.7312
71.428
71.0629
70.6287
70.1181
73.0165
72.9344
72.853
72.7912
72.707
72.6073
72.4934
72.3563
72.1887
71.9838
71.7339
71.4305
71.0653
70.63
70.1174
69.5224
72.9956
72.9315
72.8535
72.7922
72.7108
72.612
72.4982
72.3611
72.1932
71.988
71.7377
71.434
71.0684
70.6326
70.119
69.5205
68.8343
72.9782
72.9281
72.8545
72.794
72.7161
72.6187
72.5053
72.368
72.1998
71.9941
71.7432
71.4389
71.0728
70.6365
70.122
69.5223
68.8312
68.0484
72.9637
72.9242
72.8558
72.7964
72.7225
72.628
72.5152
72.3782
72.2096
72.0032
71.7514
71.4462
71.0793
70.6421
70.1268
69.5259
68.8332
68.0439
67.1602
72.9514
72.92
72.8571
72.7995
72.7295
72.6392
72.5288
72.3924
72.2237
72.0164
71.7635
71.457
71.0887
70.6503
70.1338
69.5316
68.8374
68.0461
67.1541
66.1668
72.9412
72.9159
72.8586
72.8032
72.7372
72.6514
72.5455
72.4119
72.2434
72.0355
71.7811
71.4728
71.1025
70.6621
70.1438
69.5401
68.8441
68.0508
67.1565
66.159
65.0672
72.9329
72.912
72.8601
72.8074
72.7456
72.6647
72.5636
72.4356
72.2704
72.0621
71.8063
71.4957
71.1227
70.6795
70.1585
69.5523
68.8542
68.0587
67.1619
66.1617
65.0576
63.8621
72.9266
72.9087
72.8617
72.8122
72.7546
72.679
72.5834
72.4614
72.3032
72.0985
71.8415
71.5284
71.152
70.705
70.18
69.5702
68.8689
68.0706
67.1709
66.1676
65.0605
63.8505
62.5545
72.9216
72.906
72.8633
72.8174
72.7641
72.6941
72.6047
72.4896
72.339
72.1429
71.8898
71.5742
71.1938
70.7418
70.2115
69.5963
68.8902
68.0878
67.1845
66.1777
65.0669
63.8536
62.5409
61.1495
72.9178
72.9039
72.8648
72.8226
72.774
72.71
72.6273
72.5199
72.3781
72.1912
71.9485
71.6369
71.2522
70.7943
70.257
69.6345
68.9214
68.1128
67.2043
66.1931
65.0781
63.8604
62.544
61.1337
59.6589
72.9147
72.9022
72.8663
72.8276
72.7839
72.7263
72.6509
72.552
72.4201
72.2442
72.0126
71.7133
71.3323
70.8676
70.3218
69.6898
68.967
68.1494
67.2331
66.2155
65.0951
63.8725
62.5511
61.1366
59.6393
58.1108
72.9122
72.9009
72.8676
72.8321
72.793
72.7423
72.6753
72.5857
72.4647
72.3012
72.0829
71.7967
71.43
70.9682
70.4124
69.7685
69.033
68.2029
67.2753
66.248
65.1198
63.8909
62.5637
61.1434
59.6398
58.0503
56.4487
72.9102
72.8999
72.8689
72.8362
72.8013
72.757
72.6992
72.6205
72.5114
72.3616
72.1585
71.8883
71.5368
71.0911
70.5368
69.8787
69.1272
68.2805
67.3371
66.2958
65.1559
63.9177
62.5831
61.156
59.6451
58.0562
56.3792
54.6565
72.9085
72.8991
72.87
72.8399
72.8087
72.7703
72.7211
72.6546
72.5596
72.4248
72.2388
71.987
71.6543
71.2258
70.6891
70.0303
69.2592
68.3913
67.4268
66.3659
65.209
63.9569
62.6114
61.1757
59.6562
58.0587
56.3845
54.6312
52.8054
72.9072
72.8984
72.8709
72.8433
72.8154
72.7822
72.7409
72.6859
72.6069
72.4903
72.323
72.0919
71.781
71.374
70.8562
70.216
69.441
68.5469
67.5552
66.468
65.2873
64.0148
62.6529
61.2045
59.6744
58.0667
56.3798
54.6206
52.795
50.9058
72.906
72.8979
72.8717
72.8465
72.8214
72.7928
72.7587
72.7141
72.6503
72.5545
72.4101
72.2019
71.9158
71.5341
71.0404
70.4203
69.6643
68.7619
67.7362
66.6148
65.4018
64.1007
62.7148
61.2472
59.7021
58.0823
56.3856
54.6119
52.7789
50.8996
48.7595
72.9051
72.8974
72.8723
72.8493
72.8267
72.8023
72.7745
72.7394
72.6895
72.6135
72.4957
72.316
72.0573
71.7047
71.2398
70.6459
69.9105
69.0267
67.9868
66.8221
65.5668
64.2269
62.8072
61.3117
59.7443
58.1077
56.3998
54.6186
52.7708
50.8818
48.7566
46.3401
72.9043
72.897
72.8729
72.8519
72.8315
72.8107
72.7886
72.762
72.7246
72.6667
72.5743
72.4281
72.2043
71.8841
71.4525
70.8906
70.1829
69.3192
68.2962
67.1099
65.8007
64.4097
62.944
61.4092
59.8097
58.1482
56.4235
54.6328
52.7789
50.8748
48.7399
46.3393
43.9015
72.9036
72.8967
72.8735
72.8541
72.8357
72.8182
72.8011
72.7821
72.756
72.7145
72.6453
72.5311
72.3488
72.0707
71.6766
71.1522
70.479
69.6436
68.6389
67.4665
66.1268
64.67
63.1434
61.5549
59.9104
58.213
56.4623
54.6557
52.7934
50.8825
48.7328
46.3239
43.9023
41.4735
72.903
72.8965
72.8741
72.856
72.8394
72.8248
72.8122
72.8
72.7839
72.7571
72.709
72.6243
72.4819
72.2544
71.9101
71.4283
70.7963
69.9972
69.0202
67.8628
66.5324
65.0344
63.4289
61.7692
60.0631
58.3152
56.5261
54.6934
52.8161
50.8967
48.7378
46.3163
43.8887
41.4745
39.0791
72.8962
72.9024
72.8746
72.8578
72.8427
72.8307
72.8221
72.8158
72.8088
72.7952
72.7661
72.7081
72.6024
72.4238
72.1404
71.7165
71.1319
70.3769
69.4367
68.3049
66.9846
65.4896
63.8307
62.0782
60.29
58.4729
56.6289
54.7563
52.853
50.9187
48.75
46.3184
43.8807
41.4619
39.08
36.734
72.8751
72.896
72.9016
72.8593
72.8456
72.8359
72.8308
72.8299
72.8308
72.829
72.8169
72.783
72.7108
72.5773
72.3531
72.0014
71.4832
70.7796
69.8854
68.7895
67.4908
65.9991
64.3351
62.5155
60.6198
58.71
56.7899
54.8589
52.9146
50.954
48.7696
46.3276
43.8799
41.4529
39.068
36.7343
34.4497
72.8606
72.8758
72.8958
72.9009
72.8482
72.8405
72.8386
72.8423
72.8503
72.8589
72.862
72.8498
72.8078
72.7156
72.5462
72.265
71.8311
71.2022
70.3626
69.313
68.0475
66.5714
64.9019
63.0673
61.0898
59.0577
57.0347
55.0217
53.0161
51.013
48.8013
46.3427
43.8853
41.4488
39.0575
36.7227
34.4493
32.2363
72.8505
72.8624
72.8767
72.8955
72.9002
72.8446
72.8454
72.8534
72.8676
72.8855
72.9022
72.9093
72.8944
72.8396
72.7203
72.5048
72.1538
71.622
70.8649
69.8716
68.6508
67.2031
65.5412
63.6903
61.6863
59.5565
57.397
55.2718
53.1787
51.1115
48.8554
46.368
43.8948
41.4494
39.0495
36.7103
34.4377
32.235
30.1022
72.8481
72.8535
72.8645
72.8777
72.8953
72.8995
72.8515
72.8632
72.883
72.9091
72.9377
72.9621
72.9715
72.9503
72.8766
72.7214
72.4479
72.0123
71.3653
70.4615
69.297
67.8902
66.2494
64.3958
62.3628
60.1937
57.9205
55.6449
53.4311
51.2714
48.9479
46.4136
43.9119
41.4519
39.0444
36.6982
34.4233
32.2234
30.1001
28.0538
72.8567
72.8528
72.8569
72.8666
72.8786
72.8951
72.8989
72.8718
72.8966
72.93
72.9693
73.0089
73.04
73.0489
73.0163
72.916
72.7141
72.3689
71.832
71.0512
69.9816
68.6288
67.0228
65.1805
63.1324
60.92
58.5933
56.188
53.8108
51.5225
49.1016
46.4958
43.9465
41.4592
39.0388
36.6868
34.4068
32.2067
30.0883
28.0509
26.0954
72.8792
72.8634
72.8578
72.8603
72.8686
72.8796
72.895
72.8984
72.9086
72.9486
72.9972
73.0505
73.1008
73.1366
73.1409
73.0902
72.9536
72.6922
72.2594
71.6029
70.6688
69.4146
67.8575
66.0411
63.9919
61.7496
59.3639
56.8904
54.3676
51.904
49.3469
46.6375
44.0147
41.4805
39.0346
36.6719
34.3886
32.1857
30.0693
28.0388
26.0917
24.2295
72.9189
72.8886
72.8705
72.8628
72.8636
72.8706
72.8805
72.8948
72.8979
72.965
73.0221
73.0874
73.1548
73.2146
73.2518
73.2457
73.1684
72.9837
72.6478
72.1096
71.3138
70.2064
68.7492
66.9737
64.9386
62.6804
60.2482
57.6986
55.0921
52.468
49.7248
46.8702
44.1399
41.5319
39.0406
36.6549
34.3638
32.1604
30.0437
28.0174
26.0793
24.225
22.4571
72.979
72.9317
72.8982
72.8774
72.8677
72.8669
72.8725
72.8814
72.8947
72.8974
73.0441
73.1202
73.2027
73.2837
73.3504
73.3843
73.3604
73.2456
72.9989
72.5713
71.9082
70.9525
69.6517
67.9746
65.9692
63.7103
61.2449
58.6304
55.93
53.2063
50.2888
47.2359
44.354
41.6365
39.0722
36.6437
34.333
32.1252
30.0111
27.9872
26.0554
24.2122
22.4519
20.7782
73.0628
72.9962
72.9444
72.9076
72.8843
72.8725
72.87
72.8744
72.8823
72.8945
72.8969
73.1491
73.2454
73.3452
73.438
73.5077
73.5317
73.4801
73.3148
72.9897
72.4514
71.6423
70.5055
68.9922
67.0804
64.8368
62.3529
59.6858
56.9009
54.0648
51.0328
47.7882
44.6988
41.8265
39.153
36.6536
34.3032
32.0798
29.9652
27.9473
26.0207
24.1858
22.4388
20.7723
19.1915
73.1738
73.0857
73.0127
72.9568
72.9168
72.8909
72.8771
72.8731
72.8762
72.8832
72.8944
72.8965
73.2831
73.3999
73.5159
73.6174
73.6843
73.6895
73.5982
73.367
72.9448
72.2748
71.298
69.9593
68.2158
66.0573
63.5709
60.8649
58.0061
55.0649
51.9036
48.5243
45.2275
42.1423
39.3138
36.7074
34.2897
32.0308
29.9048
27.8905
25.9735
24.1467
22.41
20.7588
19.185
17.6954
73.315
73.2037
73.1069
73.0288
72.9689
72.9256
72.8973
72.8816
72.876
72.8779
72.8841
72.8943
72.8962
73.4483
73.5853
73.7149
73.8201
73.8763
73.8517
73.706
73.3909
72.8511
72.0271
70.8604
69.2997
67.3109
64.8972
62.1675
59.247
56.2091
52.9242
49.3929
45.9405
42.636
39.5933
36.8346
34.3144
31.9928
29.836
27.815
25.9059
24.0923
22.3666
20.7276
19.1713
17.6882
16.287
73.4892
73.3538
73.2307
73.1275
73.0445
72.9805
72.9341
72.9033
72.8858
72.8788
72.8796
72.8849
72.8942
72.8958
73.6466
73.8019
73.941
74.0428
74.0781
74.0099
73.7927
73.3734
72.6935
71.6925
70.314
68.5133
66.2668
63.5937
60.6251
57.5007
54.0987
50.4183
46.7899
43.3116
40.0417
37.0715
34.4043
31.9866
29.773
27.7263
25.8152
24.014
22.3051
20.6802
19.1377
17.6742
16.2793
14.9635
73.6984
73.539
73.3878
73.2569
73.1475
73.0594
72.9915
72.9421
72.9091
72.8898
72.8814
72.8812
72.8857
72.8941
72.8956
73.8788
74.0489
74.1912
74.2801
74.2817
74.1535
73.845
73.2992
72.4556
71.2543
69.6435
67.5873
65.0746
62.1424
58.9429
55.4323
51.6062
47.8001
44.1251
40.6669
37.4657
34.5932
32.0364
29.7346
27.638
25.7068
23.9085
22.2163
20.6119
19.0864
17.6384
16.265
14.9552
13.7213
73.9435
73.7616
73.5816
73.4208
73.2823
73.1665
73.0734
73.0018
72.9496
72.9145
72.8936
72.8838
72.8826
72.8864
72.894
72.8953
74.1442
74.3237
74.4605
74.5246
74.4768
74.2694
73.8475
73.1513
72.1196
70.6957
68.8341
66.5098
63.7271
60.5399
56.9306
52.9642
48.9789
45.1004
41.4286
38.0283
34.9257
32.1733
29.7423
27.5666
25.5932
23.7807
22.0963
20.5129
19.0115
17.5834
16.2271
14.9407
13.7126
12.5571
74.2243
74.0232
73.8146
73.6228
73.4527
73.3062
73.1843
73.0865
73.0114
72.9566
72.9195
72.897
72.8861
72.8839
72.887
72.8939
72.8951
74.4406
74.6216
74.7417
74.7661
74.6504
74.3421
73.7828
72.9112
71.6675
69.9997
67.8716
65.2714
62.2177
58.6003
54.5011
50.3361
46.2466
42.3492
38.723
35.4148
32.4379
29.8242
27.5311
25.4887
23.6422
21.9498
20.3789
18.9027
17.5023
16.1687
14.9008
13.6979
12.5479
11.4672
74.5387
74.324
74.0888
73.8659
73.6626
73.4826
73.3284
73.2007
73.0986
73.0202
72.963
72.9241
72.9002
72.8882
72.8851
72.8875
72.8939
72.895
74.7637
74.9359
75.0252
74.992
74.7871
74.3539
73.6318
72.5594
71.0805
69.1503
66.7439
63.8617
60.3668
56.2271
51.8835
47.5755
43.4385
39.5694
36.0283
32.8439
30.0159
27.556
25.4092
23.5046
21.7868
20.2142
18.7553
17.384
16.0815
14.8391
13.656
12.533
11.4573
10.4476
74.8827
74.6627
74.4049
74.1523
73.9152
73.6997
73.5101
73.3487
73.2157
73.1096
73.0283
72.9689
72.9282
72.903
72.8899
72.886
72.888
72.8939
72.8948
75.1069
75.2572
75.2985
75.1869
74.869
74.2852
73.3739
72.076
70.3407
68.1327
65.4374
62.1096
58.0682
53.6335
49.0995
44.708
40.5764
36.7816
33.3634
30.3309
27.671
25.376
23.3813
21.6167
20.0275
18.5733
17.2239
15.9544
14.7462
13.5914
12.4893
11.4421
10.4365
9.49611
75.25
75.0359
74.762
74.4832
74.2133
73.9611
73.7337
73.5352
73.3672
73.2292
73.1195
73.0354
72.974
72.9318
72.9054
72.8913
72.8868
72.8884
72.8938
72.8947
75.461
75.5731
75.5463
75.3327
74.8759
74.1145
72.9879
71.441
69.4307
66.9307
63.7904
59.8971
55.5112
50.8308
46.169
41.7536
37.6813
34.0063
30.7455
27.8886
25.4117
23.2896
21.4501
19.8258
18.3637
17.0254
15.7822
14.6107
13.4931
12.422
11.3967
10.4211
9.48079
8.70719
75.6314
75.4382
75.1576
74.8585
74.5584
74.2697
74.0028
73.7644
73.5577
73.3836
73.2411
73.1281
73.0416
72.9783
72.9347
72.9074
72.8926
72.8875
72.8888
72.8938
72.8946
75.814
75.8687
75.7505
75.409
74.7857
73.8195
72.4521
70.6348
68.3322
65.3911
61.6684
57.3829
52.6954
47.8342
43.1123
38.7359
34.7769
31.2637
28.19
25.5277
23.2446
21.3002
19.6167
18.1313
16.7937
15.568
14.4272
13.3496
12.3186
11.3271
10.3745
9.46663
8.70037
8.04219
76.015
75.8615
75.587
75.2762
74.9509
74.6277
74.3209
74.0403
73.7917
73.5774
73.3978
73.2513
73.1353
73.0467
72.9818
72.9371
72.909
72.8936
72.8881
72.889
72.8938
72.8945
76.1506
76.1257
75.8904
75.3928
74.5751
73.3768
71.7451
69.6373
66.8985
63.3585
59.1997
54.5627
49.6405
44.6713
39.9602
35.6848
31.8886
28.5731
25.7102
23.2567
21.1741
19.4095
17.881
16.5318
15.3153
14.198
13.1555
12.1678
11.219
10.303
9.419
8.69245
8.04625
7.34443
76.3855
76.295
76.0431
75.7325
75.3896
75.0358
74.6901
74.3664
74.0733
73.8154
73.5943
73.4097
73.2597
73.1411
73.0506
72.9844
72.9389
72.9103
72.8944
72.8886
72.8893
72.8938
72.8945
76.4526
76.3233
75.9427
75.2603
74.219
72.7634
70.8441
68.3046
64.9518
60.9392
56.3909
51.4734
46.3891
41.3844
36.7512
32.6322
29.0409
25.9518
23.3175
21.082
19.2032
17.6178
16.2419
15.0252
13.9254
12.9123
11.9636
11.0613
10.1905
9.34593
8.64393
8.04037
7.34495
6.5936
76.7245
76.7247
76.516
76.2213
75.8714
75.4935
75.112
74.7455
74.4062
74.1016
73.8352
73.6082
73.4192
73.266
73.1453
73.0534
72.9864
72.9404
72.9113
72.895
72.8889
72.8895
72.8937
72.8944
76.6988
76.4377
75.8826
74.9849
73.6933
71.9533
69.606
66.4404
62.59
58.1655
53.3028
48.1726
42.9927
38.019
33.523
29.608
26.2555
23.4145
21.0207
19.0081
17.3331
15.9244
14.6973
13.6084
12.6208
11.7073
10.8478
10.0264
9.22941
8.57025
7.99227
7.33491
6.58758
5.77319
77.0101
77.1335
76.9931
76.7341
76.3914
75.9985
75.5865
75.1793
74.7935
74.44
74.1249
73.8512
73.6188
73.4261
73.2704
73.1482
73.0554
72.9878
72.9414
72.912
72.8955
72.8892
72.8896
72.8937
72.8944
76.8646
76.4433
75.6826
74.541
72.9678
70.8028
67.8224
64.147
59.8776
55.1176
49.9989
44.7117
39.4965
34.6153
30.3096
26.6381
23.5507
20.973
18.8263
17.0376
15.5638
14.3277
13.2443
12.2784
11.3979
10.5791
9.80419
9.05941
8.45029
7.91765
7.28647
6.57232
5.76375
4.87818
77.2171
77.5012
77.4583
77.2593
76.942
76.5468
76.1121
75.6684
75.2373
74.8339
74.4674
74.1432
73.8629
73.6259
73.4304
73.273
73.1498
73.0565
72.9887
72.942
72.9125
72.8958
72.8895
72.8898
72.8937
72.8943
76.9234
76.3118
75.3156
73.8943
71.8982
69.099
65.6084
61.519
56.9028
51.8521
46.5202
41.1279
35.9374
31.2076
27.1395
23.7442
20.9414
18.6358
16.7383
15.1715
13.8943
12.825
11.88
11.0315
10.2529
9.52387
8.82898
8.27552
7.79484
7.21016
6.52229
5.74592
4.86743
3.90587
77.3175
77.8043
77.8928
77.7825
77.5132
77.1319
76.6856
76.2119
75.7386
75.2857
74.8663
74.4884
74.1561
73.8702
73.6299
73.4324
73.274
73.1504
73.0569
72.989
72.9423
72.9127
72.896
72.8897
72.8898
72.8937
72.8943
76.8456
76.0143
74.7435
72.9004
70.2739
66.9732
63.0815
58.6412
53.7078
48.3954
42.8921
37.4508
32.3473
27.8258
24.0374
20.9441
18.4385
16.4089
14.7589
13.4094
12.3223
11.4134
10.6007
9.86388
9.18189
8.53775
8.03838
7.61604
7.08416
6.44326
5.69413
4.84884
3.89436
2.85114
77.2799
78.0171
78.2741
78.2864
78.092
77.7451
77.3016
76.8073
76.2972
75.7969
75.3241
74.8904
74.5025
74.1634
73.8735
73.6309
73.4324
73.2737
73.1501
73.0567
72.9889
72.9423
72.9128
72.8963
72.8898
72.8899
72.8936
72.8943
76.5991
75.5093
73.8217
71.3562
68.2415
64.5568
60.315
55.5388
50.3047
44.7615
39.1356
33.7075
28.7553
24.4963
21.0234
18.2512
16.0498
14.2957
12.8886
11.7496
10.8453
10.0896
9.4027
8.77163
8.181
7.73829
7.37333
6.90093
6.31356
5.61174
4.79562
3.87508
2.83902
1.70706
77.0682
78.111
78.5771
78.7501
78.6624
78.3748
77.9525
77.4504
76.9113
76.3677
75.8426
75.3521
74.906
74.5097
74.1656
73.8731
73.6295
73.4308
73.2722
73.1489
73.0559
72.9883
72.942
72.9131
72.8966
72.8899
72.8899
72.8936
72.8943
76.1389
74.6512
72.3593
69.4202
65.9391
61.9085
57.3192
52.213
46.6983
40.9634
35.2726
29.9253
25.189
21.242
18.1137
15.6755
13.7805
12.2976
11.1261
10.1896
9.45983
8.84963
8.28189
7.75087
7.36951
7.06572
6.65217
6.12536
5.47784
4.70982
3.82049
2.81871
1.6946
0.466222
76.632
78.0548
78.7736
79.15
79.2055
79.0067
78.6282
78.1346
77.5776
76.997
76.4227
75.8755
75.3694
74.9128
74.5104
74.1634
73.8697
73.6259
73.4276
73.2697
73.147
73.0544
72.9874
72.9423
72.9136
72.8967
72.8899
72.8898
72.8936
72.8944
75.317
73.2656
70.522
67.2319
63.4103
59.0266
54.0878
48.6622
42.8949
37.0172
31.3273
26.1323
21.6744
18.0824
15.321
13.2238
11.6327
10.4141
9.46934
8.72633
8.16217
7.68957
7.23442
6.92325
6.68679
6.33641
5.86996
5.28409
4.57144
3.73142
2.76258
1.67338
0.453613
-0.879029
77.8033
75.8241
78.8314
79.4592
79.6992
79.6235
79.316
78.8512
78.2906
77.6824
77.0638
76.4619
75.8952
75.3759
74.9117
74.5057
74.1572
73.8635
73.6205
73.4231
73.2661
73.1441
73.0526
72.9875
72.943
72.9139
72.8967
72.8898
72.8897
72.8936
72.8944
73.9765
71.5214
68.4464
64.8211
60.6445
55.9004
50.6147
44.8868
38.9043
32.9427
27.3269
22.3571
18.2352
15.0339
12.6545
10.8999
9.60672
8.64314
7.91527
7.35583
6.94824
6.60545
6.38516
6.22698
5.94648
5.54534
5.0214
4.37158
3.58833
2.67017
1.61543
0.43172
-0.89177
-2.33662
78.7084
77.2205
74.4953
79.6467
80.1186
80.2048
80.0002
79.5891
79.0428
78.4193
77.7641
77.1112
76.4848
75.9015
75.3727
74.9039
74.4962
74.1478
73.8551
73.6134
73.4174
73.2614
73.1409
73.0524
72.9886
72.9434
72.9139
72.8965
72.8896
72.8895
72.8936
72.8945
72.2929
69.5503
66.1523
62.1712
57.629
52.5213
46.8963
40.8908
34.7408
28.7642
23.3013
18.6278
14.8929
12.1096
10.1202
8.70502
7.70115
6.98207
6.46001
6.074
5.81399
5.72659
5.67071
5.47204
5.14349
4.68713
4.10093
3.38182
2.52205
1.51938
0.371774
-0.914318
-2.34949
-3.91476
79.6725
78.2904
76.1815
72.8388
80.4345
80.7275
80.6623
80.3342
79.8245
79.2016
78.5201
77.8222
77.1386
76.4914
75.8961
75.3614
74.8903
74.4827
74.1355
73.8447
73.6048
73.4102
73.2563
73.1404
73.0539
72.9892
72.9434
72.9136
72.8962
72.8894
72.8894
72.8936
72.8945
70.3926
67.3648
63.6182
59.2687
54.354
48.883
42.9317
36.6824
30.4236
24.5106
19.282
14.9716
11.6661
9.3193
7.72151
6.63867
5.91341
5.42688
5.09927
4.87663
4.89478
4.98732
4.89609
4.6532
4.27235
3.75615
3.10254
2.30837
1.3658
0.271829
-0.976257
-2.37276
-3.92772
-5.62189
80.6097
79.4395
77.4298
74.8256
70.977
81.1646
81.2809
81.0698
80.6236
80.0208
79.3266
78.5922
77.856
77.1462
76.4836
75.8806
75.3429
74.8718
74.4657
74.1209
73.8323
73.5943
73.4025
73.2551
73.1424
73.0547
72.9891
72.9429
72.913
72.8959
72.8891
72.8891
72.8936
72.8946
68.2824
64.9396
60.8309
56.1039
50.8122
44.9815
38.723
32.2738
25.9773
20.2141
15.3011
11.4137
8.57013
6.66941
5.4594
4.69883
4.23957
3.97312
3.82866
3.90667
4.12173
4.18585
4.05597
3.76493
3.32737
2.74635
2.01975
1.14437
0.112326
-1.08023
-2.43669
-3.95174
-5.63487
-7.46655
81.4826
80.5666
78.8
76.2554
73.2562
68.9129
81.8312
81.7764
81.4249
80.8663
80.1766
79.4172
78.635
77.8657
77.1363
76.4637
75.8566
75.3185
74.8492
74.4459
74.1039
73.8176
73.5832
73.4004
73.2578
73.1435
73.0547
72.9885
72.9421
72.9127
72.8956
72.8888
72.8889
72.8936
72.8948
65.932
62.2621
57.7819
52.67
46.9979
40.8138
34.275
27.6823
21.4313
15.9096
11.3902
7.97579
5.61636
4.16381
3.33308
2.88188
2.67507
2.61613
2.79987
3.09119
3.28376
3.31678
3.14472
2.80145
2.30244
1.65119
0.845672
-0.11744
-1.24607
-2.54484
-4.01767
-5.6596
-7.47946
-9.45731
82.2838
81.625
80.1583
77.8513
74.8726
71.489
66.6105
82.4313
82.2108
81.7249
81.0609
80.291
79.4722
78.6486
77.8543
77.1116
76.4333
75.8252
75.2891
74.8231
74.4232
74.084
73.8024
73.58
73.4039
73.2593
73.1434
73.0538
72.9874
72.9418
72.9126
72.8953
72.8883
72.8885
72.8936
72.8949
63.3295
59.3262
54.4659
48.961
42.9053
36.378
29.5953
22.9302
16.8198
11.6339
7.57875
4.67625
2.81309
1.8039
1.33974
1.18337
1.21503
1.51786
1.93526
2.20736
2.37532
2.37434
2.15646
1.75658
1.19096
0.463741
-0.427001
-1.48477
-2.71743
-4.13021
-5.72756
-7.50482
-9.4697
-11.6034
83.0091
82.6053
81.4436
79.4475
76.6967
73.3163
69.4898
64.0577
82.9607
82.5809
81.968
81.2061
80.3629
79.4922
78.6366
77.8249
77.0744
76.3942
75.788
75.2555
74.7935
74.397
74.0635
73.7976
73.5846
73.4059
73.2592
73.1423
73.0523
72.9873
72.9421
72.9123
72.8948
72.8878
72.8882
72.8936
72.8951
60.4711
56.1286
50.8783
44.9701
38.5274
31.6718
24.6954
18.046
12.1815
7.42375
3.89303
1.52952
0.165443
-0.411517
-0.524604
-0.401724
0.0336758
0.59523
0.998483
1.24958
1.39059
1.35257
1.08494
0.623671
-0.0140192
-0.823329
-1.80599
-2.96566
-4.31
-5.84472
-7.57467
-9.49515
-11.613
-14.3178
83.6531
83.5025
82.6461
80.9677
78.5299
75.3891
71.5537
67.2469
61.2518
83.4156
82.884
82.1525
81.3005
80.3925
79.4812
78.603
77.7805
77.0267
76.348
75.7458
75.2179
74.7597
74.37
74.0568
73.8035
73.5871
73.4058
73.2577
73.1402
73.0524
72.9881
72.9421
72.9117
72.8941
72.8872
72.8877
72.8937
72.8953
57.3559
52.6674
47.0132
40.688
33.8535
26.6935
19.5923
13.0651
7.55818
3.3141
0.355705
-1.45379
-2.32498
-2.48536
-2.26482
-1.68413
-0.958391
-0.403985
-0.0161945
0.211881
0.323466
0.245149
-0.0765375
-0.604268
-1.31986
-2.21776
-3.29933
-4.56835
-6.03216
-7.69662
-9.56689
-11.6384
-14.3308
-17.5495
84.2106
84.309
83.7613
82.4013
80.2838
77.4738
73.8987
69.5688
64.762
58.1936
83.7925
83.1183
82.2767
81.3441
80.3848
79.4441
78.5512
77.7235
76.9705
76.296
75.6988
75.1751
74.725
74.361
74.0643
73.8067
73.5871
73.4038
73.2549
73.1407
73.0541
72.9886
72.9417
72.911
72.8932
72.8865
72.8872
72.8937
72.8955
53.984
48.9392
42.8618
36.0988
28.8701
21.4456
14.3119
8.02963
2.99282
-0.662416
-3.01488
-4.26759
-4.65904
-4.42193
-3.67281
-2.76069
-2.03233
-1.48577
-1.11489
-0.91195
-0.832477
-0.954691
-1.33499
-1.9346
-2.73429
-3.72755
-4.91528
-6.30124
-7.89216
-9.69388
-11.7111
-14.3619
-17.5662
-20.8406
84.6775
85.017
84.7808
83.7447
81.9465
79.4734
76.2537
72.2058
67.3632
62.0423
54.8853
84.0889
83.2811
82.3401
81.3429
80.3458
79.3852
78.4843
77.6562
76.9074
76.2382
75.6456
75.1312
74.7132
74.3703
74.0684
73.8067
73.5844
73.4002
73.2561
73.1439
73.0556
72.9887
72.941
72.9099
72.8922
72.8856
72.8867
72.8937
72.8958
50.3545
44.9376
38.4081
31.1822
23.5672
15.9414
8.89118
2.98773
-1.47125
-4.47715
-6.20582
-6.90928
-6.83981
-5.98899
-4.8544
-3.92558
-3.19448
-2.65644
-2.30394
-2.12845
-2.08404
-2.25396
-2.69775
-3.375
-4.26527
-5.36091
-6.6622
-8.17258
-9.89796
-11.8432
-14.44
-17.6006
-20.8536
-24.1436
85.0504
85.6192
85.6947
84.9885
83.5149
81.3757
78.5175
74.8454
70.3113
64.9469
59.0978
51.3284
84.3012
83.3715
82.3497
81.304
80.2804
79.3082
78.4052
77.5808
76.8375
76.1731
75.591
75.116
74.7248
74.3754
74.0683
73.8033
73.5797
73.4022
73.2612
73.1467
73.0563
72.9883
72.9399
72.9086
72.8909
72.8847
72.886
72.8938
72.8962
46.4641
40.6509
33.6276
25.9116
17.934
10.2022
3.37787
-2.0074
-5.7926
-8.10732
-9.20888
-9.37952
-8.60471
-7.30373
-6.13235
-5.18555
-4.45138
-3.92248
-3.58997
-3.44444
-3.43824
-3.65994
-4.17242
-4.93333
-5.92089
-7.1261
-8.54829
-10.1904
-12.0563
-14.5812
-17.6859
-20.8847
-24.1546
-27.4316
85.3249
86.1102
86.493
86.1219
84.9799
83.1767
80.6789
77.386
73.2476
68.2264
62.3356
55.9392
47.5226
84.4277
83.3975
82.3139
81.2335
80.1933
79.2165
78.3163
77.4974
76.7588
76.1063
75.5718
75.1302
74.731
74.3754
74.0641
73.7973
73.5829
73.4099
73.2658
73.1485
73.0565
72.9873
72.9384
72.9069
72.8894
72.8835
72.8853
72.8939
72.8965
42.3045
36.0524
28.4785
20.2466
11.9583
4.2564
-2.17113
-6.90043
-9.9348
-11.5358
-12.0206
-11.3791
-10.0847
-8.72501
-7.51391
-6.54745
-5.80968
-5.29062
-4.97984
-4.8669
-4.90225
-5.18011
-5.76671
-6.61752
-7.70924
-9.03116
-10.5815
-12.3614
-14.8068
-17.8389
-20.9705
-24.1848
-27.4416
-30.69
85.4979
86.4833
87.1664
87.1333
86.3304
84.8669
82.7333
79.819
76.0739
71.4717
65.9695
59.5479
52.5776
43.4663
84.477
83.369
82.2402
81.137
80.0887
79.1132
78.218
77.4035
76.6782
76.0825
75.5892
75.1379
74.731
74.3701
74.0565
73.8021
73.594
73.4171
73.2693
73.1496
73.056
72.9859
72.9365
72.9049
72.8877
72.8822
72.8845
72.894
72.897
37.8549
31.1004
22.9045
14.143
5.64051
-1.85163
-7.69047
-11.6375
-13.8672
-14.752
-14.2974
-13.055
-11.6834
-10.2605
-9.00618
-8.01804
-7.27617
-6.76771
-6.48045
-6.40287
-6.48337
-6.82195
-7.48827
-8.43539
-9.63811
-11.0838
-12.7684
-15.128
-18.0805
-21.1295
-24.2713
-27.4727
-30.6989
-33.9012
85.5792
86.7328
87.7028
88.0113
87.5545
86.4345
84.6703
82.141
78.7855
74.5914
69.537
63.5634
56.6037
49.0257
39.1497
84.4613
83.2951
82.1353
81.0194
79.9703
78.9989
78.1075
77.3073
76.6491
76.1035
75.5984
75.1378
74.7245
74.3606
74.0632
73.8174
73.6045
73.4227
73.2717
73.1498
73.0548
72.9838
72.9341
72.9025
72.8856
72.8807
72.8836
72.8941
72.8974
33.084
25.7411
16.8383
7.56365
-0.997949
-8.05721
-13.1093
-16.168
-17.5671
-17.3582
-16.2043
-14.864
-13.409
-11.9175
-10.6159
-9.60411
-8.85768
-8.36055
-8.09866
-8.05937
-8.18876
-8.59277
-9.34456
-10.3944
-11.7148
-13.2904
-15.5548
-18.4208
-21.3826
-24.4351
-27.5613
-30.7307
-33.9088
-37.0438
85.5829
86.8697
88.089
88.7396
88.6398
87.8669
86.4762
84.3414
81.3809
77.5857
72.9576
67.4679
61.0326
53.5226
45.2913
34.5519
84.3911
83.1836
82.0052
80.8852
79.8388
78.8702
77.994
77.2724
76.6743
76.1145
75.5983
75.13
74.7127
74.3697
74.0838
73.8321
73.6131
73.4271
73.2731
73.1491
73.0527
72.981
72.9311
72.8996
72.8833
72.8791
72.8827
72.8942
72.8979
27.9449
19.8946
10.1938
0.486262
-7.91173
-14.2781
-18.3537
-20.4489
-20.5685
-19.5394
-18.2605
-16.8142
-15.2686
-13.7026
-12.3498
-11.3123
-10.5607
-10.0757
-9.84116
-9.84316
-10.0253
-10.4996
-11.3425
-12.5012
-13.9451
-16.1
-18.8691
-21.7378
-24.6972
-27.7311
-30.8211
-33.941
-37.0501
-40.0952
85.5215
86.911
88.3331
89.2971
89.5661
89.1515
88.1365
86.4063
83.8511
80.4557
76.2371
71.1975
65.2917
58.4017
50.3249
41.3763
29.6419
84.2759
83.042
81.8552
80.7357
79.6904
78.7378
77.9525
77.3024
76.6874
76.1144
75.5889
75.1154
74.7247
74.3969
74.1037
73.8444
73.62
73.4301
73.2733
73.1474
73.0498
72.9775
72.9276
72.8964
72.8808
72.8773
72.8818
72.8943
72.8985
22.3665
13.4403
2.86591
-7.08837
-15.0295
-20.4105
-23.3521
-23.9266
-23.0777
-21.8882
-20.4737
-18.912
-17.268
-15.6218
-14.214
-13.1487
-12.3915
-11.9195
-11.7142
-11.7605
-11.9993
-12.5486
-13.4881
-14.7612
-16.7824
-19.438
-22.2026
-25.0633
-28.0019
-30.9964
-34.0323
-37.0822
-40.1001
-43.0335
85.4063
86.8723
88.454
89.6877
90.3052
90.2661
89.6357
88.3198
86.1838
83.1956
79.3804
74.7643
69.3396
63.0361
55.696
47.0331
37.2826
24.3761
84.1244
82.8765
81.6871
80.5665
79.5375
78.6891
77.9881
77.3178
76.6873
76.1032
75.5712
75.1309
74.7597
74.4231
74.1207
73.8546
73.6253
73.4316
73.2721
73.1444
73.0458
72.9732
72.9234
72.8928
72.8781
72.8756
72.8809
72.8944
72.899
16.2399
6.19252
-5.26088
-15.1224
-22.2363
-26.3263
-27.434
-26.8296
-25.7733
-24.4107
-22.8485
-21.1617
-19.4121
-17.6803
-16.2137
-15.1187
-14.3556
-13.8973
-13.7233
-13.8168
-14.1161
-14.7449
-15.786
-17.6325
-20.1473
-22.7888
-25.5389
-28.3764
-31.2745
-34.2117
-37.1737
-40.1319
-43.0369
-45.8376
85.2476
86.7674
88.4704
89.9291
90.8569
91.1772
90.9478
90.064
88.3637
85.7961
82.3857
78.1779
73.1957
67.4132
60.7294
52.9433
43.6695
33.0106
18.6929
83.9443
82.6896
81.4959
80.3915
79.4809
78.7308
78.0061
77.3177
76.674
76.0818
75.5908
75.1752
74.7936
74.4458
74.1351
73.8629
73.6286
73.4314
73.2694
73.1401
73.0407
72.968
72.9187
72.889
72.8752
72.8737
72.8799
72.8946
72.8997
9.38522
-2.14376
-14.2726
-23.5116
-29.3251
-31.1798
-30.8435
-29.9414
-28.6575
-27.1083
-25.3867
-23.5658
-21.7041
-19.8817
-18.3531
-17.2268
-16.4574
-16.0137
-15.8729
-16.0165
-16.3798
-17.0924
-18.7008
-21.0302
-23.5172
-26.1355
-28.8584
-31.6542
-34.494
-37.3553
-40.2228
-43.0681
-45.8394
-48.487
85.0546
86.609
88.3995
90.0396
91.2392
91.8823
92.0318
91.6068
90.3725
88.2445
85.2482
81.4416
76.8759
71.5609
65.4478
58.4004
50.1709
40.257
28.5706
12.5129
83.7388
82.4758
81.2975
80.3265
79.5298
78.7517
78.006
77.302
76.6484
76.1061
75.6458
75.2181
74.823
74.4654
74.1472
73.8688
73.6299
73.4292
73.2649
73.1343
73.0345
72.962
72.9135
72.8849
72.8723
72.8718
72.879
72.8948
72.9003
1.49187
-12.037
-24.1863
-31.9352
-35.1994
-35.2216
-34.4848
-33.2627
-31.7263
-29.9771
-28.0866
-26.1241
-24.1448
-22.228
-20.6346
-19.4757
-18.6999
-18.2719
-18.1659
-18.3622
-18.7929
-20.0636
-22.1398
-24.4231
-26.8749
-29.4594
-32.1381
-34.8748
-37.6387
-40.4048
-43.1573
-45.8695
-48.4874
-50.963
84.8314
86.408
88.2578
90.037
91.4701
92.4005
92.883
92.8964
92.1737
90.5242
87.9592
84.5562
80.3896
75.5038
69.8896
63.4724
56.0759
47.4104
36.8312
24.0085
5.72856
83.5021
82.2529
81.2236
80.3832
79.5539
78.7516
77.9877
77.2716
76.6779
76.1734
75.6992
75.2557
74.849
74.4821
74.1563
73.872
73.6286
73.4248
73.2585
73.127
73.0271
72.9555
72.908
72.8806
72.8692
72.8698
72.878
72.8949
72.901
-8.12173
-24.2865
-34.4626
-39.1726
-40.0443
-39.4949
-38.3373
-36.7793
-34.9691
-33.0083
-30.9426
-28.8332
-26.7323
-24.7184
-23.0586
-21.8663
-21.0843
-20.6729
-20.6034
-20.8547
-21.839
-23.5567
-25.5625
-27.7945
-30.2022
-32.7375
-35.355
-38.0159
-40.6856
-43.3373
-45.9561
-48.5159
-50.9618
-53.2473
84.5722
86.1693
88.0597
89.9394
91.5672
92.7506
93.5235
93.9204
93.704
92.5972
90.5063
87.5185
83.7441
79.2586
74.0909
68.2102
61.513
53.786
44.7072
33.4323
19.4165
-1.84759
83.2537
82.1695
81.2891
80.4109
79.5538
78.7304
77.9516
77.3072
76.7593
76.2388
75.7462
75.289
74.8713
74.4953
74.1622
73.8721
73.6245
73.4179
73.25
73.1181
73.0189
72.9484
72.9022
72.8761
72.866
72.8678
72.877
72.8951
72.9018
-21.0062
-38.1963
-44.3542
-45.3678
-45.1497
-43.9604
-42.3564
-40.4613
-38.3698
-36.1877
-33.9442
-31.6852
-29.4612
-27.3495
-25.6228
-24.3972
-23.6096
-23.2156
-23.1842
-23.9905
-25.4033
-27.0189
-28.9522
-31.1265
-33.4768
-35.9468
-38.4873
-41.0549
-43.612
-46.1317
-48.5988