/*--------------------------------*- C++ -*----------------------------------*\
  =========                 |
  \\      /  F ield         | OpenFOAM: The Open Source CFD Toolbox
   \\    /   O peration     | Website:  https://openfoam.org
    \\  /    A nd           | Version:  8
     \\/     M anipulation  |
\*---------------------------------------------------------------------------*/
FoamFile
{
    version     2.0;
    format      ascii;
    class       surfaceScalarField;
    location    "0.08";
    object      phi;
}
// * * * * * * * * * * * * * * * * * * * * * * * * * * * * * * * * * * * * * //

dimensions      [0 3 -1 0 0 0 0];

internalField   nonuniform List<scalar> 
31053
(
6.2771e-07
1.27523e-05
8.49595e-07
1.51581e-05
3.76246e-07
1.2376e-05
9.3229e-07
1.75573e-05
5.88744e-07
1.49456e-05
2.69517e-07
1.21065e-05
9.55934e-07
2.02164e-05
7.06877e-07
1.74392e-05
4.64597e-07
1.47505e-05
2.1601e-07
1.18905e-05
9.46935e-07
2.3249e-05
7.66353e-07
2.01569e-05
5.89974e-07
1.73138e-05
3.96174e-07
1.45704e-05
1.72598e-07
1.17179e-05
9.16983e-07
2.669e-05
7.91373e-07
2.3224e-05
6.64984e-07
2.00819e-05
5.23711e-07
1.71863e-05
3.33479e-07
1.44095e-05
1.38034e-07
1.15799e-05
8.71576e-07
3.06654e-05
7.94132e-07
2.66872e-05
7.0696e-07
2.3182e-05
6.05e-07
2.00006e-05
4.5598e-07
1.70638e-05
2.78759e-07
1.42688e-05
1.10887e-07
1.1469e-05
8.14109e-07
3.51975e-05
7.81534e-07
3.0678e-05
7.26766e-07
2.66674e-05
6.53474e-07
2.31335e-05
5.37361e-07
1.99192e-05
3.91903e-07
1.69506e-05
2.31689e-07
1.4148e-05
8.84262e-08
1.13806e-05
7.47433e-07
4.03867e-05
7.57391e-07
3.52216e-05
7.30718e-07
3.06741e-05
6.79159e-07
2.66417e-05
5.86641e-07
2.30843e-05
4.69336e-07
1.98418e-05
3.3307e-07
1.68492e-05
1.89606e-07
1.40468e-05
6.87295e-08
1.13118e-05
6.73259e-07
4.63542e-05
7.23633e-07
4.04204e-05
7.22065e-07
3.52303e-05
6.88018e-07
3.06652e-05
6.12839e-07
2.66155e-05
5.15924e-07
2.30377e-05
4.03761e-07
1.97711e-05
2.77283e-07
1.67616e-05
1.50586e-07
1.39649e-05
5.06428e-08
1.12612e-05
5.93263e-07
5.322e-05
6.82319e-07
4.63955e-05
7.02018e-07
4.04405e-05
6.8357e-07
3.52347e-05
6.2193e-07
3.06561e-05
5.39298e-07
2.65921e-05
4.45092e-07
2.29963e-05
3.3874e-07
1.97096e-05
2.22978e-07
1.66892e-05
1.13351e-07
1.39022e-05
3.3396e-08
1.12278e-05
5.09379e-07
6.10639e-05
6.35111e-07
5.32672e-05
6.71862e-07
4.64256e-05
6.68171e-07
4.04559e-05
6.17421e-07
3.52392e-05
5.45242e-07
3.06502e-05
4.63138e-07
2.65741e-05
3.72419e-07
2.29627e-05
2.72921e-07
1.96597e-05
1.69099e-07
1.66334e-05
7.69693e-08
1.38586e-05
1.64793e-08
1.12113e-05
4.24132e-07
7.00672e-05
5.83526e-07
6.11155e-05
6.32693e-07
5.33064e-05
6.42478e-07
4.64513e-05
6.01445e-07
4.04719e-05
5.37245e-07
3.52472e-05
4.63267e-07
3.065e-05
3.82742e-07
2.65638e-05
2.96604e-07
2.2939e-05
2.05368e-07
1.96234e-05
1.14856e-07
1.65955e-05
4.07478e-08
1.38344e-05
-2.62832e-10
1.12116e-05
3.41235e-07
8.04149e-05
5.28601e-07
7.01222e-05
5.85721e-07
6.11624e-05
6.06847e-07
5.3342e-05
5.75027e-07
4.64778e-05
5.17256e-07
4.04918e-05
4.48849e-07
3.52616e-05
3.74492e-07
3.06583e-05
2.96829e-07
2.65635e-05
2.16734e-07
2.29276e-05
1.35405e-07
1.96029e-05
5.96159e-08
1.65767e-05
4.31218e-09
1.38298e-05
-1.7111e-08
1.12287e-05
2.7773e-07
7.62535e-05
4.70394e-07
8.04731e-05
5.32307e-07
7.01756e-05
5.61671e-07
6.12076e-05
5.3853e-07
5.33785e-05
4.86245e-07
4.65088e-05
4.2173e-07
4.0519e-05
3.5086e-07
3.52853e-05
2.77678e-07
3.06774e-05
2.04475e-07
2.65758e-05
1.32143e-07
2.29309e-05
6.24995e-08
1.96e-05
3.09515e-09
1.65779e-05
-3.25658e-08
1.38453e-05
-3.41978e-08
1.12629e-05
2.26905e-07
7.62408e-05
4.18104e-07
7.63058e-05
4.73839e-07
8.05316e-05
5.07573e-07
7.02297e-05
4.92136e-07
6.1254e-05
4.44568e-07
5.34202e-05
3.82774e-07
4.65477e-05
3.13578e-07
4.05562e-05
2.42067e-07
3.53209e-05
1.71876e-07
3.071e-05
1.04964e-07
2.6603e-05
4.23004e-08
2.29511e-05
-1.35468e-08
1.96166e-05
-5.49805e-08
1.66003e-05
-7.00341e-08
1.38811e-05
-5.15364e-08
1.13144e-05
1.86436e-07
7.62305e-05
3.69084e-07
7.62898e-05
4.2172e-07
7.63579e-05
4.45664e-07
8.05935e-05
4.36117e-07
7.02857e-05
3.92364e-07
6.13062e-05
3.32261e-07
5.34707e-05
2.63387e-07
4.65979e-05
1.91562e-07
4.06068e-05
1.21499e-07
3.53713e-05
5.63057e-08
3.07587e-05
-2.24843e-09
2.66475e-05
-5.28909e-08
2.29904e-05
-9.2782e-08
1.96544e-05
-1.14425e-07
1.66447e-05
-1.07996e-07
1.39376e-05
-6.89441e-08
1.13834e-05
1.53891e-07
7.62245e-05
3.23615e-07
7.62759e-05
3.7295e-07
7.63386e-05
3.89342e-07
7.64142e-05
3.71143e-07
8.06585e-05
3.29827e-07
7.03482e-05
2.70275e-07
6.13682e-05
2.00467e-07
5.35336e-05
1.26751e-07
4.66627e-05
5.46737e-08
4.06736e-05
-1.17056e-08
3.54393e-05
-6.95867e-08
3.0826e-05
-1.17203e-07
2.67118e-05
-1.53336e-07
2.3051e-05
-1.7484e-07
1.97148e-05
-1.75017e-07
1.67117e-05
-1.46169e-07
1.40148e-05
-8.62886e-08
1.14697e-05
1.2746e-07
7.62164e-05
2.82034e-07
7.62661e-05
3.27587e-07
7.63213e-05
3.36075e-07
7.63919e-05
3.10999e-07
7.64744e-05
2.57572e-07
8.07307e-05
1.96951e-07
7.04216e-05
1.24847e-07
6.14438e-05
4.76835e-08
5.36127e-05
-2.82118e-08
4.67456e-05
-9.80349e-08
4.07599e-05
-1.58113e-07
3.55278e-05
-2.05848e-07
3.09147e-05
-2.39691e-07
2.67982e-05
-2.58442e-07
2.31346e-05
-2.59175e-07
1.9799e-05
-2.36209e-07
1.68017e-05
-1.84188e-07
1.41127e-05
-1.03314e-07
1.1573e-05
1.05818e-07
7.62116e-05
2.44355e-07
7.62541e-05
2.85664e-07
7.6308e-05
2.86294e-07
7.63711e-05
2.53553e-07
7.64493e-05
1.90772e-07
7.65412e-05
1.12926e-07
8.08147e-05
3.66568e-08
7.05098e-05
-4.56745e-08
6.15372e-05
-1.27277e-07
5.37117e-05
-2.0256e-07
4.68501e-05
-2.67171e-07
4.0869e-05
-3.17772e-07
3.56397e-05
-3.52076e-07
3.10271e-05
-3.68897e-07
2.69086e-05
-3.67345e-07
2.32427e-05
-3.44884e-07
1.99077e-05
-2.97343e-07
1.69149e-05
-2.2157e-07
1.42309e-05
-1.19825e-07
1.16928e-05
8.79854e-08
7.62078e-05
2.10418e-07
7.62456e-05
2.47126e-07
7.62926e-05
2.40268e-07
7.63541e-05
1.99593e-07
7.6425e-05
1.27109e-07
7.6513e-05
3.57421e-08
7.66184e-05
-6.3412e-08
8.09148e-05
-1.53183e-07
7.06173e-05
-2.42641e-07
6.16525e-05
-3.25614e-07
5.38348e-05
-3.96943e-07
4.69799e-05
-4.52751e-07
4.10039e-05
-4.90076e-07
3.57777e-05
-5.0728e-07
3.11654e-05
-5.03646e-07
2.70449e-05
-4.78737e-07
2.33766e-05
-4.30936e-07
2.00413e-05
-3.57619e-07
1.70509e-05
-2.57802e-07
1.43689e-05
-1.35498e-07
1.18283e-05
7.4368e-08
6.95956e-05
1.80017e-07
7.62382e-05
2.11887e-07
7.62808e-05
1.98118e-07
7.63348e-05
1.49621e-07
7.6404e-05
6.75602e-08
7.64846e-05
-3.74065e-08
7.65861e-05
-1.54687e-07
7.67096e-05
-2.73971e-07
8.10356e-05
-3.74134e-07
7.07488e-05
-4.67425e-07
6.17944e-05
-5.48024e-07
5.39859e-05
-6.11352e-07
4.71385e-05
-6.53975e-07
4.11678e-05
-6.73852e-07
3.59443e-05
-6.69958e-07
3.13317e-05
-6.42216e-07
2.72084e-05
-5.91165e-07
2.35368e-05
-5.16103e-07
2.01997e-05
-4.16147e-07
1.72093e-05
-2.92274e-07
1.45257e-05
-1.50126e-07
1.19784e-05
6.38984e-08
6.25545e-05
1.55256e-07
6.96204e-05
1.79845e-07
7.62703e-05
1.59854e-07
7.63191e-05
1.03959e-07
7.63805e-05
1.27733e-08
7.64588e-05
-1.05359e-07
7.65525e-05
-2.40658e-07
7.66721e-05
-3.83352e-07
7.6819e-05
-5.20688e-07
8.11821e-05
-6.27817e-07
7.09091e-05
-7.20792e-07
6.19671e-05
-7.94494e-07
5.4169e-05
-8.44792e-07
4.73293e-05
-8.69472e-07
4.13635e-05
-8.67254e-07
3.61416e-05
-8.37957e-07
3.15275e-05
-7.82706e-07
2.74e-05
-7.02896e-07
2.37236e-05
-5.9906e-07
2.03827e-05
-4.7196e-07
1.7389e-05
-3.24461e-07
1.47e-05
-1.63308e-07
1.21417e-05
5.5691e-08
5.62262e-05
1.3534e-07
6.25744e-05
1.5318e-07
6.9647e-05
1.2543e-07
7.63047e-05
6.27861e-08
7.63603e-05
-3.68155e-08
7.643e-05
-1.67293e-07
7.65208e-05
-3.19975e-07
7.66319e-05
-4.85768e-07
7.67745e-05
-6.52586e-07
7.69509e-05
-8.05478e-07
8.13598e-05
-9.15078e-07
7.11034e-05
-1.00275e-06
6.21754e-05
-1.06383e-06
5.43881e-05
-1.09568e-06
4.75555e-05
-1.09703e-06
4.15932e-05
-1.06766e-06
3.63713e-05
-1.0089e-06
3.17537e-05
-9.22848e-07
2.76199e-05
-8.12122e-07
2.39367e-05
-6.78382e-07
2.05891e-05
-5.24142e-07
1.75887e-05
-3.53476e-07
1.48902e-05
-1.74441e-07
1.23162e-05
4.91541e-08
5.05385e-05
1.19217e-07
5.62423e-05
1.31256e-07
6.25963e-05
9.72676e-08
6.96752e-05
2.61949e-08
7.63413e-05
-8.09122e-08
7.64044e-05
-2.22625e-07
7.64854e-05
-3.91628e-07
7.65924e-05
-5.79668e-07
7.67258e-05
-7.75448e-07
7.68974e-05
-9.64611e-07
7.71101e-05
-1.12931e-06
8.1574e-05
-1.23598e-06
7.13367e-05
-1.31191e-06
6.24235e-05
-1.35423e-06
5.46466e-05
-1.3614e-06
4.78199e-05
-1.33351e-06
4.18591e-05
-1.2722e-06
3.66346e-05
-1.17997e-06
3.20108e-05
-1.06031e-06
2.78681e-05
-9.16875e-07
2.41752e-05
-7.52713e-07
2.08176e-05
-5.71359e-07
1.78065e-05
-3.7859e-07
1.50943e-05
-1.81288e-07
1.24975e-05
4.38757e-08
4.54253e-05
1.06063e-07
5.05517e-05
1.1316e-07
5.62604e-05
7.45579e-08
6.2619e-05
-3.1699e-09
6.97046e-05
-1.19332e-07
7.63797e-05
-2.70962e-07
7.64527e-05
-4.5487e-07
7.65486e-05
-6.63832e-07
7.66766e-05
-8.87498e-07
7.68378e-05
-1.11226e-06
7.7045e-05
-1.32056e-06
7.73013e-05
-1.49238e-06
8.18304e-05
-1.58899e-06
7.16137e-05
-1.64625e-06
6.27155e-05
-1.66266e-06
5.49479e-05
-1.6383e-06
4.81247e-05
-1.57554e-06
4.21624e-05
-1.47746e-06
3.69321e-05
-1.34825e-06
3.22987e-05
-1.19252e-06
2.81437e-05
-1.0153e-06
2.44378e-05
-8.20272e-07
2.10666e-05
-6.12686e-07
1.80406e-05
-3.95547e-07
1.53086e-05
-1.51082e-07
1.26485e-05
3.95607e-08
4.08303e-05
9.52481e-08
4.54361e-05
9.81637e-08
5.05667e-05
5.62077e-08
5.62788e-05
-2.62702e-08
6.26421e-05
-1.4937e-07
6.97346e-05
-3.1204e-07
7.64208e-05
-5.09168e-07
7.6507e-05
-7.37319e-07
7.66221e-05
-9.87286e-07
7.67764e-05
-1.24638e-06
7.69719e-05
-1.49752e-06
7.7222e-05
-1.72077e-06
7.75297e-05
-1.893e-06
8.21345e-05
-1.97185e-06
7.19393e-05
-2.00233e-06
6.30551e-05
-1.98492e-06
5.52945e-05
-1.92241e-06
4.84716e-05
-1.81903e-06
4.2504e-05
-1.67988e-06
3.72637e-05
-1.51051e-06
3.26167e-05
-1.31707e-06
2.84455e-05
-1.10514e-06
2.47226e-05
-8.79601e-07
2.13335e-05
-6.4266e-07
1.82878e-05
-3.91156e-07
1.55487e-05
-1.03257e-07
1.27518e-05
3.59926e-08
3.66996e-05
8.6303e-08
4.08393e-05
8.56983e-08
4.54486e-05
4.1361e-08
5.05815e-05
-4.4389e-08
5.62969e-05
-1.72222e-07
6.2665e-05
-3.43079e-07
6.97656e-05
-5.54147e-07
7.64658e-05
-7.99433e-07
7.65691e-05
-1.07365e-06
7.67085e-05
-1.36526e-06
7.68952e-05
-1.65785e-06
7.71323e-05
-1.93178e-06
7.7433e-05
-2.16351e-06
7.78002e-05
-2.32879e-06
8.24914e-05
-2.38076e-06
7.23178e-05
-2.37537e-06
6.34456e-05
-2.31639e-06
5.56885e-05
-2.20891e-06
4.88615e-05
-2.05969e-06
4.28838e-05
-1.87553e-06
3.76287e-05
-1.66379e-06
3.29635e-05
-1.43122e-06
2.87716e-05
-1.18435e-06
2.50274e-05
-9.25584e-07
2.16164e-05
-6.55769e-07
1.85524e-05
-3.67472e-07
1.58129e-05
-8.03643e-08
1.28322e-05
3.30115e-08
3.2989e-05
7.88684e-08
3.6707e-05
7.53213e-08
4.08496e-05
2.93261e-08
4.54606e-05
-5.85583e-08
5.05957e-05
-1.89411e-07
5.63141e-05
-3.65648e-07
6.26875e-05
-5.86874e-07
6.97984e-05
-8.49671e-07
7.6516e-05
-1.14571e-06
7.66412e-05
-1.46748e-06
7.68107e-05
-1.79953e-06
7.70369e-05
-2.12271e-06
7.73232e-05
-2.4133e-06
7.76828e-05
-2.64637e-06
7.81178e-05
-2.79561e-06
8.29062e-05
-2.81028e-06
7.27527e-05
-2.75999e-06
6.38892e-05
-2.65142e-06
5.6131e-05
-2.49276e-06
4.92945e-05
-2.2929e-06
4.33012e-05
-2.06088e-06
3.80258e-05
-1.80483e-06
3.33371e-05
-1.53245e-06
2.91197e-05
-1.24861e-06
2.53504e-05
-9.5481e-07
2.19154e-05
-6.56085e-07
1.8841e-05
-3.45093e-07
1.60776e-05
-7.64435e-08
1.29086e-05
3.04991e-08
2.96505e-05
7.26588e-08
3.29952e-05
6.66758e-08
3.67156e-05
1.953e-08
4.08594e-05
-6.96061e-08
4.54716e-05
-2.02169e-07
5.06085e-05
-3.81615e-07
5.63301e-05
-6.09399e-07
6.27101e-05
-8.8488e-07
6.98336e-05
-1.2028e-06
7.65731e-05
-1.55193e-06
7.67256e-05
-1.92085e-06
7.6932e-05
-2.29116e-06
7.72054e-05
-2.63928e-06
7.75492e-05
-2.93976e-06
7.79762e-05
-3.16497e-06
7.84871e-05
-3.2873e-06
8.33833e-05
-3.25433e-06
7.3247e-05
-3.14978e-06
6.43876e-05
-2.98426e-06
5.66225e-05
-2.7686e-06
4.97702e-05
-2.51451e-06
4.37548e-05
-2.23213e-06
3.84531e-05
-1.93069e-06
3.37353e-05
-1.61703e-06
2.94881e-05
-1.29525e-06
2.56908e-05
-9.71825e-07
2.22312e-05
-6.51169e-07
1.91471e-05
-3.34232e-07
1.63354e-05
-8.21551e-08
1.29908e-05
2.83665e-08
2.66501e-05
6.74425e-08
2.96557e-05
5.94574e-08
3.30024e-05
1.15156e-08
3.67237e-05
-7.8199e-08
4.0868e-05
-2.11482e-07
4.5481e-05
-3.92488e-07
5.06193e-05
-6.24054e-07
5.63447e-05
-9.07701e-07
6.27329e-05
-1.24146e-06
6.98722e-05
-1.61776e-06
7.66389e-05
-2.02041e-06
7.68252e-05
-2.4351e-06
7.70759e-05
-2.83865e-06
7.74048e-05
-3.2054e-06
7.78148e-05
-3.50659e-06
7.83178e-05
-3.71261e-06
7.89125e-05
-3.79722e-06
8.39262e-05
-3.7057e-06
7.38029e-05
-3.53819e-06
6.49415e-05
-3.30868e-06
5.71625e-05
-3.03154e-06
5.02873e-05
-2.7201e-06
4.42428e-05
-2.38589e-06
3.89083e-05
-2.038e-06
3.41563e-05
-1.68273e-06
2.98756e-05
-1.32793e-06
2.60469e-05
-9.82197e-07
2.25622e-05
-6.48561e-07
1.94614e-05
-3.33483e-07
1.65867e-05
-1.11126e-07
1.31019e-05
2.65454e-08
2.39558e-05
6.30332e-08
2.66545e-05
5.34079e-08
2.96618e-05
4.93186e-09
3.3009e-05
-8.48692e-08
3.67303e-05
-2.18139e-07
4.08747e-05
-3.99474e-07
4.54879e-05
-6.32718e-07
5.0628e-05
-9.21041e-07
5.6358e-05
-1.26504e-06
6.27565e-05
-1.66108e-06
6.99156e-05
-2.09714e-06
7.67157e-05
-2.5528e-06
7.69429e-05
-3.00896e-06
7.72462e-05
-3.44003e-06
7.76394e-05
-3.81643e-06
7.81246e-05
-4.10676e-06
7.8712e-05
-4.28224e-06
7.93975e-05
-4.31737e-06
8.45378e-05
-4.157e-06
7.44217e-05
-3.91801e-06
6.55508e-05
-3.61898e-06
5.775e-05
-3.2765e-06
5.08437e-05
-2.90582e-06
4.47627e-05
-2.51897e-06
3.93893e-05
-2.12481e-06
3.45984e-05
-1.73223e-06
3.02799e-05
-1.3517e-06
2.64164e-05
-9.91036e-07
2.29047e-05
-6.49685e-07
1.97776e-05
-4.15047e-07
1.68907e-05
-1.20173e-07
1.32221e-05
2.49821e-08
2.15336e-05
5.92851e-08
2.39596e-05
4.83122e-08
2.66596e-05
-4.86066e-10
2.96672e-05
-9.00354e-08
3.30142e-05
-2.22761e-07
3.6735e-05
-4.03525e-07
4.08787e-05
-6.36886e-07
4.54921e-05
-9.2724e-07
5.06342e-05
-1.27715e-06
5.63702e-05
-1.68607e-06
6.27815e-05
-2.14657e-06
6.9965e-05
-2.64291e-06
7.68058e-05
-3.14811e-06
7.7082e-05
-3.64074e-06
7.7447e-05
-4.09071e-06
7.79137e-05
-4.46517e-06
7.8483e-05
-4.73292e-06
7.91626e-05
-4.86525e-06
7.99453e-05
-4.83938e-06
8.52202e-05
-4.5999e-06
7.51036e-05
-4.28266e-06
6.62145e-05
-3.90931e-06
5.83828e-05
-3.49909e-06
5.14369e-05
-3.06843e-06
4.53122e-05
-2.62948e-06
3.9894e-05
-2.19291e-06
3.50591e-05
-1.76985e-06
3.0698e-05
-1.3706e-06
2.6796e-05
-9.98795e-07
2.32538e-05
-8.04762e-07
2.01673e-05
-4.16822e-07
1.71873e-05
-1.30085e-07
1.33521e-05
2.36342e-08
1.93533e-05
5.6083e-08
2.15368e-05
4.39977e-08
2.39639e-05
-4.94946e-09
2.66641e-05
-9.40236e-08
2.96712e-05
-2.25833e-07
3.30172e-05
-4.05388e-07
3.67368e-05
-6.37736e-07
4.08796e-05
-9.28157e-07
4.5493e-05
-1.28069e-06
5.06377e-05
-1.69717e-06
5.63813e-05
-2.17382e-06
6.28087e-05
-2.70018e-06
7.00223e-05
-3.25439e-06
7.6912e-05
-3.80498e-06
7.72463e-05
-4.32601e-06
7.76822e-05
-4.7835e-06
7.8232e-05
-5.14411e-06
7.88942e-05
-5.37594e-06
7.96733e-05
-5.45245e-06
8.05584e-05
-5.35383e-06
8.59741e-05
-5.0269e-06
7.58479e-05
-4.6254e-06
6.69306e-05
-4.17467e-06
5.90584e-05
-3.69583e-06
5.20643e-05
-3.20591e-06
4.58886e-05
-2.7184e-06
4.04195e-05
-2.24569e-06
3.55349e-05
-1.79874e-06
3.11262e-05
-1.38491e-06
2.71821e-05
-1.24038e-06
2.36894e-05
-8.00214e-07
2.05507e-05
-4.18482e-07
1.74757e-05
-1.37891e-07
1.349e-05
1.73972e-05
2.2469e-08
5.33352e-08
1.93561e-05
4.03274e-08
2.15404e-05
-8.63419e-09
2.39676e-05
-9.70884e-08
2.66672e-05
-2.27735e-07
2.96731e-05
-4.05646e-07
3.30175e-05
-6.36188e-07
3.67353e-05
-9.25253e-07
4.08767e-05
-1.27795e-06
4.54903e-05
-1.69793e-06
5.06385e-05
-2.18429e-06
5.63917e-05
-2.73079e-06
6.28393e-05
-3.32157e-06
7.00894e-05
-3.93063e-06
7.70377e-05
-4.51927e-06
7.74395e-05
-5.0577e-06
7.79565e-05
-5.51083e-06
7.85987e-05
-5.84372e-06
7.9362e-05
-6.02603e-06
8.02469e-05
-6.03353e-06
8.12381e-05
-5.85222e-06
8.67994e-05
-5.43029e-06
7.66528e-05
-4.94051e-06
6.76964e-05
-4.4111e-06
5.97737e-05
-3.86434e-06
5.27228e-05
-3.31845e-06
4.64886e-05
-2.78817e-06
4.09619e-05
-2.28555e-06
3.60217e-05
-1.81928e-06
3.15605e-05
-1.72252e-06
2.76643e-05
-1.23275e-06
2.41219e-05
-7.92424e-07
2.09246e-05
-4.17767e-07
1.77556e-05
-1.42896e-07
1.36329e-05
1.73995e-05
5.09607e-08
2.78119e-05
2.0573e-08
3.71919e-08
1.93592e-05
-1.16842e-08
2.15435e-05
-9.94297e-08
2.39699e-05
-2.28762e-07
2.66682e-05
-4.04751e-07
2.96722e-05
-6.32952e-07
3.30143e-05
-9.19662e-07
3.67297e-05
-1.27075e-06
4.08695e-05
-1.6912e-06
4.54836e-05
-2.18231e-06
5.06365e-05
-2.74122e-06
5.64021e-05
-3.35695e-06
6.28747e-05
-4.01017e-06
7.0169e-05
-4.66786e-06
7.71863e-05
-5.28416e-06
7.7666e-05
-5.82841e-06
7.8274e-05
-6.26297e-06
7.9018e-05
-6.55375e-06
7.98897e-05
-6.67205e-06
8.08854e-05
-6.59912e-06
8.1985e-05
-6.3257e-06
8.76949e-05
-5.8034e-06
7.75157e-05
-5.22335e-06
6.85087e-05
-4.61572e-06
6.0525e-05
-4.00409e-06
5.34084e-05
-3.40764e-06
4.71081e-05
-2.84055e-06
4.15169e-05
-2.31294e-06
3.65154e-05
-2.26374e-06
3.21018e-05
-1.71295e-06
2.81445e-05
-1.21717e-06
2.45467e-05
-7.80284e-07
2.12872e-05
-4.13611e-07
1.80263e-05
-1.45285e-07
1.37782e-05
1.74022e-05
3.45065e-08
2.78158e-05
4.70869e-08
2.85518e-05
1.87692e-08
-1.42164e-08
1.93618e-05
-1.01205e-07
2.15453e-05
-2.2914e-07
2.39703e-05
-4.03049e-07
2.66665e-05
-6.28573e-07
2.96678e-05
-9.12257e-07
3.30068e-05
-1.26048e-06
3.67194e-05
-1.67919e-06
4.08575e-05
-2.17134e-06
4.54726e-05
-2.73671e-06
5.0632e-05
-3.36823e-06
5.64134e-05
-4.05212e-06
6.29167e-05
-4.76264e-06
7.02638e-05
-5.45965e-06
7.73618e-05
-6.09252e-06
7.79301e-05
-6.6283e-06
7.86394e-05
-7.02937e-06
7.94936e-05
-7.26247e-06
8.04802e-05
-7.30388e-06
8.15902e-05
-7.13932e-06
8.27986e-05
-6.76654e-06
8.8658e-05
-6.14075e-06
7.84331e-05
-5.4703e-06
6.93632e-05
-4.78719e-06
6.13081e-05
-4.11582e-06
5.41166e-05
-3.47463e-06
4.77422e-05
-2.87604e-06
4.20801e-05
-2.8785e-06
3.71301e-05
-2.25156e-06
3.26404e-05
-1.69038e-06
2.86177e-05
-1.19387e-06
2.49603e-05
-7.63209e-07
2.16367e-05
-4.06072e-07
1.82871e-05
-1.45333e-07
1.39236e-05
1.74043e-05
-1.63277e-08
2.78195e-05
3.07969e-08
2.85555e-05
4.33515e-08
2.93117e-05
1.70579e-08
-1.02538e-07
1.93631e-05
-2.29046e-07
2.15452e-05
-4.00804e-07
2.3968e-05
-6.23468e-07
2.66614e-05
-9.03705e-07
2.96593e-05
-1.24822e-06
3.29946e-05
-1.66363e-06
3.67038e-05
-2.1541e-06
4.08402e-05
-2.72143e-06
4.54573e-05
-3.36165e-06
5.06254e-05
-4.06548e-06
5.64268e-05
-4.81336e-06
6.29674e-05
-5.57299e-06
7.03771e-05
-6.29927e-06
7.75685e-05
-6.93465e-06
7.82365e-05
-7.44673e-06
7.90567e-05
-7.79783e-06
8.0029e-05
-7.95905e-06
8.11353e-05
-7.91067e-06
8.23615e-05
-7.6454e-06
8.36775e-05
-7.1682e-06
8.96855e-05
-6.43781e-06
7.94006e-05
-5.67925e-06
7.02553e-05
-4.92553e-06
6.21178e-05
-4.20016e-06
5.48421e-05
-3.51994e-06
4.83861e-05
-3.58016e-06
4.27817e-05
-2.86317e-06
3.77417e-05
-2.22134e-06
3.31713e-05
-1.65617e-06
2.908e-05
-1.16322e-06
2.53603e-05
-7.4157e-07
2.19722e-05
-3.95492e-07
1.85372e-05
-1.43435e-07
1.4067e-05
1.74053e-05
-1.03526e-07
2.78213e-05
-1.81639e-08
2.8559e-05
2.73278e-08
2.93153e-05
3.97702e-08
3.00896e-05
1.54401e-08
-2.28617e-07
1.93627e-05
-3.98218e-07
2.15426e-05
-6.17946e-07
2.39625e-05
-8.94506e-07
2.66522e-05
-1.23478e-06
2.96458e-05
-1.64582e-06
3.29768e-05
-2.13268e-06
3.66824e-05
-2.69866e-06
4.08175e-05
-3.34219e-06
4.54379e-05
-4.05762e-06
5.06176e-05
-4.83045e-06
5.64439e-05
-5.63517e-06
6.30295e-05
-6.43501e-06
7.05128e-05
-7.17735e-06
7.78112e-05
-7.79998e-06
7.85897e-05
-8.27123e-06
7.95301e-05
-8.55702e-06
8.06269e-05
-8.6318e-06
8.18564e-05
-8.48269e-06
8.31988e-05
-8.10977e-06
8.46191e-05
-7.52505e-06
9.07727e-05
-6.69156e-06
8.04129e-05
-5.84944e-06
7.11792e-05
-5.0308e-06
6.29485e-05
-4.25759e-06
5.55798e-05
-4.38334e-06
4.91893e-05
-3.56161e-06
4.34802e-05
-2.82437e-06
3.83447e-05
-2.17535e-06
3.36905e-05
-1.61157e-06
2.95283e-05
-1.12621e-06
2.57449e-05
-7.16046e-07
2.22928e-05
-3.824e-07
1.87762e-05
-1.40009e-07
1.4207e-05
1.74047e-05
-2.27955e-07
2.78197e-05
-1.01899e-07
2.85606e-05
-1.97152e-08
2.93185e-05
2.40912e-08
3.0093e-05
3.6345e-08
3.08895e-05
1.39161e-08
-3.95439e-07
1.93599e-05
-6.12239e-07
2.15369e-05
-8.85033e-07
2.3953e-05
-1.22077e-06
2.66382e-05
-1.62677e-06
2.96268e-05
-2.10869e-06
3.29528e-05
-2.67093e-06
3.66547e-05
-3.31378e-06
4.0789e-05
-4.0344e-06
4.54146e-05
-4.82247e-06
5.06096e-05
-5.65811e-06
5.64668e-05
-6.51186e-06
6.31064e-05
-7.33972e-06
7.06752e-05
-8.08357e-06
7.80948e-05
-8.67595e-06
7.89944e-05
-9.09012e-06
8.00632e-05
-9.29453e-06
8.12897e-05
-9.27009e-06
8.26438e-05
-9.01134e-06
8.41004e-05
-8.52574e-06
8.56198e-05
-7.833e-06
9.19141e-05
-6.90044e-06
8.14639e-05
-5.9804e-06
7.21288e-05
-5.10344e-06
6.37943e-05
-5.30479e-06
5.65012e-05
-4.36201e-06
4.99897e-05
-3.51355e-06
4.41693e-05
-2.76528e-06
3.89347e-05
-2.11568e-06
3.41946e-05
-1.55832e-06
2.99605e-05
-1.08406e-06
2.61129e-05
-6.87482e-07
2.25979e-05
-3.67383e-07
1.90036e-05
-1.35436e-07
1.43424e-05
1.74018e-05
-3.92581e-07
2.7813e-05
-2.21277e-07
2.85585e-05
-9.98663e-08
2.93198e-05
-2.0968e-08
3.0096e-05
2.10916e-08
3.08928e-05
3.30813e-08
3.17094e-05
1.24848e-08
-6.06519e-07
1.93542e-05
-8.75556e-07
2.15274e-05
-1.20664e-06
2.39389e-05
-1.60722e-06
2.66186e-05
-2.08334e-06
2.96014e-05
-2.64019e-06
3.2922e-05
-3.27945e-06
3.66204e-05
-4.00048e-06
4.07551e-05
-4.79627e-06
4.53884e-05
-5.65164e-06
5.06031e-05
-6.54331e-06
5.64983e-05
-7.43498e-06
6.32017e-05
-8.27726e-06
7.08689e-05
-9.00552e-06
7.84244e-05
-9.55076e-06
7.94551e-05
-9.89044e-06
8.06591e-05
-9.99893e-06
8.20185e-05
-9.8644e-06
8.34969e-05
-9.48893e-06
8.50636e-05
-8.88828e-06
8.6675e-05
-8.08963e-06
9.31033e-05
-7.06336e-06
8.25469e-05
-6.07233e-06
7.30977e-05
-6.36335e-06
6.48529e-05
-5.28169e-06
5.74209e-05
-4.30427e-06
5.07804e-05
-3.44005e-06
4.48441e-05
-2.68887e-06
3.95079e-05
-2.0448e-06
3.46811e-05
-1.49828e-06
3.03747e-05
-1.03808e-06
2.64635e-05
-6.56725e-07
2.28872e-05
-3.51002e-07
1.92191e-05
-1.30048e-07
1.44725e-05
1.73962e-05
-6.00905e-07
2.77995e-05
-3.79054e-07
2.85513e-05
-2.14073e-07
2.93174e-05
-9.74482e-08
3.0097e-05
-2.19205e-08
3.08956e-05
1.83275e-08
3.17125e-05
2.99833e-08
3.25533e-05
1.11482e-08
-8.66274e-07
1.93449e-05
-1.19271e-06
2.15135e-05
-1.5877e-06
2.39194e-05
-2.05752e-06
2.65928e-05
-2.6079e-06
2.95691e-05
-3.24153e-06
3.28841e-05
-3.95948e-06
3.65794e-05
-4.75731e-06
4.07162e-05
-5.62368e-06
4.53605e-05
-6.54049e-06
5.06003e-05
-7.47814e-06
5.65414e-05
-8.39516e-06
6.33196e-05
-9.23551e-06
7.10989e-05
-9.93144e-06
7.8805e-05
-1.04111e-05
7.99757e-05
-1.06601e-05
8.13203e-05
-1.06598e-05
8.2814e-05
-1.0406e-05
8.4414e-05
-9.90946e-06
8.60848e-05
-9.19417e-06
8.77796e-05
-8.29318e-06
9.43331e-05
-7.18022e-06
8.36547e-05
-7.57863e-06
7.4313e-05
-6.34026e-06
6.59115e-05
-5.21422e-06
5.83308e-05
-4.21518e-06
5.15555e-05
-3.34507e-06
4.55003e-05
-2.5984e-06
4.00615e-05
-1.96523e-06
3.51481e-05
-1.43332e-06
3.07699e-05
-9.89477e-07
2.67963e-05
-6.24567e-07
2.31608e-05
-3.33772e-07
1.94229e-05
-1.24104e-07
1.45966e-05
1.73872e-05
-8.57319e-07
2.77771e-05
-5.78521e-07
2.85371e-05
-3.64807e-07
2.93096e-05
-2.06295e-07
3.00942e-05
-9.46119e-08
3.08962e-05
-2.25725e-08
3.17151e-05
1.57985e-08
3.25563e-05
2.70488e-08
3.34192e-05
9.90287e-09
-1.17921e-06
1.93314e-05
-1.5686e-06
2.14944e-05
-2.0319e-06
2.38938e-05
-2.57516e-06
2.65601e-05
-3.2018e-06
2.95294e-05
-3.91416e-06
3.28388e-05
-4.70985e-06
3.65319e-05
-5.58054e-06
4.0673e-05
-6.51246e-06
4.53325e-05
-7.48167e-06
5.06038e-05
-8.45376e-06
5.66e-05
-9.38071e-06
6.34648e-05
-1.0203e-05
7.13704e-05
-1.08478e-05
7.92418e-05
-1.12443e-05
8.05599e-05
-1.1388e-05
8.20484e-05
-1.12676e-05
8.36755e-05
-1.08879e-05
8.53924e-05
-1.02688e-05
8.71594e-05
-9.44096e-06
8.89274e-05
-8.44316e-06
9.55961e-05
-8.97252e-06
8.50486e-05
-7.55853e-06
7.55313e-05
-6.26345e-06
6.69607e-05
-5.10845e-06
5.92241e-05
-4.09968e-06
5.23101e-05
-3.2327e-06
4.61346e-05
-2.49709e-06
4.05933e-05
-1.87944e-06
3.55942e-05
-1.36508e-06
3.11455e-05
-9.39341e-07
2.71111e-05
-5.91725e-07
2.34187e-05
-3.16082e-07
1.96148e-05
-1.17832e-07
1.47144e-05
1.73743e-05
-1.1663e-06
2.77435e-05
-8.23718e-07
2.85138e-05
-5.55243e-07
2.92947e-05
-3.49894e-07
3.00859e-05
-1.98025e-07
3.0893e-05
-9.13823e-08
3.17154e-05
-2.29212e-08
3.25586e-05
1.35044e-08
3.3422e-05
2.42826e-08
3.43052e-05
8.74779e-09
-1.55021e-06
1.9313e-05
-2.00693e-06
2.14694e-05
-2.54275e-06
2.38614e-05
-3.16157e-06
2.65198e-05
-3.86664e-06
2.94819e-05
-4.65714e-06
3.27861e-05
-5.52719e-06
3.64785e-05
-6.46646e-06
4.0627e-05
-7.45581e-06
4.53066e-05
-8.46692e-06
5.0617e-05
-9.45904e-06
5.66784e-05
-1.03805e-05
6.36423e-05
-1.11661e-05
7.16887e-05
-1.17418e-05
7.97393e-05
-1.20386e-05
8.12105e-05
-1.20634e-05
8.28443e-05
-1.18141e-05
8.46017e-05
-1.13051e-05
8.64288e-05
-1.05637e-05
8.82822e-05
-9.62758e-06
9.01118e-05
-1.05686e-05
9.71921e-05
-8.96073e-06
8.64508e-05
-7.4739e-06
7.67417e-05
-6.14023e-06
6.79925e-05
-4.97043e-06
6.00948e-05
-3.96287e-06
5.30403e-05
-3.10697e-06
4.67445e-05
-2.38802e-06
4.11019e-05
-1.78957e-06
3.60187e-05
-1.29505e-06
3.15012e-05
-8.88651e-07
2.7408e-05
-5.5872e-07
2.36614e-05
-2.98295e-07
1.97953e-05
-1.11414e-07
1.48258e-05
1.73568e-05
-1.53268e-06
2.76963e-05
-1.11906e-06
2.84791e-05
-7.89004e-07
2.92705e-05
-5.31035e-07
3.00703e-05
-3.34257e-07
3.08842e-05
-1.89215e-07
3.17118e-05
-8.77534e-08
3.25586e-05
-2.29738e-08
3.34241e-05
1.14389e-08
3.43078e-05
2.1683e-08
3.52191e-05
7.68203e-09
-1.98296e-06
1.9289e-05
-2.51124e-06
2.14379e-05
-3.12178e-06
2.38216e-05
-3.81848e-06
2.64717e-05
-4.60171e-06
2.94264e-05
-5.46746e-06
3.27264e-05
-6.40822e-06
3.64203e-05
-7.40879e-06
4.058e-05
-8.44604e-06
4.52857e-05
-9.48566e-06
5.06436e-05
-1.04833e-05
5.67811e-05
-1.13813e-05
6.38575e-05
-1.21121e-05
7.20591e-05
-1.2601e-05
8.03018e-05
-1.27826e-05
8.19297e-05
-1.26775e-05
8.37076e-05
-1.22936e-05
8.55902e-05
-1.16535e-05
8.75185e-05
-1.07926e-05
8.94472e-05
-1.20734e-05
9.16166e-05
-1.05742e-05
9.88056e-05
-8.87204e-06
8.7849e-05
-7.3334e-06
7.79349e-05
-5.97785e-06
6.89999e-05
-4.80639e-06
6.09384e-05
-3.80966e-06
5.3743e-05
-2.97167e-06
4.73281e-05
-2.27391e-06
4.15863e-05
-1.69752e-06
3.64211e-05
-1.22453e-06
3.18371e-05
-8.38102e-07
2.76874e-05
-5.26054e-07
2.38891e-05
-2.80693e-07
1.99646e-05
-1.04978e-07
1.49308e-05
1.7334e-05
-1.96017e-06
2.76323e-05
-1.46877e-06
2.84305e-05
-1.07045e-06
2.92347e-05
-7.53253e-07
3.00452e-05
-5.05965e-07
3.08679e-05
-3.17966e-07
3.17025e-05
-1.79903e-07
3.25546e-05
-8.37412e-08
3.34238e-05
-2.27288e-08
3.43096e-05
9.5985e-09
3.52215e-05
1.9246e-08
3.6155e-05
6.70251e-09
-2.48102e-06
1.92588e-05
-3.08312e-06
2.13992e-05
-3.77083e-06
2.37739e-05
-4.5454e-06
2.64154e-05
-5.40428e-06
2.93633e-05
-6.34219e-06
3.26603e-05
-7.34715e-06
3.63587e-05
-8.40038e-06
4.05343e-05
-9.47314e-06
4.52732e-05
-1.05277e-05
5.0688e-05
-1.15136e-05
5.69135e-05
-1.23702e-05
6.41156e-05
-1.30282e-05
7.24862e-05
-1.34135e-05
8.09327e-05
-1.34665e-05
8.27187e-05
-1.32234e-05
8.46375e-05
-1.27009e-05
8.66376e-05
-1.19307e-05
8.86566e-05
-1.35626e-05
9.09365e-05
-1.21041e-05
9.31465e-05
-1.04881e-05
0.000100422
-8.7163e-06
8.92319e-05
-7.1457e-06
7.91027e-05
-5.78386e-06
6.99774e-05
-4.62231e-06
6.1751e-05
-3.64468e-06
5.4416e-05
-2.83014e-06
4.78844e-05
-2.15712e-06
4.20459e-05
-1.60496e-06
3.68016e-05
-1.15442e-06
3.21534e-05
-7.88374e-07
2.79497e-05
-4.94106e-07
2.41026e-05
-2.6347e-07
2.01231e-05
-9.86304e-08
1.50294e-05
1.73053e-05
-2.45234e-06
2.75486e-05
-1.87638e-06
2.83648e-05
-1.40305e-06
2.91845e-05
-1.02028e-06
3.00082e-05
-7.16281e-07
3.08419e-05
-4.80025e-07
3.16855e-05
-3.01049e-07
3.25448e-05
-1.70104e-07
3.34194e-05
-7.93538e-08
3.43091e-05
-2.21904e-08
3.52231e-05
7.97464e-09
3.61573e-05
1.69673e-08
3.65889e-05
5.81762e-09
-3.04605e-06
1.92217e-05
-3.72451e-06
2.13529e-05
-4.48959e-06
2.37181e-05
-5.33986e-06
2.63509e-05
-6.27178e-06
2.92929e-05
-7.27599e-06
3.25892e-05
-8.33733e-06
3.62956e-05
-9.43179e-06
4.0493e-05
-1.05275e-05
4.5273e-05
-1.15806e-05
5.0755e-05
-1.25374e-05
5.70806e-05
-1.33346e-05
6.44219e-05
-1.39021e-05
7.29748e-05
-1.41687e-05
8.16349e-05
-1.40827e-05
8.35779e-05
-1.36952e-05
8.56318e-05
-1.30329e-05
8.77399e-05
-1.50282e-05
9.01221e-05
-1.36287e-05
9.2461e-05
-1.20294e-05
9.46878e-05
-1.03217e-05
0.000102027
-8.50345e-06
9.05896e-05
-6.91967e-06
8.02385e-05
-5.56545e-06
7.09205e-05
-4.42378e-06
6.25301e-05
-3.47198e-06
5.50578e-05
-2.68527e-06
4.84125e-05
-2.03974e-06
4.24806e-05
-1.51306e-06
3.71602e-05
-1.08562e-06
3.24507e-05
-7.39966e-07
2.81955e-05
-4.63122e-07
2.43022e-05
-2.46785e-07
2.02712e-05
-9.24515e-08
1.51219e-05
1.72702e-05
-3.01088e-06
2.74415e-05
-2.34524e-06
2.82792e-05
-1.79081e-06
2.91173e-05
-1.3358e-06
2.99568e-05
-9.68871e-07
3.0804e-05
-6.78364e-07
3.16588e-05
-4.53276e-07
3.25272e-05
-2.83485e-07
3.34092e-05
-1.59842e-07
3.43043e-05
-7.46097e-08
3.52223e-05
-2.13565e-08
3.61587e-05
6.56112e-09
3.6591e-05
1.487e-08
3.55528e-05
5.04777e-09
-3.68008e-06
1.91773e-05
-4.43526e-06
2.12986e-05
-5.27582e-06
2.36541e-05
-6.19959e-06
2.62788e-05
-7.19928e-06
2.92161e-05
-8.26271e-06
3.25146e-05
-9.36988e-06
3.62337e-05
-1.04939e-05
4.04594e-05
-1.15971e-05
4.52895e-05
-1.26321e-05
5.08497e-05
-1.35419e-05
5.7288e-05
-1.42617e-05
6.47815e-05
-1.47226e-05
7.35287e-05
-1.48581e-05
8.24103e-05
-1.46242e-05
8.45069e-05
-1.40889e-05
8.66878e-05
-1.646e-05
8.91717e-05
-1.51411e-05
9.16345e-05
-1.35756e-05
9.40072e-05
-1.18614e-05
9.62276e-05
-1.00863e-05
0.00010361
-8.2439e-06
9.19139e-05
-6.66374e-06
8.13368e-05
-5.32936e-06
7.18261e-05
-4.21569e-06
6.32738e-05
-3.2951e-06
5.56677e-05
-2.53965e-06
4.89124e-05
-1.92321e-06
4.28908e-05
-1.42294e-06
3.74975e-05
-1.01877e-06
3.27295e-05
-6.93186e-07
2.84256e-05
-4.33311e-07
2.44887e-05
-2.30764e-07
2.04095e-05
-8.64968e-08
1.52084e-05
1.7228e-05
-3.63791e-06
2.73082e-05
-2.87766e-06
2.81701e-05
-2.23615e-06
2.90296e-05
-1.70306e-06
2.9888e-05
-1.26697e-06
3.07513e-05
-9.16165e-07
3.16199e-05
-6.39435e-07
3.24998e-05
-4.25835e-07
3.33911e-05
-2.65397e-07
3.42936e-05
-1.49172e-07
3.52172e-05
-6.95364e-08
3.61576e-05
-2.02527e-08
3.65922e-05
5.36314e-09
3.55546e-05
1.30148e-08
3.45447e-05
4.3761e-09
-4.38308e-06
1.91251e-05
-5.21333e-06
2.12361e-05
-6.12752e-06
2.3582e-05