/*--------------------------------*- C++ -*----------------------------------*\
  =========                 |
  \\      /  F ield         | OpenFOAM: The Open Source CFD Toolbox
   \\    /   O peration     | Website:  https://openfoam.org
    \\  /    A nd           | Version:  8
     \\/     M anipulation  |
\*---------------------------------------------------------------------------*/
FoamFile
{
    version     2.0;
    format      ascii;
    class       volScalarField;
    location    "0.17";
    object      k;
}
// * * * * * * * * * * * * * * * * * * * * * * * * * * * * * * * * * * * * * //

dimensions      [0 2 -2 0 0 0 0];

internalField   nonuniform List<scalar> 
15677
(
152.151
189.126
249.607
300.333
347.07
392.068
434.777
473.875
506.826
529.141
539.016
536.099
524.306
500.198
465.883
425.787
382.319
338.604
296.461
257.15
221.487
191.716
168.497
150.271
135.758
124.467
116.057
109.897
105.281
101.631
98.5715
95.9284
93.6597
91.7824
90.3127
404.605
700.824
873.076
996.31
1098.33
1188.99
1271.58
1324
1264.38
1095.51
908.272
788.932
735.727
713.218
698.866
665.155
611.119
547.549
479.192
418.62
367.201
323.736
287.915
258.388
234.264
215.001
200.072
188.85
180.661
174.864
170.901
168.309
166.72
165.845
165.459
248.456
517.395
687.628
816.135
953.203
1102.93
1201.02
1210.75
1130.66
970.92
777.798
651.713
587.785
544.311
479.863
439.328
421.034
415.118
407.215
391.921
369.39
344.781
323.179
306.239
293.761
285.407
280.44
277.905
277.095
277.497
278.744
280.546
282.685
285.024
287.526
65.4406
138.102
201.029
245.449
283.515
315.483
344.158
374.708
412.156
441.026
435.973
448.178
491.782
559.806
564.663
494.509
408.754
362.095
358.741
374.977
394.586
406.026
405.775
398.577
386.402
373.928
364.345
357.738
353.788
352.04
351.987
353.067
354.983
357.333
359.858
137.148
238.809
297.26
340.561
378.562
414.46
446.971
471.543
484.541
483.425
474.245
483.686
514.235
513.471
441.441
346.553
281.631
260.175
265.316
279.506
299.573
324.535
348.332
366.055
373.885
372.449
364.417
355.302
347.605
341.893
337.93
335.269
333.494
332.286
331.421
81.4262
135.82
164.329
181.922
195.308
206.634
215.982
220.238
216.172
209.413
206.294
205.946
200.349
185.698
168.036
156.148
152.798
158.137
170.769
188.153
207.556
224.952
237.961
247.003
253.636
258.639
262.096
264.214
265.366
265.873
265.98
265.846
265.576
265.242
264.893
30.4355
62.4713
86.0196
105.142
122.035
133.502
132.216
120.121
97.9609
78.9202
70.7796
73.2091
82.4104
93.1919
103.107
112.968
123.833
135.741
148.818
163.149
178.391
192.671
203.849
211.287
215.214
216.822
217.541
217.957
218.272
218.523
218.721
218.862
218.939
218.954
218.909
7.36574
13.6068
19.0202
22.6862
24.9271
27.4618
30.8611
34.7643
38.2631
41.918
46.767
54.0091
63.9438
75.5192
86.3712
95.1753
103.348
111.973
121.499
131.321
140.748
148.85
155.332
160.551
164.648
167.816
170.267
172.167
173.643
174.794
175.698
176.42
177.004
177.487
177.897
15.0362
24.1244
29.8365
33.9116
37.2752
40.247
43.0481
45.804
48.5708
51.5651
55.0157
59.143
64.0882
69.9129
76.1757
82.5854
89.3922
96.5145
103.933
111.612
119.351
126.377
132.037
136.339
139.462
141.703
143.431
144.828
145.99
146.968
147.794
148.492
149.079
149.574
149.989
9.60466
19.3647
24.984
29.1687
32.7363
35.9858
39.0673
42.0798
45.106
48.2327
51.5597
55.2052
59.3215
64.1296
69.326
74.5885
80.0458
85.6421
91.2581
96.7468
101.98
106.74
110.808
114.185
116.951
119.209
121.06
122.586
123.853
124.913
125.809
126.574
127.233
127.808
128.314
13.4416
23.5155
29.5347
33.7081
37.0024
39.7864
42.2553
44.5462
46.7731
49.0428
51.4716
54.1804
57.3119
61.0113
65.0321
69.1137
73.3523
77.7243
82.1817
86.6399
90.9887
94.9269
98.2234
100.916
103.099
104.828
106.264
107.482
108.527
109.428
110.208
110.883
111.473
111.993
112.451
9.72612
19.4447
24.7549
28.5616
31.6985
34.4657
37.0168
39.4543
41.8616
44.317
46.8935
49.6795
52.7883
56.3251
60.0207
63.65
67.284
70.8799
74.424
77.9061
81.3215
84.4623
87.1584
89.4335
91.3497
92.9531
94.3045
95.4511
96.4309
97.2739
98.0042
98.6409
99.1988
99.6909
100.127
10.0239
18.8739
23.9852
27.6075
30.5278
33.0446
35.318
37.4597
39.5618
41.7073
43.9747
46.4417
49.1868
52.288
55.4979
58.6277
61.7706
64.9103
68.0178
71.0517
73.9777
76.6432
78.927
80.87
82.4984
83.863
85.003
85.9775
86.8214
87.5578
88.2029
88.7696
89.268
89.7067
90.0957
8.58195
17.4764
22.0411
25.2096
27.7739
30.0213
32.101
34.1104
36.1229
38.2002
40.4013
42.7897
45.4376
48.3974
51.4015
54.2488
57.0203
59.7353
62.3937
64.9638
67.4456
69.719
71.6817
73.3589
74.7873
76.0069
77.0514
77.9504
78.7282
79.4047
79.9959
80.5148
80.9721
81.3766
81.7352
7.66078
15.312
19.5251
22.5467
25.0349
27.2349
29.2759
31.2438
33.2048
35.2145
37.3231
39.5791
42.0328
44.7378
47.4719
50.0728
52.6087
55.0695
57.4479
59.7367
61.9302
63.9315
65.6647
67.1433
68.4084
69.4922
70.4211
71.2173
71.9042
72.5032
73.0289
73.4922
73.9015
74.2638
74.5846
7.12786
14.6606
18.5004
21.1612
23.3331
25.2657
27.0861
28.8736
30.6841
32.5614
34.5456
36.6777
38.9952
41.5257
44.0415
46.4064
48.6933
50.8931
53.0045
55.0353
56.986
58.7784
60.322
61.6451
62.7807
63.7572
64.5992
65.3276
65.9602
66.5118
66.9946
67.4186
67.7922
68.1221
68.4142
6.04069
12.6073
16.1354
18.692
20.8348
22.7688
24.5986
26.3902
28.1914
30.0409
31.9732
34.0216
36.2176
38.5907
40.9268
43.0998
45.1839
47.1848
49.1047
50.9446
52.7037
54.3081
55.6949
56.8866
57.9124
58.7973
59.5621
60.2242
60.7982
61.2964
61.7312
62.1129
62.4496
62.7472
63.0109
5.92541
12.237
15.4537
17.741
19.6483
21.3744
23.0187
24.6424
26.2885
27.991
29.7797
31.6833
33.7273
35.9342
38.1018
40.1119
42.0251
43.8526
45.6008
47.2746
48.8746
50.332
51.5924
52.6757
53.6089
54.4144
55.1114
55.7159
56.2415
56.6999
57.1007
57.4521
57.7609
58.0332
58.2744
4.94437
10.7175
13.7403
15.949
17.8254
19.5408
21.1791
22.7909
24.4124
26.0728
27.7978
29.6118
31.5379
33.598
35.6057
37.4569
39.2177
40.8968
42.4999
44.0306
45.491
46.8214
47.9723
48.9623
49.816
50.5539
51.1931
51.7481
52.231
52.6519
53.0194
53.3408
53.6235
53.8732
54.094
4.9147
10.3135
13.1091
15.1325
16.8449
18.4116
19.913
21.3973
22.8982
24.4422
26.0529
27.7518
29.5576
31.4874
33.3623
35.0831
36.7119
38.2606
39.7363
41.1433
42.4843
43.7056
44.7621
45.671
46.455
47.1329
47.7203
48.2306
48.6749
49.0625
49.4015
49.6986
49.9595
50.1891
50.3914
4.32742
9.47046
12.1179
14.0524
15.6992
17.2092
18.6558
20.0827
21.5207
22.9947
24.5257
26.1324
27.8319
29.6386
31.3832
32.9799
34.4895
35.9222
37.2848
38.5823
39.8178
40.9424
41.9152
42.7524
43.4749
44.1
44.6422
45.1135
45.524
45.8824
46.196
46.4707
46.7119
46.924
47.1107
4.2988
9.07845
11.5646
13.3736
14.9103
16.3196
17.672
19.0095
20.3616
21.751
23.1952
24.7094
26.3061
27.9963
29.625
31.1124
32.516
33.8456
35.1082
36.3089
37.4511
38.4902
39.3888
40.1622
40.8298
41.4075
41.9087
42.3446
42.7244
43.056
43.3462
43.6006
43.824
44.0206
44.1938
3.98292
8.53809
10.9073
12.6377
14.1095
15.4592
16.7533
18.0312
19.3203
20.6425
22.013
23.4439
24.9483
26.5375
28.0647
29.4559
30.7658
32.0041
33.1778
34.2923
35.3512
36.3138
37.146
37.8622
38.4805
39.0158
39.4804
39.8846
40.2371
40.545
40.8146
41.051
41.2587
41.4416
41.6028
3.88634
8.18738
10.4393
12.0819
13.479
14.7611
15.9908
17.2051
18.4287
19.6801
20.9753
22.3274
23.7478
25.2457
26.6821
27.9877
29.2142
30.3713
31.4659
32.5034
33.4879
34.3819
35.1544
35.819
36.3929
36.8898
37.3213
37.6969
38.0245
38.311
38.5619
38.7821
38.9757
39.1463
39.2968
3.68785
7.80346
9.96099
11.5371
12.8784
14.1089
15.288
16.4501
17.6191
18.8132
20.047
21.3327
22.6805
24.0989
25.4554
26.6854
27.8381
28.923
29.9472
30.916
31.8338
32.6661
33.3847
34.0027
34.5362
34.9984
35.3998
35.7495
36.0546
36.3216
36.5556
36.7612
36.942
37.1015
37.2423
3.58145
7.50686
9.57636
11.088
12.3731
13.5506
14.6781
15.7892
16.9066
18.0473
19.2248
20.4505
21.7335
23.081
24.3666
25.5296
26.6168
27.6375
28.5989
29.5063
30.3642
31.1409
31.8107
32.3864
32.8833
33.3137
33.6876
34.0134
34.298
34.5471
34.7656
34.9577
35.1268
35.2761
35.408
3.4455
7.21776
9.21018
10.6668
11.9054
13.0399
14.1254
15.1942
16.268
17.3629
18.4917
19.6649
20.8908
22.1758
23.3987
24.5022
25.5313
26.4951
27.4004
28.2529
29.0569
29.7835
30.409
30.9461
31.4093
31.8105
32.1591
32.4629
32.7283
32.9608
33.1649
33.3444
33.5026
33.6423
33.7659
3.34862
6.97541
8.89733
10.3024
11.497
12.5908
13.6371
14.6669
15.7008
16.7542
17.8391
18.9652
20.1402
21.3694
22.5366
23.5874
24.5649
25.4779
26.3333
27.1365
27.8921
28.5732
29.1584
29.66
30.0923
30.4663
30.7913
31.0744
31.3218
31.5386
31.729
31.8966
32.0444
32.175
32.2906
3.24979
6.75106
8.61131
9.97183
11.1283
12.1869
13.199
14.1945
15.1932
16.2098
17.2557
18.34
19.4696
20.6493
21.7669
22.7708
23.7024
24.5703
25.381
26.1401
26.8521
27.4918
28.04
28.509
28.9124
29.261
29.5636
29.8271
30.0573
30.2589
30.4361
30.592
30.7295
30.8512
30.9589
3.16865
6.55498
8.35922
9.67895
10.8005
11.827
12.8078
13.7721
14.739
15.7224
16.7332
17.7799
18.8689
20.0043
21.0777
22.0399
22.9306
23.7581
24.529
25.2485
25.921
26.5231
27.0373
27.4759
27.8522
28.1767
28.4578
28.7023
28.9156
29.1024
29.2664
29.4106
29.5379
29.6504
29.7501
88.6857
87.1442
86.0872
85.4898
85.2746
85.2333
85.2238
85.1417
84.8901
84.3942
83.6028
82.4949
81.1229
79.6863
78.3735
77.333
76.6807
76.5063
76.8607
77.8052
79.365
81.5338
165.025
164.78
164.896
165.301
165.87
166.472
166.997
167.382
167.605
167.697
167.846
168.588
170.873
175.498
182.575
191.746
202.221
213.002
222.984
231.152
236.875
239.79
290.486
294.615
299.847
306.362
314.336
323.904
335.181
348.494
362.95
375.765
383.472
383.386
375.166
361.471
345.56
329.871
315.755
303.658
293.463
284.802
277.376
270.903
363.196
367.774
372.405
376.086
377.789
377.254
374.38
369.442
363.023
355.821
347.922
340.194
332.787
325.6
318.655
312.017
305.61
299.455
293.695
288.436
283.647
279.279
330.997
331.042
331.041
330.814
330.15
328.781
326.492
323.266
319.163
314.381
309.608
305.007
300.749
296.906
293.423
290.228
287.249
284.444
281.684
278.915
276.167
273.477
265.142
265.933
266.627
267.182
267.549
267.673
267.507
267.029
266.257
265.233
264.024
262.712
261.403
260.173
259.046
258.029
257.119
256.311
255.595
254.926
254.273
253.615
219.469
220.617
221.682
222.659
223.535
224.302
224.957
225.501
225.943
226.3
226.595
226.852
227.093
227.327
227.563
227.805
228.052
228.3
228.542
228.768
228.966
229.134
179.021
180.836
182.58
184.262
185.891
187.447
188.924
190.322
191.643
192.892
194.072
195.183
196.209
197.155
198.041
198.881
199.686
200.46
201.207
201.93
202.63
203.305
151.021
152.708
154.398
156.083
157.758
159.417
161.058
162.68
164.28
165.861
167.424
168.963
170.441
171.837
173.159
174.415
175.611
176.752
177.843
178.886
179.883
180.838
129.402
131.11
132.828
134.548
136.267
137.985
139.7
141.409
143.112
144.807
146.493
148.158
149.76
151.274
152.713
154.084
155.395
156.651
157.858
159.02
160.14
161.221
113.416
114.946
116.508
118.098
119.714
121.352
123.007
124.675
126.356
128.048
129.75
131.451
133.106
134.685
136.193
137.636
139.018
140.344
141.617
142.841
144.019
145.154
101.024
102.437
103.882
105.358
106.863
108.395
109.953
111.534
113.137
114.759
116.399
118.042
119.641
121.171
122.639
124.049
125.405
126.712
127.972
129.188
130.363
131.499
90.9087
92.1986
93.5237
94.8834
96.2771
97.704
99.1622
100.649
102.163
103.704
105.272
106.854
108.406
109.897
111.331
112.711
114.041
115.323
116.559
117.753
118.908
120.025
82.4899
83.6902
84.9256
86.1937
87.4934
88.8245
90.1862
91.5776
92.9976
94.4475
95.9275
97.4266
98.9034
100.329
101.704
103.031
104.312
105.549
106.743
107.897
109.013
110.093
75.2777
76.3895
77.5334
78.7094
79.9181
81.1596
82.4341
83.7422
85.0843
86.4609
87.8731
89.3113
90.7363
92.1177
93.4553
94.7493
96.0005
97.2098
98.3783
99.5075
100.599
101.653
69.0589
70.0974
71.1668
72.2667
73.3974
74.5589
75.7516
76.9769
78.2364
79.5319
80.8653
82.2274
83.578
84.8881
86.1589
87.3914
88.5864
89.7449
90.8677
91.9559
93.0102
94.0318
63.6112
64.5867
65.5903
66.6229
67.6858
68.7807
69.9091
71.0703
72.2625
73.486
74.7429
76.0257
77.2998
78.5391
79.7439
80.9148
82.0526
83.1578
84.2314
85.274
86.2864
87.2695
58.8355
59.7521
60.696
61.6678
62.6681
63.6978
64.758
65.8496
66.9729
68.1283
69.3163
70.529
71.7339
72.9065
74.0478
75.1583
76.2387
77.2897
78.312
79.3062
80.273
81.2129
54.6212
55.488
56.3801
57.2982
58.2433
59.2161
60.2175
61.2484
62.3095
63.4016
64.5255
65.6736
66.8148
67.9261
69.0081
70.0615
71.0871
72.0855
73.0575
74.0035
74.9244
75.8205
50.8868
51.7064
52.5511
53.4211
54.3171
55.2397
56.1896
57.1675
58.1742
59.2104
60.277
61.3668
62.4503
63.5056
64.5333
65.5341
66.5087
67.4578
68.382
69.2819
70.1583
71.0115
47.5781
48.3556
49.1571
49.9833
50.8346
51.7116
52.615
53.5452
54.5031
55.4892
56.5043
57.5417
58.5732
59.5779
60.5563
61.5092
62.4372
63.3409
64.221
65.0781
65.9128
66.7257
44.6363
45.3758
46.1386
46.9253
47.7363
48.5722
49.4336
50.3209
51.2349
52.176
53.145
54.1353
55.12
56.0791
57.0132
57.9228
58.8085
59.671
60.5109
61.3288
62.1253
62.9009
42.022
42.7259
43.4527
44.2028
44.9768
45.775
46.5979
47.4462
48.3202
49.2205
50.1477
51.0954
52.0379
52.9559
53.85
54.7205
55.5681
56.3933
57.1968
57.9791
58.7409
59.4825
39.6946
40.3655
41.0589
41.7752
42.5148
43.2783
44.066
44.8783
45.7158
46.5789
47.468
48.3771
49.2812
50.162
51.0197
51.8549
52.668
53.4596
54.2301
54.9803
55.7105
56.4214
37.6203
38.2604
38.9227
39.6075
40.3153
41.0466
41.8016
42.5809
43.3848
44.2136
45.0678
45.9415
46.8107
47.6576
48.4823
49.2853
50.0671
50.8281
51.5688
52.2898
52.9915
53.6746
35.7677
36.3792
37.0126
37.6683
38.3466
39.0481
39.773
40.5218
41.2947
42.092
42.9142
43.7555
44.5926
45.4084
46.203
46.9768
47.73
48.4631
49.1767
49.8711
50.5469
51.2045
34.1085
34.6937
35.3004
35.9292
36.5805
37.2545
37.9518
38.6724
39.4168
40.1853
40.9781
41.7896
42.5974
43.3848
44.1518
44.8987
45.6259
46.3336
47.0223
47.6925
48.3446
48.9791
32.6172
33.1781
33.7604
34.3647
34.9911
35.6402
36.3121
37.0072
37.7257
38.4678
39.2337
40.018
40.799
41.5604
42.3023
43.0247
43.7281
44.4126
45.0787
45.7267
46.3571
46.9703
31.2706
31.8093
32.3694
32.9512
33.5552
34.1817
34.8308
35.5029
36.1979
36.9163
37.6579
38.4176
39.1743
39.9121
40.631
41.3312
42.0129
42.6764
43.3219
43.9498
44.5604
45.1542
30.0478
30.5661
31.1059
31.6676
32.2514
32.8577
33.4866
34.1382
34.8126
35.5098
36.2299
36.9677
37.7026
38.4191
39.1173
39.7973
40.4594
41.1037
41.7307
42.3406
42.9337
43.5101
84.5554
88.6745
93.7968
99.7858
106.535
113.929
241.012
240.433
237.502
232.519
226.053
218.854
264.591
258.448
252.877
247.848
243.404
239.634
274.752
269.993
265.325
260.847
256.605
252.583
270.338
266.879
263.559
260.444
257.614
255.113
252.481
250.921
249.348
247.767
246.169
244.565
228.752
227.88
227.049
226.25
225.486
224.768
203.425
203.035
202.656
202.289
201.929
201.574
181.239
181.126
181.024
180.93
180.842
180.763
161.783
161.854
161.926
161.999
162.07
162.138
145.803
145.984
146.16
146.33
146.495
146.654
132.179
132.417
132.646
132.868
133.081
133.286
120.71
120.971
121.222
121.461
121.691
121.91
110.76
111.022
111.272
111.509
111.735
111.949
102.308
102.562
102.8
103.023
103.23
103.42
94.6585
94.8895
95.1045
95.3036
95.4867
95.6531
87.8658
88.0709
88.2591
88.43
88.5836
88.7193
81.7736
81.9495
82.1088
82.2511
82.3763
82.4838
76.3465
76.4956
76.628
76.7434
76.8416
76.9223
71.5039
71.6286
71.7369
71.8286
71.9037
71.9616
67.1876
67.2916
67.3795
67.4513
67.5068
67.5456
63.3354
63.4221
63.4933
63.5487
63.5883
63.6118
59.8929
59.9656
60.0232
60.0655
60.0925
60.1039
56.8105
56.872
56.9188
56.9508
56.9678
56.97
54.045
54.0975
54.1358
54.1597
54.1691
54.1641
51.5586
51.604
51.6355
51.6531
51.6568
51.6464
49.3185
49.3583
49.3846
49.3974
49.3966
49.3822
47.2967
47.3321
47.3543
47.3633
47.3591
47.3417
45.4688
45.5006
45.5196
45.5257
45.519
45.4994
43.8138
43.8425
43.8587
43.8626
43.8542
43.8333
121.187
128.142
135.384
142.739
150
156.943
163.317
168.835
173.321
176.602
178.549
179.063
178.292
176.513
174.022
171.081
168.168
165.838
164.319
163.538
163.45
164.127
212.76
207.783
203.384
200.216
198.571
198.13
198.668
200.009
201.896
204.14
206.629
209.303
212.095
214.967
217.953
221.084
224.386
227.867
231.519
235.321
239.244
243.252
236.997
235.234
234.026
233.455
233.574
234.384
235.859
237.898
240.357
243.055
245.802
248.465
251.064
253.687
256.402
259.248
262.234
265.26
268.371
271.606
275.009
278.631
249.259
246.604
244.353
242.592
241.372
240.738
240.728
241.35
242.707
244.861
247.926
252.045
257.264
263.306
269.654
276.1
282.752
289.935
297.629
305.85
314.64
323.98
253.046
251.282
249.683
248.322
247.203
246.357
245.821
245.638
245.859
246.564
247.875
249.943
252.74
256.108
259.895
263.938
268.166
272.492
276.809
281.011
285.073
288.977
242.926
241.291
239.751
238.34
237.081
235.993
235.097
234.41
233.948
233.727
233.751
234.01
234.512
235.214
236.078
237.063
238.129
239.242
240.377
241.506
242.605
243.652
223.756
222.453
221.164
219.894
218.658
217.479
216.375
215.361
214.449
213.65
212.97
212.424
212.022
211.745
211.558
211.439
211.366
211.32
211.283
211.238
211.173
211.089
200.791
199.602
198.425
197.262
196.116
194.991
193.889
192.813
191.768
190.755
189.772
188.801
187.854
186.939
186.046
185.165
184.282
183.389
182.474
181.527
180.544
179.519
180.199
179.161
178.111
177.047
175.97
174.887
173.798
172.708
171.617
170.525
169.417
168.297
167.191
166.111
165.05
164.003
162.97
161.948
160.931
159.911
158.887
157.859
161.71
160.798
159.877
158.948
158.008
157.057
156.089
155.103
154.094
153.055
151.979
150.862
149.727
148.593
147.456
146.316
145.175
144.032
142.886
141.734
140.574
139.407
146.321
145.505
144.67
143.816
142.939
142.037
141.107
140.146
139.153
138.127
137.063
135.955
134.831
133.709
132.587
131.465
130.342
129.219
128.101
126.987
125.878
124.775
133.009
132.256
131.482
130.687
129.869
129.025
128.152
127.248
126.308
125.327
124.294
123.206
122.091
120.973
119.851
118.728
117.604
116.481
115.359
114.239
113.125
112.016
121.659
120.94
120.197
119.427
118.628
117.794
116.924
116.012
115.058
114.058
113.002
111.893
110.758
109.621
108.484
107.347
106.21
105.075
103.944
102.816
101.693
100.575
111.707
111.009
110.28
109.52
108.725
107.891
107.016
106.096
105.128
104.106
103.027
101.894
100.737
99.5799
98.4237
97.2686
96.1142
94.9623
93.8154
92.6756
91.545
90.4265
103.161
102.45
101.705
100.922
100.1
99.2341
98.3222
97.361
96.3474
95.2783
94.1511
92.9717
91.7728
90.581
89.3966
88.2207
87.0542
85.8986
84.7552
83.625
82.5089
81.4086
95.3747
94.6475
93.8848
93.0846
92.2443
91.3614
90.4332
89.457
88.43
87.3492
86.2116
85.0222
83.8146
82.6179
81.4358
80.2686
79.1165
77.9802
76.8605
75.7579
74.6731
73.6078
88.4182
87.6765
86.8998
86.0863
85.2339
84.3403
83.4033
82.4208
81.3905
80.3104
79.1784
78.0014
76.8121
75.6365
74.4753
73.3285
72.1967
71.0833
69.9912
68.9226
67.8772
66.8557
82.1655
81.4167
80.634
79.8157
78.9603
78.066
77.131
76.1536
75.1323
74.0653
72.9512
71.797
70.6344
69.4886
68.361
67.2527
66.1656
65.1012
64.0604
63.0439
62.052
61.085
76.5902
75.8409
75.0595
74.2446
73.3947
72.5086
71.5848
70.6221
69.6193
68.575
67.4882
66.3662
65.24
64.1343
63.0502
61.9889
60.9514
59.9385
58.9507
57.9882
57.0513
56.1401
71.6209
70.8777
70.1042
69.2993
68.4619
67.591
66.6854
65.7442
64.7664
63.7512
62.6978
61.6135
60.5287
59.4667
58.4285
57.4148
56.4262
55.4631
54.5256
53.6138
52.7277
51.8673
67.2004
66.4679
65.7071
64.9171
64.0969
63.2458
62.3628
61.4474
60.4986
59.5161
58.4991
57.4551
56.4132
55.3957
54.4032
53.4363
52.4952
51.58
50.6908
49.8276
48.9903
48.1787
63.2657
62.5472
61.8024
61.0304
60.2304
59.4019
58.5441
57.6565
56.7385
55.7899
54.8101
53.8063
52.8067
51.8324
50.8839
49.9614
49.0651
48.195
47.3509
46.5327
45.7403
44.9732
59.7595
59.0572
58.3303
57.578
56.7998
55.9952
55.1635
54.3045
53.4176
52.5027
51.5594
50.5948
49.6359
48.7028
47.796
46.9154
46.061
45.2329
44.4308
43.6545
42.9036
42.1779
56.6293
55.9443
55.2362
54.5045
53.7486
52.9682
52.1628
51.332
50.4757
49.5935
48.6854
47.7581
46.8376
45.9434
45.0755
44.2339
43.4186
42.6294
41.8659
41.128
40.4152
39.7271
53.8285
53.1613
52.4724
51.7614
51.0278
50.2713
49.4916
48.6883
47.8613
47.0104
46.1356
45.2435
44.3592
43.5012
42.6696
41.8641
41.0847
40.3312
39.6032
38.9005
38.2224
37.5687
51.3168
50.6674
49.9976
49.307
48.5952
47.8619
47.1069
46.3299
45.5308
44.7095
43.866
43.0069
42.1562
41.3317
40.5333
39.7611
39.0146
38.2937
37.5981
36.9272
36.2808
35.6581
49.0592
48.4273
47.7762
47.1054
46.4147
45.7037
44.9722
44.22
43.4471
42.6534
41.8391
41.0104
40.1906
39.3968
38.629
37.8869
37.1704
36.4791
35.8126
35.1707
34.5528
33.9583
47.0256
46.4109
45.7778
45.126
44.4553
43.7652
43.0558
42.3268
41.5783
40.8102
40.0227
39.2219
38.4303
37.6644
36.9241
36.2093
35.5196
34.8548
34.2146
33.5986
33.0064
32.4372
45.1904
44.5921
43.9762
43.3422
42.6901
42.0196
41.3306
40.6231
39.8969
39.1522
38.3891
37.6135
36.8472
36.1063
35.3905
34.6999
34.0341
33.3929
32.7761
32.1832
31.6139
31.0675
43.5316
42.9484
42.348
41.7304
41.0955
40.443
39.7728
39.0849
38.3791
37.6555
36.9142
36.161
35.417
34.6979
34.0036
33.3341
32.6892
32.0688
31.4726
30.9003
30.3516
29.8257
165.205
166.267
167.823
169.931
172.659
176.092
180.299
185.304
191.1
197.65
204.905
212.812
221.325
230.439
239.799
248.851
257.581
265.014
271.786
277.453
283.598
293.399
301.603
303.501
296.259
282.554
270.254
261.239
253.908
244.933
230.551
207.937
174.752
128.848
143.696
246.513
249.051
251.927
255.234
259.086
263.611
268.944
275.168
282.091
289.366
297.11
305.147
312.991
319.505
323.686
326.956
331.11
335.463
350.559
382.473
428.042
512.233
641.822
800.905
919.017
924.494
915.095
910.055
909.462
904.933
888.029
850.069
780.217
653.319
407.089
281.713
284.148
286.973
290.291
294.22
298.888
304.397
310.738
317.585
323.832
328.175
329.012
325.539
316.549
303.804
293.411
290.959
298.997
326.073
389.887
504.9
688.14
970.098
1308.51
1608.53
1748.67
1734.95
1633.7
1494.75
1342.37
1185.06
1021.34
853.146
654.068
343.504
332.091
339.038
347.172
356.762
368.128
381.591
397.293
414.593
430.511
438.382
431.787
409.728
377.157
341.848
308.929
293.209
297.965
334.282
408.22
509.601
612.986
689.542
757.195
853.066
955.946
1036.81
1069.9
1063.14
1017.62
942.832
850.133
744.911
623.615
467.767
252.324
292.421
295.662
299.329
303.432
307.853
312.221
315.876
318.151
318.457
316.004
309.615
300.625
290.343
279.364
267.417
254.058
239.066
224.624
233.059
300.166
419.444
560.802
686.363
763.976
799.914
807.43
787.413
743.083
685.562
623.569
558.256
488.259
409.414
309.345
153.991
244.796
246.146
247.631
249.261
251.032
252.906
254.768
256.348
257.123
256.227
252.405
244.369
231.507
214.519
195.411
177.839
162.907
152.68
150.306
162.629
191.097
231.465
274.645
312.004
334.417
341.021
338.28
325.42
305.16
279.678
250.041
216.245
177.004
127.63
67.9729
211.36
212.017
212.786
213.684
214.717
215.834
216.832
217.138
215.893
212.66
207.443
200.599
192.409
182.727
170.865
156.95
142.504
129.331
118.436
109.895
103.447
98.2665
93.8435
90.812
90.8472
99.3432
116.338
128.252
129.061
118.529
100.95
83.3588
65.7289
45.9752
19.5239
178.962
178.884
178.765
178.587
178.326
177.944
177.389
176.58
175.411
173.741
171.355
167.826
162.703
155.651
146.628
136.558
126.561
117.281
109.255
102.667
97.5471
93.1316
87.8652
80.5309
70.6312
60.475
52.2067
46.2902
41.7788
37.4079
32.4251
27.029
21.1303
14.1967
7.62409
157.294
157.169
157.001
156.784
156.51
156.158
155.691
155.025
153.955
152.278
149.828
146.441
141.989
136.45
129.961
122.936
115.656
108.247
100.996
93.9126
87.1622
80.5552
74.3926
68.9406
63.8261
59.0002
54.6491
50.7394
47.1516
43.747
40.3461
36.6172
32.0253
25.5404
14.9985
138.704
138.446
138.131
137.745
137.273
136.694
135.974
135.066
133.908
132.423
130.528
128.129
125.101
121.324
116.648
111.158
105.201
99.0235
92.8267
86.7036
80.6977
74.6683
69.0507
64.231
60.018
56.2675
52.8587
49.653
46.5273
43.3298
39.882
35.9442
31.0926
24.301
12.4864
124.122
123.888
123.6
123.25
122.825
122.321
121.713
120.963
120.001
118.73
117.073
114.941
112.238
108.854
104.722
100.046
95.1314
90.0736
84.9286
79.7278
74.5203
69.2131
64.2056
59.9351
56.2389
52.9489
49.9127
46.9934
44.0636
40.9979
37.6547
33.8322
29.1871
22.7798
12.4318
111.358
111.124
110.844
110.505
110.095
109.594
108.982
108.229
107.296
106.132
104.671
102.842
100.578
97.8009
94.4608
90.6501
86.5768
82.2714
77.7583
73.1235
68.4602
63.6844
59.1129
55.1243
51.5832
48.3704
45.3825
42.5269
39.7152
36.8567
33.8407
30.4997
26.5015
20.9187
10.3182
99.9121
99.6762
99.3966
99.0657
98.674
98.2082
97.6522
96.9817
96.1545
95.1206
93.8347
92.2379
90.2681
87.8479
84.9121
81.565
77.9827
74.218
70.3277
66.363
62.3457
58.1625
54.0765
50.4411
47.1745
44.195
41.4235
38.7805
36.1847
33.5468
30.7568
27.6524
23.9278
18.7751
9.6035
89.7622
89.5246
89.2475
88.9226
88.5396
88.0851
87.5423
86.8896
86.1003
85.141
83.9723
82.5471
80.8114
78.7035
76.1636
73.3256
70.3074
67.1143
63.7726
60.3062
56.7185
52.9293
49.1992
45.8677
42.8687
40.1242
37.5643
35.1239
32.7385
30.3372
27.8297
25.0758
21.797
17.2188
8.31031
80.7556
80.5214
80.2511
79.9383
79.5751
79.1508
78.6513
78.0563
77.3346
76.4609
75.4043
74.1279
72.5876
70.7313
68.5164
66.0219
63.3663
60.5584
57.6149
54.5525
51.3892
48.0468
44.7346
41.7409
39.007
36.4782
34.1037
31.8321
29.6085
27.3696
25.0321
22.4675
19.4266
15.2365
7.42785
72.9737
72.742
72.4784
72.1747
71.8222
71.4111
70.9288
70.3598
69.6847
68.8804
67.9192
66.7684
65.3898
63.739
61.7811
59.5846
57.256
54.8115
52.2465
49.5605
46.765
43.7887
40.805
38.0865
35.5962
33.2935
31.1308
29.0627
27.0424
25.0158
22.911
20.6132
17.8932
14.1136
6.7338
66.2485
66.0248
65.7702
65.4794
65.1456
64.76
64.3105
63.7802
63.1537
62.4122
61.533
60.4889
59.2475
57.7708
56.0285
54.084
52.0224
49.8527
47.5754
45.194
42.7088
40.043
37.3503
34.8785
32.5956
30.4665
28.4547
26.5227
24.6297
22.7275
20.7509
18.5961
16.0581
12.5743
5.92583
60.5079
60.2912
60.046
59.7674
59.4481
59.0792
58.6511
58.1521
57.5684
56.883
56.0759
55.1234
53.9973
52.6644
51.099
49.3586
47.5185
45.5815
43.5516
41.4256
39.1978
36.7931
34.3548
32.1114
30.0368
28.1019
26.2743
24.5204
22.8037
21.0811
19.2936
17.3457
15.0451
11.8569
5.64303
55.597
55.3914
55.1569
54.8892
54.5832
54.2327
53.8277
53.3581
52.8121
52.1751
51.43
50.5561
49.5287
48.3188
46.9037
45.3351
43.6793
41.9377
40.1102
38.1942
36.1842
34.0115
31.7956
29.7415
27.8263
26.0244
24.309
22.6516
21.0209
19.3791
17.6737
15.8195
13.644
10.6654
4.87905
51.3546
51.1603
50.9392
50.6872
50.3988
50.0681
49.6874
49.248
48.739
48.1478
47.4592
46.6548
45.713
44.6081
43.3199
41.8957
40.3947
38.8171
37.1612
35.4233
33.5961
31.6135
29.5801
27.6901
25.9255
24.2647
22.6845
21.1592
19.66
18.152
16.5862
14.8825
12.8776
10.1171
4.77155
47.6955
47.512
47.3034
47.0658
46.7943
46.4833
46.1262
45.7149
45.2401
44.6904
44.0523
43.3096
42.4431
41.4296
40.2514
38.9513
37.5827
36.1446
34.6343
33.0473
31.3754
29.5574
27.6864
25.9378
24.2972
22.7456
21.2623
19.8246
18.4067
16.9767
15.4891
13.8701
11.9692
9.36475
4.30753
44.517
44.3438
44.1473
43.9238
43.6688
43.3772
43.043
42.6589
42.2163
41.7051
41.1132
40.426
39.6263
38.6932
37.6104
36.4175
35.1627
33.8441
32.4584
31.0006
29.4624
27.7868
26.0596
24.4405
22.9149
21.4662
20.0779
18.7308
17.4019
16.0624
14.6695
13.1531
11.3698
8.9205
4.20195
41.7469
41.5837
41.3986
41.1883
40.9488
40.6752
40.3622
40.0031
39.5902
39.1142
38.5642
37.9271
37.1871
36.3251
35.3265
34.2272
33.071
31.8556
30.577
29.2297
27.8053
26.25
24.642
23.1298
21.7004
20.3391
19.0296
17.7544
16.4934
15.2194
13.8927
12.4472
10.7482
8.41886
3.93264
39.3192
39.1654
38.9911
38.7933
38.5683
38.3118
38.0186
37.6829
37.2974
36.8538
36.3421
35.7503
35.064
34.2656
33.3414
32.3244
31.2544
30.1287
28.9428
27.691
26.3647
24.9131
23.4081
21.9891
20.6448
19.3622
18.1269
16.9223
15.7288
14.5204
13.2603
11.8864
10.2702
8.05335
3.80894
37.182
37.037
36.8729
36.6869
36.4755
36.2348
35.9602
35.646
35.2859
34.8721
34.3954
33.8448
33.207
32.4656
31.6077
30.6635
29.6694
28.622
27.5169
26.3479
25.1064
23.744
22.3272
20.9875
19.7148
18.4977
17.3228
16.1748
15.0352
13.8798
12.6735
11.3567
9.80786
7.68571
3.62981
35.2909
35.1543
34.9998
34.8249
34.6264
34.4006
34.1432
33.8493
33.5127
33.1264
32.682
32.1691
31.5752
30.8853
30.0867
29.2072
28.2801
27.3017
26.2672
25.1704
24.0027
22.7178
21.3778
20.1073
18.8977
17.7386
16.618
15.5216
14.4322
13.3268
12.172
10.9108
9.42617
7.39082
3.51499
33.6089
33.4802
33.335
33.1707
32.9843
32.7727
32.5317
32.2567
31.9422
31.5815
31.1669
30.6886
30.135
29.4916
28.7465
27.9248
27.0571
26.1395
25.1671
24.1335
23.0303
21.8131
20.5399
19.3297
18.1749
17.0662
15.9925
14.9404
13.8937
12.8305
11.7189
10.5042
9.07378
7.11355
3.38976
32.1042
31.9834
31.8471
31.693
31.5185
31.3204
31.0951
30.8382
30.5445
30.208
29.8211
29.3749
28.8583
28.2574
27.5606
26.7906
25.9758
25.1121
24.1945
23.2165
22.1698
21.012
19.7976
18.6405
17.5343
16.4704
15.4385
14.4263
13.4182
12.3936
11.3215
10.1494
8.76873
6.87651
3.29241
30.7497
30.6367
30.5093
30.3654
30.2025
30.0177
29.8076
29.5682
29.2945
28.9809
28.6203
28.2041
27.7217
27.1597
26.5067
25.7834
25.0158
24.2
23.3308
22.4019
21.4051
20.2996
19.137
18.0268
16.9634
15.9391
14.9443
13.9673
12.9934
12.0026
10.9652
9.83057
8.49344
6.66116
3.19906
29.5221
29.417
29.2987
29.1652
29.014
28.8425
28.6475
28.4252
28.171
27.8795
27.5438
27.1559
26.7054
26.1793
25.5663
24.885
24.1599
23.3866
22.5604
21.6749
20.7222
19.6631
18.5464
17.478
16.4528
15.4639
14.5023
13.5569
12.6137
11.6536
10.6477
9.54701
8.24947
6.4714
3.12007
3.0841
6.35688
8.10579
9.3853
10.4725
11.467
12.4169
13.3501
14.2852
15.2354
16.2111
17.2203
18.2688
19.3601
20.3897
21.3105
22.1607
22.9483
23.6796
24.3595
24.9923
25.5561
26.0354
26.4424
26.7901
27.0889
27.3468
27.5705
27.7653
27.9354
28.0845
28.2155
28.3309
28.4328
28.5231
3.00369
6.16487
7.85936
9.09924
10.1524
11.1154
12.0347
12.9373
13.8411
14.7586
15.6999
16.6723
17.6812
18.7296
19.7166
20.5973
21.4084
22.1574
22.8503
23.4916
24.0853
24.6109
25.0548
25.4291
25.7467
26.0178
26.2504
26.451
26.6247
26.7756
26.9074
27.0227
27.1239
27.213
27.2917
2.93254
5.99538
7.64178
8.84663
9.86976
10.8049
11.6971
12.5727
13.4486
14.3373
15.2481
16.188
17.1621
18.1727
19.1225
19.9682
20.7453
21.4608
22.1203
22.7278
23.2869
23.7783
24.1897
24.5335
24.8224
25.0665
25.274
25.4511
25.603
25.7338
25.847
25.9452
26.0309
26.1058
26.1715
2.87003
5.84502
7.44862
8.62226
9.6186
10.5289
11.397
12.2483