/*--------------------------------*- C++ -*----------------------------------*\
  =========                 |
  \\      /  F ield         | OpenFOAM: The Open Source CFD Toolbox
   \\    /   O peration     | Website:  https://openfoam.org
    \\  /    A nd           | Version:  8
     \\/     M anipulation  |
\*---------------------------------------------------------------------------*/
FoamFile
{
    version     2.0;
    format      ascii;
    class       surfaceScalarField;
    location    "0.17";
    object      phi;
}
// * * * * * * * * * * * * * * * * * * * * * * * * * * * * * * * * * * * * * //

dimensions      [1 0 -1 0 0 0 0];

internalField   nonuniform List<scalar> 
31053
(
-9.71335e-06
1.09491e-05
-1.45384e-05
8.04245e-06
-1.52693e-05
6.17831e-06
-1.22211e-05
4.24642e-06
-5.06261e-06
1.48573e-06
7.73454e-06
-3.16303e-06
2.96399e-05
-1.15518e-05
6.77854e-05
-2.72577e-05
0.000133076
-5.394e-05
0.000233461
-8.85623e-05
0.000366433
-0.000120545
0.000524268
-0.000144613
0.000692199
-0.000153702
0.000850838
-0.000142473
0.000946087
-7.92752e-05
0.000984552
-2.22262e-05
0.000976915
2.39001e-05
0.00093666
5.63552e-05
0.000877279
7.50802e-05
0.000811906
8.05013e-05
0.000747495
7.90493e-05
0.000693081
6.83514e-05
0.000648165
5.83793e-05
0.000610612
5.07085e-05
0.000578929
4.46725e-05
0.000552182
3.96541e-05
0.000529785
3.53231e-05
0.00051124
3.15303e-05
0.000496156
2.81438e-05
0.000484223
2.50491e-05
0.000475196
2.21568e-05
0.00046887
1.94079e-05
0.000465056
1.67717e-05
0.000463562
1.42406e-05
1.25033e-05
0.000462833
-7.85381e-05
8.94834e-05
-0.000173766
0.000103269
-0.000277613
0.000110034
-0.000385221
0.000111868
-0.000491136
0.000107429
-0.000587227
9.29632e-05
-0.000661687
6.29696e-05
-0.000700942
1.20898e-05
-0.000693239
-6.15363e-05
-0.000627614
-0.000154001
-0.000495633
-0.000252307
-0.000311717
-0.00032851
-0.000104798
-0.000360949
9.82071e-05
-0.00034676
0.000256716
-0.000238559
0.000387516
-0.000153752
0.000494343
-8.35623e-05
0.000580828
-3.06131e-05
0.000646845
8.5676e-06
0.000687294
3.96282e-05
0.000705788
6.01609e-05
0.000702715
7.11211e-05
0.000683823
7.70728e-05
0.000654718
7.96899e-05
0.000621181
7.81426e-05
0.000587421
7.33719e-05
0.000556013
6.67224e-05
0.000528214
5.93415e-05
0.000504377
5.20099e-05
0.000484298
4.5168e-05
0.000467488
3.90105e-05
0.000453363
3.35789e-05
0.000441346
2.88303e-05
0.000430949
2.46741e-05
2.05854e-05
0.000422897
4.78178e-05
4.18596e-05
0.000105999
4.53016e-05
0.000170202
4.60728e-05
0.000236396
4.59519e-05
0.000301115
4.3041e-05
0.000359311
3.51494e-05
0.000404832
1.79077e-05
0.000415844
1.62319e-06
0.000368157
-1.31968e-05
0.000240632
-2.56864e-05
2.04617e-05
-3.12386e-05
-0.000273643
-3.34752e-05
-0.000595979
-3.77873e-05
-0.000880023
-6.17869e-05
-0.00102461
-9.29856e-05
-0.00104949
-0.000127876
-0.000984092
-0.000147979
-0.000868195
-0.00014554
-0.000732328
-0.000126252
-0.000594123
-9.75618e-05
-0.000465657
-6.72849e-05
-0.000368074
-2.55323e-05
-0.000295939
5.75955e-06
-0.000240767
2.52223e-05
-0.000196032
3.40222e-05
-0.000158319
3.62177e-05
-0.000125762
3.46255e-05
-9.7406e-05
3.13477e-05
-7.25584e-05
2.744e-05
-5.06215e-05
2.3445e-05
-3.11017e-05
1.9654e-05
-1.36008e-05
1.62092e-05
2.1776e-06
1.31632e-05
1.64292e-05
1.05121e-05
8.60609e-06
2.84792e-05
9.19239e-05
-5.03967e-05
0.000188155
-5.12864e-05
0.000286094
-5.22521e-05
0.000384998
-5.33839e-05
0.000482226
-5.46556e-05
0.00057136
-5.44962e-05
0.000638903
-5.01829e-05
0.000676017
-3.60602e-05
0.00066791
-5.66e-06
0.000610769
3.08556e-05
0.000499345
7.95125e-05
0.00034766
0.000117405
0.000195094
0.000113773
8.07327e-05
5.14605e-05
4.35805e-05
-5.68025e-05
6.28476e-05
-0.00014792
0.000112126
-0.000197876
0.00017446
-0.000208375
0.000242208
-0.000194393
0.000311515
-0.000167268
0.000374634
-0.000130851
0.000428991
-8.03295e-05
0.000471186
-3.68987e-05
0.000498654
-2.7457e-06
0.000515037
1.71385e-05
0.000518898
3.18999e-05
0.000510866
4.22448e-05
0.000493071
4.8775e-05
0.000467882
5.23032e-05
0.000437517
5.35221e-05
0.000403896
5.30236e-05
0.000368586
5.12977e-05
0.000332821
4.87345e-05
0.000297507
4.5654e-05
4.20264e-05
0.000263935
-4.53846e-05
-4.98428e-06
-8.99896e-05
-6.65734e-06
-0.000134074
-8.14519e-06
-0.000177734
-9.70344e-06
-0.00022112
-1.12474e-05
-0.000262921
-1.26717e-05
-0.00029908
-1.39872e-05
-0.00031963
-1.54593e-05
-0.000309596
-1.56307e-05
-0.000267707
-1.09644e-05
-0.000187022
-1.05356e-06
-7.58178e-05
6.36198e-06
3.82957e-05
-2.0175e-07
0.0001231
-3.35223e-05
0.000129482
-6.32432e-05
6.75132e-05
-8.5997e-05
-3.31255e-05
-9.72122e-05
-0.000143526
-9.78848e-05
-0.000246011
-9.17922e-05
-0.000332104
-8.10302e-05
-0.000397151
-6.56314e-05
-0.000433148
-4.41502e-05
-0.000443374
-2.64883e-05
-0.000436186
-9.72173e-06
-0.000424034
5.19635e-06
-0.000408947
1.70181e-05
-0.000393452
2.69424e-05
-0.000376563
3.20696e-05
-0.000358433
3.43477e-05
-0.000339483
3.47359e-05
-0.00032019
3.38833e-05
-0.000301009
3.22576e-05
-0.000282334
3.0188e-05
-0.000264468
2.79029e-05
2.58315e-05
-0.000248169
-3.9141e-05
3.41984e-05
-8.10787e-05
3.53234e-05
-0.000123473
3.42919e-05
-0.000164578
3.14485e-05
-0.000201833
2.60594e-05
-0.000231936
1.74883e-05
-0.000251479
5.6231e-06
-0.000252867
-1.39941e-05
-0.000230762
-3.76437e-05
-0.00018042
-6.11832e-05
-9.95943e-05
-8.17262e-05
4.40454e-06
-9.74619e-05
0.000109949
-0.000105566
0.00018423
-0.000107453
0.000209622
-8.85393e-05
0.000202849
-7.91775e-05
0.000177576
-7.19256e-05
0.000145092
-6.54009e-05
0.00011098
-5.76823e-05
7.63719e-05
-4.64377e-05
4.05807e-05
-2.98813e-05
3.63737e-06
-7.27576e-06
-3.13512e-05
8.42696e-06
-5.91185e-05
1.79604e-05
-7.89172e-05
2.4918e-05
-9.13648e-05
2.93847e-05
-9.66659e-05
3.21758e-05
-9.84508e-05
3.37916e-05
-9.8598e-05
3.44343e-05
-9.81661e-05
3.42466e-05
-9.77275e-05
3.33919e-05
-9.75628e-05
3.20443e-05
-9.77749e-05
3.03562e-05
-9.83657e-05
2.84544e-05
2.62731e-05
-9.88425e-05
2.11301e-05
1.30679e-05
4.32663e-05
1.31873e-05
6.6741e-05
1.08134e-05
9.1069e-05
7.11454e-06
0.000115525
1.59099e-06
0.000137648
-4.65961e-06
0.00015528
-1.20262e-05
0.000162161
-2.08859e-05
0.000154083
-2.9578e-05
0.000130073
-3.71856e-05
9.12661e-05
-4.29322e-05
4.0899e-05
-4.7109e-05
-1.34335e-05
-5.126e-05
-6.41354e-05
-5.67776e-05
-9.9788e-05
-5.29105e-05
-0.000127617
-5.13642e-05
-0.000151081
-4.84614e-05
-0.000172867
-4.35977e-05
-0.000193819
-3.6703e-05
-0.000212114
-2.81128e-05
-0.000223413
-1.85564e-05
-0.000223429
-7.21911e-06
-0.000218928
3.9684e-06
-0.0002149
1.39883e-05
-0.00021112
2.1194e-05
-0.000206802
2.5122e-05
-0.000201637
2.70619e-05
-0.000195449
2.76506e-05
-0.00018827
2.72982e-05
-0.00018028
2.62968e-05
-0.000171731
2.48785e-05
-0.000162877
2.32227e-05
-0.00015396
2.14679e-05
-0.000145192
1.97123e-05
1.8149e-05
-0.000137044
3.10312e-05
-1.79631e-05
6.33227e-05
-1.91047e-05
9.48025e-05
-2.06646e-05
0.000124247
-2.2327e-05
0.000149554
-2.37099e-05
0.000169832
-2.49203e-05
0.000183723
-2.59132e-05
0.000188827
-2.59946e-05
0.000184159
-2.49236e-05
0.000169891
-2.29394e-05
0.000147204
-2.02732e-05
0.000117985
-1.79246e-05
8.43791e-05
-1.76906e-05
4.93906e-05
-2.18324e-05
2.12584e-05
-2.48191e-05
-2.38717e-06
-2.77612e-05
-2.32296e-05
-2.76585e-05
-4.23244e-05
-2.45329e-05
-6.04135e-05
-1.86428e-05
-7.91478e-05
-9.41032e-06
-9.79526e-05
2.06438e-07
-0.000113919
8.69446e-06
-0.000124073
1.40722e-05
-0.000128119
1.79821e-05
-0.000127653
2.06832e-05
-0.000125071
2.24995e-05
-0.000121649
2.36029e-05
-0.000118115
2.40825e-05
-0.000114865
2.40176e-05
-0.000112094
2.34972e-05
-0.000109862
2.26211e-05
-0.000108149
2.14873e-05
-0.000106897
2.01948e-05
-0.00010603
1.88265e-05
1.7345e-05
-0.000105242
-9.41702e-06
-8.55092e-06
-1.86195e-05
-9.90733e-06
-2.80494e-05
-1.12407e-05
-3.76635e-05
-1.27198e-05
-4.70589e-05
-1.43232e-05
-5.59533e-05
-1.60364e-05
-6.40552e-05
-1.78238e-05
-7.04328e-05
-1.96316e-05
-7.39643e-05
-2.14081e-05
-7.38379e-05
-2.30824e-05
-6.96059e-05
-2.45198e-05
-6.19505e-05
-2.55887e-05
-5.33857e-05
-2.62553e-05
-4.8563e-05
-2.66472e-05
-5.0834e-05
-2.254e-05
-5.89479e-05
-1.96377e-05
-7.0473e-05
-1.61232e-05
-8.27639e-05
-1.22353e-05
-9.32203e-05
-8.18426e-06
-9.95821e-05
-3.05132e-06
-0.000102787
3.414e-06
-0.000105258
1.11753e-05
-0.000107968
1.67907e-05
-0.000110002
2.00256e-05
-0.000111009
2.17001e-05
-0.000110839
2.23401e-05
-0.000109484
2.22561e-05
-0.000107058
2.16652e-05
-0.000103766
2.07321e-05
-9.98456e-05
1.95834e-05
-9.5534e-05
1.83151e-05
-9.10394e-05
1.69979e-05
-8.65259e-05
1.56861e-05
-8.21184e-05
1.44234e-05
1.32914e-05
-7.80607e-05
1.31168e-06
-9.86822e-06
1.93664e-06
-1.05385e-05
1.88849e-06
-1.11994e-05
1.18552e-06
-1.20244e-05
-1.53697e-07
-1.29925e-05
-2.12842e-06
-1.40714e-05
-4.73334e-06
-1.523e-05
-7.9425e-06
-1.64353e-05
-1.17233e-05
-1.76424e-05
-1.60321e-05
-1.87916e-05
-2.07696e-05
-1.9804e-05
-2.58084e-05
-2.05767e-05
-3.12001e-05
-2.08963e-05
-3.74563e-05
-2.04292e-05
-4.43314e-05
-1.57019e-05
-5.20136e-05
-1.19925e-05
-6.03409e-05
-7.83198e-06
-6.95774e-05
-3.0341e-06
-7.90882e-05
1.29074e-06
-8.78676e-05
5.69035e-06
-9.44873e-05
9.99448e-06
-9.69391e-05
1.35881e-05
-9.65024e-05
1.63189e-05
-9.46955e-05
1.8187e-05
-9.22877e-05
1.92638e-05
-8.96935e-05
1.97201e-05
-8.71911e-05
1.97307e-05
-8.49461e-05
1.93995e-05
-8.30336e-05
1.8801e-05
-8.14699e-05
1.80031e-05
-8.02359e-05
1.70662e-05
-7.92968e-05
1.60452e-05
-7.86098e-05
1.49872e-05
-7.81261e-05
1.39292e-05
1.28366e-05
-7.76807e-05
-4.59403e-06
-5.27575e-06
-8.78126e-06
-6.35311e-06
-1.25813e-05
-7.40161e-06
-1.60967e-05
-8.51173e-06
-1.94102e-05
-9.68206e-06
-2.25824e-05
-1.09029e-05
-2.56642e-05
-1.21523e-05
-2.87071e-05
-1.3397e-05
-3.17682e-05
-1.45861e-05
-3.49199e-05
-1.56448e-05
-3.82611e-05
-1.64672e-05
-4.19481e-05
-1.68933e-05
-4.61529e-05
-1.66943e-05
-5.09264e-05
-1.5657e-05
-5.50829e-05
-1.15457e-05
-5.872e-05
-8.35496e-06
-6.12909e-05
-5.26018e-06
-6.22638e-05
-2.06193e-06
-6.28505e-05
1.87658e-06
-6.43397e-05
7.17928e-06
-6.69803e-05
1.26355e-05
-6.96218e-05
1.62303e-05
-7.16523e-05
1.83501e-05
-7.29779e-05
1.95131e-05
-7.35575e-05
1.9844e-05
-7.33939e-05
1.95571e-05
-7.25764e-05
1.89137e-05
-7.12221e-05
1.80456e-05
-6.94545e-05
1.70339e-05
-6.7394e-05
1.5943e-05
-6.51492e-05
1.48216e-05
-6.28127e-05
1.37087e-05
-6.04621e-05
1.26369e-05
-5.81513e-05
1.16189e-05
1.06887e-05
-5.60027e-05
-1.19167e-06
-4.088e-06
-2.87244e-06
-4.67687e-06
-5.02758e-06
-5.25166e-06
-7.62152e-06
-5.92375e-06
-1.06076e-05
-6.70278e-06
-1.39362e-05
-7.58214e-06
-1.75506e-05
-8.54695e-06
-2.13877e-05
-9.57023e-06
-2.53795e-05
-1.06063e-05
-2.94569e-05
-1.15813e-05
-3.35595e-05
-1.23808e-05
-3.76362e-05
-1.28356e-05
-4.16555e-05
-1.26969e-05
-4.57657e-05
-1.15725e-05
-4.97435e-05
-7.59278e-06
-5.42066e-05
-3.91729e-06
-5.92708e-05
-2.20875e-07
-6.42909e-05
2.93408e-06
-6.82781e-05
5.83977e-06
-7.02734e-05
9.15029e-06
-7.05174e-05
1.28548e-05
-6.962e-05
1.53105e-05
-6.81605e-05
1.68704e-05
-6.63832e-05
1.77177e-05
-6.4526e-05
1.79707e-05
-6.28078e-05
1.78243e-05
-6.13019e-05
1.73946e-05
-6.00222e-05
1.67542e-05
-5.89635e-05
1.59647e-05
-5.81073e-05
1.50775e-05
-5.7428e-05
1.4134e-05
-5.68938e-05
1.3167e-05
-5.64705e-05
1.22069e-05
-5.61352e-05
1.12778e-05
1.03622e-05
-5.58138e-05
-1.25618e-06
-2.83181e-06
-2.43085e-06
-3.50226e-06
-3.56809e-06
-4.11454e-06
-4.74766e-06
-4.74437e-06
-6.05668e-06
-5.39399e-06
-7.58283e-06
-6.0563e-06
-9.41487e-06
-6.71527e-06
-1.16406e-05
-7.34486e-06
-1.43412e-05
-7.90622e-06
-1.75798e-05
-8.34311e-06
-2.13857e-05
-8.57529e-06
-2.57349e-05
-8.48685e-06
-3.05166e-05
-7.91548e-06
-3.54331e-05
-6.65633e-06
-3.90891e-05
-3.93675e-06
-4.12746e-05
-1.72746e-06
-4.2509e-05
1.01242e-06
-4.41775e-05
4.59999e-06
-4.64004e-05
8.05996e-06
-4.88763e-05
1.16233e-05
-5.13304e-05
1.53058e-05
-5.32447e-05
1.72219e-05
-5.45082e-05
1.81312e-05
-5.51305e-05
1.83373e-05
-5.52186e-05
1.80565e-05
-5.48779e-05
1.74816e-05
-5.41831e-05
1.66977e-05
-5.32141e-05
1.57831e-05
-5.20482e-05
1.47969e-05
-5.07538e-05
1.37813e-05
-4.93887e-05
1.27671e-05
-4.79997e-05
1.17764e-05
-4.66184e-05
1.08241e-05
-4.52656e-05
9.92362e-06
9.10111e-06
-4.40057e-05
-1.40068e-06
-1.43456e-06
-3.13257e-06
-1.77423e-06
-5.15209e-06
-2.09937e-06
-7.43536e-06
-2.46607e-06
-9.95187e-06
-2.88316e-06
-1.2668e-05
-3.34671e-06
-1.5546e-05
-3.8447e-06
-1.85452e-05
-4.35416e-06
-2.16251e-05
-4.83608e-06
-2.47506e-05
-5.22887e-06
-2.79008e-05
-5.43784e-06
-3.10735e-05
-5.32849e-06
-3.42978e-05
-4.70756e-06
-3.77953e-05
-3.17773e-06
-4.13915e-05
-3.58078e-07
-4.49408e-05
1.80121e-06
-4.79112e-05
3.96677e-06
-4.97218e-05
6.39558e-06
-5.07192e-05
9.04225e-06
-5.10443e-05
1.19334e-05
-5.07884e-05
1.50352e-05
-5.01724e-05
1.65923e-05
-4.93008e-05
1.72474e-05
-4.83061e-05
1.73317e-05
-4.73046e-05
1.70452e-05
-4.63421e-05
1.65103e-05
-4.54548e-05
1.58024e-05
-4.46599e-05
1.4981e-05
-4.396e-05
1.40905e-05
-4.33503e-05
1.31656e-05
-4.28218e-05
1.22333e-05
-4.2364e-05
1.13139e-05
-4.19661e-05
1.04219e-05
-4.16138e-05
9.56756e-06
8.75296e-06
-4.12691e-05
-2.07101e-07
-1.22747e-06
-4.83822e-07
-1.49761e-06
-8.50063e-07
-1.73331e-06
-1.35538e-06
-1.96101e-06
-2.06118e-06
-2.17769e-06
-3.03272e-06
-2.37557e-06
-4.33535e-06
-2.54257e-06
-6.02906e-06
-2.66106e-06
-8.16071e-06
-2.70519e-06
-1.07522e-05
-2.63829e-06
-1.3783e-05
-2.40817e-06
-1.71656e-05
-1.94737e-06
-2.06818e-05
-1.19301e-06
-2.40694e-05
2.07652e-07
-2.67726e-05
2.34189e-06
-2.94194e-05
4.44413e-06
-3.20665e-05
6.60981e-06
-3.45568e-05
8.88152e-06
-3.67917e-05
1.12725e-05
-3.87127e-05
1.38494e-05
-4.03046e-05
1.66218e-05
-4.13214e-05
1.7604e-05
-4.17896e-05
1.77108e-05
-4.18772e-05
1.74149e-05
-4.16855e-05
1.68495e-05
-4.1276e-05
1.6097e-05
-4.07002e-05
1.52231e-05
-4.00011e-05
1.42786e-05
-3.92175e-05
1.33039e-05
-3.8385e-05
1.23302e-05
-3.75332e-05
1.1379e-05
-3.66858e-05
1.04641e-05
-3.58606e-05
9.59449e-06
-3.50705e-05
8.77549e-06
8.01644e-06
-3.43357e-05
-1.29835e-06
6.80987e-08
-2.76594e-06
-3.31765e-08
-4.38253e-06
-1.20316e-07
-6.13068e-06
-2.16992e-07
-7.98399e-06
-3.29136e-07
-9.93715e-06
-4.2788e-07
-1.19832e-05
-5.02772e-07
-1.41225e-05
-5.28954e-07
-1.63782e-05
-4.57817e-07
-1.87553e-05
-2.70325e-07
-2.12472e-05
7.34967e-08
-2.38593e-05
6.53671e-07
-2.6599e-05
1.53432e-06
-2.94772e-05
3.07271e-06
-3.16363e-05
4.48948e-06
-3.33821e-05
6.1789e-06
-3.47869e-05
8.00422e-06
-3.58825e-05
9.96714e-06
-3.6697e-05
1.20773e-05
-3.72044e-05
1.43476e-05
-3.7353e-05
1.67613e-05
-3.71671e-05
1.74099e-05
-3.67734e-05
1.73098e-05
-3.62717e-05
1.69067e-05
-3.57124e-05
1.62843e-05
-3.51327e-05
1.55118e-05
-3.4559e-05
1.46446e-05
-3.40104e-05
1.37255e-05
-3.34986e-05
1.27879e-05
-3.30275e-05
1.18554e-05
-3.25967e-05
1.09448e-05
-3.22034e-05
1.00678e-05
-3.18443e-05
9.23257e-06
-3.15156e-05
8.4443e-06
7.70182e-06
-3.12032e-05
1.94229e-07
-1.2623e-07
2.8563e-07
-1.24841e-07
2.50536e-07
-8.57269e-08
5.3089e-08
-2.02068e-08
-3.53498e-07
7.66042e-08
-1.00497e-06
2.22543e-07
-1.96576e-06
4.56807e-07
-3.24416e-06
7.48036e-07
-4.83081e-06
1.12722e-06
-6.73367e-06
1.63042e-06
-8.97098e-06
2.30829e-06
-1.15558e-05
3.23526e-06
-1.455e-05
4.52462e-06
-1.78512e-05
6.36925e-06
-2.07071e-05
7.34073e-06
-2.32748e-05
8.74204e-06
-2.55431e-05
1.02679e-05
-2.75039e-05
1.19234e-05
-2.91528e-05
1.37216e-05
-3.04566e-05
1.56469e-05
-3.13439e-05
1.76441e-05
-3.18032e-05
1.78653e-05
-3.19784e-05
1.74814e-05
-3.19339e-05
1.68589e-05
-3.17243e-05
1.60717e-05
-3.13939e-05
1.51788e-05
-3.09785e-05
1.42267e-05
-3.05065e-05
1.32512e-05
-2.99996e-05
1.22788e-05
-2.94746e-05
1.13285e-05
-2.89458e-05
1.04142e-05
-2.84253e-05
9.54555e-06
-2.79222e-05
8.72792e-06
-2.74427e-05
7.96353e-06
7.25567e-06
-2.69977e-05
-1.30531e-06
1.17673e-06
-2.67375e-06
1.24101e-06
-4.08676e-06
1.32448e-06
-5.53852e-06
1.42842e-06
-7.01998e-06
1.55454e-06
-8.51386e-06
1.71247e-06
-9.97945e-06
1.91793e-06
-1.14311e-05
2.19463e-06
-1.28847e-05
2.57512e-06
-1.43625e-05
3.10189e-06
-1.58924e-05
3.8312e-06
-1.7499e-05
4.83428e-06
-1.91958e-05
6.21333e-06
-2.09783e-05
8.14318e-06
-2.25275e-05
8.88249e-06
-2.39223e-05
1.013e-05
-2.51603e-05
1.14997e-05
-2.62246e-05
1.2982e-05
-2.70816e-05
1.45735e-05
-2.76937e-05
1.62543e-05
-2.80351e-05
1.79812e-05
-2.81259e-05
1.79525e-05
-2.80404e-05
1.73928e-05
-2.78328e-05
1.66486e-05
-2.75448e-05
1.57813e-05
-2.72083e-05
1.48402e-05
-2.68472e-05
1.38637e-05
-2.64785e-05
1.28807e-05
-2.61138e-05
1.19125e-05
-2.57615e-05
1.09746e-05
-2.54266e-05
1.00778e-05
-2.51108e-05
9.22857e-06
-2.48144e-05
8.43038e-06
-2.4537e-05
7.68519e-06
6.9924e-06
-2.42746e-05
2.29607e-07
9.46437e-07
3.00186e-07
1.16961e-06
2.29445e-07
1.39426e-06
3.20148e-10
1.65642e-06
-4.13979e-07
1.96757e-06
-1.03963e-06
2.33665e-06
-1.89952e-06
2.77611e-06
-3.01112e-06
3.30425e-06
-4.384e-06
3.94572e-06
-6.01853e-06
4.73379e-06
-7.90484e-06
5.71445e-06
-1.00247e-05
6.95065e-06
-1.23496e-05
8.53424e-06
-1.48198e-05
1.0609e-05
-1.6912e-05
1.09708e-05
-1.87611e-05
1.19756e-05
-2.03666e-05
1.3102e-05
-2.17302e-05
1.43427e-05
-2.28434e-05
1.56843e-05
-2.36945e-05
1.71034e-05
-2.42895e-05
1.85746e-05
-2.46132e-05
1.8275e-05
-2.47266e-05
1.75053e-05
-2.46861e-05
1.66075e-05
-2.45349e-05
1.56296e-05
-2.43057e-05
1.46105e-05
-2.40234e-05
1.35811e-05
-2.37075e-05
1.25645e-05
-2.3373e-05
1.15777e-05
-2.30314e-05
1.06327e-05
-2.26908e-05
9.73693e-06
-2.23573e-05
8.89476e-06
-2.20361e-05
8.10895e-06
-2.17313e-05
7.3802e-06
6.70805e-06
-2.14471e-05
-7.09744e-07
1.65493e-06
-1.47739e-06
1.93584e-06
-2.29867e-06
2.21392e-06
-3.16751e-06
2.52341e-06
-4.0784e-06
2.87634e-06
-5.02997e-06
3.2858e-06
-6.02535e-06
3.76874e-06
-7.07167e-06
4.34746e-06
-8.18123e-06
5.05179e-06
-9.37044e-06
5.91913e-06
-1.06509e-05
6.99072e-06
-1.20244e-05
8.31962e-06
-1.34888e-05
9.99393e-06
-1.50397e-05
1.21551e-05
-1.64028e-05
1.23298e-05
-1.7653e-05
1.32223e-05
-1.87767e-05
1.42229e-05
-1.97521e-05
1.53159e-05
-2.05558e-05
1.64863e-05
-2.11713e-05
1.77178e-05
-2.15908e-05
1.89935e-05
-2.18028e-05
1.84869e-05
-2.18543e-05
1.75569e-05
-2.17891e-05
1.65427e-05
-2.16423e-05
1.54831e-05
-2.14409e-05
1.44096e-05
-2.1206e-05
1.33465e-05
-2.09529e-05
1.23118e-05
-2.0693e-05
1.13181e-05
-2.0434e-05
1.0374e-05
-2.01815e-05
9.4847e-06
-1.99394e-05
8.65296e-06
-1.97099e-05
7.87965e-06
-1.94935e-05
7.16403e-06
6.50391e-06
-1.92891e-05
-2.29279e-08
1.67723e-06
-1.52228e-07
2.0644e-06
-3.69567e-07
2.4304e-06
-6.85935e-07
2.83879e-06
-1.11832e-06
3.30759e-06
-1.68417e-06
3.85035e-06
-2.3992e-06
4.48228e-06
-3.27636e-06
5.22292e-06
-4.32482e-06
6.09832e-06
-5.54867e-06
7.14081e-06
-6.94394e-06
8.38354e-06
-8.49792e-06
9.87092e-06
-1.01885e-05
1.16817e-05
-1.19814e-05
1.3945e-05
-1.35178e-05
1.38639e-05
-1.48907e-05
1.45934e-05
-1.60934e-05
1.54243e-05
-1.71212e-05
1.63429e-05
-1.7969e-05
1.73337e-05
-1.8633e-05
1.83821e-05
-1.9112e-05
1.94732e-05
-1.93862e-05
1.87621e-05
-1.94996e-05
1.76716e-05
-1.94947e-05
1.65391e-05
-1.94043e-05
1.5394e-05
-1.92537e-05
1.42604e-05
-1.90625e-05
1.31566e-05
-1.88457e-05
1.20961e-05
-1.86145e-05
1.1088e-05
-1.83777e-05
1.01382e-05
-1.81417e-05
9.24954e-06
-1.79111e-05
8.42309e-06
-1.76889e-05
7.65817e-06
-1.74773e-05
6.95304e-06
6.30543e-06
-1.72781e-05
-4.14457e-07
2.09097e-06
-8.77547e-07
2.52666e-06
-1.39001e-06
2.94192e-06
-1.9523e-06
3.39999e-06
-2.56649e-06
3.92053e-06
-3.23644e-06
4.51888e-06
-3.96722e-06
5.21145e-06
-4.76311e-06
6.017e-06
-5.62451e-06
6.95773e-06
-6.55102e-06
8.06512e-06
-7.55195e-06
9.38209e-06
-8.64579e-06
1.09622e-05
-9.85463e-06
1.28879e-05
-1.11919e-05
1.52798e-05
-1.23978e-05
1.50679e-05
-1.35159e-05
1.57101e-05
-1.45224e-05
1.643e-05
-1.53998e-05
1.722e-05
-1.61352e-05
1.80694e-05
-1.67191e-05
1.89668e-05
-1.71452e-05
1.99006e-05
-1.73939e-05
1.90124e-05
-1.75021e-05
1.77815e-05
-1.7506e-05
1.65448e-05
-1.74348e-05
1.53245e-05
-1.73111e-05
1.41384e-05
-1.71526e-05
1.29997e-05
-1.69727e-05
1.19176e-05
-1.67813e-05
1.0898e-05
-1.65857e-05
9.94378e-06
-1.6391e-05
9.056e-06
-1.62009e-05
8.23399e-06
-1.60178e-05
7.47597e-06
-1.58432e-05
6.77934e-06
6.14094e-06
-1.56779e-05
-1.32685e-07
2.2232e-06
-3.3229e-07
2.72575e-06
-5.92742e-07
3.20177e-06
-9.20465e-07
3.72702e-06
-1.32599e-06
4.32526e-06
-1.82154e-06
5.01352e-06
-2.41841e-06
5.80728e-06
-3.12519e-06
6.7226e-06
-3.94609e-06
7.77733e-06
-4.87698e-06
8.99458e-06
-5.9146e-06
1.04181e-05
-7.06461e-06
1.21106e-05
-8.32662e-06
1.41482e-05
-9.68719e-06
1.66387e-05
-1.08775e-05
1.62571e-05
-1.19621e-05
1.6794e-05
-1.29311e-05
1.73988e-05
-1.37749e-05
1.8064e-05
-1.44855e-05
1.87807e-05
-1.50566e-05
1.9539e-05
-1.54834e-05
2.03291e-05
-1.5744e-05
1.92749e-05
-1.58716e-05
1.79111e-05
-1.58996e-05
1.65747e-05
-1.58545e-05
1.52814e-05
-1.57574e-05
1.40431e-05
-1.56244e-05
1.28684e-05
-1.5468e-05
1.17629e-05
-1.52978e-05
1.07292e-05
-1.51209e-05
9.76828e-06
-1.49428e-05
8.87913e-06
-1.47674e-05
8.05971e-06
-1.45975e-05
7.3071e-06
-1.44351e-05
6.61787e-06
5.98829e-06
-1.42815e-05
-2.80715e-07
2.50352e-06
-6.01362e-07
3.04593e-06
-9.62404e-07
3.56228e-06
-1.36583e-06
4.12983e-06
-1.812e-06
4.77073e-06
-2.30197e-06
5.50268e-06
-2.83963e-06
6.34404e-06
-3.43224e-06
7.31419e-06
-4.09256e-06
8.43651e-06
-4.83933e-06
9.7401e-06
-5.68631e-06
1.12638e-05
-6.64076e-06
1.30636e-05
-7.70631e-06
1.52124e-05
-8.87726e-06
1.78084e-05
-9.92245e-06
1.73015e-05
-1.08892e-05
1.77603e-05
-1.1764e-05
1.82735e-05
-1.2535e-05
1.88354e-05
-1.31923e-05
1.94388e-05
-1.37278e-05
2.00757e-05
-1.4135e-05
2.07379e-05
-1.43907e-05
1.95325e-05
-1.45236e-05
1.80459e-05
-1.45637e-05
1.66168e-05
-1.45352e-05
1.52548e-05
-1.44575e-05
1.39672e-05
-1.43457e-05
1.27582e-05
-1.42114e-05
1.16302e-05
-1.40638e-05
1.0583e-05
-1.39095e-05
9.61525e-06
-1.37535e-05
8.72432e-06
-1.35995e-05
7.90675e-06
-1.34499e-05
7.15856e-06
-1.33066e-05
6.47548e-06
5.8531e-06
-1.31706e-05
-1.58084e-07
2.66133e-06
-3.61825e-07
3.24935e-06
-6.07857e-07
3.80794e-06
-9.02751e-07
4.42429e-06
-1.25465e-06
5.12214e-06
-1.66947e-06
5.91694e-06
-2.15242e-06
6.82635e-06
-2.71091e-06
7.87196e-06
-3.35309e-06
9.0779e-06
-4.0872e-06
1.04733e-05
-4.92036e-06
1.2096e-05
-5.85466e-06
1.39969e-05
-6.88787e-06
1.62446e-05
-8.01153e-06
1.89312e-05
-9.00509e-06
1.82945e-05
-9.9201e-06
1.8675e-05
-1.07479e-05
1.91014e-05
-1.148e-05
1.95678e-05
-1.21085e-05
2.0068e-05
-1.26263e-05
2.05946e-05
-1.30272e-05
2.11403e-05
-1.32868e-05
1.97937e-05
-1.34306e-05
1.81914e-05
-1.3486e-05
1.66738e-05
-1.34755e-05
1.52459e-05
-1.34169e-05
1.39101e-05
-1.33242e-05
1.2667e-05
-1.32086e-05
1.15159e-05
-1.30787e-05
1.04542e-05
-1.29409e-05
9.47857e-06
-1.28002e-05
8.58463e-06
-1.26602e-05
7.76768e-06
-1.25235e-05
7.02276e-06
-1.2392e-05
6.34479e-06
5.72878e-06
-1.2267e-05
-2.01784e-07
2.8629e-06
-4.3937e-07
3.48668e-06
-7.09263e-07
4.07754e-06
-1.01242e-06
4.7271e-06
-1.35331e-06
5.46264e-06
-1.73925e-06
6.30243e-06
-2.17781e-06
7.26441e-06
-2.67637e-06
8.36995e-06
-3.24357e-06
9.64446e-06
-3.88911e-06
1.11182e-05
-4.62269e-06
1.28288e-05
-5.45168e-06
1.48251e-05
-6.37883e-06
1.7171e-05
-7.3996e-06
1.99512e-05
-8.31279e-06
1.92072e-05
-9.16167e-06
1.95237e-05
-9.93637e-06
1.9876e-05
-1.06278e-05
2.02595e-05
-1.12277e-05
2.06684e-05
-1.17286e-05
2.10963e-05
-1.21238e-05
2.15366e-05
-1.23874e-05
2.00584e-05
-1.25416e-05
1.83469e-05
-1.26116e-05
1.67451e-05
-1.26179e-05
1.52534e-05
-1.25771e-05
1.38705e-05
-1.25028e-05
1.25937e-05
-1.24053e-05
1.14194e-05
-1.22929e-05
1.03428e-05
-1.21719e-05
9.35843e-06
-1.2047e-05
8.46058e-06
-1.19219e-05
7.64327e-06
-1.1799e-05
6.90054e-06
-1.16802e-05
6.2266e-06
5.61583e-06
-1.15667e-05
-1.4664e-07
3.00938e-06
-3.3204e-07
3.6719e-06
-5.54258e-07
4.29955e-06
-8.16354e-07
4.98896e-06
-1.12223e-06
5.76823e-06
-1.47711e-06
6.65699e-06
-1.88754e-06
7.67448e-06
-2.36029e-06
8.84228e-06
-2.90205e-06
1.01858e-05
-3.51972e-06
1.17353e-05
-4.21987e-06
1.35284e-05
-5.00768e-06
1.56124e-05
-5.88531e-06
1.8048e-05
-6.84931e-06
2.09147e-05
-7.71168e-06
2.00692e-05
-8.51542e-06
2.03271e-05
-9.2525e-06
2.0613e-05
-9.91509e-06
2.09222e-05
-1.04956e-05
2.12492e-05
-1.09869e-05
2.1588e-05
-1.13822e-05
2.19325e-05
-1.16539e-05
2.03309e-05
-1.18218e-05
1.85156e-05
-1.19086e-05
1.68327e-05
-1.19331e-05
1.52788e-05
-1.19112e-05
1.38494e-05
-1.18554e-05
1.25387e-05
-1.17758e-05
1.13405e-05
-1.16803e-05
1.02479e-05
-1.1575e-05
9.25376e-06
-1.14647e-05
8.35078e-06
-1.13529e-05
7.53189e-06
-1.12421e-05
6.79021e-06
-1.11343e-05
6.1192e-06
5.51269e-06
-1.10307e-05
-1.57953e-07
3.16723e-06
-3.4935e-07
3.86317e-06
-5.70118e-07
4.52017e-06
-8.23064e-07
5.24173e-06
-1.11253e-06
6.05749e-06
-1.44369e-06
6.98792e-06
-1.82267e-06
8.0532e-06
-2.25637e-06
9.27569e-06
-2.75224e-06
1.06813e-05
-3.31805e-06
1.23008e-05
-3.96139e-06
1.41714e-05
-4.68863e-06
1.63392e-05
-5.50334e-06
1.88623e-05
-6.40395e-06
2.18148e-05
-7.21511e-06
2.08799e-05
-7.9763e-06
2.1088e-05
-8.67975e-06
2.13163e-05
-9.31792e-06
2.15603e-05
-9.88346e-06
2.18147e-05
-1.03692e-05
2.20739e-05
-1.07683e-05
2.23318e-05
-1.10511e-05
2.0614e-05
-1.12347e-05
1.86996e-05
-1.134e-05
1.69383e-05
-1.13843e-05
1.53236e-05
-1.13824e-05
1.38478e-05
-1.13461e-05
1.25029e-05
-1.12852e-05
1.128e-05
-1.12073e-05
1.01703e-05
-1.11184e-05
9.16512e-06
-1.10231e-05
8.25576e-06
-1.0925e-05
7.43403e-06
-1.08267e-05
6.69218e-06
-1.07302e-05
6.02294e-06
5.41959e-06
-1.06369e-05
-1.3675e-07
3.30391e-06
-3.06844e-07
4.03318e-06
-5.06787e-07
4.72002e-06
-7.39262e-07
5.47409e-06
-1.00836e-06
6.32647e-06
-1.31896e-06
7.29837e-06
-1.67653e-06
8.4106e-06
-2.08711e-06
9.68607e-06
-2.55715e-06
1.11511e-05
-3.09334e-06
1.28367e-05
-3.70231e-06
1.478e-05
-4.38991e-06
1.70264e-05
-5.16002e-06
1.9632e-05
-6.01256e-06
2.26669e-05
-6.78304e-06
2.165e-05
-7.50982e-06
2.18144e-05
-8.1862e-06
2.19923e-05
-8.80544e-06
2.21792e-05
-9.3607e-06
2.23697e-05
-9.84506e-06
2.25581e-05
-1.02515e-05
2.27382e-05
-1.05486e-05
2.0911e-05
-1.07507e-05
1.89016e-05
-1.08766e-05
1.70643e-05
-1.09427e-05
1.53897e-05
-1.09624e-05
1.38676e-05
-1.0947e-05
1.24876e-05
-1.09059e-05
1.12389e-05
-1.08465e-05
1.01109e-05
-1.07746e-05
9.09327e-06
-1.06949e-05
8.1761e-06
-1.0611e-05
7.35014e-06
-1.05256e-05
6.60678e-06
-1.04407e-05
5.93808e-06
5.33676e-06
-1.03578e-05
-1.35891e-07
3.43977e-06
-2.99933e-07
4.19718e-06
-4.90992e-07
4.91103e-06
-7.11709e-07
5.69475e-06
-9.65838e-07
6.58053e-06
-1.25791e-06
7.59036e-06
-1.59317e-06
8.74576e-06
-1.97747e-06
1.00703e-05
-2.41727e-06
1.15908e-05
-2.91934e-06
1.33386e-05
-3.49048e-06
1.5351e-05
-4.13686e-06
1.76726e-05
-4.86301e-06
2.03578e-05
-5.67017e-06
2.34737e-05
-6.40347e-06
2.23829e-05
-7.09955e-06
2.25101e-05
-7.75247e-06
2.26448e-05
-8.35613e-06
2.27824e-05
-8.90419e-06
2.29174e-05
-9.39003e-06
2.30435e-05
-9.80669e-06
2.31544e-05
-1.01204e-05
2.12244e-05
-1.03432e-05
1.9124e-05
-1.04919e-05
1.72127e-05
-1.05814e-05
1.54789e-05
-1.06244e-05
1.39103e-05
-1.06315e-05
1.24945e-05
-1.06116e-05
1.12188e-05
-1.05718e-05
1.0071e-05
-1.05181e-05
9.03934e-06
-1.0455e-05
8.11281e-06
-1.03861e-05
7.28113e-06
-1.03143e-05
6.53486e-06
-1.02417e-05
5.86537e-06
-1.01699e-05
5.26485e-06
0.000449764
2.6824e-05
0.00043442
2.82995e-05
0.000418093
2.91256e-05
0.00040074
2.99852e-05
0.000382368
3.08175e-05
0.000362976
3.16275e-05
0.000342487
3.24818e-05
0.000320816
3.33849e-05
0.000297905
3.43029e-05
0.000273701
3.52313e-05
0.000248115
3.62282e-05
0.00022176
3.66848e-05
0.000196448
3.5458e-05
0.000172014
3.44998e-05
0.000148293
3.37219e-05
0.000125195
3.30378e-05
0.000102646
3.24188e-05
8.0609e-05
3.1819e-05
5.91039e-05
3.11911e-05
3.82241e-05
3.04866e-05
1.81677e-05
2.9622e-05
2.8974e-05
-1.73092e-06
0.000422391
2.73811e-05
0.000428291
2.24601e-05
0.000439133
1.83546e-05
0.000454368
1.48252e-05
0.000472748
1.25093e-05
0.000491924
1.2501e-05
0.000509002
1.5429e-05
0.000521585
2.08078e-05
0.000527845
2.8035e-05
0.000526257
3.6798e-05
0.000515534
4.6916e-05
0.00049449
5.76785e-05
0.000463011
6.68789e-05
0.000422201
7.52443e-05
0.000373491
8.23615e-05
0.00031837
8.80836e-05
0.000258312
9.23981e-05
0.000194697
9.53543e-05
0.000128786
9.70232e-05
6.19383e-05
9.72566e-05
-4.72116e-06
9.621e-05
9.36188e-05
-6.94332e-05
3.83355e-05
1.76227e-05
4.4103e-05
1.67659e-05
4.70265e-05
1.54777e-05
4.74037e-05
1.44644e-05
4.59004e-05
1.40104e-05
4.37658e-05
1.46348e-05
4.23573e-05
1.68408e-05
4.24367e-05
2.073e-05
4.42662e-05
2.62017e-05
4.75613e-05
3.35026e-05
4.99325e-05
4.45401e-05
5.19238e-05
5.56826e-05
5.47773e-05
6.40229e-05
5.84951e-05
7.15285e-05
6.27664e-05
7.80962e-05
6.73246e-05
8.35361e-05
7.20258e-05
8.7711e-05
7.68389e-05
9.05585e-05
8.17865e-05
9.20955e-05
8.6915e-05
9.21481e-05
9.22349e-05
9.09078e-05
8.94e-05
9.64664e-05
0.000215815
6.55025e-05
0.000164964
6.73694e-05
0.000110761
6.94277e-05
5.39442e-05
7.10209e-05
-4.37367e-06
7.20469e-05
-6.23472e-05
7.23753e-05
-0.000117685
7.19298e-05
-0.00016792
7.07137e-05
-0.000210918
6.89469e-05
-0.000244694
6.70197e-05
-0.00026575
6.53429e-05
-0.000273982
6.3673e-05
-0.000271356
6.11755e-05
-0.000260155
6.01292e-05
-0.00024247
6.02353e-05
-0.000220232
6.11426e-05
-0.000195132
6.24791e-05
-0.000168584
6.39006e-05
-0.000141729
6.51501e-05
-0.000115728
6.60757e-05
-9.14593e-05
6.65836e-05
6.62488e-05
-6.83458e-05
-0.000224305
4.18023e-05
-0.000202144
4.53746e-05
-0.00018074
4.81921e-05
-0.000160263
5.0713e-05
-0.000140984
5.29357e-05
-0.000123242
5.47885e-05
-0.000107348
5.61768e-05
-9.36099e-05
5.70965e-05
-8.22336e-05
5.76711e-05
-7.33003e-05
5.81715e-05
-6.67217e-05
5.88393e-05
-6.18246e-05
5.88406e-05
-5.72303e-05
5.6636e-05
-5.21476e-05
5.50909e-05
-4.60467e-05
5.41703e-05
-3.85862e-05
5.37094e-05
-2.96425e-05
5.35566e-05
-1.92574e-05
5.35316e-05
-7.56834e-06
5.34705e-05
5.22531e-06
5.32791e-05
1.89035e-05
5.29007e-05
5.25532e-05
3.25858e-05
-9.48158e-05
3.77193e-05
-8.91166e-05
3.96174e-05
-8.27645e-05
4.17807e-05
-7.59635e-05
4.38515e-05
-6.88892e-05
4.57985e-05
-6.17558e-05
4.75909e-05
-5.48533e-05
4.92108e-05
-4.8486e-05
5.06658e-05
-4.28595e-05
5.19802e-05
-3.79533e-05
5.31988e-05
-3.35852e-05
5.44013e-05
-2.98254e-05
5.50136e-05
-2.70474e-05
5.37987e-05
-2.47491e-05
5.27466e-05
-2.24063e-05
5.17912e-05
-1.96501e-05
5.09165e-05
-1.62575e-05
5.01263e-05
-1.21679e-05
4.9409e-05
-7.4627e-06
4.87355e-05
-2.28713e-06
4.80783e-05
3.19757e-06
4.74094e-05
4.65294e-05
9.20846e-06