/*--------------------------------*- C++ -*----------------------------------*\
  =========                 |
  \\      /  F ield         | OpenFOAM: The Open Source CFD Toolbox
   \\    /   O peration     | Website:  https://openfoam.org
    \\  /    A nd           | Version:  8
     \\/     M anipulation  |
\*---------------------------------------------------------------------------*/
FoamFile
{
    version     2.0;
    format      ascii;
    class       volScalarField;
    location    "0.17";
    object      T;
}
// * * * * * * * * * * * * * * * * * * * * * * * * * * * * * * * * * * * * * //

dimensions      [0 0 0 1 0 0 0];

internalField   nonuniform List<scalar> 
15677
(
298.216
298.177
298.17
298.18
298.202
298.235
298.278
298.33
298.386
298.458
298.53
298.57
298.549
298.446
298.271
298.123
297.993
297.882
297.787
297.713
297.673
297.678
297.716
297.791
297.885
297.99
298.087
298.165
298.228
298.274
298.305
298.324
298.334
298.338
298.339
298.693
298.574
298.493
298.449
298.441
298.487
298.62
298.896
299.344
299.9
300.357
300.553
300.495
300.216
299.8
299.372
298.99
298.707
298.525
298.421
298.373
298.369
298.392
298.442
298.508
298.579
298.643
298.693
298.731
298.76
298.783
298.803
298.82
298.835
298.847
301.738
301.417
301.14
300.867
300.576
300.263
299.917
299.569
299.262
299.032
298.887
298.738
298.585
298.516
298.517
298.59
298.699
298.85
299.047
299.278
299.498
299.679
299.817
299.921
299.995
300.044
300.072
300.086
300.09
300.089
300.085
300.08
300.076
300.074
300.074
301.954
301.843
301.697
301.549
301.388
301.211
301.005
300.74
300.429
300.15
300.079
300.19
300.354
300.348
300.384
300.485
300.58
300.599
300.55
300.455
300.335
300.213
300.117
300.06
300.032
300.024
300.027
300.038
300.054
300.072
300.093
300.113
300.133
300.153
300.172
300.28
300.267
300.265
300.269
300.28
300.298
300.327
300.372
300.441
300.54
300.657
300.736
300.726
300.624
300.522
300.442
300.38
300.329
300.292
300.272
300.269
300.282
300.307
300.343
300.392
300.451
300.514
300.576
300.633
300.683
300.727
300.765
300.796
300.822
300.844
300.559
300.553
300.563
300.584
300.616
300.662
300.722
300.796
300.879
300.959
301.023
301.056
301.058
301.033
300.992
300.945
300.892
300.829
300.768
300.712
300.668
300.639
300.626
300.625
300.63
300.637
300.645
300.654
300.663
300.673
300.681
300.689
300.696
300.703
300.708
301.32
301.3
301.276
301.248
301.21
301.164
301.112
301.062
301.021
300.994
300.983
300.981
300.968
300.939
300.906
300.877
300.852
300.829
300.81
300.793
300.779
300.769
300.766
300.769
300.777
300.789
300.802
300.814
300.825
300.835
300.845
300.854
300.862
300.869
300.876
301.314
301.304
301.289
301.274
301.257
301.241
301.224
301.207
301.193
301.182
301.175
301.166
301.147
301.112
301.07
301.031
300.997
300.968
300.944
300.923
300.907
300.895
300.887
300.881
300.877
300.874
300.873
300.873
300.873
300.874
300.875
300.877
300.878
300.88
300.882
301.035
301.039
301.043
301.047
301.051
301.055
301.059
301.062
301.065
301.066
301.067
301.065
301.06
301.051
301.039
301.026
301.012
300.998
300.984
300.971
300.959
300.95
300.943
300.94
300.938
300.938
300.939
300.94
300.941
300.942
300.944
300.945
300.946
300.947
300.948
301.201
301.189
301.179
301.171
301.163
301.156
301.149
301.142
301.135
301.128
301.121
301.114
301.105
301.095
301.083
301.072
301.06
301.048
301.036
301.025
301.015
301.006
300.998
300.992
300.987
300.984
300.981
300.979
300.978
300.977
300.976
300.975
300.975
300.974
300.974
301.108
301.109
301.111
301.113
301.115
301.116
301.117
301.117
301.117
301.116
301.114
301.11
301.105
301.099
301.091
301.083
301.075
301.067
301.058
301.05
301.042
301.035
301.029
301.024
301.021
301.018
301.016
301.015
301.013
301.012
301.012
301.011
301.011
301.01
301.01
301.205
301.198
301.192
301.187
301.182
301.177
301.173
301.168
301.163
301.158
301.153
301.147
301.14
301.132
301.124
301.116
301.108
301.099
301.091
301.082
301.075
301.067
301.061
301.056
301.052
301.049
301.046
301.043
301.041
301.04
301.038
301.037
301.036
301.035
301.034
301.175
301.175
301.174
301.174
301.173
301.172
301.171
301.17
301.168
301.165
301.162
301.157
301.152
301.146
301.139
301.132
301.125
301.118
301.111
301.104
301.097
301.09
301.085
301.081
301.077
301.074
301.071
301.069
301.067
301.065
301.064
301.063
301.062
301.061
301.06
301.224
301.219
301.216
301.213
301.21
301.207
301.203
301.2
301.196
301.192
301.187
301.182
301.176
301.169
301.162
301.155
301.148
301.141
301.134
301.127
301.12
301.114
301.109
301.105
301.101
301.098
301.095
301.093
301.091
301.089
301.087
301.086
301.085
301.084
301.083
301.216
301.214
301.213
301.212
301.21
301.209
301.207
301.205
301.203
301.2
301.197
301.193
301.188
301.182
301.176
301.17
301.164
301.158
301.152
301.146
301.14
301.134
301.13
301.126
301.122
301.119
301.117
301.115
301.113
301.111
301.109
301.108
301.107
301.106
301.105
301.241
301.239
301.236
301.234
301.232
301.23
301.227
301.224
301.221
301.218
301.214
301.21
301.205
301.199
301.193
301.187
301.181
301.175
301.17
301.164
301.159
301.153
301.149
301.145
301.142
301.14
301.137
301.135
301.133
301.132
301.13
301.129
301.128
301.127
301.126
301.239
301.238
301.237
301.236
301.235
301.233
301.232
301.23
301.228
301.225
301.222
301.219
301.215
301.21
301.205
301.2
301.195
301.19
301.185
301.18
301.175
301.17
301.166
301.163
301.16
301.158
301.156
301.154
301.152
301.151
301.15
301.149
301.148
301.147
301.146
301.253
301.251
301.249
301.248
301.246
301.245
301.243
301.241
301.239
301.236
301.233
301.23
301.226
301.221
301.217
301.212
301.208
301.203
301.198
301.194
301.19
301.186
301.182
301.179
301.177
301.175
301.173
301.171
301.17
301.168
301.167
301.166
301.165
301.165
301.164
301.256
301.254
301.253
301.252
301.251
301.25
301.248
301.247
301.245
301.243
301.24
301.238
301.234
301.23
301.226
301.222
301.218
301.214
301.21
301.206
301.203
301.199
301.196
301.194
301.191
301.19
301.188
301.187
301.185
301.184
301.183
301.182
301.182
301.181
301.18
301.262
301.261
301.259
301.258
301.257
301.256
301.255
301.253
301.252
301.25
301.247
301.245
301.242
301.238
301.235
301.231
301.228
301.224
301.221
301.217
301.214
301.211
301.209
301.206
301.204
301.203
301.201
301.2
301.199
301.198
301.198
301.197
301.196
301.195
301.195
301.266
301.264
301.263
301.262
301.261
301.26
301.259
301.258
301.256
301.255
301.253
301.251
301.248
301.245
301.242
301.239
301.236
301.233
301.23
301.227
301.224
301.221
301.219
301.217
301.216
301.214
301.213
301.212
301.211
301.211
301.21
301.209
301.209
301.208
301.208
301.268
301.267
301.266
301.266
301.265
301.264
301.263
301.262
301.26
301.259
301.257
301.255
301.253
301.25
301.248
301.245
301.242
301.24
301.237
301.235
301.232
301.23
301.228
301.227
301.226
301.224
301.224
301.223
301.222
301.221
301.221
301.22
301.22
301.219
301.219
301.271
301.27
301.269
301.268
301.268
301.267
301.266
301.265
301.264
301.262
301.261
301.259
301.257
301.255
301.253
301.25
301.248
301.246
301.244
301.242
301.24
301.238
301.236
301.235
301.234
301.233
301.232
301.232
301.231
301.231
301.23
301.23
301.229
301.229
301.229
301.272
301.271
301.27
301.27
301.269
301.269
301.268
301.267
301.266
301.265
301.264
301.262
301.26
301.259
301.257
301.255
301.253
301.251
301.249
301.247
301.246
301.244
301.243
301.242
301.241
301.24
301.24
301.239
301.239
301.238
301.238
301.238
301.237
301.237
301.237
301.273
301.272
301.272
301.271
301.271
301.27
301.269
301.269
301.268
301.267
301.266
301.264
301.263
301.261
301.26
301.258
301.257
301.255
301.254
301.252
301.251
301.25
301.249
301.248
301.247
301.247
301.246
301.246
301.245
301.245
301.245
301.245
301.244
301.244
301.244
301.273
301.273
301.272
301.272
301.271
301.271
301.27
301.27
301.269
301.268
301.267
301.266
301.265
301.264
301.262
301.261
301.26
301.259
301.257
301.256
301.255
301.254
301.253
301.253
301.252
301.252
301.252
301.251
301.251
301.251
301.251
301.25
301.25
301.25
301.25
301.273
301.273
301.272
301.272
301.272
301.271
301.271
301.27
301.27
301.269
301.268
301.267
301.267
301.265
301.264
301.263
301.262
301.261
301.261
301.26
301.259
301.258
301.257
301.257
301.257
301.256
301.256
301.256
301.256
301.255
301.255
301.255
301.255
301.255
301.255
301.273
301.272
301.272
301.272
301.272
301.271
301.271
301.271
301.27
301.27
301.269
301.268
301.268
301.267
301.266
301.265
301.265
301.264
301.263
301.262
301.262
301.261
301.261
301.26
301.26
301.26
301.26
301.26
301.259
301.259
301.259
301.259
301.259
301.259
301.259
301.272
301.272
301.272
301.272
301.271
301.271
301.271
301.27
301.27
301.27
301.269
301.269
301.268
301.268
301.267
301.267
301.266
301.266
301.265
301.265
301.264
301.264
301.264
301.263
301.263
301.263
301.263
301.263
301.263
301.263
301.263
301.263
301.262
301.262
301.262
301.271
301.271
301.271
301.271
301.271
301.271
301.27
301.27
301.27
301.27
301.269
301.269
301.269
301.269
301.268
301.268
301.268
301.267
301.267
301.267
301.266
301.266
301.266
301.266
301.266
301.266
301.266
301.266
301.265
301.265
301.265
301.265
301.265
301.265
301.265
298.339
298.335
298.327
298.315
298.299
298.281
298.262
298.242
298.222
298.205
298.191
298.179
298.169
298.16
298.15
298.14
298.129
298.118
298.107
298.094
298.082
298.069
298.857
298.862
298.863
298.861
298.855
298.846
298.833
298.818
298.8
298.779
298.756
298.732
298.706
298.681
298.655
298.63
298.604
298.579
298.553
298.526
298.498
298.47
300.075
300.076
300.081
300.091
300.106
300.127
300.155
300.19
300.234
300.286
300.345
300.41
300.477
300.544
300.606
300.664
300.715
300.758
300.792
300.816
300.831
300.837
300.193
300.216
300.238
300.257
300.271
300.28
300.282
300.279
300.272
300.261
300.246
300.229
300.212
300.197
300.182
300.169
300.157
300.145
300.134
300.123
300.113
300.103
300.866
300.886
300.903
300.916
300.925
300.931
300.933
300.93
300.922
300.913
300.902
300.892
300.883
300.878
300.874
300.873
300.873
300.874
300.875
300.876
300.875
300.873
300.715
300.723
300.731
300.738
300.745
300.751
300.757
300.761
300.765
300.768
300.77
300.771
300.77
300.768
300.766
300.763
300.76
300.757
300.753
300.749
300.744
300.74
300.882
300.889
300.896
300.902
300.909
300.915
300.921
300.926
300.931
300.936
300.939
300.943
300.945
300.947
300.949
300.95
300.951
300.952
300.952
300.951
300.95
300.949
300.883
300.884
300.886
300.888
300.891
300.893
300.896
300.899
300.902
300.906
300.909
300.912
300.915
300.917
300.919
300.921
300.923
300.924
300.924
300.925
300.925
300.924
300.948
300.948
300.949
300.95
300.951
300.953
300.955
300.957
300.96
300.963
300.966
300.969
300.972
300.975
300.978
300.981
300.984
300.986
300.988
300.99
300.991
300.993
300.973
300.972
300.97
300.969
300.968
300.968
300.968
300.968
300.968
300.97
300.971
300.973
300.975
300.977
300.979
300.981
300.983
300.985
300.987
300.989
300.99
300.992
301.009
301.007
301.005
301.003
301.002
301
300.999
300.999
300.998
300.998
300.998
300.999
301
301.001
301.002
301.004
301.005
301.007
301.009
301.011
301.012
301.014
301.032
301.03
301.027
301.025
301.022
301.02
301.018
301.016
301.014
301.013
301.012
301.011
301.011
301.011
301.011
301.012
301.013
301.013
301.014
301.015
301.017
301.018
301.058
301.055
301.052
301.049
301.046
301.043
301.041
301.038
301.036
301.034
301.032
301.03
301.029
301.028
301.027
301.027
301.027
301.027
301.027
301.027
301.028
301.028
301.081
301.077
301.074
301.07
301.067
301.064
301.061
301.058
301.055
301.052
301.049
301.047
301.044
301.042
301.041
301.039
301.038
301.038
301.037
301.036
301.036
301.036
301.103
301.099
301.096
301.092
301.089
301.085
301.082
301.078
301.075
301.071
301.068
301.065
301.062
301.06
301.057
301.055
301.053
301.052
301.05
301.049
301.048
301.047
301.124
301.12
301.117
301.113
301.109
301.106
301.102
301.098
301.094
301.09
301.087
301.083
301.08
301.077
301.074
301.071
301.069
301.066
301.064
301.063
301.061
301.059
301.144
301.14
301.137
301.133
301.129
301.125
301.121
301.118
301.114
301.11
301.106
301.102
301.098
301.094
301.091
301.088
301.085
301.082
301.08
301.078
301.076
301.074
301.162
301.158
301.155
301.151
301.148
301.144
301.14
301.136
301.132
301.128
301.124
301.12
301.116
301.112
301.108
301.105
301.102
301.099
301.096
301.094
301.091
301.089
301.178
301.175
301.172
301.168
301.165
301.161
301.157
301.153
301.149
301.145
301.141
301.137
301.133
301.129
301.126
301.122
301.119
301.116
301.113
301.11
301.107
301.104
301.193
301.19
301.187
301.184
301.18
301.177
301.173
301.169
301.165
301.161
301.157
301.153
301.149
301.145
301.142
301.138
301.135
301.132
301.128
301.125
301.123
301.12
301.206
301.203
301.2
301.197
301.194
301.191
301.187
301.184
301.18
301.176
301.172
301.168
301.164
301.161
301.157
301.153
301.15
301.147
301.144
301.141
301.138
301.135
301.217
301.215
301.212
301.209
301.206
301.203
301.2
301.197
301.193
301.19
301.186
301.182
301.178
301.175
301.171
301.168
301.164
301.161
301.158
301.155
301.152
301.149
301.227
301.225
301.222
301.22
301.217
301.214
301.211
301.208
301.205
301.201
301.198
301.194
301.191
301.187
301.184
301.18
301.177
301.174
301.171
301.168
301.165
301.162
301.236
301.234
301.231
301.229
301.226
301.224
301.221
301.218
301.215
301.212
301.209
301.205
301.202
301.198
301.195
301.192
301.189
301.186
301.183
301.18
301.177
301.174
301.243
301.241
301.239
301.237
301.235
301.232
301.23
301.227
301.224
301.221
301.218
301.215
301.212
301.209
301.205
301.202
301.199
301.196
301.194
301.191
301.188
301.185
301.249
301.247
301.245
301.243
301.241
301.239
301.237
301.234
301.232
301.229
301.226
301.223
301.22
301.217
301.215
301.212
301.209
301.206
301.203
301.201
301.198
301.195
301.254
301.252
301.251
301.249
301.247
301.245
301.243
301.241
301.239
301.236
301.234
301.231
301.228
301.225
301.223
301.22
301.217
301.215
301.212
301.209
301.207
301.204
301.258
301.257
301.255
301.254
301.252
301.25
301.249
301.247
301.244
301.242
301.24
301.237
301.235
301.232
301.23
301.227
301.225
301.222
301.22
301.217
301.215
301.212
301.262
301.26
301.259
301.258
301.256
301.255
301.253
301.251
301.249
301.247
301.245
301.243
301.24
301.238
301.236
301.233
301.231
301.229
301.226
301.224
301.222
301.22
301.265
301.264
301.262
301.261
301.26
301.258
301.257
301.255
301.254
301.252
301.25
301.248
301.245
301.243
301.241
301.239
301.237
301.234
301.232
301.23
301.228
301.226
298.052
298.028
298.004
297.981
297.962
297.951
298.442
298.414
298.385
298.36
298.342
298.333
300.839
300.836
300.825
300.806
300.78
300.748
300.092
300.083
300.075
300.067
300.061
300.057
300.873
300.874
300.873
300.869
300.862
300.853
300.735
300.731
300.727
300.723
300.719
300.715
300.949
300.95
300.95
300.949
300.948
300.946
300.924
300.925
300.925
300.925
300.926
300.926
300.994
300.997
300.999
301.001
301.002
301.003
300.993
300.996
300.998
301
301.002
301.003
301.016
301.019
301.021
301.023
301.025
301.027
301.019
301.021
301.023
301.025
301.027
301.029
301.029
301.031
301.032
301.034
301.035
301.036
301.036
301.037
301.038
301.039
301.04
301.041
301.047
301.047
301.048
301.049
301.049
301.05
301.059
301.059
301.059
301.059
301.06
301.06
301.073
301.073
301.073
301.073
301.073
301.073
301.088
301.087
301.087
301.087
301.087
301.087
301.103
301.103
301.103
301.103
301.103
301.103
301.118
301.118
301.118
301.118
301.118
301.118
301.133
301.133
301.133
301.133
301.133
301.133
301.148
301.147
301.147
301.147
301.147
301.147
301.161
301.161
301.16
301.16
301.16
301.16
301.173
301.173
301.173
301.173
301.173
301.173
301.184
301.184
301.184
301.184
301.184
301.184
301.194
301.194
301.194
301.194
301.194
301.194
301.203
301.203
301.203
301.203
301.203
301.203
301.211
301.211
301.211
301.211
301.211
301.211
301.218
301.218
301.218
301.218
301.218
301.218
301.225
301.225
301.225
301.225
301.225
301.225
297.949
297.955
297.97
297.994
298.028
298.07
298.12
298.176
298.237
298.302
298.369
298.437
298.503
298.564
298.618
298.666
298.706
298.738
298.758
298.77
298.773
298.768
298.339
298.357
298.382
298.414
298.452
298.494
298.54
298.587
298.634
298.679
298.722
298.761
298.795
298.822
298.842
298.854
298.86
298.861
298.856
298.845
298.83
298.81
300.719
300.694
300.665
300.63
300.59
300.545
300.493
300.436
300.372
300.304
300.231
300.155
300.081
300.01
299.944
299.883
299.827
299.776
299.731
299.69
299.653
299.62
300.055
300.055
300.055
300.055
300.055
300.055
300.053
300.049
300.045
300.038
300.03
300.02
300.01
300
299.99
299.979
299.97
299.961
299.955
299.951
299.948
299.946
300.845
300.84
300.834
300.826
300.817
300.807
300.796
300.784
300.772
300.76
300.749
300.737
300.725
300.715
300.704
300.693
300.681
300.665
300.645
300.622
300.596
300.568
300.713
300.711
300.71
300.708
300.705
300.703
300.701
300.698
300.696
300.694
300.692
300.69
300.688
300.687
300.686
300.685
300.684
300.683
300.682
300.682
300.682
300.683
300.944
300.945
300.945
300.945
300.945
300.944
300.944
300.942
300.941
300.94
300.939
300.937
300.936
300.935
300.934
300.934
300.933
300.933
300.933
300.933
300.933
300.933
300.927
300.928
300.929
300.93
300.931
300.932
300.932
300.933
300.934
300.934
300.935
300.936
300.937
300.938
300.939
300.941
300.943
300.944
300.946
300.948
300.95
300.952
301.005
301.007
301.009
301.01
301.012
301.014
301.015
301.017
301.018
301.019
301.02
301.022
301.023
301.024
301.025
301.026
301.027
301.028
301.029
301.03
301.031
301.031
301.005
301.007
301.009
301.011
301.013
301.014
301.016
301.017
301.018
301.019
301.02
301.021
301.022
301.023
301.023
301.024
301.024
301.025
301.025
301.025
301.026
301.026
301.029
301.031
301.033
301.034
301.036
301.037
301.039
301.04
301.041
301.042
301.043
301.044
301.045
301.045
301.046
301.046
301.046
301.047
301.047
301.048
301.048
301.048
301.03
301.032
301.033
301.035
301.036
301.037
301.038
301.039
301.04
301.041
301.042
301.043
301.043
301.044
301.044
301.045
301.045
301.046
301.047
301.047
301.048
301.049
301.037
301.039
301.04
301.041
301.043
301.044
301.045
301.046
301.047
301.048
301.05
301.051
301.052
301.053
301.054
301.055
301.057
301.058
301.059
301.061
301.062
301.064
301.042
301.043
301.045
301.046
301.047
301.049
301.05
301.051
301.053
301.054
301.056
301.057
301.059
301.061
301.063
301.065
301.067
301.069
301.071
301.073
301.076
301.078
301.051
301.052
301.054
301.055
301.057
301.058
301.06
301.062
301.064
301.066
301.068
301.071
301.073
301.076
301.079
301.081
301.084
301.087
301.09
301.093
301.096
301.099
301.061
301.063
301.064
301.066
301.068
301.07
301.072
301.075
301.077
301.08
301.083
301.086
301.089
301.092
301.096
301.099
301.102
301.106
301.109
301.112
301.116
301.119
301.074
301.076
301.078
301.08
301.082
301.085
301.088
301.09
301.093
301.096
301.1
301.103
301.107
301.111
301.115
301.118
301.122
301.126
301.129
301.133
301.137
301.14
301.089
301.091
301.093
301.096
301.098
301.101
301.104
301.107
301.11
301.114
301.117
301.121
301.125
301.129
301.133
301.137
301.141
301.145
301.149
301.152
301.156
301.159
301.104
301.106
301.109
301.112
301.114
301.117
301.121
301.124
301.127
301.131
301.135
301.139
301.143
301.147
301.151
301.155
301.159
301.163
301.166
301.17
301.173
301.177
301.119
301.122
301.125
301.128
301.131
301.134
301.137
301.14
301.144
301.148
301.152
301.156
301.16
301.164
301.168
301.172
301.175
301.179
301.182
301.186
301.189
301.192
301.134
301.137
301.14
301.143
301.146
301.149
301.152
301.156
301.16
301.163
301.167
301.171
301.175
301.179
301.183
301.186
301.19
301.193
301.197
301.2
301.203
301.205
301.149
301.151
301.154
301.157
301.16
301.163
301.167
301.17
301.174
301.177
301.181
301.185
301.189
301.192
301.196
301.199
301.203
301.206
301.209
301.212
301.214
301.217
301.162
301.165
301.168
301.17
301.174
301.177
301.18
301.183
301.187
301.19
301.194
301.197
301.201
301.204
301.208
301.211
301.214
301.217
301.219
301.222
301.224
301.227
301.174
301.177
301.18
301.183
301.185
301.189
301.192
301.195
301.198
301.201
301.205
301.208
301.211
301.215
301.218
301.221
301.223
301.226
301.228
301.231
301.233
301.235
301.185
301.188
301.191
301.193
301.196
301.199
301.202
301.205
301.208
301.211
301.214
301.218
301.221
301.224
301.226
301.229
301.231
301.234
301.236
301.238
301.24
301.242
301.195
301.198
301.2
301.203
301.206
301.209
301.211
301.214
301.217
301.22
301.223
301.226
301.229
301.231
301.234
301.236
301.238
301.24
301.242
301.244
301.246
301.247
301.204
301.207
301.209
301.212
301.214
301.217
301.22
301.222
301.225
301.228
301.23
301.233
301.235
301.238
301.24
301.242
301.244
301.246
301.248
301.249
301.251
301.252
301.212
301.215
301.217
301.219
301.222
301.224
301.227
301.229
301.232
301.234
301.237
301.239
301.241
301.243
301.245
301.247
301.249
301.251
301.252
301.254
301.255
301.256
301.219
301.222
301.224
301.226
301.228
301.231
301.233
301.235
301.238
301.24
301.242
301.244
301.246
301.248
301.25
301.252
301.253
301.255
301.256
301.257
301.258
301.259
301.226
301.228
301.23
301.232
301.234
301.236
301.238
301.241
301.243
301.245
301.247
301.249
301.251
301.252
301.254
301.255
301.257
301.258
301.259
301.26
301.261
301.262
298.76
298.751
298.738
298.718
298.691
298.654
298.609
298.555
298.497
298.44
298.382
298.345
298.328
298.336
298.385
298.455
298.522
298.571
298.592
298.575
298.505
298.364
298.127
297.829
297.538
297.255
297
296.774
296.578
296.409
296.267
296.15
296.054
295.976
295.925
298.788
298.768
298.747
298.727
298.709
298.698
298.694
298.704
298.732
298.782
298.859
298.967
299.113
299.297
299.512
299.722
299.903
300.05
300.164
300.219
300.187
300.044
299.648
298.923
298.165
297.609
297.237
296.982
296.808
296.697
296.634
296.612
296.625
296.679
296.747
299.593
299.568
299.541
299.511
299.477
299.44
299.399
299.354
299.308
299.262
299.217
299.169
299.115
299.057
298.991
298.91
298.814
298.705
298.614
298.61
298.716
298.991
299.328
299.533
299.69
299.87
300.042
300.171
300.259
300.318
300.363
300.405
300.456
300.528
300.661
299.943
299.938
299.933
299.929
299.928
299.934
299.953
299.987
300.039
300.111
300.2
300.301
300.408
300.512
300.605
300.682
300.742
300.771
300.741
300.61
300.391
300.148
299.933
299.774
299.665
299.591
299.548
299.528
299.522
299.526
299.538
299.558
299.588
299.634
299.759
300.541
300.515
300.485
300.452
300.417
300.38
300.345
300.311
300.281
300.254
300.23
300.213
300.204
300.202
300.205
300.211
300.22
300.231
300.236
300.264
300.309
300.386
300.488
300.612
300.757
300.894
301.021
301.143
301.261
301.37
301.471
301.562
301.645
301.722
301.804
300.683
300.682
300.68
300.679
300.677
300.676
300.676
300.678
300.683
300.692
300.706
300.726
300.75
300.777
300.807
300.841
300.88
300.926
300.967
300.986
300.994
300.999
300.997
301.03
301.074
301.126
301.186
301.249
301.313
301.378
301.441
301.502
301.561
301.625
301.704
300.931
300.927
300.923
300.917
300.911
300.904
300.898
300.892
300.888
300.886
300.886
300.888
300.892
300.897
300.902
300.907
300.91
300.912
300.914
300.916
300.918
300.928
300.95
300.99
301.054
301.145
301.258
301.38
301.496
301.595
301.678
301.745
301.794
301.821
301.802
300.953
300.953
300.953
300.953
300.953
300.952
300.952
300.952
300.952
300.953
300.953
300.954
300.957
300.961
300.967
300.976
300.985
300.995
301.005
301.017
301.029
301.044
301.061
301.081
301.103
301.128
301.154
301.192
301.235
301.279
301.319
301.349
301.369
301.375
301.366
301.032
301.031
301.03
301.029
301.028
301.027
301.025
301.023
301.02
301.018
301.017
301.016
301.016
301.017
301.02
301.025
301.032
301.04
301.048
301.057
301.067
301.077
301.085
301.091
301.096
301.098
301.1
301.1
301.1
301.099
301.098
301.097
301.095
301.093
301.091
301.026
301.026
301.026
301.025
301.025
301.025
301.025
301.025
301.025
301.025
301.025
301.025
301.026
301.029
301.032
301.036
301.042
301.049
301.057
301.066
301.075
301.084
301.092
301.1
301.106
301.111
301.115
301.119
301.122
301.124
301.127
301.129
301.131
301.133
301.135
301.049
301.049
301.049
301.049
301.049
301.049
301.049
301.049
301.049
301.049
301.05
301.051
301.053
301.056
301.06
301.066
301.073
301.081
301.089
301.098
301.107
301.117
301.125
301.133
301.139
301.144
301.147
301.15
301.153
301.154
301.155
301.156
301.156
301.156
301.155
301.049
301.049
301.05
301.05
301.051
301.051
301.052
301.053
301.054
301.056
301.057
301.06
301.063
301.067
301.072
301.079
301.085
301.093
301.101
301.11
301.118
301.127
301.136
301.143
301.149
301.154
301.158
301.162
301.165
301.168
301.17
301.172
301.174
301.177
301.18
301.065
301.066
301.067
301.067
301.068
301.069
301.07
301.072
301.074
301.076
301.078
301.081
301.085
301.09
301.096
301.103
301.11
301.119
301.127
301.136
301.145
301.154
301.163
301.17
301.177
301.182
301.187
301.191
301.194
301.197
301.2
301.202
301.205
301.207
301.21
301.079
301.08
301.081
301.082
301.083
301.084
301.086
301.088
301.09
301.092
301.095
301.099
301.103
301.108
301.114
301.121
301.128
301.136
301.144
301.151
301.159
301.167
301.175
301.181
301.186
301.191
301.194
301.197
301.2
301.202
301.203
301.205
301.206
301.207
301.209
301.101
301.102
301.103
301.104
301.105
301.106
301.108
301.11
301.112
301.115
301.118
301.121
301.125
301.13
301.136
301.143
301.15
301.157
301.164
301.172
301.179
301.187
301.194
301.2
301.206
301.21
301.214
301.218
301.221
301.223
301.226
301.228
301.231
301.233
301.236
301.121
301.122
301.123
301.124
301.125
301.127
301.128
301.13
301.132
301.135
301.137
301.141
301.145
301.149
301.155
301.161
301.167
301.173
301.18
301.186
301.193
301.199
301.205
301.21
301.214
301.218
301.221
301.223
301.225
301.226
301.228
301.229
301.23
301.231
301.232
301.142
301.143
301.144
301.145
301.146
301.148
301.149
301.151
301.153
301.155
301.157
301.16
301.164
301.168
301.173
301.178
301.184
301.19
301.195
301.201
301.207
301.213
301.218
301.222
301.226
301.23
301.233
301.235
301.238
301.24
301.242
301.244
301.246
301.247
301.25
301.161
301.162
301.163
301.164
301.165
301.166
301.167
301.169
301.171
301.173
301.175
301.177
301.181
301.184
301.189
301.193
301.198
301.203
301.208
301.213
301.217
301.222
301.227
301.23
301.233
301.236
301.238
301.24
301.242
301.243
301.244
301.245
301.246
301.247
301.248
301.179
301.179
301.18
301.181
301.182
301.183
301.184
301.185
301.187
301.189
301.19
301.193
301.195
301.199
301.202
301.206
301.21
301.214
301.219
301.223
301.227
301.231
301.235
301.238
301.241
301.243
301.245
301.247
301.249
301.25
301.251
301.253
301.254
301.255
301.256
301.194
301.194
301.195
301.196
301.197
301.197
301.198
301.2
301.201
301.202
301.204
301.206
301.208
301.211
301.214
301.217
301.22
301.224
301.227
301.231
301.234
301.237
301.241
301.243
301.246
301.247
301.249
301.25
301.252
301.253
301.254
301.254
301.255
301.256
301.257
301.207
301.208
301.208
301.209
301.209
301.21
301.211
301.212
301.213
301.214
301.215
301.217
301.219
301.221
301.223
301.226
301.229
301.232
301.235
301.237
301.24
301.243
301.246
301.248
301.25
301.251
301.253
301.254
301.255
301.256
301.257
301.258
301.259
301.259
301.26
301.218
301.219
301.219
301.22
301.22
301.221
301.221
301.222
301.223
301.224
301.225
301.226
301.228
301.229
301.231
301.234
301.236
301.238
301.241
301.243
301.245
301.247
301.249
301.251
301.253
301.254
301.255
301.256
301.257
301.258
301.258
301.259
301.259
301.26
301.26
301.228
301.228
301.229
301.229
301.229
301.23
301.23
301.231
301.231
301.232
301.233
301.234
301.235
301.236
301.238
301.24
301.242
301.243
301.245
301.247
301.249
301.251
301.252
301.254
301.255
301.256
301.257
301.258
301.258
301.259
301.26
301.26
301.26
301.261
301.262
301.236
301.236
301.236
301.237
301.237
301.237
301.238
301.238
301.239
301.239
301.24
301.24
301.241
301.242
301.243
301.245
301.246
301.248
301.249
301.25
301.252
301.253
301.254
301.255
301.256
301.257
301.258
301.258
301.259
301.259
301.26
301.26
301.26
301.261
301.261
301.242
301.243
301.243
301.243
301.243
301.244
301.244
301.244
301.244
301.245
301.245
301.246
301.246
301.247
301.248
301.249
301.25
301.251
301.252
301.253
301.254
301.255
301.256
301.257
301.257
301.258
301.258
301.259
301.259
301.26
301.26
301.26
301.26
301.261
301.261
301.248
301.248
301.248
301.249
301.249
301.249
301.249
301.249
301.249
301.25
301.25
301.25
301.25
301.251
301.252
301.252
301.253
301.254
301.254
301.255
301.256
301.256
301.257
301.257
301.258
301.258
301.258
301.259
301.259
301.259
301.259
301.26
301.26
301.26
301.26
301.253
301.253
301.253
301.253
301.253
301.253
301.253
301.253
301.253
301.253
301.254
301.254
301.254
301.254
301.254
301.255
301.255
301.256
301.256
301.256
301.257
301.257
301.257
301.258
301.258
301.258
301.258
301.258
301.258
301.259
301.259
301.259
301.259
301.259
301.259
301.256
301.257
301.257
301.257
301.257
301.257
301.257
301.257
301.257
301.257
301.257
301.257
301.257
301.257
301.257
301.257
301.257
301.257
301.257
301.257
301.258
301.258
301.258
301.258
301.258
301.258
301.258
301.258
301.258
301.258
301.258
301.258
301.258
301.258
301.258
301.26
301.26
301.26
301.26
301.26
301.26
301.26
301.26
301.259
301.259
301.259
301.259
301.259
301.259
301.259
301.259
301.259
301.259
301.258
301.258
301.258
301.258
301.258
301.257
301.257
301.257
301.257
301.257
301.257
301.257
301.257
301.256
301.256
301.256
301.256
301.262
301.262
301.262
301.262
301.262
301.262
301.262
301.262
301.262
301.262
301.261
301.261
301.261
301.261
301.261
301.26
301.26
301.26
301.259
301.259
301.258
301.258
301.257
301.257
301.257
301.256
301.256
301.256
301.256
301.255
301.255
301.255
301.255
301.255
301.254
301.27
301.27
301.27
301.27
301.27
301.27
301.27
301.27
301.27
301.27
301.269
301.269
301.269
301.269
301.269
301.269
301.269
301.269
301.269
301.269
301.269
301.268
301.268
301.268
301.268
301.268
301.268
301.268
301.268
301.268
301.268
301.268
301.268
301.268
301.268
301.269
301.269
301.269
301.269
301.269
301.269
301.269
301.269
301.269
301.269
301.269
301.269
301.269
301.27
301.27
301.27
301.27
301.27
301.271
301.271
301.271
301.271
301.271
301.271
301.271
301.271
301.271
301.271
301.271
301.271
301.27
301.27
301.27
301.27
301.27
301.267
301.268
301.268
301.268
301.268
301.268
301.268
301.268
301.268
301.269
301.269
301.269
301.269
301.27
301.27
301.271
301.271
301.272
301.272
301.273
301.273
301.273
301.273
301.273
301.273
301.273
301.273
301.273
301.273
301.273
301.273
301.273
301.272
301.272
301.272
301.266
301.266
301.266
301.267
301.267
301.267
301.267
301.267
301.268
301.268
301.268
301.269
301.27
301.27
301.271