/*--------------------------------*- C++ -*----------------------------------*\
  =========                 |
  \\      /  F ield         | OpenFOAM: The Open Source CFD Toolbox
   \\    /   O peration     | Website:  https://openfoam.org
    \\  /    A nd           | Version:  8
     \\/     M anipulation  |
\*---------------------------------------------------------------------------*/
FoamFile
{
    version     2.0;
    format      ascii;
    class       volScalarField;
    location    "0.14";
    object      epsilon;
}
// * * * * * * * * * * * * * * * * * * * * * * * * * * * * * * * * * * * * * //

dimensions      [0 2 -3 0 0 0 0];

internalField   nonuniform List<scalar> 
15677
(
2.3809e+06
654504
436367
382827
372857
382396
402188
423739
438020
436706
418076
388162
349949
310519
271423
236737
202665
171053
142159
116575
94896.8
77794.6
64926.5
54953.8
46914.6
40435.4
35503.5
31932.4
29373
27479.7
25998.3
24784.8
23779.8
22966.8
22339.8
1.06853e+07
3.59358e+06
2.40305e+06
2.01478e+06
1.87461e+06
1.84618e+06
1.8909e+06
1.9611e+06
1.79558e+06
1.39866e+06
945898
645426
497841
428088
400410
375936
342320
301755
259187
215817
179964
151687
129550
111703
96956.8
84659.5
74451.1
66276
60035.7
55504.3
52385.3
50374.9
49201.2
48638.2
48504.9
4.74329e+06
2.46418e+06
2.02433e+06
1.82912e+06
1.83306e+06
1.9798e+06
2.20533e+06
2.2314e+06
2.0266e+06
1.57961e+06
1.05081e+06
644234
413209
302832
229355
182947
159805
149556
143628
137321
126782
113875
102511
93330.2
86598.4
82154
79563.6
78368.6
78181.1
78680.2
79643.5
80918.7
82404
84025.6
85790.6
528673
436671
452827
450069
439255
423621
399822
395315
415895
443382
410894
349331
327823
357525
359598
287837
199811
148814
130883
129636
132145
131874
127865
120827
113317
107555
103681
101435
100532
100749
101826
103626
105866
108354
110937
1.56761e+06
503949
312574
244880
216439
205781
203922
206164
208266
209708
214475
220558
223965
183958
124551
86286.1
68757.2
64497.6
67029.1
74283.5
85372.3
97783.1
107860
112409
112270
108104
102575
98116.6
95146.6
93421.6
92587.7
92312.7
92341.8
92528.6
92768.1
863449
278897
175516
138112
122152
116159
114484
106720
90076
73202.4
62268.2
55432.3
49972.1
42481.2
36195.2
32625.9
31882.7
33755.7
37598.3
42686.4
47964.1
52448.3
55893.8
58548.1
60530.1
61681.6
62092.8
62066
61795.6
61412.2
60987.3
60562.4
60165.2
59814
59526.7
233122
133746
120097
123012
133816
141781
134636
111885
79108.9
47204.2
27074.8
20602.5
19402.1
19095.6
19136.9
19767.1
21236.6
23504.8
26483.4
30047.2
33804.5
36903.5
38827.2
39625.2
39706
39535.9
39319.7
39119.3
38940.5
38776
38617.6
38459.9
38300.7
38139.6
37982.4
27160.8
21430.4
19527.9
19003.3
16766.8
14115
12659.3
11723
10664.3
9794.73
9479.89
9822.82
10662.2
11753.5
12667.2
13405.1
14319.4
15597.5
17117.6
18738.2
20318.5
21667.2
22687
23425.2
23933.1
24265.7
24466.2
24564.1
24588.5
24560.9
24497.3
24413.8
24323
24235.2
24158.8
73720.5
22679.1
13700.9
10479.4
8872.02
7955.27
7414.9
7116.79
6983.56
6954.75
7035.2
7241.98
7576.08
8036.25
8589.83
9239.74
10027
10959.9
12025.2
13155.7
14234
15128.9
15756.4
16134.1
16361.8
16503
16590.1
16641.2
16666.5
16673.5
16666.8
16649.6
16624.9
16595.1
16562.4
39160.8
16530.9
11538
9327.14
8034.64
7180.02
6584.2
6165.74
5883.13
5715.46
5651.23
5691.32
5846.35
6128.81
6518.9
6976.36
7502.87
8080.6
8691.61
9321.72
9945.78
10501.3
10944.7
11281.3
11533.2
11719.5
11855
11951.5
12018.6
12064.3
12094.6
12114.8
12128.6
12138.8
12147.5
76859.3
26243.6
16872.6
12902.7
10586
9001.35
7831.21
6940.92
6264.83
5766.5
5422.13
5224.98
5161.84
5229.05
5418.65
5688.14
6026.95
6419.52
6848.37
7291.83
7725.38
8106.3
8409.99
8640.4
8816.38
8958.12
9072.85
9165.96
9241.63
9303.13
9353.03
9393.4
9425.89
9451.84
9472.28
44727
17522.9
12079.2
9591.76
8050.31
6959.11
6140.13
5511.89
5031.93
4676.75
4431.79
4291.29
4247.49
4300.5
4444.16
4641.62
4883.73
5161.13
5462.76
5776.03
6087.97
6373.22
6614.44
6814.27
6978.24
7113.13
7223.94
7315.4
7391.38
7455.03
7508.84
7554.8
7594.47
7629.05
7659.5
42644.1
16375.6
11254.2
8984.83
7577.77
6555.02
5755.06
5113.75
4602.96
4208.75
3922.76
3740.36
3658.14
3669.43
3767.32
3916.31
4103.51
4317.04
4547.09
4785
5022.77
5242.59
5431.2
5588.49
5717.35
5827.11
5921.24
6002.3
6072.31
6132.87
6185.33
6230.76
6270.11
6304.15
6333.53
37965.4
14879.1
10129.1
7952.71
6590.35
5608.38
4855.65
4273.66
3832.62
3511.01
3290.33
3158.04
3104.32
3121.49
3203.37
3323.45
3472.05
3640.63
3822.1
4009.42
4196.39
4371.33
4524.24
4654.98
4766.71
4862.45
4944.71
5015.66
5077.12
5130.53
5177.01
5217.61
5253.21
5284.51
5312.11
24764.6
10027.4
7011.59
5673.34
4855.43
4272.78
3824.46
3469.27
3188.89
2974.25
2820.78
2726.12
2688.85
2707.8
2776.65
2874.39
2993.74
3127.83
3271.5
3420.51
3570.9
3712.94
3838.95
3947.22
4040.17
4119.59
4188.21
4247.93
4300.08
4345.68
4385.61
4420.57
4451.2
4478.03
4501.5
25335.9
9584.48
6339.9
4922.33
4094.36
3538.16
3137.78
2841.66
2623.46
2467.88
2365.45
2310.88
2298.83
2329.01
2395.4
2482.16
2584.51
2697.4
2816.51
2939.42
3063.59
3181.42
3285.77
3376.42
3454.95
3522.89
3581.73
3632.77
3677.16
3715.83
3749.56
3779.04
3804.86
3827.56
3847.61
15844.4
6518.7
4507.05
3628.02
3115.05
2770.1
2521.18
2335.94
2198.41
2100.16
2036.5
2005.1
2004.93
2036.82
2096.08
2170.53
2256.87
2351.34
2450.94
2553.5
2657.14
2755.6
2842.7
2918.68
2984.7
3041.88
3091.29
3134.02
3171.21
3203.66
3232.05
3256.92
3278.72
3297.86
3314.66
15967.2
6062.7
4018.65
3146.77
2655.7
2340.57
2124.5
1972.05
1864.82
1792.61
1750.18
1734.35
1743.65
1778.88
1835.13
1902.39
1978.27
2059.6
2144.57
2231.76
2319.75
2402.88
2476.56
2540.89
2596.82
2645.34
2687.41
2723.89
2755.56
2783.11
2807.08
2828.04
2846.44
2862.63
2876.89
11774.6
4815.19
3305.52
2642.76
2260.25
2010.2
1836.64
1713.6
1627.38
1570.32
1538.18
1528.45
1540.03
1573.09
1623.24
1682.01
1747.65
1817.87
1890.96
1965.49
2040.27
2110.98
2173.69
2228.51
2276.22
2317.66
2353.6
2384.75
2411.76
2435.3
2455.89
2473.94
2489.79
2503.69
2515.89
11984.8
4565.7
3029.05
2376.03
2010.41
1777.88
1620.4
1511.16
1436.19
1387.76
1361.68
1355.23
1367.46
1398.31
1443.53
1495.64
1552.99
1613.93
1677.09
1741.31
1805.6
1866.36
1920.25
1967.36
2008.39
2044.05
2075.02
2101.91
2125.3
2145.65
2163.43
2178.99
2192.6
2204.5
2214.93
9902.53
3931.64
2659.62
2108.41
1794.41
1591.9
1453.25
1356.33
1289.52
1246.27
1222.91
1217.09
1227.77
1254.74
1294.15
1339.43
1389.34
1442.28
1497.06
1552.68
1608.32
1660.89
1707.54
1748.34
1783.92
1814.88
1841.81
1865.23
1885.61
1903.36
1918.84
1932.35
1944.16
1954.48
1963.52
9633.62
3692.47
2455.14
1928.11
1632.33
1443.85
1316.02
1227.27
1166.35
1127.01
1105.79
1100.39
1109.69
1133.38
1167.89
1207.43
1250.98
1297.15
1344.89
1393.34
1441.8
1487.61
1528.27
1563.87
1594.93
1621.99
1645.54
1666.03
1683.88
1699.43
1712.99
1724.84
1735.19
1744.26
1752.21
8544.82
3330
2232.45
1760.39
1493.15
1321.59
1204.47
1122.72
1066.29
1029.55
1009.29
1003.48
1010.92
1031.18
1061.16
1095.71
1133.82
1174.25
1216.05
1258.5
1300.97
1341.14
1376.83
1408.11
1435.44
1459.27
1480.04
1498.14
1513.91
1527.67
1539.69
1550.19
1559.38
1567.43
1574.51
8126.07
3116.48
2072.75
1627.8
1377.67
1217.95
1109.37
1033.72
981.461
947.198
927.86
921.546
927.199
944.467
970.569
1000.84
1034.33
1069.9
1106.73
1144.14
1181.6
1217.07
1248.63
1276.32
1300.55
1321.72
1340.19
1356.31
1370.39
1382.68
1393.44
1402.85
1411.11
1418.36
1424.74
7456.6
2879.85
1921.19
1510.77
1279.11
1130.68
1029.46
958.718
909.596
877.08
858.336
851.584
855.76
870.501
893.318
919.98
949.582
981.087
1013.73
1046.94
1080.23
1111.79
1139.91
1164.64
1186.32
1205.3
1221.9
1236.41
1249.12
1260.24
1269.99
1278.55
1286.08
1292.7
1298.54
7064.48
2706.41
1798.95
1412.35
1194.88
1055.72
960.752
894.212
847.813
816.866
798.682
791.593
794.539
807.162
827.22
850.854
877.197
905.294
934.455
964.153
993.973
1022.3
1047.59
1069.88
1089.47
1106.67
1121.76
1135
1146.61
1156.82
1165.79
1173.69
1180.65
1186.8
1192.24
6616.11
2539.95
1689.24
1326.27
1121.79
990.777
901.248
838.379
794.382
764.834
747.182
739.856
741.807
752.675
770.435
791.543
815.169
840.432
866.698
893.493
920.449
946.111
969.087
989.4
1007.32
1023.1
1036.99
1049.23
1060.01
1069.52
1077.91
1085.32
1091.89
1097.7
1102.86
6286.02
2404
1595.81
1251.73
1058.13
934.137
849.368
789.756
747.912
719.641
702.51
695.038
696.189
705.612
721.464
740.475
761.847
784.761
808.637
833.045
857.657
881.155
902.264
920.998
937.588
952.267
965.251
976.739
986.909
995.919
1003.91
1011.01
1017.31
1022.92
1027.92
5965.89
2279.97
1512.69
1186.1
1002.32
884.567
803.999
747.258
707.323
680.203
663.569
656.022
656.539
664.78
679.057
696.333
715.845
736.828
758.746
781.208
803.924
825.69
845.322
862.825
878.401
892.255
904.578
915.541
925.302
933.998
941.754
948.676
954.861
960.392
965.346
5702.56
2173.8
1440.38
1128.62
953.322
841.021
764.149
709.948
671.715
645.634
629.474
621.905
621.922
629.198
642.181
658.03
676.013
695.418
715.748
736.645
757.853
778.259
796.755
813.331
828.168
841.443
853.324
863.963
873.495
882.041
889.71
896.596
902.785
908.35
913.359
21675.9
21079.8
20673.3
20433.7
20318.6
20264.5
20255.2
20255.9
20221.9
20086.4
19768.7
19244.3
18567.7
17811.9
17037.4
16300.9
15659.3
15172.3
14905.2
14833.4
14914.1
15108
48596.7
49150.6
50054.8
51109.4
52080.5
52755.3
53136.5
53319.5
53325.1
53164.7
52873.6
52515.6
52334.5
52802.9
54620.2
58454.4
64356.8
72238.7
81431.2
90992.1
99755.1
106650
88066.7
91170.2
94966.2
99792.9
106004
113836
123428
135234
147910
159235
167512
171423
170485
165331
157015
146558
135790
126422
119066
113633
109731
106925
114455
119333
124353
128714
131786
133415
133657
132770
131164
128946
126489
124143
122174
120260
118171
115881
113395
110864
108354
105940
103735
101756
93356.7
94345.3
95266.9
95989.9
96358.6
96266.9
95530.1
94159.9
92340.1
90626.3
89181.8
88058.7
87296.6
86860.9
86664.8
86604.8
86585.4
86541.2
86442
86262.4
85965.2
85563.5
59544.6
59878.9
60201.2
60477.6
60675.8
60768.3
60753
60639.1
60461.2
60275.9
60146.8
60117.6
60222.4
60461.4
60819
61270.9
61788.3
62343.3
62909.8
63462.1
63971.3
64420.7
38040.8
38312.1
38562.1
38790.4
38995.1
39177.2
39341.1
39495.7
39654.6
39835.4
40059.2
40345.7
40701.6
41120.2
41594.6
42114.7
42668
43246.4
43843.5
44451.3
45052.6
45640.6
24258.5
24536.6
24805
25063.6
25315.1
25561.8
25805.5
26050.2
26306.2
26582.4
26883.3
27209
27558.7
27931.3
28329.7
28754
29202
29670.7
30156
30654
31160.1
31669.1
16645.2
16847.2
17049.2
17252.8
17459.7
17672
17891.7
18121
18362.4
18618.6
18891.5
19181.5
19485.3
19798.8
20123.3
20459.1
20806
21163.1
21529.2
21902.5
22281.2
22664.5
12246.7
12438
12629.8
12822.3
13016.1
13213
13414.5
13622.1
13836.4
14057.5
14287
14524.5
14765.6
15007.4
15251.8
15500.2
15753.4
16011.9
16275.9
16545.4
16820.4
17100.3
9561.11
9723.23
9889.56
10060
10234.8
10414.1
10598.4
10787.8
10983
11184
11390.6
11602.8
11816.1
12027.1
12236.8
12445.9
12655.1
12864.9
13075.6
13287.7
13501.1
13716.4
7747.69
7898
8052.23
8210.41
8372.76
8539.39
8710.19
8884.54
9062.49
9244.52
9431.15
9621.6
9811.38
9997.44
10180.6
10361.5
10540.6
10718.5
10895.6
11072.3
11248.7
11425.3
6412.16
6545.3
6682.81
6824.74
6971.15
7122.13
7277.7
7437.77
7602.06
7770.58
7943.7
8120.56
8296.71
8468.93
8637.62
8803.19
8966.03
9126.48
9284.86
9441.45
9596.53
9750.41
5383.08
5502.19
5625.45
5752.85
5884.34
6019.75
6159.26
6303.07
6451.36
6604.28
6762.01
6923.61
7084.81
7242.48
7396.86
7548.17
7696.64
7842.5
7985.97
8127.26
8266.57
8404.11
4563.15
4667.49
4775.8
4888.15
5004.61
5125.2
5249.98
5379.1
5512.73
5651.1
5794.45
5942.03
6090.02
6235.24
6377.68
6517.35
6654.33
6788.72
6920.63
7050.18
7177.47
7302.66
3901.69
3993.54
4088.86
4187.8
4290.5
4397.12
4507.79
4622.66
4741.9
4865.75
4994.47
5127.47
5261.09
5392.52
5521.68
5648.54
5773.09
5895.37
6015.46
6133.44
6249.38
6363.35
3361.75
3442.6
3526.69
3614.16
3705.19
3799.96
3898.58
4001.17
4107.83
4218.67
4333.8
4452.66
4572.19
4689.95
4805.92
4920.08
5032.44
5142.97
5251.7
5358.66
5463.87
5567.36
2918.3
2989.8
3064.22
3141.7
3222.41
3306.41
3393.81
3484.78
3579.48
3678.08
3780.74
3886.89
3993.72
4099.04
4202.87
4305.2
4406.03
4505.37
4603.22
4699.59
4794.48
4887.89
2552.45
2616.05
2682.22
2751.09
2822.78
2897.45
2975.21
3056.21
3140.6
3228.53
3320.18
3415.05
3510.62
3604.92
3697.94
3789.67
3880.13
3969.3
4057.21
4143.85
4229.22
4313.34
2247.37
2304.17
2363.33
2424.94
2489.1
2555.93
2625.55
2698.1
2773.71
2852.52
2934.71
3019.81
3105.59
3190.26
3273.81
3356.22
3437.52
3517.68
3596.73
3674.66
3751.49
3827.2
1992.49
2043.5
2096.66
2152.06
2209.8
2269.96
2332.66
2398
2466.13
2537.16
2611.24
2687.97
2765.32
2841.68
2917.04
2991.38
3064.71
3137.03
3208.33
3278.64
3347.94
3416.25
1778.28
1824.37
1872.42
1922.53
1974.77
2029.23
2086.01
2145.22
2206.95
2271.33
2338.49
2408.06
2478.18
2547.41
2615.73
2683.12
2749.58
2815.12
2879.73
2943.41
3006.19
3068.05
1598.06
1639.83
1683.42
1728.92
1776.39
1825.92
1877.59
1931.48
1987.71
2046.36
2107.56
2170.96
2234.88
2297.98
2360.23
2421.64
2482.2
2541.89
2600.73
2658.71
2715.85
2772.14
1446.13
1484.11
1523.78
1565.23
1608.52
1653.72
1700.91
1750.17
1801.59
1855.26
1911.28
1969.33
2027.87
2085.66
2142.68
2198.92
2254.37
2309.02
2362.88
2415.94
2468.21
2519.69
1318.04
1352.65
1388.85
1426.71
1466.29
1507.66
1550.89
1596.05
1643.23
1692.5
1743.96
1797.32
1851.14
1904.29
1956.74
2008.47
2059.48
2109.75
2159.28
2208.07
2256.12
2303.43
1210.1
1241.73
1274.83
1309.49
1345.76
1383.71
1423.41
1464.91
1508.3
1553.66
1601.06
1650.24
1699.88
1748.92
1797.33
1845.09
1892.19
1938.62
1984.36
2029.41
2073.77
2117.45
1119.32
1148.29
1178.64
1210.45
1243.76
1278.64
1315.15
1353.37
1393.35
1435.17
1478.92
1524.34
1570.22
1615.57
1660.37
1704.59
1748.21
1791.22
1833.6
1875.34
1916.45
1956.92
1043.18
1069.8
1097.71
1126.97
1157.63
1189.76
1223.41
1258.65
1295.55
1334.17
1374.59
1416.6
1459.05
1501.06
1542.58
1583.6
1624.08
1664.01
1703.37
1742.16
1780.35
1817.97
979.59
1004.15
1029.9
1056.9
1085.21
1114.87
1145.95
1178.5
1212.59
1248.29
1285.67
1324.54
1363.85
1402.78
1441.29
1479.36
1516.97
1554.1
1590.72
1626.83
1662.4
1697.42
926.777
949.532
973.396
998.418
1024.64
1052.12
1080.9
1111.03
1142.58
1175.61
1210.2
1246.17
1282.56
1318.62
1354.33
1389.66
1424.59
1459.12
1493.22
1526.88
1560.06
1592.75
15414.6
15829.9
16351.8
17125.8
18218.7
19751.3
112283
116028
116745
114528
109704
102969
104599
102346
100056
97512.5
94739.6
91858.9
99617.8
97328.4
95041
92762.8
90447.6
88031.9
84755.4
83584.8
82391.8
81170.2
79944.4
78749.1
64511.2
64221
63824
63328
62743.9
62080.1
45903.9
45841.6
45744.1
45607.8
45435.6
45235.8
31943.5
31977.8
31997.7
32000.8
31985.6
31951
22876.5
22919.1
22964.9
23011.1
23056.6
23101.9
17262.8
17310.5
17362.5
17418.4
17477.5
17538.7
13846.5
13893.9
13945.6
14000.6
14058.6
14119.5
11534.5
11578.8
11625.6
11674.8
11726
11779
9846.08
9884.97
9925.16
9966.41
10008.5
10051.4
8488.35
8520.52
8553.11
8586.03
8619.15
8652.32
7377.79
7403.44
7428.7
7453.51
7477.8
7501.41
6429.91
6449.33
6467.94
6485.71
6502.59
6518.47
5626.2
5640.2
5653.11
5664.89
5675.53
5684.95
4939.45
4948.84
4957.09
4964.18
4970.1
4974.77
4358.55
4364.43
4369.13
4372.64
4374.93
4375.98
3866.88
3870.08
3872.13
3873.02
3872.75
3871.29
3451.27
3452.53
3452.7
3451.76
3449.72
3446.54
3099.14
3099.06
3097.94
3095.77
3092.57
3088.31
2799.97
2798.98
2797.02
2794.09
2790.18
2785.3
2544.8
2543.24
2540.77
2537.4
2533.11
2527.92
2326.27
2324.39
2321.65
2318.06
2313.63
2308.35
2138.37
2136.32
2133.48
2129.84
2125.41
2120.2
1976.21
1974.11
1971.27
1967.69
1963.36
1958.31
1835.82
1833.77
1831
1827.54
1823.37
1818.52
1714.01
1712.04
1709.4
1706.09
1702.12
1697.5
1608.18
1606.31
1603.8
1600.67
1596.92
1592.56
21731.9
24009.1
26732.5
29865.2
33342.1
37077.5
40966.6
44890.9
48723.4
52326.1
55544.8
58191.9
60069.8
61127.3
61512.3
61431.9
61000.4
60295.5
59373.9
58285.3
57072.8
55766.6
96052.3
89219.3
81819.9
74635.3
68360.7
63375.4
59843.3
58110.5
57674.7
57907.4
58458.1
58960.6
59299.5
59515.8
59671.5
59800.3
59926.8
59996.3
59858.6
59583.1
59204
58737.5
89204.4
86885.9
84920.6
83637.3
83261.7
84031
86151.8
89717.3
94709.7
100796
106851
112121
115927
117743
117436
114814
110117
104467
99231.9
94804.9
91136.3
88160.3
85698
83751.5
82134.5
80844.8
79931.2
79429
79433.2
79943.3
81013.6
82565.8
84551.8
86965.8
89821.8
93127.7
96784.5
100469
103744
105668
106119
105969
105580
105174
77531.8
76313.5
75143.4
74032.1
73002
72080.1
71286.2
70631.8
70154.7
69924.9
70020.4
70510
71425.9
72688.8
74230.8
75979.3
77872.4
79659.6
81132.3
82446.5
83723.4
85073.4
61193.8
60135.1
59068.8
58000.7
56940.6
55907.6
54930
54048
53299.6
52705.6
52283.1
52044.3
51985.2
52069.2
52262.2
52525.4
52818.1
53108.7
53381.1
53632.3
53862.5
54073.1
44756.1
44026.2
43285.2
42537
41791.1
41058.7
40352
39683.3
39064.5
38505.7
38018.5
37610.1
37288.9
37045.6
36861.6
36719.2
36603.2
36501.4
36404.8
36307.7
36207.6
36102.1
31671.9
31173.4
30677.9
30188.1
29706.1
29234.7
28777
28336.1
27914.5
27513.8
27133.9
26775.3
26443.7
26140.4
25859.7
25595.9
25343.5
25097.9
24855
24611.3
24363.6
24109.9
22962.6
22649.8
22339.9
22033
21729.9
21431.4
21141.6
20859.8
20585.6
20319.3
20060.8
19811.5
19576.7
19357.9
19151.4
18954.2
18763.8
18577.9
18394.9
18213.6
18033.4
17853.9
17469.2
17274.5
17083.5
16896.6
16713.2
16533
16355.9
16181.8
16010.5
15841.7
15671.2
15498.8
15327.9
15160.9
14996.7
14834.2
14672.3
14510.3
14347.8
14184.8
14020.8
13856.1
14083.2
13951.9
13821.5
13691.5
13561.5
13430.7
13298.5
13165.2
13031.4
12894.2
12752.6
12606.6
12459.4
12313.2
12167.1
12020.8
11873.9
11726.4
11578.2
11429.3
11280.1
11130.7
11753.8
11650.8
11546.4
11440.5
11332.5
11222.2
11109.3
10993.3
10874.1
10749.9
10619
10481.1
10338.7
10194.7
10049.3
9902.68
9755.1
9606.8
9458.04
9309.13
9160.35
9012.21
10026.1
9932.3
9835.65
9735.95
9632.63
9525.12
9413.24
9296.88
9175.17
9046.81
8911.02
8768.06
8621.46
8474.31
8326.78
8179.1
8031.51
7884.28
7737.66
7591.92
7447.3
7304.11
8623.59
8532.01
8436.82
8337.87
8234.73
8126.97
8014.16
7895.86
7771.59
7640.85
7503.19
7359.14
7212.44
7066.24
6920.74
6776.1
6632.36
6489.84
6348.9
6209.87
6073.07
5938.88
7467.37
7374.85
7278.34
7177.64
7072.43
6962.41
6847.29
6726.78
6600.67
6468.81
6331.1
6188.25
6044.1
5901.76
5761.38
5623.16
5487.31
5354.06
5223.59
5096.06
4971.59
4850.36
6480.52
6387.99
6291.64
6191.33
6086.85
5977.97
5864.46
5746.18
5623.05
5495.06
5362.25
5225.71
5089.15
4955.43
4824.66
4697.01
4572.58
4451.47
4333.68
4219.29
4108.42
4001.21
5644.32
5553.21
5458.7
5360.73
5259.16
5153.89
5044.85
4931.98
4815.26
4694.68
4570.21
4442.7
4315.65
4191.95
4071.81
3955.44
3842.95
3734.28
3629.38
3528.23
3430.76
3336.98
4933.33
4845.47
4754.69
4660.99
4564.3
4464.59
4361.85
4256.07
4147.25
4035.43
3920.63
3803.78
3688.25
3576.55
3468.74
3364.83
3264.8
3168.61
3076.19
2987.47
2902.38
2820.9
4334.82
4251.35
4165.47
4077.17
3986.44
3893.29
3797.74
3699.82
3599.58
3497.08
3392.41
3286.48
3182.33
3082.14
2985.88
2893.48
2804.89
2720
2638.72
2560.95
2486.62
2415.66
3831.34
3752.95
3672.57
3590.21
3505.91
3419.68
3331.58
3241.65
3149.98
3056.64
2961.75
2866.13
2772.52
2682.82
2596.97
2514.87
2436.42
2361.52
2290.05
2221.93
2157.04
2095.27
3408.31
3335.2
3260.46
3184.13
3106.23
3026.83
2945.96
2863.71
2780.15
2695.38
2609.51
2523.28
2439.17
2358.86
2282.23
2209.18
2139.59
2073.33
2010.3
1950.35
1893.38
1839.25
3052.09
2984.19
2914.96
2844.43
2772.66
2699.71
2625.62
2550.48
2474.37
2397.39
2319.63
2241.8
2166.09
2094.01
2025.42
1960.19
1898.2
1839.3
1783.38
1730.29
1679.9
1632.09
2751.2
2688.24
2624.21
2559.12
2493.05
2426.04
2358.16
2289.48
2220.09
2150.07
2079.53
2009.1
1940.76
1875.84
1814.2
1755.71
1700.21
1647.59
1597.69
1550.39
1505.55
1463.06
2495.95
2437.61
2378.38
2318.3
2257.43
2195.83
2133.56
2070.69
2007.29
1943.47
1879.3
1815.37
1753.47
1694.77
1639.14
1586.44
1536.51
1489.23
1444.46
1402.07
1361.93
1323.93
2278.44
2224.34
2169.51
2114
2057.85
2001.13
1943.9
1886.22
1828.18
1769.84
1711.3
1653.07
1596.8
1543.53
1493.11
1445.41
1400.29
1357.6
1317.22
1279.02
1242.89
1208.71
2092.25
2042.02
1991.2
1939.84
1887.97
1835.65
1782.94
1729.92
1676.63
1623.17
1569.61
1516.42
1465.09
1416.56
1370.7
1327.35
1286.38
1247.66
1211.07
1176.48
1143.77
1112.85
1932.19
1885.51
1838.35
1790.75
1742.75
1694.41
1645.78
1596.93
1547.91
1498.8
1449.67
1400.94
1353.98
1309.64
1267.77
1228.22
1190.88
1155.61
1122.29
1090.81
1061.06
1032.94
1794.13
1750.7
1706.88
1662.7
1618.22
1573.48
1528.54
1483.46
1438.28
1393.08
1347.92
1303.18
1260.11
1219.47
1181.12
1144.92
1110.75
1078.48
1048
1019.21
992.006
966.291
1674.72
1634.28
1593.52
1552.47
1511.2
1469.75
1428.16
1386.5
1344.82
1303.16
1261.59
1220.44
1180.84
1143.5
1108.27
1075.01
1043.62
1013.96
985.949
959.479
934.461
910.809
1571.3
1533.59
1495.62
1457.45
1419.12
1380.69
1342.2
1303.7
1265.22
1226.8
1188.48
1150.57
1114.1
1079.69
1047.22
1016.55
987.578
960.194
934.306
909.829
886.683
864.79
54702.2
53856.5
52971.2
52026.1
51029.3
50047.6
49259.8
48913.7
49191.3
50487.3
52999.5
56719.6
61629.6
67750.2
75020.9
82797.6
90268.8
98636.8
106650
114757
122667
135954
150843
159833
156849
147620
143867
148989
163584
186677
215854
251486
306654
474953
2.11554e+06
58296
58044.8
57967.1
58119.5
58558
59318.8
60458.1
62058.5
64240.4
67183.8
71166.3
76659.5
84170.9
92910.9
102478
110276
115975
123562
137131
160631
197638
280213
441034
689472
894572
884797
838461
813072
829683
900574
1.04772e+06
1.30952e+06
1.81288e+06
3.12437e+06
1.04833e+07
86118.2
84520.5
82955.1
81473.9
80143.8
79048.4
78284.4
77908.7
77897.1
78036.5
77850.4
76702
73999.8
70046.6
66036.8
64201.6
66090.6
74432.9
96519.9
150161
267084
479669
881988
1.46606e+06
2.09992e+06
2.45429e+06
2.46826e+06
2.30877e+06
2.11136e+06
1.93476e+06
1.81224e+06
1.81074e+06
2.0252e+06
2.81399e+06
7.2464e+06
104993
104985
105150
105594
106458
107931
110215
113412
117160
119254
115700
102842
85791.3
71788.7
65897.6
66157.4
75427
97047.9
138499
211523
324833
474430
634833
784932
963544
1.14299e+06
1.25462e+06
1.29413e+06
1.28961e+06
1.27407e+06
1.27255e+06
1.31364e+06
1.4457e+06
1.84729e+06
3.98958e+06
86559.7
88166.4
90262.8
93106.8
97034.5
102340
108819
114624
116479
114071
107384
97310
85214.9
72192.8
59379.7
48804.1
42767.9
41669.4
46038
57776.4
82101.2
143686
297282
526428
743023
875800
919753
906281
852324
788687
748880
739722
778779
947109
1.96058e+06
54446.6
55022
55675.4
56394.6
57149.9
57885.3
58521.2
59010.6
59407.3
59622.5
59283
57726.9
54458
49302.5
42989.1
37442.4
34892.9
36217.9
42367.3
51691.6
56839.4
58903.5
74927
108657
148933
189685
218361
230764
234783
233385
229582
227492
230331
255071
418960
36165.7
36401.1
36665.2
36960.7
37297.5
37685.5
38127.8
38595.8
38982.1
38942.9
38197.5
36530.4
34233.1
31695.1
29189.4
26664.3
24139.3
21712
19946.5
19025.4
18824.6
19097.2
20085.6
21734.8
23925.6
26802.9
30987.6
37694.1
46278.2
53251
54772.1
50313.8
46649.1
46648.8
70896.1
24010.4
24057.9
24109.4
24162
24212.6
24254.9
24279.6
24273.7
24221.4
24096.8
23883
23550.1
23008.2
22100.4
20642.8
18791.9
16918.9
15281.1
14062.6
13430.4
13452.6
14170.3
15271.2
15942.4
15827.2
14669.2
13110.1
12176.5
12106.9
13102.3
13939.3
14035
13567.7
14956.1
24824.1
17779.6
17800.7
17816.3
17829.7
17844.4
17860.6
17877.5
17891.9
17890.7
17841.2
17661.3
17297
16723.2
15939.8
14984.1
13929.5
12839.3
11740.6
10670.1
9676.67
8822.11
8142.22
7693.34
7419.23
7255.8
7176.55
7178.54
7283.98
7616.82
8289.79
9495.65
11575.9
15509.2
25680.7
84333.9
13774.8
13773.1
13767.9
13757.5
13739.5
13711.4
13668.6
13604.6
13510.4
13373.9
13179.9
12912.4
12555.2
12097.8
11492.7
10723.5
9873.29
9010.19
8180.55
7413.77
6736.27
6157.38
5733.62
5484.14
5383.46
5416
5575.5
5871.29
6327.47
6992.43
7968.24
9489.69
12198.7
18656.8
51762.5
11052.3
11041
11024.2
11000.8
10969.7
10929.2
10877.5
10811.9
10727.1
10612.9
10450
10217.3
9900.38
9484.07
8962.09
8369.41
7758.12
7148.03
6553.46
5992.53
5485.75
5044.36
4731.85
4578.59
4571.91
4701.98
4968.38
5374.79
5938.47
6700.8
7752
9305.49
11970.6
18293.4
51982.4
8930.51
8912.14
8889.31
8860.82
8825.04
8779.86
8722.44
8649.3
8555.84
8435.4
8279.62
8079.04
7824.9
7509.19
7128.06
6698.86
6243.83
5771.15
5302.78
4862.12
4465.85
4119.51
3867.65
3728.37
3688.21
3737.54
3877.61
4118.24
4476.56
4991.07
5741.96
6910.2
8986.79
13876.4
37933.3
7222.94
7200.29
7173.03
7140.4
7101.42
7054.82
6998.94
6931.53
6849.27
6746.68
6615.09
6448.8
6241.46
5986.31
5678
5335.87
4981.65
4627.2
4285.48
3966.78
3679.35
3426.74
3242.56
3144.02
3125.18
3182.61
3319.64
3543.45
3868.74
4325.33
4973.87
5952.22
7642.5
11588.8
31436.2
5861.95
5838.28
5810.78
5778.65
5740.88
5696.18
5642.96
5579.2
5502.36
5409.25
5296.03
5158.38
4991.71
4791.51
4555.43
4294.66
4029.93
3764.64
3506.69
3260.33
3034.04
2832.3
2682.48
2599.27
2576.69
2611.14
2706.16
2870.47
3118.51
3479.8
4012.26
4842.59
6308.17
9691.79
25776.5
4780.49
4757.85
4731.81
4701.82
4667.18
4627.01
4580.19
4525.19
4459.84
4381.03
4286.35
4173.06
4038.16
3878.55
3693.01
3490.38
3285.84
3081.95
2882.9
2694.82
2523.94
2373.19
2262.58
2202.07
2188.26
2219.72
2299.26
2432.67
2630.78
2914.38
3324.4
3951.57
5041.54
7563.88
19755.6
3939.18
3918.25
3894.44
3867.22
3835.96
3799.88
3758.03
3709.25
3652.12
3584.94
3505.81
3412.62
3303.18
3175.36
3028.62
2870.87
2711.08
2553.57
2399.6
2253.97
2121.37
2003.35
1915.15
1865.79
1853.43
1876.9
1939.35
2047.02
2210.37
2449.69
2804.17
3359.13
4341.72
6621.37
17530.1
3282.63
3263.83
3242.58
3218.49
3191.08
3159.74
3123.67
3081.78
3032.98
2976.11
2909.86
2832.79
2743.36
2640.07
2522.64
2397.56
2271.78
2148.22
2028.31
1915
1811.58
1719.38
1650.75
1612.89
1604.49
1625.3
1677.58
1765.7
1897.71
2088.61
2367.54
2797.96
3549.48
5281.26
13483.6
2773.56
2756.75
2737.86
2716.5
2692.24
2664.58
2632.94
2596.63
2554.82
2506.61
2450.95
2386.76
2312.88
2228.23
2132.75
2031.79
1931.05
1831.94
1736.23
1645.22
1561.92
1487.61
1432.24
1401.76
1395.43
1412.91
1456.72
1531.36
1644.67
1811.63
2061.17
2456.24
3164.32
4830.16
12834
2374.43
2359.61
2342.97
2324.22
2303.03
2278.94
2251.44
2220
2184.02
2142.8
2095.59
2041.54
1979.81
1909.58
1830.86
1748.08
1665.85
1585.28
1507.65
1434.41
1367.54
1308.05
1264.19
1240.81
1237.34
1253.9
1292.44
1356.37
1451.86
1590.34
1793.86
2109.93
2664.13
3938.92
9889.01
2059.35
2046.27
2031.59
2015.07
1996.41
1975.26
1951.27
1923.98
1892.92
1857.51
1817.16
1771.21
1719.01
1659.93
1594.04
1525.07
1456.8
1390.11
1325.98
1265.54
1210.13
1160.83
1124.62
1105.73
1103.89
1119.31
1154.09
1211.57
1297.84
1424.25
1612.74
1910.84
2444.92
3702.17
9738.23
1807.77
1796.25
1783.3
1768.71
1752.25
1733.66
1712.61
1688.77
1661.73
1631.04
1596.23
1556.76
1512.13
1461.85
1405.99
1347.72
1290.23
1234.2
1180.46
1129.97
1084.03
1043.36
1013.87
999.301
999.596
1015.14
1047.82
1100.53
1178.48
1291.28
1457.26
1715.88
2171.26
3222.5
8164.24
1604.29
1594.09
1582.63
1569.74
1555.22
1538.84
1520.34
1499.42
1475.76
1448.99
1418.71
1384.5
1345.94
1302.63
1254.69
1204.82
1155.73
1108
1062.31
1019.52
980.725
946.634
922.362
910.931
912.49
927.637
958.342
1007.54
1080.37
1186.18
1342.99
1589.79
2030.06
3062.68
7999.71
1438.37
1429.28
1419.08
1407.62
1394.72
1380.19
1363.8
1345.32
1324.45
1300.89
1274.32
1244.39
1210.74
1173.05
1131.43
1088.25
1045.81
1004.63
965.282
928.52
895.349
866.452
846.384
837.833
840.896
856.293
885.909
932.464
1000.66
1098.97
1243.54
1469.13
1867.81
2793.58
7175.59
1301.84
1293.68
1284.53
1274.26
1262.71
1249.73
1235.1
1218.63
1200.08
1179.18
1155.65
1129.21
1099.56
1066.43
1029.91
992.095
954.997
919.043
884.752
852.796
824.09
799.318
782.582
776.272
780.54
796.156
824.767
868.89
933.121
1025.64
1162.04
1375.97
1756.58
2647.8
6905.04
1188.81
1181.41
1173.12
1163.82
1153.38
1141.65
1128.47
1113.66
1097
1078.28
1057.25
1033.66
1007.27
977.837
945.465
911.996
879.207
847.469
817.247
789.149
764.021
742.542
728.443
723.863
728.987
744.643
772.373
814.582
875.541
962.853
1091.05
1291.31
1646.02
2472.59
6401.45
1094.8
1088
1080.39
1071.87
1062.31
1051.6
1039.59
1026.12
1011
994.046
975.048
953.789
930.053
903.641
874.643
844.709
815.42
787.104
760.179
735.205
712.966
694.134
682.132
678.89
684.617
700.178
727.036
767.501
825.667
908.776
1030.63
1221
1558.95
2349.98
6131.54
1016.44
1010.09
1003
995.068
986.205
976.29
965.196
952.782
938.892
923.357
905.997
886.621
865.041
841.081
814.828
787.771
761.332
735.801
711.559
689.123
669.227
652.533
642.203
639.997
646.134
661.506
687.493
726.316
781.871
861.028
976.854
1157.52
1477.79
2226.26
5796.18
951.087
945.052
938.328
930.833
922.476
913.155
902.758
891.16
878.225
863.806
847.743
829.872
810.024
788.045
764.015
739.296
715.175
691.913
669.858
649.49
631.501
616.54
607.55
606.144
612.547
627.664
652.803
690.107
743.309
818.987
929.663
1102.36
1408.87
2126.77
5559.63
896.67
890.825
884.332
877.118
869.102
860.194
850.294
839.295
827.076
813.507
798.45
781.757
763.281
742.883
720.639
697.806
675.564
654.144
633.869
615.187
598.752
585.196
577.278
576.489
583.052
597.879
622.216
658.13
709.203
781.738
887.718
1053
1346.29
2033.32
5318.97
851.512
845.739
839.35
832.28
824.455
815.798
806.22
795.626
783.912
770.963
756.656
740.862
723.448
704.289
683.46
662.134
641.4
621.469
602.636
585.325
570.153
557.739
550.68
550.364
557.01
571.528
595.11
629.753
678.907
748.637
850.478
1009.33
1291.42
1953.14
5122.95
5435.1
2068.42
1369.22
1072.25
905.308
798.355
725.106
673.402
636.852
611.813
596.151
588.595
588.187
594.593
606.397
620.948
637.55
655.536
674.451
693.973
713.877
733.135
750.698
766.542
780.825
793.698
805.307
815.781
825.237
833.78
841.501
848.484
854.801
860.518
865.695
5183.62
1968.17
1301.2
1018.25
859.292
757.464
687.698
638.404
603.488
579.479
564.334
556.844
556.099
561.765
572.554
585.99
601.413
618.207
635.955
654.37
673.261
691.669
708.587
723.974
737.96
750.676
762.242
772.77
782.356
791.09
799.05
806.305
812.919
818.947
824.443
4964.46
1881.18
1242.26
971.49
819.451
722.065
655.323
608.128
574.647
551.554
536.892
529.505
528.528
533.634
543.647
556.232
570.769
586.686
603.603
621.266
639.511
657.434
674.044
689.28
703.247
716.055
727.804
738.587
748.487
757.579
765.93
773.598
780.637
787.097
793.022
4774.23
1805.42
1190.86
930.69
784.685
691.18
627.087
581.737
549.524
527.254
513.043
505.784
504.656
509.346
518.768
530.714
544.599
559.894
576.253
593.454
611.364
629.112
645.707
661.06
675.254
688.375