/*--------------------------------*- C++ -*----------------------------------*\
  =========                 |
  \\      /  F ield         | OpenFOAM: The Open Source CFD Toolbox
   \\    /   O peration     | Website:  https://openfoam.org
    \\  /    A nd           | Version:  8
     \\/     M anipulation  |
\*---------------------------------------------------------------------------*/
FoamFile
{
    version     2.0;
    format      ascii;
    class       volScalarField;
    location    "0.14";
    object      k;
}
// * * * * * * * * * * * * * * * * * * * * * * * * * * * * * * * * * * * * * //

dimensions      [0 2 -2 0 0 0 0];

internalField   nonuniform List<scalar> 
15677
(
158.127
194.422
256.688
308.878
357.124
404.224
450.553
493.318
529.049
553.998
564.845
563.44
552.923
532.877
501.861
466.929
426.709
385.187
343.658
303.813
267.451
236.655
211.985
191.855
174.997
161.044
150.24
142.362
136.722
132.573
129.351
126.744
124.641
123.03
121.915
430.242
742.393
924.393
1054.2
1161.29
1256.38
1343.88
1408.61
1364.49
1199.52
983.912
829.133
756.261
729.236
719.632
702.879
669.313
620.686
562.624
500.125
445.458
399.575
361.225
328.463
300.422
276.981
258.305
244.351
234.683
228.6
225.31
224.075
224.257
225.347
227.055
250.367
519.73
691.223
808.494
927.087
1057.8
1179.62
1217.48
1156.27
1000.39
797.26
649.039
589.92
564.511
517.27
472.618
450.931
443.841
440.179
432.154
414.684
391.53
370.517
353.698
342.164
335.781
333.4
333.602
335.555
338.606
342.31
346.373
350.614
354.909
359.315
57.9807
119.209
174.61
210.924
238.284
261.35
279.293
305.284
352.796
401.089
404.443
409.494
443.42
528.042
561.292
511.232
435.985
391.771
388.526
403.275
422.238
430.248
427.19
418.523
407.441
399.028
393.803
391.582
391.933
394.278
398.335
403.421
409.074
414.929
420.713
119.661
200.04
243.553
272.623
295.475
314.916
331.753
344.764
351.832
354.74
360.384
369.471
376.371
341.298
283.183
251.064
249.67
267.391
291.073
317.484
348.075
378.978
403.466
416.063
417.768
410.622
399.687
390.274
383.696
379.626
377.382
376.332
375.978
375.971
376.108
80.412
128.647
154.589
170.413
182.295
192.213
198.784
195.753
180.33
162.368
151.565
148.19
147.696
145.351
146.556
153.296
166.309
184.433
205.525
227.528
247.649
263.453
274.877
283.174
289.057
292.702
294.421
294.839
294.41
293.499
292.349
291.119
289.919
288.816
287.864
33.5919
69.5036
96.8017
119.787
140.816
154.729
153.41
139.37
112.769
85.7102
76.055
82.5913
96.3883
110.444
122.965
134.519
146.656
160
174.571
190.083
205.281
217.373
224.945
228.323
228.939
228.532
227.833
227.109
226.419
225.764
225.13
224.507
223.891
223.282
222.699
8.01318
14.5685
20.497
24.3713
26.6884
29.0367
32.4371
36.458
40.3919
45.3815
52.731
62.8848
74.5806
87.1005
98.3064
107.848
117.211
127.102
136.979
146.323
154.681
161.409
166.321
169.82
172.23
173.828
174.819
175.351
175.545
175.508
175.312
175.025
174.7
174.38
174.097
15.5924
25.4171
31.7725
36.3986
40.2617
43.7661
47.1185
50.4488
53.8365
57.3151
61.1053
65.5647
70.8834
77.1938
83.974
90.8819
98.1012
105.582
113.215
120.673
127.422
132.852
136.65
139.023
140.522
141.5
142.15
142.581
142.86
143.028
143.112
143.134
143.111
143.054
142.973
10.2272
21.035
27.1243
31.6326
35.4644
38.9536
42.269
45.5178
48.7833
52.1458
55.6975
59.554
63.8878
68.8862
74.1735
79.4257
84.7524
90.0461
95.1981
100.149
104.793
108.795
111.95
114.357
116.181
117.559
118.595
119.369
119.945
120.373
120.693
120.936
121.127
121.284
121.419
16.0315
28.1329
35.0359
39.5163
42.8433
45.4861
47.6994
49.667
51.5441
53.469
55.5719
57.9734
60.8083
64.2084
67.9308
71.7329
75.6922
79.746
83.8023
87.7384
91.4198
94.5726
97.0645
98.9685
100.439
101.625
102.591
103.381
104.031
104.568
105.012
105.378
105.682
105.932
106.137
11.1744
21.5808
27.4553
31.5144
34.7303
37.4721
39.9384
42.2555
44.5197
46.8176
49.2181
51.7931
54.6278
57.8227
61.1417
64.3742
67.6168
70.8648
74.082
77.209
80.1794
82.8102
84.9925
86.7803
88.2398
89.437
90.4208
91.2343
91.912
92.4811
92.9631
93.3752
93.7305
94.0395
94.3104
10.8248
20.382
25.9192
29.781
32.8044
35.3076
37.4702
39.4266
41.2918
43.1699
45.1547
47.3335
49.7913
52.6041
55.5449
58.4111
61.2673
64.0873
66.8398
69.4908
72.0053
74.2444
76.1184
77.659
78.9138
79.9702
80.8669
81.6325
82.289
82.8539
83.341
83.7617
84.1253
84.4397
84.7112
10.0178
19.5406
24.6067
28.0053
30.5797
32.6552
34.4188
36.0349
37.64
39.3346
41.1824
43.2257
45.5069
48.0757
50.706
53.2354
55.7296
58.1776
60.5613
62.8517
65.0213
66.9701
68.6245
70.0112
71.1779
72.1648
73.0036
73.7204
74.3363
74.8677
75.3274
75.7268
76.0751
76.3799
76.6476
7.53478
15.1485
19.5116
22.6727
25.2683
27.5317
29.5848
31.5145
33.3931
35.2832
37.2423
39.323
41.5739
44.0393
46.5022
48.8207
51.0678
53.2411
55.3361
57.3453
59.2572
60.9829
62.4624
63.7063
64.7561
65.642
66.3982
67.0489
67.6115
68.0994
68.5235
68.8928
69.2147
69.4956
69.7407
7.65021
15.1211
19.0237
21.7271
23.8949
25.7664
27.4699
29.0969
30.7209
32.3998
34.1776
36.0896
38.1668
40.4394
42.6994
44.8177
46.8606
48.8265
50.7076
52.5065
54.2194
55.7704
57.0982
58.224
59.1809
59.9965
60.6941
61.293
61.8094
62.2557
62.6426
62.979
63.272
63.5285
63.7539
5.59459
11.9135
15.3795
17.9375
20.1046
22.0659
23.9158
25.7104
27.4904
29.2906
31.1403
33.0665
35.1001
37.2701
39.3873
41.3461
43.2169
45.0053
46.7126
48.3406
49.889
51.2911
52.4898
53.5089
54.3769
55.1175
55.75
56.292
56.7594
57.1642
57.5159
57.8222
58.0894
58.323
58.5273
5.62347
11.5028
14.6199
16.872
18.7654
20.4837
22.1168
23.7189
25.328
26.9737
28.6816
30.4754
32.378
34.4115
36.391
38.2155
39.9487
41.5934
43.1572
44.6455
46.0598
47.3353
48.4273
49.3561
50.1478
50.8241
51.4034
51.9008
52.3292
52.6993
53.0196
53.2982
53.5415
53.7545
53.9413
4.59005
10.1028
12.9785
15.09
16.8918
18.5436
20.1233
21.6778
23.239
24.8316
26.4772
28.195
30.0033
31.9197
33.7712
35.4673
37.0712
38.5913
40.0329
41.3994
42.6921
43.858
44.8563
45.7059
46.4306
47.0502
47.581
48.0367
48.4289
48.7682
49.0631
49.3201
49.5446
49.7407
49.9122
4.64452
9.66366
12.3031
14.2259
15.859
17.3558
18.7913
20.2095
21.6411
23.1092
24.6337
26.232
27.9207
29.7132
31.4439
33.026
34.5152
35.9224
37.254
38.5136
39.7032
40.7754
41.6929
42.4738
43.1399
43.7097
44.1984
44.6185
44.9808
45.294
45.5658
45.8024
46.0086
46.1883
46.3454
4.08963
8.83407
11.3148
13.134
14.6856
16.1103
17.4763
18.8246
20.183
21.5733
23.0135
24.5194
26.1051
27.7829
29.3974
30.8689
32.253
33.5587
34.792
35.9567
37.0554
38.0448
38.8912
39.6116
40.2264
40.7526
41.2043
41.5929
41.9283
42.2184
42.4698
42.6883
42.8785
43.0443
43.1891
4.01526
8.4049
10.7188
12.4099
13.8498
15.1719
16.4411
17.6958
18.9624
20.2611
21.6093
23.0209
24.5077
26.0795
27.5886
28.9611
30.2499
31.464
32.6091
33.6892
34.7071
35.6231
36.4064
37.073
37.6419
38.1289
38.547
38.9069
39.2174
39.486
39.719
39.9214
40.0977
40.2515
40.386
3.70671
7.86545
10.0539
11.6581
13.0257
14.2813
15.4853
16.6742
17.8727
19.1001
20.372
21.7024
23.1009
24.5757
25.9894
27.2731
28.4768
29.6088
30.675
31.6794
32.6251
33.4754
34.2022
34.8206
35.3485
35.8005
36.1886
36.5227
36.8112
37.0608
37.2774
37.4657
37.6298
37.773
37.8984
3.5846
7.48757
9.55553
11.0692
12.3588
13.5429
14.6795
15.8025
16.935
18.0941
19.2938
20.5464
21.8621
23.2488
24.5764
25.7802
26.9072
27.9656
28.9611
29.8977
30.7786
31.5699
32.246
32.8211
33.3119
33.7322
34.0932
34.4041
34.6727
34.9052
35.107
35.2826
35.4357
35.5696
35.6869
3.38492
7.1001
9.06855
10.5114
11.7407
12.8692
13.9517
15.0204
16.0967
17.1969
18.3343
19.5204
20.7645
22.0738
23.325
24.4578
25.5166
26.5093
27.4415
28.3174
29.1401
29.8785
30.5088
31.0447
31.5021
31.8938
32.2303
32.5202
32.7707
32.9877
33.1763
33.3404
33.4838
33.6092
33.7192
3.26518
6.78904
8.66616
10.0419
11.2139
12.2892
13.3199
14.3367
15.3603
16.4063
17.4871
18.6132
19.793
21.0331
22.2162
23.2856
24.2835
25.2175
26.0931
26.9146
27.685
28.3756
28.9646
29.4651
29.8921
30.2577
30.5718
30.8425
31.0766
31.2795
31.4558
31.6095
31.7438
31.8615
31.9648
3.12552
6.49506
8.29272
9.61111
10.7343
11.7645
12.7516
13.7246
14.7033
15.7024
16.7338
17.8072
18.9303
20.109
21.2316
22.2445
23.1881
24.0698
24.8948
25.6675
26.391
27.0385
27.59
28.0583
28.4575
28.7993
29.0928
29.3459
29.5647
29.7545
29.9195
30.0635
30.1894
30.2998
30.3968
3.02068
6.24488
7.97053
9.23612
10.3141
11.3027
12.2495
13.1825
14.1204
15.0774
16.0644
17.0905
18.1629
19.2868
20.3554
21.3181
22.2132
23.0481
23.828
24.5569
25.2381
25.8466
26.3642
26.8029
27.1767
27.4963
27.7708
28.0073
28.2119
28.3893
28.5436
28.6783
28.7961
28.8996
28.9905
2.91723
6.01581
7.67819
8.89779
9.93643
10.8886
11.8002
12.6979
13.5999
14.5194
15.4668
16.4509
17.4781
18.5531
19.5735
20.4913
21.3432
22.1364
22.8758
23.5655
24.2086
24.7818
25.2683
25.68
26.0301
26.3291
26.5856
26.8065
26.9974
27.1629
27.3068
27.4325
27.5424
27.6389
27.7239
2.83075
5.81465
7.41984
8.59762
9.60048
10.5196
11.3992
12.2651
13.1345
14.0202
14.9321
15.8783
16.865
17.8962
18.8735
19.7512
20.5645
21.3204
22.0236
22.678
23.2868
23.8279
24.2859
24.6725
25.0005
25.2801
25.5195
25.7252
25.9028
26.0566
26.1902
26.3068
26.4087
26.4982
26.577
120.824
120.09
119.915
120.181
120.738
121.429
122.149
122.756
123.078
122.886
121.888
119.991
117.354
114.226
110.802
107.247
103.713
100.345
97.285
94.6782
92.6827
91.4403
229.382
232.821
236.633
240.395
243.551
245.617
246.63
246.843
246.384
245.298
243.723
242.272
241.99
244.02
250.363
261.945
277.132
294.973
314.088
332.763
349.118
361.628
364.654
371.447
379.37
389.073
401.202
416.119
433.96
455.449
478.012
497.672
511.603
517.731
515.304
505.302
489.23
468.73
447.315
428.133
412.319
399.803
389.968
382.088
428.292
438.3
448.168
456.354
461.698
463.943
463.163
459.779
454.671
448.314
441.208
434.198
428.095
422.472
416.883
411.183
405.26
399.287
393.308
387.471
381.994
376.97
377.011
378.745
380.301
381.418
381.838
381.305
379.454
376.31
372.105
367.687
363.681
360.241
357.528
355.545
354.151
353.154
352.354
351.602
350.824
349.929
348.851
347.605
287.724
288.393
289.026
289.55
289.893
289.998
289.85
289.466
288.907
288.275
287.691
287.28
287.131
287.277
287.711
288.4
289.297
290.35
291.506
292.707
293.884
294.998
222.811
223.575
224.264
224.879
225.417
225.881
226.285
226.649
227.007
227.402
227.882
228.499
229.274
230.198
231.264
232.453
233.741
235.116
236.572
238.096
239.643
241.199
174.479
175.51
176.497
177.437
178.342
179.215
180.062
180.893
181.74
182.626
183.56
184.535
185.549
186.602
187.713
188.886
190.124
191.422
192.775
194.176
195.616
197.084
143.418
144.385
145.339
146.285
147.232
148.187
149.156
150.147
151.166
152.218
153.304
154.422
155.555
156.69
157.835
158.993
160.168
161.361
162.571
163.797
165.034
166.284
122.045
123.162
124.269
125.368
126.459
127.55
128.646
129.753
130.87
131.996
133.133
134.276
135.401
136.495
137.568
138.629
139.683
140.736
141.79
142.848
143.913
144.984
106.772
107.863
108.968
110.088
111.221
112.367
113.527
114.702
115.89
117.091
118.3
119.513
120.704
121.853
122.967
124.051
125.109
126.146
127.165
128.169
129.161
130.144
94.9879
96.0977
97.2244
98.3675
99.5272
100.703
101.894
103.094
104.301
105.518
106.746
107.976
109.179
110.335
111.451
112.53
113.578
114.598
115.593
116.567
117.522
118.459
85.3631
86.4291
87.5177
88.6283
89.7609
90.9149
92.0897
93.2834
94.493
95.7173
96.9572
98.2047
99.4274
100.604
101.737
102.831
103.889
104.914
105.909
106.877
107.82
108.741
77.2772
78.3019
79.3502
80.421
81.5135
82.6255
83.7575
84.91
86.0832
87.2773
88.4922
89.7191
90.9251
92.0874
93.2085
94.2913
95.3382
96.3515
97.3338
98.2871
99.2136
100.115
70.3289
71.2935
72.2824
73.2955
74.3327
75.3932
76.4767
77.5836
78.7142
79.869
81.0489
82.2462
83.429
84.573
85.6792
86.7488
87.7833
88.7845
89.7539
90.6932
91.6041
92.4883
64.3072
65.2176
66.1507
67.1067
68.0863
69.0899
70.1177
71.1702
72.2477
73.3511
74.4813
75.6316
76.77
77.8732
78.942
79.9771
80.9794
81.9504
82.8914
83.8039
84.6893
85.5488
59.044
59.902
60.7828
61.6868
62.6147
63.5675
64.5452
65.5479
66.5755
67.6278
68.7047
69.7996
70.8836
71.9354
72.9561
73.9466
74.9079
75.8408
76.7463
77.6256
78.4796
79.3093
54.4268
55.2372
56.0694
56.924
57.8018
58.7026
59.6265
60.5743
61.5464
62.5434
63.5655
64.6059
65.6364
66.6368
67.6082
68.5515
69.4679
70.3581
71.2232
72.0639
72.8811
73.6756
50.3689
51.1364
51.9241
52.7326
53.5626
54.4147
55.2893
56.1869
57.1081
58.0532
59.0229
60.0107
60.9898
61.9407
62.8643
63.7617
64.6337
65.4812
66.305
67.1061
67.8852
68.6429
46.7757
47.5031
48.2505
49.018
49.8062
50.6155
51.4463
52.2992
53.1746
54.073
54.995
55.9345
56.8658
57.7706
58.6495
59.5034
60.3333
61.14
61.9242
62.6868
63.4285
64.15
43.5958
44.2869
44.9974
45.7275
46.4777
47.2483
48.0397
48.8522
49.6864
50.5427
51.4216
52.3172
53.2051
54.0677
54.9056
55.7198
56.5109
57.2797
58.0271
58.7538
59.4605
60.1478
40.7718
41.4303
42.1075
42.804
43.5198
44.2555
45.0113
45.7877
46.5848
47.4033
48.2434
49.0995
49.9483
50.7728
51.5737
52.3517
53.1076
53.8421
54.5558
55.2496
55.9242
56.5801
38.2647
38.8924
39.5387
40.2038
40.888
41.5917
42.315
43.0583
43.8219
44.6061
45.4112
46.2317
47.0452
47.8354
48.6029
49.3484
50.0725
50.7759
51.4593
52.1234
52.7689
53.3963
36.0352
36.6343
37.2517
37.8877
38.5426
39.2166
39.91
40.623
41.3558
42.1086
42.8819
43.6701
44.4517
45.2109
45.9482
46.6643
47.3598
48.0353
48.6914
49.3288
49.9481
50.5498
34.0507
34.6229
35.2132
35.822
36.4495
37.096
37.7615
38.4464
39.1508
39.8748
40.6188
41.3775
42.13
42.861
43.571
44.2605
44.9301
45.5804
46.2119
46.8252
47.4209
47.9996
32.2807
32.8278
33.3929
33.9764
34.5784
35.1991
35.8388
36.4976
37.1757
37.8732
38.5903
39.3218
40.0476
40.7529
41.4379
42.1033
42.7494
43.3768
43.9859
44.5775
45.1519
45.7098
30.6981
31.2219
31.7637
32.3236
32.9019
33.4989
34.1146
34.7493
35.4031
36.076
36.7683
37.4748
38.1761
38.8578
39.5201
40.1634
40.7881
41.3946
41.9835
42.5553
43.1104
43.6495
29.2782
29.7806
30.3008
30.839
31.3956
31.9707
32.5645
33.177
33.8084
34.4588
35.1282
35.8118
36.4907
37.1507
37.7922
38.4153
39.0205
39.6081
40.1786
40.7323
41.2699
41.7917
27.9987
28.4815
28.9819
29.5004
30.0371
30.5923
31.1661
31.7585
32.3696
32.9995
33.6482
34.3109
34.9692
35.6095
36.2318
36.8366
37.4241
37.9945
38.5483
39.0859
39.6075
40.1136
26.8398
27.3044
27.7868
28.2874
28.8062
29.3435
29.8994
30.4738
31.0668
31.6783
32.3083
32.9522
33.592
34.2143
34.8194
35.4075
35.9788
36.5337
37.0725
37.5955
38.1031
38.5954
91.0227
91.8649
94.1839
98.2695
103.915
110.933
372.046
378.969
380.224
376.01
366.839
353.805
374.827
368.072
361.909
355.977
350.314
345.087
371.635
365.898
360.34
355.05
349.962
344.933
345.465
342.5
339.493
336.442
333.42
330.534
295.245
294.605
293.768
292.712
291.43
289.91
241.819
241.512
241.158
240.741
240.261
239.731
197.79
197.731
197.664
197.58
197.472
197.334
166.912
166.938
166.995
167.075
167.174
167.293
145.567
145.686
145.83
146
146.192
146.404
130.714
130.892
131.09
131.305
131.535
131.782
119.021
119.224
119.437
119.659
119.891
120.13
109.297
109.499
109.704
109.912
110.12
110.329
100.652
100.836
101.017
101.195
101.37
101.542
93.006
93.1637
93.3138
93.4561
93.5902
93.7156
86.0401
86.1675
86.2845
86.3907
86.4862
86.5704
79.7724
79.87
79.9548
80.0268
80.0859
80.1317
74.1074
74.1767
74.2327
74.2753
74.3046
74.3201
69.0455
69.0915
69.1236
69.1418
69.1461
69.1362
64.525
64.5517
64.5646
64.5636
64.5487
64.5197
60.4983
60.5101
60.5082
60.4925
60.4631
60.4197
56.9092
56.9096
56.8967
56.8703
56.8304
56.777
53.707
53.6992
53.6784
53.6444
53.5974
53.5373
50.8446
50.8311
50.8049
50.7659
50.7143
50.6501
48.2808
48.2635
48.2338
48.1918
48.1376
48.0711
45.9793
45.9596
45.9279
45.8843
45.8289
45.7617
43.9087
43.8877
43.8551
43.811
43.7555
43.6885
42.042
42.0205
41.9878
41.9439
41.8889
41.8229
40.3558
40.3344
40.3021
40.2589
40.205
40.1403
38.8302
38.8089
38.7771
38.735
38.6825
38.6198
118.638
126.696
135.699
145.57
156.155
167.25
178.601
189.919
200.895
211.195
220.449
228.205
233.965
237.59
239.401
239.867
239.277
237.847
235.747
233.119
230.078
226.711
340.217
326.513
311.156
295.554
281.039
268.555
258.714
252.79
250.753
250.961
252.546
254.44
256.044
257.163
257.93
258.473
258.865
258.982
258.407
257.311
255.793
253.918
340.834
337.585
335.232
334.208
335.013
338.189
344.183
353.192
364.879
378.261
391.04
401.756
409.145
412.34
411.202
405.43
395.482
383.465
372.061
362.101
353.535
346.266
340.344
336.701
333.805
331.745
330.566
330.309
331.082
333.008
336.029
340.016
344.878
350.582
357.087
364.298
371.907
379.197
385.364
388.587
388.595
387.195
385.146
382.925
327.731
325.004
322.43
320.033
317.853
315.926
314.311
313.029
312.136
311.727
311.964
313.005
314.879
317.417
320.466
323.868
327.423
330.655
333.3
335.71
338.144
340.828
287.69
284.918
282.083
279.208
276.322
273.47
270.711
268.12
265.796
263.848
262.315
261.216
260.545
260.233
260.19
260.326
260.575
260.882
261.226
261.608
262.033
262.508
238.357
236.203
234.015
231.803
229.59
227.403
225.275
223.237
221.323
219.562
217.989
216.626
215.508
214.62
213.918
213.361
212.912
212.543
212.234
211.969
211.744
211.55
196.427
194.807
193.205
191.628
190.08
188.568
187.1
185.682
184.322
183.022
181.781
180.602
179.506
178.501
177.574
176.71
175.894
175.113
174.354
173.604
172.854
172.093
166.782
165.664
164.562
163.476
162.406
161.355
160.337
159.348
158.384
157.446
156.533
155.65
154.815
154.035
153.297
152.59
151.905
151.233
150.568
149.904
149.239
148.57
146.111
145.325
144.554
143.798
143.054
142.321
141.596
140.879
140.168
139.461
138.737
137.995
137.249
136.508
135.77
135.029
134.28
133.521
132.749
131.964
131.165
130.35
131.588
130.96
130.33
129.697
129.056
128.404
127.738
127.059
126.37
125.654
124.906
124.126
123.329
122.528
121.719
120.899
120.067
119.223
118.367
117.498
116.618
115.727
119.959
119.375
118.776
118.162
117.529
116.876
116.2
115.499
114.772
114.007
113.194
112.331
111.434
110.52
109.59
108.646
107.69
106.721
105.743
104.756
103.762
102.765
110.134
109.53
108.902
108.249
107.567
106.852
106.102
105.317
104.49
103.613
102.68
101.692
100.672
99.6426
98.6038
97.5572
96.5041
95.4461
94.3847
93.3214
92.258
91.1965
101.31
100.668
99.9963
99.2931
98.5552
97.7795
96.9625
96.1007
95.1901
94.2264
93.2055
92.1304
91.0281
89.9219
88.8131
87.7025
86.5905
85.4792
84.3711
83.2687
82.1744
81.091
93.4363
92.7458
92.0213
91.2605
90.4607
89.619
88.7328
87.7992
86.8155
85.7796
84.6894
83.5494
82.3892
81.2335
80.0836
78.9408
77.8071
76.6842
75.5738
74.4773
73.3959
72.3314
86.2514
85.5229
84.7594
83.959
83.1195
82.2384
81.3131
80.3414
79.3216
78.2523
77.1323
75.9692
74.7936
73.63
72.4797
71.3443
70.2253
69.1235
68.0397
66.9747
65.9302
64.9079
79.7796
79.0246
78.2357
77.4115
76.55
75.6497
74.7089
73.7261
72.6997
71.6283
70.5102
69.3514
68.1826
67.0304
65.8974
64.7858
63.6972
62.6318
61.5899
60.5718
59.5778
58.6085
73.947
73.1808
72.3826
71.5512
70.6853
69.7836
68.8451
67.8684
66.8524
65.7958
64.6976
63.5649
62.4294
61.3162
60.2265
59.1613
58.1211
57.1065
56.1176
55.1547
54.2179
53.3079
68.7498
67.9838
67.1882
66.3619
65.504
64.6135
63.6897
62.7316
61.7384
60.7095
59.6442
58.5502
57.4582
56.3915
55.3508
54.3367
53.3492
52.3886
51.4549
50.5478
49.6678
48.815
64.1277
63.3708
62.5865
61.7741
60.9329
60.0622
59.1614
58.23
57.2674
56.2734
55.2476
54.1975
53.1526
52.1351
51.1452
50.1832
49.2491
48.3429
47.4646
46.6141
45.7912
44.9958
60.0275
59.2854
58.5181
57.7251
56.9059
56.0601
55.1872
54.2869
53.3589
52.403
51.4193
50.4151
49.4185
48.4505
47.5112
46.6007
45.7187
44.865
44.0396
43.2418
42.4714
41.7279
56.3886
55.6648
54.9181
54.1477
53.3536
52.5353
51.6925
50.8252
49.9332
49.0164
48.0751
47.1162
46.1669
45.2469
44.356
43.4941
42.6609
41.8559
41.0787
40.3287
39.6054
38.9082
53.1552
52.4519
51.7274
50.9813
50.2134
49.4236
48.6117
47.7776
46.9214
46.0431
45.1429
44.2278
43.3235
42.4487
41.6031
40.7864
39.998
39.2376
38.5043
37.7978
37.1172
36.4619
50.2763
49.5942
48.8926
48.1712
47.4298
46.6684
45.8869
45.0853
44.2636
43.4222
42.5611
41.6872
40.825
39.9922
39.1884
38.413
37.6656
36.9455
36.252
35.5845
34.9423
34.3245
47.7066
47.0459
46.3672
45.6701
44.9547
44.2209
43.4687
42.6981
41.9094
41.1026
40.2782
39.4426
38.6192
37.8249
37.0592
36.3215
35.6111
34.9274
34.2697
33.6373
33.0295
32.4454
45.4071
44.7675
44.111
43.4375
42.7471
42.0396
41.3152
40.5739
39.8159
39.0415
38.2509
37.4505
36.6626
35.9034
35.1722
34.4685
33.7914
33.1404
32.5148
31.9137
31.3365
30.7823
43.3441
42.7247
42.0896
41.4387
40.772
40.0894
39.391
38.6769
37.9474
37.2026
36.443
35.6746
34.919
34.1914
33.4913
32.8179
32.1707
31.5488
30.9517
30.3785
29.8286
29.3011
41.4885
40.8886
40.2739
39.6442
38.9996
38.34
37.6656
36.9766
36.2731
35.5554
34.8239
34.0844
33.3576
32.6583
31.9858
31.3395
30.7186
30.1226
29.5508
29.0023
28.4766
27.9727
39.8158
39.2343
38.6385
38.0284
37.4041
36.7657
36.1133
35.447
34.7671
34.0738
33.3674
32.6536
31.9525
31.2781
30.63
30.0074
29.4098
28.8365
28.2868
27.7602
27.2559
26.7731
38.3051
37.7402
37.1614
36.5691
35.9633
35.344
34.7114
34.0657
33.4069
32.7352
32.0511
31.3599
30.6812
30.0285
29.4015
28.7995
28.222
27.6686
27.1385
26.6311
26.1459
25.682
223.819
221.401
218.828
216.037
213.017
209.882
206.942
204.863
204.192
205.545
209.603
216.342
225.574
237.019
250.085
263.039
274.073
285.185
294.296
302.295
309.421
318.116
326.839
328.611
318.733
300.689
284.591
273.133
264.88
256.391
243.347
221.903
188.614
138.911
146.13
252.085
250.705
249.634
249.064
248.998
249.577
250.944
253.271
256.799
261.878
269.039
279.162
293.084
308.688
324.497
333.854
336.817
340.111
349.443
369.734
408.566
492.311
641.676
838.118
991.119
1000.94
984.884
974.193
970.133
962.344
941.943
899.24
822.363
684.592
424.745
340.977
336.679
332.28
327.863
323.536
319.431
315.698
312.455
309.661
306.967
303.223
296.752
286.06
271.522
253.427
237.949
230.121
233.513
252.794
309.026
426.964
622.556
912.82
1255.67
1568.95
1722.98
1710.06
1600.49
1451.13
1289.2
1123.06
965.027
808.682
626.245
332.066
381.305
380.2
379.262
378.696
378.71
379.68
382.004
385.867
390.361
392.127
382.269
353.677
313.033
269.781
239.42
225.979
224.27
240.51
277.531
346.885
450.542
575.998
696.344
791.364
886.494
965.013
995.916
984.634
932.763
858.164
770.033
671.059
556.623
409.65
223.067
343.931
347.385
351.915
358.013
366.264
377.061
389.689
400.233
402.55
396.244
380.751
358.006
330.203
299.786
269.744
243.613
222.742
206.865
198.791
197.934
207.631
251.149
376.757
543.305
681.024
751.102
764.776
736.341
678.369
605.636
532.307
458.682
380.232
284.583
138.909
263.508
265.059
266.827
268.797
270.93
273.15
275.361
277.592
279.959
282.229
283.401
281.455
274.392
260.875
241.667
220.974
204.153
195.645
193.699
191.377
175.461
150.129
143.994
158.439
186.377
213.967
227.38
229.564
220.45
203.898
182.422
157.011
127.212
89.9145
49.6517
211.88
212.735
213.713
214.839
216.154
217.7
219.491
221.432
223.168
223.592
221.745
217.124
210.377
202.569
194.193
184.53
173.338
160.513
147.273
135.416
124.871
114.387
104.5
95.7542
87.9556
81.3902
77.2532
76.6241
78.1765
78.2398
72.3846
60.6548
47.523
33.0313
15.1879
171.845
172.101
172.39
172.707
173.046
173.392
173.718
173.984
174.129
174.072
173.723
172.885
171.085
167.534
161.249
152.634
143.155
133.867
125.544
118.877
113.975
110.425
106.584
100.556
91.4796
79.0276
65.2808
53.2516
44.1619
38.4402
33.9606
28.8466
22.4156
15.3578
7.54612
148.31
148.437
148.544
148.651
148.773
148.913
149.067
149.215
149.29
149.122
148.332
146.638
143.88
139.981
134.996
129.145
122.666
115.625
108.144
100.409
92.6528
84.8714
77.7542
71.6307
66.2364
61.368
56.8745
52.6335
48.8538
45.4515
42.2378
38.7308
34.2491
27.5978
17.0524
129.937
129.918
129.878
129.808
129.697
129.528
129.278
128.909
128.37
127.59
126.478
124.93
122.823
120.038
116.233
111.252
105.524
99.3893
93.08
86.7397
80.4942
74.2798
68.4992
63.5607
59.263
55.438
51.9271
48.5854
45.3028
41.9584
38.4163
34.49
29.8102
23.3557
12.3158
115.241
115.147
115.018
114.846
114.624
114.34
113.981
113.527
112.942
112.156
111.045
109.468
107.311
104.44
100.76
96.4448
91.8
86.9133
81.841
76.6608
71.4564
66.1626
61.1968
56.9888
53.3929
50.2525
47.4112
44.7181
42.0353
39.2275
36.1471
32.5954
28.2132
22.0837
12.3505
102.196
102.043
101.857
101.628
101.345
100.993
100.55
99.9915
99.281
98.3688
97.1904
95.6696
93.7272
91.2771
88.2488
84.7285
80.8564
76.659
72.2592
67.7896
63.3284
58.7993
54.5291
50.8496
47.6251
44.7354
42.0731
39.5401
37.0438
34.4909
31.7716
28.7252
25.0372
19.8232
10.0107
90.576
90.3785
90.1435
89.8646
89.5333
89.1389
88.6669
88.098
87.4036
86.5385
85.4323
84.0307
82.2681
80.0666
77.3497
74.2377
70.8875
67.3642
63.7381
60.0536
56.3283
52.4713
48.7353
45.4378
42.4975
39.8346
37.3712
35.0293
32.7286
30.3819
27.8834
25.082
21.6985
17.006
8.83216
80.451
80.2304
79.9749
79.6769
79.3274
78.9147
78.4238
77.836
77.1272
76.2666
75.216
73.9297
72.3548
70.4309
68.1077
65.46
62.6536
59.6925
56.616
53.4288
50.164
46.7584
43.4468
40.5224
37.9064
35.5296
33.3291
31.2449
29.2151
27.1706
25.0237
22.6422
19.7694
15.693
7.73747
71.6985
71.47
71.2073
70.9047
70.5548
70.1485
69.674
69.1153
68.45
67.6463
66.6762
65.5054
64.0926
62.3896
60.3576
58.0617
55.6353
53.0802
50.4104
47.6536
44.8295
41.8679
38.9494
36.321
33.9283
31.7215
29.654
27.6787
25.7451
23.795
21.7526
19.5044
16.8335
13.16
6.47997
64.2974
64.0689
63.8083
63.5098
63.166
62.7683
62.3055
61.7642
61.1275
60.3747
59.481
58.4172
57.149
55.6369
53.8513
51.8578
49.7443
47.5343
45.2188
42.8202
40.3517
37.7419
35.1448
32.7941
30.6516
28.6762
26.8293
25.0717
23.3613
21.6482
19.8656
17.9096
15.5776
12.308
5.98372
58.0282
57.8062
57.5542
57.2674
56.9396
56.5631
56.1279
55.6204
55.026
54.3285
53.508
52.5411
51.3997
50.0507
48.4693
46.7148
44.8621
42.9253
40.9002
38.7941
36.61
34.2804
31.9386
29.7953
27.819
25.978
24.2406
22.5744
20.9439
19.3067
17.6063
15.7538
13.5755
10.5979
5.02322
52.7616
52.5481
52.3069
52.0326
51.7195
51.3608
50.9479
50.471
49.9178
49.2738
48.5219
47.6416
46.6091
45.3963
43.9824
42.4215
40.7807
39.0616
37.267
35.3903
33.4375
31.3496
29.2452
27.3155
25.5357
23.878
22.3152
20.8191
19.3587
17.8968
16.3822
14.7327
12.7841
10.0827
4.86057
48.3031
48.1012
47.8731
47.6146
47.3206
46.9844
46.5981
46.1531
45.6393
45.0442
44.3533
43.5492
42.6111
41.5146
40.2418
38.8408
37.3709
35.8326
34.2255
32.5472
30.7943
28.9093
26.995
25.2246
23.5756
22.0252
20.5502
19.1265
17.7274
16.3206
14.8622
13.2804
11.4306
8.91068
4.0852
44.518
44.3279
44.1133
43.8702
43.5938
43.2785
42.9179
42.5042
42.0282
41.479
40.8438
40.1072
39.251
38.2537
37.0993
35.8317
34.5037
33.1146
31.6626
30.1436
28.55
26.8305
25.0786
23.4547
21.9408
20.5178
19.1653
17.8615
16.5826
15.2991
13.9699
12.5271
10.8337
8.50853
4.04357
41.2817
41.104
40.903
40.6752
40.4165
40.122
39.7858
39.401
38.9597
38.452
37.8666
37.1897
36.4053
35.4939
34.4413
33.287
32.0785
30.8144
29.4921
28.1074
26.6534
25.0784
23.4644
21.9606
20.5518
19.2207
17.9495
16.7187
15.5062
14.2854
13.0187
11.6441
10.0356
7.84014
3.59519
38.4903
38.3243
38.1367
37.9242
37.6832
37.4091
37.0967
36.7397
36.3308
35.8614
35.3211
34.6976
33.9764
33.1398
32.1749
31.1177
30.011
28.853
27.6405
26.3691
25.0318
23.5796
22.0871
20.6903
19.3773
18.1346
16.9471
15.7982
14.6674
13.5295
12.3488
11.0662
9.56119
7.49878
3.54672
36.0701
35.9152
35.7402
35.5422
35.3177
35.0626
34.7721
34.4407
34.0615
33.6268
33.1271
32.5514
31.8862
31.1155
30.2271
29.2539
28.2347
27.1673
26.0484
24.8729
23.634
22.2852
20.8947
19.5898
18.3587
17.1888
16.0675
14.9793
13.9054
12.822
11.6957
10.4707
9.03366
7.06889
3.29875
33.9562
33.8116
33.6485
33.464
33.2549
33.0176
32.7476
32.4398
32.088
31.6849
31.2221
30.6894
30.0742
29.3618
28.5406
27.6408
26.6976
25.7086
24.6702
23.5773
22.4229
21.1632
19.8613
18.637
17.4799
16.3788
15.3208
14.2913
13.2736
12.2463
11.1778
10.0155
8.65084
6.78162
3.2153
32.0982
31.9633
31.8112
31.6393
31.4447
31.2238
30.9727
30.6866
30.3599
29.9858
29.5565
29.0625
28.4922
27.8317
27.0701
26.2347
25.358
24.4372
23.4685
22.4469
21.3653
20.182
18.9557
17.7994
16.704
15.6591
14.6529
13.6717
12.6997
11.7163
10.6921
9.57684
8.26715
6.47487
3.05701
30.4542
30.3285
30.1867
30.0266
29.8454
29.6399
29.4063
29.1404
28.8367
28.4893
28.0906
27.6318
27.1021
26.4882
25.7796
25.0013
24.1831
23.322
22.4143
21.4547
20.4364
19.3196
18.1591
17.0624
16.0215
15.0268
14.0675
13.1311
12.2026
11.2625
10.2822
9.21332
7.95663
6.2359
2.97046
28.9902
28.8731
28.7411
28.592
28.4234
28.2323
28.0152
27.768
27.4859
27.1631
26.7925
26.3659
25.873
25.3012
24.6401
23.9127
23.1463
22.3379
21.4836
20.5784
19.6153
18.5566
17.4534
16.4085
15.4147
14.4632
13.5439
12.6453
11.7529
10.8483
9.90393
8.87355
7.66187
6.00363
2.86114
27.6776
27.5687
27.4461
27.3076
27.1511
26.9737
26.7721
26.5427
26.2807
25.9808
25.6364
25.2395
24.7803
24.2467
23.6285
22.9465
22.2262
21.4645
20.6574
19.8
18.8856
17.8778
16.8252
15.8261
14.8739
13.9609
13.0777
12.2133
11.3541
10.4824
9.57188
8.5779
7.40847
5.80767
2.78275
26.4924
26.3916
26.2781
26.1501
26.0052
25.8411
25.6545
25.442
25.1992
24.921
24.6011
24.2318
23.8036
23.3049
22.7256
22.0846
21.4055
20.6852
19.9199
19.1048
18.2333
17.2707
16.2627
15.304
14.3888
13.5099
12.6585
11.8242
10.9941
10.1512
9.27007
8.30761
7.17489
5.62459
2.70186
25.4146
25.3219
25.2176
25.0999
24.9666
24.8155
24.6436
24.4476
24.2233
23.9658
23.669
23.3256
22.9264
22.4598
21.9159
21.3118
20.6696
19.9863
19.2582
18.4807
17.6473
16.7247
15.7565
14.8339
13.9518
13.1034
12.2807
11.4736
10.6701
9.85344
8.99932
8.06596
6.96711
5.46315
2.63506
2.74153
5.61223
7.16084
8.29733
9.2648
10.1512
10.999
11.8331
12.67
13.522
14.3983
15.3068
16.2529
17.2404
18.1749
19.0126
19.7876
20.5063
21.1735
21.7927
22.367
22.8755
23.3044
23.6651
23.97
24.2289
24.4498
24.6391
24.8019
24.9426
25.0646
25.1707
25.2634
25.3447
25.4161
2.6563
5.41584
6.90891
8.00477
8.93739
9.79147
10.608
11.4107
12.2157
13.0345
13.8759
14.7473
15.6538
16.5986
17.4913
18.2902
19.028
19.7107
20.3429
20.9278
21.4681
21.9444
22.3439
22.6779
22.9585
23.1953
23.3961
23.5671
23.7134
23.8389
23.9472
24.041
24.1225
24.1937
24.256
2.58089
5.24256
6.68659
7.74657
8.64838
9.47391
10.2627
11.0378
11.8145
12.6038
13.4144
14.253
15.1245
16.0318
16.8879
17.6529
18.3582
19.0096
19.6111
20.166
20.6764
21.1238
21.4965
21.8058
22.0635
22.2789
22.4598
22.6122
22.7412
22.8509
22.9445
23.0247
23.0939
23.1536
23.2056
2.51453
5.08889
6.48927
7.51727
8.39163
9.19169
9.95577
10.7062
11.4576
12.2208
13.0039
13.8134
14.6539