/*--------------------------------*- C++ -*----------------------------------*\
  =========                 |
  \\      /  F ield         | OpenFOAM: The Open Source CFD Toolbox
   \\    /   O peration     | Website:  https://openfoam.org
    \\  /    A nd           | Version:  8
     \\/     M anipulation  |
\*---------------------------------------------------------------------------*/
FoamFile
{
    version     2.0;
    format      ascii;
    class       volScalarField;
    location    "0.14";
    object      nut;
}
// * * * * * * * * * * * * * * * * * * * * * * * * * * * * * * * * * * * * * //

dimensions      [0 2 -1 0 0 0 0];

internalField   nonuniform List<scalar> 
15677
(
0.000945176
0.00519781
0.0135894
0.0224293
0.0307849
0.0384568
0.0454261
0.0516889
0.0575096
0.0632513
0.0686823
0.073608
0.0786261
0.0823018
0.0835145
0.0828852
0.0808585
0.0780649
0.0747687
0.0712602
0.067839
0.0647925
0.0622916
0.0602825
0.0587481
0.0577259
0.0572195
0.0571212
0.0572756
0.0575627
0.0579211
0.0583325
0.0587971
0.0593153
0.0598797
0.00155912
0.0138033
0.0320032
0.0496435
0.0647456
0.07695
0.0859598
0.0910588
0.0933211
0.0925859
0.0921109
0.0958615
0.103394
0.111801
0.116402
0.118274
0.117779
0.114903
0.109917
0.104307
0.099236
0.0947305
0.0906486
0.0869263
0.0837773
0.0815579
0.080656
0.08108
0.0825653
0.0847361
0.0872158
0.089705
0.0919941
0.0939654
0.0956573
0.00118937
0.00986564
0.0212422
0.0321628
0.0421995
0.0508661
0.0567881
0.0597848
0.059374
0.0570209
0.0544401
0.0588491
0.0757983
0.0947078
0.104995
0.109885
0.114518
0.118548
0.121412
0.1224
0.122072
0.121156
0.120528
0.120638
0.121675
0.123517
0.125736
0.127808
0.129619
0.13115
0.132413
0.133439
0.134262
0.134916
0.135442
0.000572297
0.00292891
0.00605968
0.00889644
0.0116337
0.0145115
0.0175588
0.0212181
0.0269343
0.0326547
0.0358285
0.0432015
0.0539802
0.0701897
0.07885
0.0817206
0.0856181
0.0928247
0.103801
0.112906
0.121424
0.126334
0.12845
0.130472
0.131849
0.133236
0.134618
0.13605
0.137519
0.13887
0.140243
0.141348
0.142262
0.143003
0.143595
0.000822076
0.00714647
0.0170795
0.0273159
0.0363036
0.0433737
0.0485744
0.0518889
0.0534929
0.0540066
0.0544998
0.0557034
0.056924
0.0569892
0.0579469
0.0657461
0.0815936
0.0997681
0.113758
0.122122
0.127723
0.132192
0.13583
0.138599
0.139911
0.140373
0.140165
0.139714
0.139259
0.138837
0.138437
0.138078
0.137774
0.137491
0.137236
0.000673981
0.0053407
0.0122541
0.0189242
0.0244845
0.0286255
0.0310643
0.0323157
0.0324916
0.0324129
0.0332028
0.0356545
0.0392871
0.044759
0.0534067
0.0648251
0.0780766
0.0906931
0.101112
0.10915
0.115079
0.119102
0.121662
0.123264
0.124234
0.125008
0.125643
0.126054
0.126238
0.126241
0.126126
0.125945
0.125733
0.125511
0.125287
0.000435641
0.00325069
0.00702226
0.0104982
0.0133364
0.0151973
0.0157321
0.0156246
0.0144676
0.0140064
0.019228
0.0297982
0.0430964
0.0574905
0.0711108
0.0823884
0.0911501
0.0980226
0.103565
0.108224
0.112193
0.115235
0.117289
0.118405
0.118803
0.11889
0.118813
0.118664
0.118486
0.118301
0.11812
0.117949
0.11779
0.117645
0.117515
0.00021277
0.00089134
0.00193628
0.00281302
0.00382328
0.00537595
0.00748027
0.0102044
0.0137689
0.0189237
0.026398
0.0362324
0.0469513
0.0580922
0.0686633
0.078091
0.0863486
0.0932167
0.0986532
0.102834
0.10598
0.108216
0.109738
0.1108
0.111548
0.112069
0.112422
0.112657
0.112794
0.112874
0.112914
0.11293
0.112931
0.112925
0.112915
0.000296809
0.00256371
0.00663128
0.0113782
0.0164439
0.0216702
0.0269476
0.0321855
0.0373525
0.0425108
0.0477665
0.0534226
0.0596881
0.066735
0.0738835
0.0804521
0.0863816
0.0915403
0.0959307
0.0996208
0.102661
0.104995
0.106661
0.107814
0.108617
0.109193
0.109619
0.109947
0.11021
0.110422
0.110597
0.110746
0.110874
0.110985
0.111078
0.000240381
0.00240897
0.00573891
0.00965523
0.0140884
0.01902
0.0244222
0.0302427
0.0364064
0.0428184
0.049405
0.0560856
0.0628338
0.0696836
0.0759566
0.0813833
0.0861626
0.0903085
0.0938423
0.0968362
0.0993729
0.101441
0.10306
0.10433
0.105333
0.106133
0.106777
0.107301
0.107733
0.108093
0.108395
0.108653
0.108873
0.109062
0.109227
0.00030095
0.00271425
0.00654768
0.0108922
0.0156054
0.0206867
0.0261481
0.0319862
0.0381672
0.0446205
0.0512605
0.0578916
0.0644709
0.0709584
0.0766452
0.0814158
0.0855555
0.0891574
0.0922927
0.0950134
0.097365
0.0993002
0.100825
0.102024
0.102981
0.10376
0.104404
0.104942
0.105396
0.105782
0.106112
0.106395
0.10664
0.106851
0.107033
0.000251257
0.00239205
0.00561637
0.00931888
0.0134849
0.0181595
0.0233801
0.0291547
0.0354497
0.0421811
0.0491941
0.05626
0.063232
0.0699713
0.0757057
0.0803521
0.0842558
0.0875708
0.0904181
0.0928857
0.0950377
0.0968392
0.0982904
0.0994639
0.100421
0.101208
0.10186
0.102405
0.102863
0.103252
0.103584
0.103868
0.104114
0.104326
0.104511
0.000247301
0.00228317
0.00537243
0.00888404
0.012781
0.0171161
0.0219567
0.0273578
0.0333375
0.0398521
0.0467797
0.0539097
0.0609943
0.0678708
0.0737053
0.0784073
0.0823275
0.085625
0.0884258
0.0908271
0.0929027
0.0946288
0.0960121
0.0971251
0.0980289
0.0987747
0.0993965
0.0999196
0.100363
0.100741
0.101064
0.101343
0.101583
0.101791
0.101972
0.000237902
0.00230962
0.00537993
0.00887582
0.0127703
0.0171123
0.0219577
0.0273457
0.0332694
0.0396607
0.0463902
0.0532488
0.0600385
0.0666395
0.0722363
0.0767458
0.080506
0.0836715
0.0863636
0.0886738
0.0906729
0.0923403
0.093682
0.0947674
0.0956564
0.0963913
0.0970042
0.0975191
0.097955
0.0983261
0.0986436
0.0989166
0.0991523
0.0993566
0.0995341
0.000206325
0.00205963
0.00488664
0.00815477
0.011835
0.0159661
0.0205973
0.0257647
0.0314715
0.0376704
0.0442533
0.0510495
0.0578519
0.0644622
0.070092
0.0746285
0.0784011
0.081563
0.0842387
0.0865262
0.0885008
0.0901449
0.0914676
0.092537
0.0934124
0.0941353
0.0947385
0.0952463
0.0956768
0.0960441
0.0963589
0.0966299
0.096864
0.0970668
0.097243
0.000207899
0.00214703
0.00513749
0.00863131
0.0125507
0.0168878
0.0216438
0.0268141
0.032377
0.0382827
0.0444439
0.0507259
0.0570304
0.0631947
0.0685027
0.0728304
0.0764682
0.079544
0.0821631
0.0844126
0.0863615
0.0879892
0.0892999
0.0903629
0.0912355
0.0919591
0.0925641
0.0930737
0.0935057
0.093874
0.0941894
0.0944608
0.0946951
0.0948982
0.0950747
0.000177789
0.00195957
0.00472318
0.00798173
0.011678
0.0158194
0.0204178
0.0254681
0.0309382
0.0367659
0.0428551
0.0490777
0.0553044
0.0613775
0.0666112
0.0708835
0.0744805
0.0775273
0.0801268
0.0823627
0.084302
0.0859231
0.0872291
0.0882891
0.0891603
0.0898834
0.0904884
0.0909983
0.0914309
0.0918002
0.092117
0.0923899
0.0926258
0.0928303
0.093008
0.000178247
0.00196419
0.00478688
0.00814167
0.0119339
0.0161338
0.0207219
0.0256752
0.0309605
0.0365291
0.0423026
0.0481954
0.0541108
0.0599103
0.0649474
0.069091
0.0726044
0.0755977
0.0781641
0.0803803
0.0823085
0.0839231
0.0852265
0.0862859
0.0871576
0.0878822
0.0884896
0.0890023
0.0894377
0.0898094
0.0901282
0.0904028
0.0906403
0.0908462
0.0910254
0.000161039
0.00190772
0.00458621
0.00775463
0.0113615
0.0153954
0.0198435
0.0246811
0.0298667
0.03534
0.0410186
0.0468096
0.0526079
0.0582916
0.0632343
0.0673084
0.0707721
0.0737323
0.0762774
0.0784798
0.0803986
0.0820081
0.0833088
0.084367
0.0852385
0.0859636
0.0865718
0.0870855
0.087522
0.0878949
0.0882152
0.0884914
0.0887303
0.0889376
0.0891178
0.000161991
0.00184085
0.00449747
0.00766566
0.0112592
0.0152487
0.0196125
0.0243245
0.0293486
0.0346336
0.0401075
0.0456976
0.0513073
0.0568246
0.0616439
0.0656337
0.0690388
0.0719595
0.0744788
0.0766646
0.0785728
0.0801758
0.0814723
0.0825278
0.0833976
0.0841216
0.0847292
0.0852427
0.0856794
0.0860526
0.086373
0.0866493
0.0868883
0.0870956
0.0872759
0.000152007
0.00178645
0.00433224
0.00736343
0.010817
0.0146735
0.0189149
0.023514
0.0284307
0.0336096
0.0389775
0.0444569
0.0499547
0.055366
0.0601001
0.0640271
0.0673868
0.0702751
0.0727715
0.074941
0.0768374
0.0784317
0.0797217
0.0807721
0.0816376
0.0823581
0.0829628
0.0834739
0.0839085
0.08428
0.084599
0.084874
0.085112
0.0853184
0.085498
0.000150619
0.00172183
0.0042117
0.00718869
0.010576
0.0143484
0.018486
0.0229637
0.0277458
0.0327824
0.0380057
0.0433453
0.0487132
0.0540089
0.0586546
0.0625186
0.0658326
0.0686877
0.0711596
0.0733107
0.0751922
0.0767746
0.0780547
0.0790966
0.0799547
0.0806686
0.0812674
0.0817733
0.0822034
0.0825709
0.0828864
0.0831584
0.0833938
0.0835981
0.0837759
0.000144716
0.00167203
0.00407503
0.00694851
0.0102269
0.0138892
0.0179178
0.0222874
0.0269617
0.0318908
0.0370081
0.0422424
0.0475098
0.0527135
0.0572865
0.0610966
0.0643694
0.0671929
0.0696398
0.0717702
0.0736338
0.0752002
0.0764665
0.077496
0.0783429
0.0790466
0.0796363
0.080134
0.0805567
0.0809176
0.0812272
0.0814941
0.0817248
0.0819251
0.0820995
0.000142313
0.00161905
0.00396466
0.00677447
0.00997806
0.013553
0.0174819
0.0217416
0.0262989
0.0311083
0.0361074
0.0412286
0.0463931
0.051506
0.0560082
0.0597656
0.0629974
0.0657881
0.0682075
0.0703139
0.0721552
0.073701
0.0749484
0.0759606
0.0767916
0.0774807
0.0780569
0.0785423
0.0789538
0.0793047
0.0796052
0.0798639
0.0800874
0.0802812
0.0804498
0.000138292
0.00157544
0.00385254
0.00658206
0.00969889
0.0131828
0.0170172
0.0211795
0.0256371
0.030346
0.0352463
0.040271
0.0453454
0.0503763
0.0548126
0.0585193
0.0617101
0.0644662
0.0668553
0.0689334
0.0707473
0.0722665
0.073489
0.074478
0.0752872
0.0759559
0.0765133
0.0769813
0.0773768
0.0777129
0.0780002
0.0782468
0.0784593
0.0786433
0.078803
0.000135824
0.00153273
0.00375731
0.00642584
0.00947176
0.0128749
0.0166201
0.0206872
0.0250463
0.029656
0.034459
0.0393896
0.0443764
0.0493273
0.0536985
0.0573539
0.0605017
0.0632202
0.0655747
0.0676195
0.0693996
0.0708852
0.0720756
0.0730338
0.0738139
0.0744552
0.0749868
0.0754307
0.075804
0.0761196
0.0763879
0.0766171
0.0768139
0.0769836
0.0771303
0.000132888
0.0014948
0.00366392
0.00626844
0.00924437
0.0125723
0.0162377
0.0202208
0.024493
0.0290142
0.0337293
0.0385732
0.0434779
0.048352
0.0526589
0.056262
0.0593644
0.0620417
0.0643567
0.0663619
0.068101
0.0695448
0.0706943
0.0716132
0.0723555
0.0729607
0.073458
0.0738698
0.0742129
0.0745005
0.0747429
0.0749483
0.0751231
0.0752727
0.0754012
0.00013064
0.00146001
0.0035829
0.00613355
0.00904828
0.0123082
0.0158994
0.0198035
0.0239932
0.0284301
0.0330611
0.0378219
0.0426469
0.0474457
0.0516877
0.0552367
0.0582905
0.0609221
0.0631921
0.065151
0.0668409
0.0682335
0.0693324
0.0702019
0.0708962
0.0714551
0.0719084
0.0722783
0.072582
0.0728327
0.0730407
0.0732142
0.0733596
0.0734821
0.0735858
0.000128384
0.00142857
0.00350761
0.0060074
0.00886541
0.0120631
0.0155871
0.0194195
0.023534
0.0278932
0.0324458
0.037128
0.0418765
0.046601
0.0507777
0.0542704
0.0572722
0.0598534
0.0620723
0.0639776
0.0656094
0.0669408
0.0679784
0.0687873
0.0694224
0.0699239
0.0703219
0.0706391
0.0708927
0.0710963
0.0712603
0.0713927
0.0715
0.0715873
0.0716586
0.000126466
0.00139982
0.00343997
0.00589453
0.00870139
0.0118423
0.0153044
0.0190703
0.0231145
0.0274009
0.0318792
0.0364862
0.0411603
0.0458116
0.049922
0.053356
0.0563022
0.0588281
0.0609899
0.0628339
0.0643985
0.0656581
0.0666231
0.0673598
0.0679237
0.0683557
0.0686865
0.0689391
0.0691313
0.0692768
0.069386
0.0694673
0.069527
0.0695702
0.0696007
0.0606135
0.0615727
0.0626007
0.063616
0.0645705
0.065487
0.0662954
0.0669542
0.067419
0.0676622
0.0676371
0.0673341
0.0667543
0.0659273
0.0648535
0.0635036
0.0618204
0.059729
0.0571475
0.0543879
0.0518373
0.0498095
0.0974441
0.0992563
0.100681
0.101764
0.102506
0.102918
0.103024
0.102849
0.102456
0.101861
0.101111
0.100591
0.100705
0.101493
0.103283
0.105644
0.107405
0.108402
0.109032
0.109524
0.109965
0.110358
0.135892
0.136202
0.136396
0.136523
0.136662
0.136898
0.137318
0.13805
0.139034
0.139988
0.140625
0.140729
0.140179
0.138992
0.137192
0.134921
0.132618
0.13049
0.128505
0.126599
0.12473
0.122883
0.144241
0.144886
0.145367
0.14562
0.145576
0.1452
0.14445
0.143298
0.141848
0.140281
0.138508
0.136677
0.135003
0.133573
0.132361
0.131311
0.130352
0.129426
0.128489
0.127544
0.1266
0.125689
0.137027
0.136841
0.136633
0.136402
0.136179
0.135928
0.13565
0.135353
0.134953
0.13426
0.133477
0.132634
0.131785
0.130981
0.130249
0.129607
0.129049
0.128565
0.128144
0.127756
0.127409
0.127095
0.125127
0.125008
0.124885
0.124766
0.124653
0.124553
0.124458
0.124361
0.124246
0.124083
0.123847
0.123552
0.12321
0.122848
0.122494
0.122174
0.121905
0.121701
0.121568
0.121505
0.121509
0.121578
0.117453
0.117423
0.117382
0.117332
0.117275
0.117212
0.11714
0.117058
0.116958
0.116832
0.116671
0.11647
0.116235
0.115982
0.115724
0.115472
0.115241
0.115042
0.114886
0.114779
0.114724
0.114721
0.112944
0.112989
0.113026
0.113055
0.113075
0.113084
0.113078
0.113052
0.113001
0.112921
0.112802
0.112639
0.112434
0.112198
0.111941
0.111672
0.111404
0.111147
0.110909
0.110699
0.110523
0.110385
0.111214
0.111368
0.111507
0.111631
0.11174
0.111834
0.111911
0.111968
0.112
0.112002
0.111966
0.111887
0.111765
0.111606
0.111416
0.111202
0.110971
0.110729
0.110485
0.110245
0.110015
0.109799
0.109462
0.10976
0.110046
0.110319
0.110576
0.110815
0.111035
0.111232
0.111404
0.111546
0.111653
0.111722
0.111747
0.11173
0.111675
0.111586
0.111469
0.111329
0.11117
0.110998
0.110817
0.110632
0.107312
0.10769
0.108061
0.108423
0.108776
0.109118
0.109447
0.109761
0.110056
0.110329
0.110577
0.110793
0.110972
0.11111
0.111212
0.111279
0.111315
0.111322
0.111305
0.111266
0.111208
0.111134
0.104811
0.105233
0.105652
0.106067
0.106477
0.106882
0.107278
0.107664
0.108037
0.108396
0.108737
0.109056
0.109343
0.109593
0.109808
0.109992
0.110145
0.110271
0.110371
0.110447
0.110503
0.110539
0.102277
0.102715
0.103151
0.103586
0.104019
0.104449
0.104875
0.105295
0.105709
0.106113
0.106507
0.106886
0.107238
0.107557
0.107846
0.108105
0.108337
0.108544
0.108726
0.108886
0.109026
0.109146
0.0998422
0.100289
0.100735
0.101181
0.101626
0.102069
0.102509
0.102946
0.103378
0.103805
0.104226
0.104636
0.105022
0.105379
0.105708
0.106009
0.106286
0.106538
0.106768
0.106977
0.107166
0.107337
0.097554
0.0980073
0.0984604
0.0989129
0.0993645
0.099815
0.100264
0.10071
0.101154
0.101594
0.102029
0.102456
0.102863
0.103241
0.103593
0.10392
0.104223
0.104503
0.104762
0.105001
0.105221
0.105423
0.0953912
0.095855
0.0963182
0.0967806
0.097242
0.0977019
0.09816
0.0986159
0.0990691
0.099519
0.0999649
0.100403
0.100821
0.101211
0.101575
0.101915
0.102231
0.102526
0.1028
0.103054
0.103291
0.10351
0.0933314
0.0938079
0.0942837
0.0947586
0.0952324
0.0957048
0.0961753
0.0966435
0.0971087
0.0975702
0.0980271
0.0984755
0.0989029
0.0993024
0.0996757
0.100025
0.10035
0.100655
0.100939
0.101204
0.101451
0.101681
0.0913563
0.0918468
0.0923367
0.0928257
0.0933134
0.0937994
0.0942832
0.0947641
0.0952419
0.0957159
0.0961854
0.0966463
0.0970857
0.0974963
0.0978802
0.0982389
0.0985741
0.0988873
0.0991798
0.0994531
0.0997083
0.0999465
0.0894563
0.0899614
0.090466
0.0909697
0.0914721
0.0919728
0.0924714
0.0929672
0.0934598
0.0939486
0.0944328
0.0949082
0.0953615
0.0957853
0.0961815
0.0965518
0.0968978
0.0972212
0.0975233
0.0978055
0.098069
0.0983152
0.087621
0.0881397
0.0886586
0.0891771
0.0896947
0.0902111
0.0907255
0.0912375
0.0917464
0.0922516
0.0927523
0.0932441
0.0937132
0.094152
0.0945623
0.0949458
0.0953043
0.0956394
0.0959525
0.0962449
0.0965181
0.0967731
0.0858491
0.0863811
0.0869137
0.0874466
0.0879792
0.088511
0.0890413
0.0895697
0.0900953
0.0906175
0.0911354
0.0916445
0.0921306
0.0925854
0.093011
0.0934091
0.0937814
0.0941296
0.094455
0.0947591
0.0950431
0.0953085
0.0841322
0.0846771
0.0852234
0.0857705
0.086318
0.0868652
0.0874116
0.0879565
0.0884991
0.0890386
0.0895743
0.0901012
0.0906048
0.0910765
0.0915181
0.0919316
0.0923186
0.0926807
0.0930195
0.0933362
0.0936323
0.093909
0.0824602
0.0830181
0.0835782
0.0841399
0.0847026
0.0852658
0.0858286
0.0863905
0.0869505
0.087508
0.088062
0.0886074
0.0891291
0.0896182
0.0900765
0.090506
0.0909084
0.0912852
0.0916379
0.091968
0.0922769
0.0925657
0.0808144
0.0813867
0.0819619
0.0825395
0.0831189
0.0836993
0.0842801
0.0848603
0.0854393
0.0860161
0.0865897
0.0871549
0.0876959
0.0882034
0.0886793
0.0891256
0.089544
0.0899362
0.0903036
0.0906478
0.09097
0.0912716
0.0791708
0.0797597
0.0803524
0.0809484
0.081547
0.0821474
0.0827488
0.0833502
0.0839508
0.0845495
0.0851453
0.0857327
0.0862952
0.0868231
0.0873183
0.0877829
0.0882186
0.0886272
0.0890103
0.0893693
0.0897057
0.0900208
0.0775006
0.0781089
0.0787223
0.0793402
0.0799618
0.0805861
0.0812122
0.081839
0.0824655
0.0830904
0.0837125
0.0843261
0.0849138
0.0854653
0.0859828
0.0864682
0.0869235
0.0873504
0.0877507
0.088126
0.0884777
0.0888074
0.0757725
0.0764033
0.077041
0.0776849
0.0783339
0.078987
0.0796431
0.0803009
0.080959
0.081616
0.0822705
0.0829161
0.0835345
0.0841147
0.0846588
0.0851691
0.0856474
0.0860957
0.0865159
0.0869097
0.0872788
0.0876246
0.0739558
0.0746117
0.075277
0.0759507
0.0766318
0.0773191
0.0780112
0.0787065
0.0794034
0.0801
0.0807944
0.0814798
0.0821363
0.082752
0.0833291
0.0838699
0.0843764
0.0848507
0.0852948
0.0857106
0.0860999
0.0864644
0.0720237
0.072706
0.0734009
0.0741076
0.0748248
0.0755513
0.0762853
0.077025
0.0777683
0.078513
0.0792565
0.079991
0.0806948
0.0813549
0.0819732
0.082552
0.0830936
0.0836001
0.0840736
0.0845164
0.0849302
0.0853171
0.0699561
0.0706641
0.071389
0.0721298
0.0728856
0.0736549
0.0744359
0.0752262
0.0760236
0.076825
0.0776273
0.0784216
0.0791836
0.0798984
0.080568
0.0811942
0.0817794
0.082326
0.0828363
0.0833126
0.083757
0.0841717
0.0483739
0.0479802
0.0488238
0.0507491
0.0533437
0.0560743
0.110949
0.111401
0.111451
0.111104
0.1104
0.109411
0.120887
0.119135
0.117814
0.116957
0.116581
0.116675
0.124778
0.123801
0.122958
0.122306
0.121867
0.121639
0.126731
0.126309
0.125899
0.125507
0.125152
0.124862
0.121611
0.121632
0.121694
0.121766
0.121826
0.121847
0.11465
0.114514
0.114423
0.114368
0.114344
0.114342
0.110222
0.110038
0.109895
0.109792
0.109724
0.109689
0.109604
0.109435
0.109291
0.109176
0.10909
0.109032
0.110474
0.110349
0.110237
0.110138
0.110056
0.10999
0.111057
0.11098
0.110904
0.11083
0.110761
0.110696
0.110532
0.110485
0.110434
0.110379
0.110323
0.110266
0.109193
0.109166
0.109132
0.109091
0.109045
0.108993
0.107415
0.1074
0.107375
0.107342
0.1073
0.107251
0.105521
0.105512
0.105492
0.105462
0.105422
0.105371
0.103619
0.103613
0.103596
0.103566
0.103526
0.103475
0.101797
0.101792
0.101776
0.101747
0.101706
0.101654
0.100066
0.100063
0.100047
0.100019
0.0999791
0.0999269
0.0984398
0.0984382
0.0984238
0.0983968
0.0983574
0.0983058
0.096903
0.0969032
0.0968905
0.0968652
0.0968273
0.0967768
0.0954444
0.0954466
0.0954359
0.0954124
0.0953761
0.0953272
0.0940514
0.0940556
0.0940468
0.0940252
0.0939907
0.0939435
0.0927151
0.092721
0.092714
0.092694
0.0926611
0.0926155
0.0914281
0.0914354
0.0914297
0.0914111
0.0913796
0.0913353
0.0901844
0.0901927
0.0901881
0.0901705
0.09014
0.0900966
0.0889784
0.0889872
0.0889832
0.0889662
0.0889363
0.0888935
0.0878035
0.0878124
0.0878085
0.0877917
0.0877621
0.0877196
0.086652
0.0866606
0.0866564
0.0866393
0.0866096
0.0865671
0.0855149
0.0855225
0.0855174
0.0854998
0.0854696
0.0854269
0.0843813
0.0843871
0.0843806
0.084362
0.0843313
0.0842885
0.05829
0.0601714
0.0619953
0.0638586
0.0658204
0.0678991
0.0700778
0.072314
0.0745495
0.0767168
0.0787438
0.0805431
0.0820142
0.0831118
0.0838556
0.0842926
0.0844719
0.084441
0.0842441
0.0839145
0.0834764
0.0829498
0.108454
0.107543
0.106498
0.105335
0.103985
0.102421
0.100663
0.0989712
0.0981182
0.0978858
0.0981923
0.0988214
0.0994992
0.100007
0.100342
0.100547
0.100639
0.100614
0.100398
0.100008
0.099465
0.0987903
0.117204
0.118048
0.119102
0.120192
0.121317
0.122496
0.123753
0.125137
0.126516
0.127756
0.128798
0.129563
0.12996
0.129963
0.129584
0.128849
0.127832
0.126682
0.125551
0.124472
0.123429
0.122402
0.121649
0.121826
0.122096
0.122518
0.123039
0.123624
0.124198
0.124845
0.125441
0.126021
0.126605
0.127196
0.127764
0.128256
0.128619
0.128807
0.128832
0.12861
0.128069
0.127328
0.126448
0.125476
0.124681
0.124571
0.124515
0.124512
0.124554
0.124623
0.124726
0.124857
0.12499
0.125072
0.125091
0.125053
0.124932
0.124749
0.124515
0.124246
0.123902
0.123525
0.123231
0.123027
0.122913
0.122891
0.121726
0.121494
0.121238
0.120966
0.120684
0.12039
0.120073
0.119708
0.119293
0.118876
0.118448
0.117997
0.117525
0.117054
0.116583
0.11612
0.115698
0.115336
0.11505
0.114846
0.114728
0.114696
0.114247
0.114052
0.113866
0.113688
0.113518
0.113352
0.113189
0.113023
0.112853
0.112676
0.11249
0.112294
0.112096
0.111905
0.111729
0.111578
0.111461
0.111385
0.111356
0.111376
0.111446
0.111568
0.10964
0.109564
0.10951
0.109477
0.109464
0.109466
0.109482
0.109508
0.109539
0.109572
0.109605
0.109636
0.109667
0.109701
0.109744
0.109799
0.10987
0.109962
0.110075
0.110212
0.110372
0.110554
0.109023
0.109052
0.109099
0.109163
0.109242
0.109334
0.109439
0.109553
0.109673
0.109798
0.109927
0.110058
0.110187
0.110313
0.110436
0.110558
0.110679
0.1108
0.11092
0.111039
0.111156
0.111268
0.109986
0.110032
0.110085
0.110141
0.110201
0.110262
0.110324
0.110384
0.110442
0.110496
0.110542
0.110579
0.110605
0.110621
0.110626
0.11062
0.110604
0.110577
0.11054
0.110493
0.110434
0.110364
0.110656
0.110633
0.110606
0.110573
0.110532
0.110485
0.110429
0.110364
0.110291
0.110205
0.110107
0.109994
0.109869
0.109734
0.109589
0.109434
0.109269
0.109094
0.108908
0.108713
0.108507
0.108291
0.110187
0.110081
0.109965
0.109838
0.1097
0.10955
0.109387
0.109212
0.109023
0.108818
0.108595
0.108352
0.108096
0.107832
0.10756
0.10728
0.106994
0.106701
0.106401
0.106094
0.105781
0.105463
0.108881
0.108707
0.108521
0.108321
0.108107
0.107878
0.107635
0.107375
0.107098
0.106802
0.106485
0.106148
0.105799
0.105446
0.105088
0.104726
0.104361
0.103991
0.103618
0.103241
0.102861
0.102478
0.107118
0.106899
0.106667
0.10642
0.106158
0.105879
0.105583
0.105268
0.104934
0.104579
0.104203
0.103806
0.103398
0.102988
0.102575
0.102161
0.101745
0.101328
0.100909
0.10049
0.100071
0.0996514
0.105222
0.104973
0.10471
0.10443
0.104134
0.103821
0.103489
0.103137
0.102766
0.102373
0.101958
0.101522
0.101077
0.100631
0.100185
0.0997391
0.0992936
0.0988488
0.0984048
0.0979616
0.0975194
0.0970782
0.103315
0.103049
0.102767
0.102469
0.102154
0.101821
0.101469
0.101098
0.100706
0.100292
0.0998546
0.0993968
0.0989294
0.0984624
0.097996
0.0975305
0.0970662
0.096603
0.0961412
0.0956807
0.0952218
0.0947646
0.101488
0.10121
0.100917
0.100607
0.100281
0.0999361
0.0995725
0.099189
0.0987843
0.0983573
0.0979063
0.0974328
0.0969489
0.0964653
0.0959825
0.0955009
0.0950209
0.0945423
0.0940651
0.0935894
0.0931151
0.0926424
0.0997569
0.0994721
0.0991718
0.0988549
0.0985205
0.0981676
0.0977952
0.0974023
0.0969875
0.0965494
0.0960866
0.0956009
0.0951045
0.0946082
0.0941123
0.0936169
0.0931223
0.0926285
0.0921357
0.091644
0.0911535
0.0906645
0.0981329
0.0978424
0.0975359
0.0972123
0.0968707
0.09651
0.0961292
0.0957269
0.095302
0.0948528
0.094378
0.093879
0.0933686
0.0928576
0.0923462
0.0918349
0.0913237
0.090813
0.0903029
0.0897938
0.0892859
0.0887796
0.0966014
0.096305
0.0959919
0.0956611
0.0953115
0.0949421
0.0945517
0.0941389
0.0937023
0.0932404
0.0927514
0.0922371
0.0917102
0.0911822
0.0906535
0.0901245
0.0895955
0.0890671
0.0885395
0.088013
0.0874882
0.0869651
0.095149
0.0948454
0.0945245
0.0941851
0.0938261
0.0934464
0.0930447
0.0926196
0.0921695
0.0916929
0.0911879
0.0906562
0.0901112
0.0895648
0.0890175
0.0884699
0.0879224
0.0873755
0.0868297
0.0862855
0.0857431
0.0852031
0.093762
0.0934498
0.0931196
0.09277
0.0924001
0.0920084
0.0915937
0.0911545
0.0906892
0.0901961
0.0896732
0.0891225
0.0885578
0.0879916
0.0874244
0.086857
0.0862899
0.0857238
0.0851592
0.0845966
0.0840366
0.0834796
0.0924299
0.0921078
0.0917668
0.0914056
0.0910231
0.0906178
0.0901885
0.0897335
0.0892512
0.0887398
0.0881973
0.0876258
0.0870396
0.0864519
0.0858634
0.0852748
0.0846869
0.0841005
0.0835161
0.0829345
0.0823563
0.0817821
0.0911449
0.0908114
0.0904582
0.0900838
0.0896871
0.0892666
0.0888208
0.0883481
0.0878468
0.0873149
0.0867505
0.0861556
0.0855456
0.084934
0.0843217
0.0837097
0.0830989
0.0824901
0.0818843
0.081282
0.0806842
0.0800913
0.0899005
0.0895542
0.0891871
0.0887979
0.088385
0.0879471
0.0874825
0.0869895
0.0864663
0.0859108
0.0853211
0.0846995
0.0840619
0.0834227
0.0827832
0.0821443
0.0815073
0.0808731
0.0802428
0.0796173
0.0789973
0.0783837
0.0886907
0.0883298
0.0879467
0.0875402
0.0871087
0.0866505
0.0861638
0.0856469
0.0850978
0.0845144
0.0838947
0.0832411
0.0825708
0.0818989
0.081227
0.0805565
0.0798887
0.0792248
0.0785662
0.0779138
0.0772686
0.0766315
0.0875088
0.0871306
0.0867289
0.086302
0.0858481
0.0853655
0.0848523
0.0843064
0.0837259
0.0831086
0.0824523
0.08176
0.08105
0.0803388
0.0796281
0.0789199
0.0782157
0.0775172
0.0768257
0.0761426
0.075469
0.0748058
0.0863466
0.085948
0.0855237
0.085072
0.0845909
0.0840784
0.0835325
0.082951
0.0823318
0.0816727
0.0809717
0.0802321
0.0794739
0.0787153
0.0779584
0.0772057
0.0764592
0.0757209
0.0749923
0.0742751
0.0735704
0.0728792
0.0851946
0.0847711
0.0843192
0.0838368
0.083322
0.0827725
0.0821861
0.0815605
0.0808936
0.0801832
0.0794274
0.0786304
0.0778146
0.0769997
0.0761889
0.0753851
0.0745907
0.0738082
0.0730393
0.0722858
0.0715489
0.0708295
0.0840419
0.0835873
0.0831009
0.0825805
0.0820238
0.0814285
0.0807921
0.0801124
0.079387
0.0786142
0.0777925
0.0769272
0.0760437
0.075164
0.0742921
0.0734314
0.0725852
0.0717558
0.0709454
0.0701555
0.0693874
0.0686418
0.0824196
0.0819154
0.0813596
0.0807376
0.0800297
0.0792157
0.0782434
0.0772218
0.0762836
0.0753136
0.0746044
0.074266
0.074307
0.0746272
0.0750301
0.0752084
0.0748925
0.0742091
0.0730886
0.0716675
0.0702451
0.0669921
0.0637362
0.0608053
0.0582931
0.0551229
0.0506667
0.0450646
0.038601
0.0316925
0.0246907
0.017622
0.010441
0.00365648
0.000908448
0.0981062
0.097455
0.0967536
0.0960604
0.0952898
0.094506
0.0937437
0.0930277
0.0923891
0.0918701
0.0915371
0.0914933
0.091847
0.0923029
0.092477
0.0909649
0.0880369
0.0842559
0.0801417
0.0765934
0.0760148
0.0778455
0.0840238
0.0916929
0.0988277
0.10191
0.104119
0.105052
0.102092
0.0925516
0.0762161
0.0555751
0.0335738
0.0135003
0.00154882
0.121506
0.120702
0.119787
0.118743
0.117549
0.116172
0.11458
0.11278
0.110789
0.108675
0.106293
0.103329
0.0995234
0.0947254
0.0875312
0.0793717
0.0721135
0.0659325
0.059588
0.0572368
0.0614296
0.0727206
0.0850256
0.0967921
0.105502
0.108863
0.106629
0.099854
0.0897622
0.077314
0.0626368
0.0462877
0.0290623
0.0125432
0.00136952
0.124631
0.12392
0.123115
0.122232
0.121249
0.120208
0.119162
0.118157
0.117056
0.116044
0.113671
0.109468
0.102797
0.0912449
0.0782877
0.0694704
0.0600149
0.053644
0.0500517
0.0511983
0.0562409
0.0629381
0.0687434
0.0718064
0.0734044
0.0733272
0.0711503
0.0674239
0.0607193
0.0520222
0.0419359
0.0308524
0.019288
0.00817586
0.0011225
0.12299
0.123186
0.123483
0.123896
0.124424
0.125031
0.125596
0.125775
0.125209
0.123877
0.121502
0.11854
0.115157
0.11204
0.110283
0.109443
0.104407
0.0924274
0.0772541
0.0610284
0.0472582
0.0395086
0.042973
0.0504651
0.0561779
0.0579743
0.0572321
0.053844
0.0485926
0.0418563
0.0340529
0.0255975
0.016708
0.00769589
0.00088577
0.114778
0.114919
0.11509
0.115307
0.115596
0.116005
0.116609
0.117524
0.118738
0.120236
0.121931
0.123504
0.12443
0.124234
0.12227
0.117371
0.107502
0.0951166
0.0797013
0.0637682
0.0487474
0.0344373
0.0249054
0.0207925
0.0209912
0.0217222
0.0213095
0.0205534
0.0186292
0.0160323
0.0130454
0.00975301
0.00632331
0.0028526
0.000529587
0.111718
0.111894
0.112112
0.11239
0.112743
0.113183
0.113719
0.114336
0.114985
0.115539
0.115855
0.116146
0.116357
0.11652
0.116275
0.114933
0.112022
0.106797
0.0978632
0.0867462
0.0745481
0.061663
0.0489313
0.0379667
0.0291009
0.0222436
0.0173335
0.0140184
0.0118855
0.010346
0.00860945
0.00658092
0.0043572
0.002105
0.00029283
0.110692
0.110803
0.110938
0.111104
0.111307
0.111558
0.111864
0.112234
0.112664
0.113172
0.113728
0.114226
0.114495
0.114301
0.113362
0.111576
0.109014
0.105545
0.100872
0.0946995
0.0869066
0.0774465
0.0669505
0.0570824
0.047587
0.0383171
0.0292556
0.0209597
0.0144979
0.01015
0.00744653
0.00533601
0.00333303
0.00141932
0.000206451
0.111343
0.1114
0.111465
0.111541
0.111632
0.111741
0.111865
0.111998
0.112118
0.112177
0.112122
0.111884
0.111409
0.110636
0.10946
0.10776
0.105475
0.102484
0.0986465
0.0937699
0.0875764
0.0796201
0.0707254
0.0622418
0.054419
0.0472292
0.0405548
0.0342293
0.0282011
0.0224283
0.0169091
0.0116628
0.00680696
0.00266922
0.000310323
0.110312
0.110293
0.110267
0.110232
0.110186
0.110126
0.110044
0.109932
0.109774
0.109551
0.109235
0.108785
0.108139
0.107194
0.105798
0.103878
0.101505
0.0986705
0.0953175
0.0913353
0.086567
0.0806471
0.0736519
0.0662997
0.0587149
0.0510715
0.0435258
0.0361843
0.029192
0.0226596
0.016669
0.0112817
0.00655629
0.00263144
0.000263727
0.108145
0.108079
0.108001
0.107907
0.107794
0.107659
0.107492
0.107286
0.107021
0.106673
0.106201
0.105556
0.104683
0.10351
0.101956
0.100024
0.0977622
0.0951106
0.0919843
0.0882631
0.08377
0.0781018
0.0712311
0.0638396
0.0561193
0.0483367
0.0407183
0.0334848
0.0267791
0.020668
0.0151697
0.0102758
0.00598455
0.00239934
0.000264092
0.105253
0.105154
0.10504
0.104905
0.104745
0.104553
0.104321
0.104037
0.103684
0.103241
0.102678
0.10196
0.10104
0.0998558
0.0983307
0.0964496
0.0942367
0.0916445
0.0886187
0.0850636
0.0808229
0.0755336
0.0691913
0.0624165
0.0553477
0.0481902
0.0410853
0.0341669
0.0275887
0.0214515
0.0158219
0.0107468
0.00627785
0.00254867
0.000237767
0.102224
0.102099
0.101955
0.101788
0.101594
0.101366
0.101096
0.100773
0.100382
0.0999013
0.0993005
0.0985462
0.0975931
0.0963799
0.0948341
0.0929578
0.090784
0.0882637
0.0853182
0.0818243
0.0776113
0.072311
0.0659237
0.0591007
0.0520107
0.0448724
0.037864
0.0311659
0.0249189
0.0192067
0.0140682
0.00951236
0.00554457
0.00224599
0.00022333
0.0993718
0.0992284
0.0990638
0.0988738
0.0986531
0.0983952
0.0980915
0.0977309
0.0972991
0.0967775
0.0961419
0.0953604
0.0943904
0.0931744
0.0916443
0.0897978
0.0876671
0.0851839
0.0822664
0.078801
0.0746456
0.0694741
0.0633317
0.0568567
0.0501888
0.0435102
0.0369434
0.0306089
0.0246326
0.0190935
0.0140462
0.00952803
0.00557606
0.0022869
0.000209034
0.096781
0.0966227
0.0964416
0.0962335
0.0959934
0.0957148
0.0953895
0.0950066
0.0945518
0.0940059
0.0933462
0.0925425