/*--------------------------------*- C++ -*----------------------------------*\
  =========                 |
  \\      /  F ield         | OpenFOAM: The Open Source CFD Toolbox
   \\    /   O peration     | Website:  https://openfoam.org
    \\  /    A nd           | Version:  8
     \\/     M anipulation  |
\*---------------------------------------------------------------------------*/
FoamFile
{
    version     2.0;
    format      ascii;
    class       volScalarField;
    location    "0.14";
    object      T;
}
// * * * * * * * * * * * * * * * * * * * * * * * * * * * * * * * * * * * * * //

dimensions      [0 0 0 1 0 0 0];

internalField   nonuniform List<scalar> 
15677
(
298.191
298.146
298.134
298.142
298.165
298.2
298.248
298.309
298.379
298.473
298.574
298.647
298.652
298.576
298.406
298.234
298.079
297.958
297.854
297.76
297.69
297.674
297.705
297.783
297.897
298.019
298.148
298.25
298.331
298.391
298.433
298.46
298.477
298.486
298.491
298.549
298.428
298.344
298.298
298.286
298.327
298.453
298.719
299.179
299.781
300.383
300.708
300.758
300.535
300.138
299.685
299.242
298.884
298.628
298.466
298.377
298.356
298.378
298.441
298.539
298.649
298.764
298.86
298.94
299.004
299.056
299.099
299.135
299.164
299.186
302.165
301.84
301.551
301.261
300.947
300.606
300.225
299.836
299.47
299.172
298.996
298.877
298.738
298.631
298.595
298.625
298.705
298.834
299.013
299.242
299.514
299.769
299.978
300.14
300.257
300.332
300.374
300.392
300.393
300.384
300.369
300.352
300.335
300.319
300.308
302.21
302.114
301.985
301.852
301.709
301.556
301.383
301.16
300.862
300.545
300.369
300.407
300.565
300.682
300.717
300.75
300.753
300.715
300.628
300.518
300.403
300.305
300.248
300.226
300.226
300.237
300.255
300.275
300.297
300.32
300.342
300.363
300.382
300.401
300.418
300.377
300.367
300.368
300.375
300.385
300.401
300.422
300.453
300.498
300.56
300.644
300.736
300.77
300.743
300.68
300.622
300.566
300.519
300.484
300.465
300.462
300.475
300.504
300.552
300.613
300.682
300.749
300.811
300.865
300.911
300.949
300.981
301.006
301.026
301.041
300.717
300.716
300.729
300.756
300.796
300.85
300.923
301.017
301.125
301.23
301.304
301.334
301.322
301.271
301.199
301.121
301.043
300.972
300.912
300.864
300.83
300.812
300.807
300.809
300.814
300.82
300.827
300.835
300.842
300.848
300.853
300.858
300.861
300.864
300.866
301.48
301.44
301.4
301.356
301.301
301.241
301.177
301.119
301.075
301.062
301.08
301.108
301.114
301.1
301.074
301.047
301.021
300.996
300.975
300.956
300.942
300.936
300.939
300.948
300.961
300.975
300.988
301
301.011
301.021
301.03
301.038
301.045
301.05
301.055
301.475
301.467
301.456
301.443
301.43
301.416
301.4
301.384
301.372
301.365
301.363
301.357
301.341
301.311
301.274
301.239
301.208
301.181
301.159
301.14
301.125
301.114
301.105
301.098
301.094
301.092
301.091
301.09
301.09
301.09
301.091
301.091
301.092
301.093
301.093
301.154
301.166
301.176
301.184
301.193
301.201
301.209
301.218
301.225
301.232
301.238
301.241
301.241
301.238
301.231
301.223
301.214
301.205
301.196
301.188
301.182
301.178
301.176
301.176
301.177
301.179
301.18
301.182
301.184
301.186
301.187
301.189
301.189
301.19
301.19
301.331
301.322
301.315
301.31
301.306
301.303
301.301
301.299
301.298
301.298
301.298
301.299
301.298
301.296
301.293
301.288
301.283
301.278
301.272
301.267
301.261
301.257
301.253
301.251
301.249
301.248
301.248
301.247
301.247
301.247
301.247
301.247
301.246
301.246
301.246
301.206
301.212
301.217
301.222
301.228
301.233
301.238
301.244
301.249
301.254
301.259
301.264
301.268
301.272
301.275
301.278
301.28
301.281
301.282
301.282
301.283
301.283
301.284
301.285
301.286
301.287
301.288
301.288
301.289
301.29
301.29
301.291
301.291
301.291
301.292
301.3
301.296
301.293
301.291
301.289
301.288
301.287
301.287
301.288
301.289
301.291
301.293
301.295
301.298
301.301
301.303
301.305
301.307
301.309
301.31
301.311
301.313
301.314
301.315
301.316
301.317
301.318
301.319
301.319
301.32
301.32
301.321
301.321
301.321
301.321
301.249
301.252
301.254
301.256
301.259
301.261
301.264
301.267
301.27
301.273
301.277
301.281
301.285
301.29
301.294
301.299
301.303
301.307
301.311
301.314
301.318
301.321
301.324
301.326
301.328
301.33
301.331
301.333
301.334
301.335
301.336
301.336
301.337
301.337
301.338
301.289
301.288
301.287
301.286
301.286
301.286
301.286
301.286
301.287
301.289
301.29
301.292
301.295
301.298
301.302
301.305
301.309
301.313
301.316
301.32
301.324
301.327
301.33
301.333
301.335
301.337
301.339
301.34
301.342
301.343
301.343
301.344
301.345
301.345
301.346
301.263
301.264
301.266
301.267
301.269
301.27
301.272
301.274
301.276
301.279
301.281
301.285
301.288
301.292
301.297
301.301
301.305
301.309
301.314
301.318
301.322
301.326
301.329
301.332
301.335
301.337
301.339
301.34
301.341
301.343
301.344
301.344
301.345
301.346
301.346
301.278
301.278
301.277
301.277
301.278
301.278
301.278
301.279
301.28
301.281
301.283
301.285
301.288
301.291
301.295
301.299
301.303
301.307
301.311
301.315
301.319
301.322
301.326
301.329
301.331
301.333
301.335
301.337
301.338
301.339
301.34
301.341
301.342
301.343
301.343
301.267
301.267
301.267
301.268
301.268
301.269
301.27
301.272
301.273
301.275
301.277
301.279
301.282
301.285
301.289
301.293
301.297
301.301
301.304
301.308
301.312
301.316
301.319
301.322
301.325
301.327
301.328
301.33
301.331
301.333
301.334
301.334
301.335
301.336
301.336
301.265
301.266
301.266
301.266
301.267
301.267
301.268
301.269
301.27
301.271
301.273
301.275
301.277
301.281
301.284
301.287
301.291
301.294
301.298
301.302
301.305
301.309
301.312
301.315
301.317
301.319
301.321
301.322
301.324
301.325
301.326
301.326
301.327
301.328
301.328
301.258
301.259
301.259
301.26
301.26
301.261
301.262
301.263
301.264
301.265
301.267
301.269
301.271
301.274
301.277
301.281
301.284
301.287
301.291
301.294
301.298
301.301
301.304
301.306
301.309
301.311
301.312
301.314
301.315
301.316
301.317
301.318
301.318
301.319
301.32
301.252
301.253
301.254
301.254
301.255
301.255
301.256
301.257
301.258
301.259
301.261
301.263
301.265
301.268
301.271
301.274
301.277
301.28
301.283
301.287
301.29
301.293
301.296
301.298
301.3
301.302
301.304
301.305
301.306
301.307
301.308
301.309
301.31
301.31
301.311
301.246
301.247
301.247
301.247
301.248
301.249
301.249
301.25
301.251
301.252
301.254
301.256
301.258
301.261
301.264
301.267
301.27
301.273
301.276
301.279
301.282
301.285
301.288
301.29
301.292
301.294
301.295
301.296
301.298
301.299
301.299
301.3
301.301
301.301
301.302
301.238
301.239
301.239
301.24
301.241
301.242
301.242
301.243
301.244
301.246
301.247
301.249
301.251
301.254
301.256
301.259
301.262
301.265
301.268
301.271
301.274
301.277
301.28
301.282
301.284
301.285
301.287
301.288
301.289
301.29
301.291
301.292
301.292
301.293
301.293
301.231
301.232
301.232
301.233
301.234
301.234
301.235
301.236
301.237
301.238
301.24
301.242
301.244
301.246
301.249
301.252
301.255
301.258
301.261
301.264
301.266
301.269
301.272
301.274
301.276
301.277
301.279
301.28
301.281
301.282
301.283
301.283
301.284
301.284
301.285
301.223
301.224
301.225
301.225
301.226
301.227
301.228
301.229
301.23
301.231
301.232
301.234
301.236
301.239
301.242
301.245
301.247
301.25
301.253
301.256
301.259
301.261
301.264
301.266
301.268
301.269
301.271
301.272
301.273
301.274
301.275
301.275
301.276
301.276
301.277
301.215
301.216
301.217
301.218
301.218
301.219
301.22
301.221
301.222
301.223
301.225
301.227
301.229
301.232
301.234
301.237
301.24
301.243
301.246
301.249
301.251
301.254
301.256
301.258
301.26
301.262
301.263
301.264
301.265
301.266
301.267
301.267
301.268
301.269
301.269
301.207
301.208
301.209
301.21
301.211
301.212
301.212
301.213
301.215
301.216
301.218
301.219
301.222
301.224
301.227
301.23
301.233
301.236
301.239
301.241
301.244
301.247
301.249
301.251
301.253
301.254
301.256
301.257
301.258
301.259
301.259
301.26
301.261
301.261
301.262
301.2
301.201
301.202
301.202
301.203
301.204
301.205
301.206
301.207
301.209
301.21
301.212
301.214
301.217
301.22
301.223
301.226
301.229
301.231
301.234
301.237
301.24
301.242
301.244
301.246
301.247
301.249
301.25
301.251
301.252
301.252
301.253
301.254
301.254
301.254
301.192
301.193
301.194
301.195
301.195
301.196
301.197
301.198
301.2
301.201
301.203
301.205
301.207
301.21
301.213
301.216
301.219
301.222
301.225
301.228
301.23
301.233
301.235
301.237
301.239
301.241
301.242
301.243
301.244
301.245
301.246
301.246
301.247
301.247
301.248
301.184
301.185
301.186
301.187
301.188
301.189
301.19
301.191
301.192
301.194
301.196
301.198
301.2
301.203
301.206
301.209
301.212
301.215
301.218
301.221
301.224
301.227
301.229
301.231
301.233
301.234
301.235
301.237
301.238
301.238
301.239
301.24
301.24
301.241
301.241
301.176
301.178
301.179
301.18
301.181
301.182
301.183
301.184
301.185
301.187
301.189
301.191
301.194
301.197
301.2
301.203
301.206
301.209
301.212
301.215
301.218
301.221
301.223
301.225
301.227
301.228
301.229
301.231
301.232
301.232
301.233
301.234
301.234
301.235
301.235
298.497
298.498
298.493
298.482
298.466
298.445
298.42
298.392
298.361
298.328
298.292
298.257
298.224
298.193
298.165
298.14
298.117
298.098
298.083
298.072
298.064
298.058
299.205
299.216
299.218
299.212
299.197
299.173
299.141
299.105
299.063
299.018
298.971
298.921
298.87
298.82
298.773
298.73
298.694
298.664
298.641
298.622
298.608
298.593
300.293
300.274
300.259
300.248
300.242
300.241
300.249
300.266
300.295
300.336
300.39
300.454
300.523
300.594
300.662
300.725
300.783
300.833
300.875
300.908
300.933
300.95
300.437
300.455
300.47
300.478
300.477
300.466
300.446
300.417
300.384
300.35
300.315
300.281
300.249
300.222
300.197
300.176
300.155
300.137
300.119
300.102
300.086
300.072
301.054
301.064
301.069
301.07
301.068
301.063
301.055
301.044
301.03
301.012
300.992
300.974
300.959
300.948
300.941
300.939
300.939
300.942
300.946
300.949
300.952
300.954
300.869
300.871
300.873
300.874
300.874
300.874
300.873
300.872
300.87
300.867
300.863
300.858
300.852
300.845
300.838
300.832
300.825
300.82
300.814
300.809
300.804
300.8
301.058
301.061
301.063
301.066
301.067
301.068
301.069
301.068
301.068
301.067
301.065
301.063
301.061
301.059
301.057
301.055
301.054
301.052
301.05
301.048
301.045
301.043
301.093
301.091
301.089
301.087
301.086
301.085
301.083
301.082
301.081
301.079
301.078
301.076
301.075
301.073
301.071
301.07
301.068
301.066
301.064
301.062
301.06
301.058
301.189
301.186
301.183
301.181
301.178
301.176
301.174
301.172
301.17
301.168
301.167
301.166
301.164
301.164
301.163
301.162
301.161
301.161
301.16
301.159
301.158
301.157
301.244
301.241
301.238
301.235
301.232
301.228
301.225
301.222
301.219
301.216
301.213
301.211
301.208
301.206
301.205
301.203
301.202
301.2
301.199
301.198
301.197
301.195
301.29
301.288
301.286
301.283
301.281
301.278
301.276
301.273
301.27
301.268
301.265
301.263
301.26
301.258
301.257
301.255
301.254
301.252
301.251
301.25
301.249
301.248
301.32
301.319
301.317
301.315
301.313
301.31
301.308
301.305
301.303
301.3
301.298
301.295
301.293
301.291
301.289
301.287
301.285
301.283
301.282
301.28
301.279
301.278
301.337
301.337
301.336
301.335
301.334
301.332
301.331
301.329
301.328
301.326
301.324
301.322
301.32
301.318
301.316
301.315
301.313
301.312
301.31
301.309
301.307
301.306
301.346
301.346
301.346
301.346
301.345
301.345
301.344
301.343
301.342
301.341
301.34
301.339
301.337
301.336
301.334
301.333
301.332
301.33
301.329
301.328
301.326
301.325
301.347
301.348
301.348
301.349
301.349
301.35
301.35
301.35
301.35
301.349
301.349
301.348
301.348
301.347
301.346
301.345
301.344
301.343
301.342
301.341
301.34
301.339
301.344
301.345
301.346
301.347
301.348
301.349
301.35
301.35
301.351
301.351
301.352
301.352
301.352
301.352
301.351
301.351
301.351
301.35
301.35
301.349
301.348
301.348
301.338
301.339
301.341
301.342
301.344
301.345
301.346
301.347
301.349
301.349
301.35
301.351
301.352
301.352
301.352
301.352
301.352
301.352
301.352
301.352
301.352
301.352
301.33
301.331
301.333
301.335
301.337
301.338
301.34
301.342
301.343
301.345
301.346
301.347
301.348
301.349
301.35
301.351
301.351
301.351
301.352
301.352
301.352
301.352
301.321
301.323
301.325
301.327
301.329
301.331
301.333
301.334
301.336
301.338
301.34
301.341
301.343
301.344
301.345
301.346
301.347
301.348
301.349
301.349
301.35
301.35
301.312
301.314
301.316
301.318
301.32
301.322
301.324
301.327
301.329
301.331
301.333
301.334
301.336
301.338
301.339
301.341
301.342
301.343
301.344
301.345
301.345
301.346
301.303
301.305
301.307
301.31
301.312
301.314
301.316
301.318
301.321
301.323
301.325
301.327
301.329
301.331
301.333
301.334
301.336
301.337
301.338
301.339
301.34
301.341
301.295
301.297
301.299
301.301
301.303
301.306
301.308
301.31
301.313
301.315
301.317
301.319
301.322
301.324
301.325
301.327
301.329
301.33
301.332
301.333
301.334
301.335
301.286
301.288
301.291
301.293
301.295
301.298
301.3
301.302
301.305
301.307
301.31
301.312
301.314
301.316
301.318
301.32
301.322
301.324
301.325
301.326
301.328
301.329
301.278
301.28
301.283
301.285
301.288
301.29
301.292
301.295
301.297
301.3
301.302
301.305
301.307
301.309
301.311
301.313
301.315
301.317
301.318
301.32
301.321
301.323
301.27
301.273
301.275
301.278
301.28
301.282
301.285
301.287
301.29
301.292
301.295
301.297
301.3
301.302
301.304
301.306
301.308
301.31
301.312
301.314
301.315
301.317
301.263
301.265
301.268
301.27
301.273
301.275
301.278
301.28
301.283
301.285
301.288
301.291
301.293
301.296
301.298
301.3
301.302
301.304
301.306
301.307
301.309
301.31
301.256
301.258
301.261
301.263
301.266
301.268
301.271
301.274
301.276
301.279
301.281
301.284
301.287
301.289
301.291
301.294
301.296
301.298
301.3
301.301
301.303
301.305
301.249
301.252
301.254
301.257
301.259
301.262
301.264
301.267
301.27
301.272
301.275
301.278
301.281
301.283
301.285
301.288
301.29
301.292
301.294
301.296
301.297
301.299
301.243
301.245
301.248
301.25
301.253
301.256
301.258
301.261
301.264
301.266
301.269
301.272
301.275
301.277
301.28
301.282
301.284
301.286
301.288
301.29
301.292
301.294
301.237
301.239
301.242
301.244
301.247
301.25
301.252
301.255
301.258
301.261
301.264
301.266
301.269
301.272
301.274
301.276
301.279
301.281
301.283
301.285
301.287
301.288
298.049
298.032
298.005
297.972
297.936
297.903
298.579
298.558
298.525
298.482
298.435
298.392
300.966
300.979
300.984
300.981
300.971
300.954
300.058
300.046
300.038
300.033
300.032
300.034
300.958
300.964
300.966
300.964
300.959
300.949
300.796
300.793
300.79
300.787
300.785
300.782
301.043
301.044
301.045
301.046
301.045
301.044
301.056
301.057
301.057
301.058
301.059
301.06
301.158
301.161
301.163
301.165
301.167
301.169
301.196
301.197
301.199
301.201
301.203
301.205
301.248
301.25
301.252
301.254
301.255
301.257
301.278
301.279
301.28
301.281
301.282
301.283
301.306
301.306
301.307
301.308
301.308
301.309
301.324
301.325
301.325
301.325
301.326
301.326
301.339
301.339
301.339
301.339
301.339
301.339
301.347
301.347
301.347
301.347
301.347
301.347
301.351
301.351
301.351
301.351
301.35
301.35
301.352
301.352
301.351
301.351
301.351
301.351
301.35
301.35
301.35
301.349
301.349
301.349
301.346
301.346
301.346
301.346
301.345
301.345
301.341
301.341
301.341
301.341
301.34
301.34
301.336
301.335
301.335
301.335
301.335
301.334
301.33
301.329
301.329
301.329
301.329
301.328
301.323
301.323
301.323
301.323
301.322
301.322
301.317
301.317
301.317
301.317
301.316
301.316
301.311
301.311
301.311
301.311
301.31
301.31
301.305
301.305
301.305
301.305
301.305
301.304
301.3
301.3
301.299
301.299
301.299
301.299
301.294
301.294
301.294
301.294
301.294
301.293
301.289
301.289
301.289
301.289
301.289
301.288
297.878
297.86
297.852
297.853
297.864
297.885
297.914
297.951
297.996
298.047
298.103
298.164
298.226
298.286
298.341
298.392
298.436
298.473
298.503
298.526
298.54
298.548
298.37
298.364
298.369
298.384
298.407
298.436
298.469
298.503
298.537
298.569
298.599
298.625
298.647
298.666
298.682
298.694
298.7
298.703
298.701
298.693
298.679
298.659
300.938
300.922
300.9
300.871
300.835
300.79
300.735
300.668
300.59
300.5
300.4
300.292
300.183
300.079
299.982
299.896
299.822
299.759
299.707
299.664
299.629
299.598
300.038
300.043
300.048
300.053
300.057
300.06
300.06
300.057
300.052
300.043
300.032
300.021
300.011
300.003
299.997
299.994
299.992
299.99
299.985
299.976
299.962
299.943
300.94
300.935
300.927
300.916
300.904
300.891
300.878
300.865
300.853
300.844
300.837
300.834
300.833
300.834
300.834
300.832
300.825
300.814
300.798
300.777
300.752
300.725
300.78
300.78
300.779
300.778
300.777
300.776
300.776
300.775
300.775
300.775
300.775
300.776
300.777
300.778
300.78
300.782
300.784
300.787
300.791
300.795
300.8
300.807
301.044
301.047
301.049
301.052
301.054
301.056
301.059
301.061
301.064
301.067
301.07
301.073
301.077
301.081
301.084
301.088
301.092
301.096
301.101
301.105
301.11
301.116
301.062
301.066
301.07
301.073
301.077
301.081
301.085
301.089
301.093
301.098
301.103
301.108
301.113
301.119
301.125
301.13
301.136
301.142
301.148
301.154
301.16
301.166
301.172
301.177
301.181
301.186
301.191
301.196
301.201
301.206
301.211
301.216
301.221
301.226
301.231
301.236
301.241
301.245
301.25
301.254
301.257
301.261
301.264
301.268
301.208
301.213
301.217
301.221
301.225
301.229
301.233
301.237
301.241
301.245
301.249
301.253
301.257
301.26
301.264
301.267
301.27
301.273
301.275
301.278
301.28
301.281
301.259
301.263
301.266
301.27
301.273
301.277
301.28
301.283
301.286
301.29
301.293
301.296
301.299
301.301
301.303
301.306
301.307
301.309
301.311
301.312
301.313
301.315
301.285
301.288
301.291
301.293
301.296
301.299
301.301
301.303
301.306
301.308
301.31
301.312
301.314
301.315
301.317
301.318
301.319
301.32
301.321
301.321
301.322
301.322
301.31
301.313
301.315
301.317
301.319
301.32
301.322
301.324
301.325
301.327
301.328
301.33
301.331
301.332
301.332
301.333
301.333
301.334
301.334
301.334
301.334
301.334
301.327
301.328
301.33
301.331
301.332
301.334
301.335
301.336
301.336
301.337
301.338
301.338
301.338
301.339
301.339
301.338
301.338
301.338
301.337
301.337
301.336
301.335
301.339
301.34
301.341
301.342
301.343
301.343
301.343
301.344
301.344
301.344
301.344
301.344
301.343
301.343
301.342
301.341
301.341
301.34
301.339
301.338
301.336
301.335
301.347
301.347
301.347
301.347
301.347
301.347
301.347
301.347
301.346
301.346
301.345
301.344
301.343
301.342
301.341
301.34
301.339
301.337
301.336
301.334
301.333
301.331
301.35
301.35
301.35
301.349
301.349
301.348
301.348
301.347
301.346
301.345
301.344
301.342
301.341
301.339
301.338
301.336
301.334
301.333
301.331
301.329
301.327
301.325
301.35
301.35
301.349
301.348
301.347
301.346
301.345
301.344
301.343
301.341
301.34
301.338
301.336
301.334
301.332
301.33
301.328
301.326
301.324
301.322
301.32
301.318
301.348
301.347
301.346
301.345
301.344
301.343
301.341
301.34
301.338
301.336
301.334
301.332
301.33
301.328
301.325
301.323
301.321
301.319
301.317
301.314
301.312
301.31
301.344
301.343
301.342
301.34
301.339
301.337
301.336
301.334
301.332
301.33
301.328
301.325
301.323
301.32
301.318
301.316
301.313
301.311
301.309
301.306
301.304
301.302
301.339
301.338
301.336
301.335
301.333
301.331
301.329
301.327
301.325
301.323
301.321
301.318
301.316
301.313
301.311
301.308
301.306
301.303
301.301
301.298
301.296
301.294
301.333
301.332
301.33
301.328
301.327
301.325
301.323
301.321
301.318
301.316
301.313
301.311
301.308
301.306
301.303
301.3
301.298
301.295
301.293
301.29
301.288
301.285
301.327
301.326
301.324
301.322
301.32
301.318
301.316
301.314
301.311
301.309
301.306
301.304
301.301
301.298
301.295
301.293
301.29
301.287
301.285
301.282
301.28
301.277
301.321
301.319
301.318
301.316
301.314
301.311
301.309
301.307
301.305
301.302
301.299
301.296
301.294
301.291
301.288
301.285
301.283
301.28
301.277
301.275
301.272
301.27
301.315
301.313
301.311
301.309
301.307
301.305
301.303
301.3
301.298
301.295
301.292
301.29
301.287
301.284
301.281
301.278
301.275
301.273
301.27
301.267
301.265
301.262
301.309
301.307
301.305
301.303
301.301
301.299
301.296
301.294
301.291
301.289
301.286
301.283
301.28
301.277
301.274
301.271
301.268
301.266
301.263
301.26
301.257
301.255
301.303
301.301
301.299
301.297
301.295
301.293
301.29
301.288
301.285
301.282
301.279
301.276
301.273
301.27
301.268
301.265
301.262
301.259
301.256
301.253
301.251
301.248
301.298
301.296
301.294
301.291
301.289
301.287
301.284
301.282
301.279
301.276
301.273
301.27
301.267
301.264
301.261
301.258
301.255
301.252
301.25
301.247
301.244
301.241
301.292
301.29
301.288
301.286
301.284
301.281
301.279
301.276
301.273
301.271
301.268
301.265
301.261
301.258
301.255
301.252
301.249
301.246
301.243
301.241
301.238
301.235
301.287
301.285
301.283
301.281
301.278
301.276
301.273
301.271
301.268
301.265
301.262
301.259
301.256
301.253
301.25
301.247
301.244
301.241
301.238
301.235
301.232
301.229
298.551
298.552
298.55
298.54
298.522
298.492
298.446
298.383
298.303
298.208
298.099
297.996
297.934
297.912
297.95
298.081
298.262
298.438
298.576
298.649
298.642
298.531
298.296
297.992
297.7
297.428
297.19
296.987
296.815
296.672
296.554
296.462
296.394
296.354
296.356
298.637
298.614
298.591
298.57
298.553
298.542
298.537
298.536
298.539
298.547
298.565
298.605
298.695
298.866
299.14
299.502
299.873
300.198
300.458
300.639
300.638
300.497
300.059
299.223
298.307
297.63
297.187
296.894
296.7
296.579
296.516
296.5
296.521
296.59
296.698
299.574
299.552
299.528
299.503
299.474
299.443
299.407
299.366
299.317
299.263
299.212
299.163
299.109
299.043
298.957
298.853
298.73
298.59
298.466
298.443
298.551
298.846
299.179
299.439
299.677
299.943
300.194
300.379
300.5
300.575
300.626
300.668
300.717
300.784
300.897
299.921
299.899
299.874
299.849
299.826
299.813
299.815
299.844
299.907
300.008
300.138
300.286
300.437
300.575
300.685
300.758
300.804
300.834
300.846
300.837
300.782
300.659
300.465
300.267
300.102
299.991
299.946
299.936
299.944
299.962
299.982
300.005
300.036
300.078
300.206
300.697
300.669
300.636
300.598
300.554
300.507
300.456
300.408
300.366
300.334
300.311
300.296
300.29
300.289
300.289
300.287
300.278
300.263
300.251
300.252
300.275
300.355
300.508
300.665
300.823
300.995
301.181
301.353
301.504
301.637
301.752
301.851
301.936
302.011
302.078
300.812
300.814
300.816
300.82
300.826
300.832
300.841
300.851
300.862
300.875
300.891
300.911
300.935
300.963
300.993
301.022
301.048
301.074
301.107
301.15
301.203
301.245
301.255
301.244
301.275
301.33
301.412
301.482
301.554
301.625
301.694
301.758
301.818
301.879
301.95
301.118
301.117
301.115
301.112
301.108
301.102
301.095
301.087
301.08
301.074
301.071
301.071
301.075
301.082
301.091
301.1
301.109
301.118
301.127
301.137
301.147
301.157
301.166
301.178
301.197
301.225
301.261
301.308
301.37
301.445
301.525
301.601
301.668
301.723
301.747
301.169
301.171
301.172
301.174
301.176
301.178
301.18
301.182
301.185
301.187
301.189
301.191
301.193
301.197
301.201
301.206
301.21
301.215
301.219
301.223
301.226
301.229
301.232
301.235
301.239
301.243
301.246
301.248
301.253
301.264
301.285
301.311
301.339
301.365
301.386
301.269
301.27
301.27
301.269
301.269
301.268
301.267
301.265
301.263
301.261
301.259
301.258
301.257
301.257
301.257
301.258
301.259
301.26
301.26
301.26
301.259
301.258
301.256
301.254
301.251
301.247
301.242
301.236
301.231
301.225
301.22
301.214
301.209
301.203
301.197
301.282
301.282
301.283
301.283
301.283
301.283
301.283
301.283
301.282
301.282
301.281
301.28
301.279
301.278
301.277
301.275
301.274
301.273
301.272
301.27
301.268
301.266
301.264
301.262
301.26
301.257
301.255
301.253
301.251
301.25
301.248
301.247
301.245
301.243
301.24
301.315
301.315
301.315
301.315
301.314
301.314
301.313
301.312
301.311
301.31
301.309
301.307
301.305
301.303
301.301
301.3
301.298
301.296
301.293
301.291
301.289
301.286
301.284
301.281
301.279
301.277
301.274
301.272
301.27
301.267
301.265
301.263
301.26
301.257
301.253
301.322
301.322
301.321
301.321
301.32
301.32
301.319
301.318
301.317
301.316
301.314
301.313
301.311
301.308
301.305
301.302
301.299
301.296
301.293
301.289
301.286
301.283
301.28
301.277
301.274
301.271
301.269
301.267
301.264
301.262
301.261
301.259
301.257
301.255
301.252
301.334
301.333
301.333
301.332
301.331
301.331
301.33
301.328
301.327
301.325
301.324
301.321
301.319
301.316
301.313
301.31
301.306
301.303
301.3
301.297
301.294
301.291
301.288
301.285
301.283
301.282
301.28
301.279
301.278
301.277
301.277
301.276
301.275
301.275
301.274
301.335
301.334
301.333
301.332
301.332
301.331
301.329
301.328
301.327
301.325
301.323
301.32
301.318
301.314
301.311
301.307
301.303
301.3
301.296
301.292
301.288
301.284
301.281
301.278
301.275
301.273
301.27
301.268
301.267
301.265
301.263
301.262
301.26
301.259
301.257
301.334
301.334
301.333
301.332
301.331
301.33
301.329
301.327
301.326
301.324
301.322
301.319
301.316
301.313
301.309
301.305
301.302
301.298
301.294
301.291
301.287
301.284
301.281
301.278
301.276
301.274
301.273
301.272
301.271
301.27
301.27
301.269
301.269
301.269
301.268
301.33
301.329
301.329
301.328
301.327
301.325
301.324
301.323
301.321
301.319
301.317
301.314
301.311
301.308
301.304
301.3
301.296
301.292
301.288
301.284
301.28
301.277
301.273
301.27
301.267
301.265
301.263
301.262
301.26
301.259
301.258
301.256
301.255
301.254
301.253
301.324
301.323
301.323
301.322
301.321
301.32
301.318
301.317
301.315
301.313
301.311
301.308
301.305
301.302
301.298
301.294
301.29
301.286
301.282
301.279
301.275
301.271
301.268
301.265
301.263
301.261
301.26
301.258
301.257
301.256
301.255
301.255
301.254
301.253
301.252
301.317
301.316
301.315
301.314
301.313
301.312
301.311
301.309
301.307
301.306
301.303
301.301
301.298
301.295
301.291
301.287
301.283
301.279
301.275
301.272
301.268
301.264
301.261
301.258
301.255
301.253
301.251
301.25
301.249
301.247
301.246
301.245
301.245
301.244
301.243
301.309
301.308
301.307
301.306
301.305
301.304
301.303
301.301
301.3
301.298
301.296
301.293
301.29
301.287
301.283
301.28
301.276
301.272
301.268
301.264
301.261
301.257
301.254
301.251
301.248
301.246
301.245
301.243
301.242
301.241
301.24
301.239
301.239
301.238
301.237
301.3
301.3
301.299
301.298
301.297
301.296
301.295
301.293
301.292
301.29
301.288
301.285
301.282
301.279
301.276
301.272
301.268
301.264
301.26
301.257
301.253
301.249
301.246
301.243
301.24
301.238
301.237
301.235
301.234
301.233
301.232
301.231
301.23
301.229
301.228
301.292
301.291
301.291
301.29
301.289
301.288
301.287
301.285
301.284
301.282
301.28
301.277
301.274
301.271
301.268
301.264
301.26
301.256
301.253
301.249
301.245
301.241
301.238
301.235
301.233
301.23
301.229
301.227
301.226
301.225
301.224
301.223
301.222
301.221
301.22
301.284
301.283
301.283
301.282
301.281
301.28
301.278
301.277
301.275
301.274
301.271
301.269
301.266
301.263
301.26
301.256
301.252
301.248
301.245
301.241
301.237
301.233
301.23
301.227
301.224
301.222
301.22
301.219
301.217
301.216
301.215
301.214
301.213
301.212
301.211
301.276
301.275
301.274
301.274
301.273
301.272
301.27
301.269
301.267
301.266
301.264
301.261
301.258
301.255
301.252
301.248
301.244
301.24
301.237
301.233
301.229
301.225
301.222
301.219
301.216
301.214
301.212
301.21
301.209
301.208
301.206
301.205
301.205
301.204
301.202
301.268
301.267
301.267
301.266
301.265
301.264
301.263
301.261
301.26
301.258
301.256
301.253
301.251
301.248
301.244
301.24
301.236
301.233
301.229
301.225
301.221
301.217
301.213
301.21
301.208
301.205
301.203
301.202
301.2
301.199
301.198
301.197
301.196
301.194
301.193
301.26
301.26
301.259
301.258
301.257
301.256
301.255
301.254
301.252
301.25
301.248
301.246
301.243
301.24
301.236
301.233
301.229
301.225
301.221
301.217
301.213
301.209
301.205
301.202
301.199
301.197
301.195
301.193
301.192
301.19
301.189
301.188
301.187
301.186
301.184
301.253
301.253
301.252
301.251
301.25
301.249
301.248
301.246
301.245
301.243
301.241
301.239
301.236
301.233
301.229
301.225
301.221
301.217
301.213
301.209
301.205
301.201
301.197
301.194
301.191
301.189
301.187
301.185
301.183
301.182
301.181
301.179
301.178
301.177
301.176
301.246
301.246
301.245
301.244
301.243
301.242
301.241
301.239
301.238
301.236
301.234
301.232
301.229
301.226
301.222
301.218
301.214
301.21
301.206
301.202
301.198
301.194
301.19
301.186
301.183
301.181
301.179
301.177
301.175
301.174
301.172
301.171
301.17
301.169
301.167
301.24
301.239
301.238
301.237
301.236
301.235
301.234
301.233
301.231
301.229
301.227
301.225
301.222
301.219
301.215
301.211
301.207
301.203
301.199
301.195
301.191
301.186
301.182
301.179
301.176
301.173
301.171
301.169
301.167
301.166
301.164
301.163
301.162
301.16
301.159
301.233
301.233
301.232
301.231
301.23
301.229
301.228
301.227
301.225
301.223
301.221
301.219
301.216
301.213
301.209
301.205
301.201
301.197
301.192
301.188
301.184
301.179
301.175
301.171
301.168
301.165
301.163
301.161
301.159
301.158
301.156
301.155
301.154
301.152
301.15
301.228
301.227
301.226
301.225
301.224
301.223
301.222
301.221
301.219
301.217
301.215
301.213
301.21
301.207
301.203
301.199
301.195
301.19
301.186
301.181
301.177
301.172
301.168
301.164
301.161
301.158
301.156
301.154
301.152
301.15
301.149
301.147
301.146
301.144
301.142
301.168
301.17
301.171
301.172
301.173
301.174
301.175
301.176
301.178
301.179
301.181
301.184
301.186
301.189
301.193
301.196
301.199
301.202
301.206
301.209
301.212
301.214
301.217
301.219
301.22
301.222
301.223
301.224
301.225
301.226
301.227
301.228
301.228
301.229
301.229
301.16
301.161
301.162
301.163
301.164
301.165
301.166
301.168
301.169
301.171
301.173
301.176
301.179
301.182
301.185
301.189
301.192
301.196
301.199
301.202
301.205
301.208
301.21
301.212
301.214
301.216
301.217
301.218
301.219
301.22
301.221
301.221
301.222
301.222
301.223
301.151
301.153
301.154
301.155
301.156
301.157
301.159
301.16
301.162
301.164
301.166
301.168
301.171
301.175
301.179
301.182
301.186
301.19
301.193
301.196
301.2
301.202
301.205
301.207
301.209
301.21
301.211
301.213
301.213
301.214
301.215
301.216
301.216
301.217
301.217
301.143
301.145
301.146
301.147
301.148
301.15
301.151
301.153
301.154
301.156
301.159