/*--------------------------------*- C++ -*----------------------------------*\
  =========                 |
  \\      /  F ield         | OpenFOAM: The Open Source CFD Toolbox
   \\    /   O peration     | Website:  https://openfoam.org
    \\  /    A nd           | Version:  8
     \\/     M anipulation  |
\*---------------------------------------------------------------------------*/
FoamFile
{
    version     2.0;
    format      ascii;
    class       volVectorField;
    location    "0.23";
    object      U;
}
// * * * * * * * * * * * * * * * * * * * * * * * * * * * * * * * * * * * * * //

dimensions      [0 1 -1 0 0 0 0];

internalField   nonuniform List<vector> 
15677
(
(-0.0199338 9.66502 0)
(0.0435823 9.92081 0)
(0.00238103 9.3779 0)
(0.014747 9.97643 0)
(0.0186145 9.78762 0)
(0.00701627 9.14224 0)
(0.0279762 9.9943 0)
(0.0171122 9.92466 0)
(0.0107288 9.65481 0)
(0.00607663 8.96008 0)
(0.0261297 10.0015 0)
(0.0215122 9.9784 0)
(0.0163872 9.85323 0)
(0.00900861 9.53027 0)
(0.00489806 8.81702 0)
(0.0249819 10.0047 0)
(0.0223899 10.0025 0)
(0.0191738 9.94272 0)
(0.0153498 9.77919 0)
(0.0078645 9.41965 0)
(0.00402608 8.70281 0)
(0.0240127 10.0061 0)
(0.0225718 10.0141 0)
(0.0207842 9.9859 0)
(0.0182511 9.90225 0)
(0.0138614 9.70802 0)
(0.00678696 9.32191 0)
(0.00335748 8.61085 0)
(0.0226816 10.0067 0)
(0.0224151 10.0198 0)
(0.0216109 10.0079 0)
(0.0201414 9.96483 0)
(0.0169911 9.86194 0)
(0.0124194 9.64122 0)
(0.00583748 9.23708 0)
(0.00280001 8.5371 0)
(0.0210075 10.0066 0)
(0.0218827 10.0222 0)
(0.0219347 10.0193 0)
(0.0212243 9.99796 0)
(0.0190127 9.94378 0)
(0.015586 9.82274 0)
(0.0110519 9.58036 0)
(0.004965 9.16511 0)
(0.00229008 8.47873 0)
(0.0191026 10.0062 0)
(0.0210543 10.0224 0)
(0.0218274 10.0253 0)
(0.0217135 10.0161 0)
(0.0201667 9.98825 0)
(0.0176217 9.92325 0)
(0.0141086 9.78611 0)
(0.00966909 9.52675 0)
(0.00411309 9.1057 0)
(0.00178985 8.43417 0)
(0.0170434 10.0057 0)
(0.0200036 10.0216 0)
(0.0213747 10.0282 0)
(0.0217306 10.0261 0)
(0.0206896 10.0132 0)
(0.0187436 9.97908 0)
(0.0160645 9.90437 0)
(0.012496 9.75346 0)
(0.00820985 9.48133 0)
(0.00323715 9.05858 0)
(0.00127095 8.40239 0)
(0.0148577 10.005 0)
(0.0187186 10.0201 0)
(0.0206139 10.029 0)
(0.0213946 10.0316 0)
(0.0207147 10.0275 0)
(0.0191752 10.0109 0)
(0.0170588 9.97138 0)
(0.0142651 9.88828 0)
(0.0106869 9.72588 0)
(0.00662651 9.44477 0)
(0.00229736 9.0236 0)
(0.000710976 8.38303 0)
(0.0125569 10.0043 0)
(0.0172956 10.0182 0)
(0.0195559 10.0283 0)
(0.0207126 10.034 0)
(0.0203017 10.0355 0)
(0.019068 10.0294 0)
(0.017303 10.01 0)
(0.0150257 9.96613 0)
(0.0121477 9.87592 0)
(0.00862399 9.70433 0)
(0.00486983 9.41773 0)
(0.00126106 9.00076 0)
(7.47774e-05 8.37583 0)
(0.0102951 10.0036 0)
(0.0158112 10.0159 0)
(0.018242 10.0266 0)
(0.0197069 10.0344 0)
(0.0195514 10.0397 0)
(0.0185049 10.0401 0)
(0.016956 10.0327 0)
(0.0149713 10.0114 0)
(0.0125543 9.96416 0)
(0.00963938 9.86818 0)
(0.00624491 9.6898 0)
(0.00289425 9.40082 0)
(0.000115513 8.99015 0)
(-0.000543688 8.38072 0)
(0.00835605 10.0029 0)
(0.0142158 10.0135 0)
(0.0167258 10.0243 0)
(0.0183886 10.0334 0)
(0.018452 10.0412 0)
(0.0175429 10.0461 0)
(0.0161082 10.0461 0)
(0.0142615 10.0382 0)
(0.0120729 10.0159 0)
(0.00955241 9.96626 0)
(0.00666014 9.866 0)
(0.00348914 9.6832 0)
(0.000654047 9.3946 0)
(-0.00118755 8.99205 0)
(-0.00128593 8.39774 0)
(0.00680979 10.0023 0)
(0.012669 10.0113 0)
(0.015034 10.0215 0)
(0.0167711 10.0313 0)
(0.0170098 10.0409 0)
(0.0161932 10.0488 0)
(0.0148039 10.0537 0)
(0.0129881 10.0542 0)
(0.0108591 10.0466 0)
(0.00849575 10.0242 0)
(0.00591769 9.97327 0)
(0.00313101 9.8703 0)
(0.000286497 9.68543 0)
(-0.0018911 9.39964 0)
(-0.00266288 9.00656 0)
(-0.00212185 8.42712 0)
(0.00563398 10.0018 0)
(0.0112682 10.0093 0)
(0.0133693 10.0188 0)
(0.0148812 10.0286 0)
(0.0152286 10.0392 0)
(0.0144606 10.0492 0)
(0.0130588 10.0576 0)
(0.0111925 10.0635 0)
(0.00900229 10.0651 0)
(0.00661458 10.0587 0)
(0.00411389 10.0371 0)
(0.0015542 9.98604 0)
(-0.00101029 9.88201 0)
(-0.00335831 9.69726 0)
(-0.00474302 9.41644 0)
(-0.00430862 9.03389 0)
(-0.00304672 8.46888 0)
(0.00467296 10.0014 0)
(0.00990578 10.0077 0)
(0.0118546 10.0164 0)
(0.0129667 10.0256 0)
(0.0131216 10.0364 0)
(0.0123462 10.0479 0)
(0.0108746 10.0588 0)
(0.00888746 10.0684 0)
(0.00654014 10.0759 0)
(0.00399256 10.0795 0)
(0.0013786 10.0752 0)
(-0.00119739 10.0554 0)
(-0.00364936 10.0054 0)
(-0.00585864 9.90198 0)
(-0.00752861 9.71946 0)
(-0.00794723 9.44535 0)
(-0.00613221 9.07404 0)
(-0.0040572 8.52301 0)
(0.003889 10.0011 0)
(0.00866687 10.0064 0)
(0.0104251 10.0143 0)
(0.0111953 10.0229 0)
(0.0109502 10.0332 0)
(0.00985825 10.0452 0)
(0.00824952 10.0578 0)
(0.00607105 10.0702 0)
(0.00347986 10.0818 0)
(0.000660085 10.0918 0)
(-0.00222095 10.0982 0)
(-0.00501512 10.0969 0)
(-0.00757343 10.0799 0)
(-0.0097735 10.0323 0)
(-0.0114495 9.93102 0)
(-0.0122543 9.75257 0)
(-0.0115151 9.48662 0)
(-0.00813822 9.12707 0)
(-0.00515054 8.58931 0)
(0.00325188 10.0009 0)
(0.00754938 10.0053 0)
(0.00910355 10.0124 0)
(0.00952843 10.0205 0)
(0.00891297 10.0302 0)
(0.00729415 10.0418 0)
(0.00518946 10.0552 0)
(0.00273808 10.0695 0)
(-0.000184588 10.0841 0)
(-0.00338327 10.0985 0)
(-0.0066637 10.1117 0)
(-0.00983515 10.1218 0)
(-0.0127102 10.1245 0)
(-0.0151129 10.1114 0)
(-0.0168823 10.0673 0)
(-0.0178147 9.9698 0)
(-0.0175387 9.79706 0)
(-0.0154401 9.54035 0)
(-0.0103125 9.19271 0)
(-0.00631512 8.66739 0)
(0.00273036 10.0007 0)
(0.00653988 10.0044 0)
(0.00788613 10.0108 0)
(0.0079758 10.0183 0)
(0.00698215 10.0273 0)
(0.00488875 10.0384 0)
(0.00205291 10.0515 0)
(-0.00110218 10.0668 0)
(-0.00445824 10.0836 0)
(-0.00814879 10.1011 0)
(-0.0119551 10.1191 0)
(-0.0156548 10.1365 0)
(-0.0190231 10.1512 0)
(-0.0218409 10.1588 0)
(-0.0239036 10.1505 0)
(-0.0250212 10.1112 0)
(-0.0249659 10.0188 0)
(-0.0233707 9.85313 0)
(-0.0197042 9.60644 0)
(-0.012646 9.27072 0)
(-0.00754264 8.75678 0)
(0.00231763 10.0006 0)
(0.00563072 10.0037 0)
(0.00676702 10.0095 0)
(0.00654213 10.0163 0)
(0.00517583 10.0246 0)
(0.00261357 10.035 0)
(-0.000873948 10.0477 0)
(-0.0050047 10.0628 0)
(-0.00933101 10.0807 0)
(-0.0136439 10.1006 0)
(-0.0181177 10.122 0)
(-0.0224991 10.1444 0)
(-0.0265287 10.1668 0)
(-0.02995 10.187 0)
(-0.0325167 10.2004 0)
(-0.0340043 10.1981 0)
(-0.0342065 10.1646 0)
(-0.03289 10.0785 0)
(-0.0297221 9.92087 0)
(-0.0242756 9.68463 0)
(-0.0151059 9.3604 0)
(-0.00881087 8.85661 0)
(0.00200184 10.0005 0)
(0.00485263 10.0032 0)
(0.00574325 10.0083 0)
(0.00522911 10.0145 0)
(0.00350648 10.0221 0)
(0.000494529 10.0317 0)
(-0.00362618 10.0437 0)
(-0.00862889 10.0583 0)
(-0.0142455 10.0761 0)
(-0.0198562 10.0973 0)
(-0.025163 10.1213 0)
(-0.0304006 10.1473 0)
(-0.0352718 10.175 0)
(-0.0394815 10.2033 0)
(-0.0427484 10.23 0)
(-0.0448106 10.25 0)
(-0.0454365 10.2544 0)
(-0.0444206 10.2277 0)
(-0.0415482 10.1489 0)
(-0.0365441 10.0001 0)
(-0.0291072 9.77441 0)
(-0.0176706 9.46116 0)
(-0.010102 8.96612 0)
(0.00175716 10.0004 0)
(0.00422024 10.0028 0)
(0.00485085 10.0073 0)
(0.00403665 10.0129 0)
(0.00198181 10.0198 0)
(-0.00144991 10.0286 0)
(-0.00617218 10.0397 0)
(-0.0120195 10.0536 0)
(-0.0187833 10.0709 0)
(-0.0260787 10.092 0)
(-0.033074 10.1173 0)
(-0.0393758 10.1462 0)
(-0.0452994 10.1778 0)
(-0.0505054 10.2117 0)
(-0.0546728 10.2468 0)
(-0.0575089 10.2806 0)
(-0.058752 10.3081 0)
(-0.058181 10.32 0)
(-0.0556129 10.3008 0)
(-0.0508722 10.23 0)
(-0.0437654 10.0904 0)
(-0.034143 9.87513 0)
(-0.0202811 9.57193 0)
(-0.0113757 9.08368 0)
(0.00156401 10.0004 0)
(0.00370737 10.0024 0)
(0.0041108 10.0065 0)
(0.00300844 10.0115 0)
(0.000605424 10.0177 0)
(-0.00320799 10.0257 0)
(-0.00848639 10.0359 0)
(-0.0151331 10.0488 0)
(-0.0230048 10.0652 0)
(-0.0317935 10.0858 0)
(-0.0409546 10.111 0)
(-0.0494028 10.1414 0)
(-0.0566359 10.176 0)
(-0.0630887 10.2141 0)
(-0.0683918 10.2551 0)
(-0.0722149 10.2978 0)
(-0.0742718 10.3395 0)
(-0.0743212 10.375 0)
(-0.0721754 10.395 0)
(-0.0676943 10.3838 0)
(-0.0607651 10.3215 0)
(-0.0512981 10.1912 0)
(-0.0392699 9.98585 0)
(-0.0228253 9.69137 0)
(-0.0121974 9.20755 0)
(0.00140901 10.0003 0)
(0.0032892 10.0022 0)
(0.00350536 10.0059 0)
(0.00216665 10.0103 0)
(-0.000565335 10.0158 0)
(-0.00477268 10.0229 0)
(-0.0105514 10.0322 0)
(-0.0179358 10.044 0)
(-0.0268548 10.0593 0)
(-0.0370831 10.0789 0)
(-0.0481617 10.1035 0)
(-0.0593503 10.1337 0)
(-0.0692551 10.1701 0)
(-0.077268 10.2115 0)
(-0.0839992 10.2569 0)
(-0.0890698 10.3058 0)
(-0.0921611 10.3568 0)
(-0.0930169 10.407 0)
(-0.0914444 10.451 0)
(-0.0873122 10.4794 0)
(-0.0805426 10.4766 0)
(-0.0711044 10.4228 0)
(-0.0589948 10.3017 0)
(-0.0444321 10.1054 0)
(-0.0253209 9.8192 0)
(-0.0130488 9.33775 0)
(0.00128278 10.0003 0)
(0.00294616 10.002 0)
(0.00299352 10.0053 0)
(0.00148069 10.0093 0)
(-0.00150457 10.0142 0)
(-0.00607991 10.0204 0)
(-0.0123558 10.0286 0)
(-0.0204035 10.0393 0)
(-0.0302896 10.0534 0)
(-0.0418789 10.0717 0)
(-0.054806 10.0952 0)
(-0.0684207 10.1247 0)
(-0.0817403 10.1608 0)
(-0.0930151 10.204 0)
(-0.101548 10.2532 0)
(-0.1082 10.3069 0)
(-0.112608 10.3644 0)
(-0.114494 10.4242 0)
(-0.113665 10.4832 0)
(-0.109999 10.5361 0)
(-0.103441 10.5731 0)
(-0.0939956 10.5787 0)
(-0.0817028 10.5334 0)
(-0.0667018 10.4208 0)
(-0.0487409 10.2329 0)
(-0.021343 9.94886 0)
(-0.00782038 9.41125 0)
(0.00117871 10.0003 0)
(0.00266313 10.0018 0)
(0.00256536 10.0049 0)
(0.00093037 10.0085 0)
(-0.00225281 10.0128 0)
(-0.00710491 10.0182 0)
(-0.0138268 10.0253 0)
(-0.0225196 10.0347 0)
(-0.0332767 10.0474 0)
(-0.0461253 10.0642 0)
(-0.060803 10.0862 0)
(-0.0767594 10.1144 0)
(-0.0931033 10.1497 0)
(-0.108569 10.1928 0)
(-0.12101 10.244 0)
(-0.129684 10.3017 0)
(-0.135785 10.3644 0)
(-0.139003 10.4312 0)
(-0.139132 10.5002 0)
(-0.136071 10.5684 0)
(-0.129799 10.6302 0)
(-0.12036 10.6757 0)
(-0.107827 10.6895 0)
(-0.092351 10.6522 0)
(-0.0738402 10.5476 0)
(-0.0528846 10.3654 0)
(-0.0166206 10.1086 0)
(-0.00028385 9.46424 0)
(0.00109209 10.0002 0)
(0.00242823 10.0017 0)
(0.00221887 10.0045 0)
(0.000479814 10.0078 0)
(-0.00284531 10.0116 0)
(-0.00789659 10.0163 0)
(-0.0149441 10.0223 0)
(-0.0241983 10.0303 0)
(-0.0357923 10.0414 0)
(-0.0497787 10.0566 0)
(-0.066082 10.0768 0)
(-0.0842627 10.1033 0)
(-0.103533 10.1372 0)
(-0.122714 10.1794 0)
(-0.140225 10.2303 0)
(-0.153502 10.2905 0)
(-0.161805 10.3577 0)
(-0.166762 10.4301 0)
(-0.168154 10.5064 0)
(-0.165898 10.5849 0)
(-0.160015 10.6623 0)
(-0.150604 10.7328 0)
(-0.137803 10.7865 0)
(-0.121774 10.8082 0)
(-0.102511 10.7784 0)
(-0.0799179 10.6808 0)
(-0.0560142 10.5108 0)
(-0.0179869 10.2691 0)
(0.00417688 9.50798 0)
(0.00101939 10.0002 0)
(0.00223189 10.0016 0)
(0.00193002 10.0042 0)
(0.000102078 10.0072 0)
(-0.00331657 10.0106 0)
(-0.00850367 10.0147 0)
(-0.0157724 10.0198 0)
(-0.0254262 10.0265 0)
(-0.0377342 10.0358 0)
(-0.0528067 10.0489 0)
(-0.0705857 10.0672 0)
(-0.0908408 10.0917 0)
(-0.112903 10.1236 0)
(-0.135692 10.1641 0)
(-0.157701 10.2141 0)
(-0.177027 10.274 0)
(-0.190656 10.344 0)
(-0.197923 10.4215 0)
(-0.201019 10.504 0)
(-0.199872 10.5903 0)
(-0.194551 10.6783 0)
(-0.185225 10.7647 0)
(-0.172117 10.8435 0)
(-0.155461 10.905 0)
(-0.135337 10.9339 0)
(-0.111642 10.9112 0)
(-0.084491 10.8212 0)
(-0.0567176 10.6681 0)
(-0.021024 10.4255 0)
(0.00522791 9.55064 0)
(0.000957947 10.0002 0)
(0.00206672 10.0015 0)
(0.00168606 10.0039 0)
(-0.000208238 10.0067 0)
(-0.00369211 10.0097 0)
(-0.0089658 10.0133 0)
(-0.0163746 10.0176 0)
(-0.0262899 10.0231 0)
(-0.0390988 10.0307 0)
(-0.055086 10.0416 0)
(-0.0742703 10.0575 0)
(-0.0964197 10.0796 0)
(-0.121099 10.1091 0)
(-0.147346 10.1474 0)
(-0.173745 10.1957 0)
(-0.198444 10.2547 0)
(-0.219177 10.3245 0)
(-0.232508 10.4051 0)
(-0.237942 10.4935 0)
(-0.238364 10.5865 0)
(-0.233894 10.6827 0)
(-0.224785 10.7801 0)
(-0.211365 10.875 0)
(-0.193984 10.9617 0)
(-0.172875 11.0304 0)
(-0.148086 11.066 0)
(-0.119954 11.0501 0)
(-0.0886504 10.969 0)
(-0.0576644 10.832 0)
(-0.0233098 10.5766 0)
(0.00486856 9.60632 0)
(0.000905685 10.0002 0)
(0.00192699 10.0014 0)
(0.00147982 10.0037 0)
(-0.000463981 10.0062 0)
(-0.0039901 10.009 0)
(-0.00931421 10.0121 0)
(-0.0168014 10.0156 0)
(-0.0268721 10.0201 0)
(-0.0400013 10.0262 0)
(-0.0566248 10.035 0)
(-0.0769846 10.0481 0)
(-0.100941 10.0672 0)
(-0.128026 10.094 0)
(-0.157535 10.1296 0)
(-0.188166 10.1755 0)
(-0.218134 10.2326 0)
(-0.245192 10.3015 0)
(-0.26676 10.3821 0)
(-0.278983 10.4742 0)
(-0.281662 10.5738 0)
(-0.278507 10.6774 0)
(-0.269872 10.7835 0)
(-0.256219 10.8898 0)
(-0.23804 10.9928 0)
(-0.215765 11.0867 0)
(-0.189666 11.162 0)
(-0.160189 11.2041 0)
(-0.128134 11.1946 0)
(-0.0935184 11.1231 0)
(-0.0593524 10.9974 0)
(-0.0256309 10.7396 0)
(0.00383412 9.67152 0)
(0.000860946 10.0002 0)
(0.00180816 10.0013 0)
(0.00130492 10.0035 0)
(-0.000675718 10.0058 0)
(-0.00422683 10.0083 0)
(-0.00957394 10.011 0)
(-0.0170932 10.0139 0)
(-0.0272389 10.0175 0)
(-0.04055 10.0223 0)
(-0.0575759 10.0292 0)
(-0.0787516 10.0396 0)
(-0.104216 10.0553 0)
(-0.133606 10.0786 0)
(-0.166137 10.111 0)
(-0.200787 10.1538 0)
(-0.235867 10.2082 0)
(-0.269169 10.2753 0)
(-0.29808 10.3552 0)
(-0.31973 10.4475 0)
(-0.329884 10.5515 0)
(-0.328766 10.6626 0)
(-0.321055 10.7767 0)
(-0.307378 10.8923 0)
(-0.288418 11.007 0)
(-0.264813 11.1174 0)
(-0.237096 11.2179 0)
(-0.205864 11.2993 0)
(-0.172006 11.3471 0)
(-0.136503 11.3435 0)
(-0.0990821 11.2806 0)
(-0.0622112 11.181 0)
(-0.0281172 10.9144 0)
(0.00228152 9.74487 0)
(0.000822456 10.0002 0)
(0.00170649 10.0012 0)
(0.00115595 10.0033 0)
(-0.00085141 10.0055 0)
(-0.00441493 10.0078 0)
(-0.00976477 10.01 0)
(-0.017282 10.0124 0)
(-0.027443 10.0152 0)
(-0.0408315 10.0188 0)
(-0.05808 10.024 0)
(-0.0797705 10.032 0)
(-0.106286 10.0444 0)
(-0.137605 10.0635 0)
(-0.173049 10.0918 0)
(-0.211454 10.1309 0)
(-0.251424 10.182 0)
(-0.290825 10.2462 0)
(-0.327038 10.3243 0)
(-0.357103 10.4162 0)
(-0.377899 10.5208 0)
(-0.38487 10.6371 0)
(-0.378824 10.7597 0)
(-0.365537 10.8841 0)
(-0.345935 11.0086 0)
(-0.320925 11.1311 0)
(-0.291307 11.2482 0)
(-0.257901 11.3546 0)
(-0.221686 11.4413 0)
(-0.183773 11.4939 0)
(-0.144998 11.4951 0)
(-0.105485 11.4584 0)
(-0.0659496 11.381 0)
(-0.0306963 11.0835 0)
(0.000577513 9.82467 0)
(0.000789563 10.0002 0)
(0.00161883 10.0012 0)
(0.00102835 10.0032 0)
(-0.000997457 10.0052 0)
(-0.00456422 10.0073 0)
(-0.00990231 10.0092 0)
(-0.0173931 10.0111 0)
(-0.0275261 10.0132 0)
(-0.0409146 10.0157 0)
(-0.0582501 10.0194 0)
(-0.0802235 10.0252 0)
(-0.107405 10.0347 0)
(-0.140078 10.0497 0)
(-0.177976 10.0729 0)
(-0.220032 10.1072 0)
(-0.264612 10.1543 0)
(-0.309896 10.2149 0)
(-0.353297 10.2901 0)
(-0.391789 10.3803 0)
(-0.422095 10.4849 0)
(-0.440923 10.6023 0)
(-0.443484 10.7311 0)
(-0.431319 10.865 0)
(-0.411427 10.9991 0)
(-0.38505 11.1319 0)
(-0.353333 11.2614 0)
(-0.317353 11.3844 0)
(-0.278274 11.4959 0)
(-0.237302 11.5869 0)
(-0.195483 11.6428 0)
(-0.154233 11.6659 0)
(-0.11243 11.6545 0)
(-0.0699762 11.5759 0)
(-0.0331609 11.2468 0)
(-0.001087 9.90881 0)
(0.00154276 10.0011 0)
(0.000750433 10.0002 0)
(0.000917878 10.003 0)
(-0.00111938 10.005 0)
(-0.00468244 10.0068 0)
(-0.0099988 10.0085 0)
(-0.0174464 10.01 0)
(-0.0275206 10.0114 0)
(-0.0408532 10.013 0)
(-0.0581754 10.0153 0)
(-0.0802566 10.0192 0)
(-0.107809 10.0259 0)
(-0.141351 10.0373 0)
(-0.180988 10.0557 0)
(-0.226146 10.0839 0)
(-0.275256 10.1254 0)
(-0.326138 10.1816 0)
(-0.376534 10.253 0)
(-0.42339 10.3404 0)
(-0.463295 10.4436 0)
(-0.492729 10.5616 0)
(-0.508328 10.6921 0)
(-0.505165 10.8332 0)
(-0.48567 10.9781 0)
(-0.458178 11.1213 0)
(-0.424264 11.2616 0)
(-0.385375 11.3972 0)
(-0.342914 11.5252 0)
(-0.298272 11.6407 0)
(-0.252667 11.7343 0)
(-0.208209 11.8101 0)
(-0.163998 11.8549 0)
(-0.119045 11.8472 0)
(-0.0739637 11.7644 0)
(-0.0354066 11.4039 0)
(-0.00259798 9.9954 0)
(0.000820561 10.0029 0)
(0.0014558 10.0011 0)
(0.000703928 10.0001 0)
(-0.00122261 10.0047 0)
(-0.00477606 10.0064 0)
(-0.0100636 10.0079 0)
(-0.017457 10.009 0)
(-0.0274518 10.0098 0)
(-0.0406893 10.0106 0)
(-0.0579258 10.0117 0)
(-0.0799854 10.0138 0)
(-0.107684 10.0182 0)
(-0.14172 10.0262 0)
(-0.182493 10.0401 0)
(-0.229878 10.0625 0)
(-0.28288 10.0969 0)
(-0.339326 10.1468 0)
(-0.396446 10.2135 0)
(-0.451517 10.297 0)
(-0.501033 10.3976 0)
(-0.541259 10.5147 0)
(-0.568527 10.6465 0)
(-0.579518 10.7902 0)
(-0.569269 10.9434 0)
(-0.541261 11.0985 0)
(-0.505261 11.25 0)
(-0.463209 11.3968 0)
(-0.416883 11.5375 0)
(-0.367927 11.6695 0)
(-0.317783 11.7873 0)
(-0.269262 11.9 0)
(-0.221548 11.9948 0)
(-0.173142 12.0414 0)
(-0.125168 12.0348 0)
(-0.0777061 11.9454 0)
(-0.0374055 11.5543 0)
(-0.00397261 10.0828 0)
(-0.00131439 10.0046 0)
(0.000721015 10.0028 0)
(0.00134954 10.001 0)
(0.000659564 10.0001 4.65143e-20)
(-0.0048515 10.0061 0)
(-0.0101042 10.0073 0)
(-0.0174364 10.0081 0)
(-0.027339 10.0084 0)
(-0.0404552 10.0084 0)
(-0.0575556 10.0085 0)
(-0.0795 10.0091 0)
(-0.107178 10.0113 0)
(-0.141422 10.0163 0)
(-0.182861 10.0261 0)
(-0.231729 10.0431 0)
(-0.287566 10.0706 0)
(-0.348858 10.1123 0)
(-0.412747 10.172 0)
(-0.475797 10.2506 0)
(-0.534844 10.3474 0)
(-0.585975 10.4622 0)
(-0.625218 10.5938 0)
(-0.648872 10.7397 0)
(-0.653796 10.8964 0)
(-0.635103 11.0611 0)
(-0.597476 11.2257 0)
(-0.552201 11.3844 0)
(-0.501586 11.5368 0)
(-0.447676 11.6815 0)
(-0.392216 11.8157 0)
(-0.338737 11.9521 0)
(-0.286553 12.0827 0)
(-0.233885 12.1771 0)
(-0.181528 12.2235 0)
(-0.130682 12.2158 0)
(-0.0810905 12.1185 0)
(-0.0391248 11.698 0)
(-0.00521292 10.1696 0)
(-0.00491994 10.0058 0)
(-0.00138908 10.0043 0)
(0.000611287 10.0026 2.11692e-19)
(0.00124618 10.0009 -1.47472e-19)
(0.00061718 10.0001 -9.12972e-20)
(-0.0101281 10.0068 0)
(-0.0173934 10.0073 0)
(-0.0271965 10.0072 0)
(-0.0401757 10.0066 0)
(-0.0571064 10.0057 0)
(-0.0788702 10.0049 0)
(-0.106407 10.0052 0)
(-0.140648 10.0075 0)
(-0.182392 10.0136 0)
(-0.232159 10.0257 0)
(-0.289923 10.0468 0)
(-0.354798 10.0804 0)
(-0.424671 10.1307 0)
(-0.495871 10.2016 0)
(-0.564275 10.2934 0)
(-0.626329 10.4047 0)
(-0.677786 10.5347 0)
(-0.714552 10.6812 0)
(-0.733026 10.8411 0)
(-0.73039 11.0104 0)
(-0.70195 11.1859 0)
(-0.653723 11.3589 0)
(-0.598571 11.5238 0)
(-0.539102 11.6804 0)
(-0.477512 11.8275 0)
(-0.418211 11.9802 0)
(-0.360512 12.1341 0)
(-0.302441 12.263 0)
(-0.245087 12.3552 0)
(-0.189045 12.3998 0)
(-0.135536 12.3892 0)
(-0.0840626 12.2831 0)
(-0.0405586 11.8346 0)
(-0.00630766 10.2546 0)
(-0.0101521 10.0064 0)
(-0.00493978 10.0054 -4.78252e-19)
(-0.00144978 10.004 -2.23698e-19)
(0.000506895 10.0024 1.0389e-19)
(0.00114659 10.0009 -9.64684e-20)
(0.00057678 10.0001 0)
(-0.0173363 10.0066 0)
(-0.0270343 10.0061 0)
(-0.0398686 10.0049 0)
(-0.05661 10.0032 0)
(-0.0781499 10.0012 0)
(-0.105461 9.99972 0)
(-0.139543 9.99963 0)
(-0.181324 10.0024 0)
(-0.231539 10.01 0)
(-0.290513 10.0252 0)
(-0.357879 10.0513 0)
(-0.432249 10.0923 0)
(-0.510769 10.1527 0)
(-0.588881 10.2362 0)
(-0.66178 10.3426 0)
(-0.725598 10.4695 0)
(-0.775866 10.6152 0)
(-0.808498 10.7769 0)
(-0.820155 10.9507 0)
(-0.808485 11.1319 0)
(-0.769092 11.3171 0)
(-0.709444 11.4973 0)
(-0.643959 11.6671 0)
(-0.575436 11.8264 0)
(-0.509382 11.992 0)
(-0.445196 12.162 0)
(-0.380478 12.3136 0)
(-0.316804 12.4392 0)
(-0.255061 12.5277 0)
(-0.195646 12.5693 0)
(-0.13972 12.5546 0)
(-0.0866117 12.4392 0)
(-0.0417281 11.964 0)
(-0.00725786 10.3369 0)
(-0.0172899 10.006 0)
(-0.0100818 10.0059 1.01069e-18)
(-0.0048989 10.005 0)
(-0.00150638 10.0037 2.19502e-19)
(0.000409222 10.0023 3.26626e-23)
(0.00105077 10.0008 0)
(0.000538335 10.0001 0)
(-0.0268618 10.0052 0)
(-0.0395457 10.0035 0)
(-0.0560886 10.001 0)
(-0.0773794 9.99796 0)
(-0.104408 9.99492 0)
(-0.138221 9.99267 0)
(-0.179841 9.99246 0)
(-0.230167 9.99607 0)
(-0.289795 10.0059 0)
(-0.35878 10.025 0)
(-0.436344 10.0573 0)
(-0.520459 10.107 0)
(-0.607443 10.1788 0)
(-0.69178 10.2765 0)
(-0.768015 10.3989 0)
(-0.832094 10.5422 0)
(-0.879454 10.7041 0)
(-0.906185 10.8809 0)
(-0.909362 11.068 0)
(-0.887241 11.2602 0)
(-0.835827 11.4539 0)
(-0.764097 11.64 0)
(-0.687951 11.813 0)
(-0.614239 11.991 0)
(-0.542461 12.174 0)
(-0.469916 12.3416 0)
(-0.398504 12.4892 0)
(-0.329564 12.6099 0)
(-0.263778 12.6938 0)
(-0.201333 12.7313 0)
(-0.143262 12.7117 0)
(-0.0887547 12.5866 0)
(-0.0426625 12.0861 0)
(-0.00807065 10.416 0)
(-0.0267149 10.0043 0)
(-0.0170848 10.0053 1.23462e-22)
(-0.0098765 10.0052 0)
(-0.00485549 10.0045 -2.31934e-19)
(-0.00155385 10.0034 1.84206e-23)
(0.000318327 10.0021 0)
(0.000958871 10.0008 0)
(0.000501829 10.0001 0)
(-0.0392174 10.0022 0)
(-0.0555566 9.99902 0)
(-0.0765871 9.99506 0)
(-0.103301 9.99066 0)
(-0.136772 9.9865 0)
(-0.178088 9.98364 0)
(-0.228273 9.98362 0)
(-0.288132 9.98859 0)
(-0.358054 10.0014 0)
(-0.437764 10.0255 0)
(-0.525942 10.0652 0)
(-0.619824 10.1251 0)
(-0.714806 10.21 0)
(-0.804368 10.3233 0)
(-0.882486 10.4627 0)
(-0.945078 10.6232 0)
(-0.987657 10.8015 0)
(-1.00665 10.993 0)
(-0.999718 11.1926 0)
(-0.96583 11.3947 0)
(-0.901474 11.5955 0)
(-0.817157 11.7857 0)
(-0.73496 11.978 0)
(-0.654534 12.1737 0)
(-0.572777 12.3542 0)
(-0.492223 12.5174 0)
(-0.414519 12.6596 0)
(-0.34071 12.7743 0)
(-0.271267 12.8527 0)
(-0.206145 12.8853 0)
(-0.1462 12.8602 0)
(-0.0905185 12.7254 0)
(-0.0433916 12.2011 0)
(-0.0087571 10.4915 0)
(-0.0389355 10.001 0)
(-0.0263201 10.0033 -5.64251e-19)
(-0.0166329 10.0044 0)
(-0.00967158 10.0046 0)
(-0.00479949 10.0041 6.82859e-19)
(-0.00159161 10.0032 0)
(0.000234376 10.002 0)
(0.000870691 10.0007 1.82374e-19)
(0.000467349 10.0001 0)
(-0.0550253 9.99729 0)
(-0.0757901 9.99249 0)
(-0.102174 9.98688 0)
(-0.13526 9.98103 0)
(-0.176177 9.9758 0)
(-0.22604 9.97254 0)
(-0.285813 9.97314 0)
(-0.356149 9.98014 0)
(-0.437178 9.9968 0)
(-0.52817 10.0271 0)
(-0.627166 10.0756 0)
(-0.730569 10.1473 0)
(-0.832777 10.2468 0)
(-0.926248 10.3772 0)
(-1.00451 10.5346 0)
(-1.06366 10.7127 0)
(-1.09947 10.9073 0)
(-1.10888 11.1129 0)
(-1.09028 11.3239 0)
(-1.04345 11.5345 0)
(-0.965386 11.7407 0)
(-0.873936 11.951 0)
(-0.783829 12.1614 0)
(-0.691493 12.3548 0)
(-0.600146 12.5308 0)
(-0.512048 12.6881 0)
(-0.428522 12.8237 0)
(-0.350291 12.9318 0)
(-0.277595 13.0041 0)
(-0.210142 13.0313 0)
(-0.148587 13.0001 0)
(-0.0919385 12.8558 0)
(-0.0439438 12.3088 0)
(-0.0093298 10.563 0)
(-0.0545679 9.99576 0)
(-0.038283 9.99973 0)
(-0.0255172 10.0022 -5.57907e-19)
(-0.0161869 10.0036 -5.18048e-19)
(-0.0094493 10.004 -9.62094e-19)
(-0.00472914 10.0037 0)
(-0.00161957 10.0029 -4.14943e-19)
(0.000157831 10.0018 -3.85406e-19)
(0.000786461 10.0007 1.78983e-19)
(0.000434865 10.0001 0)
(-0.0750012 9.99021 0)
(-0.10105 9.98354 0)
(-0.133731 9.97617 0)
(-0.174192 9.96884 0)
(-0.223607 9.9627 0)
(-0.283064 9.95938 0)
(-0.353418 9.96116 0)
(-0.435123 9.97102 0)
(-0.527936 9.99267 0)
(-0.63058 10.0305 0)
(-0.740354 10.0895 0)
(-0.852739 10.1745 0)
(-0.961072 10.2902 0)
(-1.05682 10.4389 0)
(-1.13323 10.6151 0)
(-1.18681 10.811 0)
(-1.21379 11.0214 0)
(-1.21182 11.2402 0)
(-1.18011 11.4614 0)
(-1.11933 11.6787 0)
(-1.03402 11.906 0)
(-0.933096 12.1353 0)
(-0.828707 12.3437 0)
(-0.724885 12.5326 0)
(-0.624489 12.7025 0)
(-0.529401 12.8528 0)
(-0.440581 12.9809 0)
(-0.3584 13.0818 0)
(-0.282852 13.1476 0)
(-0.213398 13.169 0)
(-0.150481 13.1317 0)
(-0.0930509 12.9778 0)
(-0.0443458 12.4097 0)
(-0.00980186 10.6305 0)
(-0.0743227 9.98819 0)
(-0.0535747 9.99408 -6.31025e-19)
(-0.0369966 9.99829 5.89439e-19)
(-0.0247304 10.0012 -2.67702e-22)
(-0.0157179 10.0028 5.08278e-19)
(-0.00920627 10.0035 4.72116e-19)
(-0.00464432 10.0033 8.76892e-19)
(-0.00163772 10.0026 6.10817e-19)
(8.82662e-05 10.0017 -1.89126e-19)
(0.000706499 10.0006 0)
(0.000403936 10.0001 0)
(-0.0999416 9.98057 0)
(-0.132209 9.97187 0)
(-0.172188 9.96267 0)
(-0.22108 9.95395 0)
(-0.280059 9.94713 0)
(-0.350139 9.94423 0)
(-0.43203 9.94793 0)
(-0.525883 9.96166 0)
(-0.630992 9.98958 0)
(-0.745435 10.0365 0)
(-0.86567 10.1075 0)
(-0.98617 10.2076 0)
(-1.0992 10.341 0)
(-1.19528 10.5089 0)
(-1.26763 10.7045 0)
(-1.31341 10.918 0)
(-1.3295 11.1434 0)
(-1.31442 11.3743 0)
(-1.26831 11.6039 0)
(-1.20116 11.8437 0)
(-1.10581 12.0914 0)
(-0.987584 12.3192 0)
(-0.869311 12.5232 0)
(-0.75461 12.7058 0)
(-0.645825 12.8683 0)
(-0.544371 13.0107 0)
(-0.450811 13.1309 0)
(-0.365155 13.2242 0)
(-0.28714 13.2832 0)
(-0.21599 13.2985 0)
(-0.15194 13.2549 0)
(-0.0938955 13.0919 0)
(-0.0446213 12.5039 0)
(-0.0101859 10.6938 0)
(-0.098991 9.97795 0)
(-0.0728886 9.98601 -8.4003e-22)
(-0.0516397 9.99223 0)
(-0.0357432 9.9969 -4.28118e-22)
(-0.0239136 10.0001 0)
(-0.0152195 10.0021 -4.98823e-19)
(-0.00894283 10.0029 -9.26621e-19)
(-0.00454468 10.0029 2.00305e-23)
(-0.00164624 10.0024 3.99626e-19)
(2.56848e-05 10.0015 -1.85606e-19)
(0.000631253 10.0006 1.72404e-19)
(0.000374638 10.0001 0)
(-0.130715 9.96805 0)
(-0.170197 9.95719 0)
(-0.21853 9.94618 0)
(-0.276929 9.93623 0)
(-0.346527 9.92914 0)
(-0.428237 9.92729 0)
(-0.522529 9.93382 0)
(-0.629165 9.95261 0)
(-0.746885 9.98825 0)
(-0.873015 10.0459 0)
(-1.00308 10.1307 0)
(-1.13049 10.2475 0)
(-1.24646 10.3998 0)
(-1.34068 10.588 0)
(-1.40658 10.8029 0)
(-1.44227 11.0336 0)
(-1.44546 11.2732 0)
(-1.41565 11.5143 0)
(-1.36387 11.7679 0)
(-1.28715 12.0298 0)
(-1.1722 12.2771 0)
(-1.03705 12.5008 0)
(-0.905539 12.6984 0)
(-0.780697 12.8733 0)
(-0.664259 13.0275 0)
(-0.557095 13.1614 0)
(-0.459354 13.2733 0)
(-0.370685 13.3588 0)
(-0.290564 13.4109 0)
(-0.218001 13.4201 0)
(-0.153021 13.3703 0)
(-0.0945099 13.1984 0)
(-0.0447919 12.5917 0)
(-0.010494 10.7532 0)
(-0.129437 9.96466 0)
(-0.096996 9.97515 7.04903e-19)
(-0.0701011 9.98366 -6.59706e-19)
(-0.0497636 9.99045 6.11526e-19)
(-0.0344519 9.99556 0)
(-0.0230559 9.99912 0)
(-0.0146915 10.0013 4.89541e-19)
(-0.00865788 10.0024 -4.54631e-19)
(-0.0044318 10.0026 2.52555e-23)
(-0.00164514 10.0021 1.96129e-19)
(-2.9987e-05 10.0014 -1.82179e-19)
(0.000560703 10.0005 -1.69198e-19)
(0.000347011 10.0001 0)
(-0.168244 9.95233 0)
(-0.215995 9.93928 0)
(-0.273764 9.92655 0)
(-0.342747 9.9157 0)
(-0.424012 9.90886 0)
(-0.518284 9.90888 0)
(-0.625714 9.91934 0)
(-0.745594 9.94458 0)
(-0.876003 9.98956 0)
(-1.01341 10.0596 0)
(-1.15234 10.16 0)
(-1.28513 10.295 0)
(-1.40197 10.4674 0)
(-1.49191 10.6763 0)
(-1.54884 10.9106 0)
(-1.57215 11.1576 0)
(-1.56051 11.4096 0)
(-1.52595 11.6767 0)
(-1.46482 11.9543 0)
(-1.36704 12.2174 0)
(-1.23271 12.4615 0)
(-1.08134 12.6787 0)
(-0.937425 12.8682 0)
(-0.803267 13.0343 0)
(-0.679954 13.1796 0)
(-0.567749 13.3046 0)
(-0.466369 13.408 0)
(-0.375123 13.4857 0)
(-0.293229 13.5308 0)
(-0.219508 13.5339 0)
(-0.153778 13.478 0)
(-0.0949289 13.2977 0)
(-0.0448763 12.6734 0)
(-0.0107375 10.8087 0)
(-0.166582 9.94802 0)
(-0.12674 9.96111 0)
(-0.093108 9.9722 6.96765e-19)
(-0.0674098 9.98142 -1.29512e-18)
(-0.0478398 9.98875 1.20177e-18)
(-0.0331051 9.99427 -1.11536e-18)
(-0.0221573 9.99816 0)
(-0.0141354 10.0006 4.80597e-19)
(-0.00835284 10.0019 -4.46175e-19)
(-0.00430453 10.0022 -4.14483e-19)
(-0.00163461 10.0019 0)
(-7.88931e-05 10.0013 1.78797e-19)
(0.000495512 10.0005 0)
(0.000321538 10.0001 0)
(-0.213509 9.93315 0)
(-0.270613 9.91794 0)
(-0.33891 9.90374 0)
(-0.419555 9.89244 0)
(-0.513473 9.88659 0)
(-0.621133 9.88949 0)
(-0.74229 9.90519 0)
(-0.875662 9.93843 0)
(-1.01856 9.9945 0)
(-1.16652 10.0788 0)
(-1.313 10.1964 0)
(-1.44931 10.3511 0)
(-1.56469 10.5445 0)
(-1.64773 10.7743 0)
(-1.69315 11.0274 0)
(-1.7018 11.2893 0)
(-1.68667 11.5694 0)
(-1.64321 11.8627 0)
(-1.55917 12.1436 0)
(-1.44022 12.4048 0)
(-1.28708 12.6428 0)
(-1.12044 12.8516 0)
(-0.965111 13.0318 0)
(-0.822531 13.1883 0)
(-0.693118 13.3242 0)
(-0.576524 13.4402 0)
(-0.472021 13.535 0)
(-0.378601 13.6049 0)
(-0.295237 13.6432 0)
(-0.220584 13.6402 0)
(-0.15426 13.5784 0)
(-0.095184 13.39 0)
(-0.0448909 12.7493 0)
(-0.0109258 10.8605 0)
(-0.211405 9.9277 0)
(-0.163023 9.94354 0)
(-0.121457 9.95742 0)
(-0.0893717 9.96938 1.36781e-18)
(-0.0646612 9.97927 -1.26943e-18)
(-0.0458433 9.98712 1.17822e-18)
(-0.0317039 9.99305 0)
(-0.0212198 9.99725 -5.07738e-19)
(-0.0135506 9.99994 0)
(-0.00802911 10.0014 4.37919e-19)
(-0.00416358 10.0019 0)
(-0.00161482 10.0017 0)
(-0.000121164 10.0011 0)
(0.000437245 10.0004 1.73808e-19)
(0.000298404 10.0001 8.48864e-20)
(-0.267522 9.91028 0)
(-0.335077 9.89309 0)
(-0.415004 9.8778 0)
(-0.508343 9.86669 0)
(-0.615813 9.86275 0)
(-0.737558 9.86975 0)
(-0.872839 9.89217 0)
(-1.01969 9.93515 0)
(-1.17458 10.0042 0)
(-1.33201 10.1046 0)
(-1.48442 10.241 0)
(-1.62207 10.4165 0)
(-1.73344 10.6316 0)
(-1.80686 10.8823 0)
(-1.83818 11.1529 0)
(-1.84497 11.4451 0)
(-1.82173 11.754 0)
(-1.75356 12.0532 0)
(-1.64614 12.3339 0)
(-1.50634 12.5901 0)
(-1.33527 12.8198 0)
(-1.1545 13.0186 0)
(-0.988824 13.1885 0)
(-0.838745 13.335 0)
(-0.703988 13.4611 0)
(-0.583621 13.568 0)
(-0.476475 13.6545 0)
(-0.381246 13.7167 0)
(-0.296683 13.7482 0)
(-0.221294 13.7395 0)
(-0.154514 13.6719 0)
(-0.0953028 13.4759 0)
(-0.0448489 12.8199 0)
(-0.0110671 10.9086 0)
(-0.264925 9.90349 0)
(-0.206801 9.9221 0)
(-0.156002 9.93897 1.56391e-18)
(-0.116404 9.95392 1.45034e-18)
(-0.0855665 9.9667 1.3452e-18)
(-0.0618197 9.97724 -1.24776e-18)
(-0.0437759 9.98559 0)
(-0.030251 9.9919 0)
(-0.0202449 9.99639 0)
(-0.0129396 9.99931 9.25916e-19)
(-0.00768561 10.0009 4.29886e-19)
(-0.00401046 10.0016 3.99235e-19)
(-0.00158535 10.0015 0)
(-0.000156518 10.001 -1.83653e-19)
(0.00038634 10.0004 -8.97223e-20)
(0.000277331 10.0001 0)
(-0.331315 9.88363 0)
(-0.410437 9.86476 0)
(-0.503062 9.84893 0)
(-0.610055 9.83884 0)
(-0.731866 9.83794 0)
(-0.868224 9.85046 0)
(-1.01779 9.88129 0)
(-1.17784 9.93585 0)
(-1.34387 10.0197 0)
(-1.50939 10.138 0)
(-1.66576 10.2948 0)
(-1.80232 10.4921 0)
(-1.90698 10.7292 0)
(-1.96796 10.9998 0)
(-1.99958 11.3031 0)
(-1.9995 11.6272 0)
(-1.94987 11.9451 0)
(-1.85606 12.2463 0)
(-1.72526 12.5234 0)
(-1.5653 12.7719 0)
(-1.37742 12.9914 0)
(-1.18376 13.1791 0)
(-1.00885 13.338 0)
(-0.852188 13.474 0)
(-0.712804 13.5904 0)
(-0.589238 13.6883 0)
(-0.479886 13.7664 0)
(-0.383176 13.8213 0)
(-0.297653 13.8464 0)
(-0.221699 13.8319 0)
(-0.15458 13.7588 0)
(-0.0953098 13.5557 0)
(-0.0447611 12.8853 0)
(-0.01117 10.9533 0)
(-0.328179 9.87521 0)
(-0.259067 9.89653 0)
(-0.197645 9.91646 -3.30804e-18)