/*--------------------------------*- C++ -*----------------------------------*\
  =========                 |
  \\      /  F ield         | OpenFOAM: The Open Source CFD Toolbox
   \\    /   O peration     | Website:  https://openfoam.org
    \\  /    A nd           | Version:  8
     \\/     M anipulation  |
\*---------------------------------------------------------------------------*/
FoamFile
{
    version     2.0;
    format      ascii;
    class       volScalarField;
    location    "0.26";
    object      epsilon;
}
// * * * * * * * * * * * * * * * * * * * * * * * * * * * * * * * * * * * * * //

dimensions      [0 2 -3 0 0 0 0];

internalField   nonuniform List<scalar> 
15677
(
1.21904e+06
312779
199774
169764
160917
161464
167842
178190
190136
199645
202699
200374
192775
178049
158289
137265
115756
95891.7
77905
62034.7
48399.5
37581.6
29579.5
23714.7
19356.9
16030.7
13412.5
11353.1
9770.05
8572.31
7661.94
6952.78
6381.42
5909.49
5519.03
6.22881e+06
2.03592e+06
1.31232e+06
1.05801e+06
946381
903113
899012
929651
963861
869246
664345
467680
347996
288941
258158
233396
200531
165584
135285
109662
88753.9
73270.9
61733.6
52772.9
45558.3
39625.7
34694.1
30595.4
27227
24515.7
22397.2
20806.7
19678.3
18911.7
18427.6
3.23372e+06
1.54984e+06
1.22365e+06
1.09227e+06
1.07958e+06
1.15379e+06
1.29485e+06
1.38008e+06
1.34011e+06
1.15034e+06
864145
575988
368173
236579
171033
130243
106580
92980.8
86066
80197.3
73764.7
66485.1
59551.1
53740.8
49444.9
46459.8
44633.2
43804.9
43748.7
44322.3
45374.8
46783.2
48448
50303.4
52288.6
491816
402989
407842
407903
405456
404063
397974
379286
344985
323141
312579
283144
245496
216460
207151
211491
192000
146589
109429
91588.5
88014.3
90076.3
92138.7
91255.8
87459.4
81570.8
76537.2
72843.1
70392.7
69028.3
68590.4
68883.2
69753.8
71063.8
72651.5
1.19413e+06
396074
254307
206215
188291
184497
189137
198319
209874
218881
220815
210971
207521
222949
229851
198553
145693
102498
76159.1
64248.1
61070.9
62082.6
66534.7
72146.8
76572.4
78206.3
77160.7
74101
70737.7
68072.6
66265.3
65186.9
64656.5
64494.8
64563.2
634474
210645
133798
104669
90931.2
84622.3
82414.7
81979.6
78470.2
74205.1
72405.6
74761.4
78324.1
79034
71572.2
59323.5
48343.3
39818.2
34710.6
32720.2
32935.1
34343
36198.6
37945.1
39407.9
40724.5
41800.4
42541.7
43008.1
43285.7
43453.2
43564.5
43651.6
43730.2
43807.8
131317
76717.4
66210
64033.6
64894.9
66542.2
63952.7
54943.8
40932.5
27174.7
18398.3
14704.5
13994
14736.8
15283.5
15660.4
16295.9
17254.2
18684.9
20653.9
22991.6
25305.2
27157.3
28393.6
29062
29316
29455.9
29581
29717.5
29860.3
30004.4
30143.5
30272.4
30387.8
30488.1
14744
11344.7
10123.7
9101.62
7845.54
6970.98
6404.47
5997.15
5610.38
5271.04
5082.91
5129.91
5468.84
6320.6
7411.2
8492.75
9485.39
10452.8
11517.2
12735.1
14018.3
15248.1
16340.3
17271.4
18045
18679.7
19202.5
19636.3
19998.6
20303.5
20562.8
20784.7
20976.7
21146.3
21298.9
43016.2
12941.7
7814.81
5992.29
5089.73
4578.55
4281.8
4128.03
4079.76
4118.76
4240.39
4465.32
4792.04
5230.47
5727.04
6248.84
6853.53
7555.7
8372.44
9272.88
10232.6
11180.8
12011.9
12701.5
13255.1
13682.2
14010.5
14281.7
14517
14727
14916.2
15086.7
15239.8
15376.7
15498.5
24332.5
10346.8
7246.58
5877.87
5084.88
4568.04
4215.85
3978.97
3834.57
3772.8
3789.22
3884.59
4060.94
4326.42
4667.1
5053.25
5488.86
5970.55
6499.51
7071.76
7677.37
8277.07
8820.59
9298.54
9712.63
10068.4
10373.6
10636.4
10863.5
11061
11233.6
11385.5
11520.4
11641.3
11750.4
47470.1
15715.5
9926.6
7589.4
6291.14
5447.72
4855.37
4427.73
4124.71
3926.49
3823.27
3802.65
3864.91
4013.36
4229.63
4490.39
4792.19
5134.31
5518.4
5939.01
6385.44
6824.51
7220.31
7565.43
7860.48
8108.73
8315.18
8491.66
8646.85
8785.29
8909.53
9021.24
9121.76
9212.22
9293.59
27452.2
10563.2
7142.63
5686.69
4857.03
4313
3929.83
3652.24
3453.61
3323.24
3257.8
3255.94
3322.88
3458.93
3644.36
3855.15
4094.78
4364.73
4662.26
4983.25
5321.1
5652.94
5955.37
6223.41
6456.89
6658.99
6834.04
6986.37
7119.66
7236.95
7340.67
7432.84
7515.09
7588.78
7655.05
33313.7
12240.8
8128.4
6363.55
5325.45
4615.91
4094.39
3700.38
3404.53
3192.12
3057.3
2996.93
3006.21
3089.24
3234.04
3412.88
3620.91
3850.9
4098.73
4360.45
4631.65
4895.14
5133.59
5345.04
5530.67
5693.13
5833.58
5954.06
6057.91
6149.09
6230.05
6302.61
6367.75
6426.33
6479.03
24992.2
9800.12
6600.27
5173.28
4332.35
3768.84
3367.9
3076.94
2868.69
2728.43
2649.75
2628.02
2661.34
2748.91
2878.23
3032.46
3209.8
3404.83
3611.26
3826.64
4048.6
4263.96
4458.98
4632.25
4785.11
4919.57
5037.31
5140.54
5231.26
5311.28
5382.11
5444.94
5500.94
5550.91
5595.58
22310.7
8663.45
5887.63
4667.02
3940.56
3443.81
3081.59
2812.12
2614.66
2478.03
2396.85
2367.93
2390.3
2465.2
2581.69
2719.22
2874.14
3042.18
3219.74
3403.93
3592.25
3773.88
3937.99
4084.57
4213.89
4327.75
4427.76
4515.5
4592.34
4659.55
4718.34
4770.39
4816.75
4858.15
4895.31
20135.7
7808.47
5197.94
4037.76
3365.1
2925
2620.52
2406.18
2257.86
2162.44
2113.43
2105.56
2138.26
2212.63
2319.5
2442.06
2577.2
2722.35
2875.05
3032.98
3194.23
3350.09
3491.57
3617.16
3728.07
3825.76
3911.68
3987.23
4053.72
4112.32
4164.07
4209.88
4250.52
4286.64
4318.75
15974.6
6370.64
4344.01
3450.34
2926.12
2577.1
2331.02
2155.03
2032.18
1953.17
1913.1
1908.64
1939.24
2005.46
2099.21
2206.41
2325.15
2452.42
2585.89
2723.56
2863.65
2998.44
3120.12
3228.27
3324
3408.53
3483.07
3548.74
3606.57
3657.51
3702.36
3741.83
3776.68
3807.65
3835.27
15844.2
5980.87
3923.53
3045.05
2553.12
2241.04
2031.13
1887.57
1791.87
1734.5
1710.18
1715.18
1749.76
1814.23
1900.18
1996.15
2101.41
2213.66
2330.95
2451.64
2574.14
2691.94
2798.04
2892.26
2975.61
3049.16
3113.98
3171.07
3221.36
3265.68
3304.77
3339.28
3369.79
3396.8
3420.71
12238.1
4916.23
3343.82
2657.49
2263.96
2009.19
1834.9
1714.15
1633.04
1584.14
1563.38
1568.29
1598.79
1655.34
1731.27
1816.24
1909.29
2008.26
2111.46
2217.41
2324.81
2427.85
2520.69
2603.16
2676.14
2740.58
2797.41
2847.48
2891.6
2930.49
2964.76
2994.98
3021.64
3045.21
3066.04
12393.4
4707.84
3111.64
2434.36
2056.98
1818.97
1659.96
1552.26
1481.61
1440.7
1425.06
1432.2
1461.96
1514.05
1582.3
1658.04
1740.63
1828.25
1919.41
2012.87
2107.53
2198.27
2280
2352.58
2416.79
2473.47
2523.42
2567.42
2606.16
2640.28
2670.35
2696.85
2720.24
2740.9
2759.15
10507
4163.44
2812.03
2226.15
1893.61
1680.69
1536.73
1438.23
1372.99
1334.46
1318.84
1323.8
1348.95
1394.36
1454.67
1521.76
1594.89
1672.4
1752.99
1835.56
1919.15
1999.28
2071.47
2135.61
2192.37
2242.49
2286.68
2325.62
2359.91
2390.12
2416.74
2440.21
2460.91
2479.18
2495.32
10552.4
4029.31
2669.67
2091.51
1768.63
1564.61
1428.15
1335.68
1274.96
1239.3
1224.75
1228.68
1250.5
1290.46
1343.86
1403.36
1468.24
1536.99
1608.45
1681.64
1755.74
1826.81
1890.85
1947.78
1998.19
2042.73
2082.02
2116.64
2147.15
2174.03
2197.73
2218.63
2237.08
2253.37
2267.78
9619.16
3738.8
2498.7
1965.81
1665.23
1473.58
1344.37
1256.06
1197.46
1162.4
1146.89
1148.47
1166.65
1201.42
1248.52
1301.24
1358.84
1419.92
1483.43
1548.5
1614.42
1677.67
1734.73
1785.5
1830.51
1870.31
1905.46
1936.47
1963.82
1987.95
2009.23
2028.02
2044.62
2059.3
2072.28
9416.3
3596.22
2382.92
1866.77
1578.11
1395.2
1272.2
1187.87
1131.26
1096.41
1079.98
1079.5
1094.43
1124.64
1166.23
1213.06
1264.36
1318.82
1375.47
1433.56
1492.45
1549.02
1600.11
1645.63
1686.05
1721.85
1753.51
1781.49
1806.2
1828.02
1847.31
1864.35
1879.43
1892.78
1904.62
8882.12
3414.69
2268.88
1779.02
1503.94
1329.01
1210.78
1129.3
1074.14
1039.56
1022.32
1020.13
1032.25
1058.5
1095.32
1137.07
1182.93
1231.69
1282.47
1334.58
1387.46
1438.33
1484.36
1525.44
1561.99
1594.44
1623.19
1648.66
1671.19
1691.14
1708.8
1724.44
1738.3
1750.59
1761.5
8642.82
3295.81
2181.33
1706.97
1441.05
1271.89
1157.48
1078.41
1024.56
990.28
972.434
968.818
978.563
1001.44
1034.2
1071.6
1112.83
1156.74
1202.52
1249.56
1297.35
1343.4
1385.16
1422.53
1455.87
1485.54
1511.9
1535.32
1556.1
1574.54
1590.91
1605.45
1618.35
1629.83
1640.04
8311.07
3171.6
2098.81
1641.77
1385.24
1221.78
1110.99
1034.16
981.509
947.559
929.241
924.448
932.191
952.21
981.525
1015.24
1052.54
1092.36
1133.92
1176.68
1220.21
1262.25
1300.47
1334.77
1365.48
1392.9
1417.36
1439.16
1458.57
1475.86
1491.25
1504.96
1517.18
1528.06
1537.78
8095.96
3075.36
2030.22
1585.92
1336.82
1178.12
1070.45
995.597
944.043
910.43
891.762
886.008
892.079
909.699
936.114
966.738
1000.75
1037.13
1075.17
1114.38
1154.37
1193.11
1228.44
1260.28
1288.89
1314.55
1337.54
1358.11
1376.52
1392.98
1407.69
1420.85
1432.62
1443.14
1452.57
7873.57
2985.89
1968.85
1536.7
1294.4
1139.95
1035.04
961.946
911.38
878.1
859.175
852.641
857.326
872.944
896.937
924.983
956.255
989.793
1024.94
1061.24
1098.36
1134.44
1167.48
1197.38
1224.38
1248.73
1270.65
1290.37
1308.11
1324.05
1338.37
1351.23
1362.78
1373.16
1382.49
7702.41
2911.39
1916.2
1493.95
1257.37
1106.57
1004.06
932.513
882.833
849.881
830.773
823.609
827.152
841.113
863.101
889.02
918.045
949.263
982.062
1016.02
1050.86
1084.86
1116.14
1144.6
1170.44
1193.87
1215.1
1234.32
1251.69
1267.4
1281.59
1294.4
1305.96
1316.4
1325.82
5067.22
4610.46
4217.01
3890.55
3641.6
3470.25
3353.82
3258.99
3152.37
3005.74
2820.83
2626.95
2465.03
2371.06
2373.19
2498.52
2788.92
3254.45
3847.74
4500.82
5197.61
5910.38
17970.6
17670.4
17640.7
17832.1
18244.5
18816.8
19512.2
20285.1
21066.9
21770.8
22331.4
22791.8
23481.5
24871.6
27213.2
31162.3
37330
46130.9
55803.1
64216.3
69619
71094.2
54929.8
58762.3
63489.5
69386.8
76818.1
86146.2
97724.7
112161
128153
142577
153317
158414
156737
148895
136319
120829
106742
95188.3
86290.8
79519.3
74208.2
69834.3
75012.6
78705.9
82972.8
87321.5
91503.2
95335.7
98737.3
101745
104075
105667
106629
106955
106368
104583
101631
97710.5
93059.6
88016.8
82991.5
78344.3
74237
70672.5
64996.7
65968.6
67147.9
68425.1
69666.4
70714
71358.6
71506.5
71502.9
71529
71550.8
71542.3
71470.4
71289.9
70949.7
70415.7
69690.4
68820.2
67744.3
66455.6
64986.4
63381.7
44133.4
44750.3
45412.9
46098.3
46781.1
47431.9
48039.8
48583.7
49061.6
49485.5
49867.7
50213
50515.9
50772.7
50981.2
51135.7
51228.9
51251.3
51182.9
51021.3
50774.1
50450.3
30787.1
31302.4
31829.6
32366.1
32907
33447.1
33981.4
34504.7
35016.2
35518.2
36014
36502.1
36969.4
37405.3
37808.8
38177.8
38509.5
38800.7
39047.7
39244.9
39385
39471.9
21626
22142.6
22666.1
23194.7
23725.9
24256.1
24785.4
25313.6
25840.7
26367.2
26892.3
27411.1
27908.9
28377.2
28817.2
29229.5
29614.2
29970.4
30297
30593.9
30861.2
31099
15753.1
16159.6
16579.2
17010
17451.4
17902.9
18364
18834.6
19314.2
19802.7
20299.9
20801.8
21293.8
21765.3
22215.8
22645.1
23052.6
23438.2
23801.3
24141.5
24458.7
24753.6
11964
12297.2
12641.9
12997.6
13364.2
13741.7
14130
14528.9
14938.3
15357.9
15787.1
16222.1
16650.2
17062.8
17460.1
17842.1
18209.4
18562.2
18900.7
19224.9
19534.9
19830.4
9453.68
9707.32
9972.77
10249.7
10537.8
10837.4
11148.5
11471.3
11806
12152.5
12510.9
12878.5
13244.8
13601.7
13949.2
14286.7
14614.1
14931.2
15237.8
15533.9
15819.4
16094.5
7782.78
7983.09
8192.7
8411.74
8640.46
8879.1
9127.89
9387.03
9656.68
9936.88
10227.6
10526.4
10824.5
11116.4
11402.3
11682.3
11956.4
12224.2
12485.7
12740.7
12989.1
13230.7
6581.98
6744.59
6914.45
7091.8
7276.93
7470.01
7671.45
7881.58
8100.68
8329.03
8566.9
8812.76
9059.82
9302.82
9541.74
9776.59
10007.3
10234
10456.4
10674.6
10888.4
11097.5
5682.72
5819.66
5962.56
6111.55
6266.87
6428.76
6597.49
6773.33
6956.49
7147.12
7345.29
7549.7
7755.22
7957.77
8157.37
8354.03
8547.79
8738.71
8926.8
9111.81
9293.55
9471.8
4970.05
5088.84
5212.23
5340.47
5473.88
5612.7
5757.31
5908.02
6065.18
6229.17
6400.41
6578.13
6757.76
6935.15
7109.88
7281.63
7450.13
7615.53
7778.02
7937.74
8094.73
8248.98
4384.49
4489.32
4598.4
4711.73
4829.49
4951.91
5079.21
5211.68
5349.59
5493.25
5643
5798.18
5954.61
6109.04
6261.35
6411.38
6559.01
6704.16
6846.81
6987
7124.76
7260.08
3893.83
3988.09
4085.85
4187.27
4292.55
4401.89
4515.58
4633.77
4756.7
4884.62
5017.84
5155.66
5294.48
5431.41
5566.41
5699.43
5830.42
5959.33
6086.12
6210.77
6333.3
6453.69
3472.92
3557.67
3645.81
3737.39
3832.53
3931.36
4034.04
4140.76
4251.69
4367.05
4487.09
4611.15
4735.97
4858.98
4980.17
5099.53
5217.04
5332.68
5446.44
5558.3
5668.26
5776.29
3112.98
3189.86
3269.78
3352.86
3439.23
3529
3622.3
3719.26
3820.06
3924.86
4033.86
4146.47
4259.68
4371.18
4480.97
4589.03
4695.38
4800
4902.9
5004.06
5103.5
5201.2
2801.72
2871.99
2945.04
3020.97
3099.91
3181.96
3267.25
3355.9
3448.05
3543.85
3643.47
3746.33
3849.71
3951.47
4051.6
4150.1
4246.99
4342.27
4435.94
4528
4618.46
4707.32
2534
2598.32
2665.25
2734.87
2807.28
2882.57
2960.87
3042.26
3126.89
3214.86
3306.34
3400.77
3495.65
3589
3680.82
3771.1
3859.86
3947.1
4032.82
4117.04
4199.77
4281.01
2303.12
2362.21
2423.73
2487.78
2554.43
2623.78
2695.92
2770.95
2848.97
2930.1
3014.45
3101.53
3188.99
3275.02
3359.6
3442.74
3524.43
3604.68
3683.51
3760.91
3836.91
3911.52
2104.64
2158.97
2215.61
2274.64
2336.13
2400.15
2466.8
2536.16
2608.32
2683.38
2761.43
2842.02
2922.95
3002.55
3080.78
3157.65
3233.16
3307.3
3380.09
3451.55
3521.67
3590.48
1934.34
1984.36
2036.57
2091.04
2147.85
2207.06
2268.76
2333.01
2399.91
2469.52
2541.95
2616.75
2691.88
2765.77
2838.39
2909.72
2979.77
3048.54
3116.03
3182.24
3247.2
3310.92
1788.87
1834.93
1883.08
1933.38
1985.9
2040.7
2097.87
2157.47
2219.58
2284.26
2351.6
2421.17
2491.09
2559.85
2627.45
2693.85
2759.05
2823.03
2885.82
2947.4
3007.79
3067.02
1665.32
1707.74
1752.14
1798.59
1847.15
1897.9
1950.89
2006.2
2063.89
2124.03
2186.7
2251.5
2316.66
2380.78
2443.82
2505.77
2566.59
2626.29
2684.86
2742.31
2798.63
2853.85
1561.21
1600.29
1641.23
1684.12
1729.01
1775.98
1825.09
1876.4
1929.98
1985.91
2044.23
2104.6
2165.36
2225.19
2284.06
2341.92
2398.76
2454.56
2509.31
2563.01
2615.67
2667.29
1474.39
1510.4
1548.17
1587.77
1629.26
1672.72
1718.2
1765.77
1815.5
1867.45
1921.69
1977.9
2034.52
2090.33
2145.29
2199.36
2252.51
2304.72
2355.96
2406.23
2455.53
2503.86
1402.95
1436.17
1471.04
1507.63
1545.99
1586.19
1628.29
1672.36
1718.45
1766.65
1817.01
1869.25
1921.93
1973.92
2025.18
2075.65
2125.32
2174.15
2222.12
2269.21
2315.4
2360.7
1345.16
1375.9
1408.16
1442.02
1477.52
1514.73
1553.7
1594.49
1637.17
1681.8
1728.47
1776.9
1825.78
1874.08
1921.76
1968.77
2015.09
2060.7
2105.56
2149.65
2192.95
2235.43
6767.87
7784.76
8432.32
8899.06
9455.92
10377.6
69602
65151.3
58804.8
51941.7
45604.9
40436.2
65552
61155.9
57007.7
53228.5
50055.1
47609.1
67124.3
63578.5
60236.4
57167.3
54312.6
51615.8
61324.1
58943.6
56631.4
54424.6
52349.9
50434.7
49812.2
48888.6
47912.9
46902
45874.6
44843.5
39306.9
38912.2
38491.7
38047.8
37585.3
37110.5
31145.4
31013.5
30856.5
30678.9
30483.6
30272.3
24889.2
24876.2
24850
24810
24756.7
24691.4
19995.6
20036.4
20066.9
20087.6
20098.7
20100.3
16260.9
16320.8
16374.1
16420.2
16459.4
16491.7
13382.7
13445.7
13503.9
13557.2
13605.7
13649.1
11232.5
11292.7
11349.2
11401.8
11450.5
11495
9588.35
9642.21
9693.22
9741.15
9785.91
9827.24
8350.62
8397.75
8442.16
8483.64
8522.12
8557.43
7348.17
7387.36
7424.32
7458.95
7491.18
7520.83
6530.98
6563.34
6593.53
6621.47
6647.08
6670.25
5844.18
5870.16
5894.09
5915.91
5935.55
5952.91
5261.17
5281.69
5300.22
5316.71
5331.11
5343.33
4760.5
4776.39
4790.38
4802.43
4812.5
4820.53
4328.44
4340.57
4350.9
4359.38
4366
4370.69
3954.08
3963.24
3970.68
3976.39
3980.33
3982.49
3628.92
3635.78
3641.02
3644.62
3646.57
3646.84
3345.88
3351
3354.58
3356.63
3357.12
3356.05
3099.02
3102.84
3105.22
3106.14
3105.61
3103.61
2883.33
2886.21
2887.72
2887.86
2886.62
2884.02
2694.58
2696.79
2697.7
2697.3
2695.61
2692.63
2529.25
2530.98
2531.48
2530.75
2528.78
2525.58
2384.37
2385.79
2386.02
2385.08
2382.95
2379.66
2257.53
2258.71
2258.77
2257.71
2255.54
2252.25
11596.6
13078.6
14896.5
16976.4
19219
21517.2
23759.9
25836.7
27638.5
29059.3
29990.8
30293.6
30098
29543.1
28788.8
27927.3
27023.1
26122.8
25242.1
24518.3
24035.7
23802.3
37135.6
34956.1
33345.2
32415.4
32140.3
32352.7
32942.6
33721.7
34532.8
35289.1
35971.6
36589.8
37153
37671.2
38155.9
38582.1
38997
39420.7
39870.6
40359
40888.4
41456
46099.9
45283.8
44991.8
45243.5
46045.9
47380
49188.2
51310.6
53455.8
55295.7
56713
57579.2
57706
57035
55617.8
54096
52828.1
51870.3
51173.5
50697.2
50407.4
50279.7
49568.4
48056.1
46865.5
45998
45460.2
45235
45291.1
45593.9
46164.1
47002.8
48161.2
49682.6
51486.7
53366.8
54902.8
55869.9
56189.5
56446.7
56727.3
57095.4
57614.1
58324.6
48858.6
47563.3
46437.4
45474
44666.2
44017.6
43527.1
43193.7
43022.3
43024.2
43206.1
43585.6
44138.3
44824.2
45578.1
46275.7
46924
47574.3
48261.3
49012.9
49845.6
50754.9
43817.4
42830.5
41889.2
40999.1
40165
39393.6
38693.1
38074.1
37550
37130.3
36813.4
36597.2
36474.2
36423.8
36424.5
36459.5
36521.7
36603.5
36699.1
36803.6
36912.4
37019.2
36543.2
35907
35285.5
34680.4
34093.1
33526.5
32984.6
32472.1
31993.3
31552.6
31153
30798.2
30495
30238.2
30018.5
29828.7
29662.9
29516.2
29384.9
29267
29165.4
29080.4
29936.1
29496.5
29058.2
28621.2
28186.7
27755.5
27328.3
26905.4
26489
26080.7
25680.4
25290
24918.6
24570.5
24241.9
23929.4
23629.7
23340.2
23057.7
22779.2
22501.9
22223.6
24492.4
24175.4
23852.8
23524.2
23190
22850.5
22506
22156.7
21802.8
21444.3
21081
20714.5
20355.6
20012
19682.6
19366.1
19061.3
18767.1
18482.7
18207.7
17941.4
17684
19975.7
19735.7
19490.7
19240.3
18984
18721.5
18452.5
18176.8
17893.8
17602.9
17303.2
16995.2
16688.6
16391.3
16102.3
15820.3
15543.7
15273.3
15009.6
14752.6
14502.5
14259.4
16408.7
16218.1
16022.2
15820.8
15613.8
15400.9
15182.2
14957.5
14726.6
14489.3
14245.1
13995
13745.5
13501.6
13262.9
13029.5
12802
12580.6
12365.8
12157.4
11955.3
11759.5
13592.4
13440.3
13283.9
13123.7
12959.4
12791
12618.4
12441.5
12259.9
12072.8
11878.4
11676.9
11473.7
11273.4
11076.1
10882
10691.3
10503.8
10320.1
10140.5
9965
9793.86
11452.9
11327.3
11197.9
11064.9
10927.9
10787.2
10642.3
10492.8
10338.3
10177.9
10011
9838.09
9663.68
9491.31
9320.99
9152.72
8986.52
8822.45
8660.56
8500.88
8343.41
8188.3
9794.5
9689.05
9579.73
9466.52
9349.27
9227.88
9102.31
8972.19
8836.98
8696.05
8548.75
8395.5
8240
8085.27
7931.12
7777.48
7624.78
7473.39
7323.6
7175.71
7029.99
6886.85
8527.94
8434.63
8337.61
8236.65
8131.46
8021.67
7906.82
7786.26
7659.2
7524.92
7383.19
7234.97
7084.6
6935.74
6788.62
6643.26
6499.75
6358.2
6218.73
6081.43
5946.42
5813.93
7492.46
7406.05
7315.71
7221.21
7122.22
7018.34
6909.18
6794.31
6673.32
6545.94
6411.93
6272.14
6130.47
5990.1
5851.46
5715.03
5580.82
5448.76
5319.04
5191.9
5067.58
4946.4
6640.6
6557.8
6471.07
6380.14
6284.75
6184.61
6079.44
5968.98
5853.01
5731.34
5603.83
5471.33
5337.58
5205.62
5075.72
4948.05
4822.73
4699.89
4579.66
4462.48
4348.61
4238.14
5921.66
5841.28
5757.06
5668.82
5576.35
5479.48
5378.01
5271.8
5160.72
5044.66
4923.56
4798.29
4672.44
4548.86
4427.78
4309.41
4193.93
4081.55
3972.46
3866.82
3764.73
3666.28
5310.54
5232.25
5150.38
5064.79
4975.36
4881.97
4784.52
4682.92
4577.13
4467.13
4352.91
4235.39
4117.97
4003.33
3891.65
3783.12
3677.9
3576.11
3477.84
3383.14
3292.03
3204.5
4786.76
4710.78
4631.54
4548.96
4462.98
4373.52
4280.56
4184.06
4084.04
3980.52
3873.59
3764.14
3655.39
3549.76
3447.42
3348.48
3253
3161.05
3072.62
2987.7
2906.25
2828.22
4336.52
4263.19
4186.96
4107.8
4025.67
3940.56
3852.47
3761.42
3667.46
3570.68
3471.16
3369.81
3269.59
3172.72
3079.27
2989.31
2902.84
2819.85
2740.32
2664.19
2591.38
2521.84
3948.46
3878.12
3805.23
3729.8
3651.82
3571.3
3488.29
3402.83
3315
3224.89
3132.64
3039.08
2946.95
2858.26
2773.01
2691.23
2612.87
2537.89
2466.22
2397.79
2332.51
2270.28
3613.41
3546.27
3476.93
3405.4
3331.69
3255.86
3177.94
3098.01
3016.15
2932.48
2847.13
2760.88
2676.25
2595.04
2517.23
2442.79
2371.66
2303.75
2239
2177.3
2118.56
2062.65
3323.55
3259.74
3194.02
3126.43
3056.99
2985.77
2912.82
2838.21
2762.05
2684.45
2605.52
2526.01
2448.23
2373.8
2302.66
2234.76
2170.02
2108.34
2049.63
1993.79
1940.7
1890.24
3072.26
3011.8
2949.69
2885.98
2820.72
2753.95
2685.75
2616.19
2545.37
2473.41
2400.41
2327.07
2255.5
2187.17
2122
2059.92
2000.84
1944.64
1891.23
1840.5
1792.33
1746.6
2853.97
2796.8
2738.22
2678.27
2617.01
2554.49
2490.78
2425.97
2360.13
2293.39
2225.84
2158.13
2092.19
2029.36
1969.56
1912.67
1858.61
1807.27
1758.52
1712.28
1668.42
1626.82
2663.96
2610
2554.83
2498.5
2441.06
2382.57
2323.09
2262.71
2201.52
2139.6
2077.08
2014.52
1953.72
1895.88
1840.91
1788.69
1739.12
1692.1
1647.5
1605.22
1565.15
1527.18
2498.33
2447.48
2395.6
2342.73
2288.92
2234.24
2178.76
2122.54
2065.68
2008.27
1950.4
1892.6
1836.51
1783.23
1732.64
1684.64
1639.12
1595.96
1555.05
1516.29
1479.59
1444.81
2353.85
2306.01
2257.28
2207.72
2157.38
2106.32
2054.62
2002.35
1949.58
1896.39
1842.87
1789.49
1737.76
1688.67
1642.1
1597.93
1556.05
1516.36
1478.74
1443.11
1409.37
1377.41
2227.9
2182.94
2137.22
2090.83
2043.81
1996.23
1948.16
1899.66
1850.79
1801.61
1752.2
1702.97
1655.3
1610.07
1567.17
1526.48
1487.88
1451.29
1416.6
1383.73
1352.6
1323.1
23755.6
23779.4
23908
24158.9
24555.7
25129.4
25916.8
26948.5
28242
29815.5
31690.3
33893.1
36465.9
39476
42878.7
46490.2
49843.3
52660.9
54568.8
56382.4
59083.6
60958
58241.4
50448.7
42127.8
36475.2
35357
39850.6
50075.7
65225
82346.8
97915.4
113638
166436
958822
41941.3
42331.2
42804.6
43387
44104.1
44969.9
46004.9
47243.9
48767.9
50586
52714.8
55115.7
57690.3
60266.4
62871.5
66350.7
71649.5
81162.5
94560.8
113400
147540
209608
295802
341346
325137
295580
277382
275783
288959
324998
392316
508337
731005
1.31697e+06
4.63228e+06
50259.1
50238.5
50257.9
50339.8
50510.1
50780.2
51096.1
51417.5
51628.3
51525.8
50861.8
49420.7
47522.2
45837.4
45504.2
47659.4
54464.2
69682.9
100923
153384
231650
355403
570964
826970
977991
982619
917539
840049
774706
729365
709231
737114
856336
1.23717e+06
3.34271e+06
59077.9
59793.9
60723.8
61929.9
63476.6
65400.5
67616.4
69626.4
70468.9
69122.3
64798.2
58254.3
51845.7
48645.4
49059.2
56405.5
72755.3
103717
151756
212245
263436
298726
351195
425474
503624
556096
581260
587806
584298
578501
585284
618989
707543
961620
2.25049e+06
51689.7
52637.2
53787.6
55127.9
56546.9
57796.1
58555.1
58389.2
57175.9
54838.7
51710.4
48154.6
44571.5
40853.3
37393.3
35385.5
36685.7
42635.6
59006.1
97497.7
169354
263685
355313
419343
449248
456828
447521
424218
401486
388353
386040
398918
439793
563214
1.2335e+06
37195
37455.7
37743.3
38057.3
38394.5
38742.5
39064.2
39287.8
39295.5
38862
37682.7
35521.5
32498.3
29120.1
26495.5
25652.6
26556.6
29069.1
33611.1
42715.3
59430.1
84512.9
113539
142136
163365
171413
172861
170946
168305
166157
165422
167276
175615
206527
379942
29110.1
29243.6
29416.7
29636.3
29905.9
30208.2
30462.6
30447.6
30073.1
29209.6
27872.3
26176.9
24268.7
22213.5
20008.9
17735.1
15748.8
14283.4
13439.4
13225.9
13668.9
14809.5
16547.3
18920.5
23037.8
31806.6
45771.3
57723.2
61482.5
58548.6
51840.1
46984
44350.4
44473.8
62728.5
22059.8
22006.2
21938.1
21853.4
21750.9
21624
21461.3
21246.6
20962.4
20582.6
20058.4
19340.5
18376.8
17115.9
15567.2
13903.2
12347.9
11036.9
10063.3
9512.69
9404.97
9700.38
10004
9887.52
9248.81
8903.05
9220.17
10277.7
10853
10982.5
10775.2
10486.3
10368.6
11049.6
16468.1
17538.6
17490.8
17436.9
17375.6
17305.8
17226.5
17127.2
16981.2
16758.3
16437.5
15992.1
15394.7
14623.9
13673.8
12578.6
11450.3
10365.8
9343.69
8405.01
7566.88
6872.29
6327.26
5942.56
5683.42
5475.03
5342.76
5326.99
5444.57
5733.35
6258.88
7115.96
8509.78
11156.9
17922.3
55647.7
14112
14050.3
13980.3
13899.8
13806.6
13696.9
13565.3
13404.4
13204.1
12952.3
12635.7
12240.3
11752.3
11159.8
10456.1
9672
8852.38
8026.63
7232.06
6499.32
5846.99
5279.79
4857.01
4594.16
4464.38
4454.31
4558.85
4785.22
5152.61
5696.98
6491.88
7705.78
9803.65
14654.1
38834.5
11646.1
11604.4
11556.6
11501.5
11437.8
11363
11272.9
11158.7
11007.9
10811.9
10560.3
10241.1
9840.79
9346.33
8752.72
8096.82
7430.26
6774.86
6153.17
5578.84
5063.9
4613.09
4284.57
4105.26
4056.11
4123.83
4302.79
4595.61
5016.81
5601.63
6426.41
7670.46
9840.58
15030.8
42439.3
9693.11
9655.73
9612.37
9561.55
9500.99
9428.04
9339.38
9230.61
9096.15
8929.38
8722.63
8466.95
8153.52
7775.57
7326.72
6826.43
6314.91
5807.76
5314.38
4842.16
4405.03
4011.16
3707.6
3516.71
3423.19
3416.31
3490.42
3653.16
3918.16
4316.15
4913.34
5858.82
7556.05
11574.9
31277.4
8096.92
8063.8
8025.43
7980.93
7929.02
7867.82
7794.42
7703.76
7590.34
7449.64
7276.33
7064.17
6806.2
6495.18
6127.41
5722.7
5308.4
4894.84
4492.54
4113.1
3768.73
3463.3
3231.36
3090.16
3030.49
3047.33
3140.29
3316.36
3588.69
3985.31
4564.37
5457.16
7024.7
10711.9
29139.6
6801.62
6769.58
6732.49
6689.3
6638.69
6578.96
6507.98
6423.01
6320.77
6197.41
6048.55
5869.38
5654.92
5399.24
5103.73
4785.71
4463.76
4142.49
3827.32
3527.25
3250.89
2998.77
2797.68
2666.36
2599.49
2593.4
2645.31
2762.32
2956.9
3254.07
3705.68
4426.87
5726.47
8796.87
23634
5734.93
5704.89
5670.62
5631.38
5586.14
5533.47
5471.18
5396.39
5306.85
5199.91
5072.56
4921.45
4743.04
4533.8
4292.67
4034.28
3773
3513.93
3262.04
3022.61
2801.26
2599.56
2441.83
2342.88
2298.23
2305.45
2364.77
2482.24
2668.72
2945.83
3356.89
3997.63
5126.23
7754.52
20485.5
4873.71
4845.06
4812.63
4775.48
4732.71
4683.23
4625.67
4558.4
4479.53
4386.88
4278.03
4150.39
4001.32
3828.31
3631
3420.08
3210.26
3003.33
2802.76
2611.98
2434.14
2270.74
2141.55
2058.98
2019.65
2022.08
2066.03
2157.96
2307.97
2536.11
2882.94
3437.52
4437.45
6798
18159.1
4172.04
4145.83
4116.31
4082.91
4044.82
4000.91
3949.9
3890.6
3821.64
3741.46
3648.29
3540.24
3415.36
3271.84
3109.59
2937.78
2766.5
2598.14
2435.42
2281.22
2138.79
2008.88
1907.14
1843.73
1816.53
1824.88
1870.24
1957.71
2096.04
2302
2608.5
3087.21
3928.91
5871.42
15057.1
3607.25
3583.37
3556.57
3526.27
3491.74
3452.25
3406.94
3354.84
3294.83
3225.64
3145.89
3054.13
2948.86
2828.74
2693.84
2551.87
2410.84
2272.71
2139.55
2013.58
1897.31
1790.95
1706.45
1653.61
1631.29
1639.03
1678.28
1754.29
1875.39
2057.93
2334.44
2776.14
3573.05
5458.28
14542.9
3152.14
3130.89
3106.85
3079.6
3048.65
3013.43
2973.26
2927.38
2874.92
2814.89
2746.23
2667.81
2578.47
2477.16
2364.02
2245.49
2128.13
2013.46
1903.1
1798.87
1702.94
1615.82
1548.27
1507.53
1492.77
1503.9
1542.62
1613.06
1722.3
1883.89
2124.17
2500.16
3162.39
4686.74
11831.1
2781.58
2762.62
2741.23
2717.06
2689.69
2658.62
2623.32
2583.15
2537.4
2485.29
2425.96
2358.51
2282.04
2195.73
2099.73
1999.53
1900.6
1804.12
1711.41
1623.94
1543.55
1470.69
1414.36
1380.46
1369.26
1380.96
1417.58
1483.4
1585.58
1737.73
1966.44
2329.65
2981.44
4515.8
11879.5
2480.34
2463.45
2444.41
2422.92
2398.63
2371.13
2339.96
2304.61
2264.49
2218.95
2167.32
2108.85
2042.84
1968.6
1886.33
1800.71
1716.35
1634.23
1555.41
1481.18
1413.14
1351.87
1305.37
1278.82
1272.18
1286.08
1322.74
1385.96
1482.27
1623.88
1834.21
2164.16
2748.52
4104.65
10508.6
2233.19
2218.08
2201.08
2181.92
2160.31
2135.9
2108.29
2077.04
2041.67
2001.65
1956.4
1905.31
1847.81
1783.33
1712.07
1638.07
1565.29
1494.53
1426.7
1362.92
1304.64
1252.53
1213.77
1192.98
1190.08
1205.46
1241.38
1301.64
1392.84
1527.1
1727.67
2044.83
2612
3943.97
10322.7
2029.37
2015.77
2000.5
1983.31
1963.95
1942.12
1917.47
1889.64
1858.22
1822.76
1782.76
1737.74
1687.19
1630.66
1568.32
1503.71
1440.25
1378.62
1319.6
1264.19
1213.72
1168.94
1136.35
1120.04
1120.07
1136.93
1173.02
1231.76
1319.32
1447.27
1637.31
1936.06
2466.98
3705.3
9595.8
1860.19
1847.86
1834.03
1818.48
1800.99
1781.31
1759.13
1734.15
1706
1674.3
1638.65
1598.61
1553.77
1503.73
1448.67
1391.69
1335.79
1281.54
1229.64
1181
1136.83
1097.95
1070.27
1057.48
1059.73
1077.73
1113.81
1171.35
1256.36
1379.77
1562.46
1849.65
2361.76
3563.89
9328.23
1719.32
1708.02
1695.35
1681.14
1665.18
1647.25
1627.09
1604.43
1578.96
1550.35
1518.26
1482.31
1442.15
1397.44
1348.33
1297.59
1247.87
1199.65
1153.56
1110.43
1071.4
1037.31
1013.6
1003.62
1007.56
1026.34
1062.2
1118.39
1200.74
1319.71
1495.29
1770.65
2260.42
3407.31
8887.53
1601.89
1591.39
1579.64
1566.48
1551.73
1535.2
1516.65
1495.86
1472.56
1446.46
1417.26
1384.65
1348.31
1307.96
1263.73
1218.11
1173.44
1130.17
1088.85
1050.23
1015.41
985.226
964.735
956.99
962.249
981.549
1017.05
1071.94
1151.91
1267.09
1436.91
1703.32
2177.94
3292.22
8635.38
1504.27
1494.35
1483.27
1470.89
1457.05
1441.58
1424.29
1404.95
1383.36
1359.25
1332.36
1302.44
1269.2
1232.39
1192.14
1150.7
1110.18
1070.96
1033.55
998.642
967.276
940.3
922.436
916.501
922.787
942.445
977.564
1031.25
1109.04
1220.79
1385.26
1643.06
2102.1
3179.76
8347.02
1423.59
1414.04
1403.4
1391.55
1378.34
1363.63
1347.24
1328.99
1308.68
1286.1
1261.02
1233.21
1202.44
1168.47
1131.44
1093.39
1056.26
1020.35
986.139
954.279
925.749
901.408
885.693
881.225
888.319
908.216
942.939
995.527
1071.41
1180.17
1340.12
1590.82
2037.58
3088.11
8135.45
1357.59
1348.2
1337.78
1326.22
1313.37
1299.13
1283.32
1265.81
1246.4
1224.93
1201.2
1175.01
1146.15
1114.42
1079.94
1044.62
1010.21
976.996
945.39
916.017
889.809
867.626
853.669
850.391
858.119
878.168
912.493
964.092
1038.28
1144.42
1300.37
1544.73
1980.31
3005.33
7934.11
1304.41
1294.98
1284.56
1273.04
1260.32
1246.26
1230.75
1213.65
1194.81
1174.08
1151.28
1126.26
1098.82
1068.79
1036.29
1003.11
970.868
939.799
910.293
882.933
858.615
838.193
825.67
823.354
831.577
851.712
885.653
936.358
1009.04
1112.88
1265.37
1504.32
1930.53
2934.81
7771.11
7527.07
2837.6
1864.64
1452.24
1221.28
1074.04
973.87
903.829
855.029
822.429
803.183
795.462
797.967
810.415
830.578
854.569
881.574
910.725
941.452
973.38
1006.27
1038.54
1068.4
1095.74
1120.74
1143.57
1164.4
1183.4
1200.69
1216.44
1230.75
1243.76
1255.58
1266.3
1276.04
7367.49
2768.76
1816
1412.71
1187
1043.12
945.17
876.576
828.635
796.406
777.083
768.903
770.522
781.671
800.274
822.635
847.954
875.412
904.48
934.827
966.262
997.299
1026.24
1052.94
1077.55
1100.22
1121.07
1140.24
1157.85
1174
1188.79
1202.34
1214.72
1226.04
1236.37
7232.27
2710.03
1774.37
1378.81
1157.58
1016.57
920.528
853.189
806.009
774.133
754.792
746.285
747.237
757.401
774.833
795.992
820.097
846.373
874.331
903.68
934.273
964.697
993.282
1019.87
1044.58
1067.52
1088.8
1108.51
1126.76
1143.62
1159.19
1173.54
1186.75
1198.89
1210.04
7117.93
2659.64
1738.45
1349.5
1132.12
993.579
899.198
832.957
786.455
754.914
735.601
726.87
727.33
736.764
753.34
773.644
796.922
822.439
849.748
878.594
908.87
939.213
967.946
994.884
1020.11
1043.71
1065.76
1086.34
1105.52
1123.36
1139.94
1155.32
1169.56