/*--------------------------------*- C++ -*----------------------------------*\
  =========                 |
  \\      /  F ield         | OpenFOAM: The Open Source CFD Toolbox
   \\    /   O peration     | Website:  https://openfoam.org
    \\  /    A nd           | Version:  8
     \\/     M anipulation  |
\*---------------------------------------------------------------------------*/
FoamFile
{
    version     2.0;
    format      ascii;
    class       volScalarField;
    location    "0.26";
    object      k;
}
// * * * * * * * * * * * * * * * * * * * * * * * * * * * * * * * * * * * * * //

dimensions      [0 2 -2 0 0 0 0];

internalField   nonuniform List<scalar> 
15677
(
101.202
115.928
154.08
185.955
215.294
244.265
273.981
304.857
336.088
363.621
383.62
394.304
393.539
383.835
362.012
332.784
298.743
264.048
229.706
196.732
165.977
139.5
118.379
101.798
88.6954
78.1499
69.4786
62.3977
56.7606
52.3531
48.9039
46.1554
43.9123
42.0572
40.5389
300.227
511.479
632.195
714.953
779.735
833.969
881.893
926.199
955.791
907.173
787.798
667.314
598.351
569.529
550.759
523.104
478.097
424.325
372.807
325.599
284.07
250.563
223.638
201.441
182.746
166.851
153.366
142.069
132.811
125.439
119.772
115.594
112.674
110.786
109.721
193.93
389.346
514.672
602.854
689.262
786.378
889.673
958.383
961.095
893.233
765.129
623.084
520.417
457.385
418.424
376.977
343.313
323.294
314.108
305.577
293.91
278.746
263.039
249.094
238.216
230.587
226.057
224.134
224.168
225.746
228.467
232.001
236.077
240.481
245.046
55.2547
116.735
171.069
212.253
248.153
280.851
305.013
314.956
314.916
318.852
330.646
330.638
334.47
354.312
389.254
421.883
412.159
365.995
323.552
307.905
313.578
327.477
337.311
338.384
332.525
321.594
311.953
305.004
300.715
298.758
298.7
300.009
302.426
305.531
309.025
99.8107
171.052
212.267
242.152
267.796
291.684
314.22
334.25
351.852
364.878
369.705
365.146
368.875
395.681
410.777
379.727
320.207
271.667
249.365
249.29
260.364
274.478
291.515
308.418
321.107
326.309
324.782
317.962
309.828
302.885
297.748
294.282
292.094
290.807
290.133
65.4792
109.542
132.522
146.536
156.767
165.249
172.811
178.236
178.12
174.966
174.267
179.632
187.08
190.252
182.036
167.233
155.373
149.417
151.507
160.29
173.752
187.742
199.733
209.119
216.088
221.53
225.585
228.367
230.156
231.245
231.858
232.155
232.278
232.309
232.296
22.9111
47.4272
64.576
77.8681
89.1647
97.8216
99.4794
93.5695
79.8858
65.7092
56.8175
55.6597
59.8369
69.1826
79.5387
90.0827
101.433
113.435
126
139.095
152.424
164.528
173.884
180.203
183.907
185.649
186.631
187.321
187.894
188.39
188.827
189.208
189.531
189.795
190.005
5.33238
9.57897
13.6074
16.3221
18.0341
19.8661
21.9622
24.2473
26.5057
28.8344
31.5321
35.0922
40.3509
48.6631
59.0461
69.4911
79.476
88.9922
98.3602
107.679
116.513
124.273
130.683
135.87
140.018
143.305
145.911
147.989
149.653
150.998
152.096
153
153.755
154.402
154.968
10.8879
17.0347
21.281
24.3913
27.0213
29.4358
31.7733
34.129
36.5772
39.1754
41.9711
45.1949
49.0702
53.884
59.3105
64.9542
71.0987
77.6747
84.6419
91.7106
98.696
105.13
110.486
114.759
118.081
120.581
122.454
123.941
125.178
126.239
127.163
127.972
128.683
129.305
129.85
7.44697
15.5063
20.0423
23.3964
26.2498
28.8555
31.3447
33.8063
36.3157
38.9481
41.7859
44.9226
48.4501
52.4993
56.8439
61.2614
65.845
70.5526
75.3619
80.2154
85.0308
89.5231
93.4021
96.6771
99.4159
101.695
103.591
105.177
106.509
107.636
108.597
109.423
110.141
110.773
111.334
11.6268
20.0982
25.1861
28.6822
31.4439
33.7932
35.9013
37.8885
39.8517
41.8849
44.0795
46.523
49.305
52.5033
55.8564
59.2217
62.6812
66.252
69.9502
73.7312
77.5138
81.0441
84.0924
86.6561
88.7809
90.5207
91.9322
93.1068
94.1115
94.9851
95.7512
96.4265
97.0236
97.5529
98.0228
8.07051
16.259
20.7732
24.0729
26.8438
29.3305
31.6531
33.888
36.1028
38.3629
40.7269
43.2842
46.0963
49.2128
52.3392
55.3138
58.2757
61.2782
64.3264
67.4025
70.4638
73.3272
75.8316
77.9757
79.7892
81.3182
82.6104
83.7087
84.6485
85.4582
86.1605
86.7735
87.3118
87.7871
88.2089
9.18186
17.1504
21.7027
24.8975
27.4535
29.6427
31.61
33.4565
35.2688
37.1247
39.0971
41.256
43.6672
46.3977
49.2246
51.9691
54.7122
57.4402
60.1481
62.8238
65.4455
67.8726
69.9831
71.7929
73.3366
74.6538
75.768
76.7056
77.4992
78.1833
78.7802
79.3066
79.7726
80.1863
80.5544
7.58081
15.3662
19.4306
22.2834
24.6152
26.6767
28.5973
30.4605
32.3288
34.2555
36.2945
38.5075
40.9384
43.6052
46.2586
48.783
51.2748
53.7334
56.136
58.4834
60.7711
62.8868
64.7293
66.3144
67.6748
68.843
69.8448
70.7065
71.4506
72.0963
72.6595
73.1522
73.5859
73.9686
74.3073
7.02844
13.9747
17.8227
20.5813
22.8473
24.8452
26.6945
28.476
30.253
32.0795
34.0054
36.0823
38.3621
40.8869
43.4265
45.8242
48.1528
50.4186
52.6204
54.7556
56.819
58.7157
60.3641
61.7894
63.014
64.0679
64.9755
65.7578
66.4326
67.0147
67.5177
67.9577
68.3453
68.688
68.9926
6.56387
13.4249
16.9445
19.3971
21.4106
23.2105
24.9111
26.5836
28.2791
30.0396
31.9046
33.913
36.0956
38.4845
40.8647
43.0953
45.2408
47.3159
49.3253
51.2683
53.1434
54.8698
56.3766
57.6736
58.7901
59.7523
60.5828
61.3012
61.9242
62.4661
62.9391
63.3534
63.7173
64.0379
64.3207
5.62522
11.7365
15.0373
17.4335
19.4433
21.2587
22.978
24.6641
26.3637
28.1149
29.9516
31.9054
34.0048
36.2762
38.5148
40.5997
42.6029
44.533
46.3943
48.188
49.9127
51.494
52.8677
54.0517
55.0735
55.9567
56.7214
57.3846
57.9608
58.4621
58.8989
59.28
59.6135
59.9076
60.1679
5.59456
11.5127
14.5449
16.7072
18.5159
20.1583
21.7285
23.2839
24.8654
26.5069
28.2396
30.0901
32.0827
34.2368
36.3445
38.2963
40.1651
41.9607
43.6881
45.3491
46.9429
48.4032
49.6698
50.7611
51.7027
52.5167
53.2216
53.8333
54.3652
54.8287
55.2335
55.5878
55.8986
56.1718
56.4124
4.70973
10.2335
13.1257
15.2422
17.0437
18.6944
20.2745
21.833
23.4054
25.0206
26.7049
28.4829
30.3776
32.4091
34.3914
36.223
37.9714
39.6459
41.2522
42.7927
44.2682
45.6173
46.7876
47.7962
48.6672
49.4208
50.0742
50.6417
51.1357
51.5664
51.9426
52.2718
52.5603
52.8138
53.0366
4.74948
9.95295
12.6553
14.6152
16.2778
17.8029
19.2688
20.723
22.1991
23.7248
25.323
27.0148
28.819
30.7455
32.6148
34.3358
35.9738
37.5386
39.036
40.4694
41.8404
43.0928
44.1787
45.1144
45.9225
46.6217
47.2279
47.7545
48.2128
48.6125
48.9618
49.2675
49.5355
49.771
49.9782
4.2544
9.28287
11.8733
13.7679
15.383
16.867
18.2925
19.7035
21.1305
22.5983
24.1281
25.7384
27.4458
29.2645
31.0269
32.6454
34.1815
35.6451
37.0425
38.3778
39.6535
40.8179
41.8273
42.6974
43.4491
44.0999
44.6646
45.1554
45.5829
45.9559
46.282
46.5675
46.8179
47.038
47.2315
4.26667
8.9905
11.4507
13.2425
14.7668
16.1676
17.5157
18.8536
20.2112
21.6102
23.0689
24.6017
26.2208
27.9411
29.6045
31.1285
32.5715
33.943
35.25
36.4968
37.6866
38.7719
39.7128
40.5238
41.2248
41.8321
42.3592
42.8178
43.2173
43.5663
43.8714
44.1389
44.3737
44.5802
44.762
4.01124
8.56734
10.9392
12.6716
14.1464
15.5007
16.802
18.0908
19.3958
20.7386
22.1331
23.5937
25.1339
26.7661
28.3396
29.7773
31.1351
32.4228
33.6473
34.8137
35.9254
36.9391
37.8177
38.5755
39.2309
39.7991
40.2928
40.7227
41.0977
41.4255
41.7125
41.9642
42.1854
42.3801
42.5517
3.95464
8.30569
10.5861
12.25
13.6667
14.9682
16.2185
17.4549
18.7035
19.9847
21.3146
22.707
24.1736
25.7248
27.2165
28.5762
29.857
31.0688
32.2188
33.3124
34.3536
35.3024
36.1248
36.8345
37.4487
37.9817
38.4453
38.8495
39.2025
39.5114
39.7822
40.02
40.2292
40.4135
40.5762
3.80363
8.01325
10.222
11.8352
13.209
14.4704
15.6799
16.874
18.0778
19.3105
20.5875
21.9217
23.324
24.8035
26.2221
27.5116
28.7231
29.8667
30.9495
31.9775
32.955
33.8452
34.6168
35.2828
35.8598
36.3611
36.7977
37.1788
37.5121
37.8042
38.0606
38.2861
38.4847
38.6599
38.8148
3.735
7.7988
9.94027
11.5033
12.8323
14.0508
15.2187
16.3711
17.5321
18.7196
19.9482
21.23
22.5746
23.9899
25.3432
26.57
27.7196
28.802
29.8246
30.7935
31.7137
32.5509
33.2764
33.903
34.4463
34.9188
35.3309
35.6911
36.0066
36.2835
36.527
36.7414
36.9306
37.0977
37.2456
3.6388
7.58591
9.66978
11.1915
12.485
13.6699
14.8045
15.9228
17.0479
18.1971
19.3839
20.6197
21.9134
23.2719
24.5672
25.7382
26.8327
27.8604
28.8292
29.7452
30.6137
31.4031
32.0869
32.6777
33.1903
33.6365
34.0262
34.3674
34.6667
34.9297
35.1614
35.3657
35.5462
35.7059
35.8475
3.57574
7.41119
9.44256
10.9257
12.1856
13.3392
14.443
15.5301
16.6228
17.7373
18.8869
20.0818
21.3304
22.6383
23.8822
25.0038
26.0492
27.0284
27.9491
28.8178
29.6399
30.386
31.0321
31.5902
32.0745
32.4966
32.8656
33.1891
33.4732
33.7234
33.9439
34.1388
34.3112
34.464
34.5996
3.50996
7.25049
9.23655
10.6867
11.9181
13.045
14.1223
15.1824
16.2468
17.3311
18.4478
19.6067
20.8153
22.0787
23.2769
24.3548
25.3568
26.293
27.171
27.9973
28.7777
29.4848
30.0964
30.6243
31.0827
31.4822
31.8317
32.1384
32.4081
32.6458
32.8557
33.0414
33.2058
33.3518
33.4815
3.45891
7.11272
9.05792
10.4781
11.6837
12.7862
13.8397
14.8755
15.9145
16.9718
18.0593
19.1862
20.3594
21.5832
22.7412
23.7804
24.7441
25.6421
26.4822
27.2708
28.0136
28.6853
29.2652
29.7653
30.1992
30.5773
30.9082
31.1986
31.4541
31.6795
31.8787
32.055
32.2113
32.3502
32.4738
38.7863
37.028
35.5095
34.2033
33.0747
32.0608
31.0691
29.9362
28.4952
26.6279
24.4475
22.3305
20.5448
19.247
18.5371
18.514
19.2165
20.7575
22.9786
25.7635
29.1328
32.9844
108.719
108.205
108.412
109.284
110.611
112.179
113.761
115.138
116.087
116.398
116.091
115.524
115.726
118.097
123.802
134.446
151.591
172.592
194.067
212.917
226.661
233.705
250.738
258.519
267.812
279.073
292.881
309.736
330.043
354.587
380.728
403.258
419.065
425.49
421.145
407.028
385.067
357.591
330.822
308.001
289.675
275.176
263.576
254.061
313.889
320.978
328.638
335.767
341.843
346.512
349.628
351.261
351.741
350.789
348.806
346.064
342.316
337.198
330.618
322.697
313.587
303.851
294.35
285.598
277.74
270.743
290.109
291.05
292.336
293.738
294.991
295.781
295.788
294.861
293.125
291.322
289.489
287.636
285.793
283.937
281.972
279.817
277.447
274.851
271.785
268.305
264.556
260.686
232.883
234.069
235.263
236.422
237.498
238.436
239.231
239.844
240.255
240.488
240.577
240.557
240.455
240.301
240.104
239.866
239.576
239.211
238.719
238.095
237.36
236.502
190.85
192.334
193.79
195.213
196.59
197.91
199.164
200.342
201.446
202.49
203.484
204.435
205.322
206.136
206.881
207.56
208.17
208.709
209.168
209.532
209.782
209.927
156.21
158.148
160.066
161.954
163.804
165.602
167.35
169.048
170.699
172.307
173.873
175.383
176.802
178.113
179.327
180.453
181.498
182.463
183.35
184.162
184.9
185.568
130.991
132.782
134.591
136.408
138.229
140.051
141.871
143.689
145.501
147.308
149.11
150.894
152.61
154.23
155.757
157.196
158.551
159.824
161.02
162.138
163.182
164.156
112.423
114.09
115.782
117.493
119.222
120.966
122.724
124.492
126.269
128.053
129.84
131.616
133.33
134.954
136.493
137.955
139.344
140.668
141.929
143.132
144.278
145.37
98.9331
100.346
101.796
103.279
104.792
106.333
107.902
109.496
111.116
112.759
114.424
116.098
117.735
119.302
120.804
122.244
123.624
124.946
126.213
127.428
128.593
129.71
89.0089
90.2381
91.5005
92.7948
94.1203
95.4763
96.862
98.2765
99.7185
101.187
102.678
104.181
105.65
107.062
108.423
109.736
111.003
112.227
113.41
114.553
115.657
116.724
81.2603
82.3518
83.4714
84.6188
85.7941
86.9963
88.2262
89.4838
90.7689
92.0812
93.4204
94.7766
96.1125
97.4021
98.6483
99.8539
101.021
102.153
103.25
104.315
105.348
106.35
74.9553
75.9529
76.9759
78.0239
79.0969
80.1948
81.3179
82.466
83.6388
84.8356
86.055
87.2874
88.502
89.6764
90.8131
91.9145
92.9827
94.02
95.0283
96.0078
96.959
97.882
69.5915
70.5232
71.4753
72.4483
73.4432
74.4603
75.5007
76.5653
77.6549
78.7702
79.9127
81.0754
82.228
83.3453
84.4265
85.4712
86.4795
87.4541
88.3979
89.3131
90.2014
91.0641
64.8845
65.7643
66.6653
67.5867
68.5283
69.4907
70.4744
71.4799
72.5079
73.5591
74.6343
75.7272
76.8081
77.8557
78.8708
79.8542
80.8064
81.7284
82.6215
83.4871
84.3267
85.1412
60.7024
61.5436
62.4031
63.2811
64.1781
65.0947
66.0319
66.9897
67.9685
68.9689
69.9918
71.0304
72.0569
73.0514
74.0149
74.9487
75.8537
76.7309
77.5812
78.4057
79.2055
79.9815
56.9177
57.7189
58.5398
59.3802
60.24
61.1192
62.018
62.9367
63.8756
64.8352
65.8158
66.811
67.794
68.7457
69.6673
70.5602
71.4255
72.2641
73.0772
73.8657
74.6305
75.3724
53.5166
54.2832
55.0689
55.8738
56.698
57.5417
58.4049
59.2878
60.1904
61.1131
62.0562
63.0131
63.9582
64.8727
65.7581
66.6156
67.4462
68.2511
69.0314
69.7879
70.5215
71.2332
50.4362
51.1726
51.9277
52.7015
53.4942
54.306
55.1369
55.9872
56.8568
57.7461
58.6551
59.5776
60.4884
61.3696
62.2225
63.0482
63.8477
64.6223
65.3727
66.1001
66.8054
67.4892
47.6682
48.3747
49.0997
49.8435
50.606
51.3875
52.1879
53.0074
53.846
54.7038
55.5809
56.4711
57.3501
58.2004
59.0233
59.8197
60.5906
61.3372
62.0603
62.761
63.44
64.0982
45.1793
45.8576
46.5544
47.2697
48.0037
48.7565
49.528
50.3184
51.1276
51.9557
52.8028
53.6626
54.5117
55.3332
56.128
56.897
57.6413
58.3619
59.0595
59.7352
60.3899
61.0243
42.9505
43.6012
44.2704
44.9582
45.6646
46.3897
47.1335
47.896
48.6772
49.477
50.2954
51.1265
51.9472
52.7413
53.5096
54.253
54.9722
55.6683
56.3422
56.9946
57.6264
58.2385
40.9577
41.5819
42.2245
42.8857
43.5656
44.2641
44.9812
45.7169
46.4712
47.2439
48.035
48.8385
49.6324
50.4005
51.1436
51.8626
52.5583
53.2314
53.8828
54.5133
55.1238
55.715
39.1799
39.7785
40.3955
41.0311
41.6854
42.3583
43.0497
43.7597
44.4881
45.2348
45.9996
46.7769
47.5449
48.2883
49.0075
49.7034
50.3766
51.0279
51.6581
52.268
52.8583
53.4299
37.5952
38.1695
38.7621
39.3733
40.0031
40.6515
41.3184
42.0037
42.7074
43.4292
44.1689
44.9209
45.6644
46.384
47.0804
47.7542
48.4061
49.0367
49.6467
50.237
50.8083
51.3613
36.1827
36.7339
37.3035
37.8917
38.4984
39.1237
39.7674
40.4294
41.1095
41.8076
42.5234
43.2515
43.9714
44.6684
45.3431
45.9958
46.6273
47.2382
47.8291
48.4008
48.9539
49.4892
34.9212
35.4511
35.9993
36.5661
37.1515
37.7552
38.3773
39.0176
39.6758
40.3517
41.045
41.7503
42.4479
43.1235
43.7775
44.4102
45.0223
45.6144
46.1871
46.7411
47.2769
47.7954
33.7904
34.3008
34.8296
35.3769
35.9428
36.527
37.1295
37.7499
38.388
39.0435
39.7159
40.4002
41.077
41.7324
42.3668
42.9806
43.5744
44.1487
44.7042
45.2414
45.7608
46.2632
32.7707
33.2635
33.7747
34.3047
34.8532
35.4202
36.0053
36.6082
37.2285
37.8658
38.5195
39.1846
39.8423
40.479
41.0952
41.6912
42.2678
42.8254
43.3647
43.8862
44.3905
44.878
37.8878
44.0827
49.6039
54.5919
59.2963
64.2569
235.923
232.513
223.687
211.868
199.424
188.151
245.185
236.934
229.551
223.132
218.082
214.516
263.704
256.539
249.877
243.735
237.869
232.316
256.024
250.864
245.979
241.418
237.231
233.493
234.95
232.756
230.454
228.097
225.726
223.356
209.435
208.366
207.266
206.139
204.994
203.846
185.66
185.218
184.728
184.202
183.646
183.064
164.572
164.466
164.333
164.171
163.98
163.765
145.942
146.023
146.078
146.108
146.115
146.099
130.349
130.527
130.686
130.823
130.942
131.041
117.363
117.586
117.793
117.984
118.16
118.321
106.971
107.215
107.445
107.66
107.86
108.045
98.4644
98.7084
98.939
99.1556
99.3583
99.5462
91.6145
91.8486
92.0678
92.2714
92.4594
92.6313
85.6552
85.8652
86.0616
86.2439
86.4124
86.5662
80.4653
80.6513
80.8226
80.9789
81.1201
81.2456
75.8261
75.9851
76.1291
76.2579
76.3712
76.4686
71.6593
71.7929
71.911
72.0132
72.0994
72.1694
67.8898
67.9999
68.0941
68.1725
68.2347
68.2806
64.4758
64.5656
64.6395
64.6974
64.7392
64.7646
61.3812
61.454
61.511
61.5521
61.5771
61.586
58.5773
58.6363
58.6797
58.7073
58.7191
58.715
56.0376
56.0858
56.1184
56.1355
56.1371
56.1232
53.7382
53.7779
53.8024
53.8116
53.8055
53.7842
51.657
51.6903
51.7085
51.7118
51.7002
51.6735
49.7736
49.8021
49.8158
49.8148
49.7991
49.7688
48.0694
48.0944
48.1049
48.1009
48.0824
48.0495
46.5277
46.5502
46.5584
46.5524
46.532
46.4975
45.1335
45.154
45.1605
45.1531
45.1317
45.0965
69.531
75.3487
82.0739
89.5046
97.3577
105.328
113.103
120.381
126.864
132.264
136.298
138.671
139.297
138.775
137.464
135.637
133.498
131.203
128.826
126.778
125.363
124.605
180.264
174.68
170.175
167.254
166.264
166.814
168.658
171.238
174.156
177.158
180.1
182.888
185.418
187.652
189.617
191.272
192.786
194.246
195.718
197.252
198.867
200.567
212.864
212.672
213.742
216.186
220.051
225.274
231.667
238.8
245.817
251.806
256.429
259.378
260.213
258.868
255.521
251.812
248.672
246.271
244.503
243.269
242.483
242.081
228.276
225.508
223.552
222.414
222.1
222.58
223.856
225.877
228.592
232.033
236.301
241.438
247.128
252.788
257.442
260.466
261.651
262.5
263.257
264.106
265.222
266.722
230.553
228.222
226.269
224.682
223.461
222.618
222.188
222.174
222.578
223.449
224.776
226.534
228.655
231.019
233.391
235.536
237.544
239.554
241.654
243.915
246.368
248.994
221.047
218.866
216.839
214.977
213.284
211.754
210.373
209.159
208.136
207.335
206.785
206.475
206.382
206.447
206.627
206.898
207.241
207.642
208.092
208.58
209.095
209.613
202.45
200.839
199.268
197.741
196.257
194.818
193.431
192.105
190.851
189.681
188.606
187.637
186.796
186.074
185.449
184.906
184.432
184.015
183.646
183.319
183.045
182.823
182.088
180.76
179.431
178.098
176.763
175.426
174.086
172.743
171.402
170.069
168.741
167.426
166.156
164.949
163.798
162.692
161.623
160.582
159.56
158.545
157.527
156.498
163.077
161.952
160.805
159.633
158.435
157.213
155.966
154.694
153.397
152.074
150.723
149.35
147.998
146.696
145.442
144.231
143.059
141.923
140.818
139.743
138.696
137.676
145.595
144.63
143.646
142.642
141.614
140.561
139.482
138.375
137.237
136.065
134.854
133.606
132.359
131.146
129.96
128.796
127.646
126.514
125.4
124.306
123.231
122.174
130.658
129.815
128.953
128.071
127.167
126.241
125.292
124.319
123.321
122.297
121.242
120.159
119.074
118.009
116.959
115.924
114.906
113.907
112.927
111.965
111.02
110.091
118.034
117.311
116.572
115.818
115.048
114.262
113.458
112.636
111.793
110.923
110.016
109.071
108.111
107.157
106.207
105.263
104.323
103.388
102.458
101.536
100.622
99.7166
107.812
107.174
106.518
105.845
105.154
104.444
103.714
102.959
102.177
101.361
100.507
99.6162
98.7083
97.8012
96.8938
95.9855
95.0758
94.1648
93.2527
92.3396
91.4255
90.5117
99.351
98.7767
98.1817
97.5651
96.9255
96.2616
95.5726
94.8553
94.1056
93.3184
92.4883
91.6157
90.72
89.8176
88.9068
87.9871
87.0606
86.1296
85.196
84.2616
83.3286
82.3996
92.4423
91.896
91.327
90.7329
90.1115
89.4597
88.7737
88.0486
87.2783
86.457
85.5815
84.6561
83.7063
82.7547
81.8026
80.8501
79.8979
78.9465
77.997
77.0502
76.1072
75.1698
86.3726
85.8297
85.2602
84.6615
84.0309
83.3651
82.6607
81.9139
81.1208
80.2782
79.383
78.4389
77.471
76.5002
75.5296
74.5624
73.5987
72.6384
71.6828
70.7341
69.7946
68.8668
81.0328
80.4783
79.8946
79.2793
78.6297
77.9433
77.2171
76.4483
75.6341
74.7717
73.8586
72.899
71.9185
70.9391
69.9626
68.9905
68.0238
67.0637
66.1117
65.1715
64.2457
63.3355
76.2347
75.6646
75.064
74.4308
73.7627
73.0577
72.3133
71.5274
70.6977
69.822
68.8981
67.9309
66.9468
65.9678
64.9958
64.0328
63.0806
62.1412
61.2166
60.3088
59.4191
58.549
71.9143
71.3297
70.7145
70.0669
69.3851
68.6674
67.9119
67.1169
66.2806
65.4013
64.4776
63.5149
62.54
61.5748
60.6215
59.6818
58.7576
57.8505
56.9619
56.093
55.2445
54.4173
68.0082
67.4134
66.7886
66.1324
65.4435
64.7204
63.9617
63.1661
62.3323
61.4591
60.5455
59.5975
58.6418
57.6999
56.7736
55.8644
54.9738
54.1028
53.2524
52.423
51.6153
50.8296
64.479
63.8789
63.2502
62.5917
61.9022
61.1808
60.4263
59.6377
58.8142
57.955
57.0594
56.1339
55.2045
54.2921
53.398
52.5235
51.6696
50.8369
50.0261
49.2376
48.4717
47.7285
61.2916
60.6914
60.064
59.4087
58.7245
58.0106
57.2663
56.4907
55.6834
54.8438
53.9716
53.0732
52.1741
51.2942
50.4345
49.596
48.7793
47.985
47.2133
46.4644
45.7384
45.0352
58.4157
57.8196
57.1981
56.5505
55.8761
55.1743
54.4445
53.6862
52.8989
52.0826
51.2369
50.3682
49.5013
48.655
47.8303
47.0277
46.2476
45.4904
44.7562
44.0451
43.3569
42.6914
55.8223
55.2339
54.6217
53.9853
53.324
52.6374
51.9251
51.1868
50.422
49.6308
48.8131
47.9751
47.1407
46.3279
45.5373
44.7693
44.0242
43.3022
42.6032
41.9272
41.2739
40.6431
53.4844
52.9062
52.306
51.6831
51.0373
50.3681
49.6751
48.9582
48.2171
47.4519
46.6625
45.855
45.0524
44.2719
43.5139
42.7788
42.0665
41.3773
40.7109
40.0672
39.4459
38.8467
51.3768
50.8109
50.2243
49.6167
48.9877
48.337
47.6643
46.9695
46.2524
45.5129
44.7513
43.9734
43.2013
42.4514
41.7241
41.0195
40.3377
39.6785
39.0419
38.4277
37.8355
37.2648
49.4766
48.9242
48.3524
47.761
47.1497
46.518
45.8658
45.193
44.4995
43.7852
43.0503
42.3004
41.557
40.8356
40.1366
39.4601
38.8059
38.1741
37.5645
36.9768
36.4107
35.8658
47.763
47.2249
46.6687
46.0939
45.5003
44.8876
44.2556
43.6042
42.9334
42.243
41.5333
40.8097
40.0927
39.3974
38.7241
38.0729
37.4436
36.8362
36.2507
35.6867
35.1441
34.6222
46.2174
45.6941
45.1534
44.5951
44.0189
43.4247
42.8122
42.1813
41.5319
40.8639
40.1774
39.4778
38.7847
38.1128
37.4624
36.8335
36.2261
35.6403
35.0759
34.5329
34.0109
33.5094
44.8234
44.3144
43.7887
43.2463
42.6869
42.1103
41.5162
40.9045
40.275
39.6275
38.9621
38.2838
37.6117
36.9603
36.3296
35.7199
35.1314
34.5641
34.0181
33.4932
32.9893
32.5059
124.391
124.365
124.669
125.372
126.551
128.298
130.716
133.883
137.832
142.582
148.136
154.486
161.629
169.589
178.031
186.269
193.254
198.362
201.04
202.12
201.588
197.377
184.274
162.163
138.229
118.456
106.37
102.759
103.73
105.832
105.055
98.1245
82.5422
56.7131
86.2212
201.96
203.012
204.282
205.842
207.763
210.083
212.847
216.132
220.12
224.791
230.117
235.842
241.449
246.223
249.828
253.768
260.075
272.66
291.032
319.341
370.803
451.006
547.13
597.433
582.046
554.275
537.606
531.536
530.435
527.639
518.071
496.34
455.889
381.847
246.407
241.901
241.68
241.525
241.481
241.594
241.867
242.129
242.24
241.875
240.444
237.132
231.324
223.418
214.574
207.266
205.385
211.044
229.531
271.429
341.29
439.744
576.177
769.225
963.805
1067.58
1064.06
1001.56
916.551
826.271
736.597
647.378
560.971
472.537
366.785
198.247
268.292
269.768
271.697
274.215
277.458
281.495
286.103
290.048
291.234
286.731
274.377
255.025
233.035
214.944
206.356
208.64
227.562
266.742
326.24
400.01
461.198
500.626
546.693
603.794
655.917
678.612
678.414
654.152
612.267
557.873
498.131
433.989
361.935
269.958
152.286
251.616
254.221
257.321
260.844
264.46
267.497
269.124
268.291
264.562
257.925
249.082
238.855
228.103
216.047
202.586
188.523
175.099
166.106
173.794
216.644
305.292
414.232
507.92
562.419
580.78
574.713
548.84
507.825
461.195
414.643
368.226
320.427
267.959
202.269
101.99
210.308
211.236
212.265
213.397
214.621
215.894
217.087
217.953
218.066
216.631
212.537
204.72
192.985
178.123
162.183
148.344
137.101
126.942
121.823
123.222
138.825
167.882
200.757
230.002
247.364
251.721
244.755
229.663
211.807
191.878
170.119
146.241
119.164
85.5847
46.5185
182.987
183.516
184.182
185.005
185.983
187.041
187.883
187.758
186.317
183.129
178.19
171.788
164.265
155.616
145.502
133.899
121.879
110.775
101.298
93.4938
87.2709
82.0689
77.5488
74.2398
73.6637
79.4199
90.6261
97.3655
96.144
86.7893
73.1797
60.0936
47.2035
32.9032
14.0006
155.903
155.738
155.521
155.244
154.9
154.462
153.883
153.096
152.021
150.532
148.391
145.33
141.041
135.179
127.612
118.958
110.21
102.025
94.8988
89.0902
84.687
80.9718
76.0759
68.4947
58.2985
48.4399
40.7986
35.6635
31.49
27.7437
23.9975
20.0938
15.8658
10.7989
5.73956
137.113
136.96
136.785
136.582
136.342
136.056
135.674
135.071
134.105
132.664
130.606
127.768
123.999
119.193
113.409
107.1
100.633
94.0835
87.5392
81.0622
74.8422
68.8172
63.2131
58.2668
53.6267
49.3974
45.7115
42.481
39.5909
36.8989
34.1714
31.0712
27.2519
21.7872
12.9243
121.538
121.292
121.007
120.673
120.275
119.794
119.2
118.45
117.488
116.244
114.635
112.566
109.931
106.613
102.501
97.6958
92.4211
86.8139
81.0619
75.3197
69.6695
64.0388
58.8309
54.3883
50.527
47.1104
44.0095
41.1172
38.3317
35.5353
32.5856
29.2882
25.299
19.7296
10.1685
109.555
109.374
109.161
108.91
108.612
108.251
107.8
107.209
106.406
105.333
103.92
102.081
99.7101
96.6905
92.9341
88.6045
83.9904
79.2006
74.3493
69.4938
64.6721
59.8026
55.2617
51.4286
48.1416
45.2484
42.6101
40.1019
37.609
35.0215
32.2144
29.0157
25.1081
19.6659
10.7884
99.1799
98.9877
98.7607
98.4895
98.1595
97.7535
97.2493
96.6174
95.82
94.8104
93.5321
91.9157
89.8847
87.3626
84.2626
80.6697
76.8248
72.8037
68.6402
64.353
59.9999
55.5387
51.3025
47.6398
44.4269
41.5417
38.883
36.3628
33.8998
31.412
28.8018
25.9241
22.4955
17.7313
8.80238
89.9659
89.7679
89.5362
89.2642
88.9429
88.5587
88.091
87.5049
86.7614
85.8248
84.6513
83.1866
81.3649
79.1087
76.3523
73.1955
69.8112
66.2462
62.5486
58.7736
54.9741
51.0784
47.3348
44.0438
41.116
38.4692
36.0267
33.7133
31.4526
29.1623
26.7428
24.0501
20.8156
16.3357
8.39658
81.8368
81.6203
81.368
81.0719
80.7221
80.3054
79.8053
79.2002
78.4636
77.5631
76.4599
75.1082
73.4551
71.4332
69.0176
66.3061
63.4247
60.3852
57.2036
53.9216
50.5707
47.0629
43.6114
40.5343
37.7794
35.2822
32.9721
30.7857
28.6614
26.5337
24.3213
21.8998
19.0251
15.0215
7.30251
74.5998
74.3754
74.1179
73.8211
73.4768
73.0728
72.5914
72.0089
71.3047
70.4538
69.426
68.1849
66.6875
64.8838
62.7337
60.3271
57.7691
55.0796
52.2757
49.3736
46.3848
43.234
40.126
37.341
34.8264
32.5261
30.3848
28.3494
26.3658
24.3734
22.2954
20.0149
17.3082
13.5751
6.63861
68.2986
68.0656
67.8003
67.4948
67.1408
66.7285
66.2452
65.6755
65.0007
64.1985
63.2421
62.1005
60.7371
59.1104
57.1888
55.0421
52.7895
50.4277
47.9659
45.4093
42.7532
39.9298
37.1188
34.5778
32.2644
30.1355
28.1461
26.2526
24.4102
22.5682
20.6605
18.5826
16.1272
12.7213
6.126
62.7787
62.5482
62.287
61.9896
61.6482
61.2519
60.7882
60.2444
59.6054
58.853
57.9652
56.916
55.6749
54.2063
52.4837
50.5727
48.5608
46.4525
44.2538
41.9673
39.5918
37.0543
34.5025
32.1696
30.0227
28.0276
26.1497
24.353
22.5985
20.8402
19.0168
17.0322
14.6977
11.4976
5.40679
58.015
57.789
57.5337
57.2433
56.9101
56.5262
56.0822
55.5666
54.966
54.2643
53.4423
52.4776
51.3438
50.01
48.4536
46.7344
44.9276
43.0368
41.0645
39.0105
36.87
34.5705
32.2338
30.088
28.1102
26.2711
24.5406
22.8862
21.272
19.6563
17.9834
16.1636
14.0176
11.0479
5.28299
53.9103
53.6944
53.4489
53.1689
52.8488
52.4815
52.059
51.5715
51.0072
50.3523
49.5903
48.7017
47.6632
46.4479
45.0354
43.4795
41.8465
40.1375
38.3525
36.4889
34.5405
32.4401
30.3007
28.3198
26.4764
24.7459
23.1019
21.5167
19.9596
18.3941
16.7702
15.0069
12.9404
10.1137
4.60391
50.3481
50.1423
49.909
49.6436
49.3408
48.9945
48.5974
48.1405
47.6138
47.0047
46.2989
45.479
44.5246
43.4114
42.1214
40.7034
39.2165
37.6602
36.0327
34.3297
32.5436
30.6102
28.6293
26.7812
25.0567
23.4362
21.8968
20.4139
18.9595
17.4992
15.9853
14.3404
12.407
9.74827
4.61647
47.2734
47.0784
46.8573
46.6063
46.3204
45.9942
45.6209
45.1928
44.7005
44.1333
43.4781
42.7196
41.8394
40.8157
39.6321
38.3327
36.9706
35.5441
34.0499
32.4827
30.8338
29.0421
27.1989
25.4729
23.8507
22.3177
20.8543
19.4382
18.0439
16.6397
15.1806
13.5941
11.7326
9.18387
4.25409
44.6051
44.4203
44.2113
43.9743
43.705
43.3981
43.0477
42.6467
42.1867
41.658
41.0487
40.345
39.5304
38.5848
37.4932
36.2958
35.0404
33.7245
32.3437
30.8919
29.3601
27.6906
25.9679
24.351
22.8266
21.3795
19.9916
18.6446
17.3165
15.9788
14.5899
13.0801
11.3067
8.87328
4.20377
42.2847
42.1097
41.912
41.688
41.4338
41.1447
40.8152
40.4389
40.0081
39.5139
38.9457
38.2909
37.5343
36.6575
35.6463
34.5374
33.3743
32.1534
30.8698
29.5168
28.0849
26.5192
24.8974
23.3697
21.9242
20.5469
19.2221
17.9317
16.6545
15.3651
14.0244
12.5656
10.8524
8.50526
4.00404
40.2577
40.0917
39.9044
39.6924
39.4523
39.1795
38.8691
38.5153
38.111
37.648
37.1168
36.5057
35.8007
34.9845
34.0439
33.0124
31.9294
30.7908
29.5911
28.3232
26.9774
25.5011
23.9666
22.5167
21.1411
19.8275
18.5618
17.3273
16.1044
14.867
13.5772
12.1708
10.5169
8.24968
3.92925
38.4808
38.3231
38.1452
37.9443
37.7168
37.4589
37.1659
36.8324
36.4521
36.0174
35.5194
34.9474
34.2883
33.526
32.6477
31.6841
30.6712
29.6043
28.4776
27.2834
26.0121
24.6129
23.1533
21.7696
20.4529
19.1922
17.9744
16.7843
15.6029
14.4056
13.1558
11.792
10.1875
7.98945
3.8045
36.9167
36.7665
36.5973
36.4064
36.1906
35.9463
35.6692
35.3543
34.9957
34.5866
34.1186
33.5818
32.9639
32.2497
31.4268
30.5231
29.5718
28.5677
27.5046
26.3746
25.168
23.8357
22.4412
21.1153
19.8502
18.6363
17.4617
16.3118
15.169
14.0095
12.7981
11.4753
9.91786
7.7829
3.7322
35.5338
35.3905
35.2294
35.0478
34.8428
34.611
34.3486
34.0508
33.7122
33.3265
32.8859
32.381
31.8003
31.1292
30.3556
29.5051
28.6081
27.6591
26.6517
25.5778
24.4275
23.1536
21.8157
20.5399
19.3196
18.1461
17.0083
15.8928
14.7825
13.6545
12.475
11.186
9.66777
7.58691
3.64864
34.3047
34.1681
34.0146
33.8417
33.6469
33.427
33.1783
32.8965
32.5765
32.2125
31.797
31.3214
30.7744
30.1423
29.4129
28.6097
27.7608
26.8604
25.9018
24.877
23.7759
22.5529
21.2646
20.0327
18.8518
17.714
16.6091
15.5242
14.4431
13.3439
12.1935
10.9356
9.45311
7.42108
3.58673
33.2053
33.0752
32.9292
32.765
32.5801
32.3716
32.1361
31.8696
31.5673
31.2237
30.8317
30.3831
29.8672
29.2703
28.5808
27.8198
27.0135
26.1559
25.2402
24.2585
23.2006
22.0222
20.7772
19.5839
18.4377
17.3312
16.2551
15.1971
14.1418
13.0677
11.9427
10.7118
9.26055
7.27134
3.5273
32.2142
32.0908
31.9524
31.797
31.6222
31.4252
31.2028
30.9513
30.6662
30.3421
29.9725
29.5492
29.0619
28.4975
27.8439
27.1208
26.3524
25.5326
24.6547
23.7106
22.6906
21.5514
20.3446
19.1853
18.0697
16.9911
15.9407
14.9068
13.8745
12.823
11.721
10.5146
9.09161
7.14099
3.47883
3.40621
6.9748
8.88025
10.2714
11.4518
12.5306
13.5607
14.5726
15.5866
16.6173
17.6759
18.7712
19.9095
21.0944
22.2129
23.2141
24.1402
25.0008
25.8034
26.5546
27.26
27.8958
28.4433
28.9144
29.3224
29.6776
29.988
30.2604
30.5
30.7113
30.898
31.0634
31.21
31.3403
31.4563
3.3579
6.8435
8.7103
10.0732
11.229
12.2847
13.292
14.2806
15.2702
16.275
17.3057
18.3705
19.4751
20.6228
21.7035
22.6685
23.5589
24.3838
25.1507
25.8658
26.5345
27.1346
27.6491
28.09
28.4705
28.8005
29.0882
29.3399
29.5608
29.7552
29.9267
30.0784
30.2128
30.332
30.4381
3.31668
6.72948
8.56241
9.90053
11.0348
12.0703
13.0575
14.0257
14.994
15.9762
16.9824
18.0206
19.0961
20.2115
21.2598
22.1939
23.0537
23.8482
24.5844
25.2682
25.9048
26.4728
26.957
27.3694
27.723
28.0279
28.2921
28.522
28.7226
28.8983
29.0527
29.1885
29.3084
29.4144
29.5084
3.28163
6.62951
8.43254
9.74875
10.864
11.8815