/*--------------------------------*- C++ -*----------------------------------*\
  =========                 |
  \\      /  F ield         | OpenFOAM: The Open Source CFD Toolbox
   \\    /   O peration     | Website:  https://openfoam.org
    \\  /    A nd           | Version:  8
     \\/     M anipulation  |
\*---------------------------------------------------------------------------*/
FoamFile
{
    version     2.0;
    format      ascii;
    class       volScalarField;
    location    "0.26";
    object      nut;
}
// * * * * * * * * * * * * * * * * * * * * * * * * * * * * * * * * * * * * * //

dimensions      [0 2 -1 0 0 0 0];

internalField   nonuniform List<scalar> 
15677
(
0.000756135
0.00386706
0.0106954
0.0183322
0.0259241
0.0332576
0.0402514
0.0469412
0.0534668
0.0596048
0.0653422
0.0698332
0.0723049
0.0744721
0.0745139
0.0726116
0.0693894
0.0654376
0.060957
0.0561509
0.0512266
0.0466033
0.0426384
0.0393279
0.036577
0.0342885
0.0323918
0.0308649
0.0296783
0.028776
0.0280925
0.0275758
0.0271955
0.0269384
0.0267993
0.00130238
0.0115648
0.0274098
0.0434819
0.0578189
0.0693106
0.0778589
0.0830484
0.0853011
0.0852079
0.0840772
0.0856947
0.0925933
0.101033
0.10575
0.105518
0.102587
0.0978634
0.0924617
0.0870068
0.0818287
0.0771163
0.072914
0.0692031
0.0659734
0.0632302
0.0610164
0.0593727
0.0583053
0.0577649
0.0576447
0.0577973
0.058063
0.0584093
0.0587971
0.00104672
0.00880293
0.0194825
0.0299458
0.0396055
0.0482367
0.0550155
0.0598984
0.0620346
0.0624233
0.0609712
0.0606628
0.0662054
0.079585
0.0921288
0.0982014
0.099528
0.101168
0.103174
0.104791
0.105395
0.10518
0.104567
0.103912
0.103291
0.102999
0.103043
0.103213
0.103378
0.103481
0.103532
0.103545
0.103532
0.103468
0.103355
0.0005587
0.00304333
0.00645796
0.00994013
0.013669
0.0175689
0.021039
0.0235384
0.0258721
0.0283158
0.0314782
0.0347489
0.0410122
0.0521961
0.0658296
0.0757418
0.0796288
0.0822414
0.0860995
0.0931609
0.10055
0.107151
0.111138
0.112928
0.113785
0.11411
0.114432
0.114938
0.115617
0.116373
0.117071
0.117598
0.118008
0.118224
0.1183
0.000750839
0.00664847
0.0159459
0.0255916
0.0342785
0.0415027
0.0469823
0.0507015
0.0530891
0.0547433
0.0557089
0.0568792
0.0590116
0.0632017
0.0660708
0.0653596
0.0633383
0.0648034
0.0734841
0.0870546
0.0999011
0.109216
0.114952
0.11866
0.121191
0.122534
0.123036
0.122792
0.122133
0.12129
0.120408
0.119567
0.118762
0.118012
0.117341
0.000608185
0.00512689
0.0118132
0.0184633
0.0243243
0.0290426
0.0326123
0.0348759
0.0363885
0.0371291
0.0377488
0.0388449
0.0402165
0.0412181
0.0416691
0.0424289
0.0449424
0.0504614
0.059518
0.0706708
0.0824976
0.0923686
0.0991858
0.103723
0.10664
0.108456
0.109568
0.11033
0.110851
0.111184
0.111343
0.111344
0.111239
0.111069
0.11086
0.000359762
0.00263879
0.00566841
0.00852224
0.011026
0.0129424
0.0139268
0.0143414
0.0140318
0.0142998
0.0157917
0.0189615
0.0230272
0.0292303
0.0372543
0.0466361
0.0568225
0.067119
0.0764699
0.0843064
0.0909455
0.0962753
0.100202
0.102931
0.10474
0.105809
0.106424
0.106759
0.10692
0.106971
0.106951
0.106887
0.106796
0.106688
0.106572
0.000173569
0.000727924
0.00164608
0.00263437
0.00373087
0.00509534
0.00677816
0.0088232
0.0112701
0.0141961
0.017605
0.021605
0.026795
0.0337198
0.0423386
0.0511744
0.059932
0.0681887
0.0756021
0.081941
0.0871564
0.0911549
0.0940637
0.0961978
0.0977809
0.0989451
0.0997848
0.100379
0.10079
0.101068
0.10125
0.101364
0.10143
0.101464
0.101477
0.000248027
0.002018
0.00521563
0.00893552
0.012911
0.017032
0.0212198
0.025395
0.0295141
0.0335353
0.0373884
0.0411688
0.0452228
0.0499599
0.0552809
0.0607657
0.0663822
0.0718667
0.0770126
0.0816332
0.0856756
0.0889656
0.0914626
0.0933161
0.0946718
0.0956418
0.0963238
0.0968044
0.0971458
0.0973905
0.0975677
0.0976968
0.0977916
0.0978615
0.097913
0.000205123
0.00209149
0.00498891
0.00838146
0.0121959
0.0164048
0.0209742
0.0258504
0.0309538
0.0361868
0.0414717
0.0467549
0.0520242
0.0573352
0.0623107
0.0668415
0.0710897
0.0750333
0.078644
0.08189
0.0847585
0.0871437
0.0890139
0.0904638
0.0915835
0.0924442
0.0931023
0.0936028
0.0939819
0.0942681
0.0944839
0.0946469
0.0947709
0.0948658
0.0949394
0.000256298
0.00231326
0.00575127
0.00975574
0.0141444
0.0188663
0.0238913
0.0291793
0.0346531
0.0402118
0.0457384
0.0512261
0.0566088
0.061817
0.0663873
0.0702944
0.0737874
0.0769411
0.0798008
0.0823819
0.0846857
0.0866192
0.0881454
0.0893319
0.090247
0.0909464
0.0914758
0.0918782
0.0921871
0.0924266
0.0926139
0.0927618
0.0928793
0.0929734
0.0930493
0.000213534
0.00225235
0.00543741
0.0091715
0.0133524
0.0179515
0.0229456
0.0282992
0.0339665
0.0398571
0.0458226
0.0517875
0.057552
0.0630168
0.0676511
0.071428
0.0746427
0.0774278
0.0798774
0.0820506
0.0839796
0.0856049
0.0869029
0.0879291
0.0887375
0.0893737
0.0898742
0.0902678
0.0905778
0.0908227
0.0910171
0.0911721
0.0912965
0.0913969
0.0914785
0.000227762
0.00216263
0.00521513
0.00876707
0.0127375
0.0171325
0.0219636
0.0272244
0.0328827
0.0388589
0.044998
0.0511139
0.0570864
0.0627168
0.0674313
0.0712218
0.0744035
0.0771101
0.0794396
0.0814627
0.0832275
0.0846967
0.0858634
0.0867868
0.0875199
0.0881038
0.0885684
0.0889372
0.0892307
0.0894663
0.0896572
0.0898135
0.0899423
0.0900493
0.0901388
0.000206952
0.00216841
0.0051482
0.00863853
0.0125871
0.0169941
0.0218541
0.0271393
0.0327897
0.0387071
0.0447426
0.0507816
0.0566766
0.0622527
0.0669118
0.0706294
0.0737177
0.0763195
0.0785357
0.0804433
0.082098
0.0834735
0.0845687
0.085441
0.08614
0.0867033
0.0871589
0.0875291
0.087831
0.0880785
0.0882824
0.0884513
0.0885921
0.0887102
0.0888098
0.000199272
0.00202878
0.00485569
0.00816863
0.0119222
0.016132
0.0208119
0.0259517
0.0315039
0.0373758
0.0434208
0.0494835
0.0554108
0.0610323
0.0657429
0.0695005
0.072607
0.0752036
0.0773982
0.0792717
0.0808841
0.0822171
0.0832772
0.0841247
0.0848075
0.0853615
0.0858138
0.086185
0.0864908
0.0867438
0.0869539
0.0871298
0.0872782
0.0874043
0.087512
0.000192573
0.00207729
0.00497128
0.00838637
0.0122603
0.0165762
0.0213128
0.0264327
0.0318769
0.0375566
0.0433472
0.0491595
0.0548389
0.0602429
0.0647953
0.0684457
0.0714752
0.0740137
0.0761617
0.0779959
0.0795746
0.080882
0.0819255
0.0827616
0.0834386
0.0839913
0.0844459
0.0848221
0.0851353
0.0853975
0.0856182
0.0858049
0.0859636
0.0860993
0.0862157
0.000178275
0.00194597
0.00468478
0.00792775
0.0116276
0.0157829
0.0203854
0.0254049
0.0307818
0.036423
0.042203
0.0480006
0.053665
0.059057
0.0635978
0.067236
0.0702538
0.0727798
0.0749139
0.0767334
0.078297
0.0795904
0.0806219
0.0814503
0.0821236
0.0826761
0.0831333
0.083514
0.0838331
0.0841019
0.0843294
0.0845228
0.084688
0.0848299
0.0849525
0.000177788
0.00199451
0.00485272
0.00825006
0.0120853
0.0163193
0.0209202
0.0258493
0.0310547
0.0364576
0.0419681
0.0475095
0.0529426
0.0581484
0.0625644
0.0661245
0.069092
0.0715842
0.0736945
0.0754961
0.0770458
0.0783295
0.0793549
0.0801801
0.0808525
0.0814062
0.0818659
0.0822505
0.0825743
0.0828484
0.0830818
0.0832813
0.0834528
0.0836007
0.0837288
0.000163125
0.00191714
0.00463707
0.00786799
0.0115479
0.0156547
0.0201618
0.0250276
0.030191
0.0355668
0.0410544
0.0465571
0.0519467
0.057107
0.0614861
0.0650187
0.0679649
0.07044
0.072536
0.0743253
0.0758646
0.0771401
0.07816
0.0789822
0.0796538
0.0802084
0.0806705
0.0810584
0.0813863
0.0816651
0.0819032
0.0821077
0.0822839
0.0824364
0.0825689
0.000163812
0.00189376
0.00463231
0.00789708
0.0115932
0.0156819
0.0201305
0.024899
0.0299349
0.035162
0.0404985
0.0458609
0.0511286
0.0561909
0.0605038
0.0639945
0.0669128
0.0693687
0.0714504
0.0732284
0.0747587
0.0760276
0.0770431
0.0778627
0.0785334
0.0790883
0.0795518
0.0799419
0.0802725
0.0805543
0.0807959
0.0810038
0.0811836
0.0813396
0.0814756
0.00015504
0.00186275
0.00451199
0.00766343
0.0112468
0.0152345
0.0195972
0.024294
0.0292681
0.0344421
0.0397279
0.0450384
0.0502575
0.0552777
0.05956
0.0630293
0.0659319
0.0683756
0.0704471
0.0722163
0.0737388
0.0750013
0.0760122
0.0768289
0.077498
0.0780526
0.0785167
0.0789083
0.0792409
0.0795252
0.0797694
0.0799801
0.0801627
0.0803215
0.0804601
0.000155263
0.00180543
0.00442028
0.00754609
0.0110963
0.0150359
0.019334
0.0239513
0.0288356
0.0339145
0.0391066
0.0443335
0.0494821
0.0544482
0.0586954
0.0621429
0.065031
0.067464
0.0695269
0.0712885
0.0728039
0.0740602
0.0750662
0.0758793
0.076546
0.0770993
0.077563
0.0779548
0.0782882
0.0785736
0.0788192
0.0790316
0.0792159
0.0793765
0.0795169
0.000150544
0.00176686
0.00431019
0.00735131
0.0108159
0.0146748
0.0188993
0.0234503
0.0282747
0.0333003
0.0384418
0.043623
0.048733
0.0536681
0.0578941
0.0613279
0.0642061
0.0666314
0.0686873
0.0704418
0.0719501
0.0731996
0.0741996
0.0750078
0.0756707
0.0762211
0.0766828
0.0770734
0.0774061
0.0776913
0.0779371
0.0781498
0.0783347
0.078496
0.0786371
0.000149478
0.00172642
0.00423255
0.00723478
0.0106521
0.0144526
0.0186085
0.0230839
0.027831
0.0327839
0.0378602
0.0429872
0.0480547
0.0529582
0.057164
0.0605852
0.0634547
0.0658728
0.0679216
0.0696686
0.0711685
0.0724095
0.0734016
0.0742026
0.0748592
0.0754043
0.0758615
0.0762483
0.076578
0.0768608
0.0771046
0.0773157
0.0774993
0.0776595
0.0777998
0.000146596
0.00169242
0.00414475
0.00708622
0.0104413
0.0141801
0.0182752
0.0226918
0.0273824
0.0322832
0.0373129
0.0423971
0.0474312
0.0523092
0.0564982
0.0599084
0.0627695
0.0651799
0.0672206
0.0689582
0.0704473
0.0716765
0.0726569
0.0734469
0.0740934
0.0746292
0.0750781
0.0754575
0.0757806
0.0760575
0.0762961
0.0765026
0.0766822
0.0768388
0.0769759
0.000145268
0.00166087
0.00407677
0.00697693
0.0102843
0.01397
0.0180087
0.0223672
0.0270006
0.0318476
0.0368291
0.0418697
0.0468698
0.0517218
0.0558932
0.0592915
0.0621427
0.0645433
0.0665731
0.0682978
0.0697716
0.070984
0.0719474
0.0727206
0.073351
0.0738717
0.0743065
0.0746729
0.0749841
0.07525
0.0754786
0.0756761
0.0758474
0.0759965
0.0761268
0.000143385
0.00163297
0.00400961
0.0068661
0.0101273
0.0137651
0.0177549
0.0220645
0.0266497
0.0314513
0.0363912
0.0413929
0.0463617
0.0511885
0.0553415
0.0587258
0.0615645
0.0639519
0.0659666
0.0676733
0.0691257
0.070314
0.0712526
0.0720011
0.0726073
0.0731048
0.0735175
0.0738631
0.0741548
0.0744027
0.0746145
0.0747966
0.0749537
0.0750899
0.0752083
0.000142137
0.00160739
0.00395257
0.00677419
0.00999684
0.0135929
0.0175385
0.0218026
0.0263425
0.0311009
0.0360009
0.0409649
0.0459024
0.050703
0.0548354
0.0582028
0.061025
0.0633946
0.0653885
0.0670704
0.0684933
0.0696483
0.070552
0.0712655
0.0718371
0.0723008
0.072681
0.0729956
0.073258
0.0734784
0.0736646
0.0738228
0.0739578
0.0740736
0.0741734
0.000140823
0.00158454
0.00389986
0.0066887
0.00987624
0.0134351
0.017342
0.0215663
0.0260661
0.0307858
0.0356492
0.0405777
0.0454844
0.0502576
0.0543666
0.0577133
0.0605144
0.0628604
0.0648267
0.0664756
0.0678592
0.0689696
0.0698266
0.0704926
0.0710168
0.0714339
0.071769
0.0720402
0.0722613
0.0724426
0.0725921
0.072716
0.0728191
0.0729054
0.0729778
0.000139795
0.00156392
0.00385353
0.00661417
0.00977096
0.0132968
0.0171686
0.0213565
0.0258196
0.0305029
0.0353315
0.0402254
0.0451011
0.0498449
0.0539273
0.057249
0.0600236
0.0623395
0.0642704
0.0658771
0.0672102
0.0682634
0.0690601
0.0696644
0.0701268
0.0704828
0.0707581
0.0709717
0.0711377
0.0712666
0.0713666
0.0714441
0.0715039
0.0715498
0.0715849
0.0267196
0.0267645
0.0269109
0.0270625
0.027036
0.0266581
0.0259037
0.0247488
0.0231818
0.0212308
0.0190692
0.0170839
0.0154107
0.0140614
0.0130315
0.0123469
0.0119167
0.0119155
0.0123504
0.0132727
0.0146962
0.016567
0.0591958
0.0596333
0.0599631
0.0602768
0.0603539
0.0601894
0.0596932
0.0588172
0.0575716
0.056009
0.0543153
0.0526994
0.0513311
0.0504681
0.0506892
0.0522047
0.0554027
0.0581157
0.0607416
0.0635356
0.0664152
0.0691423
0.103009
0.102359
0.101672
0.101018
0.100499
0.100228
0.100318
0.10089
0.101799
0.10265
0.10309
0.102855
0.101844
0.10014
0.0978947
0.0952457
0.0922774
0.0896942
0.0875185
0.0857018
0.0842561
0.083186
0.118212
0.117811
0.11715
0.116198
0.114937
0.11335
0.111423
0.109141
0.10699
0.104808
0.102692
0.100775
0.0991483
0.0978473
0.0967985
0.0959158
0.0951035
0.0944059
0.0939589
0.0937012
0.0935188
0.0933486
0.11654
0.115569
0.114545
0.113487
0.112419
0.111347
0.110346
0.109429
0.10815
0.106784
0.105413
0.10408
0.102853
0.101779
0.100857
0.100074
0.09941
0.0987921
0.098134
0.097492
0.0969297
0.0964969
0.110599
0.110188
0.109691
0.109127
0.108516
0.107874
0.10722
0.106563
0.105888
0.105185
0.104456
0.10372
0.103011
0.102358
0.101773
0.101264
0.100836
0.100485
0.100206
0.099998
0.0998657
0.0997809
0.106478
0.106359
0.106188
0.105967
0.105701
0.105395
0.105056
0.10469
0.104302
0.103895
0.103474
0.103047
0.10263
0.102239
0.101881
0.101559
0.101277
0.101038
0.100841
0.100684
0.100566
0.100482
0.101551
0.101658
0.101733
0.101775
0.101782
0.101755
0.101695
0.101604
0.101485
0.101341
0.101176
0.100993
0.100803
0.100615
0.100434
0.100265
0.100112
0.0999771
0.0998632
0.0997714
0.0997025
0.0996559
0.098031
0.0981954
0.0983355
0.0984502
0.0985394
0.0986033
0.0986425
0.0986578
0.0986503
0.0986217
0.098574
0.0985105
0.0984365
0.0983589
0.0982818
0.0982087
0.0981425
0.0980855
0.0980393
0.0980052
0.097984
0.0979761
0.0950765
0.0952646
0.0954357
0.0955887
0.0957226
0.0958367
0.0959307
0.0960043
0.096058
0.0960922
0.0961079
0.0961063
0.09609
0.0960641
0.0960328
0.0959996
0.0959681
0.0959408
0.0959199
0.095907
0.0959031
0.0959087
0.0931805
0.0933558
0.0935159
0.09366
0.0937874
0.0938975
0.0939901
0.094065
0.0941223
0.0941624
0.0941862
0.0941948
0.0941903
0.0941771
0.0941587
0.0941382
0.0941181
0.0941004
0.0940869
0.0940789
0.0940774
0.0940832
0.0916166
0.0918018
0.0919734
0.0921305
0.0922724
0.0923984
0.0925079
0.0926005
0.0926758
0.0927338
0.0927746
0.0927983
0.0928058
0.0928011
0.0927881
0.0927701
0.0927498
0.0927294
0.0927108
0.0926954
0.0926843
0.0926784
0.0902905
0.0904967
0.0906901
0.0908699
0.0910351
0.091185
0.0913189
0.0914362
0.0915366
0.0916198
0.0916858
0.0917346
0.0917661
0.0917835
0.0917898
0.0917879
0.0917804
0.0917695
0.0917571
0.0917449
0.091734
0.0917254
0.0889798
0.089214
0.0894375
0.0896492
0.0898485
0.0900343
0.090206
0.0903629
0.0905041
0.0906291
0.0907372
0.0908272
0.0908979
0.0909509
0.0909892
0.0910153
0.0910317
0.0910407
0.0910443
0.0910439
0.091041
0.0910365
0.0876988
0.0879605
0.0882126
0.0884544
0.088685
0.0889036
0.0891098
0.0893028
0.0894821
0.0896472
0.0897979
0.0899328
0.0900492
0.0901466
0.0902272
0.0902928
0.0903452
0.0903864
0.0904185
0.0904432
0.0904621
0.0904766
0.0864183
0.0867046
0.0869834
0.0872538
0.0875147
0.0877655
0.0880054
0.0882334
0.088449
0.0886514
0.0888401
0.0890133
0.0891667
0.0892996
0.0894143
0.089513
0.0895975
0.0896695
0.0897306
0.0897823
0.089826
0.0898629
0.0851682
0.0854758
0.0857771
0.0860713
0.0863576
0.0866352
0.0869034
0.0871613
0.0874082
0.0876432
0.0878658
0.0880736
0.0882613
0.0884273
0.0885739
0.0887032
0.088817
0.0889172
0.0890051
0.0890824
0.0891503
0.08921
0.0839543
0.0842776
0.0845964
0.0849098
0.0852171
0.0855174
0.0858098
0.0860935
0.0863676
0.0866313
0.0868838
0.0871224
0.0873407
0.0875363
0.0877116
0.0878684
0.0880085
0.0881338
0.0882458
0.0883458
0.0884353
0.0885153
0.0828024
0.0831385
0.0834711
0.0837997
0.0841235
0.0844417
0.0847535
0.0850581
0.0853546
0.085642
0.0859194
0.086184
0.0864285
0.0866498
0.0868499
0.0870308
0.0871941
0.0873416
0.0874748
0.087595
0.0877036
0.0878018
0.0817151
0.0820608
0.0824043
0.0827449
0.083082
0.0834148
0.0837425
0.0840642
0.084379
0.0846861
0.0849845
0.0852711
0.0855378
0.085781
0.0860025
0.0862042
0.0863877
0.0865546
0.0867063
0.0868442
0.0869697
0.0870838
0.0807038
0.0810561
0.0814072
0.0817566
0.0821036
0.0824474
0.0827873
0.0831225
0.083452
0.083775
0.0840904
0.084395
0.0846802
0.0849418
0.0851814
0.0854009
0.0856016
0.0857853
0.0859532
0.0861066
0.0862469
0.0863751
0.0797637
0.0801212
0.0804783
0.0808345
0.0811892
0.0815417
0.0818912
0.082237
0.0825782
0.0829139
0.0832431
0.0835624
0.0838628
0.0841396
0.0843943
0.0846287
0.0848441
0.0850421
0.0852238
0.0853907
0.0855438
0.0856844
0.0788863
0.0792487
0.0796113
0.0799736
0.0803351
0.080695
0.0810527
0.0814074
0.0817583
0.0821045
0.0824451
0.0827766
0.0830894
0.0833787
0.0836461
0.0838929
0.0841206
0.0843306
0.0845242
0.0847025
0.0848667
0.085018
0.0780516
0.0784207
0.0787903
0.0791599
0.0795291
0.0798971
0.0802633
0.0806269
0.0809871
0.0813432
0.081694
0.0820363
0.08236
0.0826601
0.0829382
0.0831955
0.0834336
0.0836539
0.0838574
0.0840455
0.0842192
0.0843796
0.0772308
0.0776101
0.0779902
0.0783706
0.0787506
0.0791295
0.0795067
0.0798815
0.0802528
0.08062
0.080982
0.0813354
0.08167
0.0819805
0.0822685
0.0825355
0.0827829
0.0830121
0.0832244
0.0834209
0.0836028
0.0837712
0.0763856
0.0767807
0.0771769
0.0775735
0.0779698
0.0783651
0.0787584
0.079149
0.0795358
0.079918
0.0802946
0.0806619
0.0810095
0.0813319
0.0816308
0.0819078
0.0821646
0.0824026
0.0826232
0.0828275
0.0830169
0.0831924
0.0754713
0.075889
0.0763084
0.0767287
0.0771489
0.0775681
0.0779852
0.0783991
0.0788087
0.0792127
0.0796102
0.0799971
0.0803625
0.0807006
0.0810135
0.0813031
0.0815711
0.0818191
0.0820487
0.0822614
0.0824583
0.0826408
0.0744402
0.0748877
0.075338
0.0757904
0.0762436
0.0766962
0.0771469
0.0775942
0.0780365
0.0784723
0.0789002
0.0793156
0.0797067
0.0800674
0.0804001
0.0807069
0.08099
0.0812512
0.0814924
0.0817151
0.0819211
0.0821116
0.0732467
0.0737301
0.0742187
0.0747115
0.0752069
0.0757032
0.0761986
0.0766911
0.0771785
0.0776586
0.0781294
0.0785855
0.0790136
0.079407
0.0797683
0.0800999
0.0804045
0.0806843
0.0809416
0.0811782
0.0813961
0.0815969
0.0718523
0.0723756
0.0729079
0.0734478
0.0739937
0.0745433
0.0750945
0.0756444
0.0761903
0.0767292
0.077258
0.0777699
0.0782495
0.0786889
0.0790907
0.0794578
0.0797932
0.0800997
0.0803799
0.0806363
0.0808711
0.0810864
0.0190893
0.0224664
0.026262
0.0301408
0.0334652
0.0358085
0.0719716
0.0746815
0.0765792
0.0777781
0.0784849
0.0787926
0.0825362
0.0826151
0.0831896
0.0841829
0.0855133
0.0869901
0.0932388
0.0931622
0.0932902
0.0935258
0.0937603
0.0941058
0.0961997
0.0960906
0.0961567
0.0963801
0.0967538
0.097288
0.0997371
0.0997325
0.0997606
0.0998363
0.0999614
0.100124
0.100432
0.100417
0.100446
0.100515
0.100625
0.100774
0.0996061
0.0995537
0.0995317
0.0995383
0.0995725
0.0996323
0.0979358
0.0978614
0.0978061
0.0977705
0.0977537
0.0977547
0.0958666
0.0957778
0.0957036
0.0956447
0.0956012
0.0955729
0.0940411
0.0939514
0.093873
0.0938066
0.0937527
0.0937113
0.0926328
0.0925487
0.092474
0.0924094
0.0923558
0.0923135
0.0916846
0.091613
0.091548
0.0914902
0.0914403
0.0913987
0.0910033
0.090944
0.0908886
0.0908379
0.0907925
0.0907528
0.090459
0.0904117
0.0903659
0.0903222
0.0902811
0.0902431
0.089861
0.0898231
0.089785
0.0897474
0.0897107
0.0896753
0.0892241
0.089195
0.089164
0.0891315
0.089098
0.0890636
0.0885433
0.0885216
0.0884967
0.0884688
0.0884384
0.0884056
0.0878427
0.087828
0.0878089
0.0877856
0.0877584
0.0877275
0.0871362
0.0871282
0.0871149
0.0870963
0.0870729
0.0870447
0.086438
0.0864366
0.086429
0.0864154
0.086396
0.086371
0.0857568
0.0857617
0.0857597
0.085751
0.0857357
0.0857141
0.0850989
0.0851096
0.0851128
0.0851087
0.0850975
0.0850793
0.0844679
0.0844838
0.0844918
0.0844919
0.0844844
0.0844692
0.0838659
0.0838863
0.0838983
0.083902
0.0838975
0.083885
0.0832927
0.0833168
0.0833321
0.0833387
0.0833367
0.0833261
0.0827463
0.0827733
0.0827911
0.0827999
0.0827996
0.0827904
0.0822221
0.0822513
0.0822709
0.0822812
0.082282
0.0822735
0.0817131
0.0817437
0.0817645
0.0817756
0.0817769
0.0817686
0.0812096
0.0812409
0.081262
0.0812733
0.0812747
0.0812662
0.0375204
0.0390691
0.0406975
0.0424706
0.0443866
0.0464025
0.0484562
0.0504802
0.0524087
0.05418
0.0557481
0.0571296
0.0580217
0.0586685
0.0590737
0.0592882
0.0593545
0.0593077
0.0591731
0.0589985
0.0588467
0.0587078
0.0787532
0.078561
0.0781628
0.0776683
0.0774086
0.0774099
0.0777135
0.0782591
0.0790478
0.0800431
0.0811541
0.0822725
0.083282
0.0841275
0.084808
0.0853409
0.0857756
0.0861439
0.0864675
0.0867647
0.0870502
0.0873322
0.0884598
0.0898915
0.0913877
0.09297
0.0946454
0.0963987
0.0981999
0.100024
0.101735
0.103201
0.104351
0.105158
0.105604
0.105744
0.105653
0.105495
0.105349
0.105233
0.105139
0.105059
0.104981
0.104899
0.0946148
0.09524
0.0959724
0.0967897
0.0976585
0.098569
0.0995785
0.100712
0.101873
0.103091
0.104347
0.105597
0.106756
0.107767
0.108644
0.109286
0.109656
0.109866
0.109954
0.109951
0.109884
0.109776
0.0979133
0.0985563
0.0992261
0.0999114
0.100616
0.10133
0.102076
0.102851
0.103636
0.104445
0.105244
0.105966
0.106607
0.107158
0.107561
0.107896
0.108227
0.108561
0.108901
0.109247
0.109593
0.109936
0.100361
0.100657
0.101021
0.10145
0.101932
0.102442
0.102941
0.10341
0.103831
0.104198
0.104538
0.104841
0.105099
0.105311
0.105493
0.105669
0.105838
0.106011
0.106193
0.106389
0.1066
0.106819
0.100942
0.101102
0.101279
0.101473
0.101677
0.101885
0.10209
0.102284
0.102464
0.102626
0.102767
0.102885
0.102979
0.103052
0.10311
0.10316
0.103205
0.103249
0.103295
0.103343
0.103393
0.103443
0.0996806
0.0996961
0.099717
0.099741
0.0997656
0.0997882
0.099806
0.0998166
0.0998184
0.0998097
0.0997891
0.0997559
0.0997123
0.0996619
0.0996072
0.0995501
0.0994921
0.0994337
0.0993746
0.0993141
0.0992512
0.0991852
0.0977228
0.0976434
0.0975669
0.0974924
0.0974195
0.0973476
0.0972761
0.0972045
0.0971324
0.0970595
0.0969861
0.096913
0.0968437
0.0967811
0.0967252
0.0966758
0.0966323
0.0965938
0.0965592
0.0965275
0.0964971
0.0964668
0.0955063
0.0953907
0.0952802
0.0951748
0.0950746
0.0949798
0.0948904
0.0948066
0.0947285
0.0946561
0.0945896
0.0945294
0.0944781
0.0944358
0.0944003
0.0943695
0.0943415
0.0943159
0.0942915
0.0942669
0.0942403
0.0942102
0.0936357
0.093518
0.0934087
0.0933073
0.0932145
0.0931311
0.0930577
0.0929949
0.092943
0.0929019
0.0928713
0.09285
0.0928368
0.0928295
0.0928258
0.092824
0.0928226
0.0928199
0.0928141
0.0928033
0.0927855
0.0927591
0.0922478
0.0921529
0.092067
0.0919897
0.0919217
0.0918632
0.0918146
0.0917756
0.0917456
0.0917232
0.0917062
0.0916928
0.0916814
0.09167
0.0916568
0.0916397
0.0916169
0.091587
0.0915488
0.0915012
0.0914433
0.0913741
0.0913406
0.0912623
0.0911909
0.0911256
0.0910665
0.0910135
0.0909664
0.0909243
0.0908862
0.0908507
0.0908161
0.0907803
0.0907419
0.0906994
0.0906509
0.0905947
0.0905297
0.0904547
0.090369
0.0902722
0.0901641
0.0900447
0.0906994
0.0906297
0.090563
0.0904985
0.0904358
0.0903747
0.0903145
0.0902542
0.0901923
0.090127
0.0900561
0.0899779
0.089892
0.0897988
0.0896971
0.0895862
0.0894661
0.0893368
0.0891983
0.0890508
0.0888946
0.0887303
0.0901862
0.0901093
0.0900324
0.0899543
0.0898741
0.0897909
0.0897036
0.0896105
0.0895101
0.0894007
0.0892809
0.0891501
0.0890108
0.0888658
0.0887147
0.088557
0.0883927
0.0882215
0.0880435
0.0878587
0.0876674
0.0874701
0.0896127
0.0895224
0.089429
0.0893314
0.0892288
0.0891203
0.089005
0.0888817
0.0887493
0.0886066
0.0884523
0.0882857
0.0881103
0.0879293
0.087743
0.0875515
0.0873545
0.0871519
0.0869439
0.0867311
0.0865138
0.0862926
0.0889934
0.0888878
0.0887772
0.0886607
0.0885376
0.0884072
0.0882685
0.0881206
0.0879626
0.0877933
0.0876112
0.0874163
0.0872127
0.0870044
0.0867915
0.0865739
0.0863517
0.0861252
0.0858946
0.0856608
0.0854241
0.0851846
0.0883291
0.0882106
0.0880858
0.087954
0.0878145
0.0876668
0.0875099
0.087343
0.0871652
0.0869751
0.0867717
0.0865548
0.0863294
0.0861002
0.0858673
0.0856309
0.0853911
0.0851483
0.0849027
0.0846545
0.0844036
0.0841502
0.0876465
0.0875176
0.0873817
0.0872383
0.0870865
0.0869258
0.0867554
0.0865743
0.0863816
0.0861762
0.0859568
0.0857236
0.085482
0.085237
0.0849888
0.0847375
0.0844832
0.0842259
0.0839658
0.0837027
0.0834368
0.083168
0.0869608
0.0868244
0.0866805
0.0865285
0.0863676
0.0861973
0.0860167
0.0858248
0.0856208
0.0854032
0.085171
0.0849244
0.0846688
0.0844098
0.0841473
0.0838814
0.0836122
0.0833396
0.0830638
0.0827847
0.0825025
0.0822173
0.0862856
0.0861437
0.0859938
0.0858354
0.0856677
0.0854899
0.0853012
0.0851006
0.084887
0.0846591
0.0844155
0.0841565
0.0838877
0.083615
0.0833383
0.0830576
0.0827731
0.0824848
0.082193
0.0818978
0.0815994
0.0812981
0.0856282
0.0854822
0.0853278
0.0851643
0.0849909
0.0848069
0.0846111
0.0844027
0.0841803
0.0839425
0.0836878
0.0834163
0.0831341
0.0828472
0.0825556
0.0822595
0.0819591
0.0816546
0.0813463
0.0810346
0.0807198
0.0804022
0.0849933
0.084844
0.0846857
0.0845178
0.0843393
0.0841494
0.083947
0.0837308
0.0834995
0.0832515
0.0829852
0.0827006
0.0824041
0.0821021
0.0817947
0.0814822
0.0811651
0.0808436
0.0805183
0.0801896
0.079858
0.0795238
0.0843833
0.0842308
0.0840689
0.0838967
0.0837131
0.0835172
0.0833076
0.0830831
0.0828421
0.082583
0.0823039
0.0820048
0.0816924
0.0813736
0.0810488
0.0807183
0.0803828
0.0800427
0.0796988
0.0793516
0.0790018
0.0786499
0.0837988
0.0836432
0.0834774
0.0833003
0.083111
0.0829082
0.0826905
0.0824564
0.0822041
0.081932
0.0816378
0.0813216
0.0809907
0.0806522
0.0803069
0.0799554
0.0795984
0.0792368
0.0788714
0.0785029
0.0781322
0.07776
0.0832391
0.0830797
0.0829091
0.0827263
0.0825298
0.0823185
0.0820906
0.0818444
0.0815781
0.0812896
0.0809766
0.0806392
0.080285
0.0799222
0.0795515
0.079174
0.0787908
0.0784028
0.0780111
0.0776169
0.0772211
0.0768247
0.0827018
0.0825372
0.0823602
0.0821695
0.0819636
0.0817408
0.0814994
0.0812373
0.0809524
0.0806423
0.0803047
0.0799394
0.0795551
0.0791607
0.0787576
0.078347
0.0779305
0.0775095
0.0770854
0.0766596
0.0762333
0.0758078
0.0821819
0.0820099
0.0818238
0.081622
0.0814028
0.0811642
0.080904
0.0806201
0.0803098
0.0799706
0.0795998
0.0791974
0.0787734
0.0783379
0.0778928
0.07744
0.0769816
0.0765195
0.0760555
0.0755914
0.0751287
0.0746689
0.0816721
0.0814893
0.08129
0.0810723
0.0808341
0.0805731
0.0802869
0.0799727
0.0796277
0.079249
0.0788337
0.0783823
0.0779062
0.0774177
0.0769192
0.0764137
0.0759037
0.0753918
0.0748804
0.0743716
0.0738672
0.0733689
0.0811626
0.0809637
0.0807452
0.0805047
0.0802399
0.0799478
0.0796256
0.0792701
0.0788782
0.0784468
0.0779729
0.0774577
0.0769153
0.0763603
0.0757963
0.0752271
0.0746561
0.0740866
0.0735215
0.0729631
0.0724136
0.0718744
0.0586207
0.0585378
0.0585076
0.0585553
0.0586978
0.0589522
0.0593358
0.0598629
0.0605411
0.0613665
0.0623218
0.0633738
0.0644752
0.0655702
0.066526
0.0671682
0.067436
0.067247
0.0666599
0.0652106
0.061902
0.0575182
0.0524731
0.0469133
0.0408199
0.0346224
0.0288008
0.0238477
0.0193388
0.0154548
0.0120624
0.00885006
0.00539599
0.00173925
0.000697803
0.0875251
0.0876244
0.087743
0.0878923
0.0880846
0.0883286
0.0886288
0.0889884
0.0894188
0.0899022
0.0904079
0.0908257
0.0909475
0.0905366
0.0893451
0.0873514
0.0849621
0.0824387
0.0806146
0.0809353
0.0838725
0.0873372
0.0910801
0.0941078
0.0937758
0.0935445
0.093776
0.0922021
0.0876338
0.0770966
0.0615722
0.0436164
0.0255882
0.00996429
0.00117965
0.104785
0.104638
0.104463
0.104255
0.104001
0.103681
0.103264
0.102713
0.101985
0.100983
0.0995017
0.0974489
0.0945325
0.0904019
0.0849663
0.0796586
0.0735998
0.0680455
0.0656999
0.0683454
0.0751294
0.0840685
0.0932697
0.101095
0.104884
0.103702
0.0983942
0.0900019
0.0793141
0.066951
0.0531827
0.0384228
0.0234677
0.00978667
0.00105817
0.109656
0.109538
0.109409
0.109276
0.10915
0.109044
0.108952
0.108745
0.108325
0.107047
0.104562
0.10048
0.09427
0.0854773
0.0781186
0.0694569
0.0640588
0.0617412
0.0631206
0.0678495
0.0726678
0.0755087
0.0765917
0.0771165
0.0768836
0.0745308
0.0712625
0.0655189
0.0577418
0.0484182
0.0381559
0.0273853
0.0166629
0.00682072
0.000927438
0.110234
0.110503
0.110792
0.11108
0.111316
0.111425
0.111322
0.110948
0.110175
0.10918
0.107981
0.106629
0.105062
0.102828
0.0987793
0.0903953
0.0752168
0.0582426
0.0460699
0.0433255
0.049531
0.0585659
0.0653465
0.0678879
0.0675739
0.0650717
0.0605788
0.0547118
0.0476805
0.0398441
0.031611
0.0231641
0.0146936
0.00653777
0.000758961
0.107021
0.107216
0.107439
0.107692
0.107974
0.108277
0.108575
0.108821
0.108912
0.108682
0.107887
0.106187
0.10314
0.0980599
0.0893473
0.0772061
0.0637013
0.0498913
0.0397393
0.0319915
0.0291859
0.0300143
0.0319479
0.0334969
0.0337099
0.0332687
0.0311895
0.0277695
0.0239899
0.0199421
0.0157454
0.0115065
0.00727729
0.00319197
0.000512597
0.103523
0.103647
0.103787
0.10394
0.104096
0.10423
0.104292
0.104204
0.103889
0.103331
0.102527
0.101463
0.100066
0.0981148
0.0952264
0.0909844
0.0848891
0.0773203
0.0687161
0.0594818
0.0501473
0.0409316
0.0327089
0.0262171
0.0211986
0.0178478
0.0161494
0.0147809
0.0135312
0.0115787
0.00929733
0.00691749
0.00452162
0.00219086
0.000281237
0.0991635
0.0991945
0.0992256
0.0992553
0.0992816
0.0993
0.099304
0.099284
0.0992221
0.0990836
0.0988004
0.098285
0.0974234
0.0960862
0.0941496
0.0916037
0.08853
0.0848804
0.0805426
0.075093
0.0686307
0.0608305
0.0520669
0.042704
0.0330728
0.0237197
0.0162478
0.0111377
0.0082232
0.00630766
0.00481001
0.00346535
0.00218499
0.000949854
0.000180035
0.0964725
0.0965208
0.0965723
0.0966247
0.0966737
0.0967127
0.0967275
0.0966937
0.0965826
0.096364
0.0959982
0.0954373
0.0946267
0.0935089
0.0920243
0.0901591
0.0879276
0.0852611
0.0820559
0.078156
0.0733556
0.0673629
0.0605178
0.053762
0.0472736
0.0411041
0.0353031
0.0298311
0.0246051
0.0195782
0.0147684
0.0102104
0.00599091
0.00238371
0.000270154
0.0942057
0.0942362
0.0942641
0.0942866
0.0942992
0.0942958
0.0942675
0.0942025
0.0940849
0.0938934
0.0936003
0.0931682
0.0925466
0.0916656
0.0904342
0.0888133
0.086841
0.0845061
0.0817738
0.0785583
0.0747129
0.0699058
0.0641335
0.0579492
0.051467
0.0448432
0.0382367
0.031797
0.0256645
0.0199488
0.0147205
0.0100187
0.0058757
0.00239067
0.000239628
0.0927529
0.0927781
0.0928002
0.0928165
0.092823
0.0928135
0.0927785
0.0927037
0.0925701
0.0923572
0.092038
0.0915768
0.0909265
0.0900263
0.0888075
0.0872648
0.0854472
0.0833295
0.0808534
0.0779095
0.0743346
0.0697734
0.0641481
0.0579844
0.051425
0.0446835
0.0379768
0.031494
0.0253746
0.0197059
0.0145336
0.00987844
0.00576564
0.00231572
0.000246824
0.0913328
0.0913314
0.0913231
0.0913048
0.0912722
0.0912191
0.0911375
0.0910171
0.0908442
0.090601
0.0902643
0.0898037
0.0891803
0.0883408
0.0872174
0.0857964
0.0841159
0.0821373
0.0797898
0.0769735
0.073552
0.0692092
0.0638893
0.0580826
0.0518922
0.0454626
0.0389838
0.0325753
0.026397
0.0205749
0.0151952
0.0103238
0.00602753
0.00244458
0.000222952
0.0899661
0.0899384
0.0899023
0.0898553
0.0897937
0.089712
0.0896028
0.089455