/*--------------------------------*- C++ -*----------------------------------*\
  =========                 |
  \\      /  F ield         | OpenFOAM: The Open Source CFD Toolbox
   \\    /   O peration     | Website:  https://openfoam.org
    \\  /    A nd           | Version:  8
     \\/     M anipulation  |
\*---------------------------------------------------------------------------*/
FoamFile
{
    version     2.0;
    format      ascii;
    class       volScalarField;
    location    "0.26";
    object      T;
}
// * * * * * * * * * * * * * * * * * * * * * * * * * * * * * * * * * * * * * //

dimensions      [0 0 0 1 0 0 0];

internalField   nonuniform List<scalar> 
15677
(
298.169
298.177
298.194
298.219
298.25
298.288
298.333
298.385
298.446
298.512
298.588
298.659
298.701
298.691
298.611
298.512
298.42
298.351
298.29
298.231
298.178
298.138
298.116
298.115
298.127
298.156
298.197
298.246
298.3
298.345
298.383
298.412
298.432
298.443
298.449
298.358
298.305
298.267
298.251
298.253
298.282
298.351
298.484
298.719
299.092
299.552
299.939
300.12
300.097
299.897
299.622
299.324
299.058
298.853
298.707
298.61
298.547
298.509
298.491
298.49
298.499
298.521
298.553
298.59
298.628
298.665
298.699
298.73
298.758
298.78
301.018
300.816
300.651
300.485
300.305
300.104
299.875
299.612
299.342
299.12
298.966
298.889
298.826
298.736
298.687
298.681
298.722
298.803
298.917
299.066
299.233
299.386
299.509
299.605
299.68
299.737
299.779
299.809
299.828
299.841
299.848
299.853
299.856
299.859
299.862
301.24
301.15
301.034
300.919
300.798
300.67
300.539
300.407
300.267
300.094
299.887
299.771
299.822
299.992
300.069
300.067
300.099
300.153
300.184
300.172
300.119
300.042
299.966
299.907
299.871
299.854
299.848
299.849
299.854
299.862
299.873
299.885
299.897
299.91
299.923
299.926
299.916
299.913
299.914
299.917
299.922
299.932
299.948
299.976
300.021
300.092
300.182
300.263
300.282
300.228
300.164
300.121
300.092
300.069
300.051
300.041
300.041
300.049
300.065
300.09
300.126
300.167
300.211
300.253
300.293
300.328
300.36
300.387
300.41
300.43
300.083
300.079
300.086
300.1
300.123
300.156
300.2
300.255
300.317
300.379
300.432
300.469
300.489
300.488
300.473
300.453
300.434
300.412
300.38
300.344
300.309
300.283
300.269
300.265
300.266
300.269
300.273
300.278
300.284
300.29
300.295
300.3
300.305
300.31
300.313
300.63
300.618
300.605
300.59
300.571
300.549
300.524
300.502
300.488
300.485
300.49
300.502
300.518
300.529
300.523
300.505
300.484
300.462
300.441
300.422
300.404
300.391
300.384
300.384
300.387
300.394
300.402
300.41
300.418
300.424
300.431
300.437
300.443
300.448
300.452
300.77
300.767
300.761
300.756
300.75
300.743
300.735
300.726
300.718
300.709
300.7
300.691
300.684
300.673
300.651
300.622
300.59
300.56
300.533
300.51
300.491
300.476
300.464
300.455
300.448
300.443
300.44
300.439
300.438
300.438
300.438
300.438
300.439
300.44
300.44
300.596
300.599
300.603
300.606
300.61
300.614
300.617
300.621
300.624
300.626
300.628
300.628
300.627
300.623
300.616
300.606
300.593
300.579
300.563
300.549
300.535
300.524
300.516
300.51
300.506
300.503
300.502
300.501
300.5
300.5
300.499
300.5
300.5
300.5
300.501
300.744
300.734
300.726
300.719
300.713
300.706
300.7
300.694
300.689
300.683
300.678
300.672
300.666
300.658
300.648
300.637
300.626
300.614
300.601
300.588
300.576
300.565
300.556
300.549
300.543
300.538
300.534
300.531
300.529
300.527
300.525
300.524
300.523
300.522
300.522
300.651
300.654
300.656
300.658
300.659
300.661
300.662
300.663
300.664
300.663
300.662
300.66
300.657
300.652
300.647
300.64
300.633
300.625
300.617
300.609
300.6
300.593
300.587
300.582
300.577
300.574
300.571
300.569
300.567
300.566
300.565
300.564
300.563
300.562
300.562
300.74
300.732
300.727
300.722
300.718
300.713
300.709
300.705
300.701
300.697
300.692
300.688
300.682
300.676
300.669
300.662
300.655
300.647
300.639
300.632
300.624
300.617
300.611
300.607
300.602
300.599
300.596
300.594
300.591
300.59
300.588
300.587
300.586
300.585
300.584
300.709
300.708
300.708
300.708
300.707
300.707
300.706
300.704
300.703
300.7
300.698
300.694
300.69
300.685
300.679
300.673
300.667
300.661
300.655
300.649
300.643
300.637
300.632
300.628
300.625
300.622
300.619
300.617
300.616
300.614
300.613
300.612
300.611
300.61
300.609
300.754
300.749
300.746
300.743
300.74
300.736
300.733
300.73
300.726
300.723
300.718
300.714
300.708
300.702
300.696
300.69
300.683
300.677
300.671
300.665
300.66
300.654
300.65
300.646
300.643
300.64
300.638
300.636
300.634
300.632
300.631
300.63
300.629
300.628
300.627
300.746
300.744
300.743
300.742
300.74
300.739
300.737
300.735
300.733
300.73
300.727
300.723
300.718
300.713
300.707
300.701
300.696
300.69
300.685
300.679
300.674
300.669
300.665
300.662
300.659
300.656
300.654
300.652
300.651
300.649
300.648
300.647
300.646
300.645
300.645
300.771
300.768
300.765
300.763
300.76
300.758
300.755
300.752
300.749
300.745
300.741
300.737
300.732
300.726
300.72
300.714
300.708
300.703
300.697
300.692
300.687
300.683
300.679
300.675
300.673
300.67
300.668
300.666
300.665
300.663
300.662
300.661
300.66
300.66
300.659
300.771
300.769
300.768
300.766
300.765
300.763
300.761
300.759
300.757
300.754
300.75
300.746
300.741
300.736
300.73
300.725
300.72
300.714
300.709
300.704
300.699
300.695
300.691
300.688
300.685
300.683
300.681
300.679
300.678
300.677
300.675
300.674
300.674
300.673
300.672
300.786
300.783
300.781
300.779
300.777
300.775
300.773
300.771
300.768
300.765
300.761
300.757
300.752
300.747
300.741
300.736
300.73
300.725
300.72
300.715
300.71
300.706
300.702
300.699
300.697
300.694
300.693
300.691
300.689
300.688
300.687
300.686
300.685
300.685
300.684
300.792
300.79
300.788
300.787
300.785
300.783
300.781
300.779
300.776
300.773
300.77
300.766
300.761
300.756
300.751
300.745
300.74
300.735
300.73
300.725
300.721
300.717
300.713
300.71
300.708
300.705
300.704
300.702
300.701
300.699
300.698
300.697
300.697
300.696
300.695
300.801
300.799
300.797
300.796
300.794
300.792
300.79
300.788
300.785
300.782
300.779
300.775
300.77
300.765
300.76
300.755
300.75
300.745
300.74
300.735
300.731
300.727
300.723
300.72
300.718
300.716
300.714
300.712
300.711
300.71
300.709
300.708
300.707
300.706
300.706
300.809
300.807
300.805
300.804
300.802
300.8
300.798
300.796
300.793
300.79
300.787
300.783
300.779
300.774
300.769
300.764
300.759
300.754
300.749
300.744
300.74
300.736
300.733
300.73
300.727
300.725
300.724
300.722
300.721
300.72
300.719
300.718
300.717
300.716
300.716
300.816
300.814
300.812
300.811
300.809
300.808
300.806
300.804
300.801
300.798
300.795
300.791
300.787
300.782
300.777
300.772
300.767
300.762
300.758
300.753
300.749
300.745
300.742
300.739
300.737
300.735
300.733
300.732
300.73
300.729
300.728
300.728
300.727
300.726
300.726
300.824
300.821
300.82
300.818
300.817
300.815
300.813
300.811
300.808
300.806
300.802
300.799
300.795
300.79
300.785
300.78
300.775
300.771
300.766
300.762
300.758
300.754
300.751
300.748
300.746
300.744
300.742
300.741
300.74
300.739
300.738
300.737
300.736
300.736
300.735
300.83
300.828
300.826
300.825
300.823
300.821
300.82
300.818
300.815
300.812
300.809
300.806
300.802
300.797
300.792
300.787
300.783
300.778
300.774
300.77
300.766
300.762
300.759
300.756
300.754
300.752
300.751
300.75
300.748
300.747
300.747
300.746
300.745
300.744
300.744
300.836
300.834
300.833
300.831
300.83
300.828
300.826
300.824
300.822
300.819
300.816
300.812
300.808
300.804
300.799
300.794
300.79
300.786
300.781
300.777
300.773
300.77
300.767
300.764
300.762
300.761
300.759
300.758
300.757
300.756
300.755
300.754
300.754
300.753
300.752
300.842
300.84
300.838
300.837
300.835
300.834
300.832
300.83
300.828
300.825
300.822
300.819
300.815
300.81
300.806
300.801
300.797
300.792
300.788
300.784
300.781
300.777
300.774
300.772
300.77
300.768
300.767
300.766
300.765
300.764
300.763
300.762
300.762
300.761
300.76
300.847
300.845
300.844
300.842
300.841
300.839
300.838
300.836
300.833
300.831
300.828
300.824
300.821
300.816
300.812
300.807
300.803
300.799
300.795
300.791
300.787
300.784
300.781
300.779
300.777
300.775
300.774
300.773
300.772
300.771
300.77
300.77
300.769
300.768
300.768
300.852
300.85
300.849
300.848
300.846
300.845
300.843
300.841
300.839
300.836
300.833
300.83
300.826
300.822
300.818
300.813
300.809
300.805
300.801
300.797
300.794
300.791
300.788
300.786
300.784
300.782
300.781
300.78
300.779
300.778
300.777
300.777
300.776
300.775
300.775
300.857
300.855
300.854
300.852
300.851
300.849
300.848
300.846
300.844
300.841
300.838
300.835
300.832
300.827
300.823
300.819
300.815
300.811
300.807
300.803
300.8
300.797
300.794
300.792
300.79
300.789
300.787
300.786
300.785
300.784
300.784
300.783
300.782
300.782
300.781
300.862
300.86
300.858
300.857
300.856
300.854
300.852
300.85
300.848
300.846
300.843
300.84
300.836
300.832
300.828
300.824
300.82
300.816
300.813
300.809
300.806
300.803
300.8
300.798
300.796
300.794
300.793
300.792
300.791
300.79
300.79
300.789
300.788
300.788
300.787
298.453
298.452
298.445
298.433
298.415
298.39
298.358
298.316
298.264
298.207
298.142
298.068
297.988
297.907
297.833
297.777
297.748
297.751
297.785
297.839
297.896
297.939
298.8
298.814
298.819
298.817
298.809
298.793
298.771
298.74
298.701
298.656
298.602
298.539
298.474
298.414
298.367
298.34
298.334
298.342
298.355
298.362
298.354
298.332
299.865
299.869
299.876
299.888
299.907
299.931
299.961
299.999
300.045
300.098
300.158
300.222
300.287
300.347
300.403
300.453
300.496
300.529
300.551
300.559
300.555
300.54
299.938
299.954
299.971
299.986
299.997
300.003
300.001
299.992
299.976
299.954
299.929
299.902
299.877
299.854
299.834
299.815
299.798
299.781
299.765
299.749
299.733
299.72
300.452
300.474
300.494
300.51
300.522
300.53
300.533
300.532
300.527
300.52
300.512
300.505
300.5
300.497
300.497
300.5
300.503
300.506
300.508
300.508
300.506
300.501
300.318
300.323
300.328
300.333
300.337
300.341
300.343
300.345
300.346
300.346
300.345
300.344
300.342
300.339
300.337
300.335
300.332
300.33
300.327
300.324
300.32
300.316
300.457
300.461
300.467
300.472
300.477
300.482
300.486
300.49
300.494
300.497
300.5
300.502
300.504
300.506
300.508
300.509
300.51
300.51
300.511
300.51
300.51
300.508
300.441
300.441
300.442
300.443
300.444
300.446
300.448
300.45
300.452
300.454
300.456
300.458
300.46
300.462
300.464
300.465
300.466
300.467
300.467
300.467
300.467
300.467
300.5
300.5
300.499
300.499
300.5
300.501
300.502
300.503
300.505
300.507
300.509
300.511
300.514
300.516
300.518
300.521
300.523
300.524
300.526
300.527
300.529
300.529
300.52
300.518
300.516
300.514
300.513
300.512
300.511
300.51
300.51
300.511
300.511
300.512
300.513
300.515
300.516
300.518
300.519
300.521
300.522
300.524
300.525
300.526
300.56
300.557
300.554
300.552
300.55
300.548
300.546
300.544
300.543
300.542
300.542
300.541
300.542
300.542
300.543
300.544
300.545
300.546
300.548
300.549
300.55
300.551
300.582
300.58
300.577
300.574
300.571
300.569
300.566
300.564
300.562
300.56
300.559
300.558
300.557
300.557
300.556
300.556
300.557
300.557
300.558
300.558
300.559
300.56
300.608
300.605
300.602
300.599
300.597
300.594
300.592
300.589
300.587
300.585
300.583
300.581
300.58
300.579
300.578
300.578
300.577
300.577
300.577
300.577
300.578
300.578
300.626
300.623
300.62
300.618
300.615
300.612
300.61
300.607
300.605
300.602
300.6
300.598
300.596
300.595
300.593
300.592
300.591
300.591
300.59
300.59
300.589
300.589
300.643
300.64
300.638
300.635
300.633
300.63
300.627
300.625
300.622
300.619
300.617
300.615
300.613
300.611
300.609
300.607
300.606
300.605
300.604
300.603
300.602
300.602
300.657
300.655
300.652
300.65
300.647
300.644
300.642
300.639
300.636
300.634
300.631
300.629
300.626
300.624
300.622
300.62
300.619
300.617
300.616
300.615
300.614
300.613
300.671
300.668
300.666
300.663
300.66
300.658
300.655
300.652
300.65
300.647
300.644
300.641
300.639
300.637
300.634
300.632
300.63
300.629
300.627
300.626
300.624
300.623
300.682
300.68
300.677
300.675
300.672
300.67
300.667
300.664
300.661
300.659
300.656
300.653
300.651
300.648
300.646
300.644
300.642
300.64
300.638
300.636
300.635
300.633
300.694
300.691
300.689
300.686
300.683
300.681
300.678
300.675
300.673
300.67
300.667
300.664
300.661
300.659
300.657
300.654
300.652
300.65
300.648
300.646
300.645
300.643
300.704
300.702
300.699
300.697
300.694
300.691
300.688
300.686
300.683
300.68
300.677
300.674
300.672
300.669
300.667
300.664
300.662
300.66
300.658
300.656
300.654
300.653
300.714
300.712
300.709
300.707
300.704
300.701
300.698
300.696
300.693
300.69
300.687
300.684
300.681
300.679
300.676
300.674
300.672
300.669
300.667
300.665
300.664
300.662
300.724
300.722
300.719
300.716
300.714
300.711
300.708
300.705
300.702
300.699
300.696
300.694
300.691
300.688
300.685
300.683
300.681
300.678
300.676
300.674
300.672
300.671
300.733
300.731
300.728
300.726
300.723
300.72
300.717
300.714
300.711
300.708
300.705
300.703
300.7
300.697
300.694
300.692
300.689
300.687
300.685
300.683
300.681
300.679
300.742
300.74
300.737
300.734
300.732
300.729
300.726
300.723
300.72
300.717
300.714
300.711
300.708
300.705
300.703
300.7
300.698
300.695
300.693
300.691
300.689
300.687
300.751
300.748
300.746
300.743
300.74
300.737
300.734
300.731
300.728
300.725
300.722
300.719
300.716
300.713
300.711
300.708
300.706
300.703
300.701
300.699
300.697
300.695
300.759
300.756
300.754
300.751
300.748
300.745
300.742
300.739
300.736
300.733
300.73
300.727
300.724
300.721
300.719
300.716
300.713
300.711
300.709
300.706
300.704
300.702
300.766
300.764
300.761
300.758
300.756
300.753
300.75
300.747
300.744
300.741
300.738
300.735
300.732
300.729
300.726
300.723
300.721
300.718
300.716
300.714
300.711
300.709
300.773
300.771
300.768
300.766
300.763
300.76
300.757
300.754
300.751
300.748
300.745
300.742
300.739
300.736
300.733
300.73
300.728
300.725
300.723
300.721
300.718
300.716
300.78
300.777
300.775
300.772
300.769
300.767
300.764
300.761
300.758
300.755
300.752
300.748
300.745
300.742
300.74
300.737
300.734
300.732
300.729
300.727
300.725
300.723
300.786
300.784
300.781
300.778
300.776
300.773
300.77
300.767
300.764
300.761
300.758
300.755
300.752
300.749
300.746
300.743
300.741
300.738
300.736
300.733
300.731
300.729
297.968
297.977
297.975
297.972
297.973
297.983
298.304
298.276
298.259
298.258
298.271
298.294
300.52
300.494
300.465
300.43
300.394
300.357
299.706
299.695
299.689
299.686
299.685
299.687
300.496
300.491
300.482
300.471
300.457
300.441
300.311
300.306
300.3
300.295
300.289
300.283
300.508
300.508
300.506
300.504
300.501
300.497
300.466
300.466
300.465
300.465
300.464
300.463
300.531
300.533
300.535
300.536
300.537
300.537
300.527
300.529
300.531
300.533
300.535
300.537
300.553
300.556
300.558
300.56
300.563
300.564
300.561
300.564
300.566
300.568
300.57
300.572
300.579
300.581
300.583
300.584
300.586
300.588
300.59
300.591
300.592
300.594
300.595
300.596
300.602
300.603
300.604
300.605
300.606
300.607
300.613
300.613
300.614
300.614
300.615
300.615
300.623
300.623
300.623
300.624
300.624
300.624
300.633
300.633
300.633
300.633
300.633
300.633
300.642
300.642
300.642
300.642
300.642
300.643
300.652
300.652
300.652
300.652
300.652
300.652
300.661
300.661
300.661
300.661
300.661
300.661
300.67
300.669
300.669
300.669
300.669
300.669
300.678
300.678
300.678
300.678
300.678
300.678
300.686
300.686
300.686
300.686
300.686
300.686
300.694
300.694
300.694
300.694
300.694
300.694
300.701
300.701
300.701
300.701
300.701
300.701
300.708
300.708
300.708
300.708
300.708
300.708
300.715
300.715
300.715
300.715
300.715
300.715
300.722
300.722
300.721
300.721
300.722
300.722
300.728
300.728
300.728
300.728
300.728
300.728
298
298.022
298.052
298.089
298.133
298.181
298.234
298.29
298.348
298.409
298.47
298.532
298.589
298.641
298.687
298.726
298.761
298.789
298.813
298.829
298.838
298.842
298.331
298.368
298.407
298.447
298.487
298.524
298.56
298.594
298.626
298.658
298.69
298.721
298.751
298.777
298.8
298.818
298.834
298.846
298.854
298.857
298.857
298.852
300.326
300.299
300.267
300.228
300.182
300.129
300.067
299.997
299.922
299.841
299.758
299.677
299.602
299.538
299.486
299.445
299.415
299.394
299.379
299.369
299.361
299.354
299.692
299.696
299.701
299.705
299.708
299.709
299.708
299.705
299.7
299.694
299.686
299.68
299.673
299.669
299.667
299.667
299.666
299.663
299.659
299.652
299.646
299.64
300.427
300.418
300.408
300.396
300.385
300.373
300.361
300.349
300.339
300.329
300.32
300.312
300.304
300.294
300.28
300.264
300.244
300.223
300.2
300.176
300.152
300.128
300.279
300.275
300.272
300.269
300.266
300.263
300.26
300.258
300.255
300.253
300.251
300.249
300.248
300.247
300.246
300.246
300.246
300.246
300.248
300.25
300.253
300.258
300.494
300.492
300.491
300.489
300.487
300.485
300.483
300.482
300.48
300.478
300.477
300.475
300.474
300.473
300.472
300.472
300.472
300.473
300.474
300.475
300.476
300.476
300.463
300.464
300.464
300.464
300.464
300.464
300.464
300.464
300.465
300.465
300.466
300.468
300.469
300.471
300.473
300.476
300.479
300.482
300.485
300.488
300.491
300.495
300.538
300.539
300.541
300.542
300.544
300.545
300.547
300.548
300.55
300.551
300.553
300.555
300.557
300.559
300.562
300.564
300.566
300.569
300.571
300.573
300.575
300.577
300.538
300.541
300.543
300.545
300.546
300.548
300.55
300.552
300.554
300.556
300.558
300.56
300.562
300.564
300.567
300.569
300.571
300.573
300.574
300.576
300.578
300.579
300.567
300.569
300.572
300.574
300.576
300.579
300.581
300.584
300.586
300.588
300.591
300.593
300.595
300.597
300.599
300.6
300.602
300.603
300.605
300.606
300.607
300.608
300.574
300.577
300.579
300.581
300.584
300.586
300.588
300.59
300.592
300.594
300.596
300.598
300.599
300.601
300.602
300.604
300.605
300.606
300.607
300.608
300.609
300.61
300.59
300.592
300.594
300.596
300.598
300.6
300.602
300.604
300.606
300.607
300.609
300.611
300.612
300.614
300.615
300.616
300.617
300.619
300.62
300.621
300.622
300.623
300.598
300.6
300.602
300.604
300.605
300.607
300.609
300.61
300.612
300.614
300.615
300.617
300.618
300.619
300.621
300.622
300.624
300.625
300.626
300.628
300.629
300.631
300.608
300.609
300.611
300.613
300.614
300.616
300.618
300.619
300.621
300.623
300.624
300.626
300.628
300.629
300.631
300.633
300.635
300.636
300.638
300.64
300.642
300.644
300.616
300.618
300.619
300.621
300.623
300.624
300.626
300.627
300.629
300.631
300.633
300.635
300.637
300.638
300.64
300.642
300.644
300.646
300.649
300.651
300.653
300.655
300.625
300.627
300.628
300.63
300.631
300.633
300.635
300.636
300.638
300.64
300.642
300.644
300.647
300.649
300.651
300.654
300.656
300.658
300.661
300.663
300.665
300.668
300.634
300.636
300.637
300.639
300.641
300.642
300.644
300.646
300.648
300.65
300.652
300.655
300.657
300.66
300.662
300.665
300.667
300.67
300.672
300.675
300.677
300.68
300.643
300.645
300.647
300.648
300.65
300.652
300.654
300.656
300.658
300.66
300.663
300.665
300.668
300.671
300.673
300.676
300.679
300.681
300.684
300.687
300.69
300.692
300.652
300.654
300.656
300.657
300.659
300.661
300.663
300.666
300.668
300.67
300.673
300.676
300.678
300.681
300.684
300.687
300.69
300.693
300.695
300.698
300.701
300.704
300.661
300.663
300.665
300.667
300.669
300.671
300.673
300.675
300.678
300.68
300.683
300.686
300.689
300.692
300.695
300.698
300.701
300.704
300.706
300.709
300.712
300.715
300.67
300.672
300.674
300.676
300.678
300.68
300.682
300.685
300.687
300.69
300.693
300.696
300.699
300.702
300.705
300.708
300.711
300.714
300.717
300.72
300.722
300.725
300.679
300.68
300.682
300.684
300.687
300.689
300.691
300.694
300.696
300.699
300.702
300.705
300.708
300.711
300.715
300.718
300.721
300.724
300.727
300.729
300.732
300.735
300.687
300.689
300.691
300.693
300.695
300.697
300.7
300.703
300.705
300.708
300.711
300.714
300.717
300.721
300.724
300.727
300.73
300.733
300.736
300.739
300.742
300.744
300.695
300.697
300.699
300.701
300.703
300.706
300.708
300.711
300.714
300.717
300.72
300.723
300.726
300.729
300.732
300.736
300.739
300.742
300.745
300.747
300.75
300.753
300.702
300.704
300.706
300.709
300.711
300.714
300.716
300.719
300.722
300.725
300.728
300.731
300.734
300.738
300.741
300.744
300.747
300.75
300.753
300.756
300.758
300.761
300.709
300.712
300.714
300.716
300.719
300.721
300.724
300.726
300.729
300.732
300.735
300.739
300.742
300.745
300.748
300.751
300.754
300.757
300.76
300.763
300.766
300.769
300.716
300.718
300.721
300.723
300.726
300.728
300.731
300.734
300.737
300.74
300.743
300.746
300.749
300.752
300.756
300.759
300.762
300.765
300.767
300.77
300.773
300.775
300.723
300.725
300.727
300.73
300.732
300.735
300.738
300.74
300.743
300.746
300.75
300.753
300.756
300.759
300.762
300.765
300.768
300.771
300.774
300.777
300.779
300.782
300.729
300.731
300.734
300.736
300.739
300.741
300.744
300.747
300.75
300.753
300.756
300.759
300.762
300.765
300.769
300.772
300.774
300.777
300.78
300.783
300.785
300.788
298.841
298.839
298.834
298.823
298.807
298.784
298.754
298.718
298.678
298.637
298.598
298.577
298.571
298.59
298.642
298.708
298.767
298.804
298.814
298.785
298.714
298.587
298.41
298.218
298.015
297.804
297.589
297.381
297.187
297.015
296.869
296.748
296.651
296.575
296.542
298.845
298.838
298.83
298.824
298.82
298.822
298.831
298.848
298.875
298.916
298.975
299.06
299.176
299.324
299.501
299.675
299.821
299.931
299.984
299.942
299.81
299.486
298.888
298.345
297.988
297.76
297.591
297.442
297.307
297.189
297.093
297.027
296.989
296.977
296.939
299.347
299.34
299.331
299.32
299.307
299.291
299.272
299.251
299.231
299.21
299.189
299.162
299.127
299.084
299.029
298.959
298.882
298.817
298.803
298.85
298.98
299.164
299.349
299.501
299.685
299.859
299.985
300.068
300.119
300.15
300.171
300.182
300.191
300.21
300.259
299.635
299.63
299.628
299.631
299.641
299.66
299.693
299.739
299.798
299.868
299.947
300.029
300.108
300.18
300.238
300.28
300.3
300.3
300.254
300.154
300.013
299.856
299.702
299.605
299.541
299.503
299.479
299.461
299.445
299.43
299.418
299.408
299.404
299.408
299.467
300.108
300.088
300.067
300.045
300.022
300.001
299.981
299.964
299.95
299.937
299.927
299.92
299.916
299.915
299.914
299.914
299.913
299.914
299.911
299.93
299.963
300.024
300.108
300.219
300.339
300.455
300.557
300.649
300.728
300.797
300.857
300.908
300.952
300.988
301.019
300.261
300.262
300.264
300.266
300.268
300.271
300.274
300.28
300.287
300.298
300.313
300.331
300.353
300.377
300.401
300.426
300.452
300.474
300.483
300.48
300.464
300.454
300.45
300.471
300.505
300.549
300.596
300.646
300.695
300.74
300.781
300.818
300.852
300.888
300.933
300.475
300.473
300.469
300.465
300.46
300.456
300.451
300.448
300.445
300.445
300.447
300.452
300.459
300.467
300.476
300.485
300.492
300.498
300.502
300.505
300.51
300.519
300.536
300.563
300.601
300.649
300.708
300.772
300.838
300.898
300.951
300.993
301.024
301.041
301.028
300.496
300.497
300.498
300.499
300.5
300.502
300.503
300.505
300.508
300.511
300.514
300.517
300.522
300.528
300.536
300.545
300.555
300.566
300.577
300.588
300.6
300.613
300.627
300.642
300.658
300.672
300.684
300.701
300.723
300.748
300.773
300.794
300.811
300.822
300.826
300.579
300.579
300.579
300.579
300.579
300.578
300.578
300.577
300.576
300.575
300.574
300.575
300.576
300.578
300.583
300.589
300.596
300.604
300.612
300.621
300.63
300.638
300.646
300.651
300.654
300.656
300.657
300.657
300.657
300.656
300.655
300.655
300.654
300.653
300.652
300.58
300.58
300.581
300.581
300.581
300.582
300.582
300.583
300.584
300.584
300.586
300.587
300.589
300.592
300.596
300.601
300.606
300.613
300.62
300.627
300.635
300.643
300.651
300.658
300.663
300.668
300.672
300.675
300.678
300.681
300.684
300.686
300.688
300.69
300.693
300.609
300.609
300.609
300.61
300.61
300.61
300.61
300.611
300.611
300.612
300.612
300.614
300.615
300.617
300.621
300.625
300.631
300.637
300.644
300.652
300.66
300.667
300.675
300.681
300.686
300.69
300.694
300.696
300.698
300.7
300.7
300.701
300.701
300.701
300.701
300.61
300.611
300.611
300.611
300.612
300.612
300.613
300.614
300.615
300.616
300.617
300.619
300.622
300.625
300.629
300.634
300.64
300.646
300.653
300.66
300.667
300.675
300.682
300.688
300.693
300.698
300.702
300.705
300.707
300.71
300.712
300.714
300.715
300.717
300.72
300.624
300.625
300.625
300.626
300.626
300.627
300.628
300.629
300.63
300.631
300.633
300.635
300.638
300.642
300.646
300.652
300.658
300.664
300.671
300.679
300.687
300.695
300.702
300.709
300.715
300.719
300.724
300.727
300.73
300.733
300.736
300.738
300.74
300.742
300.745
300.632
300.632
300.632
300.633
300.634
300.635
300.636
300.637
300.638
300.64
300.642
300.645
300.648
300.653
300.658
300.663
300.669
300.676
300.683
300.69
300.697
300.704
300.711
300.717
300.722
300.726
300.73
300.733
300.735
300.737
300.739
300.741
300.742
300.743
300.745
300.645
300.645
300.646
300.647
300.648
300.649
300.65
300.651
300.653
300.655
300.657
300.66
300.663
300.668
300.673
300.678
300.685
300.691
300.698
300.705
300.712
300.72
300.727
300.733
300.739
300.743
300.747
300.751
300.754
300.757
300.76
300.762
300.765
300.767
300.77
300.656
300.657
300.658
300.658
300.659
300.66
300.662
300.663
300.665
300.667
300.67
300.672
300.676
300.68
300.685
300.691
300.697
300.703
300.71
300.717
300.723
300.73
300.737
300.742
300.747
300.751
300.754
300.757
300.76
300.762
300.763
300.765
300.766
300.768
300.769
300.669
300.67
300.671
300.672
300.673
300.674
300.675
300.677
300.678
300.681
300.683
300.686
300.69
300.694
300.699
300.704
300.71
300.716
300.723
300.729
300.736
300.742
300.749
300.754
300.759
300.763
300.767
300.77
300.773
300.775
300.778
300.78
300.782
300.784
300.787
300.682
300.682
300.683
300.684
300.685
300.686
300.688
300.689
300.691
300.693
300.695
300.698
300.702
300.706
300.711
300.716
300.722
300.728
300.734
300.74
300.746
300.752
300.758
300.763
300.768
300.772
300.775
300.777
300.78
300.782
300.784
300.785
300.787
300.788
300.791
300.694
300.695
300.695
300.696
300.697
300.698
300.7
300.701
300.703
300.705
300.708
300.71
300.714
300.718
300.722
300.728
300.733
300.739
300.744
300.75
300.756
300.762
300.768
300.773
300.777
300.781
300.784
300.787
300.79
300.792
300.794
300.796
300.797
300.799
300.802
300.705
300.706
300.707
300.708
300.709
300.71
300.711
300.713
300.714
300.716
300.719
300.722
300.725
300.729
300.733
300.738
300.743
300.749
300.754
300.76
300.765
300.771
300.777
300.781
300.785
300.789
300.792
300.794
300.797
300.799
300.8
300.802
300.803
300.805
300.807
300.716
300.717
300.718
300.719
300.72
300.721
300.722
300.724
300.725
300.727
300.729
300.732
300.735
300.739
300.743
300.748
300.753
300.758
300.763
300.769
300.774
300.78
300.785
300.789
300.793
300.797
300.8
300.802
300.805
300.807
300.808
300.81
300.812
300.813
300.816
300.727
300.728
300.728
300.729
300.73
300.731
300.732
300.734
300.735
300.737
300.739
300.742
300.745
300.748
300.753
300.757
300.762
300.767
300.772
300.777
300.782
300.787
300.793
300.797
300.801
300.804
300.807
300.809
300.811
300.813
300.815
300.816
300.818
300.819
300.821
300.737
300.737
300.738
300.739
300.74
300.741
300.742
300.743
300.745
300.747
300.749
300.751
300.754
300.757
300.761
300.766
300.77
300.775
300.78
300.785
300.79
300.795
300.8
300.804
300.808
300.811
300.814
300.816
300.818
300.82
300.822
300.823
300.825
300.826
300.828
300.746
300.747
300.747
300.748
300.749
300.75
300.751
300.752
300.754
300.755
300.757
300.76
300.762
300.766
300.77
300.774
300.778
300.783
300.787
300.792
300.797
300.802
300.806
300.811
300.814
300.817
300.82
300.822
300.824
300.826
300.828
300.829
300.83
300.832
300.834
300.755
300.755
300.756
300.757
300.757
300.758
300.759
300.761
300.762
300.764
300.765
300.768
300.77
300.773
300.777
300.781
300.785
300.79
300.794
300.799
300.803
300.808
300.813
300.817
300.82
300.823
300.826
300.828
300.83
300.832
300.833
300.835
300.836
300.838
300.84
300.763
300.763
300.764
300.765
300.765
300.766
300.767
300.768
300.77
300.771
300.773
300.775
300.778
300.781
300.784
300.788
300.792
300.796
300.801
300.805
300.81
300.814
300.819
300.823
300.826
300.829
300.831
300.834
300.836
300.837
300.839
300.84
300.842
300.843
300.845
300.77
300.771
300.771
300.772
300.773
300.774
300.774
300.776
300.777
300.778
300.78
300.782
300.785
300.788
300.791
300.795
300.799
300.803
300.807
300.811
300.816
300.82
300.824
300.828
300.831
300.834
300.837
300.839
300.841
300.843
300.844
300.845
300.847
300.848
300.85
300.777
300.778
300.778
300.779
300.78
300.78
300.781
300.782
300.784
300.785
300.787
300.789
300.791
300.794
300.797
300.801
300.805
300.809
300.813
300.817
300.821
300.825
300.83
300.833
300.836
300.839
300.842
300.844
300.846
300.847
300.849
300.85
300.852
300.853
300.855
300.783
300.784
300.785
300.785
300.786
300.787
300.788
300.789
300.79
300.791
300.793
300.795
300.797
300.8
300.803
300.807
300.81
300.814
300.818
300.822
300.826
300.83
300.835
300.838
300.841
300.844
300.846
300.848
300.85
300.852
300.853
300.855
300.856
300.858
300.86
300.789
300.79
300.79
300.791
300.792
300.792
300.793
300.794
300.796
300.797
300.799
300.8
300.803
300.805
300.808
300.812
300.816
300.819
300.823
300.827
300.831
300.835
300.839
300.843
300.846
300.849
300.851
300.853
300.855
300.856
300.858
300.859
300.86
300.862
300.864
300.866
300.864
300.863
300.862
300.86
300.859
300.857
300.855
300.853
300.851
300.848
300.845
300.842
300.838
300.834
300.83
300.826
300.822
300.818
300.815
300.812
300.809
300.806
300.804
300.802
300.801
300.799
300.798
300.797
300.796
300.796
300.795
300.795
300.794
300.794
300.871
300.869
300.868
300.867
300.865
300.864
300.862
300.86
300.858
300.856
300.853
300.85
300.847
300.843
300.839
300.835
300.832
300.828
300.824
300.821
300.818
300.815
300.812
300.81
300.808
300.807
300.805
300.804
300.803
300.803
300.802
300.801
300.801
300.8
300.8
300.876
300.874
300.872
300.871
300.87
300.868
300.867
300.865
300.863
300.861
300.858
300.855
300.852
300.848
300.845
300.841
300.837
300.834
300.83
300.827
300.824
300.821
300.818
300.816
300.814
300.813
300.811
300.81
300.809
300.808
300.808
300.807
300.806
300.806
300.805
300.88
300.878
300.876
300.875
300.874
300.872
300.871
300.869
300.867
300.865
300.863
300.86
300.857
300.853