/*--------------------------------*- C++ -*----------------------------------*\
  =========                 |
  \\      /  F ield         | OpenFOAM: The Open Source CFD Toolbox
   \\    /   O peration     | Website:  https://openfoam.org
    \\  /    A nd           | Version:  8
     \\/     M anipulation  |
\*---------------------------------------------------------------------------*/
FoamFile
{
    version     2.0;
    format      ascii;
    class       surfaceScalarField;
    location    "100";
    object      phi;
}
// * * * * * * * * * * * * * * * * * * * * * * * * * * * * * * * * * * * * * //

dimensions      [0 3 -1 0 0 0 0];

internalField   nonuniform List<scalar> 
31053
(
1.74484e-06
1.16352e-05
1.36365e-06
1.57612e-05
9.63084e-07
1.06721e-05
1.26626e-06
1.77374e-05
1.52658e-06
1.51977e-05
5.92648e-07
1.00795e-05
1.2018e-06
2.03045e-05
1.50982e-06
1.77542e-05
1.2091e-06
1.45813e-05
4.30957e-07
9.64853e-06
1.1311e-06
2.33107e-05
1.45153e-06
2.03627e-05
1.33692e-06
1.76264e-05
9.70163e-07
1.40421e-05
3.06036e-07
9.34249e-06
1.05758e-06
2.67335e-05
1.39822e-06
2.3364e-05
1.32655e-06
2.03731e-05
1.18641e-06
1.74101e-05
7.46026e-07
1.36021e-05
2.13685e-07
9.12881e-06
9.8069e-07
3.06969e-05
1.34216e-06
2.67896e-05
1.29563e-06
2.33949e-05
1.22236e-06
2.03372e-05
1.00069e-06
1.71555e-05
5.66594e-07
1.32492e-05
1.51512e-07
8.9773e-06
9.00183e-07
3.52205e-05
1.28099e-06
3.07581e-05
1.25879e-06
2.68264e-05
1.2087e-06
2.34086e-05
1.07269e-06
2.02652e-05
8.25926e-07
1.68961e-05
4.28869e-07
1.29718e-05
1.08973e-07
8.86836e-06
8.16448e-07
4.04037e-05
1.21424e-06
3.52873e-05
1.21759e-06
3.07993e-05
1.18055e-06
2.68546e-05
1.07626e-06
2.3405e-05
9.19856e-07
2.01712e-05
6.73958e-07
1.6651e-05
3.21977e-07
1.27588e-05
7.8171e-08
8.79018e-06
7.30282e-07
4.63662e-05
1.1417e-06
4.04763e-05
1.1715e-06
3.53333e-05
1.14562e-06
3.08342e-05
1.0566e-06
2.68742e-05
9.35847e-07
2.33891e-05
7.8011e-07
2.00651e-05
5.42116e-07
1.64309e-05
2.38601e-07
1.25984e-05
5.1919e-08
8.73826e-06
6.42957e-07
5.32273e-05
1.06332e-06
4.64445e-05
1.11953e-06
4.05283e-05
1.10522e-06
3.53737e-05
1.02622e-06
3.08646e-05
9.2184e-07
2.68883e-05
8.03831e-07
2.33653e-05
6.51984e-07
1.99552e-05
4.25275e-07
1.62442e-05
1.69488e-07
1.24808e-05
2.75776e-08
8.71064e-06
5.5626e-07
6.10667e-05
9.79437e-07
5.33112e-05
1.06072e-06
4.65034e-05
1.05908e-06
4.05744e-05
9.88654e-07
3.54113e-05
8.9344e-07
3.0893e-05
7.923e-07
2.68998e-05
6.78359e-07
2.3339e-05
5.31262e-07
1.98492e-05
3.19324e-07
1.60944e-05
1.09064e-07
1.23993e-05
6.79674e-09
8.70395e-06
4.72122e-07
7.00661e-05
8.90778e-07
6.11554e-05
9.94385e-07
5.33776e-05
1.00639e-06
4.6556e-05
9.447e-07
4.06184e-05
8.55829e-07
3.54489e-05
7.62991e-07
3.09223e-05
6.65811e-07
2.69123e-05
5.55846e-07
2.33144e-05
4.1497e-07
1.97536e-05
2.22298e-07
1.59812e-05
5.53726e-08
1.23508e-05
-1.08694e-08
8.7148e-06
3.92581e-07
8.04115e-05
7.98379e-07
7.01585e-05
9.20317e-07
6.12294e-05
9.46195e-07
5.34378e-05
8.94091e-07
4.66067e-05
8.10673e-07
4.06635e-05
7.22218e-07
3.54897e-05
6.32624e-07
3.09555e-05
5.38839e-07
2.69293e-05
4.33748e-07
2.32956e-05
3.01662e-07
1.96742e-05
1.32726e-07
1.59039e-05
6.1661e-09
1.23337e-05
-2.78502e-08
8.74276e-06
3.31206e-07
7.62514e-05
7.03324e-07
8.05066e-05
8.38977e-07
7.02399e-05
8.77671e-07
6.1298e-05
8.36122e-07
5.34957e-05
7.58152e-07
4.66592e-05
6.72276e-07
4.07135e-05
5.85706e-07
3.55366e-05
4.98798e-07
3.09955e-05
4.08979e-07
2.69541e-05
3.10622e-07
2.32867e-05
1.90624e-07
1.96164e-05
4.8197e-08
1.58618e-05
-4.01171e-08
1.23461e-05
-4.57766e-08
8.78854e-06
2.80621e-07
7.62406e-05
6.22465e-07
7.63322e-05
7.5141e-07
8.05942e-05
8.00383e-07
7.03172e-05
7.69971e-07
6.13641e-05
6.97819e-07
5.35561e-05
6.13737e-07
4.67177e-05
5.27712e-07
4.07715e-05
4.4279e-07
3.55926e-05
3.59065e-07
3.10454e-05
2.74822e-07
2.69899e-05
1.85931e-07
2.32914e-05
8.06035e-08
1.9584e-05
-3.24668e-08
1.58542e-05
-8.55581e-08
1.23859e-05
-6.41256e-08
8.8527e-06
2.38632e-07
7.6232e-05
5.49979e-07
7.63131e-05
6.74131e-07
7.64095e-05
7.14722e-07
8.06798e-05
6.94942e-07
7.03922e-05
6.28992e-07
6.14329e-05
5.464e-07
5.36234e-05
4.59484e-07
4.67859e-05
3.73638e-07
4.08406e-05
2.91011e-07
3.56607e-05
2.11925e-07
3.11084e-05
1.35964e-07
2.70399e-05
5.85853e-08
2.33134e-05
-2.84944e-08
1.958e-05
-1.11145e-07
1.58798e-05
-1.30121e-07
1.24519e-05
-8.25495e-08
8.93527e-06
2.03554e-07
7.62271e-05
4.85071e-07
7.62969e-05
6.02552e-07
7.63847e-05
6.37777e-07
7.64865e-05
6.10866e-07
8.07639e-05
5.51011e-07
7.04702e-05
4.6977e-07
6.15096e-05
3.81007e-07
5.37019e-05
2.92256e-07
4.68673e-05
2.0755e-07
4.09241e-05
1.28709e-07
3.57439e-05
5.69672e-08
3.11874e-05
-8.58562e-09
2.71071e-05
-7.12789e-08
2.33562e-05
-1.3755e-07
1.96064e-05
-1.87792e-07
1.59375e-05
-1.73792e-07
1.25432e-05
-1.00701e-07
9.036e-06
1.74068e-07
7.62195e-05
4.26967e-07
7.62852e-05
5.36533e-07
7.63629e-05
5.65502e-07
7.6457e-05
5.34266e-07
7.65631e-05
4.63621e-07
8.08513e-05
3.83319e-07
7.05567e-05
2.91974e-07
6.15986e-05
1.98745e-07
5.37954e-05
1.09554e-07
4.69653e-05
2.76447e-08
4.10252e-05
-4.46562e-08
3.58455e-05
-1.06677e-07
3.12855e-05
-1.58562e-07
2.71944e-05
-2.03995e-07
2.34227e-05
-2.45794e-07
1.96644e-05
-2.62445e-07
1.60262e-05
-2.1635e-07
1.26588e-05
-1.18469e-07
9.15443e-06
1.49141e-07
7.62149e-05
3.74975e-07
7.62715e-05
4.75842e-07
7.63459e-05
4.9812e-07
7.64303e-05
4.61581e-07
7.65296e-05
3.83893e-07
7.66428e-05
2.8691e-07
8.09477e-05
1.9205e-07
7.06566e-05
9.29219e-08
6.17044e-05
-2.88904e-09
5.39079e-05
-9.05782e-08
4.70835e-05
-1.66776e-07
4.11473e-05
-2.29821e-07
3.59687e-05
-2.78579e-07
3.14055e-05
-3.14002e-07
2.73044e-05
-3.38372e-07
2.35153e-05
-3.5258e-07
1.97546e-05
-3.34938e-07
1.61448e-05
-2.57684e-07
1.2798e-05
-1.35357e-07
9.28986e-06
1.27962e-07
7.62112e-05
3.28468e-07
7.62614e-05
4.20237e-07
7.63271e-05
4.35685e-07
7.64083e-05
3.93384e-07
7.64985e-05
3.08191e-07
7.66053e-05
1.99377e-07
7.67304e-05
8.13384e-08
8.10584e-05
-2.53436e-08
7.07749e-05
-1.29883e-07
6.18314e-05
-2.25984e-07
5.40433e-05
-3.08983e-07
4.72257e-05
-3.76335e-07
4.12938e-05
-4.26202e-07
3.61163e-05
-4.58417e-07
3.15499e-05
-4.73328e-07
2.74393e-05
-4.73116e-07
2.36358e-05
-4.57126e-07
1.98768e-05
-4.04979e-07
1.62921e-05
-2.96942e-07
1.29596e-05
-1.51292e-07
9.44114e-06
1.11328e-07
6.95986e-05
2.86903e-07
7.62528e-05
3.69482e-07
7.63122e-05
3.78163e-07
7.63846e-05
3.30011e-07
7.64717e-05
2.37274e-07
7.65694e-05
1.16663e-07
7.66881e-05
-1.85286e-08
7.68302e-05
-1.55635e-07
8.11887e-05
-2.7138e-07
7.09164e-05
-3.78664e-07
6.19841e-05
-4.71518e-07
5.42058e-05
-5.46206e-07
4.73956e-05
-6.00309e-07
4.14679e-05
-6.33139e-07
3.6291e-05
-6.44338e-07
3.17209e-05
-6.34747e-07
2.7601e-05
-6.06711e-07
2.37854e-05
-5.58525e-07
2.00303e-05
-4.71554e-07
1.64667e-05
-3.34061e-07
1.31424e-05
-1.65915e-07
9.60711e-06
9.82292e-08
6.25571e-05
2.52926e-07
6.96326e-05
3.23325e-07
7.62989e-05
3.25471e-07
7.63649e-05
2.7166e-07
7.6443e-05
1.71671e-07
7.65373e-05
3.96656e-08
7.66464e-05
-1.12271e-07
7.67818e-05
-2.72428e-07
7.6947e-05
-4.26613e-07
8.1344e-05
-5.48441e-07
7.10861e-05
-6.54529e-07
6.21671e-05
-7.39973e-07
5.43996e-05
-8.01358e-07
4.75967e-05
-8.37702e-07
4.16725e-05
-8.48471e-07
3.64952e-05
-8.34055e-07
3.19203e-05
-7.96222e-07
2.77905e-05
-7.3753e-07
2.39644e-05
-6.5534e-07
2.02142e-05
-5.34172e-07
1.66668e-05
-3.68157e-07
1.33447e-05
-1.79132e-07
9.78624e-06
8.77431e-08
5.62285e-05
2.25375e-07
6.25847e-05
2.84902e-07
6.96711e-05
2.775e-07
7.63469e-05
2.18425e-07
7.64181e-05
1.11746e-07
7.65029e-05
-3.09215e-08
7.66079e-05
-1.98844e-07
7.6733e-05
-3.81348e-07
7.68907e-05
-5.6509e-07
7.70855e-05
-7.3418e-07
8.15297e-05
-8.57754e-07
7.12894e-05
-9.57915e-07
6.23851e-05
-1.03028e-06
5.46285e-05
-1.07314e-06
4.78321e-05
-1.08604e-06
4.19101e-05
-1.06945e-06
3.67306e-05
-1.02506e-06
3.21491e-05
-9.55527e-07
2.80085e-05
-8.63481e-07
2.41726e-05
-7.46551e-07
2.04265e-05
-5.91759e-07
1.68905e-05
-3.98965e-07
1.35645e-05
-1.90674e-07
9.97695e-06
7.92281e-08
5.05405e-05
2.02842e-07
5.6251e-05
2.53243e-07
6.26163e-05
2.37706e-07
6.97109e-05
1.70344e-07
7.6395e-05
5.77279e-08
7.64722e-05
-9.45773e-08
7.65666e-05
-2.77385e-07
7.66864e-05
-4.81171e-07
7.68329e-05
-6.93552e-07
7.70192e-05
-8.9932e-07
7.72507e-05
-1.07969e-06
8.17517e-05
-1.19974e-06
7.15312e-05
-1.28758e-06
6.26424e-05
-1.34085e-06
5.48962e-05
-1.35873e-06
4.81048e-05
-1.34208e-06
4.21827e-05
-1.29305e-06
3.69986e-05
-1.21451e-06
3.24081e-05
-1.11e-06
2.8255e-05
-9.8295e-07
2.4409e-05
-8.30653e-07
2.06655e-05
-6.43945e-07
1.71354e-05
-4.26021e-07
1.37999e-05
-2.00516e-07
1.01775e-05
7.22333e-08
4.5427e-05
1.84263e-07
5.05591e-05
2.27016e-07
5.62773e-05
2.05113e-07
6.26489e-05
1.30934e-07
6.97503e-05
9.76249e-09
7.6443e-05
-1.50946e-07
7.65285e-05
-3.47203e-07
7.66364e-05
-5.70844e-07
7.67761e-05
-8.10556e-07
7.69499e-05
-1.05195e-06
7.71718e-05
-1.27662e-06
7.74476e-05
-1.46361e-06
8.20155e-05
-1.57299e-06
7.18166e-05
-1.64163e-06
6.29432e-05
-1.66849e-06
5.5206e-05
-1.65437e-06
4.84171e-05
-1.60229e-06
4.2492e-05
-1.51582e-06
3.72999e-05
-1.39925e-06
3.26974e-05
-1.25738e-06
2.85295e-05
-1.09398e-06
2.46723e-05
-9.06955e-07
2.09285e-05
-6.89906e-07
1.73993e-05
-4.49118e-07
1.40485e-05
-2.08493e-07
1.0386e-05
6.64258e-08
4.08318e-05
1.68829e-07
4.54424e-05
2.05165e-07
5.0581e-05
1.78315e-07
5.63041e-05
9.91476e-08
6.26807e-05
-2.86936e-08
6.97887e-05
-1.99774e-07
7.64918e-05
-4.07794e-07
7.65891e-05
-6.49481e-07
7.6715e-05
-9.14817e-07
7.68804e-05
-1.19036e-06
7.70883e-05
-1.45822e-06
7.73534e-05
-1.69754e-06
7.76815e-05
-1.88437e-06
8.23269e-05
-1.97533e-06
7.21503e-05
-2.01651e-06
6.32912e-05
-2.00889e-06
5.55605e-05
-1.95596e-06
4.87708e-05
-1.86252e-06
4.28387e-05
-1.73403e-06
3.76347e-05
-1.57632e-06
3.30163e-05
-1.39528e-06
2.88308e-05
-1.19511e-06
2.49605e-05
-9.74344e-07
2.12129e-05
-7.29146e-07
1.76794e-05
-4.67981e-07
1.4308e-05
-2.14628e-07
1.06006e-05
6.15632e-08
3.67009e-05
1.55916e-07
4.08447e-05
1.86868e-07
4.54607e-05
1.56193e-07
5.06031e-05
7.34818e-08
5.63297e-05
-5.8876e-08
6.27109e-05
-2.37634e-07
6.98266e-05
-4.58777e-07
7.65428e-05
-7.16405e-07
7.66561e-05
-1.00523e-06
7.68055e-05
-1.31298e-06
7.7003e-05
-1.62246e-06
7.72525e-05
-1.91305e-06
7.7569e-05
-2.1604e-06
7.79576e-05
-2.33961e-06
8.26912e-05
-2.40287e-06
7.25367e-05
-2.40734e-06
6.36896e-05
-2.35737e-06
5.59619e-05
-2.25863e-06
4.91669e-05
-2.1184e-06
4.32231e-05
-1.94402e-06
3.80024e-05
-1.7429e-06
3.33639e-05
-1.52169e-06
2.91574e-05
-1.28503e-06
2.52712e-05
-1.03235e-06
2.15161e-05
-7.61535e-07
1.7973e-05
-4.82823e-07
1.45762e-05
-2.18984e-07
1.08196e-05
5.74575e-08
3.29901e-05
1.45043e-07
3.67117e-05
1.71463e-07
4.08601e-05
1.37861e-07
4.54791e-05
5.27333e-08
5.06238e-05
-8.24551e-08
5.63533e-05
-2.66096e-07
6.27394e-05
-4.96698e-07
6.98645e-05
-7.71075e-07
7.65975e-05
-1.08089e-06
7.67317e-05
-1.41845e-06
7.69109e-05
-1.76746e-06
7.7148e-05
-2.10773e-06
7.74472e-05
-2.41472e-06
7.78233e-05
-2.6628e-06
7.82808e-05
-2.82509e-06
8.31134e-05
-2.85008e-06
7.29794e-05
-2.80872e-06
6.4141e-05
-2.7082e-06
5.64115e-05
-2.55727e-06
4.96058e-05
-2.36554e-06
4.36446e-05
-2.14247e-06
3.8402e-05
-1.89642e-06
3.37387e-05
-1.63486e-06
2.95072e-05
-1.36306e-06
2.56019e-05
-1.08067e-06
2.18353e-05
-7.87279e-07
1.82774e-05
-4.93653e-07
1.48509e-05
-2.21769e-07
1.10414e-05
5.39694e-08
2.96515e-05
1.35832e-07
3.29993e-05
1.58436e-07
3.67248e-05
1.22614e-07
4.08754e-05
3.59451e-08
4.54959e-05
-1.00769e-07
5.06422e-05
-2.87128e-07
5.63744e-05
-5.23594e-07
6.27663e-05
-8.09942e-07
6.99034e-05
-1.1411e-06
7.66577e-05
-1.50563e-06
7.68189e-05
-1.89153e-06
7.7035e-05
-2.27933e-06
7.73196e-05
-2.64449e-06
7.7677e-05
-2.96088e-06
7.81214e-05
-3.20021e-06
7.86559e-05
-3.33458e-06
8.35979e-05
-3.31083e-06
7.34816e-05
-3.21414e-06
6.4647e-05
-3.05557e-06
5.69098e-05
-2.84674e-06
5.0087e-05
-2.60006e-06
4.41022e-05
-2.32617e-06
3.88317e-05
-2.03466e-06
3.41385e-05
-1.73367e-06
2.98778e-05
-1.42858e-06
2.59498e-05
-1.11924e-06
2.21673e-05
-8.06339e-07
1.85901e-05
-5.00793e-07
1.51299e-05
-2.22819e-07
1.12642e-05
5.09864e-08
2.6651e-05
1.27986e-07
2.96593e-05
1.47367e-07
3.30104e-05
1.09892e-07
3.67375e-05
2.2354e-08
4.0889e-05
-1.14889e-07
4.551e-05
-3.02313e-07
5.06573e-05
-5.41869e-07
5.63926e-05
-8.35644e-07
6.2792e-05
-1.1821e-06
6.99444e-05
-1.57358e-06
7.67256e-05
-1.99326e-06
7.69207e-05
-2.42582e-06
7.71815e-05
-2.84706e-06
7.75222e-05
-3.23049e-06
7.79466e-05
-3.54673e-06
7.84679e-05
-3.76585e-06
7.90872e-05
-3.86135e-06
8.41485e-05
-3.77786e-06
7.40453e-05
-3.61702e-06
6.52084e-05
-3.39346e-06
5.74566e-05
-3.12243e-06
5.06094e-05
-2.81801e-06
4.4594e-05
-2.49239e-06
3.92895e-05
-2.156e-06
3.45608e-05
-1.81715e-06
3.02664e-05
-1.48124e-06
2.63118e-05
-1.14828e-06
2.25092e-05
-8.19195e-07
1.89085e-05
-5.04162e-07
1.54113e-05
-2.75127e-07
1.15394e-05
4.84227e-08
2.39566e-05
1.2127e-07
2.66577e-05
1.37928e-07
2.96688e-05
9.92415e-08
3.3021e-05
1.13504e-08
3.67485e-05
-1.25673e-07
4.08998e-05
-3.12928e-07
4.55206e-05
-5.5347e-07
5.06689e-05
-8.51171e-07
5.64082e-05
-1.20727e-06
6.28172e-05
-1.61824e-06
6.99891e-05
-2.0715e-06
7.68039e-05
-2.54547e-06
7.70403e-05
-3.01998e-06
7.73544e-05
-3.46851e-06
7.77602e-05
-3.86081e-06
7.82607e-05
-4.16519e-06
7.88672e-05
-4.35262e-06
7.95785e-05
-4.39736e-06
8.4768e-05
-4.24374e-06
7.4672e-05
-4.0103e-06
6.58253e-05
-3.71641e-06
5.80506e-05
-3.37962e-06
5.1171e-05
-3.01608e-06
4.51177e-05
-2.639e-06
3.97725e-05
-2.25909e-06
3.50028e-05
-1.88478e-06
3.067e-05
-1.5213e-06
2.66849e-05
-1.16819e-06
2.28582e-05
-8.2584e-07
1.92302e-05
-6.23358e-07
1.57595e-05
-2.71363e-07
1.18107e-05
4.62082e-08
2.15342e-05
1.15494e-07
2.39623e-05
1.29846e-07
2.66658e-05
9.0301e-08
2.96777e-05
2.44186e-09
3.303e-05
-1.33814e-07
3.67566e-05
-3.19995e-07
4.09068e-05
-5.59971e-07
4.55271e-05
-8.58947e-07
5.06767e-05
-1.22033e-06
5.64212e-05
-1.64388e-06
6.28428e-05
-2.12168e-06
7.00392e-05
-2.63685e-06
7.68953e-05
-3.16114e-06
7.71815e-05
-3.67203e-06
7.7558e-05
-4.13879e-06
7.80382e-05
-4.52818e-06
7.86237e-05
-4.80881e-06
7.93234e-05
-4.95179e-06
8.01329e-05
-4.93425e-06
8.54585e-05
-4.70027e-06
7.5362e-05
-4.38759e-06
6.64964e-05
-4.01884e-06
5.86898e-05
-3.61432e-06
5.17692e-05
-3.19159e-06
4.56703e-05
-2.76426e-06
4.02777e-05
-2.34323e-06
3.54612e-05
-1.93668e-06
3.10853e-05
-1.54918e-06
2.70658e-05
-1.17924e-06
2.32116e-05
-1.02241e-06
1.96293e-05
-6.15429e-07
1.61036e-05
-2.64862e-07
1.20756e-05
4.42882e-08
1.93539e-05
1.10506e-07
2.15392e-05
1.22902e-07
2.39693e-05
8.27715e-08
2.66733e-05
-4.77155e-09
2.96849e-05
-1.39872e-07
3.3036e-05
-3.24347e-07
3.6761e-05
-5.62639e-07
4.09095e-05
-8.60947e-07
4.55291e-05
-1.22432e-06
5.06807e-05
-1.65508e-06
5.64324e-05
-2.14907e-06
6.28702e-05
-2.6947e-06
7.00971e-05
-3.26881e-06
7.70029e-05
-3.83854e-06
7.7348e-05
-4.37726e-06
7.77964e-05
-4.85059e-06
7.83606e-05
-5.22495e-06
7.90399e-05
-5.46838e-06
7.984e-05
-5.55424e-06
8.07529e-05
-5.46264e-06
8.62209e-05
-5.14004e-06
7.61145e-05
-4.74235e-06
6.722e-05
-4.296e-06
5.93715e-05
-3.82327e-06
5.24009e-05
-3.34238e-06
4.62484e-05
-2.86722e-06
4.08016e-05
-2.40831e-06
3.59329e-05
-1.97317e-06
3.15093e-05
-1.56525e-06
2.74519e-05
-1.46164e-06
2.36508e-05
-1.01067e-06
2.00245e-05
-6.01827e-07
1.64405e-05
-2.5642e-07
1.2332e-05
1.73977e-05
4.2618e-08
1.06182e-07
1.93582e-05
1.16913e-07
2.15452e-05
7.64077e-08
2.39757e-05
-1.0618e-08
2.66792e-05
-1.44307e-07
2.96894e-05
-3.26652e-07
3.30383e-05
-5.62498e-07
3.67609e-05
-8.58746e-07
4.09073e-05
-1.22169e-06
4.55265e-05
-1.6556e-06
5.06812e-05
-2.15926e-06
5.64426e-05
-2.72539e-06
6.29009e-05
-3.33676e-06
7.0165e-05
-3.96594e-06
7.71303e-05
-4.5732e-06
7.75439e-05
-5.12842e-06
7.80743e-05
-5.59618e-06
7.87319e-05
-5.94153e-06
7.9513e-05
-6.13411e-06
8.04199e-05
-6.14963e-06
8.14399e-05
-5.97408e-06
8.70549e-05
-5.55544e-06
7.69276e-05
-5.06893e-06
6.79929e-05
-4.54395e-06
6.00922e-05
-4.0038e-06
5.30624e-05
-3.46715e-06
4.68484e-05
-2.94753e-06
4.13409e-05
-2.45457e-06
3.64143e-05
-1.99462e-06
3.19387e-05
-1.94152e-06
2.79317e-05
-1.44595e-06
2.40861e-05
-9.89816e-07
2.04125e-05
-5.83832e-07
1.67679e-05
-2.46523e-07
1.25785e-05
1.74014e-05
1.02416e-07
2.78128e-05
3.97748e-08
1.11731e-07
1.93634e-05
7.10069e-08
2.15506e-05
-1.53688e-08
2.39804e-05
-1.47489e-07
2.66824e-05
-3.27453e-07
2.96902e-05
-5.60359e-07
3.30362e-05
-8.53603e-07
3.67557e-05
-1.21437e-06
4.09e-05
-1.64841e-06
4.55193e-05
-2.1568e-06
5.06788e-05
-2.73564e-06
5.64529e-05
-3.37255e-06
6.29367e-05
-4.04673e-06
7.02458e-05
-4.72409e-06
7.72812e-05
-5.35809e-06
7.77736e-05
-5.91784e-06
7.8396e-05
-6.36571e-06
7.91561e-05
-6.66763e-06
8.00466e-05
-6.79487e-06
8.10652e-05
-6.72863e-06
8.21945e-05
-6.45976e-06
8.79592e-05
-5.93983e-06
7.77985e-05
-5.36266e-06
6.88116e-05
-4.75944e-06
6.08478e-05
-4.1542e-06
5.37494e-05
-3.56532e-06
4.74662e-05
-3.00522e-06
4.18915e-05
-2.48241e-06
3.69021e-05
-2.47557e-06
3.24728e-05
-1.92172e-06
2.84075e-05
-1.41719e-06
2.45135e-05
-9.61639e-07
2.07903e-05
-5.62404e-07
1.70838e-05
-2.35459e-07
1.2814e-05
1.74059e-05
1.07231e-07
2.78192e-05
9.60192e-08
2.85528e-05
3.70263e-08
6.64029e-08
1.9368e-05
-1.92438e-08
2.15545e-05
-1.49722e-07
2.39826e-05
-3.27175e-07
2.66821e-05
-5.56864e-07
2.96867e-05
-8.46489e-07
3.30291e-05
-1.20388e-06
3.67452e-05
-1.63587e-06
4.08875e-05
-2.14528e-06
4.55078e-05
-2.73085e-06
5.0674e-05
-3.38409e-06
5.64644e-05
-4.08969e-06
6.29796e-05
-4.82079e-06
7.03426e-05
-5.53653e-06
7.74597e-05
-6.18573e-06
7.80415e-05
-6.73558e-06
7.87658e-05
-7.14862e-06
7.96371e-05
-7.39153e-06
8.06432e-05
-7.44056e-06
8.17771e-05
-7.28136e-06
8.30161e-05
-6.91191e-06
8.89313e-05
-6.28762e-06
7.87234e-05
-5.61957e-06
6.96718e-05
-4.94027e-06
6.16339e-05
-4.27361e-06
5.44577e-05
-3.63668e-06
4.80977e-05
-3.04074e-06
4.24499e-05
-3.08267e-06
3.75092e-05
-2.452e-06
3.30031e-05
-1.88451e-06
2.88748e-05
-1.37775e-06
2.49296e-05
-9.2758e-07
2.11555e-05
-5.38292e-07
1.73867e-05
-2.23571e-07
1.30376e-05
1.74099e-05
6.24561e-08
2.78263e-05
1.00183e-07
2.8559e-05
8.97938e-08
2.93127e-05
3.43754e-08
-2.24233e-08
1.93712e-05
-1.51245e-07
2.1556e-05
-3.26158e-07
2.39816e-05
-5.525e-07
2.66777e-05
-8.38156e-07
2.96784e-05
-1.19138e-06
3.30166e-05
-1.6198e-06
3.67292e-05
-2.12752e-06
4.08697e-05
-2.71531e-06
4.54923e-05
-3.37775e-06
5.06677e-05
-4.10399e-06
5.64787e-05
-4.87327e-06
6.30321e-05
-5.65255e-06
7.04586e-05
-6.39609e-06
7.76701e-05
-7.04623e-06
7.83522e-05
-7.57099e-06
7.91882e-05
-7.93272e-06
8.01782e-05
-8.10244e-06
8.13051e-05
-8.06031e-06
8.2556e-05
-7.79905e-06
8.39032e-05
-7.32392e-06
8.99676e-05
-6.59404e-06
7.96979e-05
-5.83689e-06
7.05684e-05
-5.08526e-06
6.24456e-05
-4.36159e-06
5.51826e-05
-3.6817e-06
4.87386e-05
-3.77818e-06
4.31454e-05
-3.05544e-06
3.81126e-05
-2.40633e-06
3.35249e-05
-1.83311e-06
2.93302e-05
-1.32985e-06
2.53319e-05
-8.89056e-07
2.15063e-05
-5.12351e-07
1.76754e-05
-2.11305e-07
1.32489e-05
1.74125e-05
-2.50514e-08
2.78314e-05
5.73149e-08
2.85658e-05
9.33764e-08
2.93187e-05
8.37476e-08
3.00906e-05
3.18234e-08
-1.52246e-07
1.93722e-05
-3.24653e-07
2.15545e-05
-5.47638e-07
2.39768e-05
-8.29155e-07
2.66687e-05
-1.17774e-06
2.96647e-05
-1.60154e-06
3.29983e-05
-2.10563e-06
3.67073e-05
-2.69231e-06
4.08467e-05
-3.35853e-06
4.5473e-05
-4.09702e-06
5.06607e-05
-4.89203e-06
5.64975e-05
-5.71723e-06
6.30968e-05
-6.53518e-06
7.05977e-05
-7.29314e-06
7.7917e-05
-7.92903e-06
7.87102e-05
-8.41159e-06
7.96671e-05
-8.70672e-06
8.07825e-05
-8.78868e-06
8.20335e-05
-8.64442e-06
8.34014e-05
-8.27405e-06
8.48534e-05
-7.69e-06
9.10636e-05
-6.85562e-06
8.07166e-05
-6.01306e-06
7.14962e-05
-5.19372e-06
6.32777e-05
-4.41854e-06
5.59195e-05
-4.57759e-06
4.9538e-05
-3.74755e-06
4.38375e-05
-3.00086e-06
3.87071e-05
-2.34244e-06
3.40342e-05
-1.77042e-06
2.97708e-05
-1.27549e-06
2.57183e-05
-8.47368e-07
2.18413e-05
-4.85329e-07
1.79495e-05
-1.98881e-07
1.34478e-05
1.74131e-05
-1.52869e-07
2.78328e-05
-2.6393e-08
2.85707e-05
5.24413e-08
2.93253e-05
8.68054e-08
3.00964e-05
7.78808e-08
3.08905e-05
2.93708e-08
-3.22855e-07
1.93704e-05
-5.42542e-07
2.15494e-05
-8.19892e-07
2.39675e-05
-1.16358e-06
2.66546e-05
-1.5821e-06
2.96453e-05
-2.08122e-06
3.29739e-05
-2.66435e-06
3.66793e-05
-3.33031e-06
4.08185e-05
-4.07461e-06
4.54506e-05
-4.88559e-06
5.06543e-05
-5.74251e-06
5.65228e-05
-6.61516e-06
6.31768e-05
-7.45944e-06
7.0764e-05
-8.21734e-06
7.82053e-05
-8.82155e-06
7.91202e-05
-9.24577e-06
8.02062e-05
-9.45827e-06
8.14521e-05
-9.43966e-06
8.28287e-05
-9.18425e-06
8.43116e-05
-8.69958e-06
8.58629e-05
-8.00574e-06
9.22137e-05
-7.07024e-06
8.17738e-05
-6.14707e-06
7.24495e-05
-5.26589e-06
6.41251e-05
-5.4981e-06
5.684e-05
-4.54417e-06
5.03347e-05
-3.6836e-06
4.45203e-05
-2.92353e-06
3.92883e-05
-2.26395e-06
3.45277e-05
-1.69906e-06
3.01944e-05
-1.21654e-06
2.60875e-05
-8.03871e-07
2.21598e-05
-4.57948e-07
1.82085e-05
-1.86582e-07
1.36344e-05
1.74112e-05
-3.20898e-07
2.78285e-05
-1.48602e-07
2.85717e-05
-2.73958e-08
2.93299e-05
4.78545e-08
3.01027e-05
8.04842e-08
3.08961e-05
7.22014e-08
3.17104e-05
2.70154e-08
-5.37406e-07
1.93653e-05
-8.10651e-07
2.15402e-05
-1.14936e-06
2.39533e-05
-1.56222e-06
2.66347e-05
-2.05546e-06
2.96195e-05
-2.63333e-06
3.29429e-05
-3.29605e-06
3.66451e-05
-4.04128e-06
4.07852e-05
-4.86066e-06
4.54257e-05
-5.73805e-06
5.06498e-05
-6.64939e-06
5.6557e-05
-7.55824e-06
6.32756e-05
-8.41532e-06
7.0962e-05
-9.1562e-06
7.85399e-05
-9.71207e-06
7.95865e-05
-1.00607e-05
8.08086e-05
-1.0176e-05
8.21885e-05
-1.00459e-05
8.36904e-05
-9.67206e-06
8.52841e-05
-9.07035e-06
8.69276e-05
-8.26837e-06
9.34119e-05
-7.23641e-06
8.28632e-05
-6.23886e-06
7.34225e-05
-6.55888e-06
6.51858e-05
-5.46313e-06
5.77589e-05
-4.47059e-06
5.11216e-05
-3.59171e-06
4.51884e-05
-2.8278e-06
3.98521e-05
-2.17421e-06
3.50029e-05
-1.62152e-06
3.05994e-05
-1.15491e-06
2.64385e-05
-7.59736e-07
2.24616e-05
-4.30879e-07
1.84529e-05
-1.7471e-07
1.38091e-05
1.74061e-05
-5.32359e-07
2.78168e-05
-3.09213e-07
2.8567e-05
-1.43919e-07
2.93305e-05
-2.80602e-08
3.01071e-05
4.35547e-08
3.09022e-05
7.44108e-08
3.17158e-05
6.6715e-08
3.25543e-05
2.47621e-08
-8.01633e-07
1.93563e-05
-1.13539e-06
2.15262e-05
-1.54242e-06
2.39335e-05
-2.02924e-06
2.66085e-05
-2.60068e-06
2.95869e-05
-3.258e-06
3.29049e-05
-4.00055e-06
3.66043e-05
-4.82254e-06
4.0747e-05
-5.7116e-06
4.53993e-05
-6.64881e-06
5.06492e-05
-7.60434e-06
5.66032e-05
-8.53689e-06
6.33972e-05
-9.39062e-06
7.11964e-05
-1.00981e-05
7.89259e-05
-1.05873e-05
8.01132e-05
-1.08444e-05
8.14769e-05
-1.08497e-05
8.29924e-05
-1.05986e-05
8.4617e-05
-1.01017e-05
8.63154e-05
-9.38292e-06
8.80421e-05
-8.47577e-06
9.46512e-05
-7.3537e-06
8.3978e-05
-7.77987e-06
7.46435e-05
-6.52443e-06
6.62471e-05
-5.37999e-06
5.86684e-05
-4.36303e-06
5.1893e-05
-3.47701e-06
4.58377e-05
-2.7178e-06
4.03957e-05
-2.07642e-06
3.54578e-05
-1.54024e-06
3.09847e-05
-1.0922e-06
2.6771e-05
-7.1586e-07
2.27466e-05
-4.04563e-07
1.86827e-05
-1.6336e-07
1.39725e-05
1.73975e-05
-7.92967e-07
2.77958e-05
-5.11281e-07
2.85548e-05
-2.96974e-07
2.93254e-05
-1.38777e-07
3.01074e-05
-2.83637e-08
3.09062e-05
3.95436e-08
3.17217e-05
6.85879e-08
3.25596e-05
6.1413e-08
3.34202e-05
2.26051e-08
-1.12191e-06
1.93428e-05
-1.52308e-06
2.15069e-05
-2.0032e-06
2.39074e-05
-2.56747e-06
2.65753e-05
-3.21791e-06
2.95468e-05
-3.95513e-06
3.28594e-05
-4.7754e-06
3.65572e-05
-5.66934e-06
4.07048e-05
-6.62226e-06
4.53727e-05
-7.61001e-06
5.06549e-05
-8.59827e-06
5.66645e-05
-9.53928e-06
6.35458e-05
-1.03739e-05
7.14722e-05
-1.10295e-05
7.93681e-05
-1.1435e-05
8.07038e-05
-1.15857e-05
8.22129e-05
-1.14696e-05
8.38633e-05
-1.10907e-05
8.5606e-05
-1.04687e-05
8.74013e-05
-9.63449e-06
8.92008e-05
-8.62707e-06
9.59246e-05
-9.18341e-06
8.53816e-05
-7.7492e-06
7.58683e-05
-6.4323e-06
6.72994e-05
-5.2557e-06
5.9561e-05
-4.22745e-06
5.26434e-05
-3.34449e-06
4.64644e-05
-2.59748e-06
4.09168e-05
-1.97358e-06
3.58911e-05
-1.45732e-06
3.13498e-05
-1.0297e-06
2.70848e-05
-6.73121e-07
2.30152e-05
-3.79352e-07
1.88987e-05
-1.52706e-07
1.41252e-05
1.73846e-05
-1.10905e-06
2.77629e-05
-7.60124e-07
2.8533e-05
-4.89508e-07
2.93126e-05
-2.84214e-07
3.01018e-05
-1.33227e-07
3.09062e-05
-2.83203e-08
3.17254e-05
3.58222e-08
3.25651e-05
6.30135e-08
3.34253e-05
5.63054e-08
3.43061e-05
2.05438e-08
-1.50449e-06
1.93242e-05
-1.97782e-06
2.14815e-05
-2.53449e-06
2.38745e-05
-3.17708e-06
2.65344e-05
-3.90714e-06
2.94988e-05
-4.72248e-06
3.28065e-05
-5.61615e-06
3.6504e-05
-6.57689e-06
4.06594e-05
-7.58528e-06
4.5348e-05
-8.61309e-06
5.06697e-05
-9.61983e-06
5.67451e-05
-1.05543e-05
6.37263e-05
-1.13517e-05
7.17944e-05
-1.19379e-05
7.9871e-05
-1.22433e-05
8.13614e-05
-1.22742e-05
8.30175e-05
-1.20275e-05
8.48001e-05
-1.15169e-05
8.66542e-05
-1.07697e-05
8.85365e-05
-9.82357e-06
9.03973e-05
-1.07939e-05
9.75351e-05
-9.16218e-06
8.67945e-05
-7.64976e-06
7.70858e-05
-6.29051e-06
6.83343e-05
-5.09717e-06
6.04308e-05
-4.0698e-06
5.33687e-05
-3.19892e-06
4.70658e-05
-2.47055e-06
4.14137e-05
-1.86838e-06
3.63022e-05
-1.37453e-06
3.16947e-05
-9.68661e-07
2.73804e-05
-6.32129e-07
2.3268e-05
-3.55568e-07
1.91016e-05
-1.42766e-07
1.4268e-05
1.7367e-05
-1.48681e-06
2.77158e-05
-1.06194e-06
2.84993e-05
-7.26389e-07
2.92901e-05
-4.66992e-07
3.00885e-05
-2.70877e-07
3.09002e-05
-1.27231e-07
3.1725e-05
-2.79192e-08
3.25686e-05
3.23941e-08
3.34306e-05
5.76924e-08
3.4311e-05
5.13875e-08
3.522e-05
1.85784e-08
-1.95343e-06
1.92998e-05
-2.50235e-06
2.14494e-05
-3.13653e-06
2.38339e-05
-3.85818e-06
2.64855e-05
-4.66634e-06
2.94426e-05
-5.55591e-06
3.27463e-05
-6.51842e-06
3.64456e-05
-7.53836e-06
4.06125e-05
-8.59265e-06
4.53276e-05
-9.64725e-06
5.06972e-05
-1.06583e-05
5.68491e-05
-1.15688e-05
6.39434e-05
-1.23114e-05
7.21679e-05
-1.2811e-05
8.04387e-05
-1.3001e-05
8.20881e-05
-1.29008e-05
8.38908e-05
-1.25174e-05
8.58006e-05
-1.18728e-05
8.77573e-05
-1.10023e-05
8.97152e-05
-1.23153e-05
9.19187e-05
-1.07915e-05
9.91644e-05
-9.05939e-06
8.82042e-05
-7.49072e-06
7.8286e-05
-6.10706e-06
6.93441e-05
-4.91142e-06
6.12724e-05
-3.89574e-06
5.40655e-05
-3.04476e-06
4.764e-05
-2.34028e-06
4.18856e-05
-1.76312e-06
3.66908e-05
-1.29347e-06
3.20195e-05
-9.09998e-07
2.76583e-05
-5.93321e-07
2.35057e-05
-3.33321e-07
1.92921e-05
-1.33539e-07
1.44015e-05
1.73438e-05
-1.93027e-06
2.76513e-05
-1.42226e-06
2.8451e-05
-1.01368e-06
2.92555e-05
-6.9181e-07
3.00653e-05
-4.43793e-07
3.08863e-05
-2.57013e-07
3.17186e-05
-1.20807e-07
3.25678e-05
-2.71748e-08
3.34337e-05
2.92457e-08
3.43161e-05
5.26169e-08
3.52247e-05
4.66547e-08
3.61559e-05
1.67049e-08
-2.47148e-06
1.92689e-05
-3.09697e-06
2.14098e-05
-3.80949e-06
2.37852e-05
-4.60893e-06
2.64281e-05
-5.49167e-06
2.93784e-05
-6.45142e-06
3.26793e-05
-7.47587e-06
3.63831e-05
-8.54627e-06
4.05661e-05
-9.63414e-06
4.53145e-05
-1.07023e-05
5.07411e-05
-1.1701e-05
5.69813e-05
-1.25701e-05
6.42022e-05
-1.32405e-05
7.25974e-05
-1.3637e-05
8.10748e-05
-1.36981e-05
8.28854e-05
-1.34585e-05
8.48319e-05
-1.29338e-05
8.68615e-05
-1.21554e-05
8.89104e-05
-1.38236e-05
9.12235e-05
-1.23397e-05
9.34669e-05
-1.06923e-05
0.000100797
-8.88515e-06
8.95986e-05
-7.28131e-06
7.94602e-05
-5.89023e-06
7.0323e-05
-4.70515e-06
6.20818e-05
-3.71059e-06
5.47314e-05
-2.88599e-06
4.81857e-05
-2.20958e-06
4.23321e-05
-1.65983e-06
3.70572e-05
-1.21535e-06
3.23248e-05
-8.54336e-07
2.79193e-05
-5.56975e-07
2.37294e-05
-3.12657e-07
1.94713e-05
-1.25045e-07
1.45266e-05
1.73145e-05
-2.44217e-06
2.7566e-05
-1.84498e-06
2.83849e-05
-1.35613e-06
2.92059e-05
-9.64057e-07
3.00297e-05
-6.56226e-07
3.08624e-05
-4.19903e-07
3.17042e-05
-2.42635e-07
3.2561e-05
-1.13965e-07
3.34327e-05
-2.60906e-08
3.43189e-05
2.63777e-08
3.52295e-05
4.77849e-08
3.61604e-05
4.21061e-08
3.65898e-05
1.49446e-08
-3.05898e-06
1.9231e-05
-3.76197e-06
2.13623e-05
-4.55175e-06
2.3728e-05
-5.42576e-06
2.63622e-05
-6.37947e-06
2.93065e-05
-7.40312e-06
3.26065e-05
-8.48154e-06
3.63183e-05
-9.59098e-06
4.0523e-05
-1.07001e-05
4.53123e-05
-1.17659e-05
5.0806e-05
-1.27354e-05
5.71466e-05
-1.3546e-05
6.45076e-05
-1.4127e-05
7.30874e-05
-1.44054e-05
8.17821e-05
-1.43269e-05
8.37538e-05
-1.39408e-05
8.58389e-05
-1.3273e-05
8.79792e-05
-1.53098e-05
9.03966e-05
-1.38852e-05
9.2769e-05
-1.22531e-05
9.50277e-05
-1.05077e-05
0.00010242
-8.6498e-06
9.09671e-05
-7.03095e-06
8.06009e-05
-5.64786e-06
7.12657e-05
-4.48468e-06
6.28559e-05
-3.51915e-06
5.53645e-05
-2.72615e-06
4.87023e-05
-2.08099e-06
4.27533e-05
-1.55994e-06
3.74018e-05
-1.14107e-06
3.26116e-05
-8.02099e-07
2.81644e-05
-5.23182e-07
2.39399e-05
-2.93583e-07
1.96398e-05
-1.17228e-07
1.46438e-05
1.72784e-05
-3.0229e-06
2.74564e-05
-2.33261e-06
2.8298e-05
-1.75809e-06
2.91384e-05
-1.28865e-06
2.99791e-05
-9.13412e-07
3.08261e-05
-6.19895e-07
3.16797e-05
-3.95356e-07
3.25461e-05
-2.27718e-07
3.34254e-05
-1.06711e-07
3.43175e-05
-2.46841e-08
3.52321e-05
2.37767e-08
3.6165e-05
4.31873e-08
3.65941e-05
3.77969e-08
3.55536e-05
1.33512e-08
-3.7163e-06
1.91853e-05
-4.49589e-06
2.13064e-05
-5.35997e-06
2.36623e-05
-6.30534e-06
2.6288e-05
-7.32429e-06
2.92276e-05
-8.40456e-06
3.25296e-05
-9.52637e-06
3.62537e-05
-1.06634e-05
4.04863e-05
-1.17787e-05
4.53251e-05
-1.2826e-05
5.08967e-05
-1.37494e-05
5.73501e-05
-1.44841e-05
6.48647e-05
-1.49598e-05
7.36418e-05
-1.51077e-05
8.25629e-05
-1.48801e-05
8.46931e-05
-1.43434e-05
8.69094e-05
-1.6763e-05
8.94324e-05
-1.54208e-05
9.19322e-05
-1.3822e-05
9.43378e-05
-1.20675e-05
9.65876e-05
-1.02491e-05
0.000104019
-8.3642e-06
9.23003e-05
-6.74871e-06
8.17018e-05
-5.38743e-06
7.21684e-05
-4.25571e-06
6.35925e-05
-3.32567e-06
5.59641e-05
-2.56837e-06
4.91897e-05
-1.95625e-06
4.31496e-05
-1.46476e-06
3.77254e-05
-1.07123e-06
3.28807e-05
-7.5348e-07
2.83947e-05
-4.91919e-07
2.41382e-05
-2.76012e-07
1.97986e-05
-1.10003e-07
1.47538e-05
1.7235e-05
-3.67293e-06
2.73197e-05
-2.88622e-06
2.81866e-05
-2.22124e-06
2.90496e-05
-1.6692e-06
2.99102e-05
-1.21981e-06
3.07744e-05
-8.61706e-07
3.16425e-05
-5.82745e-07
3.2521e-05
-3.70246e-07
3.34101e-05
-2.12349e-07
3.43099e-05
-9.90881e-08
3.52304e-05
-2.29742e-08
3.61674e-05
2.14311e-08
3.65984e-05
3.88787e-08
3.55575e-05
3.38776e-08
3.45455e-05
1.19029e-08
-4.44215e-06
1.91315e-05
-5.2956e-06
2.12421e-05
-6.23113e-06
2.3588e-05
-7.2426e-06
2.62064e-05