/*--------------------------------*- C++ -*----------------------------------*\
  =========                 |
  \\      /  F ield         | OpenFOAM: The Open Source CFD Toolbox
   \\    /   O peration     | Website:  https://openfoam.org
    \\  /    A nd           | Version:  8
     \\/     M anipulation  |
\*---------------------------------------------------------------------------*/
FoamFile
{
    version     2.0;
    format      ascii;
    class       volScalarField;
    location    "0.22";
    object      p;
}
// * * * * * * * * * * * * * * * * * * * * * * * * * * * * * * * * * * * * * //

dimensions      [0 2 -2 0 0 0 0];

internalField   nonuniform List<scalar> 
15677
(
74.4348
74.0783
73.6655
74.1428
73.6537
73.6674
74.1178
73.6809
73.6768
73.561
74.0925
73.6823
73.677
73.57
73.4695
74.0707
73.6846
73.6769
73.5692
73.4771
73.3734
74.0472
73.6869
73.6765
73.5703
73.477
73.38
73.2589
74.0221
73.6894
73.6757
73.5707
73.478
73.38
73.2647
73.1222
73.9959
73.6925
73.6743
73.5708
73.4785
73.381
73.2648
73.1273
72.956
73.9686
73.6946
73.6723
73.5706
73.479
73.3816
73.2658
73.1275
72.9603
72.7527
73.94
73.696
73.6697
73.5702
73.4794
73.3822
73.2665
73.1286
72.9607
72.7563
72.5046
73.9105
73.6977
73.6664
73.5699
73.4798
73.3829
73.2674
73.1294
72.9619
72.7569
72.5075
72.2034
73.8806
73.6988
73.6631
73.57
73.4804
73.3837
73.2684
73.1306
72.963
72.7583
72.5082
72.2055
71.8407
73.8508
73.6988
73.6596
73.5704
73.4814
73.385
73.2698
73.1321
72.9646
72.7597
72.5098
72.2064
71.842
71.4082
73.8242
73.6976
73.656
73.5713
73.483
73.3869
73.2719
73.1342
72.9666
72.7618
72.5117
72.2084
71.8431
71.4085
70.8976
73.8013
73.6955
73.6526
73.5726
73.4857
73.39
73.2752
73.1373
72.9697
72.7646
72.5144
72.2108
71.8454
71.4098
70.8968
70.3014
73.7814
73.6934
73.6497
73.5746
73.4896
73.3946
73.28
73.1421
72.9741
72.7687
72.5182
72.2143
71.8484
71.4125
70.8984
70.2996
69.613
73.764
73.6914
73.6475
73.5772
73.495
73.4011
73.287
73.1491
72.9808
72.7749
72.5238
72.2193
71.8529
71.4163
70.9015
70.3014
69.6098
68.8266
73.7489
73.6894
73.6459
73.5802
73.5017
73.4101
73.297
73.1592
72.9905
72.7839
72.532
72.2265
71.8593
71.4219
70.9063
70.305
69.612
68.822
67.9378
73.7358
73.6876
73.6448
73.5836
73.509
73.4211
73.3107
73.1735
73.0046
72.7972
72.544
72.2373
71.8687
71.4301
70.9132
70.3107
69.6161
68.8244
67.9316
66.9437
73.7246
73.6859
73.6443
73.5874
73.517
73.4331
73.3274
73.193
73.0243
72.8162
72.5617
72.2531
71.8825
71.4419
70.9233
70.3192
69.6229
68.829
67.9343
66.9358
65.8433
73.7157
73.6844
73.6443
73.5917
73.5258
73.4463
73.3454
73.2168
73.0514
72.8429
72.5869
72.276
71.9027
71.4593
70.938
70.3315
69.633
68.8369
67.9395
66.9389
65.8336
64.6373
73.7088
73.6829
73.6448
73.5963
73.5351
73.4605
73.3652
73.2426
73.0842
72.8794
72.6221
72.3087
71.932
71.4847
70.9595
70.3493
69.6476
68.8488
67.9486
66.9445
65.8369
64.6255
63.3287
73.7035
73.6815
73.6456
73.6013
73.5448
73.4755
73.3865
73.2709
73.12
72.9238
72.6704
72.3545
71.9739
71.5215
70.9909
70.3754
69.6689
68.866
67.9622
66.9547
65.843
64.6292
63.3148
61.9222
73.6994
73.6803
73.6466
73.6063
73.555
73.4913
73.4091
73.3013
73.1592
72.9722
72.7292
72.4173
72.0323
71.574
71.0364
70.4136
69.7001
68.891
67.982
66.9701
65.8543
64.6355
63.3186
61.906
60.4299
73.6962
73.6794
73.6477
73.611
73.565
73.5077
73.4326
73.3335
73.2013
73.0252
72.7933
72.4937
72.1124
71.6474
71.1012
70.4688
69.7457
68.9276
68.0107
66.9925
65.8713
64.6478
63.3251
61.9099
60.411
58.8822
73.6935
73.6786
73.6489
73.6153
73.5743
73.5237
73.4571
73.3672
73.2459
73.0822
72.8636
72.5772
72.2102
71.7481
71.1919
70.5476
69.8117
68.9811
68.0529
67.025
65.8961
64.6662
63.338
61.916
60.4121
58.8266
57.2185
73.6914
73.678
73.65
73.6193
73.5826
73.5384
73.481
73.4021
73.2926
73.1426
72.9394
72.6689
72.3171
71.8711
71.3164
70.6579
69.9059
69.0587
68.1147
67.0727
65.9321
64.693
63.3574
61.929
60.4168
58.8293
57.1514
55.4241
73.6897
73.6775
73.6511
73.6229
73.5901
73.5518
73.5029
73.4362
73.341
73.206
73.0197
72.7677
72.4346
72.0058
71.4687
70.8095
70.0379
69.1695
68.2044
67.1429
65.9852
64.7322
63.3857
61.9487
60.4283
58.8302
57.154
55.3938
53.5721
73.6883
73.6771
73.652
73.6261
73.5969
73.5637
73.5227
73.4675
73.3883
73.2715
73.1039
72.8726
72.5614
72.1541
71.6359
70.9954
70.2198
69.3252
68.3329
67.2451
66.0635
64.7902
63.4272
61.9776
60.4465
58.8387
57.1483
55.3861
53.5606
51.6683
73.6871
73.6767
73.6527
73.6292
73.6029
73.5744
73.5404
73.4958
73.4318
73.3358
73.1912
72.9827
72.6963
72.3143
71.8202
71.1998
70.4433
69.5404
68.514
67.3919
66.1781
64.8761
63.4891
62.0204
60.4743
58.8542
57.1561
55.3767
53.5437
51.6628
49.5217
73.6861
73.6764
73.6534
73.6319
73.6082
73.5839
73.5563
73.5211
73.471
73.3948
73.2768
73.0969
72.8379
72.485
72.0197
71.4255
70.6896
69.8053
68.7647
67.5993
66.3432
65.0023
63.5816
62.085
60.5165
58.8794
57.17
55.386
53.5352
51.6441
49.5195
47.1032
73.6853
73.6762
73.654
73.6344
73.613
73.5924
73.5704
73.5437
73.5062
73.4481
73.3555
73.2091
72.985
72.6645
72.2325
71.6702
70.9621
70.0979
69.0743
67.8873
66.5773
65.1853
63.7185
62.1826
60.582
58.9197
57.1934
55.3994
53.5449
51.6376
49.5017
47.1029
44.6571
73.6846
73.676
73.6546
73.6366
73.6172
73.5999
73.583
73.5639
73.5376
73.4959
73.4266
73.3122
73.1297
72.8512
72.4567
71.9319
71.2584
70.4225
69.4172
68.2441
66.9036
65.4457
63.9181
62.3284
60.6828
58.9844
57.2321
55.4226
53.5584
51.6459
49.4951
47.0862
44.6586
42.226
73.684
73.6759
73.6551
73.6385
73.6209
73.6065
73.5941
73.5818
73.5656
73.5387
73.4904
73.4055
73.2628
73.035
72.6904
72.2082
71.5758
70.7762
69.7987
68.6406
67.3094
65.8104
64.2038
62.5429
60.8356
59.0865
57.2959
55.4605
53.5816
51.6594
49.5001
47.0792
44.644
42.2276
39.8302
73.6757
73.6834
73.6557
73.6402
73.6242
73.6124
73.6039
73.5976
73.5904
73.5767
73.5475
73.4893
73.3834
73.2045
72.9208
72.4966
71.9115
71.1561
70.2154
69.083
67.7619
66.266
64.606
62.8521
61.0627
59.2442
57.3987
55.5236
53.6187
51.6819
49.5122
47.0809
44.6368
42.2141
39.8316
37.4823
73.6561
73.6756
73.6826
73.6417
73.6272
73.6177
73.6127
73.6117
73.6125
73.6106
73.5983
73.5643
73.4919
73.3582
73.1336
72.7816
72.263
71.559
70.6642
69.5678
68.2684
66.7757
65.1107
63.2898
61.3928
59.4815
57.5597
55.6265
53.6804
51.7171
49.532
47.0902
44.6355
42.2058
39.8189
37.483
35.1945
73.6429
73.6568
73.6755
73.6818
73.6298
73.6223
73.6204
73.6242
73.6321
73.6406
73.6436
73.6312
73.589
73.4966
73.3268
73.0454
72.6111
71.9818
71.1417
70.0915
68.8253
67.3484
65.6779
63.8421
61.8631
59.8294
57.8049
55.7896
53.7821
51.7762
49.5634
47.1054
44.6415
42.2011
39.809
37.4708
35.1943
32.9779
73.632
73.6447
73.6577
73.6755
73.6812
73.6264
73.6273
73.6352
73.6494
73.6672
73.6837
73.6907
73.6756
73.6206
73.5011
73.2853
72.934
72.4018
71.6442
70.6504
69.429
67.9804
66.3176
64.4655
62.4601
60.3288
58.1674
56.0401
53.9452
51.8748
49.6175
47.1304
44.651
42.2023
39.8003
37.4591
35.1825
32.9766
30.8408
73.6299
73.6351
73.6468
73.6587
73.6754
73.6805
73.6333
73.645
73.6647
73.6908
73.7193
73.7435
73.7528
73.7314
73.6574
73.502
73.2283
72.7923
72.1449
71.2405
70.0754
68.6679
67.0262
65.1715
63.1372
60.9665
58.6915
56.4136
54.198
52.0351
49.7101
47.1762
44.6682
42.2048
39.7958
37.4462
35.1685
32.9651
30.8385
28.7894
73.6385
73.6347
73.6384
73.6488
73.6596
73.6753
73.6799
73.6537
73.6784
73.7117
73.7509
73.7904
73.8214
73.8301
73.7972
73.6967
73.4945
73.149
72.6118
71.8306
70.7604
69.4069
67.8
65.9567
63.9073
61.6934
59.365
56.9575
54.5782
52.2866
49.864
47.2584
44.703
42.2122
39.79
37.4354
35.1514
32.9487
30.8271
28.7862
26.828
73.661
73.6454
73.6396
73.6418
73.6508
73.6605
73.6753
73.6793
73.6904
73.7303
73.7789
73.832
73.8822
73.9179
73.9219
73.871
73.7342
73.4725
73.0393
72.3825
71.4479
70.193
68.6351
66.8178
64.7674
62.5237
60.1363
57.6606
55.136
52.6687
50.1096
47.4005
44.7715
42.2337
39.7859
37.4203
35.1337
32.9271
30.8081
28.7747
26.8237
24.959
73.7006
73.6708
73.6523
73.6447
73.6452
73.6528
73.6614
73.6752
73.6788
73.7467
73.8038
73.8689
73.9362
73.9958
74.0329
74.0266
73.949
73.7641
73.4279
72.8894
72.0932
70.9852
69.5272
67.7509
65.7147
63.4552
61.0214
58.4696
55.8613
53.2337
50.4882
47.6336
44.8971
42.2853
39.7919
37.4035
35.1087
32.9023
30.7821
28.753
26.8122
24.9539
23.1836
73.7605
73.714
73.68
73.6593
73.6496
73.6485
73.6547
73.6623
73.6752
73.6783
73.8258
73.9017
73.9842
74.0651
74.1316
74.1653
74.1411
74.0261
73.7792
73.3513
72.6877
71.7316
70.4302
68.7523
66.7459
64.4858
62.0188
59.4023
56.7002
53.9729
51.0533
48.0003
45.1118
42.3904
39.8238
37.3922
35.0781
32.8669
30.75
28.7226
26.7878
24.9421
23.1777
21.5017
73.8441
73.7787
73.7261
73.6895
73.6662
73.6544
73.6516
73.6566
73.6632
73.6751
73.6779
73.9308
74.0269
74.1265
74.2192
74.2887
74.3125
74.2607
74.0952
73.7698
73.2312
72.4217
71.2845
69.7705
67.8577
65.6129
63.1277
60.4587
57.6721
54.8324
51.7982
48.554
45.4577
42.5811
39.905
37.4023
35.0483
32.8217
30.7038
28.6831
26.753
24.915
23.1658
21.4951
19.9122
73.9549
73.8684
73.7943
73.7386
73.6987
73.6728
73.659
73.6547
73.6583
73.6641
73.6751
73.6775
74.0646
74.1813
74.2971
74.3985
74.4652
74.4702
74.3787
74.1472
73.7248
73.0545
72.0772
70.738
68.9938
66.8341
64.3464
61.6388
58.7784
55.8336
52.6702
49.2913
45.9877
42.8979
40.0665
37.4567
35.035
32.7726
30.6437
28.6261
26.7062
24.8761
23.136
21.4829
19.9049
18.4132
74.0958
73.9867
73.8883
73.8106
73.7508
73.7076
73.6792
73.6635
73.6576
73.66
73.6649
73.6751
73.6772
74.2298
74.3666
74.496
74.6011
74.6572
74.6323
74.4864
74.1711
73.631
72.8067
71.6394
70.0781
68.0884
65.6736
62.9423
60.0205
56.9791
53.6922
50.1616
46.7019
43.3929
40.347
37.5845
35.0603
32.735
30.5748
28.5508
26.6383
24.8219
23.093
21.4506
19.8925
18.4053
17.0021
74.2696
74.1372
74.0119
73.9092
73.8264
73.7624
73.7161
73.6853
73.6677
73.6604
73.6617
73.6657
73.6751
73.6768
74.428
74.5831
74.722
74.8236
74.8589
74.7904
74.573
74.1535
73.4733
72.4719
71.0928
69.2915
67.0441
64.3693
61.3996
58.272
54.8681
51.1888
47.5532
44.0699
40.7969
37.8224
35.1509
32.7294
30.5121
28.462
26.5478
24.7434
23.0316
21.4037
19.8578
18.3926
16.9937
15.6758
74.4783
74.3229
74.1688
74.0385
73.9294
73.8413
73.7734
73.7241
73.6911
73.6717
73.663
73.6632
73.6665
73.675
73.6766
74.6601
74.83
74.972
75.0609
75.0624
74.9339
74.6252
74.0792
73.2353
72.0336
70.4222
68.3652
65.8511
62.9179
59.7154
56.2031
52.3786
48.5653
44.8856
41.4236
38.2182
35.3409
32.7798
30.4743
28.3741
26.4393
24.6379
22.9426
21.3353
19.8072
18.3555
16.9807
15.6669
14.4311
74.7229
74.5463
74.3622
74.2023
74.0641
73.9484
73.8554
73.7838
73.7316
73.6965
73.6755
73.6655
73.6647
73.6672
73.675
73.6764
74.9255
75.1046
75.2412
75.3053
75.2574
75.0497
74.6277
73.9312
72.8992
71.4748
69.6126
67.2871
64.5037
61.3135
57.7026
53.7386
49.746
45.8628
42.1875
38.7825
35.6751
32.9178
30.4827
28.3033
26.3262
24.5102
22.8227
21.2362
19.732
18.3014
16.9414
15.6537
14.4217
13.2644
75.003
74.8088
74.5948
74.4042
74.2345
74.088
73.9662
73.8685
73.7934
73.7386
73.7015
73.679
73.6678
73.6659
73.6678
73.675
73.6762
75.2219
75.4026
75.5223
75.5467
75.431
75.1225
74.5629
73.6911
72.447
70.7787
68.6497
66.049
62.9925
59.3735
55.2773
51.1054
47.0112
43.1103
39.4796
36.166
33.1843
30.5657
28.2684
26.2222
24.3721
22.6762
21.1022
19.6232
18.2198
16.884
15.6123
14.4083
13.2546
12.1721
75.3166
75.1107
74.8685
74.647
74.4443
74.2644
74.1103
73.9826
73.8806
73.8023
73.7451
73.7061
73.6822
73.6699
73.667
73.6684
73.675
73.676
75.5451
75.7169
75.8057
75.7725
75.5677
75.1343
74.4119
73.3393
71.86
69.929
67.5224
64.6374
61.1411
57.0052
52.655
48.3425
44.2021
40.3283
36.782
33.5921
30.7594
28.2944
26.1434
24.235
22.5136
20.9376
19.4757
18.1017
16.7962
15.5519
14.3649
13.2409
12.1616
11.1499
75.6596
75.4506
75.184
74.9333
74.6969
74.4814
74.2919
74.1307
73.9977
73.8917
73.8104
73.7509
73.7103
73.685
73.6716
73.668
73.6688
73.675
73.6759
75.8885
76.0382
76.0788
75.9674
75.6496
75.0657
74.154
72.8559
71.1199
68.9119
66.2139
62.8849
58.8481
54.4074
49.8693
45.4743
41.338
37.5378
34.1144
31.0762
28.4116
26.1114
24.1123
22.3441
20.7513
19.2938
17.9414
16.6692
15.4582
14.3016
13.1957
12.1477
11.1384
10.1986
76.0256
75.8255
75.5404
75.2641
74.9949
74.7427
74.5154
74.3171
74.1492
74.0112
73.9016
73.8176
73.7561
73.7138
73.6874
73.6731
73.6688
73.6692
73.675
73.6758
76.243
76.3543
76.3264
76.1131
75.6567
74.895
73.7681
72.2207
70.2104
67.7078
64.5669
60.6791
56.2876
51.6031
46.9384
42.518
38.4403
34.7598
31.4937
28.631
26.1493
24.022
22.178
20.5501
19.0845
17.743
16.4969
15.3229
14.2024
13.1298
12.1008
11.1245
10.1814
9.40484
76.4055
76.2296
75.9352
75.6392
75.34
75.0513
74.7845
74.5462
74.3396
74.1656
74.0232
73.9102
73.8238
73.7604
73.7168
73.6894
73.6743
73.6695
73.6696
73.675
73.6757
76.5964
76.6501
76.5304
76.1894
75.5665
74.6002
73.2322
71.4149
69.1101
66.1689
62.4524
58.1613
53.4699
48.6058
43.8798
39.4978
35.5334
32.0144
28.9354
26.2671
23.9791
22.0295
20.3416
18.8526
17.5116
16.2828
15.1391
14.0593
13.0254
12.0326
11.0763
10.1682
9.39875
8.73595
76.7873
76.6552
76.3637
76.0567
75.7325
75.4092
75.1025
74.822
74.5736
74.3594
74.1799
74.0334
73.9175
73.8288
73.7639
73.7191
73.691
73.6754
73.67
73.6699
73.6751
73.6756
76.9339
76.9075
76.6701
76.1732
75.3562
74.1574
72.5255
70.4158
67.6777
64.1439
59.9789
55.3384
50.414
45.4411
40.7254
36.4443
32.6425
29.3211
26.4527
23.9931
21.9056
20.1358
18.603
17.2502
16.0304
14.9102
13.8648
12.875
11.9233
11.0063
10.1186
9.39187
8.74304
8.04073
77.1557
77.0912
76.8187
76.5128
76.1711
75.8172
75.4716
75.1481
74.8551
74.5973
74.3763
74.1919
74.0418
73.9233
73.8328
73.7666
73.721
73.6923
73.6762
73.6705
73.6701
73.6751
73.6756
77.237
77.1057
76.7221
76.0407
75.0002
73.5445
71.6234
69.0849
65.7377
61.7186
57.1671
52.2482
47.1613
42.1525
37.5144
33.3894
29.7922
26.697
24.0571
21.8155
19.9316
18.3412
16.961
15.7407
14.6377
13.6218
12.6704
11.7661
10.8924
10.0471
9.34156
8.73746
8.04116
7.28871
77.4919
77.5239
77.2905
77.0015
76.653
76.2749
75.8934
75.5271
75.188
74.8835
74.6172
74.3902
74.2014
74.0482
73.9275
73.8357
73.7686
73.7225
73.6933
73.6768
73.6709
73.6703
73.6751
73.6755
77.4847
77.2208
76.6617
75.7651
74.4749
72.7339
70.3871
67.2262
63.369
58.9424
54.0791
48.947
43.7639
38.7858
34.2843
30.3628
27.0042
24.1569
21.7574
19.7387
18.0586
16.645
15.4136
14.3212
13.3304
12.4143
11.5521
10.729
9.92899
9.2698
8.68833
8.03029
7.28162
6.46451
77.7743
77.9362
77.7662
77.5141
77.173
76.7799
76.3679
75.9608
75.5752
75.2218
74.9069
74.6332
74.4009
74.2083
74.0526
73.9304
73.8376
73.77
73.7235
73.6941
73.6773
73.6712
73.6705
73.6751
73.6755
77.6525
77.2275
76.4611
75.3212
73.7494
71.5849
68.6078
64.9258
60.6555
55.8957
50.7758
45.4859
40.267
35.3807
31.0687
27.3904
24.2968
21.7126
19.5601
17.7654
16.2864
15.0454
13.9579
12.9885
12.105
11.2837
10.5061
9.75981
9.148
8.61551
7.98119
7.2662
6.45447
5.56673
77.9774
78.3079
78.2299
78.0393
77.7236
77.3281
76.8934
76.4498
76.019
75.6157
75.2493
74.9252
74.645
74.4081
74.2126
74.0553
73.9321
73.8388
73.7709
73.7241
73.6946
73.6777
73.6714
73.6706
73.675
73.6755
77.7141
77.0973
76.0935
74.6743
72.6809
69.8847
66.3872
62.298
57.6828
52.6313
47.2974
41.902
36.7069
31.9714
27.8965
24.4941
21.6848
19.3726
17.4693
15.8965
14.6141
13.54
12.5909
11.739
10.9575
10.2261
9.52861
8.97421
8.49095
7.90624
7.21556
6.43771
5.55545
4.5924
78.0732
78.6158
78.6626
78.5625
78.2949
77.9132
77.4668
76.9933
76.5202
76.0674
75.6481
75.2704
74.9382
74.6524
74.4121
74.2147
74.0564
73.9327
73.8392
73.7713
73.7245
73.6948
73.6779
73.6716
73.6707
73.675
73.6755
77.6398
76.8014
75.5208
73.68
71.0596
67.753
63.8618
59.4226
54.489
49.1752
43.6696
38.2246
33.1157
28.588
24.7921
21.6915
19.1793
17.143
15.4872
14.1318
13.0394
12.1257
11.3091
10.5689
9.88405
9.23775
8.73618
8.3131
7.77864
7.13743
6.38533
5.53828
4.58023
3.53512
78.0295
78.8342
79.0419
79.0664
78.8737
78.5263
78.0827
77.5886
77.0787
76.5785
76.1059
75.6723
75.2846
74.9456
74.6557
74.4132
74.2148
74.0561
73.9324
73.839
73.7712
73.7244
73.6949
73.6782
73.6718
73.6708
73.675
73.6755
77.3979
76.2992
74.5973
72.1374
69.0223
65.3391
61.0976
56.3213
51.0867
45.542
39.9134
34.4809
29.5225
25.2568
21.7758
18.9962
16.7881
15.0273
13.6142
12.4693
11.5597
10.7993
10.1085
9.47429
8.88087
8.43649
8.06945
7.59624
7.00626
6.30371
5.48427
4.56214
3.52237
2.38781
77.8099
78.935
79.3426
79.5302
79.4443
79.1559
78.7336
78.2317
77.6928
77.1493
76.6244
76.134
75.688
75.2918
74.9478
74.6554
74.4118
74.2131
74.0546
73.9313
73.8382
73.7706
73.7241
73.6952
73.6785
73.6719
73.6708
73.675
73.6755
76.9446
75.443
73.1352
70.1965
66.723
62.6931
58.1028
52.9966
47.4815
41.7448
36.0506
30.6981
25.9548
22.0006
18.8639
16.4182
14.5162
13.0266
11.8491
10.9068
10.1717
9.55686
8.98533
8.45125
8.06753
7.76225
7.34653
6.81877
6.16854
5.39934
4.50649
3.50314
2.37481
1.14335
77.3642
78.8873
79.5361
79.9301
79.9876
79.7878
79.4092
78.9158
78.359
77.7786
77.2044
76.6574
76.1514
75.6949
75.2926
74.9456
74.652
74.4083
74.21
74.0521
73.9294
73.8368
73.7697
73.7244
73.6958
73.6787
73.6719
73.6707
73.6751
73.6756
76.1286
74.0623
71.2927
68.0106
64.1964
59.8122
54.8727
49.4473
43.6794
37.7994
32.1053
26.9043
22.4385
18.839
16.0688
13.9641
12.366
11.1406
10.1898
9.441
8.87158
8.39441
7.93559
7.6218
7.38311
7.03116
6.5624
5.97536
5.25987
4.41833
3.44581
2.35479
1.13022
-0.205868
78.6486
76.5411
79.5896
80.2397
80.4814
80.4047
80.097
79.6324
79.0719
78.4639
77.8455
77.2437
76.6771
76.1579
75.6939
75.288
74.9396
74.6459
74.4029
74.2055
74.0486
73.9267
73.8349
73.7697
73.7252
73.696
73.6787
73.6718
73.6706
73.6751
73.6756
74.7994
72.3183
69.2186
65.601
61.4319
56.6878
51.4014
45.6737
39.6903
33.7256
28.1047
23.128
18.9976
15.7884
13.4001
11.6379
10.3377
9.36728
8.63335
8.06814
7.65531
7.30803
7.08448
6.92383
6.64102
6.23814
5.71171
5.06045
4.27422
3.35429
2.29556
1.10964
-0.219152
-1.66789
79.4645
78.0758
75.1962
80.4267
80.9014
80.9859
80.7812
80.3702
79.8241
79.2008
78.5457
77.8929
77.2667
76.6836
76.1549
75.6862
75.2785
74.9302
74.6375
74.3958
74.1999
74.0441
73.9233
73.8346
73.771
73.7256
73.696
73.6785
73.6716
73.6705
73.675
73.6757
73.1223
70.353
66.9243
62.9515
58.4185
53.3109
47.6851
41.6799
35.5283
29.5478
24.0786
19.3974
15.6534
12.8621
10.8636
9.44081
8.42982
7.70392
7.17577
6.78403
6.51882
6.42733
6.36833
6.1671
5.83605
5.37776
4.78887
4.06804
3.20511
2.2004
1.04833
-0.240356
-1.6813
-3.25101
80.4548
79.0395
77.0567
73.5197
81.2168
81.509
81.4432
81.1154
80.6058
79.983
79.3017
78.6039
77.9204
77.2734
76.6782
76.1436
75.6726
75.265
74.9179
74.6271
74.3874
74.193
74.0386
73.9225
73.8364
73.7716
73.7256
73.6958
73.6782
73.6714
73.6703
73.675
73.6758
71.2331
68.1719
64.3891
60.0504
55.1463
49.6752
43.7231
37.4737
31.2127
25.2945
20.0585
15.7397
12.4247
10.0696
8.46274
7.37232
6.63988
6.14654
5.81282
5.58448
5.5978
5.68639
5.59193
5.34629
4.96272
4.44437
3.78787
2.99165
2.04571
0.949329
-0.303716
-1.70322
-3.26451
-4.96378
81.3953
80.2181
78.1725
75.7183
71.6441
81.9452
82.0622
81.8509
81.4049
80.8022
80.1082
79.3739
78.6378
77.9281
77.2657
76.6628
76.1252
75.6542
75.2481
74.9033
74.615
74.3772
74.1848
74.0372
73.925
73.8372
73.7716
73.7252
73.6952
73.6779
73.6712
73.6701
73.675
73.6759
69.1328
65.7502
61.6016
56.8876
51.6079
45.7767
39.5172
33.0676
26.7677
20.9978
16.0765
12.1799
9.32664
7.41762
6.19854
5.43042
4.96393
4.69068
4.54007
4.61277
4.82313
4.88316
4.74984
4.45581
4.01532
3.4319
2.70217
1.8244
0.788691
-0.406686
-1.7686
-3.28716
-4.97726
-6.81489
82.2662
81.3505
79.578
76.9889
74.1691
69.566
82.6115
82.5578
82.2061
81.6477
80.9581
80.1988
79.4168
78.6476
77.9184
77.2458
76.6388
76.1008
75.6315
75.2283
74.8867
74.6007
74.3655
74.1824
74.0405
73.926
73.8372
73.771
73.7243
73.6949
73.6777
73.6709
73.6699
73.675
73.676
66.7916
63.0774
58.5527
53.4563
47.7978
41.6126
35.0724
28.4786
22.2225
16.6928
12.164
8.74008
6.37079
4.90997
4.07021
3.61149
3.39742
3.33167
3.50959
3.79573
3.98341
4.01212
3.83639
3.4899
2.98771
2.33377
1.52486
0.558945
-0.573705
-1.87572
-3.35455
-5.00062
-6.82828
-8.8128
83.067
82.4069
80.9426
78.6275
75.6005
72.4203
67.2493
83.2116
82.9923
82.5062
81.8424
81.0726
80.254
79.4305
78.6363
77.8938
77.2156
76.6076
76.0714
75.6054
75.2061
74.8673
74.5846
74.3618
74.1868
74.0419
73.926
73.8364
73.7697
73.7241
73.6948
73.6773
73.6705
73.6696
73.675
73.6762
64.2003
60.1466
55.237
49.7508
43.7101
37.1809
30.3961
23.7287
17.6113
12.4159
8.35061
5.43843
3.56547
2.54807
2.07494
1.91108
1.93544
2.23179
2.64348
2.91022
3.07306
3.0675
2.8457
2.44234
1.87325
1.143
0.248564
-0.812463
-2.04957
-3.46608
-5.07004
-6.8523
-8.82562
-10.9696
83.7922
83.3875
82.2244
80.2317
77.473
74.0407
70.4355
64.6842
83.7412
83.3625
82.7494
81.9877
81.1446
80.2741
79.4186
78.6071
77.8567
77.1766
76.5703
76.0379
75.5764
75.1805
74.8456
74.5792
74.3675
74.1886
74.0419
73.925
73.8346
73.7697
73.7244
73.6945
73.6768
73.67
73.6692
73.675
73.6764
61.3542
56.9548
51.6502
45.7643
39.3379
32.4793
25.4996
18.8462
12.9726
8.20391
4.66268
2.28953
0.915802
0.330712
0.208765
0.324181
0.75253
1.30776
1.70506
1.95059
2.08619
2.04333
1.7715
1.30643
0.66494
-0.147771
-1.13449
-2.29792
-3.6472
-5.18621
-6.92355
-8.84974
-10.9784
-13.6904
84.4358
84.2857
83.4262
81.7483
79.3139
76.1692
72.2723
68.2071
61.8668
84.1962
83.6657
82.934
82.0822
81.1744
80.2632
79.3851
78.5627
77.8091
77.1303
76.5281
76.0009
75.5435
75.1521
74.8382
74.5866
74.3698
74.1886
74.0405
73.9225
73.8349
73.7706
73.7244
73.694
73.6761
73.6694
73.6688
73.675
73.6766
58.2527
53.5001
47.7864
41.4878
34.6709
27.5057
20.3996
13.8664
8.34804
4.09196
1.12296
-0.695977
-1.57658
-1.74498
-1.53318
-0.959722
-0.240868
0.306984
0.688586
0.910836
1.01672
0.933236
0.607028
0.0751504
-0.644618
-1.54635
-2.63239
-3.90575
-5.37508
-7.04454
-8.92295
-11.0025
-13.7043
-16.9364
84.9928
85.0931
84.5419
83.1814
81.0627
78.2618
74.6801
70.2826
65.7366
58.7977
84.5733
83.9001
83.0583
82.126
81.1668
80.2263
79.3334
78.5058
77.7528
77.0783
76.4819
75.9592
75.507
75.142
74.8475
74.5895
74.3698
74.1867
74.0372
73.9233
73.8368
73.7712
73.7241
73.6933
73.6753
73.6687
73.6683
73.675
73.6768
54.8962
49.7794
43.6368
36.9053
29.6948
22.262
15.1212
8.83071
3.7806
0.112707
-2.25014
-3.51196
-3.91252
-3.68328
-2.94262
-2.03753
-1.3163
-0.776517
-0.412089
-0.215265
-0.141835
-0.26957
-0.654753
-1.2589
-2.0632
-3.0608
-4.25348
-5.64444
-7.24155
-9.04906
-11.0758
-13.7349
-16.9544
-20.251
85.4591
85.8016
85.5618
84.5255
82.7238
80.2562
77.0421
72.9894
68.0731
63.0312
55.4792
84.8699
84.0629
83.1218
82.125
81.1279
80.1675
79.2666
78.4385
77.6896
77.0214
76.43
75.9131
75.4938
75.1538
74.8512
74.5895
74.3675
74.1823
74.0387
73.9267
73.8382
73.7712
73.7234
73.6922
73.6743
73.6679
73.6678
73.675
73.6771
51.2845
45.7863
39.1854
31.9968
24.4004
16.7617
9.70117
3.78705
-0.686341
-3.70507
-5.44365
-6.15575
-6.095
-5.25184
-4.12541
-3.20383
-2.48009
-1.94907
-1.60333
-1.43427
-1.3963
-1.57214
-2.02123
-2.70347
-3.59885
-4.6994
-6.00623
-7.52234
-9.25473
-11.2067
-13.8141
-16.9876
-20.2637
-23.5696
85.8317
86.4039
86.4763
85.77
84.2921
82.1567
79.3009
75.6337
71.0986
65.6532
60.1015
51.9126
85.0823
84.1534
83.1316
82.0862
81.0627
80.0906
79.1874
78.363
77.6208
76.9578
76.3727
75.8962
75.5084
75.1583
74.8512
74.5866
74.3618
74.1848
74.0442
73.9294
73.839
73.7708
73.7224
73.6909
73.673
73.667
73.6672
73.675
73.6775
47.4144
41.51
34.4085
26.7367
18.7766
11.0259
4.18719
-1.21151
-5.01122
-7.33847
-8.44923
-8.6279
-7.86145
-6.56776
-5.40469
-4.46538
-3.73879
-3.21719
-2.89179
-2.75306
-2.75372
-2.9818
-3.50005
-4.26648
-5.25971
-6.4705
-7.89891
-9.54762
-11.4214
-13.9553
-17.0746
-20.2929
-23.5805
-26.8752
86.106
86.8946
87.2755
86.9038
85.757
83.9572
81.4611
78.1687
74.0368
69.0181
63.0387
56.9585
48.0974
85.209
84.1795
83.096
82.0158
80.9758
79.9988
79.0984
78.2808
77.544
76.8878
76.3515
75.9142
75.5139
75.1583
74.8475
74.5792
74.3655
74.1931
74.0487
73.9313
73.8392
73.77
73.7209
73.6893
73.6716
73.6659
73.6665
73.6751
73.6779
43.2785
36.9234
29.2636
21.0837
12.8093
5.08181
-1.36418
-6.10954
-9.15752
-10.7702
-11.2631
-10.6293
-9.34252
-7.99036
-6.78776
-5.82899
-5.09907
-4.58762
-4.28435
-4.17862
-4.22132
-4.50609
-5.09899
-5.95592
-7.05399
-8.38224
-9.93964
-11.7269
-14.1829
-17.2281
-20.3792
-23.61
-26.8852
-30.1566
86.2792
87.2669
87.9497
87.9159
87.1075
85.6464
83.516
80.6006
76.8571
72.2617
66.7664
60.2486
53.6135
44.0326
85.2586
84.1512
83.0225
81.9194
80.871
79.8953
79.0016
78.1892
77.4595
76.8616
76.3734
75.9208
75.5139
75.1538
74.8381
74.5846
74.3774
74.2001
74.0521
73.9324
73.8387
73.7685
73.719
73.6873
73.6698
73.6646
73.6657
73.6751
73.6783
38.8561
31.9846
23.694
14.9934
6.49706
-1.02717
-6.88818
-10.8528
-13.0945
-13.9893
-13.5421
-12.3064
-10.9426
-9.52739
-8.28166
-7.30146
-6.56774
-6.06726
-5.78794
-5.71804
-5.80645
-6.15253
-6.82577
-7.7797
-8.98955
-10.4425
-12.1349
-14.5051
-17.472
-20.5373
-23.6974
-26.9161
-30.1655
-33.3935
86.3608
87.5156
88.4866
88.7948
88.3319
87.2129
85.4529
82.9228
79.5673
75.3755
70.3277
64.3665
57.3024
50.0803
39.7091
85.2431
84.0775
82.9177
81.8017
80.7523
79.7826
78.8937
78.0885
77.4276
76.8881
76.3814
75.9208
75.5084
75.142
74.8457
74.601
74.3876
74.2057
74.0546
73.9327
73.8375
73.7665
73.7167
73.6849
73.6678
73.6632
73.6649
73.6751
73.6788
34.1173
26.641
17.6345
8.42823
-0.141272
-7.23611
-12.3144
-15.39
-16.7985
-16.5982
-15.4504
-14.1168
-12.6697
-11.186
-9.89321
-8.88958
-8.15164
-7.6629
-7.40945
-7.37839
-7.51633
-7.92852
-8.68795
-9.74535
-11.0739
-12.6575
-14.9329
-17.8139
-20.7918
-23.861
-27.0054
-30.1972
-33.4013
-36.5637
86.3649
87.6519
88.8728
89.5241
89.418
88.6441
87.2586
85.1233
82.1625
78.3682
73.7427
68.2594
61.8429
54.2197
46.3673
35.1068
85.1731
83.9662
82.7874
81.6673
80.6226
79.657
78.7751
78.0501
77.4593
76.8975
76.3814
75.9141
75.4937
75.1522
74.8676
74.6153
74.396
74.2101
74.0561
73.932
73.8355
73.7638
73.7137
73.6821
73.6655
73.6616
73.664
73.6752
73.6793
29.0162
20.8121
11.0007
1.3642
-7.0635
-13.4619
-17.5697
-19.6763
-19.804
-18.781
-17.5083
-16.0687
-14.5309
-12.9729
-11.629
-10.6
-9.85736
-9.3812
-9.15564
-9.16648
-9.35789
-9.84111
-10.6925
-11.8598
-13.3126
-15.4789
-18.2635
-21.1478
-24.1251
-27.1759
-30.2877
-33.4333
-36.5703
-39.6456
86.304
87.6929
89.1165
90.0827
90.3452
89.9278
88.9181
87.1884
84.6324
81.2379
77.0205
71.9841
66.0841
59.22
51.0211
42.4765
30.196
85.0581
83.8244
82.6371
81.5197
80.4779
79.5186
78.7295
78.0879
77.4704
76.8975
76.3734
75.8961
75.5071
75.181
74.8871
74.6274
74.403
74.2132
74.0563
73.9303
73.8326
73.7603
73.7102
73.6789
73.663
73.66
73.6631
73.6752
73.6799
23.4816
14.3751
3.69395
-6.20798
-14.1963
-19.6041
-22.5791
-23.1588
-22.3156
-21.1319
-19.7234
-18.1682
-16.5321
-14.8939
-13.4953
-12.4389
-11.6911
-11.2284
-11.0328
-11.0886
-11.3375
-11.8967
-12.8458
-14.1281
-16.1615
-18.8335
-21.6133
-24.4921
-27.4495
-30.464
-33.5245
-36.6024
-39.6508
-42.6179
86.1892
87.6543
89.2364
90.4742
91.0855
91.0418
90.4163
89.1021
86.965
83.9772
80.1631
75.5487
70.128
63.8293
56.5233
47.7296
38.4119
24.9362
84.9064
83.6585
82.4711
81.3547
80.3181
79.4651
78.774
78.1008
77.4704
76.888
76.3514
75.9133
75.5441
75.2067
74.9038
74.6378
74.4084
74.2147
74.0551
73.9274
73.8287
73.756
73.7061
73.6754
73.6603
73.6582
73.6622
73.6752
73.6805
17.402
7.14423
-4.40247
-14.2552
-21.4374
-25.528
-26.6706
-26.0641
-25.0141
-23.657
-22.1002
-20.4198
-18.678
-16.9545
-15.4973
-14.4116
-13.6583
-13.2101
-13.0464
-13.1504
-13.4608
-14.1006
-15.1519
-17.011
-19.5432
-22.2001
-24.9685
-27.8255
-30.7448
-33.7052
-36.6936
-39.6827
-42.6217
-45.4596
86.0305
87.5497
89.2517
90.7165
91.6385
91.9531
91.7269
90.8463
89.1448
86.5773
83.1676
78.9613
73.9812
68.2038
61.5232
53.7803
44.3683
34.1757
19.2698
84.7258
83.4739
82.2849
81.1721
80.2559
79.5174
78.7891
78.1008
77.4593
76.8615
76.373
75.9599
75.5772
75.229
74.9184
74.6461
74.4119
74.2146
74.0525
73.9231
73.8237
73.7509
73.7014
73.6716
73.6575
73.6564
73.6613
73.6753
73.6811
10.5892
-1.19445
-13.3272
-22.7391
-28.5465
-30.3939
-30.0842
-29.1788
-27.9014
-26.3572
-24.6404
-22.8257
-20.9719
-19.1581
-17.6391
-16.5226
-15.7637
-15.3308
-15.2011
-15.3561
-15.7318
-16.456
-18.0779
-20.4256
-22.9286
-25.5656
-28.3087
-31.1261
-33.9903
-36.8771
-39.7732
-42.653
-45.462
-48.1506
85.8371
87.3912
89.18
90.8272
92.0221
92.6589
92.8095
92.389
91.1537
89.0253
86.0296
82.2239
77.6602
72.3476
66.2408
59.1948
51.019
40.9588
29.781
13.1325
84.5227
83.2658
82.0779
81.1005
80.317
79.5348
78.7891
78.0878
77.4274
76.8882
76.4309
76.0019
75.6063
75.2487
74.9305
74.6521
74.4131
74.2124
74.048
73.9174
73.8174
73.7449
73.6963
73.6675
73.6545
73.6546
73.6604
73.6754
73.6818
2.69491
-10.9827
-23.2372
-31.2269
-34.4488
-34.4468
-33.7304
-32.5038
-30.9725
-29.2285
-27.3424
-25.386
-23.4146
-21.5067
-19.9232
-18.7748
-18.0101
-17.5937
-17.5
-17.7088
-18.1527
-19.4382
-21.534
-23.8338
-26.3047
-28.9103
-31.6111
-34.3724
-37.1633
-39.9576
-42.7419
-45.4921
-48.1518
-50.6722
85.6167
87.1901
89.0372
90.8243
92.2542
93.1782
93.6595
93.678
92.9552
91.3049
88.7401
85.3378
81.1725
76.2891
70.6774
64.2684
56.8709
48.2692
37.5377
25.2877
6.44879
84.2923
83.0335
81.9961
81.1713
80.3369
79.5348
78.774
78.0499
77.4599
76.959
76.4832
76.039
75.6323
75.2656
74.9398
74.6554
74.4119
74.2081
74.0417
73.9101
73.8102
73.7384
73.6908
73.6633
73.6515
73.6527
73.6595
73.6754
73.6826
-6.85514
-23.4025
-33.3136
-38.5567
-39.3073
-38.734
-37.5913
-36.0252
-34.2172
-32.2616
-30.2005
-28.0968
-26.0041
-23.9996
-22.3501
-21.169
-20.399
-20.0001
-19.9442
-20.2086
-21.2092
-22.9483
-24.9716
-27.2234
-29.6531
-32.2112
-34.8537
-37.5419
-40.2414
-42.9246
-45.5786
-48.1802
-50.672
-53.0074
85.3644
86.9552
88.8382
90.7254
92.3526
93.5296
94.2993
94.7012
94.4857
93.3779
91.2869
88.2995
84.526
80.042
74.8771
68.9994
62.3124
54.5803
45.5763
34.153
20.8079
-0.856131
84.0337
82.9411
82.0779
81.1941
80.3369
79.5174
78.7292
78.089
77.5454
77.023
76.5295
76.0725
75.6549
75.2789
74.9457
74.6555
74.4079
74.2013
74.0333
73.9013
73.802
73.7313
73.685
73.6588
73.6483
73.6507
73.6586
73.6755
73.6833
-20.5442
-36.9956
-43.3278
-44.7015
-44.4048
-43.2043
-41.6195
-39.7143
-37.6205
-35.4424
-33.2039
-30.9507
-28.735
-26.6332
-24.9173
-23.7038
-22.9291
-22.5491
-22.5318
-23.354
-24.7905
-26.425
-28.3792
-30.5765
-32.9505
-35.446
-38.0143
-40.6122
-43.2023
-45.7571
-48.263
-50.698
-53.0056
-55.1379
85.0805
86.6818