/*--------------------------------*- C++ -*----------------------------------*\
  =========                 |
  \\      /  F ield         | OpenFOAM: The Open Source CFD Toolbox
   \\    /   O peration     | Website:  https://openfoam.org
    \\  /    A nd           | Version:  8
     \\/     M anipulation  |
\*---------------------------------------------------------------------------*/
FoamFile
{
    version     2.0;
    format      ascii;
    class       volScalarField;
    location    "300";
    object      nut;
}
// * * * * * * * * * * * * * * * * * * * * * * * * * * * * * * * * * * * * * //

dimensions      [0 2 -1 0 0 0 0];

internalField   nonuniform List<scalar> 
15677
(
7.4799e-05
0.000154173
8.20042e-05
0.000258016
0.000137613
8.01545e-05
0.000722415
0.000177814
0.000111478
7.67035e-05
0.001806
0.000374858
0.000147543
0.000108616
7.42835e-05
0.00331825
0.000873541
0.000310314
0.000125448
0.000111442
7.2691e-05
0.00477634
0.00171997
0.000665344
0.000257534
0.000122942
0.000117703
7.16943e-05
0.00581854
0.0028408
0.00126588
0.000566603
0.000234018
0.000123096
0.000124264
7.0988e-05
0.0063665
0.00405886
0.00211288
0.00106485
0.000504638
0.000212551
0.000127172
0.000129352
7.05181e-05
0.00658969
0.00517052
0.0031444
0.00176644
0.000947065
0.000461361
0.000205305
0.000135515
0.000134084
7.01376e-05
0.00667777
0.00598072
0.00423162
0.00264947
0.00156238
0.00086832
0.000427964
0.000196469
0.000145033
0.000136567
6.98754e-05
0.00671615
0.00641388
0.00521231
0.00364239
0.00234421
0.00142908
0.000808095
0.000401433
0.000192076
0.000153619
0.000139282
6.97204e-05
0.00671482
0.00659627
0.00595681
0.00462943
0.00325105
0.0021405
0.00133249
0.000759022
0.000377339
0.000192666
0.000161885
0.000141433
6.96689e-05
0.00670858
0.00668361
0.00639453
0.00548088
0.00420163
0.00297783
0.00199453
0.00125738
0.000717711
0.000357954
0.00019537
0.000169062
0.000143072
6.96946e-05
0.00670622
0.00670342
0.00659106
0.00609892
0.0050867
0.00388325
0.00277807
0.00188386
0.00119537
0.000682976
0.000340172
0.000199147
0.00017567
0.000144285
6.97844e-05
0.00670584
0.00670341
0.00667466
0.00645426
0.00580038
0.00476806
0.00364098
0.00262613
0.00179555
0.00114402
0.000649064
0.000328039
0.000204213
0.000180891
0.00014525
6.99685e-05
0.00670591
0.00670175
0.00669496
0.00661938
0.00628309
0.00553156
0.0045116
0.00345227
0.0025062
0.00172397
0.00109862
0.000620471
0.00031959
0.000209135
0.000185703
0.000145904
7.02476e-05
0.006706
0.00670097
0.00669787
0.0066743
0.00654086
0.00609622
0.00529908
0.00430386
0.0033019
0.00240984
0.0016636
0.00105857
0.000595452
0.000314003
0.000214444
0.000189196
0.000146359
7.06092e-05
0.00670604
0.00670075
0.00669749
0.00668924
0.00664242
0.00643978
0.00592084
0.00510049
0.00413411
0.00318026
0.00233058
0.00161248
0.00102297
0.000575646
0.000310815
0.000218884
0.000192721
0.000146522
7.10532e-05
0.00670606
0.0067007
0.00669702
0.00669232
0.00667637
0.00659539
0.00633615
0.00576027
0.00493179
0.00399413
0.00308073
0.00226502
0.00156805
0.000993135
0.000559347
0.000309043
0.000223503
0.000194931
0.000146451
7.15776e-05
0.00670608
0.00670067
0.00669682
0.0066925
0.00668633
0.00665562
0.00654068
0.00622993
0.00561635
0.00478846
0.00387848
0.00299871
0.00221024
0.00153113
0.000967202
0.000546394
0.000308807
0.000227301
0.000196846
0.000146245
7.21798e-05
0.0067061
0.00670063
0.00669678
0.00669223
0.00668866
0.0066767
0.00662915
0.00648051
0.00612766
0.00548904
0.00466746
0.00378235
0.00293123
0.00216482
0.0014993
0.000946595
0.000536803
0.000309375
0.00023102
0.000198075
0.000145832
7.28555e-05
0.00670611
0.0067006
0.00669678
0.00669202
0.00668898
0.00668301
0.00666446
0.00659769
0.00641817
0.00603258
0.00537801
0.00456507
0.00370328
0.00287664
0.00212719
0.00147462
0.000929388
0.000530796
0.00031109
0.000234153
0.000199173
0.00014524
7.35991e-05
0.00670611
0.00670057
0.00669679
0.00669189
0.00668892
0.00668446
0.00667707
0.00664864
0.00656313
0.00635701
0.00594583
0.00528169
0.00448007
0.00363852
0.00283154
0.00209853
0.00145396
0.00091764
0.000527099
0.000313082
0.000237047
0.000199873
0.000144486
7.44045e-05
0.00670611
0.00670055
0.0066968
0.00669181
0.00668884
0.00668457
0.00668102
0.00666863
0.00663099
0.00652737
0.00629813
0.00586845
0.00520035
0.0044095
0.00358745
0.00279731
0.0020759
0.0014409
0.000909045
0.000526194
0.000316273
0.000238907
0.000200081
0.00014361
7.52658e-05
0.00670609
0.00670054
0.00669681
0.00669175
0.00668879
0.00668441
0.00668203
0.0066756
0.00666012
0.00661141
0.00649128
0.00624461
0.00580108
0.00513135
0.00435346
0.00354728
0.00277234
0.00206235
0.00143127
0.00090571
0.000527081
0.000319638
0.000241146
0.000200058
0.000142611
7.6175e-05
0.00670607
0.00670055
0.00669681
0.0066917
0.00668876
0.00668426
0.00668217
0.00667763
0.00667153
0.00664943
0.00659155
0.00645813
0.0061955
0.00574308
0.0050771
0.00431051
0.0035189
0.00275661
0.00205312
0.00142829
0.000905959
0.000531049
0.000322842
0.000243175
0.000199752
0.000141518
7.71259e-05
0.00670605
0.00670056
0.0066968
0.00669166
0.00668875
0.00668416
0.00668211
0.00667803
0.00667554
0.00666515
0.00663979
0.00657249
0.00642564
0.00615474
0.00569779
0.00503336
0.00427818
0.0035
0.00274935
0.00205526
0.00143162
0.0009095
0.000535833
0.0003269
0.000244714
0.000199238
0.000140342
7.81099e-05
0.00670603
0.00670059
0.00669678
0.00669163
0.00668875
0.00668408
0.00668202
0.00667797
0.00667671
0.00667102
0.00666124
0.00662907
0.00655424
0.00640168
0.0061186
0.00565795
0.00500399
0.00426294
0.00349757
0.00275551
0.00206212
0.0014385
0.000916432
0.000542219
0.000331245
0.00024603
0.000198511
0.000139099
7.91208e-05
0.006706
0.00670061
0.00669675
0.00669163
0.00668875
0.00668401
0.00668194
0.00667784
0.00667691
0.00667289
0.00666997
0.00665505
0.00662124
0.00654098
0.00637569
0.00609435
0.00564148
0.00499237
0.00425921
0.00350174
0.00276389
0.00207422
0.00144991
0.000926962
0.000550785
0.000336164
0.000247215
0.000197645
0.000137812
8.01427e-05
0.00670598
0.00670064
0.00669672
0.00669163
0.00668875
0.00668395
0.00668189
0.00667772
0.00667683
0.00667327
0.00667312
0.0066661
0.00665354
0.00661385
0.00652765
0.00636535
0.00608573
0.00563
0.00498685
0.00426239
0.00351388
0.00278086
0.00209256
0.00146721
0.000940784
0.000560932
0.000341425
0.000248201
0.000196612
0.000136541
8.12907e-05
0.00670596
0.00670067
0.00669668
0.00669165
0.00668874
0.0066839
0.00668185
0.00667763
0.0066767
0.00667322
0.006674
0.0066703
0.00666793
0.00664995
0.00661228
0.0065265
0.00636279
0.00607997
0.00562692
0.00499148
0.00427824
0.00353793
0.00280962
0.00211958
0.00148967
0.000957676
0.000572769
0.000346927
0.00024912
0.000195506
0.000135154
8.25681e-05
0.00670594
0.0067007
0.00669665
0.00669169
0.00668873
0.00668386
0.00668182
0.00667754
0.00667656
0.00667308
0.0066741
0.00667156
0.00667377
0.00666668
0.00665485
0.00661506
0.00652913
0.00636544
0.00608336
0.00563888
0.00501447
0.00430934
0.00357409
0.00284717
0.0021538
0.00151689
0.000977543
0.000585961
0.000352984
0.000249905
0.000194138
0.000133659
8.38342e-05
0.00670593
0.00670072
0.00669662
0.00669172
0.00668871
0.00668384
0.0066818
0.00667747
0.00667642
0.00667293
0.00667398
0.00667177
0.00667573
0.00667376
0.00667494
0.00666217
0.00662272
0.00653867
0.00637698
0.00610419
0.00566822
0.00505175
0.00435365
0.00362152
0.0028929
0.00219507
0.00154862
0.00100018
0.000600798
0.000359365
0.000250792
0.000192436
0.0001322
8.50815e-05
0.00670592
0.00670074
0.00669659
0.00669176
0.00668868
0.00668382
0.00668178
0.0066774
0.0066763
0.00667281
0.00667379
0.00667166
0.00667621
0.00667624
0.00668382
0.00668537
0.00667253
0.00663765
0.00655873
0.0064048
0.00614029
0.0057129
0.00510444
0.00441128
0.00368007
0.00294796
0.00224206
0.00158579
0.0010258
0.000616605
0.000367298
0.000251961
0.000190626
0.000130807
8.63017e-05
0.00670075
0.00670591
0.00669657
0.00669179
0.00668864
0.00668382
0.00668176
0.00667733
0.00667619
0.00667272
0.0066736
0.00667148
0.0066762
0.0066769
0.00668716
0.00669606
0.00669744
0.00669092
0.00666516
0.00659274
0.00644774
0.00619245
0.00577459
0.0051725
0.00448281
0.00375015
0.00301167
0.00229582
0.0016274
0.00105393
0.000635411
0.000376696
0.000253215
0.00018875
0.000129458
8.74859e-05
0.00669655
0.00670078
0.00670591
0.00669181
0.00668861
0.00668382
0.00668173
0.00667727
0.00667609
0.00667266
0.00667342
0.00667131
0.00667603
0.00667693
0.00668823
0.00670033
0.00670918
0.0067181
0.00672371
0.00670417
0.00664194
0.00650708
0.00626288
0.00585361
0.00525725
0.00456826
0.0038314
0.00308451
0.00235595
0.00167303
0.00108865
0.000657833
0.000386518
0.000254635
0.000186853
0.000128192
8.86319e-05
0.00669183
0.00669656
0.00670083
0.00670591
0.00668858
0.00668384
0.00668169
0.00667722
0.00667601
0.00667263
0.00667324
0.00667118
0.00667582
0.00667675
0.00668845
0.00670183
0.00671408
0.00673127
0.0067544
0.00676666
0.00675871
0.00670811
0.00658569
0.00635216
0.00595164
0.00535824
0.00466791
0.00392449
0.00316571
0.00242243
0.00172855
0.00113012
0.00068147
0.000396984
0.000256143
0.000184951
0.000126947
8.97312e-05
0.00668855
0.00669187
0.00669659
0.00670087
0.00670591
0.00668386
0.00668165
0.00667719
0.00667593
0.00667262
0.00667308
0.00667111
0.00667561
0.00667653
0.00668837
0.00670226
0.00671594
0.00673708
0.00676995
0.00680038
0.00682555
0.0068302
0.00679418
0.0066852
0.00646367
0.00606907
0.00547711
0.00478204
0.00402828
0.00325584
0.00250289
0.00179617
0.00117523
0.000706506
0.000408043
0.000257855
0.000183155
0.000125728
9.07859e-05
0.00668388
0.00668856
0.00669195
0.00669663
0.00670092
0.00670591
0.0066816
0.00667718
0.00667586
0.00667262
0.00667292
0.00667109
0.00667539
0.00667633
0.00668819
0.00670226
0.00671659
0.00673954
0.00677732
0.006818
0.00686253
0.00690141
0.0069224
0.00690122
0.00680699
0.00659674
0.00620841
0.00561402
0.00491038
0.00414416
0.00336489
0.00260071
0.00186911
0.00122406
0.000732617
0.000419637
0.000259622
0.000181488
0.000124578
9.17888e-05
0.00668155
0.00668396
0.0066886
0.00669203
0.00669667
0.00670096
0.00670591
0.0066772
0.00667579
0.00667264
0.00667277
0.0066711
0.00667517
0.00667616
0.00668797
0.0067021
0.00671674
0.00674059
0.00678081
0.00682697
0.00688327
0.00694257
0.00699884
0.00703496
0.00703067
0.00695098
0.00675242
0.00636735
0.00577027
0.00505415
0.00428396
0.00349775
0.0027064
0.00194712
0.00127527
0.000759834
0.000431559
0.000261598
0.000179927
0.000123465
9.27444e-05
0.00667723
0.00668153
0.00668411
0.00668864
0.00669211
0.00669671
0.00670101
0.00670592
0.00667571
0.00667267
0.00667263
0.00667114
0.00667492
0.00667604
0.00668774
0.00670187
0.00671669
0.00674104
0.00678258
0.00683181
0.00689495
0.00696728
0.00704637
0.00712043
0.00717554
0.00718502
0.00711696
0.00692768
0.0065456
0.00594287
0.00523127
0.00445774
0.00364242
0.00281968
0.00202969
0.00132867
0.000787779
0.000443883
0.000263591
0.000178466
0.000122446
9.36479e-05
0.00667562
0.00667736
0.00668154
0.00668426
0.00668868
0.0066922
0.00669675
0.00670105
0.00670592
0.0066727
0.00667248
0.0066712
0.00667466
0.00667597
0.00668748
0.00670161
0.00671653
0.00674121
0.00678358
0.00683468
0.00690194
0.0069822
0.0070765
0.00717489
0.0072708
0.00734361
0.00737036
0.00731124
0.00712424
0.00674066
0.00615124
0.00544574
0.00464583
0.00379745
0.0029399
0.00211621
0.00138402
0.000816595
0.000456403
0.000265781
0.000177125
0.000121458
9.45033e-05
0.00667273
0.00667553
0.00667758
0.00668155
0.00668442
0.00668872
0.0066923
0.00669679
0.0067011
0.00670593
0.00667233
0.00667127
0.00667438
0.00667595
0.00668721
0.00670133
0.00671632
0.00674124
0.00678418
0.00683664
0.00690666
0.00699203
0.0070966
0.00721186
0.00733482
0.00745056
0.0075437
0.00758399
0.00753504
0.00734825
0.00697699
0.00639869
0.005674
0.00484487
0.00396061
0.00306551
0.00220598
0.00144117
0.000845821
0.000469179
0.000268068
0.000175871
0.000120575
9.53093e-05
0.00667217
0.00667283
0.00667547
0.0066778
0.00668156
0.00668458
0.00668876
0.0066924
0.00669683
0.00670114
0.00670593
0.00667134
0.0066741
0.006676
0.0066869
0.00670106
0.00671609
0.00674119
0.00678455
0.00683812
0.00691019
0.00699935
0.00711121
0.0072385
0.00738171
0.00752673
0.00766599
0.00777547
0.00782921
0.00778636
0.00762591
0.00727354
0.00666663
0.00591084
0.00505034
0.00412935
0.00319574
0.00229855
0.00149956
0.000875693
0.000481618
0.000270597
0.000174761
0.000119716
9.60683e-05
0.0066714
0.00667198
0.00667299
0.00667543
0.00667801
0.00668158
0.00668474
0.0066888
0.0066925
0.00669687
0.00670119
0.00670594
0.00667381
0.00667611
0.00668656
0.0067008
0.00671587
0.00674111
0.00678481
0.00683933
0.00691305
0.00700536
0.00712291
0.00725921
0.00741851
0.00758638
0.0077585
0.00791676
0.0080434
0.00810637
0.00809703
0.00796858
0.00759872
0.00695819
0.00616022
0.00526056
0.00430215
0.00332858
0.00239278
0.00155898
0.000905757
0.000493854
0.000273083
0.000173698
0.000118959
9.6782e-05
0.00667354
0.00667146
0.00667177
0.00667315
0.00667542
0.00667822
0.00668161
0.0066849
0.00668885
0.0066926
0.00669692
0.00670123
0.00670595
0.00667626
0.00668619
0.00670059
0.00671567
0.00674103
0.00678502
0.00684038
0.0069155
0.00701061
0.0071329
0.0072767
0.00744918
0.00763608
0.00783583
0.00802996
0.00820928
0.00834811
0.0084514
0.00848337
0.00834408
0.00794711
0.00726741
0.00642357
0.00547416
0.00447521
0.00346261
0.00248831
0.00161893
0.00093656
0.000505865
0.000275798
0.000172799
0.000118227
9.74507e-05
0.00667646
0.00667311
0.00667152
0.00667157
0.00667331
0.00667543
0.00667842
0.00668166
0.00668506
0.0066889
0.00669271
0.00669697
0.00670128
0.00670596
0.00668578
0.00670045
0.00671553
0.00674098
0.00678523
0.00684132
0.00691767
0.00701534
0.00714176
0.00729232
0.00747626
0.0076791
0.00790432
0.00813034
0.00834982
0.00854432
0.00873067
0.0088844
0.00891015
0.00874952
0.008316
0.0075896
0.00669763
0.0056957
0.00464944
0.00359735
0.00258407
0.0016791
0.000967553
0.000517676
0.000278368
0.000171906
0.00011758
9.8079e-05
0.00668535
0.00667655
0.00667247
0.00667159
0.0066714
0.00667346
0.00667547
0.0066786
0.00668173
0.00668521
0.00668897
0.00669282
0.00669702
0.00670133
0.00670596
0.00670042
0.00671546
0.00674099
0.00678545
0.0068422
0.00691966
0.0070197
0.00714979
0.00730669
0.00750092
0.00771803
0.00796664
0.00822355
0.00848075
0.00871918
0.00896966
0.00921652
0.009368
0.00937548
0.00918255
0.00870282
0.00792253
0.00697717
0.0059221
0.00482239
0.00373042
0.00267931
0.00173915
0.000998356
0.000529263
0.000280929
0.000171169
0.000116965
9.86654e-05
0.00670053
0.00668419
0.00667655
0.00667182
0.00667165
0.00667128
0.0066736
0.00667554
0.00667876
0.00668181
0.00668535
0.00668905
0.00669292
0.00669707
0.00670137
0.00670597
0.00671547
0.00674105
0.00678569
0.00684303
0.0069215
0.00702374
0.00715716
0.00732009
0.00752366
0.00775428
0.00802509
0.00831035
0.00860684
0.00889029
0.00919519
0.00951775
0.0097668
0.00990287
0.00987922
0.00964202
0.00910556
0.00826394
0.00726041
0.00615172
0.00499749
0.0038617
0.00277348
0.00179869
0.00102894
0.000540599
0.000283554
0.000170431
0.000116414
9.92159e-05
0.00671556
0.00670019
0.00668205
0.0066766
0.0066712
0.00667169
0.00667121
0.00667373
0.00667564
0.0066789
0.00668192
0.00668548
0.00668913
0.00669302
0.00669712
0.00670141
0.00670598
0.00674117
0.00678593
0.0068438
0.00692321
0.00702747
0.00716397
0.00733262
0.00754474
0.00778852
0.00808052
0.00839225
0.00872799
0.0090633
0.00942716
0.00981786
0.01015
0.0103889
0.0104952
0.0104246
0.0101284
0.00952299
0.00861207
0.00754592
0.00638096
0.00517326
0.00399094
0.00286611
0.00185744
0.00105919
0.000551694
0.000286067
0.000169823
0.000115901
9.9728e-05
0.00674135
0.00671461
0.00669946
0.00667983
0.00667661
0.00667066
0.0066717
0.0066712
0.00667383
0.00667577
0.00667903
0.00668204
0.00668561
0.00668923
0.00669311
0.00669717
0.00670145
0.00670599
0.00678615
0.0068445
0.00692478
0.0070309
0.00717024
0.00734429
0.00756429
0.00782095
0.00813295
0.00847026
0.0088466
0.00923599
0.00966803
0.01014
0.0105568
0.0108914
0.0111038
0.0111577
0.0110176
0.0106432
0.00995448
0.00896556
0.00783228
0.00660868
0.00534825
0.00411795
0.00295695
0.00191513
0.00108894
0.000562496
0.000288616
0.00016922
0.000115431
0.000100209
0.00678638
0.00673964
0.00671249
0.00669877
0.0066778
0.00667647
0.00667026
0.00667165
0.00667126
0.00667391
0.00667593
0.00667915
0.00668218
0.00668573
0.00668932
0.0066932
0.00669723
0.00670148
0.006706
0.00684512
0.00692619
0.007034
0.00717597
0.00735506
0.00758236
0.00785156
0.00818225
0.00854504
0.00896369
0.00940719
0.00990839
0.0104914
0.0110311
0.011475
0.0117884
0.0119382
0.0119032
0.0116628
0.0111873
0.0103993
0.00932319
0.00811827
0.00683404
0.00552131
0.00424213
0.00304546
0.00197148
0.00111809
0.000573029
0.000291011
0.000168715
0.000115007
0.000100655
0.00684571
0.00678336
0.00673582
0.0067103
0.00669789
0.00667634
0.00667612
0.00667002
0.00667154
0.00667137
0.00667398
0.0066761
0.00667926
0.00668232
0.00668584
0.00668942
0.00669329
0.00669728
0.00670152
0.00670601
0.00692743
0.00703675
0.00718116
0.00736489
0.00759897
0.00788021
0.0082283
0.00861686
0.00907828
0.00957421
0.0101484
0.0108748
0.0116071
0.0122173
0.0126409
0.0128715
0.0129018
0.0127327
0.0123586
0.0117587
0.0108557
0.00968358
0.00840278
0.00705624
0.00569164
0.00436369
0.00313116
0.0020263
0.00114652
0.000583221
0.000293435
0.000168222
0.000114606
0.000101018
0.00692856
0.00684158
0.00677682
0.00673199
0.00670807
0.00669632
0.00667541
0.00667554
0.00666994
0.00667139
0.00667154
0.00667403
0.00667629
0.00667937
0.00668246
0.00668595
0.00668951
0.00669337
0.00669733
0.00670155
0.00670602
0.00703915
0.00718577
0.00737376
0.00761413
0.00790677
0.00827106
0.00868557
0.00918853
0.00973526
0.0103948
0.0113065
0.0122881
0.0131499
0.0137375
0.0140432
0.0141144
0.0139705
0.013629
0.0130945
0.0123517
0.0113207
0.010045
0.0086847
0.00727457
0.00585821
0.00448309
0.00321404
0.00207941
0.00117416
0.00059312
0.000295683
0.000167802
0.000114302
0.000101322
0.00704128
0.0069227
0.00683231
0.00677022
0.00672831
0.00670587
0.0066943
0.00667495
0.00667474
0.00667
0.00667119
0.00667174
0.00667408
0.00667647
0.00667948
0.0066826
0.00668606
0.0066896
0.00669345
0.00669738
0.00670159
0.00670603
0.00718979
0.00738164
0.00762783
0.00793112
0.00831053
0.00875071
0.00929277
0.00989078
0.0106553
0.0117921
0.0130551
0.0141958
0.0150269
0.0154654
0.015573
0.0154379
0.0150919
0.0145604
0.0138527
0.0129567
0.0117899
0.0104053
0.00896284
0.00748832
0.00602012
0.0045997
0.00329407
0.00213072
0.00120091
0.00060264
0.000297951
0.000167454
0.000114033
0.000101652
0.00719333
0.00703323
0.0069092
0.00682318
0.00676375
0.00672486
0.00670362
0.00669182
0.00667488
0.0066738
0.00667017
0.00667099
0.00667196
0.00667414
0.00667665
0.0066796
0.00668273
0.00668617
0.00668969
0.00669352
0.00669743
0.00670162
0.00670603
0.00738853
0.00764007
0.00795322
0.00834672
0.00881177
0.00939018
0.0100427
0.0109333
0.0123182
0.0138576
0.0152513
0.0163146
0.0169696
0.0171981
0.0170899
0.0167481
0.016206
0.0154901
0.014612
0.0135625
0.0122578
0.0107619
0.00923593
0.00769679
0.0061771
0.00471303
0.00337118
0.00218012
0.00122675
0.000611848
0.000299759
0.000167174
0.000113769
0.000102009
0.00739454
0.00718235
0.00701395
0.00689584
0.00681449
0.00675756
0.00672158
0.00670168
0.00668882
0.00667509
0.0066728
0.00667039
0.00667081
0.00667216
0.00667422
0.00667681
0.00667973
0.00668285
0.00668628
0.00668977
0.0066936
0.00669747
0.00670165
0.00670604
0.00765087
0.00797305
0.00837969
0.00886833
0.00948072
0.0101928
0.0112259
0.0128586
0.0146369
0.0162238
0.0174592
0.0183018
0.018742
0.0187764
0.0184854
0.0179709
0.0172625
0.0163852
0.0153519
0.0141573
0.0127185
0.0111119
0.00950264
0.00789931
0.00632885
0.00482271
0.00344532
0.00222761
0.00125159
0.000619467
0.000301371
0.000166875
0.000113459
0.000102397
0.00766034
0.00738018
0.00715513
0.00699482
0.00688298
0.00680612
0.00675168
0.00671846
0.00670034
0.00668562
0.00667542
0.00667185
0.00667059
0.00667069
0.00667233
0.00667432
0.00667695
0.00667985
0.00668297
0.00668638
0.00668986
0.00669367
0.00669752
0.00670167
0.00670604
0.00799067
0.00840948
0.00892022
0.00956492
0.010342
0.0115252
0.0133859
0.0153476
0.0170565
0.0183916
0.0193552
0.0199684
0.0202299
0.0201232
0.0197032
0.0190636
0.018229
0.0172216
0.0160558
0.0147306
0.0131661
0.0114525
0.0097615
0.0080952
0.00647508
0.00492848
0.00351646
0.00227305
0.00127225
0.000626039
0.000303104
0.000166557
0.000113163
0.000102816
0.00800606
0.00764155
0.00734252
0.00712812
0.00697632
0.00687055
0.00679798
0.00674602
0.00671546
0.00669924
0.00668245
0.0066757
0.00667106
0.00667073
0.00667064
0.00667247
0.00667444
0.00667709
0.00667999
0.00668308
0.00668649
0.00668994
0.00669374
0.00669753
0.00670167
0.00670604
0.00843621
0.00896743
0.00964347
0.01049
0.0118214
0.0138785
0.0159653
0.0177309
0.0190997
0.0201167
0.0208341
0.021272
0.0214135
0.0212228
0.0207274
0.0200099
0.0190894
0.0179852
0.0167123
0.0152741
0.0135954
0.0117807
0.010011
0.00828375
0.00661553
0.00503009
0.00358451
0.00231078
0.00128996
0.000633278
0.000305071
0.000166225
0.000112809
0.00010327
0.00845968
0.00798256
0.00758982
0.0073051
0.00710195
0.00695839
0.00685848
0.00679
0.00674052
0.00671266
0.00669821
0.00667957
0.00667578
0.0066705
0.00667077
0.00667066
0.00667258
0.00667458
0.00667721
0.00668012
0.00668319
0.00668659
0.00669002
0.00669377
0.00669753
0.00670167
0.00670604
0.00901017
0.009717
0.0106351
0.0121054
0.0143235
0.0164836
0.0182539
0.0196051
0.0206197
0.0213771
0.0219182
0.0222432
0.0223184
0.0220918
0.0215655
0.0208105
0.01984
0.0186696
0.0173143
0.0157819
0.0140023
0.0120941
0.0102496
0.0084641
0.00674993
0.00512747
0.00364099
0.00234298
0.00130955
0.000641376
0.000307255
0.000165869
0.000112478
0.000103764
0.00904778
0.00842959
0.00791262
0.00753847
0.00726876
0.00707658
0.00694099
0.00684671
0.00678209
0.00673537
0.00670994
0.00669712
0.00667735
0.00667555
0.00667018
0.00667073
0.00667075
0.00667266
0.00667473
0.00667732
0.00668026
0.00668329
0.00668669
0.00669005
0.00669378
0.00669753
0.00670167
0.00670604
0.00978599
0.0107755
0.0123701
0.0147157
0.0169077
0.0186457
0.0199433
0.0209145
0.0216606
0.0222408
0.0226721
0.022936
0.0229864
0.0227598
0.0222366
0.0214759
0.0204845
0.019274
0.0178588
0.0162501
0.0143836
0.0123905
0.0104762
0.00863548
0.00687779
0.0052077
0.0036891
0.00237853
0.00133129
0.000650346
0.000309651
0.000165508
0.000112083
0.000104295
0.00984856
0.00901039
0.00833504
0.00784307
0.00748856
0.00723346
0.00705193
0.00692405
0.0068352
0.00677422
0.00673059
0.00670721
0.00669561
0.00667609
0.00667502
0.00667008
0.00667063
0.00667087
0.00667272
0.00667489
0.00667742
0.0066804
0.00668339
0.00668675
0.00669005
0.00669378
0.00669753
0.00670167
0.00670604
0.0109093
0.0126111
0.0150557
0.0172488
0.0189304
0.0201516
0.021052
0.0217497
0.0223192
0.0227923
0.023165
0.0234057
0.0234606
0.0232593
0.0227636
0.0220206
0.0210309
0.0198014
0.0183454
0.0166768
0.0147368
0.012668
0.0106895
0.00879683
0.00698176
0.00527605
0.00374213
0.00241784
0.00135546
0.000660412
0.000312463
0.000165105
0.000111709
0.000104875
0.0110294
0.00980071
0.00888168
0.0082413
0.00777531
0.00744004
0.00719913
0.00702797
0.00690755
0.00682393
0.0067664
0.006726
0.00670447
0.00669331
0.00667557
0.0066743
0.00667012
0.00667049
0.00667103
0.00667278
0.00667505
0.00667753
0.00668053
0.00668344
0.00668675
0.00669005
0.00669378
0.00669753
0.00670167
0.00670604
0.0128299
0.0153476
0.0175202
0.0191313
0.0202636
0.0210764
0.0217009
0.0222237
0.0226892
0.0231065
0.0234567
0.0237001
0.0237796
0.0236206
0.0231691
0.0224603
0.0214888
0.0202567
0.0187754
0.0170612
0.0150603
0.0129251
0.010888
0.00892728
0.00706997
0.00535142
0.00380067
0.00246137
0.0013824
0.000671673
0.000315382
0.000164732
0.000111285
0.000105497
0.0109776
0.0130192
0.0096109
0.00875628
0.00814975
0.00770936
0.00739281
0.00716575
0.00700466
0.00689149
0.00681297
0.00675874
0.00672169
0.0067019
0.00669043
0.00667553
0.00667348
0.00667024
0.00667034
0.0066712
0.00667283
0.00667522
0.00667763
0.00668061
0.00668343
0.00668676
0.00669005
0.00669378
0.00669753
0.00670165
0.00670603
0.0155948
0.0177349
0.0192689
0.0203067
0.0210233
0.0215594
0.0220109
0.0224327
0.0228457
0.0232425
0.0235945
0.0238582
0.0239759
0.0238704
0.0234737
0.0228103
0.0218685
0.0206456
0.0191515
0.0174037
0.0153532
0.0131602
0.0110465
0.00903763
0.00716687
0.00543447
0.00386542
0.00250974
0.00141248
0.000684201
0.000319065
0.000164315
0.000110864
0.000106176
0.0106926
0.0129578
0.0158005
0.00943015
0.00863472
0.00806039
0.00764515
0.00734683
0.00713329
0.00698202
0.00687591
0.00680246
0.00675129
0.00671789
0.00670009
0.00668732
0.00667571
0.00667267
0.0066704
0.0066702
0.00667137
0.00667288
0.00667538
0.00667766
0.00668062
0.00668343
0.00668676
0.00669006
0.00669378
0.00669751
0.00670162
0.00670602
0.0179047
0.01936
0.0203025
0.0209198
0.0213596
0.0217242
0.0220771
0.0224495
0.0228449
0.0232447
0.0236148
0.0239107
0.0240756
0.0240306
0.0236953
0.0230841
0.0221795
0.0209745
0.0194768
0.0177055
0.0156151
0.0133449
0.0111801
0.00915855
0.00727346
0.00552604
0.00393701
0.00256337
0.00144612
0.000698687
0.000322522
0.000163989
0.000110428
0.000106903
0.0104093
0.012573
0.015728
0.0180359
0.00926062
0.00851596
0.00797323
0.0075826
0.00730211
0.00710176
0.00696007
0.00686089
0.0067926
0.00674449
0.00671451
0.00669882
0.00668431
0.00667594
0.00667194
0.00667055
0.00667009
0.00667155
0.00667294
0.00667548
0.00667764
0.00668063
0.00668343
0.00668675
0.00669006
0.00669374
0.00669747
0.00670158
0.00670601
0.0194176
0.0202673
0.0207861
0.0211265
0.0213953
0.0216625
0.021968
0.022326
0.0227274
0.0231459
0.0235451
0.0238817
0.0241
0.0241195
0.0238491
0.0232937
0.0224308
0.0212493
0.0197553
0.0179684
0.0158168
0.0134999
0.011326
0.00929112
0.00739097
0.00562719
0.0040168
0.002623
0.0014839
0.000714791
0.000327215
0.000163639
0.000109965
0.000107695
0.0101433
0.0121478
0.0153932
0.0179332
0.0194455
0.00909943
0.00839955
0.00788833
0.00752172
0.00725867
0.00707122
0.00693888
0.00684659
0.00678345
0.00673832
0.00671153
0.00669775
0.00668161
0.0066761
0.00667133
0.00667067
0.00667001
0.00667172
0.00667295
0.0066755
0.00667763
0.00668063
0.00668343
0.00668675
0.00669002
0.00669367
0.00669742
0.00670155
0.006706
0.020213
0.0206366
0.0208781
0.0210472
0.0212184
0.0214385
0.0217317
0.0220991
0.0225221
0.02297
0.0234065
0.0237899
0.0240657
0.0241518
0.0239476
0.0234495
0.0226307
0.0214763
0.0199912
0.0181662
0.0159851
0.0136686
0.0114855
0.00943659
0.00752062
0.00573881
0.00410584
0.00268948
0.00152635
0.00073359
0.000331357
0.000163351
0.000109542
0.000108541
0.00989616
0.0117195
0.0149691
0.0177114
0.0192992
0.0201415
0.00894399
0.00828556
0.00780576
0.00746256
0.00721659
0.0070417
0.00691862
0.00683331
0.00677499
0.00673275
0.00670887
0.00669675
0.00667938
0.00667609
0.00667085
0.00667075
0.00666995
0.00667184
0.0066729
0.00667552
0.00667763
0.00668062
0.00668344
0.0066867
0.00668994
0.0066936
0.00669737
0.00670152
0.00670599
0.0204817
0.020627
0.020696
0.0207659
0.0208884
0.0210966
0.0214019
0.0217947
0.0222499
0.0227349
0.0232148
0.0236498
0.023986
0.0241395
0.0240012
0.0235605
0.0227864
0.0216616
0.0201638
0.0183303
0.0161674
0.013852
0.0116597
0.00959629
0.00766376
0.00586222
0.00420534
0.00276381
0.00157434
0.000754525
0.000337429
0.000162996
0.000109053
0.00010946
0.00966546
0.0113067
0.0144816
0.017408
0.0191587
0.0199492
0.0203188
0.00879301
0.00817423
0.00772561
0.0074052
0.00717594
0.00701348
0.00689981
0.00682116
0.00676717
0.00672784
0.00670642
0.00669568
0.00667784
0.00667589
0.0066705
0.00667082
0.00666989
0.00667187
0.00667288
0.00667551
0.00667764
0.00668061
0.0066834
0.0066866
0.00668986
0.00669352
0.00669732
0.00670148
0.00670598
0.0203817
0.0203525
0.0203197
0.0203375
0.0204464
0.0206677
0.021002
0.0214312
0.0219259
0.022454
0.0229826
0.0234732
0.0238714
0.0240921
0.0240187
0.0236344
0.0229051
0.0217915
0.0203062
0.0185069
0.0163642
0.0140513
0.0118501
0.00977168
0.00782178
0.00599883
0.00431665
0.00284717
0.00162848
0.00077946
0.000342615
0.000162957
0.00010869
0.00011044
0.00944836
0.0109174
0.0139545
0.017049
0.0189506
0.0198497
0.020079
0.020135
0.00864605
0.00806583
0.00764802
0.00734977
0.00713709
0.00698727
0.00688265
0.00681001
0.00675993
0.00672359
0.00670407
0.00669409
0.00667689
0.00667555
0.00667024
0.00667085
0.00666983
0.00667189
0.00667288
0.0066755
0.00667766
0.00668054
0.0066833
0.00668649
0.00668978
0.00669345
0.00669727
0.00670144
0.00670597
0.0200243
0.01989
0.0197998
0.0198004
0.0199212
0.0201738
0.0205486
0.0210214
0.0215611
0.0221374
0.0227196
0.0232689
0.0237304
0.0240175
0.0240076
0.0236786
0.0229816
0.0218983
0.0204585
0.0186962
0.0165764
0.0142675
0.0120579
0.00996457
0.00799594
0.00615025
0.00444133
0.0029409
0.00169027
0.000807157
0.000350559
0.000162587
0.000108195
0.000111691
0.00924268
0.010555
0.0134037
0.0166423
0.0186992
0.019695
0.0199914
0.0198465
0.0196988
0.00850312
0.0079607
0.00757316
0.00729679
0.00710104
0.0069634
0.00686699
0.00679981
0.00675313
0.00671981
0.00670192
0.00669205
0.00667636
0.00667514
0.0066701
0.00667085
0.00666981
0.00667189
0.0066729
0.00667547
0.00667762
0.0066804
0.00668319
0.00668639
0.00668969
0.00669337
0.00669722
0.0067014
0.00670596
0.0194835
0.0192852
0.0191726
0.0191816
0.0193339
0.0196301
0.0200531
0.0205745
0.0211638
0.0217935
0.0224336
0.0230444
0.0235695
0.0239221
0.0239745
0.0236959
0.0230439
0.0220116
0.0206204
0.0188982
0.0168044
0.0145016
0.0122846
0.0101768
0.00818803
0.00631826
0.00458111
0.0030467
0.00176023
0.000840777
0.000357482
0.000162868
0.000107936
0.000113174
0.00904688
0.0102209
0.0128387
0.016188
0.0184156
0.0195108
0.0198567
0.0197528
0.019361
0.0190824
0.0083643
0.00785923
0.00750169
0.00724764
0.00706826
0.00694166
0.0068527
0.0067905
0.00674685
0.00671652
0.00670016
0.00668976
0.00667605
0.00667481
0.0066701
0.00667085
0.00666981
0.00667187
0.00667295
0.00667537
0.00667752
0.00668026
0.00668309
0.00668628
0.0066896
0.00669329
0.00669717
0.00670136
0.00670596
0.0187998
0.018573
0.0184633
0.0185021
0.018699
0.0190468
0.019523
0.0200963
0.0207404
0.0214287
0.0221311
0.0228053
0.0233945
0.0238119
0.0239308
0.0237094
0.0231088
0.0221305
0.0207913
0.0191129
0.0170487
0.0147544
0.0125314
0.0104099
0.00839998
0.00650486
0.004738
0.00316618
0.00184101
0.000878232
0.000367947
0.000162722
0.00010736