/*--------------------------------*- C++ -*----------------------------------*\
  =========                 |
  \\      /  F ield         | OpenFOAM: The Open Source CFD Toolbox
   \\    /   O peration     | Website:  https://openfoam.org
    \\  /    A nd           | Version:  8
     \\/     M anipulation  |
\*---------------------------------------------------------------------------*/
FoamFile
{
    version     2.0;
    format      ascii;
    class       volVectorField;
    location    "300";
    object      U;
}
// * * * * * * * * * * * * * * * * * * * * * * * * * * * * * * * * * * * * * //

dimensions      [0 1 -1 0 0 0 0];

internalField   nonuniform List<vector> 
15677
(
(-2.53854 9.06393 0)
(0.792669 10.3668 0)
(-1.33223 8.26482 0)
(0.128818 10.0152 0)
(0.667037 10.1117 0)
(-0.415144 7.73398 0)
(0.00637851 10.0051 0)
(-0.0361364 10.0874 0)
(0.294849 9.68004 0)
(-0.0847413 7.35027 0)
(0.0282755 10.0104 0)
(0.0130641 10.0516 0)
(-0.0470618 10.0468 0)
(0.0986636 9.2914 0)
(-0.00294323 7.07929 0)
(0.0300735 10.0104 0)
(0.0455283 10.0449 0)
(0.0452239 10.0707 0)
(-0.00452628 9.94019 0)
(0.0303602 8.9756 0)
(0.00795241 6.89113 0)
(0.0275112 10.0096 0)
(0.0398317 10.0408 0)
(0.0439782 10.063 0)
(0.0508267 10.0624 0)
(0.0199798 9.80233 0)
(0.0125942 8.71977 0)
(0.00556462 6.75896 0)
(0.0251538 10.0086 0)
(0.0369552 10.0374 0)
(0.0376637 10.0572 0)
(0.0383887 10.0713 0)
(0.0421257 10.0341 0)
(0.0253035 9.65305 0)
(0.0087293 8.51564 0)
(0.00295883 6.6633 0)
(0.0229522 10.0075 0)
(0.0352607 10.0344 0)
(0.0368619 10.0531 0)
(0.0371716 10.0681 0)
(0.0346507 10.0733 0)
(0.0338958 9.99219 0)
(0.0228855 9.50793 0)
(0.00727736 8.35764 0)
(0.00157046 6.59526 0)
(0.0206723 10.0065 0)
(0.0333648 10.0314 0)
(0.0358004 10.0496 0)
(0.0368841 10.0643 0)
(0.0357068 10.0772 0)
(0.032287 10.069 0)
(0.0285434 9.94151 0)
(0.018808 9.37481 0)
(0.00589181 8.23752 0)
(0.000830715 6.5466 0)
(0.0183285 10.0054 0)
(0.0312231 10.0282 0)
(0.0343252 10.0462 0)
(0.0356764 10.0607 0)
(0.0349769 10.0751 0)
(0.0331452 10.0835 0)
(0.0298499 10.0598 0)
(0.0246174 9.88735 0)
(0.0149078 9.25812 0)
(0.0043901 8.14817 0)
(0.000234783 6.51685 0)
(0.0159818 10.0044 0)
(0.0289093 10.025 0)
(0.0326508 10.0428 0)
(0.0342653 10.0573 0)
(0.0337292 10.0718 0)
(0.0321782 10.0846 0)
(0.0301212 10.0879 0)
(0.0268809 10.0486 0)
(0.021013 9.83314 0)
(0.0114002 9.16239 0)
(0.00278044 8.08411 0)
(-0.000294315 6.50458 0)
(0.0136852 10.0036 0)
(0.0264445 10.0217 0)
(0.0307733 10.0392 0)
(0.0327004 10.0539 0)
(0.0323526 10.0684 0)
(0.0309502 10.0824 0)
(0.0291392 10.0937 0)
(0.0267974 10.0921 0)
(0.0234044 10.0372 0)
(0.0172517 9.78254 0)
(0.00806724 9.08772 0)
(0.00114527 8.04166 0)
(-0.000754572 6.5063 0)
(0.0115015 10.0028 0)
(0.0238573 10.0185 0)
(0.0286626 10.0355 0)
(0.0309155 10.0503 0)
(0.0307734 10.065 0)
(0.0294828 10.0794 0)
(0.0277998 10.0933 0)
(0.0257403 10.1036 0)
(0.0230996 10.0973 0)
(0.0194604 10.0274 0)
(0.0131855 9.73846 0)
(0.00479789 9.03353 0)
(-0.000479795 8.02036 0)
(-0.00123734 6.52039 0)
(0.00964519 10.0022 0)
(0.0211845 10.0154 0)
(0.0263179 10.0315 0)
(0.0288739 10.0465 0)
(0.0289556 10.0613 0)
(0.0277495 10.076 0)
(0.0260863 10.0909 0)
(0.0241209 10.1056 0)
(0.0217823 10.1154 0)
(0.0188783 10.1048 0)
(0.0150141 10.021 0)
(0.00880467 9.7039 0)
(0.00146465 8.9995 0)
(-0.00219275 8.01878 0)
(-0.00181312 6.54764 0)
(0.00815216 10.0017 0)
(0.018709 10.0128 0)
(0.0237674 10.0275 0)
(0.0265537 10.0424 0)
(0.0268757 10.0574 0)
(0.0257482 10.0723 0)
(0.0240436 10.0877 0)
(0.0220173 10.1041 0)
(0.0197223 10.12 0)
(0.0170952 10.1298 0)
(0.0139667 10.1158 0)
(0.010004 10.0196 0)
(0.00405835 9.68092 0)
(-0.00205212 8.98523 0)
(-0.00410147 8.03574 0)
(-0.00247747 6.58847 0)
(0.00691931 10.0014 0)
(0.0165432 10.0107 0)
(0.021302 10.0239 0)
(0.0239542 10.0379 0)
(0.0245061 10.0531 0)
(0.0234593 10.0684 0)
(0.0216806 10.0841 0)
(0.0195031 10.1012 0)
(0.0170705 10.1196 0)
(0.0144232 10.1374 0)
(0.0115117 10.1479 0)
(0.00825751 10.1316 0)
(0.00433138 10.0249 0)
(-0.00112436 9.67147 0)
(-0.00584798 8.99018 0)
(-0.00623226 8.06992 0)
(-0.00322508 6.64322 0)
(0.00589292 10.0011 0)
(0.0146028 10.0091 0)
(0.0190711 10.0209 0)
(0.0213751 10.0338 0)
(0.0218278 10.0484 0)
(0.0208559 10.0639 0)
(0.0189804 10.08 0)
(0.0165898 10.0976 0)
(0.0139015 10.1172 0)
(0.0110356 10.1383 0)
(0.00803012 10.1586 0)
(0.0049147 10.1708 0)
(0.00163439 10.1532 0)
(-0.00209256 10.0383 0)
(-0.00681951 9.67651 0)
(-0.00995491 9.01362 0)
(-0.00858757 8.12107 0)
(-0.00404351 6.71175 0)
(0.00503226 10.0009 0)
(0.0128651 10.0077 0)
(0.0170103 10.0183 0)
(0.0190075 10.0302 0)
(0.0191302 10.0438 0)
(0.0179172 10.0589 0)
(0.0159205 10.0755 0)
(0.013266 10.0934 0)
(0.0102288 10.1136 0)
(0.00699907 10.1363 0)
(0.00368521 10.161 0)
(0.000388003 10.1846 0)
(-0.00284038 10.1993 0)
(-0.00601369 10.1818 0)
(-0.00935121 10.0614 0)
(-0.0130575 9.69706 0)
(-0.0144111 9.055 0)
(-0.0111434 8.18835 0)
(-0.0049259 6.79378 0)
(0.00430671 10.0007 0)
(0.0113092 10.0066 0)
(0.015113 10.0161 0)
(0.0167943 10.027 0)
(0.016624 10.0396 0)
(0.0149516 10.0539 0)
(0.0124856 10.0702 0)
(0.00951575 10.0886 0)
(0.00604583 10.1092 0)
(0.00232726 10.1328 0)
(-0.00146575 10.1594 0)
(-0.00517566 10.1884 0)
(-0.00867958 10.2163 0)
(-0.0118916 10.2346 0)
(-0.0147913 10.2184 0)
(-0.0174743 10.0952 0)
(-0.0198595 9.73334 0)
(-0.0192177 9.11372 0)
(-0.0139004 8.27136 0)
(-0.00585709 6.88892 0)
(0.00369336 10.0006 0)
(0.00991665 10.0057 0)
(0.0133719 10.0142 0)
(0.0147384 10.0242 0)
(0.0142619 10.0358 0)
(0.0121912 10.0493 0)
(0.00903513 10.0648 0)
(0.00533245 10.0829 0)
(0.00134237 10.104 0)
(-0.00298519 10.1281 0)
(-0.00741393 10.1559 0)
(-0.0117306 10.1873 0)
(-0.0157555 10.2213 0)
(-0.0193363 10.2545 0)
(-0.0223637 10.2774 0)
(-0.0247419 10.264 0)
(-0.0264746 10.1406 0)
(-0.0272184 9.78563 0)
(-0.024379 9.1892 0)
(-0.0168365 8.36937 0)
(-0.00682433 6.9965 0)
(0.00319169 10.0005 0)
(0.00867211 10.0049 0)
(0.0117795 10.0126 0)
(0.0128393 10.0217 0)
(0.012058 10.0324 0)
(0.00959027 10.0449 0)
(0.00583593 10.0596 0)
(0.00115736 10.0769 0)
(-0.00387673 10.0977 0)
(-0.00894382 10.1223 0)
(-0.0141675 10.1508 0)
(-0.0192789 10.1836 0)
(-0.0240406 10.2207 0)
(-0.0282477 10.2608 0)
(-0.0317268 10.3 0)
(-0.0343172 10.3286 0)
(-0.0358806 10.3193 0)
(-0.0363348 10.1985 0)
(-0.035125 9.85372 0)
(-0.0298664 9.28066 0)
(-0.0199439 8.48174 0)
(-0.00781003 7.11571 0)
(0.00279465 10.0004 0)
(0.00760883 10.0042 0)
(0.0103292 10.0111 0)
(0.0110951 10.0194 0)
(0.0100206 10.0292 0)
(0.00717091 10.0408 0)
(0.00283763 10.0545 0)
(-0.00269092 10.071 0)
(-0.00905386 10.091 0)
(-0.0155308 10.1153 0)
(-0.0217294 10.1444 0)
(-0.0278361 10.1781 0)
(-0.0335551 10.2168 0)
(-0.0386237 10.2605 0)
(-0.0428196 10.3074 0)
(-0.0459305 10.3536 0)
(-0.0477769 10.3888 0)
(-0.0481913 10.3849 0)
(-0.0470149 10.269 0)
(-0.0435316 9.93719 0)
(-0.0356511 9.38726 0)
(-0.0231778 8.60753 0)
(-0.00880859 7.24557 0)
(0.00247874 10.0003 0)
(0.00674136 10.0038 0)
(0.00906873 10.0099 0)
(0.00950309 10.0174 0)
(0.00815423 10.0263 0)
(0.00494828 10.037 0)
(6.89841e-05 10.0496 0)
(-0.00627299 10.0651 0)
(-0.0137975 10.0842 0)
(-0.0220338 10.1075 0)
(-0.0300678 10.1363 0)
(-0.0374052 10.1708 0)
(-0.0443264 10.2107 0)
(-0.0505094 10.2563 0)
(-0.0556764 10.3073 0)
(-0.0595749 10.3619 0)
(-0.0619858 10.4158 0)
(-0.0627269 10.4585 0)
(-0.0616189 10.4611 0)
(-0.0584351 10.3524 0)
(-0.0523964 10.0353 0)
(-0.0416761 9.50787 0)
(-0.0265083 8.74559 0)
(-0.00980526 7.38497 0)
(0.00222393 10.0003 0)
(0.00603432 10.0034 0)
(0.0080241 10.0089 0)
(0.00812153 10.0156 0)
(0.00646128 10.0237 0)
(0.00293272 10.0333 0)
(-0.00244783 10.045 0)
(-0.0095524 10.0593 0)
(-0.0181836 10.0772 0)
(-0.0279631 10.0996 0)
(-0.0382727 10.1273 0)
(-0.0479397 10.1615 0)
(-0.0563606 10.2023 0)
(-0.0639508 10.2493 0)
(-0.0703726 10.3027 0)
(-0.0753294 10.3618 0)
(-0.0785687 10.4249 0)
(-0.0798816 10.4872 0)
(-0.0791086 10.538 0)
(-0.0760725 10.5483 0)
(-0.0705126 10.4482 0)
(-0.061615 10.1473 0)
(-0.0479058 9.64147 0)
(-0.0298944 8.89473 0)
(-0.0107923 7.53272 0)
(0.00201573 10.0003 0)
(0.00545341 10.0031 0)
(0.00716083 10.0081 0)
(0.00698291 10.0141 0)
(0.00500772 10.0213 0)
(0.00113091 10.0299 0)
(-0.00469656 10.0405 0)
(-0.012499 10.0537 0)
(-0.0221665 10.0703 0)
(-0.0334154 10.0913 0)
(-0.0457273 10.1179 0)
(-0.0582831 10.1508 0)
(-0.0695971 10.1915 0)
(-0.0789608 10.2396 0)
(-0.0869796 10.2947 0)
(-0.0933092 10.3567 0)
(-0.0976577 10.4247 0)
(-0.0997946 10.4968 0)
(-0.0995558 10.568 0)
(-0.0968143 10.6275 0)
(-0.091441 10.6461 0)
(-0.0831387 10.5562 0)
(-0.0711188 10.272 0)
(-0.0542566 9.7868 0)
(-0.0333106 9.05361 0)
(-0.0117551 7.68753 0)
(0.00184371 10.0002 0)
(0.00497242 10.0028 0)
(0.00644369 10.0074 0)
(0.00604924 10.0129 0)
(0.00382736 10.0193 0)
(-0.000385521 10.0269 0)
(-0.00666587 10.0362 0)
(-0.0150895 10.0481 0)
(-0.0257066 10.0633 0)
(-0.0383333 10.0829 0)
(-0.0525546 10.108 0)
(-0.0676587 10.1396 0)
(-0.0825784 10.1789 0)
(-0.0954663 10.227 0)
(-0.105525 10.2835 0)
(-0.113617 10.3476 0)
(-0.119416 10.4189 0)
(-0.122663 10.4964 0)
(-0.123191 10.5779 0)
(-0.120893 10.6585 0)
(-0.115715 10.7269 0)
(-0.107571 10.7545 0)
(-0.0961915 10.6755 0)
(-0.0808156 10.4083 0)
(-0.0606669 9.94243 0)
(-0.0367159 9.22081 0)
(-0.0126864 7.8481 0)
(0.00170024 10.0002 0)
(0.00457135 10.0026 0)
(0.00584482 10.0069 0)
(0.00528078 10.0119 0)
(0.0028764 10.0176 0)
(-0.00158667 10.0242 0)
(-0.00827698 10.0323 0)
(-0.0173068 10.0428 0)
(-0.0287717 10.0565 0)
(-0.042665 10.0744 0)
(-0.0586822 10.0977 0)
(-0.0762231 10.1277 0)
(-0.0943307 10.1654 0)
(-0.111648 10.212 0)
(-0.125921 10.2687 0)
(-0.1363 10.3346 0)
(-0.14399 10.4084 0)
(-0.148715 10.4897 0)
(-0.150292 10.5772 0)
(-0.148633 10.6685 0)
(-0.143734 10.7586 0)
(-0.135626 10.8361 0)
(-0.124308 10.8728 0)
(-0.109524 10.8052 0)
(-0.0906073 10.5548 0)
(-0.0670669 10.1069 0)
(-0.0400803 9.39492 0)
(-0.0135707 8.01305 0)
(0.0015796 10.0002 0)
(0.00423469 10.0024 0)
(0.00534215 10.0064 0)
(0.00464583 10.011 0)
(0.00210934 10.0161 0)
(-0.00252586 10.022 0)
(-0.00950744 10.0289 0)
(-0.0190622 10.0378 0)
(-0.0313378 10.0497 0)
(-0.0463679 10.0658 0)
(-0.0640432 10.0872 0)
(-0.0838848 10.1151 0)
(-0.105052 10.151 0)
(-0.126293 10.196 0)
(-0.145929 10.251 0)
(-0.161272 10.3173 0)
(-0.17146 10.3935 0)
(-0.178143 10.4778 0)
(-0.181146 10.5695 0)
(-0.180393 10.6673 0)
(-0.175931 10.7685 0)
(-0.167873 10.868 0)
(-0.156354 10.9545 0)
(-0.141468 11.0005 0)
(-0.12301 10.9444 0)
(-0.100388 10.7102 0)
(-0.0733997 10.2788 0)
(-0.0433626 9.57441 0)
(-0.0144207 8.18121 0)
(0.00147742 10.0002 0)
(0.00395036 10.0023 0)
(0.00491814 10.006 0)
(0.00411909 10.0102 0)
(0.0014896 10.0149 0)
(-0.00325709 10.02 0)
(-0.0104262 10.0259 0)
(-0.0203438 10.0333 0)
(-0.0333021 10.0433 0)
(-0.0494081 10.0572 0)
(-0.068581 10.0765 0)
(-0.0905578 10.1021 0)
(-0.114627 10.1357 0)
(-0.13965 10.1786 0)
(-0.164048 10.2319 0)
(-0.185794 10.2964 0)
(-0.201732 10.3733 0)
(-0.21106 10.4607 0)
(-0.21601 10.556 0)
(-0.216551 10.6585 0)
(-0.212768 10.7667 0)
(-0.204855 10.8777 0)
(-0.193077 10.9864 0)
(-0.177682 11.0817 0)
(-0.158878 11.1366 0)
(-0.136508 11.0918 0)
(-0.110066 10.8731 0)
(-0.0795955 10.4565 0)
(-0.0465513 9.75799 0)
(-0.0151843 8.35108 0)
(0.00139036 10.0002 0)
(0.00370887 10.0022 0)
(0.00455878 10.0057 0)
(0.00368033 10.0096 0)
(0.000987894 10.0138 0)
(-0.00382389 10.0183 0)
(-0.011101 10.0234 0)
(-0.0212431 10.0295 0)
(-0.0346665 10.0376 0)
(-0.051664 10.0491 0)
(-0.0722497 10.0657 0)
(-0.0961682 10.0888 0)
(-0.122946 10.1198 0)
(-0.151576 10.16 0)
(-0.180587 10.211 0)
(-0.208025 10.2738 0)
(-0.231499 10.3489 0)
(-0.247389 10.4373 0)
(-0.255056 10.5365 0)
(-0.257441 10.6433 0)
(-0.254718 10.7568 0)
(-0.247157 10.8753 0)
(-0.235141 10.9958 0)
(-0.219087 11.1134 0)
(-0.199386 11.2169 0)
(-0.176351 11.2802 0)
(-0.149888 11.2463 0)
(-0.119545 11.0419 0)
(-0.0856191 10.6387 0)
(-0.0495592 9.94393 0)
(-0.0160954 8.54119 0)
(0.00131576 10.0002 0)
(0.0035027 10.002 0)
(0.00425283 10.0054 0)
(0.00331333 10.009 0)
(0.000580832 10.0129 0)
(-0.00426112 10.0169 0)
(-0.0115862 10.0211 0)
(-0.0218471 10.0261 0)
(-0.0355525 10.0326 0)
(-0.0531541 10.0418 0)
(-0.0749015 10.0554 0)
(-0.100654 10.0753 0)
(-0.129912 10.1033 0)
(-0.161932 10.1405 0)
(-0.195365 10.1886 0)
(-0.22835 10.2489 0)
(-0.258539 10.3223 0)
(-0.283192 10.409 0)
(-0.298233 10.5098 0)
(-0.303304 10.6213 0)
(-0.302202 10.7398 0)
(-0.295352 10.8642 0)
(-0.283248 10.9927 0)
(-0.266477 11.1223 0)
(-0.245633 11.2481 0)
(-0.221236 11.3592 0)
(-0.193713 11.4303 0)
(-0.163019 11.4064 0)
(-0.12876 11.2155 0)
(-0.0913666 10.8236 0)
(-0.0528471 10.1528 0)
(-0.0170022 8.75039 0)
(0.0012515 10.0001 0)
(0.00332582 10.002 0)
(0.00399125 10.0051 0)
(0.00300507 10.0086 0)
(0.000249735 10.0121 0)
(-0.00459654 10.0156 0)
(-0.0119252 10.0191 0)
(-0.0222257 10.0231 0)
(-0.0360733 10.0282 0)
(-0.054039 10.0354 0)
(-0.0765745 10.0461 0)
(-0.103833 10.0623 0)
(-0.135445 10.0864 0)
(-0.170593 10.1202 0)
(-0.208209 10.1649 0)
(-0.246548 10.2221 0)
(-0.283321 10.2929 0)
(-0.315791 10.3779 0)
(-0.340893 10.4772 0)
(-0.354128 10.5909 0)
(-0.355548 10.7151 0)
(-0.349961 10.8454 0)
(-0.338088 10.9805 0)
(-0.320679 11.1185 0)
(-0.298539 11.2566 0)
(-0.272437 11.3898 0)
(-0.243011 11.5076 0)
(-0.210795 11.5857 0)
(-0.175801 11.5711 0)
(-0.137591 11.3919 0)
(-0.0974891 11.0319 0)
(-0.0562379 10.3833 0)
(-0.0177596 8.95688 0)
(0.00119581 10.0001 0)
(0.00317339 10.0019 0)
(0.00376672 10.0049 0)
(0.00274507 10.0081 0)
(-2.03115e-05 10.0114 0)
(-0.0048522 10.0145 0)
(-0.0121523 10.0174 0)
(-0.0224342 10.0205 0)
(-0.0363194 10.0243 0)
(-0.0544658 10.0297 0)
(-0.0774787 10.0378 0)
(-0.105765 10.0505 0)
(-0.139315 10.0701 0)
(-0.17745 10.0994 0)
(-0.218961 10.1401 0)
(-0.262399 10.1935 0)
(-0.305572 10.261 0)
(-0.345758 10.3435 0)
(-0.379846 10.4412 0)
(-0.404483 10.5538 0)
(-0.414802 10.6811 0)
(-0.411421 10.8181 0)
(-0.40031 10.9599 0)
(-0.382517 11.1052 0)
(-0.35907 11.2521 0)
(-0.330995 11.3979 0)
(-0.299225 11.5376 0)
(-0.264504 11.6612 0)
(-0.227459 11.7454 0)
(-0.188094 11.7387 0)
(-0.146997 11.5911 0)
(-0.103895 11.2623 0)
(-0.0592766 10.6112 0)
(-0.0183991 9.15861 0)
(0.00114777 10.0001 0)
(0.00304123 10.0018 0)
(0.0035733 10.0047 0)
(0.00252491 10.0078 0)
(-0.000241215 10.0108 0)
(-0.00504557 10.0135 0)
(-0.0122946 10.0159 0)
(-0.0225164 10.0183 0)
(-0.0363626 10.0209 0)
(-0.0545523 10.0246 0)
(-0.0778044 10.0304 0)
(-0.10672 10.0399 0)
(-0.141605 10.0552 0)
(-0.182218 10.0791 0)
(-0.227479 10.1145 0)
(-0.275706 10.1635 0)
(-0.325021 10.2269 0)
(-0.372763 10.3059 0)
(-0.415782 10.4012 0)
(-0.450615 10.5126 0)
(-0.473697 10.6392 0)
(-0.479867 10.7802 0)
(-0.470472 10.9299 0)
(-0.452779 11.0829 0)
(-0.428196 11.2378 0)
(-0.398027 11.3928 0)
(-0.363517 11.5452 0)
(-0.32574 11.6905 0)
(-0.28553 11.819 0)
(-0.24354 11.908 0)
(-0.201221 11.9281 0)
(-0.156831 11.8118 0)
(-0.109738 11.4905 0)
(-0.0619992 10.8344 0)
(-0.0189427 9.35387 0)
(0.00292636 10.0018 0)
(0.00108933 10.0001 0)
(0.00340563 10.0046 0)
(0.00233791 10.0075 0)
(-0.000422406 10.0102 0)
(-0.00519045 10.0126 0)
(-0.0123733 10.0146 0)
(-0.0225062 10.0163 0)
(-0.0362588 10.0179 0)
(-0.0543914 10.0202 0)
(-0.0777039 10.0239 0)
(-0.106943 10.0305 0)
(-0.142661 10.0419 0)
(-0.184999 10.0605 0)
(-0.233399 10.0895 0)
(-0.286284 10.1324 0)
(-0.34142 10.1909 0)
(-0.396476 10.2656 0)
(-0.448307 10.3574 0)
(-0.493348 10.4666 0)
(-0.52785 10.5925 0)
(-0.548132 10.7334 0)
(-0.548826 10.8882 0)
(-0.53217 11.0504 0)
(-0.506856 11.2139 0)
(-0.474662 11.3775 0)
(-0.43716 11.5396 0)
(-0.395789 11.6977 0)
(-0.351748 11.8475 0)
(-0.305891 11.9796 0)
(-0.260768 12.0916 0)
(-0.214908 12.1382 0)
(-0.165845 12.0308 0)
(-0.115023 11.7144 0)
(-0.0644257 11.051 0)
(-0.019397 9.54174 0)
(0.00325769 10.0044 0)
(0.00278978 10.0017 0)
(0.00101814 10.0001 0)
(0.00217807 10.0072 0)
(-0.00057112 10.0098 0)
(-0.00529763 10.0119 0)
(-0.0124049 10.0135 0)
(-0.0224301 10.0145 0)
(-0.0360518 10.0153 0)
(-0.0540557 10.0162 0)
(-0.0772975 10.0181 0)
(-0.106631 10.0222 0)
(-0.142792 10.03 0)
(-0.186227 10.0438 0)
(-0.236843 10.0666 0)
(-0.293671 10.1019 0)
(-0.354535 10.1534 0)
(-0.416587 10.2229 0)
(-0.477018 10.3102 0)
(-0.532212 10.4161 0)
(-0.578238 10.5401 0)
(-0.611152 10.681 0)
(-0.627262 10.8364 0)
(-0.621088 11.0049 0)
(-0.595928 11.179 0)
(-0.562003 11.3522 0)
(-0.521451 11.5236 0)
(-0.476092 11.6918 0)
(-0.427523 11.8545 0)
(-0.377013 12.0075 0)
(-0.327753 12.161 0)
(-0.278735 12.2956 0)
(-0.227486 12.3471 0)
(-0.174036 12.246 0)
(-0.119765 11.9323 0)
(-0.0665623 11.2602 0)
(-0.0197653 9.72158 0)
(0.00203516 10.007 0)
(0.00309295 10.0042 0)
(0.00261936 10.0016 0)
(0.000949524 10.0001 2.09496e-19)
(-0.000693682 10.0094 0)
(-0.00537499 10.0113 0)
(-0.0124022 10.0124 0)
(-0.0223085 10.013 0)
(-0.0357749 10.0129 0)
(-0.0536012 10.0128 0)
(-0.0766787 10.013 0)
(-0.105936 10.0148 0)
(-0.142247 10.0193 0)
(-0.186292 10.0288 0)
(-0.238348 10.0458 0)
(-0.298001 10.0737 0)
(-0.363774 10.1165 0)
(-0.432797 10.1782 0)
(-0.501538 10.26 0)
(-0.566728 10.3613 0)
(-0.624312 10.4823 0)
(-0.670075 10.622 0)
(-0.699981 10.7783 0)
(-0.710449 10.9483 0)
(-0.695996 11.13 0)
(-0.661126 11.3151 0)
(-0.617674 11.4971 0)
(-0.568112 11.6752 0)
(-0.514468 11.8483 0)
(-0.458439 12.0143 0)
(-0.404187 12.1883 0)
(-0.350621 12.3627 0)
(-0.295309 12.4986 0)
(-0.238948 12.5526 0)
(-0.181422 12.4558 0)
(-0.12397 12.143 0)
(-0.0684222 11.4609 0)
(-0.0200554 9.89288 0)
(-0.000806339 10.009 0)
(0.00189479 10.0067 0)
(0.00289434 10.004 9.05936e-19)
(0.00245465 10.0015 -6.63003e-19)
(0.000883024 10.0001 -4.29813e-19)
(-0.00542893 10.0107 0)
(-0.0123739 10.0116 0)
(-0.0221568 10.0116 0)
(-0.0354539 10.0109 0)
(-0.0530707 10.0097 0)
(-0.0759198 10.0085 0)
(-0.104979 10.0082 0)
(-0.141223 10.0099 0)
(-0.185506 10.0155 0)
(-0.238397 10.0272 0)
(-0.299929 10.0483 0)
(-0.369276 10.0824 0)
(-0.444358 10.134 0)
(-0.521491 10.2073 0)
(-0.596438 10.3029 0)
(-0.665505 10.4195 0)
(-0.724265 10.5566 0)
(-0.768319 10.7124 0)
(-0.793666 10.8843 0)
(-0.796967 11.0686 0)
(-0.77284 11.2628 0)
(-0.727133 11.4582 0)
(-0.673337 11.6478 0)
(-0.614218 11.8314 0)
(-0.551953 12.0081 0)
(-0.491755 12.195 0)
(-0.4327 12.3894 0)
(-0.37181 12.5636 0)
(-0.310478 12.6987 0)
(-0.249308 12.7532 0)
(-0.188014 12.6589 0)
(-0.127659 12.3457 0)
(-0.0700247 11.6528 0)
(-0.0202773 10.0554 0)
(-0.00548415 10.0102 0)
(-0.000881546 10.0086 -1.77745e-18)
(0.00174227 10.0063 -9.52941e-19)
(0.00270315 10.0038 4.64821e-19)
(0.00229414 10.0014 -4.53147e-19)
(0.000818761 10.0001 0)
(-0.0123262 10.0108 0)
(-0.0219852 10.0104 0)
(-0.0351079 10.0091 0)
(-0.052497 10.007 0)
(-0.0750757 10.0045 0)
(-0.103854 10.0024 0)
(-0.139873 10.0015 0)
(-0.184118 10.0036 0)
(-0.237379 10.0106 0)
(-0.300044 10.0253 0)
(-0.371824 10.0514 0)
(-0.451391 10.093 0)
(-0.535933 10.1549 0)
(-0.620875 10.2413 0)
(-0.701266 10.3522 0)
(-0.77306 10.4853 0)
(-0.831551 10.6392 0)
(-0.872281 10.8116 0)
(-0.891424 10.999 0)
(-0.886023 11.197 0)
(-0.850887 11.4029 0)
(-0.793319 11.6073 0)
(-0.728489 11.8033 0)
(-0.659368 11.991 0)
(-0.592431 12.1889 0)
(-0.52682 12.3962 0)
(-0.45922 12.5899 0)
(-0.391274 12.7618 0)
(-0.32424 12.8942 0)
(-0.258579 12.9477 0)
(-0.193842 12.8545 0)
(-0.130869 12.5398 0)
(-0.0713901 11.8354 0)
(-0.0204406 10.2089 0)
(-0.0122959 10.0101 0)
(-0.00544948 10.0096 3.73759e-18)
(-0.000920177 10.008 0)
(0.00159497 10.0059 9.76655e-19)
(0.00251823 10.0036 4.65522e-22)
(0.00213773 10.0013 0)
(0.00075674 10.0001 0)
(-0.0217994 10.0093 0)
(-0.0347489 10.0075 0)
(-0.0519041 10.0046 0)
(-0.0741881 10.001 0)
(-0.10263 9.99723 0)
(-0.138316 9.99412 0)
(-0.182321 9.99299 0)
(-0.235605 9.99571 0)
(-0.29883 10.0048 0)
(-0.372136 10.0234 0)
(-0.454824 10.0557 0)
(-0.544942 10.1061 0)
(-0.638856 10.1798 0)
(-0.731026 10.2809 0)
(-0.815811 10.4084 0)
(-0.888922 10.559 0)
(-0.945494 10.7304 0)
(-0.981152 10.9195 0)
(-0.992394 11.122 0)
(-0.976775 11.333 0)
(-0.929392 11.5494 0)
(-0.85908 11.7616 0)
(-0.782643 11.9626 0)
(-0.708255 12.172 0)
(-0.635163 12.3906 0)
(-0.559555 12.5971 0)
(-0.483659 12.7879 0)
(-0.408996 12.9557 0)
(-0.336603 13.0841 0)
(-0.2668 13.1354 0)
(-0.198955 13.042 0)
(-0.133635 12.7248 0)
(-0.0725401 12.0085 0)
(-0.0205536 10.3536 0)
(-0.0216527 10.0084 0)
(-0.0121011 10.0093 4.486e-22)
(-0.00529613 10.0089 0)
(-0.000958541 10.0075 -1.02635e-18)
(0.0014565 10.0056 3.80924e-22)
(0.00233939 10.0034 0)
(0.00198561 10.0012 0)
(0.000696966 10.0001 0)
(-0.0343819 10.0061 0)
(-0.0513065 10.0025 0)
(-0.0732878 9.99791 0)
(-0.10136 9.99268 0)
(-0.13664 9.98755 0)
(-0.180265 9.98361 0)
(-0.233316 9.98249 0)
(-0.296666 9.98642 0)
(-0.370795 9.99832 0)
(-0.455515 10.0219 0)
(-0.549601 10.0616 0)
(-0.650382 10.1224 0)
(-0.753309 10.2094 0)
(-0.851827 10.3267 0)
(-0.939667 10.4722 0)
(-1.01244 10.6411 0)
(-1.06527 10.8304 0)
(-1.09403 11.0359 0)
(-1.09567 11.2529 0)
(-1.06838 11.4759 0)
(-1.00763 11.7017 0)
(-0.923821 11.9201 0)
(-0.84143 12.1436 0)
(-0.760005 12.3742 0)
(-0.675192 12.5921 0)
(-0.589822 12.7956 0)
(-0.505979 12.9817 0)
(-0.424981 13.1441 0)
(-0.347618 13.2675 0)
(-0.274036 13.3155 0)
(-0.203404 13.2209 0)
(-0.136 12.9006 0)
(-0.0734959 12.1721 0)
(-0.0206248 10.4895 0)
(-0.0340836 10.0048 0)
(-0.0212384 10.0073 -2.06217e-18)
(-0.0116629 10.0083 0)
(-0.00515157 10.0081 0)
(-0.000983564 10.007 3.15489e-18)
(0.00132656 10.0052 0)
(0.00216684 10.0032 0)
(0.00183788 10.0012 9.77487e-19)
(0.00063948 10.0001 0)
(-0.0507079 10.0007 0)
(-0.0723921 9.99516 0)
(-0.100084 9.98866 0)
(-0.134914 9.98173 0)
(-0.178064 9.97529 0)
(-0.230702 9.97075 0)
(-0.293856 9.97005 0)
(-0.36827 9.97584 0)
(-0.454167 9.9915 0)
(-0.550925 10.0212 0)
(-0.656698 10.0698 0)
(-0.767999 10.1425 0)
(-0.879288 10.2445 0)
(-0.982962 10.3795 0)
(-1.07224 10.544 0)
(-1.14281 10.7318 0)
(-1.18995 10.939 0)
(-1.20994 11.1607 0)
(-1.20033 11.3912 0)
(-1.16003 11.6251 0)
(-1.0849 11.8586 0)
(-0.994279 12.1006 0)
(-0.903804 12.3462 0)
(-0.808614 12.5766 0)
(-0.71231 12.7916 0)
(-0.617553 12.9901 0)
(-0.526182 13.1703 0)
(-0.439284 13.3264 0)
(-0.357361 13.4438 0)
(-0.280357 13.4875 0)
(-0.207244 13.391 0)
(-0.138001 13.0669 0)
(-0.0742784 12.3263 0)
(-0.0206608 10.6169 0)
(-0.0502173 9.99901 0)
(-0.0333764 10.0034 0)
(-0.0204004 10.0061 -2.31756e-18)
(-0.0112488 10.0074 -2.26178e-18)
(-0.00498702 10.0075 -4.41553e-18)
(-0.000995638 10.0065 0)
(0.00120522 10.0049 -2.10314e-18)
(0.00200084 10.003 -2.05304e-18)
(0.00169454 10.0011 1.00197e-18)
(0.000584184 10.0001 0)
(-0.0715035 9.99273 0)
(-0.0988233 9.9851 0)
(-0.133188 9.97658 0)
(-0.175804 9.96792 0)
(-0.227903 9.96033 0)
(-0.290632 9.95549 0)
(-0.36493 9.95577 0)
(-0.451347 9.96423 0)
(-0.54975 9.98474 0)
(-0.65899 10.0219 0)
(-0.776505 10.0809 0)
(-0.8979 10.1672 0)
(-1.01658 10.2858 0)
(-1.12392 10.4398 0)
(-1.21275 10.6242 0)
(-1.27908 10.8313 0)
(-1.3185 11.0562 0)
(-1.32786 11.2933 0)
(-1.30544 11.5365 0)
(-1.25091 11.7795 0)
(-1.16934 12.038 0)
(-1.0693 12.3033 0)
(-0.96255 12.5495 0)
(-0.853788 12.7772 0)
(-0.746399 12.9872 0)
(-0.642735 13.1796 0)
(-0.544328 13.3528 0)
(-0.451992 13.5017 0)
(-0.365918 13.6124 0)
(-0.285838 13.6513 0)
(-0.210529 13.5521 0)
(-0.13968 13.224 0)
(-0.0749081 12.4714 0)
(-0.0206685 10.7362 0)
(-0.0707739 9.99058 0)
(-0.0491284 9.99722 -2.2761e-18)
(-0.031994 10.0019 2.42905e-18)
(-0.0196115 10.0049 -1.72074e-21)
(-0.0108056 10.0065 2.3156e-18)
(-0.00480305 10.0068 2.26131e-18)
(-0.00099506 10.006 4.41516e-18)
(0.00109262 10.0046 3.23241e-18)
(0.00184121 10.0028 -1.05204e-18)
(0.00155561 10.001 0)
(0.000531077 10.0001 0)
(-0.0975782 9.98195 0)
(-0.131487 9.97202 0)
(-0.173548 9.96139 0)
(-0.225031 9.95108 0)
(-0.287171 9.94255 0)
(-0.361063 9.93788 0)
(-0.447504 9.93984 0)
(-0.546755 9.95197 0)
(-0.658241 9.97857 0)
(-0.780195 10.0247 0)
(-0.909239 10.0958 0)
(-1.03999 10.1973 0)
(-1.16478 10.334 0)
(-1.27399 10.5082 0)
(-1.36029 10.7133 0)
(-1.42021 10.9397 0)
(-1.44985 11.1818 0)
(-1.44677 11.4334 0)
(-1.41006 11.6876 0)
(-1.35064 11.957 0)
(-1.25962 12.2404 0)
(-1.14023 12.5075 0)
(-1.01733 12.7514 0)
(-0.895377 12.9743 0)
(-0.777429 13.178 0)
(-0.665423 13.3631 0)
(-0.560509 13.5285 0)
(-0.463206 13.6696 0)
(-0.373383 13.7732 0)
(-0.290558 13.8067 0)
(-0.213316 13.7044 0)
(-0.141072 13.372 0)
(-0.0754031 12.6075 0)
(-0.0206527 10.8475 0)
(-0.0965584 9.97917 0)
(-0.069196 9.98828 -5.21662e-21)
(-0.0470222 9.99527 0)
(-0.0306989 10.0004 -2.99122e-21)
(-0.0187809 10.0038 0)
(-0.0103335 10.0056 -2.37095e-18)
(-0.00460037 10.0061 -4.63103e-18)
(-0.00098194 10.0056 -2.69265e-22)
(0.000988594 10.0043 2.20706e-18)
(0.00168818 10.0026 -1.07733e-18)
(0.00142104 10.0009 1.05203e-18)
(0.000480146 10 0)
(-0.129811 9.96798 0)
(-0.171327 9.9556 0)
(-0.222163 9.94287 0)
(-0.283612 9.93105 0)
(-0.356889 9.92197 0)
(-0.442988 9.91808 0)
(-0.542478 9.9226 0)
(-0.655254 9.93954 0)
(-0.780213 9.97367 0)
(-0.914864 10.0303 0)
(-1.05492 10.1152 0)
(-1.19397 10.2336 0)
(-1.32326 10.3899 0)
(-1.43231 10.5853 0)
(-1.51382 10.8113 0)
(-1.56508 11.0568 0)
(-1.58291 11.3155 0)
(-1.56564 11.5801 0)
(-1.52534 11.8622 0)
(-1.4577 12.1583 0)
(-1.34533 12.4451 0)
(-1.20662 12.7108 0)
(-1.06795 12.9502 0)
(-0.933353 13.1668 0)
(-0.805444 13.363 0)
(-0.685709 13.5399 0)
(-0.574842 13.6969 0)
(-0.473038 13.8298 0)
(-0.379854 13.9259 0)
(-0.294592 13.9538 0)
(-0.21566 13.8479 0)
(-0.142212 13.5111 0)
(-0.0757823 12.735 0)
(-0.0206184 10.9514 0)
(-0.128445 9.96441 0)
(-0.0943629 9.97624 2.50059e-18)
(-0.0661453 9.98584 -2.67499e-18)
(-0.045059 9.99339 2.60624e-18)
(-0.0293459 9.99897 0)
(-0.0179087 10.0027 0)
(-0.00983459 10.0048 2.42691e-18)
(-0.00437951 10.0055 -2.37032e-18)
(-0.000956481 10.0051 -2.07167e-22)
(0.000893242 10.004 1.13036e-18)
(0.00154156 10.0024 -1.10378e-18)
(0.00129078 10.0009 -1.07435e-18)
(0.000431639 10 0)
(-0.16914 9.95048 0)
(-0.21934 9.9356 0)
(-0.280054 9.92085 0)
(-0.35258 9.90781 0)
(-0.438072 9.89867 0)
(-0.537347 9.89634 0)
(-0.650672 9.90449 0)
(-0.777497 9.92759 0)
(-0.916087 9.97081 0)
(-1.06313 10.0398 0)
(-1.21338 10.1402 0)
(-1.35934 10.277 0)
(-1.49126 10.4541 0)
(-1.59787 10.6714 0)
(-1.67218 10.9184 0)
(-1.71254 11.1826 0)
(-1.71655 11.4565 0)
(-1.69726 11.7506 0)
(-1.64971 12.0614 0)
(-1.55979 12.363 0)
(-1.42586 12.65 0)
(-1.26818 12.9117 0)
(-1.11433 13.1448 0)
(-0.967773 13.3537 0)
(-0.830572 13.5414 0)
(-0.70373 13.7095 0)
(-0.58746 13.8577 0)
(-0.481609 13.9821 0)
(-0.385429 14.0706 0)
(-0.298016 14.0925 0)
(-0.217612 13.9829 0)
(-0.143131 13.6415 0)
(-0.0760607 12.8543 0)
(-0.0205689 11.0481 0)
(-0.167369 9.94594 0)
(-0.125481 9.96071 0)
(-0.0900997 9.97319 2.79565e-18)
(-0.063315 9.98349 -5.47441e-18)
(-0.0430162 9.9916 5.34283e-18)
(-0.0279347 9.9976 -5.21496e-18)
(-0.0169988 10.0017 0)
(-0.00930969 10.004 2.48484e-18)
(-0.00414086 10.0049 -2.42592e-18)
(-0.000918847 10.0047 -2.36951e-18)
(0.000806276 10.0037 0)
(0.00140128 10.0023 1.12678e-18)
(0.00116563 10.0008 0)
(0.000386546 10 0)
(-0.216557 9.92915 0)
(-0.276544 9.91179 0)
(-0.348258 9.89523 0)
(-0.432965 9.8814 0)
(-0.53169 9.87291 0)
(-0.645006 9.8731 0)
(-0.772807 9.88613 0)
(-0.913996 9.91689 0)
(-1.06611 9.9709 0)
(-1.22494 10.0539 0)
(-1.38421 10.1715 0)
(-1.53542 10.3283 0)
(-1.66782 10.5272 0)
(-1.76955 10.7668 0)
(-1.83422 11.0347 0)
(-1.86141 11.3165 0)
(-1.86527 11.6217 0)
(-1.83998 11.9467 0)
(-1.76891 12.2654 0)
(-1.65619 12.5689 0)
(-1.50081 12.8531 0)
(-1.32476 13.1089 0)
(-1.1565 13.3342 0)
(-0.998756 13.5342 0)
(-0.852977 13.7127 0)
(-0.719637 13.8716 0)
(-0.5985 14.0107 0)
(-0.489034 14.1264 0)
(-0.390203 14.2072 0)
(-0.300899 14.2232 0)
(-0.219223 14.1097 0)
(-0.143856 13.7638 0)
(-0.0762528 12.9657 0)
(-0.020508 11.1382 0)
(-0.214322 9.92344 0)
(-0.163464 9.94129 0)
(-0.119687 9.95692 0)
(-0.0861657 9.97028 5.71853e-18)
(-0.0603797 9.98126 -5.5856e-18)
(-0.0408955 9.98989 5.45447e-18)
(-0.0264726 9.99629 0)
(-0.0160528 10.0007 -2.60124e-18)
(-0.00875947 10.0033 0)
(-0.00388501 10.0044 2.48208e-18)
(-0.000869563 10.0043 0)
(0.000727482 10.0034 0)
(0.00126799 10.0021 0)
(0.00104862 10.0008 1.07503e-18)
(0.000345266 10 5.01506e-19)
(-0.27308 9.90375 0)
(-0.343982 9.88406 0)
(-0.427823 9.86603 0)
(-0.525767 9.85201 0)
(-0.638654 9.84503 0)
(-0.76675 9.8489 0)
(-0.909479 9.86824 0)
(-1.0651 9.90834 0)
(-1.23033 9.97493 0)
(-1.40002 10.0738 0)
(-1.56688 10.2103 0)
(-1.72135 10.3883 0)
(-1.85188 10.6097 0)
(-1.94618 10.8718 0)
(-1.9987 11.1598 0)
(-2.02803 11.4748 0)
(-2.02751 11.8133 0)
(-1.9776 12.1491 0)
(-1.88209 12.4719 0)
(-1.74638 12.7742 0)
(-1.56999 13.0532 0)
(-1.37635 13.3012 0)
(-1.19456 13.5174 0)
(-1.02647 13.7078 0)
(-0.872841 13.8765 0)
(-0.733607 14.0258 0)
(-0.608106 14.1558 0)
(-0.495429 14.2629 0)
(-0.394264 14.336 0)
(-0.303305 14.3459 0)
(-0.220533 14.2285 0)
(-0.144415 13.8781 0)
(-0.0763709 13.0696 0)
(-0.0204379 11.2219 0)
(-0.270325 9.89664 0)
(-0.20928 9.91764 0)
(-0.15577 9.93661 6.15303e-18)
(-0.114369 9.95332 6.00981e-18)
(-0.0820935 9.96752 5.86613e-18)
(-0.0573426 9.97915 -5.72569e-18)
(-0.0387076 9.98828 0)
(-0.0249617 9.99506 0)
(-0.0150721 9.99974 0)
(-0.00818548 10.0026 5.20019e-18)
(-0.0036129 10.0039 2.5394e-18)
(-0.000809232 10.0039 2.47327e-18)
(0.000656851 10.0032 0)
(0.0011446 10.002 -1.12755e-18)
(0.000941132 10.0007 -5.28819e-19)
(0.000307362 10 0)
(-0.339755 9.87413 0)
(-0.422713 9.85237 0)
(-0.519768 9.8334 0)
(-0.631932 9.81996 0)
(-0.759803 9.81557 0)
(-0.903249 9.82448 0)
(-1.06113 9.85175 0)
(-1.23098 9.90296 0)
(-1.40862 9.98399 0)
(-1.58794 10.1005 0)
(-1.7606 10.2573 0)
(-1.91616 10.4576 0)
(-2.04234 10.7021 0)
(-2.12656 10.9864 0)
(-2.18397 11.3094 0)
(-2.21102 11.6603 0)
(-2.18504 12.0129 0)
(-2.10913 12.3555 0)
(-1.98863 12.679 0)
(-1.83008 12.9775 0)
(-1.63337 13.2491 0)
(-1.42307 13.4877 0)
(-1.2287 13.6939 0)
(-1.05111 13.874 0)
(-0.890362 14.0326 0)
(-0.745822 14.1722 0)
(-0.616422 14.293 0)
(-0.500906 14.3916 0)
(-0.397695 14.4572 0)
(-0.305294 14.4612 0)
(-0.221582 14.3396 0)
(-0.144831 13.985 0)
(-0.076427 13.1666 0)
(-0.0203617 11.2997 0)
(-0.336433 9.86534 0)
(-0.263924 9.88944 0)
(-0.199256 9.91189 -1.2847e-17)
(-0.148738 9.93218 2.97038e-20)
(-0.108869 9.94992 -1.22637e-17)
(-0.0778892 9.96493 1.19731e-17)
(-0.0542173 9.97717 -5.85299e-18)
(-0.0364554 9.98677 0)