/*--------------------------------*- C++ -*----------------------------------*\
  =========                 |
  \\      /  F ield         | OpenFOAM: The Open Source CFD Toolbox
   \\    /   O peration     | Website:  https://openfoam.org
    \\  /    A nd           | Version:  8
     \\/     M anipulation  |
\*---------------------------------------------------------------------------*/
FoamFile
{
    version     2.0;
    format      ascii;
    class       volScalarField;
    location    "2000";
    object      epsilon;
}
// * * * * * * * * * * * * * * * * * * * * * * * * * * * * * * * * * * * * * //

dimensions      [0 2 -3 0 0 0 0];

internalField   nonuniform List<scalar> 
15677
(
1182.96
450.742
1558.74
85.8085
451.655
1455.57
19.8101
116.598
388.12
1275.44
7.2126
35.9272
104.775
360.541
1158.39
3.82901
14.3047
37.295
92.6251
361.036
1085.28
2.64035
7.18084
17.1145
35.2379
94.1338
365.92
1041.23
2.1617
4.33785
9.174
17.2874
33.7022
99.4943
372.557
1010.44
1.97289
3.03441
5.58374
9.92185
17.0583
33.9618
109.14
373.029
990.416
1.90448
2.3828
3.79261
6.27498
10.1581
16.6816
35.4239
119.183
372.117
974.219
1.87844
2.06059
2.83789
4.30822
6.63609
10.1339
16.7288
38.3815
129.268
368.213
963.047
1.86721
1.92147
2.31399
3.19118
4.63816
6.78643
10.0818
17.0284
42.3206
137.169
363.477
956.373
1.86735
1.868
2.02992
2.53937
3.4471
4.83173
6.83388
10.0867
17.7102
46.4902
143.488
358.884
953.864
1.86899
1.84318
1.89333
2.15985
2.71949
3.62263
4.93575
6.84815
10.1448
18.7295
50.7754
148.085
354.827
954.73
1.86963
1.83738
1.83764
1.94881
2.27433
2.85617
3.73658
4.99008
6.85337
10.2893
19.9652
54.6451
151.545
351.614
958.094
1.86973
1.83717
1.81462
1.84527
2.00984
2.36896
2.95521
3.80868
5.01587
6.86721
10.5544
21.2236
58.2617
153.637
349.195
965.176
1.8697
1.83752
1.80889
1.80066
1.86357
2.06608
2.44333
3.02518
3.85222
5.02685
6.90241
10.8469
22.5744
61.2153
155.027
347.434
976.298
1.86968
1.83768
1.80791
1.78608
1.79397
1.88816
2.11382
2.5001
3.07299
3.87671
5.03358
6.95574
11.1943
23.8062
63.755
155.523
346.366
990.924
1.86966
1.83771
1.80789
1.78198
1.7678
1.79444
1.91118
2.15281
2.54211
3.10446
3.88918
5.03923
7.02805
11.5302
25.0109
65.5849
155.52
345.897
1009.15
1.86966
1.83769
1.80794
1.781
1.75907
1.75494
1.79655
1.93172
2.18351
2.57241
3.12374
3.89434
5.04759
7.10192
11.8818
26.0355
66.9632
155.246
345.974
1030.99
1.86966
1.83767
1.80794
1.78082
1.75638
1.74
1.74512
1.8007
1.94902
2.20709
2.59317
3.13462
3.89406
5.05537
7.18303
12.2011
26.9224
67.7763
154.654
346.396
1056.51
1.86966
1.83766
1.80792
1.78078
1.75563
1.73469
1.72371
1.73806
1.80501
1.96308
2.22447
2.60685
3.13891
3.89186
5.0645
7.25815
12.4952
27.5876
68.2399
153.661
347.335
1085.63
1.86966
1.83765
1.8079
1.78075
1.75542
1.73296
1.71519
1.71025
1.7326
1.80894
1.97401
2.23693
2.61475
3.13839
3.88733
5.07147
7.32799
12.7332
28.085
68.1928
152.539
348.781
1118.37
1.86966
1.83764
1.80788
1.78072
1.75534
1.73243
1.71204
1.69834
1.69866
1.72843
1.81215
1.98228
2.24529
2.61864
3.13595
3.88043
5.0773
7.38474
12.9276
28.3767
67.9675
151.355
350.661
1154.51
1.86966
1.83763
1.80786
1.78069
1.75528
1.73224
1.71093
1.69356
1.68316
1.68912
1.72492
1.81467
1.98834
2.25075
2.61907
3.13083
3.87269
5.07877
7.42842
13.0521
28.4907
67.4616
150.068
352.9
1194.06
1.86966
1.83763
1.80786
1.78066
1.75524
1.73214
1.71053
1.69174
1.67648
1.67033
1.68072
1.72214
1.81671
1.99283
2.25394
2.61837
3.12464
3.86327
5.07746
7.45634
13.1373
28.4467
66.7042
148.67
355.574
1236.67
1.86966
1.83762
1.80785
1.78064
1.7552
1.73207
1.71035
1.69103
1.67374
1.66182
1.65866
1.67402
1.71997
1.81846
1.99634
2.25601
2.61691
3.1175
3.85398
5.07354
7.4685
13.1397
28.3129
65.7968
147.283
358.543
1282.4
1.86967
1.83762
1.80785
1.78062
1.75517
1.73201
1.71025
1.69072
1.67264
1.65813
1.64819
1.64935
1.66833
1.71858
1.82057
1.9997
2.2581
2.61482
3.11171
3.84403
5.06612
7.46399
13.1181
28.0513
64.7809
145.831
361.914
1330.68
1.86967
1.83761
1.80784
1.7806
1.75515
1.73196
1.71017
1.69055
1.67216
1.65654
1.64344
1.63723
1.64091
1.66444
1.71883
1.82353
2.00365
2.26069
2.61504
3.10645
3.83615
5.05585
7.45126
13.0644
27.6971
63.6624
144.441
365.524
1381.7
1.86967
1.83761
1.80784
1.78059
1.75513
1.73192
1.71011
1.69043
1.67191
1.65581
1.64134
1.63147
1.62702
1.63543
1.66222
1.72033
1.82789
2.00918
2.26532
2.61686
3.10554
3.8298
5.04516
7.42685
12.9658
27.2789
62.5046
143.018
369.48
1434.45
1.86967
1.83761
1.80784
1.78058
1.75512
1.73188
1.71005
1.69033
1.67175
1.65543
1.64037
1.62878
1.62029
1.62034
1.63077
1.66296
1.72391
1.83469
2.01728
2.27306
2.62174
3.10738
3.82692
5.03501
7.39532
12.8431
26.8198
61.3041
141.693
373.618
1495.21
1.86968
1.8376
1.80784
1.78057
1.75511
1.73185
1.71001
1.69025
1.67163
1.6552
1.63988
1.62747
1.6171
1.61268
1.61423
1.63096
1.6658
1.7308
1.84483
2.02916
2.2847
2.63148
3.11308
3.82845
5.02696
7.35864
12.7048
26.3328
60.1137
140.36
378.556
1564.64
1.86968
1.8376
1.80785
1.78056
1.7551
1.73183
1.70998
1.69019
1.67153
1.65503
1.63958
1.62679
1.61554
1.60885
1.60592
1.61355
1.63319
1.67194
1.74183
1.85949
2.04578
2.30178
2.64721
3.12486
3.83397
5.02132
7.32135
12.5571
25.835
58.9214
139.01
384.342
1635.42
1.86968
1.8376
1.80785
1.78055
1.7551
1.7318
1.70995
1.69013
1.67145
1.65489
1.63936
1.62638
1.61472
1.60691
1.60178
1.60435
1.61545
1.63886
1.68326
1.75812
1.87974
2.06867
2.32533
2.6699
3.14433
3.84564
5.02227
7.28507
12.4066
25.3356
57.6446
137.561
390.389
1707.06
1.86968
1.83759
1.80785
1.78054
1.75509
1.73178
1.70993
1.69008
1.67138
1.65477
1.63918
1.62609
1.61422
1.60588
1.59966
1.59962
1.6061
1.62088
1.64996
1.70048
1.78077
1.90711
2.09882
2.35691
2.70047
3.17175
3.86607
5.02719
7.25188
12.2568
24.7938
56.2653
136.268
396.607
1778.94
1.83759
1.86972
1.80785
1.78054
1.75509
1.73176
1.70991
1.69003
1.67132
1.65467
1.63903
1.62586
1.61386
1.60525
1.59851
1.59716
1.6013
1.61144
1.63181
1.66785
1.72476
1.81135
1.94268
2.13793
2.39723
2.74032
3.20777
3.8951
5.03822
7.22356
12.0978
24.2153
54.989
135.054
402.963
1850.51
1.80785
1.83769
1.86979
1.78053
1.75509
1.73175
1.7099
1.68999
1.67127
1.65458
1.6389
1.62567
1.61357
1.60482
1.5978
1.59584
1.59881
1.60664
1.62236
1.65025
1.6934
1.75772
1.85108
1.98821
2.18676
2.44793
2.78987
3.25371
3.93251
5.0585
7.20103
11.9315
23.6796
53.79
133.987
409.386
1921.31
1.78052
1.80801
1.83788
1.86987
1.75509
1.73173
1.70989
1.68996
1.67124
1.65451
1.6388
1.62551
1.61333
1.60447
1.59729
1.59505
1.5975
1.60421
1.61766
1.64136
1.67688
1.7283
1.80071
1.90184
2.0447
2.24723
2.50942
2.85038
3.30942
3.97959
5.09067
7.18532
11.7851
23.185
52.6974
133.01
415.868
1990.89
1.75509
1.78072
1.80833
1.83808
1.86994
1.73172
1.70988
1.68993
1.67121
1.65444
1.63871
1.62537
1.61313
1.60419
1.59688
1.59449
1.59672
1.60298
1.6154
1.63721
1.66904
1.71367
1.77413
1.85556
1.96458
2.11405
2.31959
2.5832
2.92199
3.37593
4.04261
5.13813
7.1874
11.6575
22.7383
51.6893
132.163
422.289
2058.87
1.73171
1.75534
1.78114
1.80866
1.83829
1.87002
1.70987
1.6899
1.67118
1.65438
1.63865
1.62525
1.61296
1.60396
1.59655
1.59406
1.59619
1.60229
1.61437
1.63556
1.66599
1.70767
1.76229
1.83321
1.92413
2.04164
2.19658
2.40566
2.66927
3.00544
3.46151
4.12656
5.19932
7.19741
11.548
22.3358
50.7801
131.412
428.634
2124.96
1.70987
1.73199
1.75586
1.78157
1.809
1.8385
1.87011
1.68987
1.67116
1.65432
1.63859
1.62515
1.61282
1.60376
1.59626
1.59371
1.59578
1.60185
1.6139
1.63514
1.66536
1.70638
1.75913
1.82578
1.90773
2.00901
2.1344
2.29516
2.50473
2.76869
3.11169
3.57234
4.22473
5.27265
7.21885
11.459
21.9779
49.9525
130.775
434.849
2188.9
1.68985
1.7102
1.73258
1.7564
1.78201
1.80935
1.83872
1.87019
1.67115
1.65427
1.63855
1.62505
1.6127
1.60359
1.59602
1.59342
1.59545
1.60153
1.61367
1.63519
1.66589
1.70744
1.76024
1.82601
1.90528
2.00027
2.11241
2.24616
2.4102
2.62009
2.8927
3.24591
3.69773
4.33514
5.35619
7.25482
11.3875
21.661
49.212
130.226
440.926
2250.52
1.67114
1.69019
1.71087
1.73319
1.75695
1.78246
1.8097
1.83895
1.87027
1.65423
1.63852
1.62496
1.61262
1.60345
1.59582
1.59319
1.59519
1.60129
1.61354
1.63544
1.66685
1.70968
1.76393
1.83107
1.91077
2.00448
2.11179
2.23591
2.37774
2.54504
2.7661
3.0515
3.39686
3.83693
4.45599
5.44943
7.30049
11.3347
21.3821
48.5444
129.769
446.838
2309.65
1.65419
1.67152
1.69091
1.71157
1.73381
1.75751
1.78292
1.81007
1.83918
1.87036
1.63849
1.62489
1.61255
1.60333
1.59566
1.59301
1.59498
1.6011
1.61349
1.63575
1.66795
1.71224
1.76875
1.83883
1.92139
2.01756
2.12562
2.24685
2.38026
2.53032
2.71683
2.9553
3.23262
3.56508
3.98833
4.58645
5.5506
7.35552
11.295
21.1385
47.95
129.388
452.575
2366.26
1.63847
1.65456
1.67231
1.69165
1.71228
1.73445
1.75809
1.7834
1.81045
1.83942
1.87045
1.62482
1.6125
1.60322
1.59553
1.59288
1.59483
1.60098
1.61349
1.63609
1.66906
1.71479
1.77373
1.84776
1.93498
2.0362
2.14895
2.2736
2.40672
2.5505
2.72342
2.93546
3.17118
3.43609
3.74973
4.15171
4.72495
5.65858
7.41744
11.2717
20.9258
47.4173
129.075
458.122
2420.23
1.62476
1.63887
1.65536
1.67312
1.69241
1.71302
1.73511
1.75868
1.78389
1.81083
1.83967
1.87054
1.61247
1.60311
1.59545
1.59278
1.59472
1.6009
1.61354
1.63646
1.67016
1.71725
1.77858
1.85667
1.94979
2.0584
2.17863
2.31104
2.45027
2.59696
2.76878
2.97427
3.18388
3.40942
3.66011
3.95049
4.32549
4.87044
5.7716
7.48595
11.2565
20.7416
46.9455
128.828
463.473
2471.61
1.61244
1.62511
1.63972
1.65618
1.67396
1.6932
1.71378
1.73579
1.75929
1.7844
1.81122
1.83992
1.87063
1.60302
1.59539
1.5927
1.59465
1.60088
1.61364
1.63687
1.67125
1.71959
1.78322
1.86523
1.96438
2.08219
2.21285
2.35629
2.50637
2.6629
2.84314
3.05543
3.26394
3.46346
3.66941
3.89891
4.16551
4.50898
5.02189
5.889
7.55887
11.2569
20.5823
46.5268
128.629
468.62
2520.34
1.60293
1.61283
1.62589
1.6406
1.65702
1.67483
1.69401
1.71455
1.73649
1.75992
1.78492
1.81163
1.84018
1.87073
1.59535
1.59264
1.5946
1.60088
1.61378
1.6373
1.67233
1.72184
1.78764
1.87334
1.97839
2.10568
2.24924
2.40788
2.57265
2.74456
2.94097
3.17087
3.39075
3.59363
3.77359
3.95165
4.15124
4.38994
4.70084
5.17806
6.00898
7.63568
11.2617
20.444
46.1555
128.487
473.559
2566.53
1.59534
1.60318
1.61363
1.62669
1.6415
1.6579
1.67572
1.69485
1.71535
1.73722
1.76056
1.78546
1.81204
1.84044
1.87081
1.59257
1.59457
1.60091
1.61395
1.63777
1.67342
1.72402
1.79187
1.88103
1.99179
2.12839
2.28524
2.46309
2.64822
2.84041
3.0598
3.31712
3.56023
3.77799
3.96431
4.1137
4.25435
4.4163
4.6204
4.89783
5.3368
6.13089
7.71515
11.2724
20.3247
45.8283
128.376
478.289
2610.16
1.59251
1.59562
1.60376
1.61445
1.62753
1.64244
1.65881
1.67663
1.69571
1.71617
1.73796
1.76122
1.78601
1.81245
1.84069
1.8709
1.59452
1.60095
1.61415
1.63826
1.6745
1.72613
1.79592
1.88832
2.0046
2.15016
2.32024
2.51852
2.72978
2.95045
3.19962
3.49441
3.77255
4.0182
4.22087
4.37713
4.4829
4.57554
4.69261
4.85571
5.09918
5.49836
6.25391
7.79611
11.2909
20.2224
45.5379
128.314
482.808
2651.38
1.59451
1.59248
1.59617
1.60433
1.61532
1.62841
1.6434
1.65975
1.67757
1.69661
1.71701
1.73873
1.76189
1.78655
1.81285
1.84093
1.87098
1.60098
1.61435
1.63876
1.67557
1.72818
1.79981
1.89525
2.01685
2.17095
2.35416
2.57327
2.81235
3.0709
3.36261
3.70636
4.03306
4.32108
4.55412
4.7245
4.83355
4.88024
4.91332
4.97798
5.09411
5.30007
5.66094
6.37704
7.87807
11.314
20.1344
45.2818
128.268
487.117
2690.18
1.60105
1.59436
1.59237
1.59672
1.60496
1.61622
1.62933
1.64439
1.66073
1.67853
1.69753
1.71787
1.73951
1.76256
1.78708
1.81324
1.84117
1.87106
1.61452
1.63923
1.67659
1.73015
1.80353
1.90185
2.02854
2.19078
2.38698
2.62691
2.89442
3.19543
3.54548
3.96012
4.35286
4.70251
4.98373
5.18198
5.29595
5.33561
5.30493
5.26585
5.27033
5.33506
5.4993
5.82292
6.49942
7.9601
11.3408
20.0594
45.0548
128.265
491.221
2726.74
1.61474
1.60066
1.59392
1.59221
1.59735
1.60564
1.61715
1.63029
1.64541
1.66174
1.67952
1.69848
1.71875
1.74029
1.76321
1.78759
1.81361
1.8414
1.87114
1.63964
1.67755
1.73202
1.80706
1.90811
2.03967
2.20964
2.41869
2.67906
2.97555
3.32267
3.73946
4.25368
4.7504
5.19092
5.54739
5.79284
5.92093
5.94418
5.88594
5.7563
5.63137
5.56781
5.57703
5.69617
5.98306
6.62015
8.0418
11.3705
19.9952
44.8547
128.274
495.119
2761.07
1.6401
1.61399
1.59956
1.59339
1.59215
1.59801
1.60638
1.6181
1.6313
1.64645
1.66279
1.68054
1.69945
1.71963
1.74104
1.76384
1.78809
1.81398
1.84162
1.87122
1.67838
1.73374
1.81036
1.91402
2.05019
2.22755
2.44919
2.72945
3.05561
3.45202
3.94106
4.57454
5.23336
5.83319
6.3092
6.63339
6.78939
6.79265
6.67841
6.48696
6.23361
6.00818
5.86875
5.81854
5.88996
6.14043
6.73875
8.12235
11.4023
19.941
44.6772
128.295
498.82
2789.16
1.67925
1.63876
1.61175
1.59832
1.59299
1.59218
1.59869
1.6072
1.61908
1.63236
1.64752
1.66388
1.68158
1.70042
1.72048
1.74178
1.76445
1.78858
1.81433
1.84184
1.87129
1.73526
1.81338
1.91953
2.06008
2.24448
2.47838
2.77786
3.13447
3.58229
4.1477
4.92039
5.79385
6.66411
7.36679
7.82254
8.03232
8.01268
7.81561
7.50545
7.13976
6.73564
6.39452
6.17159
6.05829
6.07998
6.29415
6.85427
8.20158
11.4355
19.8946
44.5207
128.337
501.872
2812.88
1.73678
1.6772
1.63476
1.60935
1.59725
1.59267
1.59234
1.59937
1.60809
1.62008
1.63347
1.64863
1.66499
1.68262
1.70136
1.72131
1.7425
1.76505
1.78905
1.81468
1.84205
1.87137
1.81607
1.92459
2.06929
2.26041
2.50611
2.82417
3.21183
3.71191
4.35768
5.29316
6.43686
7.67846
8.7874
9.5212
9.8343
9.79962
9.48846
8.99941
8.42726
7.84325
7.26042
6.78856
6.47484
6.29517
6.26567
6.44404
6.96732
8.27901
11.4698
19.856
44.3814
128.381
504.468
2838.68
1.81867
1.7338
1.67078
1.63044
1.60721
1.59628
1.59241
1.5927
1.60004
1.60906
1.62111
1.63462
1.64977
1.6661
1.68363
1.70228
1.72212
1.74319
1.76563
1.78951
1.81501
1.84225
1.87144
1.92914
2.07774
2.27529
2.53229
2.86827
3.28726
3.8394
4.57063
5.69501
7.16546
8.87413
10.5446
11.8219
12.426
12.4098
11.9617
11.2232
10.3424
9.43995
8.59371
7.80517
7.18829
6.77713
6.52824
6.44642
6.5882
7.07713
8.35459
11.5046
19.823
44.2742
128.428
507.305
2866.73
1.93342
1.81454
1.72392
1.66398
1.62649
1.60521
1.59536
1.59206
1.59324
1.60073
1.61011
1.62219
1.63581
1.6509
1.66719
1.68461
1.70317
1.7229
1.74387
1.76619
1.78996
1.81534
1.84245
1.87147
2.08541
2.28903
2.55681
2.91008
3.36025
3.96367
4.78704
6.12611
7.97484
10.2386
12.6123
14.658
15.9284
16.1598
15.5746
14.5168
13.2054
11.8325
10.5343
9.38506
8.36623
7.59154
7.07712
6.75668
6.6223
6.72665
7.18344
8.42776
11.5395
19.7995
44.1866
128.483
510.417
2897.25
2.09244
1.92779
1.79975
1.7136
1.65771
1.62276
1.60332
1.59453
1.59172
1.5939
1.60145
1.61121
1.6233
1.637
1.65201
1.66824
1.68557
1.70404
1.72367
1.74453
1.76674
1.79039
1.81565
1.84255
1.87147
2.30164
2.57958
2.94953
3.43031
4.08415
5.00756
6.58406
8.85414
11.7486
14.955
17.9756
20.2303
21.2192
20.76
19.3232
17.4426
15.411
13.4505
11.6973
10.2095
8.93934
7.99606
7.37361
6.97983
6.79282
6.85952
7.28565
8.4987
11.5699
19.7807
44.0966
128.558
513.825
2930.47
2.31297
2.08505
1.90597
1.78449
1.70405
1.65173
1.61921
1.60158
1.59377
1.59145
1.59465
1.60223
1.61235
1.62443
1.63816
1.6531
1.66927
1.68651
1.70488
1.72441
1.74517
1.76728
1.79081
1.81581
1.84255
1.87147
2.60063
2.98651
3.49704
4.20066
5.23258
7.06433
9.78937
13.3761
17.5272
21.7137
25.2484
27.4315
27.7656
26.2307
23.6276
20.7028
17.8082
15.1734
12.9143
11.0585
9.52004
8.39957
7.66542
7.19709
6.95767
6.98665
7.3841
8.55814
11.5965
19.7629
44.0024
128.645
517.573
2966.65
2.61918
2.30318
2.05318
1.88379
1.77035
1.6949
1.646
1.61586
1.59996
1.59309
1.59129
1.59545
1.60308
1.61349
1.62555
1.63928
1.65417
1.67026
1.68743
1.7057
1.72514
1.74579
1.7678
1.79102
1.81581
1.84255
1.87147
3.02111
3.5602
4.31338
5.46193
7.56104
10.7657
15.0924
20.2798
25.7971
30.8868
34.6765
36.3858
35.5962
32.5448
28.4407
24.2519
20.3612
16.9763
14.1697
11.9233
10.1041
8.79999
7.95147
7.40801
7.1165
7.10855
7.46588
8.60925
11.6266
19.745
43.9074
128.759
521.687
3006.06
3.05124
2.60646
2.25674
2.02126
1.86321
1.75676
1.68609
1.64051
1.61271
1.59846
1.59252
1.59124
1.5963
1.60399
1.6146
1.62667
1.64038
1.65522
1.67123
1.68832
1.7065
1.72585
1.7464
1.76805
1.79102
1.81581
1.84255
1.87147
3.61996
4.42271
5.69477
8.06745
11.7682
16.8696
23.164
30.1452
37.0253
42.8068
46.4514
47.1609
44.6939
39.6462
33.7013
28.0391
23.0331
18.8346
15.4481
12.7952
10.6872
9.19552
8.23095
7.61216
7.26938
7.20942
7.53602
8.66587
11.6607
19.7295
43.8087
128.894
526.223
3049.01
3.67166
3.03436
2.53867
2.21102
1.99163
1.84341
1.74363
1.6776
1.63527
1.60975
1.59709
1.59207
1.59132
1.59713
1.60495
1.61567
1.62777
1.64145
1.65625
1.67218
1.68919
1.70727
1.72653
1.7467
1.76805
1.79102
1.81581
1.84255
1.87147
4.5291
5.92755
8.57658
12.7827
18.6811
26.1327
34.6773
43.5327
51.6321
57.7401
60.692
59.7598
54.9956
47.4531
39.338
32.0112
25.7877
20.7251
16.7357
13.6662
11.2651
9.58435
8.50335
7.80943
7.39703
7.29593
7.61339
8.72868
11.6995
19.7141
43.7117
129.066
531.216
3095.83
4.62249
3.64967
2.93384
2.47311
2.16855
1.96311
1.82425
1.73095
1.66944
1.63028
1.607
1.59587
1.59174
1.59159
1.59791
1.60594
1.61672
1.62886
1.64249
1.65725
1.6731
1.69004
1.70803
1.72687
1.7467
1.76805
1.79102
1.81581
1.84255
1.87143
6.15782
9.08404
13.7962
20.5019
29.1413
39.316
50.2778
60.9435
69.9586
75.8648
77.4327
74.1177
66.3944
55.8636
45.2727
36.115
28.5912
22.6272
18.0201
14.5293
11.8344
9.96495
8.76844
7.97599
7.5067
7.39131
7.69888
8.79848
11.7437
19.7034
43.612
129.271
536.741
3146.9
4.59311
6.36099
3.49542
2.83907
2.41223
2.12768
1.93549
1.80571
1.71872
1.66162
1.62554
1.6045
1.59478
1.59149
1.5921
1.59866
1.60696
1.61775
1.62994
1.64351
1.65823
1.67399
1.69086
1.7084
1.72687
1.7467
1.76805
1.79102
1.81581
1.84245
1.87136
9.58511
14.7975
22.3096
32.149
43.99
57.1381
70.5343
82.7833
92.2411
97.2544
96.6154
90.1025
78.7468
64.7613
51.425
40.2996
31.4129
24.5225
19.2905
15.3786
12.3924
10.3366
8.99316
8.11928
7.62782
7.49663
7.79347
8.87617
11.7942
19.6932
43.5183
129.527
542.843
3202.58
4.33874
6.33295
10.0271
3.35526
2.75117
2.35367
2.08813
1.90876
1.7878
1.70697
1.65415
1.62102
1.60224
1.59384
1.59117
1.59274
1.5994
1.60798
1.61876
1.63099
1.6445
1.65918
1.67487
1.69127
1.7084
1.72688
1.7467
1.76805
1.79102
1.81565
1.84225
1.87129
15.7762
24.085
35.1198
48.636
64.0048
80.2172
95.8989
109.337
118.596
121.869
118.089
107.523
91.881
74.0215
57.7157
44.5179
34.2253
26.3952
20.5381
16.2093
12.9371
10.6518
9.18668
8.27776
7.76204
7.61313
7.89829
8.96282
11.8518
19.6912
43.4238
129.833
549.622
3263.33
4.11583
5.88352
10.0189
16.6413
3.22658
2.66674
2.29708
2.04985
1.88294
1.77057
1.6957
1.64704
1.61681
1.60025
1.59307
1.59093
1.59345
1.60015
1.609
1.61975
1.63202
1.64547
1.66011
1.67529
1.69127
1.7084
1.72688
1.7467
1.76805
1.79081
1.81533
1.84204
1.87122
25.8116
38.0243
53.2005
70.7852
89.8326
109.027
126.684
140.755
149.01
149.553
141.618
126.14
105.607
83.5191
64.0705
48.7274
37.0045
28.2323
21.7559
17.0183
13.3979
10.9232
9.401
8.45345
7.91098
7.74222
8.01465
9.05965
11.918
19.6936
43.3429
130.213
557.135
3329.55
3.9153
5.4918
9.20011
16.698
27.3472
3.10371
2.58527
2.2424
2.0129
1.85808
1.75403
1.68495
1.64036
1.61304
1.59857
1.59243
1.5908
1.5942
1.60091
1.61
1.62073
1.63303
1.64642
1.66057
1.67529
1.69127
1.7084
1.72688
1.7467
1.76779
1.79039
1.815
1.84183
1.87114
40.8382
57.6423
77.4053
99.2525
121.944
143.882
163.059
177.056
183.338
180.036
166.889
145.678
119.729
93.1339
70.4209
52.8905
39.7308
30.0236
22.9389
17.7
13.794
11.2238
9.63889
8.64857
8.07654
7.88556
8.14407
9.16808
11.9942
19.7017
43.2619
130.67
565.524
3401.75
3.72747
5.14011
8.4696
15.3259
27.5697
43.3498
2.98571
2.50673
2.18968
1.97733
1.83421
1.73822
1.67481
1.63429
1.60976
1.59713
1.59192
1.59078
1.59494
1.6017
1.61098
1.6217
1.63403
1.64688
1.66057
1.67529
1.69127
1.7084
1.72688
1.74639
1.76727
1.78995
1.81467
1.84161
1.87106
61.9281
83.812
108.381
134.479
160.621
184.94
205.061
218.119
221.304
212.946
193.532
165.845
134.055
102.754
76.7063
56.976
42.3883
31.7612
23.9326
18.285
14.2326
11.5576
9.90339
8.86568
8.26087
8.04503
8.28828
9.28976
12.0818
19.7197
43.2086
131.238
574.863
3480.35
3.55016
4.81349
7.80517
14.0546
25.4694
43.882
65.7572
2.87237
2.43121
2.13903
1.94322
1.8114
1.72329
1.66556
1.62891
1.6069
1.5959
1.59155
1.59087
1.59568
1.60251
1.61194
1.62267
1.63451
1.64687
1.66058
1.67529
1.69127
1.70841
1.72653
1.74578
1.76673
1.7895
1.81432
1.84139
1.87098
89.9642
117.156
146.518
176.686
205.979
232.234
252.599
263.691
262.503
247.82
221.139
186.35
148.405
112.28
82.8759
60.9584
44.9647
33.218
24.7847
18.9319
14.7188
11.9286
10.198
9.10782
8.46652
8.22285
8.44939
9.42661
12.1832
19.7508
43.156
131.916
585.346
3565.86
3.38263
4.5084
7.18469
12.8622
23.4883
40.8777
66.7771
95.4517
2.7637
2.35885
2.09054
1.91064
1.78985
1.70963
1.65728
1.62414
1.60439
1.59487
1.59131
1.59108
1.59639
1.60334
1.61291
1.62313
1.6345
1.64687
1.66058
1.67529
1.69128
1.70803
1.72584
1.74516
1.76618
1.78904
1.81396
1.84116
1.8709
125.534
157.996
191.946
225.904
258.007
285.692
305.471
313.386
306.415
284.131
249.291
206.912
162.614
121.627
88.8878
64.8174
47.1227
34.4671
25.7265
19.6482
15.2586
12.3415
10.5265
9.37851
8.69636
8.42154
8.62957
9.58192
12.3007
19.7972
43.1512
132.772
597.078
3675.92
3.22449
4.22426
6.60231
11.7278
21.5911
38.0158
62.7041
97.1469
132.973
2.65979
2.28981
2.04431
1.87991
1.7701
1.69738
1.64989
1.6199
1.60223
1.594
1.59115
1.59145
1.59709
1.60423
1.61337
1.6231
1.63451
1.64687
1.66058
1.6753
1.69086
1.70727
1.72513
1.74451
1.76561
1.78856
1.8136
1.84092
1.87081
168.876
206.351
244.582
282.045
316.626
345.167
363.361
366.685
352.418
321.318
277.577
227.276
176.546
130.727
94.7087
68.0473
48.9735
35.8482
26.769
20.4425
15.8585
12.8018
10.8936
9.68153
8.95371
8.64412
8.83019
9.75805
12.4378
19.8622
43.1668
133.795
612.775
3808.91
3.07534
3.96114
6.05838
10.6459
19.749
35.2365
58.8178
91.8497
135.505
178.46
2.56083
2.22424
2.00075
1.85177
1.75239
1.68639
1.64328
1.61612
1.6004
1.59328
1.59095
1.59194
1.59786
1.60465
1.61332
1.6231
1.63451
1.64688
1.66058
1.67487
1.69003
1.70649
1.7244
1.74385
1.76503
1.78808
1.81323
1.84068
1.87072
219.885
261.997
304.218
344.975
381.727
410.459
425.842
422.948
399.826
358.812
305.613
247.225
190.087
139.524
99.5746
70.8177
51.0211
37.3774
27.9245
21.324
16.5259
13.3153
11.3041
10.0212
9.24235
8.89447
9.05437
9.95826
12.5975
19.9531
43.2142
135.323
632.845
3944.97
2.93444
3.71959
5.55459
9.62035
17.9523
32.4995
55.0137
86.8283
128.821
181.919
231.658
2.46713
2.16269
1.96096
1.82655
1.73649
1.67655
1.63737
1.61275
1.59883
1.59268
1.59081
1.59262
1.59817
1.60458
1.61333
1.62311
1.63451
1.6469
1.66012
1.67399
1.68918
1.70568
1.72365
1.74317
1.76443
1.78758
1.81284
1.84043
1.87063
278.179
324.578
370.623
414.59
453.238
481.324
492.374
481.429
447.907
396.068
333.073
266.58
203.147
146.862
103.747
73.8834
53.289
39.0726
29.2063
22.3034
17.2691
13.8887
11.7638
10.4023
9.56661
9.1764
9.30603
10.1858
12.785
20.072
43.3447
137.47
654.756
4083.24
2.80127
3.50192
5.09187
8.66084
16.2026
29.7865
51.2351
81.9054
122.58
173.648
236.021
292.004
2.37957
2.10666
1.92536
1.80392
1.72222
1.66772
1.63209
1.60979
1.5975
1.59221
1.59094
1.59291
1.59802
1.6046
1.61333
1.62311
1.63453
1.64643
1.65918
1.67309
1.6883
1.70486
1.72288
1.74248
1.76382
1.78707
1.81245
1.84018
1.87054
343.236
393.734
443.673
490.975
531.216
557.501
562.307
541.291
495.937
432.61
359.683
285.2
214.011
153.147
108.361
77.2786
55.8035
40.9534
30.6297
23.3922
18.0969
14.5292
12.2789
10.8303
9.93134
9.49443
9.58922
10.4453
13.0047
20.2606
43.6016
140.11
678.709
4222.49
2.67678
3.30411
4.66984
7.76938
14.5076
27.0952
47.4473
77.0013
116.493
166.105
225.885
297.099
358.773
2.3003
2.05666
1.89349
1.78364
1.70942
1.65981
1.62739
1.60719
1.59638
1.59208
1.59086
1.59278
1.59802
1.60461
1.61334
1.62316
1.63404
1.64547
1.65822
1.67217
1.68741
1.70402
1.7221
1.74176
1.7632
1.78654
1.81204
1.83992
1.87045
414.552
469.276
523.547
574.518
615.881
638.694
634.861
601.655
543.255
468.038
385.23
300.641
223.298
160.087
113.466
81.0413
58.5933
43.0418
32.2114
24.6033
19.0194
15.2448
12.8564
11.3112
10.342
9.85321
9.90945
10.7415
13.3112
20.5463
44.0106
143.23
704.877
4361.69
2.564
3.12426
4.29004
6.9479
12.8854
24.4347
43.6365
72.0561
110.452
158.842
216.93
284.691
364.252
431.268
2.23
2.01203
1.86498
1.76545
1.69795
1.65274
1.62319
1.60495
1.59578
1.59185
1.59055
1.59284
1.59803
1.6046
1.6134
1.6227
1.63304
1.6445
1.65724
1.67122
1.6865
1.70315
1.72129
1.74103
1.76255
1.786
1.81163
1.83966
1.87036
491.823
551.371
610.83
665.917
707.552
724.486
709.141
661.677
589.298
502.037
406.359
313.809
233.529
167.751
119.116
85.2129
61.6902
45.3621
33.9697
25.9506
20.0472
16.0441
13.5033
11.8512
10.8042
10.2588
10.2716
11.1424
13.7261
20.9183
44.5589
146.994
733.563
4499.17
2.46407
2.96402
3.95409
6.20233
11.3545
21.8231
39.804
67.0347
104.363
151.716
208.477
274.143
348.977
436.631
509.044
2.16763
1.9722
1.83946
1.74914
1.68767
1.6464
1.61951
1.60349
1.59525
1.59147
1.59059
1.59285
1.59805
1.60468
1.61295
1.62172
1.63203
1.64351
1.65624
1.67025
1.68556
1.70227
1.72047
1.74028
1.76189
1.78546
1.81122
1.83941
1.87027
575.189
640.788
706.757
766.325
806.541
814.281
784.217
720.621
633.617
530.127
424.343
328.278
244.793
176.21
125.368
89.838
65.1287
47.9404
35.9245
27.4495
21.192
16.9362
14.2274
12.457
11.3246
10.7159
10.758
11.6657
14.2064
21.3792
45.3197
151.423
764.904
4633.73
2.37576
2.82234
3.66754
5.54158
9.93389
19.2841
35.9625
61.9191
98.1582
144.588
200.352
264.456
336.557
417.613
513.695
592.198
2.11225
1.93665
1.81662
1.73454
1.67843
1.64078
1.6169
1.60243
1.59474
1.59153
1.59061
1.59281
1.59822
1.60428
1.61197
1.62075
1.631
1.64249
1.65522
1.66926
1.6846
1.70136
1.71963
1.73951
1.76122
1.78492
1.81082
1.83917
1.87019
665.576
739.273
813.557
877.363
913.19
907.389
859.294
777.887
670.332
554.018
444.055
344.155
257.181
185.539
132.282
94.9645
68.9458
50.8053
38.0976
29.1162
22.466
17.931
15.0364
13.1359
11.9083
11.3269
11.3841
12.2459
14.756
21.9588
46.2929
156.706
799.392
4763.4
2.29788
2.69611
3.43173
4.97891
8.65509
16.8448
32.1349
56.7041
91.7881
137.352
192.359
255.416
325.523
402.913
489.651
595.499
681.801
2.06302
1.90493
1.7962
1.72142
1.67021
1.63662
1.61516
1.60171
1.59484
1.59155
1.5906
1.59297
1.59793
1.60339
1.61101
1.61978
1.62995
1.64145
1.65418
1.66824
1.68363
1.70042
1.71876
1.73873
1.76056
1.78439
1.81044
1.83894
1.8701
765.164
850.16
934.668
1001.39
1027.74
1003.58
933.739
825.785
701.62
580.184
465.626
361.546
270.783
195.815
139.92
100.642
73.1807
53.9868
40.5117
30.9679
23.8818
19.0382
15.9386
13.8933
12.684
12.1036
12.0659
12.8839
15.3866
22.6639
47.5751
162.941
837.103
4887.11
2.22921
2.5837
3.23357
4.51114
7.5477
14.5493
28.354
51.3972
85.2133
129.916
184.349
246.759
315.614
390.328
472.136
564.602
683.297
780.632
2.01925
1.87664
1.77788
1.70974
1.66396
1.63398
1.61421
1.60184
1.59486
1.59152
1.59094
1.5927
1.59717
1.60257
1.61004
1.61879
1.62888
1.64039
1.65311
1.6672
1.68263
1.69947
1.71788
1.73796
1.75991
1.78388
1.81006
1.83871
1.87002
878.344
979.137
1075.84
1140.6
1152.67
1102.81
997.328
866.885
735.974
608.793
489.18
380.554
285.686
207.111
148.345
106.922
77.8741
57.5165
43.1906
33.0222
25.4524
20.2676
16.9401
14.8938
13.6592
12.9354
12.8016
13.5836
16.1032
23.532
49.1924
170.354
878.843
5002.75
2.16865
2.48399
3.06359
4.12543
6.61667
12.4911
24.6879
46.0215
78.4058
122.19
176.179
238.292
306.48
379.531
457.698
543.648
642.845
780.57
894.545
1.98033
1.85134
1.76155
1.70069
1.66008
1.63274
1.6144
1.60187
1.5948
1.59194
1.59106
1.59205
1.59648
1.60178
1.60905
1.61779
1.6278
1.63931
1.65204
1.66613
1.68161
1.6985
1.71701
1.73721
1.75928
1.78339
1.80969
1.83849
1.86995
1013.2
1136.71
1242.79
1306.63
1290.67
1190.63
1052.69
912.396
773.671
640.021
514.836
401.269
301.968
219.498
157.618
113.855
83.0667
61.4259
46.1582
35.2968
27.1908
21.627
18.2559
16.1389
14.6903
13.8166
13.5883
14.3392
16.9156
24.5724
51.2685
179.18
924.531
5109.82
2.11518
2.39601
2.91519
3.80846
5.84398
10.7135
21.2807
40.6554
71.3538
114.089
167.701
229.82
297.883
370.059
445.916
526.968
617.805
726.431
894.786
1036.01
1.94562
1.82885
1.7487
1.6952
1.65846
1.63301
1.61444
1.60178
1.59536
1.59223
1.59097
1.59158
1.59578
1.60101
1.60804
1.61678
1.62671
1.63819
1.65094
1.66503
1.68057
1.69754
1.71617
1.73648
1.75867
1.78291
1.80934
1.83828
1.86987
1185.52
1336.58
1472.33
1510.97
1418.37
1268.7
1115.02
962.874
815.035
674.05
542.707
423.772
319.697
233.037
167.794
121.489
88.7975
65.7459
49.4381
37.8091
29.108
23.4057
19.8806
17.4423
15.768
14.7399
14.4218
15.1544
17.8251
25.827
53.8622
189.72
975.568
5206.43
2.06778
2.31871
2.78384
3.55063
5.20925
9.20727
18.2242
35.5014
64.1181
105.538
158.759
221.137
289.578
361.622
436.177
514.025
598.448
696.57
821.044
1043.51
1229.51
1.91483
1.81096
1.74099
1.69314
1.65882
1.63305
1.61431
1.60257
1.59596
1.59239
1.59115
1.59125
1.59506
1.60027
1.60704
1.61575
1.62562
1.63705
1.64982
1.66392
1.67954
1.69662
1.71534
1.73578
1.75808
1.78244
1.80899
1.83807
1.86979
1431.59
1668.27
1793.53
1706.27
1534.19
1358.61
1185.67
1019.12
860.485
711.101
572.904
448.129
338.924
247.775
178.919
129.865
95.1017
70.5049
53.0519
40.5737
31.6095
25.5897
21.5687
18.7913
16.8818
15.6974
15.2964
16.0285
18.8443
27.3116
57.1134
202.36
1031.64
5293.13
2.02591
2.2508
2.667
3.33884
4.69053
7.94934
15.5242
30.7165
56.9421
96.5396
149.187
212.011
281.31
353.926
428.121
504.016
584.079
674.11
785.059
939.91
1274.25
1547.29
1.89003
1.80044
1.73835
1.69363
1.65886
1.63286
1.61533
1.60372
1.59662
1.59291
1.59137
1.59109
1.59433
1.59955
1.60605
1.61469
1.62451
1.63589
1.6487
1.66283
1.67855
1.69572
1.71455
1.7351
1.7575
1.78199
1.80866
1.83787
1.86972
1906.8
2159.89
2094.83
1884.23
1670.9
1463.55
1266.92
1082.38
910.651
751.465
605.552
474.39
359.677
263.742
191.024
139.014
102.008
75.7266
57.0167
44.1719
34.6684
27.8479
23.3047
20.1728
18.021
16.6813
16.2065
16.9639
19.9784
29.0723
61.1113
217.499
1094.27
5368.48
1.99195
2.19148
2.5631
3.16054
4.26947
6.90869
13.1827
26.3432
50.0453
87.3308
138.888
202.177
272.782
346.678
421.401
496.467
573.728
657.934
759.169
895.507
1116.81
1737.2
2234.32
1.87555
1.79717
1.739
1.69369
1.65859
1.63419
1.61719
1.60527
1.5978
1.59356
1.59157
1.59104
1.59362
1.59883
1.60509
1.6136
1.62341
1.63471
1.64758
1.66178
1.67758
1.69486
1.71377
1.73444
1.75694
1.78156
1.80833
1.83768
1.86969
2610.49
2646.38
2387.06
2110.11
1839.31
1591.97