/*--------------------------------*- C++ -*----------------------------------*\
  =========                 |
  \\      /  F ield         | OpenFOAM: The Open Source CFD Toolbox
   \\    /   O peration     | Website:  https://openfoam.org
    \\  /    A nd           | Version:  8
     \\/     M anipulation  |
\*---------------------------------------------------------------------------*/
FoamFile
{
    version     2.0;
    format      ascii;
    class       volScalarField;
    location    "0.05";
    object      alphat;
}
// * * * * * * * * * * * * * * * * * * * * * * * * * * * * * * * * * * * * * //

dimensions      [1 -1 -1 0 0 0 0];

internalField   nonuniform List<scalar> 
15677
(
0.000121735
0.000617374
0.000103297
0.00159532
0.000425225
0.000106343
0.00298199
0.000871768
0.000363097
0.000117225
0.00451176
0.00157188
0.000621967
0.000360839
0.000130357
0.0058764
0.00252448
0.00108962
0.000533023
0.000349743
0.000142019
0.00687903
0.00366496
0.00180812
0.00085785
0.000477254
0.000342422
0.000152073
0.00746653
0.00486624
0.00274321
0.00141085
0.000715467
0.000443976
0.000341344
0.000160032
0.0077427
0.00598912
0.0038281
0.00220075
0.00115168
0.00062165
0.000429317
0.000343959
0.000165901
0.00785885
0.00688824
0.0049537
0.00317661
0.00181968
0.000967503
0.000566407
0.000425786
0.000347571
0.000170406
0.00791758
0.00747
0.00599256
0.00425376
0.00269521
0.00153531
0.000841709
0.000537149
0.000426933
0.000351428
0.000173677
0.00793781
0.00775191
0.00683264
0.00532179
0.00371083
0.00231682
0.00132248
0.000760663
0.000522143
0.00043007
0.000354743
0.000176636
0.00793644
0.00787546
0.00741475
0.00626686
0.00477152
0.00326549
0.002022
0.00116992
0.000709131
0.000514551
0.000433365
0.000358382
0.000178926
0.0079343
0.00792147
0.00773518
0.00700048
0.00577035
0.00430083
0.00290659
0.00179925
0.00106565
0.000674299
0.000510371
0.000437607
0.000361819
0.000181079
0.00793425
0.00792722
0.00788146
0.00748671
0.00660853
0.00532491
0.00390787
0.00262426
0.00163417
0.000988017
0.000649558
0.000509216
0.000442109
0.000365385
0.000182791
0.00793455
0.00792503
0.00793287
0.00775423
0.00722047
0.00623779
0.004937
0.00358829
0.00240552
0.00150644
0.000929253
0.000632115
0.000510084
0.000447199
0.000368437
0.000184566
0.00793475
0.00792398
0.00794247
0.00787752
0.00759396
0.00695878
0.00589656
0.00461052
0.00333192
0.00223169
0.00140728
0.000883534
0.000620438
0.000512777
0.0004519
0.000371963
0.000185781
0.00793485
0.00792374
0.00794216
0.00791796
0.00780066
0.00745033
0.00669783
0.00559706
0.00433962
0.00312324
0.00209258
0.00132652
0.000848878
0.000613045
0.000516276
0.000457086
0.000374263
0.000187199
0.00793489
0.0079237
0.00794083
0.00792921
0.0078786
0.00772222
0.00728605
0.00645473
0.00533868
0.00411357
0.00295241
0.00197798
0.00126284
0.000821747
0.000609042
0.000520911
0.000461147
0.000377146
0.000188141
0.00793491
0.0079237
0.00793996
0.007932
0.00790435
0.00784281
0.00764282
0.0071144
0.0062347
0.00511652
0.00392408
0.00280954
0.00188392
0.00120956
0.000801409
0.000607978
0.000525095
0.000465562
0.00037902
0.000189401
0.00793491
0.00792371
0.00793946
0.00793268
0.00791211
0.00788776
0.00780791
0.0075504
0.00695051
0.00603801
0.00492532
0.003763
0.00268969
0.00180424
0.00116657
0.000786933
0.000608257
0.000529802
0.000468736
0.000381556
0.00019019
0.00793491
0.00792371
0.00793917
0.00793296
0.00791413
0.00790317
0.00787555
0.00776556
0.00744793
0.00679613
0.0058635
0.00475987
0.00362562
0.00258734
0.00173868
0.00113291
0.000776894
0.000610171
0.000533546
0.000472744
0.000383002
0.000191391
0.00793491
0.00792372
0.00793897
0.00793319
0.00791456
0.0079079
0.00790122
0.00786121
0.00771222
0.00734357
0.006654
0.00570991
0.00461675
0.00350737
0.00250219
0.00168546
0.00110775
0.000770651
0.00061192
0.000537791
0.000475036
0.00038517
0.000192151
0.00793491
0.00792372
0.00793883
0.00793342
0.00791462
0.00790921
0.00790977
0.00790102
0.00783733
0.00765013
0.00724266
0.00652728
0.00557525
0.00449243
0.00340792
0.00243206
0.00164362
0.0010891
0.000766148
0.000615273
0.000541321
0.000477976
0.000386366
0.000193314
0.0079349
0.00792372
0.00793874
0.00793362
0.00791462
0.00790952
0.00791207
0.00791603
0.00789346
0.00780357
0.00758728
0.00715142
0.00641497
0.00545694
0.00438687
0.00332552
0.00237618
0.00161167
0.00107522
0.000765251
0.000617562
0.000544665
0.000480276
0.000388322
0.000194062
0.0079349
0.00792372
0.00793868
0.00793379
0.00791464
0.00790956
0.00791241
0.00792102
0.00791671
0.00787651
0.00776772
0.00752831
0.00707076
0.00631496
0.00535584
0.00429927
0.00325974
0.00233341
0.00158814
0.00106739
0.000764114
0.000621307
0.000547602
0.000482573
0.000389498
0.000195221
0.0079349
0.00792372
0.00793864
0.00793394
0.00791469
0.00790951
0.00791226
0.00792234
0.00792556
0.00790849
0.00785816
0.00773047
0.00747136
0.00699847
0.00622957
0.00527193
0.00422943
0.00320942
0.00230205
0.00157282
0.00106135
0.000765923
0.000624781
0.000550184
0.000484564
0.000391194
0.000195961
0.0079349
0.00792372
0.00793862
0.00793406
0.00791477
0.00790944
0.00791207
0.00792245
0.00792861
0.00792128
0.00790089
0.00783499
0.00769835
0.00742722
0.00693668
0.00615749
0.00520434
0.00417562
0.00317265
0.00228159
0.00156326
0.00106092
0.000769041
0.000627155
0.000552984
0.000486474
0.000392331
0.000197143
0.0079349
0.00792372
0.0079386
0.00793418
0.00791487
0.00790937
0.00791194
0.00792226
0.00792954
0.00792582
0.00791996
0.00788528
0.00781908
0.00767043
0.00739051
0.00688613
0.00610362
0.00515705
0.00414098
0.00315178
0.00227147
0.00156174
0.0010635
0.000771467
0.00063076
0.000555598
0.000488336
0.000393955
0.000197875
0.0079349
0.00792371
0.00793858
0.00793429
0.00791499
0.00790931
0.00791185
0.00792205
0.00792974
0.0079271
0.00792797
0.00790794
0.00788044
0.0078045
0.00765041
0.00736478
0.00684897
0.00606335
0.00512325
0.00411848
0.00314118
0.00226949
0.00156535
0.00106745
0.000775899
0.000634636
0.000558182
0.000489929
0.000394885
0.000199018
0.0079349
0.00792371
0.00793855
0.00793439
0.00791513
0.00790926
0.0079118
0.00792189
0.00792976
0.00792723
0.00793108
0.00791761
0.00790962
0.00787142
0.0077974
0.00764291
0.00734171
0.00682132
0.00603696
0.0051041
0.00410977
0.00314121
0.00227629
0.00157318
0.00107452
0.000781498
0.000638435
0.000560498
0.000491609
0.000396599
0.000200044
0.0079349
0.00792371
0.00793851
0.00793448
0.00791527
0.00790923
0.00791177
0.00792177
0.00792973
0.00792709
0.00793209
0.00792155
0.0079223
0.0079035
0.00787765
0.00779849
0.0076355
0.00732782
0.00680818
0.00602768
0.00510288
0.0041165
0.00315407
0.00229084
0.00158629
0.00108431
0.000787745
0.000642323
0.00056284
0.000493031
0.000397326
0.000201018
0.00793491
0.00792371
0.00793846
0.00793456
0.00791541
0.00790922
0.00791176
0.00792168
0.00792969
0.00792694
0.00793235
0.00792302
0.00792725
0.00791875
0.0079181
0.00788256
0.00780361
0.00763531
0.00733019
0.00681179
0.00603549
0.00511693
0.00413656
0.00317689
0.0023116
0.00160418
0.00109642
0.000794954
0.000646348
0.000564993
0.000494547
0.000398744
0.000201984
0.00793492
0.00792371
0.00793839
0.00793464
0.00791554
0.00790921
0.00791176
0.00792162
0.00792965
0.00792685
0.00793234
0.00792357
0.00792879
0.00792561
0.00793671
0.00792534
0.00789376
0.00781556
0.00764973
0.00734609
0.0068309
0.00605899
0.00514606
0.00416909
0.00320913
0.00233936
0.00162649
0.00111066
0.000802718
0.000650365
0.000567447
0.000496071
0.000400112
0.000203006
0.00793493
0.00792373
0.00793831
0.00793471
0.00791567
0.00790921
0.00791176
0.00792157
0.0079296
0.00792683
0.00793225
0.00792382
0.00792909
0.00792833
0.00794489
0.00794568
0.00794025
0.00791522
0.00783938
0.00767637
0.00737685
0.00686594
0.00609898
0.00518971
0.0042138
0.00325073
0.00237325
0.00165266
0.00112676
0.000811301
0.000655158
0.000570031
0.000497485
0.000401497
0.000204027
0.00792375
0.00793496
0.00793822
0.00793478
0.00791579
0.00790922
0.00791176
0.00792153
0.00792954
0.00792688
0.00793212
0.00792399
0.00792899
0.00792931
0.00794814
0.00795479
0.00796307
0.00796777
0.00794622
0.00787499
0.00771751
0.0074236
0.00691836
0.00615505
0.00524804
0.00427049
0.00330091
0.00241377
0.0016831
0.00114523
0.000822041
0.000660606
0.000572417
0.000498847
0.000402861
0.000205075
0.00793811
0.00792378
0.00793502
0.00793486
0.0079159
0.00790922
0.00791176
0.00792149
0.00792947
0.00792697
0.00793196
0.00792414
0.0079288
0.00792964
0.00794935
0.00795851
0.00797366
0.00799451
0.00800402
0.00798865
0.00792499
0.00777508
0.00748832
0.00698825
0.00622827
0.00532085
0.00433862
0.00335973
0.00245961
0.00171688
0.00116785
0.000834531
0.000665938
0.000574839
0.000500164
0.000404153
0.000206085
0.00793494
0.0079379
0.00792383
0.00793507
0.00791601
0.00790923
0.00791175
0.00792146
0.00792939
0.0079271
0.00793179
0.00792432
0.0079286
0.00792976
0.00794978
0.00795995
0.00797817
0.00800754
0.00803441
0.00805148
0.00804578
0.00799139
0.00785094
0.00757235
0.00707737
0.0063186
0.00540785
0.00441794
0.00342634
0.00251101
0.00175676
0.00119586
0.000847819
0.000671584
0.000577074
0.000501315
0.000405425
0.000207106
0.0079161
0.00793515
0.00793757
0.0079239
0.00793514
0.00790924
0.00791174
0.00792141
0.0079293
0.00792726
0.0079316
0.00792452
0.00792842
0.00792981
0.00794993
0.00796053
0.00798006
0.00801342
0.00804999
0.00808543
0.00811403
0.00811939
0.00807656
0.00794635
0.00767682
0.00718526
0.00642636
0.00550881
0.00450749
0.00350073
0.00257335
0.00180573
0.00122576
0.000862107
0.000677057
0.000579306
0.000502487
0.000406605
0.000208061
0.00790924
0.00791635
0.00793552
0.00793716
0.00792398
0.0079352
0.00791172
0.00792137
0.0079292
0.00792742
0.00793139
0.00792474
0.00792826
0.00792987
0.00794999
0.00796078
0.00798091
0.00801611
0.00805769
0.00810366
0.00815177
0.00819268
0.00821189
0.00818151
0.00806305
0.00780151
0.00731297
0.00655086
0.00562317
0.00460734
0.00359062
0.00264965
0.0018561
0.0012572
0.000876995
0.000682811
0.00058149
0.000503616
0.000407779
0.000209025
0.00791169
0.00790928
0.00791679
0.0079359
0.0079367
0.00792408
0.00793526
0.00792131
0.00792909
0.00792758
0.00793118
0.00792498
0.00792812
0.00792996
0.00795002
0.00796091
0.00798135
0.0080175
0.00806173
0.0081136
0.00817394
0.00823649
0.00829314
0.00832517
0.00830754
0.00820047
0.00794713
0.00745881
0.0066911
0.00575133
0.0047284
0.00369995
0.00273123
0.0019103
0.00129054
0.000892409
0.00068849
0.00058354
0.000504691
0.000408849
0.000209907
0.00792124
0.00791154
0.00790939
0.00791722
0.00793627
0.00793621
0.0079242
0.00793533
0.00792898
0.00792774
0.00793097
0.00792523
0.00792799
0.00793008
0.00795005
0.00796101
0.00798165
0.00801835
0.00806409
0.00811931
0.00818687
0.00826309
0.00834387
0.00841669
0.00846502
0.00845803
0.00835826
0.00811101
0.00762237
0.00684606
0.00590625
0.00487632
0.00381768
0.00281753
0.00196713
0.00132459
0.00090811
0.000694152
0.000585676
0.000505626
0.000409914
0.000210803
0.00792887
0.00792098
0.0079113
0.00790951
0.00791768
0.00793665
0.00793567
0.00792433
0.00793539
0.00792789
0.00793077
0.00792547
0.00792788
0.00793022
0.00795009
0.0079611
0.00798188
0.00801897
0.00806569
0.00812312
0.00819514
0.00827996
0.00837679
0.00847569
0.00856775
0.00863094
0.008637
0.00854109
0.00829202
0.00780047
0.00703265
0.00609422
0.00503496
0.00394223
0.00290779
0.00202492
0.00135983
0.000924235
0.000700047
0.000587564
0.00050658
0.000410879
0.000211607
0.00792802
0.00792864
0.00792052
0.00791105
0.00790965
0.00791816
0.00793702
0.00793511
0.00792447
0.00793545
0.00793057
0.0079257
0.00792779
0.00793037
0.00795013
0.00796119
0.0079821
0.00801949
0.00806692
0.00812604
0.00820119
0.00829177
0.00839963
0.00851677
0.00863781
0.00874725
0.00882652
0.008842
0.0087502
0.00849433
0.00801323
0.00725585
0.00629352
0.00520183
0.00407213
0.00300099
0.00208385
0.00139526
0.000940722
0.000705764
0.000589641
0.000507436
0.000411841
0.00021243
0.00793038
0.00792816
0.00792829
0.00792003
0.0079108
0.00790983
0.00791866
0.00793739
0.00793453
0.00792463
0.00793551
0.00792591
0.0079277
0.00793052
0.00795016
0.00796128
0.0079823
0.00801996
0.00806796
0.00812849
0.00820611
0.00830108
0.00841692
0.00854747
0.00869036
0.00883132
0.00896014
0.00905141
0.00907452
0.00898369
0.00874355
0.00826752
0.00748874
0.00650104
0.00537483
0.00420605
0.00309622
0.00214386
0.00142995
0.000957451
0.000711344
0.000591558
0.000508298
0.00041271
0.000213156
0.0079261
0.00793016
0.00792832
0.00792789
0.00791951
0.00791056
0.00791004
0.00791918
0.00793776
0.00793393
0.0079248
0.00793557
0.00792764
0.00793065
0.00795019
0.00796136
0.00798249
0.0080204
0.00806887
0.00813066
0.00821035
0.00830906
0.00843125
0.00857213
0.0087327
0.00889865
0.00906263
0.00920618
0.00930835
0.00933478
0.00926845
0.00905042
0.00854538
0.0077291
0.00671283
0.00555091
0.00434213
0.00319264
0.00220456
0.00146462
0.000974094
0.000716976
0.000593437
0.000509073
0.000413576
0.000213906
0.00792759
0.00792637
0.00792991
0.00792845
0.00792744
0.00791898
0.00791033
0.00791029
0.00791972
0.00793811
0.00793332
0.00792499
0.00793562
0.00793073
0.00795021
0.00796142
0.00798267
0.00802081
0.00806972
0.00813262
0.00821415
0.00831619
0.0084438
0.00859344
0.00876868
0.00895603
0.00914993
0.00933182
0.00948987
0.00959783
0.00965472
0.00961724
0.00938041
0.00884231
0.00797736
0.00692482
0.00572782
0.0044793
0.0032895
0.00226564
0.0014981
0.000990579
0.000722418
0.000595255
0.000509853
0.000414358
0.000214558
0.00793077
0.00792743
0.00792669
0.00792966
0.00792856
0.00792695
0.00791844
0.00791012
0.00791058
0.00792028
0.00793844
0.00793271
0.0079252
0.00793567
0.00795024
0.00796147
0.00798283
0.0080212
0.00807051
0.00813442
0.00821761
0.00832269
0.0084551
0.00861269
0.00880079
0.00900646
0.00922846
0.00944508
0.00964555
0.00981195
0.00995668
0.01005
0.00999588
0.00972999
0.00915294
0.00823608
0.00713735
0.0059045
0.00461597
0.00338609
0.00232643
0.00153141
0.00100683
0.000727809
0.000596976
0.000510549
0.000415131
0.000215236
0.00795033
0.00793025
0.00792724
0.007927
0.00792942
0.00792863
0.00792643
0.0079179
0.00790993
0.00791091
0.00792086
0.00793876
0.0079321
0.00792541
0.00793571
0.00796151
0.00798296
0.00802155
0.00807124
0.00813606
0.00822077
0.00832865
0.00846542
0.00863043
0.00883015
0.0090524
0.00930046
0.00955168
0.00979256
0.0100047
0.0102157
0.0104055
0.0104838
0.0104007
0.0100959
0.00947174
0.0085012
0.00734757
0.00607785
0.00475083
0.00348166
0.00238661
0.00156426
0.00102274
0.000733155
0.000598584
0.000511247
0.000415835
0.000215818
0.00796157
0.00794986
0.00792906
0.00792714
0.00792726
0.0079292
0.00792867
0.00792589
0.00791735
0.00790977
0.00791128
0.00792145
0.00793905
0.00793151
0.00792561
0.00793575
0.00798308
0.00802185
0.00807192
0.00813755
0.00822365
0.0083341
0.00847489
0.00864688
0.00885723
0.00909523
0.00936814
0.0096517
0.00993525
0.0101949
0.010462
0.0107284
0.0109047
0.0109534
0.0108292
0.0104754
0.00979621
0.00877037
0.00755872
0.00624702
0.00488295
0.00357569
0.00244589
0.00159615
0.00103826
0.000738406
0.000600123
0.000511868
0.000416516
0.000216426
0.00798325
0.00796063
0.00794885
0.00792804
0.00792707
0.00792749
0.00792902
0.00792866
0.00792532
0.00791681
0.00790963
0.0079117
0.00792204
0.00793931
0.00793095
0.00792582
0.00793579
0.00802211
0.00807252
0.00813889
0.00822624
0.00833907
0.00848358
0.00866212
0.00888228
0.00913556
0.00943229
0.00974621
0.0100722
0.010388
0.0107177
0.0110522
0.0113081
0.0114552
0.0114596
0.0112806
0.0108668
0.0101246
0.00903941
0.00777034
0.00641202
0.00501176
0.00366757
0.00250394
0.0016272
0.00105336
0.000743544
0.000601572
0.00051249
0.000417151
0.000216944
0.00802241
0.00798173
0.00795862
0.00794758
0.00792727
0.00792702
0.00792768
0.00792889
0.00792859
0.00792474
0.00791628
0.00790953
0.00791216
0.00792263
0.00793951
0.00793043
0.00792603
0.00793582
0.00807307
0.00814006
0.00822857
0.00834355
0.00849151
0.00867614
0.00890544
0.00917358
0.00949285
0.00983593
0.0102056
0.0105815
0.0109857
0.011401
0.0117339
0.0119663
0.0120673
0.0120083
0.0117571
0.0112699
0.0104557
0.00930643
0.0079806
0.0065725
0.00513669
0.00375709
0.00256054
0.00165737
0.001068
0.00074854
0.000602964
0.000513041
0.000417743
0.000217484
0.00807372
0.00801993
0.00797845
0.00795679
0.00794601
0.00792677
0.00792698
0.00792783
0.00792881
0.00792845
0.00792416
0.00791575
0.00790947
0.00791262
0.00792319
0.00793968
0.00792995
0.00792623
0.00793586
0.0081411
0.00823062
0.00834756
0.00849871
0.00868898
0.00892679
0.00920926
0.00954963
0.00992148
0.010337
0.0107748
0.011254
0.0117765
0.0122216
0.0125491
0.0127365
0.0127608
0.0126086
0.0122617
0.0116851
0.0107888
0.00957068
0.00818817
0.00672864
0.00525783
0.00384382
0.00261549
0.00168661
0.00108216
0.000753385
0.000604277
0.000513597
0.000418322
0.000217944
0.0081422
0.00807051
0.00801444
0.00797544
0.00795502
0.00794408
0.00792653
0.00792695
0.00792792
0.00792879
0.00792823
0.00792357
0.00791523
0.00790946
0.00791309
0.00792372
0.00793982
0.00792951
0.00792643
0.00793589
0.00823245
0.00835113
0.00850521
0.00870065
0.0089464
0.00924248
0.00960257
0.0100033
0.010466
0.0109644
0.0115179
0.0121738
0.0128006
0.0132843
0.0135681
0.0136557
0.0135518
0.0132663
0.0127958
0.012112
0.0111233
0.0098316
0.00839198
0.00687934
0.00537404
0.00392748
0.00266866
0.00171487
0.00109581
0.000758062
0.000605542
0.000514084
0.000418838
0.000218348
0.00823431
0.0081378
0.00806325
0.0080091
0.00797266
0.00795353
0.00794184
0.00792649
0.00792695
0.00792798
0.00792881
0.00792794
0.00792299
0.00791474
0.00790948
0.00791356
0.00792422
0.00793991
0.0079291
0.00792661
0.00793592
0.00835434
0.00851104
0.00871121
0.00896432
0.00927317
0.00965171
0.0100816
0.0105908
0.0111469
0.0117803
0.0126107
0.0134892
0.0142333
0.0146785
0.014822
0.0147289
0.0144372
0.0139776
0.0133567
0.0125491
0.0114583
0.0100886
0.00859162
0.00702664
0.00548537
0.00400791
0.00271993
0.00174211
0.00110895
0.00076257
0.000606732
0.000514584
0.00041928
0.000218675
0.00835748
0.00822841
0.00812735
0.00805622
0.00800397
0.00796999
0.0079524
0.00793949
0.00792658
0.00792696
0.00792801
0.00792886
0.00792757
0.00792244
0.00791429
0.00790954
0.00791401
0.00792469
0.00793998
0.00792873
0.00792678
0.00793594
0.00851632
0.00872072
0.00898064
0.00930134
0.00969717
0.0101558
0.0107093
0.0113209
0.0120496
0.0131053
0.0142968
0.0153673
0.0160869
0.0163523
0.0162528
0.0159118
0.0153892
0.014727
0.0139368
0.012993
0.0117924
0.0103411
0.00878564
0.00717032
0.00559203
0.00408504
0.00276922
0.00176832
0.00112156
0.000766896
0.00060788
0.000514946
0.000419654
0.000219069
0.00852137
0.00834967
0.00821365
0.00811712
0.00804932
0.00799895
0.00796742
0.0079514
0.00793716
0.00792676
0.007927
0.00792803
0.0079289
0.00792715
0.00792193
0.00791389
0.00790962
0.00791445
0.00792513
0.00794003
0.00792841
0.00792694
0.00793597
0.00872934
0.00899544
0.00932708
0.0097391
0.0102256
0.0108202
0.0114878
0.0123338
0.0136574
0.0151909
0.0165982
0.0176211
0.0181362
0.0181263
0.0177385
0.0171285
0.0163639
0.0154913
0.0145247
0.0134387
0.0121237
0.0105885
0.00897367
0.00730987
0.00569418
0.00415885
0.0028165
0.00179347
0.00113365
0.000771046
0.000608813
0.00051529
0.000420016
0.000219461
0.00873739
0.00851106
0.00832913
0.00819913
0.0081071
0.0080425
0.00799402
0.00796495
0.00795049
0.0079349
0.00792701
0.00792702
0.00792806
0.00792893
0.00792671
0.00792145
0.00791351
0.00790974
0.00791487
0.00792553
0.00794005
0.00792812
0.00792707
0.00793598
0.00900893
0.00935052
0.00977765
0.0102906
0.0109232
0.0116499
0.0126348
0.0142474
0.0161077
0.017808
0.0190924
0.0198643
0.0200979
0.01981
0.0191562
0.0183023
0.0173159
0.0162454
0.0151079
0.0138804
0.0124499
0.01083
0.00915557
0.00744494
0.00579192
0.00422936
0.00286173
0.00181756
0.00114519
0.000774488
0.00060962
0.000515623
0.000420462
0.000219937
0.00902136
0.0087241
0.00848266
0.00830883
0.00818494
0.00809726
0.00803577
0.00798921
0.00796256
0.00794966
0.00793275
0.00792729
0.00792703
0.00792813
0.0079289
0.00792626
0.00792101
0.00791318
0.00790986
0.00791526
0.00792591
0.00794007
0.00792789
0.00792718
0.00793598
0.00937192
0.00981303
0.0103506
0.0110186
0.0118092
0.0129485
0.0148457
0.0169836
0.0188999
0.0203666
0.0213344
0.0218077
0.0217868
0.0212798
0.020422
0.0193768
0.0182086
0.0169671
0.0156742
0.0143123
0.012769
0.0110648
0.0093312
0.00757527
0.00588536
0.00429659
0.00290492
0.00184059
0.00115477
0.00077743
0.000610491
0.000516057
0.000420876
0.000220394
0.00939132
0.00900439
0.00868519
0.00845451
0.00828898
0.00817103
0.0080876
0.00802913
0.0079846
0.00796026
0.00794885
0.00793084
0.00792758
0.00792701
0.00792823
0.00792883
0.00792582
0.00792058
0.00791288
0.00791
0.00791563
0.00792626
0.00794007
0.00792772
0.00792724
0.00793598
0.0098455
0.0104058
0.0111074
0.0119664
0.0132665
0.015424
0.017774
0.0198218
0.0213844
0.0224668
0.0231125
0.0233403
0.0231368
0.0224873
0.0214971
0.020321
0.0190188
0.0176406
0.016214
0.0147295
0.0130787
0.0112923
0.00950042
0.00770069
0.00597459
0.00436064
0.00294609
0.00185967
0.00116296
0.000780699
0.000611482
0.000516458
0.000421387
0.000220963
0.00987474
0.00936979
0.00895146
0.00864651
0.00842698
0.00826951
0.00815739
0.00807814
0.00802254
0.00798029
0.00795804
0.00794785
0.00792936
0.00792782
0.00792698
0.00792837
0.0079287
0.00792541
0.00792017
0.00791261
0.00791014
0.00791597
0.00792659
0.00794007
0.00792763
0.00792727
0.00793598
0.0104565
0.0111906
0.0121213
0.0135794
0.0159615
0.0184572
0.0205617
0.0221451
0.0232659
0.0240062
0.0244092
0.0244718
0.024159
0.0234353
0.0223765
0.0211253
0.0197355
0.0182563
0.0167204
0.0151279
0.0133773
0.0115117
0.00966308
0.00782111
0.00605972
0.00442154
0.0029801
0.00187597
0.00117194
0.000784359
0.000612551
0.000516993
0.000421843
0.000221489
0.0105016
0.00984778
0.00929867
0.00889868
0.00860863
0.00839998
0.00825042
0.00814403
0.00806888
0.00801592
0.00797623
0.00795594
0.00794639
0.00792835
0.00792797
0.00792696
0.00792851
0.00792853
0.00792503
0.00791977
0.00791237
0.00791028
0.0079163
0.00792678
0.00794006
0.00792758
0.00792727
0.00793598
0.0112689
0.0122727
0.0138789
0.0164462
0.0190295
0.0211323
0.0226799
0.0237787
0.0245454
0.0250472
0.0252962
0.025264
0.0248991
0.0241526
0.0230747
0.0217943
0.0203574
0.0188103
0.0171895
0.0155048
0.0136633
0.0117226
0.00981916
0.0079365
0.00614084
0.0044718
0.0030091
0.00189397
0.00118179
0.00078843
0.000613788
0.000517467
0.000422427
0.000222166
0.0113402
0.0104687
0.00975219
0.00922744
0.00884693
0.00857147
0.00837348
0.00823171
0.00813096
0.00805983
0.00800938
0.00797244
0.00795397
0.00794457
0.00792782
0.00792802
0.00792697
0.00792866
0.00792832
0.00792467
0.0079194
0.00791216
0.00791043
0.0079165
0.0079268
0.00794005
0.00792758
0.00792724
0.00793599
0.0124192
0.0141591
0.0168741
0.0194983
0.0215579
0.023031
0.0240653
0.0248061
0.0253424
0.0257023
0.025867
0.0257897
0.0254116
0.024677
0.0236153
0.0223406
0.0208893
0.0193028
0.01762
0.0158588
0.013936
0.0119248
0.00996872
0.00804695
0.006208
0.00451464
0.00304102
0.00191391
0.00119258
0.000793001
0.000615114
0.000518126
0.00042294
0.000222764
0.0125521
0.0112987
0.0103399
0.00965649
0.00915743
0.00879615
0.00853499
0.00834748
0.00821338
0.0081182
0.008051
0.00800293
0.00796901
0.00795224
0.00794236
0.00792765
0.00792796
0.00792702
0.0079288
0.0079281
0.00792433
0.00791904
0.00791198
0.00791053
0.00791654
0.00792681
0.00794005
0.00792763
0.00792718
0.00793597
0.0144166
0.0172467
0.0198767
0.0218658
0.0232406
0.024183
0.0248613
0.0253829
0.0257913
0.0260792
0.0262054
0.0261143
0.0257467
0.025046
0.024024
0.0227799
0.0213394
0.0197373
0.0180124
0.0161895
0.0141952
0.0121184
0.0101121
0.00813889
0.00626536
0.00456175
0.0030762
0.00193601
0.00120451
0.000798089
0.000616676
0.000518687
0.000423617
0.000223568
0.0125099
0.0146419
0.011112
0.0102127
0.00956211
0.00908864
0.00874625
0.0084992
0.00832202
0.00819547
0.00810575
0.0080425
0.00799667
0.00796597
0.0079511
0.00794003
0.00792773
0.00792783
0.00792712
0.00792891
0.00792786
0.00792403
0.00791871
0.00791188
0.00791056
0.00791657
0.00792681
0.00794006
0.00792772
0.00792707
0.00793594
0.0175686
0.0201797
0.0220819
0.0233455
0.0241803
0.0247723
0.0252435
0.025652
0.0260029
0.0262626
0.0263773
0.0262902
0.0259469
0.0252927
0.0243252
0.0231287
0.0217175
0.0201186
0.0183687
0.0164977
0.0144412
0.0123039
0.0102317
0.00821765
0.00632857
0.00461364
0.00311505
0.00196056
0.00121769
0.00080382
0.000618338
0.000519502
0.000424215
0.000224245
0.0122263
0.0145989
0.0178337
0.010933
0.0100876
0.00946911
0.009021
0.00869726
0.00846414
0.00829712
0.00817801
0.00809366
0.00803444
0.00799089
0.00796328
0.00795022
0.00793775
0.00792797
0.00792763
0.00792726
0.00792899
0.00792762
0.00792373
0.00791853
0.00791185
0.00791057
0.00791657
0.0079268
0.00794007
0.00792789
0.00792694
0.00793592
0.0204214
0.0222289
0.0233761
0.0240958
0.0245872
0.0249834
0.025355
0.0257207
0.0260569
0.026313
0.0264304
0.0263568
0.0260452
0.0254446
0.0245404
0.0234025
0.0220339
0.0204526
0.018692
0.016785
0.014675
0.0124585
0.0103342
0.00830459
0.0063983
0.00467091
0.00315801
0.00198788
0.00123226
0.000810215
0.000620314
0.000520178
0.000425017
0.000225201
0.0119477
0.0141964
0.0177738
0.0206013
0.0107624
0.00996394
0.00937757
0.00895457
0.00864925
0.00842987
0.00827285
0.00816103
0.00808205
0.00802692
0.00798559
0.00796094
0.00794948
0.00793562
0.00792829
0.0079274
0.00792744
0.00792904
0.00792737
0.00792357
0.00791848
0.00791184
0.00791057
0.00791654
0.00792677
0.00794007
0.00792813
0.00792678
0.00793589
0.022325
0.0233562
0.0239589
0.0243423
0.0246475
0.024955
0.0252965
0.0256617
0.0260067
0.0262712
0.0263981
0.0263429
0.0260674
0.0255239
0.0246876
0.023615
0.0222981
0.0207456
0.018986
0.0170533
0.0148682
0.0125906
0.0104471
0.00840061
0.00647532
0.00473411
0.00320562
0.00201836
0.00124845
0.000817444
0.000622471
0.000521202
0.000425749
0.000225969
0.0116858
0.0137601
0.0173886
0.0204961
0.0223737
0.010597
0.00984153
0.00928764
0.00888942
0.00860234
0.00839646
0.00824925
0.00814469
0.00807121
0.00801995
0.00798083
0.00795886
0.00794882
0.00793373
0.00792864
0.00792717
0.00792765
0.00792902
0.00792721
0.00792352
0.00791846
0.00791184
0.00791055
0.0079165
0.00792659
0.00794007
0.00792842
0.00792661
0.00793586
0.0233038
0.0237917
0.0240645
0.0242691
0.0244929
0.0247795
0.025133
0.0255211
0.025886
0.0261638
0.0263032
0.0262695
0.0260328
0.0255481
0.0247816
0.023778
0.0225188
0.0210034
0.0192539
0.0172709
0.0150319
0.0127355
0.0105716
0.00850675
0.00656081
0.0048039
0.00325848
0.00205244
0.00126652
0.00082555
0.000625073
0.000522036
0.000426718
0.00022711
0.0114395
0.0133278
0.0169056
0.0202373
0.0222097
0.0232201
0.010435
0.0097207
0.00919953
0.00882572
0.00855664
0.00836399
0.00822655
0.00812943
0.00806127
0.0080135
0.00797665
0.00795698
0.0079481
0.0079322
0.00792895
0.00792693
0.00792781
0.00792902
0.00792716
0.00792348
0.00791846
0.00791185
0.00791053
0.0079163
0.00792625
0.00794005
0.00792875
0.00792642
0.00793582
0.0236098
0.0237735
0.0238725
0.0239995
0.0242075
0.0245148
0.0249044
0.025327
0.0257154
0.0260075
0.0261611
0.0261518
0.0259559
0.0255307
0.0248345
0.0239015
0.0227037
0.021231
0.0194659
0.0174527
0.0152093
0.012894
0.0107087
0.00862411
0.00665616
0.00488123
0.00331733
0.00209065
0.00128676
0.000834758
0.000627815
0.000523356
0.000427666
0.000228
0.0112053
0.012914
0.0163613
0.0198774
0.0220594
0.0229908
0.0234089
0.0102757
0.00960184
0.00911346
0.00876364
0.00851229
0.00833278
0.00820536
0.00811548
0.00805217
0.00800749
0.00797302
0.00795527
0.00794708
0.007931
0.00792921
0.00792661
0.00792797
0.00792903
0.00792712
0.00792348
0.00791848
0.00791188
0.00791043
0.00791596
0.00792589
0.00794002
0.00792911
0.00792622
0.00793579
0.0234823
0.0234755
0.0234974
0.0236095
0.0238425
0.0241958
0.0246346
0.0250953
0.0255066
0.0258128
0.0259828
0.0260007
0.0258476
0.0254821
0.0248557
0.0239935
0.0228589
0.021405
0.0196403
0.0176466
0.0154011
0.0130674
0.0108598
0.00875396
0.0067627
0.00496719
0.00338304
0.00213364
0.00130955
0.000845182
0.000631276
0.000524417
0.000428839
0.000229369
0.0109809
0.0125232
0.0157838
0.0194527
0.0218218
0.0228973
0.0231123
0.023179
0.0101193
0.0094854
0.0090297
0.00870338
0.00846971
0.00830367
0.00818601
0.00810272
0.00804385
0.00800184
0.00796984
0.00795375
0.00794584
0.00793007
0.00792929
0.00792638
0.00792811
0.00792902
0.00792712
0.00792352
0.00791853
0.00791198
0.00791028
0.00791562
0.00792551
0.00793998
0.00792952
0.00792602
0.00793575
0.0230895
0.0230034
0.0230077
0.0231444
0.0234287
0.0238437
0.0243368
0.0248341
0.0252658
0.0255864
0.0257758
0.0258246
0.0257162
0.0254101
0.0248524
0.0240603
0.0229707
0.0215458
0.019823
0.0178525
0.0156079
0.0132567
0.0110264
0.00889791
0.006882
0.00506312
0.00345665
0.00218216
0.00133534
0.000857016
0.000634901
0.000526182
0.000430132
0.0002307
0.0107653
0.0121562
0.0151877
0.0189736
0.021532
0.0227318
0.0230296
0.0228151
0.022694
0.00996595
0.00937193
0.0089485
0.00864555
0.00843006
0.00827709
0.00816832
0.00809107
0.00803622
0.00799661
0.00796708
0.00795239
0.00794435
0.00792916
0.00792951
0.0079263
0.00792814
0.00792902
0.00792716
0.00792357
0.00791871
0.00791216
0.00791014
0.00791525
0.00792511
0.00793991
0.00792997
0.00792581
0.00793571
0.0225282
0.0224192
0.0224436
0.022632
0.0229863
0.0234704
0.0240168
0.0245461
0.0249957
0.0253328
0.0255462
0.0256297
0.0255678
0.0253207
0.0248302
0.024099
0.0230591
0.0216901
0.0200132
0.0180702
0.0158302
0.0134633
0.0112103
0.00905781
0.00701585
0.00517059
0.00353944
0.00223717
0.00136469
0.000870634
0.00063956
0.000527578
0.000431831
0.000232853
0.0105588
0.0118107
0.0145821
0.0184419
0.0212037
0.0225326
0.0228855
0.0227119
0.0222626
0.0220527
0.00981584
0.00926199
0.00887067
0.00859175
0.0083939
0.00825283
0.00815217
0.00808042
0.00802923
0.00799171
0.00796468
0.00795143
0.00794246
0.00792879
0.00792984
0.00792621
0.00792814
0.00792903
0.00792721
0.00792374
0.00791905
0.00791237
0.00790999
0.00791485
0.00792467
0.00793981
0.00793045
0.00792561
0.00793567
0.021855
0.0217585
0.02183
0.0220919
0.0225264
0.0230811
0.0236747
0.0242305
0.0246976
0.0250555
0.0252985
0.0254207
0.0254067
0.0252183
0.0247966
0.0241273
0.0231468
0.0218368
0.02021
0.0182994
0.0160687
0.0136886
0.0114133
0.00923569
0.00716635
0.0052915
0.00363294
0.00229981
0.00139835
0.000886446
0.0006445
0.000530511
0.00043376
0.000234354
0.0103612
0.0114835
0.0139769
0.0178545