/*--------------------------------*- C++ -*----------------------------------*\
  =========                 |
  \\      /  F ield         | OpenFOAM: The Open Source CFD Toolbox
   \\    /   O peration     | Website:  https://openfoam.org
    \\  /    A nd           | Version:  8
     \\/     M anipulation  |
\*---------------------------------------------------------------------------*/
FoamFile
{
    version     2.0;
    format      ascii;
    class       volScalarField;
    location    "0.05";
    object      epsilon;
}
// * * * * * * * * * * * * * * * * * * * * * * * * * * * * * * * * * * * * * //

dimensions      [0 2 -3 0 0 0 0];

internalField   nonuniform List<scalar> 
15677
(
84.4091
22.4296
72.0642
9.03273
36.4578
74.4199
4.88578
17.1319
60.3457
82.0024
3.25167
9.25087
27.6534
82.8125
90.9678
2.50774
5.70839
13.8609
40.095
103.42
99.0135
2.14828
3.93748
7.9836
19.3103
52.9801
120.015
106.06
1.98251
2.97766
5.18875
10.4395
25.3598
65.359
131.776
111.752
1.91338
2.42959
3.71464
6.41459
13.1438
31.8352
76.1241
139.484
115.944
1.88565
2.11959
2.88054
4.38827
7.71301
16.1263
38.3173
84.8347
144.252
119.109
1.87168
1.95902
2.39201
3.27455
5.0748
9.13748
19.2924
44.4021
91.4353
147.298
121.366
1.86672
1.89025
2.10673
2.6268
3.66629
5.81881
10.6515
22.4965
49.6844
96.4698
149.094
123.353
1.86685
1.86171
1.94771
2.24131
2.85875
4.08767
6.59762
12.2065
25.4844
54.2219
100.174
150.287
124.923
1.86722
1.85127
1.87106
2.01533
2.3765
3.11002
4.52406
7.38673
13.6812
28.2348
57.953
103.069
150.934
126.44
1.86717
1.84998
1.83847
1.89091
2.08673
2.52777
3.36999
4.95702
8.12442
15.0594
30.6384
61.1557
105.22
151.328
127.667
1.86707
1.85047
1.82742
1.82974
1.91898
2.17325
2.6867
3.6231
5.35212
8.80159
16.2787
32.8267
63.8233
106.883
151.4
128.969
1.867
1.85069
1.82545
1.8032
1.83084
1.96045
2.26861
2.83984
3.84897
5.70478
9.39077
17.4074
34.7792
66.0973
108.024
151.435
129.88
1.86695
1.85072
1.82559
1.79473
1.78596
1.83994
2.0128
2.36097
2.97404
4.0452
6.00513
9.92743
18.4473
36.5583
67.8913
108.901
151.364
130.908
1.86691
1.85072
1.82594
1.79238
1.76979
1.78066
1.86175
2.06539
2.44074
3.08802
4.20989
6.2723
10.4247
19.4257
38.0796
69.3712
109.397
151.313
131.59
1.86688
1.8507
1.82619
1.7918
1.76448
1.75583
1.78237
1.88756
2.11022
2.50728
3.18302
4.35407
6.51869
10.8939
20.3048
39.4085
70.4319
109.748
151.163
132.488
1.86686
1.85069
1.82636
1.79167
1.7628
1.74679
1.74851
1.78793
1.90862
2.14692
2.56257
3.26582
4.48674
6.74954
11.3207
21.103
40.4625
71.238
109.821
151.134
133.039
1.86685
1.85068
1.82648
1.79163
1.76227
1.74363
1.73516
1.74348
1.79236
1.92515
2.17731
2.61106
3.34257
4.61073
6.9591
11.7144
21.7715
41.3003
71.7113
109.806
151.061
133.862
1.86684
1.85067
1.82658
1.79161
1.76206
1.74255
1.73012
1.72469
1.73744
1.7946
1.93867
2.20437
2.65696
3.41502
4.72358
7.1518
12.0526
22.3158
41.8978
72.0137
109.693
151.108
134.379
1.86683
1.85066
1.82666
1.7916
1.76195
1.74214
1.72836
1.71703
1.71309
1.73044
1.79606
1.95104
2.23108
2.70142
3.48178
4.82657
7.31754
12.3289
22.7326
42.285
72.0545
109.511
151.174
135.183
1.86682
1.85066
1.82672
1.79161
1.76186
1.74194
1.72776
1.7141
1.70255
1.70058
1.72381
1.79799
1.96452
2.25829
2.74339
3.54265
4.91455
7.45156
12.5459
23.0056
42.526
71.99
109.227
151.347
135.704
1.86681
1.85066
1.82677
1.79162
1.7618
1.7418
1.72753
1.71304
1.69823
1.68692
1.68909
1.71891
1.80175
1.9799
2.28507
2.78216
3.59471
4.98538
7.55649
12.6878
23.1981
42.5332
71.8131
108.986
151.522
136.518
1.8668
1.85065
1.82681
1.79164
1.76175
1.7417
1.7274
1.71266
1.69651
1.68098
1.67257
1.68026
1.71764
1.80851
1.99632
2.31065
2.81604
3.63728
5.04037
7.62496
12.7903
23.2392
42.4757
71.535
108.64
151.883
137.045
1.8668
1.85065
1.82685
1.79167
1.76172
1.74163
1.72731
1.71251
1.69582
1.67852
1.66496
1.66128
1.6745
1.7186
1.8173
2.01309
2.33395
2.84476
3.67056
5.0777
7.67257
12.8149
23.2142
42.3337
71.1464
108.387
152.168
137.887
1.86679
1.85064
1.82689
1.79169
1.76169
1.74158
1.72723
1.71243
1.6955
1.67753
1.66152
1.65236
1.65307
1.67271
1.72167
1.82771
2.02943
2.35486
2.86842
3.69525
5.10241
7.68589
12.8032
23.1428
42.067
70.7406
108.041
152.722
138.417
1.86678
1.85064
1.82692
1.79172
1.76167
1.74154
1.72717
1.71238
1.69532
1.6771
1.65995
1.64829
1.64261
1.64888
1.67353
1.7279
1.8391
2.04537
2.37366
2.8883
3.71344
5.11563
7.68162
12.7697
23.0004
41.7466
70.2693
107.825
153.092
139.239
1.86677
1.85063
1.82695
1.79176
1.76165
1.74151
1.72712
1.71234
1.6952
1.67689
1.65918
1.64642
1.63765
1.63742
1.64846
1.67635
1.7361
1.85159
2.06127
2.39156
2.90576
3.72754
5.11906
7.66872
12.7024
22.8127
41.3751
69.8027
107.509
153.899
139.982
1.86676
1.85062
1.82699
1.79179
1.76163
1.74148
1.72707
1.71231
1.69512
1.67677
1.65875
1.6455
1.63534
1.63197
1.63541
1.64994
1.68215
1.74638
1.86559
2.0783
2.40976
2.92286
3.73894
5.11907
7.6428
12.6138
22.593
40.9724
69.3074
107.335
154.112
140.695
1.86675
1.8506
1.82702
1.79183
1.76161
1.74145
1.72703
1.71229
1.69506
1.67668
1.65849
1.64499
1.63422
1.62934
1.62899
1.63648
1.65395
1.69105
1.75924
1.88219
2.09753
2.42999
2.941
3.75086
5.11813
7.61027
12.5107
22.3544
40.5515
68.8175
107.061
154.632
141.403
1.86674
1.85059
1.82706
1.79186
1.76159
1.74141
1.72699
1.71227
1.69501
1.67662
1.6583
1.64467
1.63363
1.628
1.6259
1.62984
1.63988
1.66177
1.70325
1.77574
1.90246
2.12051
2.45349
2.96231
3.76472
5.11735
7.5749
12.4026
22.1053
40.1155
68.2762
106.792
155.432
142.151
1.86673
1.85058
1.82709
1.7919
1.76157
1.74138
1.72695
1.71226
1.69498
1.67658
1.65816
1.64443
1.63327
1.62727
1.62437
1.62665
1.63298
1.64689
1.67362
1.7198
1.79697
1.92783
2.14836
2.48203
2.98787
3.78271
5.11895
7.54103
12.2914
21.8489
39.6299
67.7094
106.566
156.387
142.896
1.85057
1.86674
1.82713
1.79194
1.76154
1.74134
1.72691
1.71226
1.69497
1.67655
1.65806
1.64424
1.63301
1.62682
1.62357
1.62508
1.62967
1.63963
1.65861
1.69038
1.74189
1.82436
1.95943
2.18276
2.51653
3.01948
3.80576
5.12394
7.50897
12.1801
21.5678
39.1108
67.1635
106.422
157.408
143.657
1.82717
1.85061
1.86678
1.79199
1.76153
1.7413
1.72687
1.71226
1.69496
1.67653
1.65799
1.64408
1.6328
1.6265
1.62309
1.62428
1.62808
1.6362
1.65136
1.67573
1.71334
1.77092
1.8591
1.99887
2.22446
2.55852
3.05761
3.83537
5.134
7.48099
12.0641
21.2689
38.61
66.6581
106.331
158.483
144.391
1.79204
1.82739
1.85071
1.86681
1.76151
1.74126
1.72683
1.71226
1.69497
1.67652
1.65795
1.64395
1.63264
1.62625
1.62276
1.62381
1.6273
1.63463
1.64806
1.66895
1.6996
1.74406
1.80834
1.90267
2.04694
2.27485
2.60835
3.10366
3.8715
5.15081
7.45857
11.9444
20.9866
38.1406
66.1903
106.325
159.554
145.129
1.76148
1.79237
1.82781
1.8508
1.86684
1.74122
1.72679
1.71226
1.69498
1.67652
1.65793
1.64384
1.6325
1.62605
1.62251
1.62349
1.62688
1.63396
1.64673
1.66621
1.69381
1.73202
1.78411
1.85582
1.95625
2.10523
2.33422
2.66724
3.15744
3.91515
5.1775
7.44059
11.8415
20.7288
37.6979
65.7699
106.349
160.646
145.821
1.74117
1.76173
1.793
1.82823
1.85089
1.86687
1.72675
1.71227
1.695
1.67653
1.65793
1.64374
1.63239
1.62588
1.62231
1.62325
1.62662
1.63367
1.64632
1.66548
1.69219
1.72812
1.7748
1.83547
1.91471
2.0216
2.17404
2.40393
2.73477
3.21975
3.97222
5.21704
7.44115
11.7547
20.491
37.2914
65.3928
106.409
161.697
146.517
1.7267
1.74133
1.76226
1.79365
1.82867
1.85097
1.8669
1.71228
1.69503
1.67654
1.65794
1.64365
1.63231
1.62573
1.62215
1.62307
1.62644
1.63356
1.6463
1.66564
1.69243
1.72802
1.77329
1.83003
1.89991
1.98712
2.09938
2.25518
2.48384
2.8116
3.29801
4.04649
5.26795
7.44772
11.6804
20.279
36.9186
65.0581
106.504
162.767
147.154
1.71227
1.72686
1.74173
1.76279
1.79434
1.82912
1.85105
1.86693
1.69507
1.67657
1.65798
1.64358
1.63224
1.6256
1.62202
1.62292
1.62632
1.63352
1.64645
1.66618
1.69364
1.73005
1.77573
1.83192
1.89893
1.97906
2.07434
2.19195
2.34845
2.57526
2.90737
3.39626
4.13106
5.32826
7.46283
11.6223
20.0894
36.5798
64.7615
106.643
163.77
147.8
1.69509
1.71256
1.72727
1.74211
1.76335
1.79505
1.82959
1.85113
1.86696
1.6766
1.65803
1.64352
1.63219
1.62549
1.62192
1.62281
1.62623
1.63353
1.64668
1.66685
1.69516
1.73302
1.78043
1.83823
1.90597
1.98447
2.07368
2.17741
2.29958
2.45607
2.68918
3.02725
3.50593
4.22474
5.39637
7.49029
11.5773
19.9212
36.274
64.5054
106.784
164.791
148.379
1.67662
1.69551
1.71318
1.72765
1.7425
1.76393
1.7958
1.83006
1.8512
1.86699
1.65809
1.64348
1.63216
1.62539
1.62183
1.62272
1.62617
1.63358
1.64696
1.66756
1.69674
1.73619
1.78607
1.84699
1.91772
1.99871
2.08806
2.18703
2.29635
2.42304
2.59107
2.83281
3.16101
3.62575
4.32613
5.47152
7.52568
11.5445
19.7756
35.9971
64.2753
106.961
165.726
148.971
1.65814
1.67711
1.69638
1.71378
1.72802
1.74291
1.76454
1.79657
1.83054
1.85128
1.86703
1.64346
1.63214
1.62531
1.62177
1.62265
1.62614
1.63365
1.64727
1.66828
1.69831
1.73932
1.79178
1.85675
1.93225
2.01823
2.11195
2.21328
2.3196
2.43419
2.57687
2.76209
2.99429
3.30724
3.75423
4.43385
5.55243
7.56785
11.5244
19.6477
35.7525
64.0754
107.13
166.686
149.493
1.64344
1.65866
1.67811
1.69724
1.71437
1.7284
1.74332
1.76518
1.79737
1.83103
1.85135
1.86707
1.63215
1.62525
1.62172
1.6226
1.62612
1.63374
1.64758
1.66899
1.69984
1.74232
1.79732
1.86645
1.94793
2.04119
2.14202
2.25028
2.36098
2.47487
2.60844
2.77141
2.95132
3.17183
3.46495
3.89053
4.54699
5.63786
7.61598
11.5104
19.5383
35.5377
63.8981
107.328
167.541
150.031
1.63218
1.64379
1.65971
1.67913
1.69813
1.71498
1.72878
1.74376
1.76585
1.7982
1.83153
1.85143
1.86711
1.62521
1.62169
1.62257
1.62612
1.63383
1.64789
1.66969
1.70131
1.74517
1.80261
1.87576
1.96338
2.06574
2.17662
2.295
2.41504
2.53599
2.67288
2.83234
2.99105
3.15771
3.36247
3.63338
4.03337
4.66392
5.72664
7.66817
11.5097
19.4453
35.3485
63.7469
107.511
168.434
150.499
1.62523
1.63246
1.64457
1.66081
1.68019
1.69905
1.71559
1.72917
1.74421
1.76656
1.79906
1.83203
1.8515
1.86715
1.62168
1.62256
1.62614
1.63394
1.6482
1.67036
1.70271
1.74786
1.80762
1.8846
1.97827
2.09004
2.21348
2.34615
2.47926
2.6129
2.7616
2.93074
3.08796
3.23481
3.38036
3.56251
3.80966
4.18074
4.78372
5.81767
7.72408
11.5127
19.3658
35.1822
63.6144
107.719
169.205
150.985
1.62175
1.62534
1.63303
1.64541
1.66196
1.68128
1.69998
1.71619
1.72956
1.74468
1.7673
1.79994
1.83253
1.85157
1.86719
1.62257
1.62616
1.63405
1.6485
1.67101
1.70404
1.7504
1.81235
1.89295
1.99249
2.11356
2.25009
2.40112
2.55291
2.70393
2.87114
3.0601
3.22955
3.37539
3.50156
3.61843
3.77069
3.99255
4.33234
4.90548
5.91012
7.78247
11.5201
19.2989
35.036
63.5025
107.907
170.028
151.402
1.62272
1.62171
1.62556
1.63368
1.64632
1.66316
1.68241
1.70093
1.7168
1.72995
1.74518
1.76809
1.80084
1.83302
1.85164
1.86723
1.62623
1.63415
1.6488
1.67163
1.70529
1.75278
1.81679
1.90079
2.00602
2.13611
2.28576
2.45652
2.63284
2.80923
3.00132
3.21934
3.41237
3.57129
3.69473
3.79022
3.87005
3.98515
4.17793
4.4866
5.0282
6.00304
7.84238
11.5339
19.2429
34.9077
63.4055
108.116
170.712
151.837
1.62647
1.62259
1.6215
1.62592
1.63439
1.6473
1.66442
1.68358
1.7019
1.7174
1.73035
1.7457
1.76891
1.80173
1.83348
1.8517
1.86727
1.6343
1.64906
1.67221
1.70647
1.75501
1.82093
1.90813
2.01882
2.15756
2.32029
2.51134
2.71411
2.92515
3.1542
3.41153
3.6397
3.82426
3.95879
4.04649
4.0997
4.13334
4.20509
4.36386
4.64171
5.15078
6.09587
7.90324
11.5517
19.1965
34.7951
63.3242
108.303
171.468
152.208
1.63468
1.62618
1.6221
1.62146
1.62633
1.63515
1.64835
1.66572
1.68478
1.70288
1.71799
1.73076
1.74625
1.76974
1.8026
1.83391
1.85176
1.86731
1.64936
1.67274
1.70756
1.75708
1.82478
1.91497
2.03086
2.17785
2.35356
2.565
2.79503
3.04536
3.32655
3.6432
3.92092
4.14579
4.30479
4.39671
4.4318
4.42915
4.40667
4.42914
4.54943
4.79641
5.27248
6.18772
7.9644
11.5725
19.1584
34.6963
63.2545
108.505
172.068
152.595
1.64994
1.63413
1.62519
1.62185
1.6215
1.62678
1.63596
1.64948
1.66707
1.68601
1.70386
1.71858
1.73118
1.74681
1.77056
1.80343
1.83433
1.85182
1.86735
1.6733
1.70854
1.75899
1.82833
1.92133
2.04213
2.19696
2.38544
2.61701
2.87488
3.16814
3.51001
3.91257
4.27204
4.55878
4.76021
4.86822
4.89179
4.85253
4.77799
4.6886
4.65578
4.73373
4.94929
5.39213
6.27822
8.02536
11.5957
19.1273
34.6096
63.1964
108.686
172.762
152.924
1.6742
1.64903
1.63238
1.62451
1.62163
1.62162
1.62728
1.63683
1.65069
1.66846
1.68728
1.70484
1.71917
1.7316
1.74738
1.77138
1.80424
1.83472
1.85187
1.8674
1.70952
1.7607
1.8316
1.9272
2.05261
2.21486
2.41582
2.66699
2.95329
3.29273
3.7012
4.20788
4.69885
5.1015
5.37505
5.51646
5.53269
5.45174
5.31068
5.14573
4.97787
4.88372
4.91601
5.10014
5.51006
6.36703
8.08568
11.6207
19.1024
34.5336
63.1474
108.877
173.291
153.213
1.71089
1.6728
1.64615
1.63105
1.6239
1.62139
1.62184
1.62783
1.63775
1.65199
1.66989
1.68857
1.70582
1.71972
1.73202
1.74795
1.77219
1.80502
1.83509
1.85193
1.86744
1.76236
1.83454
1.9326
2.06231
2.23157
2.44458
2.71466
3.03
3.41797
3.8974
4.52554
5.19232
5.80215
6.22912
6.43514
6.45109
6.31526
6.08275
5.80732
5.53153
5.27323
5.1118
5.09543
5.24675
5.62562
6.45378
8.14503
11.647
19.0825
34.4668
63.1067
109.049
173.823
153.446
1.76441
1.70878
1.66838
1.64379
1.62984
1.62331
1.62111
1.62213
1.62845
1.63874
1.65336
1.67135
1.68988
1.70675
1.72025
1.73243
1.74852
1.77299
1.80577
1.83543
1.85199
1.86749
1.83733
1.9375
2.07124
2.24709
2.47164
2.75988
3.10469
3.54234
4.09622
4.86527
5.75486
6.65763
7.38395
7.76145
7.79758
7.59125
7.22592
6.78693
6.34167
5.93391
5.57329
5.33898
5.27189
5.38866
5.73816
6.53819
8.20312
11.674
19.0671
34.4081
63.0728
109.2
174.213
153.727
1.84044
1.76138
1.7021
1.6646
1.64161
1.62868
1.62276
1.62085
1.62248
1.62912
1.6398
1.65481
1.67284
1.69116
1.70763
1.72074
1.73284
1.74909
1.77378
1.80648
1.83576
1.85205
1.86754
1.94211
2.07938
2.26145
2.49694
2.80256
3.17699
3.66436
4.29629
5.22763
6.389
7.6694
8.82984
9.59205
9.77779
9.49643
8.94696
8.26451
7.56118
6.91062
6.35054
5.87655
5.56433
5.44485
5.52579
5.84726
6.61997
8.2597
11.7016
19.0553
34.3564
63.0484
109.318
174.66
154.007
1.94686
1.83626
1.75144
1.69617
1.66108
1.63952
1.6276
1.62225
1.62063
1.62289
1.62987
1.64094
1.65632
1.67432
1.69239
1.70846
1.72122
1.73325
1.74967
1.77454
1.80717
1.83607
1.85212
1.86756
2.087
2.27467
2.5205
2.84268
3.24651
3.78286
4.49712
5.61231
7.0915
8.83053
10.5552
11.9001
12.5327
12.322
11.54
10.5117
9.42153
8.39774
7.50903
6.77837
6.18138
5.78699
5.61378
5.65808
5.95258
6.69893
8.3146
11.7292
19.0466
34.3167
63.0281
109.46
175.112
154.347
2.09436
1.94125
1.82173
1.7424
1.69063
1.65769
1.63753
1.62659
1.62178
1.62045
1.62335
1.63068
1.64216
1.65784
1.67576
1.69357
1.70924
1.72167
1.73366
1.75025
1.77529
1.80781
1.83637
1.85214
1.86755
2.28707
2.54236
2.88031
3.31293
3.89708
4.69866
6.0173
7.85381
10.1234
12.5378
14.6624
16.0252
16.2811
15.4121
13.9182
12.2676
10.6811
9.28563
8.13035
7.21389
6.48604
6.00614
5.77823
5.78544
6.05394
6.77493
8.36767
11.7568
19.0412
34.2845
63.0079
109.605
175.637
154.673
2.2985
2.0871
1.92022
1.8083
1.73394
1.68527
1.65443
1.63563
1.62564
1.62136
1.62033
1.62387
1.63156
1.64343
1.65933
1.67715
1.69469
1.70998
1.72211
1.73408
1.75082
1.77602
1.80843
1.83653
1.85212
1.86755
2.56289
2.91558
3.37608
4.00668
4.9009
6.43907
8.66422
11.5247
14.7424
17.8427
20.2292
21.3445
20.8918
19.048
16.6087
14.19
12.0242
10.2124
8.76746
7.65339
6.78881
6.22102
5.93781
5.90784
6.15122
6.84786
8.41879
11.7804
19.0377
34.2511
62.9875
109.784
176.135
155.079
2.58111
2.28921
2.05687
1.90059
1.79569
1.72574
1.6801
1.6513
1.63383
1.62474
1.621
1.62028
1.62446
1.63249
1.64472
1.66079
1.67849
1.69576
1.71067
1.72254
1.7345
1.75139
1.77673
1.80876
1.83654
1.85211
1.86755
2.94894
3.43606
4.11176
5.1037
6.87315
9.50999
13.009
17.1273
21.3839
25.0935
27.4921
27.9799
26.3967
23.213
19.5806
16.251
13.4306
11.1656
9.41323
8.09322
7.08804
6.43092
6.09223
6.02526
6.24435
6.91769
8.46143
11.8011
19.0348
34.2167
62.9701
109.962
176.732
155.454
2.97785
2.56938
2.24583
2.02852
1.88216
1.78346
1.71779
1.67511
1.6483
1.63211
1.62392
1.6207
1.62029
1.62508
1.63345
1.64603
1.66221
1.67979
1.69678
1.71133
1.72296
1.73493
1.75198
1.77711
1.8088
1.83655
1.85211
1.86755
3.49325
4.21294
5.30701
7.31463
10.3785
14.5517
19.6485
25.2161
30.5269
34.6511
36.6704
36.0207
32.7987
27.8731
22.7962
18.4211
14.881
12.1333
10.0611
8.53001
7.38218
6.6352
6.24127
6.13771
6.33333
6.9756
8.49799
11.8243
19.0332
34.1818
62.9534
110.187
177.273
155.936
3.54203
2.96279
2.50707
2.20513
2.00188
1.86426
1.77159
1.71011
1.67031
1.64542
1.63047
1.62316
1.62047
1.62041
1.62573
1.63444
1.64735
1.6636
1.68105
1.69776
1.71196
1.72338
1.73538
1.75227
1.77713
1.80883
1.83655
1.85212
1.86756
4.31087
5.51096
7.75895
11.2579
16.1293
22.2628
29.2639
36.412
42.6756
46.8602
47.9408
45.5101
40.067
32.9772
26.2121
20.6709
16.3569
13.105
10.7052
8.96076
7.66987
6.83336
6.38475
6.24523
6.40704
7.02509
8.53848
11.8506
19.0335
34.1468
62.9425
110.401
177.961
156.363
4.39459
3.52362
2.87189
2.44883
2.1669
1.97602
1.84686
1.76008
1.7027
1.66571
1.64266
1.62893
1.62246
1.62025
1.62067
1.62639
1.63545
1.64867
1.66495
1.68227
1.69868
1.71256
1.7238
1.73557
1.75223
1.77714
1.80883
1.83654
1.85214
1.86754
5.71478
8.20225
12.1378
17.7201
24.9292
33.4525
42.6196
51.37
58.3195
62.0143
61.4149
56.4348
48.1356
38.4598
29.7817
22.9717
17.8422
14.0716
11.3408
9.38296
7.95003
7.02501
6.52263
6.33444
6.46997
7.07968
8.58339
11.8805
19.035
34.112
62.9329
110.682
178.55
156.935
4.37033
5.8921
3.38715
2.788
2.39407
2.12979
1.95085
1.82999
1.74897
1.69558
1.6613
1.64001
1.62753
1.62185
1.62001
1.62104
1.62709
1.6365
1.64999
1.66628
1.68344
1.69957
1.71312
1.72398
1.73551
1.75222
1.77714
1.8088
1.83653
1.85212
1.86749
8.63968
13.01
19.3054
27.6097
37.711
49.0215
60.5171
70.7312
77.8922
80.3267
77.123
68.7209
56.9071
44.2443
33.457
25.2965
19.3224
15.0255
11.9636
9.79467
8.22187
7.20994
6.63754
6.41068
6.53934
7.13999
8.63329
11.9143
19.0387
34.0784
62.9334
110.94
179.362
157.418
4.1508
5.87409
9.02119
3.26423
2.70921
2.34096
2.09368
1.92642
1.81365
1.73825
1.68875
1.65709
1.63748
1.62627
1.62132
1.6198
1.62148
1.62781
1.63757
1.65129
1.66757
1.68457
1.70038
1.71339
1.72392
1.73549
1.75222
1.77713
1.80876
1.83637
1.85205
1.86744
13.8652
20.8703
30.2722
41.9753
55.4992
69.9034
83.7403
95.0777
101.738
101.908
95.0049
82.2376
66.2585
50.2476
37.1912
27.6211
20.7852
15.9605
12.571
10.1946
8.48493
7.36468
6.73603
6.4948
6.61591
7.20668
8.68887
11.9528
19.046
34.0463
62.938
111.289
180.01
158.097
3.95902
5.49651
9.02735
14.6189
3.1496
2.63286
2.2893
2.0586
1.90276
1.79789
1.72796
1.68222
1.65311
1.63517
1.62517
1.62086
1.61967
1.62198
1.62858
1.63868
1.65259
1.66884
1.68558
1.70078
1.71336
1.7239
1.73549
1.75223
1.77711
1.80842
1.83607
1.85199
1.86739
22.3989
32.8913
46.1925
61.9486
79.3365
97.0018
113.011
124.903
130.09
126.751
114.911
96.8044
76.0493
56.3853
40.9403
29.9239
22.2206
16.8722
13.1607
10.5819
8.70562
7.49762
6.845
6.58777
6.70061
7.28076
8.75096
11.9968
19.057
34.0179
62.9522
111.598
181
158.645
3.78342
5.16812
8.34681
14.698
23.7568
3.03902
2.5587
2.23916
2.02463
1.87992
1.78273
1.71812
1.67605
1.64946
1.63312
1.62422
1.62049
1.61961
1.62254
1.62938
1.63982
1.65387
1.66993
1.68612
1.7008
1.71335
1.7239
1.73551
1.75227
1.77673
1.8078
1.83575
1.85193
1.86735
35.4412
50.323
68.2877
88.6555
110.214
131.149
148.966
160.594
163.048
154.728
136.608
112.202
86.1311
62.576
44.6645
32.1867
23.6207
17.7574
13.7318
10.907
8.89543
7.645
6.96575
6.6907
6.79419
7.36339
8.82054
12.0472
19.073
33.9924
62.9726
112.033
181.721
159.456
3.61672
4.86893
7.74157
13.5609
24.0019
37.7146
2.93196
2.48683
2.19064
1.99184
1.85796
1.76821
1.7088
1.67039
1.64618
1.6313
1.62339
1.62021
1.61963
1.62315
1.63025
1.64098
1.65493
1.67053
1.68618
1.7008
1.71335
1.72392
1.73557
1.75198
1.776
1.80715
1.83542
1.85187
1.86731
54.3267
74.4596
97.7401
123.137
149.033
173.1
192.16
202.417
200.572
185.585
159.789
128.19
96.3563
68.7441
48.3288
34.3948
24.98
18.6142
14.211
11.1866
9.10598
7.80861
7.0998
6.80499
6.89757
7.45569
8.89877
12.1051
19.0947
33.974
63.0179
112.407
182.969
160.091
3.45767
4.58729
7.18709
12.518
22.2337
38.2646
57.8935
2.82847
2.4174
2.14385
1.96032
1.83692
1.75446
1.70024
1.66531
1.64325
1.62969
1.62269
1.62002
1.61975
1.62384
1.63115
1.64186
1.65552
1.67064
1.68618
1.7008
1.71336
1.72398
1.73537
1.75138
1.77527
1.80646
1.83507
1.85182
1.86727
80.4067
106.515
135.602
166.311
196.612
223.553
243.065
250.507
242.466
218.95
184.095
144.515
106.584
74.8219
51.9046
36.5369
26.2943
19.3322
14.6227
11.4966
9.33978
7.99049
7.24889
6.93226
7.01211
7.55898
8.98699
12.1719
19.124
33.9607
63.0632
112.949
183.778
161.062
3.30605
4.32116
6.66429
11.5332
20.5861
35.6552
58.9266
85.6787
2.72869
2.35059
2.09891
1.93016
1.817
1.74183
1.69255
1.66074
1.64063
1.62826
1.62212
1.61993
1.61999
1.62456
1.63166
1.64238
1.65568
1.67062
1.68618
1.7008
1.71339
1.7238
1.73492
1.75081
1.77452
1.80574
1.8347
1.85176
1.86723
114.906
147.522
182.76
218.996
253.743
283.189
302.071
304.839
288.363
254.347
209.134
160.932
116.684
80.7526
55.3687
38.6044
27.3939
19.949
15.079
11.8406
9.59972
8.19304
7.41506
7.07432
7.13943
7.67481
9.08682
12.249
19.1622
33.9622
63.1492
113.413
185.383
162.009
3.16168
4.07114
6.16845
10.5884
19.0058
33.2071
55.2263
87.3896
122.274
2.63286
2.28661
2.05595
1.90163
1.7987
1.73047
1.68563
1.65666
1.6383
1.62703
1.62167
1.61997
1.62035
1.62476
1.632
1.64261
1.65564
1.67062
1.68618
1.70078
1.71312
1.72337
1.73449
1.75023
1.77375
1.80499
1.83431
1.8517
1.86719
158.807
198.289
239.963
281.997
321.267
352.699
369.461
365.194
337.73
291.218
234.499
177.206
126.547
86.4887
58.7025
40.3288
28.3374
20.6317
15.5847
12.2227
9.88912
8.41902
7.60072
7.23328
7.28144
7.80503
9.20013
12.3388
19.2116
33.9715
63.2347
114.084
186.49
163.535
3.02416
3.83873
5.70071
9.67939
17.4659
30.8331
51.7596
82.3029
124.831
168.571
2.5413
2.22561
2.01538
1.87546
1.78224
1.72025
1.67943
1.65301
1.63622
1.626
1.6214
1.62003
1.62006
1.62499
1.63231
1.64255
1.65564
1.67064
1.68612
1.70037
1.71255
1.72295
1.73407
1.74965
1.77296
1.80422
1.8339
1.85164
1.86715
212.805
259.437
307.938
356.224
400.15
432.778
445.362
431.132
389.871
328.948
259.791
193.131
136.077
91.9909
61.4718
41.8062
29.381
21.3881
16.146
12.6476
10.2118
8.67166
7.80865
7.41163
7.44042
7.95188
9.32933
12.4432
19.2755
33.9934
63.3758
114.785
188.627
164.604
2.8933
3.62503
5.26325
8.80962
15.9578
28.4967
48.3786
77.581
117.996
172.054
225.087
2.4543
2.16817
1.97823
1.85196
1.76745
1.71107
1.67387
1.64976
1.63438
1.62523
1.62125
1.61916
1.6201
1.62545
1.6322
1.64255
1.65569
1.67053
1.68558
1.69955
1.71194
1.72253
1.73365
1.74907
1.77216
1.80341
1.83347
1.85157
1.86711
277.345
331.535
387.546
442.817
491.525
524.114
529.701
501.961
443.946
366.897
284.646
208.526
145.194
96.5397
63.8393
43.4385
30.536
22.2266
16.7694
13.1208
10.5723
8.95467
8.04211
7.61229
7.61914
8.11807
9.4771
12.5659
19.3556
34.041
63.5427
115.923
190.571
166.486
2.76921
3.42788
4.85753
7.98625
14.4839
26.181
45.0332
72.9737
111.757
162.995
229.407
291.998
2.37269
2.11571
1.94494
1.83086
1.75416
1.70285
1.66889
1.64688
1.63285
1.62465
1.62003
1.61896
1.6207
1.62532
1.6322
1.64262
1.65552
1.66993
1.68455
1.69866
1.71131
1.72209
1.73323
1.7485
1.77136
1.80257
1.83301
1.8515
1.86707
352.767
415.285
479.979
543.267
596.804
627.379
622.108
576.703
499.004
404.445
308.732
223.236
152.698
100.419
66.4504
45.242
31.8147
23.1568
17.4627
13.6486
10.9757
9.27237
8.30494
7.83878
7.82092
8.30685
9.64708
12.7098
19.4585
34.1186
63.8706
116.907
193.523
167.724
2.6529
3.24568
4.48496
7.21864
13.052
23.8851
41.6936
68.4134
105.704
154.929
217.471
296.809
369.286
2.29854
2.06881
1.91512
1.81193
1.74225
1.69547
1.66446
1.64445
1.63153
1.6228
1.61971
1.61979
1.62054
1.62532
1.63231
1.64238
1.65492
1.66882
1.68341
1.69773
1.71065
1.72165
1.73282
1.74793
1.77054
1.80172
1.83253
1.85143
1.86703
439.539
511.836
586.938
659.78
717.83
743.081
721.788
654.102
554.052
441.013
331.76
235.307
159.083
104.688
69.3295
47.2351
33.2311
24.1899
18.2348
14.2382
11.4279
9.62982
8.60163
8.09525
8.0498
8.52238
9.84321
12.8809
19.6105
34.2721
64.2104
118.32
196.043
170.172
2.54729
3.07821
4.14632
6.50747
11.6721
21.6172
38.3502
63.8498
99.7457
147.197
207.17
281.074
373.889
456.991
2.23259
2.02691
1.88844
1.79498
1.73158
1.68888
1.66062
1.64232
1.62869
1.62224
1.62069
1.6196
1.62054
1.62545
1.63201
1.64185
1.65385
1.66754
1.68223
1.69675
1.70995
1.7212
1.73242
1.74736
1.76972
1.80083
1.83203
1.85135
1.86699
538.599
622.708
711.243
795.711
856.732
871.297
827.4
732.696
608.111
476.076
350.634
245.557
166.094
109.384
72.5028
49.4372
34.8006
25.3382
19.0958
14.8978
11.9357
10.0329
8.93749
8.38663
8.31065
8.76926
10.0714
13.1205
19.839
34.4786
64.6975
119.559
199.91
171.726
2.45357
2.92744
3.84432
5.85697
10.3627
19.3906
35.0064
59.2577
93.8005
139.68
197.48
267.975
353.03
460.262
555.583
2.17394
1.9895
1.86458
1.77979
1.72203
1.68312
1.65723
1.63845
1.6277
1.62348
1.62048
1.61961
1.62071
1.62499
1.63165
1.64096
1.65256
1.66624
1.68101
1.69572
1.70922
1.72073
1.73201
1.7468
1.7689
1.79993
1.83152
1.85128
1.86696
650.824
750.943
857.781
955.425
1015.59
1011.26
937.074
810.917
660.257
504.837
366.639
256.789
173.783
114.542
75.9974
51.8697
36.5404
26.6158
20.0572
15.6372
12.5073
10.4884
9.31877
8.71881
8.60929
9.05411
10.3859
13.4544
20.1272
34.7533
65.2181
121.422
202.96
174.936
2.37064
2.79336
3.58708
5.27529
9.13957
17.2244
31.6728
54.6273
87.8189
132.252
188.249
255.957
336.353
432.318
555.952
666.404
2.12179
1.95612
1.84325
1.7662
1.71363
1.67801
1.65194
1.63701
1.62926
1.62322
1.62048
1.6198
1.6201
1.62475
1.63114
1.63979
1.65125
1.66491
1.67975
1.69465
1.70844
1.72023
1.7316
1.74625
1.76808
1.79904
1.83102
1.8512
1.86693
779.31
903.058
1033.37
1144.34
1195.5
1161.23
1048.59
887.189
703.175
529.209
384.142
269.071
182.198
120.198
79.8406
54.555
38.4691
28.0383
21.1324
16.4676
13.152
11.0046
9.75281
9.09884
8.95304
9.44535
10.8141
13.8514
20.4821
35.1048
65.9248
123.072
207.91
176.977
2.29736
2.67388
3.37056
4.7747
8.02696
15.1402
28.3671
49.9577
81.7676
124.827
179.284
244.825
321.497
411.014
517.89
662.154
791.976
2.07542
1.92636
1.82418
1.75422
1.70617
1.67088
1.64985
1.63891
1.62898
1.62323
1.6207
1.61896
1.62005
1.62456
1.63023
1.63864
1.64994
1.66355
1.67844
1.69353
1.70761
1.71971
1.73118
1.7457
1.76729
1.79818
1.83053
1.85112
1.8669
930.161
1087.88
1248.24
1367.31
1396.44
1319.02
1159.49
950.431
739.561
555.815
403.223
282.461
191.382
126.385
84.0595
57.5162
40.6068
29.6231
22.3362
17.4018
13.8808
11.591
10.2485
9.53519
9.42329
9.96207
11.3088
14.32
20.923
35.5462
66.7204
125.558
211.5
181.259
2.23266
2.5676
3.18545
4.35575
7.05921
13.1744
25.1135
45.2556
75.6209
117.337
170.452
234.287
308.207
392.632
490.616
609.083
780.086
939.329
2.03418
1.89983
1.80732
1.74358
1.69664
1.66792
1.65203
1.63864
1.62899
1.62349
1.6197
1.61916
1.62035
1.62383
1.62936
1.63753
1.64862
1.66216
1.6771
1.69236
1.70674
1.71916
1.73076
1.74517
1.76654
1.79735
1.83004
1.85105
1.86687
1113.16
1318.8
1512.83
1629.62
1619.71
1481.99
1252.73
1004.16
779.23
584.727
423.932
296.992
201.361
133.129
88.6792
60.7767
42.9749
31.3896
23.686
18.4549
14.7066
12.259
10.8161
10.1305
10.0501
10.5462
11.8777
14.8747
21.4568
36.1189
67.7333
127.807
217.897
183.965
2.1755
2.47345
3.02483
4.00737
6.24078
11.3992
21.9652
40.5378
69.3597
109.715
161.633
224.149
296.042
376.831
467.818
574.12
705.813
912.341
1117.11
1.99751
1.87638
1.79237
1.73094
1.69249
1.67032
1.6518
1.63864
1.62927
1.62224
1.62002
1.62004
1.61999
1.62313
1.62855
1.63646
1.64731
1.66074
1.67572
1.69114
1.70581
1.71858
1.73035
1.74467
1.76583
1.79654
1.82957
1.85097
1.86684
1346.81
1616.4
1845.45
1947.02
1868.38
1622.16
1332.29
1062.71
822.193
615.948
446.267
312.668
212.15
140.448
93.7216
64.3598
45.5965
33.3595
25.2016
19.6447
15.6452
13.0223
11.5889
10.9177
10.7595
11.209
12.5317
15.5237
22.1164
36.8144
68.9435
131.104
222.11
189.783
2.12495
2.3904
2.88347
3.72022
5.5567
9.85604
19.0379
35.8654
62.9752
101.898
152.709
214.226
284.728
362.929
449.062
545.796
661.263
809.118
1069.93
1343.05
1.9651
1.85564
1.77563
1.72525
1.69508
1.67006
1.6518
1.63892
1.6277
1.62279
1.62126
1.61998
1.61975
1.62252
1.62779
1.63542
1.64599
1.65929
1.6743
1.68987
1.70483
1.71798
1.72994
1.74419
1.76516
1.79577
1.8291
1.85089
1.86681
1658.11
2035.01
2302.76
2354.81
2088.04
1742.26
1418.89
1125.86
868.314
649.377
470.162
329.455
223.734
148.348
99.2036
68.2877
48.4957
35.5569
26.9058
20.9924
16.7149
14.0591
12.6067
11.8033
11.5607
11.9614
13.2791
16.2848
22.8995
37.725
70.4093
134.268
230.458
193.39
2.0804
2.31737
2.75806
3.48418
4.99016
8.53712
16.4069
31.4019
56.5172
93.828
143.553
204.332
273.988
350.552
433.244
523.577
626.089
753.228
924.243
1276.02
1650.55
1.9365
1.8336
1.76782
1.72803
1.69479
1.67007
1.65204
1.63701
1.62868
1.62468
1.62142
1.61994
1.61963
1.62197
1.62706
1.63441
1.64469
1.65781
1.67284
1.68856
1.70384
1.71738
1.72954
1.74374
1.76452
1.79502
1.82866
1.8508
1.86678
2174.79
2717.65
3039.27
2717.16
2274.34
1871.9
1511.59
1193.1
917.246
684.782
495.466
347.26
236.071
156.82
105.135
72.5808
51.6981
38.009
28.8256
22.5228
18.1649
15.4213
13.7482
12.7994
12.4639
12.8127
14.1311
17.161
23.8521
38.809
72.2572
138.637
235.862
1120.39
2.04122
2.25348
2.64671
3.28645
4.5237
7.43139
14.0765
27.2699
50.1873
85.5146
134.037
194.269
263.57
339.297
419.872
505.602
599.883
709.765
854.281
1063.51
1588.08
2221.13
1.90731
1.82312
1.77071
1.72776
1.6948
1.67033
1.64985
1.63845
1.63157
1.62526
1.62169
1.62003
1.61961
1.62147
1.62637
1.63343
1.64341
1.65631
1.67134
1.68726
1.70285
1.71678
1.72915
1.74331
1.76391
1.79431
1.82822
1.85071
1.86674
3147.51
4125.1
3639.95
3006.98
2468.69
2007.64
1608.7
1263.45
968.385
721.765
521.921
365.928
249.079
165.832
111.516
77.2572
55.2306
40.747
30.9922
24.5894
20.0643
16.9465
15.0295
13.9187
13.4792
13.7726
15.093
18.1706
24.9571
40.2005
74.3983
143.238
278.956
2141.1
2.00267
2.19768
2.5484
3.11753
4.14285
6.51173
12.043
23.4964
44.1554
77.1647
124.092
183.821
253.195
328.837
408.365
491.248
579.469
679.054
801.099
975.596
1260.68
2184.4
3488.79
1.89306
1.82611
1.77048
1.72777
1.6951
1.66791
1.65194
1.64238
1.6329
1.62603
1.62214
1.62022
1.61967
1.62103
1.62571
1.63248
1.64215
1.6548
1.66986
1.68598
1.70187
1.71617
1.72877
1.74289
1.76333
1.79364
1.8278
1.85061
1.86673
5618.83
4975.11
4027.96
3282.25
2662.04
2144.88
1707.77
1335.52