/*--------------------------------*- C++ -*----------------------------------*\
  =========                 |
  \\      /  F ield         | OpenFOAM: The Open Source CFD Toolbox
   \\    /   O peration     | Website:  https://openfoam.org
    \\  /    A nd           | Version:  8
     \\/     M anipulation  |
\*---------------------------------------------------------------------------*/
FoamFile
{
    version     2.0;
    format      ascii;
    class       volScalarField;
    location    "0.05";
    object      nut;
}
// * * * * * * * * * * * * * * * * * * * * * * * * * * * * * * * * * * * * * //

dimensions      [0 2 -1 0 0 0 0];

internalField   nonuniform List<scalar> 
15677
(
0.000102837
0.000521528
8.7439e-05
0.00134765
0.000359916
9.01105e-05
0.00251904
0.000737843
0.00030767
9.93185e-05
0.00381133
0.00133037
0.000527019
0.000305734
0.000110355
0.00496413
0.00213659
0.000923277
0.000451637
0.00029611
0.00012019
0.00581114
0.0031018
0.00153208
0.000726881
0.0004041
0.000289793
0.000128714
0.00630746
0.00411847
0.0023244
0.00119546
0.000605835
0.000375739
0.000288902
0.000135508
0.00654079
0.0050688
0.00324364
0.00186478
0.000975243
0.000526105
0.000363346
0.000291222
0.000140515
0.00663892
0.00582974
0.00419735
0.00269165
0.00154094
0.000818801
0.000479355
0.000360469
0.000294378
0.000144338
0.00668856
0.00632211
0.00507757
0.00360435
0.00228238
0.00129934
0.000712328
0.000454708
0.000361582
0.000297668
0.000147096
0.00670566
0.0065607
0.00578935
0.00450931
0.00314247
0.00196075
0.00111918
0.000643878
0.0004422
0.000364281
0.000300465
0.00014957
0.00670451
0.00666527
0.00628255
0.00531007
0.00404073
0.00276364
0.00171116
0.000990268
0.000600533
0.00043584
0.000367072
0.000303486
0.000151497
0.0067027
0.00670421
0.00655403
0.00593166
0.0048866
0.00363989
0.00245977
0.00152293
0.000902421
0.000571151
0.000432311
0.000370605
0.000306359
0.000153325
0.00670267
0.00670908
0.00667796
0.00634364
0.00559643
0.00450662
0.00330713
0.00222122
0.00138383
0.000836877
0.00055022
0.000431287
0.000374355
0.000309381
0.000154788
0.00670292
0.00670723
0.00672151
0.00657029
0.00611466
0.00527924
0.00417807
0.00303718
0.00203698
0.00127599
0.000787148
0.000535412
0.000431932
0.000378652
0.000311986
0.000156316
0.0067031
0.00670635
0.00672964
0.00667475
0.00643096
0.00588947
0.00499014
0.0039024
0.00282142
0.00189027
0.00119208
0.000748396
0.000525406
0.000434179
0.000382653
0.000315012
0.00015737
0.00670319
0.00670615
0.00672939
0.00670901
0.006606
0.00630551
0.00566826
0.00473742
0.00367469
0.00264541
0.00177258
0.00112364
0.00071889
0.00051908
0.000437153
0.00038708
0.000317014
0.000158586
0.00670322
0.00670612
0.00672826
0.00671854
0.006672
0.00653564
0.00616608
0.00546338
0.00452063
0.0034842
0.0025009
0.00167548
0.0010695
0.000695802
0.000515688
0.000441108
0.000390582
0.000319493
0.000159393
0.00670324
0.00670612
0.00672752
0.0067209
0.0066938
0.00663771
0.00646803
0.00602174
0.00527932
0.00433368
0.00332396
0.00237988
0.00159552
0.00102419
0.000678558
0.000514817
0.000444707
0.000394379
0.000321104
0.000160468
0.00670324
0.00670613
0.0067271
0.00672147
0.00670036
0.00667576
0.00660776
0.00639078
0.00588543
0.00511414
0.00417206
0.00318751
0.00227797
0.00152775
0.000987733
0.00066633
0.000515101
0.000448771
0.000397106
0.000323269
0.000161136
0.00670324
0.00670613
0.00672685
0.00672171
0.00670207
0.00668879
0.00666501
0.00657291
0.00630661
0.00575623
0.00496673
0.00403192
0.00307066
0.00219087
0.00147214
0.000959271
0.000657881
0.000516809
0.000452
0.000400526
0.000324502
0.000162147
0.00670324
0.00670614
0.00672668
0.0067219
0.00670243
0.0066928
0.00668674
0.00665388
0.00653038
0.00621988
0.0056363
0.00483664
0.0039101
0.00296994
0.00211861
0.00142712
0.000938026
0.000652686
0.000518374
0.000455634
0.000402486
0.000326332
0.000162784
0.00670324
0.00670614
0.00672656
0.00672209
0.00670248
0.00669391
0.00669397
0.00668758
0.00663632
0.00647951
0.0061349
0.00552899
0.0047219
0.00380409
0.00288551
0.00205927
0.00139178
0.000922345
0.000648994
0.000521272
0.000458651
0.000404981
0.000327333
0.000163766
0.00670324
0.00670614
0.00672648
0.00672226
0.00670247
0.00669417
0.00669592
0.00670029
0.00668385
0.00660947
0.00642679
0.00605764
0.00543309
0.00462084
0.00371441
0.00281579
0.00201208
0.00136487
0.000910763
0.000648322
0.000523249
0.000461502
0.00040692
0.000328982
0.000164399
0.00670324
0.00670614
0.00672642
0.0067224
0.00670248
0.0066942
0.00669621
0.00670452
0.00670354
0.00667123
0.00657962
0.00637687
0.0059885
0.00534742
0.00453487
0.00364029
0.00276025
0.00197606
0.00134519
0.000904271
0.000647417
0.000526451
0.000463994
0.000408855
0.000329974
0.000165382
0.00670324
0.00670614
0.00672639
0.00672252
0.00670252
0.00669416
0.00669609
0.00670563
0.00671104
0.00669831
0.00665621
0.00654809
0.00632777
0.00592622
0.0052747
0.00446388
0.00358136
0.0027179
0.00194985
0.00133244
0.000899246
0.00064899
0.000529414
0.000466171
0.000410533
0.00033141
0.000166013
0.00670324
0.00670614
0.00672637
0.00672263
0.00670258
0.00669409
0.00669593
0.00670573
0.00671363
0.00670914
0.00669239
0.0066366
0.00652
0.00628929
0.00587344
0.00521372
0.0044069
0.00353612
0.00268721
0.00193285
0.00132449
0.000898953
0.000651666
0.000531428
0.000468531
0.000412146
0.000332377
0.00016702
0.00670324
0.00670614
0.00672635
0.00672272
0.00670266
0.00669403
0.00669581
0.00670557
0.00671441
0.00671298
0.00670854
0.00667919
0.00662224
0.00649523
0.00625771
0.00583069
0.0051684
0.00436725
0.00350735
0.00266999
0.0019245
0.0013233
0.000901183
0.000653743
0.000534469
0.000470735
0.000413724
0.000333762
0.000167648
0.00670324
0.00670614
0.00672633
0.00672281
0.00670275
0.00669397
0.00669573
0.00670539
0.00671459
0.00671405
0.00671531
0.00669836
0.00667418
0.00660875
0.00647779
0.006236
0.00579956
0.00513474
0.0043393
0.00348887
0.00266133
0.00192298
0.00132644
0.000904577
0.000657494
0.000537737
0.000472918
0.000415078
0.000334562
0.000168625
0.00670324
0.00670613
0.00672631
0.00672289
0.00670286
0.00669392
0.00669568
0.00670525
0.0067146
0.00671416
0.00671793
0.00670654
0.00669887
0.00666539
0.00660224
0.0064715
0.00621681
0.00577664
0.00511317
0.00432379
0.00348193
0.00266158
0.00192886
0.00133314
0.000910582
0.000662217
0.000540943
0.00047488
0.000416511
0.000336028
0.000169505
0.00670324
0.00670613
0.00672628
0.00672297
0.00670297
0.00669389
0.00669565
0.00670515
0.00671457
0.00671404
0.00671878
0.00670986
0.00670958
0.00669254
0.00667017
0.00660323
0.00646558
0.00620557
0.00576636
0.00510613
0.00432328
0.00348792
0.00267264
0.00194128
0.00134429
0.000918852
0.000667489
0.000544228
0.000476868
0.000417729
0.000336662
0.000170343
0.00670324
0.00670613
0.00672624
0.00672304
0.00670308
0.00669386
0.00669563
0.00670507
0.00671454
0.00671391
0.00671899
0.00671109
0.00671375
0.00670543
0.00670441
0.0066744
0.00660792
0.00646596
0.00620848
0.00577032
0.00511336
0.00433555
0.00350514
0.00269212
0.00195894
0.00135943
0.00092908
0.00067358
0.000547636
0.0004787
0.00041903
0.000337886
0.000171174
0.00670324
0.00670613
0.00672619
0.00672311
0.00670318
0.00669384
0.00669562
0.00670501
0.0067145
0.00671383
0.00671897
0.00671154
0.00671503
0.00671121
0.00672015
0.00671062
0.00668425
0.0066186
0.00647911
0.0062229
0.00578719
0.0051337
0.0043605
0.00353288
0.00271954
0.00198246
0.00137829
0.000941118
0.000680147
0.000551041
0.000480793
0.000420345
0.000339069
0.000172053
0.00670325
0.00670614
0.00672613
0.00672318
0.00670329
0.00669383
0.00669561
0.00670496
0.00671446
0.00671381
0.00671888
0.00671174
0.00671525
0.00671349
0.00672705
0.00672782
0.0067236
0.00670299
0.00663973
0.00650265
0.00624968
0.00581737
0.0051679
0.00439772
0.00357091
0.00275479
0.00201112
0.00140041
0.000954741
0.000687414
0.00055511
0.000483002
0.000421569
0.000340266
0.000172931
0.00670615
0.00670326
0.00672607
0.00672325
0.00670339
0.00669382
0.0066956
0.00670492
0.00671441
0.00671384
0.00671876
0.00671186
0.00671515
0.00671429
0.00672978
0.00673551
0.00674291
0.00674748
0.00673021
0.00667088
0.00653824
0.0062898
0.00586213
0.00521569
0.00444731
0.00361896
0.00279724
0.00204539
0.00142617
0.000970374
0.000696515
0.000559741
0.000485047
0.000422749
0.000341445
0.00017383
0.00672599
0.00670613
0.00670327
0.00672333
0.00670349
0.00669381
0.00669558
0.00670487
0.00671435
0.00671392
0.00671863
0.00671198
0.00671495
0.00671455
0.00673078
0.00673864
0.00675185
0.00677011
0.00677915
0.00676714
0.00671398
0.00658755
0.00634502
0.00592166
0.00527792
0.00450903
0.0036766
0.002847
0.00208418
0.00145477
0.000989533
0.000707108
0.000564277
0.000487125
0.000423891
0.000342562
0.000174697
0.0067234
0.00672582
0.00670608
0.00670329
0.00670358
0.00669381
0.00669556
0.00670483
0.00671428
0.00671403
0.00671848
0.00671212
0.00671476
0.00671461
0.00673112
0.00673984
0.00675565
0.00678112
0.00680488
0.00682034
0.00681627
0.00677076
0.00665221
0.00641654
0.00599739
0.0053545
0.00458266
0.00374372
0.00290337
0.00212769
0.00148855
0.00101327
0.000718384
0.000569084
0.000489045
0.000424892
0.000343661
0.000175571
0.00670367
0.00672361
0.00672553
0.00670604
0.00670331
0.0066938
0.00669554
0.00670479
0.0067142
0.00671416
0.00671831
0.00671228
0.00671458
0.00671463
0.00673122
0.00674031
0.00675722
0.00678608
0.00681806
0.00684907
0.00687405
0.00687916
0.00684331
0.00673338
0.00650528
0.00608884
0.0054457
0.0046681
0.00381951
0.00296634
0.00218049
0.00153004
0.00103863
0.000730513
0.000573748
0.000490964
0.000425911
0.00034468
0.00017639
0.00669379
0.00670394
0.00672396
0.00672518
0.00670601
0.00670333
0.00669551
0.00670474
0.00671412
0.00671431
0.00671814
0.00671246
0.00671443
0.00671466
0.00673124
0.00674049
0.00675791
0.00678834
0.00682457
0.00686448
0.00690599
0.00694119
0.00695791
0.00693257
0.00683248
0.00661095
0.00619695
0.00555108
0.0047649
0.00390405
0.00304247
0.00224514
0.00157273
0.00106529
0.000743156
0.000578652
0.000492842
0.000426892
0.000345693
0.000177216
0.00669547
0.00669383
0.00670441
0.00672433
0.0067248
0.00670598
0.00670335
0.00670469
0.00671404
0.00671445
0.00671797
0.00671266
0.00671429
0.0067147
0.00673124
0.00674058
0.00675827
0.00678949
0.00682797
0.00687287
0.00692472
0.00697825
0.00702669
0.00705422
0.00703956
0.00694892
0.00673422
0.00632039
0.0056698
0.00487342
0.00400658
0.00313511
0.00231428
0.00161869
0.00109357
0.000756248
0.000583494
0.000494605
0.000427825
0.000346617
0.000177971
0.00670462
0.00669532
0.00669395
0.00670491
0.0067247
0.00672438
0.00670596
0.00670336
0.00671395
0.0067146
0.0067178
0.00671287
0.00671417
0.00671477
0.00673124
0.00674064
0.00675849
0.00679019
0.00682996
0.00687768
0.00693562
0.00700072
0.00706959
0.00713168
0.0071729
0.00716705
0.00708249
0.00687295
0.00645887
0.00580102
0.00500464
0.00413192
0.0032349
0.00238745
0.0016669
0.00112247
0.000769587
0.000588322
0.000496442
0.000428639
0.000347535
0.000178738
0.00671385
0.00670435
0.00669508
0.00669408
0.00670543
0.00672507
0.00672394
0.00670595
0.00670338
0.00671474
0.00671763
0.00671307
0.00671407
0.00671487
0.00673124
0.00674069
0.00675866
0.00679069
0.0068313
0.00688089
0.00694259
0.00701496
0.0070974
0.00718157
0.00725983
0.00731344
0.00731856
0.00723727
0.00702621
0.00660969
0.00595907
0.00516391
0.00426637
0.00334049
0.002464
0.00171592
0.00115238
0.000783287
0.000593347
0.000498067
0.000429468
0.000348367
0.000179426
0.00671486
0.00671361
0.00670388
0.00669483
0.00669423
0.00670597
0.00672545
0.00672347
0.00670594
0.00670339
0.00671747
0.00671327
0.00671398
0.00671498
0.00673125
0.00674074
0.00675881
0.00679111
0.00683232
0.00688333
0.00694768
0.0070249
0.00711667
0.00721628
0.00731908
0.00741185
0.00747901
0.00749211
0.00741433
0.00719754
0.00678992
0.00614821
0.00533284
0.00440785
0.00345065
0.00254305
0.00176592
0.00118245
0.000797296
0.000598221
0.000499851
0.000430212
0.000349197
0.00018013
0.00671732
0.00671497
0.0067132
0.00670338
0.00669458
0.00669442
0.00670653
0.00672583
0.00672299
0.00670594
0.00670341
0.00671345
0.0067139
0.00671509
0.00673126
0.00674079
0.00675896
0.00679149
0.00683318
0.00688539
0.0069518
0.00703273
0.00713125
0.00724219
0.00736346
0.00748292
0.00759206
0.00766939
0.007689
0.00761209
0.00740867
0.00700541
0.00634561
0.00550878
0.00455456
0.00356424
0.00262384
0.00181685
0.0012119
0.000811512
0.000602979
0.000501499
0.00043096
0.000349945
0.000180751
0.00671362
0.00671714
0.00671507
0.00671274
0.00670285
0.00669433
0.00669463
0.00670712
0.00672621
0.00672249
0.00670595
0.00670341
0.00671384
0.00671518
0.00673126
0.00674083
0.0067591
0.00679184
0.00683395
0.0068872
0.00695537
0.00703944
0.00714332
0.00726298
0.00739921
0.0075398
0.00767872
0.00780035
0.00788696
0.00790943
0.00785333
0.00766872
0.00724094
0.00654941
0.00568839
0.00470391
0.00367968
0.00270566
0.00186837
0.00124134
0.000825654
0.00060778
0.000503113
0.000431633
0.000350691
0.000181391
0.00671379
0.00671387
0.00671694
0.00671515
0.00671224
0.00670231
0.00669409
0.00669488
0.00670774
0.00672658
0.00672198
0.00670597
0.00670342
0.00671524
0.00673126
0.00674087
0.00675923
0.00679217
0.00683465
0.00688884
0.00695856
0.00704543
0.00715388
0.00728094
0.00742956
0.00758824
0.00775249
0.00790661
0.00804058
0.00813215
0.00818048
0.00814891
0.00794845
0.0074927
0.00675996
0.00586821
0.00485399
0.00379606
0.00278785
0.00192022
0.00126977
0.000839664
0.00061242
0.000504674
0.00043231
0.000351365
0.000181949
0.00671526
0.0067137
0.00671418
0.00671674
0.0067152
0.0067117
0.00670177
0.00669386
0.00669517
0.00670837
0.00672693
0.00672146
0.00670599
0.00670342
0.00673127
0.0067409
0.00675935
0.00679248
0.00683531
0.00689036
0.00696146
0.0070509
0.0071634
0.00729717
0.00745663
0.00763079
0.00781882
0.00800235
0.00817226
0.00831338
0.00843617
0.00851548
0.00846988
0.00824485
0.00775614
0.00697942
0.00604852
0.00500391
0.00391204
0.00286983
0.00197182
0.00129805
0.000853473
0.000617015
0.000506152
0.000432914
0.000352029
0.000182527
0.00673133
0.00671483
0.00671364
0.00671448
0.00671655
0.00671523
0.00671113
0.00670121
0.00669365
0.00669549
0.00670903
0.00672728
0.00672094
0.00670602
0.00670342
0.00674091
0.00675944
0.00679277
0.00683593
0.00689174
0.00696412
0.00705592
0.00717209
0.00731212
0.00748138
0.00766956
0.00787962
0.00809244
0.00829658
0.00847646
0.00865539
0.00881652
0.00888314
0.00881314
0.00855516
0.00802656
0.00720434
0.0062269
0.00515101
0.0040265
0.00295094
0.00202291
0.00132596
0.000866996
0.000621571
0.000507533
0.000433518
0.000352634
0.000183025
0.00674095
0.00673092
0.00671388
0.00671365
0.00671475
0.00671638
0.00671522
0.00671052
0.00670065
0.00669346
0.00669586
0.00670971
0.0067276
0.00672043
0.00670604
0.00670342
0.00675953
0.00679301
0.0068365
0.006893
0.00696654
0.00706051
0.00718007
0.00732599
0.00750421
0.00770569
0.00793677
0.00817695
0.00841722
0.00863739
0.00886386
0.00908992
0.00923968
0.00928134
0.00917647
0.00887704
0.00830183
0.00743274
0.00640611
0.0052946
0.00413864
0.00303077
0.00207324
0.00135304
0.000880192
0.000626046
0.000508854
0.000434056
0.00035322
0.000183544
0.00675966
0.00674011
0.00673006
0.00671308
0.00671371
0.00671499
0.00671624
0.00671517
0.00670989
0.00670009
0.00669329
0.00669627
0.0067104
0.00672788
0.00671996
0.00670608
0.00670341
0.00679322
0.00683701
0.00689413
0.00696874
0.00706469
0.00718739
0.00733883
0.00752533
0.00773971
0.00799093
0.00825679
0.00853299
0.0088007
0.00908022
0.00936405
0.00958126
0.00970638
0.00971059
0.0095594
0.00920912
0.00858045
0.00766105
0.00658572
0.00543466
0.00424799
0.00310877
0.00212253
0.00137941
0.000893025
0.000630423
0.000510097
0.000434594
0.000353766
0.000183986
0.00679347
0.00675833
0.00673836
0.00672898
0.00671249
0.00671378
0.0067152
0.00671615
0.00671506
0.00670923
0.00669953
0.00669315
0.00669672
0.00671107
0.00672813
0.00671951
0.00670611
0.0067034
0.00683747
0.00689512
0.0069707
0.00706847
0.00719408
0.00735066
0.00754486
0.00777179
0.00804206
0.00833259
0.00864577
0.00896437
0.00930703
0.00965925
0.00994187
0.0101393
0.0102254
0.0101759
0.00996358
0.00955115
0.00886143
0.00788768
0.0067642
0.0055709
0.00435405
0.00318477
0.00217058
0.00140504
0.000905469
0.000634679
0.000511291
0.000435072
0.000354275
0.000184447
0.00683802
0.00679131
0.00675548
0.00673676
0.00672765
0.00671214
0.00671386
0.00671537
0.0067161
0.00671488
0.00670856
0.00669898
0.00669305
0.0066972
0.00671171
0.00672834
0.00671909
0.00670614
0.0067034
0.00689601
0.00697244
0.00707187
0.00720016
0.00736149
0.00756287
0.0078019
0.00809001
0.00840487
0.00875687
0.00912782
0.00953405
0.00997714
0.0103548
0.0106329
0.0107923
0.0108135
0.0106851
0.0103916
0.00990338
0.00914415
0.00811198
0.00694041
0.00570348
0.0044569
0.00325841
0.00221725
0.00142988
0.0009175
0.000638806
0.000512418
0.000435552
0.000354772
0.00018484
0.00689694
0.00683522
0.00678655
0.00675286
0.00673521
0.00672603
0.00671202
0.00671396
0.0067155
0.0067161
0.00671463
0.00670788
0.00669843
0.00669298
0.00669768
0.00671233
0.00672852
0.00671869
0.00670617
0.00670339
0.00697399
0.00707488
0.00720564
0.00737134
0.00757941
0.00782993
0.00813471
0.00847404
0.00886593
0.00928824
0.00975732
0.0103134
0.0108451
0.0112555
0.0114968
0.0115718
0.0114844
0.011243
0.0108448
0.0102657
0.00942807
0.00833347
0.00711344
0.00583144
0.00455558
0.00332944
0.0022624
0.00145388
0.000929106
0.000642789
0.000513502
0.000435973
0.000355214
0.000185185
0.00697557
0.00689316
0.00682894
0.00678191
0.00675043
0.0067339
0.00672414
0.00671208
0.00671408
0.00671559
0.00671613
0.0067143
0.00670719
0.00669792
0.00669295
0.00669816
0.00671291
0.00672866
0.00671833
0.0067062
0.00670339
0.0070776
0.00721057
0.00738025
0.00759454
0.00785584
0.00817621
0.00854013
0.00897142
0.00944256
0.00997933
0.0106833
0.0114281
0.0120594
0.0124374
0.0125599
0.0124818
0.0122353
0.0118464
0.0113207
0.0106366
0.00971242
0.00855165
0.00728294
0.00595651
0.00465012
0.00339774
0.00230594
0.00147703
0.00094027
0.000646628
0.000514522
0.000436405
0.000355593
0.000185464
0.00708026
0.00697053
0.00688419
0.00682283
0.00677745
0.0067481
0.0067329
0.00672218
0.00671227
0.00671421
0.00671566
0.00671618
0.0067139
0.00670653
0.00669744
0.00669295
0.00669864
0.00671345
0.00672877
0.00671799
0.00670622
0.00670339
0.00721503
0.00738828
0.0076083
0.00787962
0.0082146
0.00860287
0.00907161
0.00958974
0.0102072
0.0111019
0.0121121
0.0130198
0.0136306
0.0138564
0.0137731
0.013485
0.0130428
0.0124821
0.0118129
0.0110134
0.00999598
0.00876605
0.00744767
0.00607852
0.00474069
0.00346325
0.0023478
0.00149929
0.000950986
0.000650311
0.000515506
0.000436718
0.000355915
0.0001858
0.0072193
0.00707361
0.00695796
0.00687541
0.00681683
0.00677309
0.00674585
0.00673202
0.00672024
0.00671255
0.00671436
0.00671572
0.00671623
0.00671344
0.00670589
0.00669701
0.00669299
0.00669912
0.00671396
0.00672886
0.00671769
0.00670623
0.00670339
0.00739556
0.00762079
0.00790136
0.00825002
0.00866187
0.00916538
0.00973089
0.0104477
0.0115694
0.0128692
0.0140624
0.0149302
0.0153679
0.0153607
0.015033
0.0145169
0.0138696
0.0131306
0.0123118
0.0113916
0.0102772
0.00897609
0.00760734
0.00619703
0.00482744
0.00352593
0.00238795
0.00152066
0.00096126
0.000653845
0.000516306
0.000437015
0.000356225
0.000186134
0.00740236
0.00721054
0.00705616
0.00694558
0.0068668
0.00681089
0.0067688
0.00674368
0.00673121
0.00671836
0.00671289
0.0067145
0.00671579
0.00671625
0.00671296
0.00670529
0.00669661
0.00669305
0.00669958
0.00671444
0.00672893
0.00671741
0.00670624
0.00670339
0.00763218
0.00792115
0.00828259
0.0087168
0.00925244
0.00986802
0.0107024
0.0120689
0.0136456
0.0150872
0.0161766
0.016832
0.0170313
0.0167885
0.0162355
0.0155126
0.0146772
0.0137704
0.0128067
0.0117665
0.0105542
0.00918113
0.0077618
0.00631174
0.00491046
0.00358581
0.00242637
0.00154113
0.000971073
0.000656775
0.000516997
0.000437303
0.000356609
0.00018654
0.00764268
0.00739108
0.00718644
0.00703892
0.00693348
0.00685833
0.00680502
0.00676462
0.00674159
0.00673046
0.00671659
0.00671329
0.00671461
0.00671588
0.00671622
0.00671246
0.00670472
0.00669624
0.00669314
0.00670003
0.00671488
0.00672898
0.00671717
0.00670626
0.00670338
0.00793922
0.00831247
0.00876753
0.00933315
0.0100028
0.0109679
0.0125755
0.0143874
0.0160119
0.0172559
0.0180774
0.01848
0.0184637
0.0180353
0.0173093
0.0164242
0.0154347
0.0143829
0.0132873
0.0121331
0.010825
0.00938052
0.00791094
0.00642243
0.00498982
0.00364291
0.00246305
0.00156069
0.000979209
0.000659279
0.000517743
0.000437677
0.000356964
0.00018693
0.00795561
0.00762828
0.0073581
0.00716257
0.00702206
0.0069216
0.00685
0.00679923
0.00676061
0.00673956
0.00672975
0.00671504
0.0067137
0.0067147
0.00671601
0.00671614
0.00671196
0.00670418
0.00669592
0.00669324
0.00670046
0.0067153
0.00672902
0.00671702
0.00670629
0.00670338
0.00833991
0.00881416
0.00940824
0.0101358
0.0112372
0.0130652
0.0150567
0.0167927
0.018118
0.0190367
0.0195855
0.0197801
0.0196091
0.0190599
0.0182216
0.0172254
0.0161222
0.0149545
0.0137454
0.0124873
0.011088
0.00957364
0.00805464
0.00652894
0.0050656
0.00369731
0.00249802
0.0015769
0.000986173
0.000662061
0.000518591
0.000438023
0.000357402
0.000187415
0.00836462
0.00793733
0.00758347
0.00732531
0.00713921
0.00700552
0.00690994
0.00684184
0.00679347
0.00675685
0.0067376
0.00672888
0.00671387
0.00671408
0.00671477
0.00671615
0.00671601
0.00671148
0.00670367
0.00669562
0.00669335
0.00670088
0.00671569
0.00672904
0.00671696
0.00670631
0.00670338
0.00885699
0.00947855
0.0102669
0.011502
0.0135203
0.0156353
0.0174193
0.0187622
0.0197135
0.0203425
0.0206857
0.0207405
0.0204768
0.0198646
0.018968
0.0179081
0.0167306
0.015477
0.0141753
0.0128254
0.0113415
0.00975996
0.00819278
0.00663121
0.00513791
0.00374903
0.00252691
0.00159074
0.000993808
0.000665177
0.000519506
0.000438484
0.000357794
0.000187863
0.00889515
0.00834172
0.00787713
0.00753879
0.00729321
0.0071163
0.00698928
0.00689852
0.00683383
0.0067877
0.0067533
0.00673575
0.00672764
0.00671311
0.00671438
0.00671484
0.0067163
0.00671584
0.006711
0.00670318
0.00669536
0.00669347
0.00670128
0.00671591
0.00672905
0.00671693
0.00670631
0.00670338
0.00954482
0.010395
0.0117555
0.0139307
0.0161199
0.0179025
0.0192151
0.0201478
0.0207992
0.0212262
0.0214391
0.0214134
0.0211055
0.0204738
0.0195609
0.0184762
0.0172586
0.0159473
0.0145735
0.0131454
0.0115843
0.00993907
0.00832533
0.00672921
0.00520681
0.00379172
0.00255154
0.00160604
0.00100218
0.000668641
0.000520564
0.000438893
0.000358295
0.000188441
0.00960513
0.00886719
0.00826078
0.00781685
0.00749499
0.00726171
0.00709382
0.00697336
0.00688732
0.00682598
0.00678198
0.00674999
0.006734
0.0067261
0.00671276
0.00671459
0.00671492
0.00671646
0.00671563
0.00671054
0.00670271
0.00669512
0.00669361
0.00670151
0.00671595
0.00672906
0.00671693
0.00670629
0.00670339
0.0105189
0.0119928
0.014293
0.0165168
0.0182628
0.0195123
0.0203903
0.0210199
0.0214762
0.021783
0.0219243
0.0218604
0.0215412
0.0209195
0.0200202
0.0189401
0.0177102
0.0163655
0.014939
0.0134459
0.0118159
0.0101108
0.00845235
0.00682302
0.00526386
0.0038281
0.00257865
0.00162297
0.00101134
0.000672531
0.000521699
0.00043946
0.000358736
0.000188951
0.0106314
0.00956985
0.0087581
0.00817976
0.0077576
0.00745199
0.00723079
0.00707176
0.00695776
0.00687637
0.0068183
0.00677636
0.00674699
0.00673247
0.00672425
0.00671273
0.00671471
0.00671503
0.00671659
0.00671539
0.0067101
0.00670228
0.00669492
0.00669369
0.00670154
0.00671597
0.00672906
0.00671696
0.00670626
0.00670339
0.0122107
0.0146085
0.0168372
0.0185235
0.0196897
0.0204898
0.0210664
0.0215103
0.0218583
0.0221041
0.0222128
0.022137
0.0218266
0.0212334
0.0203677
0.0193134
0.0180925
0.0167344
0.0152721
0.0137267
0.0120359
0.0102751
0.00857408
0.00690111
0.00531258
0.00386812
0.00260853
0.00164175
0.00102148
0.00067686
0.000523035
0.000439944
0.000359316
0.000189636
0.0105955
0.0124015
0.00941167
0.00865036
0.00809986
0.00769938
0.00740974
0.00720045
0.00705015
0.00694251
0.00686567
0.00681089
0.00677089
0.00674431
0.00673145
0.0067223
0.00671293
0.00671476
0.00671517
0.0067167
0.00671513
0.00670968
0.00670187
0.00669481
0.00669369
0.00670157
0.00671597
0.00672905
0.00671702
0.00670624
0.00670339
0.014881
0.0170937
0.0187063
0.0197784
0.0204874
0.0209907
0.0213919
0.02174
0.0220392
0.0222611
0.02236
0.0222875
0.0219975
0.0214436
0.020624
0.01961
0.0184138
0.0170582
0.0155747
0.0139884
0.0122448
0.0104326
0.00867566
0.006968
0.00536627
0.00391219
0.00264152
0.0016626
0.00103268
0.000681736
0.000524455
0.000440644
0.00035983
0.000190213
0.0103552
0.0123648
0.0151054
0.00926006
0.00854446
0.00802115
0.00764217
0.00736825
0.00717073
0.00702902
0.00692761
0.00685526
0.00680384
0.00676585
0.00674195
0.00673066
0.00672041
0.00671326
0.00671475
0.00671534
0.00671677
0.00671486
0.00670927
0.00670165
0.00669477
0.0066937
0.00670157
0.00671595
0.00672904
0.00671717
0.00670623
0.00670339
0.0172982
0.0188306
0.0198041
0.0204155
0.0208336
0.0211712
0.0214881
0.0217999
0.0220866
0.0223054
0.0224064
0.0223452
0.022082
0.0215734
0.0208073
0.0198428
0.0186826
0.017342
0.0158493
0.0142324
0.0124433
0.010564
0.00876271
0.00704183
0.0054255
0.00396083
0.00267801
0.00168581
0.00104507
0.000687175
0.000526143
0.000441226
0.000360517
0.000191027
0.0101192
0.0120237
0.0150543
0.0174506
0.00911552
0.00843974
0.00794368
0.00758596
0.0073276
0.00714167
0.0070084
0.00691311
0.00684524
0.00679724
0.00676123
0.00673988
0.00673
0.00671867
0.00671367
0.00671471
0.00671554
0.00671681
0.00671458
0.00670905
0.0067016
0.00669476
0.0066937
0.00670154
0.00671591
0.00672902
0.00671742
0.00670622
0.00670339
0.0189119
0.0197871
0.0202993
0.0206259
0.0208863
0.0211487
0.0214401
0.0217514
0.0220456
0.0222715
0.0223804
0.0223347
0.0221019
0.0216417
0.0209329
0.0200237
0.0189072
0.0175909
0.016099
0.0144602
0.0126074
0.0106762
0.00885864
0.00712339
0.00549092
0.00401451
0.00271844
0.0017117
0.00105883
0.000693324
0.000527985
0.000442105
0.000361145
0.000191683
0.00989726
0.011654
0.0147278
0.0173609
0.0189532
0.00897547
0.00833612
0.00786759
0.00753085
0.00728786
0.00711335
0.00698834
0.00689913
0.00683585
0.00679112
0.00675707
0.00673804
0.00672941
0.00671714
0.0067141
0.00671464
0.00671575
0.00671679
0.00671441
0.00670901
0.00670158
0.00669476
0.00669369
0.0067015
0.00671569
0.00672898
0.00671769
0.0067062
0.0067034
0.0197425
0.0201575
0.0203903
0.0205654
0.0207569
0.0210016
0.0213031
0.0216338
0.0219449
0.0221819
0.0223012
0.0222736
0.0220736
0.021663
0.0210134
0.0201626
0.019095
0.01781
0.0163266
0.014645
0.0127464
0.0107992
0.00896432
0.00721354
0.00556353
0.00407379
0.00276334
0.00174064
0.00107418
0.000700219
0.000530206
0.000442822
0.000361975
0.000192654
0.00968856
0.0112877
0.0143183
0.0171413
0.0188136
0.0196716
0.00883825
0.00823384
0.00779305
0.00747695
0.00724915
0.00708582
0.00696904
0.00688606
0.00682723
0.00678546
0.00675342
0.00673638
0.0067288
0.00671592
0.00671451
0.00671455
0.00671591
0.00671679
0.00671438
0.00670898
0.00670158
0.00669477
0.00669369
0.00670128
0.00671529
0.00672893
0.006718
0.00670617
0.0067034
0.0200032
0.0201435
0.020229
0.0203384
0.0205165
0.0207788
0.0211109
0.0214708
0.0218017
0.0220507
0.022182
0.0221749
0.0220093
0.0216491
0.0210589
0.0202679
0.0192523
0.0180035
0.0165067
0.0147994
0.0128971
0.0109338
0.00908077
0.00731321
0.00564452
0.00413947
0.00281333
0.0017731
0.00109138
0.000708049
0.000532546
0.000443953
0.000362787
0.000193414
0.00949021
0.0109371
0.013857
0.016836
0.0186857
0.0194766
0.019833
0.00870339
0.00813326
0.00772025
0.00742442
0.00721157
0.00705934
0.006951
0.00687408
0.00681931
0.00678017
0.00675025
0.00673488
0.00672794
0.00671499
0.00671489
0.00671439
0.00671607
0.00671682
0.00671435
0.00670898
0.0067016
0.00669481
0.00669361
0.00670087
0.00671487
0.00672886
0.00671834
0.00670614
0.00670341
0.0198966
0.0198924
0.0199126
0.0200094
0.0202086
0.0205099
0.0208837
0.0212759
0.0216261
0.0218869
0.0220319
0.0220478
0.0219184
0.0216086
0.0210776
0.0203466
0.0193844
0.0181514
0.0166549
0.0149642
0.01306
0.011081
0.00920912
0.0074235
0.00573501
0.00421249
0.00286914
0.00180961
0.00111074
0.000716912
0.000535497
0.000444864
0.000363791
0.000194579
0.00930016
0.010606
0.0133676
0.0164758
0.0184838
0.0193968
0.0195809
0.0196396
0.00857098
0.00803474
0.00764941
0.00737341
0.00717548
0.00703464
0.0069345
0.0068631
0.00681205
0.00677522
0.00674747
0.00673354
0.0067269
0.0067143
0.00671511
0.00671425
0.00671619
0.00671681
0.00671435
0.00670901
0.00670165
0.00669492
0.00669347
0.00670045
0.00671442
0.00672877
0.00671871
0.00670611
0.00670342
0.0195652
0.0194937
0.019499
0.0196166
0.0198594
0.0202129
0.0206327
0.0210559
0.0214233
0.0216962
0.0218576
0.0218994
0.0218078
0.0215483
0.0210754
0.0204037
0.0194797
0.0182712
0.0168101
0.0151391
0.0132356
0.0112418
0.00935066
0.00754576
0.00583634
0.00429396
0.00293166
0.00185083
0.00113265
0.000726974
0.000538587
0.000446374
0.000364896
0.000195713
0.00911758
0.0102951
0.0128625
0.0160695
0.0182378
0.0192558
0.0195101
0.0193303
0.01923
0.00844119
0.00793875
0.00758074
0.00732446
0.00714188
0.00701207
0.0069194
0.00685305
0.00680537
0.00677064
0.00674505
0.00673235
0.00672567
0.00671363
0.00671538
0.0067142
0.00671622
0.00671681
0.00671438
0.00670905
0.00670188
0.00669513
0.00669335
0.00670002
0.00671394
0.00672866
0.0067191
0.00670608
0.00670342
0.0190908
0.019
0.0190223
0.0191836
0.0194857
0.0198979
0.0203629
0.0208131
0.0211956
0.0214823
0.0216638
0.021735
0.0216826
0.0214732
0.0210572
0.020437
0.019555
0.0183939
0.0169717
0.015324
0.0134245
0.0114173
0.00950684
0.00768156
0.00595002
0.00438524
0.00300197
0.00189755
0.00115759
0.00073855
0.000542557
0.00044757
0.000366348
0.000197545
0.00894273
0.0100024
0.0123494
0.0156188
0.017959
0.0190864
0.0193872
0.0192422
0.0188635
0.0186878
0.00831416
0.00784576
0.00751493
0.0072789
0.00711123
0.00699146
0.00690559
0.00684385
0.00679924
0.00676636
0.00674295
0.0067315
0.00672411
0.00671336
0.00671566
0.00671413
0.00671622
0.00671682
0.00671441
0.00670928
0.00670229
0.00669536
0.00669323
0.00669956
0.00671343
0.00672851
0.00671952
0.00670604
0.00670342
0.0185216
0.0184412
0.0185035
0.0187272
0.0190973
0.0195693
0.0200742
0.0205469
0.0209441
0.0212483
0.0214547
0.0215585
0.0215467
0.021387
0.0210292
0.0204615
0.0196298
0.0185187
0.017139
0.0155187
0.013627
0.0116086
0.00967921
0.00783264
0.00607784
0.00448794
0.00308138