/*--------------------------------*- C++ -*----------------------------------*\
  =========                 |
  \\      /  F ield         | OpenFOAM: The Open Source CFD Toolbox
   \\    /   O peration     | Website:  https://openfoam.org
    \\  /    A nd           | Version:  8
     \\/     M anipulation  |
\*---------------------------------------------------------------------------*/
FoamFile
{
    version     2.0;
    format      ascii;
    class       surfaceScalarField;
    location    "0.05";
    object      phi;
}
// * * * * * * * * * * * * * * * * * * * * * * * * * * * * * * * * * * * * * //

dimensions      [1 0 -1 0 0 0 0];

internalField   nonuniform List<scalar> 
31053
(
1.26254e-06
1.46564e-05
1.64799e-06
1.79132e-05
7.16931e-07
1.39768e-05
1.77969e-06
2.08561e-05
1.10473e-06
1.75674e-05
5.15298e-07
1.35252e-05
1.806e-06
2.4055e-05
1.29831e-06
2.07101e-05
9.00966e-07
1.72537e-05
3.93659e-07
1.32034e-05
1.77775e-06
2.7679e-05
1.38342e-06
2.40242e-05
1.13829e-06
2.05547e-05
7.61857e-07
1.69659e-05
3.08689e-07
1.29701e-05
1.71617e-06
3.17814e-05
1.40934e-06
2.77155e-05
1.26701e-06
2.39889e-05
1.0201e-06
2.0387e-05
6.36208e-07
1.67264e-05
2.44114e-07
1.27877e-05
1.63052e-06
3.65171e-05
1.39894e-06
3.18635e-05
1.33277e-06
2.77566e-05
1.17001e-06
2.39418e-05
8.89477e-07
2.02358e-05
5.30552e-07
1.65118e-05
1.87737e-07
1.26537e-05
1.52586e-06
4.1914e-05
1.36411e-06
3.66344e-05
1.36048e-06
3.19581e-05
1.24856e-06
2.77955e-05
1.04572e-06
2.39034e-05
7.72214e-07
2.00777e-05
4.29826e-07
1.63329e-05
1.44254e-07
1.25559e-05
1.40577e-06
4.80926e-05
1.3112e-06
4.20618e-05
1.36273e-06
3.67726e-05
1.28456e-06
3.20562e-05
1.12907e-06
2.78479e-05
9.31067e-07
2.38418e-05
6.53427e-07
1.99279e-05
3.40415e-07
1.61898e-05
1.13629e-07
1.24902e-05
1.27319e-06
5.51962e-05
1.24431e-06
4.82686e-05
1.3451e-06
4.22404e-05
1.29298e-06
3.69178e-05
1.16781e-06
3.21733e-05
1.01524e-06
2.78764e-05
8.12408e-07
2.37679e-05
5.34663e-07
1.97944e-05
2.73054e-07
1.60846e-05
8.45417e-08
1.24523e-05
1.1313e-06
6.33675e-05
1.16631e-06
5.53997e-05
1.31009e-06
4.84883e-05
1.28106e-06
4.24282e-05
1.17871e-06
3.70859e-05
1.05053e-06
3.2268e-05
8.98489e-07
2.78884e-05
6.83614e-07
2.36891e-05
4.39814e-07
1.96888e-05
2.07128e-07
1.60152e-05
6.06663e-08
1.2439e-05
9.83404e-07
7.27014e-05
1.07973e-06
6.35986e-05
1.25864e-06
5.56631e-05
1.25238e-06
4.87187e-05
1.16965e-06
4.26424e-05
1.05568e-06
3.72305e-05
9.31435e-07
3.23478e-05
7.67411e-07
2.78869e-05
5.76081e-07
2.36217e-05
3.40293e-07
1.96163e-05
1.51527e-07
1.59774e-05
3.42455e-08
1.24491e-05
8.32984e-07
8.34144e-05
9.8696e-07
7.29602e-05
1.1915e-06
6.39091e-05
1.20843e-06
5.59382e-05
1.1443e-06
4.8979e-05
1.0402e-06
4.283e-05
9.30888e-07
3.73607e-05
7.96744e-07
3.24139e-05
6.53802e-07
2.78861e-05
4.53059e-07
2.35779e-05
2.52526e-07
1.95748e-05
9.41466e-08
1.59692e-05
8.74741e-09
1.24801e-05
6.84124e-07
9.5727e-05
8.90517e-07
8.37016e-05
1.1097e-06
7.33213e-05
1.15009e-06
6.42327e-05
1.10395e-06
5.62478e-05
1.00852e-06
4.92084e-05
9.07826e-07
4.3002e-05
7.89646e-07
3.74784e-05
6.76205e-07
3.24783e-05
5.1682e-07
2.79009e-05
3.38794e-07
2.35587e-05
1.64139e-07
1.95645e-05
3.63666e-08
1.5988e-05
-1.45315e-08
1.25311e-05
5.65669e-07
9.07685e-05
7.92173e-07
9.60445e-05
1.01499e-06
8.41169e-05
1.07799e-06
7.36976e-05
1.04885e-06
6.45964e-05
9.623e-07
5.65211e-05
8.6743e-07
4.94199e-05
7.57605e-07
4.31616e-05
6.58948e-07
3.75947e-05
5.2778e-07
3.25569e-05
3.8272e-07
2.79331e-05
2.23527e-07
2.35677e-05
7.1904e-08
1.95831e-05
-1.66516e-08
1.60322e-05
-3.81575e-08
1.26025e-05
4.66214e-07
9.07494e-05
7.07354e-07
9.10612e-05
9.0949e-07
9.6518e-05
9.93091e-07
8.45509e-05
9.78867e-07
7.41213e-05
9.01996e-07
6.49176e-05
8.11601e-07
5.67734e-05
7.06393e-07
4.96181e-05
6.13707e-07
4.33201e-05
4.97992e-07
3.77267e-05
3.76279e-07
3.26502e-05
2.45481e-07
2.79884e-05
9.8735e-08
2.3604e-05
-1.3463e-08
1.96288e-05
-6.97702e-08
1.61026e-05
-6.14703e-08
1.26941e-05
3.83126e-07
9.0733e-05
6.30739e-07
9.1034e-05
8.15884e-07
9.1504e-05
8.96654e-07
9.70151e-05
8.9414e-07
8.50411e-05
8.27415e-07
7.44951e-05
7.40822e-07
6.5214e-05
6.3823e-07
5.70108e-05
5.46681e-07
4.9815e-05
4.38199e-07
4.34968e-05
3.28422e-07
3.78742e-05
2.18568e-07
3.27642e-05
9.36955e-08
2.80677e-05
-1.79618e-08
2.36654e-05
-9.93802e-08
1.97034e-05
-1.2264e-07
1.61987e-05
-8.32562e-08
1.28064e-05
3.14067e-07
9.07213e-05
5.62022e-07
9.10098e-05
7.28311e-07
9.14707e-05
8.07941e-07
9.19727e-05
7.95619e-07
9.75787e-05
7.38493e-07
8.54735e-05
6.54823e-07
7.48402e-05
5.53717e-07
6.54935e-05
4.60371e-07
5.72462e-05
3.54347e-07
5.00328e-05
2.48784e-07
4.36907e-05
1.4897e-07
3.8043e-05
4.28794e-08
3.29014e-05
-5.16496e-08
2.81679e-05
-1.37324e-07
2.37554e-05
-1.8547e-07
1.98072e-05
-1.72219e-07
1.63207e-05
-1.04677e-07
1.29391e-05
2.56655e-07
9.07073e-05
5.00581e-07
9.09908e-05
6.4645e-07
9.14408e-05
7.23348e-07
9.19354e-05
7.04705e-07
9.25046e-05
6.35706e-07
9.80757e-05
5.53379e-07
8.58723e-05
4.52644e-07
7.51654e-05
3.5558e-07
6.57697e-05
2.48774e-07
5.75053e-05
1.42873e-07
5.02697e-05
4.53553e-08
4.39073e-05
-5.10651e-08
3.82366e-05
-1.29904e-07
3.3057e-05
-2.02296e-07
2.82931e-05
-2.57814e-07
2.38756e-05
-2.68015e-07
1.99404e-05
-2.20519e-07
1.64684e-05
-1.25854e-07
1.30916e-05
2.08242e-07
9.06982e-05
4.46299e-07
9.09697e-05
5.6983e-07
9.14166e-05
6.4374e-07
9.19006e-05
6.17727e-07
9.24632e-05
5.40368e-07
9.29737e-05
4.36838e-07
9.85336e-05
3.34804e-07
8.62478e-05
2.32305e-07
7.54857e-05
1.22146e-07
6.60725e-05
1.27523e-08
5.77857e-05
-8.71597e-08
5.05315e-05
-1.81104e-07
4.41517e-05
-2.52683e-07
3.84491e-05
-3.10288e-07
3.32347e-05
-3.55859e-07
2.84469e-05
-3.76214e-07
2.40268e-05
-3.47343e-07
2.01031e-05
-2.67935e-07
1.66409e-05
-1.45953e-07
1.32631e-05
1.66906e-07
9.06912e-05
3.99302e-07
9.09534e-05
4.98134e-07
9.13906e-05
5.69527e-07
9.1871e-05
5.35605e-07
9.24235e-05
4.4917e-07
9.29281e-05
3.29462e-07
9.34049e-05
2.00571e-07
9.89639e-05
9.05575e-08
8.66159e-05
-2.55797e-08
7.58355e-05
-1.41115e-07
6.63989e-05
-2.46798e-07
5.80932e-05
-3.4291e-07
5.08243e-05
-4.14209e-07
4.44167e-05
-4.63956e-07
3.86834e-05
-4.9581e-07
3.34389e-05
-5.09719e-07
2.86308e-05
-4.8971e-07
2.42096e-05
-4.25242e-07
2.0295e-05
-3.1323e-07
1.68372e-05
-1.64539e-07
1.34526e-05
1.34793e-07
8.28199e-05
3.59461e-07
9.09392e-05
4.30903e-07
9.13699e-05
5.01094e-07
9.18393e-05
4.58756e-07
9.23886e-05
3.63492e-07
9.28828e-05
2.27188e-07
9.33541e-05
7.74079e-08
9.3809e-05
-6.89911e-08
9.93836e-05
-1.94323e-07
8.70166e-05
-3.18838e-07
7.6211e-05
-4.33334e-07
6.67549e-05
-5.35206e-07
5.84355e-05
-6.10722e-07
5.11398e-05
-6.59168e-07
4.47049e-05
-6.82518e-07
3.89441e-05
-6.83922e-07
3.36719e-05
-6.59352e-07
2.8846e-05
-6.01519e-07
2.44249e-05
-4.99986e-07
2.05148e-05
-3.5514e-07
1.70559e-05
-1.82121e-07
1.36585e-05
1.10225e-07
7.44386e-05
3.27627e-07
8.30418e-05
3.6783e-07
9.13516e-05
4.38675e-07
9.18125e-05
3.87436e-07
9.23514e-05
2.8409e-07
9.28416e-05
1.31515e-07
9.33023e-05
-3.94838e-08
9.37519e-05
-2.14087e-07
9.42011e-05
-3.8312e-07
9.98386e-05
-5.20282e-07
8.74451e-05
-6.46973e-07
7.66188e-05
-7.58166e-07
6.71497e-05
-8.41406e-07
5.88029e-05
-8.9304e-07
5.14808e-05
-9.13642e-07
4.50211e-05
-9.05667e-07
3.9234e-05
-8.69839e-07
3.39344e-05
-8.06224e-07
2.90946e-05
-7.09104e-07
2.46716e-05
-5.69475e-07
2.07606e-05
-3.94218e-07
1.72952e-05
-1.97957e-07
1.38788e-05
9.1359e-08
6.69063e-05
3.0181e-07
7.46354e-05
3.14283e-07
8.34143e-05
3.82463e-07
9.17881e-05
3.21635e-07
9.2319e-05
2.11512e-07
9.27975e-05
4.33564e-08
9.32535e-05
-1.48314e-07
9.36921e-05
-3.50784e-07
9.41358e-05
-5.53859e-07
9.46244e-05
-7.44184e-07
0.000100323
-8.87534e-07
8.79082e-05
-1.01223e-06
7.70696e-05
-1.10684e-06
6.75721e-05
-1.16539e-06
5.91984e-05
-1.1874e-06
5.18522e-05
-1.17455e-06
4.53685e-05
-1.12858e-06
3.95532e-05
-1.05182e-06
3.42295e-05
-9.48757e-07
2.93767e-05
-8.09853e-07
2.49475e-05
-6.3365e-07
2.10308e-05
-4.29744e-07
1.75526e-05
-2.11889e-07
1.41115e-05
7.7024e-08
6.01367e-05
2.80129e-07
6.70816e-05
2.69701e-07
7.49667e-05
3.36065e-07
8.38081e-05
2.61396e-07
9.2289e-05
1.46037e-07
9.27579e-05
-3.66254e-08
9.32012e-05
-2.47851e-07
9.36339e-05
-4.77104e-07
9.40657e-05
-7.13908e-07
9.45485e-05
-9.45624e-07
9.5073e-05
-1.15343e-06
0.000100844
-1.29726e-06
8.84184e-05
-1.4077e-06
7.75505e-05
-1.47732e-06
6.80256e-05
-1.50439e-06
5.96276e-05
-1.49011e-06
5.22582e-05
-1.43682e-06
4.5747e-05
-1.34715e-06
3.99046e-05
-1.23015e-06
3.45588e-05
-1.0829e-06
2.96904e-05
-9.02699e-07
2.52508e-05
-6.92168e-07
2.13225e-05
-4.60924e-07
1.78257e-05
-2.23712e-07
1.43547e-05
6.62924e-08
5.40509e-05
2.61268e-07
6.02937e-05
2.32606e-07
6.73765e-05
2.98119e-07
7.5317e-05
2.11461e-07
8.42604e-05
8.79258e-08
9.27205e-05
-1.08087e-07
9.31531e-05
-3.37152e-07
9.35713e-05
-5.9156e-07
9.39958e-05
-8.61009e-07
9.44655e-05
-1.13356e-06
9.49835e-05
-1.39158e-06
9.55532e-05
-1.61137e-06
0.000101416
-1.74394e-06
8.89611e-05
-1.82987e-06
7.80656e-05
-1.86634e-06
6.85165e-05
-1.85393e-06
6.00953e-05
-1.79577e-06
5.26985e-05
-1.69528e-06
4.61589e-05
-1.56233e-06
4.02911e-05
-1.3988e-06
3.49208e-05
-1.20707e-06
3.00333e-05
-9.86899e-07
2.55788e-05
-7.43555e-07
2.16329e-05
-4.87493e-07
1.8112e-05
-2.33292e-07
1.4606e-05
5.85938e-08
4.85821e-05
2.44147e-07
5.41922e-05
2.01953e-07
6.05561e-05
2.66764e-07
6.76886e-05
1.70888e-07
7.57192e-05
4.11574e-08
8.46481e-05
-1.70722e-07
9.31069e-05
-4.15636e-07
9.35123e-05
-6.92941e-07
9.39203e-05
-9.93363e-07
9.43809e-05
-1.30542e-06
9.48845e-05
-1.61288e-06
9.54468e-05
-1.89201e-06
9.60782e-05
-2.11343e-06
0.000102023
-2.22316e-06
8.95411e-05
-2.27476e-06
7.8622e-05
-2.26856e-06
6.90506e-05
-2.20817e-06
6.06015e-05
-2.09851e-06
5.31748e-05
-1.94978e-06
4.66082e-05
-1.76689e-06
4.07117e-05
-1.55557e-06
3.53133e-05
-1.31956e-06
3.04031e-05
-1.06137e-06
2.59284e-05
-7.87521e-07
2.1959e-05
-5.0914e-07
1.84089e-05
-2.40672e-07
1.48635e-05
5.3391e-08
4.36658e-05
2.28077e-07
4.87098e-05
1.76842e-07
5.44256e-05
2.40603e-07
6.08347e-05
1.37962e-07
6.80466e-05
4.23318e-09
7.60626e-05
-2.20029e-07
8.49931e-05
-4.82844e-07
9.34548e-05
-7.80407e-07
9.38474e-05
-1.10948e-06
9.42892e-05
-1.45908e-06
9.47818e-05
-1.81443e-06
9.53281e-05
-2.15224e-06
9.59513e-05
-2.44303e-06
9.66322e-05
-2.65484e-06
0.000102669
-2.73008e-06
9.01663e-05
-2.73613e-06
7.92268e-05
-2.67758e-06
6.96282e-05
-2.56063e-06
6.11477e-05
-2.39645e-06
5.36922e-05
-2.19287e-06
4.70941e-05
-1.9577e-06
4.11641e-05
-1.69796e-06
3.57334e-05
-1.41896e-06
3.0797e-05
-1.12517e-06
2.62962e-05
-8.23478e-07
2.22977e-05
-5.25822e-07
1.87136e-05
-2.45914e-07
1.51251e-05
5.031e-08
3.92496e-05
2.12537e-07
4.37816e-05
1.56613e-07
4.89173e-05
2.18424e-07
5.46747e-05
1.11428e-07
6.11534e-05
-2.49325e-08
6.83512e-05
-2.57772e-07
7.63661e-05
-5.34175e-07
8.53007e-05
-8.53279e-07
9.37754e-05
-1.20826e-06
9.41991e-05
-1.5927e-06
9.46701e-05
-1.99377e-06
9.52032e-05
-2.38875e-06
9.58088e-05
-2.74833e-06
9.64808e-05
-3.03972e-06
9.72202e-05
-3.22984e-06
0.000103363
-3.25748e-06
9.08452e-05
-3.20686e-06
7.98805e-05
-3.08617e-06
7.02506e-05
-2.90751e-06
6.17398e-05
-2.68215e-06
5.42499e-05
-2.42036e-06
4.76142e-05
-2.13161e-06
4.16454e-05
-1.82406e-06
3.6179e-05
-1.50473e-06
3.12112e-05
-1.17754e-06
2.66785e-05
-8.51292e-07
2.26459e-05
-5.37869e-07
1.90237e-05
-2.48773e-07
1.53885e-05
4.89444e-08
3.52763e-05
1.973e-07
3.9355e-05
1.40601e-07
4.3966e-05
1.99367e-07
4.91403e-05
9.01693e-08
5.49586e-05
-4.79356e-08
6.1424e-05
-2.8639e-07
6.86186e-05
-5.72017e-07
7.66343e-05
-9.06742e-07
8.55805e-05
-1.28885e-06
9.41091e-05
-1.70491e-06
9.45586e-05
-2.14871e-06
9.50672e-05
-2.59863e-06
9.56571e-05
-3.02557e-06
9.63101e-05
-3.3963e-06
9.70404e-05
-3.67571e-06
9.78512e-05
-3.83028e-06
0.000104117
-3.7975e-06
9.15789e-05
-3.67888e-06
8.05848e-05
-3.48871e-06
7.09249e-05
-3.24125e-06
6.23773e-05
-2.95038e-06
5.48457e-05
-2.62838e-06
4.81655e-05
-2.28599e-06
4.2153e-05
-1.93271e-06
3.66467e-05
-1.57521e-06
3.16416e-05
-1.21821e-06
2.70719e-05
-8.71495e-07
2.30007e-05
-5.44862e-07
1.93368e-05
-2.56769e-07
1.56589e-05
4.89777e-08
3.17056e-05
1.82232e-07
3.53724e-05
1.28249e-07
3.95187e-05
1.82694e-07
4.41661e-05
7.33416e-08
4.93933e-05
-6.61512e-08
5.51993e-05
-3.07773e-07
6.16601e-05
-5.99359e-07
6.88529e-05
-9.43935e-07
7.6875e-05
-1.34607e-06
8.58688e-05
-1.79459e-06
9.4446e-05
-2.27754e-06
9.49296e-05
-2.77933e-06
9.54919e-05
-3.27138e-06
9.61269e-05
-3.72029e-06
9.68371e-05
-4.0893e-06
9.76391e-05
-4.34218e-06
9.85346e-05
-4.4475e-06
0.000104931
-4.34111e-06
9.23696e-05
-4.14488e-06
8.13478e-05
-3.87721e-06
7.16508e-05
-3.55563e-06
6.3058e-05
-3.19641e-06
5.54762e-05
-2.81352e-06
4.8745e-05
-2.4191e-06
4.26842e-05
-2.02281e-06
3.7132e-05
-1.63015e-06
3.20844e-05
-1.24785e-06
2.7473e-05
-8.83752e-07
2.33594e-05
-5.53713e-07
1.96496e-05
-3.14304e-07
1.59888e-05
5.00694e-08
2.84993e-05
1.67368e-07
3.17933e-05
1.18974e-07
3.55178e-05
1.67914e-07
3.96984e-05
6.01447e-08
4.43916e-05
-8.05939e-08
4.96078e-05
-3.2352e-07
5.5408e-05
-6.18542e-07
6.18653e-05
-9.68568e-07
6.90605e-05
-1.38387e-06
7.71206e-05
-1.85617e-06
8.61562e-05
-2.37886e-06
9.47897e-05
-2.92875e-06
9.5323e-05
-3.48272e-06
9.59271e-05
-4.00776e-06
9.66172e-05
-4.4658e-06
9.73986e-05
-4.81804e-06
9.82865e-05
-5.02982e-06
9.9273e-05
-5.07142e-06
0.00010581
-4.87937e-06
9.3227e-05
-4.59606e-06
8.21699e-05
-4.24442e-06
7.24261e-05
-3.84488e-06
6.37781e-05
-3.41608e-06
5.61383e-05
-2.97361e-06
4.93502e-05
-2.53003e-06
4.32349e-05
-2.09304e-06
3.76306e-05
-1.67032e-06
3.25358e-05
-1.26629e-06
2.78786e-05
-8.93425e-07
2.37175e-05
-6.81685e-07
2.00351e-05
-2.98354e-07
1.63014e-05
5.19537e-08
2.56168e-05
1.52767e-07
2.85792e-05
1.12273e-07
3.19223e-05
1.54618e-07
3.56794e-05
4.99667e-08
3.98996e-05
-9.21398e-08
4.45829e-05
-3.34827e-07
4.97925e-05
-6.31489e-07
5.55881e-05
-9.83581e-07
6.20448e-05
-1.4068e-06
6.92703e-05
-1.8946e-06
7.73621e-05
-2.44649e-06
8.64453e-05
-3.04516e-06
9.51501e-05
-3.65702e-06
9.57211e-05
-4.25515e-06
9.63772e-05
-4.80064e-06
9.71371e-05
-5.25247e-06
9.80045e-05
-5.57277e-06
9.89855e-05
-5.72766e-06
0.00010007
-5.69164e-06
0.000106763
-5.40242e-06
9.41519e-05
-5.02414e-06
8.30489e-05
-4.58349e-06
7.3247e-05
-4.10409e-06
6.45343e-05
-3.60661e-06
5.68289e-05
-3.10717e-06
4.99771e-05
-2.61676e-06
4.37998e-05
-2.14452e-06
3.81384e-05
-1.69567e-06
3.29921e-05
-1.27751e-06
2.82843e-05
-1.10133e-06
2.41583e-05
-6.60109e-07
2.04134e-05
-2.89517e-07
1.66041e-05
5.4361e-08
2.30225e-05
1.38567e-07
2.56897e-05
1.07648e-07
2.86939e-05
1.42556e-07
3.20677e-05
4.22197e-08
3.58589e-05
-1.01406e-07
4.00705e-05
-3.42719e-07
4.47467e-05
-6.39645e-07
4.99509e-05
-9.91388e-07
5.57437e-05
-1.41844e-06
6.22244e-05
-1.91537e-06
6.94736e-05
-2.48649e-06
7.76012e-05
-3.1215e-06
8.67444e-05
-3.79211e-06
9.55088e-05
-4.45937e-06
9.61279e-05
-5.08962e-06
9.68511e-05
-5.64026e-06
9.76963e-05
-6.07026e-06
9.8658e-05
-6.34177e-06
9.97404e-05
-6.42416e-06
0.000100937
-6.29698e-06
0.000107794
-5.90087e-06
9.51426e-05
-5.42104e-06
8.39808e-05
-4.88861e-06
7.41097e-05
-4.32974e-06
6.53233e-05
-3.7659e-06
5.75444e-05
-3.2123e-06
5.06198e-05
-2.68044e-06
4.43745e-05
-2.17729e-06
3.86514e-05
-1.70915e-06
3.3449e-05
-1.57585e-06
2.87835e-05
-1.07468e-06
2.45921e-05
-6.40521e-07
2.07797e-05
-2.79569e-07
1.68958e-05
2.06953e-05
5.67531e-08
1.24879e-07
2.30889e-05
1.04689e-07
2.57916e-05
1.31521e-07
2.88247e-05
3.64513e-08
3.2228e-05
-1.08928e-07
3.60117e-05
-3.47949e-07
4.02159e-05
-6.44198e-07
4.48862e-05
-9.93832e-07
5.00863e-05
-1.4217e-06
5.5898e-05
-1.92286e-06
6.2396e-05
-2.50548e-06
6.96716e-05
-3.16504e-06
7.78451e-05
-3.87977e-06
8.70362e-05
-4.61775e-06
9.58697e-05
-5.329e-06
9.65522e-05
-5.97643e-06
9.73587e-05
-6.51638e-06
9.82983e-05
-6.90699e-06
9.93642e-05
-7.11259e-06
0.000100563
-7.10702e-06
0.000101876
-6.87688e-06
0.000108901
-6.36529e-06
9.61952e-05
-5.77993e-06
8.49619e-05
-5.15539e-06
7.50108e-05
-4.51904e-06
6.61413e-05
-3.89214e-06
5.82783e-05
-3.28966e-06
5.12737e-05
-2.72122e-06
4.49548e-05
-2.19355e-06
3.91651e-05
-2.10925e-06
3.40112e-05
-1.54355e-06
2.92749e-05
-1.04429e-06
2.50136e-05
-6.17946e-07
2.11321e-05
-2.68015e-07
1.7175e-05
2.0755e-05
1.12462e-07
3.30875e-05
5.72338e-08
1.03005e-07
2.31795e-05
1.21403e-07
2.59094e-05
3.2227e-08
2.89679e-05
-1.15073e-07
3.23647e-05
-3.51176e-07
3.61409e-05
-6.46022e-07
4.0339e-05
-9.92413e-07
4.50043e-05
-1.41882e-06
5.02192e-05
-1.9206e-06
5.60433e-05
-2.50876e-06
6.25603e-05
-3.18363e-06
6.98702e-05
-3.9286e-06
7.80773e-05
-4.72046e-06
8.73238e-05
-5.51548e-06
9.6241e-05
-6.25653e-06
9.70036e-05
-6.90537e-06
9.79035e-05
-7.41662e-06
9.8949e-05
-7.74949e-06
0.000100136
-7.87195e-06
0.000101458
-7.76461e-06
0.000102888
-7.4204e-06
0.00011008
-6.78764e-06
9.73058e-05
-6.09542e-06
8.59885e-05
-5.38029e-06
7.59462e-05
-4.67007e-06
6.69811e-05
-3.98542e-06
5.90252e-05
-3.33949e-06
5.19338e-05
-2.74079e-06
4.55361e-05
-2.7078e-06
3.97973e-05
-2.07048e-06
3.45645e-05
-1.5016e-06
2.97529e-05
-1.00802e-06
2.542e-05
-5.91993e-07
2.1469e-05
-2.55288e-07
1.74408e-05
2.08361e-05
1.01843e-07
3.31772e-05
9.80353e-08
3.39681e-05
5.70154e-08
1.12103e-07
2.32856e-05
2.92235e-08
2.60374e-05
-1.2016e-07
2.90905e-05
-3.52876e-07
3.24797e-05
-6.45847e-07
3.62497e-05
-9.88245e-07
4.04422e-05
-1.41157e-06
4.51191e-05
-1.91132e-06
5.03425e-05
-2.50059e-06
5.61799e-05
-3.18359e-06
6.27222e-05
-3.94788e-06
7.00544e-05
-4.77747e-06
7.83004e-05
-5.63717e-06
8.76142e-05
-6.47648e-06
9.66323e-05
-7.2319e-06
9.74858e-05
-7.86406e-06
9.84921e-05
-8.32737e-06
9.96618e-05
-8.5837e-06
0.000100977
-8.60728e-06
0.000102425
-8.3847e-06
0.00010397
-7.91816e-06
0.000111329
-7.1614e-06
9.84712e-05
-6.36308e-06
8.70561e-05
-5.56106e-06
7.6908e-05
-4.78246e-06
6.78367e-05
-4.04605e-06
5.97799e-05
-3.36324e-06
5.25955e-05
-3.38402e-06
4.62513e-05
-2.6616e-06
4.04192e-05
-2.01601e-06
3.51031e-05
-1.45038e-06
3.02142e-05
-9.6612e-07
2.58091e-05
-5.63713e-07
2.17894e-05
-2.41801e-07
1.76923e-05
2.09314e-05
1.03825e-07
3.33106e-05
9.57106e-08
3.40574e-05
8.55759e-08
3.4872e-05
5.65827e-08
2.71474e-08
2.34001e-05
-1.24393e-07
2.61473e-05
-3.53473e-07
2.91928e-05
-6.44204e-07
3.2576e-05
-9.82231e-07
3.63402e-05
-1.40131e-06
4.05417e-05
-1.89719e-06
4.52242e-05
-2.4843e-06
5.04565e-05
-3.17002e-06
5.63119e-05
-3.94511e-06
6.28675e-05
-4.79961e-06
7.02257e-05
-5.70544e-06
7.85204e-05
-6.62176e-06
8.79159e-05
-7.49104e-06
9.70468e-05
-8.24304e-06
9.8006e-05
-8.8387e-06
9.91384e-05
-9.23398e-06
0.000100442
-9.39622e-06
0.00010189
-9.30511e-06
0.000103463
-8.95659e-06
0.000105121
-8.36227e-06
0.000112644
-7.48108e-06
9.96864e-05
-6.58012e-06
8.81562e-05
-5.69689e-06
7.78895e-05
-4.85644e-06
6.87023e-05
-4.07538e-06
6.05371e-05
-4.1536e-06
5.34101e-05
-3.32925e-06
4.69547e-05
-2.59339e-06
4.10247e-05
-1.94835e-06
3.56232e-05
-1.39096e-06
3.06564e-05
-9.20342e-07
2.61795e-05
-5.33936e-07
2.20927e-05
-2.27945e-07
1.79292e-05
2.1034e-05
2.56604e-08
3.34596e-05
9.34461e-08
3.41938e-05
8.90038e-08
3.49618e-05
7.40825e-08
3.57973e-05
5.5905e-08
-1.2796e-07
2.34986e-05
-3.53261e-07
2.62386e-05
-6.41544e-07
2.92782e-05
-9.75022e-07
3.26555e-05
-1.38907e-06
3.64266e-05
-1.87982e-06
4.06316e-05
-2.4625e-06
4.53195e-05
-3.14686e-06
5.05642e-05
-3.92633e-06
5.64262e-05
-4.79566e-06
6.29976e-05
-5.73275e-06
7.03893e-05
-6.70509e-06
7.87442e-05
-7.66497e-06
8.82316e-05
-8.54761e-06
9.74927e-05
-9.27621e-06
9.85786e-05
-9.81434e-06
9.98487e-05
-1.01224e-05
0.000101293
-1.01725e-05
0.000102876
-9.95352e-06
0.000104572
-9.4711e-06
0.000106338
-8.74601e-06
0.000114021
-7.74311e-06
0.000100942
-6.74528e-06
8.92813e-05
-5.78785e-06
7.88842e-05
-4.89336e-06
6.9572e-05
-5.03501e-06
6.14703e-05
-4.08933e-06
5.42114e-05
-3.24593e-06
4.76399e-05
-2.50755e-06
4.16097e-05
-1.86957e-06
3.61221e-05
-1.32577e-06
3.10778e-05
-8.72079e-07
2.65304e-05
-5.03404e-07
2.23785e-05
-2.14039e-07
1.81516e-05
2.11223e-05
-1.30885e-07
3.36223e-05
2.43978e-08
3.43445e-05
8.4047e-08
3.51007e-05
8.22729e-08
3.58876e-05
6.35711e-08
3.67488e-05
5.49302e-08
-3.52507e-07
2.358e-05
-6.38181e-07
2.63144e-05
-9.6714e-07
2.93482e-05
-1.37565e-06
3.27308e-05
-1.8605e-06
3.65037e-05
-2.43717e-06
4.07116e-05
-3.11722e-06
4.54076e-05
-3.89629e-06
5.06538e-05
-4.77273e-06
5.65237e-05
-5.72931e-06
6.31167e-05
-6.74066e-06
7.05511e-05
-7.76769e-06
7.89742e-05
-8.75602e-06
8.85691e-05
-9.63281e-06
9.79846e-05
-1.03164e-05
9.92108e-05
-1.07766e-05
0.000100627
-1.09773e-05
0.000102216
-1.08996e-05
0.000103935
-1.05421e-05
0.000105752
-9.92026e-06
0.000107618
-9.0647e-06
0.000115448
-7.94561e-06
0.00010223
-6.85832e-06
9.04241e-05
-5.83527e-06
7.98854e-05
-6.04897e-06
7.06454e-05
-4.96063e-06
6.2389e-05
-3.98951e-06
5.49927e-05
-3.13996e-06
4.83022e-05
-2.40735e-06
4.21711e-05
-1.78287e-06
3.65978e-05
-1.25689e-06
3.14774e-05
-8.22562e-07
2.68614e-05
-4.72766e-07
2.26467e-05
-2.00317e-07
1.83597e-05
2.11951e-05
-3.51397e-07
3.37564e-05
-1.2861e-07
3.45106e-05
2.33929e-08
3.52537e-05
7.50032e-08
3.60288e-05
7.5528e-08
3.68395e-05
5.40444e-08
3.7724e-05
5.36407e-08
-6.34389e-07
2.36474e-05
-9.58943e-07
2.63761e-05
-1.36166e-06
2.9414e-05
-1.84017e-06
3.27971e-05
-2.40984e-06
3.65711e-05
-3.08347e-06
4.07838e-05
-3.8587e-06
4.54776e-05
-4.73639e-06
5.07258e-05
-5.70339e-06
5.66079e-05
-6.74016e-06
6.32296e-05
-7.81514e-06
7.07128e-05
-8.88331e-06
7.92175e-05
-9.882e-06
8.8942e-05
-1.07319e-05
9.85304e-05
-1.13491e-05
9.99081e-05
-1.17093e-05
0.000101478
-1.17846e-05
0.000103213
-1.15657e-05
0.000105067
-1.10615e-05
0.000106999
-1.02983e-05
0.000108952
-9.31564e-06
0.000116919
-8.08788e-06
0.000103543
-6.92043e-06
9.15772e-05
-7.21888e-06
8.11235e-05
-5.96435e-06
7.17036e-05
-4.84292e-06
6.32859e-05
-3.86136e-06
5.57487e-05
-3.01595e-06
4.89383e-05
-2.29679e-06
4.27067e-05
-1.69109e-06
3.70491e-05
-1.18614e-06
3.18546e-05
-7.72827e-07
2.71724e-05
-4.42527e-07
2.28978e-05
-1.8696e-07
1.85539e-05
2.1255e-05
-6.30365e-07
3.38624e-05
-3.3943e-07
3.46472e-05
-1.25265e-07
3.54232e-05
2.27142e-08
3.61842e-05
6.65466e-08
3.69831e-05
6.87617e-08
3.78152e-05
4.55325e-08
3.87278e-05
5.20087e-08
-9.50723e-07
2.37019e-05
-1.34753e-06
2.64337e-05
-1.81954e-06
2.94713e-05
-2.38163e-06
3.28541e-05
-3.04744e-06
3.66303e-05
-3.8164e-06
4.08382e-05
-4.69104e-06
4.55295e-05
-5.66152e-06
5.07829e-05
-6.71311e-06
5.66828e-05
-7.82058e-06
6.33376e-05
-8.94715e-06
7.0881e-05
-1.00396e-05
7.94865e-05
-1.10287e-05
8.93579e-05
-1.18305e-05
9.91366e-05
-1.23578e-05
0.000100675
-1.25976e-05
0.000102404
-1.25315e-05
0.000104288
-1.21604e-05
0.000106272
-1.15049e-05
0.000108306
-1.06016e-05
0.000110333
-9.49745e-06
0.000118423
-8.17083e-06
0.000104871
-8.57023e-06
9.30068e-05
-7.12472e-06
8.23464e-05
-5.82752e-06
7.27381e-05
-4.69036e-06
6.41547e-05
-3.71087e-06
5.64753e-05
-2.87884e-06
4.95455e-05
-2.17955e-06
4.32151e-05
-1.59665e-06
3.74754e-05
-1.11497e-06
3.22092e-05
-7.23695e-07
2.74636e-05
-4.13094e-07
2.31322e-05
-1.74086e-07
1.87347e-05
2.13033e-05
-9.42614e-07
3.39427e-05
-6.08519e-07
3.47549e-05
-3.26365e-07
3.55627e-05
-1.21286e-07
3.63572e-05
2.21786e-08
3.71409e-05
5.87368e-08
3.79611e-05
6.19953e-08
3.88194e-05
3.80157e-08
3.97577e-05
5.00106e-08
-1.3336e-06
2.37524e-05
-1.79911e-06
2.64833e-05
-2.35338e-06
2.95196e-05
-3.01047e-06
3.29028e-05
-3.77158e-06
3.66725e-05
-4.64004e-06
4.08747e-05
-5.60887e-06
4.55658e-05
-6.66708e-06
5.08284e-05
-7.79484e-06
5.67491e-05
-8.96234e-06
6.34466e-05
-1.01251e-05
7.10665e-05
-1.12232e-05
7.97882e-05
-1.21821e-05
8.98237e-05
-1.29118e-05
9.98091e-05
-1.33269e-05
0.000101517
-1.34278e-05
0.000103409
-1.32062e-05
0.00010544
-1.26754e-05
0.000107543
-1.18676e-05
0.000109667
-1.0828e-05
0.000111754
-9.61061e-06
0.000119952
-1.01327e-05
0.000106523
-8.46853e-06
9.44223e-05
-6.96792e-06
8.35441e-05
-5.64823e-06
7.37417e-05
-4.51041e-06
6.49907e-05
-3.5441e-06
5.71696e-05
-2.73317e-06
5.01221e-05
-2.05874e-06
4.36954e-05
-1.50153e-06
3.78765e-05
-1.04457e-06
3.25417e-05
-6.75837e-07
2.77358e-05
-3.84722e-07
2.33505e-05
-1.61809e-07
1.89027e-05
2.13477e-05
-1.32011e-06
3.39968e-05
-9.06957e-07
3.48363e-05
-5.85085e-07
3.56726e-05
-3.12605e-07
3.65e-05
-1.16803e-07
3.73175e-05
2.17517e-08
3.81213e-05
5.15992e-08
3.89676e-05
5.52039e-08
3.98498e-05
3.15407e-08
4.08114e-05
4.75931e-08
-1.77927e-06
2.37956e-05
-2.32568e-06
2.65245e-05
-2.97358e-06
2.95598e-05
-3.72584e-06
3.29353e-05
-4.58597e-06
3.6697e-05
-5.54941e-06
4.08952e-05
-6.60808e-06
4.55891e-05
-7.74663e-06
5.08628e-05
-8.94109e-06
5.68122e-05
-1.01546e-05
6.35662e-05
-1.13361e-05
7.1276e-05
-1.24204e-05
8.01293e-05
-1.33256e-05
9.03458e-05
-1.39601e-05
0.000100555
-1.42419e-05
0.000102441
-1.41867e-05
0.000104496
-1.37992e-05
0.000106664
-1.3105e-05
0.000108875
-1.21464e-05
0.000111075
-1.09774e-05
0.000113205
-1.19408e-05
0.000121863
-1.0028e-05
0.000108165
-8.29187e-06
9.58119e-05
-6.75967e-06
8.47081e-05
-5.43549e-06
7.47087e-05
-4.31035e-06
6.57903e-05
-3.36655e-06
5.78296e-05
-2.58285e-06
5.06674e-05
-1.9369e-06
4.41476e-05
-1.40736e-06
3.82527e-05
-9.75928e-07
3.28525e-05
-6.29667e-07
2.79894e-05
-3.57636e-07
2.35534e-05
-1.50179e-07
1.90587e-05
2.13853e-05
-1.76023e-06
3.40368e-05
-1.26789e-06
3.48903e-05
-8.69451e-07
3.57556e-05
-5.60412e-07
3.66122e-05
-2.98163e-07
3.74635e-05
-1.11852e-07
3.83015e-05
2.14742e-08
3.91303e-05
4.51532e-08
4.00002e-05
4.84213e-08
4.09039e-05
2.6117e-08
4.18984e-05
4.4713e-08
-2.29895e-06
2.38308e-05
-2.93747e-06
2.65577e-05
-3.68037e-06
2.95847e-05
-4.53076e-06
3.29508e-05
-5.4862e-06
3.67057e-05
-6.54076e-06
4.09018e-05
-7.68288e-06
4.55996e-05
-8.89327e-06
5.08908e-05
-1.01418e-05
5.68804e-05
-1.13854e-05
6.37023e-05
-1.25676e-05
7.15156e-05
-1.36152e-05
8.05162e-05
-1.44433e-05
9.09326e-05
-1.49601e-05
0.000101384
-1.50886e-05
0.000103449
-1.48637e-05
0.000105661
-1.43033e-05
0.000107957
-1.34447e-05
0.000110263
-1.23404e-05
0.000112522
-1.3668e-05
0.000115029
-1.18423e-05
0.000123771
-9.83375e-06
0.000109782
-8.05303e-06
9.71655e-05
-6.51061e-06
8.58314e-05
-5.19801e-06
7.56348e-05
-4.09681e-06
6.65512e-05
-3.18302e-06
5.84542e-05
-2.43106e-06
5.1181e-05
-1.81613e-06
4.45718e-05
-1.31544e-06
3.86045e-05
-9.09645e-07
3.31424e-05
-5.85553e-07
2.82254e-05
-3.31968e-07
2.37418e-05
-1.39213e-07
1.92034e-05
2.14155e-05
-2.27345e-06
3.40548e-05
-1.68788e-06
3.49299e-05
-1.21352e-06
3.581e-05
-8.3074e-07
3.66968e-05
-5.34632e-07
3.75781e-05
-2.8312e-07
3.84511e-05
-1.06463e-07
3.93142e-05
2.13432e-08
4.01654e-05
3.94107e-08
4.10566e-05
4.16509e-08
4.19913e-05
2.18164e-08
4.30115e-05
4.13122e-08
-2.90268e-06
2.38584e-05
-3.63602e-06
2.65766e-05
-4.47583e-06
2.95933e-05
-5.42153e-06
3.29507e-05
-6.46873e-06
3.67001e-05
-7.60898e-06
4.08945e-05
-8.8268e-06
4.56012e-05
-1.00979e-05
5.09198e-05
-1.1386e-05
5.6959e-05
-1.26428e-05
6.38606e-05
-1.38038e-05
7.17918e-05
-1.47917e-05
8.0958e-05
-1.55197e-05
9.15932e-05
-1.58968e-05
0.000102298
-1.58551e-05
0.000104541
-1.54504e-05
0.000106903
-1.47131e-05
0.000109315
-1.36926e-05
0.000111699
-1.54024e-05
0.000114354
-1.35869e-05
0.000116863
-1.16368e-05
0.000125661
-9.56454e-06
0.000111362
-7.76447e-06
9.84746e-05
-6.23111e-06
8.69086e-05
-4.94367e-06
7.65169e-05
-3.8756e-06
6.7272e-05
-2.99742e-06
5.9043e-05
-2.28044e-06
5.16632e-05
-1.69815e-06
4.49688e-05
-1.22657e-06
3.89328e-05
-8.46258e-07
3.34123e-05
-5.43717e-07
2.84447e-05
-3.07766e-07
2.39166e-05
-1.28929e-07
1.93373e-05
2.14385e-05
-2.86955e-06
3.40468e-05
-2.17679e-06
3.49469e-05
-1.61276e-06
3.58494e-05
-1.15727e-06
3.67517e-05
-7.90694e-07
3.76645e-05
-5.07729e-07
3.85682e-05
-2.6748e-07
3.94674e-05
-1.00721e-07
4.0353e-05
2.13742e-08
4.12242e-05
3.43065e-08
4.21462e-05
3.4896e-08
4.31047e-05
1.86535e-08
4.35272e-05
3.76169e-08
-3.59339e-06
2.38726e-05
-4.4222e-06
2.65801e-05
-5.35708e-06
2.95869e-05
-6.39468e-06
3.29364e-05
-7.52914e-06
3.66801e-05
-8.74789e-06
4.08769e-05
-1.00317e-05
4.56006e-05
-1.13501e-05
5.09541e-05
-1.26622e-05
5.70532e-05
-1.39117e-05
6.40473e-05
-1.50293e-05
7.21134e-05
-1.59345e-05
8.14638e-05
-1.65393e-05
9.23326e-05
-1.67572e-05
0.000103301
-1.65316e-05
0.000105717
-1.59397e-05
0.000108219
-1.50253e-05
0.000110732
-1.71375e-05
0.000113531
-1.53521e-05
0.000116208
-1.33814e-05
0.000118689
-1.13405e-05
0.000127516
-9.23472e-06
0.000112896
-7.43846e-06
9.97326e-05
-5.93056e-06
8.79361e-05
-4.67947e-06
7.73532e-05
-3.65148e-06
6.79519e-05
-2.813e-06
5.95962e-05
-2.13316e-06
5.21147e-05
-1.58402e-06
4.53394e-05
-1.14153e-06
3.92385e-05
-7.86101e-07
3.36632e-05
-5.04238e-07
2.86481e-05
-2.85056e-07
2.40784e-05
-1.19329e-07
1.94614e-05
2.1449e-05
-3.55285e-06
3.40107e-05
-2.74399e-06
3.49379e-05
-2.07736e-06
3.58665e-05
-1.53574e-06
3.67913e-05
-1.09957e-06
3.77201e-05
-7.49585e-07
3.86565e-05
-4.79763e-07
3.9587e-05
-2.51262e-07
4.051e-05
-9.46608e-08
4.14155e-05
2.16146e-08
4.23164e-05
2.98801e-08
4.32619e-05
2.81468e-08
4.36198e-05
1.63417e-08
4.22937e-05
3.41678e-08
-4.3706e-06
2.38723e-05
-5.2941e-06
2.65693e-05
-6.32063e-06
2.95665e-05
-7.44651e-06
3.29075e-05
-8.66141e-06
3.66487e-05
-9.9503e-06
4.08545e-05
-1.12878e-05
4.56014e-05
-1.26395e-05
5.09986e-05
-1.39563e-05
5.71688e-05
-1.51771e-05
6.42709e-05
-1.62287e-05
7.24896e-05
-1.70277e-05
8.20394e-05
-1.7488e-05
9.31553e-05
-1.75304e-05
0.000104394
-1.71099e-05
0.000106976
-1.63272e-05
0.000109604
-1.88641e-05
0.000112555
-1.7134e-05
0.000115401
-1.51598e-05
0.000118067
-1.30692e-05
0.000120492
-1.09698e-05
0.000129323
-8.85853e-06
0.000114374
-7.08616e-06
0.000100935
-5.61736e-06
8.89112e-05
-4.4112e-06
7.81426e-05
-3.42841e-06
6.8591e-05
-2.63244e-06
6.01145e-05
-1.99055e-06
5.25364e-05
-1.4747e-06
4.56846e-05
-1.06076e-06
3.95229e-05
-7.29298e-07
3.38962e-05
-4.67174e-07
2.88367e-05
-2.63846e-07
2.42283e-05
-1.10394e-07
1.95761e-05
2.14461e-05
-4.3215e-06
3.3935e-05
-3.39542e-06
3.49008e-05
-2.6154e-06
3.58567e-05
-1.97536e-06
3.68085e-05
-1.45685e-06
3.77599e-05
-1.04035e-06
3.87127e-05
-7.0732e-07
3.96774e-05
-4.50877e-07
4.06324e-05
-2.34563e-07
4.15765e-05
-8.84007e-08
4.25114e-05
2.20602e-08
4.34346e-05
2.6126e-08
4.37766e-05
2.17623e-08
4.23829e-05
1.41712e-08
4.10935e-05
3.10741e-08
-5.23344e-06
2.38585e-05
-6.24805e-06
2.6545e-05
-7.36349e-06
2.95317e-05
-8.57105e-06
3.28666e-05
-9.85937e-06