/*--------------------------------*- C++ -*----------------------------------*\
  =========                 |
  \\      /  F ield         | OpenFOAM: The Open Source CFD Toolbox
   \\    /   O peration     | Website:  https://openfoam.org
    \\  /    A nd           | Version:  8
     \\/     M anipulation  |
\*---------------------------------------------------------------------------*/
FoamFile
{
    version     2.0;
    format      ascii;
    class       surfaceScalarField;
    location    "0.07";
    object      phi;
}
// * * * * * * * * * * * * * * * * * * * * * * * * * * * * * * * * * * * * * //

dimensions      [0 3 -1 0 0 0 0];

internalField   nonuniform List<scalar> 
31053
(
6.40145e-07
1.27399e-05
8.63161e-07
1.5157e-05
3.57383e-07
1.23825e-05
9.48801e-07
1.75544e-05
5.67567e-07
1.49468e-05
2.75239e-07
1.21072e-05
9.73477e-07
2.02153e-05
6.82327e-07
1.74396e-05
4.71111e-07
1.47509e-05
2.16688e-07
1.18905e-05
9.64858e-07
2.32486e-05
7.41078e-07
2.01566e-05
5.97073e-07
1.73136e-05
3.97e-07
1.45706e-05
1.72251e-07
1.17183e-05
9.3493e-07
2.66899e-05
7.66169e-07
2.32235e-05
6.72257e-07
2.00814e-05
5.2439e-07
1.71862e-05
3.32876e-07
1.441e-05
1.3793e-07
1.15804e-05
8.89494e-07
3.06654e-05
7.69385e-07
2.66867e-05
7.14379e-07
2.31814e-05
6.0546e-07
2.00003e-05
4.55072e-07
1.70641e-05
2.78663e-07
1.42693e-05
1.10879e-07
1.14695e-05
8.31641e-07
3.51979e-05
7.57181e-07
3.06776e-05
7.3434e-07
2.66668e-05
6.53745e-07
2.31331e-05
5.36151e-07
1.99192e-05
3.91773e-07
1.69509e-05
2.31682e-07
1.41485e-05
8.84086e-08
1.13811e-05
7.65159e-07
4.03865e-05
7.33738e-07
3.52213e-05
7.3859e-07
3.06734e-05
6.7931e-07
2.66412e-05
5.85198e-07
2.30841e-05
4.69143e-07
1.98419e-05
3.33031e-07
1.68496e-05
1.89572e-07
1.40473e-05
6.87082e-08
1.13124e-05
6.92635e-07
4.63525e-05
7.00209e-07
4.042e-05
7.31006e-07
3.52289e-05
6.88154e-07
3.06645e-05
6.11226e-07
2.66152e-05
5.1567e-07
2.30375e-05
4.03661e-07
1.97712e-05
2.77202e-07
1.6762e-05
1.50556e-07
1.39654e-05
5.06296e-08
1.12617e-05
6.15913e-07
5.32167e-05
6.58116e-07
4.63946e-05
7.11926e-07
4.04391e-05
6.83207e-07
3.52338e-05
6.20151e-07
3.06556e-05
5.3899e-07
2.65918e-05
4.44913e-07
2.29963e-05
3.38585e-07
1.97099e-05
2.22913e-07
1.66896e-05
1.13337e-07
1.39027e-05
3.339e-08
1.12283e-05
5.36956e-07
6.1059e-05
6.09265e-07
5.32656e-05
6.81798e-07
4.64247e-05
6.67353e-07
4.04549e-05
6.15349e-07
3.52386e-05
5.44862e-07
3.06497e-05
4.62867e-07
2.65739e-05
3.72173e-07
2.29627e-05
2.72795e-07
1.966e-05
1.69061e-07
1.66339e-05
7.69665e-08
1.38592e-05
1.64797e-08
1.12119e-05
4.57618e-07
7.00613e-05
5.55222e-07
6.1113e-05
6.41719e-07
5.33057e-05
6.41557e-07
4.64505e-05
5.99062e-07
4.04712e-05
5.36745e-07
3.52467e-05
4.62887e-07
3.06497e-05
3.82395e-07
2.65637e-05
2.96399e-07
2.29391e-05
2.0528e-07
1.96238e-05
1.14839e-07
1.6596e-05
4.07514e-08
1.38349e-05
-2.72509e-10
1.12121e-05
3.79593e-07
8.041e-05
4.97405e-07
7.01192e-05
5.92927e-07
6.11618e-05
6.05879e-07
5.33413e-05
5.72396e-07
4.64772e-05
5.16604e-07
4.04914e-05
4.48346e-07
3.52613e-05
3.74034e-07
3.06581e-05
2.96537e-07
2.65635e-05
2.16579e-07
2.29278e-05
1.3535e-07
1.96032e-05
5.96245e-08
1.65771e-05
4.31792e-09
1.38303e-05
-1.70986e-08
1.12292e-05
3.16768e-07
7.62528e-05
4.37112e-07
8.04703e-05
5.36865e-07
7.01752e-05
5.60637e-07
6.1207e-05
5.35625e-07
5.33781e-05
4.8543e-07
4.65084e-05
4.21091e-07
4.05186e-05
3.50282e-07
3.5285e-05
2.77292e-07
3.06773e-05
2.04245e-07
2.65759e-05
1.3203e-07
2.29311e-05
6.24731e-08
1.96004e-05
3.07376e-09
1.65784e-05
-3.25486e-08
1.38457e-05
-3.41908e-08
1.12634e-05
2.63463e-07
7.62433e-05
3.85447e-07
7.63045e-05
4.75189e-07
8.0532e-05
5.06545e-07
7.02293e-05
4.88845e-07
6.12538e-05
4.43564e-07
5.342e-05
3.81994e-07
4.65475e-05
3.12867e-07
4.0556e-05
2.4158e-07
3.53208e-05
1.71565e-07
3.071e-05
1.04785e-07
2.66031e-05
4.22326e-08
2.29514e-05
-1.3572e-08
1.9617e-05
-5.49417e-08
1.66008e-05
-7.00073e-08
1.38816e-05
-5.1519e-08
1.13149e-05
2.18448e-07
7.6235e-05
3.38749e-07
7.629e-05
4.20589e-07
7.63591e-05
4.44811e-07
8.05937e-05
4.32361e-07
7.02858e-05
3.91085e-07
6.13063e-05
3.3134e-07
5.34706e-05
2.62533e-07
4.65978e-05
1.90963e-07
4.06067e-05
1.21101e-07
3.53712e-05
5.60593e-08
3.07587e-05
-2.36597e-09
2.66477e-05
-5.29476e-08
2.29907e-05
-9.27561e-08
1.96549e-05
-1.14387e-07
1.66452e-05
-1.07957e-07
1.3938e-05
-6.89209e-08
1.13839e-05
1.80626e-07
7.62298e-05
2.96614e-07
7.62771e-05
3.69946e-07
7.63406e-05
3.88529e-07
7.64154e-05
3.6703e-07
8.06591e-05
3.2814e-07
7.03487e-05
2.692e-07
6.13684e-05
1.99463e-07
5.35337e-05
1.26029e-07
4.66627e-05
5.41834e-08
4.06736e-05
-1.20255e-08
3.54393e-05
-6.97707e-08
3.08261e-05
-1.17305e-07
2.67121e-05
-1.53333e-07
2.30513e-05
-1.74799e-07
1.97153e-05
-1.74958e-07
1.67122e-05
-1.46122e-07
1.40152e-05
-8.62622e-08
1.14701e-05
1.49029e-07
7.62216e-05
2.58664e-07
7.62678e-05
3.2321e-07
7.63239e-05
3.35317e-07
7.63939e-05
3.06831e-07
7.64756e-05
2.55387e-07
8.07318e-05
1.95691e-07
7.04222e-05
1.23686e-07
6.14442e-05
4.68262e-08
5.36129e-05
-2.88051e-08
4.67457e-05
-9.84405e-08
4.076e-05
-1.58368e-07
3.55279e-05
-2.05993e-07
3.09148e-05
-2.39719e-07
2.67984e-05
-2.58409e-07
2.31349e-05
-2.59107e-07
1.97994e-05
-2.36138e-07
1.68022e-05
-1.84135e-07
1.41131e-05
-1.03283e-07
1.15734e-05
1.22825e-07
7.62162e-05
2.24553e-07
7.62557e-05
2.80263e-07
7.63107e-05
2.85569e-07
7.63736e-05
2.49575e-07
7.64511e-05
1.88274e-07
7.65427e-05
1.11441e-07
8.08161e-05
3.53294e-08
7.05106e-05
-4.66806e-08
6.15377e-05
-1.27985e-07
5.37121e-05
-2.03058e-07
4.68504e-05
-2.67497e-07
4.08691e-05
-3.17965e-07
3.56399e-05
-3.5214e-07
3.10273e-05
-3.68882e-07
2.69089e-05
-3.67277e-07
2.32431e-05
-3.44796e-07
1.99081e-05
-2.97262e-07
1.69153e-05
-2.21513e-07
1.42313e-05
-1.19794e-07
1.16932e-05
1.01206e-07
7.62116e-05
1.93938e-07
7.62468e-05
2.4097e-07
7.6295e-05
2.3946e-07
7.63568e-05
1.95955e-07
7.64273e-05
1.24459e-07
7.65149e-05
3.40889e-08
7.662e-05
-6.48909e-08
8.09163e-05
-1.54344e-07
7.06183e-05
-2.43475e-07
6.16532e-05
-3.26213e-07
5.38352e-05
-3.97346e-07
4.69802e-05
-4.52997e-07
4.10042e-05
-4.90181e-07
3.57779e-05
-5.07286e-07
3.11657e-05
-5.03584e-07
2.70452e-05
-4.78639e-07
2.33769e-05
-4.30834e-07
2.00416e-05
-3.57533e-07
1.70513e-05
-2.57744e-07
1.43693e-05
-1.35461e-07
1.18287e-05
8.47518e-08
6.95985e-05
1.66522e-07
7.6239e-05
2.05176e-07
7.62826e-05
1.97073e-07
7.63374e-05
1.46363e-07
7.64064e-05
6.48805e-08
7.64868e-05
-3.91585e-08
7.65882e-05
-1.56256e-07
7.67114e-05
-2.75288e-07
8.10372e-05
-3.75109e-07
7.07499e-05
-4.68135e-07
6.17951e-05
-5.48511e-07
5.39864e-05
-6.11658e-07
4.71389e-05
-6.54124e-07
4.11681e-05
-6.73884e-07
3.59445e-05
-6.69907e-07
3.1332e-05
-6.42115e-07
2.72087e-05
-5.91047e-07
2.35372e-05
-5.15991e-07
2.02001e-05
-4.16059e-07
1.72096e-05
-2.92209e-07
1.4526e-05
-1.50093e-07
1.19788e-05
7.21742e-08
6.25566e-05
1.44082e-07
6.96209e-05
1.72756e-07
7.62715e-05
1.58434e-07
7.63213e-05
1.01034e-07
7.63827e-05
1.01357e-08
7.64612e-05
-1.07153e-07
7.65548e-05
-2.4227e-07
7.66742e-05
-3.84769e-07
7.68209e-05
-5.21806e-07
8.11839e-05
-6.28646e-07
7.09104e-05
-7.21372e-07
6.1968e-05
-7.94866e-07
5.41696e-05
-8.44989e-07
4.73297e-05
-8.69534e-07
4.13637e-05
-8.67217e-07
3.61418e-05
-8.37859e-07
3.15277e-05
-7.82578e-07
2.74002e-05
-7.02762e-07
2.37239e-05
-5.98946e-07
2.0383e-05
-4.71865e-07
1.73893e-05
-3.24401e-07
1.47003e-05
-1.63221e-07
1.2142e-05
6.23861e-08
5.62278e-05
1.25896e-07
6.25748e-05
1.46015e-07
6.96476e-05
1.23557e-07
7.63063e-05
6.01151e-08
7.63622e-05
-3.93867e-08
7.64322e-05
-1.69102e-07
7.65231e-05
-3.21592e-07
7.66341e-05
-4.87238e-07
7.67767e-05
-6.53798e-07
7.69529e-05
-8.06427e-07
8.13617e-05
-9.1576e-07
7.11048e-05
-1.00319e-06
6.21763e-05
-1.06408e-06
5.43887e-05
-1.09577e-06
4.7556e-05
-1.09701e-06
4.15935e-05
-1.06757e-06
3.63715e-05
-1.00877e-06
3.17539e-05
-9.22698e-07
2.76202e-05
-8.11984e-07
2.3937e-05
-6.78258e-07
2.05894e-05
-5.24054e-07
1.75889e-05
-3.5336e-07
1.48905e-05
-1.74083e-07
1.23161e-05
5.46524e-08
5.05397e-05
1.11051e-07
5.62426e-05
1.24236e-07
6.25965e-05
9.49913e-08
6.96762e-05
2.37033e-08
7.63427e-05
-8.34286e-08
7.64062e-05
-2.24455e-07
7.64876e-05
-3.9323e-07
7.65948e-05
-5.81152e-07
7.67281e-05
-7.76717e-07
7.68996e-05
-9.6564e-07
7.71121e-05
-1.1301e-06
8.1576e-05
-1.23652e-06
7.13381e-05
-1.31222e-06
6.24245e-05
-1.35436e-06
5.46473e-05
-1.3614e-06
4.78204e-05
-1.33343e-06
4.18594e-05
-1.27206e-06
3.66348e-05
-1.17981e-06
3.2011e-05
-1.06015e-06
2.78683e-05
-9.16725e-07
2.41754e-05
-7.52604e-07
2.08179e-05
-5.7123e-07
1.78068e-05
-3.78436e-07
1.50948e-05
-1.82652e-07
1.24987e-05
4.84607e-08
4.54262e-05
9.88423e-08
5.05519e-05
1.06414e-07
5.62605e-05
7.19768e-08
6.26196e-05
-5.56572e-09
6.97055e-05
-1.21813e-07
7.63811e-05
-2.72832e-07
7.64546e-05
-4.56459e-07
7.65508e-05
-6.65307e-07
7.66789e-05
-8.88793e-07
7.68401e-05
-1.11334e-06
7.70473e-05
-1.32141e-06
7.73034e-05
-1.493e-06
8.18325e-05
-1.58936e-06
7.16153e-05
-1.64642e-06
6.27165e-05
-1.66269e-06
5.49486e-05
-1.63822e-06
4.81252e-05
-1.5754e-06
4.21627e-05
-1.4773e-06
3.69323e-05
-1.34808e-06
3.22989e-05
-1.19235e-06
2.8144e-05
-1.01517e-06
2.4438e-05
-8.20132e-07
2.10668e-05
-6.12586e-07
1.8041e-05
-3.96136e-07
1.53083e-05
-1.50469e-07
1.26492e-05
4.34427e-08
4.0831e-05
8.87318e-08
4.54363e-05
9.17533e-08
5.05666e-05
5.34161e-08
5.6279e-05
-2.86151e-08
6.26426e-05
-1.51829e-07
6.97355e-05
-3.13966e-07
7.64223e-05
-5.10758e-07
7.65089e-05
-7.38781e-07
7.66243e-05
-9.88589e-07
7.67787e-05
-1.24749e-06
7.69743e-05
-1.49842e-06
7.72243e-05
-1.72145e-06
7.75319e-05
-1.89343e-06
8.21366e-05
-1.97206e-06
7.19409e-05
-2.00238e-06
6.30562e-05
-1.98485e-06
5.52952e-05
-1.92228e-06
4.8472e-05
-1.81885e-06
4.25043e-05
-1.6797e-06
3.72639e-05
-1.51033e-06
3.26169e-05
-1.31693e-06
2.84457e-05
-1.105e-06
2.47229e-05
-8.7956e-07
2.13338e-05
-6.43116e-07
1.82879e-05
-3.9094e-07
1.55488e-05
-1.01641e-07
1.27508e-05
3.93277e-08
3.67001e-05
8.03184e-08
4.08394e-05
7.96334e-08
4.54484e-05
3.84307e-08
5.05816e-05
-4.67053e-08
5.62971e-05
-1.74665e-07
6.26654e-05
-3.45054e-07
6.97666e-05
-5.55757e-07
7.64673e-05
-8.0089e-07
7.6571e-05
-1.07496e-06
7.67107e-05
-1.36638e-06
7.68976e-05
-1.65879e-06
7.71347e-05
-1.9325e-06
7.74353e-05
-2.16399e-06
7.78024e-05
-2.32905e-06
8.24936e-05
-2.38084e-06
7.23194e-05
-2.37531e-06
6.34467e-05
-2.31625e-06
5.56892e-05
-2.20873e-06
4.88619e-05
-2.0595e-06
4.28841e-05
-1.87535e-06
3.7629e-05
-1.66365e-06
3.29636e-05
-1.43109e-06
2.87718e-05
-1.18438e-06
2.50277e-05
-9.26065e-07
2.16168e-05
-6.5582e-07
1.85528e-05
-3.66841e-07
1.5814e-05
-8.15394e-08
1.28324e-05
3.59168e-08
3.29894e-05
7.32943e-08
3.67071e-05
6.95821e-08
4.08495e-05
2.63159e-08
4.54605e-05
-6.08565e-08
5.05957e-05
-1.91838e-07
5.63143e-05
-3.67656e-07
6.2688e-05
-5.8851e-07
6.97993e-05
-8.51135e-07
7.65175e-05
-1.14702e-06
7.66431e-05
-1.46862e-06
7.68129e-05
-1.80049e-06
7.70393e-05
-2.12345e-06
7.73256e-05
-2.41382e-06
7.76852e-05
-2.64668e-06
7.812e-05
-2.79571e-06
8.29085e-05
-2.81022e-06
7.27543e-05
-2.75984e-06
6.38903e-05
-2.65123e-06
5.61317e-05
-2.49257e-06
4.9295e-05
-2.29272e-06
4.33015e-05
-2.06075e-06
3.80261e-05
-1.80472e-06
3.33373e-05
-1.53251e-06
2.91199e-05
-1.24904e-06
2.53507e-05
-9.5487e-07
2.19158e-05
-6.55402e-07
1.88414e-05
-3.45289e-07
1.60777e-05
-7.65461e-08
1.29089e-05
3.3064e-08
2.96509e-05
6.74055e-08
3.29953e-05
6.12319e-08
3.67155e-05
1.64866e-08
4.08593e-05
-7.18921e-08
4.54716e-05
-2.04578e-07
5.06085e-05
-3.8364e-07
5.63303e-05
-6.11058e-07
6.27106e-05
-8.86357e-07
6.98345e-05
-1.20413e-06
7.65746e-05
-1.55308e-06
7.67275e-05
-1.92182e-06
7.69342e-05
-2.29194e-06
7.72078e-05
-2.63983e-06
7.75516e-05
-2.94009e-06
7.79786e-05
-3.16509e-06
7.84894e-05
-3.28725e-06
8.33855e-05
-3.25418e-06
7.32486e-05
-3.14958e-06
6.43886e-05
-2.98406e-06
5.66232e-05
-2.76842e-06
4.97707e-05
-2.51438e-06
4.37551e-05
-2.23205e-06
3.84534e-05
-1.93076e-06
3.37355e-05
-1.61737e-06
2.94883e-05
-1.2952e-06
2.5691e-05
-9.71117e-07
2.22315e-05
-6.51208e-07
1.91473e-05
-3.345e-07
1.63357e-05
-8.20917e-08
1.2991e-05
3.06598e-08
2.66504e-05
6.24413e-08
2.96558e-05
5.42775e-08
3.30023e-05
8.47025e-09
3.67235e-05
-8.04782e-08
4.08679e-05
-2.13873e-07
4.54809e-05
-3.9452e-07
5.06194e-05
-6.2573e-07
5.63449e-05
-9.09191e-07
6.27334e-05
-1.2428e-06
6.98732e-05
-1.61894e-06
7.66405e-05
-2.02141e-06
7.68271e-05
-2.4359e-06
7.70782e-05
-2.83924e-06
7.74072e-05
-3.20576e-06
7.78173e-05
-3.50674e-06
7.83202e-05
-3.71257e-06
7.89147e-05
-3.79707e-06
8.39284e-05
-3.7055e-06
7.38045e-05
-3.53799e-06
6.49425e-05
-3.3085e-06
5.71632e-05
-3.03142e-06
5.02877e-05
-2.72003e-06
4.42431e-05
-2.38597e-06
3.89086e-05
-2.03828e-06
3.41564e-05
-1.68264e-06
2.98757e-05
-1.32728e-06
2.60472e-05
-9.82104e-07
2.25624e-05
-6.4885e-07
1.94616e-05
-3.33438e-07
1.6587e-05
-1.11254e-07
1.31023e-05
2.86205e-08
2.3956e-05
5.82323e-08
2.66546e-05
4.84624e-08
2.96616e-05
1.90547e-09
3.30088e-05
-8.71468e-08
3.67302e-05
-2.2051e-07
4.08745e-05
-4.01502e-07
4.54879e-05
-6.34405e-07
5.0628e-05
-9.22541e-07
5.63583e-05
-1.2664e-06
6.2757e-05
-1.66228e-06
6.99166e-05
-2.09818e-06
7.67172e-05
-2.55364e-06
7.69449e-05
-3.00958e-06
7.72485e-05
-3.44042e-06
7.76419e-05
-3.8166e-06
7.81271e-05
-4.10674e-06
7.87144e-05
-4.28209e-06
7.93998e-05
-4.31715e-06
8.454e-05
-4.15677e-06
7.44233e-05
-3.91782e-06
6.55519e-05
-3.61885e-06
5.77507e-05
-3.27644e-06
5.08441e-05
-2.90589e-06
4.4763e-05
-2.51918e-06
3.93895e-05
-2.12473e-06
3.45985e-05
-1.73171e-06
3.02802e-05
-1.35157e-06
2.64166e-05
-9.91233e-07
2.29048e-05
-6.49735e-07
1.97779e-05
-4.15183e-07
1.68909e-05
-1.20065e-07
1.32223e-05
2.68809e-08
2.15337e-05
5.46447e-08
2.39596e-05
4.35755e-08
2.66595e-05
-3.48166e-09
2.9667e-05
-9.23152e-08
3.3014e-05
-2.2511e-07
3.67348e-05
-4.05544e-07
4.08786e-05
-6.38578e-07
4.5492e-05
-9.28746e-07
5.06342e-05
-1.27852e-06
5.63704e-05
-1.68729e-06
6.2782e-05
-2.14763e-06
6.9966e-05
-2.64379e-06
7.68074e-05
-3.14878e-06
7.70841e-05
-3.64117e-06
7.74493e-05
-4.09092e-06
7.79162e-05
-4.46517e-06
7.84856e-05
-4.73277e-06
7.91651e-05
-4.86501e-06
7.99476e-05
-4.83912e-06
8.52224e-05
-4.59968e-06
7.51052e-05
-4.28251e-06
6.62155e-05
-3.90925e-06
5.83835e-05
-3.49914e-06
5.14374e-05
-3.06858e-06
4.53124e-05
-2.62941e-06
3.98942e-05
-2.19249e-06
3.50593e-05
-1.7697e-06
3.06983e-05
-1.3708e-06
2.67962e-05
-9.98926e-07
2.3254e-05
-8.04821e-07
2.01676e-05
-4.16641e-07
1.71875e-05
-1.30084e-07
1.33524e-05
2.53896e-08
1.93535e-05
5.15728e-08
2.15368e-05
3.94469e-08
2.39638e-05
-7.91015e-09
2.66639e-05
-9.63063e-08
2.9671e-05
-2.28161e-07
3.3017e-05
-4.07395e-07
3.67366e-05
-6.3943e-07
4.08794e-05
-9.29665e-07
4.54929e-05
-1.28206e-06
5.06378e-05
-1.6984e-06
5.63815e-05
-2.17491e-06
6.28093e-05
-2.7011e-06
7.00233e-05
-3.25511e-06
7.69137e-05
-3.80547e-06
7.72484e-05
-4.32626e-06
7.76846e-05
-4.78353e-06
7.82345e-05
-5.14397e-06
7.88968e-05
-5.3757e-06
7.96758e-05
-5.45217e-06
8.05607e-05
-5.35357e-06
8.59763e-05
-5.02673e-06
7.58494e-05
-4.62533e-06
6.69316e-05
-4.1747e-06
5.9059e-05
-3.69594e-06
5.20647e-05
-3.20585e-06
4.58889e-05
-2.71807e-06
4.04197e-05
-2.24552e-06
3.55351e-05
-1.79888e-06
3.11264e-05
-1.38512e-06
2.71824e-05
-1.2404e-06
2.36896e-05
-7.99987e-07
2.05509e-05
-4.18482e-07
1.74759e-05
-1.37862e-07
1.34903e-05
1.73973e-05
2.41058e-08
4.89315e-08
1.93561e-05
3.59419e-08
2.15403e-05
-1.15599e-08
2.39674e-05
-9.93734e-08
2.6667e-05
-2.30041e-07
2.96729e-05
-4.07639e-07
3.30173e-05
-6.3788e-07
3.67351e-05
-9.2676e-07
4.08765e-05
-1.27932e-06
4.54902e-05
-1.69917e-06
5.06385e-05
-2.18539e-06
5.6392e-05
-2.73174e-06
6.28399e-05
-3.32234e-06
7.00906e-05
-3.93119e-06
7.70394e-05
-4.51958e-06
7.74417e-05
-5.05778e-06
7.79589e-05
-5.51072e-06
7.86013e-05
-5.84348e-06
7.93645e-05
-6.02573e-06
8.02493e-05
-6.03325e-06
8.12403e-05
-5.852e-06
8.68015e-05
-5.43018e-06
7.66542e-05
-4.94051e-06
6.76974e-05
-4.41118e-06
5.97743e-05
-3.86432e-06
5.27232e-05
-3.31822e-06
4.6489e-05
-2.78802e-06
4.09622e-05
-2.28565e-06
3.60219e-05
-1.81947e-06
3.15607e-05
-1.72257e-06
2.76645e-05
-1.23254e-06
2.41221e-05
-7.92389e-07
2.09248e-05
-4.17764e-07
1.77558e-05
-1.42883e-07
1.36332e-05
1.73996e-05
4.66486e-08
2.78121e-05
2.20277e-08
3.29528e-08
1.93591e-05
-1.45767e-08
2.15433e-05
-1.01716e-07
2.39697e-05
-2.31045e-07
2.6668e-05
-4.06729e-07
2.9672e-05
-6.34639e-07
3.3014e-05
-9.21167e-07
3.67295e-05
-1.27212e-06
4.08693e-05
-1.69244e-06
4.54835e-05
-2.18342e-06
5.06366e-05
-2.7422e-06
5.64024e-05
-3.35777e-06
6.28754e-05
-4.0108e-06
7.01702e-05
-4.66825e-06
7.71881e-05
-5.2843e-06
7.76682e-05
-5.82833e-06
7.82765e-05
-6.26274e-06
7.90205e-05
-6.55345e-06
7.98923e-05
-6.67174e-06
8.08878e-05
-6.59887e-06
8.19872e-05
-6.32555e-06
8.76969e-05
-5.80336e-06
7.75171e-05
-5.22339e-06
6.85096e-05
-4.61572e-06
6.05257e-05
-4.00395e-06
5.34089e-05
-3.40754e-06
4.71085e-05
-2.84064e-06
4.15172e-05
-2.31312e-06
3.65155e-05
-2.26381e-06
3.2102e-05
-1.71276e-06
2.81448e-05
-1.21712e-06
2.45469e-05
-7.80282e-07
2.12874e-05
-4.13597e-07
1.80265e-05
-1.45263e-07
1.37784e-05
1.74021e-05
3.03946e-08
2.78157e-05
4.29896e-08
2.8552e-05
2.00499e-08
-1.7078e-08
1.93616e-05
-1.0349e-07
2.15451e-05
-2.31403e-07
2.39701e-05
-4.05013e-07
2.66663e-05
-6.30256e-07
2.96676e-05
-9.13758e-07
3.30066e-05
-1.26184e-06
3.67192e-05
-1.68043e-06
4.08573e-05
-2.17246e-06
4.54725e-05
-2.7377e-06
5.06321e-05
-3.36908e-06
5.64138e-05
-4.05279e-06
6.29174e-05
-4.76311e-06
7.0265e-05
-5.45988e-06
7.73637e-05
-6.09251e-06
7.79324e-05
-6.6281e-06
7.86418e-05
-7.02907e-06
7.94962e-05
-7.26214e-06
8.04827e-05
-7.3036e-06
8.15926e-05
-7.13913e-06
8.28008e-05
-6.76646e-06
8.866e-05
-6.14077e-06
7.84345e-05
-5.47033e-06
6.93642e-05
-4.78714e-06
6.13089e-05
-4.11578e-06
5.41172e-05
-3.47472e-06
4.77426e-05
-2.87622e-06
4.20803e-05
-2.87862e-06
3.71304e-05
-2.2514e-06
3.26406e-05
-1.69032e-06
2.8618e-05
-1.19388e-06
2.49605e-05
-7.63175e-07
2.16369e-05
-4.06038e-07
1.82873e-05
-1.45289e-07
1.39237e-05
1.74042e-05
-1.91608e-08
2.78193e-05
2.68603e-08
2.85555e-05
3.94769e-08
2.93119e-05
1.81749e-08
-1.04822e-07
1.9363e-05
-2.31289e-07
2.1545e-05
-4.02754e-07
2.39678e-05
-6.25144e-07
2.66612e-05
-9.05201e-07
2.9659e-05
-1.24957e-06
3.29944e-05
-1.66486e-06
3.67036e-05
-2.15521e-06
4.08401e-05
-2.72243e-06
4.54572e-05
-3.36252e-06
5.06255e-05
-4.0662e-06
5.64272e-05
-4.81389e-06
6.29682e-05
-5.57331e-06
7.03785e-05
-6.29935e-06
7.75705e-05
-6.93451e-06
7.82388e-05
-7.44645e-06
7.90592e-05
-7.79749e-06
8.00315e-05
-7.95873e-06
8.11378e-05
-7.91044e-06
8.23639e-05
-7.64528e-06
8.36796e-05
-7.16819e-06
8.96874e-05
-6.43786e-06
7.9402e-05
-5.67927e-06
7.02564e-05
-4.92555e-06
6.21186e-05
-4.20026e-06
5.48427e-05
-3.52011e-06
4.83865e-05
-3.58031e-06
4.2782e-05
-2.86307e-06
3.7742e-05
-2.22128e-06
3.31716e-05
-1.65617e-06
2.90802e-05
-1.16318e-06
2.53605e-05
-7.41498e-07
2.19724e-05
-3.95429e-07
1.85374e-05
-1.43381e-07
1.40671e-05
1.74052e-05
-1.05808e-07
2.78211e-05
-2.09442e-08
2.85588e-05
2.35551e-08
2.93152e-05
3.61162e-08
3.00898e-05
1.64037e-08
-2.30841e-07
1.93625e-05
-4.00154e-07
2.15424e-05
-6.19615e-07
2.39623e-05
-8.95997e-07
2.6652e-05
-1.23613e-06
2.96456e-05
-1.64705e-06
3.29766e-05
-2.13379e-06
3.66822e-05
-2.69966e-06
4.08173e-05
-3.34308e-06
4.54378e-05
-4.05837e-06
5.06177e-05
-4.83103e-06
5.64443e-05
-5.63556e-06
6.30304e-05
-6.43517e-06
7.05143e-05
-7.17729e-06
7.78133e-05
-7.79974e-06
7.85921e-05
-8.2709e-06
7.95326e-05
-8.55668e-06
8.06295e-05
-8.63153e-06
8.18589e-05
-8.48253e-06
8.32011e-05
-8.10973e-06
8.46212e-05
-7.52509e-06
9.07747e-05
-6.69164e-06
8.04144e-05
-5.84953e-06
7.11803e-05
-5.03095e-06
6.29493e-05
-4.25777e-06
5.55804e-05
-4.38352e-06
4.91897e-05
-3.56158e-06
4.34805e-05
-2.82433e-06
3.83451e-05
-2.17536e-06
3.36908e-05
-1.61152e-06
2.95286e-05
-1.12612e-06
2.57451e-05
-7.15939e-07
2.22929e-05
-3.82317e-07
1.87764e-05
-1.39952e-07
1.4207e-05
1.74045e-05
-2.30162e-07
2.78194e-05
-1.0416e-07
2.85603e-05
-2.24363e-08
2.93183e-05
2.04791e-08
3.0093e-05
3.29097e-08
3.08897e-05
1.47369e-08
-3.97363e-07
1.93597e-05
-6.13902e-07
2.15367e-05
-8.86517e-07
2.39528e-05
-1.22211e-06
2.6638e-05
-1.62799e-06
2.96265e-05
-2.1098e-06
3.29526e-05
-2.67193e-06
3.66545e-05
-3.31467e-06
4.07889e-05
-4.03517e-06
4.54146e-05
-4.82309e-06
5.06097e-05
-5.65856e-06
5.64673e-05
-6.51211e-06
6.31073e-05
-7.33976e-06
7.06768e-05
-8.0834e-06
7.8097e-05
-8.67566e-06
7.89968e-05
-9.08978e-06
8.00657e-05
-9.29424e-06
8.12922e-05
-9.2699e-06
8.26463e-05
-9.01127e-06
8.41027e-05
-8.52579e-06
8.56219e-05
-7.83311e-06
9.19161e-05
-6.90059e-06
8.14654e-05
-5.9806e-06
7.213e-05
-5.10364e-06
6.37952e-05
-5.30499e-06
5.65018e-05
-4.36206e-06
4.99902e-05
-3.51355e-06
4.41697e-05
-2.76529e-06
3.8935e-05
-2.11563e-06
3.41949e-05
-1.5582e-06
2.99607e-05
-1.08393e-06
2.61131e-05
-6.87348e-07
2.25979e-05
-3.67283e-07
1.90037e-05
-1.35375e-07
1.43424e-05
1.74016e-05
-3.94493e-07
2.78127e-05
-2.23447e-07
2.85582e-05
-1.02103e-07
2.93195e-05
-2.36235e-08
3.00958e-05
1.76358e-08
3.08927e-05
2.98622e-08
3.17096e-05
1.31732e-08
-6.08175e-07
1.9354e-05
-8.77035e-07
2.15272e-05
-1.20798e-06
2.39387e-05
-1.60843e-06
2.66184e-05
-2.08444e-06
2.96012e-05
-2.64119e-06
3.29218e-05
-3.28034e-06
3.66202e-05
-4.00127e-06
4.0755e-05
-4.79692e-06
4.53884e-05
-5.65214e-06
5.06033e-05
-6.54363e-06
5.64988e-05
-7.43511e-06
6.32027e-05
-8.27718e-06
7.08705e-05
-9.00528e-06
7.84266e-05
-9.55045e-06
7.94575e-05
-9.89014e-06
8.06616e-05
-9.99873e-06
8.2021e-05
-9.86432e-06
8.34993e-05
-9.48897e-06
8.50658e-05
-8.88841e-06
8.66772e-05
-8.08981e-06
9.31054e-05
-7.06361e-06
8.25484e-05
-6.07257e-06
7.30989e-05
-6.36359e-06
6.48538e-05
-5.28183e-06
5.74216e-05
-4.30433e-06
5.07809e-05
-3.44008e-06
4.48445e-05
-2.68882e-06
3.95082e-05
-2.04466e-06
3.46813e-05
-1.49811e-06
3.03748e-05
-1.03791e-06
2.64636e-05
-6.56568e-07
2.28872e-05
-3.50886e-07
1.92192e-05
-1.29981e-07
1.44724e-05
1.7396e-05
-6.02554e-07
2.77991e-05
-3.8094e-07
2.8551e-05
-2.16208e-07
2.93171e-05
-9.9656e-08
3.00967e-05
-2.45043e-08
3.08953e-05
1.5024e-08
3.17124e-05
2.69771e-08
3.25535e-05
1.17144e-08
-8.67747e-07
1.93447e-05
-1.19404e-06
2.15133e-05
-1.58891e-06
2.39192e-05
-2.05862e-06
2.65926e-05
-2.6089e-06
2.95689e-05
-3.24243e-06
3.28839e-05
-3.96026e-06
3.65792e-05
-4.75798e-06
4.0716e-05
-5.62421e-06
4.53605e-05
-6.54087e-06
5.06006e-05
-7.47833e-06
5.65421e-05
-8.39517e-06
6.33207e-05
-9.23536e-06
7.11006e-05
-9.93118e-06
7.88073e-05
-1.04108e-05
7.99781e-05
-1.06599e-05
8.13228e-05
-1.06597e-05
8.28164e-05
-1.0406e-05
8.44164e-05
-9.90961e-06
8.6087e-05
-9.1944e-06
8.77817e-05
-8.29346e-06
9.43352e-05
-7.1805e-06
8.36564e-05
-7.57891e-06
7.43142e-05
-6.34048e-06
6.59124e-05
-5.21434e-06
5.83316e-05
-4.21523e-06
5.15561e-05
-3.34502e-06
4.55007e-05
-2.59825e-06
4.00618e-05
-1.96503e-06
3.51483e-05
-1.4331e-06
3.077e-05
-9.89277e-07
2.67964e-05
-6.24387e-07
2.31607e-05
-3.33638e-07
1.94229e-05
-1.24031e-07
1.45964e-05
1.73871e-05
-8.58786e-07
2.77767e-05
-5.80151e-07
2.85367e-05
-3.6667e-07
2.93092e-05
-2.0839e-07
3.00938e-05
-9.67859e-08
3.08959e-05
-2.50788e-08
3.17148e-05
1.26434e-08
3.25562e-05
2.42519e-08
3.34194e-05
1.03573e-08
-1.18053e-06
1.93312e-05
-1.5698e-06
2.14942e-05
-2.03299e-06
2.38935e-05
-2.57615e-06
2.65598e-05
-3.20269e-06
2.95292e-05
-3.91495e-06
3.28386e-05
-4.71052e-06
3.65317e-05
-5.5811e-06
4.06729e-05
-6.51288e-06
4.53325e-05
-7.48193e-06
5.06042e-05
-8.45385e-06
5.66007e-05
-9.38064e-06
6.3466e-05
-1.02028e-05
7.13722e-05
-1.08476e-05
7.92441e-05
-1.1244e-05
8.05623e-05
-1.13878e-05
8.20509e-05
-1.12676e-05
8.3678e-05
-1.08881e-05
8.53948e-05
-1.02691e-05
8.71617e-05
-9.4413e-06
8.89296e-05
-8.44351e-06
9.55982e-05
-8.97285e-06
8.50503e-05
-7.55884e-06
7.55326e-05
-6.26366e-06
6.69618e-05
-5.10854e-06
5.92249e-05
-4.09964e-06
5.23107e-05
-3.23255e-06
4.6135e-05
-2.49686e-06
4.05936e-05
-1.87918e-06
3.55943e-05
-1.36482e-06
3.11456e-05
-9.39106e-07
2.71111e-05
-5.91522e-07
2.34186e-05
-3.15933e-07
1.96148e-05
-1.17757e-07
1.47142e-05
1.73741e-05
-1.16761e-06
2.77431e-05
-8.25166e-07
2.85134e-05
-5.56862e-07
2.92943e-05
-3.51728e-07
3.00855e-05
-2.00078e-07
3.08926e-05
-9.35187e-08
3.17151e-05
-2.53442e-08
3.25583e-05
1.04938e-08
3.34219e-05
2.16901e-08
3.43053e-05
9.10059e-09
-1.5514e-06
1.93128e-05
-2.00802e-06
2.14692e-05
-2.54373e-06
2.38611e-05
-3.16245e-06
2.65196e-05
-3.86742e-06
2.94816e-05
-4.65783e-06
3.27859e-05
-5.52776e-06
3.64784e-05
-6.46691e-06
4.0627e-05
-7.45612e-06
4.53067e-05
-8.46707e-06
5.06174e-05
-9.45904e-06
5.66791e-05
-1.03804e-05
6.36436e-05
-1.11659e-05
7.16906e-05
-1.17416e-05
7.97416e-05
-1.20385e-05
8.12129e-05
-1.20634e-05
8.28467e-05
-1.18143e-05
8.46042e-05
-1.13054e-05
8.64312e-05
-1.05641e-05
8.82846e-05
-9.62798e-06
9.01141e-05
-1.0569e-05
9.71944e-05
-8.96116e-06
8.64526e-05
-7.47419e-06
7.67431e-05
-6.14036e-06
6.79936e-05
-4.97041e-06
6.00957e-05
-3.96271e-06
5.30409e-05
-3.10672e-06
4.67449e-05
-2.38772e-06
4.11021e-05
-1.78925e-06
3.60188e-05
-1.29474e-06
3.15012e-05
-8.88383e-07
2.74079e-05
-5.58497e-07
2.36612e-05
-2.98135e-07
1.97952e-05
-1.11337e-07
1.48255e-05
1.73566e-05
-1.53387e-06
2.76959e-05
-1.12036e-06
2.84787e-05
-7.90446e-07
2.92701e-05
-5.32633e-07
3.00698e-05
-3.36058e-07
3.08838e-05
-1.91224e-07
3.17114e-05
-8.98458e-08
3.25583e-05
-2.53079e-08
3.34238e-05
8.5688e-09
3.43077e-05
1.92897e-08
3.52192e-05
7.94293e-09
-1.98404e-06
1.92888e-05
-2.51222e-06
2.14377e-05
-3.12266e-06
2.38213e-05
-3.81926e-06
2.64714e-05
-4.60239e-06
2.94262e-05
-5.46804e-06
3.27262e-05
-6.40869e-06
3.64201e-05
-7.40913e-06
4.058e-05
-8.44624e-06
4.52859e-05
-9.48572e-06
5.06441e-05
-1.04832e-05
5.6782e-05
-1.13812e-05
6.38588e-05
-1.21119e-05
7.20609e-05
-1.26009e-05
8.03041e-05
-1.27826e-05
8.19321e-05
-1.26776e-05
8.37101e-05
-1.22939e-05
8.55926e-05
-1.16539e-05
8.75209e-05
-1.0793e-05
8.94496e-05
-1.20739e-05
9.16189e-05
-1.05747e-05
9.8808e-05
-8.87247e-06
8.78509e-05
-7.33361e-06
7.79364e-05
-5.97786e-06
6.9001e-05
-4.80624e-06
6.09392e-05
-3.80939e-06
5.37436e-05
-2.97133e-06
4.73285e-05
-2.27353e-06
4.15864e-05
-1.69714e-06
3.64212e-05
-1.22418e-06
3.1837e-05
-8.37806e-07
2.76872e-05
-5.25815e-07
2.38888e-05
-2.80525e-07
1.99643e-05
-1.04898e-07
1.49304e-05
1.73338e-05
-1.96125e-06
2.76319e-05
-1.46994e-06
2.84301e-05
-1.07175e-06
2.92343e-05
-7.54677e-07
3.00448e-05
-5.07538e-07
3.08675e-05
-3.19729e-07
3.17021e-05
-1.81866e-07
3.25542e-05
-8.57832e-08
3.34235e-05
-2.49669e-08
3.43094e-05
6.86594e-09
3.52214e-05
1.70471e-08
3.61551e-05
6.88096e-09
-2.48199e-06
1.92586e-05
-3.08399e-06
2.1399e-05
-3.77161e-06
2.37737e-05
-4.54608e-06
2.64151e-05
-5.40486e-06
2.9363e-05
-6.34266e-06
3.26601e-05
-7.34751e-06
3.63585e-05
-8.40062e-06
4.05343e-05
-9.47325e-06
4.52734e-05
-1.05277e-05
5.06885e-05
-1.15135e-05
5.69144e-05
-1.23701e-05
6.4117e-05
-1.30281e-05
7.24881e-05
-1.34135e-05
8.0935e-05
-1.34667e-05
8.27211e-05
-1.32237e-05
8.46399e-05
-1.27013e-05
8.66401e-05
-1.19312e-05
8.86591e-05
-1.35633e-05
9.0939e-05
-1.21049e-05
9.31491e-05
-1.04887e-05
0.000100424
-8.71665e-06
8.92339e-05
-7.14578e-06
7.91043e-05
-5.78373e-06
6.99785e-05
-4.62201e-06
6.17518e-05
-3.6443e-06
5.44165e-05
-2.8297e-06
4.78847e-05
-2.15667e-06
4.2046e-05
-1.60454e-06
3.68015e-05
-1.15403e-06
3.21532e-05
-7.88053e-07
2.79495e-05
-4.93855e-07
2.41022e-05
-2.63293e-07
2.01227e-05
-9.85472e-08
1.5029e-05
1.73051e-05
-2.4533e-06
2.75481e-05
-1.87743e-06
2.83644e-05
-1.40423e-06
2.91841e-05
-1.02157e-06
3.00078e-05
-7.17683e-07
3.08415e-05
-4.81574e-07
3.16851e-05
-3.02774e-07
3.25444e-05
-1.72019e-07
3.34191e-05
-8.13393e-08
3.43087e-05
-2.43253e-08
3.52229e-05
5.37818e-09
3.61572e-05
1.49574e-08
3.6589e-05
5.92457e-09
-3.04692e-06
1.92215e-05
-3.72528e-06
2.13527e-05
-4.49027e-06
2.37179e-05
-5.34044e-06
2.63507e-05
-6.27226e-06
2.92926e-05
-7.27636e-06
3.2589e-05
-8.33758e-06
3.62955e-05
-9.43193e-06
4.0493e-05
-1.05275e-05
4.52732e-05
-1.15806e-05
5.07556e-05
-1.25373e-05
5.70816e-05
-1.33345e-05
6.44233e-05
-1.39021e-05
7.29767e-05
-1.41689e-05
8.16372e-05
-1.4083e-05
8.35804e-05
-1.36957e-05
8.56342e-05
-1.30335e-05
8.77424e-05
-1.50289e-05
9.01247e-05
-1.36295e-05
9.24637e-05
-1.20302e-05
9.46906e-05
-1.03222e-05
0.00010203
-8.50367e-06
9.05918e-05
-6.91961e-06
8.02402e-05
-5.56516e-06
7.09217e-05
-4.42335e-06
6.25309e-05
-3.47148e-06
5.50583e-05
-2.68474e-06
4.84127e-05
-2.03922e-06
4.24806e-05
-1.51259e-06
3.71601e-05
-1.0852e-06
3.24504e-05
-7.39624e-07
2.81952e-05
-4.6286e-07
2.43017e-05
-2.46603e-07
2.02708e-05
-9.23665e-08
1.51213e-05
1.727e-05
-3.01174e-06
2.7441e-05
-2.34618e-06
2.82788e-05
-1.79188e-06
2.91168e-05
-1.33696e-06
2.99563e-05
-9.70134e-07
3.08035e-05
-6.79744e-07
3.16583e-05
-4.54796e-07
3.25268e-05
-2.8517e-07
3.34087e-05
-1.61707e-07
3.43039e-05
-7.65339e-08
3.52219e-05
-2.3382e-08
3.61584e-05
4.1025e-09
3.65909e-05
1.30365e-08
3.55528e-05
5.09722e-09
-3.68085e-06
1.91771e-05
-4.43593e-06
2.12983e-05
-5.27639e-06
2.36538e-05
-6.20007e-06
2.62785e-05
-7.19965e-06
2.92159e-05
-8.26298e-06
3.25144e-05
-9.37005e-06
3.62336e-05
-1.0494e-05
4.04595e-05
-1.15971e-05
4.52898e-05
-1.2632e-05
5.08503e-05
-1.35419e-05
5.7289e-05
-1.42618e-05
6.4783e-05
-1.47228e-05
7.35306e-05
-1.48584e-05
8.24126e-05
-1.46247e-05
8.45094e-05
-1.40895e-05
8.66903e-05
-1.64608e-05
8.91743e-05
-1.51421e-05
9.16373e-05
-1.35766e-05
9.401e-05
-1.18622e-05
9.62306e-05
-1.00867e-05
0.000103613
-8.24396e-06
9.19162e-05
-6.6635e-06
8.13385e-05
-5.32891e-06
7.18272e-05
-4.21513e-06
6.32745e-05
-3.29449e-06
5.56681e-05
-2.53904e-06
4.89126e-05
-1.92263e-06
4.28907e-05
-1.42242e-06
3.74973e-05
-1.01833e-06
3.27291e-05
-6.92827e-07
2.84252e-05
-4.3304e-07
2.44882e-05
-2.30578e-07
2.0409e-05
-8.64108e-08
1.52077e-05
1.72278e-05
-3.63867e-06
2.73077e-05
-2.87849e-06
2.81698e-05
-2.23713e-06
2.90291e-05
-1.70412e-06
2.98875e-05
-1.26811e-06
3.07508e-05
-9.17407e-07
3.16194e-05
-6.40792e-07
3.24993e-05
-4.27325e-07
3.33906e-05
-2.67039e-07
3.42932e-05
-1.50985e-07
3.52168e-05
-7.13953e-08
3.61572e-05
-2.21652e-08
3.65919e-05
3.04689e-09
3.55545e-05
1.13307e-08
3.45447e-05
4.37892e-09
-4.38374e-06
1.91249e-05
-5.21389e-06
2.12358e-05
-6.12799e-06