/*--------------------------------*- C++ -*----------------------------------*\
  =========                 |
  \\      /  F ield         | OpenFOAM: The Open Source CFD Toolbox
   \\    /   O peration     | Website:  https://openfoam.org
    \\  /    A nd           | Version:  8
     \\/     M anipulation  |
\*---------------------------------------------------------------------------*/
FoamFile
{
    version     2.0;
    format      ascii;
    class       volScalarField;
    location    "0.16";
    object      alphat;
}
// * * * * * * * * * * * * * * * * * * * * * * * * * * * * * * * * * * * * * //

dimensions      [1 -1 -1 0 0 0 0];

internalField   nonuniform List<scalar> 
15677
(
0.00113418
0.00440029
0.0130774
0.0224967
0.0321259
0.0420217
0.0520963
0.0617588
0.0703791
0.0777102
0.0834116
0.0882958
0.0933828
0.0980275
0.102774
0.107971
0.112206
0.115005
0.118005
0.120373
0.122218
0.12356
0.124406
0.125022
0.125637
0.126313
0.126914
0.127507
0.127977
0.128217
0.128286
0.128225
0.128092
0.127931
0.127777
0.00142362
0.0119443
0.029701
0.0491356
0.0677087
0.0836741
0.0957033
0.101163
0.101643
0.0984452
0.0952208
0.0944172
0.0894024
0.0827956
0.0765912
0.0743929
0.0772477
0.0830353
0.0884335
0.0943811
0.100196
0.104988
0.10812
0.11026
0.111981
0.113084
0.113773
0.114157
0.114288
0.114203
0.11396
0.113554
0.11308
0.112581
0.112093
0.00143548
0.0117356
0.0275818
0.0447464
0.0613009
0.0765037
0.0907673
0.103006
0.112683
0.119468
0.122299
0.119215
0.110197
0.0980522
0.0870483
0.0772099
0.067632
0.0632978
0.0686626
0.078689
0.0907471
0.104079
0.115885
0.124685
0.130469
0.134607
0.137716
0.139881
0.141411
0.142506
0.143296
0.143875
0.1443
0.144614
0.144858
0.000831467
0.00437965
0.0108412
0.0184393
0.0273249
0.0371657
0.0463333
0.0543367
0.0606567
0.0646846
0.0649638
0.0638029
0.0605171
0.0558134
0.0507112
0.046446
0.0438044
0.0436315
0.0461078
0.0524119
0.0617039
0.0714489
0.0851886
0.0973235
0.105975
0.112307
0.116891
0.120238
0.122559
0.124066
0.12495
0.12533
0.125456
0.125345
0.125107
0.000666652
0.0041178
0.00702652
0.00995851
0.0131435
0.016313
0.01955
0.0223875
0.0249389
0.0276876
0.0308758
0.0353541
0.0417847
0.0507017
0.0621052
0.0752282
0.0888469
0.102267
0.114017
0.123595
0.128825
0.131021
0.133598
0.136448
0.138942
0.140553
0.140848
0.140131
0.138769
0.137279
0.135879
0.134694
0.133752
0.133041
0.132527
0.000611824
0.00428712
0.00907577
0.0133572
0.016949
0.0200047
0.0226142
0.0250137
0.028171
0.0332129
0.0420295
0.0543611
0.0680132
0.0815809
0.0933117
0.102388
0.109526
0.115669
0.121097
0.125506
0.128652
0.13026
0.130628
0.130303
0.129579
0.128636
0.127658
0.126832
0.126124
0.125464
0.12497
0.124604
0.124339
0.124149
0.124021
0.000487423
0.00378449
0.00720891
0.00958545
0.0109011
0.0113894
0.0116711
0.0144174
0.0224707
0.0354944
0.0522916
0.0699536
0.0864246
0.0996846
0.108795
0.115179
0.120156
0.124314
0.127905
0.130991
0.133603
0.135722
0.137259
0.138184
0.138481
0.138327
0.137888
0.137355
0.136839
0.136384
0.136003
0.13569
0.135436
0.135229
0.135054
0.000255579
0.00120456
0.00271799
0.00480336
0.00869487
0.0146433
0.0227052
0.0327039
0.0442576
0.0567086
0.0690287
0.0804552
0.0908573
0.0998734
0.106816
0.112115
0.116482
0.120213
0.123426
0.126109
0.128168
0.129502
0.130229
0.130604
0.130796
0.130888
0.130925
0.130923
0.1309
0.130865
0.130825
0.130785
0.130746
0.130707
0.130671
0.000345709
0.00303884
0.00787006
0.0137558
0.0204459
0.02787
0.0359947
0.0447592
0.0540959
0.0638623
0.0737951
0.0834916
0.0924693
0.100547
0.106989
0.111956
0.115985
0.119332
0.122162
0.12458
0.126658
0.128303
0.129487
0.130292
0.130802
0.131094
0.131248
0.13133
0.131378
0.13141
0.131435
0.131457
0.131479
0.131499
0.13151
0.000298634
0.00332285
0.00823216
0.0141685
0.0209503
0.0284859
0.0366755
0.0453828
0.0544337
0.0636286
0.0727825
0.0816036
0.0898455
0.0973389
0.103388
0.108112
0.111981
0.115198
0.117881
0.120072
0.121796
0.123063
0.123994
0.124688
0.125209
0.125594
0.125874
0.126078
0.126229
0.126344
0.126435
0.126508
0.126568
0.126617
0.126662
0.000310438
0.00301831
0.00759529
0.0131543
0.019517
0.026629
0.0344403
0.0428685
0.0517784
0.0609573
0.0701795
0.0791541
0.0875856
0.0952535
0.101402
0.106131
0.109925
0.113011
0.115549
0.117649
0.11938
0.120735
0.121732
0.12246
0.122989
0.123369
0.123637
0.123833
0.123985
0.124109
0.124215
0.124308
0.124388
0.12446
0.124523
0.000272236
0.00315738
0.0077741
0.0133123
0.0196021
0.0265654
0.0341278
0.0421915
0.0506095
0.0591866
0.0678096
0.0762316
0.0842386
0.0916468
0.0977082
0.102452
0.106307
0.109466
0.112049
0.114129
0.115789
0.117058
0.117997
0.118697
0.119224
0.119623
0.119927
0.120163
0.120349
0.120499
0.120621
0.120723
0.12081
0.120886
0.120954
0.000268742
0.00282273
0.00700418
0.0120566
0.0178446
0.0243264
0.0314581
0.0391661
0.0473331
0.0557809
0.0643287
0.0727654
0.0808437
0.0883586
0.0945251
0.0993439
0.103242
0.106424
0.109038
0.111192
0.112959
0.114334
0.115361
0.116134
0.116723
0.117175
0.117524
0.117793
0.118007
0.118181
0.118327
0.11845
0.118556
0.118649
0.11873
0.000246741
0.00288955
0.00706865
0.0120616
0.0177237
0.0239922
0.0308108
0.038109
0.0457893
0.0537092
0.0617488
0.0697392
0.0774747
0.0847765
0.0908723
0.0957116
0.0996756
0.102924
0.105593
0.107792
0.109611
0.111049
0.112143
0.112981
0.113631
0.114142
0.114547
0.114872
0.115136
0.115353
0.115533
0.115685
0.115814
0.115926
0.116023
0.000236283
0.00263864
0.00647277
0.0110749
0.0163343
0.0222145
0.0286773
0.0356624
0.0430786
0.0507896
0.0586497
0.0665019
0.074142
0.0813901
0.0874705
0.092319
0.0963148
0.0996244
0.102375
0.104669
0.106585
0.108117
0.109297
0.110213
0.110935
0.111509
0.111972
0.112347
0.112654
0.112907
0.11312
0.1133
0.113455
0.113588
0.113704
0.000224522
0.00261679
0.00637859
0.0108731
0.0159821
0.0216578
0.0278562
0.0345195
0.0415693
0.0488878
0.0563602
0.0638611
0.0712085
0.0782423
0.0842053
0.0890053
0.0929917
0.0963149
0.0991024
0.101447
0.103427
0.10503
0.106278
0.107258
0.108037
0.108665
0.109176
0.109595
0.109942
0.110233
0.110478
0.110686
0.110864
0.111017
0.111151
0.000210931
0.00245973
0.00598774
0.0102048
0.0150194
0.0204
0.0263132
0.0327074
0.0395075
0.0466045
0.0538741
0.0611894
0.0683811
0.0752945
0.0811845
0.085949
0.0899266
0.0932641
0.0960786
0.098463
0.100491
0.102147
0.103448
0.104479
0.105307
0.105979
0.106531
0.106987
0.107367
0.107686
0.107955
0.108184
0.108381
0.108551
0.1087
0.000206321
0.00241202
0.0058962
0.0100568
0.0147785
0.0200154
0.0257279
0.0318673
0.0383691
0.0451388
0.0520769
0.0590829
0.0660029
0.0726979
0.0784458
0.083129
0.0870639
0.090386
0.0932044
0.0956069
0.0976637
0.0993538
0.100691
0.101757
0.102617
0.10332
0.103899
0.104381
0.104784
0.105125
0.105414
0.105662
0.105874
0.106058
0.106219
0.000191724
0.00233272
0.00565092
0.00959745
0.0140883
0.0190934
0.0245822
0.0305101
0.0368122
0.0433969
0.0501584
0.0569919
0.0637547
0.0703132
0.0759606
0.0805761
0.0844696
0.0877705
0.0905827
0.0929903
0.0950607
0.0967704
0.0981298
0.0992183
0.100101
0.100825
0.101425
0.101926
0.102347
0.102704
0.103007
0.103267
0.103491
0.103686
0.103855
0.000189997
0.00223285
0.00546296
0.00932441
0.0137137
0.0185902
0.0239191
0.0296565
0.035744
0.0420987
0.0486273
0.0552405
0.0618051
0.0681969
0.0737262
0.0782654
0.0821101
0.0853818
0.0881792
0.0905822
0.0926557
0.094374
0.0957446
0.0968454
0.0977409
0.0984773
0.0990887
0.0996005
0.100032
0.100398
0.100711
0.100979
0.101211
0.101412
0.101587
0.000180988
0.00216544
0.00526912
0.00897308
0.0131925
0.0178963
0.0230536
0.0286224
0.0345443
0.0407388
0.0471111
0.0535727
0.0599974
0.066267
0.0717058
0.0761826
0.0799842
0.0832272
0.0860065
0.0883994
0.0904688
0.0921876
0.0935616
0.0946675
0.0955689
0.0963118
0.0969298
0.097448
0.0978858
0.098258
0.0985762
0.0988498
0.0990862
0.0992913
0.0994703
0.000178372
0.00208479
0.00510329
0.00871641
0.0128302
0.0174092
0.0224222
0.0278295
0.0335783
0.0395969
0.0457962
0.052099
0.0583843
0.0645364
0.0698893
0.0743072
0.0780672
0.0812812
0.0840404
0.0864195
0.0884796
0.0901928
0.0915639
0.0926686
0.09357
0.0943135
0.0949327
0.0954525
0.095892
0.0962661
0.0965862
0.0968616
0.0970998
0.0973067
0.0974873
0.000172562
0.00202395
0.00494252
0.0084355
0.0124187
0.0168611
0.0217342
0.0270002
0.0326082
0.0384903
0.0445608
0.0507392
0.0569142
0.0629707
0.0682516
0.0726181
0.0763404
0.0795262
0.0822639
0.0846262
0.0866726
0.088375
0.0897376
0.0908356
0.0917316
0.0924709
0.0930866
0.0936037
0.0940411
0.0944134
0.0947321
0.0950065
0.0952437
0.0954498
0.0956297
0.000169573
0.00196166
0.00480437
0.00821009
0.0120919
0.0164191
0.0211658
0.0262984
0.0317709
0.0375203
0.0434648
0.0495244
0.055595
0.0615621
0.0667758
0.0710941
0.0747799
0.0779372
0.0806516
0.0829937
0.0850218
0.0867076
0.0880557
0.0891407
0.0900253
0.0907544
0.0913611
0.0918701
0.0923004
0.0926663
0.0929795
0.0932488
0.0934816
0.0936837
0.0938599
0.000165412
0.00190874
0.00467133
0.00798334
0.0117631
0.0159823
0.020617
0.0256353
0.0309928
0.0366298
0.042467
0.0484238
0.0544026
0.0602897
0.0654416
0.069714
0.0733636
0.076491
0.079179
0.0814965
0.0835005
0.085163
0.0864892
0.087554
0.0884198
0.0891316
0.0897224
0.0902169
0.0906339
0.0909878
0.09129
0.0915493
0.0917731
0.091967
0.0921357
0.000162582
0.00186006
0.00455842
0.00779566
0.0114906
0.0156159
0.0201494
0.0250616
0.030311
0.0358413
0.0415764
0.0474361
0.0533281
0.0591389
0.0642309
0.0684575
0.0720694
0.0751638
0.077821
0.0801081
0.0820807
0.0837114
0.0850068
0.0860421
0.08688
0.0875654
0.0881315
0.088603
0.0889988
0.0893331
0.0896172
0.0898601
0.0900688
0.0902489
0.090405
0.000159536
0.00181724
0.00445469
0.00762114
0.0112377
0.0152784
0.019722
0.0245406
0.0296943
0.0351295
0.0407726
0.0465436
0.0523547
0.0580927
0.0631257
0.0673054
0.0708768
0.0739338
0.0765544
0.0788037
0.080736
0.0823245
0.0835783
0.084573
0.0853716
0.0860195
0.0865501
0.0869882
0.0873526
0.0876578
0.087915
0.088133
0.0883188
0.0884779
0.0886147
0.000157102
0.00177837
0.00436355
0.00746937
0.0110177
0.0149831
0.0193457
0.0240788
0.0291445
0.0344914
0.0400485
0.0457358
0.0514696
0.0571365
0.0621099
0.0662403
0.0697671
0.0727812
0.0753582
0.077561
0.0794423
0.0809767
0.082176
0.083117
0.0838632
0.0844605
0.0849426
0.0853347
0.0856558
0.0859204
0.0861397
0.0863226
0.0864759
0.086605
0.0867143
0.000154772
0.00174361
0.00428077
0.00733105
0.0108174
0.0147152
0.019005
0.0236613
0.0286475
0.0339137
0.0393913
0.045
0.0506595
0.0562563
0.0611687
0.0652465
0.068724
0.0716889
0.0742142
0.0763607
0.0781795
0.0796463
0.0807769
0.0816496
0.0823285
0.0828604
0.0832794
0.0836112
0.0838752
0.084086
0.0842549
0.0843907
0.0845004
0.0845891
0.0846612
0.000152779
0.00171214
0.0042067
0.00720765
0.0106386
0.0144753
0.0186989
0.0232849
0.0281978
0.033389
0.0387918
0.0443258
0.0499132
0.0554399
0.0602893
0.0643109
0.0677337
0.0706424
0.0731075
0.0751875
0.0769311
0.0783161
0.0793631
0.0801518
0.0807476
0.0811981
0.0815383
0.0817945
0.0819864
0.0821289
0.0822337
0.0823096
0.0823634
0.0824003
0.0824243
0.127423
0.126769
0.125898
0.124753
0.123296
0.121481
0.119248
0.116542
0.113334
0.10963
0.10548
0.101003
0.0964303
0.0919859
0.0877662
0.0838129
0.0800779
0.0763826
0.0723713
0.0675019
0.0622167
0.0571869
0.111463
0.110548
0.109553
0.108498
0.10738
0.106196
0.104949
0.103631
0.102233
0.10076
0.0992381
0.0977581
0.0965243
0.0957485
0.095596
0.096028
0.0972528
0.0991785
0.101344
0.103569
0.105578
0.107259
0.145095
0.145236
0.144988
0.144323
0.143277
0.141944
0.140452
0.138969
0.137662
0.136665
0.136057
0.13583
0.135868
0.136106
0.136466
0.136958
0.137551
0.138236
0.139006
0.140282
0.141946
0.143831
0.124772
0.124151
0.123364
0.122479
0.121575
0.120684
0.119762
0.118812
0.117845
0.116884
0.116032
0.115475
0.115283
0.115477
0.116001
0.116799
0.117824
0.119054
0.120489
0.121791
0.123082
0.124462
0.132058
0.131735
0.131602
0.131547
0.131469
0.131317
0.131166
0.130996
0.130798
0.130562
0.130357
0.130224
0.130225
0.130394
0.130745
0.131269
0.131946
0.132753
0.133664
0.134647
0.13568
0.136746
0.123861
0.123692
0.123607
0.123593
0.123622
0.123671
0.123722
0.123764
0.123788
0.123796
0.123803
0.123819
0.123861
0.12395
0.124097
0.124309
0.124587
0.124926
0.12532
0.125762
0.126238
0.126759
0.134779
0.13444
0.134137
0.133866
0.133623
0.133406
0.133208
0.133026
0.132858
0.132698
0.132562
0.132449
0.132371
0.132334
0.132339
0.13239
0.132485
0.132625
0.132807
0.133028
0.133282
0.133563
0.130661
0.130648
0.130624
0.130596
0.130565
0.130533
0.1305
0.130469
0.130442
0.130418
0.130407
0.130406
0.130418
0.130449
0.1305
0.130572
0.130668
0.130787
0.130928
0.131092
0.131278
0.131486
0.131561
0.13166
0.131754
0.131841
0.131922
0.131997
0.132067
0.132134
0.1322
0.132265
0.132335
0.132415
0.132505
0.132605
0.132716
0.132838
0.132972
0.133118
0.133274
0.133441
0.133615
0.133798
0.126808
0.127045
0.127278
0.127511
0.127743
0.127975
0.128206
0.128436
0.128665
0.128894
0.129123
0.129351
0.129573
0.129788
0.129998
0.130206
0.130413
0.130621
0.130829
0.131038
0.131249
0.13146
0.124677
0.124935
0.125197
0.125462
0.125731
0.126002
0.126277
0.126556
0.126837
0.127123
0.127413
0.127706
0.127995
0.128276
0.128548
0.128813
0.129071
0.129322
0.129568
0.129807
0.13004
0.130268
0.121132
0.121417
0.121707
0.122002
0.122304
0.122612
0.122927
0.123247
0.123573
0.123904
0.124241
0.124581
0.124915
0.125237
0.125549
0.125851
0.126144
0.126428
0.126704
0.126971
0.12723
0.127483
0.118914
0.119205
0.119497
0.119793
0.120091
0.120395
0.120703
0.121018
0.121339
0.121667
0.122003
0.122342
0.122678
0.123003
0.123317
0.123622
0.123916
0.124201
0.124476
0.124742
0.124999
0.125248
0.116241
0.116575
0.116906
0.117237
0.117567
0.117898
0.11823
0.118564
0.118902
0.119244
0.119591
0.11994
0.120281
0.12061
0.120925
0.121229
0.121521
0.121802
0.122073
0.122333
0.122584
0.122825
0.113949
0.114325
0.114695
0.115061
0.115423
0.115783
0.116141
0.116497
0.116854
0.117212
0.117572
0.117931
0.118281
0.118616
0.118935
0.11924
0.119532
0.119811
0.120078
0.120333
0.120577
0.12081
0.111435
0.111865
0.11229
0.112708
0.11312
0.113527
0.113928
0.114325
0.114718
0.115109
0.115496
0.115879
0.116245
0.116591
0.116919
0.117229
0.117524
0.117805
0.118072
0.118326
0.118568
0.1188
0.109011
0.109487
0.109957
0.110421
0.110879
0.111332
0.111779
0.112218
0.112651
0.113077
0.113496
0.113907
0.114298
0.114665
0.11501
0.115334
0.11564
0.115929
0.116202
0.116461
0.116707
0.11694
0.106556
0.107072
0.107583
0.108088
0.108589
0.109083
0.109571
0.110052
0.110527
0.110994
0.111453
0.111901
0.112326
0.112723
0.113093
0.11344
0.113766
0.114071
0.114359
0.114631
0.114886
0.115128
0.10421
0.104754
0.105294
0.105832
0.106364
0.106893
0.107415
0.107932
0.108442
0.108945
0.10944
0.109924
0.110382
0.11081
0.111209
0.111581
0.11193
0.112257
0.112563
0.112851
0.113121
0.113376
0.101954
0.102519
0.103082
0.103644
0.104203
0.104758
0.10531
0.105857
0.106398
0.106932
0.10746
0.107976
0.108467
0.108924
0.10935
0.109749
0.110122
0.110471
0.110798
0.111104
0.111392
0.111662
0.0998445
0.100422
0.101
0.101577
0.102154
0.102729
0.103301
0.10387
0.104435
0.104995
0.105549
0.106092
0.106609
0.107092
0.107544
0.107966
0.108361
0.108731
0.109078
0.109403
0.109708
0.109995
0.0978663
0.0984528
0.099041
0.0996303
0.10022
0.10081
0.101398
0.101984
0.102568
0.103148
0.103722
0.104287
0.104826
0.105331
0.105804
0.106246
0.106661
0.10705
0.107415
0.107757
0.108078
0.10838
0.0960114
0.0966054
0.097202
0.0978008
0.0984012
0.0990024
0.0996036
0.100204
0.100803
0.101398
0.10199
0.102573
0.10313
0.103653
0.104143
0.104603
0.105034
0.105439
0.10582
0.106177
0.106513
0.106829
0.094244
0.0948474
0.0954541
0.0960638
0.0966758
0.0972894
0.0979036
0.0985178
0.0991309
0.0997418
0.10035
0.100949
0.101522
0.102061
0.102566
0.103041
0.103487
0.103906
0.1043
0.104671
0.105019
0.105347
0.0925222
0.0931388
0.0937597
0.0943842
0.0950116
0.0956411
0.0962718
0.0969028
0.0975331
0.0981615
0.0987869
0.0994036
0.0999943
0.100549
0.10107
0.101559
0.102019
0.102451
0.102858
0.10324
0.1036
0.103938
0.0907939
0.0914298
0.0920708
0.0927164
0.0933655
0.0940174
0.0946709
0.0953249
0.0959783
0.0966297
0.0972779
0.0979169
0.0985285
0.0991025
0.0996412
0.100147
0.100622
0.101068
0.101487
0.101882
0.102253
0.102602
0.0890055
0.089667
0.0903352
0.0910093
0.0916883
0.0923709
0.0930559
0.0937418
0.0944272
0.0951105
0.09579
0.0964592
0.0970991
0.0976987
0.0982607
0.0987874
0.0992813
0.0997445
0.100179
0.100588
0.100971
0.101332
0.0871053
0.0877982
0.0885004
0.0892108
0.0899281
0.0906509
0.0913775
0.0921061
0.0928347
0.0935612
0.0942836
0.0949943
0.0956731
0.0963079
0.0969016
0.0974568
0.097976
0.0984619
0.0989169
0.0993431
0.0997427
0.100118
0.0850489
0.0857772
0.0865186
0.0872718
0.0880352
0.0888073
0.0895858
0.0903685
0.0911528
0.0919359
0.0927149
0.0934813
0.0942124
0.0948951
0.095532
0.0961261
0.0966801
0.0971968
0.0976791
0.0981295
0.0985503
0.0989437
0.0828036
0.0835685
0.0843515
0.0851513
0.0859664
0.0867949
0.0876343
0.0884818
0.0893342
0.0901878
0.0910386
0.0918766
0.0926761
0.0934219
0.0941164
0.0947625
0.0953633
0.0959218
0.0964412
0.0969244
0.0973742
0.0977931
0.0526018
0.0492861
0.0477253
0.0478825
0.0496192
0.0528418
0.108919
0.11047
0.111646
0.112414
0.112832
0.113021
0.146167
0.149095
0.152298
0.155723
0.159363
0.16307
0.126065
0.127835
0.129609
0.131369
0.132983
0.13425
0.137968
0.13936
0.140786
0.142186
0.143486
0.144667
0.127368
0.128051
0.128759
0.129496
0.130267
0.131075
0.133963
0.134501
0.135079
0.135695
0.136344
0.13702
0.131756
0.132092
0.132452
0.132834
0.133232
0.133641
0.134007
0.134251
0.134506
0.134767
0.135031
0.135293
0.131643
0.131799
0.131959
0.132122
0.132283
0.132439
0.130438
0.130554
0.130666
0.130774
0.130875
0.130967
0.127651
0.127732
0.127807
0.127875
0.127936
0.127986
0.125405
0.125466
0.125517
0.125559
0.125591
0.12561
0.122968
0.123009
0.12304
0.12306
0.123069
0.123066
0.120943
0.120969
0.120983
0.120986
0.120978
0.120956
0.118923
0.118934
0.118934
0.118923
0.118901
0.118868
0.11706
0.11706
0.11705
0.117029
0.116997
0.116953
0.115247
0.11524
0.115222
0.115194
0.115155
0.115105
0.113499
0.113488
0.113466
0.113434
0.11339
0.113335
0.111792
0.111779
0.111755
0.111721
0.111675
0.111618
0.110133
0.110121
0.110097
0.110062
0.110015
0.109957
0.108527
0.108516
0.108494
0.10846
0.108414
0.108357
0.106984
0.106975
0.106955
0.106923
0.106879
0.106823
0.105509
0.105504
0.105487
0.105458
0.105416
0.105362
0.104108
0.104107
0.104092
0.104066
0.104027
0.103976
0.102779
0.102781
0.10277
0.102746
0.10271
0.102662
0.101516
0.101521
0.101513
0.101493
0.101459
0.101413
0.10031
0.100318
0.100313
0.100295
0.100264
0.100221
0.0991459
0.0991562
0.0991536
0.0991384
0.0991103
0.0990693
0.0980077
0.0980197
0.0980191
0.098006
0.0979804
0.0979421
0.0570174
0.061809
0.0671618
0.0724785
0.0772159
0.0809892
0.0837528
0.085782
0.0872571
0.0882761
0.0888727
0.0890745
0.0888358
0.0882381
0.0873879
0.0863368
0.0851248
0.0837829
0.0823575
0.0808984
0.0795802
0.0782825
0.113201
0.113329
0.112962
0.111796
0.109507
0.106461
0.103961
0.10281
0.10272
0.103482
0.10473
0.106008
0.107213
0.108178
0.108884
0.109223
0.109283
0.109015
0.108386
0.107393
0.10607
0.104473
0.166198
0.168924
0.171666
0.174589
0.177768
0.180888
0.183239
0.18449
0.18463
0.183706
0.181951
0.17994
0.178224
0.177029
0.176212
0.175612
0.174977
0.174241
0.173378
0.172367
0.171223
0.16999
0.135227
0.135918
0.136527
0.137095
0.137718
0.13851
0.139585
0.141029
0.142879
0.145126
0.147458
0.149643
0.151464
0.15286
0.153657
0.153864
0.153558
0.152785
0.151656
0.150267
0.148704
0.146967
0.145678
0.146598
0.147565
0.148599
0.149722
0.150947
0.152283
0.153714
0.155181
0.156637
0.158024
0.159272
0.160207
0.160815
0.161325
0.161714
0.161987
0.162159
0.162246
0.162267
0.162226
0.16216
0.131811
0.132508
0.133276
0.134084
0.134915
0.13574
0.136537
0.137268
0.137896
0.138406
0.138782
0.139014
0.139114
0.139126
0.139085
0.139
0.138873
0.138702
0.138487
0.138225
0.13792
0.137567
0.137686
0.138328
0.138961
0.139575
0.140157
0.140693
0.14117
0.141574
0.141895
0.142123
0.142258
0.142303
0.14227
0.142174
0.142028
0.141836
0.141607
0.141337
0.141034
0.140697
0.140329
0.139937
0.134007
0.134319
0.134613
0.134881
0.135114
0.135303
0.135442
0.135522
0.135537
0.135481
0.135349
0.135139
0.134858
0.13452
0.134134
0.133709
0.133249
0.132763
0.132256
0.131729
0.131183
0.130615
0.135508
0.135668
0.135802
0.135909
0.135983
0.136019
0.136011
0.135955
0.135846
0.135681
0.135458
0.135175
0.134843
0.134473
0.134071
0.133641
0.133189
0.132721
0.13224
0.13175
0.131256
0.130763
0.132513
0.132499
0.132462
0.1324
0.132307
0.13218
0.132016
0.13181
0.131558
0.131258
0.130906
0.130501
0.130055
0.129583
0.129091
0.128583
0.128064
0.127538
0.127008
0.126479
0.125952
0.12543
0.130965
0.130867
0.130746
0.1306
0.130426
0.130223
0.129988
0.129718
0.129412
0.129066
0.128681
0.128257
0.127808
0.127345
0.126873
0.126394
0.125913
0.125431
0.124953
0.124479
0.124011
0.123552
0.127924
0.127748
0.12755
0.127331
0.127088
0.126818
0.12652
0.126193
0.125834
0.125442
0.125016
0.124557
0.124079
0.123594
0.123106
0.122616
0.122127
0.121642
0.12116
0.120685
0.120216
0.119753
0.125515
0.125306
0.125078
0.124829
0.124559
0.124266
0.123948
0.123605
0.123236
0.122839
0.122414
0.121963
0.1215
0.121035
0.12057
0.120107
0.119647
0.119191
0.118739
0.118292
0.117849
0.117412
0.122948
0.122715
0.122462
0.12219
0.121897
0.121582
0.121244
0.120883
0.120496
0.120083
0.119643
0.119178
0.118702
0.118225
0.117748
0.117274
0.116803
0.116335
0.115869
0.115407
0.114948
0.114491
0.120819
0.120567
0.120298
0.120009
0.1197
0.119369
0.119017
0.118641
0.118242
0.117817
0.117367
0.116893
0.116409
0.115925
0.115444
0.114965
0.114487
0.114013
0.11354
0.11307
0.112602
0.112135
0.118715
0.118446
0.11816
0.117854
0.117529
0.117184
0.116817
0.116427
0.116013
0.115574
0.115108
0.114616
0.114113
0.113608
0.113103
0.1126
0.112098
0.111598
0.111098
0.110601
0.110105
0.109611
0.116788
0.116503
0.116201
0.11588
0.115539
0.115178
0.114795
0.114389
0.113959
0.113503
0.113019
0.112511
0.11199
0.111467
0.110945
0.110422
0.109899
0.109377
0.108856
0.108339
0.107824
0.107312
0.114928
0.114626
0.114306
0.113968
0.113609
0.113229
0.112826
0.1124
0.111949
0.111471
0.110965
0.110433
0.109888
0.109343
0.108798
0.108253
0.10771
0.107169
0.10663
0.106094
0.105562
0.105032
0.113147
0.112828
0.112491
0.112135
0.111758
0.111359
0.110938
0.110493
0.110022
0.109525
0.108999
0.108447
0.107883
0.10732
0.106758
0.106198
0.105641
0.105087
0.104537
0.10399
0.103447
0.102908
0.11142
0.111085
0.110732
0.110359
0.109965
0.10955
0.109111
0.108649
0.108161
0.107646
0.107103
0.106535
0.105955
0.105377
0.104801
0.104228
0.103659
0.103093
0.102532
0.101975
0.101423
0.100875
0.109752
0.109403
0.109036
0.108649
0.108241
0.107812
0.107359
0.106883
0.106382
0.105854
0.105298
0.104717
0.104126
0.103537
0.102952
0.102371
0.101793
0.101221
0.100653
0.10009
0.0995325
0.0989803
0.108146
0.107785
0.107407
0.107009
0.10659
0.10615
0.105687
0.105201
0.10469
0.104152
0.103587
0.102997
0.102397
0.1018
0.101207
0.100619
0.100035
0.0994558
0.0988819
0.0983134
0.0977504
0.097193
0.106608
0.10624
0.105852
0.105446
0.105019
0.104571
0.104101
0.103607
0.103088
0.102543
0.10197
0.101373
0.100765
0.100161
0.0995615
0.098966
0.0983751
0.0977892
0.0972085
0.0966331
0.0960634
0.0954993
0.105145
0.10477
0.104376
0.103963
0.10353
0.103076
0.102599
0.102099
0.101573
0.101021
0.100441
0.0998348
0.0992186
0.0986056
0.0979962
0.0973908
0.0967897
0.0961932
0.0956017
0.0950153
0.0944344
0.0938591
0.103757
0.103377
0.102978
0.10256
0.102121
0.10166
0.101177
0.100669
0.100135
0.0995739
0.098983
0.0983649
0.0977356
0.0971085
0.0964842
0.0958632
0.0952459
0.0946328
0.0940243
0.0934209
0.0928228
0.0922304
0.102442
0.102056
0.101652
0.101227
0.100782
0.100313
0.0998207
0.0993022
0.098756
0.0981802
0.0975727
0.0969359
0.0962858
0.0956368
0.0949894
0.0943444
0.0937025
0.0930645
0.092431
0.0918026
0.0911799
0.0905635
0.101192
0.1008
0.100388
0.0999545
0.0994985
0.0990179
0.098511
0.0979758
0.0974103
0.0968122
0.0961792
0.0955135
0.0948322
0.0941504
0.0934692
0.0927897
0.0921131
0.0914403
0.0907726
0.0901108
0.0894558
0.0888086
0.0999959
0.0995941
0.0991706
0.0987237
0.0982515
0.0977521
0.0972231
0.0966625
0.0960678
0.0954364
0.0947658
0.0940584
0.0933326
0.092605
0.0918773
0.0911513
0.0904287
0.0897111
0.0890001
0.0882968
0.0876026
0.0869186
0.098839
0.0984223
0.0979811
0.0975133
0.0970167
0.096489
0.0959276
0.09533
0.0946932
0.0940147
0.0932917
0.0925272
0.0917417
0.0909539
0.0901664
0.0893817
0.0886024
0.0878306
0.0870683
0.0863173
0.085579
0.0848546
0.0977033
0.0972639
0.0967963
0.0962979
0.0957663
0.0951985
0.0945916
0.0939426
0.0932486
0.0925067
0.0917145
0.090876
0.0900147
0.089152
0.0882918
0.0874375
0.0865924
0.0857593
0.0849406
0.0841384
0.083354
0.0825889
0.0773067
0.0765447
0.0758341
0.0751828
0.0745959
0.0740724
0.0736134
0.0732451
0.0730571
0.0732441
0.0741203
0.0760439
0.0793202
0.0841507
0.090468
0.0973779
0.103958
0.110114
0.115722
0.120371
0.123175
0.122904
0.117605
0.110222
0.102546
0.0939501
0.0850499
0.0761015
0.0665341
0.0559733
0.0445028
0.0322078
0.0194179
0.00745008
0.00130406
0.102962
0.101606
0.100037
0.0982155
0.096009
0.0936121
0.0909329
0.0879473
0.0849729
0.0824401
0.0809467
0.0811064
0.0833405
0.0877331
0.0939865
0.10089
0.108062
0.115926
0.123191
0.128301
0.130002
0.12792
0.117723
0.108104
0.102076
0.100644
0.0996708
0.0960316
0.0900703
0.0801266
0.0670984
0.0511488
0.032821
0.0141258
0.00157189
0.168864
0.167812
0.16665
0.165385
0.164028
0.16258
0.161095
0.159644
0.158336
0.157313
0.156708
0.156586
0.157015
0.157823
0.158428
0.15863
0.158167
0.157018
0.155528
0.154395
0.151417
0.133523
0.108685
0.086519
0.0784054
0.0785557
0.0795454
0.0788485
0.0742537
0.066202
0.0548113
0.0416649
0.0274315
0.0127075
0.00150267
0.145535
0.144446
0.143269
0.142054
0.140881
0.13985
0.139069
0.138641
0.138613
0.138836
0.138585
0.137745
0.135869
0.1319
0.125358
0.117371
0.109081
0.103417
0.101667
0.100384
0.0958851
0.0839154
0.0655278
0.0508619
0.0430568
0.0380091
0.0324484
0.0267693
0.0224647
0.0185817
0.0148083
0.0111554
0.00748568
0.00355526
0.00066206
0.162151
0.1622
0.162272
0.162393
0.162593
0.162898
0.163265
0.163513
0.163223
0.16206
0.159433
0.155655
0.150268
0.141921
0.128502
0.11065
0.0926094
0.0833445
0.0846121
0.0906417
0.094284
0.0927234
0.0857046
0.0802257
0.0766805
0.0741169
0.0708367
0.0663434
0.0609943
0.0542047
0.0453851
0.03455
0.0220652
0.00939334
0.00105636
0.137307
0.137179
0.137003
0.136733
0.1363
0.135601
0.134554
0.133053
0.13097
0.128117
0.124245
0.118858
0.111233
0.10034
0.0865537
0.0725834
0.0614793
0.0547306
0.0521496
0.0519813
0.0528774
0.0532718
0.051827
0.0477465
0.0428375
0.0382011
0.0341197
0.0308363
0.0285588
0.0260292
0.022631
0.0180057
0.0121272
0.00546926
0.000673203
0.139641
0.139413
0.139127
0.138783
0.138365
0.137851
0.137215
0.136412
0.135371
0.133977
0.132041
0.129341
0.125185
0.119799
0.112954
0.104872
0.0954088
0.0849759
0.0743467
0.0640495
0.0549184
0.0469747
0.0408896
0.0358598
0.0305903
0.0238314
0.0165423
0.0114787
0.0102198
0.0104004
0.0102006
0.00894279
0.00663442
0.00339499
0.000464449
0.130156
0.129836
0.129468
0.129035
0.128524
0.127916
0.127188
0.126308
0.125239
0.123941
0.122369
0.120476
0.118178
0.115336
0.111697
0.107209
0.101965
0.0959765
0.0892663
0.0818975
0.0740008
0.0654639
0.0566445
0.0479112
0.0391802
0.0306694
0.0232195
0.0175046
0.0135633
0.0105298
0.00766344
0.0050221
0.00284555
0.00121335
0.000242713
0.130397
0.130126
0.129813
0.129454
0.12904
0.128564
0.128017
0.127386
0.126651
0.12578
0.124718
0.123383
0.121657
0.119439
0.11663
0.113273
0.109546
0.105464
0.10098
0.0959492
0.0901413
0.083131
0.0752852
0.0675123
0.0598867
0.052582
0.0455634
0.038816
0.0323747
0.0261278
0.0199774
0.0138961
0.00808666
0.00314302
0.000368861
0.125053
0.124813
0.124543
0.124234
0.123877
0.123464
0.122981
0.122411
0.121734
0.120928
0.119962
0.118802
0.117406
0.115723
0.11368
0.111276
0.1085
0.105263
0.101465
0.0969659
0.0915628
0.0847987
0.0767288
0.0682557
0.0596815
0.0512592
0.0431653
0.0355871
0.0285987
0.0222268
0.0164667
0.0112992
0.00671528
0.00279882
0.000287573
0.123234
0.123032
0.122802
0.122541
0.122241
0.121896
0.121498
0.121037
0.120498
0.11986
0.119093
0.118152
0.116968
0.115482
0.113613
0.111355
0.108753
0.105732
0.102187
0.0979537
0.092795
0.0862154
0.0782082
0.0696777
0.0610348
0.0524545
0.0442436
0.036576
0.0295107
0.0230506
0.0171653
0.0118196
0.00700243
0.00285843
0.000324584
0.119435
0.119254
0.119051
0.118818
0.118551
0.118243
0.117883
0.117461
0.116961
0.116361
0.115635
0.114748
0.113656
0.112298
0.110602
0.108557
0.106184
0.103399
0.10007
0.0960461
0.0911226
0.0848687
0.0772895
0.069204
0.0609052
0.0525845
0.0444456
0.0367254
0.0295482
0.0229755
0.0170242
0.0116824
0.00694581
0.00290205
0.000281279
0.117118
0.116949
0.116756
0.116536
0.116281
0.115988
0.115647
0.115247
0.114775
0.114211
0.113526
0.112679
0.111628
0.110312
0.10866
0.106657
0.104318
0.101563
0.098286
0.0943235
0.0894596
0.0832394
0.0756478
0.0675132
0.0591549
0.050788
0.042693
0.035087
0.0280912
0.0217529
0.0160654
0.010994
0.00651012
0.00269019
0.000281905
0.114182
0.114014
0.113823
0.113604
0.113351
0.113058
0.112715
0.112311
0.111831
0.111257
0.110562
0.109715
0.108672
0.107374
0.10575
0.103793
0.101519
0.0988476
0.0956621
0.0918075
0.0870895
0.0811101
0.0738935
0.0662135
0.0583161
0.0503971
0.0426259
0.0352127
0.0282869
0.021931
0.0161869
0.0110664
0.00657161
0.00276483
0.000260979
0.111822
0.11165
0.111454
0.111229
0.11097
0.110671
0.110322
0.109913
0.109429
0.108849
0.108148
0.107295
0.106249
0.10495
0.103325
0.101368
0.0990906
0.096409
0.0932137
0.0893628
0.0846724
0.0787427
0.0715921
0.0639851
0.0561558
0.0483196
0.0406859
0.0334561
0.0267601
0.0206697
0.015207
0.0103621
0.00612003
0.00253786
0.000244992
0.109278
0.109101
0.108899
0.108669
0.108403
0.108095
0.107736
0.107314
0.106815
0.106221
0.105509
0.104647
0.103593
0.102288
0.10066
0.0987023
0.0964343
0.093776
0.0906249
0.0868465
0.0822713
0.0765307
0.0696715
0.0624289
0.0549968
0.0475743
0.04029
0.0333152
0.0267739
0.0207493
0.0152916
0.0104249
0.0061622
0.00256865
0.000235152
0.10697
0.106789
0.106582
0.106344
0.106072
0.105756
0.10539
0.10496
0.104453
0.103851
0.10313
0.10226
0.1012
0.0998918
0.0982628
0.0963034