/*--------------------------------*- C++ -*----------------------------------*\
  =========                 |
  \\      /  F ield         | OpenFOAM: The Open Source CFD Toolbox
   \\    /   O peration     | Website:  https://openfoam.org
    \\  /    A nd           | Version:  8
     \\/     M anipulation  |
\*---------------------------------------------------------------------------*/
FoamFile
{
    version     2.0;
    format      ascii;
    class       volScalarField;
    location    "0.16";
    object      rho;
}
// * * * * * * * * * * * * * * * * * * * * * * * * * * * * * * * * * * * * * //

dimensions      [1 -3 0 0 0 0 0];

internalField   nonuniform List<scalar> 
15677
(
1.40394
1.40435
1.40446
1.40435
1.40412
1.40376
1.40327
1.40265
1.4019
1.40099
1.3999
1.39861
1.39715
1.39511
1.39275
1.39094
1.3898
1.389
1.38839
1.38799
1.38772
1.38756
1.3874
1.38725
1.38713
1.38701
1.3869
1.38682
1.38676
1.38673
1.38672
1.38674
1.38677
1.38683
1.38694
1.02311
1.02234
1.0209
1.01909
1.01724
1.01544
1.01378
1.01226
1.01074
1.00929
1.00833
1.00791
1.00797
1.01014
1.01414
1.01769
1.02042
1.02223
1.0234
1.0237
1.02301
1.02179
1.02052
1.01931
1.01822
1.01727
1.01643
1.01568
1.01501
1.0144
1.01383
1.01328
1.01279
1.01232
1.01189
1.24446
1.24492
1.24503
1.24477
1.24403
1.24276
1.24095
1.2386
1.23577
1.23288
1.23082
1.23066
1.23197
1.23546
1.2406
1.24568
1.25045
1.25462
1.25757
1.25986
1.26232
1.26478
1.26704
1.26895
1.27047
1.27161
1.27251
1.27324
1.27383
1.27427
1.2746
1.27487
1.27508
1.27527
1.27548
1.12584
1.1264
1.12661
1.12665
1.12656
1.12633
1.12589
1.1252
1.12414
1.12265
1.12061
1.11845
1.11699
1.11548
1.11435
1.11327
1.11196
1.11042
1.10866
1.10653
1.10413
1.10175
1.09969
1.09808
1.09702
1.0965
1.09634
1.09609
1.09579
1.09549
1.09519
1.09493
1.09469
1.09447
1.09432
1.2058
1.20521
1.20508
1.20515
1.20543
1.20596
1.20668
1.20745
1.20815
1.20865
1.20894
1.20922
1.20932
1.20925
1.20913
1.20907
1.20909
1.20917
1.20928
1.20947
1.20979
1.2103
1.21096
1.21176
1.21264
1.21349
1.21418
1.21492
1.21565
1.21631
1.21692
1.21747
1.21794
1.21836
1.21871
1.14601
1.14593
1.14588
1.14585
1.14582
1.14575
1.1456
1.14533
1.14501
1.14468
1.14438
1.14411
1.14389
1.14366
1.14333
1.14291
1.14244
1.14194
1.14134
1.14064
1.13994
1.13929
1.13877
1.1384
1.13812
1.13788
1.13768
1.13751
1.1373
1.13711
1.13696
1.13684
1.13673
1.13661
1.13654
1.18549
1.18582
1.18611
1.18639
1.18669
1.187
1.1873
1.18755
1.18773
1.18781
1.18782
1.18775
1.18764
1.18753
1.18751
1.18755
1.18766
1.18781
1.18802
1.18832
1.18874
1.1893
1.18982
1.19015
1.19034
1.19053
1.19067
1.19079
1.19091
1.19104
1.19116
1.19128
1.19138
1.19149
1.19155
1.15849
1.15862
1.15875
1.15887
1.15894
1.15899
1.15898
1.15894
1.15889
1.15885
1.15881
1.15879
1.15877
1.15875
1.15861
1.15842
1.15819
1.15793
1.15764
1.15733
1.15698
1.15671
1.15656
1.15644
1.15638
1.15627
1.15617
1.15607
1.15598
1.1559
1.15584
1.15579
1.15575
1.15571
1.1557
1.17838
1.17836
1.17835
1.17836
1.17838
1.1784
1.17841
1.1784
1.17838
1.17833
1.17825
1.17814
1.17802
1.17792
1.17791
1.17795
1.17804
1.17818
1.17836
1.17859
1.1789
1.17908
1.17914
1.17922
1.1793
1.17937
1.17943
1.17949
1.17955
1.17961
1.17966
1.17971
1.17977
1.17983
1.17986
1.16486
1.16488
1.16489
1.16489
1.1649
1.1649
1.1649
1.16492
1.16494
1.16497
1.16501
1.16506
1.16512
1.16514
1.16511
1.16506
1.165
1.16491
1.16479
1.16466
1.16458
1.16456
1.16459
1.16458
1.16454
1.16451
1.16447
1.16444
1.1644
1.16437
1.16435
1.16433
1.16431
1.16429
1.1643
1.17379
1.17379
1.17378
1.17378
1.17378
1.17377
1.17375
1.17374
1.17371
1.17367
1.17363
1.17359
1.17354
1.17351
1.17353
1.17356
1.17363
1.17371
1.17383
1.17396
1.17398
1.17401
1.17404
1.17408
1.17412
1.17417
1.1742
1.17423
1.17427
1.1743
1.17433
1.17436
1.17438
1.17441
1.17442
1.16784
1.16785
1.16785
1.16784
1.16784
1.16783
1.16783
1.16784
1.16785
1.16787
1.16791
1.16795
1.16798
1.168
1.16801
1.16801
1.16799
1.16796
1.16793
1.16794
1.168
1.16803
1.16805
1.16805
1.16804
1.16803
1.16801
1.168
1.16798
1.16797
1.16796
1.16795
1.16795
1.16794
1.16795
1.17171
1.17172
1.17172
1.17172
1.17171
1.17171
1.1717
1.17169
1.17167
1.17165
1.17162
1.17159
1.17157
1.17155
1.17156
1.17157
1.1716
1.17166
1.17167
1.17166
1.17166
1.17166
1.17168
1.1717
1.17173
1.17176
1.17179
1.17182
1.17183
1.17185
1.17187
1.17188
1.17189
1.17191
1.17192
1.16908
1.16908
1.16908
1.16908
1.16908
1.16907
1.16907
1.16908
1.16909
1.1691
1.16913
1.16916
1.16918
1.1692
1.16922
1.16922
1.16923
1.16926
1.16931
1.16935
1.16938
1.16941
1.16942
1.16942
1.16942
1.16941
1.16941
1.1694
1.16939
1.16939
1.16938
1.16938
1.16938
1.16938
1.16939
1.17082
1.17082
1.17082
1.17082
1.17082
1.17081
1.17081
1.1708
1.17078
1.17077
1.17075
1.17073
1.17071
1.17069
1.17069
1.17068
1.17067
1.17066
1.17065
1.17064
1.17064
1.17065
1.17066
1.17068
1.1707
1.17072
1.17074
1.17075
1.17077
1.17078
1.17078
1.17079
1.17079
1.1708
1.17081
1.16957
1.16957
1.16957
1.16957
1.16957
1.16957
1.16957
1.16957
1.16958
1.1696
1.16961
1.16963
1.16965
1.16967
1.16969
1.16973
1.16975
1.16979
1.16982
1.16984
1.16986
1.16988
1.16988
1.16989
1.16989
1.16989
1.16988
1.16988
1.16988
1.16988
1.16988
1.16988
1.16988
1.16988
1.16989
1.17042
1.17042
1.17042
1.17042
1.17042
1.17041
1.17041
1.1704
1.17039
1.17037
1.17036
1.17034
1.17031
1.17029
1.17027
1.17025
1.17024
1.17023
1.17023
1.17023
1.17023
1.17024
1.17025
1.17026
1.17027
1.17028
1.17029
1.1703
1.17031
1.17032
1.17032
1.17032
1.17032
1.17033
1.17033
1.16979
1.16979
1.16979
1.16979
1.16979
1.16979
1.16979
1.16979
1.1698
1.16981
1.16983
1.16984
1.16986
1.16988
1.1699
1.16991
1.16993
1.16995
1.16996
1.16997
1.16999
1.16999
1.17
1.17
1.17
1.17
1.17
1.17
1.17
1.17
1.17
1.17001
1.17001
1.17001
1.17002
1.1702
1.1702
1.1702
1.1702
1.1702
1.17019
1.17019
1.17018
1.17017
1.17016
1.17015
1.17013
1.17011
1.1701
1.17008
1.17008
1.17007
1.17007
1.17007
1.17007
1.17007
1.17007
1.17008
1.17009
1.17009
1.1701
1.1701
1.17011
1.17011
1.17012
1.17012
1.17012
1.17012
1.17013
1.17013
1.16992
1.16992
1.16992
1.16992
1.16991
1.16991
1.16992
1.16992
1.16992
1.16993
1.16993
1.16994
1.16994
1.16995
1.16996
1.16997
1.16997
1.16998
1.16999
1.16999
1.16999
1.17
1.17
1.17
1.17
1.17001
1.17001
1.17001
1.17001
1.17001
1.17001
1.17001
1.17001
1.17002
1.17002
1.17009
1.17009
1.17009
1.17009
1.17009
1.17009
1.17008
1.17008
1.17007
1.17006
1.17005
1.17004
1.17003
1.17002
1.17001
1.17001
1.17001
1.17
1.17
1.17
1.17
1.17001
1.17001
1.17001
1.17001
1.17002
1.17002
1.17002
1.17002
1.17002
1.17003
1.17003
1.17003
1.17003
1.17003
1.16998
1.16998
1.16998
1.16998
1.16998
1.16998
1.16997
1.16997
1.16997
1.16997
1.16997
1.16997
1.16998
1.16998
1.16998
1.16998
1.16998
1.16998
1.16998
1.16998
1.16998
1.16998
1.16998
1.16998
1.16998
1.16998
1.16998
1.16998
1.16999
1.16999
1.16999
1.16999
1.16999
1.16999
1.16999
1.17005
1.17005
1.17005
1.17005
1.17005
1.17005
1.17004
1.17004
1.17003
1.17002
1.17002
1.17001
1.17
1.17
1.16999
1.16999
1.16998
1.16998
1.16998
1.16998
1.16998
1.16998
1.16998
1.16998
1.16998
1.16998
1.16998
1.16998
1.16998
1.16998
1.16998
1.16998
1.16998
1.16998
1.16999
1.17002
1.17002
1.17001
1.17001
1.17001
1.17001
1.17
1.17
1.17
1.17
1.17
1.16999
1.16999
1.16999
1.16998
1.16998
1.16998
1.16997
1.16997
1.16997
1.16997
1.16997
1.16997
1.16997
1.16997
1.16997
1.16997
1.16997
1.16997
1.16997
1.16997
1.16997
1.16997
1.16997
1.16997
1.17005
1.17005
1.17004
1.17004
1.17004
1.17004
1.17003
1.17003
1.17002
1.17002
1.17001
1.17001
1.17
1.16999
1.16999
1.16998
1.16998
1.16998
1.16997
1.16997
1.16997
1.16997
1.16996
1.16996
1.16996
1.16996
1.16996
1.16996
1.16996
1.16996
1.16996
1.16996
1.16996
1.16996
1.16996
1.17004
1.17004
1.17004
1.17003
1.17003
1.17003
1.17002
1.17002
1.17002
1.17001
1.17001
1.17001
1.17
1.16999
1.16999
1.16998
1.16998
1.16998
1.16997
1.16997
1.16997
1.16996
1.16996
1.16996
1.16996
1.16996
1.16996
1.16996
1.16996
1.16996
1.16996
1.16996
1.16996
1.16996
1.16996
1.17006
1.17005
1.17005
1.17005
1.17005
1.17004
1.17004
1.17003
1.17003
1.17002
1.17002
1.17001
1.17001
1.17
1.16999
1.16999
1.16998
1.16998
1.16997
1.16997
1.16997
1.16996
1.16996
1.16996
1.16996
1.16996
1.16996
1.16996
1.16996
1.16996
1.16996
1.16996
1.16996
1.16996
1.16996
1.17006
1.17006
1.17005
1.17005
1.17005
1.17005
1.17004
1.17004
1.17003
1.17003
1.17002
1.17002
1.17001
1.17
1.17
1.16999
1.16999
1.16998
1.16998
1.16997
1.16997
1.16997
1.16996
1.16996
1.16996
1.16996
1.16996
1.16996
1.16996
1.16996
1.16996
1.16996
1.16996
1.16996
1.16996
1.17007
1.17007
1.17007
1.17006
1.17006
1.17006
1.17005
1.17005
1.17004
1.17004
1.17003
1.17003
1.17002
1.17001
1.17
1.17
1.16999
1.16998
1.16998
1.16997
1.16997
1.16997
1.16996
1.16996
1.16996
1.16996
1.16996
1.16996
1.16996
1.16996
1.16996
1.16996
1.16996
1.16996
1.16996
1.17008
1.17008
1.17007
1.17007
1.17007
1.17006
1.17006
1.17005
1.17005
1.17004
1.17004
1.17003
1.17002
1.17002
1.17001
1.17
1.16999
1.16999
1.16998
1.16998
1.16997
1.16997
1.16997
1.16996
1.16996
1.16996
1.16996
1.16996
1.16996
1.16996
1.16996
1.16996
1.16996
1.16996
1.16996
1.38708
1.38778
1.38876
1.38981
1.39092
1.39213
1.39344
1.39483
1.3963
1.39782
1.39937
1.40095
1.40252
1.40401
1.40541
1.40672
1.40794
1.40908
1.41016
1.41117
1.41214
1.41303
1.01173
1.0109
1.00981
1.00872
1.00761
1.00646
1.00528
1.00408
1.00288
1.00168
1.00051
0.999377
0.998288
0.997305
0.996428
0.99563
0.994878
0.994142
0.993412
0.992688
0.991967
0.991416
1.2756
1.27589
1.27627
1.27667
1.27711
1.27758
1.27813
1.27877
1.27951
1.28034
1.28128
1.28233
1.28351
1.28474
1.286
1.28728
1.28855
1.28979
1.29097
1.2921
1.29317
1.29398
1.09446
1.0944
1.0942
1.09395
1.0938
1.09373
1.0937
1.09372
1.09381
1.09395
1.09412
1.09432
1.09451
1.0947
1.0949
1.09509
1.09526
1.09541
1.09554
1.09551
1.09555
1.09566
1.21886
1.21892
1.21897
1.21897
1.21891
1.21879
1.21862
1.2184
1.21813
1.21783
1.2175
1.2172
1.21694
1.21672
1.21653
1.21637
1.21625
1.21615
1.2161
1.21608
1.21609
1.21609
1.13674
1.13697
1.13715
1.13733
1.13752
1.13772
1.13794
1.13817
1.13842
1.13869
1.13898
1.13926
1.1395
1.13973
1.13995
1.14015
1.14033
1.1405
1.14065
1.14079
1.14087
1.14104
1.19137
1.1912
1.19106
1.19091
1.19074
1.19057
1.19038
1.19019
1.19
1.1898
1.1896
1.18941
1.18926
1.18913
1.18902
1.18892
1.18884
1.18877
1.18871
1.18867
1.18864
1.18857
1.15585
1.15605
1.1562
1.15636
1.15653
1.15671
1.1569
1.15709
1.1573
1.1575
1.15771
1.15791
1.15808
1.15824
1.1584
1.15854
1.15867
1.1588
1.15893
1.15905
1.15917
1.15933
1.17971
1.17957
1.17945
1.17931
1.17917
1.17902
1.17887
1.17872
1.17857
1.17842
1.17827
1.17814
1.17803
1.17793
1.17785
1.17777
1.1777
1.17764
1.17758
1.17752
1.17746
1.17739
1.1644
1.16454
1.16466
1.16478
1.1649
1.16503
1.16515
1.16528
1.16542
1.16555
1.16568
1.1658
1.16591
1.16601
1.1661
1.16618
1.16627
1.16635
1.16643
1.16651
1.16659
1.16668
1.17433
1.17425
1.17418
1.17409
1.17401
1.17392
1.17384
1.17375
1.17366
1.17358
1.17349
1.17342
1.17335
1.17329
1.17324
1.17319
1.17315
1.17311
1.17307
1.17304
1.173
1.17295
1.16801
1.16811
1.16818
1.16826
1.16834
1.16842
1.1685
1.16859
1.16866
1.16874
1.16881
1.16888
1.16894
1.16899
1.16904
1.16909
1.16913
1.16918
1.16922
1.16926
1.1693
1.16935
1.17186
1.17183
1.17179
1.17175
1.17171
1.17167
1.17163
1.17159
1.17155
1.17151
1.17148
1.17144
1.17141
1.17139
1.17137
1.17136
1.17134
1.17132
1.17131
1.1713
1.17128
1.17126
1.16942
1.16948
1.16952
1.16957
1.16962
1.16966
1.16971
1.16975
1.1698
1.16984
1.16988
1.16991
1.16994
1.16997
1.17
1.17002
1.17004
1.17006
1.17008
1.1701
1.17012
1.17013
1.17078
1.17077
1.17076
1.17074
1.17073
1.17071
1.1707
1.17068
1.17067
1.17066
1.17066
1.17065
1.17065
1.17065
1.17065
1.17065
1.17065
1.17065
1.17065
1.17065
1.17065
1.17064
1.1699
1.16994
1.16997
1.16999
1.17002
1.17004
1.17007
1.17009
1.17012
1.17015
1.17017
1.1702
1.17022
1.17023
1.17025
1.17026
1.17028
1.17029
1.1703
1.17031
1.17032
1.17033
1.17032
1.17032
1.17032
1.17032
1.17032
1.17033
1.17033
1.17034
1.17034
1.17034
1.17035
1.17035
1.17036
1.17036
1.17037
1.17038
1.17038
1.17039
1.17039
1.1704
1.1704
1.1704
1.17002
1.17005
1.17006
1.17008
1.1701
1.17011
1.17013
1.17014
1.17016
1.17017
1.17019
1.1702
1.17022
1.17023
1.17024
1.17025
1.17026
1.17027
1.17028
1.17029
1.1703
1.1703
1.17013
1.17013
1.17014
1.17014
1.17015
1.17015
1.17016
1.17017
1.17018
1.17018
1.17019
1.1702
1.17021
1.17022
1.17023
1.17024
1.17025
1.17025
1.17026
1.17027
1.17028
1.17028
1.17002
1.17003
1.17004
1.17005
1.17006
1.17008
1.17009
1.1701
1.17011
1.17012
1.17013
1.17014
1.17015
1.17016
1.17017
1.17018
1.17019
1.1702
1.17021
1.17022
1.17022
1.17023
1.17003
1.17004
1.17004
1.17005
1.17005
1.17006
1.17007
1.17008
1.17009
1.17009
1.1701
1.17011
1.17012
1.17013
1.17014
1.17015
1.17016
1.17017
1.17018
1.17018
1.17019
1.1702
1.16999
1.17
1.17001
1.17001
1.17002
1.17003
1.17004
1.17004
1.17005
1.17006
1.17007
1.17008
1.17009
1.1701
1.17011
1.17011
1.17012
1.17013
1.17014
1.17015
1.17015
1.17016
1.16998
1.16999
1.16999
1.17
1.17
1.17001
1.17002
1.17002
1.17003
1.17004
1.17004
1.17005
1.17006
1.17007
1.17008
1.17009
1.17009
1.1701
1.17011
1.17012
1.17012
1.17013
1.16997
1.16997
1.16998
1.16998
1.16999
1.16999
1.17
1.17
1.17001
1.17002
1.17002
1.17003
1.17004
1.17004
1.17005
1.17006
1.17007
1.17007
1.17008
1.17009
1.1701
1.1701
1.16996
1.16997
1.16997
1.16997
1.16998
1.16998
1.16998
1.16999
1.16999
1.17
1.17001
1.17001
1.17002
1.17002
1.17003
1.17004
1.17004
1.17005
1.17006
1.17006
1.17007
1.17008
1.16996
1.16996
1.16996
1.16996
1.16997
1.16997
1.16997
1.16998
1.16998
1.16999
1.16999
1.17
1.17
1.17001
1.17001
1.17002
1.17003
1.17003
1.17004
1.17004
1.17005
1.17005
1.16996
1.16996
1.16996
1.16996
1.16996
1.16996
1.16997
1.16997
1.16997
1.16998
1.16998
1.16999
1.16999
1.17
1.17
1.17001
1.17001
1.17002
1.17002
1.17003
1.17003
1.17004
1.16996
1.16996
1.16996
1.16996
1.16996
1.16996
1.16996
1.16997
1.16997
1.16997
1.16997
1.16998
1.16998
1.16999
1.16999
1.16999
1.17
1.17
1.17001
1.17001
1.17002
1.17002
1.16996
1.16996
1.16996
1.16996
1.16996
1.16996
1.16996
1.16996
1.16996
1.16997
1.16997
1.16997
1.16997
1.16998
1.16998
1.16999
1.16999
1.16999
1.17
1.17
1.17001
1.17001
1.16996
1.16996
1.16996
1.16996
1.16996
1.16996
1.16996
1.16996
1.16996
1.16996
1.16997
1.16997
1.16997
1.16997
1.16998
1.16998
1.16998
1.16999
1.16999
1.16999
1.17
1.17
1.41334
1.41321
1.41305
1.41296
1.41296
1.41294
0.991078
0.990751
0.990523
0.990337
0.990199
0.99018
1.29461
1.29549
1.29625
1.29689
1.29738
1.29771
1.09561
1.09505
1.09436
1.09355
1.09262
1.09157
1.21622
1.21668
1.21718
1.21772
1.21828
1.21887
1.1411
1.14092
1.14072
1.14052
1.14032
1.14011
1.18859
1.1888
1.18901
1.18923
1.18943
1.18964
1.15941
1.15938
1.15935
1.15932
1.15931
1.1593
1.17738
1.17746
1.17754
1.17762
1.17768
1.17775
1.16673
1.16673
1.16673
1.16674
1.16675
1.16677
1.17294
1.17297
1.173
1.17302
1.17304
1.17306
1.16937
1.16937
1.16937
1.16937
1.16938
1.16939
1.17127
1.17128
1.17128
1.17129
1.17129
1.17129
1.17014
1.17014
1.17014
1.17014
1.17014
1.17015
1.17065
1.17065
1.17065
1.17065
1.17065
1.17065
1.17034
1.17034
1.17034
1.17034
1.17034
1.17034
1.17041
1.17041
1.17041
1.17041
1.17041
1.17041
1.17031
1.17031
1.17031
1.17031
1.17031
1.17031
1.17029
1.17029
1.17029
1.17029
1.17029
1.17029
1.17024
1.17024
1.17024
1.17024
1.17024
1.17024
1.1702
1.1702
1.1702
1.1702
1.1702
1.1702
1.17017
1.17017
1.17017
1.17017
1.17017
1.17017
1.17014
1.17013
1.17014
1.17014
1.17014
1.17014
1.17011
1.17011
1.17011
1.17011
1.17011
1.17011
1.17008
1.17008
1.17008
1.17008
1.17008
1.17008
1.17006
1.17006
1.17006
1.17006
1.17006
1.17006
1.17004
1.17004
1.17004
1.17004
1.17004
1.17004
1.17003
1.17003
1.17003
1.17003
1.17003
1.17003
1.17001
1.17001
1.17001
1.17001
1.17001
1.17001
1.17
1.17
1.17
1.17
1.17
1.17
1.41247
1.41143
1.41028
1.4091
1.40789
1.40665
1.40539
1.40412
1.40283
1.40154
1.40026
1.399
1.3978
1.39666
1.39558
1.39456
1.3936
1.39271
1.39187
1.39106
1.39027
1.38964
0.990214
0.990581
0.991142
0.991708
0.992274
0.992844
0.993466
0.994174
0.994957
0.995835
0.996862
0.997889
0.998902
0.999888
1.00085
1.0018
1.00267
1.00346
1.00414
1.00473
1.00528
1.00563
1.29817
1.29815
1.29785
1.29749
1.29712
1.29669
1.29619
1.29569
1.29528
1.29483
1.29435
1.29409
1.29397
1.29391
1.29381
1.29371
1.29368
1.2937
1.29369
1.29359
1.29344
1.29339
1.09024
1.08898
1.08785
1.08677
1.0858
1.08494
1.08417
1.08341
1.08263
1.08199
1.08152
1.08113
1.08082
1.0806
1.08044
1.08033
1.08032
1.08049
1.08074
1.08105
1.08141
1.08172
1.21962
1.22049
1.2213
1.22208
1.22285
1.2236
1.22435
1.22511
1.22591
1.22676
1.22765
1.22857
1.22944
1.23014
1.23061
1.23089
1.231
1.231
1.23093
1.23077
1.23051
1.23022
1.13967
1.13921
1.13883
1.13847
1.13811
1.13776
1.13742
1.1371
1.1368
1.13654
1.13631
1.13609
1.13587
1.13566
1.13548
1.13531
1.13514
1.13497
1.1348
1.13465
1.13452
1.13436
1.18992
1.19035
1.19075
1.19113
1.19152
1.1919
1.19227
1.19264
1.193
1.19335
1.1937
1.19406
1.19443
1.19479
1.19512
1.19543
1.19571
1.19596
1.19619
1.19639
1.19657
1.19678
1.15916
1.15895
1.15877
1.15859
1.15842
1.15824
1.15805
1.15787
1.15768
1.15749
1.15728
1.15706
1.15682
1.15658
1.15634
1.1561
1.15585
1.15561
1.15539
1.15519
1.15498
1.15472
1.17787
1.17807
1.17825
1.17843
1.17861
1.1788
1.17898
1.17916
1.17935
1.17954
1.17974
1.17995
1.18017
1.18039
1.1806
1.1808
1.181
1.18118
1.18135
1.18151
1.18166
1.18183
1.16672
1.16662
1.16653
1.16644
1.16634
1.16625
1.16614
1.16603
1.16591
1.16579
1.16565
1.16549
1.16531
1.16513
1.16495
1.16477
1.16459
1.16441
1.16424
1.16406
1.16388
1.16368
1.17311
1.17319
1.17327
1.17334
1.17342
1.17349
1.17357
1.17365
1.17373
1.17382
1.17391
1.17402
1.17413
1.17424
1.17436
1.17447
1.17458
1.17468
1.17479
1.17489
1.17499
1.17509
1.16938
1.16933
1.16929
1.16924
1.16919
1.16914
1.16909
1.16903
1.16897
1.1689
1.16883
1.16874
1.16864
1.16854
1.16843
1.16833
1.16822
1.16811
1.168
1.16789
1.16778
1.16765
1.17131
1.17133
1.17136
1.17138
1.1714
1.17143
1.17145
1.17148
1.17151
1.17154
1.17158
1.17162
1.17166
1.17171
1.17176
1.17182
1.17187
1.17192
1.17198
1.17203
1.17208
1.17213
1.17015
1.17013
1.17011
1.17009
1.17007
1.17005
1.17002
1.17
1.16997
1.16993
1.1699
1.16985
1.1698
1.16975
1.1697
1.16964
1.16959
1.16953
1.16947
1.16941
1.16935
1.16928
1.17065
1.17066
1.17067
1.17067
1.17068
1.17068
1.17068
1.17068
1.17069
1.17069
1.17069
1.1707
1.17071
1.17072
1.17073
1.17075
1.17077
1.17079
1.17081
1.17084
1.17086
1.17088
1.17034
1.17033
1.17032
1.17031
1.1703
1.17028
1.17027
1.17025
1.17024
1.17022
1.1702
1.17017
1.17015
1.17011
1.17008
1.17005
1.17002
1.16999
1.16996
1.16993
1.1699
1.16986
1.17041
1.17041
1.1704
1.1704
1.17039
1.17039
1.17039
1.17038
1.17038
1.17037
1.17037
1.17036
1.17036
1.17036
1.17036
1.17036
1.17036
1.17036
1.17036
1.17036
1.17036
1.17036
1.17031
1.1703
1.17029
1.17028
1.17028
1.17027
1.17026
1.17025
1.17024
1.17023
1.17021
1.1702
1.17019
1.17017
1.17015
1.17014
1.17012
1.17011
1.17009
1.17007
1.17005
1.17003
1.17029
1.17028
1.17027
1.17027
1.17026
1.17025
1.17025
1.17024
1.17023
1.17022
1.17021
1.17021
1.1702
1.17019
1.17019
1.17018
1.17018
1.17017
1.17017
1.17017
1.17016
1.17016
1.17024
1.17023
1.17022
1.17021
1.17021
1.1702
1.17019
1.17018
1.17017
1.17016
1.17015
1.17014
1.17013
1.17012
1.17011
1.1701
1.17009
1.17008
1.17007
1.17006
1.17005
1.17004
1.1702
1.17019
1.17019
1.17018
1.17017
1.17017
1.17016
1.17015
1.17014
1.17013
1.17013
1.17012
1.17011
1.1701
1.17009
1.17009
1.17008
1.17008
1.17007
1.17007
1.17006
1.17006
1.17017
1.17016
1.17015
1.17014
1.17014
1.17013
1.17012
1.17012
1.17011
1.1701
1.17009
1.17008
1.17008
1.17007
1.17006
1.17005
1.17005
1.17004
1.17003
1.17003
1.17002
1.17002
1.17013
1.17013
1.17012
1.17011
1.17011
1.1701
1.17009
1.17009
1.17008
1.17007
1.17007
1.17006
1.17005
1.17005
1.17004
1.17003
1.17003
1.17003
1.17002
1.17002
1.17002
1.17001
1.17011
1.1701
1.17009
1.17009
1.17008
1.17008
1.17007
1.17006
1.17006
1.17005
1.17004
1.17004
1.17003
1.17003
1.17002
1.17002
1.17001
1.17001
1.17001
1.17
1.17
1.17
1.17008
1.17008
1.17007
1.17006
1.17006
1.17005
1.17005
1.17004
1.17004
1.17003
1.17003
1.17002
1.17002
1.17001
1.17001
1.17001
1.17
1.17
1.17
1.17
1.17
1.17
1.17006
1.17005
1.17005
1.17004
1.17004
1.17004
1.17003
1.17003
1.17002
1.17002
1.17001
1.17001
1.17001
1.17
1.17
1.17
1.17
1.16999
1.16999
1.16999
1.16999
1.16999
1.17004
1.17004
1.17003
1.17003
1.17002
1.17002
1.17002
1.17001
1.17001
1.17001
1.17
1.17
1.17
1.16999
1.16999
1.16999
1.16999
1.16999
1.16999
1.16999
1.16999
1.16999
1.17003
1.17002
1.17002
1.17002
1.17001
1.17001
1.17001
1.17
1.17
1.17
1.16999
1.16999
1.16999
1.16999
1.16999
1.16999
1.16999
1.16999
1.16999
1.16999
1.16999
1.17
1.17002
1.17001
1.17001
1.17
1.17
1.17
1.17
1.16999
1.16999
1.16999
1.16999
1.16999
1.16999
1.16999
1.16999
1.16999
1.16999
1.16999
1.16999
1.16999
1.17
1.17
1.17
1.17
1.17
1.17
1.16999
1.16999
1.16999
1.16999
1.16999
1.16999
1.16999
1.16999
1.16999
1.16999
1.16999
1.16999
1.16999
1.16999
1.17
1.17
1.17
1.17001
1.38948
1.38944
1.38947
1.38951
1.38957
1.38967
1.38982
1.39003
1.3903
1.39063
1.39107
1.3915
1.39193
1.39222
1.39229
1.39213
1.39169
1.3911
1.39067
1.39046
1.39037
1.39048
1.39147
1.39295
1.39452
1.39585
1.39673
1.39735
1.39769
1.39779
1.39781
1.39777
1.39768
1.39751
1.39721
1.00562
1.00577
1.0059
1.00601
1.00612
1.00624
1.00637
1.00652
1.00672
1.00698
1.00734
1.00777
1.00832
1.00902
1.00991
1.01081
1.01154
1.01218
1.01305
1.01457
1.01653
1.01864
1.01913
1.01749
1.01486
1.01324
1.0128
1.01297
1.01353
1.0143
1.01514
1.01604
1.01707
1.01797
1.01832
1.29348
1.29326
1.29301
1.29276
1.29243
1.292
1.29146
1.29079
1.28999
1.28903
1.28787
1.28646
1.28486
1.28303
1.28075
1.2782
1.27548
1.2728
1.27052
1.26826
1.26705
1.26808
1.26992
1.26999
1.26886
1.26779
1.26704
1.26654
1.26627
1.26594
1.26542
1.26479
1.26393
1.26256
1.26078
1.08166
1.08199
1.08237
1.08278
1.08326
1.08383
1.08449
1.08525
1.08612
1.08714
1.08853
1.09019
1.09204
1.094
1.09594
1.09762
1.09873
1.09949
1.10009
1.10032
1.10107
1.1022
1.10344
1.10381
1.1034
1.10231
1.10162
1.10142
1.10151
1.10168
1.10191
1.10207
1.10195
1.10152
1.10105
1.22984
1.22927
1.22863
1.22794
1.22717
1.22635
1.22551
1.22466
1.22381
1.223
1.22206
1.22095
1.21967
1.21844
1.21745
1.21675
1.21602
1.21502
1.21418
1.21398
1.21398
1.21344
1.21217
1.21093
1.20997
1.20945
1.20909
1.20894
1.2089
1.20896
1.20914
1.20936
1.20962
1.20991
1.21012
1.13426
1.13441
1.1346
1.1348
1.13503
1.13529
1.13558
1.13587
1.13618
1.13648
1.13676
1.13705
1.13737
1.13767
1.13792
1.13821
1.13841
1.1387
1.13908
1.13943
1.13987
1.14075
1.14135
1.14134
1.1411
1.14095
1.1408
1.14068
1.14068
1.14082
1.14108
1.14133
1.14158
1.14179
1.1419
1.19698
1.19692
1.1968
1.19667
1.19652
1.19635
1.19618
1.19601
1.19582
1.1956
1.19532
1.19496
1.19459
1.19414
1.19365
1.19303
1.19249
1.19196
1.19146
1.19098
1.1905
1.19002
1.18972
1.18946
1.18926
1.18911
1.18899
1.18883
1.18861
1.18837
1.18813
1.18791
1.18765
1.18738
1.18707
1.15451
1.15451
1.15455
1.15458
1.15461
1.15465
1.15469
1.15473
1.15477
1.15479
1.1548
1.15478
1.15468
1.15461
1.15455
1.15457
1.15463
1.15477
1.1549
1.15503
1.15512
1.1552
1.15528
1.15537
1.15545
1.15552
1.15557
1.1556
1.15564
1.15569
1.15571
1.15568
1.15563
1.15555
1.15547
1.182
1.18199
1.18196
1.18192
1.18187
1.18181
1.18175
1.18169
1.18164
1.18159
1.18156
1.18153
1.1815
1.18147
1.18143
1.18133
1.18115
1.18086
1.18064
1.18046
1.18031
1.18017
1.18006
1.17997
1.17988
1.17979
1.1797
1.17961
1.17954
1.1795
1.17949
1.17952
1.17957
1.17963
1.17969
1.16353
1.16352
1.16354
1.16354
1.16354
1.16355
1.16356
1.16356
1.16356
1.16355
1.16353
1.16349
1.16342
1.16332
1.16317
1.16304
1.16296
1.16296
1.163
1.16305
1.16309
1.16312
1.16313
1.16312
1.16311
1.16309
1.16308
1.16307
1.16306
1.16305
1.16303
1.16301
1.16298
1.16294
1.1629
1.1752
1.1752
1.1752
1.17518
1.17517
1.17514
1.17512
1.17509
1.17506
1.17504
1.17502
1.17501
1.175
1.175
1.17502
1.17505
1.17509
1.17506
1.17496
1.17485
1.17477
1.17471
1.17468
1.17467
1.17467
1.17468
1.17468
1.17469
1.1747
1.1747
1.17472
1.17473
1.17474
1.17476
1.17478
1.16756
1.16755
1.16755
1.16755
1.16755
1.16755
1.16756
1.16756
1.16756
1.16756
1.16755
1.16752
1.16748
1.16741
1.16733
1.16722
1.1671
1.16701
1.16696
1.16696
1.16695
1.16694
1.16692
1.16689
1.16685
1.16682
1.1668
1.16678
1.16678
1.16677
1.16677
1.16677
1.16676
1.16675
1.16673
1.17219
1.17219
1.17219
1.17218
1.17217
1.17216
1.17214
1.17212
1.17211
1.17209
1.17208
1.17206
1.17205
1.17205
1.17207
1.17211
1.17215
1.17219
1.17223
1.17221
1.17218
1.17217
1.17218
1.17221
1.17223
1.17226
1.17228
1.17229
1.17231
1.17232
1.17232
1.17233
1.17233
1.17234
1.17234
1.16923
1.16922
1.16922
1.16922
1.16922
1.16922
1.16922
1.16922
1.16922
1.16922
1.16922
1.16921
1.16919
1.16916
1.1691
1.16904
1.16896
1.16887
1.16878
1.16872
1.16868
1.16866
1.16863
1.1686
1.16857
1.16853
1.16851
1.1685
1.16849
1.16849
1.16849
1.16849
1.16849
1.16849
1.16849
1.17091
1.17091
1.1709
1.1709
1.1709
1.17089
1.17088
1.17087
1.17086
1.17085
1.17083
1.17082
1.17081
1.17081
1.17081
1.17083
1.17085
1.17089
1.17092
1.17097
1.171
1.17102
1.17105
1.17108
1.17111
1.17113
1.17115
1.17117
1.17118
1.17119
1.1712
1.1712
1.1712
1.1712
1.1712
1.16984
1.16983
1.16983
1.16983
1.16983
1.16983
1.16983
1.16983
1.16983
1.16983
1.16983
1.16982
1.16981
1.1698
1.16977
1.16973
1.16969
1.16964
1.16959
1.16953
1.16948
1.16942
1.16939
1.16935
1.16932
1.1693
1.16928
1.16927
1.16926
1.16926
1.16926
1.16926
1.16927
1.16927
1.16927
1.17037
1.17037
1.17037
1.17037
1.17037
1.17037
1.17036
1.17036
1.17035
1.17034
1.17033
1.17032
1.17031
1.17031
1.17031
1.17031
1.17032
1.17034
1.17036
1.17039
1.17042
1.17046
1.1705
1.17054
1.17058
1.1706
1.17063
1.17064
1.17066
1.17067
1.17067
1.17067
1.17067
1.17067
1.17067
1.17002
1.17001
1.17
1.17
1.17
1.17
1.17
1.17
1.17
1.17
1.17
1.17
1.16999
1.16999
1.16998
1.16996
1.16994
1.16992
1.16989
1.16986
1.16983
1.1698
1.16976
1.16973
1.1697
1.16968
1.16966
1.16964
1.16963
1.16963
1.16963
1.16963
1.16964
1.16964
1.16965
1.17016
1.17016
1.17016
1.17015
1.17015
1.17014
1.17014
1.17014
1.17014
1.17013
1.17013
1.17012
1.17012
1.17012
1.17012
1.17012
1.17012
1.17013
1.17014
1.17015
1.17017
1.17019
1.17022
1.17025
1.17028
1.17031
1.17033
1.17035
1.17036
1.17037
1.17037
1.17038
1.17038
1.17038
1.17038
1.17004
1.17003
1.17003
1.17003
1.17003
1.17003
1.17003
1.17003
1.17003
1.17003
1.17003
1.17003
1.17002
1.17002
1.17002
1.17001
1.17001
1.17
1.16999
1.16998
1.16997
1.16995
1.16994
1.16993
1.16992
1.1699
1.16989
1.16988
1.16988
1.16988
1.16988
1.16988
1.16989
1.16989
1.16989
1.17006
1.17006
1.17006
1.17006
1.17005
1.17005
1.17005
1.17005
1.17005
1.17005
1.17005
1.17005
1.17005
1.17005
1.17005
1.17005
1.17005
1.17005
1.17006
1.17007
1.17008
1.17009
1.17011
1.17013
1.17015
1.17016
1.17018
1.17019
1.1702
1.17021
1.17021
1.17022
1.17022
1.17022
1.17022
1.17002
1.17001
1.17001
1.17001
1.17001
1.17001
1.17001
1.17001
1.17001
1.17002
1.17002
1.17002
1.17002
1.17002
1.17002
1.17002
1.17002
1.17002
1.17002
1.17002
1.17002
1.17002
1.17002
1.17002
1.17001
1.17001
1.17001
1.17001
1.17001
1.17001
1.17001
1.17002
1.17002
1.17002
1.17002
1.17001
1.17001
1.17001
1.17001
1.17001
1.17001
1.17001
1.17001
1.17001
1.17002
1.17002
1.17002
1.17002
1.17002
1.17002
1.17003
1.17003
1.17004
1.17004
1.17005
1.17006
1.17007
1.17008
1.17009
1.1701
1.17012
1.17013
1.17014
1.17014
1.17015
1.17015
1.17016
1.17016
1.17016
1.17016
1.17
1.17
1.17
1.17
1.17
1.17
1.17
1.17
1.17
1.17001
1.17001
1.17001
1.17001
1.17002
1.17002
1.17002
1.17003
1.17003
1.17004
1.17004
1.17005
1.17005
1.17006
1.17006
1.17007
1.17007
1.17007
1.17008
1.17008
1.17008
1.17009
1.17009
1.17009
1.17009
1.1701
1.17
1.17
1.17
1.17
1.17
1.17
1.17
1.17
1.17
1.17
1.17001
1.17001
1.17001
1.17002
1.17002
1.17003
1.17003
1.17004
1.17005
1.17005
1.17006
1.17007
1.17008
1.17009
1.1701
1.17011
1.17012
1.17013
1.17013
1.17014
1.17015
1.17015
1.17015
1.17016
1.17016
1.16999
1.16999
1.16999
1.16999
1.17
1.17
1.17
1.17
1.17
1.17
1.17001
1.17001
1.17001
1.17002
1.17002
1.17003
1.17004
1.17004
1.17005
1.17006
1.17007
1.17008
1.17008
1.17009
1.1701
1.1701
1.17011
1.17012
1.17012
1.17012
1.17013
1.17013
1.17014
1.17014
1.17014
1.16999
1.16999
1.16999
1.17
1.17
1.17
1.17
1.17
1.17
1.17001
1.17001
1.17001
1.17002
1.17002
1.17003
1.17003
1.17004
1.17005
1.17006
1.17007
1.17008
1.17009
1.1701
1.17011
1.17012
1.17013
1.17013
1.17014
1.17015
1.17015
1.17016
1.17016
1.17017
1.17017
1.17017
1.16999
1.17
1.17
1.17
1.17
1.17
1.17
1.17
1.17001
1.17001
1.17001
1.17002
1.17002
1.17003
1.17003
1.17004
1.17005
1.17006
1.17007
1.17007
1.17008
1.1701
1.17011
1.17012
1.17012
1.17013
1.17014
1.17014
1.17015
1.17015
1.17016
1.17016
1.17017
1.17017
1.17018
1.17
1.17
1.17
1.17
1.17
1.17
1.17001
1.17001
1.17001
1.17001
1.17002
1.17002
1.17002
1.17003
1.17004
1.17005
1.17005
1.17006
1.17007
1.17008
1.17009
1.1701
1.17012
1.17013
1.17014
1.17014
1.17015
1.17016
1.17017
1.17017
1.17018
1.17018
1.17019
1.17019
1.17019
1.17
1.17
1.17001
1.17001
1.17001
1.17001
1.17001
1.17001
1.17001
1.17002
1.17002
1.17002
1.17003
1.17004
1.17004
1.17005
1.17006
1.17007
1.17008
1.17009
1.1701
1.17011
1.17012
1.17014
1.17015
1.17015
1.17016
1.17017
1.17017
1.17018
1.17019
1.17019
1.17019
1.1702
1.1702
1.17009
1.17009
1.17008
1.17008
1.17008
1.17007
1.17007
1.17006
1.17006
1.17005
1.17005
1.17004
1.17003
1.17002
1.17001
1.17001
1.17
1.16999
1.16999
1.16998
1.16998
1.16997
1.16997
1.16997
1.16997
1.16996
1.16996
1.16996
1.16996
1.16996
1.16996
1.16996
1.16996
1.16996
1.16996
1.1701
1.1701
1.17009
1.17009
1.17009
1.17008
1.17008
1.17007
1.17007
1.17006
1.17005
1.17005
1.17004
1.17003
1.17002
1.17001
1.17
1.16999
1.16999
1.16998
1.16998
1.16997
1.16997
1.16997
1.16997
1.16997
1.16997
1.16997
1.16997
1.16997
1.16997
1.16997
1.16997
1.16997
1.16997
1.17011
1.17011
1.1701
1.1701
1.1701
1.17009
1.17009
1.17008
1.17008
1.17007
1.17006
1.17005
1.17004
1.17003
1.17002
1.17001
1.17001
1.17
1.16999
1.16998
1.16998
1.16997
1.16997
1.16997
1.16997
1.16997
1.16997
1.16997
1.16997
1.16997
1.16997
1.16997
1.16997
1.16997
1.16997
1.17012
1.17012
1.17011
1.17011
1.17011
1.1701
1.1701
1.17009
1.17008
1.17008
1.17007
1.17006
1.17005
1.17004
1.17003
1.17002
1.17001
1.17
1.16999
1.16998
1.16998
1.16997
1.16997
1.16997
1.16997
1.16997
1.16997
1.16997
1.16997
1.16997
1.16997
1.16998
1.16998
1.16998
1.16998
1.17013
1.17013
1.17012
1.17012
1.17011
1.17011
1.1701
1.1701
1.17009
1.17008
1.17008