# Forces      
# CofR        : (0.000000e+00 0.000000e+00 0.000000e+00)
# Time        forces(pressure viscous porous)	moments(pressure viscous porous)
0             	((-7.216450e-16 1.621200e+01 3.218461e-17) (0.000000e+00 0.000000e+00 0.000000e+00) (0.000000e+00 0.000000e+00 0.000000e+00)) ((3.859129e-19 7.874932e-19 5.898060e-17) (0.000000e+00 0.000000e+00 0.000000e+00) (0.000000e+00 0.000000e+00 0.000000e+00))
0.1           	((4.553189e-08 1.620991e+01 3.219996e-17) (-1.242261e-08 9.755863e-05 -9.830209e-20) (0.000000e+00 0.000000e+00 0.000000e+00)) ((3.864587e-19 7.874250e-19 -3.655183e-09) (-7.689110e-22 2.060149e-21 3.919869e-10) (0.000000e+00 0.000000e+00 0.000000e+00))
