# Forces      
# CofR        : (0.000000e+00 0.000000e+00 0.000000e+00)
# Time        forces(pressure viscous porous)	moments(pressure viscous porous)
0             	((9.159340e-16 -3.552714e-15 5.364101e-18) (0.000000e+00 -1.313888e-02 0.000000e+00) (0.000000e+00 0.000000e+00 0.000000e+00)) ((9.527422e-20 3.534142e-19 -2.775558e-17) (0.000000e+00 0.000000e+00 2.710505e-20) (0.000000e+00 0.000000e+00 0.000000e+00))
1.19904e-05   	((-7.181993e-06 -5.670996e-01 5.504573e-18) (-1.878281e-07 -1.384895e-03 -1.754518e-20) (0.000000e+00 0.000000e+00 0.000000e+00)) ((9.919001e-20 3.545619e-19 8.232531e-07) (-2.275625e-22 -1.654067e-21 -3.136886e-09) (0.000000e+00 0.000000e+00 0.000000e+00))
2.63616e-05   	((-5.142074e-06 -3.485614e-01 5.475056e-18) (-9.614475e-08 -3.818735e-04 -2.248512e-20) (0.000000e+00 0.000000e+00 0.000000e+00)) ((9.815394e-20 3.561530e-19 9.803790e-07) (-3.083982e-22 -1.946734e-21 -9.582794e-09) (0.000000e+00 0.000000e+00 0.000000e+00))
4.35873e-05   	((-1.098191e-06 -1.721473e-01 5.464828e-18) (-1.073181e-07 -1.446721e-03 -3.071969e-20) (0.000000e+00 0.000000e+00 0.000000e+00)) ((9.720297e-20 3.555624e-19 4.031664e-07) (-4.726150e-22 -2.288126e-21 -5.202438e-09) (0.000000e+00 0.000000e+00 0.000000e+00))
6.42437e-05   	((1.993607e-06 -1.040561e-01 5.535149e-18) (-2.036293e-07 -1.417177e-03 -4.183999e-20) (0.000000e+00 0.000000e+00 0.000000e+00)) ((9.801526e-20 3.547256e-19 -9.205647e-08) (-7.059174e-22 -2.715859e-21 2.799008e-09) (0.000000e+00 0.000000e+00 0.000000e+00))
8.90212e-05   	((1.233682e-06 -1.057757e-01 5.649622e-18) (-1.878406e-07 -8.353345e-04 -5.526877e-20) (0.000000e+00 0.000000e+00 0.000000e+00)) ((1.000013e-19 3.546866e-19 -1.589822e-07) (-9.829158e-22 -3.259072e-21 4.152185e-09) (0.000000e+00 0.000000e+00 0.000000e+00))
0.000118695   	((1.973013e-06 -1.282078e-01 5.725162e-18) (-1.621234e-07 -4.553729e-04 -6.902073e-20) (0.000000e+00 0.000000e+00 0.000000e+00)) ((1.015612e-19 3.551281e-19 -2.542387e-07) (-1.234154e-21 -3.956194e-21 6.522623e-09) (0.000000e+00 0.000000e+00 0.000000e+00))
0.000154239   	((7.676724e-07 -1.328275e-01 5.704519e-18) (-1.059775e-07 -2.912374e-04 -8.008546e-20) (0.000000e+00 0.000000e+00 0.000000e+00)) ((1.014562e-19 3.553548e-19 -1.485043e-07) (-1.382387e-21 -4.794434e-21 9.374764e-09) (0.000000e+00 0.000000e+00 0.000000e+00))
0.000196861   	((1.305900e-06 -1.051119e-01 5.602472e-18) (-7.888326e-08 -2.315447e-04 -9.290425e-20) (0.000000e+00 0.000000e+00 0.000000e+00)) ((9.973802e-20 3.552477e-19 -1.204746e-07) (-1.538426e-21 -5.816627e-21 4.852682e-09) (0.000000e+00 0.000000e+00 0.000000e+00))
0.000247919   	((9.359864e-07 -5.712612e-02 5.481435e-18) (-8.649690e-08 -1.966493e-04 -1.111201e-19) (0.000000e+00 0.000000e+00 0.000000e+00)) ((9.750605e-20 3.550029e-19 -9.308866e-08) (-1.777700e-21 -7.090946e-21 6.120457e-09) (0.000000e+00 0.000000e+00 0.000000e+00))
0.00030887    	((3.069514e-08 -1.296587e-02 5.394366e-18) (-8.265403e-08 -1.546630e-04 -1.366021e-19) (0.000000e+00 0.000000e+00 0.000000e+00)) ((9.584364e-20 3.548575e-19 -4.165288e-08) (-2.138913e-21 -8.615777e-21 4.760220e-09) (0.000000e+00 0.000000e+00 0.000000e+00))
0.000381736   	((-3.812273e-08 1.335072e-02 5.355343e-18) (-7.453742e-08 -1.375202e-04 -1.715832e-19) (0.000000e+00 0.000000e+00 0.000000e+00)) ((9.509836e-20 3.549410e-19 -2.644786e-08) (-2.643910e-21 -1.049285e-20 4.230330e-09) (0.000000e+00 0.000000e+00 0.000000e+00))
0.000469174   	((-9.647914e-08 2.739324e-02 5.346620e-18) (-6.859438e-08 -1.289825e-04 -2.132125e-19) (0.000000e+00 0.000000e+00 0.000000e+00)) ((9.496056e-20 3.553805e-19 -1.667638e-08) (-3.212423e-21 -1.279407e-20 3.120726e-09) (0.000000e+00 0.000000e+00 0.000000e+00))
0.000573909   	((3.107675e-07 5.292573e-02 5.331586e-18) (-4.920067e-08 -1.195094e-04 -2.591170e-19) (0.000000e+00 0.000000e+00 0.000000e+00)) ((9.474633e-20 3.565180e-19 -1.581676e-08) (-3.753494e-21 -1.583687e-20 2.023884e-09) (0.000000e+00 0.000000e+00 0.000000e+00))
0.000697936   	((4.814224e-07 1.093689e-01 5.284395e-18) (-2.390908e-08 -1.089266e-04 -3.386679e-19) (0.000000e+00 0.000000e+00 0.000000e+00)) ((9.394668e-20 3.588045e-19 5.890557e-09) (-4.829267e-21 -1.835490e-20 1.015477e-09) (0.000000e+00 0.000000e+00 0.000000e+00))
0.000841045   	((4.913938e-07 1.778130e-01 5.231836e-18) (-3.231221e-08 -1.338967e-04 -4.486307e-19) (0.000000e+00 0.000000e+00 0.000000e+00)) ((9.299075e-20 3.621151e-19 7.158689e-09) (-6.384780e-21 -1.999456e-20 1.900115e-09) (0.000000e+00 0.000000e+00 0.000000e+00))
0.000993694   	((6.986986e-07 2.144818e-01 5.228140e-18) (-8.339272e-08 -1.527779e-04 -5.470697e-19) (0.000000e+00 0.000000e+00 0.000000e+00)) ((9.285573e-20 3.654272e-19 5.530216e-09) (-7.771452e-21 -2.029836e-20 4.762507e-09) (0.000000e+00 0.000000e+00 0.000000e+00))
0.00111066    	((7.849930e-07 2.144624e-01 5.262075e-18) (-1.046658e-07 -1.520463e-04 -4.767575e-19) (0.000000e+00 0.000000e+00 0.000000e+00)) ((9.340480e-20 3.675106e-19 -5.300964e-08) (-6.838415e-21 -1.649437e-20 7.126143e-09) (0.000000e+00 0.000000e+00 0.000000e+00))
0.00121167    	((5.095717e-07 1.966997e-01 5.311703e-18) (-3.534575e-08 -1.316676e-04 -4.461937e-19) (0.000000e+00 0.000000e+00 0.000000e+00)) ((9.425001e-20 3.688808e-19 -1.539990e-08) (-6.377892e-21 -1.468801e-20 4.839073e-09) (0.000000e+00 0.000000e+00 0.000000e+00))
0.00130517    	((1.595573e-06 1.713127e-01 5.365209e-18) (5.481686e-09 -1.119470e-04 -4.417454e-19) (0.000000e+00 0.000000e+00 0.000000e+00)) ((9.517887e-20 3.697997e-19 -3.510814e-08) (-6.303538e-21 -1.384976e-20 4.589154e-09) (0.000000e+00 0.000000e+00 0.000000e+00))
0.00139669    	((-1.526933e-07 1.443873e-01 5.415940e-18) (2.925157e-08 -9.734800e-05 -4.638990e-19) (0.000000e+00 0.000000e+00 0.000000e+00)) ((9.607148e-20 3.704244e-19 6.852166e-08) (-6.664382e-21 -1.364474e-20 3.116993e-09) (0.000000e+00 0.000000e+00 0.000000e+00))
0.00148822    	((-1.426905e-06 1.204669e-01 5.458618e-18) (3.935733e-08 -9.127817e-05 -5.042737e-19) (0.000000e+00 0.000000e+00 0.000000e+00)) ((9.683074e-20 3.708610e-19 1.252571e-07) (-7.391497e-21 -1.370447e-20 3.199737e-09) (0.000000e+00 0.000000e+00 0.000000e+00))
0.00157974    	((-2.947607e-06 1.022192e-01 5.490506e-18) (6.546564e-08 -8.418815e-05 -5.390121e-19) (0.000000e+00 0.000000e+00 0.000000e+00)) ((9.740491e-20 3.711764e-19 2.168487e-07) (-8.046148e-21 -1.381093e-20 1.743610e-09) (0.000000e+00 0.000000e+00 0.000000e+00))
0.0016733     	((-2.352962e-06 8.995942e-02 5.512250e-18) (6.572674e-08 -7.541084e-05 -5.845923e-19) (0.000000e+00 0.000000e+00 0.000000e+00)) ((9.780228e-20 3.714302e-19 1.661407e-07) (-8.870250e-21 -1.414135e-20 1.112391e-10) (0.000000e+00 0.000000e+00 0.000000e+00))
0.00176901    	((-1.415235e-06 8.295990e-02 5.525727e-18) (3.683085e-08 -7.069121e-05 -6.311840e-19) (0.000000e+00 0.000000e+00 0.000000e+00)) ((9.805390e-20 3.716564e-19 1.019678e-07) (-9.712538e-21 -1.449659e-20 -6.610325e-10) (0.000000e+00 0.000000e+00 0.000000e+00))
0.001867      	((-8.424728e-07 7.972062e-02 5.533564e-18) (-5.759123e-10 -6.935228e-05 -6.795173e-19) (0.000000e+00 0.000000e+00 0.000000e+00)) ((9.820431e-20 3.718759e-19 5.608264e-08) (-1.059177e-20 -1.483685e-20 5.750318e-10) (0.000000e+00 0.000000e+00 0.000000e+00))
0.0019674     	((-4.327764e-07 7.865104e-02 5.538270e-18) (-1.071251e-08 -6.790950e-05 -7.293337e-19) (0.000000e+00 0.000000e+00 0.000000e+00)) ((9.829650e-20 3.720974e-19 2.731535e-08) (-1.150141e-20 -1.522915e-20 1.033860e-09) (0.000000e+00 0.000000e+00 0.000000e+00))
0.00206908    	((1.138162e-07 7.847914e-02 5.541736e-18) (-2.689726e-08 -6.614279e-05 -7.703264e-19) (0.000000e+00 0.000000e+00 0.000000e+00)) ((9.836451e-20 3.723185e-19 -6.408008e-09) (-1.227558e-20 -1.546425e-20 1.596868e-09) (0.000000e+00 0.000000e+00 0.000000e+00))
0.00217208    	((5.383106e-07 7.836841e-02 5.545126e-18) (-4.360286e-08 -6.573653e-05 -8.098994e-19) (0.000000e+00 0.000000e+00 0.000000e+00)) ((9.842982e-20 3.725333e-19 -3.889240e-08) (-1.302810e-20 -1.564690e-20 2.255839e-09) (0.000000e+00 0.000000e+00 0.000000e+00))
0.00227645    	((4.612379e-07 7.787913e-02 5.548939e-18) (-7.474353e-08 -6.572392e-05 -8.473961e-19) (0.000000e+00 0.000000e+00 0.000000e+00)) ((9.850185e-20 3.727340e-19 -4.857414e-08) (-1.374514e-20 -1.582314e-20 3.532828e-09) (0.000000e+00 0.000000e+00 0.000000e+00))
0.00238083    	((8.108649e-07 7.685808e-02 5.553178e-18) (-8.625881e-08 -6.513723e-05 -8.690587e-19) (0.000000e+00 0.000000e+00 0.000000e+00)) ((9.858049e-20 3.729121e-19 -7.505002e-08) (-1.419687e-20 -1.584763e-20 4.170277e-09) (0.000000e+00 0.000000e+00 0.000000e+00))
0.0024852     	((8.380411e-07 7.530731e-02 5.557760e-18) (-8.137245e-08 -6.453066e-05 -8.855393e-19) (0.000000e+00 0.000000e+00 0.000000e+00)) ((9.866461e-20 3.730622e-19 -6.962583e-08) (-1.455307e-20 -1.586850e-20 3.891574e-09) (0.000000e+00 0.000000e+00 0.000000e+00))
0.00258957    	((8.854649e-07 7.330428e-02 5.562491e-18) (-8.394549e-08 -6.404801e-05 -8.986677e-19) (0.000000e+00 0.000000e+00 0.000000e+00)) ((9.875115e-20 3.731797e-19 -7.632267e-08) (-1.484520e-20 -1.588616e-20 3.848048e-09) (0.000000e+00 0.000000e+00 0.000000e+00))
0.00269543    	((2.201122e-07 7.093201e-02 5.567241e-18) (-9.438704e-08 -6.366829e-05 -9.209652e-19) (0.000000e+00 0.000000e+00 0.000000e+00)) ((9.883797e-20 3.732630e-19 -4.257379e-08) (-1.527967e-20 -1.606305e-20 4.078125e-09) (0.000000e+00 0.000000e+00 0.000000e+00))
0.0028013     	((1.680099e-07 6.833126e-02 5.571734e-18) (-9.494941e-08 -6.349353e-05 -9.291359e-19) (0.000000e+00 0.000000e+00 0.000000e+00)) ((9.891988e-20 3.733115e-19 -3.895228e-08) (-1.547412e-20 -1.607975e-20 4.357686e-09) (0.000000e+00 0.000000e+00 0.000000e+00))
0.00290716    	((-7.725556e-08 6.567525e-02 5.575807e-18) (-9.488015e-08 -6.341039e-05 -9.352434e-19) (0.000000e+00 0.000000e+00 0.000000e+00)) ((9.899452e-20 3.733269e-19 -2.348081e-08) (-1.562743e-20 -1.609326e-20 4.270767e-09) (0.000000e+00 0.000000e+00 0.000000e+00))
0.00301302    	((-1.726476e-08 6.312482e-02 5.579291e-18) (-1.011862e-07 -6.333547e-05 -9.395368e-19) (0.000000e+00 0.000000e+00 0.000000e+00)) ((9.905941e-20 3.733113e-19 -3.502440e-08) (-1.574382e-20 -1.610269e-20 4.445737e-09) (0.000000e+00 0.000000e+00 0.000000e+00))
0.00312052    	((-1.559404e-07 6.078441e-02 5.582002e-18) (-1.007331e-07 -6.329206e-05 -9.555731e-19) (0.000000e+00 0.000000e+00 0.000000e+00)) ((9.911017e-20 3.732705e-19 -2.240713e-08) (-1.604830e-20 -1.628515e-20 4.393103e-09) (0.000000e+00 0.000000e+00 0.000000e+00))
0.00322801    	((-1.992817e-07 5.877378e-02 5.583939e-18) (-9.656983e-08 -6.334817e-05 -9.568730e-19) (0.000000e+00 0.000000e+00 0.000000e+00)) ((9.914740e-20 3.732101e-19 -1.763714e-08) (-1.610143e-20 -1.629329e-20 4.203807e-09) (0.000000e+00 0.000000e+00 0.000000e+00))
0.00333723    	((-2.480485e-07 5.711312e-02 5.585140e-18) (-9.632765e-08 -6.350902e-05 -9.709347e-19) (0.000000e+00 0.000000e+00 0.000000e+00)) ((9.917167e-20 3.731342e-19 -1.220119e-08) (-1.635896e-20 -1.648977e-20 4.117686e-09) (0.000000e+00 0.000000e+00 0.000000e+00))
0.00344646    	((-2.735819e-07 5.579148e-02 5.585703e-18) (-9.932447e-08 -6.381881e-05 -9.695692e-19) (0.000000e+00 0.000000e+00 0.000000e+00)) ((9.918453e-20 3.730497e-19 -1.214429e-08) (-1.634996e-20 -1.651381e-20 4.232743e-09) (0.000000e+00 0.000000e+00 0.000000e+00))
0.00355568    	((-9.370328e-08 5.474220e-02 5.585841e-18) (-1.081471e-07 -6.419194e-05 -9.672716e-19) (0.000000e+00 0.000000e+00 0.000000e+00)) ((9.919033e-20 3.729594e-19 -2.571830e-08) (-1.631932e-20 -1.654332e-20 4.587182e-09) (0.000000e+00 0.000000e+00 0.000000e+00))
0.00366679    	((-1.816815e-07 5.386662e-02 5.585618e-18) (-1.003362e-07 -6.460663e-05 -9.790114e-19) (0.000000e+00 0.000000e+00 0.000000e+00)) ((9.918885e-20 3.728665e-19 -8.640906e-09) (-1.651509e-20 -1.678310e-20 4.231960e-09) (0.000000e+00 0.000000e+00 0.000000e+00))
0.0037779     	((-5.115478e-07 5.305295e-02 5.585344e-18) (-9.457532e-08 -6.512713e-05 -9.748585e-19) (0.000000e+00 0.000000e+00 0.000000e+00)) ((9.918624e-20 3.727758e-19 1.443901e-08) (-1.644240e-20 -1.682893e-20 4.069554e-09) (0.000000e+00 0.000000e+00 0.000000e+00))
0.00388901    	((-3.692645e-07 5.223984e-02 5.585137e-18) (-8.841705e-08 -6.567380e-05 -9.700006e-19) (0.000000e+00 0.000000e+00 0.000000e+00)) ((9.918469e-20 3.726876e-19 4.925524e-09) (-1.635379e-20 -1.688043e-20 3.876449e-09) (0.000000e+00 0.000000e+00 0.000000e+00))
0.00400012    	((-2.639590e-07 5.142418e-02 5.584980e-18) (-8.859276e-08 -6.618416e-05 -9.645420e-19) (0.000000e+00 0.000000e+00 0.000000e+00)) ((9.918374e-20 3.726019e-19 -3.560958e-09) (-1.625168e-20 -1.693638e-20 3.891538e-09) (0.000000e+00 0.000000e+00 0.000000e+00))
0.00411333    	((-2.758994e-07 5.053640e-02 5.584949e-18) (-8.597525e-08 -6.666434e-05 -9.745894e-19) (0.000000e+00 0.000000e+00 0.000000e+00)) ((9.918508e-20 3.725165e-19 -3.253282e-09) (-1.640127e-20 -1.722589e-20 3.795956e-09) (0.000000e+00 0.000000e+00 0.000000e+00))
0.00422653    	((-2.930050e-07 4.961419e-02 5.584977e-18) (-8.377841e-08 -6.710241e-05 -9.679384e-19) (0.000000e+00 0.000000e+00 0.000000e+00)) ((9.918714e-20 3.724327e-19 1.722814e-09) (-1.627275e-20 -1.729298e-20 3.756532e-09) (0.000000e+00 0.000000e+00 0.000000e+00))
0.00433974    	((-4.496887e-07 4.866649e-02 5.585064e-18) (-8.004955e-08 -6.747740e-05 -9.610164e-19) (0.000000e+00 0.000000e+00 0.000000e+00)) ((9.919021e-20 3.723495e-19 1.217379e-08) (-1.613813e-20 -1.736233e-20 3.632788e-09) (0.000000e+00 0.000000e+00 0.000000e+00))
0.00445294    	((-5.276088e-07 4.774754e-02 5.585104e-18) (-8.533732e-08 -6.771007e-05 -9.539387e-19) (0.000000e+00 0.000000e+00 0.000000e+00)) ((9.919236e-20 3.722657e-19 1.504811e-08) (-1.600002e-20 -1.743307e-20 3.793618e-09) (0.000000e+00 0.000000e+00 0.000000e+00))
0.00456615    	((-5.439831e-07 4.685569e-02 5.585082e-18) (-8.509861e-08 -6.800706e-05 -9.467648e-19) (0.000000e+00 0.000000e+00 0.000000e+00)) ((9.919332e-20 3.721806e-19 1.546047e-08) (-1.585876e-20 -1.750747e-20 3.614456e-09) (0.000000e+00 0.000000e+00 0.000000e+00))
0.00468176    	((-6.187331e-07 4.596173e-02 5.585030e-18) (-8.795114e-08 -6.817899e-05 -9.572237e-19) (0.000000e+00 0.000000e+00 0.000000e+00)) ((9.919400e-20 3.720918e-19 2.147402e-08) (-1.600455e-20 -1.783569e-20 3.724692e-09) (0.000000e+00 0.000000e+00 0.000000e+00))
0.00479737    	((-5.140294e-07 4.514214e-02 5.584823e-18) (-8.302840e-08 -6.845430e-05 -9.499505e-19) (0.000000e+00 0.000000e+00 0.000000e+00)) ((9.919170e-20 3.720013e-19 1.691290e-08) (-1.585919e-20 -1.789382e-20 3.478214e-09) (0.000000e+00 0.000000e+00 0.000000e+00))
0.00491299    	((-4.885708e-07 4.440047e-02 5.584485e-18) (-7.897912e-08 -6.866139e-05 -9.429410e-19) (0.000000e+00 0.000000e+00 0.000000e+00)) ((9.918711e-20 3.719089e-19 1.950743e-08) (-1.571813e-20 -1.795667e-20 3.338288e-09) (0.000000e+00 0.000000e+00 0.000000e+00))
0.0050286     	((-5.975443e-07 4.377615e-02 5.583979e-18) (-8.617164e-08 -6.875383e-05 -9.364161e-19) (0.000000e+00 0.000000e+00 0.000000e+00)) ((9.917990e-20 3.718137e-19 1.474274e-08) (-1.558709e-20 -1.801823e-20 3.448172e-09) (0.000000e+00 0.000000e+00 0.000000e+00))
0.00514422    	((-6.170668e-07 4.318590e-02 5.583345e-18) (-8.649539e-08 -6.897836e-05 -9.301359e-19) (0.000000e+00 0.000000e+00 0.000000e+00)) ((9.916989e-20 3.717181e-19 2.207793e-08) (-1.545852e-20 -1.808723e-20 3.522511e-09) (0.000000e+00 0.000000e+00 0.000000e+00))
0.00525983    	((-5.148772e-07 4.264911e-02 5.582660e-18) (-8.123745e-08 -6.923053e-05 -9.242652e-19) (0.000000e+00 0.000000e+00 0.000000e+00)) ((9.915899e-20 3.716227e-19 2.004155e-08) (-1.533721e-20 -1.815561e-20 3.281514e-09) (0.000000e+00 0.000000e+00 0.000000e+00))
0.00537833    	((-3.933263e-07 4.211671e-02 5.581950e-18) (-9.328349e-08 -6.934987e-05 -9.389538e-19) (0.000000e+00 0.000000e+00 0.000000e+00)) ((9.914749e-20 3.715268e-19 1.640938e-08) (-1.554888e-20 -1.854650e-20 3.714186e-09) (0.000000e+00 0.000000e+00 0.000000e+00))
0.00549684    	((-3.197664e-07 4.173603e-02 5.581110e-18) (-8.759588e-08 -6.954621e-05 -9.337044e-19) (0.000000e+00 0.000000e+00 0.000000e+00)) ((9.913436e-20 3.714308e-19 2.416495e-09) (-1.543857e-20 -1.861159e-20 3.542212e-09) (0.000000e+00 0.000000e+00 0.000000e+00))
0.00561534    	((-2.943747e-07 4.142852e-02 5.580103e-18) (-9.089944e-08 -6.972244e-05 -9.289752e-19) (0.000000e+00 0.000000e+00 0.000000e+00)) ((9.911762e-20 3.713364e-19 1.428914e-09) (-1.533900e-20 -1.867134e-20 3.461862e-09) (0.000000e+00 0.000000e+00 0.000000e+00))
0.00573385    	((-2.128630e-07 4.117195e-02 5.579074e-18) (-8.897452e-08 -6.999157e-05 -9.245994e-19) (0.000000e+00 0.000000e+00 0.000000e+00)) ((9.910052e-20 3.712443e-19 5.141704e-09) (-1.524554e-20 -1.873197e-20 3.427107e-09) (0.000000e+00 0.000000e+00 0.000000e+00))
0.00585235    	((-2.401633e-07 4.094883e-02 5.578042e-18) (-9.899416e-08 -7.009558e-05 -9.206240e-19) (0.000000e+00 0.000000e+00 0.000000e+00)) ((9.908331e-20 3.711549e-19 3.240838e-09) (-1.516008e-20 -1.878625e-20 3.776916e-09) (0.000000e+00 0.000000e+00 0.000000e+00))
0.00597086    	((-1.453702e-07 4.075387e-02 5.577023e-18) (-8.737111e-08 -7.032926e-05 -9.169633e-19) (0.000000e+00 0.000000e+00 0.000000e+00)) ((9.906635e-20 3.710680e-19 2.426353e-09) (-1.508065e-20 -1.883868e-20 3.398534e-09) (0.000000e+00 0.000000e+00 0.000000e+00))
0.00608936    	((-2.121983e-07 4.059115e-02 5.575990e-18) (-8.727605e-08 -7.049138e-05 -9.136273e-19) (0.000000e+00 0.000000e+00 0.000000e+00)) ((9.904907e-20 3.709834e-19 5.822267e-09) (-1.500802e-20 -1.888618e-20 3.367592e-09) (0.000000e+00 0.000000e+00 0.000000e+00))
0.00620786    	((-2.487016e-07 4.046661e-02 5.574928e-18) (-7.961499e-08 -7.061906e-05 -9.103345e-19) (0.000000e+00 0.000000e+00 0.000000e+00)) ((9.903115e-20 3.709009e-19 8.591065e-09) (-1.493435e-20 -1.893263e-20 3.198965e-09) (0.000000e+00 0.000000e+00 0.000000e+00))
0.00632637    	((-1.184749e-07 4.035504e-02 5.573879e-18) (-7.587672e-08 -7.072847e-05 -9.074429e-19) (0.000000e+00 0.000000e+00 0.000000e+00)) ((9.901344e-20 3.708202e-19 3.672289e-09) (-1.487059e-20 -1.897135e-20 3.149025e-09) (0.000000e+00 0.000000e+00 0.000000e+00))
0.00644487    	((7.276584e-08 4.024020e-02 5.572857e-18) (-8.274580e-08 -7.075326e-05 -9.049432e-19) (0.000000e+00 0.000000e+00 0.000000e+00)) ((9.899609e-20 3.707414e-19 -9.124983e-09) (-1.481668e-20 -1.900375e-20 3.354940e-09) (0.000000e+00 0.000000e+00 0.000000e+00))
0.00656338    	((2.170558e-08 4.012174e-02 5.571867e-18) (-7.501995e-08 -7.089084e-05 -9.021848e-19) (0.000000e+00 0.000000e+00 0.000000e+00)) ((9.897932e-20 3.706638e-19 -1.567979e-09) (-1.475372e-20 -1.904213e-20 3.046359e-09) (0.000000e+00 0.000000e+00 0.000000e+00))
0.00668188    	((2.384127e-08 4.000610e-02 5.570889e-18) (-7.840844e-08 -7.094867e-05 -8.998538e-19) (0.000000e+00 0.000000e+00 0.000000e+00)) ((9.896270e-20 3.705873e-19 -4.128224e-09) (-1.470240e-20 -1.907233e-20 3.230471e-09) (0.000000e+00 0.000000e+00 0.000000e+00))
0.00680039    	((1.541969e-09 3.988431e-02 5.569937e-18) (-8.141908e-08 -7.099231e-05 -8.976819e-19) (0.000000e+00 0.000000e+00 0.000000e+00)) ((9.894653e-20 3.705119e-19 -3.580567e-09) (-1.465482e-20 -1.910084e-20 3.322968e-09) (0.000000e+00 0.000000e+00 0.000000e+00))
0.00691889    	((-1.017890e-08 3.975220e-02 5.569013e-18) (-8.108241e-08 -7.102750e-05 -8.956542e-19) (0.000000e+00 0.000000e+00 0.000000e+00)) ((9.893080e-20 3.704373e-19 -1.904034e-09) (-1.461064e-20 -1.912761e-20 3.324317e-09) (0.000000e+00 0.000000e+00 0.000000e+00))
0.00703739    	((-3.152327e-08 3.961205e-02 5.568114e-18) (-7.908110e-08 -7.105421e-05 -8.937691e-19) (0.000000e+00 0.000000e+00 0.000000e+00)) ((9.891548e-20 3.703636e-19 1.379506e-09) (-1.456991e-20 -1.915276e-20 3.155094e-09) (0.000000e+00 0.000000e+00 0.000000e+00))
0.0071559     	((-5.085597e-08 3.947563e-02 5.567219e-18) (-8.287547e-08 -7.100905e-05 -8.921800e-19) (0.000000e+00 0.000000e+00 0.000000e+00)) ((9.890021e-20 3.702905e-19 3.696619e-09) (-1.453724e-20 -1.917361e-20 3.247140e-09) (0.000000e+00 0.000000e+00 0.000000e+00))
0.0072744     	((-5.061976e-08 3.933844e-02 5.566333e-18) (-8.265355e-08 -7.101671e-05 -8.904734e-19) (0.000000e+00 0.000000e+00 0.000000e+00)) ((9.888508e-20 3.702180e-19 4.056836e-09) (-1.450036e-20 -1.919780e-20 3.181739e-09) (0.000000e+00 0.000000e+00 0.000000e+00))
0.00739291    	((-1.352465e-07 3.919698e-02 5.565465e-18) (-7.810448e-08 -7.101179e-05 -8.889686e-19) (0.000000e+00 0.000000e+00 0.000000e+00)) ((9.887024e-20 3.701461e-19 1.226091e-08) (-1.446872e-20 -1.922022e-20 3.004921e-09) (0.000000e+00 0.000000e+00 0.000000e+00))
0.00751141    	((-1.641977e-07 3.905523e-02 5.564604e-18) (-7.586740e-08 -7.101320e-05 -8.875788e-19) (0.000000e+00 0.000000e+00 0.000000e+00)) ((9.885549e-20 3.700749e-19 1.199514e-08) (-1.443971e-20 -1.924186e-20 2.928433e-09) (0.000000e+00 0.000000e+00 0.000000e+00))
0.00762991    	((-1.546501e-07 3.891829e-02 5.563745e-18) (-7.393923e-08 -7.103777e-05 -8.863158e-19) (0.000000e+00 0.000000e+00 0.000000e+00)) ((9.884074e-20 3.700042e-19 1.488738e-08) (-1.441364e-20 -1.926252e-20 2.832991e-09) (0.000000e+00 0.000000e+00 0.000000e+00))
0.00774842    	((-1.902773e-07 3.878693e-02 5.562881e-18) (-6.623349e-08 -7.113261e-05 -8.851148e-19) (0.000000e+00 0.000000e+00 0.000000e+00)) ((9.882585e-20 3.699341e-19 1.391247e-08) (-1.438858e-20 -1.928362e-20 2.542841e-09) (0.000000e+00 0.000000e+00 0.000000e+00))
0.00786692    	((-1.104431e-07 3.865019e-02 5.562039e-18) (-7.073381e-08 -7.110331e-05 -8.841685e-19) (0.000000e+00 0.000000e+00 0.000000e+00)) ((9.881142e-20 3.698645e-19 9.234240e-09) (-1.437001e-20 -1.930056e-20 2.777604e-09) (0.000000e+00 0.000000e+00 0.000000e+00))
0.00798543    	((-1.711672e-07 3.851596e-02 5.561194e-18) (-7.359970e-08 -7.113395e-05 -8.832105e-19) (0.000000e+00 0.000000e+00 0.000000e+00)) ((9.879680e-20 3.697954e-19 1.992548e-08) (-1.435014e-20 -1.931981e-20 2.905957e-09) (0.000000e+00 0.000000e+00 0.000000e+00))
0.00810393    	((-1.056097e-07 3.837914e-02 5.560367e-18) (-6.001657e-08 -7.116436e-05 -8.823851e-19) (0.000000e+00 0.000000e+00 0.000000e+00)) ((9.878259e-20 3.697268e-19 1.304083e-08) (-1.433326e-20 -1.933897e-20 2.447213e-09) (0.000000e+00 0.000000e+00 0.000000e+00))
0.00822244    	((-1.109537e-07 3.825596e-02 5.559519e-18) (-6.478506e-08 -7.115728e-05 -8.817415e-19) (0.000000e+00 0.000000e+00 0.000000e+00)) ((9.876790e-20 3.696587e-19 9.364337e-09) (-1.432072e-20 -1.935453e-20 2.590535e-09) (0.000000e+00 0.000000e+00 0.000000e+00))
0.00834094    	((-1.500300e-07 3.813659e-02 5.558672e-18) (-6.070725e-08 -7.119383e-05 -8.811038e-19) (0.000000e+00 0.000000e+00 0.000000e+00)) ((9.875322e-20 3.695910e-19 1.933006e-08) (-1.430736e-20 -1.937249e-20 2.473786e-09) (0.000000e+00 0.000000e+00 0.000000e+00))
0.00845944    	((-1.151087e-07 3.801673e-02 5.557830e-18) (-6.793851e-08 -7.119111e-05 -8.806697e-19) (0.000000e+00 0.000000e+00 0.000000e+00)) ((9.873856e-20 3.695238e-19 1.732616e-09) (-1.429899e-20 -1.938712e-20 2.676160e-09) (0.000000e+00 0.000000e+00 0.000000e+00))
0.00857795    	((-2.123740e-07 3.789251e-02 5.557010e-18) (-6.086315e-08 -7.121844e-05 -8.802467e-19) (0.000000e+00 0.000000e+00 0.000000e+00)) ((9.872437e-20 3.694571e-19 2.853996e-08) (-1.428993e-20 -1.940368e-20 2.508004e-09) (0.000000e+00 0.000000e+00 0.000000e+00))
0.00869645    	((-1.084082e-07 3.777419e-02 5.556177e-18) (-6.662126e-08 -7.120320e-05 -8.800015e-19) (0.000000e+00 0.000000e+00 0.000000e+00)) ((9.870985e-20 3.693908e-19 5.808985e-09) (-1.428516e-20 -1.941721e-20 2.698731e-09) (0.000000e+00 0.000000e+00 0.000000e+00))
0.00881496    	((-2.032248e-07 3.766089e-02 5.555350e-18) (-5.964764e-08 -7.125018e-05 -8.797549e-19) (0.000000e+00 0.000000e+00 0.000000e+00)) ((9.869545e-20 3.693250e-19 3.296344e-08) (-1.427936e-20 -1.943244e-20 2.650281e-09) (0.000000e+00 0.000000e+00 0.000000e+00))
0.00893346    	((-1.299317e-07 3.755146e-02 5.554519e-18) (-6.033997e-08 -7.124212e-05 -8.796504e-19) (0.000000e+00 0.000000e+00 0.000000e+00)) ((9.868095e-20 3.692596e-19 6.126137e-09) (-1.427684e-20 -1.944564e-20 1.934114e-09) (0.000000e+00 0.000000e+00 0.000000e+00))
0.00905197    	((-1.281398e-07 3.744386e-02 5.553693e-18) (-4.901499e-08 -7.125834e-05 -8.796352e-19) (0.000000e+00 0.000000e+00 0.000000e+00)) ((9.866652e-20 3.691947e-19 1.942462e-08) (-1.427607e-20 -1.945792e-20 2.447650e-09) (0.000000e+00 0.000000e+00 0.000000e+00))
0.00917047    	((-4.448479e-08 3.733488e-02 5.552879e-18) (-5.670797e-08 -7.125070e-05 -8.796595e-19) (0.000000e+00 0.000000e+00 0.000000e+00)) ((9.865233e-20 3.691303e-19 1.954048e-08) (-1.427551e-20 -1.947073e-20 2.610879e-09) (0.000000e+00 0.000000e+00 0.000000e+00))
0.00928897    	((-6.016906e-08 3.730691e-02 5.551953e-18) (-6.675192e-08 -7.123734e-05 -8.797510e-19) (0.000000e+00 0.000000e+00 0.000000e+00)) ((9.863623e-20 3.690654e-19 1.351839e-08) (-1.427610e-20 -1.948347e-20 2.282429e-09) (0.000000e+00 0.000000e+00 0.000000e+00))
0.00940748    	((-4.065434e-08 3.719309e-02 5.551122e-18) (-6.177236e-08 -7.127011e-05 -8.799543e-19) (0.000000e+00 0.000000e+00 0.000000e+00)) ((9.862150e-20 3.690016e-19 1.016131e-08) (-1.427928e-20 -1.949522e-20 2.779312e-09) (0.000000e+00 0.000000e+00 0.000000e+00))
0.00952598    	((-1.479467e-08 3.707562e-02 5.550342e-18) (-6.576567e-08 -7.128513e-05 -8.801584e-19) (0.000000e+00 0.000000e+00 0.000000e+00)) ((9.860787e-20 3.689386e-19 4.619343e-09) (-1.428162e-20 -1.950809e-20 2.270457e-09) (0.000000e+00 0.000000e+00 0.000000e+00))
0.00964449    	((-5.259295e-08 3.703281e-02 5.549469e-18) (-5.694989e-08 -7.125079e-05 -8.804744e-19) (0.000000e+00 0.000000e+00 0.000000e+00)) ((9.859270e-20 3.688753e-19 1.518484e-08) (-1.428658e-20 -1.951933e-20 2.142465e-09) (0.000000e+00 0.000000e+00 0.000000e+00))
0.00976299    	((-1.657814e-08 3.692190e-02 5.548659e-18) (-5.791413e-08 -7.127392e-05 -8.807857e-19) (0.000000e+00 0.000000e+00 0.000000e+00)) ((9.857828e-20 3.688132e-19 2.126437e-09) (-1.429095e-20 -1.953166e-20 2.054354e-09) (0.000000e+00 0.000000e+00 0.000000e+00))
0.0098815     	((-3.436938e-08 3.681376e-02 5.547889e-18) (-5.571900e-08 -7.127815e-05 -8.811676e-19) (0.000000e+00 0.000000e+00 0.000000e+00)) ((9.856480e-20 3.687518e-19 1.089183e-08) (-1.429662e-20 -1.954363e-20 2.014719e-09) (0.000000e+00 0.000000e+00 0.000000e+00))
0.01          	((7.156608e-09 3.672001e-02 5.547108e-18) (-5.503654e-08 -7.126711e-05 -8.815930e-19) (0.000000e+00 0.000000e+00 0.000000e+00)) ((9.855110e-20 3.686911e-19 8.411948e-09) (-1.430309e-20 -1.955516e-20 1.968402e-09) (0.000000e+00 0.000000e+00 0.000000e+00))
0.0101205     	((2.465157e-08 3.664478e-02 5.546290e-18) (-5.683340e-08 -7.127105e-05 -8.947714e-19) (0.000000e+00 0.000000e+00 0.000000e+00)) ((9.853672e-20 3.686297e-19 4.798481e-09) (-1.450941e-20 -1.980191e-20 2.028346e-09) (0.000000e+00 0.000000e+00 0.000000e+00))
0.010241      	((5.456905e-08 3.658413e-02 5.545448e-18) (-5.693637e-08 -7.127040e-05 -8.952600e-19) (0.000000e+00 0.000000e+00 0.000000e+00)) ((9.852189e-20 3.685687e-19 3.716597e-09) (-1.451661e-20 -1.981364e-20 2.079453e-09) (0.000000e+00 0.000000e+00 0.000000e+00))
0.0103614     	((1.967441e-08 3.652917e-02 5.544605e-18) (-5.875318e-08 -7.126633e-05 -8.957970e-19) (0.000000e+00 0.000000e+00 0.000000e+00)) ((9.850706e-20 3.685081e-19 6.262465e-09) (-1.452476e-20 -1.982525e-20 2.190782e-09) (0.000000e+00 0.000000e+00 0.000000e+00))
0.0104819     	((3.179278e-08 3.647859e-02 5.543759e-18) (-6.063233e-08 -7.126121e-05 -8.963609e-19) (0.000000e+00 0.000000e+00 0.000000e+00)) ((9.849212e-20 3.684477e-19 5.614964e-09) (-1.453330e-20 -1.983659e-20 2.325664e-09) (0.000000e+00 0.000000e+00 0.000000e+00))
0.0106024     	((3.253689e-08 3.642481e-02 5.542924e-18) (-5.983079e-08 -7.125345e-05 -8.969524e-19) (0.000000e+00 0.000000e+00 0.000000e+00)) ((9.847742e-20 3.683877e-19 5.247294e-09) (-1.454230e-20 -1.984783e-20 2.388494e-09) (0.000000e+00 0.000000e+00 0.000000e+00))
0.0107229     	((2.588077e-08 3.637138e-02 5.542094e-18) (-5.910753e-08 -7.124179e-05 -8.975626e-19) (0.000000e+00 0.000000e+00 0.000000e+00)) ((9.846278e-20 3.683279e-19 5.566045e-09) (-1.455157e-20 -1.985902e-20 2.406442e-09) (0.000000e+00 0.000000e+00 0.000000e+00))
0.0108434     	((2.227903e-08 3.634110e-02 5.541220e-18) (-5.806236e-08 -7.125763e-05 -8.982069e-19) (0.000000e+00 0.000000e+00 0.000000e+00)) ((9.844737e-20 3.682681e-19 5.414029e-09) (-1.456146e-20 -1.987009e-20 2.391534e-09) (0.000000e+00 0.000000e+00 0.000000e+00))
0.0109639     	((3.902316e-08 3.634179e-02 5.540322e-18) (-5.633806e-08 -7.119743e-05 -8.988331e-19) (0.000000e+00 0.000000e+00 0.000000e+00)) ((9.843160e-20 3.682081e-19 5.251876e-09) (-1.457087e-20 -1.988139e-20 2.351784e-09) (0.000000e+00 0.000000e+00 0.000000e+00))
0.0110843     	((1.073589e-08 3.632875e-02 5.539426e-18) (-5.672359e-08 -7.119422e-05 -8.994830e-19) (0.000000e+00 0.000000e+00 0.000000e+00)) ((9.841573e-20 3.681482e-19 9.053202e-09) (-1.458052e-20 -1.989268e-20 2.360254e-09) (0.000000e+00 0.000000e+00 0.000000e+00))
0.0112048     	((-5.258535e-09 3.629629e-02 5.538568e-18) (-5.690713e-08 -7.119093e-05 -9.001420e-19) (0.000000e+00 0.000000e+00 0.000000e+00)) ((9.840056e-20 3.680889e-19 4.416753e-09) (-1.459022e-20 -1.990397e-20 2.265686e-09) (0.000000e+00 0.000000e+00 0.000000e+00))
0.0113253     	((-2.240998e-08 3.624760e-02 5.537746e-18) (-5.543471e-08 -7.118276e-05 -9.008074e-19) (0.000000e+00 0.000000e+00 0.000000e+00)) ((9.838603e-20 3.680302e-19 1.205789e-08) (-1.459993e-20 -1.991517e-20 2.209261e-09) (0.000000e+00 0.000000e+00 0.000000e+00))
0.0114458     	((1.017069e-08 3.619609e-02 5.536937e-18) (-5.418750e-08 -7.116365e-05 -9.014737e-19) (0.000000e+00 0.000000e+00 0.000000e+00)) ((9.837173e-20 3.679720e-19 5.813151e-09) (-1.460958e-20 -1.992624e-20 2.111984e-09) (0.000000e+00 0.000000e+00 0.000000e+00))
0.0115663     	((2.826532e-08 3.615011e-02 5.536127e-18) (-5.263476e-08 -7.113924e-05 -9.021474e-19) (0.000000e+00 0.000000e+00 0.000000e+00)) ((9.835739e-20 3.679143e-19 1.185099e-08) (-1.461935e-20 -1.993727e-20 2.120871e-09) (0.000000e+00 0.000000e+00 0.000000e+00))