/*--------------------------------*- C++ -*----------------------------------*\
  =========                 |
  \\      /  F ield         | OpenFOAM: The Open Source CFD Toolbox
   \\    /   O peration     | Website:  https://openfoam.org
    \\  /    A nd           | Version:  8
     \\/     M anipulation  |
\*---------------------------------------------------------------------------*/
FoamFile
{
    version     2.0;
    format      ascii;
    class       volScalarField;
    location    "0.09";
    object      epsilon;
}
// * * * * * * * * * * * * * * * * * * * * * * * * * * * * * * * * * * * * * //

dimensions      [0 2 -3 0 0 0 0];

internalField   nonuniform List<scalar> 
15677
(
84.5949
23.1521
70.975
9.29639
34.1705
72.334
5.01223
15.8145
56.6316
79.2736
3.32147
8.59178
25.4712
82.0654
90.731
2.54764
5.37419
12.8106
38.8774
104.595
100.066
2.16907
3.75963
7.4848
18.5307
52.8214
121.689
107.079
1.9877
2.88029
4.93986
10.062
25.0373
65.573
133.702
112.658
1.91382
2.37929
3.58272
6.24491
12.9615
31.7054
76.2585
142.047
116.882
1.88415
2.09039
2.80538
4.31164
7.63624
16.0385
37.9717
85.0662
147.545
120.483
1.8693
1.94258
2.3441
3.23774
5.04674
9.09624
19.046
43.8271
91.937
151.333
123.147
1.86557
1.87829
2.07133
2.60563
3.65626
5.79821
10.5167
22.0358
48.9799
97.4367
153.684
125.514
1.86628
1.84756
1.92148
2.22495
2.8538
4.07413
6.51754
11.9448
24.8345
53.6251
101.532
155.351
127.195
1.86715
1.8363
1.85263
1.99969
2.37156
3.09795
4.46887
7.2342
13.2961
27.5558
57.5138
104.774
156.277
128.891
1.86741
1.83409
1.82009
1.87424
2.08015
2.51568
3.32763
4.85764
7.9057
14.6425
30.0072
60.8893
107.082
157.025
130.07
1.86744
1.83415
1.80899
1.81597
1.91021
2.16114
2.65239
3.55224
5.21857
8.56868
15.8891
32.2839
63.5829
108.952
157.283
131.507
1.86741
1.83432
1.80662
1.79026
1.81954
1.94855
2.2402
2.78628
3.76024
5.56786
9.18196
17.0781
34.2322
65.9009
110.177
157.629
132.449
1.86739
1.83435
1.80632
1.78256
1.77683
1.82805
1.98904
2.31896
2.91087
3.95787
5.88795
9.76149
18.1272
35.9969
67.6453
111.225
157.706
133.659
1.86737
1.83433
1.80634
1.78063
1.76134
1.76762
1.84204
2.03154
2.39329
3.02787
4.13741
6.18357
10.2724
19.0976
37.4312
69.1302
111.823
157.883
134.49
1.86735
1.8343
1.80635
1.78021
1.75635
1.74358
1.76351
1.85956
2.07288
2.46294
3.1336
4.29981
6.44081
10.7402
19.9212
38.6878
70.1787
112.309
157.952
135.542
1.86734
1.83427
1.80632
1.78011
1.75486
1.73487
1.72984
1.76384
1.87784
2.11213
2.52585
3.22798
4.43952
6.67062
11.1412
20.6554
39.6719
71.0063
112.52
158.116
136.311
1.86733
1.83424
1.80628
1.78006
1.75443
1.73187
1.71659
1.72016
1.76549
1.89618
2.14782
2.58172
3.30874
4.56133
6.86599
11.4953
21.2614
40.4666
71.5245
112.642
158.241
137.282
1.86733
1.83421
1.80625
1.78
1.75428
1.7309
1.71156
1.70182
1.71253
1.76907
1.91327
2.17967
2.62965
3.37826
4.66391
7.03421
11.793
21.7586
41.0483
71.8625
112.616
158.5
137.993
1.86733
1.83419
1.80622
1.77994
1.75419
1.73056
1.70975
1.69435
1.68898
1.70711
1.77302
1.9289
2.2073
2.67095
3.43671
4.75049
7.17512
12.0369
22.1437
41.4443
71.9825
112.545
158.71
138.945
1.86732
1.83417
1.80619
1.77989
1.75412
1.7304
1.70909
1.69146
1.67873
1.67845
1.70257
1.77722
1.94279
2.23151
2.70611
3.48599
4.8225
7.28913
12.2282
22.4189
41.6908
71.9492
112.377
159.12
139.609
1.86732
1.83415
1.80618
1.77985
1.75405
1.73028
1.70881
1.69034
1.67446
1.66539
1.66895
1.6995
1.78119
1.95554
2.25276
2.73638
3.52718
4.88079
7.3779
12.3693
22.5958
41.7573
71.8252
112.238
159.424
140.587
1.86732
1.83414
1.80616
1.77981
1.754
1.73019
1.70864
1.68987
1.67272
1.65966
1.65302
1.6614
1.6969
1.78578
1.96753
2.27196
2.76263
3.56161
4.9265
7.44465
12.4567
22.6817
41.7141
71.5968
111.969
160.008
141.211
1.86732
1.83413
1.80615
1.77978
1.75396
1.7301
1.70852
1.6896
1.67196
1.65719
1.64577
1.64283
1.65495
1.69653
1.79114
1.97938
2.28971
2.78584
3.58961
4.96185
7.48469
12.5083
22.6673
41.5982
71.2498
111.817
160.408
142.207
1.86732
1.83412
1.80614
1.77975
1.75392
1.73004
1.70842
1.68941
1.67156
1.65606
1.64253
1.63404
1.63387
1.65077
1.69739
1.79758
1.99154
2.30685
2.80661
3.61336
4.98615
7.513
12.5033
22.6137
41.372
70.8831
111.527
161.169
142.829
1.86732
1.83411
1.80614
1.77972
1.75389
1.72998
1.70834
1.68926
1.67131
1.65546
1.64105
1.62992
1.62366
1.62783
1.64888
1.69997
1.80567
2.00484
2.32411
2.82653
3.63322
5.00477
7.51391
12.4805
22.5016
41.0766
70.4398
111.394
161.65
143.787
1.86732
1.8341
1.80613
1.7797
1.75386
1.72993
1.70827
1.68914
1.67111
1.65507
1.64027
1.62792
1.61882
1.61642
1.6232
1.64983
1.70523
1.81615
2.0199
2.34258
2.84612
3.65134
5.01563
7.50825
12.432
22.3338
40.7294
70.0035
111.134
162.671
144.652
1.86732
1.83409
1.80613
1.77968
1.75383
1.72989
1.70822
1.68904
1.67096
1.6548
1.63978
1.62685
1.61648
1.61074
1.61037
1.62346
1.65309
1.71382
1.82961
2.03769
2.36294
2.86691
3.6684
5.02283
7.49466
12.3568
22.1346
40.3472
69.5304
111.034
162.986
145.489
1.86732
1.83408
1.80613
1.77966
1.75381
1.72985
1.70817
1.68895
1.67083
1.65457
1.63942
1.62619
1.61521
1.60785
1.60413
1.60976
1.6258
1.65994
1.72627
1.84704
2.05901
2.38664
2.8899
3.68652
5.02895
7.47165
12.2677
21.9117
39.9432
69.0622
110.824
163.682
146.318
1.86732
1.83408
1.80613
1.77965
1.75379
1.72982
1.70813
1.68887
1.67072
1.65439
1.63914
1.62573
1.61442
1.60625
1.601
1.60267
1.61167
1.63159
1.67179
1.74359
1.86929
2.08524
2.41455
2.91674
3.7069
5.0354
7.44542
12.1695
21.6758
39.5221
68.5433
110.606
164.639
147.169
1.86732
1.83407
1.80613
1.77964
1.75378
1.72979
1.7081
1.68881
1.67064
1.65423
1.63889
1.62536
1.61385
1.60526
1.59925
1.59899
1.60442
1.61706
1.64284
1.68917
1.76674
1.8977
2.11718
2.44821
2.94829
3.73158
5.04389
7.41899
12.0672
21.4319
39.0511
67.9896
110.456
165.744
148.021
1.83406
1.86736
1.80613
1.77963
1.75377
1.72976
1.70807
1.68875
1.67056
1.6541
1.63869
1.62506
1.6134
1.60456
1.59815
1.59692
1.60066
1.60969
1.62788
1.66043
1.71315
1.79703
1.93318
2.15644
2.48836
2.9862
3.76129
5.05635
7.39432
11.9653
21.1612
38.5398
67.467
110.345
166.938
148.891
1.80613
1.83414
1.86745
1.77963
1.75376
1.72974
1.70805
1.6887
1.67051
1.65398
1.63851
1.6248
1.61301
1.60402
1.59736
1.59564
1.59856
1.60591
1.62041
1.64585
1.68523
1.74504
1.83554
1.97727
2.20355
2.53645
3.03087
3.79758
5.07383
7.37428
11.8558
20.8695
38.0536
66.9719
110.346
168.199
149.732
1.77964
1.80627
1.83432
1.86754
1.75376
1.72972
1.70803
1.68865
1.67046
1.65387
1.63836
1.62458
1.61268
1.60356
1.59674
1.59473
1.59727
1.60384
1.61669
1.63882
1.67155
1.71877
1.78615
1.88365
2.03068
2.26005
2.59292
3.08385
3.84072
5.09748
7.35673
11.7441
20.5977
37.5883
66.5206
110.38
169.454
150.585
1.75376
1.77985
1.80657
1.8345
1.86763
1.7297
1.70801
1.68861
1.67042
1.65378
1.63823
1.62438
1.6124
1.60318
1.59622
1.59403
1.59637
1.60262
1.61476
1.63558
1.66542
1.70673
1.76243
1.83811
1.94258
2.09511
2.32611
2.65894
3.14478
3.89159
5.1313
7.34983
11.6481
20.344
37.1579
66.1173
110.456
170.748
151.385
1.72969
1.75403
1.78028
1.80688
1.83468
1.86772
1.70799
1.68857
1.67039
1.65371
1.63813
1.6242
1.61215
1.60284
1.59577
1.59344
1.59567
1.60179
1.61371
1.6342
1.6632
1.70236
1.753
1.81822
1.90234
2.01413
2.17094
2.40342
2.73415
3.21501
3.95718
5.17935
7.35386
11.565
20.1148
36.7552
65.7492
110.599
171.995
152.195
1.70797
1.72998
1.75457
1.78073
1.80719
1.83487
1.86782
1.68854
1.67036
1.65364
1.63804
1.62405
1.61194
1.60255
1.59538
1.59294
1.5951
1.60116
1.61306
1.63369
1.66278
1.70173
1.75111
1.81273
1.88803
1.98108
2.09926
2.2601
2.49175
2.81951
3.30228
4.04084
5.23841
7.36581
11.4973
19.9066
36.3935
65.4245
110.762
173.268
152.937
1.6885
1.70828
1.73057
1.75513
1.78119
1.80751
1.83507
1.86791
1.67034
1.65358
1.63797
1.62392
1.61176
1.60229
1.59504
1.59251
1.59461
1.60066
1.6126
1.63354
1.66319
1.70296
1.75289
1.8142
1.88704
1.97365
2.07597
2.20041
2.36273
2.59281
2.92562
3.41167
4.13565
5.30702
7.38936
11.4434
19.7228
36.0674
65.1347
110.973
174.464
153.691
1.67032
1.68882
1.70891
1.73119
1.7557
1.78166
1.80784
1.83526
1.86802
1.65354
1.63791
1.6238
1.61161
1.60206
1.59474
1.59214
1.5942
1.60024
1.61226
1.63353
1.66391
1.70504
1.75668
1.8198
1.89366
1.97916
2.076
2.18794
2.31836
2.48114
2.71864
3.05895
3.53405
4.24019
5.384
7.42319
11.404
19.5601
35.7762
64.8849
111.185
175.684
154.367
1.65349
1.67068
1.68949
1.70957
1.73182
1.7563
1.78215
1.80817
1.83547
1.86812
1.63786
1.6237
1.61149
1.60185
1.59449
1.59182
1.59383
1.59988
1.61199
1.6336
1.66472
1.70732
1.76129
1.82758
1.90467
1.99307
2.09074
2.19877
2.31738
2.45335
2.63051
2.87866
3.20799
3.66718
4.35298
5.46828
7.46532
11.376
19.4194
35.5174
64.6659
111.436
176.804
155.058
1.63782
1.65385
1.67144
1.69018
1.71025
1.73247
1.75691
1.78265
1.80852
1.83568
1.86823
1.62362
1.61139
1.60166
1.59428
1.59153
1.59352
1.59957
1.61177
1.6337
1.66556
1.70959
1.76597
1.83624
1.91818
2.01189
2.1145
2.22576
2.34267
2.46797
2.62194
2.81875
3.05807
3.37087
3.81068
4.47307
5.55857
7.51403
11.3592
19.2975
35.2873
64.4809
111.676
177.952
155.668
1.62354
1.63821
1.65465
1.67222
1.6909
1.71094
1.73315
1.75754
1.78316
1.80886
1.83589
1.86834
1.61131
1.6015
1.5941
1.59129
1.59324
1.5993
1.6116
1.63381
1.66637
1.71175
1.77049
1.84483
1.93269
2.03386
2.14406
2.26304
2.38548
2.51172
2.65893
2.8367
3.02816
3.25693
3.54836
3.96332
4.59877
5.6534
7.56829
11.3514
19.1936
35.0843
64.3199
111.949
178.98
156.294
1.61123
1.62388
1.63906
1.65546
1.67302
1.69163
1.71166
1.73385
1.75819
1.78369
1.80922
1.83612
1.86845
1.60135
1.59396
1.59107
1.593
1.59907
1.61145
1.63393
1.66715
1.71377
1.77479
1.85306
1.94692
2.05725
2.17784
2.30767
2.44052
2.57539
2.72811
2.9056
3.08028
3.25735
3.46841
3.73724
4.12295
4.72887
5.75153
7.62658
11.3529
19.1049
34.9053
64.1859
112.203
180.047
156.839
1.6012
1.61155
1.62469
1.63993
1.65631
1.67385
1.69239
1.7124
1.73457
1.75885
1.78423
1.80958
1.83634
1.86857
1.59385
1.59088
1.5928
1.59887
1.61132
1.63406
1.66789
1.71565
1.77883
1.86084
1.96058
2.08034
2.21373
2.35842
2.50537
2.65448
2.82118
3.01159
3.18876
3.35198
3.50676
3.69151
3.93586
4.28892
4.86229
5.85175
7.68805
11.3584
19.0297
34.7481
64.0709
112.482
180.975
157.401
1.59374
1.60139
1.61233
1.62551
1.64083
1.65718
1.6747
1.69317
1.71316
1.73531
1.75954
1.78478
1.80995
1.83657
1.86868
1.5907
1.59262
1.5987
1.61122
1.63418
1.66857
1.71738
1.78261
1.8681
1.97357
2.10268
2.24929
2.41276
2.57938
2.74748
2.93492
3.14851
3.3421
3.50917
3.65099
3.77455
3.92434
4.13964
4.45941
4.99763
5.95306
7.75147
11.3695
18.9666
34.6101
63.9768
112.737
181.958
157.886
1.59049
1.59391
1.60196
1.61311
1.62638
1.64176
1.65809
1.67556
1.69397
1.71394
1.73608
1.76024
1.78534
1.81031
1.83679
1.86879
1.59244
1.59856
1.61115
1.63431
1.66921
1.71897
1.78611
1.87484
1.98585
2.12403
2.28384
2.46742
2.65955
2.85467
3.06932
3.31569
3.53745
3.72279
3.86745
3.97633
4.0586
4.16576
4.34563
4.63211
5.13356
6.05434
7.81592
11.3858
18.9139
34.4894
63.8974
113.012
182.784
158.387
1.59226
1.59032
1.5944
1.6025
1.61394
1.62729
1.64272
1.65903
1.67645
1.6948
1.71475
1.73688
1.76096
1.7859
1.81065
1.837
1.86889
1.59842
1.61111
1.63445
1.6698
1.72044
1.78933
1.88107
1.99738
2.14423
2.31715
2.52143
2.74106
2.97249
3.22664
3.51655
3.77876
3.99569
4.15753
4.26452
4.32683
4.35675
4.41402
4.55255
4.80495
5.26857
6.15477
7.8807
11.4054
18.8703
34.3837
63.8339
113.262
183.686
158.816
1.59828
1.59195
1.59017
1.59486
1.60311
1.61481
1.62826
1.64371
1.66
1.67736
1.69566
1.71558
1.73769
1.76168
1.78643
1.81099
1.83721
1.86899
1.61106
1.6346
1.67036
1.72179
1.79229
1.8868
2.00815
2.16319
2.34907
2.57423
2.82215
3.09443
3.40366
3.75808
4.0762
4.34066
4.53428
4.6521
4.70186
4.70146
4.66697
4.66694
4.75908
4.9768
5.40227
6.25382
7.94518
11.4275
18.8345
34.2915
63.7816
113.525
184.411
159.258
1.61102
1.59772
1.59147
1.58991
1.59539
1.60379
1.61571
1.62927
1.64473
1.661
1.6783
1.69655
1.71644
1.7385
1.76237
1.78695
1.81131
1.83742
1.86909
1.63472
1.67089
1.72305
1.79502
1.89208
2.01816
2.18087
2.37949
2.62525
2.9019
3.21871
3.59199
4.03871
4.44684
4.78248
5.02821
5.17052
5.21492
5.18186
5.09947
4.98741
4.92257
4.96385
5.14522
5.53402
6.35088
8.00884
11.4516
18.8052
34.211
63.7409
113.764
185.238
159.637
1.63484
1.61006
1.59661
1.59085
1.58977
1.59596
1.60454
1.61665
1.63033
1.64578
1.66204
1.67925
1.69745
1.71729
1.7393
1.76305
1.78745
1.81163
1.83762
1.86919
1.67134
1.72421
1.79753
1.89695
2.02742
2.19731
2.40833
2.67401
2.97984
3.34456
3.78825
4.34618
4.89717
5.36309
5.69515
5.88294
5.9278
5.85632
5.70734
5.52024
5.31633
5.1792
5.16615
5.30858
5.66269
6.44543
8.07124
11.4769
18.7817
34.1409
63.7085
114.011
185.879
159.966
1.67179
1.63326
1.60789
1.59527
1.59036
1.58977
1.59655
1.60538
1.61763
1.63143
1.64686
1.6631
1.68023
1.69835
1.71813
1.74007
1.7637
1.78793
1.81194
1.83782
1.86928
1.72525
1.79985
1.90145
2.03599
2.21258
2.43554
2.72025
3.05573
3.4708
3.98934
4.67652
5.41868
6.11609
6.62695
6.89855
6.95455
6.83072
6.58593
6.28045
5.9629
5.65208
5.43534
5.36519
5.46656
5.78748
6.53703
8.13204
11.5031
18.763
34.0795
63.6844
114.235
186.513
160.234
1.72627
1.66948
1.62935
1.60543
1.59412
1.58995
1.58995
1.59714
1.60629
1.61864
1.63259
1.64798
1.66419
1.6812
1.69924
1.71895
1.74083
1.76434
1.7884
1.81223
1.83802
1.86937
1.80195
1.90561
2.04394
2.22679
2.46111
2.7639
3.12943
3.59586
4.19245
5.02961
6.0162
7.04379
7.90063
8.38108
8.47642
8.2855
7.89733
7.40936
6.9014
6.42591
5.99296
5.68966
5.55997
5.61887
5.90783
6.62533
8.19095
11.5297
18.7482
34.0261
63.6661
114.428
186.982
160.55
1.80394
1.72301
1.66327
1.62502
1.60324
1.59307
1.58952
1.59032
1.59775
1.60727
1.6197
1.63378
1.64912
1.66527
1.68215
1.7001
1.71975
1.74156
1.76495
1.78885
1.81253
1.83821
1.86946
1.90942
2.05128
2.24003
2.48509
2.80506
3.20076
3.71819
4.39618
5.40696
6.69493
8.15215
9.51277
10.4507
10.7409
10.4852
9.89823
9.1335
8.32592
7.56773
6.90682
6.33715
5.94099
5.74971
5.76529
6.0234
6.71009
8.24779
11.5563
18.7369
33.9793
63.6552
114.582
187.513
160.87
1.91298
1.79953
1.71351
1.65655
1.62109
1.60122
1.5921
1.58906
1.59083
1.5984
1.60832
1.62081
1.63501
1.65027
1.66631
1.68307
1.70094
1.72054
1.74228
1.76555
1.78929
1.81281
1.8384
1.8695
2.05806
2.25237
2.50757
2.84391
3.26955
3.83667
4.60071
5.80975
7.45326
9.43489
11.4505
13.0766
13.9122
13.7739
12.9458
11.7923
10.5321
9.32847
8.27417
7.40231
6.68272
6.18825
5.93376
5.90567
6.13395
6.79113
8.30233
11.5827
18.7284
33.9438
63.6458
114.762
188.058
161.25
2.06424
1.90712
1.78537
1.70341
1.65038
1.61742
1.59934
1.59121
1.58866
1.59145
1.5991
1.60943
1.62198
1.63622
1.65139
1.66732
1.68397
1.70176
1.72131
1.74298
1.76613
1.78971
1.81309
1.83849
1.86951
2.26389
2.52861
2.88064
3.33559
3.95083
4.80718
6.23736
8.28305
10.8721
13.6847
16.2213
17.9284
18.3799
17.5068
15.8504
13.9489
12.0758
10.4047
9.01333
7.9083
7.0276
6.43044
6.11166
6.03989
6.23935
6.86836
8.35461
11.6087
18.723
33.9152
63.6381
114.949
188.681
161.623
2.27422
2.05671
1.88628
1.77056
1.69409
1.64456
1.61396
1.5976
1.5904
1.58835
1.59214
1.59989
1.61058
1.62317
1.63741
1.65248
1.6683
1.68485
1.70256
1.72206
1.74366
1.76669
1.79012
1.81322
1.83848
1.86951
2.54836
2.91537
3.39871
4.06073
5.01698
6.68727
9.17231
12.4373
16.172
19.8321
22.7324
24.2201
23.9104
21.9359
19.1708
16.3375
13.7407
11.5393
9.77645
8.42029
7.36974
6.66668
6.28302
6.16791
6.33958
6.94182
8.40444
11.6307
18.7192
33.8858
63.6305
115.175
189.285
162.074
2.56573
2.26446
2.02636
1.86487
1.75685
1.68524
1.639
1.61069
1.59598
1.58969
1.58816
1.59289
1.60077
1.61173
1.62435
1.63857
1.65355
1.66926
1.68571
1.70334
1.7228
1.74432
1.76724
1.79032
1.81321
1.83848
1.86951
2.94831
3.45887
4.16694
5.23112
7.15532
10.1076
14.1022
18.8635
23.837
28.2444
31.2219
32.0668
30.5258
27.0334
22.8652
18.9209
15.5002
12.7156
10.5543
8.93367
7.70714
6.89617
6.44756
6.28976
6.43468
7.01142
8.44555
11.6498
18.7162
33.8555
63.6284
115.405
189.992
162.501
2.97695
2.55337
2.22037
1.99572
1.84502
1.74377
1.67674
1.63369
1.60762
1.59448
1.5891
1.58808
1.59367
1.60172
1.61286
1.62553
1.63969
1.65459
1.67018
1.68655
1.70411
1.72352
1.74496
1.76751
1.79033
1.81321
1.83848
1.86951
3.51629
4.27032
5.44997
7.63605
11.075
15.8393
21.7094
28.1542
34.3496
39.2676
41.8888
41.5392
38.2123
32.7502
26.8822
21.659
17.3273
13.9172
11.3379
9.44401
8.03789
7.1182
6.60512
6.40553
6.52476
7.06863
8.48054
11.6711
18.7138
33.8252
63.6301
115.685
190.654
163.032
3.56573
2.96099
2.48924
2.17666
1.96726
1.82601
1.73115
1.66856
1.62863
1.60475
1.59312
1.58862
1.58818
1.59444
1.60272
1.61397
1.62669
1.64078
1.6556
1.67108
1.68736
1.70485
1.72422
1.74529
1.76752
1.79033
1.81321
1.83848
1.8695
4.37162
5.67145
8.12348
12.061
17.6222
24.6617
32.6997
40.9137
48.1766
53.2055
54.8762
52.6552
46.9195
39.0183
31.1644
24.5112
19.1959
15.1288
12.1189
9.94722
8.36028
7.33221
6.75557
6.51524
6.59836
7.11727
8.51902
11.6949
18.7129
33.7949
63.6361
115.965
191.468
163.516
4.46031
3.54566
2.86634
2.42688
2.13602
1.93996
1.80764
1.71897
1.66071
1.6238
1.6021
1.59189
1.58825
1.58854
1.59518
1.60376
1.61506
1.62783
1.64185
1.65659
1.67196
1.68816
1.70559
1.72457
1.74529
1.76753
1.79033
1.81321
1.83849
1.86946
5.89237
8.61323
13.053
19.426
27.6747
37.392
47.7963
57.7307
65.7378
70.2943
70.2546
65.3737
56.5606
45.755
35.6511
27.4381
21.0824
16.3369
12.8899
10.4396
8.67283
7.5377
6.89875
6.60514
6.66048
7.17066
8.56141
11.7217
18.7136
33.7657
63.6486
116.311
192.195
164.137
4.4344
6.08696
3.40169
2.77656
2.36881
2.09699
1.91353
1.78987
1.70723
1.65318
1.6192
1.59969
1.59079
1.58783
1.58909
1.59591
1.60481
1.61614
1.62895
1.64289
1.65754
1.67281
1.68894
1.70594
1.72457
1.7453
1.76753
1.79033
1.81322
1.8384
1.86937
9.10079
14.0399
21.2283
30.706
42.1544
54.8619
67.7007
79.1408
87.3758
90.6796
88.0101
79.5924
67.0177
52.8669
40.2806
30.4026
22.9656
17.5294
13.6446
10.9182
8.97419
7.73407
7.01636
6.68144
6.72823
7.22928
8.60814
11.7518
18.7157
33.7376
63.6751
116.648
193.154
164.68
4.19895
6.06619
9.53329
3.26995
2.69299
2.31303
2.05919
1.88793
1.77271
1.69594
1.64599
1.61484
1.59749
1.58984
1.58746
1.58974
1.59666
1.60586
1.6172
1.63004
1.6439
1.65847
1.67365
1.68933
1.70593
1.72457
1.7453
1.76752
1.79032
1.81309
1.83821
1.86928
15.0103
23.0097
33.7182
46.9181
61.9873
77.8689
93.0515
105.594
113.329
114.398
108.037
95.1526
78.1476
60.2545
44.9932
33.3711
24.8268
18.6964
14.3777
11.38
9.26297
7.8959
7.11633
6.76511
6.80217
7.29367
8.65976
11.7858
18.7205
33.7127
63.7086
117.075
193.964
165.406
3.992
5.65003
9.5427
15.8738
3.14821
2.6127
2.25903
2.02258
1.8632
1.75618
1.68514
1.63916
1.6108
1.59558
1.58905
1.58722
1.59044
1.59744
1.60691
1.61826
1.6311
1.64489
1.65939
1.67406
1.68931
1.70593
1.72457
1.74529
1.76751
1.79011
1.81281
1.83801
1.86919
24.7508
36.6801
51.6244
69.0654
88.0438
107.13
124.391
137.428
143.711
141.365
130.14
111.846
89.7902
67.8178
49.7329
36.3136
26.6501
19.8293
15.0845
11.8226
9.50142
8.03386
7.22624
6.85696
6.88294
7.36445
8.71684
11.8241
18.7285
33.6904
63.7617
117.481
195.128
166.015
3.80455
5.28751
8.78236
15.9598
26.31
3.03167
2.53508
2.20677
1.9872
1.83938
1.74034
1.67483
1.63275
1.6072
1.59395
1.58841
1.5871
1.59117
1.59824
1.60794
1.61929
1.63213
1.64588
1.65984
1.67404
1.68931
1.70593
1.72457
1.74529
1.76723
1.7897
1.81252
1.83782
1.86909
39.5617
56.2271
76.0104
98.0669
121.089
143.254
162.15
174.852
178.489
171.367
154.041
129.429
101.778
75.4602
54.4483
39.2033
28.4221
20.9211
15.7609
12.188
9.70511
8.18604
7.34724
6.9579
6.97129
7.4423
8.78005
11.8674
18.7407
33.6745
63.8262
118.011
196.044
166.865
3.6282
4.96037
8.10534
14.657
26.5845
42.1497
2.91935
2.46011
2.15633
1.95313
1.81651
1.72519
1.66512
1.62695
1.60406
1.59255
1.58793
1.5871
1.5919
1.59908
1.60894
1.62032
1.63319
1.64636
1.65982
1.67404
1.68931
1.70593
1.72457
1.74496
1.76668
1.78927
1.81222
1.83762
1.86899
60.6829
82.7587
107.819
134.702
161.759
186.733
206.633
217.923
217.476
204.069
179.39
147.634
113.946
83.0917
59.0936
42.0179
30.1311
21.9654
16.3187
12.5002
9.93029
8.35412
7.4806
7.06895
7.06804
7.52797
8.85009
11.9166
18.7573
33.6633
63.917
118.508
197.509
167.561
3.46082
4.65547
7.48573
13.4555
24.5715
42.7666
64.6825
2.81115
2.3879
2.10781
1.92044
1.79466
1.7109
1.65627
1.62181
1.60132
1.59136
1.58758
1.58723
1.59262
1.59993
1.60992
1.6214
1.6337
1.64633
1.65982
1.67404
1.68931
1.70594
1.72421
1.74431
1.76612
1.78884
1.81192
1.83741
1.86889
89.2525
117.22
147.811
179.589
210.565
237.955
258.017
266.534
260.317
239.019
205.794
166.192
126.136
90.6308
63.6293
44.7378
31.7673
22.8265
16.7956
12.8457
10.1795
8.54001
7.62778
7.19125
7.17408
7.62225
8.92777
11.9723
18.7805
33.6648
64.0274
119.168
198.556
168.551
3.3019
4.36947
6.9048
12.3284
22.6764
39.853
65.8303
95.0585
2.70716
2.31861
2.06131
1.88922
1.77401
1.69783
1.64836
1.61725
1.59894
1.59036
1.58732
1.58754
1.59329
1.6008
1.611
1.62192
1.63364
1.64634
1.65982
1.67404
1.68933
1.70558
1.7235
1.74364
1.76553
1.78838
1.81162
1.83721
1.86878
126.199
160.325
196.547
233.21
267.935
297.213
316.332
320.392
306.497
275.675
232.835
184.838
138.206
98.0074
68.0216
47.3463
33.118
23.563
17.3232
13.2283
10.4557
8.7458
7.79038
7.32606
7.29043
7.72606
9.01395
12.0357
18.8098
33.6734
64.1708
119.792
200.444
169.584
3.15122
4.1021
6.35788
11.2546
20.8577
37.0818
61.8158
96.9308
134.165
2.60754
2.25242
2.01696
1.85975
1.75511
1.68611
1.64129
1.61319
1.59692
1.58952
1.58705
1.58798
1.59397
1.60186
1.61149
1.62183
1.63365
1.64634
1.65982
1.67406
1.68894
1.70484
1.72278
1.74296
1.76493
1.78791
1.8113
1.837
1.86868
172.169
212.542
254.424
295.973
334.254
364.718
381.443
379.001
355.351
313.443
260.097
203.332
150.03
105.162
72.2416
49.5037
34.2744
24.3785
17.9076
13.6524
10.7619
8.97383
7.97019
7.47476
7.4182
7.84038
9.1097
12.1076
18.8495
33.6931
64.3463
120.615
201.901
171.061
3.00846
3.85379
5.84573
10.2291
19.0876
34.3841
57.9945
91.592
136.917
182.544
2.51258
2.18949
1.97516
1.83277
1.73815
1.67561
1.63498
1.60956
1.59519
1.58881
1.58679
1.58851
1.59488
1.60233
1.61134
1.62185
1.63365
1.64633
1.65984
1.67365
1.68815
1.70408
1.72204
1.74225
1.76431
1.78743
1.81098
1.83678
1.86857
227.506
274.138
321.768
368.294
409.907
440.585
453.022
441.666
406.102
351.702
287.19
221.463
161.505
112.043
75.7375
51.3524
35.5562
25.2823
18.5554
14.1226
11.1016
9.22664
8.16916
7.63889
7.55865
7.96635
9.21602
12.1898
18.8974
33.7366
64.5643
121.576
204.459
172.21
2.87303
3.62562
5.36994
9.25853
17.3555
31.7216
54.2478
86.5511
129.979
186.236
240.371
2.42261
2.13037
1.93696
1.80859
1.72293
1.6662
1.62933
1.60636
1.59371
1.58819
1.58662
1.58939
1.59521
1.60215
1.61135
1.62185
1.63364
1.64636
1.65938
1.6728
1.68734
1.70331
1.72128
1.74154
1.76368
1.78693
1.81064
1.83656
1.86845
292.314
345.297
398.948
450.683
495.316
524.83
530.527
507.503
457.897
389.853
313.772
239.056
172.545
117.748
78.7339
53.4027
36.9781
26.2848
19.2737
14.6442
11.4785
9.50705
8.38946
7.82016
7.71318
8.10516
9.33431
12.283
18.9608
33.7932
64.8787
122.982
207.028
173.989
2.74471
3.41931
4.93181
8.34694
15.6624
29.0756
50.5215
81.6081
123.538
177.33
244.912
307.519
2.33848
2.07649
1.90277
1.78692
1.70929
1.65777
1.6243
1.60355
1.5924
1.5877
1.587
1.58973
1.59489
1.60218
1.61135
1.62183
1.6337
1.64587
1.65845
1.67194
1.68652
1.70253
1.72051
1.7408
1.76303
1.78642
1.8103
1.83634
1.86834
366.587
426.27
486.529
543.868
590.999
617.341
613.172
575.464
509.867
427.36
339.561
255.971
181.697
122.635
82.0559
55.678
38.5563
27.397
20.0704
15.2228
11.8968
9.8181
8.63346
8.02046
7.88331
8.25828
9.46578
12.39
19.0361
33.9015
65.3493
124.386
210.543
175.303
2.62463
3.2305
4.53157
7.49633
14.022
26.444
46.7812
76.6871
117.268
169.264
233.513
312.601
383.704
2.26226
2.0284
1.87219
1.76748
1.69706
1.65022
1.61981
1.60103
1.5913
1.58787
1.58697
1.5894
1.5949
1.60218
1.61134
1.62192
1.63319
1.64487
1.65752
1.67105
1.68568
1.70172
1.71972
1.74005
1.76235
1.78589
1.80994
1.83611
1.86823
450.412
517.625
585.518
648.994
697.629
717.828
699.909
644.402
561.205
463.772
364.331
269.978
189.521
128.044
85.7397
58.2039
40.3084
28.6313
20.9541
15.8645
12.3609
10.1631
8.90372
8.2418
8.07081
8.42701
9.61221
12.5116
19.1518
34.0679
65.9123
126.168
213.857
177.581
2.51581
3.05777
4.17086
6.71171
12.4528
23.838
43.013
71.7289
111.066
161.529
223.512
297.961
388.748
468.716
2.19462
1.98549
1.84484
1.75006
1.68609
1.64347
1.61576
1.59887
1.59108
1.5877
1.58639
1.58946
1.5949
1.60215
1.61149
1.6214
1.63211
1.64387
1.65655
1.67015
1.68482
1.70091
1.71892
1.73928
1.76167
1.78534
1.80958
1.83589
1.86812
544.246
620.441
697.58
767.806
815.986
825.699
789.445
713.171
611.209
498.738
384.816
281.924
198.154
134.028
89.8248
61.0079
42.2537
30.0009
21.9341
16.576
12.8754
10.5456
9.20299
8.48641
8.27742
8.61338
9.77533
12.6774
19.3131
34.3076
66.578
127.961
218.365
179.131
2.41943
2.90313
3.85112
5.99977
10.973
21.2767
39.2188
66.6974
104.838
153.991
214.132
285.578
369.797
472.855
562.74
2.1346
1.94719
1.82036
1.73446
1.67626
1.63735
1.61221
1.59794
1.59064
1.587
1.58644
1.58946
1.59489
1.60233
1.611
1.6203
1.63107
1.64286
1.65556
1.66922
1.68394
1.70007
1.71811
1.73849
1.76096
1.78478
1.80921
1.83567
1.86801
649.046
736.629
825.527
902.72
946.706
939.966
880.363
780.727
659.326
527.629
402.237
295.053
207.673
140.646
94.3527
64.1197
44.4131
31.5204
23.0205
17.3642
13.4454
10.9691
9.53412
8.75651
8.50533
8.81857
9.9904
12.8933
19.5163
34.5857
67.3592
130.299
222.285
182.055
2.33433
2.76585
3.57808
5.36847
9.60538
18.7837
35.4119
61.5741
98.5146
146.508
205.203
274.289
354.4
448.029
564.836
666.825
2.08128
1.91302
1.79846
1.72047
1.66735
1.63194
1.61029
1.59701
1.58973
1.58708
1.58644
1.58939
1.59521
1.60185
1.6099
1.61926
1.63001
1.64181
1.65455
1.66827
1.68304
1.69921
1.71728
1.73769
1.76024
1.78422
1.80885
1.83546
1.86791
766.78
870.125
973.954
1056.62
1090.1
1059.39
971.281
846.193
699.127
552.144
421.305
309.461
218.153
147.957
99.3673
67.5709
46.8087
33.2052
24.2238
18.2365
14.076
11.4376
9.89996
9.05463
8.75642
9.08803
10.2634
13.1362
19.7479
34.9508
68.2766
132.613
227.804
183.888
2.25931
2.64334
3.35333
4.8309
8.37176
16.3848
31.6153
56.353
92.0443
138.97
196.525
263.882
340.816
428.766
531.783
665.596
783.404
2.03387
1.88254
1.77887
1.70782
1.65944
1.62866
1.60873
1.59578
1.58986
1.58708
1.58639
1.58973
1.59488
1.60079
1.60891
1.61822
1.62891
1.64074
1.65351
1.66729
1.68212
1.69834
1.71643
1.73687
1.75953
1.78368
1.8085
1.83526
1.86781
902.248
1028.11
1149.23
1232.86
1246.45
1182.84
1060.9
900.632
732.87
578.876
442.123
325.236
229.669
156.02
104.914
71.3944
49.4638
35.0715
25.5553
19.2006
14.7723
11.9546
10.3035
9.38276
9.08418
9.41875
10.5571
13.4032
20.0295
35.3646
69.3552
135.625
232.178
187.592
2.19319
2.53432
3.16326
4.38401
7.30274
14.1324
27.8616
51.0405
85.3842
131.279
187.936
254.074
328.773
412.348
507.567
620.629
777.596
917.173
1.99173
1.85536
1.76119
1.69659
1.65429
1.62626
1.60718
1.59595
1.58985
1.587
1.58697
1.58939
1.59396
1.5999
1.6079
1.61716
1.62779
1.63965
1.65244
1.66628
1.68119
1.69745
1.71558
1.73607
1.75884
1.78315
1.80816
1.83506
1.86772
1063.95
1221.19
1360.16
1436.13
1417.48
1309.01
1136.37
946.872
769.587
607.929
464.782
342.459
242.291
164.893
111.037
75.6236
52.4027
37.1362
27.0264
20.2641
15.5394
12.5238
10.747
9.81061
9.49006
9.76456
10.8705
13.7018
20.3481
35.8879
70.5984
138.572
238.823
189.803
2.13488
2.43779
2.99929
4.01562
6.4055
12.1173
24.2216
45.6581
78.5024
123.338
179.282
244.646
317.87
398.418
487.606
590.147
715.053
905.272
1078.17
1.95424
1.83094
1.74549
1.68892
1.65072
1.6243
1.60741
1.59595
1.58973
1.5877
1.58701
1.58849
1.59328
1.59905
1.60687
1.6161
1.62665
1.63853
1.65136
1.66525
1.68023
1.69654
1.71473
1.73529
1.75817
1.78263
1.80783
1.83487
1.86762
1266.49
1466.52
1621.88
1679.14
1605.55
1417.66
1200.82
997.203
809.36
639.371
489.345
361.192
256.08
174.629
117.779
80.2916
55.6492
39.4159
28.6484
21.4345
16.3821
13.1478
11.3242
10.3358
9.91446
10.1261
11.2057
14.0299
20.7288
36.4724
72.069
142.348
243.433
194.439
2.08335
2.35281
2.85543
3.71277
5.66257
10.3834
20.8395
40.2844
71.3827
115.053
170.401
235.38
307.82
386.39
471.449
565.763
676.804
817.284
1057.46
1282.04
1.92071
1.80929
1.73435
1.68384
1.64824
1.62461
1.60741
1.59577
1.59064
1.58788
1.58662
1.58796
1.59259
1.59821
1.60582
1.61502
1.62549
1.63738
1.65025
1.66418
1.67925
1.69565
1.71392
1.73454
1.75752
1.78213
1.8075
1.83468
1.86753
1541.87
1802.84
1977.43
1986.02
1771.91
1511.04
1271.12
1051.64
852.209
673.225
515.844
381.478
271.082
185.273
125.181
85.4291
59.2261
41.9267
30.432
22.7187
17.3043
13.9578
12.0287
10.8799
10.3554
10.5045
11.5627
14.3962
21.1581
37.1972
73.7158
146.074
251.461
197.116
2.03752
2.27827
2.72771
3.46672
5.05318
8.92109
17.8064
35.1221
64.0824
106.341
161.122
226.046
298.331
375.9
458.19
546.967
646.953
769.585
933.659
1257.36
1571.29
1.89105
1.79351
1.72715
1.68075
1.64866
1.62461
1.60717
1.59701
1.5911
1.58771
1.58679
1.58753
1.59187
1.59741
1.60477
1.61393
1.62432
1.6362
1.64912
1.66309
1.67828
1.69478
1.71313
1.73382
1.75689
1.78164
1.80718
1.83449
1.86745
1977.03
2344.62
2535.68
2259.05
1914.41
1612.65
1346.96
1110.05
898.063
709.454
544.267
403.324
287.319
196.857
133.272
91.0622
63.1535
44.6828
32.387
24.1222
18.4985
14.9417
12.7536
11.4396
10.8114
10.8999
11.9446
14.7998
21.6647
38.0067
75.6883
150.667
256.396
1118.81
1.99713
2.21271
2.61403
3.26387
4.55596
7.69936
15.1304
30.3292
56.8434
97.1945
151.263
216.388
289.109
366.559
447.374
532.298
625.058
733.076
874.029
1078.36
1560.15
2106.04
1.86884
1.78362
1.72331
1.6813
1.64865
1.62429
1.60874
1.59797
1.59131
1.58821
1.58706
1.58722
1.59114
1.59664
1.60372
1.61283
1.62315
1.635
1.64797
1.66202
1.67734
1.69395
1.71237
1.73312
1.75628
1.78117
1.80687
1.83432
1.86736
2790.95
3441.73
2992.66
2483.38
2066.23
1721.08
1427.72
1172.15
946.759
747.952
574.549
426.698
304.788
209.392
142.072
97.2096
67.4468
47.6959
34.5201
25.9372
19.944
15.9491
13.494
12.0122
11.2809
11.3136
12.3528
15.2506
22.2386
38.994
77.8396
155.437
299.697
2080.39
1.96633
2.1556
2.51291
3.0921
4.15306
6.69112
12.8197
25.9507
49.8857
87.8456
140.711
206.117
279.821
358.012
438.49
521.19
608.747
707.556
829.584
1003.38
1287.81
2172.75
3270.44
1.85516
1.77893
1.72402
1.6813
1.64823
1.62626
1.61033
1.5989
1.59243
1.58883
1.58733
1.5871
1.59042
1.59589
1.60269
1.61171
1.62197
1.63377
1.64685
1.66097
1.67642
1.69314
1.71163
1.73245
1.75568
1.78071
1.80656
1.83414
1.86732