/*--------------------------------*- C++ -*----------------------------------*\
  =========                 |
  \\      /  F ield         | OpenFOAM: The Open Source CFD Toolbox
   \\    /   O peration     | Website:  https://openfoam.org
    \\  /    A nd           | Version:  8
     \\/     M anipulation  |
\*---------------------------------------------------------------------------*/
FoamFile
{
    version     2.0;
    format      ascii;
    class       volScalarField;
    location    "0.09";
    object      k;
}
// * * * * * * * * * * * * * * * * * * * * * * * * * * * * * * * * * * * * * //

dimensions      [0 2 -2 0 0 0 0];

internalField   nonuniform List<scalar> 
15677
(
0.308538
0.362172
0.258948
0.366735
0.377737
0.263894
0.368772
0.371413
0.44289
0.28914
0.370347
0.36661
0.394011
0.523615
0.330902
0.371451
0.365323
0.3719
0.438397
0.584533
0.364959
0.372187
0.365785
0.364623
0.386657
0.484101
0.627311
0.390585
0.372645
0.36672
0.362585
0.367085
0.408551
0.523815
0.656747
0.410956
0.372893
0.367654
0.362706
0.360748
0.373571
0.430845
0.556175
0.678581
0.426365
0.372994
0.368414
0.363514
0.359312
0.360943
0.381987
0.451413
0.583748
0.69444
0.43948
0.373008
0.368952
0.364445
0.359672
0.356946
0.361922
0.390151
0.471353
0.606388
0.707468
0.449177
0.372983
0.369279
0.365266
0.360605
0.35635
0.355029
0.363178
0.39887
0.489793
0.626426
0.71693
0.457808
0.372954
0.369437
0.365886
0.361613
0.357002
0.353316
0.353214
0.364773
0.407774
0.508038
0.642461
0.725153
0.463943
0.372937
0.369483
0.366285
0.362484
0.358035
0.35361
0.350359
0.351614
0.366691
0.417847
0.524187
0.656577
0.730895
0.470143
0.372931
0.369476
0.366493
0.36313
0.359063
0.354614
0.350321
0.347577
0.350236
0.36964
0.427749
0.539347
0.667331
0.736561
0.474463
0.37293
0.369457
0.366567
0.363534
0.359913
0.355763
0.351322
0.347211
0.344971
0.349485
0.373035
0.437896
0.551807
0.677294
0.74
0.479716
0.372929
0.369444
0.366573
0.363736
0.360513
0.356797
0.352616
0.348228
0.344268
0.342752
0.349195
0.376963
0.446847
0.563533
0.684295
0.744311
0.483155
0.372928
0.369435
0.366563
0.363798
0.360865
0.357594
0.353847
0.349674
0.345301
0.341595
0.340884
0.34925
0.380651
0.455714
0.572523
0.691375
0.746774
0.487567
0.372926
0.369428
0.366552
0.363806
0.361007
0.358114
0.354848
0.351105
0.346897
0.342588
0.339194
0.339251
0.3494
0.384573
0.462951
0.581175
0.696008
0.750283
0.490594
0.372924
0.369422
0.366543
0.363798
0.361047
0.358362
0.355548
0.352313
0.348521
0.344299
0.340095
0.336973
0.337751
0.349732
0.387891
0.470056
0.58749
0.700892
0.752419
0.494419
0.372923
0.369417
0.366536
0.363787
0.361046
0.358457
0.355917
0.353202
0.349926
0.346096
0.34189
0.33776
0.334894
0.336435
0.350002
0.391339
0.47564
0.593435
0.703977
0.755422
0.497217
0.372921
0.369413
0.366531
0.363778
0.361033
0.358481
0.356079
0.353704
0.350991
0.347684
0.343836
0.339628
0.335574
0.332998
0.33521
0.35047
0.394151
0.480844
0.597617
0.707252
0.75752
0.500753
0.372921
0.36941
0.366526
0.363769
0.361018
0.358476
0.356136
0.353948
0.35162
0.348927
0.345593
0.341718
0.337531
0.333576
0.331262
0.334197
0.350842
0.396835
0.484795
0.601353
0.709281
0.760345
0.50334
0.37292
0.369407
0.366523
0.363762
0.361004
0.358461
0.356145
0.35405
0.351942
0.349694
0.346993
0.34364
0.339787
0.335636
0.331771
0.329758
0.33332
0.351274
0.39897
0.488209
0.603789
0.711463
0.762465
0.50681
0.372919
0.369404
0.36652
0.363756
0.360992
0.358444
0.356133
0.354077
0.352088
0.350112
0.347875
0.345207
0.341899
0.33807
0.333963
0.330223
0.328481
0.332629
0.351677
0.400795
0.490586
0.605925
0.712712
0.765338
0.509229
0.372919
0.369403
0.366517
0.363751
0.360982
0.358427
0.356115
0.35407
0.352137
0.350319
0.348363
0.346236
0.343647
0.340371
0.336607
0.332576
0.328956
0.327496
0.33214
0.352029
0.402132
0.492512
0.606961
0.714156
0.767545
0.512793
0.372918
0.369401
0.366515
0.363747
0.360974
0.358413
0.356096
0.354049
0.352139
0.350401
0.348609
0.346838
0.344797
0.342307
0.33916
0.335466
0.331521
0.328026
0.326766
0.331807
0.352389
0.403174
0.493568
0.60781
0.714937
0.7707
0.515068
0.372918
0.3694
0.366514
0.363743
0.360967
0.358402
0.356079
0.354024
0.352119
0.350415
0.348709
0.347164
0.34547
0.343647
0.341333
0.338233
0.33465
0.330806
0.327434
0.326434
0.331828
0.35274
0.40378
0.494265
0.607912
0.715981
0.77293
0.518701
0.372917
0.369399
0.366513
0.36374
0.360961
0.358392
0.356064
0.354001
0.352092
0.350395
0.34873
0.347312
0.345839
0.344473
0.342781
0.340606
0.337807
0.334426
0.330731
0.327457
0.326518
0.33198
0.353055
0.404217
0.494232
0.607802
0.716466
0.776519
0.52097
0.372916
0.369398
0.366512
0.363737
0.360957
0.358384
0.356052
0.353981
0.352064
0.35036
0.34871
0.347352
0.346015
0.344943
0.343663
0.342386
0.340625
0.337939
0.334642
0.330993
0.327747
0.326844
0.332346
0.353445
0.404254
0.494009
0.60748
0.7174
0.778689
0.524466
0.372916
0.369398
0.366511
0.363735
0.360953
0.358377
0.356042
0.353965
0.352039
0.350323
0.348671
0.347333
0.346074
0.345162
0.344195
0.343532
0.342546
0.340961
0.33846
0.335293
0.331708
0.328465
0.327551
0.333062
0.353872
0.404206
0.493528
0.60696
0.717798
0.782983
0.527619
0.372916
0.369397
0.366511
0.363733
0.360949
0.358371
0.356033
0.353952
0.352017
0.35029
0.348626
0.347286
0.346065
0.34523
0.344499
0.344215
0.343786
0.343111
0.34182
0.339588
0.336621
0.333119
0.329842
0.328811
0.334109
0.354428
0.404089
0.492768
0.60623
0.718648
0.784603
0.53067
0.372915
0.369397
0.36651
0.363732
0.360947
0.358366
0.356025
0.353941
0.351999
0.350261
0.348585
0.347229
0.346018
0.345216
0.344628
0.344564
0.34455
0.344514
0.344305
0.343494
0.341587
0.338778
0.335272
0.331861
0.330546
0.335529
0.355153
0.403929
0.491887
0.60542
0.719123
0.787799
0.533689
0.372915
0.369396
0.36651
0.363731
0.360944
0.358362
0.356018
0.353932
0.351984
0.350236
0.348548
0.347175
0.345955
0.345159
0.344647
0.344716
0.34497
0.345407
0.345983
0.346418
0.346081
0.344465
0.341768
0.338199
0.334523
0.332815
0.337327
0.35609
0.403761
0.490874
0.604502
0.719622
0.791573
0.536787
0.372916
0.369395
0.36651
0.363731
0.360943
0.358358
0.356012
0.353925
0.351971
0.350215
0.348515
0.347127
0.345892
0.345084
0.344601
0.344748
0.345167
0.34593
0.347091
0.348409
0.349491
0.349669
0.348323
0.345688
0.341937
0.3379
0.335609
0.339564
0.357269
0.403734
0.489773
0.603444
0.7202
0.795688
0.539887
0.369394
0.37292
0.36651
0.36373
0.360942
0.358354
0.356007
0.353918
0.35196
0.350197
0.348488
0.347085
0.345834
0.34501
0.344523
0.34471
0.345227
0.346198
0.347782
0.349761
0.351872
0.35368
0.354383
0.353273
0.350595
0.346565
0.341985
0.338979
0.342201
0.358765
0.403833
0.488556
0.602463
0.720923
0.800023
0.543057
0.366509
0.369402
0.372929
0.363731
0.360941
0.358351
0.356003
0.353912
0.351951
0.350181
0.348464
0.347049
0.345782
0.344943
0.344439
0.344635
0.345207
0.346306
0.348174
0.350645
0.35354
0.356549
0.359132
0.360361
0.359395
0.356579
0.352088
0.346837
0.342903
0.345201
0.360772
0.404145
0.487499
0.601477
0.721838
0.804409
0.546116
0.363731
0.366524
0.36942
0.372939
0.360941
0.358349
0.355999
0.353907
0.351943
0.350168
0.348443
0.347017
0.345736
0.344882
0.34436
0.344551
0.345142
0.346321
0.34837
0.351195
0.354684
0.358625
0.362612
0.366013
0.367707
0.366798
0.363658
0.358572
0.352419
0.347433
0.348938
0.36346
0.404769
0.48649
0.600691
0.722872
0.808791
0.549221
0.360942
0.363754
0.366554
0.369439
0.372949
0.358347
0.355996
0.353903
0.351937
0.350156
0.348426
0.346989
0.345696
0.344829
0.344288
0.344471
0.345065
0.346282
0.34845
0.351523
0.355457
0.360119
0.365216
0.370254
0.374453
0.376553
0.375516
0.371912
0.36598
0.358771
0.35309
0.353645
0.366588
0.405689
0.485736
0.599969
0.72406
0.813143
0.552131
0.358345
0.36097
0.3638
0.366584
0.369457
0.372959
0.355992
0.353899
0.351932
0.350147
0.348412
0.346965
0.345661
0.344782
0.344223
0.344397
0.344988
0.346223
0.348463
0.351715
0.355982
0.361204
0.367178
0.373533
0.379636
0.384614
0.386957
0.385647
0.381305
0.374356
0.366632
0.360184
0.358878
0.370111
0.406916
0.48506
0.599461
0.725328
0.817382
0.555079
0.355989
0.358375
0.361029
0.363848
0.366616
0.369476
0.37297
0.353895
0.351928
0.350138
0.3484
0.346944
0.345631
0.344742
0.344167
0.344332
0.344917
0.346162
0.348445
0.351824
0.356354
0.362017
0.368695
0.376114
0.383773
0.390953
0.396577
0.399038
0.397157
0.391894
0.384678
0.376406
0.368023
0.364579
0.373983
0.408365
0.484672
0.599052
0.726666
0.82156
0.557777
0.353891
0.356021
0.358439
0.36109
0.363897
0.366648
0.369496
0.372981
0.351924
0.350131
0.34839
0.346926
0.345604
0.344706
0.344117
0.344274
0.344854
0.346104
0.348418
0.35189
0.356626
0.362664
0.369924
0.378226
0.38717
0.396172
0.404318
0.410497
0.412767
0.410118
0.404915
0.397454
0.387137
0.376506
0.370683
0.37817
0.410093
0.484347
0.598815
0.72806
0.825553
0.560519
0.35192
0.353925
0.356088
0.358505
0.361153
0.363947
0.366681
0.369516
0.372992
0.350124
0.348383
0.346911
0.345582
0.344676
0.344073
0.344223
0.344799
0.346053
0.348389
0.351936
0.356839
0.363196
0.370983
0.380044
0.390087
0.400634
0.410898
0.419937
0.42636
0.428252
0.426048
0.420992
0.411423
0.398689
0.385523
0.377114
0.382569
0.412077
0.484351
0.598698
0.729471
0.829482
0.56298
0.350118
0.351957
0.353997
0.356157
0.358574
0.361218
0.363999
0.366715
0.369537
0.373003
0.348376
0.346898
0.345562
0.34465
0.344035
0.344179
0.34475
0.346007
0.348364
0.351975
0.357018
0.363646
0.371914
0.381701
0.392723
0.404627
0.416725
0.428214
0.437843
0.444335
0.447307
0.445712
0.438541
0.426414
0.410915
0.394972
0.38382
0.387028
0.414272
0.484441
0.598722
0.73092
0.833172
0.565493
0.34837
0.350156
0.352037
0.354071
0.356229
0.358644
0.361285
0.364052
0.366749
0.369558
0.373015
0.346886
0.345546
0.344628
0.344002
0.34414
0.344707
0.345968
0.348341
0.35201
0.357178
0.364044
0.372738
0.383227
0.39523
0.408387
0.422136
0.435783
0.448188
0.458264
0.466579
0.470934
0.467202
0.457344
0.442231
0.42367
0.404741
0.390759
0.391536
0.416615
0.484649
0.598784
0.732339
0.836814
0.567711
0.346875
0.348411
0.350241
0.35212
0.354147
0.356302
0.358717
0.361354
0.364107
0.366784
0.369579
0.373028
0.345532
0.344609
0.343973
0.344106
0.34467
0.345933
0.348323
0.352042
0.357323
0.364406
0.373485
0.384615
0.397618
0.412092
0.42741
0.443053
0.457942
0.47115
0.483688
0.494374
0.496887
0.490255
0.477164
0.458686
0.436803
0.414725
0.397839
0.396076
0.419055
0.485043
0.598903
0.733778
0.840167
0.569989
0.345519
0.34691
0.348502
0.350327
0.352205
0.354225
0.356379
0.358792
0.361425
0.364163
0.36682
0.369602
0.373041
0.344592
0.343947
0.344077
0.344637
0.345904
0.348307
0.352073
0.357456
0.364737
0.374172
0.385895
0.399842
0.415721
0.432758
0.450357
0.467596
0.483662
0.499962
0.515736
0.525141
0.524933
0.514649
0.497786
0.475588
0.450167
0.424821
0.404985
0.400616
0.42156
0.485585
0.599077
0.735158
0.84351
0.571971
0.344576
0.345547
0.346994
0.348596
0.350417
0.352292
0.354306
0.356457
0.35887
0.361498
0.36422
0.366857
0.369625
0.373053
0.343923
0.344052
0.34461
0.345879
0.348295
0.352103
0.357579
0.365042
0.374806
0.387084
0.401925
0.419165
0.438111
0.457964
0.477569
0.496408
0.516239
0.536696
0.551569
0.558654
0.554791
0.540137
0.518983
0.492751
0.463622
0.434933
0.412128
0.405131
0.424101
0.486235
0.599297
0.736547
0.846515
0.574018
0.343899
0.344593
0.345621
0.347079
0.348693
0.35051
0.352382
0.354389
0.356539
0.358951
0.361573
0.364278
0.366894
0.369648
0.373065
0.344029
0.344587
0.345858
0.348285
0.352132
0.357692
0.365322
0.37539
0.388188
0.403879
0.422428
0.443276
0.465759
0.488204
0.509921
0.533304
0.558355
0.578297
0.59104
0.594667
0.586185
0.566462
0.540543
0.510007
0.477044
0.444975
0.41921
0.409595
0.426652
0.486968
0.599558
0.737861
0.849563
0.575779
0.344007
0.343887
0.344647
0.345695
0.347169
0.348794
0.350605
0.352475
0.354474
0.356623
0.359034
0.361651
0.364337
0.36693
0.36967
0.373077
0.344566
0.345841
0.348278
0.352159
0.357796
0.365579
0.375928
0.389211
0.405709
0.425513
0.448236
0.473424
0.499306
0.524664
0.551897
0.58182
0.606826
0.624809
0.634014
0.632947
0.618834
0.593361
0.562272
0.527205
0.490323
0.454872
0.426179
0.413983
0.429193
0.48776
0.599854
0.739175
0.85222
0.577602
0.344543
0.343975
0.343888
0.344699
0.345777
0.347264
0.3489
0.350704
0.352571
0.354562
0.35671
0.35912
0.36173
0.364396
0.366965
0.369692
0.373089
0.345824
0.348274
0.352187
0.357893
0.365815
0.376422
0.390157
0.407414
0.428421
0.452987
0.480883
0.510357
0.540403
0.572743
0.608217
0.63878
0.662106
0.676401
0.680434
0.673282
0.652475
0.620595
0.583988
0.544216
0.503369
0.464561
0.432995
0.418276
0.431701
0.488597
0.600177
0.740408
0.854995
0.579162
0.345807
0.344479
0.343933
0.343888
0.344757
0.345865
0.347363
0.349009
0.350806
0.352669
0.354652
0.3568
0.359209
0.361808
0.364452
0.366999
0.369713
0.3731
0.348267
0.352214
0.357984
0.366032
0.376875
0.39103
0.408997
0.43115
0.457514
0.488088
0.52123
0.556464
0.595599
0.638723
0.676006
0.705558
0.725143
0.733542
0.730368
0.715522
0.686886
0.647957
0.605533
0.56093
0.516105
0.47399
0.439625
0.422453
0.434163
0.489459
0.600525
0.741628
0.857312
0.580771
0.34826
0.345697
0.344367
0.343874
0.343909
0.344818
0.34596
0.347467
0.349123
0.350911
0.35277
0.354745
0.356893
0.359297
0.361884
0.364506
0.367032
0.369735
0.373111
0.352236
0.358069
0.366234
0.377293
0.391833
0.410462
0.4337
0.461799
0.494995
0.531885
0.57268
0.619365
0.67314
0.720874
0.758788
0.78494
0.797659
0.797012
0.784003
0.759569
0.721881
0.675271
0.626774
0.577257
0.528472
0.483118
0.446041
0.426501
0.436564
0.490337
0.600884
0.742773
0.859845
0.58215
0.352258
0.348074
0.345476
0.344236
0.343813
0.343947
0.344882
0.346062
0.347576
0.349239
0.351019
0.352874
0.354841
0.356986
0.359383
0.361957
0.364559
0.367064
0.369755
0.373122
0.358143
0.36642
0.377677
0.392573
0.411816
0.436074
0.465831
0.501579
0.542281
0.588902
0.643561
0.710164
0.774596
0.827323
0.862948
0.880959
0.881725
0.86764
0.841524
0.805337
0.757299
0.702391
0.6476
0.59313
0.540425
0.491917
0.452223
0.43041
0.438898
0.491218
0.601261
0.743888
0.861877
0.583343
0.358215
0.351983
0.34767
0.345231
0.344121
0.343755
0.343998
0.344951
0.346171
0.347689
0.34936
0.351131
0.352979
0.354936
0.357077
0.359468
0.362029
0.364609
0.367095
0.369776
0.373132
0.366585
0.37803
0.393256
0.413067
0.43828
0.469612
0.507826
0.552364
0.60492
0.667953
0.749953
0.836947
0.915424
0.9694
0.995199
0.996987
0.978757
0.945857
0.902932
0.852686
0.792983
0.729193
0.667922
0.608494
0.551929
0.500363
0.458158
0.434168
0.44115
0.492094
0.601634
0.744944
0.863814
0.584318
0.366744
0.357824
0.351336
0.347232
0.345012
0.344016
0.343705
0.344061
0.345026
0.346285
0.347808
0.349484
0.351245
0.353084
0.35503
0.357166
0.35955
0.362098
0.364658
0.367125
0.369796
0.373142
0.37835
0.393882
0.414222
0.440327
0.473146
0.513731
0.562072
0.620558
0.692545
0.79311
0.908606
1.02192
1.10961
1.15399
1.15819
1.13366
1.08863
1.03134
0.967918
0.901373
0.828767
0.755568
0.687671
0.623307
0.562964
0.508445
0.463836
0.437773
0.443324
0.492959
0.602021
0.745799
0.865298
0.58547
0.37865
0.366206
0.356832
0.350644
0.346831
0.34481
0.343919
0.343665
0.344131
0.345108
0.346405
0.347932
0.34961
0.351359
0.353186
0.355121
0.357253
0.35963
0.362164
0.364705
0.367155
0.369816
0.373152
0.394455
0.415286
0.442226
0.476446
0.519297
0.571361
0.635725
0.717494
0.839843
0.988822
1.14364
1.2756
1.35876
1.37897
1.34899
1.28842
1.20951
1.12294
1.03583
0.951042
0.864464
0.781417
0.70679
0.637542
0.573516
0.516154
0.469252
0.441217
0.445402
0.493804
0.602341
0.746524
0.866906
0.586634
0.394983
0.377928
0.364731
0.355783
0.350001
0.346457
0.344622
0.343833
0.343637
0.344209
0.345199
0.34653
0.348061
0.349735
0.351471
0.353284
0.355211
0.357338
0.359709
0.362229
0.364751
0.367184
0.369836
0.373157
0.416264
0.443983
0.479523
0.524531
0.580207
0.650406
0.742922
0.889645
1.07514
1.2752
1.45752
1.59157
1.65395
1.63607
1.56104
1.45663
1.33845
1.21896
1.10576
1.00125
0.899874
0.806649
0.72524
0.651179
0.583577
0.523489
0.474404
0.444504
0.447399
0.494523
0.602626
0.747311
0.868637
0.588016
0.417152
0.39404
0.375782
0.363189
0.354802
0.349392
0.346104
0.344446
0.343759
0.343621
0.344292
0.3453
0.346659
0.348192
0.349857
0.351579
0.353381
0.355299
0.357422
0.359785
0.362291
0.364795
0.367212
0.369845
0.373158
0.44561
0.482386
0.529442
0.588607
0.664621
0.768807
0.941485
1.16451
1.41077
1.64608
1.83743
1.95636
1.98314
1.91542
1.78691
1.63308
1.47209
1.31742
1.17666
1.05149
0.934782
0.831179
0.742989
0.664208
0.593147
0.53045
0.479296
0.447628
0.449034
0.495154
0.602929
0.748202
0.870505
0.589371
0.447068
0.415949
0.390964
0.373562
0.361739
0.353865
0.348809
0.345772
0.344283
0.343697
0.343622
0.344379
0.34541
0.346788
0.348321
0.349975
0.351685
0.353475
0.355386
0.357503
0.359859
0.362352
0.364838
0.367225
0.369844
0.373158
0.485052
0.534041
0.596571
0.678397
0.794991
0.994172
1.25416
1.54565
1.83391
2.08524
2.26834
2.35695
2.33536
2.20815
2.01986
1.81299
1.60728
1.41644
1.24751
1.10127
0.968983
0.854933
0.760013
0.676625
0.60223
0.537045
0.483929
0.450207
0.450419
0.495857
0.603295
0.749175
0.872435
0.591012
0.487408
0.44554
0.411589
0.387819
0.37147
0.36035
0.352964
0.348251
0.345463
0.344134
0.343645
0.343646
0.344467
0.345527
0.346915
0.348447
0.35009
0.351788
0.353566
0.35547
0.357583
0.359931
0.36241
0.364859
0.367224
0.369844
0.373158
0.538353
0.604117
0.69175
0.821234
1.04662
1.34205
1.67664
2.01605
2.32716
2.57781
2.73765
2.78256
2.70154
2.50698
2.25438
1.9924
1.74137
1.51434
1.31736
1.15011
1.00228
0.877842
0.776293
0.688431
0.610836
0.543282
0.487731
0.452403
0.451933
0.496657
0.603692
0.750266
0.874528
0.592566
0.542123
0.485495
0.439411
0.407184
0.38485
0.369458
0.359008
0.352096
0.347714
0.345176
0.343997
0.343591
0.343697
0.344556
0.345647
0.34704
0.348571
0.350201
0.351888
0.353656
0.355553
0.357662
0.360001
0.36244
0.36486
0.367224
0.369844
0.373158
0.611281
0.704697
0.84728
1.09797
1.4268
1.80183
2.18955
2.55819
2.8763
3.11196
3.23518
3.22434
3.0743
2.80614
2.4862
2.16829
1.87227
1.60978
1.38542
1.1976
1.03451
0.899848
0.791821
0.699634
0.618973
0.548388
0.490954
0.454816
0.453594
0.49755
0.604187
0.751449
0.87666
0.594497
0.617544
0.539725
0.476891
0.433292
0.403018
0.381987
0.367508
0.35771
0.35126
0.347201
0.344909
0.343874
0.343538
0.343766
0.344645
0.345769
0.347162
0.348692
0.35031
0.351986
0.353743
0.355634
0.357738
0.360037
0.362441
0.36486
0.367224
0.369844
0.373157
0.717245
0.872908
1.14756
1.50754
1.92014
2.35284
2.77549
3.15836
3.4701
3.67795
3.7522
3.67474
3.44753
3.10106
2.71212
2.33844
1.99846
1.70175
1.45107
1.24342
1.06551
0.920904
0.806592
0.710237
0.625628
0.552711
0.494481
0.457472
0.455417
0.498575
0.604718
0.752774
0.879037
0.596256
0.728315
0.614559
0.527555
0.468418
0.427494
0.398991
0.379206
0.365618
0.356457
0.350459
0.346717
0.344665
0.343764
0.343495
0.343845
0.344735
0.34589
0.347282
0.348809
0.350416
0.35208
0.353828
0.355714
0.357776
0.360038
0.362442
0.36486
0.367224
0.369845
0.373152
0.897891
1.19498
1.58379
2.03105
2.50523
2.97767
3.42085
3.80549
4.09899
4.2671
4.28089
4.12709
3.81609
3.38819
2.92977
2.5013
2.1189
1.78955
1.51385
1.28729
1.09517
0.940971
0.820589
0.718908
0.631263
0.557437
0.498344
0.460397
0.457426
0.499715
0.605393
0.754211
0.881411
0.598517
0.724712
0.919907
0.596679
0.515818
0.460372
0.421881
0.395074
0.376505
0.36379
0.355251
0.349694
0.346263
0.344444
0.343671
0.343469
0.343929
0.344829
0.34601
0.347401
0.348924
0.350518
0.352173
0.353912
0.355752
0.357776
0.360039
0.362442
0.36486
0.367225
0.369836
0.373142
1.23991
1.65535
2.13443
2.64654
3.16432
3.66234
4.11425
4.48986
4.7542
4.87132
4.81396
4.57542
4.17571
3.66478
3.1375
2.65584
2.23291
1.87269
1.57342
1.32901
1.12339
0.96
0.832045
0.726255
0.637426
0.562608
0.502581
0.463624
0.459638
0.501033
0.606107
0.755815
0.884183
0.60049
0.696727
0.916814
1.27863
0.579993
0.504675
0.452569
0.416414
0.391265
0.373887
0.362025
0.354095
0.348969
0.345846
0.34425
0.343596
0.343457
0.344016
0.344925
0.346129
0.347518
0.349034
0.350618
0.352264
0.353953
0.355751
0.357776
0.360039
0.362441
0.364859
0.367212
0.369816
0.373132
1.72207
2.23035
2.77695
3.33557
3.88261
4.39472
4.84548
5.20247
5.4274
5.48275
5.34453
5.01445
4.52288
3.92878
3.3342
2.80147
2.34012
1.9509
1.62959
1.36845
1.15008
0.975577
0.841765
0.734302
0.644173
0.568272
0.507231
0.467186
0.46209
0.502494
0.607026
0.757559
0.886865
0.603133
0.671112
0.871793
1.27644
1.77894
0.564359
0.493851
0.444968
0.411093
0.387568
0.371357
0.360329
0.352992
0.34829
0.345473
0.344083
0.34354
0.343462
0.344103
0.345024
0.346245
0.347632
0.349142
0.350718
0.352308
0.353951
0.35575
0.357776
0.360038
0.36244
0.364838
0.367183
0.369796
0.373122
2.31892
2.89691
3.49203
4.08223
4.64686
5.16368
5.60501
5.93476
6.11043
6.09375
5.86617
5.43954
4.85477
4.17876
3.51921
2.93786
2.44034
2.02405
1.68224
1.4055
1.17186
0.988804
0.852429
0.743123
0.651568
0.57448
0.51234
0.471125
0.464798
0.504197
0.607987
0.759505
0.890213
0.605347
0.647545
0.829522
1.20985
1.77874
2.39405
0.549287
0.48329
0.437568
0.405924
0.383991
0.368919
0.358704
0.351951
0.347674
0.345147
0.343942
0.343498
0.343484
0.344188
0.345125
0.346358
0.347744
0.349251
0.350767
0.352305
0.35395
0.35575
0.357776
0.360037
0.36241
0.364795
0.367154
0.369775
0.373111
3.00679
3.63457
4.26232
4.8718
5.44467
5.95891
6.38404
6.67848
6.79518
6.69684
6.37292
5.84676
5.16928
4.41379
3.69221
3.06494
2.53356
2.09211
1.73131
1.43555
1.19034
1.00333
0.864142
0.752805
0.65968
0.581293
0.517961
0.475482
0.467815
0.506077
0.609242
0.761634
0.893288
0.608436
0.625311
0.790038
1.14447
1.69297
2.39706
3.09934
0.534638
0.473001
0.430381
0.400918
0.380542
0.366581
0.357166
0.351
0.347124
0.344866
0.343822
0.343464
0.343527
0.344271
0.345227
0.346469
0.34786
0.349303
0.350764
0.352305
0.35395
0.355751
0.357776
0.360001
0.362351
0.36475
0.367124
0.369755
0.3731
3.76397
4.42443
5.07147
5.69031
6.26454
6.77111
7.17438
7.42554
7.47354
7.28484
6.8595
6.23298
5.46494
4.63338
3.85312
3.18279
2.61988
2.15513
1.77083
1.46094
1.21059
1.01929
0.877018
0.763442
0.668589
0.588777
0.524149
0.48031
0.471157
0.508283
0.610539
0.764023
0.8975
0.610969
0.60413
0.75283
1.08063
1.6068
2.29453
3.10602
3.87163
0.52039
0.463007
0.423425
0.396089
0.377231
0.364363
0.355754
0.350147
0.346633
0.344625
0.343721
0.343427
0.343584
0.344352
0.345331
0.346587
0.347915
0.349298
0.350764
0.352305
0.353951
0.355752
0.357737
0.35993
0.36229
0.364704
0.367094
0.369734
0.373089
4.5699
5.24835
5.90364
6.52474
7.0964
7.59215
7.96834
8.16781
8.13743
7.85099
7.32143
6.5959
5.74088
4.83737
4.0021
3.29161
2.69947
2.20561
1.8041
1.48868
1.23281
1.03684
0.891184
0.775138
0.678382
0.597006
0.530968
0.485661
0.4749
0.510712
0.612254
0.766648
0.901045
0.61457
0.583884
0.717794
1.01809
1.52041
2.1905
2.98858
3.88102
4.68853
0.506559
0.453337
0.416716
0.39145
0.374087
0.362323
0.354485
0.349382
0.346194
0.344417
0.343637
0.343398
0.343649
0.344434
0.345449
0.346641
0.347909
0.349299
0.350764
0.352305
0.353953
0.355713
0.35766
0.359857
0.362227
0.364656
0.367063
0.369713
0.373077
5.40456
6.08845
6.74398
7.36382
7.93193
8.41501
8.75847
8.89697
8.77885
8.38923
7.75519
6.93397
5.99671
5.02591
4.13943
3.39171
2.76299
2.24797
1.84029
1.51895
1.25716
1.05613
0.906776
0.788008
0.689156
0.606062
0.538491
0.491605
0.479062
0.513581
0.614009
0.76965
0.9065
0.618325
0.564509
0.684961
0.957062
1.43343
2.08503
2.86912
3.74933
4.69792
5.52805
0.493177
0.444023
0.410275
0.387047
0.371193
0.360485
0.353343
0.348697
0.345807
0.34424
0.343566
0.343378
0.34372
0.344535
0.345503
0.346629
0.34791
0.349299
0.350764
0.352308
0.353912
0.355632
0.357581
0.359782
0.362162
0.364607
0.367031
0.369691
0.373065
6.24797
6.92782
7.57969
8.19869
8.76474
9.23335
9.53704
9.60438
9.39019
8.89449
8.15826
7.24642
6.23252
5.19938
4.26553
3.47142
2.81619
2.29392
1.87963
1.55198
1.28385
1.07735
0.923945
0.802178
0.701019
0.616038
0.546799
0.498206
0.483751
0.516737
0.616361
0.772888
0.911432
0.623699
0.545961
0.654359
0.898039
1.34585
1.97761
2.74748
3.61597
4.55122
5.53281
6.3689
0.480284
0.435096
0.404164
0.382994
0.368585
0.358829
0.352316
0.348084
0.345468
0.344088
0.343506
0.34337
0.343822
0.344575
0.345488
0.34663
0.34791
0.349298
0.350767
0.352263
0.353827
0.355551
0.357501
0.359706
0.362095
0.364557
0.366998
0.369669
0.373053
7.081
7.75184
8.4009
9.02332
9.58975
10.0409
10.2958
10.2813
9.96453
9.36283
8.52918
7.53318
6.44874
5.35828
4.36577
3.5381
2.8738
2.34371
1.92234
1.58797
1.31306
1.10067
0.942849
0.817788
0.71409
0.627038
0.555983
0.505556
0.488984
0.520489
0.618746
0.777534
0.918785
0.627874
0.528219
0.625954
0.841656
1.25801
1.86793
2.62309
3.48037
4.4042
5.36854
6.36296
7.19095
0.467922
0.426644
0.398542
0.379342
0.366233
0.357338
0.351394
0.347539
0.345171
0.343952
0.343461
0.343413
0.343865
0.344546
0.345491
0.34663
0.347909
0.349303
0.350717
0.352171
0.353741
0.355467
0.357419
0.359627
0.362026
0.364505
0.366964
0.369647
0.37304
7.88705
8.54924
9.20162
9.83352
10.4028
10.8307
11.0258
10.919
10.496
9.79164
8.86754
7.79472
6.64607
5.48429
4.44947
3.61016
2.93608
2.39759
1.96865
1.62712
1.345
1.12627
0.96366
0.834988
0.728503
0.63918
0.56615
0.513741
0.494916
0.524615
0.622574
0.783031
0.927344
0.634348
0.51128
0.599632
0.788596
1.17051
1.75592
2.49533
3.34205
4.25584
5.20669
6.17623
7.16696
7.97536
0.456223
0.418888
0.393478
0.376051
0.364114
0.355996
0.350567
0.347052
0.344904
0.343839
0.343478
0.343414
0.343836
0.344546
0.345491
0.346629
0.347916
0.34925
0.350616
0.352078
0.353653
0.355382
0.357335
0.359547
0.361955
0.364451
0.366929
0.369625
0.373028
8.65303
9.3143
9.97583
10.623
11.198
11.5959
11.7171
11.5093
10.9803
10.1798
9.17382
8.03197
6.80187
5.58919
4.53971
3.68793
3.00333
2.4558
2.01877
1.66964
1.37986
1.15435
0.986555
0.853941
0.744402
0.652595
0.577414
0.522879
0.50157
0.530472
0.627175
0.789717
0.937432
0.639126
0.49527
0.575218
0.739511
1.08419
1.64174
2.36374
3.20012
4.10581
5.04553
5.99658
6.95064
7.92357
8.70775
0.445504
0.41192
0.388921
0.373087
0.362205
0.354788
0.349825
0.346613
0.344674
0.343809
0.343463
0.343359
0.343842
0.344546
0.345488
0.346641
0.347859
0.34914
0.350515
0.351982
0.353563
0.355296
0.35725
0.359465
0.361882
0.364395
0.366893
0.369602
0.373015
9.36991
10.0327
10.7118
11.3827
11.9671
12.3257
12.3594
12.0455
11.4149
10.5277
9.4492
8.21803
6.93092
5.70181
4.63682
3.77171
3.07579
2.51856
2.0729
1.71571
1.41783
1.18509
1.01172
0.874816
0.761946
0.667425
0.589916
0.53309
0.510571
0.537894
0.633187
0.796543
0.948318
0.647421
0.480581
0.552695
0.694827
1.0001
1.52576
2.22805
3.05369
3.95301
4.88498
5.82116
6.74836
7.66969
8.61162
9.38127
0.435899
0.40566
0.38482
0.370419
0.360487
0.353702
0.349153
0.346226
0.344563
0.343764
0.343398
0.343361
0.343841
0.344546
0.345503
0.346586
0.347742
0.349031
0.350412
0.351884
0.353471
0.355208
0.357163
0.359381
0.361807
0.364337
0.366856
0.369579
0.373003
10.0344
10.7149
11.4272
12.1183
12.7026
13.0088
12.9429
12.5226
11.7995
10.8366
9.66301
8.37106
7.0686
5.82243
4.74107
3.86174
3.15369
2.58606
2.13119
1.76548
1.45907
1.21867
1.03932
0.897788
0.781298
0.683837
0.603804
0.546652
0.522132
0.54654
0.639364
0.805026
0.961171
0.653058
0.467395
0.53238
0.654697
0.919586
1.40862
2.08818
2.90201
3.79619
4.72378
5.65007
6.5557
7.43857
8.31303
9.21208
9.9787
0.427307
0.400038
0.381132
0.368017
0.358939
0.352716
0.348555
0.345994
0.344468
0.34368
0.343403
0.343361
0.343836
0.344575
0.345448
0.346467
0.347629
0.34892
0.350306
0.351784
0.353377
0.355118
0.357074
0.359295
0.361729
0.364278
0.366819
0.369557
0.372991
10.6377
11.3546
12.1197
12.8378
13.401
13.633
13.4591
12.9386
12.1354
11.0731
9.83718
8.53282
7.21493
5.9512
4.85267
3.95823
3.23722
2.65846
2.1938
1.81909
1.50372
1.25524
1.06954
0.923026
0.80264
0.701991
0.622115
0.563863
0.534964
0.55582
0.647261
0.813989
0.973986
0.663711
0.455588
0.514246
0.620239
0.844946
1.29135
1.94425
2.74438
3.63407
4.56037
5.48187
6.37279
7.22449
8.04636
8.86239
9.71848
10.4906
0.419624
0.39499
0.377818
0.365855
0.357535
0.351836
0.348164
0.345823
0.344357
0.343688
0.343403
0.343359
0.343865
0.344535
0.345329
0.346355
0.347514
0.348805
0.350197
0.351681
0.353281
0.355027
0.356984
0.359208
0.36165
0.364219
0.366783
0.369536
0.37298
11.1784
11.9566
12.7889
13.532
14.0511
14.1857
13.9023
13.294
12.3874
11.2632
10.019
8.70291
7.36978
6.08814
4.97173
4.06132
3.3265
2.73587
2.26081
1.87662
1.55187
1.29492
1.1025
0.950696
0.826118
0.725815
0.645119
0.582482
0.548999
0.566652
0.655499
0.82498
0.989753
0.67038
0.445043
0.497969
0.591177
0.779009
1.17626
1.79663
2.58024
3.46533
4.39303
5.31476
6.19782
7.02739
7.806
8.55366
9.30444
10.1205
10.9141
0.412753
0.39046
0.374838
0.363895
0.356279
0.351226
0.347898
0.345673
0.344369
0.343688
0.343398
0.343414
0.343822
0.344432
0.345225
0.346241
0.347397
0.348687
0.350085
0.351576
0.353183
0.354935
0.356892
0.35912
0.361572
0.364161
0.366748
0.369515
0.372969
11.6593
12.5278
13.439
14.1894
14.6375
14.6546
14.2707
13.5532
12.5863
11.4583
10.2074
8.88065
7.53279
6.23312
5.09822
4.17105
3.42157
2.81833
2.33225
1.93808
1.60356
1.33778
1.13832
0.980899
0.856732
0.755432
0.669659
0.602557
0.564593
0.578332
0.666076
0.83668
1.00415
0.683876
0.435646
0.483331
0.566358
0.723194
1.0681
1.64707
2.40919
3.2886
4.21981
5.14663
6.02873
6.84481
7.59165
8.28217
8.94585
9.62799
10.4041
11.2456
0.40661
0.386395
0.372144
0.362143
0.355374
0.350833
0.34771
0.34569
0.344369
0.343679
0.343463
0.343413
0.343719
0.34435
0.345122
0.346125
0.347278
0.348566
0.349971
0.351468
0.353082
0.35484
0.3568
0.359033
0.361496
0.364105
0.366714
0.369495
0.372959
12.087
13.0789
14.0672
14.7938
15.1426
15.0322
14.5283
13.7525
12.7857
11.6563
10.4008
9.06501
7.70329
6.38577
5.23197
4.28732
3.52241
2.9058
2.40806
2.00344
1.65874
1.38382
1.17701
1.01991
0.894253
0.786568
0.695731
0.624241
0.581735
0.591806
0.677156
0.850936
1.02352
0.691931
0.427288
0.47018
0.544878
0.676529
0.970301
1.50081
2.23238
3.10254
4.03854
4.975
5.86308
6.67431
7.39985
8.04743
8.63855
9.21123
9.82128
10.5542
11.4809
0.401114
0.382729
0.369735
0.360842
0.354809
0.350596
0.347733
0.34569
0.344356
0.343764
0.343478
0.34337
0.343647
0.344269
0.34502
0.346006
0.347158
0.348443
0.349854
0.351357
0.352979
0.354744
0.356709
0.358949
0.361423
0.36405
0.36668
0.369476
0.372948
12.4731
13.6132