/*--------------------------------*- C++ -*----------------------------------*\
  =========                 |
  \\      /  F ield         | OpenFOAM: The Open Source CFD Toolbox
   \\    /   O peration     | Website:  https://openfoam.org
    \\  /    A nd           | Version:  8
     \\/     M anipulation  |
\*---------------------------------------------------------------------------*/
FoamFile
{
    version     2.0;
    format      ascii;
    class       surfaceScalarField;
    location    "0.09";
    object      phi;
}
// * * * * * * * * * * * * * * * * * * * * * * * * * * * * * * * * * * * * * //

dimensions      [1 0 -1 0 0 0 0];

internalField   nonuniform List<scalar> 
31053
(
1.25359e-06
1.44646e-05
1.63589e-06
1.76854e-05
7.05502e-07
1.37747e-05
1.76859e-06
2.05899e-05
1.08317e-06
1.73257e-05
5.31011e-07
1.32544e-05
1.79671e-06
2.37488e-05
1.27345e-06
2.04205e-05
9.09178e-07
1.69604e-05
3.95502e-07
1.2867e-05
1.76981e-06
2.73281e-05
1.36127e-06
2.36849e-05
1.13486e-06
2.02098e-05
7.63716e-07
1.66011e-05
3.00877e-07
1.25764e-05
1.70833e-06
3.13802e-05
1.39254e-06
2.73243e-05
1.25438e-06
2.35829e-05
1.01533e-06
1.99681e-05
6.30728e-07
1.62829e-05
2.38506e-07
1.2349e-05
1.62217e-06
3.60568e-05
1.38913e-06
3.14152e-05
1.31432e-06
2.72846e-05
1.15698e-06
2.34524e-05
8.85039e-07
1.9727e-05
5.23983e-07
1.60098e-05
1.90352e-07
1.21697e-05
1.51748e-06
4.13851e-05
1.36166e-06
3.61206e-05
1.33903e-06
3.14138e-05
1.22953e-06
2.72248e-05
1.04022e-06
2.33121e-05
7.65712e-07
1.9499e-05
4.31693e-07
1.57814e-05
1.51432e-07
1.20276e-05
1.39792e-06
4.74851e-05
1.31529e-06
4.14732e-05
1.3395e-06
3.6147e-05
1.2619e-06
3.1396e-05
1.12148e-06
2.71605e-05
9.25055e-07
2.31683e-05
6.51889e-07
1.92939e-05
3.51648e-07
1.5592e-05
1.17652e-07
1.19182e-05
1.26674e-06
5.44981e-05
1.254e-06
4.75942e-05
1.32031e-06
4.15233e-05
1.26876e-06
3.61569e-05
1.15798e-06
3.13788e-05
1.01028e-06
2.7093e-05
8.07785e-07
2.30298e-05
5.45594e-07
1.91126e-05
2.79732e-07
1.54396e-05
8.76953e-08
1.18375e-05
1.12737e-06
6.25649e-05
1.18045e-06
5.46265e-05
1.28429e-06
4.76657e-05
1.25733e-06
4.15539e-05
1.16715e-06
3.61698e-05
1.04697e-06
3.13623e-05
8.92938e-07
2.70279e-05
6.91668e-07
2.28986e-05
4.44905e-07
1.89587e-05
2.13743e-07
1.53217e-05
6.18262e-08
1.17827e-05
9.83449e-07
7.17793e-05
1.09686e-06
6.27115e-05
1.23281e-06
5.47188e-05
1.23018e-06
4.7715e-05
1.15722e-06
4.15891e-05
1.05367e-06
3.61863e-05
9.26969e-07
3.13513e-05
7.72614e-07
2.69642e-05
5.7617e-07
2.27803e-05
3.48023e-07
1.8834e-05
1.55476e-07
1.52359e-05
3.70654e-08
1.17526e-05
8.384e-07
8.23554e-05
1.00547e-06
7.1943e-05
1.16673e-06
6.28245e-05
1.18826e-06
5.47862e-05
1.13164e-06
4.77695e-05
1.03988e-06
4.16296e-05
9.28417e-07
3.62112e-05
8.00947e-07
3.13429e-05
6.49435e-07
2.6906e-05
4.59469e-07
2.26802e-05
2.58686e-07
1.87396e-05
9.94352e-08
1.51815e-05
1.34561e-08
1.17458e-05
6.95306e-07
9.45118e-05
9.08561e-07
8.25352e-05
1.0872e-06
7.20764e-05
1.13187e-06
6.29102e-05
1.09159e-06
5.48594e-05
1.0099e-06
4.78301e-05
9.07695e-07
4.16804e-05
7.94232e-07
3.6241e-05
6.69723e-07
3.134e-05
5.20797e-07
2.68579e-05
3.46247e-07
2.26025e-05
1.70819e-07
1.86771e-05
4.57774e-08
1.51567e-05
-9.14866e-09
1.17617e-05
5.80366e-07
8.96179e-05
8.08424e-07
9.47072e-05
9.96018e-07
8.26882e-05
1.06125e-06
7.21808e-05
1.03717e-06
6.30027e-05
9.65332e-07
5.4939e-05
8.6974e-07
4.79025e-05
7.63453e-07
4.17377e-05
6.52604e-07
3.6278e-05
5.30064e-07
3.13461e-05
3.90863e-07
2.68244e-05
2.31114e-07
2.25521e-05
8.52108e-08
1.86463e-05
-5.99847e-09
1.51611e-05
-3.19871e-08
1.17998e-05
4.83375e-07
8.95999e-05
7.22844e-07
8.97938e-05
8.95753e-07
9.48784e-05
9.77125e-07
8.28112e-05
9.68193e-07
7.22934e-05
9.06478e-07
6.31018e-05
8.1651e-07
5.50316e-05
7.14016e-07
4.79824e-05
6.09235e-07
4.1804e-05
4.99928e-07
3.6326e-05
3.85167e-07
3.13645e-05
2.54637e-07
2.68121e-05
1.15741e-07
2.25315e-05
1.25031e-09
1.86475e-05
-5.7621e-08
1.5194e-05
-5.46661e-08
1.18601e-05
4.02095e-07
8.95842e-05
6.45758e-07
8.97673e-05
8.07146e-07
8.99496e-05
8.80954e-07
9.50192e-05
8.84727e-07
8.29448e-05
8.33115e-07
7.24129e-05
7.48464e-07
6.32149e-05
6.48129e-07
5.51326e-05
5.45305e-07
4.80727e-05
4.41197e-07
4.18832e-05
3.38482e-07
3.63873e-05
2.30212e-07
3.14016e-05
1.14129e-07
2.68249e-05
4.24084e-11
2.25421e-05
-8.24462e-08
1.86807e-05
-1.08826e-07
1.52547e-05
-7.69068e-08
1.19421e-05
3.34556e-07
8.95727e-05
5.76526e-07
8.97437e-05
7.24825e-07
8.99168e-05
7.92769e-07
9.00802e-05
7.87575e-07
9.51739e-05
7.45043e-07
8.30857e-05
6.65433e-07
7.25476e-05
5.66389e-07
6.33369e-05
4.63152e-07
5.52449e-05
3.59637e-07
4.81778e-05
2.60793e-07
4.19778e-05
1.63756e-07
3.64681e-05
6.6958e-08
3.14614e-05
-3.00976e-08
2.68657e-05
-1.16368e-07
2.25856e-05
-1.66058e-07
1.87456e-05
-1.5885e-07
1.53425e-05
-9.87471e-08
1.20456e-05
2.78958e-07
8.95584e-05
5.144e-07
8.97252e-05
6.48514e-07
8.98872e-05
7.08801e-07
9.00432e-05
6.97335e-07
9.02251e-05
6.42678e-07
9.5337e-05
5.67151e-07
8.32432e-05
4.68728e-07
7.26914e-05
3.63402e-07
6.34714e-05
2.57598e-07
5.53741e-05
1.57717e-07
4.83003e-05
6.39913e-08
4.2094e-05
-2.29896e-08
3.65725e-05
-1.03635e-07
3.15472e-05
-1.77368e-07
2.69374e-05
-2.33963e-07
2.26624e-05
-2.4785e-07
1.88415e-05
-2.07753e-07
1.5457e-05
-1.19845e-07
1.21696e-05
2.33148e-07
8.95486e-05
4.58593e-07
8.97045e-05
5.77805e-07
8.98631e-05
6.29614e-07
9.00088e-05
6.10666e-07
9.01845e-05
5.47386e-07
9.03779e-05
4.53928e-07
9.5518e-05
3.54952e-07
8.34099e-05
2.46041e-07
7.28486e-05
1.35673e-07
6.36245e-05
3.14979e-08
5.55227e-05
-6.39372e-08
4.84471e-05
-1.48497e-07
4.22359e-05
-2.20555e-07
3.67035e-05
-2.80223e-07
3.1662e-05
-3.27735e-07
2.70417e-05
-3.49812e-07
2.27725e-05
-3.27887e-07
1.89679e-05
-2.55022e-07
1.55972e-05
-1.39931e-07
1.23135e-05
1.95024e-07
8.95409e-05
4.08635e-07
8.96889e-05
5.12279e-07
8.98372e-05
5.55443e-07
8.99797e-05
5.28545e-07
9.01456e-05
4.5585e-07
9.03336e-05
3.49201e-07
9.05469e-05
2.25453e-07
9.57083e-05
1.10968e-07
8.35907e-05
-6.14675e-09
7.30262e-05
-1.17376e-07
6.37992e-05
-2.18074e-07
5.56985e-05
-3.05088e-07
4.86225e-05
-3.75259e-07
4.24067e-05
-4.27149e-07
3.6864e-05
-4.62127e-07
3.18085e-05
-4.77792e-07
2.71792e-05
-4.63752e-07
2.29157e-05
-4.05364e-07
1.91241e-05
-3.00034e-07
1.57618e-05
-1.58749e-07
1.2476e-05
1.65798e-07
8.17694e-05
3.64229e-07
8.96756e-05
4.51693e-07
8.98166e-05
4.86435e-07
8.99487e-05
4.51531e-07
9.01114e-05
3.69393e-07
9.02896e-05
2.49118e-07
9.0498e-05
1.066e-07
9.07234e-05
-4.12069e-08
9.5913e-05
-1.67869e-07
8.37936e-05
-2.88929e-07
7.32276e-05
-3.98153e-07
6.40041e-05
-4.91247e-07
5.59062e-05
-5.64105e-07
4.88298e-05
-6.1416e-07
4.26092e-05
-6.41347e-07
3.70571e-05
-6.45797e-07
3.19877e-05
-6.26389e-07
2.73504e-05
-5.74455e-07
2.30916e-05
-4.79297e-07
1.93086e-05
-3.42187e-07
1.59495e-05
-1.76129e-07
1.26557e-05
1.43392e-07
7.34948e-05
3.27829e-07
8.18882e-05
3.95866e-07
8.97986e-05
4.22739e-07
8.99228e-05
3.7998e-07
9.00749e-05
2.88861e-07
9.02495e-05
1.55174e-07
9.04478e-05
-6.21754e-09
9.06684e-05
-1.79717e-07
9.09117e-05
-3.48606e-07
9.6141e-05
-4.83071e-07
8.4022e-05
-6.04299e-07
7.34622e-05
-7.07043e-07
6.42447e-05
-7.86176e-07
5.61494e-05
-8.38599e-07
4.90719e-05
-8.63114e-07
4.28468e-05
-8.59554e-07
3.72838e-05
-8.28901e-07
3.22002e-05
-7.71703e-07
2.75555e-05
-6.8049e-07
2.32989e-05
-5.48671e-07
1.952e-05
-3.81124e-07
1.61586e-05
-1.91843e-07
1.28509e-05
1.25954e-07
6.60584e-05
2.98002e-07
7.35987e-05
3.48958e-07
8.19965e-05
3.64445e-07
8.98994e-05
3.14106e-07
9.00434e-05
2.14819e-07
9.02065e-05
6.84068e-08
9.04005e-05
-1.1131e-07
9.06105e-05
-3.10274e-07
9.08487e-05
-5.12011e-07
9.11199e-05
-6.9859e-07
9.63959e-05
-8.36369e-07
8.42868e-05
-9.52779e-07
7.37364e-05
-1.042e-06
6.45247e-05
-1.10026e-06
5.64314e-05
-1.12587e-06
4.93527e-05
-1.1183e-06
4.31205e-05
-1.07821e-06
3.75448e-05
-1.00913e-06
3.24467e-05
-9.11619e-07
2.77939e-05
-7.80389e-07
2.35363e-05
-6.12777e-07
1.97562e-05
-4.16326e-07
1.63869e-05
-2.05749e-07
1.30599e-05
1.12221e-07
5.93752e-05
2.73208e-07
6.61499e-05
3.10072e-07
7.36928e-05
3.15849e-07
8.20839e-05
2.54026e-07
9.00142e-05
1.47638e-07
9.01681e-05
-1.04739e-08
9.03497e-05
-2.07422e-07
9.05542e-05
-4.30999e-07
9.0781e-05
-6.65128e-07
9.10467e-05
-8.92378e-07
9.13512e-05
-1.09281e-06
9.669e-05
-1.22831e-06
8.4595e-05
-1.33217e-06
7.40543e-05
-1.40025e-06
6.4848e-05
-1.43022e-06
5.67562e-05
-1.42165e-06
4.96733e-05
-1.37517e-06
4.3431e-05
-1.29454e-06
3.78407e-05
-1.18363e-06
3.27271e-05
-1.04407e-06
2.80641e-05
-8.72855e-07
2.38015e-05
-6.70819e-07
2.00151e-05
-4.47533e-07
1.66324e-05
-2.17704e-07
1.32807e-05
1.01322e-07
5.33672e-05
2.52326e-07
5.9456e-05
2.77743e-07
6.62318e-05
2.75848e-07
7.37677e-05
2.04308e-07
8.21836e-05
8.75505e-08
9.01318e-05
-8.09965e-08
9.03029e-05
-2.93648e-07
9.04934e-05
-5.40415e-07
9.07134e-05
-8.05835e-07
9.09665e-05
-1.07308e-06
9.12649e-05
-1.32247e-06
9.16166e-05
-1.53177e-06
9.70309e-05
-1.65662e-06
8.49513e-05
-1.73952e-06
7.44203e-05
-1.77793e-06
6.52191e-05
-1.7712e-06
5.71256e-05
-1.72071e-06
5.00344e-05
-1.63034e-06
4.3779e-05
-1.50498e-06
3.81718e-05
-1.34967e-06
3.30404e-05
-1.16719e-06
2.83644e-05
-9.56794e-07
2.40925e-05
-7.2234e-07
2.02941e-05
-4.74376e-07
1.68925e-05
-2.27527e-07
1.35112e-05
9.26167e-08
4.79682e-05
2.34532e-07
5.34388e-05
2.50771e-07
5.95275e-05
2.42774e-07
6.62962e-05
1.63834e-07
7.3853e-05
3.89457e-08
8.22848e-05
-1.42845e-07
9.02579e-05
-3.69344e-07
9.04361e-05
-6.37402e-07
9.06402e-05
-9.32392e-07
9.08848e-05
-1.23829e-06
9.11693e-05
-1.53586e-06
9.15141e-05
-1.80282e-06
9.19232e-05
-2.0132e-06
9.74241e-05
-2.11817e-06
8.53606e-05
-2.17041e-06
7.48395e-05
-2.16954e-06
6.56402e-05
-2.11741e-06
5.75402e-05
-2.01877e-06
5.04369e-05
-1.8795e-06
4.41646e-05
-1.70606e-06
3.85371e-05
-1.50471e-06
3.33848e-05
-1.27929e-06
2.86925e-05
-1.03138e-06
2.44062e-05
-7.66711e-07
2.05904e-05
-4.96585e-07
1.71649e-05
-2.35356e-07
1.37494e-05
8.5639e-08
4.31149e-05
2.19191e-07
4.8032e-05
2.28228e-07
5.35014e-05
2.1528e-07
5.95832e-05
1.30871e-07
6.63696e-05
3.70104e-10
7.39389e-05
-1.91537e-07
8.23922e-05
-4.3407e-07
9.03802e-05
-7.21138e-07
9.05697e-05
-1.04342e-06
9.07961e-05
-1.38596e-06
9.107e-05
-1.73024e-06
9.13995e-05
-2.05412e-06
9.18009e-05
-2.33124e-06
9.22759e-05
-2.53386e-06
9.78749e-05
-2.60808e-06
8.58289e-05
-2.61869e-06
7.53147e-05
-2.56871e-06
6.61121e-05
-2.46353e-06
5.80011e-05
-2.31077e-06
5.08809e-05
-2.11835e-06
4.45872e-05
-1.89452e-06
3.8935e-05
-1.64633e-06
3.37582e-05
-1.37917e-06
2.90455e-05
-1.09579e-06
2.47397e-05
-8.0363e-07
2.09012e-05
-5.14231e-07
1.74471e-05
-2.41203e-07
1.39933e-05
8.00219e-08
3.87553e-05
2.05842e-07
4.31717e-05
2.09346e-07
4.80869e-05
1.92324e-07
5.35497e-05
1.03998e-07
5.96464e-05
-3.01966e-08
6.64427e-05
-2.28873e-07
7.4029e-05
-4.83364e-07
8.2494e-05
-7.91035e-07
9.04999e-05
-1.13786e-06
9.07089e-05
-1.5144e-06
9.09621e-05
-1.90321e-06
9.12788e-05
-2.28251e-06
9.16634e-05
-2.62577e-06
9.21302e-05
-2.90449e-06
9.26799e-05
-3.08851e-06
9.83904e-05
-3.11945e-06
8.63594e-05
-3.07731e-06
7.58469e-05
-2.96899e-06
6.66361e-05
-2.80365e-06
5.85087e-05
-2.59151e-06
5.1366e-05
-2.34297e-06
4.50451e-05
-2.06732e-06
3.93632e-05
-1.77299e-06
3.4158e-05
-1.46567e-06
2.94205e-05
-1.14959e-06
2.509e-05
-8.33029e-07
2.12236e-05
-5.27597e-07
1.77365e-05
-2.44774e-07
1.42406e-05
7.54937e-08
3.48329e-05
1.94125e-07
3.88061e-05
1.93496e-07
4.322e-05
1.73054e-07
4.81289e-05
8.2033e-08
5.36043e-05
-5.44025e-08
5.97088e-05
-2.57211e-07
6.65184e-05
-5.19586e-07
7.41124e-05
-8.42426e-07
8.25908e-05
-1.21495e-06
9.06217e-05
-1.62228e-06
9.08543e-05
-2.05273e-06
9.11474e-05
-2.48519e-06
9.1517e-05
-2.8932e-06
9.19656e-05
-3.24774e-06
9.25067e-05
-3.51705e-06
9.31417e-05
-3.66944e-06
9.89745e-05
-3.64457e-06
8.69538e-05
-3.5387e-06
7.6438e-05
-3.3636e-06
6.7213e-05
-3.13165e-06
5.90625e-05
-2.85639e-06
5.18902e-05
-2.54962e-06
4.55357e-05
-2.2223e-06
3.98193e-05
-1.88304e-06
3.4581e-05
-1.53815e-06
2.98138e-05
-1.19259e-06
2.54536e-05
-8.55326e-07
2.15548e-05
-5.36139e-07
1.80308e-05
-2.53291e-07
1.44963e-05
7.18277e-08
3.13079e-05
1.8378e-07
3.48784e-05
1.80156e-07
3.88485e-05
1.56774e-07
4.32567e-05
6.40335e-08
4.81763e-05
-7.35722e-08
5.36579e-05
-2.7847e-07
5.97727e-05
-5.45595e-07
6.65868e-05
-8.78331e-07
7.41892e-05
-1.26969e-06
8.26865e-05
-1.7086e-06
9.07456e-05
-2.17718e-06
9.10147e-05
-2.65972e-06
9.13575e-05
-3.13027e-06
9.17889e-05
-3.5595e-06
9.23107e-05
-3.91434e-06
9.29373e-05
-4.16068e-06
9.36652e-05
-4.26838e-06
9.96294e-05
-4.1748e-06
8.76144e-05
-3.99518e-06
7.7089e-05
-3.74541e-06
6.78424e-05
-3.44214e-06
5.96607e-05
-3.10087e-06
5.24511e-05
-2.73545e-06
4.60566e-05
-2.35742e-06
4.03001e-05
-1.97552e-06
3.50238e-05
-1.59628e-06
3.02221e-05
-1.22523e-06
2.58273e-05
-8.70094e-07
2.1892e-05
-5.4655e-07
1.83268e-05
-3.11698e-07
1.48108e-05
6.88543e-08
2.81425e-05
1.74593e-07
3.13486e-05
1.68911e-07
3.49158e-05
1.42911e-07
3.88808e-05
4.92852e-08
4.32979e-05
-8.87754e-08
4.82224e-05
-2.94184e-07
5.37119e-05
-5.63712e-07
5.9829e-05
-9.02238e-07
6.66475e-05
-1.30592e-06
7.42622e-05
-1.76795e-06
8.27801e-05
-2.27526e-06
9.08796e-05
-2.80408e-06
9.11946e-05
-3.33408e-06
9.15961e-05
-3.83597e-06
9.20987e-05
-4.2757e-06
9.27053e-05
-4.61697e-06
9.34258e-05
-4.82672e-06
9.4253e-05
-4.87567e-06
0.000100358
-4.70141e-06
8.83429e-05
-4.43842e-06
7.78e-05
-4.10806e-06
6.85227e-05
-3.72967e-06
6.03007e-05
-3.32133e-06
5.30459e-05
-2.89801e-06
4.66045e-05
-2.47132e-06
4.0802e-05
-2.04995e-06
3.54826e-05
-1.64052e-06
3.06417e-05
-1.24726e-06
2.62082e-05
-8.82472e-07
2.22311e-05
-6.75992e-07
1.86943e-05
-2.97829e-07
1.51111e-05
6.64288e-08
2.52967e-05
1.6641e-07
2.8179e-05
1.59404e-07
3.13817e-05
1.31034e-07
3.49442e-05
3.71919e-08
3.89166e-05
-1.00846e-07
4.33377e-05
-3.0559e-07
4.82683e-05
-5.75784e-07
5.37583e-05
-9.16978e-07
5.98767e-05
-1.32791e-06
6.67025e-05
-1.80514e-06
7.43302e-05
-2.34096e-06
8.28786e-05
-2.91663e-06
9.10278e-05
-3.50216e-06
9.13975e-05
-4.07374e-06
9.18673e-05
-4.59676e-06
9.2453e-05
-5.03305e-06
9.31536e-05
-5.3467e-06
9.39752e-05
-5.50467e-06
9.49086e-05
-5.48141e-06
0.000101164
-5.21477e-06
8.91399e-05
-4.86096e-06
7.85694e-05
-4.44509e-06
6.9251e-05
-3.98976e-06
6.09793e-05
-3.51483e-06
5.36711e-05
-3.03549e-06
4.71757e-05
-2.5633e-06
4.13212e-05
-2.1067e-06
3.59537e-05
-1.6707e-06
3.10692e-05
-1.26247e-06
2.65917e-05
-1.09254e-06
2.26512e-05
-6.58203e-07
1.90575e-05
-2.90268e-07
1.54037e-05
6.44431e-08
2.27354e-05
1.59104e-07
2.53295e-05
1.51348e-07
2.82082e-05
1.20789e-07
3.14067e-05
2.7273e-08
3.49755e-05
-1.1045e-07
3.89512e-05
-3.13658e-07
4.33768e-05
-5.83284e-07
4.83066e-05
-9.24797e-07
5.37958e-05
-1.33912e-06
5.99176e-05
-1.82538e-06
6.67505e-05
-2.38014e-06
7.43989e-05
-2.99056e-06
8.29851e-05
-3.63248e-06
9.11929e-05
-4.26981e-06
9.1627e-05
-4.87347e-06
9.21773e-05
-5.40386e-06
9.2856e-05
-5.82243e-06
9.36587e-05
-6.0924e-06
9.45896e-05
-6.18369e-06
9.56352e-05
-6.07461e-06
0.000102048
-5.70624e-06
9.00042e-05
-5.25522e-06
7.93943e-05
-4.75109e-06
7.00242e-05
-4.21888e-06
6.16931e-05
-3.67907e-06
5.43227e-05
-3.14691e-06
4.7766e-05
-2.63357e-06
4.18537e-05
-2.14574e-06
3.64334e-05
-1.6896e-06
3.15003e-05
-1.5638e-06
2.70671e-05
-1.07153e-06
2.30679e-05
-6.41648e-07
1.94116e-05
-2.81538e-07
1.56873e-05
2.04373e-05
6.27622e-08
1.52579e-07
2.27648e-05
1.44501e-07
2.53554e-05
1.1191e-07
2.82304e-05
1.91226e-08
3.14341e-05
-1.18102e-07
3.50056e-05
-3.19169e-07
3.89846e-05
-5.87357e-07
4.34086e-05
-9.27481e-07
4.8336e-05
-1.3423e-06
5.38256e-05
-1.8329e-06
5.99501e-05
-2.39909e-06
6.67959e-05
-3.03291e-06
7.44705e-05
-3.7171e-06
8.31016e-05
-4.42167e-06
9.13782e-05
-5.10227e-06
9.18891e-05
-5.7247e-06
9.25303e-05
-6.24821e-06
9.33111e-05
-6.63232e-06
9.42253e-05
-6.84243e-06
9.52727e-05
-6.85163e-06
9.64348e-05
-6.64536e-06
0.000103009
-6.16697e-06
9.0933e-05
-5.61478e-06
8.02717e-05
-5.02178e-06
7.08382e-05
-4.41415e-06
6.24373e-05
-3.81271e-06
5.49961e-05
-3.23227e-06
4.8371e-05
-2.68216e-06
4.23954e-05
-2.16901e-06
3.69172e-05
-2.0937e-06
3.20349e-05
-1.53922e-06
2.75387e-05
-1.04615e-06
2.34755e-05
-6.21943e-07
1.97544e-05
-2.71182e-07
1.59604e-05
2.04637e-05
1.46817e-07
3.26726e-05
5.94103e-08
1.38671e-07
2.27877e-05
1.0417e-07
2.53751e-05
1.24183e-08
2.82544e-05
-1.24214e-07
3.14604e-05
-3.22725e-07
3.50342e-05
-5.88906e-07
3.9011e-05
-9.26416e-07
4.34315e-05
-1.33964e-06
4.83573e-05
-1.83106e-06
5.38462e-05
-2.40293e-06
5.99777e-05
-3.05123e-06
6.68406e-05
-3.76436e-06
7.45464e-05
-4.51994e-06
8.32304e-05
-5.28005e-06
9.15894e-05
-5.99128e-06
9.21879e-05
-6.61853e-06
9.29299e-05
-7.11797e-06
9.38234e-05
-7.45046e-06
9.48576e-05
-7.58369e-06
9.60273e-05
-7.49752e-06
9.73076e-05
-7.18343e-06
0.000104045
-6.58935e-06
9.19233e-05
-5.93442e-06
8.11971e-05
-5.25362e-06
7.16882e-05
-4.57385e-06
6.32072e-05
-3.91555e-06
5.56867e-05
-3.29163e-06
4.89865e-05
-2.71053e-06
4.29419e-05
-2.68843e-06
3.75171e-05
-2.06506e-06
3.25651e-05
-1.50453e-06
2.80006e-05
-1.01468e-06
2.38711e-05
-5.98741e-07
2.00843e-05
-2.59582e-07
1.62218e-05
2.04841e-05
1.33637e-07
3.27145e-05
1.37822e-07
3.35417e-05
5.60579e-08
9.73985e-08
2.28052e-05
6.89017e-09
2.53961e-05
-1.291e-07
2.82774e-05
-3.2481e-07
3.1485e-05
-5.88616e-07
3.50563e-05
-9.2269e-07
3.90289e-05
-1.33281e-06
4.34462e-05
-1.82251e-06
4.83688e-05
-2.39572e-06
5.38604e-05
-3.05163e-06
6.00018e-05
-3.78317e-06
6.68852e-05
-4.57429e-06
7.46282e-05
-5.39554e-06
8.33764e-05
-6.19979e-06
9.183e-05
-6.92834e-06
9.2527e-05
-7.54308e-06
9.33817e-05
-8.00057e-06
9.43979e-05
-8.26297e-06
9.55595e-05
-8.30422e-06
9.68546e-05
-8.10984e-06
9.82527e-05
-7.67986e-06
0.000105153
-6.96711e-06
9.29707e-05
-6.20981e-06
8.21654e-05
-5.44437e-06
7.25688e-05
-4.69747e-06
6.39974e-05
-3.98761e-06
5.63896e-05
-3.32617e-06
4.96079e-05
-3.36021e-06
4.36195e-05
-2.65508e-06
3.81121e-05
-2.02036e-06
3.3085e-05
-1.46029e-06
2.84495e-05
-9.77323e-07
2.42523e-05
-5.72996e-07
2.03997e-05
-2.47115e-07
1.64705e-05
2.04996e-05
9.14989e-08
3.27475e-05
1.25184e-07
3.35841e-05
1.29188e-07
3.44343e-05
5.27767e-08
2.32442e-09
2.28237e-05
-1.33015e-07
2.54163e-05
-3.25794e-07
2.82987e-05
-5.87024e-07
3.15035e-05
-9.17128e-07
3.50702e-05
-1.32314e-06
3.90386e-05
-1.80931e-06
4.34511e-05
-2.38066e-06
4.8373e-05
-3.03901e-06
5.38691e-05
-3.78078e-06
6.00226e-05
-4.59513e-06
6.69307e-05
-5.4598e-06
7.472e-05
-6.33662e-06
8.35426e-05
-7.17301e-06
9.2104e-05
-7.90172e-06
9.29122e-05
-8.48565e-06
9.38911e-05
-8.88155e-06
9.5039e-05
-9.05709e-06
9.6333e-05
-8.99133e-06
9.77548e-05
-8.67839e-06
9.92684e-05
-8.12712e-06
0.00010633
-7.29495e-06
9.40698e-05
-6.4381e-06
8.31707e-05
-5.59321e-06
7.34741e-05
-4.78496e-06
6.48027e-05
-4.02992e-06
5.70998e-05
-4.12435e-06
5.03786e-05
-3.32139e-06
4.42914e-05
-2.59951e-06
3.86959e-05
-1.96212e-06
3.35907e-05
-1.40743e-06
2.88827e-05
-9.3569e-07
2.46174e-05
-5.45478e-07
2.07e-05
-2.34148e-07
1.67061e-05
2.05159e-05
-1.49688e-09
3.27706e-05
8.37053e-08
3.36176e-05
1.16847e-07
3.44772e-05
1.20802e-07
3.53479e-05
4.95641e-08
-1.36148e-07
2.28415e-05
-3.25972e-07
2.54348e-05
-5.8453e-07
2.83143e-05
-9.10372e-07
3.15142e-05
-1.31162e-06
3.50761e-05
-1.79303e-06
3.90385e-05
-2.36024e-06
4.3448e-05
-3.0172e-06
4.83704e-05
-3.76298e-06
5.38721e-05
-4.59096e-06
6.00407e-05
-5.48482e-06
6.69805e-05
-6.41416e-06
7.48238e-05
-7.33598e-06
8.37323e-05
-8.18833e-06
9.24171e-05
-8.89881e-06
9.33497e-05
-9.43143e-06
9.44635e-05
-9.74751e-06
9.57501e-05
-9.81908e-06
9.71794e-05
-9.63365e-06
9.87273e-05
-9.19444e-06
0.000100352
-8.51872e-06
0.00010757
-7.5692e-06
9.52142e-05
-6.61803e-06
8.42065e-05
-5.69989e-06
7.43981e-05
-4.83727e-06
6.56175e-05
-4.99875e-06
5.79818e-05
-4.07956e-06
5.11431e-05
-3.25396e-06
4.49512e-05
-2.52589e-06
3.92641e-05
-1.89224e-06
3.4079e-05
-1.34825e-06
2.9298e-05
-8.91129e-07
2.49652e-05
-5.16902e-07
2.09844e-05
-2.20978e-07
1.69284e-05
2.05316e-05
-1.38636e-07
3.27939e-05
-4.89226e-09
3.36406e-05
7.6305e-08
3.45111e-05
1.08745e-07
3.53915e-05
1.12663e-07
3.62875e-05
4.64166e-08
-3.25567e-07
2.28575e-05
-5.81445e-07
2.5448e-05
-9.02896e-07
2.83225e-05
-1.29901e-06
3.15173e-05
-1.77489e-06
3.50725e-05
-2.33637e-06
3.90302e-05
-2.98919e-06
4.34372e-05
-3.73435e-06
4.83605e-05
-4.56859e-06
5.38698e-05
-5.48043e-06
6.00586e-05
-6.44605e-06
6.70361e-05
-7.43087e-06
7.49427e-05
-8.38274e-06
8.39509e-05
-9.23347e-06
9.27761e-05
-9.90473e-06
9.38456e-05
-1.03666e-05
9.51033e-05
-1.05838e-05
9.65335e-05
-1.05365e-05
9.80995e-05
-1.02212e-05
9.97703e-05
-9.65028e-06
0.000101499
-8.84994e-06
0.000108866
-7.788e-06
9.63968e-05
-6.74904e-06
8.52661e-05
-5.76531e-06
7.53347e-05
-6.0033e-06
6.66308e-05
-4.94783e-06
5.88573e-05
-3.99928e-06
5.18945e-05
-3.1634e-06
4.55937e-05
-2.43722e-06
3.98131e-05
-1.81368e-06
3.45477e-05
-1.28473e-06
2.96942e-05
-8.44802e-07
2.52951e-05
-4.87886e-07
2.12529e-05
-2.07841e-07
1.71375e-05
2.05456e-05
-3.24765e-07
3.28129e-05
-1.36607e-07
3.3664e-05
-7.99856e-09
3.45341e-05
6.92736e-08
3.54258e-05
1.00905e-07
3.63316e-05
1.04782e-07
3.72505e-05
4.33247e-08
-5.77997e-07
2.28687e-05
-8.95061e-07
2.54542e-05
-1.28588e-06
2.83234e-05
-1.75577e-06
3.15112e-05
-2.3105e-06
3.50606e-05
-2.95727e-06
3.90138e-05
-3.69845e-06
4.34182e-05
-4.53341e-06
4.83433e-05
-5.45456e-06
5.3864e-05
-6.44358e-06
6.00774e-05
-7.47305e-06
6.70998e-05
-8.49969e-06
7.50814e-05
-9.46517e-06
8.42049e-05
-1.02937e-05
9.31877e-05
-1.09055e-05
9.44051e-05
-1.12759e-05
9.58139e-05
-1.13771e-05
9.73914e-05
-1.11982e-05
9.90927e-05
-1.07452e-05
0.000100881
-1.00402e-05
0.000102704
-9.11813e-06
0.000110211
-7.95035e-06
9.76101e-05
-6.83189e-06
8.63425e-05
-7.16017e-06
7.65016e-05
-5.94664e-06
6.76378e-05
-4.8538e-06
5.97187e-05
-3.89018e-06
5.2627e-05
-3.05397e-06
4.62151e-05
-2.33725e-06
4.03405e-05
-1.72913e-06
3.49951e-05
-1.21857e-06
3.00703e-05
-7.9771e-07
2.56068e-05
-4.5894e-07
2.15055e-05
-1.94929e-07
1.73336e-05
2.05551e-05
-5.74355e-07
3.28254e-05
-3.13761e-07
3.36828e-05
-1.34032e-07
3.45574e-05
-1.072e-08
3.54487e-05
6.26168e-08
3.63664e-05
9.33262e-08
3.72952e-05
9.71674e-08
3.82417e-05
4.02907e-08
-8.87129e-07
2.28734e-05
-1.27265e-06
2.54536e-05
-1.73636e-06
2.83158e-05
-2.28372e-06
3.1497e-05
-2.9232e-06
3.50405e-05
-3.65802e-06
3.89885e-05
-4.48965e-06
4.33906e-05
-5.41353e-06
4.83203e-05
-6.41586e-06
5.38554e-05
-7.47527e-06
6.00989e-05
-8.55622e-06
6.71759e-05
-9.60949e-06
7.52458e-05
-1.05689e-05
8.45007e-05
-1.13552e-05
9.36581e-05
-1.18853e-05
9.50331e-05
-1.2145e-05
9.65992e-05
-1.21151e-05
9.83246e-05
-1.17942e-05
0.000100157
-1.11987e-05
0.000102054
-1.03607e-05
0.00010396
-9.32165e-06
0.000111596
-8.05671e-06
9.88463e-05
-8.49289e-06
8.76867e-05
-7.09894e-06
7.76633e-05
-5.83817e-06
6.86301e-05
-4.72445e-06
6.05595e-05
-3.75776e-06
5.33361e-05
-2.93024e-06
4.68124e-05
-2.22941e-06
4.08442e-05
-1.64093e-06
3.54203e-05
-1.15121e-06
3.0426e-05
-7.50687e-07
2.59003e-05
-4.30487e-07
2.17424e-05
-1.82365e-07
1.7517e-05
2.05586e-05
-8.79289e-07
3.28254e-05
-5.53276e-07
3.36952e-05
-3.02137e-07
3.45761e-05
-1.30841e-07
3.54719e-05
-1.30322e-08
3.63891e-05
5.6335e-08
3.73305e-05
8.60153e-08
3.8287e-05
8.98086e-08
3.92587e-05
3.72988e-08
-1.25961e-06
2.28718e-05
-1.71712e-06
2.54449e-05
-2.25683e-06
2.83002e-05
-2.88827e-06
3.14746e-05
-3.61513e-06
3.50112e-05
-4.44054e-06
3.8954e-05
-5.36226e-06
4.33556e-05
-6.3702e-06
4.82919e-05
-7.44793e-06
5.38454e-05
-8.5666e-06
6.01269e-05
-9.68514e-06
6.72695e-05
-1.07465e-05
7.54419e-05
-1.16804e-05
8.48447e-05
-1.24019e-05
9.41933e-05
-1.28294e-05
9.57348e-05
-1.2961e-05
9.74614e-05
-1.27868e-05
9.93327e-05
-1.23165e-05
0.000101289
-1.15774e-05
0.000103284
-1.06094e-05
0.000105261
-9.46055e-06
0.000113013
-1.00282e-05
0.000100395
-8.42957e-06
8.90282e-05
-6.97579e-06
7.88099e-05
-5.68681e-06
6.95999e-05
-4.56655e-06
6.13744e-05
-3.6076e-06
5.40184e-05
-2.79648e-06
4.73835e-05
-2.11671e-06
4.13232e-05
-1.55099e-06
3.58226e-05
-1.08386e-06
3.07612e-05
-7.04419e-07
2.61758e-05
-4.02793e-07
2.1964e-05
-1.70267e-07
1.76882e-05
2.05562e-05
-1.24698e-06
3.28089e-05
-8.44615e-07
3.36949e-05
-5.31363e-07
3.45883e-05
-2.89879e-07
3.54905e-05
-1.27078e-07
3.64123e-05
-1.49466e-08
3.73531e-05
5.0431e-08
3.83228e-05
7.8971e-08
3.93047e-05
8.27199e-08
4.02992e-05
3.43411e-08
-1.6984e-06
2.28625e-05
-2.23041e-06
2.54286e-05
-2.85343e-06
2.82766e-05
-3.57134e-06
3.14431e-05
-4.38855e-06
3.49723e-05
-5.30457e-06
3.89109e-05
-6.31233e-06
4.33132e-05
-7.39938e-06
4.82589e-05
-8.54254e-06
5.38371e-05
-9.70787e-06
6.01658e-05
-1.08467e-05
6.73864e-05
-1.18976e-05
7.5676e-05
-1.27838e-05
8.52436e-05
-1.34187e-05
9.47999e-05
-1.37239e-05
9.6514e-05
-1.37114e-05
9.84015e-05
-1.33829e-05
0.000100414
-1.27596e-05
0.000102485
-1.1878e-05
0.000104566
-1.07859e-05
0.000106598
-1.17961e-05
0.000114796
-9.9677e-06
0.000101945
-8.29242e-06
9.03552e-05
-6.80082e-06
7.99325e-05
-5.50072e-06
7.0541e-05
-4.38685e-06
6.21593e-05
-3.44488e-06
5.46714e-05
-2.65645e-06
4.7927e-05
-2.00162e-06
4.17768e-05
-1.46093e-06
3.6202e-05
-1.01751e-06
3.10761e-05
-6.59345e-07
2.64338e-05
-3.76114e-07
2.2171e-05
-1.58707e-07
1.78478e-05
2.05467e-05
-1.68044e-06
3.27743e-05
-1.1961e-06
3.36778e-05
-8.08873e-07
3.45876e-05
-5.08434e-07
3.55024e-05
-2.76954e-07
3.64308e-05
-1.22719e-07
3.73762e-05
-1.64545e-08
3.83452e-05
4.49123e-08
3.9341e-05
7.22008e-08
4.03459e-05
7.58971e-08
4.13726e-05
3.14092e-08
-2.20486e-06
2.28461e-05
-2.81935e-06
2.54047e-05
-3.52778e-06
2.8244e-05
-4.33554e-06
3.14018e-05
-5.24338e-06
3.49243e-05
-6.24671e-06
3.88592e-05
-7.33623e-06
4.3264e-05
-8.49351e-06
4.82241e-05
-9.6907e-06
5.38346e-05
-1.08866e-05
6.02207e-05
-1.20283e-05
6.75322e-05
-1.30472e-05
7.59547e-05
-1.38637e-05
8.57045e-05
-1.43911e-05
9.54836e-05
-1.45555e-05
9.73736e-05
-1.43861e-05
9.94194e-05
-1.38968e-05
0.000101565
-1.31192e-05
0.00010374
-1.20992e-05
0.000105892
-1.34747e-05
0.000108291
-1.17478e-05
0.00011659
-9.81942e-06
0.000103484
-8.09294e-06
9.16571e-05
-6.58369e-06
8.10234e-05
-5.28792e-06
7.14485e-05
-4.19154e-06
6.29112e-05
-3.27419e-06
5.52935e-05
-2.51325e-06
4.84421e-05
-1.88624e-06
4.22049e-05
-1.37213e-06
3.65588e-05
-9.52826e-07
3.13713e-05
-6.15886e-07
2.66749e-05
-3.50613e-07
2.2364e-05
-1.47719e-07
1.79964e-05
2.05305e-05
-2.18047e-06
3.27177e-05
-1.61021e-06
3.36423e-05
-1.14386e-06
3.45698e-05
-7.72003e-07
3.55015e-05
-4.84533e-07
3.64425e-05
-2.63434e-07
3.73945e-05
-1.17803e-07
3.83683e-05
-1.75715e-08
3.93633e-05
3.97654e-08
4.03827e-05
6.56964e-08
4.142e-05
6.93343e-08
4.24718e-05
2.84914e-08
-2.78653e-06
2.28224e-05
-3.48528e-06
2.53721e-05
-4.28285e-06
2.82019e-05
-5.18089e-06
3.13512e-05
-6.17676e-06
3.48668e-05
-7.26365e-06
3.87992e-05
-8.42706e-06
4.32104e-05
-9.64429e-06
4.81908e-05
-1.08807e-05
5.38421e-05
-1.20909e-05
6.0297e-05
-1.32148e-05
6.77135e-05
-1.41802e-05
7.62854e-05
-1.49055e-05
8.62339e-05
-1.53051e-05
9.62488e-05
-1.53128e-05
9.83151e-05
-1.49771e-05
0.000100514
-1.43231e-05
0.000102782
-1.33931e-05
0.000105046
-1.51489e-05
0.000107581
-1.34481e-05
0.000110006
-1.1595e-05
0.000118379
-9.59653e-06
0.000104999
-7.84246e-06
9.29249e-05
-6.33392e-06
8.20768e-05
-5.05576e-06
7.23188e-05
-3.98615e-06
6.36281e-05
-3.09934e-06
5.58835e-05
-2.36951e-06
4.89285e-05
-1.77234e-06
4.26076e-05
-1.28545e-06
3.68934e-05
-8.90404e-07
3.16474e-05
-5.74318e-07
2.68998e-05
-3.26367e-07
2.25436e-05
-1.37332e-07
1.81345e-05
2.05074e-05
-2.75526e-06
3.26371e-05
-2.08682e-06
3.35842e-05
-1.53814e-06
3.4533e-05
-1.08988e-06
3.54828e-05
-7.33811e-07
3.64412e-05
-4.59665e-07
3.74061e-05
-2.4934e-07
3.83866e-05
-1.12343e-07
3.93862e-05
-1.83019e-08
4.04049e-05
3.49975e-08
4.14573e-05
5.94518e-08
4.25199e-05
6.303e-08
4.29813e-05
2.56479e-08
-3.44439e-06
2.27904e-05
-4.23144e-06
2.53302e-05
-5.11868e-06
2.81504e-05
-6.10506e-06
3.12907e-05
-7.18562e-06
3.48001e-05
-8.34912e-06
3.87328e-05
-9.57715e-06
4.3155e-05
-1.08407e-05
4.81629e-05
-1.21012e-05
5.38645e-05
-1.33063e-05
6.04008e-05
-1.43915e-05
6.79376e-05
-1.52816e-05
7.6675e-05
-1.58945e-05
8.68376e-05
-1.61482e-05
9.70991e-05
-1.59869e-05
9.93389e-05
-1.54779e-05
0.000101682
-1.46585e-05
0.00010406
-1.68113e-05
0.000106723
-1.51562e-05
0.000109303
-1.3301e-05
0.000111725
-1.13525e-05
0.000120148
-9.31186e-06
0.000106479
-7.55219e-06
9.41517e-05
-6.06025e-06
8.30882e-05
-4.81091e-06
7.31492e-05
-3.77531e-06
6.43086e-05
-2.92355e-06
5.64412e-05
-2.22746e-06
4.93866e-05
-1.66106e-06
4.29856e-05
-1.20173e-06
3.72066e-05
-8.3065e-07
3.19051e-05
-5.3477e-07
2.71093e-05
-3.03439e-07
2.27106e-05
-1.27563e-07
1.82627e-05
2.04765e-05
-3.40549e-06
3.25294e-05
-2.63454e-06
3.3502e-05
-1.99135e-06
3.44736e-05
-1.46431e-06
3.54451e-05
-1.0345e-06
3.64221e-05
-6.94604e-07
3.74047e-05
-4.33912e-07
3.83979e-05
-2.34652e-07
3.94045e-05
-1.06358e-07
4.04277e-05
-1.86596e-08
4.14794e-05
3.0599e-08
4.25578e-05
5.34494e-08
4.30295e-05
5.70277e-08
4.17639e-05
2.30379e-08
-4.18201e-06
2.27495e-05
-5.05794e-06
2.5279e-05
-6.03351e-06
2.80889e-05
-7.10516e-06
3.12205e-05
-8.26431e-06
3.47256e-05
-9.49603e-06
3.86623e-05
-1.07761e-05
4.31013e-05
-1.20721e-05
4.81447e-05
-1.33385e-05
5.39078e-05
-1.45182e-05
6.05392e-05
-1.55434e-05
6.82116e-05
-1.63367e-05
7.71301e-05
-1.68176e-05
8.75206e-05
-1.69105e-05
9.80369e-05
-1.65699e-05
0.000100444
-1.58841e-05
0.00010292
-1.84521e-05
0.000105715
-1.68666e-05
0.000108448
-1.50267e-05
0.000111041
-1.30492e-05
0.000113433
-1.10349e-05
0.000121883
-8.97834e-06
0.000107915
-7.23246e-06
9.53318e-05
-5.77066e-06
8.40544e-05
-4.55898e-06
7.3938e-05
-3.56297e-06
6.49522e-05
-2.74957e-06
5.69667e-05
-2.08852e-06
4.98167e-05
-1.55349e-06
4.33395e-05
-1.12152e-06
3.74991e-05
-7.73757e-07
3.21455e-05
-4.9735e-07
2.73043e-05
-2.81869e-07
2.28657e-05
-1.18408e-07
1.83818e-05
2.04372e-05
-4.13498e-06
3.2391e-05
-3.25435e-06
3.33925e-05
-2.51179e-06
3.43891e-05
-1.89345e-06
3.53842e-05
-1.38866e-06
3.63834e-05
-9.77701e-07
3.7385e-05
-6.54317e-07
3.83965e-05
-4.07409e-07
3.94157e-05
-2.19494e-07
4.0446e-05
-9.98951e-08
4.15022e-05
-1.86607e-08
4.25798e-05
2.65698e-08
4.30674e-05
4.77185e-08
4.18104e-05
5.14214e-08
4.05794e-05
2.06368e-08
-4.99947e-06
2.26997e-05
-5.96349e-06
2.52181e-05
-7.02452e-06
2.80175e-05
-8.17612e-06
3.11415e-05