/*--------------------------------*- C++ -*----------------------------------*\
  =========                 |
  \\      /  F ield         | OpenFOAM: The Open Source CFD Toolbox
   \\    /   O peration     | Website:  https://openfoam.org
    \\  /    A nd           | Version:  8
     \\/     M anipulation  |
\*---------------------------------------------------------------------------*/
FoamFile
{
    version     2.0;
    format      ascii;
    class       volScalarField;
    location    "0.49";
    object      epsilon;
}
// * * * * * * * * * * * * * * * * * * * * * * * * * * * * * * * * * * * * * //

dimensions      [0 2 -3 0 0 0 0];

internalField   nonuniform List<scalar> 
15677
(
59.7272
18.3637
52.6976
8.08263
26.0401
50.2473
4.62179
13.3294
31.6882
50.5576
3.17389
7.75069
17.1474
37.3786
51.6562
2.48691
5.05431
10.0591
20.8804
42.7424
53.6759
2.14423
3.6274
6.47913
12.1982
24.6191
47.7196
55.7398
1.97931
2.82251
4.53361
7.74285
14.3234
28.3143
52.0688
57.6332
1.91149
2.35309
3.40638
5.31991
8.94378
16.4654
31.8231
55.7021
59.3382
1.88407
2.08007
2.72567
3.9143
6.03807
10.1313
18.5878
34.9962
58.7018
60.7903
1.87051
1.93932
2.30833
3.05821
4.36762
6.72271
11.3081
20.6084
37.8152
61.1206
62.0635
1.86766
1.87828
2.05697
2.52253
3.35386
4.78589
7.38533
12.4468
22.5071
40.2417
63.0903
63.1307
1.86866
1.84883
1.91676
2.18678
2.71602
3.6212
5.17949
8.02069
13.5424
24.2324
42.3271
64.6637
64.0644
1.86959
1.8387
1.85198
1.98298
2.30896
2.89023
3.86722
5.54909
8.63032
14.5644
25.7957
44.0788
65.9424
64.8561
1.86982
1.83699
1.82111
1.86792
2.05254
2.42059
3.04869
4.09353
5.89816
9.20156
15.5182
27.1722
45.557
66.9651
65.5699
1.8698
1.83726
1.81046
1.8134
1.89873
2.11896
2.52237
3.19243
4.30332
6.2224
9.7372
16.3814
28.3864
46.7787
67.7933
66.2042
1.86975
1.83753
1.80815
1.78973
1.81556
1.93112
2.18098
2.61437
3.32367
4.49549
6.52361
10.2257
17.1643
29.4268
47.7965
68.4791
66.7581
1.86972
1.83763
1.80784
1.78267
1.77566
1.82182
1.96362
2.23771
2.69772
3.44236
4.67151
6.79696
10.6724
17.8511
30.3196
48.6334
69.0301
67.2911
1.86971
1.83766
1.80784
1.78095
1.76131
1.76615
1.83232
1.99459
2.28926
2.77252
3.54957
4.82972
7.04521
11.0675
18.455
31.0641
49.3056
69.5204
67.7225
1.8697
1.83766
1.80785
1.78064
1.75678
1.74378
1.76049
1.84384
2.02334
2.33554
2.83938
3.64503
4.97143
7.26418
11.4174
18.9652
31.6792
49.8563
69.8931
68.2052
1.86969
1.83765
1.80784
1.78062
1.75548
1.73569
1.72935
1.75756
1.85539
2.04951
2.37676
2.89851
3.72936
5.09552
7.45643
11.7144
19.3958
32.1716
50.2735
70.2766
68.5409
1.86969
1.83765
1.80782
1.78064
1.75514
1.73298
1.71699
1.71784
1.75609
1.86654
2.07302
2.41313
2.95025
3.80267
5.2028
7.61929
11.9657
19.7401
32.5575
50.6153
70.5365
69.0117
1.86969
1.83765
1.8078
1.78064
1.75504
1.73217
1.7123
1.70099
1.70828
1.75593
1.87691
2.09385
2.44484
2.99501
3.86523
5.29332
7.75545
12.1664
20.0131
32.8423
50.8544
70.8785
69.2758
1.86969
1.83764
1.80779
1.78063
1.755
1.73195
1.71063
1.69413
1.68682
1.70062
1.75618
1.8863
2.11215
2.47234
3.03305
3.91794
5.36766
7.86392
12.3235
20.2115
33.0512
51.0429
71.0715
69.7453
1.86969
1.83764
1.80779
1.78062
1.75496
1.7319
1.71005
1.69153
1.67743
1.67485
1.6942
1.75679
1.89486
2.12823
2.49582
3.0652
3.96084
5.42698
7.94734
12.4382
20.3514
33.1717
51.1795
71.4466
69.9891
1.86969
1.83763
1.80779
1.78061
1.75493
1.73187
1.70984
1.69061
1.67355
1.66313
1.66419
1.68902
1.75793
1.90269
2.14224
2.51605
3.0918
3.99581
5.47228
8.00808
12.5125
20.4318
33.2557
51.2583
71.7157
431.021
1.86969
1.83763
1.80779
1.78061
1.75492
1.73184
1.70974
1.69028
1.67202
1.65808
1.64988
1.65551
1.68499
1.75942
1.90997
2.15494
2.53355
3.11429
4.02289
5.50541
8.04612
12.5576
20.467
33.2623
51.3773
89.013
725.554
1.86969
1.83763
1.80779
1.7806
1.75491
1.73182
1.70968
1.69015
1.67142
1.65599
1.64339
1.63913
1.64786
1.6821
1.76163
1.91738
2.16673
2.54922
3.13289
4.04429
5.52771
8.06965
12.5667
20.4595
33.2718
52.3949
124.132
1006.37
1.8697
1.83762
1.80779
1.78059
1.7549
1.7318
1.70964
1.69007
1.67116
1.65514
1.64058
1.63143
1.62917
1.64262
1.68093
1.76506
1.92524
2.17848
2.56388
3.14968
4.06122
5.54287
8.07526
12.559
20.4402
33.3045
55.2265
160.931
1246.11
1.8697
1.83762
1.8078
1.78058
1.7549
1.73178
1.70961
1.69001
1.67104
1.65475
1.63939
1.62792
1.6202
1.62226
1.63816
1.68177
1.77003
1.93445
2.19107
2.579
3.16554
4.07585
5.55167
8.0725
12.5408
20.4023
33.4222
60.1718
193.281
1440.13
1.8697
1.83761
1.8078
1.78057
1.75491
1.73176
1.70959
1.68997
1.67096
1.65456
1.63887
1.62634
1.61606
1.6121
1.61621
1.63794
1.68448
1.77729
1.94576
2.20567
2.59537
3.18211
4.0892
5.55712
8.06579
12.5092
20.3584
33.7203
65.0508
220.587
1609.2
1.8697
1.83761
1.80781
1.78056
1.75491
1.73174
1.70958
1.68993
1.6709
1.65443
1.63861
1.6256
1.61419
1.60718
1.60531
1.6143
1.63956
1.69014
1.78767
1.96027
2.22311
2.61456
3.20047
4.10375
5.56257
8.05499
12.4756
20.3001
34.234
69.3757
244.717
1749.53
1.8697
1.83761
1.80781
1.78055
1.75492
1.73172
1.70958
1.68989
1.67085
1.65434
1.63845
1.62523
1.6133
1.60484
1.60003
1.60215
1.61557
1.64409
1.69996
1.80227
1.9789
2.2449
2.63759
3.22273
4.12104
5.57013
8.04524
12.4357
20.2516
34.7361
73.3274
265.171
1857.82
1.8697
1.8376
1.80782
1.78054
1.75492
1.73171
1.70958
1.68986
1.67082
1.65427
1.63834
1.62501
1.61285
1.6037
1.5975
1.59613
1.6032
1.61971
1.65318
1.71482
1.82206
2.00311
2.27206
2.66628
3.24984
4.14354
5.58161
8.03762
12.3932
20.2052
35.2159
76.6153
281.126
1945.33
1.8697
1.8376
1.80782
1.78054
1.75493
1.73169
1.70958
1.68983
1.6708
1.65421
1.63825
1.62485
1.61257
1.60313
1.59624
1.59321
1.59708
1.60718
1.62837
1.66837
1.73571
1.8485
2.03389
2.30621
2.70149
3.28405
4.17189
5.59897
8.03181
12.3493
20.1511
35.5921
79.0418
293.981
2019.91
1.8376
1.86974
1.80783
1.78053
1.75494
1.73168
1.70958
1.6898
1.67078
1.65415
1.63818
1.62474
1.61237
1.60279
1.59559
1.59178
1.59412
1.60101
1.6157
1.64388
1.69025
1.76413
1.88262
2.07291
2.3483
2.74516
3.3257
4.20803
5.62189
8.03211
12.302
20.075
35.8065
80.8338
304.857
2086.14
1.80783
1.83769
1.86981
1.78052
1.75494
1.73166
1.70959
1.68977
1.67077
1.6541
1.63812
1.62464
1.61222
1.60257
1.59519
1.59107
1.5927
1.5981
1.60963
1.63168
1.66669
1.72032
1.80117
1.92615
2.12108
2.40003
2.79767
3.37668
4.2516
5.65197
8.03597
12.2502
19.9797
35.9152
82.1818
314.494
2146.96
1.78052
1.80799
1.83789
1.86988
1.75495
1.73165
1.70959
1.68974
1.67076
1.65406
1.63807
1.62456
1.61209
1.6024
1.59491
1.59067
1.59202
1.59678
1.60693
1.62605
1.65543
1.69843
1.75995
1.84858
1.97999
2.18
2.46196
2.86082
3.43645
4.30386
5.6935
8.04652
12.2022
19.876
35.9083
83.2612
323.116
2204.17
1.75496
1.78072
1.80831
1.83809
1.86996
1.73164
1.7096
1.68972
1.67076
1.65401
1.63804
1.62448
1.61198
1.60226
1.59469
1.59043
1.59167
1.59623
1.60589
1.62385
1.6508
1.68882
1.7406
1.81112
1.90765
2.04613
2.25032
2.53569
2.93406
3.50642
4.37145
5.75015
8.0669
12.1608
19.7619
35.8725
84.1142
331.373
2258.49
1.73163
1.75522
1.78114
1.80864
1.8383
1.87004
1.70961
1.6897
1.67076
1.65397
1.63801
1.62441
1.61189
1.60215
1.59452
1.59025
1.59147
1.59601
1.60564
1.62338
1.64965
1.68599
1.73366
1.79553
1.8753
1.98066
2.12539
2.33374
2.62074
3.01894
3.59497
4.45938
5.81796
8.09727
12.126
19.6488
35.7951
84.8989
338.844
2310.74
1.70961
1.73191
1.75575
1.78156
1.80899
1.83852
1.87012
1.68968
1.67076
1.65394
1.63799
1.62435
1.61182
1.60206
1.59437
1.59013
1.59134
1.59595
1.60572
1.62371
1.65014
1.68636
1.73305
1.79215
1.86505
1.95539
2.06884
2.22002
2.43064
2.71853
3.12534
3.70804
4.55987
5.89666
8.13618
12.099
19.5404
35.7023
85.5205
346.337
2360.87
1.68966
1.70996
1.7325
1.75629
1.782
1.80934
1.83874
1.8702
1.67076
1.6539
1.63798
1.62429
1.61177
1.60198
1.59425
1.59004
1.59126
1.59595
1.60592
1.62435
1.65147
1.68857
1.73589
1.79495
1.86595
1.95125
2.05244
2.17523
2.33064
2.54291
2.84121
3.25946
3.83488
4.67231
5.98448
8.18312
12.0813
19.4395
35.5878
86.1705
353.144
2409.15
1.67077
1.69001
1.71065
1.73311
1.75685
1.78246
1.8097
1.83896
1.87028
1.65387
1.63797
1.62424
1.61173
1.60191
1.59415
1.58997
1.59121
1.59599
1.60619
1.6251
1.65307
1.69161
1.74065
1.80152
1.87378
1.95866
2.05583
2.16866
2.29987
2.45989
2.68494
2.99774
3.4095
3.97388
4.79478
6.08057
8.23773
12.0689
19.3465
35.4906
86.702
360.001
2455.62
1.65384
1.67117
1.69074
1.71137
1.73374
1.75743
1.78292
1.81006
1.83919
1.87037
1.63797
1.62419
1.6117
1.60184
1.59406
1.58992
1.59118
1.59605
1.60648
1.62586
1.65471
1.69482
1.74625
1.81022
1.88563
1.97354
2.07214
2.18283
2.30495
2.44465
2.62469
2.86773
3.1744
3.57577
4.1252
4.92611
6.18369
8.29837
12.0689
19.2664
35.3879
87.2776
366.287
2500.06
1.63796
1.65423
1.67199
1.69149
1.7121
1.73438
1.75801
1.7834
1.81044
1.83943
1.87046
1.62414
1.61167
1.60177
1.594
1.58988
1.59117
1.59613
1.60677
1.62661
1.65633
1.69798
1.7519
1.81984
1.89994
1.99298
2.09658
2.21109
2.33328
2.46573
2.62809
2.83442
3.07687
3.37231
3.75734
4.28689
5.06487
6.29263
8.36488
12.0726
19.194
35.3065
87.7679
372.589
2542.86
1.62409
1.6384
1.65504
1.67284
1.69226
1.71285
1.73505
1.75862
1.78389
1.81083
1.83968
1.87055
1.61166
1.60171
1.59395
1.58985
1.59116
1.59621
1.60706
1.62732
1.65789
1.70101
1.75739
1.82939
1.91531
2.01557
2.12648
2.24872
2.37708
2.51236
2.67209
2.86629
3.07162
3.30766
3.58931
3.95243
4.45844
5.21016
6.40623
8.43589
12.0815
19.1332
35.2278
88.3037
378.378
2583.41
1.61165
1.62448
1.63929
1.65588
1.6737
1.69305
1.71363
1.73574
1.75924
1.7844
1.81123
1.83993
1.87064
1.60164
1.59392
1.58982
1.59117
1.5963
1.60733
1.628
1.65937
1.70386
1.76264
1.8386
1.93048
2.03966
2.16059
2.29336
2.43217
2.57691
2.74435
2.94285
3.14066
3.33785
3.5587
3.82418
4.1614
4.63846
5.36026
6.52318
8.51021
12.0981
19.081
35.168
88.7687
384.14
2622.46
1.60158
1.61207
1.62531
1.6402
1.65675
1.67459
1.69388
1.71442
1.73644
1.75987
1.78492
1.81163
1.84019
1.87073
1.5939
1.58979
1.59117
1.59638
1.6076
1.62864
1.66075
1.70652
1.7676
1.84734
1.94511
2.06355
2.19691
2.3441
2.4967
2.65592
2.83849
3.05288
3.25879
3.45232
3.63269
3.82883
4.07074
4.38083
4.82476
5.51407
6.64246
8.58718
12.1194
19.038
35.1154
89.274
389.438
2659.11
1.5939
1.60189
1.61294
1.62616
1.64115
1.65765
1.6755
1.69472
1.71523
1.73717
1.76052
1.78546
1.81205
1.84045
1.87082
1.58975
1.59117
1.59646
1.60784
1.62923
1.66203
1.709
1.77225
1.85557
1.95911
2.08673
2.23303
2.39858
2.57036
2.74841
2.95232
3.19196
3.41849
3.62292
3.80189
3.95512
4.118
4.32792
4.60913
5.01671
5.67064
6.76302
8.66593
12.1448
19.0032
35.0766
89.7184
394.676
2694.44
1.58971
1.59422
1.60257
1.61382
1.62704
1.64212
1.65858
1.67644
1.6956
1.71607
1.73792
1.76119
1.78601
1.81246
1.8407
1.8709
1.59116
1.59652
1.60807
1.62978
1.66322
1.7113
1.77659
1.86327
1.97241
2.10897
2.26828
2.45355
2.65023
2.85497
3.08639
3.3605
3.61878
3.84756
4.03822
4.18997
4.30405
4.42417
4.59389
4.84199
5.21275
5.82869
6.88401
8.74569
12.1735
18.9754
35.0451
90.1949
399.499
2727.28
1.59116
1.58977
1.59488
1.60325
1.61474
1.62797
1.64311
1.65955
1.6774
1.6965
1.71692
1.73869
1.76187
1.78655
1.81286
1.84094
1.87099
1.59657
1.60828
1.63029
1.66432
1.71342
1.78061
1.87043
1.98496
2.13012
2.30243
2.50799
2.73149
2.97221
3.24337
3.56255
3.86495
4.13152
4.34804
4.50874
4.61747
4.67834
4.74521
4.86763
5.07654
5.41068
5.987
7.00456
8.82576
12.2048
18.9542
35.0232
90.6224
404.22
2759
1.59664
1.5911
1.58988
1.59553
1.60397
1.61569
1.62893
1.64414
1.66054
1.67839
1.69743
1.7178
1.73947
1.76254
1.78708
1.81325
1.84118
1.87107
1.60845
1.63075
1.66532
1.71536
1.78432
1.87706
1.99674
2.15006
2.33529
2.56129
2.81249
3.09391
3.42022
3.80546
4.16813
4.48997
4.74858
4.9318
5.04025
5.08577
5.07692
5.07919
5.14766
5.31175
5.60864
6.14431
7.12381
8.90549
12.2381
18.9383
35.009
91.065
408.596
2788.2
1.60866
1.59637
1.5909
1.58993
1.59624
1.60476
1.61667
1.62994
1.64518
1.66158
1.6794
1.69839
1.71869
1.74025
1.76319
1.7876
1.81362
1.84141
1.87115
1.63114
1.66622
1.71714
1.78773
1.8832
2.00772
2.16878
2.36675
2.61289
2.89248
3.21836
3.60831
4.08742
4.54633
4.95031
5.27532
5.49821
5.61528
5.6401
5.59668
5.49883
5.42431
5.432
5.5465
5.8054
6.2998
7.24136
8.98438
12.2729
18.9275
34.9998
91.4763
412.816
2816.52
1.63157
1.60806
1.59558
1.59062
1.59007
1.59698
1.60561
1.61767
1.631
1.64626
1.66265
1.68043
1.69937
1.71958
1.74102
1.76383
1.7881
1.81399
1.84163
1.87122
1.66701
1.71875
1.79085
1.88885
2.01792
2.18627
2.39667
2.66239
2.97106
3.3446
3.80392
4.39625
5.00703
5.55751
5.98939
6.27969
6.41654
6.41706
6.31577
6.15175
5.94301
5.77883
5.7189
5.77965
5.99947
6.45344
7.3567
9.06202
12.3086
18.9207
34.9986
91.8753
416.781
2839.16
1.66783
1.6304
1.6063
1.59465
1.59042
1.59035
1.59772
1.60654
1.61869
1.6321
1.64736
1.66375
1.68149
1.70035
1.72044
1.74176
1.76444
1.78859
1.81434
1.84185
1.8713
1.7202
1.79368
1.89405
2.02736
2.20259
2.42497
2.70953
3.04794
3.47124
4.00419
4.72927
5.54264
6.34563
6.9849
7.39023
7.56794
7.5383
7.35284
7.07255
6.75139
6.408
6.14098
6.00678
6.01034
6.18846
6.60406
7.46935
9.13804
12.3449
18.9172
35.0005
92.2735
420.024
2858.42
1.72165
1.66601
1.62699
1.60434
1.59383
1.59027
1.59083
1.59845
1.60753
1.61974
1.63325
1.64849
1.66489
1.68254
1.7013
1.72127
1.74248
1.76504
1.78906
1.81469
1.84206
1.87137
1.79625
1.8988
2.03607
2.21778
2.45161
2.75424
3.12286
3.59665
4.20714
5.08772
6.15792
7.31171
8.33029
8.98759
9.24873
9.19061
8.88621
8.43051
7.9115
7.39408
6.89171
6.50889
6.29416
6.23808
6.37215
6.75086
7.57888
9.21213
12.3813
18.9175
35.006
92.5779
422.839
2879.13
1.79876
1.71898
1.66042
1.62328
1.60255
1.5931
1.59005
1.59146
1.59919
1.6086
1.62082
1.63444
1.64965
1.66601
1.68357
1.70223
1.72209
1.74318
1.76563
1.78952
1.81502
1.84226
1.87144
1.90318
2.04406
2.23188
2.47659
2.79655
3.1955
3.71942
4.41222
5.47352
6.85636
8.45622
10.0071
11.171
11.6896
11.6268
11.1722
10.4658
9.64803
8.82863
8.07609
7.39134
6.88061
6.57971
6.46182
6.55028
6.89323
7.68492
9.28403
12.4176
18.9192
35.0115
92.8708
425.724
2902.01
1.90736
1.79504
1.71022
1.65442
1.61984
1.60092
1.59247
1.58986
1.5922
1.59996
1.60972
1.62194
1.63567
1.65081
1.66711
1.68456
1.70313
1.72288
1.74386
1.76619
1.78997
1.81535
1.84246
1.87147
2.05149
2.24496
2.49994
2.83651
3.26552
3.8386
4.62
5.88725
7.63459
9.77002
11.9966
13.8904
15.0265
15.1683
14.5498
13.5116
12.2667
10.9943
9.81533
8.79171
7.90344
7.25404
6.86218
6.68073
6.7226
7.03076
7.78723
9.35355
12.4535
18.922
35.0212
93.1448
429.093
2926.7
2.0584
1.90224
1.78176
1.70096
1.64881
1.61666
1.59945
1.59189
1.58974
1.59302
1.60078
1.6109
1.6231
1.63689
1.65194
1.66818
1.68553
1.70401
1.72365
1.74452
1.76675
1.7904
1.81567
1.84256
1.87147
2.25722
2.52173
2.87422
3.33259
3.95378
4.83155
6.32737
8.48356
11.2332
14.2697
17.1043
19.175
20.0106
19.4631
18.0144
16.1887
14.2667
12.4517
10.8598
9.53381
8.42406
7.62705
7.14041
6.89409
6.88887
7.16316
7.8856
9.42054
12.484
18.9262
35.0287
93.5149
432.486
2954.19
2.26842
2.0516
1.88247
1.7679
1.69227
1.64355
1.61369
1.59808
1.59139
1.58971
1.5939
1.60166
1.6121
1.62427
1.63807
1.65305
1.66922
1.68648
1.70486
1.7244
1.74516
1.76728
1.79083
1.81582
1.84256
1.87147
2.54226
2.90981
3.39653
4.06508
5.04778
6.79035
9.39103
12.8207
16.7855
20.7609
24.07
26.0359
26.1986
24.5814
21.9957
19.1703
16.4367
13.999
11.9484
10.2945
8.94906
7.99756
7.41329
7.10128
7.04893
7.29027
7.97992
9.47638
12.5106
18.9309
35.0456
93.8365
436.573
2983.8
2.56062
2.25941
2.02254
1.86213
1.75489
1.68407
1.63856
1.6109
1.59682
1.59098
1.58978
1.59482
1.60262
1.61329
1.62543
1.63922
1.65413
1.67023
1.68741
1.70568
1.72513
1.74579
1.7678
1.79104
1.81582
1.84256
1.87147
2.94363
3.45738
4.1731
5.26913
7.27107
10.3433
14.5053
19.4981
24.7906
29.6279
33.1496
34.6052
33.6255
30.5012
26.4515
22.4148
18.7441
15.614
13.0672
11.0656
9.47434
8.36354
7.67982
7.30185
7.20267
7.41197
8.05818
9.52427
12.5404
18.9392
35.0584
94.3121
440.561
3016.95
2.97348
2.549
2.21679
1.99308
1.84305
1.74255
1.67622
1.63379
1.60828
1.59568
1.59068
1.58996
1.59575
1.60363
1.61444
1.62658
1.64034
1.65519
1.67121
1.6883
1.70649
1.72584
1.7464
1.76806
1.79104
1.81582
1.84256
1.87147
3.51562
4.2787
5.49545
7.76342
11.3263
16.26
22.3595
29.1152
35.734
41.219
44.5473
44.9605
42.2817
37.1728
31.3255
25.8758
21.1557
17.2745
14.2028
11.8398
9.99601
8.7231
7.93917
7.49544
7.34999
7.51288
8.12511
9.57726
12.5741
18.9474
35.0872
94.6928
445.548
3052.54
3.5666
2.95818
2.48646
2.17433
1.96545
1.82489
1.73068
1.66867
1.62925
1.60584
1.59465
1.59049
1.59028
1.59665
1.60468
1.61555
1.62771
1.64143
1.65623
1.67217
1.68918
1.70727
1.72653
1.7467
1.76806
1.79104
1.81582
1.84256
1.87147
4.38259
5.72278
8.26101
12.3262
18.0584
25.3224
33.6533
42.258
50.0591
55.82
58.397
57.1161
52.1126
44.521
36.5519
29.5047
23.6386
18.96
15.3428
12.6099
10.5105
9.07462
8.19062
7.68173
7.47231
7.59912
8.19891
9.63607
12.6118
18.9621
35.1081
95.3032
450.273
3092.59
4.47496
3.54682
2.86505
2.42527
2.13456
1.93911
1.80739
1.71924
1.66143
1.62492
1.60362
1.59375
1.59038
1.59083
1.5975
1.60575
1.61664
1.62883
1.64248
1.65724
1.6731
1.69003
1.70803
1.72687
1.7467
1.76807
1.79104
1.81582
1.84256
1.87144
5.94902
8.76042
13.3306
19.8752
28.3412
38.3256
49.0653
59.4577
68.1321
73.6288
74.7482
71.0182
63.0197
52.4508
42.0583
33.2527
26.1625
20.6523
16.4765
13.37
11.0148
9.41671
8.43357
7.83703
7.57697
7.69427
8.28078
9.70144
12.6551
18.9756
35.1554
95.7647
456.398
3135.4
4.44919
6.15044
3.40334
2.77621
2.36807
2.0966
1.91368
1.79046
1.7082
1.65448
1.62078
1.60159
1.59295
1.59022
1.59153
1.59832
1.60683
1.61769
1.62993
1.64351
1.65823
1.674
1.69086
1.7084
1.72688
1.7467
1.76807
1.79104
1.81582
1.84246
1.87137
9.25644
14.328
21.6879
31.3734
43.057
56.0272
69.1993
81.1502
90.2147
94.7396
93.5586
86.5462
74.8682
60.8523
47.7696
37.0731
28.6997
22.3352
17.5947
14.1151
11.5063
9.74822
8.63682
7.97023
7.6925
7.79892
8.3717
9.77437
12.7033
19.0005
35.1886
96.5161
462.069
3183.77
4.21105
6.12782
9.69867
3.27157
2.69342
2.31345
2.05994
1.88906
1.77412
1.69759
1.64784
1.61687
1.59975
1.59229
1.59008
1.59232
1.59913
1.6079
1.61873
1.631
1.64452
1.65919
1.67488
1.69128
1.70841
1.72688
1.74671
1.76807
1.79104
1.81566
1.84226
1.87129
15.3073
23.4766
34.3821
47.7804
63.0272
79.0841
94.541
107.649
116.448
119.133
114.692
103.52
87.4941
69.6075
53.6119
40.9229
31.2258
23.9949
18.6899
14.841
11.9832
10.0262
8.8115
8.11758
7.8204
7.91422
8.47278
9.85577
12.7597
19.0219
35.2636
97.0501
469.611
3235.21
4.00073
5.70269
9.70205
16.1822
3.15021
2.61437
2.26073
2.02445
1.86528
1.75838
1.68742
1.64152
1.61325
1.59816
1.59174
1.59003
1.59314
1.59995
1.60896
1.61975
1.63205
1.6455
1.66014
1.67532
1.69129
1.70841
1.72689
1.74671
1.76807
1.79083
1.81535
1.84205
1.87122
25.2223
37.3357
52.4397
69.9651
88.9387
108.005
125.433
139.135
146.845
146.672
137.927
121.708
100.715
78.5968
59.5155
44.7632
33.7196
25.6205
19.7561
15.5447
12.3831
10.2653
9.00509
8.28089
7.96225
8.04154
8.5853
9.94712
12.8222
19.0622
35.3142
97.972
476.53
3293.57
3.81126
5.33
8.92256
16.2588
26.7895
3.03495
2.53815
2.20975
1.99018
1.84237
1.74327
1.67771
1.63559
1.61003
1.5968
1.59132
1.59007
1.59396
1.60077
1.60999
1.62075
1.63307
1.64647
1.66061
1.67532
1.69129
1.70842
1.72689
1.74671
1.76781
1.79041
1.81502
1.84184
1.87114
40.205
56.9892
76.7622
98.6228
121.295
143.131
162.075
175.654
181.288
177.109
162.962
140.844
114.339
87.7051
65.4162
48.5597
36.1638
27.203
20.7889
16.1344
12.7272
10.5306
9.22003
8.46223
8.11985
8.18245
8.71075
10.0494
12.8968
19.0955
35.4281
98.6114
485.815
3355.23
3.63467
4.99504
8.22443
14.9329
27.0484
42.7862
2.9242
2.46459
2.16056
1.95716
1.82036
1.72882
1.66855
1.63021
1.60722
1.59564
1.59102
1.59021
1.59478
1.60161
1.611
1.62174
1.63409
1.64694
1.66061
1.67532
1.6913
1.70842
1.7269
1.74641
1.76729
1.78997
1.81468
1.84162
1.87106
61.3871
83.3583
108.033
134.223
160.401
184.65
204.536
217.122
219.527
210.087
189.436
160.641
128.18
96.8248
71.2571
52.2843
38.5444
28.7354
21.6536
16.6412
13.1088
10.8254
9.45909
8.66396
8.29524
8.3388
8.85079
10.1651
12.9787
19.1592
35.504
99.7597
494.429
3425.38
3.46795
4.68508
7.58744
13.7004
25.0063
43.3803
65.3423
2.81766
2.39378
2.11325
1.92546
1.7993
1.71515
1.66017
1.62544
1.60476
1.59467
1.59083
1.59044
1.59557
1.60247
1.61199
1.62275
1.63459
1.64693
1.66063
1.67533
1.69131
1.70843
1.72655
1.7458
1.76675
1.78952
1.81433
1.84139
1.87098
89.6983
117.099
146.664
177
206.392
232.625
252.768
263.325
261.188
245.158
216.947
180.81
142.06
105.86
76.9906
55.9136
40.8502
30.0181
22.3963
17.2028
13.5325
11.1533
9.7254
8.88879
8.49082
8.51271
9.00751
10.2949
13.0787
19.2109
35.6742
100.553
505.812
3498.95
3.31018
4.39557
6.99307
12.5457
23.0726
40.4456
66.46
95.3841
2.71535
2.32585
2.06789
1.89516
1.77937
1.70262
1.65268
1.6212
1.60263
1.59387
1.59074
1.59078
1.59632
1.60335
1.613
1.62324
1.63459
1.64694
1.66064
1.67534
1.69132
1.70806
1.72586
1.74518
1.7662
1.78906
1.81398
1.84116
1.8709
125.753
158.543
192.79
227
259.29
287.032
306.619
313.92
305.774
281.804
245.075
201.069
155.817
114.728
82.5774
59.4291
42.7801
31.1196
23.2186
17.8256
14.0035
11.5187
10.0226
9.13985
8.70935
8.70669
9.1831
10.4429
13.1874
19.3092
35.7873
102.003
516.785
3597.16
3.16104
4.12563
6.43502
11.4484
21.2194
37.6379
62.4694
97.2215
133.47
2.61737
2.26095
2.0246
1.86652
1.76107
1.69137
1.64597
1.61743
1.60081
1.5932
1.59068
1.59126
1.59706
1.60431
1.6135
1.62321
1.6346
1.64695
1.66065
1.67536
1.69091
1.7073
1.72515
1.74454
1.76563
1.78859
1.81362
1.84093
1.87081
169.79
207.705
246.329
284.154
319.058
347.787
365.839
368.435
352.683
319.461
273.404
221.162
169.314
123.363
87.9858
62.3706
44.4372
32.339
24.1302
18.5173
14.5278
11.9264
10.3547
9.42072
8.95399
8.92364
9.38053
10.6093
13.3233
19.3899
36.0402
103.031
533.071
3716.46
3.02016
3.87533
5.91329
10.4021
19.4193
34.9073
58.6443
92.0228
136.19
179.729
2.52388
2.19923
1.98373
1.84025
1.74463
1.68126
1.63997
1.61406
1.59927
1.59265
1.59056
1.59186
1.59791
1.60479
1.61346
1.62323
1.63462
1.64697
1.66066
1.67493
1.69008
1.70652
1.72443
1.74388
1.76505
1.7881
1.81324
1.84068
1.87073
221.687
264.352
307.085
348.368
385.657
414.773
430.072
426.265
401.229
357.551
301.541
240.867
182.439
131.71
92.5061
64.8953
46.2717
33.6905
25.1418
19.2862
15.1119
12.3817
10.7263
9.73548
9.22842
9.16699
9.60273
10.801
13.4703
19.539
36.2097
105.225
551.79
3838.9
2.88688
3.6452
5.42932
9.41124
17.6608
32.2143
54.8942
87.072
129.624
183.415
233.876
2.4352
2.14118
1.94633
1.81665
1.72985
1.6722
1.6346
1.61108
1.59795
1.59218
1.59052
1.59266
1.5983
1.60474
1.61347
1.62325
1.63464
1.64701
1.66021
1.67406
1.68923
1.70573
1.72368
1.74321
1.76446
1.7876
1.81286
1.84044
1.87063
281.041
328.125
374.854
419.602
459.112
487.852
498.855
486.689
450.669
395.505
329.143
259.999
195.098
138.673
96.3826
67.6892
48.3044
35.1897
26.2653
20.1414
15.7632
12.8906
11.1427
10.0888
9.53685
9.44064
9.8539
11.0168
13.6571
19.6665
36.6552
107.122
573.814
3964.3
2.7606
3.43723
4.98423
8.48284
15.9444
29.5391
51.1601
82.2117
123.465
175.277
238.484
295.307
2.35219
2.08822
1.91279
1.79545
1.71658
1.66406
1.62981
1.60849
1.5968
1.59182
1.59082
1.59307
1.59817
1.60477
1.6135
1.62328
1.63468
1.64655
1.65927
1.67316
1.68837
1.70491
1.72292
1.74251
1.76385
1.78709
1.81247
1.84018
1.87054
347.31
398.679
449.566
498.044
539.617
566.888
571.598
548.86
500.238
432.813
355.92
278.411
205.629
144.635
100.668
70.7832
50.5585
36.854
27.5139
21.0934
16.4898
13.46
11.6097
10.4859
9.88409
9.74935
10.1381
11.2685
13.8603
19.9305
37.0362
110.095
597.801
4089.51
2.64218
3.24895
4.57834
7.6173
14.2801
26.8789
47.4065
77.3553
117.455
167.826
228.481
300.626
363.261
2.27689
2.04085
1.88273
1.77641
1.70465
1.65677
1.62556
1.60621
1.59583
1.59189
1.59092
1.59296
1.59819
1.60481
1.61353
1.62335
1.6342
1.6456
1.65832
1.67225
1.68748
1.70407
1.72214
1.7418
1.76323
1.78656
1.81206
1.83992
1.87045
419.99
475.865
531.501
584.244
627.567
651.714
647.548
611.849
549.211
469.033
381.64
293.678
214.626
151.214
105.408
74.211
53.0594
38.7027
28.9026
22.1537
17.3007
14.0973
12.1339
10.9326
10.2756
10.0981
10.4609
11.555
14.1699
20.2273
37.7275
113.322
621.49
4217.75
2.53459
3.07776
4.21264
6.81876
12.6874
24.2434
43.6186
72.4427
111.472
160.658
219.616
288.327
368.89
437.022
2.21001
1.99851
1.8558
1.75931
1.69395
1.65024
1.62175
1.60414
1.59544
1.59186
1.59066
1.59302
1.59824
1.60484
1.61364
1.6229
1.63321
1.64463
1.65735
1.67131
1.68657
1.70321
1.72134
1.74107
1.76259
1.78603
1.81165
1.83966
1.87036
498.8
559.942
621.416
679.13
723.521
742.03
725.764
674.701
596.936
503.808
402.909
306.69
224.529
158.473
110.649
78.0091
55.8348
40.7569
30.4473
23.3349
18.206
14.8107
12.7223
11.4356
10.7176
10.4938
10.8242
11.9547
14.5692
20.6631
38.529
116.143
652.122
4344.12
2.43902
2.92496
3.88904
6.0934
11.1838
21.6519
39.7977
67.4364
105.421
153.606
211.276
277.843
353.655
442.386
516.148
2.15058
1.96064
1.83165
1.74397
1.68434
1.64435
1.61832
1.60285
1.59517
1.59154
1.59073
1.59308
1.59832
1.60498
1.6132
1.62193
1.63221
1.64365
1.65636
1.67035
1.68564
1.70233
1.72052
1.74033
1.76193
1.78548
1.81124
1.83941
1.87027
583.942
651.819
720.753
784.199
828.082
837.245
805.152
736.496
642.862
532.519
420.992
320.969
235.419
166.476
116.442
82.2165
58.9148
43.0397
32.1659
24.6506
19.2164
15.609
13.3827
12.0019
11.2169
10.9432
11.3149
12.4764
15.0572
21.191
39.2473
121.434
678.73
4471.91
2.35442
2.78959
3.61278
5.45006
9.7903
19.1285
35.9575
62.3172
99.2311
146.533
203.243
268.27
341.232
423.287
520.563
600.77
2.09771
1.9268
1.81002
1.73018
1.67565
1.63909
1.61598
1.60211
1.59474
1.59164
1.59083
1.59312
1.59858
1.60461
1.61223
1.62098
1.63119
1.64264
1.65535
1.66936
1.68469
1.70143
1.71968
1.73956
1.76127
1.78493
1.81085
1.83917
1.87019
676.449
753.341
832.207
901.613
941.701
936.48
884.546
796.404
680.818
556.889
440.779
336.612
247.377
175.288
122.84
86.8749
62.3317
45.5758
34.0773
26.1158
20.3436
16.5019
14.1236
12.6393
11.7807
11.5494
11.9496
13.0695
15.6254
21.7557
40.7471
124.701
715.197
4598.54
2.27969
2.6686
3.38492
4.9021
8.53423
16.7003
32.1221
57.0798
92.8499
139.328
195.33
259.332
330.29
408.462
496.245
603.487
692.036
2.05064
1.89656
1.79058
1.71772
1.66794
1.6354
1.61469
1.60157
1.59489
1.59175
1.59096
1.59338
1.59832
1.60373
1.61129
1.62002
1.63016
1.64162
1.65431
1.66835
1.68371
1.7005
1.71882
1.73878
1.76061
1.78441
1.81046
1.83893
1.8701
778.326
868.384
960.128
1034.01
1064.65
1038.73
962.748
846.199
713.041
583.5
462.376
353.71
260.479
184.976
129.896
92.027
66.1189
48.3913
36.2021
27.7463
21.6
17.4995
14.954
13.3557
12.536
12.3302
12.652
13.7345
16.261
22.6305
41.7732
131.568
748.196
4723.4
2.21372
2.56046
3.19412
4.44693
7.44508
14.4163
28.3262
51.7323
86.2348
131.889
187.379
250.782
320.472
395.909
478.417
572.026
692.469
792.853
2.0087
1.86948
1.77304
1.70675
1.66238
1.63336
1.61393
1.60181
1.59504
1.5919
1.59148
1.59317
1.59757
1.60294
1.61034
1.61905
1.62911
1.64057
1.65326
1.66732
1.68272
1.69955
1.71795
1.738
1.75997
1.78389
1.81009
1.83871
1.87002
894.565
1003.82
1110.69
1184.57
1197.65
1142.57
1028.64
888.607
748.217
612.465
485.875
372.339
274.796
195.6
137.662
97.7155
70.3111
51.5137
38.5613
29.5587
22.9986
18.6126
15.8825
14.3099
13.4998
13.1813
13.424
14.4698
17.0523
23.4432
43.9481
136.296
789.858
4848.94
2.15545
2.46424
3.03053
4.07146
6.5299
12.3703
24.6421
46.3001
79.3561
124.124
179.239
242.412
311.46
385.162
463.903
550.506
651.002
791.2
908.939
1.97124
1.84511
1.75759
1.69865
1.65924
1.6323
1.61424
1.60201
1.5952
1.59253
1.59168
1.59253
1.5969
1.60219
1.60938
1.61807
1.62804
1.6395
1.65219
1.66626
1.68171
1.69858
1.71709
1.73725
1.75934
1.7834
1.80973
1.83849
1.86994
1034.39
1170.54
1292.85
1360.62
1339.97
1232.24
1085.22
935.054
786.492
643.878
511.341
392.557
290.382
207.213
146.187
103.982
74.9422
54.9701
41.1769
31.5703
24.5529
19.8515
17.1125
15.5162
14.5384
14.1021
14.2661
15.3032
17.8924
24.7233
45.7096
145.315
832.154
4970.56
2.10379
2.37912
2.88754
3.76293
5.77077
10.6058
21.218
40.8665
72.2023
115.94
170.75
234.017
302.993
375.803
452.098
533.592
625.089
735.241
906.644
1052.61
1.93765
1.82369
1.746
1.69409
1.65781
1.6327
1.61449
1.60221
1.59604
1.59291
1.5916
1.59212
1.59624
1.60146
1.60841
1.61708
1.62697
1.6384
1.6511
1.66517
1.68068
1.69763
1.71625
1.73653
1.75874
1.78292
1.80937
1.83827
1.86986
1213.37
1387.77
1532.11
1565.48
1466.89
1310.27
1147.76
985.793
827.993
677.798
538.811
414.398
307.273
219.856
155.51
110.863
80.0444
58.7874
44.0703
33.7983
26.2761
21.4851
18.6551
16.8038
15.6493
15.0916
15.1861
16.2072
18.946
25.9844
48.8519
153.098
879.635
5094.69
2.05775
2.30405
2.76061
3.51163
5.14738
9.11545
18.1481
35.6421
64.8381
107.257
161.745
225.378
294.818
367.51
442.428
520.522
605.28
704.158
830.329
1055.47
1250.59
1.90815
1.80745
1.73955
1.69224
1.65834
1.633
1.61475
1.60339
1.59676
1.59308
1.59182
1.5919
1.59557
1.60076
1.60745
1.61607
1.62589
1.63727
1.64999
1.66407
1.67966
1.6967
1.71544
1.73582
1.75815
1.78245
1.80903
1.83806
1.86979
1468.97
1719.1
1841.77
1753.38
1578.82
1397.76
1216.94
1041.2
872.866
714.273
568.288
437.858
325.478
233.549
165.66
118.389
85.6457
62.99
47.2624
36.2589
28.5385
23.5196
20.289
18.1685
16.8296
16.15
16.1774
17.2274
20.0745
27.7665
51.9409
163.732
934.997
5215.3
2.01744
2.23784
2.64708
3.30588
4.63865
7.87002
15.4389
30.7917
57.518
98.0773
152.047
216.246
286.663
359.981
434.498
510.503
590.668
680.942
792.866
949.232
1284.79
1568.67
1.88546
1.79862
1.73721
1.69298
1.65871
1.63329
1.61628
1.6047
1.59741
1.59365
1.59211
1.59184
1.5949
1.60007
1.60649
1.61503
1.6248
1.63612
1.64887
1.66298
1.67868
1.69581
1.71465
1.73514
1.75758
1.782
1.8087
1.83786
1.86972
1922.59
2179
2123.28
1920.33
1706.99
1496.78
1294.28
1101.93
921.364
753.358
599.749
462.898
344.973
248.289
176.649
126.579
91.7677
67.5991
50.7707
39.4756
31.3384
25.6607
22.0086
19.6066
18.0772
17.2756
17.2519
18.3311
21.4401
29.6874
56.081
177.203
992.139
5337.44
1.9861
2.1806
2.54558
3.1325
4.22572
6.84077
13.0968
26.3629
50.4757
88.6485
141.55
206.34
278.214
352.912
427.951
503.031
580.194
664.423
765.787
903.413
1124.41
1739.51
2234.25
1.87321
1.7958
1.73813
1.6934
1.65902
1.63528
1.61836
1.60624
1.59866
1.59444
1.59242
1.59189
1.59425
1.59939
1.60557
1.61397
1.62371
1.63496
1.64777
1.66194
1.67772
1.69494
1.71389
1.73448
1.75703
1.78156
1.80837
1.83767
1.86968
2605.17
2628.41
2395.83
2125.44
1860.04
1614.49
1382.5
1169.36
974.02
795.152
633.153