/*--------------------------------*- C++ -*----------------------------------*\
  =========                 |
  \\      /  F ield         | OpenFOAM: The Open Source CFD Toolbox
   \\    /   O peration     | Website:  https://openfoam.org
    \\  /    A nd           | Version:  8
     \\/     M anipulation  |
\*---------------------------------------------------------------------------*/
FoamFile
{
    version     2.0;
    format      ascii;
    class       volScalarField;
    location    "0.03";
    object      epsilon;
}
// * * * * * * * * * * * * * * * * * * * * * * * * * * * * * * * * * * * * * //

dimensions      [0 2 -3 0 0 0 0];

internalField   nonuniform List<scalar> 
15677
(
59.7005
18.3539
52.6121
8.08797
25.8878
50.1613
4.6275
13.261
31.575
50.4816
3.17807
7.7219
17.0797
37.2596
51.6008
2.48967
5.04181
10.0243
20.8037
42.635
53.6522
2.14583
3.62202
6.46112
12.1561
24.5347
47.6429
55.7242
1.9799
2.82046
4.52409
7.72023
14.2707
28.2396
52.0073
57.6444
1.91171
2.35276
3.40132
5.30747
8.91276
16.4147
31.7447
55.6795
59.3449
1.88417
2.08016
2.72305
3.90731
6.01981
10.0999
18.5288
34.9337
58.6977
60.8298
1.87055
1.93936
2.30705
3.05426
4.3567
6.7034
11.2697
20.5534
37.7514
61.1592
62.1143
1.86765
1.8783
2.05644
2.52032
3.34726
4.77386
7.3613
12.4082
22.4423
40.1995
63.1528
63.233
1.86863
1.84884
1.91658
2.18561
2.71206
3.61361
5.16431
7.99517
13.494
24.1749
42.2944
64.7741
64.161
1.86953
1.83867
1.85194
1.98243
2.30666
2.88544
3.85747
5.53226
8.59795
14.5171
25.7382
44.0788
66.0665
65.0002
1.86977
1.83693
1.82117
1.86771
2.05131
2.41763
3.04237
4.0823
5.87693
9.16837
15.4678
27.1335
45.5594
67.1243
65.7305
1.86977
1.83718
1.81056
1.81336
1.89817
2.11724
2.5183
3.18488
4.28927
6.20009
9.70153
16.3405
28.3457
46.8129
67.9793
66.3835
1.86974
1.83742
1.80828
1.78982
1.81542
1.93021
2.17845
2.60932
3.31429
4.48051
6.49999
10.1945
17.1207
29.4042
47.8466
68.6901
66.8798
1.86972
1.83751
1.80798
1.78283
1.77578
1.82144
1.96214
2.23439
2.69148
3.43229
4.65603
6.77551
10.64
17.819
30.303
48.6942
69.2296
67.3525
1.86971
1.83751
1.80801
1.78115
1.76158
1.76603
1.83155
1.9925
2.28521
2.76584
3.53944
4.81543
7.02396
11.043
18.4249
31.0497
49.3419
69.6937
67.7623
1.8697
1.8375
1.80802
1.78086
1.75713
1.74376
1.76015
1.84261
2.02087
2.3313
2.83285
3.63567
4.95806
7.24827
11.3946
18.9334
31.638
49.8564
70.0583
68.1752
1.8697
1.83748
1.80802
1.78086
1.75589
1.73569
1.72918
1.75686
1.85408
2.04708
2.37277
2.89259
3.72111
5.08575
7.44239
11.6884
19.3465
32.0957
50.2246
70.3922
68.4828
1.8697
1.83747
1.808
1.78087
1.7556
1.73295
1.71687
1.71745
1.75569
1.86546
2.0709
2.40966
2.94533
3.79686
5.19489
7.60296
11.9322
19.6625
32.414
50.5092
70.6403
68.8155
1.8697
1.83746
1.80799
1.78087
1.75554
1.73209
1.71218
1.70071
1.70829
1.75585
1.87621
2.0922
2.44218
2.99178
3.86113
5.28452
7.73698
12.113
19.878
32.6534
50.6837
70.8801
69.0654
1.8697
1.83746
1.80798
1.78085
1.75551
1.73182
1.71051
1.69384
1.68711
1.70115
1.75656
1.88602
2.11109
2.47087
3.0313
3.91396
5.35854
7.83305
12.2331
20.047
32.7836
50.7698
71.0472
69.3881
1.8697
1.83745
1.80797
1.78084
1.75548
1.73172
1.70993
1.69117
1.6779
1.67567
1.69554
1.75757
1.89503
2.12805
2.49558
3.06403
3.95695
5.41092
7.89577
12.33
20.1176
32.7891
50.773
71.2628
69.6121
1.8697
1.83745
1.80796
1.78082
1.75546
1.73166
1.7097
1.69017
1.6741
1.66405
1.66616
1.69051
1.75908
1.9035
2.14298
2.51645
3.09082
3.98848
5.44568
7.94591
12.3576
20.1099
32.7579
50.7584
71.4156
69.9212
1.8697
1.83745
1.80795
1.78081
1.75543
1.73161
1.70958
1.68977
1.6726
1.65901
1.65225
1.65749
1.6868
1.76103
1.91136
2.15623
2.53431
3.11203
4.01084
5.47188
7.95687
12.3486
20.0736
32.6813
50.7023
71.636
70.152
1.8697
1.83745
1.80795
1.7808
1.75541
1.73157
1.7095
1.68958
1.67198
1.6569
1.64596
1.64148
1.65008
1.68432
1.76347
1.91921
2.16853
2.54983
3.12875
4.02779
5.48147
7.95156
12.3211
19.9943
32.5357
50.6309
71.8044
70.4438
1.8697
1.83745
1.80794
1.78079
1.7554
1.73154
1.70944
1.68946
1.67169
1.65601
1.64323
1.63406
1.63157
1.6453
1.68305
1.76717
1.92761
2.18069
2.56412
3.14344
4.03917
5.48102
7.93697
12.265
19.8688
32.3665
50.5121
72.044
70.6534
1.8697
1.83745
1.80794
1.78079
1.75538
1.73151
1.70939
1.68937
1.67153
1.65559
1.64204
1.63075
1.62263
1.62528
1.64043
1.68401
1.77265
1.9375
2.19378
2.57885
3.15715
4.04677
5.47805
7.90783
12.1869
19.7191
32.1651
50.4135
72.2747
423.098
1.8697
1.83744
1.80794
1.78078
1.75537
1.73149
1.70935
1.6893
1.67141
1.65536
1.64148
1.62928
1.61846
1.61531
1.61865
1.64018
1.68711
1.78069
1.94979
2.20908
2.59504
3.17121
4.05421
5.47081
7.87141
12.0953
19.5507
31.9556
50.2866
85.9039
609.73
1.8697
1.83744
1.80793
1.78078
1.75536
1.73147
1.70932
1.68924
1.67131
1.6552
1.64118
1.62857
1.61651
1.61047
1.60786
1.61641
1.64207
1.69352
1.7923
1.96568
2.2276
2.61422
3.1876
4.0627
5.46343
7.82988
11.9966
19.3747
31.7371
50.6866
105.557
839.278
1.8697
1.83744
1.80793
1.78077
1.75536
1.73146
1.70929
1.68919
1.67124
1.65507
1.64097
1.62818
1.61555
1.60814
1.60264
1.6041
1.61788
1.64729
1.70467
1.8087
1.98623
2.25092
2.63777
3.20817
4.07473
5.45528
7.78983
11.8976
19.1938
31.5387
51.8058
130.242
1066.39
1.8697
1.83744
1.80793
1.78076
1.75535
1.73145
1.70927
1.68915
1.67117
1.65497
1.64082
1.62791
1.61501
1.60695
1.60009
1.59792
1.6053
1.62267
1.65771
1.72157
1.83098
2.01298
2.2802
2.66746
3.23428
4.09158
5.45563
7.75373
11.7996
19.0217
31.3407
54.034
154.758
1281.71
1.86971
1.83744
1.80792
1.78076
1.75535
1.73144
1.70925
1.68912
1.67112
1.65488
1.64068
1.62771
1.61466
1.6063
1.59876
1.59482
1.59895
1.60985
1.63263
1.67508
1.74529
1.86064
2.04697
2.3171
2.70438
3.26784
4.11527
5.46006
7.72257
11.7112
18.8303
31.2187
56.6635
178.158
1485.64
1.83744
1.86974
1.80792
1.78076
1.75535
1.73144
1.70924
1.68909
1.67107
1.65481
1.64057
1.62754
1.61438
1.60588
1.59799
1.59321
1.59578
1.60341
1.61963
1.6504
1.70002
1.77743
1.89882
2.09
2.3627
2.75028
3.30951
4.14768
5.47122
7.70042
11.6184
18.6458
31.2036
59.3339
200.398
1674.73
1.80791
1.83754
1.86981
1.78075
1.75534
1.73144
1.70923
1.68906
1.67103
1.65474
1.64046
1.6274
1.61416
1.60557
1.59746
1.5923
1.59415
1.60024
1.61323
1.63791
1.67642
1.73414
1.81905
1.9472
2.14289
2.41855
2.80579
3.36134
4.18869
5.4931
7.68552
11.5378
18.4808
31.24
61.9669
221.153
1847.23
1.78075
1.80807
1.83774
1.86989
1.75534
1.73144
1.70922
1.68904
1.67099
1.65469
1.64037
1.62728
1.61398
1.60532
1.59706
1.59172
1.59325
1.59867
1.61024
1.63197
1.665
1.71242
1.77873
1.87198
2.00676
2.20735
2.48553
2.87267
3.42311
4.24036
5.52872
7.68906
11.4713
18.3489
31.324
64.4646
239.976
2002.64
1.75534
1.78095
1.80838
1.83795
1.86996
1.73144
1.70922
1.68903
1.67095
1.65464
1.64028
1.62717
1.61382
1.6051
1.59672
1.5913
1.5927
1.59788
1.60893
1.62946
1.66015
1.70281
1.75988
1.83595
1.93752
2.07957
2.28398
2.56489
2.9508
3.49668
4.30938
5.5846
7.70323
11.4274
18.238
31.4493
66.7549
257.235
2143.01
1.73144
1.7556
1.78136
1.80869
1.83816
1.87004
1.70921
1.68901
1.67092
1.6546
1.6402
1.62707
1.61369
1.60491
1.59643
1.59097
1.59232
1.59744
1.60841
1.62872
1.65881
1.69995
1.7533
1.82137
1.90729
2.01817
2.16652
2.37482
2.65682
3.04187
3.59084
4.40239
5.65627
7.73336
11.3971
18.152
31.5844
68.8361
272.124
2269.53
1.70921
1.73174
1.75612
1.78179
1.80902
1.83838
1.87012
1.689
1.6709
1.65456
1.64013
1.62699
1.61359
1.60474
1.59619
1.59071
1.59202
1.59717
1.60825
1.62875
1.65907
1.70023
1.75281
1.81855
1.89849
1.9959
2.11523
2.27014
2.48045
2.76254
3.1566
3.71326
4.51162
5.74227
7.78102
11.3886
18.0874
31.7172
70.6815
285.088
2384.73
1.68899
1.70955
1.73237
1.75666
1.78222
1.80935
1.83861
1.87021
1.67087
1.65452
1.64006
1.62691
1.61351
1.60459
1.59598
1.59049
1.59179
1.59699
1.60824
1.62914
1.66015
1.7023
1.75574
1.82178
1.9004
1.99349
2.10238
2.23211
2.39127
2.60294
2.89633
3.30232
3.85147
4.63551
5.84138
7.84161
11.3932
18.0389
31.8459
72.3009
296.567
2489.4
1.67085
1.68934
1.71025
1.73301
1.75721
1.78267
1.8097
1.83884
1.87029
1.65449
1.64
1.62684
1.61345
1.60444
1.5958
1.59031
1.5916
1.59686
1.60829
1.62963
1.6615
1.70517
1.76053
1.82869
1.90905
2.00254
2.10838
2.22939
2.36801
2.53306
2.75857
3.06779
3.46772
4.00572
4.7724
5.95182
7.91357
11.4067
18.0075
31.9673
73.7299
306.82
2585.52
1.65446
1.6712
1.69007
1.71096
1.73367
1.75777
1.78313
1.81005
1.83908
1.87038
1.63994
1.62677
1.61341
1.6043
1.59565
1.59016
1.59145
1.59676
1.60838
1.63015
1.66289
1.70818
1.76607
1.83762
1.92158
2.01875
2.12699
2.24728
2.37839
2.52563
2.71224
2.95977
3.26346
3.65253
4.17441
4.92064
6.07208
7.99466
11.4333
17.9863
32.0849
75.001
316.028
2673.34
1.63988
1.65483
1.67195
1.69082
1.7117
1.73435
1.75835
1.7836
1.81042
1.83932
1.87047
1.6267
1.61338
1.60416
1.59553
1.59003
1.59133
1.5967
1.60849
1.63067
1.66424
1.7111
1.77158
1.84733
1.93643
2.03934
2.15341
2.27871
2.41146
2.55372
2.72581
2.94084
3.18887
3.48273
3.85493
4.35683
5.07907
6.2005
8.08351
11.4706
17.9854
32.1969
76.1205
324.425
2754.53
1.62665
1.64022
1.65559
1.67272
1.6916
1.71247
1.73504
1.75895
1.78408
1.81079
1.83958
1.87056
1.61337
1.60403
1.59543
1.58993
1.59123
1.59665
1.6086
1.63115
1.66552
1.71384
1.77684
1.85683
1.95213
2.06284
2.18506
2.31916
2.45948
2.60639
2.77842
2.98579
3.20072
3.44197
3.72493
4.07534
4.55163
5.24572
6.33533
8.17889
11.5169
17.9897
32.3001
77.1382
332.011
2828.92
1.61336
1.62701
1.64097
1.65638
1.67351
1.69241
1.71325
1.73576
1.75956
1.78457
1.81117
1.83984
1.87065
1.6039
1.59536
1.58984
1.59115
1.59662
1.60872
1.63161
1.66671
1.71639
1.78177
1.86584
1.9674
2.08754
2.22065
2.36633
2.51843
2.67643
2.85838
3.07317
3.28554
3.49306
3.71806
3.98405
4.31071
4.75642
5.41919
6.47528
8.27928
11.5699
18.0004
32.4019
78.0322
339.066
2898.07
1.60379
1.6138
1.62781
1.64174
1.6572
1.67434
1.69324
1.71406
1.7365
1.76019
1.78508
1.81157
1.8401
1.87075
1.59532
1.58976
1.59108
1.5966
1.60883
1.63203
1.66782
1.71872
1.78635
1.87428
1.98189
2.11167
2.25804
2.41925
2.58649
2.76058
2.95972
3.19313
3.41703
3.62601
3.81705
4.01735
4.25781
4.55902
4.97028
5.59823
6.61872
8.3834
11.6279
18.0206
32.4961
78.8691
345.438
2961.49
1.5953
1.60403
1.61469
1.62861
1.64254
1.65804
1.67518
1.6941
1.7149
1.73725
1.76083
1.7856
1.81197
1.84036
1.87083
1.58968
1.59102
1.59658
1.60894
1.63241
1.66882
1.72085
1.79059
1.88209
1.99552
2.13477
2.29474
2.47527
2.66318
2.85785
3.08042
3.34169
3.58922
3.81275
4.00777
4.17165
4.33812
4.54421
4.81535
5.19116
5.78106
6.76463
8.48989
11.69
18.0462
32.5912
79.6007
351.472
3020.72
1.58962
1.59565
1.60462
1.61561
1.62943
1.64337
1.65891
1.67606
1.69499
1.71575
1.73803
1.76148
1.78614
1.81237
1.84062
1.87092
1.59096
1.59657
1.60904
1.63277
1.66974
1.72279
1.79448
1.88929
2.00828
2.15665
2.33005
2.53099
2.74531
2.96858
3.22087
3.51927
3.80151
4.05257
4.26306
4.43111
4.55533
4.67782
4.84196
5.07621
5.41644
5.96615
6.91122
8.5976
11.7548
18.0768
32.6782
80.3052
356.895
3074.98
1.59094
1.58968
1.59636
1.60521
1.61658
1.63027
1.64423
1.65981
1.67697
1.69591
1.71664
1.73882
1.76215
1.78666
1.81277
1.84087
1.87101
1.59655
1.60913
1.63309
1.67057
1.72455
1.79804
1.89588
2.02015
2.17719
2.36375
2.58543
2.82789
3.0888
3.38311
3.72939
4.05879
4.35069
4.59024
4.77114
4.89605
4.96624
5.03388
5.14905
5.34012
5.64337
6.15124
7.05777
8.70556
11.8217
18.1103
32.7675
80.9161
362.11
3125.87
1.59658
1.59086
1.58981
1.59707
1.60587
1.61758
1.63113
1.64512
1.66074
1.67791
1.69686
1.71755
1.73963
1.76282
1.78718
1.81315
1.84111
1.87109
1.6092
1.63337
1.67132
1.72614
1.80128
1.90191
2.03117
2.19634
2.39574
2.63812
2.90922
3.21168
3.56307
3.97834
4.3708
4.72051
5.00492
5.21179
5.34094
5.4027
5.40244
5.40379
5.46289
5.60546
5.87114
6.33662
7.20335
8.81298
11.8895
18.1471
32.8482
81.5185
366.762
3172.41
1.60935
1.59623
1.5906
1.58991
1.59782
1.60658
1.61861
1.63201
1.64605
1.6617
1.67888
1.69783
1.71847
1.74043
1.76346
1.78768
1.81352
1.84134
1.87117
1.6336
1.67198
1.72758
1.80423
1.90742
2.04134
2.21411
2.42599
2.68866
2.98849
3.3353
3.75176
4.26284
4.75268
5.18517
5.53759
5.78744
5.93017
5.97758
5.95144
5.86203
5.78506
5.78108
5.87035
6.09514
6.52037
7.34704
8.91911
11.9577
18.1851
32.932
82.0362
371.301
3216.22
1.63392
1.60858
1.59525
1.59027
1.59019
1.59857
1.60738
1.61967
1.63291
1.64702
1.66269
1.67988
1.69884
1.71939
1.74121
1.76408
1.78816
1.81388
1.84157
1.87124
1.67255
1.72886
1.8069
1.91245
2.0507
2.23055
2.45447
2.73672
3.06527
3.459
3.94584
4.56931
5.20662
5.78138
6.2398
6.56025
6.72933
6.76106
6.68678
6.54264
6.34308
6.17529
6.10139
6.13419
6.31469
6.70105
7.48798
9.02337
12.0257
18.2251
33.0066
82.5581
375.318
3251.18
1.67321
1.63244
1.60646
1.59417
1.59002
1.59069
1.5993
1.60826
1.62073
1.63385
1.64803
1.66371
1.68092
1.69983
1.72028
1.74196
1.76469
1.78864
1.81423
1.84179
1.87132
1.72999
1.80929
1.91702
2.05929
2.24572
2.48121
2.78212
3.13943
3.58192
4.14259
4.89288
5.71937
6.53222
7.19202
7.63071
7.8498
7.86405
7.71955
7.47322
7.17603
6.84349
6.57216
6.42187
6.39532
6.52915
6.87759
7.62548
9.12521
12.093
18.2651
33.0844
83.0017
378.755
3280.41
1.73121
1.67092
1.62837
1.60419
1.59325
1.58971
1.59137
1.60001
1.60923
1.6218
1.63482
1.64907
1.66476
1.68195
1.70081
1.72115
1.74269
1.76528
1.7891
1.81458
1.842
1.87139
1.81143
1.92116
2.06717
2.25972
2.50621
2.82482
3.2109
3.70295
4.33946
5.2325
6.29238
7.43056
8.45215
9.14281
9.45816
9.46187
9.21813
8.81563
8.33872
7.85008
7.36081
6.97343
6.74077
6.65231
6.73787
7.04918
7.75898
9.22421
12.159
18.306
33.1525
83.3968
381.459
3311.8
1.8136
1.72785
1.66431
1.6241
1.60221
1.59245
1.58943
1.59216
1.60072
1.61029
1.62287
1.63584
1.65015
1.66581
1.68297
1.70176
1.72199
1.7434
1.76585
1.78955
1.81491
1.84221
1.87146
1.92492
2.07433
2.27264
2.52955
2.86489
3.27963
3.82094
4.53506
5.58914
6.92977
8.47911
10.0043
11.188
11.7723
11.7971
11.4309
10.8038
10.051
9.28103
8.56158
7.89217
7.37687
7.05647
6.904
6.94032
7.21523
7.888
9.32004
12.2235
18.346
33.2148
83.693
384.536
3345.74
1.92859
1.80893
1.71766
1.65744
1.62026
1.60042
1.59172
1.58923
1.59305
1.60145
1.61142
1.62395
1.6369
1.65122
1.66683
1.68396
1.70268
1.72281
1.74409
1.76641
1.78999
1.81523
1.84241
1.87149
2.0809
2.28451
2.55126
2.90246
3.34557
3.93501
4.72924
5.96407
7.63124
9.6731
11.8331
13.718
14.9144
15.1723
14.6848
13.765
12.6169
11.4186
10.2936
9.30565
8.43425
7.78026
7.36755
7.14944
7.13602
7.37528
8.01225
9.41243
12.2861
18.381
33.2617
84.0512
387.69
3382.33
2.08708
1.92225
1.79373
1.70715
1.65115
1.61671
1.59877
1.59108
1.58915
1.59399
1.60222
1.61262
1.62503
1.63797
1.65227
1.66784
1.68493
1.70358
1.7236
1.74475
1.76695
1.79041
1.81555
1.84251
1.87149
2.29552
2.57141
2.93768
3.4086
4.04464
4.92268
6.35741
8.3913
10.9967
13.9123
16.6897
18.793
19.7529
19.3897
18.1252
16.4499
14.6398
12.9037
11.3664
10.076
8.98335
8.18147
7.67274
7.38784
7.32461
7.52902
8.13142
9.50121
12.3388
18.4106
33.3208
84.3912
391.322
3422.04
2.30562
2.07878
1.89993
1.77818
1.69745
1.64522
1.61338
1.59724
1.59055
1.58917
1.59495
1.60307
1.61386
1.62609
1.63903
1.6533
1.66883
1.68587
1.70445
1.72437
1.7454
1.76747
1.79083
1.81571
1.84252
1.87149
2.59022
2.97069
3.46865
4.14968
5.11626
6.7677
9.20083
12.4282
16.2037
20.051
23.336
25.4036
25.7805
24.4352
22.0962
19.455
16.8455
14.4869
12.4871
10.8654
9.53563
8.57845
7.97091
7.61856
7.50583
7.67635
8.24588
9.57512
12.384
18.445
33.3759
84.8185
395.029
3464.84
2.60704
2.29487
2.04637
1.87737
1.76378
1.68823
1.63958
1.61026
1.59585
1.59015
1.58933
1.59591
1.60401
1.61507
1.62713
1.64007
1.6543
1.66979
1.6868
1.7053
1.72512
1.74603
1.76799
1.79103
1.81571
1.84252
1.87149
3.00185
3.52569
4.25027
5.3107
7.19209
10.049
13.9439
18.6653
23.7367
28.4599
32.0197
33.6789
33.0328
30.2883
26.5566
22.7392
19.2018
16.1464
13.6423
11.6664
10.0872
8.96928
8.26106
7.84115
7.67954
7.81635
8.34095
9.63839
12.4345
18.4822
33.45
85.2154
399.314
3511.39
3.02926
2.59331
2.2479
2.01408
1.85646
1.75002
1.67938
1.6342
1.60736
1.59459
1.58986
1.58966
1.59684
1.60503
1.61624
1.62815
1.6411
1.65528
1.67074
1.6877
1.70613
1.72584
1.74664
1.76824
1.79103
1.81571
1.84252
1.87149
3.58005
4.34691
5.50639
7.62666
10.9242
15.5204
21.2551
27.6764
34.0591
39.4727
42.9387
43.6959
41.5022
36.9006
31.4508
26.2554
21.6747
17.8598
14.8185
12.4715
10.6345
9.35216
8.5424
8.05525
7.84586
7.93179
8.42221
9.70834
12.4904
18.5265
33.5167
85.7282
403.697
3561.44
3.6272
3.01133
2.52537
2.20183
1.98409
1.83641
1.73676
1.6709
1.62908
1.60472
1.59348
1.58967
1.59028
1.5977
1.6061
1.61735
1.62915
1.64211
1.65624
1.67166
1.68857
1.70693
1.72655
1.74694
1.76824
1.79103
1.81571
1.84252
1.87149
4.44039
5.70349
8.06697
11.8148
17.1351
23.9323
31.7996
40.0187
47.595
53.3657
56.225
55.4716
51.1374
44.1993
36.7127
29.9541
24.2302
19.6056
16.0032
13.2739
11.1739
9.7256
8.81429
8.26064
7.98381
8.03004
8.51182
9.78576
12.5532
18.574
33.611
86.1951
408.774
3616.01
4.5218
3.60473
2.91172
2.45976
2.15907
1.95533
1.81706
1.72399
1.66277
1.62418
1.6023
1.59248
1.58936
1.59108
1.59851
1.6072
1.61842
1.63014
1.6431
1.65718
1.67257
1.68943
1.70771
1.7269
1.74694
1.76823
1.79103
1.81571
1.84251
1.87146
5.90164
8.50858
12.7099
18.7661
26.6579
36.0385
46.2229
56.2013
64.6991
70.3339
71.9314
68.9583
61.8453
52.0914
42.2699
33.785
26.8361
21.3643
17.1848
14.0673
11.7026
10.0883
9.07621
8.43138
8.10167
8.13798
8.61075
9.87162
12.6231
18.6319
33.6929
86.8142
414.01
3674.46
4.49135
6.07727
3.45556
2.81758
2.39886
2.11805
1.92752
1.79838
1.71171
1.65499
1.61956
1.60008
1.59162
1.58913
1.59197
1.5993
1.60831
1.61943
1.63112
1.64407
1.6581
1.67345
1.69026
1.7081
1.7269
1.74694
1.76823
1.79103
1.81571
1.84241
1.87139
8.94671
13.5995
20.3937
29.3955
40.3294
52.5621
65.1064
76.6479
85.6288
90.4743
90.0231
84.0437
73.4968
60.4697
48.0471
37.6999
29.4633
23.1184
18.3535
14.8463
12.218
10.4392
9.29474
8.57745
8.23158
8.25671
8.72009
9.96694
12.702
18.6934
33.8136
87.3713
420.05
3738.38
4.25359
6.05002
9.33317
3.31858
2.7303
2.34044
2.07839
1.90064
1.78037
1.69993
1.64759
1.61527
1.59813
1.5909
1.58902
1.59287
1.6001
1.60942
1.62041
1.63209
1.64501
1.659
1.67432
1.69067
1.7081
1.7269
1.74694
1.76824
1.79103
1.81555
1.84221
1.87131
14.4742
22.0009
32.1125
44.6144
58.9369
74.1391
88.9244
101.667
110.527
113.775
110.375
100.557
85.9343
69.218
53.9698
41.6543
32.0854
24.8529
19.5008
15.6066
12.718
10.7329
9.48212
8.73871
8.37496
8.38752
8.84104
10.073
12.7899
18.7696
33.9168
88.1234
426.39
3806.47
4.04323
5.64244
9.32621
15.2486
3.19229
2.64667
2.28401
2.04006
1.87471
1.76306
1.68867
1.64061
1.61136
1.59642
1.59033
1.58903
1.59375
1.60092
1.61051
1.62136
1.63305
1.64594
1.65988
1.67475
1.69068
1.7081
1.7269
1.74694
1.76824
1.79083
1.81523
1.842
1.87124
23.5716
34.7821
48.8439
65.2605
83.151
101.271
118.017
131.44
139.412
140.11
132.777
118.279
98.9805
78.2183
59.9673
45.6074
34.6797
26.5553
20.6201
16.3445
13.1373
10.9853
9.68948
8.917
8.53342
8.53183
8.975
10.1911
12.89
18.8501
34.0718
88.8021
433.616
3881.22
3.8526
5.2865
8.58944
15.3066
24.9719
3.07163
2.56603
2.22953
2.00309
1.84977
1.74648
1.67797
1.63411
1.6079
1.59498
1.58993
1.58917
1.59461
1.60177
1.61157
1.62229
1.63399
1.64685
1.66032
1.67474
1.69068
1.7081
1.7269
1.74694
1.76798
1.79041
1.8149
1.84178
1.87116
37.3793
52.9786
71.4625
92.0193
113.474
134.3
152.582
166.015
172.172
169.244
156.945
136.953
112.45
87.3561
65.9743
49.5233
37.2271
28.2155
21.7056
16.9633
13.498
11.2651
9.91927
9.1144
8.70877
8.6913
9.12356
10.323
13.0017
18.9512
34.2063
89.7225
441.429
3960.2
3.67306
4.96571
7.9375
14.0596
25.1901
39.704
2.95559
2.48832
2.17703
1.96754
1.82586
1.73067
1.66793
1.62826
1.60489
1.59376
1.58967
1.58945
1.59541
1.60265
1.61259
1.62319
1.63493
1.64729
1.6603
1.67474
1.69068
1.7081
1.7269
1.74663
1.76746
1.78998
1.81457
1.84156
1.87108
56.9832
77.4909
100.651
125.369
150.219
173.413
192.685
205.304
208.568
200.835
182.53
156.301
126.159
96.5239
71.9321
53.3717
39.7119
29.8251
22.6153
17.4955
13.8984
11.5759
10.1743
9.33329
8.9031
8.86779
9.28853
10.4703
13.1296
19.0584
34.4055
90.5756
450.143
4047.4
3.50257
4.66666
7.3447
12.9149
23.2596
40.2233
60.5721
2.84406
2.41363
2.12661
1.93348
1.80304
1.71578
1.6588
1.62308
1.6023
1.59276
1.58951
1.58994
1.59616
1.60357
1.61359
1.6241
1.63539
1.64727
1.6603
1.67474
1.69068
1.7081
1.72654
1.74602
1.76693
1.78953
1.81422
1.84133
1.871
83.2995
108.984
136.842
165.563
193.527
218.666
238.267
249.093
248.232
234.453
209.146
176.042
139.932
105.624
77.7912
57.1275
42.1215
31.1734
23.3974
18.0863
14.3435
11.9216
10.4578
9.57639
9.11877
9.06347
9.47195
10.6353
13.2728
19.1929
34.5896
91.7097
459.956
4138.54
3.34056
4.38623
6.79049
11.8479
21.4542
37.4336
61.5709
88.4979
2.7371
2.34206
2.07837
1.90098
1.78151
1.70218
1.65066
1.61847
1.60011
1.59191
1.58928
1.59057
1.59687
1.6045
1.61458
1.62452
1.63537
1.64726
1.6603
1.67474
1.69067
1.7077
1.72583
1.74538
1.76639
1.78908
1.81387
1.8411
1.87092
116.964
147.826
180.2
212.656
243.405
270.01
289.155
297.034
290.679
269.595
236.387
195.904
153.61
114.574
83.51
60.7701
44.1397
32.3322
24.2651
18.7429
14.8388
12.3065
10.7734
9.84681
9.35851
9.2808
9.6762
10.82
13.4376
19.3388
34.8443
92.8307
470.727
4256.85
3.18653
4.12456
6.26944
10.8354
19.7344
34.7973
57.7566
90.1692
124.076
2.63491
2.27376
2.0324
1.87033
1.76182
1.69001
1.6434
1.61437
1.59824
1.59121
1.58909
1.59126
1.59757
1.60549
1.61505
1.62446
1.63537
1.64726
1.6603
1.67475
1.69026
1.70692
1.7251
1.74473
1.76583
1.78862
1.81351
1.84086
1.87083
158.267
194.074
230.663
266.569
299.785
327.321
345.071
348.648
335.323
305.719
263.85
215.632
167.053
123.305
89.0544
63.8207
45.8745
33.6179
25.2291
19.4733
15.3907
12.7357
11.1253
10.1481
9.6254
9.52258
9.90398
11.0279
13.6231
19.518
35.1114
94.0962
485.661
4398.5
3.04013
3.88354
5.78168
9.87082
18.0688
32.2491
54.1447
85.1746
126.592
167.503
2.53771
2.20886
1.98912
1.84229
1.74417
1.67913
1.63692
1.61078
1.59667
1.59064
1.589
1.59199
1.59836
1.60597
1.615
1.62445
1.63537
1.64727
1.66032
1.67431
1.68941
1.70611
1.72435
1.74406
1.76526
1.78815
1.81314
1.84061
1.87074
207.144
247.525
288.028
327.169
362.565
390.42
405.625
403.335
381.499
342.265
291.153
235.009
180.148
131.758
93.6942
66.4424
47.799
35.0458
26.301
20.2869
16.0064
13.2149
11.5182
10.4843
9.92296
9.79203
10.1582
11.2609
13.8366
19.7213
35.4324
95.7931
504.208
4541.72
2.90136
3.6608
5.32727
8.95736
16.4464
29.7453
50.6248
80.4751
120.258
170.971
218.572
2.4457
2.14792
1.94959
1.81717
1.72836
1.66939
1.63117
1.60766
1.59533
1.59018
1.58902
1.59285
1.59866
1.60591
1.61501
1.62445
1.63537
1.64729
1.65988
1.67344
1.68855
1.70527
1.72358
1.74337
1.76467
1.78766
1.81276
1.84036
1.87065
263.234
307.822
352.049
394.335
431.674
459.096
470.326
460.383
428.49
378.687
317.963
253.85
192.801
138.82
97.6789
69.3502
49.9363
36.6333
27.494
21.1936
16.6937
13.7505
11.9574
10.8598
10.2552
10.0928
10.443
11.5246
14.0799
19.9608
35.8984
97.6705
526.586
4683.87
2.77033
3.45466
4.9077
8.10212
14.868
27.2663
47.1343
75.8872
114.387
163.105
222.993
276.74
2.35966
2.09242
1.91424
1.79467
1.71419
1.66069
1.62607
1.60495
1.59417
1.58986
1.58932
1.59325
1.59848
1.60594
1.61501
1.62446
1.63539
1.64684
1.65898
1.67254
1.68767
1.70442
1.72278
1.74266
1.76406
1.78716
1.81237
1.8401
1.87056
326.008
374.574
422.559
468.122
507.181
533.136
538.571
518.976
475.565
414.496
343.997
272.009
203.343
144.876
102.094
72.5776
52.3117
38.3995
28.8229
22.2051
17.4616
14.3495
12.4487
11.2799
10.6265
10.4289
10.7602
11.8228
14.3591
20.3035
36.4456
100.348
549.09
4825.24
2.64803
3.26378
4.52385
7.30522
13.3413
24.8097
43.638
71.3218
108.685
155.989
213.333
281.968
341.27
2.28167
2.0429
1.88262
1.77452
1.70151
1.65293
1.62157
1.60257
1.59322
1.5899
1.58933
1.59313
1.59847
1.60594
1.615
1.62452
1.63492
1.64592
1.65808
1.67163
1.68676
1.70355
1.72196
1.74194
1.76344
1.78665
1.81197
1.83983
1.87047
394.919
447.528
499.676
548.904
589.351
612.312
609.617
578.224
522.039
449.271
369.029
287.088
212.362
151.574
106.989
76.1621
54.9535
40.366
30.304
23.3338
18.3198
15.0199
12.9988
11.7501
11.0419
10.8055
11.1138
12.16
14.7426
20.7449
37.2558
102.542
576.848
4963.77
2.53743
3.08804
4.17609
6.57075
11.8842
22.3841
40.1226
66.7196
103.029
149.164
204.874
270.139
346.988
411.417
2.21243
1.99874
1.85434
1.75647
1.69018
1.64603
1.61757
1.60053
1.59279
1.58977
1.58903
1.59318
1.59847
1.60591
1.61505
1.6241
1.63397
1.64499
1.65715
1.6707
1.68584
1.70265
1.72112
1.74119
1.7628
1.78613
1.81157
1.83957
1.87038
469.58
526.761
583.931
637.4
678.578
696.273
682.558
637.235
567.303
482.671
389.751
299.957
222.311
158.982
112.415
80.1441
57.8928
42.5565
31.9555
24.5939
19.2793
15.7703
13.6149
12.2766
11.5068
11.2278
11.5089
12.6127
15.2395
21.308
37.9653
106.143
604.92
5099.5
2.43963
2.92967
3.86729
5.90323
10.5126
20.0069
36.5898
62.0467
97.3261
142.467
196.924
260.182
332.443
417.149
486.642
2.15093
1.95934
1.82905
1.74032
1.68005
1.63984
1.61407
1.59929
1.59236
1.5894
1.58905
1.59318
1.59848
1.60597
1.61458
1.62318
1.63302
1.64403
1.65621
1.66976
1.68489
1.70173
1.72026
1.74042
1.76215
1.7856
1.81117
1.83932
1.87029
550.001
612.923
676.523
734.816
775.289
784.423
756.373
695.169
610.85
510.264
407.389
314.104
233.276
167.17
118.43
84.568
61.1638
44.9969
33.7972
26.0004
20.3516
16.6098
14.3045
12.8659
12.0273
11.701
12.0335
13.1911
15.8101
21.8901
39.1007
109.118
640.016
5230.28
2.35329
2.78906
3.60494
5.30909
9.24395
17.6993
33.0521
57.2872
91.5118
135.762
189.275
251.08
320.744
399.088
491.821
566.896
2.09628
1.9242
1.80645
1.72589
1.67095
1.63439
1.61164
1.5984
1.59187
1.58945
1.58905
1.59313
1.59866
1.60548
1.61357
1.62226
1.63206
1.64306
1.65525
1.66879
1.68393
1.70078
1.71938
1.73963
1.76148
1.78507
1.81078
1.83907
1.8702
636.93
707.648
779.688
842.948
879.851
875.933
830.039
751.297
646.852
533.708
426.718
329.635
245.347
176.214
125.094
89.4812
64.8031
47.7155
35.8507
27.57
21.5493
17.5484
15.0759
13.5252
12.6091
12.3294
12.6978
13.8248
16.4252
22.6426
40.1191
113.974
675.504
5355.1
2.27709
2.66425
3.38268
4.79912
8.10036
15.4852
29.5311
52.437
85.54
128.947
181.74
242.576
310.408
385.292
469.066
570.907
653.029
2.04771
1.89288
1.78625
1.71292
1.6629
1.63042
1.60998
1.59771
1.59194
1.58945
1.58903
1.59325
1.59836
1.60448
1.61257
1.62133
1.63108
1.64207
1.65427
1.66781
1.68294
1.69982
1.71847
1.73882
1.76082
1.78456
1.8104
1.83883
1.87012
732.327
814.147
897.078
964.211
992.398
970.049
902.595
797.979
677.442
559.339
447.854
346.65
258.612
186.188
132.468
94.9335
68.85
50.7426
38.1389
29.3199
22.8855
18.5963
15.9374
14.2609
13.3801
13.1218
13.4126
14.5051
17.1288
23.4233
41.6804
118.497
714.876
5472.74
2.20981
2.55376
3.19161
4.37402
7.10716
13.4077
26.057
47.5041
79.375
121.936
174.174
234.417
301.112
373.555
452.705
541.788
655.42
747.503
2.00455
1.86495
1.76812
1.70143
1.65684
1.62787
1.60901
1.59783
1.59194
1.5894
1.58933
1.59285
1.59756
1.60354
1.61154
1.62038
1.6301
1.64106
1.65327
1.66681
1.68194
1.69883
1.71754
1.73801
1.76017
1.78406
1.81004
1.8386
1.87004
840.219
938.219
1034.54
1101.09
1114.08
1065.82
963.879
837.799
710.889
587.292
470.905
365.243
273.154
197.166
140.616
100.976
73.3453
54.1098
40.686
31.2685
24.3739
19.764
16.8968
15.2334
14.3474
13.9657
14.1742
15.2428
17.8846
24.4056
43.2429
124.867
758.25
5580.48
2.15038
2.45629
3.02506
4.02127
6.27249
11.5498
22.694
42.5105
72.9914
114.644
166.442
226.416
292.53
363.477
439.311
522.328
617.486
748.452
855.631
1.96619
1.83996
1.75204
1.69261
1.65307
1.6266
1.60916
1.59783
1.59186
1.58977
1.58932
1.59198
1.59685
1.60262
1.61047
1.61939
1.62911
1.64004
1.65224
1.66579
1.68091
1.69783
1.71662
1.73723
1.75954
1.78358
1.80969
1.83838
1.86996
968.395
1090.49
1199.04
1261.83
1245.04
1148.96
1016.68
881.532
747.379
617.689
495.962
385.492
289.047
209.216
149.597
107.661
78.3304
57.8495
43.5168
33.4343
26.0281
21.0608
18.1615
16.4473
15.3703
14.8563
14.9823
16.0285
18.7348
25.4672
45.3624
131.795
804.147
5679.7
2.09782
2.37061
2.87818
3.73164
5.57886
9.95006
19.5743
37.5305
66.3793
106.993
158.405
218.389
284.428
354.629
428.391
506.936
594.393
698.004
856.76
989.186
1.93198
1.81781
1.73949
1.68725
1.65141
1.62681
1.60916
1.59771
1.59236
1.58991
1.58901
1.59124
1.59613
1.60174
1.60938
1.61838
1.62811
1.639
1.6512
1.66475
1.67988
1.69684
1.71573
1.73647
1.75893
1.78311
1.80934
1.83816
1.86989
1132.65
1286.52
1418.89
1450.99
1363.12
1221.73
1075.38
929.559
787.121
650.649
523.102
407.46
306.351
222.398
159.468
115.035
83.8454
61.9937
46.6559
35.8357
27.8605
22.7655
19.7324
17.7233
16.4413
15.788
15.8322
16.8677
19.6581
26.7319
47.7584
140.244
857.328
5764.02
2.05115
2.29542
2.74806
3.4923
5.0055
8.6003
16.7811
32.7529
59.5972
98.9126
149.913
210.138
276.574
346.729
419.37
495.047
576.616
670.686
788.727
996.908
1171.2
1.90173
1.80036
1.73195
1.68513
1.65169
1.62681
1.60901
1.5984
1.5928
1.58987
1.589
1.59055
1.59538
1.60088
1.60827
1.61732
1.6271
1.63795
1.65014
1.6637
1.67886
1.69588
1.71487
1.73573
1.75833
1.78265
1.80901
1.83795
1.86981
1366.77
1596.56
1706.29
1627.24
1468.26
1304.15
1141.02
982.494
830.408
686.311
552.389
431.186
325.104
236.756
170.273
123.142
89.9273
66.5723
50.1266
38.489
30.2625
24.8735
21.3754
19.0509
17.5517
16.7545
16.7191
17.7596
20.6715
28.1688
50.6706
150.441
913.758
5840.89
2.01003
2.22924
2.63288
3.29058
4.53523
7.47001
14.3183
28.3238
52.875
90.4066
140.812
201.443
268.726
339.499
411.911
485.873
563.558
650.123
756.052
901.9
1213.92
1470.35
1.87759
1.79006
1.72923
1.68552
1.65169
1.6266
1.60999
1.59931
1.59323
1.59019
1.5891
1.58992
1.59458
1.60007
1.60716
1.61621
1.62608
1.63689
1.64907
1.66267
1.67788
1.69496
1.71403
1.73502
1.75775
1.78221
1.80868
1.83774
1.86974
1796.38
2022.84
1973.61
1785.96
1591.28
1399.41
1215.84
1041.4
877.753
724.878
583.894
456.691
345.322
252.313
182.045
132.015
96.6067
71.6116
53.9481
41.957
33.2202
27.0688
23.0764
20.4184
18.6923
17.7475
17.6427
18.6972
21.7901
29.8138
54.1435
162.267
977.282
5896.21
1.97699
2.1714
2.5311
3.1172
4.15214
6.53487
12.192
24.2829
46.4202
81.7021
131.009
192.052
260.599
332.663
405.685
479.005
554.188
635.607
732.347
862.187
1069.33
1652.43
2107.2
1.86344
1.78665
1.72975
1.68552
1.6514
1.62788
1.61167
1.60057
1.5942
1.59066
1.58928
1.58944
1.59372
1.59927
1.60607
1.61505
1.62502
1.63583
1.64801
1.66167
1.67694
1.69407
1.71322
1.73432
1.75719
1.78178
1.80837
1.83754
1.86971
2458.91
2478.26
2241.4
1994.07
1743.87
1517.97
1303.27
1108.51
930.085