/*--------------------------------*- C++ -*----------------------------------*\
  =========                 |
  \\      /  F ield         | OpenFOAM: The Open Source CFD Toolbox
   \\    /   O peration     | Website:  https://openfoam.org
    \\  /    A nd           | Version:  8
     \\/     M anipulation  |
\*---------------------------------------------------------------------------*/
FoamFile
{
    version     2.0;
    format      ascii;
    class       volVectorField;
    location    "0.35";
    object      U;
}
// * * * * * * * * * * * * * * * * * * * * * * * * * * * * * * * * * * * * * //

dimensions      [0 1 -1 0 0 0 0];

internalField   nonuniform List<vector> 
15677
(
(-0.0399015 9.66595 0)
(0.0484951 9.92199 0)
(-0.00181361 9.37829 0)
(0.0206524 9.97702 0)
(0.0198921 9.78866 0)
(0.00731344 9.14125 0)
(0.0258391 9.99515 0)
(0.0165373 9.92467 0)
(0.0111792 9.65398 0)
(0.00649143 8.96067 0)
(0.0263308 10.0025 0)
(0.0205524 9.97871 0)
(0.0165509 9.85203 0)
(0.0091249 9.53081 0)
(0.00515969 8.81703 0)
(0.0255703 10.0057 0)
(0.0215844 10.003 0)
(0.019406 9.94152 0)
(0.0153647 9.77951 0)
(0.00798037 9.41984 0)
(0.00424045 8.70238 0)
(0.0245088 10.0071 0)
(0.021866 10.0147 0)
(0.0210022 9.98479 0)
(0.0182523 9.90244 0)
(0.0138545 9.70811 0)
(0.00692504 9.32158 0)
(0.00354484 8.6102 0)
(0.023097 10.0075 0)
(0.0217423 10.0205 0)
(0.0218693 10.0069 0)
(0.0201985 9.96497 0)
(0.0169613 9.86193 0)
(0.0124417 9.64084 0)
(0.00596844 9.23644 0)
(0.00295857 8.53618 0)
(0.021409 10.0074 0)
(0.0211909 10.0233 0)
(0.0221524 10.0184 0)
(0.0212878 9.99809 0)
(0.019053 9.94371 0)
(0.0156076 9.82229 0)
(0.0110788 9.57967 0)
(0.00507682 9.16417 0)
(0.0024187 8.47764 0)
(0.0195159 10.007 0)
(0.0203303 10.0235 0)
(0.0221096 10.0241 0)
(0.0217802 10.0162 0)
(0.0202161 9.98815 0)
(0.0177198 9.92276 0)
(0.0141426 9.78537 0)
(0.00968536 9.52576 0)
(0.00419856 9.10456 0)
(0.00188712 8.43312 0)
(0.0175006 10.0063 0)
(0.019274 10.0223 0)
(0.0216662 10.0271 0)
(0.0218023 10.0261 0)
(0.0207468 10.0131 0)
(0.018861 9.97856 0)
(0.0161738 9.9036 0)
(0.0125187 9.75242 0)
(0.00820327 9.48011 0)
(0.00328826 9.05742 0)
(0.00133474 8.40163 0)
(0.0153991 10.0056 0)
(0.0179647 10.0206 0)
(0.0209335 10.0281 0)
(0.021456 10.0315 0)
(0.0207798 10.0273 0)
(0.0193186 10.0103 0)
(0.0171873 9.97058 0)
(0.0143574 9.88721 0)
(0.0106806 9.7246 0)
(0.0065819 9.4435 0)
(0.00230432 9.0227 0)
(0.000738955 8.3829 0)
(0.013262 10.0048 0)
(0.0164814 10.0185 0)
(0.0198587 10.0274 0)
(0.0207811 10.034 0)
(0.020399 10.0354 0)
(0.0192401 10.0289 0)
(0.0174612 10.0092 0)
(0.0151317 9.96505 0)
(0.0121986 9.87461 0)
(0.00856648 9.70299 0)
(0.00477008 9.41669 0)
(0.00121247 9.00045 0)
(5.63324e-05 8.3767 0)
(0.0111598 10.0041 0)
(0.0148848 10.0162 0)
(0.0185075 10.0258 0)
(0.0197953 10.0345 0)
(0.0196644 10.0396 0)
(0.0187134 10.0396 0)
(0.0171482 10.0319 0)
(0.0151042 10.0103 0)
(0.0126071 9.96285 0)
(0.00961737 9.86679 0)
(0.00611215 9.68864 0)
(0.00272076 9.40031 0)
(-1.54793e-05 8.99083 0)
(-0.000614388 8.38301 0)
(0.00927051 10.0034 0)
(0.0131861 10.014 0)
(0.0169187 10.0235 0)
(0.0185 10.0334 0)
(0.0185913 10.0412 0)
(0.0177875 10.0456 0)
(0.0163388 10.0453 0)
(0.0144253 10.0371 0)
(0.0121423 10.0146 0)
(0.00951281 9.96485 0)
(0.00653035 9.86476 0)
(0.00325716 9.68253 0)
(0.000396488 9.39502 0)
(-0.00137891 8.99416 0)
(-0.00140275 8.40195 0)
(0.00772507 10.0029 0)
(0.0116228 10.0119 0)
(0.0151318 10.0209 0)
(0.016909 10.0313 0)
(0.0171805 10.0409 0)
(0.0164816 10.0483 0)
(0.015078 10.053 0)
(0.0131865 10.0531 0)
(0.0109474 10.0453 0)
(0.00845241 10.0228 0)
(0.00574182 9.97199 0)
(0.00285596 9.8695 0)
(-6.27871e-05 9.68561 0)
(-0.00226174 9.40145 0)
(-0.00294187 9.01061 0)
(-0.00229274 8.43381 0)
(0.00641358 10.0024 0)
(0.0102304 10.0102 0)
(0.0133927 10.0184 0)
(0.0150525 10.0286 0)
(0.0154358 10.0392 0)
(0.0147993 10.0488 0)
(0.0133838 10.0569 0)
(0.0114302 10.0624 0)
(0.00911166 10.0638 0)
(0.00656679 10.0573 0)
(0.00390222 10.0358 0)
(0.00118874 9.98516 0)
(-0.00148184 9.882 0)
(-0.00388438 9.69874 0)
(-0.00526844 9.42012 0)
(-0.00469692 9.04042 0)
(-0.00328075 8.47866 0)
(0.00530918 10.002 0)
(0.00897397 10.0087 0)
(0.0118139 10.0162 0)
(0.013175 10.0257 0)
(0.0133745 10.0364 0)
(0.0127412 10.0475 0)
(0.0112594 10.058 0)
(0.00917063 10.0674 0)
(0.00667347 10.0747 0)
(0.00393966 10.0781 0)
(0.00112378 10.074 0)
(-0.00164099 10.0545 0)
(-0.00424903 10.0053 0)
(-0.00655728 9.90319 0)
(-0.00826485 9.72273 0)
(-0.00865127 9.45147 0)
(-0.00664908 9.08369 0)
(-0.00436169 8.53654 0)
(0.00438518 10.0016 0)
(0.00784163 10.0074 0)
(0.010356 10.0143 0)
(0.0114362 10.0231 0)
(0.0112588 10.0333 0)
(0.0103169 10.0448 0)
(0.0087049 10.0571 0)
(0.0064083 10.0691 0)
(0.00364144 10.0805 0)
(0.000602044 10.0904 0)
(-0.00252015 10.0969 0)
(-0.00554432 10.096 0)
(-0.00830586 10.0797 0)
(-0.010664 10.0333 0)
(-0.0124275 9.93392 0)
(-0.0132339 9.75818 0)
(-0.0124272 9.49578 0)
(-0.00880344 9.14051 0)
(-0.00553404 8.60732 0)
(0.00361116 10.0013 0)
(0.00682178 10.0062 0)
(0.0090133 10.0126 0)
(0.00980361 10.0206 0)
(0.00928479 10.0303 0)
(0.00782433 10.0415 0)
(0.00572837 10.0545 0)
(0.00314291 10.0685 0)
(1.1755e-05 10.0828 0)
(-0.00344534 10.0971 0)
(-0.00700953 10.1104 0)
(-0.0104635 10.1209 0)
(-0.0135951 10.1242 0)
(-0.0162097 10.1123 0)
(-0.0181313 10.0699 0)
(-0.0191303 9.97491 0)
(-0.0188049 9.8056 0)
(-0.016595 9.55323 0)
(-0.0111483 9.21066 0)
(-0.00678497 8.69065 0)
(0.00297838 10.001 0)
(0.0059102 10.0052 0)
(0.00778163 10.011 0)
(0.00828438 10.0184 0)
(0.00742392 10.0274 0)
(0.0054969 10.0381 0)
(0.00268599 10.0509 0)
(-0.00061552 10.0658 0)
(-0.00421709 10.0823 0)
(-0.00821245 10.0997 0)
(-0.0123547 10.1178 0)
(-0.0163939 10.1355 0)
(-0.0200804 10.1509 0)
(-0.0231729 10.1595 0)
(-0.0254485 10.1529 0)
(-0.0267033 10.1159 0)
(-0.0266841 10.0268 0)
(-0.0249735 9.86527 0)
(-0.0211414 9.62375 0)
(-0.0136754 9.29396 0)
(-0.0081076 8.78612 0)
(0.00247772 10.0008 0)
(0.00508738 10.0044 0)
(0.00665849 10.0096 0)
(0.00688226 10.0164 0)
(0.00569324 10.0247 0)
(0.00330605 10.0347 0)
(-0.000144442 10.047 0)
(-0.00442465 10.0618 0)
(-0.00903097 10.0794 0)
(-0.0137027 10.0992 0)
(-0.018574 10.1206 0)
(-0.023361 10.1433 0)
(-0.0277778 10.1664 0)
(-0.0315452 10.1877 0)
(-0.0343963 10.2026 0)
(-0.0360895 10.2025 0)
(-0.0364041 10.1719 0)
(-0.0350829 10.0898 0)
(-0.0317174 9.93732 0)
(-0.0260377 9.70716 0)
(-0.0163539 9.38978 0)
(-0.00947854 8.8929 0)
(0.00209307 10.0007 0)
(0.00438373 10.0037 0)
(0.0056367 10.0084 0)
(0.00559881 10.0145 0)
(0.00410237 10.0221 0)
(0.00127834 10.0315 0)
(-0.0027965 10.043 0)
(-0.00794812 10.0573 0)
(-0.0138694 10.0748 0)
(-0.0198969 10.0958 0)
(-0.0256744 10.1198 0)
(-0.0313948 10.1462 0)
(-0.0367327 10.1746 0)
(-0.0413699 10.2039 0)
(-0.0450028 10.2321 0)
(-0.047351 10.2542 0)
(-0.0481655 10.2614 0)
(-0.0472266 10.2383 0)
(-0.0442945 10.1644 0)
(-0.0389923 10.0216 0)
(-0.0312402 9.80299 0)
(-0.0191633 9.49755 0)
(-0.010879 9.01028 0)
(0.00179659 10.0006 0)
(0.00381283 10.0032 0)
(0.00475479 10.0074 0)
(0.00443429 10.0129 0)
(0.00265719 10.0198 0)
(-0.000569971 10.0283 0)
(-0.00523407 10.039 0)
(-0.0112302 10.0526 0)
(-0.0183188 10.0695 0)
(-0.0260791 10.0905 0)
(-0.0336301 10.1158 0)
(-0.0405072 10.145 0)
(-0.0469908 10.1772 0)
(-0.052718 10.2122 0)
(-0.0573452 10.2488 0)
(-0.0605598 10.2846 0)
(-0.0620805 10.3147 0)
(-0.0616701 10.3301 0)
(-0.0591278 10.3154 0)
(-0.0542574 10.2503 0)
(-0.0467328 10.1178 0)
(-0.0366956 9.91061 0)
(-0.0220384 9.61625 0)
(-0.0122438 9.13666 0)
(0.00156387 10.0005 0)
(0.00334799 10.0028 0)
(0.00403236 10.0065 0)
(0.0034343 10.0114 0)
(0.00136181 10.0175 0)
(-0.002228 10.0253 0)
(-0.00743321 10.0351 0)
(-0.0142244 10.0477 0)
(-0.0224395 10.0638 0)
(-0.0317349 10.0842 0)
(-0.0415272 10.1094 0)
(-0.0506658 10.14 0)
(-0.0585719 10.1753 0)
(-0.0656559 10.2144 0)
(-0.071527 10.2569 0)
(-0.0758351 10.3015 0)
(-0.078273 10.3458 0)
(-0.0785804 10.3847 0)
(-0.0765517 10.4089 0)
(-0.0720303 10.4031 0)
(-0.0648825 10.3475 0)
(-0.0548545 10.2253 0)
(-0.0422874 10.0291 0)
(-0.0248639 9.74458 0)
(-0.0132753 9.27017 0)
(0.00137867 10.0005 0)
(0.00296696 10.0025 0)
(0.00344206 10.0059 0)
(0.00262215 10.0102 0)
(0.000267847 10.0156 0)
(-0.00368811 10.0224 0)
(-0.00937715 10.0313 0)
(-0.016898 10.0428 0)
(-0.0261735 10.0578 0)
(-0.0369475 10.0772 0)
(-0.0487233 10.1017 0)
(-0.0607101 10.1322 0)
(-0.0714369 10.1691 0)
(-0.0802148 10.2115 0)
(-0.0876415 10.2584 0)
(-0.0933206 10.3093 0)
(-0.0969127 10.3628 0)
(-0.0981417 10.4163 0)
(-0.0967924 10.4644 0)
(-0.0927181 10.4978 0)
(-0.0858184 10.5013 0)
(-0.0760519 10.4553 0)
(-0.0632104 10.3434 0)
(-0.0479683 10.1574 0)
(-0.0278295 9.88204 0)
(-0.0156041 9.41086 0)
(0.00122944 10.0004 0)
(0.00265231 10.0022 0)
(0.00295816 10.0053 0)
(0.00196762 10.0092 0)
(-0.000602289 10.0139 0)
(-0.0048914 10.0198 0)
(-0.0110539 10.0276 0)
(-0.019227 10.038 0)
(-0.0294775 10.0517 0)
(-0.041645 10.0697 0)
(-0.0553309 10.0932 0)
(-0.0698376 10.1229 0)
(-0.0841244 10.1595 0)
(-0.0963512 10.2038 0)
(-0.105736 10.2543 0)
(-0.113143 10.31 0)
(-0.118193 10.3701 0)
(-0.120586 10.4331 0)
(-0.120106 10.4961 0)
(-0.116609 10.5538 0)
(-0.110025 10.5967 0)
(-0.10034 10.6097 0)
(-0.0875809 10.5733 0)
(-0.0716579 10.4711 0)
(-0.0529787 10.2946 0)
(-0.0246806 10.0223 0)
(-0.0115231 9.49636 0)
(0.00110775 10.0004 0)
(0.00239098 10.002 0)
(0.00256068 10.0049 0)
(0.00143875 10.0083 0)
(-0.00128621 10.0125 0)
(-0.00581915 10.0176 0)
(-0.0123955 10.0242 0)
(-0.0211939 10.0332 0)
(-0.0323183 10.0456 0)
(-0.045771 10.0621 0)
(-0.0612612 10.084 0)
(-0.0781977 10.1123 0)
(-0.0956347 10.1481 0)
(-0.112241 10.192 0)
(-0.125765 10.2447 0)
(-0.135375 10.3044 0)
(-0.142286 10.3697 0)
(-0.146165 10.4396 0)
(-0.146789 10.5125 0)
(-0.144034 10.5855 0)
(-0.137856 10.6529 0)
(-0.128287 10.7053 0)
(-0.115371 10.7275 0)
(-0.099282 10.7003 0)
(-0.0796846 10.6072 0)
(-0.0569786 10.4376 0)
(-0.0201787 10.194 0)
(-0.00295216 9.56218 0)
(0.00100737 10.0003 0)
(0.0021731 10.0018 0)
(0.00222856 10.0045 0)
(0.00101111 10.0076 0)
(-0.00182207 10.0112 0)
(-0.00652086 10.0156 0)
(-0.0133897 10.0212 0)
(-0.0227187 10.0288 0)
(-0.0346714 10.0394 0)
(-0.0492814 10.0543 0)
(-0.0664421 10.0743 0)
(-0.0856811 10.1009 0)
(-0.106163 10.1352 0)
(-0.126646 10.1782 0)
(-0.145479 10.2304 0)
(-0.159975 10.2925 0)
(-0.169294 10.3623 0)
(-0.1751 10.4379 0)
(-0.177162 10.5182 0)
(-0.175372 10.6014 0)
(-0.169729 10.6843 0)
(-0.160312 10.7614 0)
(-0.147239 10.823 0)
(-0.13067 10.8542 0)
(-0.110614 10.8355 0)
(-0.0864776 10.7507 0)
(-0.0601877 10.5946 0)
(-0.0215932 10.3673 0)
(0.00235287 9.61958 0)
(0.000923755 10.0003 0)
(0.00199085 10.0017 0)
(0.00195281 10.0041 0)
(0.000667347 10.007 0)
(-0.00224063 10.0102 0)
(-0.00704499 10.0139 0)
(-0.014103 10.0186 0)
(-0.0237985 10.0248 0)
(-0.0364408 10.0336 0)
(-0.0521421 10.0464 0)
(-0.0708156 10.0644 0)
(-0.0921964 10.0889 0)
(-0.115576 10.1211 0)
(-0.139821 10.1624 0)
(-0.163359 10.2136 0)
(-0.184197 10.2753 0)
(-0.199178 10.3478 0)
(-0.207535 10.4285 0)
(-0.211513 10.515 0)
(-0.211026 10.6059 0)
(-0.206117 10.6995 0)
(-0.196938 10.7923 0)
(-0.183684 10.8788 0)
(-0.166598 10.9492 0)
(-0.145743 10.9886 0)
(-0.120965 10.9783 0)
(-0.0920659 10.9025 0)
(-0.0622442 10.7644 0)
(-0.0244148 10.5372 0)
(0.00320099 9.67654 0)
(0.00085353 10.0003 0)
(0.00183764 10.0016 0)
(0.00172421 10.0038 0)
(0.000386966 10.0064 0)
(-0.0025663 10.0093 0)
(-0.00743065 10.0125 0)
(-0.0145985 10.0163 0)
(-0.0245228 10.0213 0)
(-0.0376358 10.0284 0)
(-0.0542362 10.0389 0)
(-0.0743355 10.0544 0)
(-0.0976679 10.0764 0)
(-0.123757 10.1061 0)
(-0.151598 10.1451 0)
(-0.179719 10.1944 0)
(-0.206185 10.2551 0)
(-0.228635 10.3272 0)
(-0.243458 10.4111 0)
(-0.250046 10.5034 0)
(-0.251365 10.6011 0)
(-0.247518 10.7029 0)
(-0.238739 10.8067 0)
(-0.225331 10.9092 0)
(-0.207639 11.0045 0)
(-0.185899 11.0831 0)
(-0.160078 11.1305 0)
(-0.130699 11.1283 0)
(-0.0974991 11.0625 0)
(-0.0640469 10.9414 0)
(-0.0270823 10.7027 0)
(0.00271647 9.75002 0)
(0.000794145 10.0003 0)
(0.00170809 10.0015 0)
(0.00153455 10.0036 0)
(0.000157079 10.006 0)
(-0.00281957 10.0085 0)
(-0.00770911 10.0112 0)
(-0.0149268 10.0143 0)
(-0.0249748 10.0182 0)
(-0.0383764 10.0238 0)
(-0.0555876 10.0321 0)
(-0.0768567 10.0447 0)
(-0.102034 10.0637 0)
(-0.130608 10.0905 0)
(-0.161833 10.1266 0)
(-0.19436 10.1733 0)
(-0.226335 10.232 0)
(-0.255423 10.3031 0)
(-0.278927 10.3868 0)
(-0.292782 10.4828 0)
(-0.296665 10.5872 0)
(-0.294395 10.6965 0)
(-0.286315 10.809 0)
(-0.272866 10.9228 0)
(-0.254534 11.0342 0)
(-0.231732 11.1378 0)
(-0.204684 11.2241 0)
(-0.173855 11.2792 0)
(-0.140449 11.2847 0)
(-0.103647 11.2295 0)
(-0.0667124 11.1207 0)
(-0.0299345 10.8828 0)
(0.00158354 9.83476 0)
(0.000743607 10.0002 0)
(0.00159796 10.0014 0)
(0.00137505 10.0034 0)
(-3.2067e-05 10.0056 0)
(-0.00301611 10.0078 0)
(-0.00790517 10.0101 0)
(-0.0151283 10.0125 0)
(-0.0252209 10.0155 0)
(-0.0387721 10.0197 0)
(-0.0563559 10.0261 0)
(-0.0784209 10.0359 0)
(-0.105113 10.0513 0)
(-0.13605 10.0745 0)
(-0.170401 10.1073 0)
(-0.207101 10.1508 0)
(-0.244404 10.2066 0)
(-0.280029 10.2756 0)
(-0.311256 10.3584 0)
(-0.335075 10.4544 0)
(-0.346994 10.5632 0)
(-0.347108 10.6801 0)
(-0.34024 10.8008 0)
(-0.327008 10.9239 0)
(-0.308085 11.0471 0)
(-0.284101 11.167 0)
(-0.255541 11.2781 0)
(-0.223031 11.3718 0)
(-0.187521 11.4337 0)
(-0.15038 11.4463 0)
(-0.110521 11.4007 0)
(-0.0706097 11.3207 0)
(-0.0328779 11.0778 0)
(-0.000178038 9.92874 0)
(0.000700307 10.0002 0)
(0.00150387 10.0013 0)
(0.00124049 10.0032 0)
(-0.000186793 10.0052 0)
(-0.00316822 10.0072 0)
(-0.00803831 10.0091 0)
(-0.0152347 10.011 0)
(-0.0253138 10.0132 0)
(-0.0389102 10.0161 0)
(-0.0566844 10.0207 0)
(-0.0792369 10.0281 0)
(-0.106965 10.0401 0)
(-0.13985 10.0589 0)
(-0.177196 10.0873 0)
(-0.217784 10.127 0)
(-0.260168 10.1792 0)
(-0.302157 10.2452 0)
(-0.341043 10.3259 0)
(-0.373734 10.4213 0)
(-0.396937 10.5304 0)
(-0.4058 10.6525 0)
(-0.400985 10.7819 0)
(-0.388456 10.9139 0)
(-0.369139 11.047 0)
(-0.343935 11.179 0)
(-0.313624 11.3067 0)
(-0.279034 11.4249 0)
(-0.241249 11.525 0)
(-0.201288 11.5929 0)
(-0.16043 11.6112 0)
(-0.118326 11.5944 0)
(-0.0753617 11.5399 0)
(-0.0360514 11.2684 0)
(-0.00211635 10.0296 0)
(0.000663251 10.0002 0)
(0.00142292 10.0013 0)
(0.00112663 10.0031 0)
(-0.000314042 10.0049 0)
(-0.0032854 10.0067 0)
(-0.00812378 10.0083 0)
(-0.0152708 10.0097 0)
(-0.0252948 10.0111 0)
(-0.0388599 10.013 0)
(-0.0566877 10.016 0)
(-0.0794912 10.0211 0)
(-0.107862 10.03 0)
(-0.142093 10.0447 0)
(-0.181926 10.0678 0)
(-0.226269 10.1024 0)
(-0.273429 10.1503 0)
(-0.321535 10.2125 0)
(-0.36793 10.29 0)
(-0.409477 10.3834 0)
(-0.442742 10.4923 0)
(-0.464225 10.6151 0)
(-0.468785 10.7507 0)
(-0.457808 10.8926 0)
(-0.438536 11.0355 0)
(-0.412217 11.178 0)
(-0.37999 11.3181 0)
(-0.34296 11.4528 0)
(-0.302355 11.5772 0)
(-0.259443 11.6826 0)
(-0.215133 11.7548 0)
(-0.171491 11.7977 0)
(-0.126741 11.8092 0)
(-0.080507 11.7552 0)
(-0.0391474 11.4536 0)
(-0.00396986 10.1351 0)
(0.00135269 10.0012 0)
(0.000619314 10.0002 0)
(0.00102929 10.0029 0)
(-0.000418851 10.0046 0)
(-0.00337508 10.0062 0)
(-0.00817347 10.0075 0)
(-0.0152559 10.0085 0)
(-0.0251958 10.0093 0)
(-0.0386752 10.0102 0)
(-0.0564562 10.0118 0)
(-0.0793329 10.015 0)
(-0.108042 10.021 0)
(-0.14312 10.0319 0)
(-0.184691 10.0499 0)
(-0.232186 10.0782 0)
(-0.284007 10.1202 0)
(-0.337913 10.1777 0)
(-0.391585 10.2511 0)
(-0.441885 10.3414 0)
(-0.485265 10.4486 0)
(-0.518011 10.5716 0)
(-0.536512 10.7086 0)
(-0.535425 10.8578 0)
(-0.517021 11.0118 0)
(-0.489941 11.165 0)
(-0.455775 11.3161 0)
(-0.416001 11.4635 0)
(-0.372103 11.6043 0)
(-0.325504 11.7338 0)
(-0.277497 11.8429 0)
(-0.23037 11.9375 0)
(-0.183317 12.0051 0)
(-0.134923 12.0217 0)
(-0.0856281 11.9646 0)
(-0.0420405 11.633 0)
(-0.00573921 10.2434 0)
(0.000944042 10.0028 0)
(0.00127223 10.0012 0)
(0.000567023 10.0002 0)
(-0.000505921 10.0044 0)
(-0.00344288 10.0058 0)
(-0.00819638 10.0069 0)
(-0.0152049 10.0075 0)
(-0.0250416 10.0077 0)
(-0.0383976 10.0077 0)
(-0.0560603 10.0081 0)
(-0.0788795 10.0095 0)
(-0.107698 10.013 0)
(-0.143237 10.0204 0)
(-0.185923 10.0337 0)
(-0.23565 10.056 0)
(-0.291428 10.0906 0)
(-0.351062 10.1414 0)
(-0.411701 10.2097 0)
(-0.470555 10.2957 0)
(-0.524012 10.3999 0)
(-0.568168 10.5218 0)
(-0.599117 10.6597 0)
(-0.613247 10.811 0)
(-0.60511 10.9734 0)
(-0.578027 11.139 0)
(-0.542145 11.3018 0)
(-0.499454 11.4607 0)
(-0.451815 11.6144 0)
(-0.400947 11.7602 0)
(-0.348312 11.893 0)
(-0.297189 12.0235 0)
(-0.246541 12.1402 0)
(-0.19464 12.2109 0)
(-0.142642 12.2295 0)
(-0.0904956 12.1669 0)
(-0.0446475 11.8063 0)
(-0.00735706 10.3526 0)
(-0.000583355 10.0042 0)
(0.000855325 10.0027 0)
(0.00117454 10.0011 0)
(0.000517287 10.0002 1.87646e-19)
(-0.00349406 10.0055 0)
(-0.00819905 10.0063 0)
(-0.0151289 10.0066 0)
(-0.0248513 10.0063 0)
(-0.0380592 10.0056 0)
(-0.0555544 10.0048 0)
(-0.0782226 10.0046 0)
(-0.106981 10.0059 0)
(-0.142689 10.0102 0)
(-0.186006 10.0193 0)
(-0.237194 10.0359 0)
(-0.295818 10.0633 0)
(-0.360379 10.1054 0)
(-0.427985 10.1663 0)
(-0.49511 10.2469 0)
(-0.558503 10.3469 0)
(-0.614122 10.466 0)
(-0.657783 10.6033 0)
(-0.685497 10.7564 0)
(-0.693774 10.922 0)
(-0.677172 11.0974 0)
(-0.640216 11.2738 0)
(-0.594678 11.4452 0)
(-0.542965 11.6108 0)
(-0.487218 11.7696 0)
(-0.429267 11.9188 0)
(-0.373106 12.0726 0)
(-0.318003 12.224 0)
(-0.261793 12.3414 0)
(-0.205247 12.4129 0)
(-0.149749 12.4311 0)
(-0.0949966 12.3616 0)
(-0.0469422 11.9728 0)
(-0.00879534 10.4611 0)
(-0.00354174 10.0052 0)
(-0.00064595 10.004 0)
(0.000756085 10.0025 8.38145e-19)
(0.00108104 10.001 -5.94583e-19)
(0.000469958 10.0002 -3.74246e-19)
(-0.00818724 10.0058 0)
(-0.0150356 10.0058 0)
(-0.0246387 10.005 0)
(-0.0376844 10.0037 0)
(-0.0549799 10.002 0)
(-0.0774325 10.0003 0)
(-0.10601 9.99965 0)
(-0.141669 10.0011 0)
(-0.185248 10.0063 0)
(-0.237296 10.0178 0)
(-0.297825 10.0385 0)
(-0.365984 10.0722 0)
(-0.439672 10.1232 0)
(-0.515182 10.1956 0)
(-0.588282 10.29 0)
(-0.655309 10.4051 0)
(-0.711851 10.5402 0)
(-0.753549 10.6935 0)
(-0.776462 10.862 0)
(-0.777359 11.0415 0)
(-0.75091 11.2291 0)
(-0.703006 11.4154 0)
(-0.647115 11.5943 0)
(-0.585982 11.7655 0)
(-0.521917 11.9278 0)
(-0.459974 12.0978 0)
(-0.399297 12.272 0)
(-0.337531 12.423 0)
(-0.275934 12.5391 0)
(-0.214979 12.6093 0)
(-0.156178 12.6254 0)
(-0.0990711 12.548 0)
(-0.0489336 12.1323 0)
(-0.0100486 10.5675 0)
(-0.00818146 10.0054 0)
(-0.00354169 10.0048 -1.79115e-18)
(-0.000696595 10.0037 -8.84103e-19)
(0.000662604 10.0023 4.18154e-19)
(0.000991423 10.0009 -3.95196e-19)
(0.0004251 10.0001 0)
(-0.0149313 10.0051 0)
(-0.024413 10.0039 0)
(-0.037291 10.002 0)
(-0.0543683 9.99941 0)
(-0.076563 9.99656 0)
(-0.104874 9.99408 0)
(-0.14033 9.993 0)
(-0.183894 9.99483 0)
(-0.23634 10.0016 0)
(-0.298034 10.0162 0)
(-0.368658 10.042 0)
(-0.446861 10.0832 0)
(-0.529807 10.1444 0)
(-0.612894 10.2299 0)
(-0.691181 10.3395 0)
(-0.760665 10.471 0)
(-0.816661 10.6228 0)
(-0.854762 10.7924 0)
(-0.87122 10.976 0)
(-0.863206 11.169 0)
(-0.825619 11.3679 0)
(-0.765834 11.5631 0)
(-0.699017 11.7483 0)
(-0.628141 11.9234 0)
(-0.559497 12.1066 0)
(-0.49238 12.2969 0)
(-0.423818 12.4701 0)
(-0.355589 12.6184 0)
(-0.288815 12.7315 0)
(-0.223767 12.7993 0)
(-0.161903 12.8118 0)
(-0.102694 12.7257 0)
(-0.0506426 12.2843 0)
(-0.0111236 10.6709 0)
(-0.0148469 10.0044 0)
(-0.00807879 10.0048 3.77743e-18)
(-0.00348197 10.0044 0)
(-0.000743003 10.0034 8.81834e-19)
(0.000575598 10.0021 1.37624e-22)
(0.000905623 10.0009 0)
(0.000382737 10.0001 0)
(-0.0241808 10.003 0)
(-0.03689 10.0005 0)
(-0.0537424 9.99716 0)
(-0.0756546 9.9932 0)
(-0.103645 9.98915 0)
(-0.138786 9.98585 0)
(-0.182136 9.98459 0)
(-0.234633 9.9872 0)
(-0.29692 9.99616 0)
(-0.369108 10.0147 0)
(-0.450473 10.0467 0)
(-0.539032 10.0968 0)
(-0.631124 10.1698 0)
(-0.721179 10.2699 0)
(-0.803576 10.3961 0)
(-0.874079 10.5449 0)
(-0.927856 10.714 0)
(-0.960603 10.9 0)
(-0.968913 11.0984 0)
(-0.950499 11.304 0)
(-0.900589 11.5132 0)
(-0.828137 11.7158 0)
(-0.749924 11.9057 0)
(-0.673802 12.1021 0)
(-0.599172 12.3057 0)
(-0.522684 12.4948 0)
(-0.446463 12.6648 0)
(-0.372032 12.8089 0)
(-0.300392 12.9178 0)
(-0.231588 12.9818 0)
(-0.16693 12.9898 0)
(-0.105867 12.8946 0)
(-0.0520945 12.4287 0)
(-0.0120341 10.7705 0)
(-0.0239881 10.0021 0)
(-0.0145944 10.0037 4.92298e-22)
(-0.00783801 10.0042 0)
(-0.00342184 10.0039 -9.29823e-19)
(-0.000779612 10.0031 8.51026e-23)
(0.00049494 10.002 0)
(0.000823765 10.0008 0)
(0.000342873 10.0001 0)
(-0.036488 9.99919 0)
(-0.0531155 9.99517 0)
(-0.0747367 9.99024 0)
(-0.102373 9.98478 0)
(-0.137127 9.97951 0)
(-0.18012 9.9755 0)
(-0.232414 9.97435 0)
(-0.294861 9.97826 0)
(-0.367912 9.99014 0)
(-0.451356 10.0136 0)
(-0.543933 10.0532 0)
(-0.642939 10.1136 0)
(-0.743794 10.2 0)
(-0.839907 10.3163 0)
(-0.925042 10.4603 0)
(-0.994884 10.6272 0)
(-1.0446 10.8139 0)
(-1.07016 11.0162 0)
(-1.06864 11.2287 0)
(-1.03841 11.4459 0)
(-0.97513 11.664 0)
(-0.889336 11.8724 0)
(-0.805102 12.0842 0)
(-0.722042 12.3015 0)
(-0.636281 12.504 0)
(-0.550661 12.6896 0)
(-0.467091 12.8547 0)
(-0.386817 12.9934 0)
(-0.310674 13.0971 0)
(-0.238468 13.1564 0)
(-0.171291 13.159 0)
(-0.108609 13.0545 0)
(-0.0533148 12.5653 0)
(-0.0127967 10.8658 0)
(-0.0361524 9.99802 0)
(-0.0235276 10.0011 -2.09875e-18)
(-0.0140847 10.0029 0)
(-0.00760451 10.0036 0)
(-0.00334704 10.0035 2.78112e-18)
(-0.000806601 10.0028 0)
(0.00042067 10.0018 0)
(0.000745957 10.0007 7.81497e-19)
(0.000305538 10.0001 0)
(-0.0524945 9.99341 0)
(-0.0738256 9.98761 0)
(-0.101096 9.98092 0)
(-0.135419 9.97389 0)
(-0.17796 9.96743 0)
(-0.229868 9.96292 0)
(-0.292154 9.96229 0)
(-0.365534 9.96816 0)
(-0.450205 9.98388 0)
(-0.545512 10.0136 0)
(-0.649572 10.062 0)
(-0.758859 10.1344 0)
(-0.867795 10.2358 0)
(-0.968744 10.3697 0)
(-1.05497 10.5326 0)
(-1.12225 10.7182 0)
(-1.16595 10.9226 0)
(-1.18244 11.1406 0)
(-1.16946 11.3663 0)
(-1.12615 11.5939 0)
(-1.04855 11.8192 0)
(-0.95577 12.0506 0)
(-0.863458 12.2839 0)
(-0.76719 12.5004 0)
(-0.670556 12.6995 0)
(-0.576163 12.8799 0)
(-0.485656 13.0388 0)
(-0.399966 13.1711 0)
(-0.319702 13.2688 0)
(-0.244453 13.3227 0)
(-0.175031 13.3193 0)
(-0.110951 13.2055 0)
(-0.0543301 12.6943 0)
(-0.0134299 10.9566 0)
(-0.0519757 9.99186 0)
(-0.0354115 9.99673 0)
(-0.0226368 10 -2.18414e-18)
(-0.0135956 10.0021 -2.06681e-18)
(-0.00734961 10.003 -3.90908e-18)
(-0.00325748 10.0031 0)
(-0.000823975 10.0025 -1.74559e-18)
(0.000352942 10.0017 -1.64832e-18)
(0.000672215 10.0007 7.77785e-19)
(0.000270686 10.0001 0)
(-0.0729284 9.98529 0)
(-0.0998346 9.9775 0)
(-0.13371 9.96891 0)
(-0.175739 9.96028 0)
(-0.227137 9.95277 0)
(-0.289032 9.94808 0)
(-0.362338 9.94853 0)
(-0.447581 9.95717 0)
(-0.544594 9.97782 0)
(-0.652193 10.015 0)
(-0.767772 10.074 0)
(-0.886887 10.1599 0)
(-1.0029 10.2779 0)
(-1.10716 10.4307 0)
(-1.19257 10.6134 0)
(-1.25523 10.8181 0)
(-1.29086 11.0398 0)
(-1.29644 11.2728 0)
(-1.27047 11.5107 0)
(-1.21288 11.747 0)
(-1.12852 11.9964 0)
(-1.0262 12.2505 0)
(-0.918136 12.4836 0)
(-0.808921 12.6968 0)
(-0.701833 12.8906 0)
(-0.599143 13.0645 0)
(-0.502183 13.2163 0)
(-0.411536 13.3414 0)
(-0.327548 13.4324 0)
(-0.249605 13.4804 0)
(-0.178202 13.4707 0)
(-0.112929 13.3477 0)
(-0.0551659 12.8157 0)
(-0.0139507 11.0425 0)
(-0.0721803 9.98323 0)
(-0.0508664 9.99016 -2.33371e-18)
(-0.0339976 9.99531 2.30059e-18)
(-0.0217888 9.99897 -1.17704e-21)
(-0.013076 10.0013 2.05981e-18)
(-0.00707319 10.0025 1.94773e-18)
(-0.00315367 10.0027 3.68051e-18)
(-0.000831598 10.0023 2.60683e-18)
(0.00029173 10.0015 -8.20227e-19)
(0.000602581 10.0006 0)
(0.000238302 10.0001 0)
(-0.0985961 9.97446 0)
(-0.132025 9.9645 0)
(-0.173521 9.95393 0)
(-0.224329 9.94376 0)
(-0.285669 9.93544 0)
(-0.35861 9.93103 0)
(-0.443928 9.93327 0)
(-0.541852 9.94567 0)
(-0.651774 9.97251 0)
(-0.771879 10.0188 0)
(-0.89874 10.0898 0)
(-1.02692 10.1911 0)
(-1.1487 10.3271 0)
(-1.25444 10.5 0)
(-1.3369 10.7031 0)
(-1.39276 10.9269 0)
(-1.41825 11.1655 0)
(-1.41111 11.4125 0)
(-1.3707 11.6608 0)
(-1.3077 11.9227 0)
(-1.2136 12.1963 0)
(-1.09239 12.4511 0)
(-0.96877 12.6813 0)
(-0.847033 12.8893 0)
(-0.73005 13.0763 0)
(-0.619635 13.2426 0)
(-0.516748 13.3866 0)
(-0.421619 13.5039 0)
(-0.334301 13.5879 0)
(-0.253994 13.6295 0)
(-0.180859 13.6134 0)
(-0.11458 13.4813 0)
(-0.055846 12.9296 0)
(-0.0143753 11.1237 0)
(-0.0975677 9.97178 0)
(-0.0705964 9.98103 -3.46709e-21)
(-0.0487531 9.98834 0)
(-0.0326613 9.99394 -1.89037e-21)
(-0.0208982 9.99795 0)
(-0.0125255 10.0005 -2.05242e-18)
(-0.00677609 10.0019 -3.87953e-18)
(-0.00303544 10.0023 8.93831e-23)
(-0.000829649 10.0021 1.72937e-18)
(0.000236737 10.0014 -8.15852e-19)
(0.000537045 10.0005 7.69357e-19)
(0.000208353 10.0001 0)
(-0.130373 9.96058 0)
(-0.171334 9.94831 0)
(-0.221522 9.93576 0)
(-0.282203 9.92421 0)
(-0.354569 9.91545 0)
(-0.439594 9.91192 0)
(-0.53782 9.91684 0)
(-0.649108 9.93416 0)
(-0.772311 9.96862 0)
(-0.904886 10.0255 0)
(-1.04249 10.1104 0)
(-1.17864 10.2286 0)
(-1.30454 10.3841 0)
(-1.40969 10.5781 0)
(-1.48691 10.8019 0)
(-1.5337 11.0444 0)
(-1.54701 11.2991 0)
(-1.52543 11.5586 0)
(-1.48075 11.8341 0)
(-1.409 12.1218 0)
(-1.29385 12.3978 0)
(-1.15388 12.6504 0)
(-1.01514 12.8755 0)
(-0.88147 13.0765 0)
(-0.755243 13.2557 0)
(-0.63773 13.4137 0)
(-0.529465 13.5492 0)
(-0.430326 13.6584 0)
(-0.340059 13.7351 0)
(-0.257697 13.7701 0)
(-0.183062 13.7475 0)
(-0.115942 13.6066 0)
(-0.0563922 13.0365 0)
(-0.0147181 11.2 0)
(-0.129009 9.95711 0)
(-0.0953818 9.96895 2.5882e-18)
(-0.0675666 9.97871 -2.5576e-18)
(-0.0467679 9.98658 2.41742e-18)
(-0.0312666 9.99262 0)
(-0.0199639 9.99697 0)
(-0.0119458 9.99982 2.04401e-18)
(-0.00645884 10.0014 -1.93075e-18)
(-0.0029029 10.002 1.19452e-22)
(-0.000817727 10.0018 8.60171e-19)
(0.000188069 10.0013 -8.11265e-19)
(0.000475529 10.0005 -7.63954e-19)
(0.000180969 10.0001 0)
(-0.16919 9.94331 0)
(-0.218752 9.92867 0)
(-0.27873 9.91423 0)
(-0.350385 9.90158 0)
(-0.434851 9.89289 0)
(-0.532921 9.89105 0)
(-0.644834 9.8997 0)
(-0.769997 9.9233 0)
(-0.906625 9.96697 0)
(-1.05134 10.0363 0)
(-1.19883 10.1368 0)
(-1.34154 10.2734 0)
(-1.46965 10.4497 0)
(-1.57189 10.6654 0)
(-1.64144 10.9099 0)
(-1.67688 11.1707 0)
(-1.676 11.44 0)
(-1.65157 11.7284 0)
(-1.5989 12.0318 0)
(-1.50498 12.3239 0)
(-1.36867 12.599 0)
(-1.21037 12.8468 0)
(-1.05718 13.0649 0)
(-0.91229 13.2577 0)
(-0.777519 13.4281 0)
(-0.65356 13.5771 0)
(-0.540468 13.7038 0)
(-0.437776 13.8048 0)
(-0.344924 13.874 0)
(-0.260789 13.9024 0)
(-0.184866 13.8733 0)
(-0.117051 13.7239 0)
(-0.0568251 13.1364 0)
(-0.014992 11.2716 0)
(-0.167432 9.93889 0)
(-0.126071 9.95351 0)
(-0.0911718 9.96602 2.69012e-18)
(-0.0647354 9.97649 -5.10207e-18)
(-0.0447039 9.9849 4.82558e-18)
(-0.0298118 9.99136 -4.56194e-18)
(-0.0189895 9.99604 0)
(-0.011338 9.99914 2.03547e-18)
(-0.00612171 10.0009 -1.92111e-18)
(-0.00275739 10.0016 -1.81336e-18)
(-0.000795178 10.0016 0)
(0.000145439 10.0011 8.05543e-19)
(0.000418162 10.0004 0)
(0.000156653 10 0)
(-0.216035 9.92236 0)
(-0.275296 9.90537 0)
(-0.346178 9.88925 0)
(-0.429907 9.87594 0)
(-0.527485 9.86802 0)
(-0.63946 9.86882 0)
(-0.765691 9.88249 0)
(-0.905031 9.91388 0)
(-1.05496 9.96846 0)
(-1.21119 10.0519 0)
(-1.36738 10.1697 0)
(-1.51493 10.3263 0)
(-1.64305 10.5243 0)
(-1.7399 10.7621 0)
(-1.79929 11.0272 0)
(-1.8211 11.305 0)
(-1.81911 11.6051 0)
(-1.78774 11.9236 0)
(-1.71145 12.2338 0)
(-1.59489 12.5267 0)
(-1.43765 12.7979 0)
(-1.26172 13.0389 0)
(-1.0949 13.2485 0)
(-0.939624 13.4321 0)
(-0.797037 13.593 0)
(-0.667285 13.7327 0)
(-0.549907 13.8504 0)
(-0.444096 13.9431 0)
(-0.348996 14.0048 0)
(-0.263344 14.0266 0)
(-0.186324 13.9911 0)
(-0.117941 13.8336 0)
(-0.0571625 13.2297 0)
(-0.0152071 11.3387 0)
(-0.213823 9.91677 0)
(-0.163572 9.93434 0)
(-0.120368 9.94984 0)
(-0.0872599 9.96322 5.36584e-18)
(-0.0618016 9.97437 -5.07793e-18)
(-0.0425603 9.98331 4.80193e-18)
(-0.0283039 9.99018 0)
(-0.0179768 9.99516 -2.14382e-18)
(-0.0107025 9.99849 0)
(-0.00576551 10.0005 1.91073e-18)
(-0.00259773 10.0013 0)
(-0.00076361 10.0014 0)
(0.000110045 10.001 0)
(0.000366215 10.0004 7.78759e-19)
(0.000135438 10 3.75111e-19)
(-0.271923 9.89749 0)
(-0.342003 9.87829 0)
(-0.424912 9.86084 0)
(-0.521767 9.84747 0)
(-0.633383 9.8412 0)
(-0.759995 9.84583 0)
(-0.900987 9.86596 0)
(-1.05456 9.90682 0)
(-1.21736 9.97413 0)
(-1.38415 10.0736 0)
(-1.54755 10.2103 0)
(-1.69793 10.3881 0)
(-1.82367 10.6085 0)
(-1.91253 10.8687 0)
(-1.95922 11.1533 0)
(-1.98208 11.4639 0)
(-1.97459 11.7967 0)
(-1.91829 12.1248 0)
(-1.81751 12.4378 0)
(-1.67823 12.7284 0)
(-1.50059 12.9934 0)
(-1.30794 13.2257 0)
(-1.12845 13.4257 0)
(-0.963661 13.5992 0)
(-0.814005 13.7502 0)
(-0.679084 13.8803 0)
(-0.557936 13.989 0)
(-0.449407 14.0734 0)
(-0.35237 14.1277 0)
(-0.265431 14.143 0)
(-0.187484 14.1013 0)
(-0.118642 13.9361 0)
(-0.0574197 13.3168 0)
(-0.0153717 11.4014 0)
(-0.269205 9.8905 0)
(-0.208849 9.91108 0)
(-0.156013 9.92977 5.98454e-18)
(-0.115098 9.94636 5.66652e-18)
(-0.0832145 9.96058 5.36033e-18)
(-0.0587645 9.97238 -5.0675e-18)
(-0.0403473 9.98182 0)
(-0.0267447 9.98906 0)
(-0.0169268 9.99433 0)
(-0.0100407 9.99789 4.02852e-18)
(-0.00539233 10 1.89994e-18)
(-0.00242435 10.001 1.78984e-18)
(-0.000723041 10.0012 0)
(8.11566e-05 10.0009 -8.2108e-19)
(0.00031952 10.0004 -3.96199e-19)
(0.000116847 10 0)
(-0.337898 9.86854 0)
(-0.419932 9.84741 0)
(-0.515953 9.82916 0)
(-0.626916 9.81652 0)
(-0.753386 9.81298 0)
(-0.8952 9.82281 0)
(-1.05117 9.85102 0)
(-1.21875 9.90316 0)
(-1.3937 9.98505 0)
(-1.56978 10.1023 0)
(-1.73858 10.2594 0)
(-1.88954 10.4595 0)
(-2.01037 10.7029 0)
(-2.08855 10.9847 0)
(-2.13896 11.3042 0)
(-2.15825 11.6503 0)
(-2.12477 11.996 0)
(-2.04219 12.3296 0)
(-1.91648 12.6422 0)
(-1.75475 12.9278 0)
(-1.55751 13.1843 0)
(-1.34916 13.4064 0)
(-1.15804 13.5957 0)
(-0.984626 13.7586 0)
(-0.828645 13.8994 0)
(-0.689145 14.0199 0)
(-0.564707 14.1197 0)
(-0.453831 14.1959 0)
(-0.355137 14.243 0)
(-0.267114 14.2519 0)
(-0.188391 14.2042 0)
(-0.119184 14.0316 0)
(-0.0576079 13.398 0)
(-0.0154971 11.4599 0)
(-0.334625 9.85988 0)
(-0.262894 9.88342 0)
(-0.19901 9.90543 -1.25902e-17)
(-0.149056 9.92545 1.78208e-20)