/*--------------------------------*- C++ -*----------------------------------*\
  =========                 |
  \\      /  F ield         | OpenFOAM: The Open Source CFD Toolbox
   \\    /   O peration     | Website:  https://openfoam.org
    \\  /    A nd           | Version:  8
     \\/     M anipulation  |
\*---------------------------------------------------------------------------*/
FoamFile
{
    version     2.0;
    format      ascii;
    class       volScalarField;
    location    "1800";
    object      epsilon;
}
// * * * * * * * * * * * * * * * * * * * * * * * * * * * * * * * * * * * * * //

dimensions      [0 2 -3 0 0 0 0];

internalField   nonuniform List<scalar> 
15677
(
1181.43
450.326
85.7385
19.7959
7.21007
3.82787
2.64004
2.16165
1.97286
1.90447
1.87843
1.86721
1.86735
1.869
1.86964
1.86974
1.86972
1.8697
1.86969
1.86969
1.8697
1.8697
1.8697
1.8697
1.8697
1.8697
1.8697
1.8697
1.8697
1.8697
1.8697
1.8697
1.8697
1.8697
1.86971
1557.39
451.391
116.526
35.9035
14.299
7.17801
4.33695
3.03418
2.38266
2.0605
1.92145
1.868
1.84317
1.83737
1.83716
1.8375
1.83765
1.83767
1.83765
1.83762
1.83761
1.83759
1.83759
1.83758
1.83758
1.83758
1.83757
1.83757
1.83757
1.83757
1.83757
1.83757
1.83756
1.83756
1.83756
1454.46
387.936
104.729
37.2767
17.1089
9.17083
5.58268
3.79237
2.83773
2.31386
2.02988
1.89332
1.83763
1.81462
1.8089
1.80793
1.80791
1.80797
1.80798
1.80797
1.80795
1.80793
1.80792
1.80791
1.8079
1.8079
1.80789
1.80789
1.80788
1.80788
1.80788
1.80788
1.80788
1.80788
1.80788
1274.44
360.406
92.6055
35.2234
17.2832
9.91904
6.27399
4.30804
3.19107
2.53925
2.15982
1.9488
1.84526
1.80064
1.78605
1.78195
1.78096
1.78076
1.78072
1.78068
1.78065
1.78061
1.78058
1.78057
1.78055
1.78054
1.78053
1.78052
1.78051
1.78051
1.7805
1.7805
1.78049
1.78049
1.78049
1157.22
360.905
94.1306
33.6976
17.0555
10.1563
6.63552
4.63821
3.4471
2.71943
2.27435
2.00987
1.86357
1.79396
1.76779
1.75907
1.75639
1.75566
1.75546
1.75539
1.75534
1.7553
1.75527
1.75524
1.75522
1.75519
1.75518
1.75516
1.75515
1.75514
1.75513
1.75513
1.75512
1.75512
1.75512
1084.31
366.017
99.5712
33.9656
16.6831
10.1331
6.78637
4.83212
3.62287
2.85625
2.36906
2.06615
1.88818
1.79443
1.75489
1.73993
1.73461
1.73287
1.73233
1.73213
1.73202
1.73195
1.73189
1.73185
1.73181
1.73178
1.73176
1.73174
1.73172
1.73171
1.73169
1.73168
1.73167
1.73166
1.73165
1039.38
372.094
109.026
35.4234
16.7312
10.0826
6.83454
4.93647
3.73702
2.95544
2.44355
2.11399
1.91125
1.79655
1.74511
1.72369
1.71518
1.71205
1.71096
1.71057
1.71041
1.71031
1.71024
1.71018
1.71012
1.71008
1.71004
1.71001
1.70998
1.70996
1.70994
1.70992
1.70991
1.7099
1.70989
1009.14
373.239
119.396
38.4211
17.0357
10.0886
6.84971
4.99148
3.80958
3.02568
2.50047
2.15304
1.93181
1.8007
1.73799
1.71014
1.6982
1.69339
1.69155
1.69084
1.69052
1.69035
1.69023
1.69014
1.69007
1.69001
1.68996
1.68992
1.68989
1.68986
1.68983
1.68981
1.68979
1.68977
1.68975
988.264
371.973
129.326
42.3394
17.7172
10.1481
6.85561
5.01755
3.85334
3.07372
2.54268
2.18389
1.94921
1.80507
1.73257
1.69859
1.68309
1.67643
1.67372
1.67264
1.67218
1.67195
1.6718
1.67168
1.67158
1.6715
1.67142
1.67136
1.6713
1.67126
1.67122
1.67119
1.67117
1.67115
1.67114
971.843
368.059
137.316
46.58
18.7637
10.2996
6.8711
5.0297
3.8785
3.10553
2.57314
2.20756
1.9633
1.80897
1.72833
1.68893
1.67007
1.66151
1.65778
1.65617
1.65544
1.65507
1.65485
1.65468
1.65455
1.65444
1.65435
1.65427
1.65421
1.65415
1.65411
1.65407
1.65404
1.65401
1.65399
960.25
363.383
143.619
50.8405
19.9879
10.561
6.90686
5.03657
3.89126
3.12517
2.5942
2.22512
1.97432
1.81221
1.72482
1.68053
1.65845
1.648
1.64329
1.64122
1.64027
1.63981
1.63952
1.63931
1.63913
1.63898
1.63885
1.63873
1.63863
1.63856
1.6385
1.63846
1.63842
1.6384
1.63838
953.155
358.867
148.32
54.8078
21.2889
10.8684
6.96497
5.04412
3.89724
3.13632
2.608
2.23765
1.9826
1.81467
1.7219
1.67365
1.64884
1.63661
1.63079
1.62807
1.62677
1.6261
1.6257
1.62541
1.62519
1.625
1.62484
1.62471
1.6246
1.62451
1.62445
1.62439
1.62435
1.62432
1.62428
949.882
354.629
151.753
58.408
22.6336
11.2155
7.03821
5.05347
3.89769
3.14126
2.61622
2.24614
1.98867
1.81665
1.71966
1.66779
1.64034
1.62651
1.61983
1.61666
1.61513
1.61434
1.61386
1.6135
1.61321
1.61296
1.61274
1.61256
1.61241
1.61229
1.61221
1.61216
1.61212
1.6121
1.61209
950.355
351.312
153.947
61.4658
23.9144
11.5664
7.11691
5.06315
3.8961
3.14094
2.62025
2.25161
1.99307
1.8182
1.71789
1.66369
1.63439
1.61904
1.61127
1.60743
1.6055
1.60448
1.60386
1.60341
1.60305
1.60274
1.60249
1.60229
1.60214
1.60203
1.60196
1.60191
1.60188
1.60185
1.60183
953.001
348.766
155.335
64.0168
25.1237
11.9214
7.20047
5.07367
3.89247
3.13882
2.62078
2.25475
1.99639
1.81999
1.7178
1.66071
1.62939
1.61303
1.60474
1.60061
1.5985
1.59737
1.59667
1.59615
1.59573
1.59536
1.59505
1.59479
1.59459
1.59445
1.59436
1.59432
1.59431
1.59432
1.59435
958.936
346.835
155.905
65.9548
26.2001
12.2571
7.2808
5.08304
3.88668
3.13423
2.62006
2.2566
1.99936
1.82247
1.7188
1.66101
1.62851
1.61077
1.60149
1.59674
1.59428
1.59296
1.59214
1.59154
1.59104
1.59063
1.59029
1.59005
1.58989
1.58981
1.58981
1.58985
1.58991
1.58996
1.59
968.893
345.62
155.931
67.3792
27.1155
12.5628
7.3555
5.09027
3.87944
3.12802
2.61839
2.25823
2.00273
1.82611
1.72157
1.66304
1.63004
1.61205
1.6026
1.59776
1.59527
1.59394
1.59312
1.59252
1.59203
1.59162
1.5913
1.59108
1.59096
1.59093
1.59098
1.59107
1.59119
1.5913
1.5914
982.166
344.997
155.692
68.2722
27.8281
12.8186
7.41782
5.09523
3.8712
3.12122
2.61608
2.26019
2.00731
1.83179
1.72714
1.66789
1.6345
1.61629
1.60673
1.60187
1.59941
1.59814
1.59738
1.59684
1.5964
1.59606
1.59581
1.59567
1.59565
1.59573
1.59589
1.59611
1.59635
1.59657
1.59678
998.833
344.974
155.17
68.8406
28.3781
13.031
7.46944
5.09523
3.8621
3.11469
2.61508
2.26362
2.01405
1.84036
1.73646
1.67724
1.64353
1.62513
1.6155
1.61072
1.60846
1.6074
1.60684
1.60647
1.6062
1.60602
1.60595
1.606
1.60617
1.60647
1.60687
1.60732
1.60777
1.60818
1.60858
1018.84
345.253
154.257
68.8537
28.707
13.1765
7.50153
5.09312
3.85295
3.10946
2.616
2.26968
2.02398
1.85284
1.75037
1.69197
1.65882
1.64088
1.63177
1.62749
1.62567
1.62508
1.62495
1.62495
1.62502
1.62517
1.62544
1.62586
1.62643
1.62714
1.62795
1.62881
1.62964
1.63037
1.63105
1042.25
345.995
153.197
68.7037
28.9012
13.2782
7.52499
5.08836
3.84403
3.10612
2.61917
2.27912
2.03797
1.87016
1.76987
1.71292
1.68091
1.66396
1.65581
1.6525
1.65167
1.65192
1.65258
1.65333
1.65412
1.65498
1.65596
1.65709
1.65837
1.65979
1.66128
1.66278
1.66419
1.66543
1.66656
1069.01
347.307
152.104
68.3231
28.8885
13.3143
7.52468
5.08011
3.838
3.10681
2.62599
2.29298
2.05725
1.89357
1.79622
1.74145
1.71123
1.696
1.68952
1.68791
1.6886
1.69043
1.69254
1.69463
1.69668
1.69873
1.70088
1.70315
1.70555
1.70806
1.71059
1.71306
1.71534
1.71735
1.71917
1099.01
349.001
150.908
67.6509
28.8005
13.3032
7.51751
5.06978
3.83233
3.11012
2.63823
2.31236
2.08273
1.92401
1.83047
1.77871
1.75106
1.7384
1.73463
1.73522
1.73836
1.74258
1.74691
1.75112
1.75521
1.75927
1.7634
1.76762
1.77192
1.77623
1.78047
1.78451
1.78821
1.79147
1.79441
1132.12
351.093
149.647
66.846
28.6066
13.267
7.50099
5.06
3.83236
3.11773
2.65611
2.33838
2.11564
1.96285
1.87409
1.82607
1.80231
1.7937
1.79316
1.79739
1.80432
1.81234
1.82033
1.82802
1.83545
1.84273
1.84993
1.85712
1.86427
1.87129
1.87807
1.88446
1.89031
1.89551
1.90013
1168.2
353.557
148.357
65.9294
28.3047
13.1934
7.47429
5.05133
3.83492
3.13214
2.6805
2.3717
2.15676
2.01084
1.92789
1.88504
1.86665
1.86288
1.86712
1.87653
1.88887
1.90237
1.91566
1.9285
1.94098
1.95325
1.9654
1.97741
1.98922
2.00067
2.01159
2.02181
2.03115
2.03952
2.04686
1207.02
356.37
147.066
64.9231
27.937
13.0894
7.44234
5.0441
3.84177
3.15303
2.7125
2.41343
2.20721
2.06949
1.99332
1.95756
1.94637
1.94858
1.95983
1.97666
1.99698
2.01881
2.04043
2.06151
2.08208
2.1022
2.12193
2.1412
2.15992
2.1779
2.19497
2.21094
2.2256
2.23887
2.25039
1248.44
359.526
145.794
63.8677
27.5268
12.9674
7.407
5.04048
3.85522
3.1807
2.75223
2.46388
2.26759
2.13877
2.07164
2.04525
2.04184
2.05266
2.07328
2.10027
2.13169
2.16526
2.19863
2.23138
2.26359
2.29538
2.32677
2.35759
2.38757
2.41637
2.44368
2.46923
2.4928
2.51434
2.5328
1292.09
362.961
144.552
62.779
27.086
12.8347
7.37231
5.04186
3.87604
3.21624
2.80074
2.52408
2.33854
2.22058
2.16487
2.14958
2.15617
2.17869
2.21211
2.25331
2.30068
2.35161
2.40305
2.45441
2.50554
2.55619
2.606
2.65456
2.70148
2.74642
2.78909
2.82922
2.8666
2.90125
2.93076
1337.89
366.703
143.364
61.6927
26.6321
12.6959
7.3383
5.04686
3.90349
3.25942
2.85766
2.59368
2.41981
2.31524
2.27399
2.2703
2.2904
2.32792
2.37813
2.43835
2.50756
2.58279
2.65966
2.73696
2.81436
2.89169
2.96875
3.04513
3.12017
3.19309
3.2631
3.32958
3.39209
3.4507
3.50042
1385.32
370.654
142.227
60.6091
26.1729
12.5572
7.3085
5.05762
3.93813
3.31079
2.92385
2.67358
2.51274
2.42453
2.39963
2.41063
2.4482
2.50541
2.57827
2.66493
2.76528
2.87599
2.99131
3.11018
3.23244
3.35725
3.48302
3.60785
3.73003
3.84835
3.9622
4.07149
4.1766
4.27815
4.36607
1.86974
1.86981
1.86989
1.86996
1.87004
1.87012
1.8702
1.87028
1.87037
1.87046
1.87055
1.87064
1.87073
1.87082
1.8709
1.87098
1.87106
1.87114
1.87122
1.87129
1.87136
1.87143
1.83766
1.83786
1.83806
1.83827
1.83849
1.83871
1.83894
1.83917
1.83941
1.83966
1.83992
1.84018
1.84044
1.84069
1.84093
1.84117
1.8414
1.84162
1.84184
1.84205
1.84225
1.84245
1.80804
1.80836
1.80868
1.80902
1.80936
1.80972
1.81008
1.81045
1.81084
1.81123
1.81163
1.81205
1.81245
1.81285
1.81324
1.81361
1.81398
1.81433
1.81468
1.81501
1.81534
1.81565
1.78069
1.78111
1.78154
1.78198
1.78244
1.78291
1.78339
1.78388
1.78439
1.78492
1.78546
1.786
1.78655
1.78708
1.7876
1.7881
1.78858
1.78906
1.78952
1.78996
1.7904
1.79082
1.75537
1.75589
1.75642
1.75696
1.75752
1.7581
1.75869
1.7593
1.75992
1.76056
1.76122
1.76189
1.76256
1.76321
1.76384
1.76445
1.76505
1.76563
1.76619
1.76674
1.76727
1.76779
1.73194
1.73253
1.73314
1.73377
1.73442
1.73509
1.73577
1.73648
1.7372
1.73795
1.73872
1.73951
1.74029
1.74104
1.74178
1.7425
1.7432
1.74388
1.74453
1.74517
1.7458
1.7464
1.71022
1.71089
1.71158
1.7123
1.71303
1.71378
1.71455
1.71535
1.71616
1.717
1.71787
1.71875
1.71962
1.72047
1.7213
1.72211
1.7229
1.72367
1.72441
1.72514
1.72584
1.72653
1.6901
1.69083
1.69158
1.69235
1.69315
1.69397
1.69481
1.69568
1.69658
1.69751
1.69847
1.69944
1.70041
1.70135
1.70227
1.70317
1.70403
1.70488
1.7057
1.7065
1.70728
1.70803
1.67152
1.6723
1.67312
1.67395
1.67481
1.6757
1.6766
1.67754
1.6785
1.67949
1.68051
1.68155
1.68259
1.6836
1.68459
1.68555
1.68649
1.68741
1.68831
1.68917
1.69002
1.69085
1.65437
1.65519
1.65602
1.65689
1.65778
1.65871
1.65967
1.66066
1.66168
1.66274
1.66384
1.66495
1.66607
1.66715
1.66821
1.66923
1.67023
1.67121
1.67215
1.67308
1.67398
1.67485
1.63879
1.63964
1.64051
1.64141
1.64234
1.6433
1.64428
1.64529
1.64633
1.64741
1.64852
1.64966
1.65081
1.65193
1.65303
1.65411
1.65516
1.65619
1.65719
1.65817
1.65912
1.66006
1.62467
1.6255
1.62634
1.62721
1.62813
1.62908
1.63007
1.63111
1.63219
1.63332
1.63448
1.63568
1.63687
1.63803
1.63916
1.64026
1.64133
1.64238
1.64341
1.64441
1.64539
1.64635
1.61249
1.61331
1.61414
1.615
1.6159
1.61682
1.61776
1.61873
1.61973
1.62078
1.62187
1.62301
1.62416
1.62532
1.62646
1.62758
1.62869
1.62977
1.63083
1.63186
1.63287
1.63386
1.60215
1.60282
1.60348
1.60419
1.60495
1.60577
1.60666
1.60762
1.60864
1.60972
1.61083
1.61198
1.61311
1.61422
1.6153
1.61636
1.6174
1.61843
1.61946
1.62046
1.62146
1.62246
1.59467
1.59528
1.59587
1.59651
1.59716
1.5978
1.59844
1.5991
1.59981
1.60057
1.60141
1.60234
1.60334
1.60438
1.60544
1.60649
1.60754
1.60857
1.60957
1.61055
1.61151
1.61248
1.59011
1.59019
1.5902
1.59031
1.59056
1.59099
1.59155
1.59222
1.59295
1.59373
1.59455
1.59537
1.59616
1.59693
1.5977
1.59848
1.59929
1.60012
1.60099
1.60187
1.60277
1.60372
1.5914
1.59117
1.59084
1.59057
1.5903
1.58995
1.58964
1.5894
1.58926
1.58923
1.58934
1.58967
1.59023
1.59092
1.59167
1.59244
1.59322
1.59397
1.59469
1.59539
1.59608
1.59685
1.59659
1.59576
1.59476
1.59387
1.59304
1.59227
1.59155
1.59091
1.59038
1.58995
1.58963
1.58933
1.58901
1.58878
1.58868
1.5887
1.58884
1.58914
1.58961
1.59017
1.5908
1.59156
1.6081
1.6063
1.60426
1.6024
1.60066
1.59904
1.59751
1.59608
1.59478
1.5936
1.59254
1.59161
1.59082
1.59018
1.5897
1.58935
1.58913
1.58895
1.58875
1.5886
1.58856
1.58879
1.63007
1.62661
1.62282
1.61933
1.61602
1.61287
1.60988
1.60706
1.60444
1.60206
1.59987
1.59789
1.59619
1.59474
1.59351
1.59249
1.59163
1.59092
1.59035
1.58987
1.58952
1.5895
1.66498
1.65934
1.65329
1.64766
1.64226
1.63706
1.63207
1.6273
1.62273
1.61837
1.61428
1.61051
1.60718
1.60429
1.60178
1.59963
1.59781
1.59626
1.59495
1.59383
1.59289
1.59243
1.7168
1.70802
1.69874
1.69009
1.68175
1.67369
1.6659
1.65841
1.65122
1.64435
1.63783
1.63175
1.62626
1.62141
1.6171
1.61327
1.60987
1.60689
1.60431
1.60204
1.60009
1.59885
1.79104
1.77778
1.764
1.75111
1.73867
1.72661
1.71492
1.70364
1.69279
1.6824
1.6725
1.66319
1.65472
1.64717
1.64044
1.63442
1.62906
1.62429
1.62008
1.61633
1.61304
1.61073
1.89547
1.87581
1.85569
1.83688
1.8187
1.80105
1.78393
1.76738
1.75144
1.73614
1.72153
1.70776
1.69518
1.68393
1.67385
1.66483
1.65676
1.64955
1.64312
1.63736
1.63228
1.62854
2.04059
2.01183
1.98285
1.95574
1.92953
1.90406
1.87936
1.85547
1.83244
1.81032
1.78919
1.76925
1.75101
1.73466
1.72001
1.70687
1.69511
1.68457
1.67515
1.66669
1.65918
1.65349
2.24202
2.20005
2.15853
2.11968
2.08213
2.04566
2.01029
1.97608
1.94311
1.91148
1.88127
1.85277
1.82671
1.80336
1.78244
1.76369
1.74689
1.73185
1.7184
1.70631
1.69556
1.68727
2.52192
2.46067
2.40121
2.34557
2.29182
2.23969
2.18919
2.14042
2.09347
2.04848
2.00557
1.96513
1.92821
1.89518
1.86564
1.83921
1.81558
1.79444
1.77554
1.75858
1.74349
1.73164
2.9164
2.82577
2.73997
2.65976
2.58234
2.50739
2.43494
2.36511
2.29809
2.23407
2.17321
2.11605
2.06399
2.01753
1.97606
1.93906
1.90604
1.87659
1.85034
1.82685
1.80599
1.78944
3.48198
3.34371
3.2175
3.1005
2.98811
2.87968
2.77518
2.6747
2.57842
2.48661
2.3996
2.31826
2.24461
2.17927
2.12127
2.06975
2.02395
1.98321
1.94699
1.91469
1.88605
1.86304
4.34194
4.1153
3.91638
3.73575
3.56537
3.40363
3.25008
3.10452
2.96667
2.83594
2.71205
2.5961
2.49102
2.39792
2.31568
2.24317
2.17925
2.12285
2.07303
2.02884
1.9898
1.9582
1.87147
1.87147
1.87147
1.87147
1.87147
1.87147
1.84255
1.84255
1.84255
1.84255
1.84255
1.84255
1.81581
1.81581
1.81581
1.81581
1.81581
1.81581
1.79103
1.79103
1.79103
1.79103
1.79103
1.79103
1.76805
1.76805
1.76805
1.76805
1.76805
1.76805
1.7467
1.7467
1.7467
1.7467
1.7467
1.74671
1.72687
1.72687
1.72687
1.72687
1.72687
1.72687
1.70841
1.70841
1.70841
1.70841
1.70841
1.70841
1.69125
1.69125
1.69126
1.69126
1.69126
1.69126
1.67529
1.67528
1.67529
1.67529
1.67529
1.6753
1.66051
1.66051
1.66051
1.66052
1.66052
1.66053
1.64683
1.64682
1.64682
1.64683
1.64683
1.64685
1.63434
1.63432
1.63433
1.63433
1.63434
1.63437
1.62295
1.62293
1.62294
1.62295
1.62295
1.62298
1.61293
1.61287
1.61287
1.61288
1.6129
1.61297
1.60418
1.60414
1.60417
1.60418
1.60417
1.60424
1.59716
1.59701
1.59701
1.59702
1.59705
1.59722
1.59191
1.5918
1.59186
1.59188
1.59185
1.59199
1.58877
1.58849
1.58853
1.58856
1.58856
1.58888
1.58934
1.589
1.58906
1.58909
1.58907
1.58946
1.592
1.59154
1.59164
1.59167
1.59163
1.59215
1.59794
1.5973
1.59744
1.59747
1.5974
1.59811
1.60919
1.60829
1.60848
1.60852
1.60841
1.60939
1.62616
1.625
1.62526
1.62531
1.62514
1.62639
1.64995
1.64844
1.64879
1.64885
1.6486
1.65023
1.68223
1.6803
1.68078
1.68085
1.68049
1.68255
1.72454
1.72206
1.72269
1.72277
1.72228
1.72491
1.7797
1.77662
1.77747
1.77755
1.77688
1.78013
1.84959
1.84572
1.84682
1.84692
1.84602
1.85009
1.93997
1.93499
1.93627
1.93639
1.93534
1.94054
1.87143
1.87136
1.87129
1.87122
1.87114
1.87106
1.87098
1.8709
1.87081
1.87073
1.87064
1.87055
1.87046
1.87037
1.87028
1.8702
1.87012
1.87004
1.86997
1.86989
1.86982
1.86975
1.84245
1.84225
1.84204
1.84183
1.84161
1.84139
1.84116
1.84092
1.84068
1.84043
1.84017
1.83991
1.83965
1.8394
1.83916
1.83892
1.83869
1.83847
1.83825
1.83804
1.83784
1.83764
1.81565
1.81533
1.815
1.81466
1.81432
1.81396
1.8136
1.81323
1.81284
1.81245
1.81205
1.81164
1.81123
1.81083
1.81045
1.81008
1.80971
1.80936
1.80902
1.80869
1.80836
1.80805
1.79082
1.79039
1.78995
1.7895
1.78904
1.78857
1.78808
1.78758
1.78707
1.78654
1.786
1.78545
1.78491
1.78438
1.78387
1.78337
1.78289
1.78242
1.78197
1.78152
1.7811
1.78068
1.76779
1.76727
1.76673
1.76618
1.76561
1.76503
1.76443
1.76382
1.7632
1.76256
1.7619
1.76123
1.76057
1.75992
1.7593
1.75869
1.7581
1.75753
1.75698
1.75644
1.75592
1.75541
1.7464
1.74579
1.74516
1.74452
1.74386
1.74318
1.74249
1.74177
1.74104
1.74029
1.73952
1.73873
1.73796
1.73721
1.73648
1.73577
1.73508
1.73442
1.73378
1.73315
1.73255
1.73196
1.72653
1.72584
1.72513
1.7244
1.72365
1.72288
1.7221
1.7213
1.72047
1.71963
1.71877
1.71789
1.71702
1.71618
1.71537
1.71457
1.71381
1.71306
1.71234
1.71164
1.71096
1.7103
1.70804
1.70727
1.70649
1.70569
1.70487
1.70402
1.70316
1.70227
1.70136
1.70043
1.69948
1.69851
1.69754
1.69661
1.69571
1.69484
1.694
1.69318
1.69239
1.69163
1.69089
1.69018
1.69085
1.69002
1.68917
1.6883
1.6874
1.68649
1.68555
1.6846
1.68362
1.68262
1.6816
1.68056
1.67954
1.67855
1.67759
1.67666
1.67576
1.67488
1.67404
1.67322
1.67243
1.67166
1.67486
1.67398
1.67308
1.67215
1.67121
1.67024
1.66924
1.66823
1.66719
1.66612
1.66503
1.66391
1.66282
1.66175
1.66073
1.65974
1.65879
1.65788
1.65699
1.65614
1.65533
1.65454
1.66007
1.65913
1.65818
1.6572
1.6562
1.65518
1.65413
1.65306
1.65198
1.65087
1.64975
1.64862
1.6475
1.64643
1.64539
1.64438
1.64341
1.64247
1.64156
1.64068
1.63984
1.63903
1.64638
1.64541
1.64442
1.64342
1.6424
1.64136
1.6403
1.63921
1.6381
1.63696
1.6358
1.63462
1.63345
1.63232
1.63124
1.63021
1.62923
1.6283
1.62741
1.62656
1.62577
1.625
1.63389
1.63289
1.63189
1.63086
1.62981
1.62874
1.62765
1.62654
1.62542
1.62429
1.62316
1.62203
1.62094
1.6199
1.6189
1.61794
1.617
1.6161
1.61524
1.61441
1.61363
1.61289
1.6225
1.6215
1.62051
1.61951
1.6185
1.61748
1.61646
1.61542
1.61436
1.61328
1.61217
1.61104
1.60993
1.60886
1.60784
1.60689
1.60602
1.60522
1.6045
1.60386
1.60329
1.60275
1.61253
1.61157
1.61062
1.60965
1.60866
1.60765
1.60662
1.60559
1.60457
1.60356
1.6026
1.60168
1.60084
1.60008
1.59938
1.59872
1.59809
1.59747
1.59685
1.59627
1.59577
1.59531
1.60379
1.60285
1.60197
1.6011
1.60026
1.59946
1.59868
1.59794
1.5972
1.59645
1.59568
1.59486
1.59404
1.59326
1.59253
1.59188
1.59134
1.59095
1.59078
1.59078
1.59093
1.59109
1.59694
1.59619
1.59552
1.59485
1.59415
1.59342
1.59268
1.59194
1.59123
1.59058
1.59006
1.58978
1.58968
1.58971
1.58985
1.59009
1.59041
1.59078
1.5911
1.59147
1.59198
1.59249
1.59167
1.59093
1.59033
1.58981
1.58939
1.58917
1.58909
1.58913
1.58927
1.58953
1.58987
1.59014
1.59046
1.59088
1.5914
1.59203
1.59275
1.59355
1.59444
1.59545
1.59665
1.59781
1.58895
1.58877
1.58886
1.58907
1.58932
1.58953
1.58981
1.59021
1.59074
1.59141
1.5922
1.59314
1.59419
1.59536
1.59664
1.59804
1.59956
1.6012
1.603
1.60498
1.60725
1.60946
1.58969
1.58976
1.59017
1.59071
1.59135
1.59214
1.59305
1.59414
1.59541
1.59689
1.5986
1.60058
1.60277
1.60513
1.60772
1.6105
1.61345
1.61659
1.61994
1.62356
1.62763
1.6316
1.59266
1.59319
1.5942
1.59541
1.5968
1.59844
1.60035
1.60259
1.60516
1.60808
1.6114
1.61515
1.61924
1.62356
1.62806
1.63275
1.63766
1.64281
1.64821
1.65395
1.66029
1.66649
1.59913
1.60047
1.60252
1.60491
1.60761
1.61071
1.61422
1.61813
1.62249
1.62737
1.63281
1.63886
1.64537
1.65218
1.65927
1.66664
1.67428
1.68223
1.6905
1.69921
1.70874
1.71811
1.61108
1.61351
1.61693
1.62083
1.6252
1.63011
1.6356
1.64172
1.64852
1.65607
1.66446
1.6737
1.68359
1.6939
1.70461
1.71569
1.72716
1.73901
1.75128
1.76413
1.77809
1.7919
1.62896
1.63286
1.63812
1.64406
1.65068
1.65807
1.6663
1.67544
1.68559
1.69682
1.70927
1.72294
1.73753
1.75272
1.76846
1.78473
1.80151
1.81881
1.83666
1.85526
1.8754
1.89551
1.654
1.65989
1.66763
1.67633
1.68598
1.69674
1.7087
1.72198
1.7367
1.75301
1.77104
1.79084
1.81195
1.83391
1.85667
1.88016
1.90437
1.92928
1.95494
1.9816
2.01035
2.03936
1.68788
1.69644
1.70747
1.71986
1.73362
1.74894
1.76598
1.7849
1.80588
1.82914
1.8549
1.8832
1.91339
1.94483
1.97742
2.01107
2.04573
2.08137
2.11804
2.15606
2.19693
2.23871
1.73238
1.74457
1.76003
1.77737
1.79664
1.81814
1.84207
1.8687
1.89831
1.93119
1.96767
2.00783
2.05075
2.09549
2.14192
2.18993
2.23941
2.29031
2.34269
2.39693
2.45509
2.51539
1.79033
1.80732
1.82866
1.85263
1.87937
1.90927
1.94267
1.97992
2.02143
2.06766
2.1191
2.17587
2.23676
2.30046
2.36678
2.43554
2.50654
2.57969
2.65502
2.73296
2.8164
2.90476
1.86413
1.88771
1.91698
1.94992
1.98677
2.02809
2.07437
2.12618
2.18419
2.24916
2.32189
2.40266
2.48972
2.58112
2.67647
2.77546
2.8779
2.98368
3.09288
3.20622
3.3283
3.46196
1.95951
1.99185
2.03169
2.07668
2.12729
2.1844
2.24887
2.32169
2.40385
2.49633
2.60007
2.71524
2.83931
2.96956
3.1061
3.24939
3.39968
3.55711
3.72209
3.89627
4.08759
4.30537
1.86971
1.86971
1.86971
1.86971
1.86971
1.86971
1.86971
1.86971
1.86971
1.8697
1.8697
1.8697
1.86969
1.86969
1.86969
1.86969
1.86969
1.8697
1.86972
1.86974
1.86963
1.869
1.86735
1.86722
1.87844
1.90449
1.97292
2.16182
2.64044
3.82885
7.21281
19.8061
85.7934
450.642
1182.08
1.83755
1.83755
1.83755
1.83755
1.83755
1.83755
1.83756
1.83756
1.83756
1.83757
1.83758
1.83758
1.83759
1.8376
1.83762
1.83763
1.83766
1.83768
1.83766
1.83751
1.83717
1.83737
1.84318
1.86801
1.92148
2.06058
2.38285
3.03456
4.3377
7.17961
14.3027
35.9143
116.567
451.582
1558.08
1.8079
1.8079
1.8079
1.8079
1.8079
1.8079
1.8079
1.8079
1.8079
1.8079
1.8079
1.8079
1.80791
1.80792
1.80794
1.80796
1.80797
1.80797
1.80791
1.80793
1.80891
1.81463
1.83764
1.89333
2.02991
2.31392
2.83784
3.79258
5.58304
9.1715
17.1103
37.28
104.752
388.044
1455.17
1.78048
1.78048
1.78049
1.78049
1.7805
1.78051
1.78052
1.78053
1.78054
1.78056
1.78057
1.7806
1.78062
1.78065
1.78069
1.78073
1.78077
1.78081
1.781
1.78199
1.78609
1.80067
1.84526
1.94878
2.15976
2.53913
3.1909
4.3078
6.27361
9.91836
17.2818
35.2235
92.6071
360.428
1275.3
1.75516
1.75516
1.75517
1.75517
1.75518
1.75518
1.75519
1.75519
1.7552
1.75522
1.75523
1.75525
1.75528
1.75531
1.75536
1.75541
1.75549
1.75569
1.75644
1.75912
1.76784
1.79397
1.86353
2.00975
2.27412
2.71906
3.44651
4.63726
6.63399
10.1537
17.0522
33.6892
94.1176
360.908
1158.38
1.73168
1.73169
1.7317
1.73171
1.73173
1.73175
1.73177
1.7318
1.73182
1.73186
1.7319
1.73194
1.732
1.73206
1.73214
1.73225
1.73245
1.73299
1.73473
1.74004
1.75496
1.79443
1.88807
2.0659
2.3686
2.85551
3.62175
4.83046
6.78393
10.1294
16.6756
33.9506
99.5177
365.926
1085.7
1.70998
1.70999
1.71
1.71001
1.71003
1.71004
1.71006
1.71008
1.71011
1.71014
1.71018
1.71023
1.7103
1.71038
1.71048
1.71066
1.71106
1.71216
1.7153
1.72379
1.74516
1.79651
1.91103
2.11354
2.4428
2.9543
3.73534
4.93401
6.83084
10.0766
16.7215
35.4007
109.001
372.155
1041.33
1.68984
1.68986
1.68989
1.68992
1.68995
1.68999
1.69004
1.69008
1.69014
1.6902
1.69028
1.69036
1.69046
1.69059
1.69077
1.69109
1.69181
1.69364
1.69842
1.71032
1.73808
1.80062
1.93149
2.1524
2.49942
3.0241
3.80726
4.98814
6.84485
10.0812
17.0206
38.3731
119.261
373.148
1011.31
1.67129
1.67132
1.67134
1.67137
1.67141
1.67144
1.67148
1.67152
1.67157
1.67164
1.67172
1.67182
1.67195
1.67212
1.67237
1.67285
1.67395
1.67667
1.68331
1.69876
1.73262
1.8049
1.94873
2.18301
2.54129
3.07167
3.85043
5.01345
6.84972
10.1382
17.6943
42.2737
129.202
372.018
991.081
1.65418
1.65423
1.65428
1.65434
1.65441
1.65449
1.65456
1.65465
1.65474
1.65484
1.65496
1.6551
1.65528
1.65552
1.65591
1.65665
1.65825
1.66196
1.67046
1.68921
1.72844
1.80879
1.96273
2.2065
2.57146
3.10306
3.87497
5.02469
6.86359
10.2848
18.7259
46.4755
137.16
368.191
975.199
1.63865
1.6387
1.63876
1.63881
1.63888
1.63894
1.63901
1.63909
1.63918
1.6393
1.63944
1.63961
1.63984
1.64016
1.64066
1.64164
1.64373
1.64844
1.65886
1.68083
1.72492
1.81198
1.97363
2.22385
2.59219
3.12224
3.88714
5.03058
6.89712
10.5422
19.9393
50.7115
143.457
363.593
964.238
1.62468
1.62477
1.62488
1.62499
1.62512
1.62525
1.62538
1.62551
1.62565
1.6258
1.62598
1.6262
1.62648
1.62689
1.62757
1.62889
1.63161
1.63739
1.64951
1.67413
1.72213
1.81449
1.98187
2.23626
2.6058
3.13308
3.89243
5.03693
6.95271
10.8424
21.2183
54.6318
148.137
359.121
957.734
1.61257
1.61265
1.61275
1.61286
1.61298
1.61309
1.61321
1.61334
1.61349
1.61366
1.61388
1.61415
1.61451
1.61502
1.61585
1.61743
1.62061
1.62729
1.64107
1.6684
1.71995
1.81652
1.98793
2.24465
2.61377
3.13751
3.89224
5.04509
7.0233
11.1825
22.5457
58.2043
151.583
355.163
955.322
1.60256
1.60273
1.60292
1.60313
1.60335
1.60355
1.60375
1.60394
1.60413
1.60432
1.60455
1.60484
1.60524
1.60584
1.60687
1.60882
1.61267
1.62038
1.63555
1.66452
1.71848
1.81824
1.99241
2.25011
2.61769
3.13706
3.89023
5.05347
7.09905
11.5253
23.8015
61.2199
153.771
352.031
956.181
1.59514
1.59526
1.59543
1.59562
1.59582
1.59602
1.59622
1.59642
1.59662
1.59684
1.59711
1.59746
1.59793
1.59863
1.59979
1.60193
1.60608
1.61433
1.63065
1.66203
1.71865
1.82026
1.99589
2.25335
2.61826
3.13479
3.88605
5.063
7.18022
11.8739
24.9927
63.7365
155.159
349.657
959.464
1.59127
1.59153
1.59183
1.59215
1.59246
1.59275
1.59301
1.59323
1.59343
1.59362
1.59383
1.59413
1.59457
1.59529
1.59658
1.59904
1.60379
1.61303
1.63062
1.66261
1.71996
1.82307
1.99915
2.25538
2.6176
3.12997
3.8797
5.07101
7.25736
12.1999
26.0414
65.6301
155.748
347.979
966.38
1.59282
1.59306
1.59338
1.59373
1.59406
1.59437
1.59463
1.59485
1.59502
1.59517
1.59533
1.59557
1.59596
1.59663
1.5979
1.60039
1.60522
1.61462
1.63245
1.66509
1.72319
1.82714
2.00291
2.2574
2.61623
3.12397
3.87237
5.07757
7.32913
12.4969
26.9349
67.0317
155.808
346.933
977.144
1.59841
1.59865
1.599
1.59936
1.59972
1.60003
1.60028
1.60045
1.60055
1.60059
1.60062
1.60071
1.60095
1.60148
1.60263
1.60505
1.60989
1.61939
1.63744
1.67056
1.72947
1.83344
2.00804
2.25972
2.614
3.11715
3.86378
5.08106
7.38848
12.743
27.6236
67.8947
155.582
346.508
991.293
1.61047
1.61065
1.61099
1.61136
1.61171
1.612
1.61219
1.61225
1.61219
1.61201
1.61178
1.61157
1.6115
1.61172
1.61259
1.61482
1.61957
1.62912
1.64736
1.68083
1.73956
1.84276
2.01547
2.26386
2.61398
3.11123
3.8549
5.08066
7.43668
12.9466
28.1516
68.4435
155.081
346.596
1008.85
1.6333
1.6334
1.63371
1.63403
1.63432
1.6345
1.63452
1.63435
1.63398
1.6334
1.63269
1.63193
1.63124
1.63083
1.63105
1.63259
1.63678
1.64583
1.6636
1.69649
1.75441
1.85614
2.02626
2.27072
2.61531
3.10624
3.84572
5.07811
7.46707
13.0835
28.4661
68.439
154.187
347.031
1029.85
1.66891
1.66874
1.66885
1.66896
1.66899
1.66888
1.66854
1.66789
1.66691
1.66563
1.66408
1.6624
1.66071
1.65923
1.65838
1.65888
1.66195
1.66998
1.68679
1.71853
1.77498
1.87452
2.04126
2.28105
2.61924
3.10414
3.83761
5.07288
7.48692
13.1795
28.6375
68.282
153.147
347.968
1054.26
1.72146
1.72082
1.72052
1.72019
1.71974
1.71907
1.71807
1.71664
1.71473
1.71231
1.70946
1.70628
1.70293
1.69968
1.69697
1.69572
1.69705
1.7033
1.71835
1.74832
1.8026
1.89917
2.06173
2.29606
2.62729
3.10535
3.83182
5.06441
7.48564
13.2061
28.6189
67.8907
152.077
349.418
1082.07
1.79637
1.79486
1.79372
1.79249
1.79107
1.78931
1.78707
1.78421
1.78065
1.77636
1.7714
1.7659
1.76007
1.75418
1.74871
1.74474
1.74367
1.74716
1.75959
1.78697
1.83824
1.93098
2.08854
2.31671
2.64067
3.10958
3.82752
5.05468
7.47758
13.1932
28.5242
67.2116
150.883
351.224
1113.12
1.90135
1.89843
1.89582
1.89307
1.89001
1.88648
1.88227
1.87719
1.8711
1.86394
1.85573
1.84662
1.83686
1.8268
1.81705
1.80892
1.80394
1.80415
1.81241
1.83588
1.88344
1.97139
2.12296
2.34418
2.65993
3.11867
3.82816
5.04522
7.46003
13.1549
28.3233
66.409
149.647
353.474
1147.37
2.04671
2.04136
2.03614
2.03063
2.02462
2.0179
2.0102
2.00128
1.99099
1.97923
1.96605
1.95162
1.93621
1.92024
1.90439
1.89036
1.87989
1.87508
1.8785
1.89652
1.93888
2.02103
2.16568
2.37904
2.6858
3.13447
3.83174
5.03762
7.43354
13.0785
28.0176
65.4841
148.344
356.021
1184.56
2.24805
2.2388
2.22925
2.21925
2.20852
2.1968
2.18375
2.16903
2.15237
2.13359
2.11271
2.08996
2.06577
2.04073
2.0158
1.99316
1.97486
1.96279
1.96009
1.97089
2.00614
2.08149
2.21789
2.42246
2.71941
3.15681
3.83986
5.03088
7.40199
12.975
27.6522
64.4863
147.081
358.995
1224.59
2.527
2.51112
2.49398
2.47604
2.45694
2.43636
2.41394
2.38935
2.3623
2.33267
2.30047
2.26594
2.22951
2.19187
2.15428
2.11975
2.09075
2.06897
2.05744
2.06044
2.08628
2.15257
2.28003
2.47461
2.76078
3.1861
3.85526
5.02945
7.36773
12.8534
27.2423
63.4235
145.785
362.21
1267.19
2.91935
2.89271
2.86318
2.83251
2.80027
2.76606
2.72938
2.6897
2.64655
2.59971
2.5493
2.49585
2.44027
2.38365
2.32761
2.27619
2.23229
2.19728
2.17384
2.1667
2.18145
2.23629
2.35284
2.53658
2.81099
3.22329
3.8776
5.03167
7.33463
12.7233
26.8076
62.3475
144.568
365.79
1312.09
3.47992
3.43361
3.38114
3.32673
3.26986
3.2103
3.14785
3.08233
3.0135
2.94116
2.86519
2.78581
2.70385
2.62079
2.53921
2.4648
2.40105
2.34873
2.31002
2.28918
2.29234
2.3327
2.43581
2.60786
2.86956
3.26809
3.90654
5.03798
7.30195
12.5865
26.3568
61.255
143.352
369.58
1359.16
4.32791
4.24436
4.15058
4.05578
3.95881
3.85848
3.75388
3.64442
3.53008
3.41148
3.2898
3.16648
3.04293
2.92059
2.80221
2.69533
2.60413
2.52852
2.46976
2.43131
2.41968
2.44374
2.53045
2.68937
2.93731
3.32098
3.94269
5.05075
7.27414
12.4516
25.9062
60.1861
142.232
373.644
1407.81
1439.54
375.321
141.052
59.4483
25.6733
12.4059
7.27911
5.07721
3.9846
3.37666
3.00681
2.77233
2.62895
2.56279
2.55634
2.58843
2.64998
2.73487
2.84027
2.96575
3.11318
3.2798
3.45832
3.64637
3.84172
4.04203
4.24579
4.45253
4.66236
4.87555
5.0921
5.31154
5.53155
5.74922
5.9399
1501.08
380.815
139.843
58.1984
25.1336
12.2478
7.25744
5.1087
4.04636
3.46071
3.11147
2.89589
2.77661
2.73695
2.756
2.81802
2.91416
3.04021
3.19568
3.38342
3.61002
3.87467
4.16696
4.48442
4.8279
5.19905
5.59835
6.02405
6.47227
6.93767
7.41393
7.89443
8.37448
8.8502
9.27124
1563.32
386.532
138.789
57.0394
24.6329
12.1024
7.24174
5.1489
4.11821
3.55582
3.22672
3.03398
2.94352
2.93076
2.9825
3.08171
3.22227
3.40305
3.62792
3.90624
4.25455
4.68056
5.17818
5.75371
6.41291
7.15407
7.96837
8.84278
9.76256
10.7129
11.6794
12.649
13.6106
14.5543
15.3937
1625.91
392.452
137.833
55.9531
24.1661
11.9732
7.24188
5.1984
4.19876
3.65921
3.35227
3.18645
3.12616