/*--------------------------------*- C++ -*----------------------------------*\
  =========                 |
  \\      /  F ield         | OpenFOAM: The Open Source CFD Toolbox
   \\    /   O peration     | Website:  https://openfoam.org
    \\  /    A nd           | Version:  8
     \\/     M anipulation  |
\*---------------------------------------------------------------------------*/
FoamFile
{
    version     2.0;
    format      ascii;
    class       volScalarField;
    location    "1800";
    object      k;
}
// * * * * * * * * * * * * * * * * * * * * * * * * * * * * * * * * * * * * * //

dimensions      [0 2 -2 0 0 0 0];

internalField   nonuniform List<scalar> 
15677
(
0.99112
0.878331
0.495836
0.398731
0.38043
0.375727
0.374331
0.373838
0.373577
0.373422
0.37333
0.373281
0.373257
0.373248
0.373245
0.373243
0.373242
0.373241
0.373239
0.373238
0.373238
0.373237
0.373237
0.373237
0.373238
0.373238
0.373238
0.373238
0.373238
0.373239
0.373239
0.373239
0.373239
0.373239
0.373239
1.19156
0.830654
0.479789
0.386787
0.3726
0.37044
0.370024
0.369925
0.369987
0.370041
0.370045
0.370012
0.369971
0.369936
0.369916
0.369906
0.369902
0.3699
0.369899
0.369898
0.369897
0.369896
0.369895
0.369894
0.369893
0.369892
0.369892
0.369891
0.369891
0.36989
0.36989
0.36989
0.369889
0.369889
0.369889
1.13847
0.693086
0.414314
0.35854
0.355677
0.359199
0.362047
0.364004
0.365276
0.366074
0.36654
0.36677
0.366847
0.366847
0.366823
0.366803
0.366788
0.366779
0.366772
0.366767
0.366764
0.366761
0.36676
0.366759
0.366758
0.366758
0.366757
0.366757
0.366757
0.366757
0.366757
0.366757
0.366757
0.366757
0.366757
1.04248
0.659433
0.359181
0.317479
0.329861
0.342599
0.350919
0.35611
0.35936
0.361402
0.362664
0.363397
0.363769
0.363914
0.36394
0.363931
0.363916
0.363905
0.363897
0.36389
0.363885
0.363881
0.363878
0.363875
0.363872
0.36387
0.363868
0.363867
0.363865
0.363864
0.363863
0.363862
0.363861
0.363861
0.36386
0.977534
0.668448
0.358582
0.295968
0.309221
0.326906
0.33938
0.347547
0.352849
0.356294
0.358513
0.359893
0.360685
0.361074
0.361204
0.361229
0.361221
0.361205
0.36119
0.361177
0.361168
0.361161
0.361156
0.361152
0.36115
0.361148
0.361146
0.361145
0.361144
0.361143
0.361143
0.361142
0.361142
0.361142
0.361142
0.936035
0.692021
0.368917
0.283163
0.292361
0.312631
0.328216
0.338943
0.34617
0.351015
0.354237
0.356327
0.357608
0.358313
0.358606
0.358707
0.358729
0.358724
0.358712
0.358699
0.358688
0.358678
0.35867
0.358664
0.358658
0.358653
0.358649
0.358645
0.358642
0.358639
0.358637
0.358635
0.358633
0.358632
0.358631
0.909995
0.716429
0.392395
0.284179
0.281959
0.300793
0.31802
0.330672
0.339564
0.345722
0.349935
0.352756
0.354561
0.355622
0.356111
0.356306
0.356368
0.356374
0.356361
0.356343
0.356327
0.356313
0.356302
0.356294
0.356287
0.356282
0.356278
0.356275
0.356273
0.356271
0.356269
0.356268
0.356267
0.356266
0.356265
0.892256
0.733036
0.424255
0.289433
0.275492
0.291554
0.309213
0.323098
0.333289
0.34058
0.34571
0.34924
0.351577
0.35302
0.353739
0.354061
0.354192
0.354232
0.354233
0.35422
0.354202
0.354186
0.354171
0.354159
0.354148
0.354139
0.354131
0.354124
0.354117
0.354112
0.354108
0.354104
0.354101
0.354098
0.354096
0.87991
0.744061
0.456472
0.300477
0.272378
0.2843
0.301587
0.316229
0.327428
0.335685
0.341642
0.34584
0.348695
0.35052
0.351473
0.351925
0.352121
0.352188
0.352196
0.352182
0.35216
0.352138
0.35212
0.352104
0.352092
0.352081
0.352073
0.352066
0.35206
0.352056
0.352053
0.35205
0.352048
0.352046
0.352044
0.870136
0.747649
0.484306
0.315684
0.272827
0.279272
0.295291
0.310155
0.322046
0.331087
0.33777
0.342584
0.345933
0.348139
0.349343
0.349952
0.350246
0.350369
0.350406
0.350403
0.350382
0.350357
0.350334
0.350313
0.350295
0.350279
0.350265
0.350252
0.350242
0.350233
0.350225
0.350219
0.350214
0.350209
0.350205
0.863202
0.750216
0.508377
0.332019
0.274568
0.275676
0.290067
0.304852
0.317194
0.326851
0.334155
0.339526
0.343341
0.345914
0.347358
0.348106
0.348474
0.348632
0.348681
0.34868
0.348658
0.348628
0.3486
0.348575
0.348552
0.348533
0.348517
0.348504
0.348493
0.348485
0.34848
0.348475
0.348472
0.34847
0.348468
0.858945
0.751361
0.528134
0.348233
0.278135
0.273267
0.285779
0.300228
0.312832
0.322972
0.330808
0.336678
0.340923
0.343845
0.345538
0.34646
0.346949
0.347185
0.347277
0.347295
0.347275
0.347242
0.347208
0.347176
0.347146
0.34712
0.347097
0.347077
0.34706
0.347046
0.347035
0.347026
0.347019
0.347013
0.347008
0.856976
0.751341
0.544467
0.363836
0.282954
0.271863
0.282347
0.296284
0.308993
0.319493
0.327776
0.334093
0.338746
0.342015
0.343943
0.344998
0.345554
0.345819
0.345925
0.345948
0.345932
0.345896
0.345856
0.345817
0.345781
0.345749
0.345721
0.345699
0.345682
0.34567
0.345662
0.345657
0.345655
0.345653
0.345652
0.85726
0.7511
0.556744
0.378011
0.288321
0.271288
0.279571
0.292889
0.305611
0.316394
0.325064
0.331788
0.336812
0.340387
0.342551
0.343802
0.344514
0.344888
0.345055
0.345103
0.34509
0.345049
0.345003
0.344957
0.344914
0.344876
0.344842
0.344813
0.34479
0.344773
0.34476
0.344752
0.344746
0.344741
0.344737
0.858849
0.75092
0.566622
0.390473
0.293855
0.271411
0.277452
0.290074
0.302725
0.313716
0.322719
0.329808
0.335196
0.339132
0.341554
0.342912
0.343662
0.344047
0.344223
0.344288
0.344292
0.344257
0.344207
0.344153
0.344101
0.344053
0.344014
0.343982
0.343961
0.343948
0.343942
0.343942
0.343944
0.343947
0.34395
0.86241
0.750545
0.573193
0.400798
0.29934
0.271825
0.275779
0.287703
0.300261
0.311435
0.320744
0.328202
0.333959
0.338141
0.340747
0.342384
0.343366
0.343917
0.344195
0.344301
0.344317
0.344288
0.344239
0.344185
0.344132
0.344084
0.344044
0.344014
0.343994
0.343985
0.343983
0.343988
0.343996
0.344003
0.344011
0.868368
0.750494
0.578554
0.409109
0.304148
0.272596
0.274561
0.285843
0.29828
0.309604
0.31922
0.327012
0.333057
0.33771
0.340748
0.342507
0.343565
0.344172
0.344489
0.344629
0.344668
0.344653
0.344612
0.344562
0.344512
0.344466
0.34443
0.344406
0.344394
0.344393
0.344402
0.344418
0.344436
0.344452
0.344466
0.876278
0.750472
0.581634
0.415747
0.308579
0.273668
0.273695
0.284327
0.296708
0.308227
0.318098
0.326253
0.332898
0.337874
0.341074
0.343018
0.344209
0.344913
0.345302
0.345497
0.345578
0.345591
0.34557
0.345535
0.345497
0.345464
0.34544
0.345431
0.345436
0.345454
0.345483
0.345519
0.345556
0.345588
0.345617
0.886162
0.750383
0.583661
0.420528
0.312136
0.274709
0.273193
0.283351
0.295638
0.307277
0.317583
0.326294
0.333185
0.338468
0.341944
0.344137
0.345543
0.346412
0.346928
0.347222
0.347377
0.347445
0.347465
0.347462
0.347451
0.347445
0.34745
0.347471
0.34751
0.347565
0.347632
0.347704
0.347775
0.347837
0.347893
0.897954
0.750231
0.583914
0.423807
0.31514
0.275796
0.272989
0.282589
0.29495
0.307031
0.317718
0.326702
0.33399
0.339735
0.343659
0.34621
0.347867
0.348935
0.349613
0.350041
0.35031
0.350475
0.350575
0.350642
0.350696
0.350751
0.350818
0.350902
0.351005
0.351124
0.351254
0.351385
0.351511
0.35162
0.351721
0.911652
0.750287
0.583586
0.425937
0.317347
0.276814
0.273092
0.282523
0.295001
0.307257
0.318258
0.327685
0.335596
0.341955
0.346355
0.349278
0.35125
0.35258
0.353483
0.354108
0.354555
0.354879
0.355118
0.35531
0.355481
0.355649
0.355826
0.35602
0.35623
0.356454
0.356683
0.356909
0.357119
0.357302
0.357469
0.92719
0.75041
0.582701
0.426632
0.319044
0.277811
0.27339
0.282709
0.295336
0.307914
0.319429
0.329563
0.338136
0.345145
0.350117
0.353504
0.355877
0.357556
0.358769
0.359678
0.360394
0.360966
0.36143
0.36183
0.362197
0.362554
0.362916
0.363289
0.363675
0.364066
0.364453
0.364825
0.365167
0.365466
0.365735
0.944452
0.75057
0.580963
0.426381
0.320054
0.278764
0.273971
0.283204
0.296101
0.30923
0.32144
0.332292
0.341633
0.349419
0.355084
0.359054
0.361939
0.364079
0.365718
0.367033
0.368145
0.369097
0.369916
0.370649
0.371334
0.371998
0.372656
0.373316
0.373977
0.374629
0.375259
0.375855
0.376398
0.376877
0.377304
0.963323
0.750827
0.578654
0.425634
0.320664
0.279697
0.274816
0.284185
0.297547
0.311294
0.324248
0.335945
0.346189
0.354903
0.36141
0.366105
0.369644
0.372388
0.374607
0.376493
0.378179
0.379696
0.381051
0.382296
0.383473
0.384613
0.385732
0.386837
0.387921
0.388972
0.389975
0.390913
0.391767
0.392524
0.393193
0.983677
0.751171
0.57593
0.424158
0.32083
0.28064
0.275924
0.285632
0.299555
0.314047
0.327882
0.34057
0.351879
0.361697
0.369221
0.374813
0.37918
0.382714
0.385713
0.388386
0.390885
0.393221
0.395372
0.397389
0.399319
0.401191
0.403018
0.404802
0.406532
0.408191
0.409759
0.411218
0.412546
0.413734
0.414775
1.00534
0.751624
0.572873
0.422044
0.320747
0.281627
0.277313
0.28754
0.302169
0.31754
0.332405
0.346244
0.358795
0.369917
0.378667
0.385357
0.390763
0.395325
0.399363
0.403114
0.406755
0.410272
0.413588
0.416747
0.419793
0.422752
0.425635
0.428435
0.431132
0.433703
0.436124
0.438373
0.440428
0.442282
0.443894
1.02821
0.752207
0.569581
0.419603
0.320539
0.282725
0.278986
0.28989
0.305369
0.321766
0.337818
0.352982
0.366971
0.379621
0.389828
0.397851
0.40456
0.410436
0.415837
0.421036
0.426241
0.431401
0.436367
0.441175
0.445864
0.450449
0.45492
0.459254
0.463418
0.467379
0.471107
0.474573
0.477757
0.480655
0.483155
1.05203
0.752872
0.566107
0.41682
0.32014
0.283927
0.280957
0.29271
0.309189
0.326765
0.34417
0.360847
0.376489
0.390914
0.402842
0.412477
0.420809
0.428359
0.435541
0.442678
0.450035
0.457528
0.4649
0.47214
0.479253
0.486225
0.493032
0.499633
0.505982
0.512029
0.517732
0.523058
0.527983
0.532513
0.536403
1.07674
0.753709
0.562558
0.413923
0.319717
0.285298
0.283219
0.295969
0.313591
0.332497
0.351424
0.369805
0.387321
0.403776
0.417706
0.429277
0.43959
0.449234
0.458697
0.468379
0.478622
0.489278
0.49992
0.510498
0.521028
0.531491
0.541822
0.551923
0.561696
0.571056
0.579946
0.588328
0.596184
0.603534
0.609877
1.10204
0.754592
0.558931
0.410834
0.319277
0.286801
0.285784
0.299689
0.318597
0.338989
0.359612
0.379903
0.399535
0.418304
0.434569
0.448463
0.461205
0.473488
0.485903
0.49896
0.513125
0.528238
0.543737
0.559542
0.575558
0.591601
0.607483
0.623064
0.638262
0.653023
0.667304
0.681064
0.69428
0.706948
0.718024
0.373243
0.373251
0.373258
0.373266
0.373274
0.373283
0.373291
0.3733
0.373309
0.373318
0.373328
0.373338
0.373347
0.373356
0.373365
0.373374
0.373382
0.373391
0.373399
0.373406
0.373414
0.373421
0.369899
0.36992
0.369941
0.369963
0.369985
0.370008
0.370032
0.370056
0.370081
0.370107
0.370134
0.370161
0.370187
0.370213
0.370239
0.370263
0.370287
0.370311
0.370333
0.370355
0.370377
0.370398
0.366774
0.366808
0.366843
0.366878
0.366915
0.366952
0.366991
0.36703
0.367071
0.367113
0.367156
0.367199
0.367243
0.367285
0.367326
0.367365
0.367404
0.367441
0.367478
0.367513
0.367547
0.367581
0.363882
0.363926
0.363972
0.364019
0.364067
0.364116
0.364167
0.36422
0.364273
0.364329
0.364385
0.364443
0.364501
0.364557
0.364611
0.364664
0.364716
0.364766
0.364815
0.364862
0.364908
0.364953
0.361169
0.361224
0.361281
0.361339
0.3614
0.361461
0.361525
0.36159
0.361657
0.361726
0.361797
0.361869
0.361941
0.36201
0.362078
0.362144
0.362208
0.36227
0.36233
0.362389
0.362445
0.362501
0.358661
0.358725
0.35879
0.358858
0.358927
0.358998
0.359071
0.359147
0.359224
0.359304
0.359386
0.35947
0.359553
0.359634
0.359713
0.35979
0.359865
0.359938
0.360008
0.360077
0.360144
0.360209
0.3563
0.356373
0.356448
0.356525
0.356604
0.356686
0.35677
0.356856
0.356945
0.357036
0.35713
0.357226
0.357321
0.357414
0.357504
0.357592
0.357677
0.357759
0.35784
0.357918
0.357994
0.358068
0.354133
0.354211
0.354292
0.354375
0.35446
0.354548
0.354639
0.354733
0.354829
0.354928
0.355031
0.355135
0.35524
0.355341
0.355441
0.355537
0.355631
0.355723
0.355812
0.355899
0.355984
0.356066
0.352085
0.352171
0.352259
0.35235
0.352444
0.35254
0.35264
0.352743
0.352849
0.352958
0.35307
0.353185
0.353299
0.353409
0.353517
0.353622
0.353725
0.353824
0.353921
0.354015
0.354107
0.354197
0.350246
0.350333
0.350423
0.350515
0.350611
0.350709
0.350811
0.350916
0.351025
0.351137
0.351254
0.351374
0.351493
0.351611
0.351725
0.351837
0.351947
0.352053
0.352157
0.352259
0.352357
0.352453
0.348512
0.348603
0.348697
0.348794
0.348895
0.349
0.349108
0.34922
0.349336
0.349456
0.349579
0.349706
0.349831
0.349954
0.350073
0.35019
0.350303
0.350415
0.350523
0.350629
0.350733
0.350834
0.347047
0.347133
0.34722
0.347311
0.347405
0.347502
0.347603
0.347708
0.347817
0.347932
0.348052
0.348177
0.348303
0.348428
0.348551
0.348672
0.34879
0.348906
0.349018
0.349128
0.349236
0.349341
0.345693
0.345775
0.345859
0.345948
0.346042
0.346141
0.346245
0.346354
0.346467
0.346584
0.346705
0.346829
0.346952
0.347073
0.347191
0.347308
0.347423
0.347537
0.347649
0.347759
0.347868
0.347976
0.344766
0.344829
0.34489
0.344953
0.345018
0.345086
0.345159
0.345237
0.345322
0.345416
0.345519
0.345631
0.345748
0.345866
0.345985
0.346102
0.346217
0.346329
0.346439
0.346546
0.346651
0.346756
0.34397
0.344004
0.344043
0.344095
0.344156
0.344224
0.344299
0.344379
0.344463
0.344549
0.344636
0.344724
0.344812
0.344901
0.344992
0.345085
0.345181
0.34528
0.34538
0.345482
0.345585
0.34569
0.344011
0.343991
0.343952
0.343914
0.343881
0.343854
0.343836
0.343829
0.343834
0.343857
0.343907
0.343977
0.344059
0.344145
0.344233
0.344321
0.344406
0.344488
0.344569
0.344648
0.344727
0.344812
0.344442
0.344362
0.34427
0.344186
0.344109
0.344038
0.343976
0.343925
0.343883
0.343847
0.343802
0.343765
0.343741
0.343732
0.343737
0.343757
0.343798
0.343854
0.343921
0.343993
0.344069
0.344155
0.34556
0.345383
0.345189
0.345012
0.344844
0.344686
0.344538
0.344401
0.344275
0.34416
0.344058
0.343968
0.343895
0.34384
0.343801
0.343774
0.343746
0.343721
0.343704
0.343697
0.343701
0.343728
0.347779
0.347435
0.347064
0.346718
0.34639
0.346077
0.345782
0.345508
0.345252
0.345014
0.344798
0.344603
0.344433
0.34429
0.344169
0.344067
0.343983
0.343913
0.343857
0.343813
0.343782
0.34378
0.351532
0.350957
0.350344
0.349767
0.34921
0.348672
0.348151
0.34765
0.347173
0.346725
0.346308
0.345925
0.345584
0.34529
0.345039
0.344824
0.34464
0.344483
0.344348
0.344233
0.344137
0.344085
0.357181
0.356276
0.355323
0.35442
0.353546
0.352698
0.351877
0.351085
0.350325
0.349602
0.348918
0.348279
0.3477
0.347184
0.346723
0.346317
0.345961
0.34565
0.345378
0.345138
0.344933
0.344796
0.365319
0.36395
0.362523
0.361169
0.359855
0.358578
0.357338
0.356139
0.354984
0.353877
0.352822
0.35183
0.350923
0.350113
0.349387
0.348739
0.348163
0.34765
0.347195
0.346788
0.346429
0.346161
0.376723
0.374708
0.372629
0.370653
0.368734
0.366864
0.365046
0.363285
0.361584
0.359949
0.358384
0.356906
0.355551
0.354334
0.353242
0.352261
0.351383
0.350596
0.349892
0.349259
0.348696
0.348261
0.392411
0.389499
0.386528
0.383702
0.380955
0.378275
0.375667
0.373136
0.370687
0.368329
0.366067
0.363925
0.361957
0.360186
0.358593
0.35716
0.355872
0.354715
0.353675
0.352738
0.351901
0.35124
0.413739
0.40959
0.405402
0.401417
0.397539
0.393754
0.390067
0.386484
0.383016
0.379671
0.376461
0.373417
0.370617
0.368096
0.365826
0.363782
0.361941
0.360286
0.358797
0.357453
0.35625
0.355285
0.442548
0.436686
0.430841
0.425274
0.419853
0.414561
0.409402
0.404387
0.399528
0.39484
0.390339
0.386069
0.382142
0.378606
0.375422
0.372556
0.369976
0.367655
0.365567
0.363684
0.361996
0.360628
0.481436
0.473176
0.465051
0.457302
0.449753
0.442385
0.435204
0.428226
0.421469
0.414955
0.408701
0.402772
0.397322
0.392416
0.388001
0.38403
0.38046
0.377251
0.374367
0.371769
0.369441
0.367535
0.534207
0.522478
0.511188
0.500436
0.489951
0.479707
0.469719
0.460012
0.450618
0.44157
0.432899
0.424696
0.417173
0.410417
0.404351
0.398904
0.394013
0.389623
0.385684
0.382142
0.378972
0.376359
0.607106
0.589797
0.573674
0.558538
0.543911
0.529687
0.51585
0.502418
0.489421
0.476899
0.464896
0.45354
0.443139
0.433823
0.42549
0.418039
0.411378
0.40542
0.400091
0.395309
0.391034
0.387476
0.714665
0.687509
0.662648
0.639721
0.618049
0.597409
0.577694
0.55884
0.540806
0.523569
0.507124
0.491589
0.477346
0.464561
0.453109
0.442879
0.43376
0.425646
0.41843
0.411999
0.406283
0.401515
0.373425
0.373425
0.373425
0.373425
0.373425
0.373425
0.370408
0.370408
0.370408
0.370408
0.370408
0.370408
0.367597
0.367597
0.367597
0.367597
0.367597
0.367597
0.364975
0.364975
0.364975
0.364975
0.364975
0.364975
0.362528
0.362528
0.362528
0.362528
0.362528
0.362528
0.360242
0.360242
0.360242
0.360242
0.360242
0.360242
0.358105
0.358105
0.358105
0.358105
0.358105
0.358105
0.356107
0.356107
0.356107
0.356107
0.356107
0.356108
0.354241
0.354241
0.354241
0.354241
0.354241
0.354242
0.352501
0.352501
0.352501
0.352501
0.352501
0.352502
0.350884
0.350884
0.350884
0.350884
0.350885
0.350886
0.349392
0.349391
0.349391
0.349391
0.349392
0.349395
0.348029
0.348028
0.348029
0.34803
0.34803
0.348032
0.346806
0.346801
0.346801
0.346801
0.346803
0.34681
0.345742
0.34574
0.345743
0.345744
0.345743
0.345748
0.344847
0.344834
0.344833
0.344835
0.344838
0.344854
0.344197
0.344191
0.344196
0.344197
0.344195
0.344205
0.343731
0.343706
0.343709
0.343711
0.343713
0.343742
0.343768
0.343739
0.343744
0.343746
0.343747
0.343781
0.344043
0.344004
0.344012
0.344015
0.344013
0.344058
0.344706
0.344652
0.344664
0.344667
0.344663
0.344725
0.345994
0.345915
0.345931
0.345936
0.345929
0.346017
0.348001
0.347897
0.347918
0.347924
0.347913
0.348028
0.350853
0.350717
0.350747
0.350753
0.350735
0.350885
0.354729
0.354551
0.354592
0.354599
0.354572
0.354765
0.359848
0.359623
0.359678
0.359686
0.359647
0.35989
0.366458
0.366172
0.366245
0.366255
0.366201
0.366506
0.374901
0.374551
0.374649
0.37466
0.374584
0.374956
0.385496
0.385058
0.385181
0.385194
0.385096
0.385559
0.398899
0.398353
0.398496
0.398511
0.398395
0.398971
0.373421
0.373414
0.373406
0.373398
0.37339
0.373382
0.373374
0.373365
0.373356
0.373347
0.373337
0.373328
0.373318
0.373309
0.373299
0.373291
0.373282
0.373274
0.373265
0.373257
0.37325
0.373242
0.370397
0.370376
0.370355
0.370333
0.37031
0.370286
0.370263
0.370238
0.370213
0.370187
0.370161
0.370134
0.370107
0.370081
0.370056
0.370032
0.370008
0.369985
0.369963
0.369941
0.36992
0.3699
0.36758
0.367547
0.367512
0.367476
0.36744
0.367402
0.367364
0.367324
0.367284
0.367242
0.367199
0.367155
0.367112
0.36707
0.367029
0.366989
0.36695
0.366913
0.366876
0.366841
0.366806
0.366773
0.364953
0.364908
0.364861
0.364814
0.364765
0.364714
0.364663
0.36461
0.364556
0.364501
0.364444
0.364386
0.364329
0.364273
0.364219
0.364167
0.364116
0.364067
0.36402
0.363973
0.363928
0.363885
0.362501
0.362445
0.362387
0.362328
0.362268
0.362206
0.362142
0.362077
0.36201
0.361941
0.36187
0.361798
0.361726
0.361657
0.361589
0.361524
0.36146
0.361399
0.361339
0.361281
0.361224
0.36117
0.36021
0.360144
0.360076
0.360007
0.359936
0.359863
0.359789
0.359712
0.359634
0.359554
0.359472
0.359388
0.359306
0.359226
0.359148
0.359073
0.359
0.35893
0.358862
0.358795
0.358731
0.358669
0.358068
0.357994
0.357917
0.357839
0.357758
0.357676
0.357591
0.357504
0.357415
0.357323
0.35723
0.357134
0.357039
0.356948
0.356859
0.356772
0.356688
0.356607
0.356528
0.356452
0.356378
0.356306
0.356067
0.355984
0.355899
0.355812
0.355722
0.355631
0.355537
0.355441
0.355343
0.355242
0.35514
0.355036
0.354933
0.354833
0.354737
0.354644
0.354554
0.354467
0.354383
0.354301
0.354223
0.354146
0.354198
0.354107
0.354015
0.353921
0.353824
0.353725
0.353623
0.353519
0.353413
0.353304
0.353192
0.353078
0.352965
0.352856
0.35275
0.352648
0.352549
0.352453
0.35236
0.352271
0.352184
0.352101
0.352455
0.352358
0.352259
0.352158
0.352054
0.351948
0.351839
0.351729
0.351615
0.3515
0.351382
0.351263
0.351146
0.351034
0.350925
0.350821
0.35072
0.350623
0.350529
0.350439
0.350352
0.350269
0.350836
0.350734
0.35063
0.350525
0.350416
0.350306
0.350194
0.350079
0.349961
0.349841
0.349718
0.349593
0.349469
0.34935
0.349234
0.349123
0.349016
0.348913
0.348814
0.34872
0.34863
0.348544
0.349344
0.349238
0.349131
0.349021
0.348909
0.348795
0.348678
0.348559
0.348438
0.348315
0.348192
0.348068
0.347947
0.347833
0.347724
0.347619
0.34752
0.347424
0.347333
0.347247
0.347165
0.347086
0.34798
0.347872
0.347764
0.347654
0.347543
0.347431
0.347318
0.347203
0.347087
0.346969
0.346849
0.346727
0.346606
0.346489
0.346377
0.346269
0.346167
0.346071
0.345982
0.345899
0.345824
0.345754
0.346762
0.346657
0.346553
0.346447
0.346338
0.346228
0.346115
0.346
0.345885
0.34577
0.345656
0.345545
0.345442
0.345349
0.345264
0.345187
0.345116
0.34505
0.344988
0.344931
0.34488
0.344831
0.345697
0.345593
0.345492
0.345392
0.345294
0.345198
0.345105
0.345015
0.344928
0.344842
0.344757
0.34467
0.344583
0.344496
0.344413
0.344334
0.344261
0.344196
0.344142
0.344102
0.344082
0.344074
0.344821
0.344738
0.344661
0.344585
0.344507
0.344427
0.344345
0.344261
0.344176
0.344094
0.344016
0.343948
0.3439
0.343879
0.343875
0.343883
0.343903
0.343934
0.343975
0.344026
0.344084
0.344131
0.344167
0.344083
0.34401
0.343942
0.34388
0.343829
0.343797
0.343782
0.343782
0.343795
0.343821
0.34386
0.343903
0.343936
0.343976
0.344027
0.34409
0.344165
0.34425
0.344348
0.344463
0.344579
0.343746
0.343724
0.343725
0.343738
0.343761
0.343791
0.343822
0.343855
0.343898
0.343957
0.344031
0.344121
0.344222
0.344336
0.34446
0.344595
0.344742
0.344903
0.345079
0.345273
0.345494
0.345716
0.3438
0.343808
0.343845
0.343896
0.343959
0.344036
0.344127
0.344235
0.344361
0.344507
0.344678
0.344872
0.345087
0.345323
0.345576
0.345846
0.346139
0.346453
0.346789
0.347153
0.347558
0.347961
0.344109
0.344169
0.344273
0.344397
0.34454
0.344707
0.3449
0.345124
0.345381
0.345679
0.346018
0.346399
0.346815
0.347259
0.347729
0.348222
0.348736
0.349271
0.349833
0.350428
0.351079
0.351721
0.344826
0.344974
0.345191
0.345442
0.345727
0.346051
0.346419
0.346835
0.347301
0.347817
0.348391
0.349025
0.349707
0.350424
0.351172
0.351951
0.352759
0.353598
0.354471
0.355388
0.356379
0.357357
0.346199
0.346481
0.346855
0.347277
0.347748
0.348276
0.348867
0.349526
0.350257
0.351067
0.351963
0.352947
0.353999
0.355095
0.356233
0.357411
0.358629
0.359888
0.361191
0.362552
0.364011
0.365453
0.348308
0.34876
0.349342
0.349995
0.350719
0.351525
0.352421
0.353413
0.354511
0.355724
0.357063
0.358528
0.360088
0.361708
0.363385
0.365115
0.366898
0.368734
0.370628
0.372595
0.374694
0.376778
0.351296
0.35198
0.352841
0.353804
0.354869
0.35605
0.357358
0.358805
0.360403
0.362166
0.364108
0.366231
0.368487
0.370825
0.37324
0.375727
0.378283
0.380908
0.383607
0.3864
0.389369
0.392332
0.355352
0.356346
0.357581
0.358956
0.360477
0.362162
0.364026
0.366087
0.368361
0.370868
0.37363
0.376647
0.37985
0.383167
0.38659
0.39011
0.393722
0.397425
0.401222
0.40514
0.40929
0.413458
0.360708
0.362114
0.363841
0.365765
0.367893
0.37025
0.372859
0.375743
0.378929
0.382443
0.386316
0.390549
0.395042
0.399695
0.404492
0.409423
0.414476
0.419647
0.424941
0.430389
0.436141
0.441964
0.367631
0.369585
0.371963
0.374612
0.377546
0.3808
0.384406
0.388397
0.39281
0.397683
0.403058
0.408937
0.415182
0.421652
0.428327
0.435188
0.442221
0.449415
0.456773
0.464329
0.472277
0.480404
0.376473
0.379148
0.382383
0.385991
0.389993
0.394439
0.399373
0.404844
0.410903
0.41761
0.425027
0.433161
0.441822
0.450813
0.460099
0.469649
0.479434
0.489433
0.49964
0.510097
0.521084
0.532523
0.387615
0.391253
0.395612
0.400478
0.405887
0.411915
0.418628
0.426102
0.434419
0.44366
0.453911
0.46517
0.477165
0.489615
0.50247
0.515689
0.529241
0.543111
0.557318
0.571977
0.587573
0.60432
0.40168
0.406547
0.412368
0.418901
0.426213
0.434409
0.443583
0.453831
0.465246
0.477923
0.491957
0.50736
0.523794
0.540929
0.558758
0.577292
0.596563
0.616627
0.637593
0.659701
0.68365
0.709857
0.373239
0.373238
0.373238
0.373238
0.373238
0.373237
0.373237
0.373237
0.373237
0.373237
0.373237
0.373237
0.373237
0.373237
0.373238
0.373239
0.37324
0.373241
0.373242
0.373244
0.373245
0.373248
0.373258
0.373282
0.373331
0.373423
0.373578
0.373838
0.37433
0.375724
0.380424
0.398722
0.49584
0.87848
0.991305
0.36989
0.36989
0.369891
0.369891
0.369891
0.369892
0.369892
0.369893
0.369893
0.369893
0.369894
0.369894
0.369894
0.369895
0.369896
0.369897
0.369898
0.369899
0.369902
0.369906
0.369915
0.369936
0.369971
0.370011
0.370044
0.370039
0.369985
0.369922
0.37002
0.370435
0.37259
0.386773
0.47979
0.830757
1.19171
0.366756
0.366756
0.366756
0.366756
0.366756
0.366756
0.366756
0.366757
0.366757
0.366758
0.366758
0.366759
0.366761
0.366763
0.366766
0.36677
0.366774
0.366781
0.366791
0.366805
0.366826
0.36685
0.36685
0.366774
0.366544
0.366078
0.365279
0.364005
0.362046
0.359193
0.355663
0.358514
0.41429
0.69309
1.13864
0.363864
0.363864
0.363865
0.363866
0.363867
0.363868
0.363869
0.36387
0.363871
0.363872
0.363874
0.363876
0.363879
0.363882
0.363886
0.363892
0.363899
0.363908
0.363921
0.363936
0.363945
0.36392
0.363775
0.363403
0.362668
0.361406
0.359361
0.35611
0.350916
0.342594
0.329854
0.317467
0.359172
0.659314
1.04276
0.361143
0.361143
0.361144
0.361144
0.361145
0.361146
0.361147
0.361149
0.36115
0.361153
0.361156
0.361159
0.361164
0.36117
0.361177
0.361187
0.361199
0.361214
0.36123
0.361238
0.361213
0.361084
0.360696
0.359904
0.358524
0.356304
0.352858
0.347556
0.339389
0.326916
0.30923
0.295965
0.358511
0.668279
0.978008
0.358639
0.35864
0.358642
0.358644
0.358646
0.358648
0.35865
0.358653
0.358656
0.35866
0.358664
0.35867
0.358676
0.358685
0.358696
0.358709
0.358723
0.358737
0.358744
0.358723
0.358624
0.358331
0.357627
0.356345
0.354254
0.351032
0.346187
0.338961
0.328236
0.312655
0.29239
0.283162
0.368817
0.691649
0.936658
0.356272
0.356273
0.356275
0.356277
0.356279
0.356282
0.356285
0.356289
0.356293
0.356299
0.356306
0.356313
0.356323
0.356335
0.356349
0.356366
0.356384
0.356397
0.356391
0.356329
0.356135
0.355646
0.354586
0.352781
0.349961
0.345749
0.339593
0.330705
0.31806
0.300842
0.282003
0.284178
0.392334
0.71633
0.910963
0.35411
0.354114
0.354117
0.354121
0.354125
0.35413
0.354135
0.35414
0.354147
0.354154
0.354163
0.354174
0.354187
0.354203
0.354223
0.354244
0.354261
0.354263
0.354226
0.354098
0.353777
0.35306
0.351618
0.349281
0.345752
0.340623
0.333335
0.323151
0.309275
0.291627
0.275549
0.289389
0.423856
0.73241
0.893368
0.352062
0.352065
0.352069
0.352073
0.352079
0.352085
0.352092
0.352099
0.352108
0.352119
0.352131
0.352146
0.352163
0.352183
0.352206
0.352228
0.352243
0.352234
0.352167
0.351971
0.35152
0.350569
0.348746
0.345893
0.341696
0.335743
0.327493
0.316304
0.301674
0.284393
0.272426
0.300378
0.456143
0.743885
0.881415
0.350231
0.350237
0.350244
0.350252
0.35026
0.350269
0.350278
0.350288
0.350299
0.350312
0.350327
0.350346
0.350369
0.350396
0.350426
0.350452
0.350463
0.350432
0.350315
0.350025
0.349419
0.348216
0.346012
0.342663
0.337852
0.331174
0.322139
0.310257
0.295403
0.27938
0.272861
0.315454
0.483834
0.747329
0.871973
0.348505
0.348512
0.34852
0.34853
0.348541
0.348553
0.348565
0.348579
0.348595
0.348612
0.348632
0.348655
0.348682
0.348712
0.348743
0.348767
0.348768
0.348718
0.348559
0.348192
0.347447
0.346006
0.343436
0.339623
0.334255
0.326956
0.317307
0.304978
0.290206
0.275795
0.274574
0.331725
0.507856
0.749956
0.865427
0.347054
0.347065
0.347078
0.347093
0.347107
0.347122
0.347138
0.347153
0.347171
0.347191
0.347215
0.347243
0.347277
0.347317
0.347357
0.347387
0.347382
0.347302
0.347078
0.346596
0.345676
0.343982
0.341061
0.336817
0.33095
0.323119
0.312986
0.300391
0.285946
0.273384
0.27807
0.347735
0.527503
0.751106
0.86153
0.345726
0.345739
0.345756
0.345775
0.345795
0.345817
0.345839
0.345861
0.345884
0.345909
0.345937
0.345969
0.346005
0.346046
0.346084
0.346104
0.346079
0.345968
0.345701
0.345147
0.344099
0.342179
0.338912
0.334258
0.327942
0.319663
0.309169
0.296468
0.282531
0.271978
0.282844
0.363269
0.543821
0.751346
0.860085
0.344816
0.344835
0.344856
0.34488
0.344904
0.344927
0.344951
0.344975
0.344999
0.345027
0.345058
0.345096
0.34514
0.345189
0.345237
0.345263
0.345236
0.345097
0.344743
0.34404
0.342788
0.340616
0.337039
0.332014
0.325289
0.31662
0.305841
0.29312
0.279783
0.271397
0.288095
0.377212
0.555969
0.751228
0.8606
0.344083
0.344108
0.344141
0.344175
0.344211
0.344247
0.34428
0.344311
0.34434
0.344369
0.3444
0.344435
0.344476
0.344521
0.344558
0.34456
0.34449
0.34429
0.343899
0.343155
0.34181
0.339412
0.335469
0.33007
0.322976
0.313971
0.302976
0.290319
0.277669
0.27151
0.293563
0.38953
0.565768
0.751218
0.86257
0.344163
0.344189
0.344224
0.344262
0.344301
0.344339
0.344375
0.344406
0.344434
0.344461
0.344489
0.34452
0.344556
0.344595
0.344625
0.344616
0.344528
0.344291
0.343757
0.342783
0.341143
0.338487
0.334314
0.328556
0.321081
0.311762
0.300581
0.288008
0.276031
0.271902
0.298891
0.399603
0.572289
0.75117
0.866712
0.344646
0.344677
0.344717
0.344761
0.344805
0.344846
0.344882
0.344912
0.344935
0.344954
0.344972
0.344991
0.345014
0.345037
0.345047
0.345013
0.344889
0.344595
0.344006
0.342957
0.341201
0.338199
0.333474
0.327396
0.319606
0.30997
0.298621
0.286156
0.274808
0.272642
0.303611
0.407817
0.577648
0.751247
0.873137
0.34583
0.345861
0.345906
0.345954
0.346
0.346042
0.346076
0.346098
0.346109
0.346111
0.346107
0.346101
0.346094
0.346085
0.346057
0.345978
0.345794
0.34542
0.344734
0.343554
0.341616
0.338423
0.333478
0.326801
0.318563
0.308678
0.297141
0.284713
0.27398
0.273675
0.307883
0.414232
0.580661
0.751361
0.881548
0.348152
0.348179
0.348227
0.348278
0.348327
0.348367
0.348392
0.348399
0.348386
0.348355
0.348308
0.348252
0.348189
0.348117
0.348018
0.347854
0.347567
0.347061
0.346207
0.344809
0.342601
0.339115
0.333825
0.326902
0.318185
0.307774
0.296076
0.283745
0.273466
0.27468
0.311353
0.418951
0.58268
0.751381
0.891929
0.352004
0.352009
0.352041
0.352077
0.352108
0.352126
0.352123
0.352094
0.352031
0.351938
0.351817
0.351674
0.351515
0.351336
0.351119
0.350827
0.350398
0.349728
0.348675
0.347029
0.344489
0.340539
0.334732
0.3274
0.318377
0.307681
0.295532
0.283052
0.273304
0.27574
0.314222
0.422048
0.582898
0.75144
0.904264
0.357754
0.357718
0.357716
0.357714
0.357705
0.357677
0.357617
0.357516
0.357368
0.357169
0.356925
0.356641
0.356324
0.355972
0.355566
0.355075
0.354438
0.35354
0.352222
0.350261
0.347341
0.342912
0.3365
0.328516
0.319007
0.307952
0.295624
0.283061
0.273418
0.276727
0.316355
0.424157
0.58256
0.751563
0.918499
0.365996
0.365886
0.365814
0.365738
0.365647
0.365526
0.36536
0.365134
0.364839
0.36447
0.364028