/*--------------------------------*- C++ -*----------------------------------*\
  =========                 |
  \\      /  F ield         | OpenFOAM: The Open Source CFD Toolbox
   \\    /   O peration     | Website:  https://openfoam.org
    \\  /    A nd           | Version:  8
     \\/     M anipulation  |
\*---------------------------------------------------------------------------*/
FoamFile
{
    version     2.0;
    format      ascii;
    class       volVectorField;
    location    "1800";
    object      U;
}
// * * * * * * * * * * * * * * * * * * * * * * * * * * * * * * * * * * * * * //

dimensions      [0 1 -1 0 0 0 0];

internalField   nonuniform List<vector> 
15677
(
(-2.53764 9.06504 0)
(0.791325 10.3666 0)
(0.128849 10.0153 0)
(0.00641758 10.0051 0)
(0.0282858 10.0104 0)
(0.0300889 10.0104 0)
(0.0275329 10.0096 0)
(0.0251832 10.0086 0)
(0.02299 10.0075 0)
(0.0207197 10.0064 0)
(0.0183876 10.0054 0)
(0.0160541 10.0044 0)
(0.0137719 10.0035 0)
(0.0116037 10.0028 0)
(0.00976284 10.0022 0)
(0.00828413 10.0017 0)
(0.00706472 10.0013 0)
(0.00605082 10.0011 0)
(0.00520162 10.0009 0)
(0.00448638 10.0007 0)
(0.00388206 10.0006 0)
(0.00338777 10.0005 0)
(0.00299638 10.0004 0)
(0.00268472 10.0003 0)
(0.00243309 10.0003 0)
(0.00222724 10.0003 0)
(0.00205699 10.0002 0)
(0.00191488 10.0002 0)
(0.00179534 10.0002 0)
(0.00169412 10.0002 0)
(0.00160791 10.0002 0)
(0.00153411 10.0002 0)
(0.00147059 10.0001 0)
(0.00141571 10.0001 0)
(0.00136878 10.0001 0)
(-1.33217 8.266 0)
(0.665856 10.1115 0)
(-0.0358114 10.0873 0)
(0.0131164 10.0515 0)
(0.0455655 10.0447 0)
(0.0398988 10.0406 0)
(0.0370413 10.0373 0)
(0.0353675 10.0342 0)
(0.0334959 10.0312 0)
(0.0313821 10.0281 0)
(0.0291009 10.0249 0)
(0.0266736 10.0216 0)
(0.0241285 10.0183 0)
(0.0215025 10.0152 0)
(0.0190741 10.0126 0)
(0.0169521 10.0106 0)
(0.0150532 10.009 0)
(0.0133545 10.0076 0)
(0.0118348 10.0065 0)
(0.0104755 10.0056 0)
(0.00926101 10.0048 0)
(0.00822336 10.0042 0)
(0.00737651 10.0037 0)
(0.00668598 10.0033 0)
(0.00611838 10.003 0)
(0.00564827 10.0028 0)
(0.00525619 10.0026 0)
(0.00492711 10.0024 0)
(0.00464929 10.0022 0)
(0.00441346 10.0021 0)
(0.00421223 10.002 0)
(0.00403967 10.0019 0)
(0.00389099 10.0018 0)
(0.00376244 10.0018 0)
(0.00365145 10.0017 0)
(-0.415234 7.73463 0)
(0.294353 9.67963 0)
(-0.0467689 10.0464 0)
(0.0452651 10.0702 0)
(0.0440722 10.0626 0)
(0.0377946 10.0567 0)
(0.0370242 10.0526 0)
(0.0360001 10.0491 0)
(0.0345681 10.0457 0)
(0.0329429 10.0423 0)
(0.0311219 10.0388 0)
(0.0290758 10.035 0)
(0.0268038 10.0311 0)
(0.0243344 10.0271 0)
(0.0219508 10.0235 0)
(0.0197964 10.0205 0)
(0.0178082 10.018 0)
(0.0159797 10.0158 0)
(0.0143028 10.0139 0)
(0.01277 10.0123 0)
(0.0113739 10.0108 0)
(0.0101607 10.0096 0)
(0.00915504 10.0087 0)
(0.00832379 10.0079 0)
(0.0076332 10.0072 0)
(0.00705659 10.0067 0)
(0.00657277 10.0062 0)
(0.00616489 10.0059 0)
(0.00581942 10.0055 0)
(0.00552547 10.0052 0)
(0.0052742 10.005 0)
(0.00505847 10.0048 0)
(0.00487252 10.0046 0)
(0.00471169 10.0044 0)
(0.00457082 10.0043 0)
(-0.0847604 7.35011 0)
(0.0985519 9.29045 0)
(-0.00433405 9.93922 0)
(0.0509129 10.0615 0)
(0.0385513 10.0704 0)
(0.0373737 10.0672 0)
(0.0371351 10.0634 0)
(0.0359849 10.0598 0)
(0.034639 10.0564 0)
(0.0331483 10.053 0)
(0.0314484 10.0494 0)
(0.0295036 10.0456 0)
(0.0272923 10.0415 0)
(0.0248148 10.0371 0)
(0.0223589 10.033 0)
(0.0201066 10.0294 0)
(0.0180034 10.0263 0)
(0.0160514 10.0235 0)
(0.0142498 10.0211 0)
(0.0125962 10.0188 0)
(0.0110874 10.0168 0)
(0.00977881 10.0151 0)
(0.00870092 10.0137 0)
(0.00781765 10.0125 0)
(0.00709136 10.0115 0)
(0.00649196 10.0106 0)
(0.00599534 10.0099 0)
(0.00558218 10.0093 0)
(0.00523689 10.0088 0)
(0.00494697 10.0083 0)
(0.00470231 10.0079 0)
(0.00449484 10.0075 0)
(0.00431829 10.0072 0)
(0.00416768 10.007 0)
(0.00403427 10.0067 0)
(-0.00291611 7.07814 0)
(0.0303968 8.97387 0)
(0.0201322 9.80057 0)
(0.0422863 10.0326 0)
(0.0348879 10.0718 0)
(0.0359987 10.0757 0)
(0.0353391 10.0735 0)
(0.0341721 10.0703 0)
(0.0328869 10.0669 0)
(0.0314119 10.0634 0)
(0.029713 10.0598 0)
(0.0277681 10.0559 0)
(0.0255506 10.0516 0)
(0.0230425 10.0469 0)
(0.0205171 10.0424 0)
(0.0181722 10.0383 0)
(0.0159639 10.0346 0)
(0.0139055 10.0312 0)
(0.0120046 10.0281 0)
(0.0102653 10.0253 0)
(0.00868918 10.0227 0)
(0.00733841 10.0205 0)
(0.00624381 10.0185 0)
(0.00536414 10.0169 0)
(0.00465665 10.0155 0)
(0.00408683 10.0143 0)
(0.00362693 10.0132 0)
(0.00325471 10.0123 0)
(0.00295239 10.0116 0)
(0.00270585 10.0109 0)
(0.00250386 10.0103 0)
(0.00233767 10.0098 0)
(0.00220078 10.0094 0)
(0.00208818 10.009 0)
(0.00198602 10.0087 0)
(0.00799989 6.88888 0)
(0.0126938 8.71688 0)
(0.0254769 9.65017 0)
(0.0341382 9.98974 0)
(0.032611 10.0666 0)
(0.0335488 10.0811 0)
(0.032677 10.0822 0)
(0.0315574 10.0801 0)
(0.0302133 10.077 0)
(0.0286203 10.0736 0)
(0.0267789 10.07 0)
(0.0246714 10.0661 0)
(0.0222719 10.0617 0)
(0.0195615 10.0568 0)
(0.0168266 10.0518 0)
(0.0142821 10.0473 0)
(0.0118869 10.043 0)
(0.00966205 10.039 0)
(0.00762168 10.0353 0)
(0.00577539 10.0318 0)
(0.00412924 10.0285 0)
(0.00274944 10.0256 0)
(0.00166196 10.023 0)
(0.000816732 10.0209 0)
(0.000163257 10.019 0)
(-0.000339386 10.0174 0)
(-0.000724087 10.016 0)
(-0.00101704 10.0148 0)
(-0.00123894 10.0137 0)
(-0.001406 10.0128 0)
(-0.00153089 10.012 0)
(-0.00162321 10.0113 0)
(-0.00168977 10.0107 0)
(-0.00173532 10.0102 0)
(-0.0017811 10.0097 0)
(0.00561239 6.75492 0)
(0.00885484 8.51143 0)
(0.0230969 9.5038 0)
(0.0288658 9.93791 0)
(0.0302785 10.0564 0)
(0.0306595 10.0845 0)
(0.0298028 10.0903 0)
(0.0286061 10.0899 0)
(0.027055 10.0875 0)
(0.0251967 10.0844 0)
(0.0230435 10.0808 0)
(0.020581 10.0768 0)
(0.0177881 10.0722 0)
(0.0146515 10.0671 0)
(0.0115018 10.0617 0)
(0.00858375 10.0567 0)
(0.00585276 10.0518 0)
(0.00333621 10.0471 0)
(0.00105498 10.0426 0)
(-0.000975718 10.0383 0)
(-0.00274526 10.0342 0)
(-0.00418208 10.0305 0)
(-0.00526872 10.0272 0)
(-0.00607004 10.0244 0)
(-0.00664927 10.0219 0)
(-0.00705749 10.0198 0)
(-0.00733544 10.0179 0)
(-0.00751523 10.0163 0)
(-0.00762188 10.0149 0)
(-0.00767466 10.0137 0)
(-0.00768838 10.0126 0)
(-0.007674 10.0117 0)
(-0.0076388 10.0109 0)
(-0.00758717 10.0102 0)
(-0.00755083 10.0096 0)
(0.00302131 6.65797 0)
(0.00743593 8.35178 0)
(0.0190784 9.3687 0)
(0.0250406 9.88216 0)
(0.0274424 10.0438 0)
(0.0275028 10.0874 0)
(0.0266077 10.099 0)
(0.0251726 10.1009 0)
(0.0232784 10.0994 0)
(0.0210017 10.0966 0)
(0.0183585 10.0931 0)
(0.0153403 10.0889 0)
(0.011933 10.0842 0)
(0.00813228 10.0786 0)
(0.00434188 10.0728 0)
(0.000852363 10.0671 0)
(-0.00238966 10.0614 0)
(-0.0053495 10.0558 0)
(-0.00799867 10.0504 0)
(-0.0103153 10.0451 0)
(-0.0122832 10.04 0)
(-0.0138232 10.0352 0)
(-0.0149293 10.0311 0)
(-0.0156878 10.0274 0)
(-0.01618 10.0242 0)
(-0.0164713 10.0214 0)
(-0.0166135 10.019 0)
(-0.0166471 10.0168 0)
(-0.0166031 10.015 0)
(-0.0165052 10.0134 0)
(-0.0163714 10.012 0)
(-0.0162148 10.0108 0)
(-0.0160434 10.0097 0)
(-0.0158611 10.0088 0)
(-0.0157146 10.0079 0)
(0.00165486 6.58745 0)
(0.00610077 8.22969 0)
(0.0152623 9.25004 0)
(0.0215571 9.82607 0)
(0.0241291 10.0307 0)
(0.0240123 10.091 0)
(0.0229018 10.1091 0)
(0.0210767 10.1138 0)
(0.0186912 10.1135 0)
(0.0158241 10.1111 0)
(0.0124943 10.1076 0)
(0.0086988 10.1033 0)
(0.00442971 10.0982 0)
(-0.000305713 10.0921 0)
(-0.00499804 10.0855 0)
(-0.00929088 10.079 0)
(-0.0132512 10.0723 0)
(-0.0168358 10.0657 0)
(-0.020007 10.0591 0)
(-0.0227348 10.0525 0)
(-0.0249963 10.0461 0)
(-0.0267008 10.04 0)
(-0.0278571 10.0347 0)
(-0.02858 10.0299 0)
(-0.0289751 10.0258 0)
(-0.0291271 10.0222 0)
(-0.0291026 10.019 0)
(-0.0289533 10.0162 0)
(-0.0287187 10.0138 0)
(-0.0284287 10.0117 0)
(-0.0281055 10.0099 0)
(-0.0277653 10.0083 0)
(-0.0274174 10.0069 0)
(-0.027065 10.0056 0)
(-0.026776 10.0045 0)
(0.000925433 6.5364 0)
(0.00464637 8.13793 0)
(0.0118389 9.15177 0)
(0.0179332 9.77307 0)
(0.0203791 10.0189 0)
(0.0200363 10.0966 0)
(0.0185152 10.1217 0)
(0.0161404 10.1293 0)
(0.0130889 10.1303 0)
(0.00943287 10.1284 0)
(0.00519273 10.125 0)
(0.000367379 10.1204 0)
(-0.00504617 10.1148 0)
(-0.0110276 10.108 0)
(-0.0169258 10.1006 0)
(-0.0222949 10.0929 0)
(-0.0272204 10.085 0)
(-0.0316479 10.077 0)
(-0.0355286 10.0689 0)
(-0.0388223 10.0608 0)
(-0.041497 10.0527 0)
(-0.0434459 10.045 0)
(-0.0446953 10.0382 0)
(-0.0453966 10.0321 0)
(-0.0456872 10.0267 0)
(-0.045677 10.022 0)
(-0.045452 10.0179 0)
(-0.0450788 10.0144 0)
(-0.0446081 10.0112 0)
(-0.0440779 10.0085 0)
(-0.0435167 10.0061 0)
(-0.0429447 10.004 0)
(-0.0423733 10.0021 0)
(-0.0418045 10.0005 0)
(-0.0413357 9.99898 0)
(0.000356299 6.50373 0)
(0.00309721 8.07096 0)
(0.00861655 9.07404 0)
(0.0140362 9.72617 0)
(0.0161666 10.01 0)
(0.0154233 10.1053 0)
(0.013298 10.1376 0)
(0.0101884 10.1484 0)
(0.00626367 10.1508 0)
(0.00158789 10.1494 0)
(-0.00382184 10.1459 0)
(-0.00996859 10.141 0)
(-0.0168526 10.1348 0)
(-0.0244396 10.1271 0)
(-0.0318968 10.1185 0)
(-0.0386617 10.1095 0)
(-0.0448437 10.1001 0)
(-0.0503742 10.0903 0)
(-0.05519 10.0803 0)
(-0.059238 10.0702 0)
(-0.0624745 10.0601 0)
(-0.06477 10.0504 0)
(-0.0661703 10.0416 0)
(-0.0668732 10.0339 0)
(-0.0670564 10.027 0)
(-0.0668618 10.021 0)
(-0.0664006 10.0157 0)
(-0.0657586 10.011 0)
(-0.065001 10.007 0)
(-0.0641767 10.0034 0)
(-0.0633221 10.0003 0)
(-0.0624632 9.99759 0)
(-0.0616139 9.99515 0)
(-0.060775 9.99297 0)
(-0.0600839 9.99101 0)
(-0.000169385 6.48801 0)
(0.00151258 8.02521 0)
(0.00547063 9.01636 0)
(0.00984846 9.68817 0)
(0.0114286 10.0056 0)
(0.0100655 10.1183 0)
(0.00713396 10.1578 0)
(0.00307101 10.1718 0)
(-0.00196963 10.1756 0)
(-0.00793403 10.1747 0)
(-0.0148141 10.1712 0)
(-0.0226198 10.1659 0)
(-0.0313509 10.1589 0)
(-0.0409593 10.15 0)
(-0.0503851 10.1399 0)
(-0.0589182 10.1292 0)
(-0.0666986 10.1179 0)
(-0.0736396 10.106 0)
(-0.07966 10.0938 0)
(-0.0846901 10.0812 0)
(-0.0886712 10.0685 0)
(-0.0914427 10.0563 0)
(-0.0930714 10.0452 0)
(-0.0938122 10.0353 0)
(-0.0938928 10.0266 0)
(-0.0934954 10.0189 0)
(-0.0927626 10.0121 0)
(-0.0918046 10.0062 0)
(-0.0907053 10.001 0)
(-0.0895274 9.99642 0)
(-0.0883178 9.99239 0)
(-0.0871101 9.98883 0)
(-0.0859215 9.98566 0)
(-0.0847513 9.98283 0)
(-0.083791 9.98028 0)
(-0.00062619 6.48668 0)
(-4.97374e-05 7.99938 0)
(0.00229331 8.97808 0)
(0.00534058 9.6612 0)
(0.00608723 10.0073 0)
(0.00386859 10.1367 0)
(-9.46513e-05 10.1832 0)
(-0.00536029 10.2004 0)
(-0.0117906 10.2056 0)
(-0.0193481 10.2052 0)
(-0.0280401 10.2015 0)
(-0.0378874 10.1956 0)
(-0.0488937 10.1877 0)
(-0.0609969 10.1774 0)
(-0.0728603 10.1654 0)
(-0.0835908 10.1527 0)
(-0.0933666 10.1391 0)
(-0.102079 10.1247 0)
(-0.109624 10.1097 0)
(-0.115911 10.0942 0)
(-0.120862 10.0783 0)
(-0.124273 10.063 0)
(-0.126234 10.0491 0)
(-0.127068 10.0367 0)
(-0.127063 10.0256 0)
(-0.126451 10.0159 0)
(-0.125415 10.0073 0)
(-0.124094 9.9997 0)
(-0.122596 9.99305 0)
(-0.121002 9.98719 0)
(-0.119371 9.98203 0)
(-0.117747 9.97745 0)
(-0.116152 9.97338 0)
(-0.114582 9.96972 0)
(-0.113302 9.96643 0)
(-0.00107145 6.49701 0)
(-0.00166145 7.99281 0)
(-0.00103229 8.95889 0)
(0.000445351 9.64706 0)
(5.88913e-05 10.0165 0)
(-0.00327034 10.1614 0)
(-0.00851671 10.2149 0)
(-0.0152565 10.2351 0)
(-0.0233765 10.2416 0)
(-0.0328612 10.2415 0)
(-0.0437408 10.2376 0)
(-0.0560536 10.231 0)
(-0.0698102 10.2219 0)
(-0.0849377 10.2099 0)
(-0.099766 10.1958 0)
(-0.113181 10.1806 0)
(-0.125407 10.1643 0)
(-0.136308 10.1468 0)
(-0.145753 10.1285 0)
(-0.153624 10.1094 0)
(-0.159818 10.0899 0)
(-0.164076 10.0709 0)
(-0.166506 10.0536 0)
(-0.167513 10.038 0)
(-0.167459 10.0242 0)
(-0.166636 10.0119 0)
(-0.165273 10.001 0)
(-0.163548 9.99149 0)
(-0.161597 9.98306 0)
(-0.159523 9.97563 0)
(-0.157402 9.96906 0)
(-0.155291 9.96323 0)
(-0.153217 9.95802 0)
(-0.151176 9.95336 0)
(-0.149523 9.94916 0)
(-0.00159622 6.51956 0)
(-0.00343347 8.00413 0)
(-0.00459566 8.95812 0)
(-0.00490258 9.64672 0)
(-0.0067245 10.0347 0)
(-0.011439 10.1936 0)
(-0.0182388 10.2535 0)
(-0.0267423 10.2765 0)
(-0.0368714 10.2842 0)
(-0.0486439 10.2844 0)
(-0.0621172 10.2802 0)
(-0.077354 10.2727 0)
(-0.0943804 10.2621 0)
(-0.113113 10.2481 0)
(-0.131491 10.2315 0)
(-0.148135 10.2136 0)
(-0.163326 10.194 0)
(-0.176896 10.173 0)
(-0.188679 10.1508 0)
(-0.198523 10.1276 0)
(-0.206295 10.1036 0)
(-0.21166 10.0802 0)
(-0.214741 10.0588 0)
(-0.216037 10.0396 0)
(-0.215998 10.0223 0)
(-0.214986 10.0071 0)
(-0.213288 9.99351 0)
(-0.211127 9.98154 0)
(-0.208675 9.97096 0)
(-0.20606 9.96161 0)
(-0.203383 9.95332 0)
(-0.200714 9.94596 0)
(-0.198087 9.93938 0)
(-0.195498 9.93347 0)
(-0.193421 9.92816 0)
(-0.00220505 6.55477 0)
(-0.00540932 8.03198 0)
(-0.00843548 8.97517 0)
(-0.0107396 9.66108 0)
(-0.0142958 10.0629 0)
(-0.0206805 10.2341 0)
(-0.0293175 10.2998 0)
(-0.039888 10.3253 0)
(-0.0523643 10.334 0)
(-0.0668053 10.3344 0)
(-0.0833048 10.3297 0)
(-0.101957 10.3212 0)
(-0.122809 10.3091 0)
(-0.145776 10.2928 0)
(-0.168347 10.2733 0)
(-0.188826 10.2521 0)
(-0.207561 10.2289 0)
(-0.224342 10.2038 0)
(-0.238964 10.1771 0)
(-0.251238 10.149 0)
(-0.260986 10.12 0)
(-0.26778 10.0914 0)
(-0.271747 10.0652 0)
(-0.273494 10.0416 0)
(-0.273571 10.0204 0)
(-0.272423 10.0015 0)
(-0.270405 9.98477 0)
(-0.267795 9.96991 0)
(-0.264806 9.95675 0)
(-0.261603 9.94509 0)
(-0.258309 9.93473 0)
(-0.255015 9.92551 0)
(-0.251763 9.91727 0)
(-0.248551 9.90987 0)
(-0.246004 9.90322 0)
(-0.00289271 6.60295 0)
(-0.0075889 8.07588 0)
(-0.0125821 9.0092 0)
(-0.0170747 9.69033 0)
(-0.0226579 10.1019 0)
(-0.0309981 10.2835 0)
(-0.0417611 10.3544 0)
(-0.0547107 10.3821 0)
(-0.0698836 10.3917 0)
(-0.0873895 10.3921 0)
(-0.107367 10.3868 0)
(-0.129949 10.3772 0)
(-0.155218 10.3632 0)
(-0.183095 10.3444 0)
(-0.210542 10.3217 0)
(-0.235506 10.2969 0)
(-0.258419 10.2695 0)
(-0.279021 10.2397 0)
(-0.297057 10.2079 0)
(-0.31229 10.1744 0)
(-0.324493 10.1394 0)
(-0.333113 10.105 0)
(-0.338269 10.0733 0)
(-0.340686 10.0445 0)
(-0.341029 10.0187 0)
(-0.339839 9.9956 0)
(-0.337551 9.97503 0)
(-0.334506 9.95676 0)
(-0.330968 9.94053 0)
(-0.327143 9.92611 0)
(-0.323184 9.91329 0)
(-0.319208 9.90185 0)
(-0.315266 9.89162 0)
(-0.311361 9.88244 0)
(-0.308306 9.87418 0)
(-0.00364684 6.66403 0)
(-0.00994823 8.13497 0)
(-0.01703 9.05972 0)
(-0.0238961 9.73469 0)
(-0.0317809 10.1525 0)
(-0.04236 10.3424 0)
(-0.0555346 10.4177 0)
(-0.0711787 10.4473 0)
(-0.0894025 10.4576 0)
(-0.110373 10.4578 0)
(-0.134287 10.4519 0)
(-0.161333 10.4409 0)
(-0.191627 10.4251 0)
(-0.225106 10.4034 0)
(-0.258157 10.3772 0)
(-0.288309 10.3483 0)
(-0.316092 10.3163 0)
(-0.34119 10.2814 0)
(-0.363291 10.2439 0)
(-0.382098 10.2042 0)
(-0.397323 10.1626 0)
(-0.408255 10.1215 0)
(-0.414983 10.0834 0)
(-0.418361 10.0488 0)
(-0.419183 10.0176 0)
(-0.4181 9.9896 0)
(-0.415636 9.9646 0)
(-0.412207 9.94232 0)
(-0.408139 9.92249 0)
(-0.403684 9.90484 0)
(-0.399035 9.8891 0)
(-0.394336 9.87504 0)
(-0.389651 9.86245 0)
(-0.384994 9.85115 0)
(-0.381409 9.841 0)
(-0.00445171 6.7376 0)
(-0.0124757 8.20876 0)
(-0.0217698 9.12588 0)
(-0.0311782 9.79385 0)
(-0.0416117 10.2148 0)
(-0.054699 10.4111 0)
(-0.0705656 10.49 0)
(-0.0892107 10.5212 0)
(-0.110828 10.5319 0)
(-0.135662 10.532 0)
(-0.163974 10.5252 0)
(-0.196005 10.5129 0)
(-0.231933 10.4949 0)
(-0.271732 10.4703 0)
(-0.311145 10.4402 0)
(-0.347231 10.407 0)
(-0.380627 10.37 0)
(-0.410958 10.3295 0)
(-0.437845 10.2857 0)
(-0.460925 10.2391 0)
(-0.479832 10.1901 0)
(-0.493659 10.1415 0)
(-0.502436 10.0962 0)
(-0.507152 10.055 0)
(-0.508743 10.0176 0)
(-0.507982 9.98402 0)
(-0.505496 9.95391 0)
(-0.501787 9.92701 0)
(-0.49725 9.90299 0)
(-0.492193 9.88155 0)
(-0.486858 9.8624 0)
(-0.481422 9.84527 0)
(-0.475961 9.82992 0)
(-0.470509 9.81613 0)
(-0.466395 9.80374 0)
(-0.00530059 6.82317 0)
(-0.0151522 8.29645 0)
(-0.0267893 9.20703 0)
(-0.038881 9.8674 0)
(-0.0520745 10.2889 0)
(-0.0679144 10.4897 0)
(-0.0867317 10.5714 0)
(-0.108668 10.6038 0)
(-0.134015 10.6148 0)
(-0.163092 10.6145 0)
(-0.196236 10.6069 0)
(-0.233766 10.5931 0)
(-0.275938 10.573 0)
(-0.322778 10.5452 0)
(-0.369323 10.5111 0)
(-0.412111 10.4733 0)
(-0.451902 10.431 0)
(-0.488259 10.3844 0)
(-0.520726 10.3338 0)
(-0.548861 10.2798 0)
(-0.57221 10.2227 0)
(-0.589623 10.1657 0)
(-0.60103 10.1124 0)
(-0.607559 10.0637 0)
(-0.6103 10.0194 0)
(-0.610158 9.97948 0)
(-0.607876 9.94354 0)
(-0.604053 9.91133 0)
(-0.599164 9.88249 0)
(-0.593583 9.85668 0)
(-0.587606 9.83359 0)
(-0.581453 9.81289 0)
(-0.575214 9.79432 0)
(-0.568951 9.77764 0)
(-0.564341 9.76266 0)
(-0.00617751 6.92012 0)
(-0.0179614 8.39729 0)
(-0.0320362 9.30215 0)
(-0.0469402 9.95452 0)
(-0.0630605 10.3745 0)
(-0.0818784 10.5781 0)
(-0.103884 10.6618 0)
(-0.129379 10.695 0)
(-0.158752 10.7062 0)
(-0.19242 10.7055 0)
(-0.230809 10.697 0)
(-0.274334 10.6817 0)
(-0.323337 10.6593 0)
(-0.377915 10.6283 0)
(-0.432357 10.5902 0)
(-0.482626 10.5475 0)
(-0.529626 10.4996 0)
(-0.572847 10.4466 0)
(-0.611752 10.3889 0)
(-0.645809 10.3268 0)
(-0.674464 10.2609 0)
(-0.696267 10.1948 0)
(-0.711 10.1328 0)
(-0.719931 10.0758 0)
(-0.724306 10.0238 0)
(-0.725178 9.97672 0)
(-0.723414 9.93421 0)
(-0.719721 9.89597 0)
(-0.714667 9.86164 0)
(-0.7087 9.83084 0)
(-0.70218 9.80322 0)
(-0.695376 9.77842 0)
(-0.688392 9.75615 0)
(-0.681339 9.73612 0)
(-0.676308 9.71814 0)
(-0.0070629 7.02752 0)
(-0.0208652 8.51032 0)
(-0.0374564 9.41012 0)
(-0.0552635 10.0544 0)
(-0.0744582 10.4711 0)
(-0.0964329 10.6759 0)
(-0.121829 10.7609 0)
(-0.151112 10.7947 0)
(-0.184779 10.8058 0)
(-0.223357 10.8047 0)
(-0.267372 10.7953 0)
(-0.317338 10.7786 0)
(-0.373713 10.754 0)
(-0.436693 10.7198 0)
(-0.499777 10.6774 0)
(-0.558302 10.6299 0)
(-0.613338 10.5763 0)
(-0.664297 10.5166 0)
(-0.710552 10.4513 0)
(-0.75148 10.3808 0)
(-0.786404 10.3055 0)
(-0.813521 10.2297 0)
(-0.832402 10.1582 0)
(-0.844442 10.0921 0)
(-0.851055 10.0317 0)
(-0.853445 9.97661 0)
(-0.852614 9.92676 0)
(-0.849389 9.88177 0)
(-0.844439 9.84125 0)
(-0.838297 9.8048 0)
(-0.8314 9.77203 0)
(-0.82407 9.74257 0)
(-0.816428 9.71606 0)
(-0.808651 9.69221 0)
(-0.803325 9.67079 0)
(-0.00794681 7.14436 0)
(-0.0238223 8.63436 0)
(-0.0429999 9.52979 0)
(-0.0637551 10.1658 0)
(-0.0861384 10.578 0)
(-0.111403 10.7826 0)
(-0.140354 10.8682 0)
(-0.173618 10.9023 0)
(-0.211808 10.9133 0)
(-0.255566 10.9118 0)
(-0.305529 10.9015 0)
(-0.36233 10.8834 0)
(-0.426565 10.8567 0)
(-0.49856 10.8193 0)
(-0.570989 10.7729 0)
(-0.638526 10.7205 0)
(-0.70242 10.6611 0)
(-0.762005 10.5947 0)
(-0.816569 10.5217 0)
(-0.865382 10.4423 0)
(-0.907636 10.3573 0)
(-0.941107 10.2711 0)
(-0.965081 10.1894 0)
(-0.981069 10.1136 0)
(-0.990651 10.0439 0)
(-0.995184 9.98017 0)
(-0.995817 9.92222 0)
(-0.993503 9.86973 0)
(-0.989022 9.82231 0)
(-0.983007 9.77952 0)
(-0.975975 9.74097 0)
(-0.968316 9.70623 0)
(-0.960163 9.67493 0)
(-0.951787 9.64675 0)
(-0.946355 9.62144 0)
(-0.00881843 7.26949 0)
(-0.0267963 8.76814 0)
(-0.0485971 9.65989 0)
(-0.0723284 10.2876 0)
(-0.0979529 10.6942 0)
(-0.126607 10.8975 0)
(-0.159233 10.9831 0)
(-0.196625 11.0172 0)
(-0.239517 11.0281 0)
(-0.288669 11.0262 0)
(-0.34484 11.0151 0)
(-0.408808 10.9957 0)
(-0.48132 10.967 0)
(-0.562873 10.9268 0)
(-0.645294 10.8764 0)
(-0.722556 10.8194 0)
(-0.796106 10.7543 0)
(-0.865211 10.6811 0)
(-0.92907 10.6003 0)
(-0.986836 10.512 0)
(-1.03756 10.4169 0)
(-1.07854 10.3199 0)
(-1.10868 10.2275 0)
(-1.12959 10.1413 0)
(-1.143 10.0616 0)
(-1.15044 9.98848 0)
(-1.15319 9.9217 0)
(-1.15235 9.86098 0)
(-1.14881 9.80593 0)
(-1.14332 9.75612 0)
(-1.13649 9.71113 0)
(-1.12878 9.6705 0)
(-1.12034 9.63385 0)
(-1.11156 9.6008 0)
(-1.10629 9.57109 0)
(-0.00966699 7.40167 0)
(-0.029753 8.91031 0)
(-0.0541742 9.79903 0)
(-0.0808822 10.4184 0)
(-0.109761 10.8186 0)
(-0.141857 11.0197 0)
(-0.178235 11.1048 0)
(-0.219852 11.1388 0)
(-0.267568 11.1495 0)
(-0.322265 11.1472 0)
(-0.384842 11.1355 0)
(-0.456231 11.115 0)
(-0.537358 11.0846 0)
(-0.628927 11.0417 0)
(-0.721913 10.9877 0)
(-0.809549 10.9262 0)
(-0.893513 10.8557 0)
(-0.973017 10.776 0)
(-1.04716 10.6875 0)
(-1.11498 10.5903 0)
(-1.1754 10.4849 0)
(-1.22514 10.3768 0)
(-1.26264 10.2733 0)
(-1.28956 10.1762 0)
(-1.30781 10.086 0)
(-1.31903 10.0027 0)
(-1.32469 9.92645 0)
(-1.32601 9.85679 0)
(-1.32401 9.79343 0)
(-1.31956 9.73592 0)
(-1.31338 9.68383 0)
(-1.30599 9.63669 0)
(-1.29756 9.59409 0)
(-1.28865 9.55564 0)
(-1.28389 9.52103 0)
(-0.0104802 7.53961 0)
(-0.0326565 9.05945 0)
(-0.0596634 9.9457 0)
(-0.0893121 10.5568 0)
(-0.121425 10.9501 0)
(-0.156969 11.1482 0)
(-0.197127 11.2325 0)
(-0.243018 11.2663 0)
(-0.295618 11.2768 0)
(-0.35595 11.2742 0)
(-0.42506 11.262 0)
(-0.504043 11.2405 0)
(-0.594033 11.2087 0)
(-0.695982 11.1635 0)
(-0.800009 11.1063 0)
(-0.898587 11.0408 0)
(-0.993669 10.9652 0)
(-1.08441 10.8794 0)
(-1.16981 10.7834 0)
(-1.24882 10.6775 0)
(-1.32019 10.5619 0)
(-1.38002 10.4427 0)
(-1.42618 10.3278 0)
(-1.46036 10.2193 0)
(-1.48457 10.1181 0)
(-1.50062 10.0242 0)
(-1.51011 9.93776 0)
(-1.51441 9.85853 0)
(-1.51468 9.78618 0)
(-1.5119 9.72032 0)
(-1.50691 9.66049 0)
(-1.50033 9.60625 0)
(-1.49232 9.55712 0)
(-1.48365 9.51272 0)
(-1.47984 9.4727 0)
(-0.0112489 7.682 0)
(-0.0354734 9.21411 0)
(-0.065004 10.0984 0)
(-0.097524 10.7015 0)
(-0.132816 11.0874 0)
(-0.17177 11.282 0)
(-0.21569 11.3652 0)
(-0.26585 11.3986 0)
(-0.323342 11.409 0)
(-0.389332 11.4062 0)
(-0.465024 11.3937 0)
(-0.55169 11.3716 0)
(-0.650698 11.3387 0)
(-0.763282 11.2916 0)
(-0.878713 11.2317 0)
(-0.988718 11.1626 0)
(-1.09555 11.0825 0)
(-1.19829 10.991 0)
(-1.29589 10.8881 0)
(-1.3872 10.7739 0)
(-1.47083 10.6484 0)
(-1.54216 10.518 0)
(-1.59839 10.3917 0)
(-1.64116 10.2718 0)
(-1.6726 10.1591 0)
(-1.69464 10.0541 0)
(-1.70902 9.95702 0)
(-1.71726 9.86764 0)
(-1.72066 9.78573 0)
(-1.72032 9.71091 0)
(-1.71721 9.64277 0)
(-1.71202 9.58082 0)
(-1.70494 9.52461 0)
(-1.69697 9.47373 0)
(-1.69467 9.42778 0)
(-0.0119615 7.8275 0)
(-0.0381685 9.37284 0)
(-0.0701347 10.2558 0)
(-0.105428 10.8509 0)
(-0.143809 11.2293 0)
(-0.186097 11.42 0)
(-0.233719 11.5018 0)
(-0.288095 11.5349 0)
(-0.350431 11.5452 0)
(-0.422041 11.5424 0)
(-0.504289 11.5297 0)
(-0.598642 11.5073 0)
(-0.706725 11.4737 0)
(-0.830079 11.4252 0)
(-0.957159 11.3632 0)
(-1.07898 11.2912 0)
(-1.19808 11.2072 0)
(-1.31351 11.1107 0)
(-1.4242 11.0015 0)
(-1.52891 10.8795 0)
(-1.6261 10.7446 0)
(-1.71039 10.6035 0)
(-1.77816 10.4658 0)
(-1.83099 10.3343 0)
(-1.87106 10.2101 0)
(-1.90042 10.0938 0)
(-1.92092 9.98558 0)
(-1.93423 9.88558 0)
(-1.94177 9.79358 0)
(-1.94479 9.70928 0)
(-1.94438 9.63228 0)
(-1.94134 9.56211 0)
(-1.93583 9.49832 0)
(-1.92916 9.44049 0)
(-1.92907 9.38814 0)
(-0.0126205 7.97493 0)
(-0.0407255 9.53432 0)
(-0.0750145 10.4163 0)
(-0.112956 11.0039 0)
(-0.154304 11.3746 0)
(-0.199813 11.5611 0)
(-0.251038 11.6415 0)
(-0.309529 11.6742 0)
(-0.376608 11.6845 0)
(-0.453736 11.6818 0)
(-0.542443 11.6692 0)
(-0.644408 11.6468 0)
(-0.761521 11.6129 0)
(-0.895656 11.5636 0)
(-1.03453 11.5001 0)
(-1.16844 11.4259 0)
(-1.30022 11.3388 0)
(-1.42895 11.2381 0)
(-1.55353 11.1234 0)
(-1.67266 10.9944 0)
(-1.78471 10.8509 0)
(-1.88346 10.6996 0)
(-1.96437 10.551 0)
(-2.02885 10.4082 0)
(-2.07911 10.2724 0)
(-2.11726 10.1445 0)
(-2.14528 10.025 0)
(-2.16496 9.91401 0)
(-2.17788 9.81155 0)
(-2.18542 9.71736 0)
(-2.18878 9.63107 0)
(-2.18888 9.55223 0)
(-2.18583 9.4804 0)
(-2.18128 9.41518 0)
(-2.18439 9.35597 0)
(-0.0131868 8.1229 0)
(-0.0430766 9.69699 0)
(-0.0795648 10.5785 0)
(-0.120018 11.1587 0)
(-0.164194 11.5218 0)
(-0.21279 11.704 0)
(-0.267489 11.7829 0)
(-0.329958 11.8153 0)
(-0.401633 11.8257 0)
(-0.484126 11.8234 0)
(-0.579128 11.8111 0)
(-0.688551 11.789 0)
(-0.814546 11.7552 0)
(-0.959348 11.7057 0)
(-1.11004 11.6414 0)
(-1.25617 11.5658 0)
(-1.40092 11.4764 0)
(-1.54343 11.3725 0)
(-1.68262 11.2533 0)
(-1.81716 11.1183 0)
(-1.94533 10.967 0)
(-2.06007 10.8065 0)
(-2.15575 10.6476 0)
(-2.23357 10.4937 0)
(-2.29574 10.3465 0)
(-2.34447 10.2071 0)
(-2.38184 10.0763 0)
(-2.40974 9.9544 0)
(-2.42981 9.8414 0)
(-2.44351 9.73717 0)
(-2.45218 9.6414 0)
(-2.45677 9.55369 0)
(-2.45736 9.4736 0)
(-2.45595 9.40075 0)
(-2.46336 9.33436 0)
(0.00131085 10.0001 0)
(0.00123994 10.0001 0)
(0.00117141 10.0001 0)
(0.00110474 10.0001 -7.5805e-19)
(0.00104017 10.0001 0)
(0.000977702 10.0001 0)
(0.000917315 10.0001 0)
(0.000858977 10.0001 0)
(0.000802649 10.0001 8.58979e-19)
(0.000748279 10.0001 0)
(0.000695791 10 0)
(0.000645415 10 -9.06164e-19)
(0.000598187 10 0)
(0.000554577 10 -8.84517e-19)
(0.000514239 10 0)
(0.000476802 10 0)
(0.000441925 10 0)
(0.00040931 10 8.24178e-19)
(0.000378697 10 0)
(0.000349864 10 3.96919e-19)
(0.000322668 10 0)
(0.000296785 10 0)
(0.00351529 10.0016 0)
(0.00334524 10.0016 0)
(0.00318032 10.0015 0)
(0.0030187 10.0014 7.99742e-19)
(0.00286065 10.0013 0)
(0.00270634 10.0012 0)
(0.00255581 10.0011 -1.72409e-18)
(0.00240906 10.0011 0)
(0.00226607 10.001 -2.71673e-18)
(0.00212678 10.0009 1.85558e-18)
(0.00199103 10.0009 1.89493e-18)
(0.00185964 10.0008 9.55128e-19)
(0.00173593 10.0008 0)
(0.00162135 10.0007 9.32613e-19)
(0.00151495 10.0007 0)
(0.00141576 10.0007 0)
(0.00132291 10.0006 0)
(0.00123564 10.0006 -2.6084e-18)
(0.00115326 10.0006 0)
(0.00107522 10.0006 -4.18867e-19)
(0.00100136 10.0006 0)
(0.000930929 10.0006 -8.49065e-19)
(0.00440655 10.0041 0)
(0.00420754 10.0039 0)
(0.00401506 10.0037 0)
(0.00382727 10.0035 0)
(0.00364448 10.0033 0)
(0.00346694 10.0031 1.7666e-18)
(0.00329473 10.0029 1.81094e-18)
(0.0031279 10.0028 0)
(0.00296641 10.0026 1.90083e-18)
(0.0028102 10.0024 -1.94676e-18)
(0.00265902 10.0023 -1.98725e-18)
(0.0025137 10.0022 0)
(0.00237759 10.002 0)
(0.00225177 10.0019 0)
(0.00213496 10.0018 1.92438e-18)
(0.00202597 10.0018 0)
(0.00192371 10.0017 0)
(0.00182725 10.0016 1.82689e-18)
(0.00173572 10.0016 0)
(0.00164842 10.0015 0)
(0.00156528 10.0015 0)
(0.00148597 10.0015 8.92791e-19)
(0.00389321 10.0065 0)
(0.00373696 10.0061 0)
(0.00358522 10.0058 0)
(0.00344009 10.0055 -1.76635e-18)
(0.00330183 10.0051 0)
(0.00317056 10.0048 1.85478e-18)
(0.00304633 10.0045 0)
(0.00292909 10.0043 0)
(0.00281876 10.004 0)
(0.00271513 10.0037 0)
(0.0026178 10.0035 -4.1647e-18)
(0.00252706 10.0033 0)
(0.00244482 10.0031 0)
(0.00237089 10.0029 0)
(0.00230379 10.0027 2.01846e-18)
(0.00224224 10.0026 3.97072e-18)
(0.00218509 10.0025 0)
(0.00213132 10.0024 0)
(0.00208008 10.0023 0)
(0.00203066 10.0023 0)
(0.00198303 10.0022 1.81622e-18)
(0.00193649 10.0022 0)
(0.00190704 10.0083 -3.13742e-18)
(0.0018573 10.0078 0)
(0.00180803 10.0073 -3.62183e-18)
(0.00176937 10.0068 1.85601e-18)
(0.00174147 10.0064 0)
(0.00172411 10.006 -3.89563e-18)
(0.00171714 10.0055 -3.98914e-18)
(0.00172036 10.0051 -4.08424e-18)
(0.00173344 10.0048 0)
(0.00175592 10.0044 0)
(0.00178709 10.0041 4.36314e-18)
(0.00182596 10.0037 0)
(0.00187061 10.0035 0)
(0.00191803 10.0032 0)
(0.00196665 10.003 -8.46649e-18)
(0.00201521 10.0028 -4.16494e-18)
(0.00206261 10.0027 0)
(0.00210794 10.0026 -4.02674e-18)
(0.00215047 10.0025 0)
(0.00218968 10.0024 3.88679e-18)
(0.00222533 10.0024 -1.90818e-18)
(0.00225564 10.0023 0)
(-0.00175603 10.0092 3.29954e-18)
(-0.00162628 10.0085 -3.71285e-18)
(-0.00150395 10.0079 7.60878e-18)
(-0.00136467 10.0073 3.89737e-18)
(-0.00120841 10.0067 0)
(-0.00103602 10.0061 0)
(-0.000848024 10.0055 4.18402e-18)
(-0.00064491 10.005 4.28202e-18)
(-0.000427373 10.0045 0)
(-0.000196327 10.004 0)
(4.70018e-05 10.0036 0)
(0.000299525 10.0032 0)
(0.000553014 10.0028 0)
(0.000799991 10.0025 4.50606e-18)
(0.00103885 10.0023 4.43636e-18)
(0.00126842 10.0021 -4.36722e-18)
(0.00148779 10.0019 0)
(0.00169623 10.0018 4.22451e-18)
(0.00189334 10.0017 0)
(0.00207895 10.0016 6.9196e-22)
(0.00225218 10.0016 4.00853e-18)
(0.00240864 10.0015 -4.14098e-18)
(-0.00737502 10.0088 -3.46764e-18)
(-0.00697948 10.008 3.89787e-18)
(-0.00660504 10.0071 -3.99257e-18)
(-0.00620454 10.0063 8.39253e-22)
(-0.00577808 10.0056 4.18698e-18)
(-0.00532757 10.0048 0)
(-0.00485403 10.0041 0)
(-0.00435843 10.0034 0)
(-0.00384202 10.0028 0)
(-0.00330639 10.0022 9.3817e-18)
(-0.00275354 10.0016 0)
(-0.00218964 10.0011 0)
(-0.00163216 10.0007 0)
(-0.00109498 10.0004 -4.71671e-18)
(-0.000579691 10.0001 0)
(-8.7265e-05 9.99987 9.15331e-18)
(0.000381667 9.9997 0)
(0.000826747 9.99957 0)
(0.00124808 9.99949 0)
(0.00164608 9.99944 -4.28229e-18)
(0.0020187 9.99943 -4.20752e-18)
(0.00235681 9.99945 4.34631e-18)
(-0.0153327 10.007 3.64114e-18)
(-0.0145646 10.0059 0)
(-0.0138397 10.0048 0)
(-0.0130764 10.0037 -8.57487e-18)
(-0.0122751 10.0027 2.00975e-21)
(-0.0114392 10.0018 -4.49076e-18)
(-0.0105706 10.0009 -9.18708e-18)
(-0.00967075 10 0)
(-0.00874186 9.99926 -9.60336e-18)
(-0.00778642 9.99854 5.51537e-21)
(-0.00680751 9.99789 -9.99574e-18)
(-0.00581562 9.99731 1.00644e-17)
(-0.00484093 9.99683 0)
(-0.00390602 9.99644 0)
(-0.00301238 9.99613 0)
(-0.00216064 9.9959 4.7974e-18)
(-0.00135095 9.99574 0)
(-0.000583139 9.99565 0)
(0.000143688 9.9956 0)
(0.000830865 9.99561 0)
(0.00147446 9.99566 0)
(0.00205787 9.99574 0)
(-0.0261202 10.0032 0)
(-0.0248448 10.0018 0)
(-0.0236469 10.0004 4.39275e-18)
(-0.0223945 9.99912 -3.14062e-21)
(-0.0210887 9.99786 4.60246e-18)
(-0.019735 9.99667 1.41079e-17)
(-0.0183363 9.99555 9.61122e-18)
(-0.0168953 9.99451 0)
(-0.015415 9.99356 1.00369e-17)
(-0.0138995 9.99269 -1.02512e-17)
(-0.0123531 9.99192 1.04363e-17)
(-0.0107922 9.99125 9.22396e-21)
(-0.0092639 9.99071 0)
(-0.00780217 9.99029 0)
(-0.00640823 9.98999 0)
(-0.00508215 9.98978 8.85056e-21)
(-0.00382336 9.98966 0)
(-0.00263087 9.98962 0)
(-0.00150266 9.98964 0)
(-0.000436031 9.98973 0)
(0.000562407 9.98987 0)
(0.001465 9.99006 0)
(-0.0403228 9.99732 0)
(-0.0383717 9.99551 4.49813e-18)
(-0.0365487 9.99377 -9.20128e-18)
(-0.0346509 9.99211 4.70397e-18)
(-0.0326803 9.99054 -9.62105e-18)
(-0.0306458 9.98905 1.07029e-20)
(-0.0285516 9.98767 -1.00635e-17)
(-0.0264016 9.9864 0)
(-0.0242006 9.98525 0)
(-0.0219543 9.98422 0)
(-0.0196691 9.98332 0)
(-0.0173689 9.98257 -1.09659e-17)
(-0.0151227 9.98198 0)
(-0.0129793 9.98155 0)
(-0.0109393 9.98126 0)
(-0.00900181 9.9811 -1.04922e-17)
(-0.00716526 9.98105 0)
(-0.00542744 9.9811 -1.02017e-17)
(-0.00378472 9.98123 -1.00459e-17)
(-0.00223249 9.98144 4.94388e-18)
(-0.00078095 9.98172 0)
(0.000526798 9.98205 5.02347e-18)