/*--------------------------------*- C++ -*----------------------------------*\
  =========                 |
  \\      /  F ield         | OpenFOAM: The Open Source CFD Toolbox
   \\    /   O peration     | Website:  https://openfoam.org
    \\  /    A nd           | Version:  8
     \\/     M anipulation  |
\*---------------------------------------------------------------------------*/
FoamFile
{
    version     2.0;
    format      ascii;
    class       volScalarField;
    location    "1800";
    object      epsilon;
}
// * * * * * * * * * * * * * * * * * * * * * * * * * * * * * * * * * * * * * //

dimensions      [0 2 -3 0 0 0 0];

internalField   nonuniform List<scalar> 
15677
(
1182.95
450.738
1558.82
85.8081
451.637
1455.74
19.8101
116.594
388.092
1275.75
7.21261
35.9257
104.768
360.473
1158.88
3.82902
14.3041
37.291
92.6077
360.959
1085.91
2.64035
7.18066
17.1127
35.2332
94.1046
365.8
1042.15
2.1617
4.33779
9.1731
17.2846
33.692
99.4393
372.508
1011.51
1.97289
3.03439
5.58328
9.92038
17.0546
33.9471
109.09
372.919
991.823
1.90448
2.38279
3.79238
6.27415
10.1557
16.6754
35.4028
119.079
372.074
975.922
1.87844
2.06059
2.83777
4.30773
6.63467
10.131
16.7211
38.3451
129.161
368.215
965.112
1.86721
1.92147
2.31393
3.1909
4.6373
6.78459
10.0776
17.0174
42.2702
137.045
363.528
958.758
1.86734
1.86801
2.0299
2.53921
3.44657
4.83052
6.83136
10.0817
17.6934
46.4193
143.359
358.944
956.741
1.86899
1.84319
1.89333
2.15977
2.71918
3.62184
4.93411
6.84503
10.1382
18.7053
50.6856
147.943
355.048
957.83
1.86962
1.83738
1.83764
1.94878
2.27415
2.85566
3.73549
4.98801
6.84964
10.2802
19.932
54.5315
151.405
351.936
961.567
1.86972
1.83718
1.81463
1.84527
2.00976
2.36865
2.95449
3.80728
5.01336
6.86259
10.5418
21.1802
58.1264
153.496
349.614
969.223
1.8697
1.83753
1.8089
1.80067
1.86355
2.06592
2.44288
3.02423
3.8505
5.0239
6.89628
10.8313
22.517
61.0589
154.878
347.987
980.837
1.86967
1.83769
1.80792
1.7861
1.79398
1.8881
2.11356
2.49949
3.07181
3.87466
5.02998
6.9485
11.1732
23.738
63.5715
155.389
347.017
995.98
1.86965
1.83771
1.80789
1.78201
1.76783
1.79444
1.91106
2.15244
2.54133
3.10304
3.88683
5.03502
7.0189
11.5054
24.9284
65.3819
155.392
346.653
1014.76
1.86965
1.8377
1.80793
1.78103
1.75909
1.75498
1.79653
1.93154
2.18303
2.57146
3.12211
3.89149
5.04258
7.09136
11.8521
25.9393
66.7365
155.126
346.791
1037.22
1.86965
1.83768
1.80793
1.78085
1.7564
1.74005
1.74516
1.80066
1.94877
2.2065
2.59207
3.13277
3.89098
5.04976
7.17061
12.1666
26.8096
67.5382
154.54
347.309
1063.37
1.86965
1.83767
1.80791
1.78081
1.75565
1.73475
1.72377
1.7381
1.80494
1.96277
2.22378
2.60562
3.1368
3.88849
5.05808
7.24414
12.4545
27.463
67.9777
153.554
348.368
1093.18
1.86965
1.83766
1.80788
1.78078
1.75543
1.73303
1.71526
1.71034
1.73264
1.80885
1.97365
2.23618
2.6134
3.1362
3.88355
5.06438
7.31187
12.6876
27.9438
67.9252
152.442
349.898
1126.62
1.86965
1.83766
1.80786
1.78075
1.75535
1.7325
1.7121
1.69845
1.69876
1.72849
1.81205
1.9819
2.24449
2.61722
3.13366
3.87639
5.06964
7.36703
12.8754
28.228
67.6906
151.267
351.859
1163.52
1.86965
1.83765
1.80785
1.78072
1.75528
1.73231
1.71098
1.69369
1.68329
1.68926
1.725
1.8146
1.98797
2.24995
2.61768
3.12843
3.8685
5.07028
7.40843
12.9961
28.326
67.1729
149.977
354.192
1203.83
1.86966
1.83764
1.80784
1.78069
1.75524
1.73221
1.71057
1.69188
1.67661
1.67053
1.68091
1.72228
1.81668
1.99252
2.2532
2.61703
3.12227
3.85891
5.0687
7.43539
13.0753
28.2779
66.4088
148.592
356.933
1247.3
1.86966
1.83763
1.80784
1.78067
1.7552
1.73214
1.71039
1.69118
1.67386
1.66206
1.65891
1.67427
1.72016
1.81854
1.99614
2.25543
2.61564
3.11522
3.84974
5.0644
7.44525
13.0742
28.139
65.498
147.194
360.008
1293.83
1.86966
1.83763
1.80784
1.78065
1.75517
1.73208
1.71027
1.69086
1.67275
1.65838
1.64845
1.64969
1.66873
1.71898
1.82081
1.99969
2.25769
2.61397
3.10981
3.83974
5.05678
7.44025
13.0507
27.8705
64.4753
145.758
363.436
1343.08
1.86967
1.83762
1.80784
1.78063
1.75515
1.73202
1.71019
1.69068
1.67225
1.6568
1.64368
1.63765
1.6414
1.66491
1.71937
1.82398
2.0039
2.26063
2.61442
3.10465
3.83247
5.04651
7.42682
12.9944
27.5131
63.3558
144.352
367.151
1394.94
1.86967
1.83761
1.80784
1.78061
1.75513
1.73198
1.71012
1.69056
1.672
1.65607
1.64156
1.63194
1.6275
1.63602
1.66308
1.7211
1.82864
2.00981
2.26571
2.61666
3.10466
3.82625
5.03598
7.40212
12.8944
27.0935
62.193
142.945
371.152
1448.65
1.86967
1.83761
1.80784
1.7806
1.75512
1.73194
1.71007
1.69046
1.67183
1.65569
1.64058
1.62925
1.62075
1.6211
1.63174
1.66399
1.725
1.83588
2.01841
2.27401
2.62215
3.10689
3.82446
5.02663
7.37025
12.7712
26.6341
60.9935
141.599
375.397
1510.45
1.86968
1.8376
1.80784
1.78058
1.75511
1.7319
1.71003
1.69037
1.6717
1.65544
1.64007
1.62794
1.61754
1.61351
1.61507
1.63214
1.66713
1.73241
1.84655
2.03091
2.28633
2.63285
3.11332
3.82649
5.01866
7.3343
12.6331
26.1476
59.7994
140.277
380.388
1581.18
1.86968
1.8376
1.80785
1.78057
1.75511
1.73187
1.71
1.6903
1.67159
1.65526
1.63976
1.62725
1.61595
1.6097
1.60674
1.61497
1.6347
1.67378
1.744
1.86189
2.04831
2.30431
2.6495
3.12631
3.83286
5.01472
7.29757
12.4863
25.6513
58.6087
138.91
386.311
1653.2
1.86968
1.83759
1.80785
1.78056
1.7551
1.73185
1.70997
1.69024
1.67151
1.65512
1.63953
1.62683
1.61512
1.60774
1.60258
1.60582
1.6171
1.64081
1.6857
1.76099
1.88298
2.07215
2.32892
2.67334
3.14695
3.84598
5.01633
7.26254
12.3367
25.154
57.3282
137.46
392.404
1726.18
1.86968
1.83759
1.80785
1.78055
1.7551
1.73182
1.70995
1.69018
1.67144
1.65499
1.63934
1.62653
1.6146
1.60669
1.60044
1.60109
1.6078
1.62292
1.65262
1.70366
1.78451
1.91135
2.10343
2.36175
2.70525
3.17579
3.86783
5.02242
7.23018
12.1891
24.615
55.9516
136.145
398.748
1799.36
1.83759
1.86972
1.80785
1.78054
1.7551
1.7318
1.70994
1.69013
1.67138
1.65488
1.63919
1.62629
1.61423
1.60606
1.59927
1.59861
1.603
1.61354
1.63454
1.67125
1.72883
1.81614
1.94812
2.14388
2.40354
2.74666
3.21344
3.89845
5.03525
7.20425
12.0316
24.041
54.6744
134.924
405.141
1872.28
1.80785
1.83768
1.86979
1.78053
1.7551
1.73178
1.70992
1.69008
1.67134
1.65479
1.63906
1.62609
1.61393
1.60561
1.59854
1.59727
1.60049
1.60874
1.62514
1.65374
1.69769
1.76288
1.85712
1.99507
2.19427
2.45593
2.79799
3.26119
3.93767
5.05752
7.18255
11.8686
23.5093
53.4764
133.837
411.67
1944.41
1.78053
1.80801
1.83788
1.86987
1.7551
1.73176
1.70991
1.69004
1.6713
1.6547
1.63896
1.62593
1.61368
1.60526
1.59802
1.59647
1.59916
1.60629
1.62044
1.6449
1.68128
1.73369
1.80714
1.90936
2.05322
2.25656
2.51932
2.86049
3.31895
3.98682
5.09169
7.17116
11.7253
23.0192
52.384
132.848
418.198
2015.33
1.7551
1.78073
1.80833
1.83808
1.86995
1.73175
1.70991
1.69
1.67127
1.65462
1.63887
1.62577
1.61348
1.60498
1.59761
1.59591
1.59838
1.60505
1.61817
1.64077
1.6735
1.71919
1.78082
1.86351
1.9738
2.12448
2.33097
2.59529
2.93434
3.38768
4.05231
5.14207
7.17474
11.6003
22.5772
51.3756
131.98
424.683
2084.63
1.73173
1.75535
1.78114
1.80866
1.83829
1.87003
1.7099
1.68997
1.67125
1.65455
1.6388
1.62564
1.61331
1.60474
1.59728
1.5955
1.59786
1.60438
1.61715
1.63913
1.67049
1.71328
1.76915
1.84146
1.93386
2.05289
2.20919
2.41934
2.68375
3.02021
3.47605
4.13938
5.20625
7.18714
11.4946
22.1787
50.467
131.217
431.056
2152.02
1.7099
1.73201
1.75587
1.78157
1.809
1.8385
1.87011
1.68994
1.67123
1.65448
1.63875
1.62551
1.61317
1.60454
1.59699
1.59517
1.59747
1.60396
1.61672
1.63874
1.6699
1.71205
1.76609
1.83424
1.91784
2.02086
2.14795
2.3103
2.52104
2.78583
3.12959
3.59028
4.24087
5.28267
7.21241
11.4085
21.8254
49.6381
130.56
437.315
2217.24
1.68991
1.71022
1.7326
1.75641
1.78201
1.80935
1.83872
1.87019
1.67121
1.65442
1.6387
1.6254
1.61305
1.60435
1.59675
1.59489
1.59717
1.60368
1.61655
1.63887
1.67051
1.71319
1.76732
1.83462
1.91561
2.01253
2.12671
2.26247
2.42822
2.63938
2.91316
3.26739
3.71937
4.35481
5.36955
7.25139
11.3411
21.5119
48.8984
129.996
443.412
2280.11
1.6712
1.69025
1.7109
1.73321
1.75695
1.78246
1.80971
1.83895
1.87027
1.65437
1.63866
1.62529
1.61295
1.60417
1.59654
1.59465
1.59692
1.60348
1.6165
1.63922
1.67161
1.71558
1.77117
1.83987
1.92136
2.01708
2.12653
2.25296
2.39702
2.56639
2.78918
3.07623
3.42259
3.8625
4.47934
5.46624
7.30045
11.2907
21.2373
48.2293
129.52
449.354
2340.47
1.65432
1.67158
1.69096
1.71159
1.73383
1.75752
1.78293
1.81007
1.83918
1.87036
1.63863
1.62519
1.61287
1.60401
1.59636
1.59444
1.59671
1.60332
1.61651
1.63965
1.67287
1.71835
1.77624
1.84791
1.93228
2.03053
2.14086
2.26456
2.40051
2.55299
2.74215
2.98327
3.26219
3.59537
4.01822
4.61379
5.57097
7.35854
11.2555
20.9966
47.6349
129.119
455.103
2398.25
1.6386
1.65468
1.67237
1.6917
1.71231
1.73447
1.75809
1.7834
1.81045
1.83942
1.87045
1.62509
1.6128
1.60385
1.5962
1.59425
1.59651
1.60319
1.61655
1.64009
1.67416
1.72117
1.78156
1.85723
1.9463
2.04963
2.16473
2.29199
2.42783
2.57444
2.75049
2.96576
3.20418
3.47109
3.78521
4.18622
4.75628
5.68252
7.42385
11.2338
20.7876
47.1011
128.79
460.669
2453.37
1.62501
1.639
1.65547
1.67318
1.69246
1.71304
1.73513
1.75869
1.7839
1.81083
1.83967
1.87054
1.61275
1.60369
1.59607
1.59406
1.59634
1.60306
1.61659
1.64051
1.6754
1.72388
1.78678
1.86664
1.96171
2.0725
2.19511
2.33021
2.47229
2.62204
2.79743
3.00694
3.22
3.44793
3.70033
3.99122
4.36467
4.90599
5.79916
7.49537
11.2237
20.6061
46.6298
128.519
466.022
2505.84
1.61271
1.62534
1.63984
1.65628
1.67402
1.69324
1.7138
1.73581
1.7593
1.7844
1.81123
1.83992
1.87063
1.60355
1.59596
1.59389
1.59616
1.60294
1.61661
1.64089
1.67655
1.72641
1.79177
1.87573
1.97702
2.09717
2.23032
2.37649
2.5295
2.68922
2.87332
3.09017
3.30298
3.50598
3.71413
3.94479
4.21192
4.55333
5.06174
5.92018
7.57146
11.2256
20.4493
46.2096
128.308
471.179
2555.63
1.60342
1.61307
1.6261
1.64071
1.65712
1.67488
1.69405
1.71457
1.73651
1.75992
1.78492
1.81163
1.84018
1.87073
1.59588
1.59373
1.596
1.60281
1.61661
1.64121
1.67759
1.72873
1.79643
1.88432
1.99178
2.12169
2.26799
2.42952
2.59728
2.77246
2.97289
3.20774
3.43248
3.63977
3.82307
4.00298
4.20296
4.44145
4.75023
5.22218
6.04365
7.65126
11.2324
20.3132
45.8386
128.139
476.11
2602.82
1.59583
1.60362
1.61385
1.62688
1.64161
1.65799
1.67576
1.69489
1.71537
1.73723
1.76057
1.78546
1.81204
1.84044
1.87081
1.59356
1.59583
1.60268
1.61658
1.64147
1.6785
1.73081
1.80073
1.89231
2.00581
2.1454
2.30543
2.48655
2.6749
2.87044
3.09398
3.35652
3.60488
3.82762
4.01822
4.17061
4.31254
4.47431
4.67718
4.95218
5.38512
6.16904
7.73345
11.2464
20.1961
45.51
128.02
480.842
2647.41
1.59341
1.59606
1.60415
1.61466
1.62771
1.64254
1.65889
1.67667
1.69575
1.71619
1.73797
1.76122
1.78601
1.81245
1.84069
1.8709
1.59567
1.60254
1.61654
1.64168
1.67928
1.73266
1.80463
1.89965
2.019
2.16799
2.34179
2.54394
2.75899
2.98335
3.23687
3.53715
3.8208
4.07175
4.27923
4.43941
4.54762
4.64079
4.75693
4.91775
5.15826
5.55095
6.29538
7.81711
11.2671
20.0956
45.2192
127.928
485.342
2689.5
1.59555
1.59328
1.59656
1.60468
1.61551
1.62857
1.64349
1.65982
1.67761
1.69664
1.71702
1.73874
1.7619
1.78655
1.81285
1.84093
1.87098
1.6024
1.61648
1.64184
1.67994
1.73428
1.80813
1.90633
2.03125
2.18922
2.37675
2.60048
2.84422
3.10729
3.40394
3.7536
4.0861
4.37962
4.61766
4.79233
4.90463
4.95296
4.98568
5.04852
5.16135
5.36326
5.71746
6.42164
7.90144
11.2922
20.0094
44.9618
127.877
489.648
2729.15
1.60234
1.59528
1.59307
1.59708
1.60527
1.6164
1.62947
1.64448
1.6608
1.67857
1.69756
1.71789
1.73952
1.76256
1.78708
1.81324
1.84117
1.87106
1.61641
1.64196
1.68051
1.73569
1.81124
1.91235
2.04252
2.20897
2.41005
2.65541
2.92864
3.23534
3.59159
4.01325
4.41233
4.76769
5.05392
5.25641
5.37375
5.4157
5.38565
5.34519
5.34687
5.40745
5.56645
5.88303
6.54683
7.98575
11.3208
19.9358
44.7341
127.841
493.721
2766.47
1.61645
1.6018
1.59472
1.59283
1.59768
1.60592
1.61732
1.63042
1.64549
1.6618
1.67956
1.6985
1.71877
1.74029
1.76321
1.78759
1.81361
1.8414
1.87114
1.64205
1.681
1.73694
1.81401
1.91777
2.05282
2.22718
2.44152
2.70806
3.01135
3.36552
3.79028
4.31354
4.81803
5.26475
5.6262
5.87555
6.00664
6.032
5.97488
5.84477
5.71738
5.65003
5.6542
5.76702
6.04641
6.67017
8.06931
11.3521
19.8731
44.533
127.842
497.613
2801.52
1.64227
1.61547
1.60054
1.59411
1.59271
1.59832
1.60664
1.61826
1.63142
1.64653
1.66285
1.68057
1.69947
1.71964
1.74105
1.76384
1.78809
1.81398
1.84162
1.87122
1.6814
1.73803
1.81647
1.92264
2.06218
2.24391
2.47103
2.75797
3.09184
3.49664
3.99566
4.64071
5.30973
5.91721
6.39844
6.72614
6.88445
6.88916
6.77564
6.5841
6.32924
6.10034
5.95617
5.90004
5.96415
6.20656
6.79084
8.15159
11.3852
19.82
44.3547
127.852
501.274
2830.05
1.68195
1.64064
1.61302
1.5992
1.59364
1.59269
1.59899
1.60743
1.61923
1.63247
1.6476
1.66393
1.68161
1.70044
1.72049
1.74179
1.76445
1.78858
1.81433
1.84184
1.87129
1.73899
1.81867
1.92704
2.07068
2.25925
2.49855
2.80494
3.1698
3.62711
4.20439
4.99099
5.87706
6.75722
7.46645
7.92579
8.1373
8.11828
7.9212
7.6106
7.24388
6.83747
6.49208
6.26358
6.14358
6.15712
6.36284
6.90851
8.23217
11.4197
19.775
44.1977
127.873
504.303
2854.11
1.74009
1.67953
1.63637
1.61045
1.59804
1.59326
1.59279
1.59966
1.6083
1.62022
1.63357
1.6487
1.66504
1.68264
1.70138
1.72132
1.7425
1.76505
1.78905
1.81468
1.84205
1.87137
1.82062
1.93101
2.07843
2.27332
2.52413
2.84896
3.24498
3.75524
4.4142
5.36494
6.52257
7.77568
8.89309
9.63201
9.94715
9.9127
9.60093
9.111
8.53784
7.95245
7.3671
6.89053
6.57067
6.38365
6.34522
6.51431
7.02317
8.31082
11.4548
19.7372
44.0578
127.908
506.848
2880.37
1.8227
1.73666
1.67278
1.63188
1.6082
1.597
1.59296
1.59309
1.60032
1.60925
1.62125
1.63471
1.64983
1.66614
1.68365
1.70229
1.72213
1.7432
1.76563
1.78951
1.81501
1.84225
1.87144
1.93462
2.08549
2.28629
2.54787
2.89016
3.31719
3.87967
4.62444
5.76385
7.24774
8.96787
10.6476
11.9317
12.54
12.525
12.0765
11.3372
10.4556
9.55255
8.70544
7.91491
7.29344
6.87588
6.61921
6.52808
6.65969
7.13425
8.38707
11.4903
19.7054
43.9514
127.941
509.673
2908.96
1.93825
1.818
1.72637
1.66575
1.62779
1.60612
1.59604
1.59261
1.59358
1.60099
1.61028
1.62231
1.63589
1.65095
1.66722
1.68463
1.70318
1.72291
1.74388
1.7662
1.78996
1.81534
1.84245
1.87147
2.09196
2.29824
2.56993
2.92879
3.38627
3.99964
4.83568
6.18781
8.04738
10.3203
12.702
14.7546
16.0308
16.2664
15.683
14.6256
13.3144
11.9421
10.6448
9.49625
8.47689
7.69839
7.17777
6.8494
6.70547
6.79901
7.24121
8.46091
11.5256
19.6825
43.8644
127.991
512.735
2940.18
2.09818
1.93194
1.80271
1.71576
1.65931
1.62395
1.60416
1.59516
1.59224
1.5942
1.60169
1.61136
1.62341
1.63707
1.65206
1.66827
1.68559
1.70405
1.72368
1.74453
1.76674
1.79039
1.81565
1.84255
1.87147
2.30934
2.59043
2.96507
3.45214
4.115
5.04898
6.63501
8.91121
11.81
15.0206
18.0459
20.3059
21.3006
20.8471
19.4143
17.5362
15.5073
13.5502
11.8009
10.3166
9.04845
8.10293
7.47499
7.07347
6.87687
6.93223
7.34399
8.53183
11.5559
19.6647
43.7752
128.049
516.153
2974.18
2.31968
2.08999
1.90953
1.78712
1.70601
1.6532
1.62031
1.60235
1.59436
1.59194
1.59492
1.60245
1.61249
1.62453
1.63822
1.65315
1.66929
1.68653
1.70489
1.72442
1.74517
1.76728
1.79082
1.81581
1.84255
1.87147
2.60962
2.99918
3.51483
4.22605
5.26533
7.10192
9.82653
13.4105
17.5593
21.7455
25.2826
27.4704
27.8114
26.2852
23.6896
20.7713
17.8833
15.256
13.0051
11.157
9.62469
8.50461
7.76625
7.29078
7.04191
7.05951
7.44204
8.59085
11.5824
19.6475
43.6812
128.132
519.855
3011.36
2.62698
2.30909
2.05743
1.88697
1.77275
1.69672
1.64736
1.61688
1.60068
1.59364
1.59173
1.5957
1.60328
1.61361
1.62564
1.63934
1.65421
1.67029
1.68744
1.70571
1.72514
1.74579
1.7678
1.79102
1.81581
1.84255
1.87147
3.03147
3.57442
4.33339
5.48523
7.58383
10.78
15.095
20.2712
25.7808
30.8674
34.6586
36.3735
35.5931
32.5546
28.4629
24.2854
20.4064
17.0343
14.2413
12.0082
10.2005
8.90094
8.05039
7.50079
7.20039
7.18056
7.52327
8.64135
11.6123
19.6305
43.5867
128.227
524.01
3051.85
3.06018
2.61341
2.26183
2.02509
1.86612
1.75899
1.68777
1.64178
1.61365
1.59913
1.59303
1.59164
1.59653
1.60417
1.61471
1.62674
1.64043
1.65525
1.67125
1.68833
1.70651
1.72585
1.7464
1.76805
1.79102
1.81581
1.84255
1.87147
3.63135
4.43779
5.70856
8.0752
11.7584
16.8375
23.1101
30.0742
36.9439
42.7222
46.3694
47.0864
44.6319
39.6013
33.6741
28.0287
23.0401
18.8607
15.4944
12.8613
10.7713
9.28946
8.32634
7.70311
7.35196
7.28066
7.59242
8.69724
11.6461
19.6152
43.4877
128.36
528.512
3096.15
3.68134
3.04241
2.54473
2.21562
1.99517
1.84612
1.74571
1.67917
1.63645
1.61062
1.59771
1.59253
1.59168
1.59734
1.6051
1.61577
1.62784
1.64149
1.65627
1.67219
1.6892
1.70728
1.72654
1.7467
1.76805
1.79102
1.81581
1.84255
1.87147
4.54014
5.9334
8.57022
12.7489
18.6136
26.0316
34.5483
43.385
51.4756
57.583
60.5402
59.6179
54.8687
47.3468
39.2538
31.949
25.7491
20.7123
16.7505
13.7083
11.3329
9.66818
8.59298
7.89726
7.47736
7.36566
7.6686
8.75918
11.6846
19.6008
43.391
128.509
533.593
3144.41
4.63089
3.65856
2.94099
2.47867
2.17285
1.96643
1.8268
1.73289
1.67091
1.63138
1.6078
1.59644
1.59216
1.59188
1.59811
1.60608
1.61681
1.62892
1.64253
1.65727
1.67311
1.69004
1.70803
1.72688
1.7467
1.76805
1.79102
1.81581
1.84255
1.87143
6.15724
9.06452
13.7399
20.4002
28.9936
39.129
50.0634
60.7146
69.7263
75.6365
77.2128
73.9092
66.2014
55.6924
45.1263
35.9948
28.5003
22.5691
17.9974
14.5422
11.8817
10.0353
8.84925
8.05742
7.5842
7.45916
7.75262
8.82795
11.7282
19.5898
43.2904
128.717
539.099
3197.2
4.60073
6.35611
3.50368
2.84572
2.41745
2.13174
1.93862
1.80811
1.72055
1.663
1.62656
1.60522
1.5953
1.59189
1.59234
1.59885
1.60707
1.61783
1.62999
1.64354
1.65824
1.674
1.69087
1.7084
1.72688
1.7467
1.76805
1.79102
1.81581
1.84245
1.87136
9.5545
14.7209
22.1762
31.9573
43.7477
56.8597
70.2362
82.4801
91.9429
96.9659
96.3375
89.8349
78.4918
64.5252
51.2134
40.1166
31.264
24.4132
19.2247
15.3571
12.4143
10.3889
9.06114
8.19422
7.70212
7.56215
7.84543
8.9044
11.778
19.5805
43.1968
128.945
545.351
3254.7
4.34683
6.32783
9.98871
3.36317
2.75751
2.35865
2.09198
1.91172
1.79006
1.70867
1.65543
1.62197
1.60289
1.59432
1.59154
1.59295
1.59957
1.60808
1.61882
1.63103
1.64452
1.65919
1.67487
1.69127
1.7084
1.72688
1.7467
1.76805
1.79102
1.81565
1.84225
1.87129
15.6829
23.9238
34.8883
48.343
63.6674
79.8557
95.5321
108.978
118.252
121.541
117.771
107.21
91.5728
73.7243
57.4385
44.2689
34.0138
26.2295
20.4239
16.1482
12.9279
10.6821
9.24263
8.34563
7.83229
7.67578
7.94806
8.98951
11.8348
19.5776
43.1008
129.265
552.133
3317.59
4.1244
5.88188
9.98053
16.5361
3.23425
2.67283
2.30183
2.0535
1.88573
1.77268
1.69728
1.64821
1.61767
1.60083
1.59349
1.59126
1.59363
1.60029
1.60908
1.61981
1.63206
1.64549
1.66012
1.6753
1.69127
1.7084
1.72688
1.7467
1.76805
1.79081
1.81533
1.84204
1.87122
25.6275
37.7586
52.8629
70.3957
89.4155
108.606
126.276
140.371
148.651
149.213
141.285
125.801
105.259
83.1672
63.729
48.4107
36.7269
28.0058
21.5881
16.9109
13.3544
10.9337
9.44403
8.51344
7.97626
7.80134
8.0617
9.0844
11.8998
19.5798
43.0192
129.608
559.876
3385.99
3.92421
5.49329
9.17034
16.5935
27.1467
3.11116
2.59114
2.24692
2.01635
1.86069
1.75599
1.68641
1.64142
1.61381
1.59909
1.5928
1.59109
1.59435
1.60103
1.61006
1.62078
1.63306
1.64644
1.66058
1.67529
1.69127
1.7084
1.72687
1.7467
1.76779
1.79039
1.815
1.84183
1.87114
40.5444
57.2671
76.9713
98.7883
121.478
143.436
162.649
176.685
183.002
179.72
166.572
145.338
119.357
92.7363
70.0185
52.5056
39.3844
29.7318
22.7111
17.5452
13.7209
11.2135
9.66778
8.69969
8.13574
7.94032
8.18773
9.19038
11.9741
19.5872
42.937
130.095
568.297
3460.7
3.73652
5.14419
8.44801
15.2368
27.3698
43.0361
2.99292
2.51235
2.19398
1.98057
1.83665
1.74003
1.67614
1.63525
1.61044
1.59759
1.59225
1.59103
1.59508
1.6018
1.61103
1.62174
1.63405
1.6469
1.66058
1.67529
1.69127
1.7084
1.72687
1.74639
1.76727
1.78995
1.81467
1.84161
1.87106
61.5226
83.3415
107.878
133.977
160.147
184.514
204.693
217.807
221.035
212.695
193.265
165.531
133.678
102.322
76.2477
56.5237
41.971
31.3991
23.6463
18.0903
14.1284
11.5247
9.91675
8.90674
8.31272
8.09442
8.32772
9.30891
12.0598
19.6033
42.8805
130.614
577.957
3541.8
3.55915
4.81958
7.79111
13.9821
25.2904
43.5681
65.3303
2.8793
2.43656
2.14307
1.94624
1.81364
1.72494
1.66675
1.62976
1.60749
1.5963
1.59184
1.59108
1.5958
1.60259
1.61198
1.6227
1.63453
1.64687
1.66058
1.67529
1.69127
1.7084
1.72653
1.74578
1.76673
1.7895
1.81432
1.84139
1.87098
89.4651
116.624
145.989
176.193
205.546
231.877
252.324
263.488
262.35
247.678
220.961
186.092
148.043
111.824
82.3666
60.4397
44.4735
32.7901
24.4502
18.6961
14.5819
11.8714
10.1942
9.13717
8.50947
8.26563
8.48343
9.44175
12.1577
19.6342
42.8281
131.35
588.51
3630.12
3.3914
4.51594
7.17711
12.8055
23.3334
40.5882
66.3488
94.9323
2.7703
2.3639
2.0943
1.91343
1.79189
1.71111
1.65834
1.62488
1.60491
1.59521
1.59155
1.59125
1.59649
1.6034
1.61295
1.62316
1.63451
1.64687
1.66057
1.67529
1.69127
1.70802
1.72583
1.74515
1.76618
1.78904
1.81396
1.84116
1.8709
124.978
157.448
191.441
225.472
257.668
285.457
305.341
313.345
306.428
284.145
249.241
206.739
162.288
121.161
88.3338
64.2328
46.5648
33.986
25.3433
19.3699
15.087
12.2581
10.5037
9.39394
8.72859
8.45617
8.65705
9.59164
12.2718
19.6756
42.8146
132.136
600.664
3743.62
3.2329
4.23275
6.60008
11.6854
21.4608
37.7566
62.3001
96.6251
132.401
2.66603
2.29452
2.04777
1.88244
1.77194
1.69869
1.65082
1.62055
1.60267
1.5943
1.59135
1.59158
1.59717
1.60428
1.6134
1.62311
1.63451
1.64687
1.66057
1.67529
1.69086
1.70726
1.72512
1.74451
1.76561
1.78856
1.8136
1.84092
1.87081
168.314
205.84
244.155
281.726
316.431
345.106
363.428
366.858
352.649
321.534
277.692
227.218
176.277
130.262
94.1149
67.4058
48.3629
35.3143
26.336
20.1199
15.6502
12.6898
10.8494
9.68055
8.97305
8.66873
8.8495
9.76112
12.4028
19.7396
42.8272
133.245
616.525
3880.48
3.08325
3.97021
6.06035
10.6162
19.6422
35.0097
58.4473
91.3475
134.929
177.888
2.56667
2.22858
2.0039
1.85405
1.75401
1.68755
1.64409
1.61668
1.60077
1.59353
1.59113
1.59205
1.59792
1.60468
1.61334
1.62311
1.63451
1.64687
1.66057
1.67486
1.69002
1.70648
1.72439
1.74385
1.76503
1.78808
1.81323
1.84068
1.87072
219.372
261.578
303.92
344.818
381.725
410.619
426.158
423.388
400.324
359.274
305.933
247.311
189.894
139.072
98.9503
70.1332
50.3594
36.7904
27.4405
20.9553
16.2785
13.1722
11.2361
10.001
9.24625
8.90673
9.0636
9.95228
12.5564
19.8209
42.8721
134.665
637.315
4019.76
2.94174
3.7291
5.55971
9.60121
17.8673
32.305
54.681
86.3591
128.256
181.342
231.142
2.47254
2.16663
1.96379
1.82856
1.73791
1.67755
1.63807
1.61323
1.59914
1.59289
1.59096
1.5927
1.59821
1.6046
1.61333
1.6231
1.6345
1.64688
1.66011
1.67398
1.68917
1.70567
1.72364
1.74317
1.76443
1.78758
1.81284
1.84043
1.87063
277.769
324.3
370.498
414.635
453.47
481.751
492.988
482.185
448.72
396.82
333.632
266.837
203.049
146.43
103.103
73.159
52.5774
38.4323
28.6702
21.8865
16.9799
13.7116
11.669
10.3597
9.55207
9.17354
9.30247
10.1689
12.7333
19.9373
42.9801
136.965
659.445
4160.86
2.8079
3.51145
5.09909
8.65004
16.1374
29.623
50.941
81.4754
122.043
173.069
235.499
291.597
2.3845
2.11018
1.92785
1.80568
1.72346
1.66858
1.63268
1.61019
1.59775
1.59238
1.59105
1.59296
1.59804
1.60461
1.61333
1.6231
1.63452
1.64641
1.65916
1.67307
1.68829
1.70485
1.72288
1.74247
1.76382
1.78707
1.81245
1.84018
1.87054
342.975
393.637
443.756
491.257
531.719
558.237
563.265
542.411
497.111
433.692
360.516
285.654
214.009
152.737
107.702
76.5176
55.0433
40.2597
30.04
22.9249
17.7633
14.3152
12.1536
10.7617
9.89487
9.47299
9.57005
10.4135
12.9421
20.1062
43.2537
139.454
684.11
4302.32
2.68276
3.31303
4.67831
7.76532
14.4602
26.9611
47.1916
76.6125
115.993
165.547
225.346
296.683
358.517
2.30471
2.05976
1.89567
1.78516
1.71048
1.66054
1.62788
1.60751
1.59659
1.59221
1.59094
1.59281
1.59803
1.6046
1.61332
1.62314
1.63402
1.64545
1.6582
1.67215
1.6874
1.70401
1.72209
1.74176
1.76319
1.78654
1.81204
1.83992
1.87045
414.476
469.387
523.863
575.066
616.689
639.78
636.207
603.185
544.834
469.49
386.371
301.288
223.383
159.709
112.8
80.2472
57.7859
42.2944
31.5667
24.0834
18.6385
14.9906
12.6964
11.2124
10.2795
9.80945
9.87019
10.692
13.2284
20.383
43.5974
142.73
710.514
4443.22
2.56933
3.13227
4.29909
6.94898
12.8531
24.3277
43.4181
71.7093
109.992
158.313
216.401
284.243
363.984
431.194
2.23389
2.01473
1.86686
1.76674
1.69884
1.65335
1.6236
1.60522
1.59594
1.59193
1.5906
1.59285
1.59802
1.60458
1.61337
1.62266
1.63301
1.64447
1.65722
1.6712
1.68648
1.70314
1.72128
1.74103
1.76255
1.786
1.81163
1.83966
1.87036
491.955
551.709
611.398
666.751
708.695
725.959
710.917
663.66
591.324
503.902
407.797
314.623
233.713
167.414
118.448
84.3894
60.8372
44.5609
33.2687
25.3759
19.6161
15.7462
13.3044
11.7178
10.7113
10.1876
10.2085
11.0665
13.6179
20.716
44.1636
146.315
739.85
4581.77
2.46877
2.97103
3.96307
6.2071
11.3346
21.7407
39.6213
66.7297
103.943
151.222
207.97
273.695
348.662
436.539
509.169
2.17102
1.97452
1.84106
1.75024
1.68842
1.6469
1.61984
1.60369
1.59535
1.59152
1.59061
1.59284
1.59802
1.60465
1.61291
1.62168
1.632
1.64347
1.65621
1.67023
1.68554
1.70225
1.72046
1.74027
1.76189
1.78546
1.81122
1.83942
1.87027
575.538
641.361
707.584
767.463
808.048
816.178
786.464
723.1
636.142
532.391
426.033
329.272
245.089
175.924
124.705
88.9895
64.2321
47.0858
35.1662
26.8179
20.7078
16.591
13.9849
12.2842
11.1958
10.6128
10.6609
11.5523
14.0575
21.1506
44.8359
150.87
771.476
4716.75
2.37987
2.82834
3.67605
5.54859
9.92387
19.2233
35.8134
61.6553
97.7802
144.129
199.87
264.018
336.23
417.459
513.791
592.525
2.11515
1.93862
1.81797
1.73545
1.67904
1.64119
1.61715
1.60256
1.5948
1.59154
1.59059
1.59278
1.59817
1.60423
1.61192
1.6207
1.63096
1.64245
1.65518
1.66923
1.68458
1.70134
1.71961
1.7395
1.76122
1.78491
1.81082
1.83917
1.87019
666.144
740.074
814.647
878.818
915.088
909.748
862.055
780.921
673.344
556.617
446.012
345.344
257.603
185.316
131.632
94.0961
68.0083
49.8978
37.2811
28.4258
21.9257
17.5341
14.7457
12.9182
11.7389
11.1799
11.2395
12.084
14.562
21.6666
45.7963
155.937
806.488
4846.15
2.30141
2.70118
3.43976
4.98695
8.65206
16.8027
32.0169
56.4802
91.4519
136.93
191.903
254.993
325.195
402.737
489.671
595.782
682.322
2.06548
1.90659
1.79732
1.72217
1.67071
1.63693
1.61532
1.60178
1.59486
1.59153
1.59055
1.59292
1.59786
1.60332
1.61095
1.61972
1.6299
1.64141
1.65414
1.66821
1.6836
1.7004
1.71875
1.73872
1.76055
1.78439
1.81043
1.83894
1.8701
765.929
851.179
936.012
1003.17
1030.06
1006.45
937.079
829.372
705.037
583.129
467.863
362.946
271.345
195.666
139.293
99.7602
72.2058
53.0279
39.6368
30.217
23.2829
18.5852
15.5943
13.6262
12.4602
11.898
11.8646
12.666
15.1291
22.3143
46.9473
162.21
844.578
4968.72
2.23222
2.58797
3.24063
4.51925
7.54942
14.5226
28.2639
51.2115
84.9187
129.531
183.92
246.351
315.29
390.142
472.127
564.794
683.756
781.347
2.02131
1.87802
1.77879
1.71035
1.66433
1.63417
1.61431
1.60187
1.59484
1.59147
1.59086
1.59262
1.59708
1.60249
1.60997
1.61872
1.62883
1.64034
1.65307
1.66716
1.6826
1.69945
1.71787
1.73795
1.7599
1.78388
1.81006
1.83871
1.87002
879.286
980.338
1077.43
1142.73
1155.45
1106.25
1001.26
870.93
739.803
612.096
491.712
382.18
286.402
207.05
147.752
106.034
76.8664
56.5084
42.2576
32.2099
24.7924
19.7542
16.5383
14.5621
13.3662
12.664
12.5359
13.2975
15.7738
23.0808
48.4822
169.347
886.577
5082.25
2.17117
2.48759
3.06956
4.13322
6.6212
12.4759
24.622
45.8716
78.1522
121.842
175.778
237.9
306.16
379.338
457.67
543.807
643.194
781.202
895.368
1.98203
1.85246
1.76229
1.70114
1.66031
1.63285
1.61443
1.60184
1.59474
1.59185
1.59094
1.59194
1.59638
1.60168
1.60896
1.61771
1.62774
1.63925
1.65199
1.66609
1.68158
1.69847
1.717
1.7372
1.75927
1.78338
1.80969
1.8385
1.86994
1014.25
1138.05
1244.63
1309.15
1293.98
1194.68
1057.12
916.9
777.918
643.69
517.676
403.137
302.856
219.54
157.07
112.97
82.032
60.3719
45.1685
34.4226
26.4668
21.05
17.7809
15.7286
14.3229
13.4733
13.2503
13.9803
16.4956
24.0171
50.3492
178.016
932.809
5186.11
2.11726
2.39903
2.92007
3.81563
5.85005
10.7064
21.2345
40.5381
71.1401
113.78
167.33
229.444
297.567
369.86
445.873
527.103
618.121
726.921
895.501
1036.9
1.947
1.82975
1.74925
1.69548
1.65859
1.63305
1.6144
1.6017
1.59526
1.59209
1.59081
1.59144
1.59566
1.60089
1.60795
1.61669
1.62663
1.63813
1.65088
1.66499
1.68054
1.69751
1.71615
1.73647
1.75866
1.78291
1.80933
1.83828
1.86987
1186.62
1338.06
1474.46
1513.98
1422.29
1273.26
1119.95
967.836
819.699
678.091
545.864
425.896
320.773
233.197
167.305
120.617
87.7433
64.6509
48.3941
36.8733
28.3183
22.7498
19.3196
16.9505
15.3223
14.3196
14.0048
14.711
17.306
25.1221
52.7335
188.14
983.461
5277.75
2.06947
2.32122
2.78777
3.55718
5.21591
9.20555
18.1933
35.4121
63.9423
105.267
158.417
220.778
289.266
361.417
436.121
514.141
598.739
697.026
821.656
1044.29
1230.42
1.91594
1.81163
1.74132
1.6933
1.65886
1.63301
1.61421
1.60243
1.5958
1.59222
1.59096
1.59108
1.59492
1.60013
1.60693
1.61564
1.62553
1.63698
1.64976
1.66388
1.67951
1.69659
1.71533
1.73577
1.75807
1.78244
1.80899
1.83808
1.86979
1432.72
1669.94
1796.14
1709.88
1538.63
1363.68
1191.08
1024.54
865.562
715.514
576.386
450.521
340.204
248.072
178.504
129.018
94.0377
69.3752
51.9572
39.5774
30.7408
24.8448
20.922
18.2166
16.3549
15.1958
14.7948
15.4923
18.2076
26.4401
55.656
200.269
1040.2
5358.19
2.02726
2.25286
2.67015
3.34443
4.69706
7.9511
15.505
30.6501
56.8003
96.306
148.875
211.668
281
353.712
428.049
504.113
584.349
674.543
785.639
940.619
1275.1
1548.22
1.89085
1.80084
1.73855
1.69368
1.65881
1.63274
1.61517
1.60351
1.59641
1.5927
1.59116
1.59087
1.59417
1.59938
1.60592
1.61457
1.62441
1.63581
1.64863
1.66278
1.67851
1.69569
1.71453
1.73509
1.75749
1.78199
1.80865
1.83788
1.86972
1907.97
2162.08
2098.15
1888.42
1675.88
1469.12
1272.82
1088.23
916.13
756.245
609.362
477.061
361.177
264.193
190.701
138.208
100.946
74.5704
55.8766
43.1067
33.7154
27.0177
22.5735
19.5145
17.411
16.0951
15.6155
16.3255
19.2104
27.9934
59.2585
214.755
1101.39
5424.91
1.99294
2.19315
2.56561
3.16508
4.27558
6.91244
13.1721
26.2955
49.9331
87.133
138.607
201.85
272.473
346.452
421.31
496.542
573.979
658.348
759.731
896.203
1117.61
1738.19
2235.53
1.87603
1.7974
1.73907
1.69362
1.65845
1.63399
1.61693
1.60499
1.59754
1.59331
1.59132
1.59079
1.59343
1.59865
1.60493
1.61347
1.6233
1.63462
1.64751
1.66172
1.67754
1.69482
1.71375
1.73443
1.75693
1.78155
1.80833
1.83768
1.86968
2612.82
2650.05
2391.3
2115.08
1844.85
1598.14
1368.93
1161.03
972.395
800.69