/*--------------------------------*- C++ -*----------------------------------*\
  =========                 |
  \\      /  F ield         | OpenFOAM: The Open Source CFD Toolbox
   \\    /   O peration     | Website:  https://openfoam.org
    \\  /    A nd           | Version:  8
     \\/     M anipulation  |
\*---------------------------------------------------------------------------*/
FoamFile
{
    version     2.0;
    format      ascii;
    class       volScalarField;
    location    "0.39";
    object      nut;
}
// * * * * * * * * * * * * * * * * * * * * * * * * * * * * * * * * * * * * * //

dimensions      [0 2 -1 0 0 0 0];

internalField   nonuniform List<scalar> 
15677
(
0.000168258
0.000653013
0.000148408
0.00151365
0.000442446
0.000141492
0.00267531
0.000875813
0.000381184
0.000142355
0.00392107
0.00151891
0.000686751
0.000354291
0.000145429
0.00502409
0.00235606
0.00114657
0.000585799
0.000340331
0.000151174
0.00584069
0.0033172
0.001781
0.000948099
0.00052952
0.000332105
0.000156984
0.00633511
0.00429842
0.0025679
0.00146378
0.000821378
0.000492758
0.00032711
0.00016243
0.00656291
0.00518744
0.00345319
0.00213218
0.00125793
0.000737831
0.000467771
0.000324238
0.000167244
0.00665848
0.0058933
0.00435566
0.0029228
0.00184253
0.00111333
0.000678044
0.00045077
0.000322711
0.00017148
0.0067055
0.00633828
0.00518118
0.0037797
0.00255823
0.00163325
0.00100577
0.000634813
0.000439067
0.000322151
0.000175086
0.00671438
0.00655352
0.00584559
0.004626
0.00336423
0.00228837
0.00147445
0.000925554
0.000602935
0.000431114
0.000322137
0.000178235
0.0067099
0.00666155
0.00629585
0.00537778
0.00419855
0.00304751
0.00208021
0.00135116
0.000863633
0.000579297
0.000425692
0.000322635
0.000180896
0.00670628
0.00669877
0.00652973
0.005965
0.00498578
0.00385975
0.00279872
0.00191469
0.00125351
0.000815554
0.000561598
0.000422201
0.00032329
0.00018328
0.00670541
0.00670439
0.00664687
0.00635733
0.00565148
0.00465832
0.00358674
0.00259728
0.00178113
0.0011755
0.000777828
0.000548384
0.000419886
0.000324211
0.000185361
0.00670548
0.00670287
0.00668791
0.00656322
0.00614315
0.00537071
0.00438487
0.00336126
0.00243221
0.00167175
0.0011122
0.000748025
0.000538353
0.000418617
0.000325083
0.000187203
0.00670566
0.00670163
0.00669642
0.00665671
0.00644752
0.00593546
0.00512443
0.00415322
0.00317361
0.00229474
0.00158174
0.00106057
0.000724437
0.000531045
0.000417753
0.000326152
0.000188888
0.00670577
0.00670115
0.00669716
0.00668499
0.00660533
0.00632303
0.00574041
0.00490837
0.00395659
0.00301515
0.00218012
0.00150684
0.00101881
0.000705947
0.000525379
0.000417628
0.000327109
0.000190331
0.00670582
0.00670103
0.00669677
0.00669171
0.00666402
0.00654204
0.0061905
0.00556092
0.00472007
0.00378793
0.00288139
0.0020836
0.00144499
0.000984838
0.000691215
0.000521504
0.000417587
0.000328224
0.000191785
0.00670584
0.00670102
0.00669649
0.00669276
0.00668252
0.00663503
0.00646932
0.00606112
0.00539896
0.00455529
0.00364365
0.00276763
0.00200286
0.00139375
0.000957282
0.000679887
0.000518481
0.000418141
0.00032922
0.00019293
0.00670585
0.00670103
0.00669636
0.00669269
0.00668747
0.00666944
0.00659901
0.00639165
0.00593916
0.00525331
0.00441198
0.00351969
0.00267144
0.00193529
0.0013517
0.000935196
0.000670985
0.000516781
0.000418576
0.000330337
0.000194285
0.00670585
0.00670104
0.00669631
0.00669256
0.00668838
0.00668102
0.0066521
0.00655763
0.00631409
0.00582524
0.00512385
0.00428729
0.00341389
0.00259039
0.0018794
0.00131744
0.000917695
0.000664489
0.00051545
0.00041956
0.000331389
0.0001952
0.00670585
0.00670104
0.00669627
0.00669249
0.00668835
0.00668436
0.00667224
0.00663134
0.0065134
0.00623726
0.00572107
0.00500938
0.00417981
0.00332424
0.00252291
0.00183359
0.00129008
0.000904192
0.000659667
0.000515244
0.000420297
0.000332475
0.000196547
0.00670585
0.00670103
0.00669626
0.00669246
0.0066882
0.00668512
0.00667904
0.00666204
0.00660761
0.00646821
0.00616508
0.00562725
0.00490959
0.00408806
0.00324911
0.00246746
0.00179703
0.0012689
0.000894233
0.000656619
0.000515038
0.000421586
0.000333659
0.0001973
0.00670585
0.00670103
0.00669625
0.00669244
0.0066881
0.00668518
0.00668097
0.00667366
0.00664972
0.00658283
0.0064229
0.00609902
0.00554399
0.00482333
0.00401083
0.00318756
0.00242349
0.00176889
0.001253
0.000887133
0.000654799
0.000515988
0.000422537
0.00033462
0.000198652
0.00670584
0.00670103
0.00669625
0.00669241
0.00668804
0.00668511
0.00668136
0.00667759
0.00666702
0.00663678
0.00655673
0.00638145
0.00603775
0.00547112
0.00475113
0.00394799
0.00313874
0.00238923
0.0017478
0.00124229
0.000883263
0.000654407
0.000516517
0.000424097
0.000336139
0.000199375
0.00670584
0.00670102
0.00669624
0.00669239
0.00668801
0.00668502
0.00668135
0.0066787
0.00667348
0.00666026
0.00662303
0.00653278
0.00634083
0.00598516
0.00541091
0.00469144
0.00389706
0.00310076
0.00236536
0.0017355
0.00123677
0.000881418
0.000654984
0.000518538
0.000425154
0.000336943
5.34996e-05
0.00670583
0.00670102
0.00669624
0.00669237
0.00668799
0.00668494
0.00668126
0.00667887
0.00667562
0.00666964
0.00665358
0.00660994
0.00650846
0.00630895
0.00593982
0.00535862
0.0046449
0.00386237
0.00307857
0.0023523
0.00172928
0.00123447
0.000882396
0.000656937
0.000519747
0.000427611
0.000284663
6.36496e-05
0.00670583
0.00670102
0.00669624
0.00669235
0.00668798
0.00668488
0.0066812
0.00667877
0.00667618
0.00667299
0.00666663
0.00664659
0.00659797
0.00649151
0.00627523
0.00590329
0.00532597
0.0046169
0.00384045
0.00306408
0.00234551
0.00172805
0.0012364
0.000885202
0.000659081
0.000522296
0.000421541
0.000220606
7.12561e-05
0.00670582
0.00670102
0.00669625
0.00669234
0.00668798
0.00668482
0.00668115
0.00667863
0.00667623
0.00667395
0.00667174
0.0066628
0.00664265
0.00658883
0.00647083
0.00625897
0.00588425
0.00530243
0.00459633
0.00382684
0.00305834
0.00234595
0.00173295
0.00124255
0.000889655
0.000662433
0.000523788
0.000402177
0.000178708
7.69155e-05
0.00670581
0.00670102
0.00669625
0.00669232
0.00668797
0.00668478
0.00668112
0.00667851
0.00667616
0.00667405
0.00667349
0.00666941
0.00666336
0.00663779
0.00658246
0.00646708
0.00625091
0.00586922
0.00528748
0.00458628
0.0038255
0.00306403
0.00235611
0.00174414
0.00125183
0.000896203
0.000666592
0.000522165
0.000369604
0.000152911
8.15617e-05
0.00670581
0.00670102
0.00669625
0.00669231
0.00668797
0.00668475
0.00668108
0.0066784
0.00667608
0.00667391
0.00667392
0.00667174
0.00667226
0.00666116
0.00664121
0.00658365
0.00646635
0.00624553
0.00586316
0.00528658
0.00459352
0.00383859
0.00308112
0.00237422
0.00176055
0.00126468
0.000904547
0.000670756
0.000516839
0.000338513
0.000134326
8.51985e-05
0.0067058
0.00670102
0.00669625
0.00669231
0.00668796
0.00668472
0.00668105
0.00667832
0.00667599
0.00667373
0.00667392
0.00667229
0.00667571
0.00667159
0.00666959
0.00664596
0.00658924
0.00647148
0.00625069
0.00587472
0.00530289
0.00461484
0.0038642
0.00310836
0.00239997
0.00178205
0.00128097
0.000914379
0.000674647
0.000506432
0.000308371
0.000121122
8.78251e-05
0.0067058
0.00670102
0.00669625
0.0066923
0.00668796
0.0066847
0.00668102
0.00667826
0.0066759
0.00667356
0.0066738
0.00667226
0.00667676
0.00667574
0.00668253
0.00667791
0.00665572
0.0066018
0.00648638
0.00627218
0.00590119
0.00533408
0.00465057
0.00390229
0.00314567
0.00243318
0.00180838
0.00130002
0.000925469
0.000677654
0.000491997
0.000282201
0.000112463
8.98054e-05
0.0067058
0.00670103
0.00669625
0.00669229
0.00668796
0.00668468
0.00668099
0.00667822
0.00667582
0.00667343
0.00667365
0.00667205
0.00667693
0.00667702
0.00668801
0.00669307
0.00668987
0.00667306
0.00662587
0.0065162
0.00630855
0.00594327
0.0053813
0.00470089
0.00395286
0.00319291
0.00247359
0.00183944
0.00132227
0.000938
0.000679295
0.000475984
0.000262437
0.000106553
9.13703e-05
0.00670103
0.0067058
0.00669625
0.00669229
0.00668795
0.00668467
0.00668097
0.00667819
0.00667574
0.00667333
0.0066735
0.00667182
0.00667681
0.00667722
0.00668991
0.00669979
0.00670637
0.00671011
0.00670403
0.00666229
0.00656089
0.00636069
0.00600252
0.00544465
0.004766
0.00401603
0.00324996
0.00252114
0.00187476
0.00134728
0.000953213
0.000680552
0.000462054
0.000247216
0.000102385
9.26635e-05
0.00669625
0.00670104
0.0067058
0.00669228
0.00668795
0.00668466
0.00668094
0.00667817
0.00667566
0.00667327
0.00667334
0.00667162
0.0066766
0.00667706
0.00669036
0.0067023
0.0067139
0.00672844
0.00674556
0.00674527
0.00671355
0.00662182
0.00643137
0.00607974
0.00552553
0.00484648
0.0040916
0.00331669
0.00257544
0.00191476
0.00137733
0.000971389
0.000681596
0.000450076
0.000235516
9.93997e-05
9.37757e-05
0.00669228
0.00669627
0.00670107
0.00670581
0.00668795
0.00668465
0.00668092
0.00667816
0.00667558
0.00667323
0.00667318
0.00667146
0.00667638
0.00667679
0.00669031
0.00670305
0.00671688
0.00673709
0.00676682
0.00679044
0.00680175
0.00678139
0.00670188
0.00652128
0.00617657
0.00562433
0.00494183
0.0041797
0.00339282
0.00263642
0.00196407
0.00141364
0.000991103
0.000683583
0.000440491
0.000226245
9.71854e-05
9.47603e-05
0.00668795
0.00669231
0.00669632
0.0067011
0.00670581
0.00668464
0.0066809
0.00667815
0.0066755
0.00667321
0.00667302
0.00667134
0.00667616
0.00667651
0.00669008
0.00670314
0.0067179
0.00674081
0.00677741
0.00681435
0.00685107
0.00687515
0.0068689
0.00680155
0.00663249
0.00629316
0.00574189
0.00505346
0.00427995
0.00347801
0.00271126
0.00202494
0.00145281
0.00101181
0.000686634
0.000432526
0.000218902
9.5561e-05
9.56548e-05
0.00668463
0.00668799
0.00669237
0.00669637
0.00670113
0.00670582
0.00668088
0.00667814
0.00667543
0.00667321
0.00667285
0.00667128
0.00667593
0.00667626
0.00668981
0.006703
0.00671817
0.00674231
0.00678239
0.0068267
0.00687801
0.00692838
0.00696795
0.00697605
0.0069234
0.00676438
0.00643047
0.00587804
0.00518042
0.00439226
0.00358267
0.00280333
0.00209113
0.00149445
0.00103445
0.000690651
0.00042649
0.000212896
9.43015e-05
9.6476e-05
0.00668087
0.00668467
0.00668807
0.00669243
0.00669643
0.00670117
0.00670583
0.00667814
0.00667537
0.00667321
0.00667268
0.00667126
0.00667568
0.00667605
0.00668955
0.00670278
0.00671815
0.00674292
0.00678478
0.00683326
0.00689351
0.00695995
0.00702827
0.00708337
0.00710665
0.00706566
0.00691798
0.00658768
0.00603128
0.00532372
0.00453055
0.00371078
0.00290346
0.00216229
0.00153843
0.00105691
0.000696203
0.000421845
0.00020792
9.33674e-05
9.72426e-05
0.00667813
0.0066809
0.00668476
0.00668815
0.00669249
0.00669648
0.0067012
0.00670583
0.00667531
0.00667322
0.00667252
0.00667127
0.00667543
0.00667589
0.00668931
0.00670255
0.00671802
0.00674317
0.00678604
0.00683685
0.00690248
0.00697899
0.00706532
0.00715138
0.00722576
0.00726376
0.00723384
0.00709079
0.00676315
0.00620167
0.00549772
0.00470145
0.00385182
0.00301101
0.00223773
0.00158484
0.00108016
0.000702909
0.000418297
0.000203769
9.26122e-05
9.79563e-05
0.00667526
0.00667818
0.00668099
0.00668484
0.00668824
0.00669255
0.00669654
0.00670123
0.00670584
0.00667324
0.00667237
0.00667132
0.00667515
0.00667581
0.00668908
0.00670233
0.00671787
0.00674327
0.0067868
0.00683915
0.00690816
0.00699107
0.00708964
0.00719534
0.00730315
0.00739496
0.00744964
0.00742982
0.00728844
0.00695534
0.00640645
0.00570906
0.00488611
0.0040022
0.003125
0.00231693
0.00163329
0.00110421
0.000710585
0.000415988
0.000200263
9.20557e-05
9.86304e-05
0.00667325
0.00667526
0.00667828
0.00668108
0.00668493
0.00668833
0.00669262
0.0066966
0.00670126
0.00670585
0.00667223
0.00667138
0.00667486
0.00667581
0.00668885
0.00670212
0.00671771
0.0067433
0.00678732
0.00684085
0.00691225
0.00699952
0.0071068
0.00722644
0.0073566
0.00748408
0.00759578
0.00766371
0.00765307
0.00751262
0.00719089
0.00665119
0.00593345
0.00508079
0.00416083
0.00324438
0.00239919
0.00168335
0.00112859
0.000718821
0.000414521
0.000197312
9.15863e-05
9.92596e-05
0.00667211
0.00667331
0.0066753
0.00667839
0.00668118
0.00668502
0.00668843
0.00669268
0.00669667
0.00670129
0.00670587
0.00667145
0.00667456
0.00667588
0.0066886
0.00670193
0.00671756
0.00674331
0.00678771
0.00684225
0.0069155
0.00700617
0.00711997
0.00725008
0.00739753
0.00754963
0.0077003
0.00782793
0.00790861
0.00790338
0.00778903
0.00748437
0.00691336
0.00616781
0.00528362
0.00432478
0.00336753
0.00248381
0.00173464
0.00115353
0.000727189
0.000413892
0.000194776
9.1249e-05
9.98568e-05
0.00667152
0.00667198
0.00667342
0.00667534
0.0066785
0.00668128
0.00668511
0.00668853
0.00669274
0.00669673
0.00670132
0.00670588
0.00667427
0.00667602
0.00668831
0.00670175
0.00671742
0.00674332
0.00678804
0.00684347
0.00691823
0.00701185
0.00713093
0.00726928
0.00743122
0.00760329
0.00778215
0.00795143
0.00809544
0.00818474
0.0082124
0.00812852
0.00780571
0.00719728
0.00640779
0.00548906
0.00449178
0.00349347
0.00257012
0.00178671
0.00117904
0.000735772
0.000413634
0.00019262
9.09517e-05
0.000100413
0.00667399
0.00667159
0.00667185
0.00667354
0.0066754
0.00667861
0.00668139
0.0066852
0.00668863
0.00669281
0.0066968
0.00670135
0.00670589
0.00667621
0.00668796
0.0067016
0.00671731
0.00674333
0.00678835
0.00684457
0.00692062
0.0070169
0.00714048
0.00728592
0.00746026
0.00764987
0.00785341
0.00805391
0.0082435
0.00839903
0.00852792
0.00859495
0.00849874
0.008148
0.00749966
0.00666011
0.00569709
0.00466071
0.00362066
0.00265727
0.00183926
0.00120489
0.000744434
0.000414019
0.000190742
9.0747e-05
0.000100942
0.00667643
0.00667355
0.00667167
0.00667172
0.00667366
0.00667547
0.00667872
0.00668151
0.00668529
0.00668874
0.00669288
0.00669687
0.00670138
0.00670591
0.00668754
0.0067015
0.00671723
0.00674337
0.00678864
0.00684556
0.00692274
0.00702147
0.00714898
0.00730095
0.00748633
0.00769117
0.00791855
0.00814812
0.0083733
0.00857736
0.00877954
0.00895673
0.00901557
0.00889662
0.0085084
0.00781318
0.00692198
0.00590535
0.00482861
0.00374769
0.00274466
0.00189191
0.00123086
0.000753244
0.000414609
0.00018914
9.05592e-05
0.000101432
0.00668705
0.00667653
0.00667291
0.00667176
0.00667161
0.00667377
0.00667555
0.00667883
0.00668164
0.00668538
0.00668886
0.00669295
0.00669694
0.00670141
0.00670592
0.00670146
0.0067172
0.00674344
0.00678894
0.00684646
0.00692466
0.00702563
0.00715662
0.00731477
0.00751014
0.00772887
0.00797876
0.0082379
0.00849798
0.00874131
0.00900046
0.00926085
0.00943354
0.00947216
0.0093193
0.00888403
0.00813474
0.0071906
0.00611671
0.00499456
0.00387363
0.00283148
0.00194435
0.0012568
0.000762024
0.000415311
0.000187745
9.04387e-05
0.000101899
0.00670153
0.00668574
0.00667655
0.00667227
0.00667185
0.00667154
0.00667387
0.00667566
0.00667893
0.00668178
0.00668548
0.00668897
0.00669302
0.00669701
0.00670144
0.00670594
0.00671722
0.00674354
0.00678922
0.00684728
0.0069264
0.00702942
0.00716355
0.00732754
0.00753195
0.00776392
0.00803549
0.00832247
0.00862021
0.00890568
0.00921483
0.00954372
0.00980376
0.00995869
0.00996399
0.00976524
0.00927266
0.00846233
0.0074615
0.00633067
0.00515816
0.00399767
0.00291738
0.00199627
0.00128254
0.00077087
0.0004162
0.000186565
9.03234e-05
0.00010233
0.00671727
0.0067011
0.00668341
0.00667664
0.00667165
0.00667192
0.0066715
0.00667396
0.00667578
0.00667903
0.00668193
0.00668557
0.00668909
0.00669309
0.00669708
0.00670147
0.00670595
0.00674366
0.00678948
0.00684802
0.00692798
0.00703286
0.00716985
0.00733933
0.00755196
0.00779683
0.00808914
0.00840233
0.00873809
0.009074
0.00943977
0.00983218
0.0101677
0.0104151
0.0105376
0.0104938
0.0102347
0.00967297
0.00879419
0.00773233
0.00654499
0.00531934
0.00411949
0.00300168
0.00204741
0.00130795
0.000779654
0.000417162
0.000185506
9.02575e-05
0.000102741
0.00674381
0.0067162
0.00670025
0.006681
0.00667672
0.00667113
0.00667194
0.00667151
0.00667404
0.00667593
0.00667913
0.00668208
0.00668567
0.00668921
0.00669316
0.00669714
0.0067015
0.00670596
0.0067897
0.00684867
0.00692941
0.00703598
0.00717559
0.00735019
0.00757031
0.00782777
0.00813957
0.00847798
0.00885313
0.00924273
0.0096755
0.0101458
0.010561
0.0108967
0.0111152
0.0111831
0.0110677
0.0107292
0.0100844
0.00912902
0.00800201
0.00675794
0.0054768
0.00423751
0.00308393
0.0020975
0.0013329
0.00078843
0.000418193
0.000184621
9.01907e-05
0.000103118
0.00678988
0.00674194
0.0067139
0.00669946
0.00667878
0.00667667
0.00667072
0.00667191
0.00667157
0.00667409
0.00667609
0.00667923
0.00668223
0.00668577
0.00668932
0.00669323
0.0066972
0.00670153
0.00670597
0.00684924
0.0069307
0.0070388
0.00718082
0.00736014
0.00758716
0.00785678
0.00818662
0.00855002
0.00896621
0.00941003
0.00991031
0.0104879
0.0110235
0.0114657
0.0117795
0.0119332
0.0119093
0.0116911
0.0112502
0.0105064
0.00946573
0.00826957
0.00696841
0.00563286
0.00435187
0.00316383
0.00214635
0.00135732
0.00079699
0.000419251
0.000183829
9.01611e-05
0.000103479
0.00684977
0.0067867
0.0067379
0.00671157
0.00669854
0.00667707
0.00667641
0.00667048
0.00667182
0.00667169
0.00667414
0.00667627
0.00667933
0.00668239
0.00668588
0.00668942
0.0066933
0.00669726
0.00670156
0.00670598
0.00693186
0.00704135
0.00718559
0.00736924
0.00760262
0.00788383
0.00823031
0.00861891
0.00907655
0.00957287
0.0101426
0.0108595
0.0115882
0.0121997
0.0126238
0.012853
0.0128829
0.0127199
0.0123639
0.0117965
0.0109378
0.00980328
0.00853421
0.00717428
0.00578631
0.00446253
0.00324117
0.00219379
0.00138109
0.000805431
0.000420337
0.000183105
9.01262e-05
0.000103767
0.00693296
0.00684549
0.00677991
0.00673386
0.00670921
0.0066971
0.00667597
0.0066759
0.00667039
0.00667167
0.00667184
0.00667418
0.00667645
0.00667944
0.00668253
0.00668598
0.00668952
0.00669337
0.00669732
0.00670159
0.006706
0.00704366
0.00718993
0.00737752
0.00761682
0.0079089
0.00827083
0.00868476
0.00918253
0.00972925
0.0103785
0.0112783
0.0122623
0.0131352
0.0137299
0.0140339
0.014097
0.013944
0.0136004
0.0130776
0.0123635
0.0113763
0.0101403
0.00879506
0.00737516
0.00593631
0.00456942
0.00331579
0.0022397
0.00140417
0.000813692
0.000421446
0.00018249
9.01187e-05
0.00010401
0.00704578
0.00692705
0.00683596
0.00677306
0.00672992
0.00670684
0.00669511
0.0066754
0.00667517
0.00667045
0.00667148
0.00667203
0.00667423
0.00667663
0.00667956
0.00668267
0.00668608
0.00668962
0.00669344
0.00669737
0.00670162
0.00670601
0.00719387
0.00738503
0.00762981
0.00793201
0.00830839
0.00874732
0.0092827
0.00987973
0.010627
0.0117533
0.0130311
0.0141986
0.01505
0.0154922
0.0155884
0.015433
0.0150656
0.0145206
0.0138158
0.0129431
0.0118184
0.0104753
0.00905124
0.00757066
0.00608222
0.00467246
0.0033876
0.00228397
0.00142648
0.000821689
0.000422557
0.000182007
9.01099e-05
0.000104271
0.00719749
0.00703783
0.0069134
0.00682649
0.00676625
0.00672619
0.00670447
0.00669269
0.00667528
0.00667426
0.00667061
0.00667128
0.00667223
0.00667429
0.0066768
0.00667968
0.0066828
0.00668619
0.00668971
0.00669351
0.00669742
0.00670165
0.00670602
0.00739183
0.00764166
0.0079532
0.00834313
0.00880621
0.00937646
0.0100266
0.0108931
0.0122738
0.0138448
0.0152832
0.0163823
0.0170534
0.0172746
0.0171411
0.0167645
0.0161867
0.0154442
0.0145584
0.0135252
0.0122595
0.0108062
0.00930188
0.00776039
0.00622362
0.00477157
0.00345651
0.00232655
0.001448
0.000829428
0.000423508
0.00018162
9.01107e-05
0.000104556
0.00739799
0.00718683
0.00701854
0.00689977
0.00681739
0.00675969
0.00672269
0.00670228
0.00668967
0.00667547
0.00667329
0.00667081
0.00667111
0.00667241
0.00667438
0.00667695
0.0066798
0.00668292
0.00668629
0.00668979
0.00669358
0.00669747
0.00670168
0.00670602
0.00765248
0.00797256
0.00837518
0.00886111
0.009464
0.0101722
0.0111749
0.0128141
0.0146417
0.0162896
0.0175751
0.0184479
0.0188937
0.018908
0.0185775
0.0180137
0.0172554
0.0163381
0.0152857
0.0140991
0.0126948
0.011131
0.0095461
0.00794403
0.00636015
0.00486671
0.00352256
0.00236738
0.00146869
0.000835909
0.000424343
0.000181214
9.01106e-05
0.000104864
0.00766224
0.0073842
0.00715983
0.00699925
0.00688651
0.00680863
0.00675346
0.0067194
0.00670084
0.0066864
0.00667579
0.00667234
0.00667098
0.00667099
0.00667257
0.00667448
0.00667709
0.00667993
0.00668303
0.0066864
0.00668988
0.00669365
0.00669752
0.00670169
0.00670602
0.00799022
0.00840465
0.00891187
0.009546
0.0103176
0.0114652
0.0133458
0.015373
0.017156
0.0185527
0.0195584
0.0201912
0.0204473
0.0203084
0.0198361
0.0191346
0.0182373
0.0171778
0.0159817
0.0146555
0.0131196
0.0114477
0.00978307
0.00812126
0.00649156
0.00495776
0.00358555
0.00240643
0.00148591
0.000841485
0.000425285
0.0001808
9.01246e-05
0.000105202
0.00800599
0.00764442
0.00734703
0.00713282
0.00698039
0.00687365
0.00680012
0.00674751
0.00671624
0.00669968
0.00668316
0.00667607
0.00667153
0.00667109
0.00667095
0.00667269
0.00667461
0.00667722
0.00668007
0.00668314
0.0066865
0.00668995
0.00669372
0.00669754
0.00670169
0.00670602
0.00843168
0.00895857
0.00962325
0.0104623
0.0117541
0.0138457
0.0160114
0.0178607
0.0192996
0.0203681
0.0211168
0.021564
0.0216902
0.0214572
0.0208989
0.0201089
0.0191152
0.0179484
0.016635
0.0151867
0.0135299
0.0117544
0.010012
0.00829178
0.00661773
0.00504513
0.00364544
0.00243877
0.00150067
0.000847679
0.000426359
0.000180367
9.01358e-05
0.000105567
0.00845582
0.00798363
0.00759361
0.00730981
0.00710637
0.00696203
0.00686115
0.00679181
0.00674173
0.00671331
0.00669861
0.00668018
0.00667614
0.00667095
0.00667111
0.00667097
0.00667279
0.00667475
0.00667733
0.0066802
0.00668324
0.00668661
0.00669003
0.00669375
0.00669754
0.00670169
0.00670602
0.00900149
0.00969639
0.0106048
0.0120322
0.0142996
0.0165486
0.0184095
0.0198369
0.02091
0.0217079
0.0222709
0.0225968
0.0226483
0.0223708
0.0217728
0.0209367
0.0198847
0.0186433
0.0172387
0.0156876
0.0139222
0.0120494
0.0102322
0.00845539
0.00673836
0.00512898
0.00369485
0.00246638
0.00151698
0.000854571
0.000427578
0.000179927
9.01667e-05
0.000105969
0.00903965
0.00842743
0.00791513
0.00754273
0.0072733
0.00708059
0.00694415
0.00684896
0.00678359
0.00673629
0.0067105
0.00669748
0.00667784
0.00667588
0.00667062
0.00667106
0.00667105
0.00667286
0.0066749
0.00667744
0.00668034
0.00668334
0.00668671
0.00669007
0.00669375
0.00669754
0.00670169
0.00670602
0.00976584
0.0107431
0.0122926
0.0147015
0.016989
0.0188223
0.0202006
0.0212354
0.0220291
0.0226413
0.0230875
0.0233455
0.0233649
0.0230798
0.0224774
0.0216287
0.0205496
0.0192618
0.0177902
0.016155
0.0142944
0.0123316
0.0104432
0.00861191
0.00685333
0.00519863
0.00373691
0.0024968
0.00153506
0.00086226
0.000428967
0.00017947
9.0193e-05
0.000106402
0.00982921
0.00900435
0.00833504
0.00784642
0.00749282
0.00723766
0.00705546
0.00692672
0.00683705
0.00677546
0.0067313
0.00670768
0.00669596
0.0066765
0.00667531
0.00667049
0.00667094
0.00667117
0.00667293
0.00667505
0.00667754
0.00668047
0.00668344
0.00668676
0.00669006
0.00669375
0.00669754
0.00670169
0.00670602
0.0108752
0.0125334
0.0150515
0.0173432
0.0191231
0.0204285
0.0213963
0.0221471
0.0227565
0.0232559
0.0236382
0.0238671
0.0238846
0.0236178
0.0230363
0.0222
0.0211182
0.0198071
0.0182895
0.0165874
0.0146449
0.0125999
0.0106445
0.00876121
0.00694826
0.00525816
0.00378317
0.00253036
0.00155512
0.00087085
0.000430555
0.000178992
9.02485e-05
0.000106879
0.010994
0.0097846
0.0088787
0.00824264
0.00777889
0.00744406
0.00720287
0.00703096
0.00690973
0.0068254
0.00676737
0.00672656
0.00670483
0.00669359
0.00667592
0.00667454
0.0066705
0.0066708
0.00667132
0.00667298
0.00667521
0.00667764
0.0066806
0.00668348
0.00668676
0.00669006
0.00669375
0.00669754
0.00670169
0.00670602
0.0127554
0.0153514
0.0176245
0.0193355
0.0205544
0.0214377
0.0221195
0.0226883
0.023189
0.0236287
0.0239842
0.0242108
0.0242468
0.0240161
0.0234731
0.022667
0.0216007
0.0202847
0.0187384
0.0169849
0.0149729
0.0128539
0.0108359
0.00888445
0.00702912
0.00532386
0.00383412
0.00256746
0.00157742
0.00088048
0.000432363
0.000178503
9.02962e-05
0.000107391
0.0109445
0.0129493
0.00960036
0.00875519
0.00815169
0.00771286
0.00739642
0.00716892
0.0070071
0.00689321
0.00681408
0.00675949
0.00672209
0.00670219
0.00669061
0.00667582
0.00667368
0.00667059
0.00667065
0.00667147
0.00667304
0.00667536
0.00667774
0.00668067
0.00668347
0.00668676
0.00669006
0.00669375
0.00669754
0.00670168
0.00670601
0.0156044
0.0178455
0.0194798
0.020606
0.0213954
0.0219922
0.0224942
0.022958
0.0234036
0.0238202
0.0241741
0.0244164
0.0244849
0.0243019
0.0238091
0.0230457
0.0220081
0.020701
0.0191401
0.0173484
0.0152784
0.0130932
0.0109932
0.00898941
0.00711808
0.00539646
0.00389035
0.00260853
0.00160228
0.000891281
0.000434456
0.000177982
9.03876e-05
0.000107956
0.0106659
0.0128934
0.0158131
0.00942372
0.00863451
0.00806254
0.00764832
0.00734989
0.00713585
0.0069839
0.00687719
0.00680323
0.00675181
0.00671818
0.0067003
0.00668738
0.00667594
0.00667284
0.0066707
0.00667052
0.00667163
0.0066731
0.00667552
0.00667778
0.00668067
0.00668346
0.00668676
0.00669006
0.00669375
0.00669752
0.00670165
0.006706
0.018018
0.019573
0.020605
0.0212969
0.0217997
0.0222181
0.0226179
0.0230306
0.0234576
0.0238756
0.0242448
0.0245151
0.0246258
0.0244981
0.024063
0.0233503
0.0223506
0.0210627
0.0194984
0.0176796
0.0155617
0.013288
0.0111268
0.0091048
0.00721607
0.00547681
0.00395252
0.00265408
0.00163004
0.000903463
0.000436828
0.000177475
9.04663e-05
0.00010856
0.0103892
0.0125119
0.0157317
0.0181518
0.00925665
0.00851609
0.00797529
0.00758525
0.00730453
0.0071037
0.00696143
0.00686176
0.00679311
0.00674483
0.00671469
0.00669896
0.00668427
0.00667609
0.00667208
0.00667081
0.00667042
0.00667178
0.00667317
0.0066756
0.00667776
0.00668067
0.00668346
0.00668675
0.00669006
0.00669371
0.00669747
0.00670162
0.00670599
0.0196281
0.0205678
0.0211622
0.0215675
0.0218924
0.0222097
0.0225611
0.0229595
0.0233925
0.0238282
0.0242242
0.0245314
0.024691
0.0246237
0.0242507
0.0235937
0.0226377
0.0213764
0.0198172
0.0179804
0.0157888
0.0134525
0.0112731
0.00923174
0.00732415
0.00556585
0.0040214
0.00270472
0.00166112
0.000917184
0.000439626
0.00017691
9.06108e-05
0.000109227
0.0101289
0.0120923
0.015377
0.0180342
0.0196513
0.00909673
0.00839968
0.00789003
0.00752371
0.00726041
0.00707253
0.00693974
0.0068471
0.00678373
0.00673849
0.00671162
0.00669783
0.00668149
0.00667616
0.00667147
0.00667088
0.00667035
0.00667193
0.00667317
0.00667561
0.00667774
0.00668067
0.00668346
0.00668675
0.00669002
0.00669364
0.00669742
0.00670158
0.00670598
0.0205065
0.0210063
0.0213138
0.0215405
0.0217637
0.0220333
0.0223731
0.0227822
0.0232376
0.0237022
0.0241333
0.0244842
0.0246978
0.024694
0.0243854
0.0237865
0.0228779
0.0216481
0.0201005
0.0182168
0.0159787
0.0136314
0.0114334
0.00937148
0.00744349
0.00566466
0.00409788
0.00276114
0.00169597
0.000932779
0.000442766
0.000176414
9.07375e-05
0.000109932
0.00988623
0.0116721
0.014935
0.0177824
0.0194814
0.0204205
0.00894172
0.00828542
0.00780689
0.00746381
0.00721764
0.00704243
0.00691904
0.00683353
0.00677508
0.00673278
0.00670887
0.00669675
0.00667922
0.00667605
0.006671
0.00667093
0.00667032
0.00667201
0.00667313
0.00667562
0.00667774
0.00668066
0.00668347
0.00668669
0.00668994
0.00669357
0.00669737
0.00670155
0.00670597
0.0208393
0.0210518
0.021179
0.0213019
0.0214759
0.0217346
0.0220886
0.0225253
0.0230139
0.0235152
0.0239882
0.0243884
0.0246599
0.0247213
0.0244778
0.0239379
0.0230784
0.0218834
0.0203182
0.018412
0.0161828
0.0138256
0.0116089
0.00952537
0.00757542
0.00577447
0.00418299
0.00282414
0.00173524
0.000950411
0.000446571
0.000175808
9.09605e-05
0.000110713
0.00965833
0.0112686
0.0144345
0.0174533
0.019305
0.0201953
0.0206562
0.0087906
0.00817361
0.00772603
0.00740567
0.00717631
0.00701366
0.00689986
0.00682113
0.0067671
0.00672774
0.00670631
0.00669558
0.00667769
0.00667575
0.00667067
0.00667097
0.00667026
0.00667203
0.0066731
0.00667561
0.00667774
0.00668065
0.00668342
0.00668659
0.00668986
0.0066935
0.00669732
0.00670152
0.00670595
0.0207902
0.0208198
0.0208399
0.0209101
0.0210714
0.0213457
0.0217318
0.0222072
0.0227365
0.0232806
0.0238013
0.0242559
0.0245882
0.0247157
0.0245368
0.0240554
0.0232455
0.0220591
0.0204959
0.018619
0.0164017
0.0140362
0.011801
0.00969488
0.00772144
0.00589668
0.00427796
0.00289473
0.0017795
0.000970661
0.000450771
0.00017537
9.11663e-05
0.000111528
0.00944261
0.0108882
0.0139018
0.0170718
0.0190638
0.020055
0.0203773
0.0205187
0.00864316
0.00806458
0.00764763
0.00734946
0.00713682
0.00698698
0.00688239
0.00680979
0.0067597
0.00672339
0.00670386
0.00669377
0.00667678
0.00667532
0.00667046
0.00667096
0.00667021
0.00667203
0.00667309
0.00667559
0.00667776
0.00668057
0.00668332
0.00668648
0.00668977
0.00669343
0.00669726
0.00670148
0.00670594
0.0204706
0.0203889
0.0203514
0.0204047
0.0205805
0.0208893
0.0213192
0.0218407
0.022416
0.0230084
0.0235826
0.0240961
0.0244917
0.0246851
0.0245696
0.0241455
0.0233648
0.0222008
0.0206814
0.0188374
0.0166357
0.0142642
0.0120109
0.00988158
0.00788318
0.00603288
0.00438412
0.00297395
0.00182971
0.000993622
0.000456048
0.000174735
9.15035e-05
0.000112587
0.00923725
0.0105333
0.01335
0.0166449
0.0187832
0.019862
0.0202432
0.0201867
0.0201203
0.00849955
0.0079587
0.00757191
0.00729573
0.0071002
0.00696272
0.00686648
0.00679942
0.00675277
0.00671952
0.00670166
0.00669149
0.00667628
0.00667485
0.00667036
0.00667092
0.00667017
0.00667202
0.0066731
0.00667557
0.00667771
0.00668043
0.00668321
0.00668637
0.00668968
0.00669336
0.00669721
0.00670145
0.00670593
0.019956
0.0198109
0.0197503
0.0198143
0.0200247
0.0203808
0.0208623
0.0214343
0.0220602
0.0227067
0.0233401
0.0239167
0.0243772
0.0246359
0.024582
0.0242025
0.0234591
0.0223457
0.0208739
0.019067
0.0168851
0.0145102
0.01224
0.0100871
0.00806242
0.00618484
0.00450322
0.00306334
0.00188663
0.00102037
0.000461741
0.000174436
9.19152e-05
0.000113844
0.0090411
0.0102048
0.0127868
0.0161735
0.0184742
0.0196432
0.0200652
0.0200407
0.0197377
0.0195346
0.00835991
0.00785641
0.00749958
0.00724591
0.00706693
0.00694066
0.00685198
0.00678998
0.00674635
0.00671617
0.00669995
0.00668905
0.00667602
0.00667444
0.00667037
0.00667088
0.00667015
0.006672
0.00667312
0.00667546
0.0066776
0.00668029
0.0066831
0.00668627
0.00668959
0.00669328
0.00669715
0.00670141
0.00670592
0.0192955
0.0191196
0.019064
0.0191604
0.0194184
0.0198307
0.0203673
0.0209939
0.0216748
0.022382
0.0230807
0.0237241
0.0242503
0.0245731
0.0245769
0.0242453
0.0235524
0.0224929
0.0210726
0.0193073
0.0171498
0.0147751
0.0124894
0.0103131
0.00826109
0.00635452
0.00463674
0.00316397
0.00195171
0.00105072
0.000469223
0.000173715
9.25615e-05
0.0001151