/*--------------------------------*- C++ -*----------------------------------*\
  =========                 |
  \\      /  F ield         | OpenFOAM: The Open Source CFD Toolbox
   \\    /   O peration     | Website:  https://openfoam.org
    \\  /    A nd           | Version:  8
     \\/     M anipulation  |
\*---------------------------------------------------------------------------*/
FoamFile
{
    version     2.0;
    format      ascii;
    class       volScalarField;
    location    "0.14";
    object      p;
}
// * * * * * * * * * * * * * * * * * * * * * * * * * * * * * * * * * * * * * //

dimensions      [0 2 -2 0 0 0 0];

internalField   nonuniform List<scalar> 
15677
(
73.8331
73.4765
73.0638
73.5411
73.052
73.0657
73.5161
73.0792
73.075
72.9592
73.4907
73.0806
73.0753
72.9683
72.8678
73.4689
73.0828
73.0752
72.9675
72.8754
72.7716
73.4455
73.0851
73.0748
72.9686
72.8753
72.7783
72.6572
73.4204
73.0877
73.074
72.9689
72.8763
72.7783
72.663
72.5204
73.3942
73.0908
73.0725
72.969
72.8768
72.7792
72.6631
72.5255
72.3542
73.3669
73.0928
73.0706
72.9688
72.8773
72.7798
72.664
72.5257
72.3586
72.1509
73.3383
73.0943
73.0679
72.9684
72.8776
72.7804
72.6647
72.5268
72.3589
72.1546
71.9028
73.3088
73.0959
73.0647
72.9682
72.878
72.7811
72.6656
72.5277
72.3601
72.1551
71.9057
71.6016
73.2789
73.097
73.0613
72.9683
72.8786
72.782
72.6666
72.5288
72.3613
72.1565
71.9064
71.6037
71.2389
73.2491
73.0971
73.0578
72.9687
72.8796
72.7832
72.6681
72.5303
72.3628
72.1579
71.908
71.6046
71.2402
70.8063
73.2225
73.0958
73.0543
72.9695
72.8813
72.7852
72.6702
72.5324
72.3649
72.16
71.9099
71.6065
71.2412
70.8066
70.2957
73.1996
73.0937
73.0508
72.9709
72.8839
72.7883
72.6734
72.5356
72.3679
72.1628
71.9126
71.609
71.2435
70.8079
70.295
69.6995
73.1796
73.0917
73.0479
72.9729
72.8878
72.7928
72.6782
72.5403
72.3723
72.1669
71.9164
71.6124
71.2466
70.8106
70.2965
69.6977
69.011
73.1622
73.0897
73.0457
72.9755
72.8933
72.7994
72.6853
72.5473
72.379
72.1731
71.9219
71.6174
71.2511
70.8144
70.2996
69.6995
69.0079
68.2246
73.1471
73.0877
73.0441
72.9784
72.8999
72.8084
72.6953
72.5574
72.3888
72.1821
71.9301
71.6247
71.2575
70.8201
70.3044
69.7031
69.01
68.22
67.3357
73.1341
73.0859
73.0431
72.9818
72.9072
72.8194
72.709
72.5717
72.4028
72.1954
71.9422
71.6354
71.2669
70.8282
70.3114
69.7088
69.0141
68.2224
67.3296
66.3417
73.1229
73.0842
73.0426
72.9857
72.9153
72.8314
72.7256
72.5913
72.4226
72.2144
71.9599
71.6512
71.2807
70.84
70.3214
69.7173
69.0209
68.227
67.3323
66.3337
65.2412
73.1139
73.0826
73.0426
72.99
72.924
72.8446
72.7437
72.615
72.4496
72.2411
71.985
71.6742
71.3009
70.8574
70.3361
69.7295
69.031
68.235
67.3374
66.3368
65.2315
64.0351
73.1071
73.0811
73.0431
72.9946
72.9333
72.8587
72.7635
72.6409
72.4824
72.2776
72.0203
71.7069
71.3302
70.8828
70.3576
69.7474
69.0457
68.2468
67.3465
66.3424
65.2348
64.0234
62.7265
73.1018
73.0798
73.0439
72.9996
72.9431
72.8738
72.7848
72.6692
72.5182
72.322
72.0686
71.7527
71.372
70.9197
70.389
69.7735
69.067
68.264
67.3602
66.3527
65.2409
64.027
62.7126
61.32
73.0977
73.0786
73.0449
73.0046
72.9533
72.8896
72.8073
72.6995
72.5574
72.3704
72.1274
71.8154
71.4305
70.9722
70.4345
69.8117
69.0982
68.289
67.38
66.3681
65.2522
64.0334
62.7164
61.3038
59.8276
73.0944
73.0777
73.046
73.0093
72.9633
72.9059
72.8309
72.7317
72.5995
72.4234
72.1915
71.8919
71.5106
71.0456
70.4993
69.8669
69.1438
68.3256
67.4087
66.3904
65.2692
64.0457
62.723
61.3076
59.8087
58.2799
73.0918
73.0769
73.0472
73.0136
72.9725
72.922
72.8553
72.7654
72.6441
72.4804
72.2618
71.9754
71.6083
71.1462
70.59
69.9457
69.2098
68.3791
67.4509
66.4229
65.294
64.0641
62.7358
61.3138
59.8099
58.2243
56.6161
73.0897
73.0763
73.0483
73.0176
72.9809
72.9367
72.8792
72.8003
72.6908
72.5409
72.3376
72.0671
71.7153
71.2692
70.7145
70.0559
69.304
68.4567
67.5127
66.4707
65.33
64.0909
62.7552
61.3268
59.8146
58.227
56.549
54.8216
73.088
73.0758
73.0494
73.0211
72.9884
72.95
72.9011
72.8344
72.7392
72.6042
72.4179
72.1659
71.8328
71.404
70.8669
70.2076
69.436
68.5675
67.6024
66.5408
65.3831
64.1301
62.7835
61.3464
59.826
58.2279
56.5516
54.7914
52.9696
73.0866
73.0753
73.0502
73.0244
72.9951
72.962
72.9209
72.8657
72.7865
72.6698
72.5021
72.2708
71.9596
71.5522
71.0341
70.3935
69.6179
68.7233
67.7309
66.643
65.4614
64.188
62.825
61.3754
59.8442
58.2364
56.5459
54.7837
52.9581
51.0658
73.0854
73.075
73.051
73.0275
73.0011
72.9727
72.9387
72.894
72.83
72.734
72.5894
72.3809
72.0944
71.7125
71.2183
70.5979
69.8414
68.9384
67.912
66.7899
65.576
64.274
62.887
61.4181
59.872
58.2519
56.5537
54.7743
52.9412
51.0603
48.9191
73.0844
73.0747
73.0516
73.0302
73.0065
72.9822
72.9546
72.9193
72.8692
72.793
72.675
72.4951
72.2361
71.8831
71.4178
70.8236
70.0877
69.2033
68.1627
66.9972
65.7411
64.4002
62.9794
61.4828
59.9143
58.2771
56.5676
54.7835
52.9327
51.0416
48.9169
46.5005
73.0836
73.0745
73.0523
73.0327
73.0112
72.9907
72.9687
72.942
72.9044
72.8463
72.7537
72.6073
72.3832
72.0626
71.6307
71.0684
70.3602
69.496
68.4723
67.2852
65.9752
64.5832
63.1163
61.5803
59.9797
58.3173
56.5911
54.7969
52.9424
51.0351
48.899
46.5001
44.0543
73.0829
73.0743
73.0529
73.0349
73.0155
72.9982
72.9812
72.9621
72.9358
72.8942
72.8248
72.7104
72.5279
72.2494
71.8549
71.33
70.6565
69.8206
68.8153
67.6421
66.3015
64.8436
63.3159
61.7262
60.0805
58.382
56.6298
54.8201
52.9559
51.0434
48.8925
46.4835
44.0558
41.6231
73.0823
73.0742
73.0534
73.0368
73.0192
73.0048
72.9923
72.98
72.9638
72.9369
72.8886
72.8037
72.661
72.4332
72.0885
71.6063
70.9739
70.1743
69.1967
68.0386
66.7074
65.2083
63.6017
61.9407
60.2333
58.4842
56.6935
54.8581
52.9791
51.0568
48.8975
46.4765
44.0412
41.6247
39.2272
73.074
73.0816
73.0539
73.0385
73.0225
73.0107
73.0022
72.9959
72.9887
72.975
72.9457
72.8875
72.7816
72.6027
72.319
71.8947
71.3097
70.5541
69.6135
68.481
67.1599
65.6639
64.0038
62.2499
60.4605
58.6419
56.7963
54.9212
53.0162
51.0794
48.9096
46.4782
44.034
41.6112
39.2287
36.8792
73.0544
73.0739
73.0809
73.0399
73.0254
73.016
73.0109
73.01
73.0108
73.0088
72.9966
72.9625
72.8901
72.7564
72.5318
72.1798
71.6611
70.9571
70.0623
68.9658
67.6664
66.1737
64.5086
62.6876
60.7906
58.8792
56.9574
55.024
53.0779
51.1145
48.9294
46.4875
44.0327
41.603
39.2159
36.88
34.5914
73.0412
73.0551
73.0738
73.0801
73.028
73.0206
73.0187
73.0224
73.0303
73.0388
73.0418
73.0294
72.9872
72.8948
72.725
72.4436
72.0093
71.3799
70.5398
69.4895
68.2233
66.7464
65.0758
63.2399
61.2609
59.2271
57.2025
55.1871
53.1797
51.1737
48.9608
46.5027
44.0387
41.5982
39.2061
36.8678
34.5911
32.3747
73.0303
73.043
73.056
73.0738
73.0794
73.0247
73.0256
73.0335
73.0476
73.0654
73.082
73.0889
73.0739
73.0188
72.8993
72.6835
72.3322
71.7999
71.0423
70.0484
68.827
67.3784
65.7155
63.8633
61.8579
59.7265
57.5651
55.4377
53.3427
51.2723
49.0149
46.5277
44.0482
41.5994
39.1973
36.8561
34.5793
32.3734
30.2375
73.0282
73.0333
73.0451
73.0569
73.0737
73.0788
73.0316
73.0433
73.063
73.089
73.1176
73.1418
73.151
73.1296
73.0556
72.9001
72.6264
72.1905
71.543
70.6386
69.4734
68.0659
66.4241
64.5694
62.535
60.3643
58.0891
55.8112
53.5955
51.4326
49.1075
46.5734
44.0654
41.6019
39.1929
36.8432
34.5654
32.3618
30.2352
28.1861
73.0368
73.0329
73.0367
73.0471
73.0579
73.0736
73.0782
73.0519
73.0766
73.11
73.1491
73.1887
73.2196
73.2283
73.1954
73.0949
72.8927
72.5471
72.0099
71.2286
70.1584
68.8049
67.198
65.3546
63.3052
61.0912
58.7627
56.3551
53.9758
51.684
49.2614
46.6557
44.1002
41.6093
39.187
36.8323
34.5483
32.3454
30.2238
28.1828
26.2245
73.0593
73.0437
73.0379
73.0401
73.0491
73.0588
73.0736
73.0776
73.0887
73.1286
73.1771
73.2303
73.2805
73.3161
73.3201
73.2692
73.1323
72.8706
72.4374
71.7806
70.8459
69.591
68.0331
66.2157
64.1653
61.9215
59.534
57.0582
54.5335
52.0662
49.507
46.7978
44.1687
41.6308
39.183
36.8173
34.5306
32.3239
30.2048
28.1714
26.2203
24.3555
73.0988
73.069
73.0506
73.0429
73.0435
73.0511
73.0597
73.0735
73.0771
73.145
73.202
73.2672
73.3345
73.3941
73.4311
73.4248
73.3472
73.1623
72.8261
72.2875
71.4913
70.3833
68.9252
67.1489
65.1126
62.853
60.4191
57.8673
55.2589
52.6312
49.8857
47.031
44.2943
41.6824
39.189
36.8004
34.5056
32.2991
30.1788
28.1496
26.2088
24.3504
22.58
73.1587
73.1123
73.0783
73.0576
73.0479
73.0467
73.053
73.0606
73.0735
73.0766
73.224
73.3
73.3824
73.4633
73.5298
73.5635
73.5393
73.4243
73.1773
72.7494
72.0858
71.1297
69.8282
68.1502
66.1438
63.8836
61.4166
58.8001
56.0978
53.3704
50.4507
47.3977
44.509
41.7875
39.2209
36.7892
34.4749
32.2637
30.1467
28.1193
26.1843
24.3387
22.5742
20.8981
73.2424
73.1769
73.1244
73.0877
73.0645
73.0527
73.0499
73.0548
73.0615
73.0734
73.0762
73.329
73.4251
73.5248
73.6175
73.6869
73.7107
73.6589
73.4934
73.1679
72.6293
71.8198
70.6825
69.1685
67.2557
65.0108
62.5256
59.8564
57.0698
54.23
51.1957
47.9514
44.8549
41.9782
39.302
36.7992
34.4452
32.2185
30.1006
28.0798
26.1496
24.3116
22.5622
20.8915
19.3085
73.3531
73.2666
73.1926
73.1369
73.097
73.0711
73.0573
73.053
73.0566
73.0624
73.0734
73.0758
73.4629
73.5795
73.6954
73.7967
73.8634
73.8684
73.7768
73.5454
73.123
72.4526
71.4753
70.136
68.3917
66.232
63.7443
61.0366
58.1761
55.2313
52.0677
48.6887
45.385
42.295
39.4636
36.8536
34.4319
32.1694
30.0404
28.0228
26.1027
24.2726
22.5325
20.8793
19.3013
17.8095
73.494
73.385
73.2866
73.2088
73.1491
73.1059
73.0775
73.0617
73.0559
73.0583
73.0632
73.0734
73.0755
73.628
73.7648
73.8942
73.9993
74.0553
74.0305
73.8845
73.5692
73.0291
72.2048
71.0375
69.4762
67.4864
65.0715
62.3401
59.4182
56.3768
53.0897
49.559
46.0992
42.7901
39.7441
36.9815
34.4572
32.1318
29.9715
27.9474
26.0349
24.2184
22.4895
20.847
19.2888
17.8016
16.3983
73.6679
73.5355
73.4102
73.3075
73.2246
73.1607
73.1143
73.0836
73.066
73.0587
73.06
73.064
73.0734
73.0751
73.8263
73.9813
74.1202
74.2218
74.257
74.1886
73.9711
73.5516
72.8714
71.87
70.4909
68.6894
66.442
63.7672
60.7974
57.6697
54.2657
50.5863
46.9505
43.4672
40.194
37.2194
34.5478
32.1261
29.9088
27.8586
25.9444
24.1399
22.4281
20.8001
19.2541
17.7889
16.3899
15.072
73.8766
73.7212
73.567
73.4368
73.3277
73.2396
73.1717
73.1224
73.0893
73.07
73.0613
73.0615
73.0648
73.0733
73.0749
74.0583
74.2282
74.3702
74.4591
74.4606
74.3321
74.0233
73.4773
72.6333
71.4316
69.8202
67.7631
65.2491
62.3158
59.1131
55.6007
51.7761
47.9627
44.2828
40.8207
37.6152
34.7378
32.1766
29.871
27.7707
25.8359
24.0344
22.3391
20.7317
19.2035
17.7518
16.3769
15.0631
13.8272
74.1211
73.9445
73.7604
73.6005
73.4624
73.3467
73.2537
73.1821
73.1299
73.0948
73.0738
73.0638
73.063
73.0655
73.0733
73.0747
74.3237
74.5028
74.6394
74.7035
74.6556
74.4479
74.0258
73.3293
72.2973
70.8728
69.0106
66.6851
63.9016
60.7113
57.1004
53.1362
49.1434
45.2601
41.5847
38.1795
35.072
32.3146
29.8794
27.6999
25.7228
23.9066
22.2191
20.6326
19.1283
17.6977
16.3377
15.0499
13.8179
12.6605
74.4012
74.207
73.993
73.8024
73.6327
73.4863
73.3645
73.2668
73.1917
73.1369
73.0998
73.0773
73.0661
73.0642
73.0661
73.0733
73.0745
74.6201
74.8008
74.9205
74.9449
74.8291
74.5206
73.9611
73.0892
71.845
70.1767
68.0476
65.4469
62.3903
58.7713
54.675
50.5029
46.4086
42.5075
38.8766
35.5629
32.5811
29.9624
27.665
25.6187
23.7686
22.0726
20.4986
19.0195
17.6161
16.2803
15.0085
13.8044
12.6507
11.5682
74.7148
74.5089
74.2667
74.0453
73.8426
73.6626
73.5085
73.3809
73.2789
73.2006
73.1434
73.1044
73.0805
73.0682
73.0653
73.0667
73.0733
73.0743
74.9433
75.1151
75.2038
75.1707
74.9659
74.5324
73.8101
72.7373
71.258
69.327
66.9204
64.0353
60.5389
56.4029
52.0526
47.74
43.5994
39.7255
36.179
32.9889
30.1562
27.691
25.5399
23.6315
21.91
20.334
18.872
17.4979
16.1925
14.9481
13.7611
12.637
11.5577
10.546
75.0578
74.8489
74.5822
74.3315
74.0952
73.8797
73.6902
73.5289
73.396
73.2899
73.2086
73.1492
73.1086
73.0833
73.0699
73.0663
73.0671
73.0733
73.0742
75.2867
75.4364
75.4769
75.3656
75.0477
74.4638
73.5521
72.2539
70.518
68.3099
65.6119
62.2828
58.2459
53.8051
49.2668
44.8717
40.7352
36.9348
33.5112
30.4729
27.8082
25.5079
23.5088
21.7405
20.1477
18.6901
17.3377
16.0655
14.8544
13.6978
12.5918
11.5438
10.5345
9.59461
75.4238
75.2237
74.9386
74.6623
74.3932
74.141
73.9137
73.7153
73.5474
73.4095
73.2998
73.2158
73.1544
73.1121
73.0857
73.0714
73.0671
73.0675
73.0733
73.0741
75.6412
75.7525
75.7246
75.5113
75.0548
74.2931
73.1662
71.6187
69.6084
67.1058
63.9648
60.0769
55.6853
51.0008
46.3358
41.9153
37.8374
34.1567
30.8905
28.0276
25.5458
23.4184
21.5744
19.9464
18.4808
17.1392
15.8931
14.7191
13.5985
12.5259
11.4969
10.5206
9.57744
8.80088
75.8037
75.6278
75.3335
75.0374
74.7382
74.4496
74.1828
73.9445
73.7379
73.5639
73.4214
73.3085
73.222
73.1587
73.1151
73.0877
73.0726
73.0678
73.0679
73.0733
73.074
75.9946
76.0483
75.9285
75.5875
74.9646
73.9983
72.6303
70.813
68.5081
65.5669
61.8503
57.5591
52.8676
48.0033
43.2772
38.895
34.9304
31.4113
28.332
25.6637
23.3755
21.4259
19.7379
18.2489
16.9079
15.679
14.5353
13.4554
12.4215
11.4287
10.4724
9.56424
8.79478
8.13196
76.1855
76.0534
75.7619
75.4549
75.1307
74.8075
74.5007
74.2203
73.9718
73.7577
73.5781
73.4317
73.3158
73.2271
73.1622
73.1174
73.0893
73.0737
73.0683
73.0682
73.0734
73.0739
76.3321
76.3057
76.0683
75.5713
74.7543
73.5555
71.9236
69.8139
67.0757
63.5418
59.3768
54.7362
49.8116
44.8386
40.1227
35.8414
32.0394
28.7178
25.8493
23.3895
21.3019
19.5321
17.9992
16.6464
15.4266
14.3063
13.2609
12.2711
11.3194
10.4023
9.5146
8.7879
8.13905
7.43673
76.5539
76.4894
76.217
75.911
75.5694
75.2155
74.8699
74.5464
74.2534
73.9956
73.7746
73.5901
73.4401
73.3216
73.231
73.1649
73.1193
73.0906
73.0745
73.0688
73.0684
73.0734
73.0739
76.6352
76.5039
76.1203
75.4388
74.3983
72.9426
71.0215
68.483
65.1357
61.1165
56.565
51.6459
46.5589
41.55
36.9116
32.7863
29.189
26.0935
23.4535
21.2118
19.3279
17.7374
16.3571
15.1369
14.0339
13.0179
12.0665
11.1622
10.2884
9.44318
8.73758
8.13347
7.43715
6.68468
76.8901
76.9221
76.6887
76.3997
76.0512
75.6731
75.2917
74.9254
74.5862
74.2817
74.0155
73.7885
73.5997
73.4465
73.3258
73.2339
73.1669
73.1208
73.0916
73.0751
73.0692
73.0686
73.0734
73.0738
76.8829
76.619
76.0599
75.1632
73.873
72.132
69.7852
66.6242
62.767
58.3403
53.477
48.3447
43.1615
38.1832
33.6814
29.7596
26.4008
23.5533
21.1538
19.1349
17.4547
16.0411
14.8096
13.7173
12.7265
11.8104
10.9481
10.125
9.32501
8.66581
8.08433
7.42627
6.67759
5.86047
77.1725
77.3344
77.1644
76.9124
76.5712
76.1781
75.7661
75.3591
74.9735
74.6201
74.3052
74.0315
73.7992
73.6066
73.4509
73.3287
73.2359
73.1683
73.1218
73.0924
73.0756
73.0695
73.0688
73.0734
73.0738
77.0507
76.6257
75.8593
74.7193
73.1475
70.983
68.0059
64.3238
60.0535
55.2937
50.1736
44.8836
39.6645
34.7779
30.4657
26.7872
23.6933
21.1089
18.9563
17.1615
15.6825
14.4414
13.3539
12.3845
11.501
10.6797
9.9021
9.15581
8.54399
8.01149
7.37717
6.66216
5.85042
4.96267
77.3756
77.7061
77.6281
77.4375
77.1219
76.7263
76.2917
75.8481
75.4172
75.0139
74.6476
74.3235
74.0433
73.8064
73.6109
73.4536
73.3304
73.2371
73.1692
73.1224
73.0929
73.076
73.0697
73.0689
73.0734
73.0738
77.1123
76.4955
75.4917
74.0725
72.079
69.2828
65.7853
61.6961
57.0808
52.0293
46.6952
41.2997
36.1044
31.3686
27.2934
23.8907
21.0812
18.7688
16.8654
15.2925
14.01
12.9359
11.9869
11.135
10.3535
9.62207
8.92458
8.37018
7.88691
7.3022
6.61152
5.83366
4.95139
3.98833
77.4713
78.014
78.0609
77.9607
77.6931
77.3114
76.8651
76.3915
75.9185
75.4657
75.0464
74.6686
74.3365
74.0507
73.8104
73.613
73.4546
73.331
73.2375
73.1696
73.1228
73.0931
73.0762
73.0699
73.069
73.0733
73.0738
77.0379
76.1996
74.9189
73.0781
70.4577
67.1512
63.2599
58.8207
53.887
48.5732
43.0674
37.6222
32.5131
27.9851
24.1888
21.088
18.5755
16.5391
14.8832
13.5277
12.4353
11.5216
10.705
9.96485
9.27997
8.63369
8.13212
7.70904
7.17458
6.53337
5.78127
4.93422
3.97616
2.93105
77.4277
78.2324
78.4401
78.4646
78.2719
77.9245
77.481
76.9869
76.477
75.9768
75.5041
75.0706
74.6829
74.3439
74.054
73.8115
73.6131
73.4544
73.3307
73.2373
73.1695
73.1227
73.0932
73.0765
73.0701
73.0691
73.0733
73.0738
76.7961
75.6973
73.9954
71.5356
68.4204
64.7373
60.4958
55.7194
50.4847
44.94
39.3112
33.8785
28.9198
24.6537
21.1724
18.3925
16.1842
14.4232
13.0101
11.8651
10.9555
10.1951
9.50438
8.87016
8.27675
7.83239
7.46535
6.99215
6.40218
5.69963
4.88019
3.95807
2.9183
1.78375
77.2081
78.3332
78.7408
78.9284
78.8425
78.5542
78.1318
77.6299
77.0911
76.5476
76.0227
75.5322
75.0863
74.6901
74.3461
74.0537
73.8101
73.6114
73.4529
73.3296
73.2365
73.1689
73.1224
73.0935
73.0768
73.0702
73.0691
73.0734
73.0738
76.3428
74.8411
72.5334
69.5947
66.1212
62.0913
57.5009
52.3948
46.8796
41.1428
35.4484
30.0956
25.352
21.3974
18.2603
15.8143
13.9121
12.4224
11.2449
10.3025
9.56741
8.95262
8.38113
7.84708
7.46337
7.1581
6.7424
6.21465
5.56443
4.79525
3.9024
2.89906
1.77075
0.539311
76.7624
78.2855
78.9344
79.3283
79.3858
79.1861
78.8075
78.3141
77.7573
77.1769
76.6027
76.0557
75.5496
75.0932
74.6909
74.3439
74.0503
73.8066
73.6083
73.4504
73.3277
73.2351
73.168
73.1227
73.0941
73.077
73.0702
73.069
73.0734
73.0739
75.5268
73.4605
70.6909
67.4088
63.5946
59.2105
54.2709
48.8455
43.0776
37.1974
31.503
26.3017
21.8356
18.2356
15.4651
13.3601
11.7618
10.5362
9.58545
8.83661
8.26723
7.79011
7.33133
7.01757
6.7789
6.42697
5.95823
5.37121
4.65574
3.81423
2.84173
1.75073
0.526181
-0.80987
78.0469
75.9393
78.9879
79.6379
79.8797
79.8029
79.4952
79.0307
78.4702
77.8622
77.2438
76.642
76.0754
75.5562
75.0922
74.6863
74.3379
74.0442
73.8012
73.6038
73.4469
73.325
73.2332
73.168
73.1235
73.0943
73.077
73.0701
73.0689
73.0734
73.0739
74.1976
71.7165
68.6168
64.9992
60.8301
56.0861
50.7997
45.072
39.0885
33.1236
27.5024
22.5254
18.3945
15.1849
12.7962
11.0337
9.7333
8.7628
8.02884
7.46365
7.05087
6.70366
6.48015
6.31954
6.03676
5.63392
5.10751
4.45629
3.67008
2.75018
1.69148
0.505598
-0.823155
-2.27184
78.8627
77.474
74.5944
79.825
80.2996
80.3842
80.1795
79.7685
79.2224
78.5991
77.944
77.2912
76.665
76.0819
75.5532
75.0845
74.6769
74.3285
74.0358
73.7941
73.5982
73.4424
73.3216
73.2329
73.1693
73.1239
73.0943
73.0768
73.0699
73.0688
73.0734
73.074
72.5205
69.7512
66.3226
62.3498
57.8169
52.7093
47.0835
41.0782
34.9266
28.9458
23.4764
18.7947
15.0502
12.2584
10.2595
8.83646
7.8253
7.09931
6.57115
6.17944
5.9143
5.82289
5.76394
5.56275
5.23175
4.7735
4.18466
3.46387
2.60098
1.5963
0.444275
-0.844369
-2.28525
-3.85489
79.853
78.4377
76.4549
72.918
80.6151
80.9072
80.8415
80.5137
80.0041
79.3813
78.7
78.0022
77.3187
76.6717
76.0765
75.5419
75.071
74.6634
74.3162
74.0254
73.7857
73.5913
73.437
73.3208
73.2347
73.1699
73.1239
73.0941
73.0765
73.0697
73.0686
73.0733
73.0741
70.6314
67.5702
63.7875
59.4488
54.5447
49.0737
43.1216
36.8722
30.611
24.6925
19.4562
15.1369
11.8214
9.46576
7.8585
6.76781
6.0352
5.5418
5.20808
4.97979
4.99319
5.08186
4.98746
4.74189
4.35839
3.84009
3.18364
2.38747
1.44158
0.345247
-0.907742
-2.30718
-3.86838
-5.56756
80.7936
79.6163
77.5708
75.1166
71.0424
81.3435
81.4605
81.2492
80.8032
80.2005
79.5065
78.7722
78.0361
77.3264
76.664
76.0611
75.5235
75.0525
74.6464
74.3016
74.0133
73.7755
73.5831
73.4355
73.3233
73.2355
73.1699
73.1235
73.0935
73.0762
73.0695
73.0684
73.0733
73.0742
68.5311
65.1486
61
56.2861
51.0065
45.1753
38.9158
32.4662
26.1661
20.3959
15.4741
11.577
8.72314
6.8136
5.59411
4.82574
4.3591
4.08581
3.93522
4.00798
4.21843
4.27855
4.14532
3.85137
3.41095
2.8276
2.09794
1.22022
0.184578
-1.01074
-2.37257
-3.89104
-5.58104
-7.41852
81.6645
80.7487
78.9763
76.3872
73.5674
68.9644
82.0098
81.9561
81.6043
81.046
80.3564
79.5971
78.8151
78.0459
77.3167
76.6442
76.0372
75.4991
75.0298
74.6266
74.285
73.9991
73.7638
73.5807
73.4388
73.3243
73.2355
73.1693
73.1227
73.0932
73.076
73.0692
73.0682
73.0733
73.0743
66.19
62.4759
57.9512
52.8549
47.1964
41.0114
34.4711
27.8773
21.6209
16.0908
11.5615
8.13702
5.76712
4.30575
3.4656
3.00664
2.79244
2.72667
2.90462
3.19084
3.37862
3.40744
3.23181
2.88542
2.38332
1.72946
0.920625
-0.0452125
-1.17779
-2.47972
-3.95846
-5.60441
-7.43191
-9.41624
82.4653
81.8052
80.3408
78.0258
74.9988
71.8186
66.6477
82.6099
82.3906
81.9045
81.2407
80.4709
79.6523
78.8288
78.0346
77.2921
76.6139
76.0059
75.4697
75.0038
74.6044
74.2656
73.9829
73.7601
73.5851
73.4402
73.3243
73.2347
73.168
73.1224
73.0931
73.0756
73.0688
73.0679
73.0733
73.0745
63.5988
59.5451
54.6356
49.1495
43.1089
36.5798
29.795
23.1275
17.0098
11.8139
7.74806
4.83523
2.96161
1.94366
1.47015
1.30605
1.33031
1.62666
2.0384
2.30522
2.46818
2.46275
2.24108
1.83782
1.26884
0.538693
-0.355654
-1.41659
-2.6536
-4.07
-5.67384
-7.45594
-9.42906
-11.5728
83.1905
82.7858
81.6227
79.63
76.8713
73.4391
69.8339
64.0827
83.1395
82.7608
82.1477
81.386
80.543
79.6724
78.817
78.0054
77.255
76.5749
75.9686
75.4362
74.9748
74.5788
74.2439
73.9776
73.7658
73.5869
73.4402
73.3233
73.2329
73.168
73.1227
73.0929
73.0751
73.0683
73.0675
73.0733
73.0747
60.7528
56.3535
51.049
45.1632
38.7369
31.8783
24.8987
18.2452
12.3712
7.60194
4.06003
1.68616
0.31175
-0.273894
-0.396217
-0.281015
0.14726
0.702505
1.09986
1.34548
1.48123
1.43852
1.16683
0.701894
0.0605269
-0.75207
-1.73868
-2.902
-4.25116
-5.79004
-7.52721
-9.4532
-11.5816
-14.2933
83.8341
83.684
82.8245
81.1466
78.7122
75.5676
71.6707
67.6056
61.2654
83.5945
83.064
82.3323
81.4805
80.5727
79.6616
78.7834
77.9611
77.2074
76.5287
75.9264
75.3992
74.9418
74.5504
74.2365
73.9849
73.7682
73.5869
73.4388
73.3208
73.2332
73.1689
73.1227
73.0923
73.0745
73.0677
73.0671
73.0733
73.0749
57.6513
52.8989
47.1853
40.8869
34.0701
26.905
19.7989
13.2654
7.74664
3.48994
0.520185
-1.29953
-2.18083
-2.34979
-2.13834
-1.56507
-0.846268
-0.298404
0.0832684
0.305632
0.411676
0.328372
0.00232808
-0.529397
-1.24902
-2.15062
-3.23653
-4.50975
-5.97893
-7.64823
-9.52642
-11.6057
-14.3071
-17.5387
84.3911
84.4914
83.9402
82.5797
80.4611
77.6601
74.0785
69.681
65.1352
58.1964
83.9716
83.2984
82.4566
81.5243
80.5652
79.6246
78.7318
77.9041
77.1511
76.4766
75.8802
75.3575
74.9053
74.5404
74.2459
73.9878
73.7682
73.5851
73.4355
73.3216
73.2351
73.1695
73.1224
73.0916
73.0736
73.067
73.0666
73.0733
73.0751
54.2951
49.1783
43.0359
36.3047
29.0943
21.6616
14.5207
8.22989
3.17923
-0.489389
-2.85306
-4.1157
-4.51697
-4.28828
-3.54795
-2.64302
-1.92184
-1.38204
-1.01752
-0.820568
-0.746951
-0.874483
-1.25948
-1.86345
-2.66759
-3.66503
-4.85755
-6.24834
-7.84527
-9.65256
-11.679
-14.3377
-17.5566
-20.8525
84.8574
85.1999
84.9601
83.9238
82.1221
79.6545
76.4405
72.3878
67.4717
62.4298
54.8781
84.2682
83.4612
82.5201
81.5233
80.5262
79.5658
78.665
77.8368
77.0879
76.4198
75.8283
75.3114
74.8922
74.5521
74.2495
73.9878
73.7658
73.5807
73.437
73.325
73.2366
73.1695
73.1217
73.0906
73.0726
73.0662
73.0661
73.0733
73.0755
50.6835
45.1855
38.5847
31.3964
23.8002
16.1615
9.10087
3.18635
-1.2877
-4.30726
-6.04673
-6.75968
-6.69965
-5.85701
-4.73087
-3.80946
-3.08578
-2.55472
-2.20889
-2.03967
-2.00149
-2.17709
-2.62596
-3.30801
-4.20319
-5.30356
-6.6102
-8.1261
-9.85827
-11.81
-14.4169
-17.5898
-20.8652
-24.1701
85.23
85.8022
85.8746
85.1683
83.6904
81.555
78.6992
75.0322
70.4971
65.0518
59.5003
51.3116
84.4807
83.5518
82.5299
81.4845
80.461
79.4889
78.5858
77.7613
77.0191
76.3562
75.7711
75.2945
74.9068
74.5566
74.2495
73.9849
73.7601
73.5831
73.4425
73.3278
73.2373
73.1692
73.1207
73.0892
73.0713
73.0653
73.0655
73.0733
73.0758
46.8136
40.9094
33.8081
26.1366
18.1767
10.4261
3.58712
-1.81211
-5.61259
-7.94077
-9.05248
-9.23203
-8.46628
-7.17307
-6.01031
-5.07117
-4.34463
-3.82299
-3.49747
-3.35856
-3.35897
-3.58679
-4.10479
-4.87099
-5.864
-7.07456
-8.50274
-10.1512
-12.0247
-14.5582
-17.6769
-20.8944
-24.181
-27.4746
85.5044
86.2929
86.6738
86.3022
85.1553
83.3555
80.8595
77.5671
73.4353
68.4167
62.4375
56.3574
47.4966
84.6074
83.5779
82.4943
81.4142
80.3741
79.3972
78.4968
77.6791
76.9423
76.2862
75.7499
75.3125
74.9123
74.5566
74.2459
73.9775
73.7639
73.5914
73.447
73.3296
73.2375
73.1683
73.1193
73.0876
73.0699
73.0642
73.0648
73.0734
73.0762
42.6779
36.323
28.6635
20.484
12.2098
4.4823
-1.96401
-6.71004
-9.75893
-11.3727
-11.8666
-11.2336
-9.94749
-8.59582
-7.39355
-6.43496
-5.70507
-5.19357
-4.89015
-4.78421
-4.82663
-5.11109
-5.70371
-6.56037
-7.65818
-8.98617
-10.5433
-12.3303
-14.7858
-17.8304
-20.9807
-24.2106
-27.4845
-30.7545
85.6775
86.6653
87.348
87.3143
86.5058
85.0448
82.9144
79.999
76.2556
71.6603
66.1651
59.6474
53.0126
43.432
84.6569
83.5496
82.4208
81.3178
80.2694
79.2937
78.3999
77.5876
76.8579
76.26
75.7718
75.3191
74.9123
74.5521
74.2364
73.983
73.7757
73.5984
73.4505
73.3307
73.2371
73.1669
73.1174
73.0856
73.0681
73.0629
73.064
73.0734
73.0766
38.2558
31.3846
23.0944
14.3942
5.89799
-1.62631
-7.48778
-11.4532
-13.6959
-14.5918
-14.1457
-12.9108
-11.5477
-10.133
-8.88765
-7.90762
-7.17393
-6.67336
-6.39387
-6.32372
-6.41181
-6.75754
-7.43046
-8.38407
-9.59362
-11.0463
-12.7384
-15.1081
-18.0743
-21.1389
-24.2979
-27.5155
-30.7634
-33.9896
85.7592
86.914
87.8849
88.1932
87.7303
86.6113
84.8513
82.3212
78.9658
74.7741
69.7264
63.7653
56.7014
49.4796
39.1088
84.6414
83.4758
82.3161
81.2001
80.1507
79.181
78.2921
77.4869
76.8259
76.2864
75.7797
75.3191
74.9068
74.5403
74.2441
73.9993
73.786
73.604
73.453
73.331
73.2359
73.1648
73.115
73.0832
73.0661
73.0615
73.0632
73.0734
73.0771
33.5173
26.0414
17.0354
7.82947
-0.739833
-7.83487
-12.9138
-15.9904
-17.4001
-17.2009
-16.0541
-14.7214
-13.275
-11.7919
-10.4994
-9.49595
-8.75803
-8.26918
-8.01552
-7.98417
-8.12174
-8.53352
-9.29258
-10.3496
-11.6778
-13.261
-15.536
-18.4162
-21.3934
-24.4616
-27.6048
-30.7951
-33.9974
-37.1576
85.7633
87.0503
88.2712
88.9224
88.8163
88.0425
86.657
84.5217
81.561
77.7667
73.1413
67.6582
61.2418
53.6189
45.7668
34.5069
84.5714
83.3646
82.1858
81.0656
80.021
79.0554
78.1734
77.4485
76.8577
76.2959
75.7797
75.3125
74.8921
74.5505
74.266
74.0137
73.7944
73.6084
73.4544
73.3303
73.2339
73.1621
73.112
73.0805
73.0638
73.0599
73.0623
73.0735
73.0776
28.4166
20.213
10.4021
0.766036
-7.66149
-14.0603
-18.1689
-20.2767
-20.4056
-19.3838
-18.1121
-16.6735
-15.1365
-13.579
-12.2355
-11.2066
-10.464
-9.98766
-9.76185
-9.77235
-9.96333
-10.4461
-11.2971
-12.4639
-13.9163
-16.082
-18.866
-21.7494
-24.7257
-27.7753
-30.8856
-34.0294
-37.1642
-40.2369
85.7024
87.0913
88.5148
89.4811
89.7436
89.3262
88.3165
86.5868
84.0308
80.6364
76.419
71.3827
65.4829
58.6191
50.4204
41.8762
29.5964
84.4564
83.2228
82.0355
80.9181
79.8763
78.917
78.1278
77.4862
76.8688
76.2959
75.7717
75.2944
74.9055
74.5793
74.2854
74.0258
73.8014
73.6115
73.4546
73.3286
73.2309
73.1586
73.1085
73.0773
73.0613
73.0583
73.0615
73.0735
73.0782
22.8824
13.7766
3.09608
-6.80545
-14.7937
-20.2021
-23.1781
-23.7592
-22.9173
-21.7349
-20.3275
-18.7733
-17.138
-15.5004
-14.102
-13.0458
-12.2979
-11.8351
-11.6391
-11.6946
-11.943
-12.5016
-13.4502
-14.732
-16.7647
-19.436
-22.215
-25.0927
-28.0489
-31.0619
-34.1206
-37.1963
-40.2421
-43.206
85.5876
87.0527
88.6348
89.8726
90.4839
90.4402
89.8147
88.5004
86.3634
83.3757
79.5616
74.9473
69.5267
63.2283
55.9224
47.1292
37.8119
24.337
84.3048
83.0569
81.8695
80.7531
79.7165
78.8635
78.1724
77.4992
76.8688
76.2864
75.7498
75.3116
74.9424
74.605
74.3021
74.0361
73.8068
73.6131
73.4535
73.3257
73.227
73.1543
73.1044
73.0737
73.0586
73.0566
73.0606
73.0736
73.0788
16.8034
6.54649
-4.99947
-14.852
-22.0341
-26.1257
-27.2696
-26.6645
-25.616
-24.2602
-22.7046
-21.0251
-19.2842
-17.5612
-16.1043
-15.0188
-14.2655
-13.817
-13.6529
-13.7564
-14.0662
-14.7054
-15.7561
-17.6145
-20.1459
-22.8019
-25.5692
-28.4249
-31.3427
-34.3013
-37.2875
-40.274
-43.2099
-46.044
85.4289
86.9481
88.6501
90.1148
91.0368
91.3514
91.1253
90.2447
88.5432
85.9758
82.5661
78.3599
73.3799
67.6026
60.9222
53.1797
43.768
33.576
18.6711
84.1242
82.8723
81.6832
80.5704
79.6543
78.9158
78.1875
77.4992
76.8576
76.2598
75.7714
75.3583
74.9756
74.6273
74.3167
74.0445
73.8102
73.6129
73.4508
73.3215
73.222
73.1492
73.0997
73.0699
73.0558
73.0548
73.0596
73.0736
73.0795
9.99124
-1.79109
-13.9235
-23.3349
-29.1423
-30.9914
-30.6832
-29.7793
-28.5035
-26.9606
-25.2451
-23.4314
-21.5785
-19.7653
-18.2465
-17.1302
-16.3711
-15.9379
-15.8078
-15.9623
-16.3373
-17.0607
-18.6818
-21.0286
-23.5305
-26.1664
-28.9082
-31.724
-34.5864
-37.471
-40.3646
-43.2411
-46.0464
-48.7306
85.2355
86.7896
88.5784
90.2256
91.4204
92.0573
92.2079
91.7874
90.5521
88.4238
85.428
81.6224
77.0589
71.7464
65.6397
58.594
50.4185
40.3588
29.1816
12.5343
83.9211
82.6642
81.4762
80.4989
79.7154
78.9332
78.1875
77.4862
76.8258
76.2866
75.8293
75.4003
75.0047
74.6471
74.3289
74.0504
73.8115
73.6108
73.4464
73.3157
73.2158
73.1433
73.0946
73.0659
73.0529
73.0529
73.0587
73.0737
73.0801
2.09798
-11.5781
-23.8321
-31.8216
-35.0439
-35.0441
-34.3294
-33.1045
-31.5748
-29.8323
-27.9475
-25.9921
-24.0216
-22.1143
-20.5311
-19.3827
-18.6179
-18.2011
-18.1068
-18.315
-18.7581
-20.0427
-22.1374
-24.4361
-26.9057
-29.51
-32.2091
-34.9685
-37.7572
-40.5488
-43.3301
-46.0766
-48.7318
-51.247
85.0151
86.5885
88.4356
90.2227
91.6526
92.5766
93.0579
93.0764
92.3536
90.7033
88.1386
84.7363
80.571
75.6878
70.0762
63.6674
56.2702
47.6689
36.9379
24.6887
5.85125
83.6907
82.4319
81.3945
80.5697
79.7353
78.9332
78.1724
77.4483
76.8583
76.3573
75.8815
75.4374
75.0307
74.6639
74.3381
74.0537
73.8103
73.6064
73.44
73.3084
73.2085
73.1367
73.0891
73.0616
73.0498
73.051
73.0578
73.0738
73.0809
-7.45057
-23.995
-33.9076
-39.1509
-39.9019
-39.3313
-38.1904
-36.6262
-34.8198
-32.8659
-30.806
-28.7035
-26.6117
-24.6077
-22.9585
-21.7774
-21.0071
-20.6078
-20.5512
-20.8148
-21.8144
-23.5524
-25.5744
-27.8248
-30.253
-32.8093
-35.4499
-38.1358
-40.8326
-43.5127
-46.163
-48.7602
-51.2468
-53.5762
84.7629
86.3536
88.2366
90.1238
91.751
92.928
93.6977
94.0996
93.8841
92.7763
90.6854
87.6979
83.9246
79.4406
74.2758
68.3983
61.7114
53.9796
44.9761
33.5534
20.2092
-1.45299
83.4321
82.3395
81.4763
80.5925
79.7353
78.9158
78.1276
77.4874
76.9438
76.4214
75.9279
75.4709
75.0532
74.6772
74.344
74.0539
73.8063
73.5996
73.4316
73.2997
73.2004
73.1297
73.0833
73.0571
73.0466
73.049
73.0569
73.0738
73.0816
-21.1369
-37.5855
-43.9221
-45.2959
-44.9993
-43.8019
-42.2188
-40.3157
-38.2236
-36.0472
-33.8101
-31.558
-29.3432
-27.2419
-25.5263
-24.3127
-23.5376
-23.157
-23.139
-23.9602
-25.3954
-27.0285
-28.9812
-31.1768
-33.5489
-36.0423
-38.6082
-41.2034
-43.7903
-46.3414
-48.843