/*--------------------------------*- C++ -*----------------------------------*\
  =========                 |
  \\      /  F ield         | OpenFOAM: The Open Source CFD Toolbox
   \\    /   O peration     | Website:  https://openfoam.org
    \\  /    A nd           | Version:  8
     \\/     M anipulation  |
\*---------------------------------------------------------------------------*/
FoamFile
{
    version     2.0;
    format      ascii;
    class       volScalarField;
    location    "1200";
    object      epsilon;
}
// * * * * * * * * * * * * * * * * * * * * * * * * * * * * * * * * * * * * * //

dimensions      [0 2 -3 0 0 0 0];

internalField   nonuniform List<scalar> 
15677
(
1182.95
450.74
1558.79
85.8083
451.646
1455.66
19.8101
116.596
388.105
1275.61
7.21261
35.9263
104.771
360.507
1158.64
3.82902
14.3044
37.2929
92.6161
360.998
1085.6
2.64035
7.18073
17.1136
35.2355
94.119
365.868
1041.68
2.1617
4.33781
9.17353
17.286
33.697
99.4686
372.525
1010.97
1.97289
3.0344
5.5835
9.92109
17.0564
33.9545
109.111
372.987
991.086
1.90448
2.38279
3.79249
6.27455
10.1569
16.6785
35.4132
119.136
372.1
975.02
1.87844
2.06059
2.83783
4.30797
6.63539
10.1325
16.725
38.3638
129.218
368.217
964.002
1.86721
1.92147
2.31396
3.19104
4.63774
6.78553
10.0798
17.023
42.2968
137.111
363.507
957.465
1.86735
1.86801
2.02991
2.53929
3.44684
4.83114
6.83268
10.0843
17.7023
46.4564
143.43
358.921
955.15
1.86899
1.84318
1.89333
2.15981
2.71934
3.62225
4.93498
6.84669
10.1417
18.7178
50.7346
148.022
354.931
956.102
1.86963
1.83738
1.83764
1.94879
2.27424
2.85592
3.73607
4.98912
6.85165
10.285
19.9502
54.593
151.485
351.757
959.612
1.86973
1.83717
1.81463
1.84527
2.0098
2.36881
2.95488
3.80803
5.01475
6.8651
10.5488
21.2034
58.2024
153.576
349.375
966.92
1.8697
1.83752
1.8089
1.80066
1.86356
2.066
2.44312
3.02474
3.85146
5.02551
6.89973
10.8397
22.5493
61.1465
154.964
347.669
978.229
1.86967
1.83768
1.80792
1.78609
1.79397
1.88813
2.1137
2.49982
3.07247
3.8758
5.03204
6.95246
11.1852
23.7758
63.6772
155.468
346.638
993.053
1.86966
1.83771
1.80789
1.78199
1.76781
1.79444
1.91112
2.15263
2.54176
3.10383
3.88818
5.03739
7.02412
11.5192
24.9758
65.4991
155.467
346.206
1011.47
1.86966
1.83769
1.80794
1.78101
1.75908
1.75496
1.79654
1.93163
2.18329
2.57199
3.12304
3.89313
5.0455
7.09729
11.8691
25.9942
66.8705
155.198
346.301
1033.54
1.86966
1.83767
1.80794
1.78083
1.75639
1.74002
1.74514
1.80068
1.9489
2.20683
2.5927
3.13385
3.89277
5.05299
7.17784
12.1862
26.8759
67.6797
154.608
346.758
1059.29
1.86966
1.83766
1.80792
1.78079
1.75564
1.73472
1.72374
1.73808
1.80498
1.96294
2.22417
2.60633
3.13804
3.89047
5.06189
7.25221
12.4785
27.5363
68.136
153.619
347.74
1088.65
1.86966
1.83765
1.80789
1.78076
1.75543
1.73299
1.71522
1.71029
1.73262
1.80889
1.97385
2.23661
2.61419
3.13749
3.88581
5.06856
7.32143
12.7142
28.0288
68.0876
152.5
349.209
1121.63
1.86966
1.83764
1.80788
1.78073
1.75535
1.73246
1.71207
1.69839
1.6987
1.72845
1.8121
1.98211
2.24496
2.61806
3.13503
3.87882
5.07426
7.37749
12.9069
28.3181
67.8607
151.322
351.112
1158.02
1.86966
1.83764
1.80786
1.7807
1.75529
1.73227
1.71096
1.69362
1.68322
1.68917
1.72494
1.81463
1.98818
2.25042
2.61851
3.12989
3.87106
5.0754
7.42049
13.0294
28.4271
67.3534
150.03
353.378
1197.81
1.86966
1.83763
1.80786
1.78067
1.75524
1.73217
1.71055
1.6918
1.67654
1.67041
1.68079
1.72218
1.81669
1.99269
2.25364
2.61783
3.12372
3.86161
5.07402
7.44806
13.1139
28.3822
66.5931
148.64
356.065
1240.71
1.86967
1.83762
1.80785
1.78065
1.75521
1.7321
1.71037
1.69109
1.6738
1.66192
1.65876
1.67412
1.72003
1.81848
1.99624
2.25576
2.61641
3.11664
3.85235
5.07002
7.45949
13.1141
28.2475
65.6892
147.245
359.069
1286.68
1.86967
1.83762
1.80785
1.78063
1.75518
1.73203
1.71026
1.69078
1.67269
1.65823
1.64829
1.64948
1.66847
1.71872
1.82064
1.99967
2.25792
2.61447
3.11098
3.84243
5.06257
7.45486
13.0924
27.9855
64.6695
145.803
362.447
1335.27
1.86967
1.83761
1.80785
1.78061
1.75516
1.73198
1.71018
1.6906
1.67221
1.65664
1.64354
1.63739
1.64109
1.66461
1.71902
1.82367
2.00371
2.26062
2.61477
3.10577
3.83475
5.05233
7.44205
13.0386
27.6304
63.5559
144.403
366.087
1386.54
1.86967
1.83761
1.80785
1.78059
1.75514
1.73194
1.71012
1.69048
1.67196
1.65591
1.64143
1.63165
1.6272
1.63565
1.66253
1.7206
1.82813
2.00937
2.26541
2.61674
3.10516
3.82848
5.04175
7.41764
12.9398
27.2141
62.3949
142.99
370.045
1439.57
1.86968
1.8376
1.80785
1.78058
1.75513
1.7319
1.71007
1.69038
1.67179
1.65554
1.64046
1.62896
1.62047
1.62061
1.63112
1.66332
1.72428
1.83508
2.01763
2.27332
2.62181
3.10713
3.82593
5.03184
7.38615
12.8175
26.7549
61.1998
141.652
374.212
1500.66
1.86968
1.8376
1.80785
1.78057
1.75512
1.73187
1.71003
1.6903
1.67167
1.6553
1.63997
1.62765
1.61727
1.61298
1.61453
1.63138
1.66626
1.73134
1.84538
2.0297
2.28517
2.63185
3.11304
3.82761
5.02389
7.34982
12.6796
26.2705
60.0068
140.328
379.158
1570.46
1.86968
1.83759
1.80785
1.78056
1.75511
1.73184
1.70999
1.69023
1.67157
1.65513
1.63966
1.62698
1.61571
1.60917
1.60622
1.61405
1.63371
1.67256
1.74254
1.86025
2.04655
2.30251
2.64784
3.12519
3.83338
5.01872
7.31284
12.5327
25.7732
58.8199
138.966
384.978
1641.61
1.86968
1.83759
1.80785
1.78055
1.75511
1.73182
1.70997
1.69017
1.67148
1.65499
1.63944
1.62657
1.61488
1.60723
1.60208
1.60486
1.61602
1.63951
1.68406
1.75903
1.88074
2.06971
2.32635
2.67084
3.14496
3.84546
5.01987
7.27698
12.3828
25.2767
57.5401
137.523
391.033
1713.61
1.86968
1.83759
1.80785
1.78054
1.7551
1.73179
1.70995
1.69012
1.67141
1.65487
1.63926
1.62628
1.61438
1.6062
1.59995
1.60015
1.60669
1.62156
1.65083
1.70149
1.78193
1.90839
2.10016
2.35826
2.70175
3.17274
3.86624
5.02511
7.24422
12.2342
24.7356
56.1669
136.218
397.271
1785.85
1.83759
1.86972
1.80785
1.78053
1.7551
1.73177
1.70993
1.69007
1.67136
1.65476
1.63911
1.62605
1.61402
1.60559
1.59881
1.59771
1.6019
1.61215
1.6327
1.66893
1.72601
1.81279
1.94427
2.1396
2.39894
2.74197
3.20914
3.89564
5.03664
7.21652
12.0759
24.1606
54.8884
135.005
403.633
1857.77
1.80786
1.83768
1.86979
1.78053
1.7551
1.73176
1.70992
1.69003
1.67131
1.65467
1.63899
1.62586
1.61374
1.60516
1.5981
1.59641
1.59944
1.60737
1.62328
1.65136
1.69471
1.75927
1.85285
1.99015
2.18881
2.45002
2.79191
3.25547
3.93344
5.05736
7.19439
11.9109
23.6258
53.6941
133.929
410.064
1928.92
1.78052
1.80801
1.83788
1.86987
1.7551
1.73174
1.70991
1.68999
1.67128
1.65459
1.63889
1.6257
1.61351
1.60483
1.59761
1.59564
1.59815
1.60497
1.61861
1.64249
1.67823
1.72989
1.80257
1.90396
2.04703
2.24968
2.51192
2.85283
3.31157
3.98092
5.08997
7.17955
11.7652
23.1343
52.6002
132.949
416.553
1998.82
1.7551
1.78072
1.80833
1.83808
1.86995
1.73172
1.7099
1.68995
1.67124
1.65451
1.6388
1.62556
1.61331
1.60456
1.59722
1.59512
1.59741
1.60378
1.61639
1.63839
1.67043
1.71531
1.77605
1.85778
1.96709
2.1168
2.32246
2.58612
2.92483
3.37847
4.04438
5.13797
7.18194
11.6389
22.6886
51.5954
132.095
422.963
2067.14
1.73171
1.75535
1.78114
1.80866
1.83829
1.87003
1.70989
1.68992
1.67122
1.65444
1.63873
1.62543
1.61314
1.60433
1.5969
1.59473
1.59692
1.60315
1.61544
1.63683
1.66746
1.70938
1.76427
1.83549
1.92673
2.04457
2.19976
2.40897
2.67261
3.00869
3.46451
4.12883
5.19963
7.19243
11.53
22.2887
50.6856
131.337
429.309
2133.52
1.70988
1.732
1.75587
1.78157
1.809
1.8385
1.87011
1.68989
1.6712
1.65438
1.63867
1.6253
1.613
1.60413
1.59662
1.59441
1.59656
1.60277
1.61506
1.6365
1.66694
1.70818
1.76118
1.82814
1.91042
2.01205
2.13777
2.2988
2.50848
2.77244
3.11542
3.57584
4.22745
5.27337
7.21453
11.4422
21.9316
49.8599
130.695
435.504
2197.77
1.68987
1.71021
1.73258
1.7564
1.78201
1.80935
1.83872
1.87019
1.67118
1.65432
1.63862
1.62519
1.61288
1.60395
1.59638
1.59414
1.59627
1.60252
1.61492
1.63668
1.66761
1.70939
1.76244
1.82848
1.90805
2.0034
2.1159
2.25
2.41428
2.62426
2.89694
3.25011
3.70165
4.33825
5.35727
7.25099
11.3711
21.6167
49.1194
130.137
441.578
2259.65
1.67116
1.69021
1.71089
1.73319
1.75695
1.78246
1.80971
1.83895
1.87027
1.65427
1.63858
1.62509
1.61278
1.60378
1.59617
1.5939
1.59602
1.60232
1.61489
1.63706
1.66876
1.71185
1.76635
1.83374
1.91371
2.00773
2.11536
2.23986
2.38202
2.54958
2.7708
3.05626
3.40152
3.84124
4.45941
5.4508
7.29693
11.3192
21.3385
48.4526
129.676
447.462
2319.07
1.65423
1.67154
1.69092
1.71158
1.73381
1.75751
1.78292
1.81007
1.83918
1.87036
1.63855
1.62499
1.6127
1.60362
1.59599
1.59369
1.59581
1.60216
1.6149
1.6375
1.67004
1.71466
1.77147
1.84181
1.9246
2.02103
2.12937
2.25093
2.38468
2.53505
2.72189
2.96055
3.23785
3.57013
3.99292
4.59009
5.55214
7.35223
11.2797
21.0962
47.8584
129.283
453.191
2375.9
1.63852
1.65459
1.67233
1.69166
1.7123
1.73445
1.75809
1.7834
1.81045
1.83942
1.87045
1.62491
1.61263
1.60347
1.59584
1.59351
1.59562
1.60203
1.61493
1.63794
1.67132
1.71748
1.7768
1.85115
1.93862
2.04005
2.153
2.27791
2.4113
2.55539
2.7287
2.94105
3.17687
3.4417
3.75503
4.15647
4.72868
5.66018
7.41423
11.2572
20.8842
47.3258
128.968
458.705
2430.12
1.62483
1.63892
1.65538
1.67315
1.69243
1.71303
1.73511
1.75869
1.78389
1.81083
1.83967
1.87054
1.61257
1.60333
1.59571
1.59334
1.59546
1.60191
1.61497
1.63835
1.67254
1.72015
1.78198
1.86052
1.95398
2.06283
2.1832
2.31576
2.45514
2.60205
2.77423
2.9801
3.18994
3.41543
3.6659
3.9559
4.33024
4.87411
5.77313
7.48274
11.2418
20.7006
46.8546
128.707
464.043
2481.67
1.61253
1.62517
1.63976
1.6562
1.67398
1.69321
1.71379
1.7358
1.7593
1.7844
1.81123
1.83992
1.87063
1.60319
1.59561
1.59318
1.5953
1.6018
1.615
1.63872
1.67367
1.72264
1.7869
1.86951
1.96917
2.08736
2.21819
2.36169
2.51178
2.66836
2.84884
3.06144
3.27021
3.46984
3.6756
3.90473
4.1708
4.51356
5.02533
5.8903
7.5555
11.2422
20.5418
46.4352
128.507
469.151
2530.62
1.60307
1.6129
1.62594
1.64063
1.65705
1.67485
1.69402
1.71456
1.7365
1.75992
1.78492
1.81163
1.84018
1.87073
1.59553
1.59303
1.59515
1.6017
1.61502
1.63906
1.6747
1.72492
1.79149
1.87797
1.98375
2.11163
2.25555
2.4143
2.57896
2.75073
2.94716
3.1772
3.39719
3.60014
3.78005
3.95778
4.15682
4.3949
4.70501
5.18109
6.00991
7.63201
11.2469
20.4039
46.0646
128.349
474.071
2576.94
1.59549
1.60329
1.61369
1.62674
1.64154
1.65792
1.67573
1.69486
1.71536
1.73722
1.76056
1.78546
1.81204
1.84044
1.87081
1.59289
1.59502
1.6016
1.61504
1.63936
1.67564
1.72701
1.79574
1.88585
1.99757
2.13503
2.29255
2.47076
2.65585
2.84775
3.06692
3.32411
3.56703
3.78462
3.97075
4.1199
4.26008
4.42139
4.62478
4.90137
5.33922
6.13126
7.71103
11.2576
20.2849
45.7363
128.239
478.758
2620.75
1.59276
1.59573
1.60384
1.61451
1.62757
1.64247
1.65883
1.67665
1.69572
1.71618
1.73796
1.76122
1.78601
1.81245
1.84069
1.8709
1.59488
1.6015
1.61505
1.63963
1.67648
1.7289
1.79965
1.89314
2.01059
2.15731
2.32842
2.52745
2.73901
2.95947
3.20827
3.50263
3.78017
4.0252
4.22729
4.38307
4.48842
4.58048
4.69685
4.85922
5.10178
5.49991
6.25353
7.7914
11.2758
20.1826
45.4465
128.16
483.254
2662.04
1.59479
1.59267
1.59626
1.6044
1.61536
1.62844
1.64343
1.65977
1.67758
1.69662
1.71702
1.73873
1.76189
1.78655
1.81285
1.84093
1.87098
1.6014
1.61506
1.63987
1.67725
1.73062
1.80323
1.89984
2.02278
2.17831
2.36293
2.58324
2.82314
3.08191
3.37342
3.71656
4.04222
4.32899
4.56078
4.73011
4.83835
4.88451
4.917
4.98098
5.09641
5.30154
5.66139
6.37572
7.87261
11.2985
20.0949
45.1894
128.116
487.518
2700.97
1.60137
1.59456
1.59251
1.5968
1.60502
1.61626
1.62936
1.64442
1.66075
1.67855
1.69754
1.71788
1.73951
1.76256
1.78708
1.81324
1.84117
1.87106
1.61505
1.64009
1.67794
1.73219
1.8065
1.906
2.03412
2.19798
2.39593
2.63753
2.90646
3.20831
3.55875
3.97305
4.36442
4.7121
4.99115
5.1874
5.29982
5.33844
5.30723
5.26768
5.27161
5.33579
5.49937
5.82206
6.49698
7.95376
11.3248
20.0197
44.9629
128.094
491.594
2737.56
1.61514
1.6009
1.59407
1.59232
1.59741
1.60569
1.61719
1.63032
1.64543
1.66176
1.67954
1.69849
1.71876
1.74029
1.76321
1.78759
1.81361
1.8414
1.87114
1.64026
1.67855
1.73361
1.80947
1.91164
2.04462
2.21632
2.42734
2.68979
2.98827
3.33692
3.75496
4.2696
4.76509
5.20297
5.55614
5.7983
5.92365
5.94498
5.88568
5.75577
5.63069
5.56687
5.5758
5.69453
5.98061
6.61639
8.03441
11.3538
19.9557
44.7622
128.1
495.444
2771.96
1.64055
1.61426
1.59972
1.59351
1.59224
1.59807
1.60643
1.61814
1.63133
1.64647
1.66281
1.68055
1.69946
1.71963
1.74105
1.76384
1.78809
1.81398
1.84162
1.87122
1.67908
1.73489
1.81219
1.91682
2.05432
2.23337
2.45707
2.73965
3.06826
3.46684
3.95806
4.59287
5.251
5.84793
6.31953
6.63886
6.79052
6.79053
6.67436
6.48219
6.22919
6.00422
5.86503
5.81493
5.8863
6.1362
6.73349
8.1138
11.3848
19.9011
44.5852
128.117
499.115
2799.91
1.67973
1.63905
1.61193
1.59845
1.59309
1.59226
1.59875
1.60725
1.61912
1.63239
1.64755
1.6639
1.68159
1.70043
1.72048
1.74178
1.76445
1.78858
1.81433
1.84184
1.87129
1.73601
1.81464
1.92157
2.06326
2.24919
2.48507
2.78695
3.14623
3.59669
4.16507
4.93974
5.81288
6.68024
7.37783
7.82725
8.0308
8.00615
7.80584
7.4943
7.12879
6.72613
6.38645
6.16448
6.05187
6.07399
6.28781
6.84729
8.19165
11.4172
19.855
44.4284
128.152
502.114
2823.53
1.73726
1.67748
1.63493
1.60947
1.59735
1.59276
1.59241
1.59943
1.60814
1.62012
1.63349
1.64865
1.66501
1.68263
1.70137
1.72131
1.7425
1.76505
1.78905
1.81468
1.84205
1.87137
1.81683
1.9259
2.07149
2.26388
2.51134
2.83164
3.22196
3.72489
4.37401
5.31149
6.45466
7.69309
8.79648
9.52302
9.82819
9.78643
9.47023
8.97867
8.40641
7.82414
7.24448
6.77547
6.46373
6.2855
6.25703
6.43552
6.95838
8.26767
11.4506
19.816
44.29
128.192
504.675
2849.26
1.81909
1.73403
1.67092
1.63056
1.60731
1.59637
1.59249
1.59277
1.6001
1.60911
1.62115
1.63465
1.64978
1.66612
1.68364
1.70228
1.72212
1.7432
1.76563
1.78951
1.81501
1.84225
1.87144
1.92982
2.07901
2.27749
2.53591
2.87379
3.29518
3.85004
4.58444
5.70998
7.17893
8.88366
10.548
11.8172
12.4123
12.3871
11.9317
11.1889
10.3071
9.40661
8.56438
7.78135
7.16922
6.76135
6.51488
6.43482
6.57731
7.06614
8.34155
11.4843
19.7833
44.1838
128.236
507.468
2877.32
1.93368
1.81466
1.724
1.66406
1.62658
1.6053
1.59545
1.59215
1.59331
1.60078
1.61015
1.62222
1.63583
1.65092
1.6672
1.68462
1.70317
1.72291
1.74387
1.76619
1.78996
1.81534
1.84245
1.87147
2.0859
2.29007
2.55883
2.91352
3.3656
3.97126
4.79697
6.13558
7.98104
10.2395
12.6062
14.6431
15.9034
16.1243
15.5295
14.4649
13.1507
11.7791
10.4856
9.34341
8.33307
7.5655
7.05604
6.73919
6.60741
6.71319
7.17012
8.41311
11.5182
19.7595
44.0981
128.289
510.551
2907.9
2.09242
1.92772
1.79971
1.71362
1.65777
1.62285
1.60341
1.59462
1.59181
1.59397
1.6015
1.61125
1.62333
1.63702
1.65203
1.66825
1.68558
1.70404
1.72367
1.74453
1.76674
1.79039
1.81565
1.84255
1.87147
2.30171
2.58014
2.95094
3.43296
4.08824
5.0126
6.58632
8.85069
11.7379
14.9362
17.9475
20.1914
21.1682
20.6973
19.2508
17.3642
15.3318
13.3756
11.6306
10.1535
8.89537
7.96206
7.34656
6.95778
6.77437
6.84322
7.2701
8.48212
11.5474
19.7413
44.0087
128.361
513.919
2941.27
2.31243
2.08465
1.90574
1.78441
1.70406
1.65179
1.6193
1.60167
1.59386
1.59154
1.59471
1.60228
1.61239
1.62446
1.63818
1.65312
1.66927
1.68652
1.70488
1.72442
1.74517
1.76728
1.79081
1.81581
1.84255
1.87147
2.6
2.9861
3.4971
4.20111
5.23214
7.05833
9.77467
13.3517
17.4932
21.6702
25.1944
27.365
27.685
26.1368
23.5235
20.5939
17.7008
15.0737
12.8268
10.9859
9.46377
8.35666
7.63176
7.17006
6.93534
6.96749
7.36584
8.53971
11.5731
19.7231
43.9163
128.445
517.649
2977.65
2.61781
2.30228
2.05264
1.88353
1.77027
1.69493
1.64608
1.61597
1.60006
1.59319
1.59138
1.59552
1.60313
1.61352
1.62558
1.6393
1.65419
1.67027
1.68743
1.7057
1.72514
1.74579
1.7678
1.79102
1.81581
1.84255
1.87147
3.01923
3.55796
4.31031
5.45581
7.54633
10.7389
15.0531
20.2294
25.7372
30.8178
34.5965
36.2915
35.4849
32.4176
28.3023
24.1095
20.2226
16.8489
14.0588
11.8319
10.0338
8.74714
7.9106
7.37558
7.09014
7.086
7.44522
8.58913
11.6021
19.7058
43.8212
128.556
521.732
3017.36
3.04848
2.60473
2.25575
2.02075
1.86299
1.75672
1.68614
1.64061
1.61283
1.59857
1.59262
1.59133
1.59636
1.60404
1.61463
1.62669
1.6404
1.65523
1.67124
1.68832
1.7065
1.72585
1.7464
1.76805
1.79102
1.81581
1.84255
1.87147
3.61588
4.41647
5.68318
8.04415
11.7292
16.815
23.0967
30.0688
36.9422
42.7166
46.3501
47.0426
44.5543
39.4861
33.5276
27.8612
22.8611
18.6773
15.3118
12.6832
10.6013
9.1315
8.18221
7.57403
7.23855
7.18398
7.51306
8.64385
11.6349
19.6891
43.7242
128.688
526.266
3060.68
3.66646
3.03129
2.53697
2.21011
1.9912
1.84326
1.74364
1.67768
1.63539
1.60988
1.59721
1.59217
1.59141
1.59719
1.60499
1.6157
1.62779
1.64146
1.65626
1.67218
1.68919
1.70728
1.72653
1.7467
1.76805
1.79102
1.81581
1.84255
1.87147
4.52028
5.91126
8.54533
12.7321
18.6117
26.0488
34.5851
43.4373
51.5356
57.6394
60.5796
59.6258
54.833
47.2627
39.1295
31.7973
25.5812
20.5365
16.5725
13.5322
11.1624
9.50803
8.4459
7.76506
7.36188
7.2676
7.58784
8.70451
11.6722
19.6745
43.6264
128.858
531.244
3107.95
4.61204
3.64425
2.93104
2.47163
2.16782
1.9628
1.82418
1.73101
1.66956
1.63042
1.60714
1.59598
1.59184
1.59166
1.59797
1.60598
1.61675
1.62888
1.6425
1.65726
1.6731
1.69004
1.70803
1.72687
1.7467
1.76805
1.79102
1.81581
1.84255
1.87143
6.13768
9.04561
13.7348
20.4187
29.0421
39.2093
50.1722
60.8442
69.8654
75.7704
77.324
73.9798
66.2169
55.6477
45.0316
35.8657
28.3498
22.4065
17.8289
14.372
11.7136
9.87528
8.70106
7.92456
7.46743
7.35965
7.67038
8.77187
11.7146
19.6614
43.5283
129.059
536.789
3159.52
4.58256
6.33823
3.49077
2.83669
2.41103
2.12714
1.93531
1.80572
1.71883
1.66177
1.62569
1.60464
1.5949
1.59159
1.59216
1.59872
1.60699
1.61777
1.62995
1.64351
1.65823
1.674
1.69086
1.7084
1.72687
1.74669
1.76805
1.79102
1.81581
1.84245
1.87136
9.54071
14.7267
22.2139
32.0359
43.8706
57.0244
70.4355
82.7028
92.1746
97.1886
96.5298
89.9757
78.5649
64.5261
51.1547
40.0164
31.1371
24.2697
19.0708
15.1974
12.2525
10.2321
8.91514
8.06142
7.58398
7.46116
7.76162
8.84681
11.763
19.6523
43.433
129.315
542.895
3215.8
4.33004
6.31024
9.97862
3.35144
2.74927
2.35278
2.08778
1.9087
1.78789
1.70712
1.65433
1.62119
1.60238
1.59396
1.59127
1.5928
1.59945
1.60801
1.61877
1.631
1.6445
1.65918
1.67487
1.69127
1.7084
1.72688
1.7467
1.76805
1.79102
1.81565
1.84225
1.87129
15.6976
23.9787
34.9947
48.5059
63.8851
80.1211
95.8346
109.304
118.585
121.859
118.049
107.425
91.7068
73.7747
57.4206
44.2034
33.9165
26.1108
20.2902
16.0038
12.7769
10.5324
9.09926
8.21292
7.71291
7.5733
7.86262
8.93027
11.8183
19.646
43.3399
129.619
549.722
3277.16
4.10892
5.86448
9.97061
16.5572
3.22358
2.66531
2.29648
2.04968
1.88299
1.77072
1.69589
1.64723
1.61699
1.60039
1.59318
1.59102
1.5935
1.60019
1.60902
1.61977
1.63203
1.64547
1.66011
1.6753
1.69127
1.7084
1.72688
1.7467
1.76805
1.79081
1.81533
1.84204
1.87122
25.6967
37.8893
53.0617
70.6614
89.7412
108.981
126.688
140.805
149.088
149.627
141.648
126.088
105.453
83.2686
63.7555
48.3847
36.6648
27.9179
21.4804
16.788
13.2185
10.7911
9.30354
8.38094
7.8558
7.6974
7.9746
9.02347
11.8815
19.6475
43.2559
130.001
557.267
3344.05
3.91
5.47639
9.15821
16.6137
27.226
3.10146
2.58428
2.24206
2.01289
1.85822
1.75424
1.68517
1.64056
1.61321
1.5987
1.59252
1.59088
1.59424
1.60095
1.61002
1.62074
1.63304
1.64642
1.66058
1.67529
1.69127
1.7084
1.72688
1.7467
1.76779
1.79039
1.815
1.84183
1.87114
40.6953
57.4968
77.2793
99.1672
121.917
143.923
163.171
177.226
183.54
180.225
167.014
145.691
119.608
92.888
70.0915
52.5234
39.3631
29.681
22.6366
17.4477
13.5988
11.0783
9.53058
8.5676
8.01443
7.83499
8.09895
9.12758
11.9542
19.6538
43.1772
130.457
565.734
3416.91
3.72355
5.12794
8.43473
15.2493
27.4474
43.2012
2.98411
2.50613
2.18958
1.97745
1.83443
1.73847
1.67505
1.63449
1.60992
1.59724
1.59201
1.59085
1.59498
1.60173
1.61099
1.62171
1.63403
1.64689
1.66057
1.67529
1.69127
1.7084
1.72687
1.74639
1.76727
1.78995
1.81467
1.84161
1.87106
61.7779
83.6853
108.303
134.47
160.697
185.109
205.32
218.449
221.666
213.282
193.776
165.941
133.979
102.521
76.368
56.5888
41.9959
31.3926
23.6078
18.0149
14.0208
11.3978
9.78333
8.77537
8.19087
7.98786
8.23736
9.24439
12.0377
19.6686
43.1177
131.03
575.135
3496.16
3.5474
4.80418
7.77669
13.9872
25.3547
43.7313
65.6036
2.87134
2.43094
2.13912
1.94345
1.81168
1.72357
1.66579
1.6291
1.60704
1.596
1.59163
1.59093
1.59571
1.60253
1.61195
1.62268
1.63452
1.64687
1.66057
1.67529
1.69127
1.7084
1.72653
1.74578
1.76673
1.7895
1.81432
1.84139
1.87098
89.8382
117.086
146.527
176.794
206.199
232.572
253.049
264.223
263.063
248.332
221.524
186.543
148.383
112.066
82.5343
60.5556
44.5511
32.8291
24.4421
18.6437
14.4898
11.7536
10.0651
9.00705
8.38751
8.15805
8.39148
9.37513
12.1341
19.6957
43.0691
131.71
585.729
3582.26
3.38083
4.50153
7.16193
12.8047
23.3843
40.7322
66.6203
95.326
2.76315
2.35886
2.09078
1.91096
1.79016
1.70991
1.65751
1.62431
1.60452
1.59496
1.59137
1.59113
1.59642
1.60335
1.61292
1.62314
1.6345
1.64687
1.66058
1.67529
1.69127
1.70803
1.72584
1.74515
1.76618
1.78904
1.81396
1.84116
1.8709
125.471
158.022
192.082
226.169
258.414
286.243
306.154
314.16
307.207
284.847
249.835
207.216
162.656
121.439
88.5481
64.4036
46.6941
34.0627
25.3662
19.3415
15.0116
12.1504
10.3798
9.2659
8.60706
8.34795
8.56415
9.52313
12.2455
19.7376
43.0537
132.57
597.553
3693.12
3.22346
4.21943
6.5846
11.6798
21.499
37.8802
62.5475
97.0171
132.915
2.65963
2.29004
2.04466
1.88027
1.77043
1.69765
1.6501
1.62005
1.60234
1.59408
1.5912
1.59149
1.59711
1.60424
1.61338
1.6231
1.63451
1.64687
1.66057
1.6753
1.69086
1.70726
1.72512
1.74451
1.76561
1.78856
1.8136
1.84092
1.87081
168.917
206.513
244.885
282.508
317.259
345.975
364.321
367.74
353.475
322.26
278.296
227.7
176.658
130.57
94.3757
67.628
48.5341
35.4286
26.3909
20.1167
15.5926
12.5934
10.7317
9.55558
8.85268
8.5602
8.75609
9.69077
12.3751
19.7967
43.0678
133.601
613.441
3826.56
3.07492
3.95798
6.04508
10.6068
19.669
35.113
58.6679
91.7128
135.442
178.511
2.561
2.22464
2.00118
1.85216
1.7527
1.68664
1.64347
1.61626
1.60049
1.59334
1.591
1.59197
1.59788
1.60465
1.61332
1.6231
1.63451
1.64687
1.66058
1.67487
1.69003
1.70648
1.72439
1.74385
1.76503
1.78808
1.81323
1.84068
1.87072
220.069
262.333
304.726
345.673
382.629
411.566
427.12
424.321
401.173
359.998
306.518
247.775
190.273
139.402
99.2514
70.3957
50.5716
36.9428
27.5283
20.9787
16.2403
13.0883
11.1257
9.88024
9.12794
8.79855
8.97
9.88088
12.526
19.8797
43.1118
135.134
633.691
3962.56
2.93446
3.71782
5.54502
9.58945
17.8841
32.3891
54.8738
86.6926
128.741
181.963
231.856
2.46754
2.1632
1.96142
1.82692
1.73678
1.67677
1.63754
1.61287
1.59891
1.59273
1.59085
1.59264
1.59818
1.60458
1.61333
1.6231
1.63451
1.64689
1.66011
1.67398
1.68917
1.70568
1.72365
1.74317
1.76443
1.78758
1.81284
1.84043
1.87063
278.542
325.121
371.368
415.559
454.45
482.774
494.013
483.152
449.567
397.51
334.168
267.258
203.409
146.774
103.434
73.4599
52.8301
38.6231
28.7918
21.9377
16.9625
13.6418
11.5671
10.2446
9.43697
9.06665
9.20942
10.0966
12.7024
19.9894
43.2327
137.295
655.82
4100.14
2.80159
3.50136
5.08534
8.63733
16.1456
29.6893
51.1067
81.775
122.494
173.664
236.209
292.382
2.38014
2.10721
1.92581
1.80428
1.72249
1.66791
1.63223
1.60989
1.59756
1.59225
1.59096
1.59292
1.59802
1.6046
1.61333
1.62311
1.63452
1.64643
1.65917
1.67308
1.6883
1.70486
1.72288
1.74247
1.76382
1.78707
1.81245
1.84018
1.87054
343.806
394.513
444.686
492.254
532.781
559.338
564.345
543.391
497.925
434.314
360.971
286.006
214.339
153.088
108.06
76.8549
55.3358
40.4892
30.1965
23.0055
17.7685
14.261
12.0623
10.6538
9.78437
9.36868
9.47822
10.3418
12.9088
20.1629
43.4801
139.938
679.931
4238.17
2.67731
3.30427
4.66566
7.75194
14.461
27.0112
47.3313
76.8784
116.406
166.107
226.033
297.46
359.354
2.30095
2.0572
1.89392
1.78395
1.70965
1.65998
1.6275
1.60726
1.59643
1.59211
1.59088
1.59279
1.59802
1.6046
1.61333
1.62315
1.63403
1.64546
1.65821
1.67216
1.6874
1.70401
1.72209
1.74176
1.76319
1.78654
1.81204
1.83992
1.87045
415.355
470.316
524.861
576.147
617.846
640.965
637.333
604.153
545.579
470.004
386.707
301.555
223.682
160.06
113.179
80.6188
58.1174
42.563
31.7591
24.1948
18.6678
14.9538
12.6178
11.1137
10.1754
9.70914
9.78125
10.6213
13.1962
20.4281
43.8681
143.067
706.282
4375.46
2.56465
3.12481
4.28774
6.93543
12.8485
24.3634
43.5332
71.942
110.366
158.833
217.052
284.998
364.808
432.071
2.23066
2.01254
1.86536
1.76572
1.69815
1.65288
1.62329
1.60501
1.59582
1.59186
1.59056
1.59284
1.59803
1.60459
1.61339
1.62268
1.63303
1.64449
1.65723
1.67121
1.68649
1.70315
1.72129
1.74103
1.76255
1.786
1.81163
1.83966
1.87036
492.878
552.698
612.48
667.94
709.968
727.237
712.076
664.586
591.958
504.26
407.993
314.814
233.975
167.76
118.846
84.7929
61.2067
44.8687
33.498
25.5196
19.6714
15.7287
13.2407
11.6305
10.6154
10.0935
10.1235
10.9989
13.5843
20.7718
44.3967
146.826
735.087
4510.42
2.46476
2.96474
3.95312
6.19397
11.3262
21.7639
39.7136
66.9303
104.28
151.701
208.58
274.413
349.462
437.395
510.082
2.16827
1.97266
1.83979
1.74938
1.68783
1.64651
1.61959
1.60353
1.59527
1.59148
1.59059
1.59284
1.59803
1.60467
1.61293
1.62171
1.63202
1.64349
1.65623
1.67024
1.68555
1.70226
1.72047
1.74028
1.76189
1.78546
1.81122
1.83942
1.87027
576.514
642.43
708.779
768.797
809.467
817.554
787.638
723.943
636.609
532.566
426.109
329.38
245.305
176.259
125.117
89.422
64.6384
47.4326
35.4331
26.9951
20.7907
16.5948
13.9387
12.2107
11.1109
10.5267
10.5826
11.4903
14.0314
21.1996
45.1206
151.246
766.572
4641.71
2.37644
2.82307
3.66743
5.5364
9.9132
19.2361
35.8848
61.8249
98.0792
144.569
200.44
264.696
336.991
418.286
514.674
593.482
2.11282
1.93705
1.81691
1.73474
1.67856
1.64087
1.61695
1.60245
1.59475
1.59153
1.5906
1.5928
1.5982
1.60426
1.61195
1.62074
1.63098
1.64248
1.6552
1.66925
1.6846
1.70135
1.71962
1.73951
1.76122
1.78491
1.81082
1.83918
1.87019
667.192
741.249
816.007
880.351
916.686
911.224
863.21
781.621
673.604
556.636
445.962
345.362
257.766
185.633
132.053
94.5543
68.4497
50.2833
37.5861
28.6377
22.038
17.5619
14.7195
12.8614
11.6671
11.1058
11.1725
12.0335
14.5426
21.7348
46.0522
156.505
801.121
4767.35
2.29851
2.69679
3.43223
4.97594
8.64079
16.8071
32.0695
56.6205
91.7142
137.33
192.434
255.632
325.915
403.52
490.513
596.696
683.344
2.06352
1.90527
1.79644
1.72157
1.67032
1.63668
1.61519
1.60172
1.59483
1.59153
1.59058
1.59295
1.5979
1.60337
1.61099
1.61976
1.62993
1.64144
1.65416
1.66823
1.68362
1.70042
1.71876
1.73873
1.76055
1.78439
1.81043
1.83894
1.8701
767.067
852.531
937.616
1004.97
1031.87
1008.01
938.153
829.869
705.123
582.991
467.682
362.867
271.448
195.958
139.717
100.24
72.6799
53.451
39.9799
30.4646
23.426
18.6396
15.5911
13.5883
12.4067
11.8417
11.8139
12.6302
15.1277
22.3879
47.2679
162.685
838.941
4886.18
2.22978
2.58431
3.23428
4.50961
7.53804
14.5204
28.3001
51.3242
85.1451
129.891
184.412
246.953
315.971
390.88
472.914
565.649
684.721
782.459
2.01967
1.87692
1.77806
1.70986
1.66403
1.63402
1.61423
1.60184
1.59484
1.5915
1.59092
1.59267
1.59714
1.60254
1.61001
1.61877
1.62886
1.64038
1.6531
1.66718
1.68262
1.69946
1.71788
1.73795
1.7599
1.78388
1.81006
1.83872
1.87002
880.609
981.961
1079.37
1144.89
1157.5
1107.83
1002.17
871.26
739.722
611.801
491.397
381.996
286.437
207.31
148.172
106.531
77.3699
56.9673
42.6384
32.4935
24.9676
19.8377
16.5602
14.5496
13.3374
12.63
12.5058
13.2838
15.7922
23.1895
48.8016
170.036
880.612
4995.94
2.16914
2.48453
3.06432
4.12486
6.61033
12.4697
24.6444
45.9589
78.3436
122.164
176.232
238.466
306.807
380.037
458.407
544.591
644.07
782.25
896.646
1.98068
1.85156
1.7617
1.70077
1.66012
1.63276
1.6144
1.60185
1.59478
1.59191
1.59102
1.59201
1.59644
1.60175
1.60902
1.61777
1.62778
1.63929
1.65202
1.66611
1.6816
1.69849
1.717
1.73721
1.75927
1.78339
1.80969
1.8385
1.86994
1015.85
1140.07
1247.06
1311.73
1296.21
1196.17
1057.89
917.076
777.675
643.24
517.222
402.842
302.814
219.758
157.479
113.477
82.5609
60.8643
45.5858
34.7422
26.6759
21.1644
17.8352
15.7477
14.3223
13.4654
13.2459
13.9918
16.546
24.1541
50.7624
178.709
926.416
5096.21
2.11559
2.39647
2.91581
3.80849
5.84004
10.698
21.2463
40.6026
71.2978
114.063
167.745
229.976
298.183
370.526
446.567
527.826
618.903
727.833
896.686
1038.42
1.9459
1.82903
1.7488
1.69524
1.65847
1.63301
1.61442
1.60175
1.59533
1.59218
1.59092
1.59154
1.59574
1.60097
1.60801
1.61675
1.62669
1.63817
1.65092
1.66502
1.68056
1.69753
1.71616
1.73648
1.75866
1.78291
1.80933
1.83828
1.86987
1188.62
1340.66
1477.56
1516.89
1424.55
1274.69
1120.61
967.873
819.305
677.49
545.272
425.485
320.645
233.364
167.693
121.128
88.2922
65.173
48.8457
37.228
28.5622
22.9026
19.4119
17.0033
15.3527
14.3414
14.0302
14.7546
17.3924
25.318
53.2076
189.101
976.989
5184.38
2.06811
2.31911
2.78434
3.55107
5.20697
9.19652
18.1973
35.4574
64.0682
105.511
158.794
221.276
289.852
362.054
436.781
514.815
599.446
697.818
822.621
1045.67
1232.36
1.91505
1.81108
1.74104
1.69316
1.65881
1.63303
1.61427
1.60252
1.59591
1.59234
1.59109
1.5912
1.59501
1.60022
1.607
1.61571
1.62559
1.63703
1.6498
1.66391
1.67953
1.69661
1.71533
1.73578
1.75807
1.78244
1.80899
1.83808
1.86979
1435.28
1673.34
1799.58
1713.06
1540.96
1365.09
1191.66
1024.46
865.033
714.771
575.657
449.99
339.981
248.177
178.862
129.524
94.5997
69.9222
52.44
39.9663
31.0262
25.0399
21.0525
18.3045
16.4186
15.2504
14.8541
15.5731
18.342
26.6998
56.2804
201.435
1033.2
5261.99
2.02616
2.25113
2.66739
3.33941
4.68934
7.94201
15.5033
30.6799
56.8977
96.5115
149.213
212.132
281.559
354.326
428.683
504.75
584.997
675.241
786.458
941.683
1276.81
1550.72
1.89018
1.8005
1.73838
1.69362
1.65884
1.63281
1.61528
1.60365
1.59655
1.59285
1.5913
1.59102
1.59428
1.5995
1.60601
1.61465
1.62448
1.63586
1.64867
1.66281
1.67853
1.69571
1.71454
1.7351
1.75749
1.782
1.80865
1.83788
1.86972
1911.22
2165.63
2102.52
1892
1678.42
1470.59
1273.38
1088.08
915.491
755.373
608.5
476.406
360.852
264.225
191.017
138.699
101.512
75.1357
56.3862
43.5336
34.0428
27.2527
22.7414
19.6382
17.5096
16.185
15.7126
16.4497
19.4012
28.3442
60.0529
216.306
1094.66
5326.08
1.99213
2.19175
2.5634
3.16108
4.26903
6.90382
13.167
26.3131
50.0058
87.302
138.905
202.281
273.007
347.047
421.925
497.153
574.582
658.973
760.435
897.076
1118.86
1740.48
2238.88
1.87562
1.7972
1.73899
1.69365
1.65854
1.63413
1.61711
1.60518
1.59772
1.59349
1.59149
1.59096
1.59356
1.59878
1.60504
1.61356
1.62338
1.63468
1.64756
1.66176
1.67757
1.69485
1.71376
1.73444
1.75693
1.78156
1.80832
1.83768
1.86968
2617.38
2657.12
2397.29
2119.73
1847.76