/*--------------------------------*- C++ -*----------------------------------*\
  =========                 |
  \\      /  F ield         | OpenFOAM: The Open Source CFD Toolbox
   \\    /   O peration     | Website:  https://openfoam.org
    \\  /    A nd           | Version:  8
     \\/     M anipulation  |
\*---------------------------------------------------------------------------*/
FoamFile
{
    version     2.0;
    format      ascii;
    class       volScalarField;
    location    "1200";
    object      nut;
}
// * * * * * * * * * * * * * * * * * * * * * * * * * * * * * * * * * * * * * //

dimensions      [0 2 -1 0 0 0 0];

internalField   nonuniform List<scalar> 
15677
(
7.4799e-05
0.000154173
8.20041e-05
0.000258015
0.000137613
8.01543e-05
0.000722414
0.000177813
0.000111478
7.67031e-05
0.001806
0.000374857
0.000147542
0.000108618
7.42831e-05
0.00331824
0.000873539
0.000310311
0.000125445
0.000111444
7.26884e-05
0.00477633
0.00171997
0.000665337
0.000257529
0.000122942
0.000117692
7.16946e-05
0.00581853
0.0028408
0.00126586
0.000566592
0.000234007
0.000123111
0.000124307
7.09831e-05
0.00636649
0.00405888
0.00211286
0.00106483
0.000504621
0.000212546
0.000127189
0.000129307
7.05148e-05
0.00658967
0.00517054
0.00314437
0.00176642
0.000947033
0.000461331
0.000205292
0.000135476
0.000134148
7.01318e-05
0.00667776
0.00598075
0.00423158
0.00264946
0.00156233
0.000868277
0.00042793
0.000196465
0.000145054
0.000136566
6.98667e-05
0.00671613
0.0064139
0.00521227
0.00364239
0.00234414
0.00142903
0.000808024
0.000401385
0.000192042
0.000153615
0.000139297
6.97085e-05
0.0067148
0.00659629
0.00595677
0.00462944
0.00325097
0.00214045
0.00133239
0.000758935
0.000377244
0.000192635
0.000161902
0.000141447
6.96525e-05
0.00670856
0.00668363
0.0063945
0.00548089
0.00420154
0.00297777
0.0019944
0.00125725
0.00071758
0.000357895
0.000195339
0.000169055
0.000143104
6.96757e-05
0.00670619
0.00670345
0.00659104
0.00609894
0.00508662
0.00388319
0.00277791
0.00188372
0.0011952
0.000682844
0.000340012
0.000199109
0.0001757
0.000144322
6.97609e-05
0.00670579
0.00670345
0.00667464
0.00645428
0.00580031
0.00476801
0.0036408
0.00262597
0.0017953
0.00114379
0.000648773
0.000327919
0.000204185
0.000180898
0.000145295
6.99377e-05
0.00670585
0.0067018
0.00669493
0.0066194
0.00628304
0.00553152
0.00451141
0.00345209
0.00250589
0.00172369
0.00109824
0.000620225
0.000319382
0.000209101
0.000185776
0.000145951
7.02095e-05
0.00670592
0.00670104
0.00669782
0.00667434
0.00654082
0.0060962
0.00529891
0.00430368
0.00330154
0.0024095
0.00166314
0.00105818
0.000595019
0.000313824
0.000214443
0.000189216
0.00014642
7.05625e-05
0.00670595
0.00670084
0.00669742
0.00668929
0.00664238
0.00643977
0.00592072
0.00510033
0.00413374
0.00317987
0.00233005
0.00161194
0.00102237
0.000575218
0.000310549
0.00021888
0.000192829
0.000146599
7.09963e-05
0.00670595
0.00670081
0.00669693
0.0066924
0.00667631
0.00659541
0.00633607
0.00576014
0.00493145
0.00399373
0.00308012
0.00226433
0.0015673
0.000992451
0.000558749
0.000308822
0.000223524
0.00019501
0.000146536
7.15091e-05
0.00670595
0.00670081
0.00669671
0.0066926
0.00668625
0.00665566
0.00654061
0.00622984
0.00561606
0.00478808
0.0038778
0.00299798
0.00220937
0.00153021
0.000966319
0.000545769
0.000308459
0.000227334
0.000196986
0.000146344
7.20981e-05
0.00670595
0.0067008
0.00669664
0.00669237
0.00668855
0.00667678
0.00662907
0.00648047
0.00612744
0.00548871
0.00466678
0.0037816
0.00293015
0.00216372
0.00149815
0.000945522
0.000535929
0.000309097
0.000231076
0.00019821
0.00014595
7.27584e-05
0.00670594
0.00670079
0.00669662
0.00669219
0.00668884
0.00668313
0.00666435
0.0065977
0.00641802
0.00603231
0.00537741
0.00456433
0.0037021
0.0028754
0.00212574
0.0014731
0.000928084
0.000529921
0.000310641
0.000234169
0.000199321
0.000145375
7.34858e-05
0.00670594
0.00670078
0.00669661
0.00669209
0.00668875
0.00668463
0.00667691
0.00664871
0.00656299
0.00635681
0.00594536
0.00528101
0.00447884
0.00363718
0.00282984
0.00209672
0.00145226
0.000916026
0.000525844
0.000312717
0.000237212
0.000200062
0.000144655
7.42722e-05
0.00670593
0.00670078
0.00669659
0.00669203
0.00668865
0.00668477
0.00668082
0.00666878
0.00663082
0.00652725
0.0062978
0.00586785
0.00519918
0.00440816
0.00358552
0.00279529
0.00207367
0.00143846
0.000907113
0.000524952
0.000315658
0.000238995
0.000200311
0.000143794
7.51135e-05
0.00670592
0.00670079
0.00669658
0.006692
0.00668858
0.00668465
0.00668179
0.00667581
0.00665988
0.00661141
0.00649104
0.00624408
0.00580013
0.00513012
0.00435138
0.00354505
0.0027695
0.00205946
0.00142878
0.000903392
0.000525284
0.000319086
0.000241209
0.000200297
0.000142834
7.59997e-05
0.00670591
0.0067008
0.00669656
0.00669198
0.00668853
0.00668453
0.00668191
0.0066779
0.00667122
0.00664957
0.00659126
0.00645768
0.00619482
0.00574191
0.00507493
0.00430814
0.00351573
0.00275357
0.00204984
0.00142473
0.000903024
0.000529139
0.000322158
0.0002433
0.000200047
0.000141764
7.69272e-05
0.0067059
0.0067008
0.00669654
0.00669198
0.00668848
0.00668444
0.00668182
0.00667833
0.00667517
0.00666542
0.00663937
0.00657227
0.00642522
0.00615363
0.00569595
0.00503136
0.00427506
0.00349661
0.00274475
0.0020505
0.00142753
0.000906194
0.000533601
0.000326107
0.000244821
0.000199538
0.00014063
7.78837e-05
0.00670589
0.00670082
0.00669652
0.00669198
0.00668844
0.00668438
0.00668172
0.00667829
0.00667631
0.00667136
0.00666069
0.00662916
0.00655372
0.00640046
0.00611751
0.00565605
0.00500003
0.00425823
0.0034921
0.00275024
0.002057
0.00143374
0.000912446
0.000539567
0.000330232
0.000246167
0.000198879
0.000139421
7.88681e-05
0.00670589
0.00670083
0.00669651
0.00669198
0.0066884
0.00668434
0.00668163
0.00667817
0.00667649
0.00667328
0.00666935
0.00665536
0.00662041
0.00654022
0.00637518
0.00609162
0.00563748
0.00498809
0.00425407
0.00349578
0.00275795
0.00206799
0.00144403
0.00092234
0.000547589
0.00033495
0.0002473
0.000198007
0.000138175
7.98611e-05
0.00670588
0.00670084
0.00669649
0.00669199
0.00668837
0.00668432
0.00668155
0.00667805
0.00667642
0.00667368
0.00667248
0.00666652
0.00665251
0.00661383
0.00652675
0.00636279
0.00608274
0.0056259
0.00498174
0.00425623
0.00350682
0.00277315
0.00208509
0.00146036
0.000935163
0.000557227
0.00033996
0.000248327
0.000197061
0.000136923
8.09751e-05
0.00670587
0.00670085
0.00669647
0.006692
0.00668833
0.00668431
0.00668148
0.00667797
0.00667629
0.00667364
0.00667335
0.00667077
0.00666684
0.00665028
0.00661041
0.00652455
0.00636008
0.00607647
0.00562199
0.00498483
0.00427007
0.00352896
0.00280008
0.00211034
0.00148121
0.000951189
0.000568327
0.000345311
0.000249176
0.00019593
0.000135579
8.22118e-05
0.00670586
0.00670086
0.00669646
0.00669201
0.0066883
0.00668431
0.00668141
0.00667791
0.00667616
0.0066735
0.00667347
0.00667205
0.00667268
0.00666714
0.00665281
0.00661415
0.00652685
0.00636227
0.00607835
0.00563207
0.00500572
0.00429916
0.00356295
0.00283569
0.00214257
0.00150715
0.000969774
0.000580823
0.000350897
0.000249976
0.000194677
0.000134119
8.3435e-05
0.00670586
0.00670087
0.00669645
0.00669202
0.00668827
0.00668432
0.00668134
0.00667787
0.00667604
0.00667335
0.00667336
0.00667227
0.00667465
0.00667425
0.00667292
0.00666141
0.00662095
0.00653568
0.00637232
0.00609758
0.00565937
0.00504072
0.00434096
0.00360784
0.00287894
0.00218168
0.00153687
0.000991224
0.000594717
0.000356997
0.000250748
0.000193019
0.000132713
8.46375e-05
0.00670585
0.00670087
0.00669643
0.00669203
0.00668824
0.00668432
0.00668128
0.00667785
0.00667592
0.00667323
0.00667319
0.00667216
0.00667515
0.00667675
0.00668184
0.00668468
0.00667097
0.0066349
0.00655442
0.00639852
0.00613158
0.00570152
0.00509056
0.00439557
0.00366332
0.00293106
0.00222606
0.00157176
0.00101505
0.000609751
0.000364198
0.000251714
0.000191317
0.000131364
8.58107e-05
0.00670088
0.00670585
0.00669642
0.00669204
0.00668821
0.00668433
0.00668122
0.00667784
0.0066758
0.00667314
0.00667301
0.00667196
0.00667514
0.00667741
0.00668522
0.00669541
0.00669597
0.00668842
0.00666095
0.0065868
0.00643932
0.00618112
0.00576007
0.00515515
0.00446341
0.00372973
0.00299135
0.00227674
0.00161087
0.00104158
0.000627369
0.000373018
0.000252847
0.000189479
0.000130066
8.69474e-05
0.00669641
0.0067009
0.00670585
0.00669205
0.00668819
0.00668434
0.00668117
0.00667783
0.00667569
0.00667308
0.00667283
0.00667177
0.00667497
0.00667742
0.00668631
0.00669971
0.00670775
0.00671571
0.00671973
0.0066984
0.00663384
0.00649598
0.00624819
0.0058352
0.00523564
0.00454447
0.00380665
0.00306008
0.00233328
0.00165373
0.00107355
0.000648296
0.000382104
0.000254004
0.000187682
0.000128852
8.80437e-05
0.00669206
0.00669643
0.00670095
0.00670585
0.00668817
0.00668435
0.00668112
0.00667784
0.00667559
0.00667305
0.00667265
0.00667161
0.00667476
0.00667722
0.00668653
0.00670122
0.00671269
0.00672895
0.00675057
0.00676112
0.00675083
0.00669729
0.0065711
0.00633337
0.00592851
0.00533153
0.00463883
0.00389456
0.0031366
0.00239566
0.00170542
0.00111262
0.000670329
0.000391576
0.000255332
0.000185815
0.000127686
8.90946e-05
0.00668815
0.0066921
0.00669646
0.00670099
0.00670585
0.00668436
0.00668108
0.00667784
0.00667549
0.00667303
0.00667248
0.00667149
0.00667453
0.00667697
0.00668644
0.00670164
0.00671457
0.0067348
0.00676621
0.00679501
0.00681789
0.00681961
0.00677986
0.00666637
0.00643961
0.00604008
0.00544417
0.00474674
0.0039924
0.00322114
0.00247086
0.00176835
0.00115393
0.000693225
0.000401676
0.000256713
0.000184052
0.000126545
9.00984e-05
0.00668437
0.00668817
0.00669218
0.0066965
0.00670103
0.00670585
0.00668104
0.00667785
0.0066754
0.00667303
0.0066723
0.00667141
0.00667429
0.00667672
0.00668625
0.00670165
0.00671523
0.00673729
0.00677363
0.00681273
0.00685503
0.00689107
0.00690835
0.00688258
0.00678284
0.0065666
0.00617239
0.00557349
0.0048676
0.00410113
0.00332323
0.00256192
0.00183578
0.00119851
0.000717203
0.000412012
0.000258232
0.000182384
0.000125462
9.10527e-05
0.00668101
0.00668443
0.00668823
0.00669226
0.00669653
0.00670107
0.00670586
0.00667786
0.00667532
0.00667303
0.00667214
0.00667136
0.00667405
0.0066765
0.00668602
0.00670149
0.00671539
0.00673837
0.00677717
0.0068218
0.0068759
0.0069324
0.00698494
0.00701651
0.00700675
0.00692057
0.00671479
0.00632319
0.00572111
0.00500245
0.00423202
0.00344679
0.00265963
0.00190731
0.00124543
0.000741733
0.000422722
0.000259799
0.000180842
0.000124429
9.19577e-05
0.00667787
0.00668102
0.00668454
0.00668829
0.00669234
0.00669658
0.00670111
0.00670586
0.00667525
0.00667304
0.00667198
0.00667135
0.0066738
0.00667634
0.00668579
0.00670128
0.00671536
0.00673885
0.00677901
0.00682671
0.00688769
0.00695727
0.00703264
0.00710214
0.00715147
0.00715434
0.0070789
0.0068818
0.006492
0.00588381
0.00516845
0.00439325
0.0035807
0.00276362
0.00198263
0.00129364
0.000767008
0.000433516
0.000261476
0.000179386
0.000123466
9.28128e-05
0.00667519
0.00667794
0.00668108
0.00668465
0.00668835
0.00669242
0.00669662
0.00670116
0.00670587
0.00667305
0.00667183
0.00667136
0.00667354
0.00667623
0.00668556
0.00670107
0.00671526
0.00673908
0.00678009
0.00682967
0.00689478
0.00697233
0.00706292
0.00715678
0.00724688
0.00731281
0.00733139
0.00726345
0.00706752
0.00667662
0.00607984
0.00536903
0.00456797
0.00372306
0.00287326
0.00206089
0.00134343
0.000792517
0.000444565
0.000263185
0.000178045
0.000122561
9.36194e-05
0.00667306
0.00667517
0.00667806
0.00668114
0.00668476
0.00668842
0.0066925
0.00669667
0.0067012
0.00670588
0.0066717
0.00667138
0.00667328
0.00667619
0.00668533
0.00670086
0.00671512
0.00673919
0.00678079
0.00683174
0.00689961
0.00698229
0.00708315
0.00719393
0.00731104
0.00741981
0.00750453
0.00753531
0.00747603
0.00727859
0.00689792
0.0063124
0.00558169
0.00475178
0.00387258
0.00298722
0.00214165
0.00139423
0.000818549
0.000455553
0.000264964
0.000176782
0.000121726
9.43779e-05
0.00667158
0.00667312
0.00667519
0.00667819
0.00668122
0.00668487
0.0066885
0.00669259
0.00669672
0.00670124
0.00670588
0.00667141
0.00667303
0.00667621
0.00668508
0.00670067
0.00671499
0.00673925
0.0067813
0.00683336
0.00690328
0.00698975
0.00709789
0.00722075
0.00735804
0.00749607
0.00762674
0.00772635
0.00776883
0.00771415
0.00754034
0.00717428
0.00656001
0.00580216
0.00494163
0.00402646
0.00310452
0.00222412
0.00144591
0.000844473
0.000466687
0.000266826
0.000175634
0.000120948
9.50905e-05
0.00667144
0.00667147
0.00667324
0.00667522
0.00667832
0.0066813
0.00668498
0.00668858
0.00669267
0.00669677
0.00670127
0.00670589
0.00667278
0.00667628
0.0066848
0.00670049
0.00671486
0.00673928
0.0067817
0.00683471
0.00690627
0.00699589
0.0071097
0.00724158
0.0073949
0.00755584
0.00771922
0.00786735
0.0079822
0.00803228
0.00800772
0.00786197
0.00747739
0.00682791
0.00602902
0.0051341
0.00418315
0.00322376
0.00230779
0.00149793
0.00087075
0.000477424
0.00026882
0.000174567
0.000120235
9.57583e-05
0.00667256
0.00667148
0.00667135
0.00667336
0.00667527
0.00667845
0.00668139
0.00668509
0.00668867
0.00669275
0.00669683
0.00670131
0.00670591
0.00667639
0.00668447
0.00670035
0.00671476
0.00673931
0.00678205
0.00683589
0.00690882
0.00700122
0.00711975
0.00725913
0.00742557
0.00760563
0.00779647
0.00798031
0.00814749
0.00827274
0.00835937
0.00837154
0.00821293
0.00780033
0.00711225
0.0062676
0.00532765
0.00434011
0.0033435
0.00239174
0.00155012
0.00089668
0.000487828
0.000270794
0.000173598
0.000119575
9.63838e-05
0.00667653
0.00667219
0.00667152
0.00667125
0.00667348
0.00667533
0.00667858
0.00668149
0.0066852
0.00668876
0.00669283
0.00669689
0.00670135
0.00670592
0.0066841
0.00670025
0.00671469
0.00673936
0.00678236
0.00683693
0.00691106
0.00700598
0.00712857
0.0072747
0.00745253
0.0076486
0.00786468
0.00808039
0.00828752
0.00846793
0.00863659
0.00876859
0.00877187
0.0085901
0.00814044
0.00740664
0.00651491
0.00552453
0.0044957
0.00346261
0.00247559
0.00160205
0.000922871
0.000497931
0.000272846
0.000172705
0.000118974
9.69683e-05
0.00668369
0.00667654
0.00667165
0.00667158
0.00667117
0.00667359
0.0066754
0.0066787
0.00668161
0.00668531
0.00668886
0.00669291
0.00669696
0.00670139
0.00670593
0.00670023
0.00671466
0.00673943
0.00678266
0.00683786
0.00691305
0.00701027
0.00713644
0.00728886
0.00747687
0.0076872
0.0079264
0.00817317
0.00841782
0.00864167
0.00887368
0.00909741
0.00922399
0.00920642
0.00899083
0.00849501
0.00770884
0.00676662
0.00572509
0.0046503
0.00358074
0.00255857
0.00165347
0.000948946
0.000507728
0.000274874
0.000171897
0.000118418
9.75147e-05
0.00670032
0.00668254
0.00667646
0.00667112
0.00667162
0.00667112
0.00667369
0.0066755
0.00667881
0.00668173
0.00668542
0.00668897
0.00669298
0.00669702
0.00670142
0.00670594
0.00671467
0.00673951
0.00678292
0.00683869
0.00691485
0.00701416
0.00714354
0.00730187
0.00749903
0.0077228
0.0079839
0.00825925
0.0085427
0.00881108
0.00909706
0.0093954
0.00961754
0.00972536
0.00967433
0.00941352
0.00886182
0.0080167
0.00701981
0.00592691
0.00480213
0.00369615
0.0026401
0.00170416
0.000974518
0.000517226
0.000276816
0.000171147
0.000117914
9.80242e-05
0.0067147
0.00669989
0.00668046
0.00667642
0.00667063
0.00667165
0.00667111
0.00667378
0.00667563
0.00667893
0.00668187
0.00668552
0.00668908
0.00669306
0.00669708
0.00670146
0.00670595
0.0067396
0.00678316
0.00683944
0.00691648
0.00701769
0.00714998
0.00731386
0.0075193
0.00775608
0.00803801
0.00833991
0.00866159
0.00898142
0.00932637
0.00969172
0.0099947
0.0102025
0.0102773
0.0101779
0.00985811
0.00923946
0.00832846
0.00727306
0.00612866
0.00495347
0.00380864
0.0027198
0.00175382
0.000999626
0.000526415
0.000278752
0.000170472
0.00011745
9.84997e-05
0.00673973
0.00671366
0.00669904
0.00667838
0.00667634
0.00667023
0.00667164
0.00667115
0.00667385
0.00667577
0.00667903
0.00668202
0.00668563
0.00668919
0.00669314
0.00669714
0.00670149
0.00670597
0.00678334
0.00684012
0.00691797
0.00702089
0.00715586
0.00732488
0.00753788
0.00778732
0.00808873
0.00841601
0.00877686
0.00915083
0.00956382
0.0100081
0.0103928
0.0106931
0.0108709
0.0108917
0.0107224
0.0103259
0.00962725
0.00864284
0.0075253
0.00632775
0.00510351
0.00391812
0.00279735
0.0018023
0.00102417
0.000535297
0.000280654
0.000169847
0.000117029
9.89425e-05
0.00678351
0.00673794
0.00671141
0.00669817
0.00667667
0.00667611
0.00666997
0.00667157
0.00667125
0.00667391
0.00667594
0.00667914
0.00668217
0.00668574
0.0066893
0.00669321
0.0066972
0.00670152
0.00670598
0.00684072
0.00691933
0.0070238
0.00716123
0.00733499
0.00755495
0.00781658
0.00813602
0.00848835
0.0088899
0.00931849
0.00979891
0.0103489
0.0108528
0.0112603
0.0115371
0.0116507
0.011582
0.0113133
0.0108182
0.0100247
0.00895881
0.00777549
0.00652327
0.0052512
0.00402447
0.00287258
0.00184938
0.00104806
0.000543866
0.000282494
0.000169281
0.000116641
9.93552e-05
0.0068413
0.00678046
0.00673406
0.00670909
0.0066969
0.0066755
0.00667568
0.00666985
0.00667144
0.00667139
0.00667395
0.00667612
0.00667925
0.00668233
0.00668584
0.0066894
0.00669329
0.00669726
0.00670155
0.00670599
0.00692056
0.00702645
0.00716614
0.00734423
0.00757064
0.00784387
0.00817995
0.00855752
0.00900022
0.00948166
0.0100301
0.0107157
0.011409
0.0119841
0.0123721
0.012565
0.0125573
0.0123532
0.0119512
0.0113344
0.0104309
0.00927541
0.0080228
0.00671469
0.00539574
0.00412746
0.00294524
0.00189499
0.00107124
0.00055212
0.000284282
0.00016876
0.000116291
9.9688e-05
0.00692175
0.00683732
0.00677391
0.00673019
0.0067068
0.0066951
0.00667483
0.00667503
0.00666987
0.00667126
0.00667157
0.006674
0.00667631
0.00667936
0.00668247
0.00668595
0.0066895
0.00669336
0.00669731
0.00670159
0.006706
0.00702885
0.00717062
0.00735267
0.00758505
0.00786916
0.00822072
0.00862366
0.00910625
0.00963828
0.0102635
0.0111278
0.0120734
0.0129078
0.0134651
0.0137333
0.0137617
0.0135739
0.0131931
0.012629
0.0118706
0.0108438
0.00959148
0.00826645
0.00690155
0.00553656
0.00422711
0.00301541
0.00193901
0.00109366
0.000560053
0.000285997
0.000168293
0.000116011
9.99674e-05
0.00703109
0.00691624
0.00682832
0.00676724
0.00672653
0.00670451
0.00669291
0.0066746
0.0066742
0.00667001
0.00667106
0.00667178
0.00667405
0.0066765
0.00667948
0.00668261
0.00668605
0.0066896
0.00669343
0.00669737
0.00670162
0.00670601
0.00717468
0.00736035
0.00759828
0.00789249
0.00825855
0.00868656
0.00920654
0.00978884
0.0105085
0.0115969
0.0128365
0.0139664
0.0147796
0.0151836
0.0152437
0.0150542
0.0146537
0.0140744
0.0133321
0.0124197
0.0112604
0.00990564
0.00850571
0.00708345
0.00567317
0.00432287
0.00308256
0.00198132
0.00111526
0.000567671
0.000287656
0.000167915
0.000115782
0.00010027
0.00717845
0.00702366
0.00690326
0.00681945
0.00676081
0.0067231
0.00670229
0.00669016
0.00667472
0.00667326
0.00667023
0.00667086
0.006672
0.00667411
0.00667667
0.0066796
0.00668275
0.00668616
0.00668969
0.0066935
0.00669742
0.00670165
0.00670602
0.00736729
0.00761037
0.00791391
0.00829361
0.00874579
0.00930044
0.00993567
0.0107708
0.012114
0.0136507
0.0150551
0.0161177
0.0167496
0.016931
0.0167599
0.0163485
0.015738
0.0149627
0.0140421
0.0129727
0.0116768
0.0102162
0.00873983
0.00726003
0.00580541
0.00441576
0.00314676
0.0020219
0.00113603
0.000574963
0.000289028
0.000167606
0.000115535
0.000100598
0.00737363
0.00716847
0.00700526
0.00689032
0.00681088
0.00675471
0.00671988
0.00670071
0.00668707
0.00667504
0.0066723
0.00667045
0.00667071
0.00667219
0.0066742
0.00667684
0.00667973
0.00668287
0.00668627
0.00668978
0.00669357
0.00669747
0.00670168
0.00670602
0.00762137
0.00793349
0.00832602
0.00880103
0.00938817
0.0100811
0.0110492
0.0126542
0.0144534
0.0160719
0.0173236
0.0181583
0.0185633
0.0185359
0.0181664
0.0175671
0.0167757
0.0158261
0.0147402
0.0135199
0.0120887
0.0105215
0.00896809
0.007431
0.00593256
0.00450546
0.0032081
0.00206071
0.00115595
0.00058102
0.000290213
0.000167271
0.000115275
0.000100953
0.00763136
0.00736069
0.00714263
0.00698684
0.00687777
0.00680259
0.00674892
0.00671679
0.00669952
0.00668389
0.0066754
0.00667142
0.00667064
0.00667061
0.00667235
0.00667431
0.00667698
0.00667986
0.00668299
0.00668637
0.00668986
0.00669364
0.00669751
0.00670169
0.00670602
0.00795132
0.00835584
0.00885212
0.00947041
0.0102264
0.0113366
0.0131884
0.0151935
0.0169511
0.0183164
0.0192859
0.0198792
0.0200935
0.0199123
0.0194004
0.0186628
0.0177321
0.0166401
0.015411
0.0140524
0.0124919
0.0108198
0.00918978
0.00759606
0.00605457
0.00459179
0.00326662
0.00209776
0.00117248
0.0005862
0.000291513
0.000166918
0.000114995
0.000101338
0.00796733
0.00761462
0.00732503
0.00711676
0.0069689
0.00686556
0.0067945
0.00674329
0.0067139
0.00669848
0.00668086
0.00667564
0.00667071
0.00667074
0.0066706
0.00667249
0.00667444
0.00667711
0.00668
0.0066831
0.00668648
0.00668994
0.00669371
0.00669754
0.00670169
0.00670602
0.00838315
0.00889909
0.00954795
0.0103709
0.0116231
0.0136929
0.0158417
0.0176686
0.0190781
0.0201123
0.0208236
0.0212308
0.0213153
0.0210401
0.0204422
0.0196161
0.018589
0.0173894
0.0160429
0.0145628
0.0128827
0.0111093
0.00940431
0.00775498
0.00617146
0.00467461
0.00332238
0.0021284
0.00118663
0.000591929
0.000292967
0.000166537
0.000114703
0.000101754
0.00840765
0.00794623
0.00756577
0.00728929
0.00709153
0.00695142
0.00685366
0.00678653
0.00673795
0.00671118
0.00669746
0.00667822
0.00667561
0.00667025
0.00667075
0.00667065
0.00667259
0.00667459
0.00667724
0.00668013
0.0066832
0.00668658
0.00669002
0.00669374
0.00669754
0.00670169
0.00670602
0.00894215
0.00962136
0.010513
0.0118991
0.0141525
0.0163887
0.0182291
0.0196286
0.0206695
0.0214324
0.0219581
0.0222446
0.0222548
0.0219356
0.0212983
0.0204265
0.0193411
0.0180669
0.016629
0.015046
0.0132579
0.0113888
0.00961114
0.00790764
0.00628324
0.00475385
0.00336845
0.00215454
0.00120225
0.000598256
0.000294563
0.000166137
0.000114391
0.000102205
0.00898058
0.00838088
0.00788021
0.00751684
0.00725436
0.00706691
0.00693437
0.00684203
0.00677863
0.00673303
0.0067085
0.00669632
0.00667642
0.00667524
0.00667002
0.00667069
0.00667076
0.00667267
0.00667475
0.00667735
0.00668027
0.00668331
0.00668668
0.00669006
0.00669374
0.00669754
0.00670169
0.00670602
0.00969097
0.0106506
0.0121575
0.0145608
0.0168382
0.0186521
0.0200039
0.0210088
0.0217706
0.0223488
0.0227585
0.0229776
0.022956
0.0226293
0.0219879
0.0211039
0.0199918
0.0186712
0.0171662
0.0154987
0.0136153
0.0116571
0.00980988
0.00805395
0.00638994
0.00481955
0.00340773
0.00218333
0.00121953
0.000605288
0.000296359
0.000165708
0.000114067
0.000102691
0.00975462
0.0089472
0.00829167
0.00781399
0.00746895
0.00722022
0.00704289
0.00691773
0.00683064
0.00677077
0.00672838
0.00670576
0.00669441
0.00667548
0.00667459
0.00666998
0.00667057
0.0066709
0.00667274
0.00667491
0.00667746
0.00668041
0.00668341
0.00668674
0.00669005
0.00669374
0.00669754
0.00670169
0.00670602
0.0107816
0.0123982
0.0149173
0.0172005
0.0189617
0.020242
0.0211826
0.021905
0.0224844
0.0229511
0.0232975
0.0234875
0.0234636
0.0231549
0.0225344
0.0216632
0.0205488
0.0192053
0.0176541
0.0159194
0.0139534
0.0119134
0.0100002
0.00819394
0.00647839
0.00487565
0.00345095
0.00221506
0.00123867
0.000613078
0.000298333
0.00016526
0.000113723
0.000103218
0.0108995
0.00971247
0.00882564
0.00820245
0.00774905
0.00742213
0.00718688
0.00701945
0.0069015
0.00681953
0.00676306
0.00672391
0.00670307
0.00669189
0.00667517
0.00667379
0.00667005
0.00667043
0.00667106
0.0066728
0.00667508
0.00667756
0.00668054
0.00668345
0.00668674
0.00669005
0.00669374
0.00669754
0.00670169
0.00670602
0.012621
0.0152225
0.0174885
0.0191817
0.020377
0.021236
0.0218934
0.0224367
0.0229092
0.023317
0.0236367
0.0238237
0.0238174
0.0235437
0.0229613
0.0221205
0.0210223
0.0196743
0.0180945
0.0163079
0.0142716
0.0121572
0.0101821
0.00831007
0.00655388
0.00493751
0.0034986
0.00225012
0.0012599
0.000621788
0.000300573
0.000164781
0.000113372
0.000103785
0.010852
0.0128169
0.0095339
0.00870623
0.00811473
0.0076855
0.00737634
0.00715433
0.00699662
0.00688573
0.0068088
0.00675549
0.0067198
0.00670061
0.00668879
0.00667523
0.00667293
0.00667019
0.0066703
0.00667124
0.00667287
0.00667524
0.00667767
0.00668061
0.00668344
0.00668674
0.00669005
0.00669374
0.00669754
0.00670168
0.00670601
0.0154797
0.0177152
0.0193325
0.0204368
0.0212051
0.0217815
0.0222629
0.0227036
0.0231221
0.0235069
0.0238242
0.0240255
0.0240502
0.0238228
0.0232897
0.0224916
0.0214226
0.0200842
0.0184902
0.0166651
0.0145698
0.0123885
0.0103326
0.00840917
0.00663701
0.00500581
0.00355121
0.0022889
0.00128352
0.000631467
0.000303038
0.000164285
0.000113002
0.000104398
0.0105801
0.0127657
0.0156917
0.009363
0.00858963
0.00802866
0.00762333
0.0073316
0.0071226
0.00697442
0.00687046
0.00679861
0.00674828
0.00671614
0.00669911
0.00668562
0.00667544
0.00667212
0.00667033
0.00667019
0.00667141
0.00667294
0.0066754
0.00667771
0.00668062
0.00668344
0.00668674
0.00669005
0.00669374
0.00669751
0.00670165
0.006706
0.0178923
0.0194312
0.020443
0.0211172
0.0216039
0.0220067
0.0223886
0.0227796
0.0231798
0.0235653
0.0238964
0.024124
0.0241887
0.0240148
0.0235382
0.0227906
0.02176
0.0204416
0.0188447
0.0169925
0.0148483
0.0125783
0.0104607
0.00851826
0.00672867
0.00508136
0.00360943
0.0023319
0.00130983
0.000642378
0.000305862
0.000163761
0.000112632
0.000105058
0.010311
0.0123904
0.0156139
0.0180277
0.00920155
0.00847504
0.00794436
0.00756254
0.00728796
0.00709175
0.00695292
0.00685579
0.00678901
0.00674173
0.00671287
0.00669793
0.00668266
0.00667563
0.00667143
0.00667046
0.0066701
0.00667157
0.00667301
0.00667549
0.00667769
0.00668063
0.00668344
0.00668674
0.00669006
0.00669371
0.00669747
0.00670161
0.00670599
0.019491
0.0204123
0.0209924
0.0213857
0.0216999
0.0220046
0.0223397
0.0227168
0.0231223
0.0235243
0.0238805
0.0241427
0.0242539
0.0241382
0.0237223
0.02303
0.0220437
0.0207528
0.0191619
0.0172917
0.0150731
0.0127387
0.0106013
0.00863845
0.00682989
0.00516504
0.00367396
0.00237966
0.00133924
0.000654524
0.000308972
0.000163223
0.00011225
0.000105768
0.0100586
0.0119782
0.0152623
0.0179147
0.0195154
0.00904679
0.00836225
0.00786195
0.0075032
0.0072455
0.00706184
0.00693217
0.00684182
0.00678006
0.00673572
0.00671002
0.00669688
0.00668008
0.00667569
0.00667088
0.00667055
0.00667006
0.00667173
0.00667303
0.00667551
0.00667768
0.00668063
0.00668344
0.00668674
0.00669002
0.00669364
0.00669742
0.00670158
0.00670598
0.0203567
0.0208454
0.0211451
0.0213658
0.0215814
0.02184
0.0221642
0.0225514
0.0229782
0.0234073
0.0237966
0.0241002
0.0242628
0.0242081
0.0238549
0.0232204
0.0222819
0.0210237
0.0194452
0.017528
0.0152611
0.0129134
0.0107554
0.00877097
0.00694182
0.0052579
0.00374567
0.00243287
0.00137216
0.00066834
0.000312581
0.000162702
0.00011188
0.000106531
0.00982331
0.0115672
0.0148196
0.0176754
0.0193501
0.0202762
0.00889653
0.00825144
0.00778154
0.00744539
0.00720432
0.00703294
0.00691237
0.00682886
0.00677178
0.00673038
0.00670742
0.00669585
0.00667807
0.00667555
0.00667048
0.00667061
0.00667004
0.00667182
0.00667299
0.00667552
0.00667768
0.00668063
0.00668345
0.00668668
0.00668994
0.00669357
0.00669737
0.00670155
0.00670597
0.0206867
0.0208948
0.0210208
0.0211407
0.0213088
0.0215571
0.0218951
0.0223088
0.0227673
0.0232314
0.0236603
0.0240107
0.0242285
0.0242364
0.0239468
0.0233707
0.0224819
0.0212595
0.0196639
0.0177232
0.0154633
0.0131032
0.0109245
0.00891719
0.00706578
0.00536113
0.00382551
0.00249224
0.00140916
0.00068393
0.00031656
0.000162145
0.000111509
0.000107349
0.00960234
0.0111735
0.0143224
0.0173583
0.0191863
0.0200584
0.0205117
0.00874982
0.00814294
0.00770331
0.00738927
0.00716451
0.00700531
0.00689398
0.00681698
0.00676412
0.00672572
0.00670498
0.0066946
0.00667681
0.00667523
0.00667021
0.00667064
0.00667001
0.00667184
0.00667298
0.00667552
0.00667769
0.00668062
0.00668341
0.00668658
0.00668986
0.0066935
0.00669731
0.00670152
0.00670595
0.0206439
0.0206766
0.0206978
0.0207668
0.0209228
0.0211864
0.0215553
0.0220064
0.0225039
0.0230091
0.0234836
0.0238858
0.0241616
0.024233
0.0240064
0.0234884
0.0226496
0.0214364
0.0198422
0.0179298
0.01568
0.0133093
0.0111098
0.00907855
0.00720329
0.00547609
0.00391474
0.00255882
0.00145083
0.000701703
0.000321035
0.000161645
0.000111173
0.000108223
0.00939307
0.0108031
0.0137943
0.016985
0.0189573
0.0199287
0.0202419
0.0203826
0.00860649
0.00803708
0.00762743
0.00733497
0.00712646
0.00697967
0.00687722
0.00680611
0.00675699
0.00672163
0.00670265
0.00669272
0.00667609
0.00667479
0.00667005
0.00667065
0.00666998
0.00667186
0.00667298
0.00667551
0.00667771
0.00668054
0.00668331
0.00668648
0.00668977
0.00669343
0.00669726
0.00670149
0.00670594
0.0203413
0.0202638
0.0202292
0.0202819
0.0204519
0.0207491
0.0211605
0.0216561
0.0221982
0.0227501
0.023276
0.0237344
0.0240706
0.0242055
0.0240407
0.0235796
0.02277
0.0215786
0.0200279
0.0181476
0.0159117
0.0135325
0.0113127
0.00925664
0.00735601
0.00560435
0.00401439
0.00263337
0.00149795
0.000722052
0.000325961
0.000161195
0.000110862
0.000109328
0.00919355
0.0104585
0.0132474
0.0165642
0.0186883
0.0197468
0.0201178
0.0200608
0.0199994
0.00846674
0.00793423
0.00755413
0.00728303
0.00709116
0.00695633
0.00686194
0.00679617
0.00675037
0.00671799
0.00670057
0.0066904
0.00667573
0.0066743
0.00667001
0.00667062
0.00666997
0.00667186
0.006673
0.00667549
0.00667767
0.00668041
0.0066832
0.00668637
0.00668969
0.00669336
0.0066972
0.00670145
0.00670593
0.0198462
0.0197071
0.01965
0.0197128
0.0199167
0.0202597
0.020721
0.0212661
0.0218576
0.0224621
0.0230451
0.023564
0.0239622
0.02416
0.0240555
0.023638
0.0228649
0.0217238
0.0202202
0.0183763
0.0161586
0.0137739
0.0115347
0.00945314
0.00752574
0.00574776
0.00412693
0.00271718
0.00155135
0.000745586
0.000331534
0.000160798
0.000110573
0.000110629
0.00900246
0.0101408
0.0126895
0.0160971
0.0183901
0.0195394
0.0199499
0.0199248
0.0196255
0.0194341
0.00833077
0.00783483
0.00748406
0.00723485
0.00705906
0.00693508
0.00684801
0.00678715
0.00674421
0.00671486
0.00669908
0.00668797
0.00667556
0.00667391
0.00667005
0.00667061
0.00666997
0.00667185
0.00667303
0.0066754
0.00667757
0.00668027
0.0066831
0.00668626
0.0066896
0.00669328
0.00669714
0.00670142
0.00670592
0.0192082
0.0190388
0.0189856
0.0190803
0.0193303
0.0197274
0.0202439
0.0208418
0.0214881
0.0221517
0.0227976
0.0233804
0.0238418
0.0241016
0.0240528
0.0236819
0.0229585
0.0218707
0.0204183
0.0186154
0.0164207
0.0140339
0.0117771
0.0096698
0.00771449
0.00590794
0.0042543