/*--------------------------------*- C++ -*----------------------------------*\
  =========                 |
  \\      /  F ield         | OpenFOAM: The Open Source CFD Toolbox
   \\    /   O peration     | Website:  https://openfoam.org
    \\  /    A nd           | Version:  8
     \\/     M anipulation  |
\*---------------------------------------------------------------------------*/
FoamFile
{
    version     2.0;
    format      ascii;
    class       volScalarField;
    location    "0.44";
    object      epsilon;
}
// * * * * * * * * * * * * * * * * * * * * * * * * * * * * * * * * * * * * * //

dimensions      [0 2 -3 0 0 0 0];

internalField   nonuniform List<scalar> 
15677
(
59.7262
18.3607
52.6846
8.08306
26.0158
50.2353
4.62235
13.3184
31.6512
50.5474
3.17431
7.74576
17.1252
37.3334
51.6534
2.48719
5.05194
10.0469
20.8479
42.7048
53.6915
2.14439
3.62616
6.47219
12.1787
24.5837
47.709
55.7761
1.97936
2.82181
4.52949
7.73131
14.2991
28.2862
52.0957
57.6912
1.9115
2.35283
3.4039
5.31286
8.92836
16.4415
31.8102
55.7721
59.4167
1.88407
2.07998
2.72417
3.90988
6.02823
10.1146
18.5683
35.0064
58.815
60.8837
1.8705
1.93926
2.30744
3.05537
4.36118
6.71151
11.2919
20.5985
37.8529
61.2719
62.1737
1.86763
1.87825
2.05652
2.52071
3.34955
4.77837
7.3737
12.4341
22.5113
40.3063
63.2763
63.2475
1.86862
1.84883
1.91657
2.18568
2.71314
3.61607
5.17139
8.01035
13.5362
24.2518
42.4199
64.8747
64.1862
1.86953
1.83872
1.85193
1.98239
2.30709
2.88673
3.86158
5.54154
8.62314
14.5656
25.8341
44.1939
66.1735
64.9893
1.86976
1.83701
1.82116
1.86769
2.05142
2.41825
3.04478
4.08818
5.89235
9.198
15.5306
27.2266
45.6897
67.2082
65.7039
1.86975
1.83728
1.81055
1.81334
1.89816
2.11749
2.5197
3.18868
4.29904
6.21859
9.73998
16.403
28.4563
46.9298
68.0456
66.3374
1.8697
1.83755
1.80825
1.78981
1.81541
1.9303
2.17925
2.61181
3.32062
4.49244
6.52367
10.2335
17.1972
29.5101
47.9573
68.7379
66.8838
1.86966
1.83766
1.80793
1.78281
1.77572
1.82149
1.9626
2.23603
2.6956
3.44016
4.67102
6.7999
10.6878
17.8933
30.4131
48.7996
69.2902
67.4113
1.86964
1.83769
1.80793
1.7811
1.76148
1.76615
1.83183
1.99359
2.28786
2.77103
3.5491
4.83105
7.05302
11.0885
18.5062
31.1646
49.4722
69.78
67.8338
1.86963
1.83769
1.80793
1.78078
1.75699
1.74394
1.7604
1.84337
2.02249
2.3346
2.83906
3.64586
4.97596
7.27529
11.4452
19.0233
31.7836
50.0201
70.1518
68.3068
1.86962
1.83769
1.80791
1.78075
1.75571
1.73591
1.72948
1.75747
1.85497
2.049
2.37661
2.89919
3.73234
5.10219
7.47223
11.7471
19.4598
32.2771
50.4334
70.5312
68.6358
1.86962
1.83769
1.80788
1.78074
1.75538
1.7332
1.71724
1.71797
1.75601
1.86636
2.07301
2.41375
2.95239
3.8072
5.21266
7.63825
12.0035
19.8077
32.6631
50.7678
70.7919
69.0947
1.86962
1.83768
1.80786
1.78072
1.75529
1.73236
1.71262
1.70121
1.70842
1.75604
1.87703
2.09444
2.44648
2.99835
3.87193
5.30526
7.77826
12.2078
20.0845
32.9449
51.0024
71.1309
69.3543
1.86962
1.83768
1.80784
1.78069
1.75525
1.7321
1.711
1.69435
1.68711
1.70083
1.75642
1.88686
2.11344
2.47489
3.03789
3.9262
5.38242
7.88947
12.3689
20.2836
33.1522
51.1832
71.3258
69.8119
1.86962
1.83767
1.80783
1.78067
1.75521
1.732
1.71045
1.69171
1.67784
1.6751
1.69453
1.75731
1.89588
2.13022
2.49949
3.07132
3.97113
5.44364
7.97596
12.4855
20.4264
33.2692
51.3164
71.702
70.0512
1.86963
1.83767
1.80783
1.78065
1.75518
1.73194
1.71026
1.69072
1.67404
1.66333
1.66462
1.68954
1.75874
1.90426
2.14509
2.52073
3.09935
4.00752
5.49122
8.03872
12.5638
20.5066
33.3515
51.3898
71.9758
432.837
1.86963
1.83766
1.80782
1.78063
1.75516
1.73189
1.71016
1.69034
1.67255
1.6582
1.65043
1.65594
1.6857
1.76067
1.91218
2.15857
2.53933
3.12308
4.0364
5.52614
8.07985
12.6096
20.5448
33.3562
51.5074
89.1742
733.958
1.86964
1.83766
1.80782
1.78062
1.75514
1.73184
1.7101
1.69016
1.67197
1.65604
1.64402
1.63942
1.64857
1.68312
1.76338
1.92024
2.17126
2.55607
3.14306
4.05927
5.55048
8.10459
12.623
20.5381
33.3651
52.506
124.276
1023.83
1.86964
1.83765
1.80782
1.7806
1.75512
1.73181
1.71005
1.69006
1.67171
1.65513
1.64124
1.63161
1.62995
1.64345
1.68245
1.76732
1.92883
2.18392
2.57184
3.16112
4.07771
5.56721
8.1137
12.6165
20.5203
33.3968
55.2854
161.573
1273.21
1.86965
1.83764
1.80782
1.78059
1.75511
1.73178
1.71
1.68998
1.67156
1.65471
1.64004
1.62804
1.62101
1.62292
1.63943
1.68357
1.77288
1.93883
2.19748
2.58808
3.17825
4.09377
5.57785
8.11203
12.6002
20.4859
33.5104
60.215
194.554
1476.1
1.86965
1.83764
1.80783
1.78058
1.7551
1.73176
1.70997
1.68993
1.67146
1.6545
1.63949
1.62643
1.61686
1.61265
1.61735
1.63958
1.68677
1.78085
1.95101
2.2131
2.60561
3.19609
4.10856
5.58508
8.10708
12.5725
20.443
33.8019
65.1039
222.533
1653.73
1.86965
1.83763
1.80783
1.78057
1.7551
1.73174
1.70994
1.68988
1.67138
1.65437
1.6392
1.62567
1.61495
1.6077
1.60638
1.61588
1.64158
1.6932
1.79205
1.96648
2.23162
2.62597
3.21572
4.12454
5.59186
8.09912
12.5403
20.3905
34.3077
69.4708
247.296
1801.71
1.86966
1.83762
1.80783
1.78056
1.75509
1.73172
1.70991
1.68984
1.67131
1.65427
1.639
1.62529
1.61402
1.60535
1.60106
1.60367
1.61743
1.64672
1.70382
1.80759
1.98616
2.25455
2.65019
3.2392
4.14312
5.60119
8.09067
12.5045
20.3415
34.815
73.4603
268.415
1915.8
1.86966
1.83762
1.80783
1.78055
1.75509
1.7317
1.7099
1.68981
1.67125
1.65419
1.63885
1.62506
1.61352
1.60421
1.59849
1.59763
1.60501
1.62214
1.65674
1.7196
1.82844
2.01149
2.28287
2.68004
3.2675
4.1668
5.61385
8.0853
12.464
20.2998
35.296
76.8175
284.76
2008.15
1.86966
1.83762
1.80784
1.78054
1.75509
1.73169
1.70988
1.68978
1.6712
1.65413
1.63873
1.6249
1.61321
1.60363
1.59721
1.59472
1.59887
1.60955
1.63172
1.67285
1.74156
1.85602
2.04346
2.31817
2.71635
3.30269
4.19617
5.63233
8.08127
12.4234
20.2479
35.6877
79.2665
298.085
2086.37
1.83761
1.8697
1.80784
1.78053
1.75508
1.73167
1.70987
1.68975
1.67116
1.65407
1.63863
1.62478
1.61298
1.60329
1.59653
1.5933
1.59594
1.60339
1.61902
1.64822
1.69582
1.77116
1.89137
2.08366
2.36135
2.76097
3.3452
4.23293
5.65604
8.08217
12.3782
20.1781
35.906
81.1178
309.223
2155.69
1.80784
1.8377
1.86978
1.78052
1.75508
1.73166
1.70986
1.68973
1.67113
1.65402
1.63855
1.62468
1.61279
1.60307
1.59611
1.59261
1.59455
1.60053
1.61295
1.63603
1.67219
1.72714
1.80949
1.93614
2.13298
2.41406
2.81423
3.39657
4.27684
5.68626
8.08673
12.3291
20.0874
36.0359
82.4949
319.103
2219.07
1.78052
1.808
1.8379
1.86985
1.75508
1.73165
1.70985
1.68971
1.6711
1.65398
1.63848
1.62459
1.61264
1.6029
1.59581
1.59224
1.5939
1.59927
1.61029
1.63055
1.66104
1.70528
1.76815
1.85824
1.99123
2.19292
2.47673
2.87774
3.45645
4.32871
5.72737
8.09762
12.2831
19.9894
36.0356
83.5952
328.063
2278.16
1.75508
1.78072
1.80832
1.8381
1.86993
1.73164
1.70984
1.68969
1.67108
1.65394
1.63842
1.62451
1.61251
1.60276
1.59557
1.592
1.59358
1.59878
1.60935
1.62859
1.65666
1.6959
1.74897
1.82083
1.91871
2.0585
2.26405
2.55087
2.95095
3.52574
4.39532
5.78249
8.11764
12.2426
19.8803
36.0097
84.5096
336.336
2334.37
1.73163
1.75534
1.78113
1.80865
1.83831
1.87001
1.70984
1.68967
1.67106
1.65391
1.63837
1.62445
1.6124
1.60265
1.59538
1.59184
1.5934
1.59862
1.60918
1.6283
1.65578
1.6934
1.74247
1.80566
1.88666
1.9931
2.13879
2.34795
2.63583
3.03512
3.613
4.48074
5.84765
8.14555
12.2073
19.7705
35.9513
85.2793
344.277
2387.66
1.70983
1.73192
1.75586
1.78156
1.80899
1.83852
1.8701
1.68966
1.67104
1.65388
1.63833
1.62439
1.61231
1.60255
1.59522
1.59171
1.59329
1.59858
1.60933
1.62879
1.65655
1.69414
1.74224
1.80277
1.87698
1.96845
2.08262
2.23414
2.44492
2.7329
3.13992
3.72303
4.57743
5.92205
8.18067
12.1792
19.6648
35.8602
85.9961
351.679
2439.06
1.68965
1.71016
1.73251
1.75639
1.782
1.80934
1.83874
1.87018
1.67103
1.65385
1.6383
1.62433
1.61223
1.60247
1.59508
1.59161
1.59321
1.59861
1.6096
1.62957
1.65813
1.69674
1.74561
1.80619
1.8786
1.96503
2.06703
2.19017
2.3452
2.55663
2.85395
3.27083
3.84546
4.68429
6.00408
8.22258
12.1571
19.5654
35.7689
86.6241
358.936
2487.89
1.67102
1.69
1.71084
1.73313
1.75694
1.78245
1.8097
1.83896
1.87027
1.65383
1.63827
1.62428
1.61217
1.60239
1.59496
1.59153
1.59316
1.59866
1.6099
1.63041
1.65992
1.70014
1.75092
1.81348
1.88731
1.97348
2.07152
2.18462
2.31548
2.47429
2.6973
3.00723
3.41591
3.97803
4.79948
6.09256
8.27018
12.1432
19.4737
35.6732
87.2467
365.775
2535.01
1.65381
1.67141
1.69074
1.71154
1.73376
1.75751
1.78292
1.81007
1.83919
1.87036
1.63825
1.62423
1.61213
1.60231
1.59486
1.59147
1.59313
1.59872
1.6102
1.63123
1.66171
1.70364
1.75701
1.82293
1.90015
1.98959
2.08927
2.20038
2.32211
2.4604
2.63802
2.87708
3.1787
3.57522
4.12095
4.92144
6.18631
8.32296
12.1334
19.3915
35.5878
87.8239
372.426
2579.64
1.63823
1.6542
1.6722
1.69149
1.71226
1.7344
1.75808
1.7834
1.81044
1.83943
1.87045
1.62419
1.61209
1.60224
1.59478
1.59142
1.5931
1.59879
1.6105
1.63202
1.66344
1.70702
1.76308
1.83324
1.91548
2.01039
2.11538
2.2306
2.35257
2.48364
2.64339
2.84507
3.08133
3.36949
3.74751
4.2719
5.04885
6.28402
8.37944
12.133
19.3194
35.5106
88.3917
378.794
2622.55
1.62415
1.63864
1.65503
1.67302
1.69227
1.71299
1.73507
1.75868
1.78389
1.81083
1.83967
1.87054
1.61206
1.60217
1.59472
1.59137
1.59308
1.59886
1.61078
1.63274
1.66506
1.7102
1.76888
1.84337
1.9318
2.03436
2.14711
2.27049
2.39901
2.53313
2.69033
2.87971
3.07774
3.30479
3.5766
3.9307
4.43022
5.1804
6.38454
8.43907
12.1356
19.2559
35.4448
88.9499
384.857
2663
1.61204
1.62454
1.63951
1.65588
1.67387
1.69308
1.71375
1.73575
1.75929
1.78439
1.81122
1.83992
1.87063
1.6021
1.59468
1.59133
1.59306
1.59892
1.61105
1.63342
1.66656
1.71316
1.77436
1.85303
1.94777
2.05977
2.18312
2.31761
2.45712
2.60118
2.76646
2.96033
3.1505
3.33723
3.54602
3.79906
4.12493
4.59441
5.31478
6.48663
8.50084
12.1417
19.2012
35.3919
89.478
390.77
2701.75
1.60204
1.61243
1.62538
1.64039
1.65676
1.67474
1.6939
1.71453
1.73646
1.75991
1.78492
1.81163
1.84018
1.87072
1.59465
1.59129
1.59305
1.59898
1.61129
1.63403
1.66795
1.71588
1.77948
1.86213
1.96305
2.08478
2.22124
2.37095
2.525
2.68426
2.86536
3.0757
3.27407
3.45648
3.62266
3.80331
4.0303
4.32704
4.76254
5.45055
6.58928
8.56373
12.153
19.1548
35.3476
90.0234
396.262
2738.07
1.59465
1.60234
1.61326
1.62623
1.64131
1.65767
1.67563
1.69476
1.71532
1.73719
1.76055
1.78545
1.81204
1.84044
1.87081
1.59123
1.59302
1.59904
1.61151
1.6346
1.66922
1.71839
1.78424
1.87061
1.97755
2.1089
2.25893
2.42792
2.60217
2.78126
2.98474
3.22138
3.44101
3.6342
3.79782
3.93262
4.07645
4.26899
4.53466
4.93326
5.58689
6.6916
8.62718
12.1675
19.1154
35.3168
90.5174
401.716
2772.77
1.59119
1.59494
1.60299
1.6141
1.62712
1.64225
1.65861
1.67655
1.69564
1.71614
1.73794
1.76121
1.786
1.81245
1.84069
1.8709
1.59299
1.59908
1.61171
1.63512
1.67038
1.72068
1.78864
1.87848
1.99123
2.1319
2.29549
2.48509
2.68548
2.89264
3.12504
3.39774
3.65039
3.86847
4.04324
4.17468
4.26566
4.36309
4.51336
4.74492
5.10577
5.72275
6.79282
8.69054
12.1845
19.0831
35.292
91.0457
406.66
2805.09
1.593
1.59119
1.59554
1.60365
1.61499
1.62805
1.64322
1.65958
1.67749
1.69654
1.71699
1.73871
1.76188
1.78654
1.81285
1.84093
1.87098
1.59911
1.61189
1.63559
1.67144
1.72277
1.79268
1.88574
2.00406
2.15362
2.3307
2.54143
2.76985
3.01466
3.28875
3.60873
3.90752
4.16478
4.36566
4.50479
4.58751
4.62031
4.661
4.76191
4.95409
5.27793
5.85705
6.89227
8.75326
12.2034
19.0562
35.2792
91.5079
411.652
2835.95
1.59918
1.59288
1.59119
1.59614
1.60435
1.6159
1.62902
1.64422
1.66059
1.67846
1.69748
1.71785
1.73949
1.76255
1.78707
1.81324
1.84117
1.87106
1.61206
1.636
1.6724
1.72468
1.79639
1.89243
2.01603
2.174
2.36442
2.59634
2.85354
3.1407
3.4724
3.8616
4.2236
4.53855
4.78279
4.94406
5.02413
5.03726
4.99518
4.96806
5.01349
5.16124
5.44815
5.98888
6.98937
8.81488
12.2237
19.035
35.2702
92.0143
416.078
2864.53
1.61228
1.59883
1.59255
1.59115
1.5968
1.60511
1.61685
1.63004
1.64525
1.66163
1.67946
1.69844
1.71873
1.74027
1.7632
1.78759
1.81361
1.8414
1.87114
1.63638
1.67325
1.72642
1.79977
1.89859
2.02714
2.19303
2.39654
2.64927
2.9358
3.26899
3.66695
4.15409
4.61676
5.01768
5.33109
5.53285
5.61993
5.60824
5.52536
5.38911
5.28245
5.26623
5.36541
5.61514
6.11735
7.08361
8.87502
12.2452
19.0177
35.2709
92.446
420.619
2891.83
1.63681
1.61157
1.59786
1.59216
1.59119
1.5975
1.60594
1.61782
1.63109
1.64631
1.6627
1.68048
1.69942
1.71961
1.74103
1.76383
1.78809
1.81397
1.84162
1.87122
1.67402
1.72798
1.80285
1.90424
2.03742
2.21075
2.42699
2.69983
3.01624
3.39861
3.86858
4.47328
5.09388
5.64786
6.07343
6.34564
6.45216
6.41226
6.26461
6.05323
5.80095
5.60245
5.51853
5.56574
5.77813
6.24215
7.17479
8.93341
12.2672
19.0048
35.2743
92.9241
424.57
2913.84
1.67484
1.6355
1.60953
1.59679
1.59186
1.59136
1.5982
1.60684
1.61882
1.63219
1.6474
1.66381
1.68153
1.70039
1.72046
1.74177
1.76444
1.78857
1.81433
1.84184
1.87129
1.72941
1.80564
1.90941
2.04689
2.22722
2.45569
2.74781
3.09464
3.52822
4.07433
4.81601
5.64612
6.46277
7.10621
7.5007
7.65075
7.57773
7.33791
6.99896
6.62141
6.22931
5.92642
5.76901
5.7614
5.93585
6.36325
7.26267
8.98983
12.2896
18.9947
35.283
93.3238
428.125
2932.3
1.73086
1.67283
1.63171
1.60736
1.59583
1.59165
1.59168
1.5989
1.60781
1.61985
1.63334
1.64852
1.66494
1.68257
1.70134
1.72129
1.74249
1.76504
1.78905
1.81467
1.84205
1.87137
1.8082
1.91413
2.0556
2.2425
2.48264
2.79318
3.1708
3.65626
4.2821
5.18317
6.27723
7.45683
8.49669
9.15935
9.4022
9.3018
8.93529
8.40641
7.81318
7.22881
6.67237
6.25278
6.01646
5.95196
6.08701
6.48
7.34705
9.04413
12.312
18.988
35.2922
93.7087
430.889
2952.38
1.8107
1.72793
1.66671
1.62768
1.60537
1.59498
1.59144
1.59219
1.5996
1.60885
1.62091
1.63452
1.64967
1.66606
1.68359
1.70226
1.7221
1.74318
1.76562
1.78951
1.81501
1.84225
1.87144
1.91851
2.0636
2.25667
2.50786
2.83598
3.24447
3.78133
4.49123
5.57636
6.98957
8.62727
10.2193
11.4154
11.9395
11.846
11.3276
10.5332
9.61748
8.70432
7.87231
7.12775
6.57988
6.25985
6.13711
6.23164
6.59198
7.42777
9.0962
12.3343
18.983
35.3076
93.9916
434.123
2974.13
1.92266
1.80664
1.71848
1.6603
1.62394
1.60354
1.5942
1.59117
1.59284
1.60034
1.60994
1.62201
1.63573
1.65083
1.66715
1.68459
1.70316
1.72289
1.74386
1.76618
1.78995
1.81533
1.84245
1.87147
2.07106
2.26981
2.53138
2.87634
3.31535
3.90249
4.70222
5.9959
7.77865
9.96174
12.2477
14.2039
15.386
15.5311
14.8626
13.7303
12.3631
10.9614
9.66481
8.54695
7.59252
6.90607
6.49826
6.3163
6.36974
6.69895
7.50475
9.14596
12.3563
18.9809
35.3165
94.357
437.388
2997.93
2.07792
1.91717
1.79246
1.70869
1.6543
1.62045
1.60184
1.5935
1.59094
1.59358
1.60111
1.61108
1.62316
1.63694
1.65196
1.66822
1.68555
1.70403
1.72366
1.74452
1.76673
1.79039
1.81565
1.84255
1.87147
2.28215
2.55333
2.91436
3.38316
4.01936
4.91607
6.44011
8.63464
11.4381
14.5475
17.4721
19.634
20.5313
19.9801
18.4526
16.4919
14.4042
12.4216
10.6837
9.24633
8.06334
7.2297
6.73093
6.4891
6.50136
6.8008
7.57794
9.19338
12.375
18.9794
35.3357
94.7013
441.269
3023.81
2.29326
2.07069
1.8962
1.77792
1.6995
1.64865
1.61717
1.60027
1.59286
1.59079
1.59439
1.60196
1.61224
1.62432
1.63811
1.65306
1.66925
1.6865
1.70487
1.72441
1.74516
1.76727
1.79081
1.81581
1.84255
1.87147
2.57403
2.95023
3.44775
4.13204
5.13359
6.90536
9.54488
13.0298
17.0749
21.1606
24.6031
26.6978
26.9385
25.3016
22.5951
19.581
16.628
13.9774
11.748
9.96323
8.53668
7.54917
6.95713
6.65521
6.62657
6.89751
7.64736
9.23252
12.3911
18.9794
35.3496
95.1539
445.176
3052.15
2.59225
2.28373
2.04005
1.87498
1.76426
1.69078
1.64325
1.61407
1.59881
1.59231
1.59074
1.59524
1.60287
1.6134
1.62548
1.63925
1.65415
1.67025
1.68742
1.7057
1.72513
1.74578
1.76779
1.79102
1.81581
1.84255
1.87147
2.98431
3.50924
4.24112
5.35516
7.38663
10.4957
14.7099
19.7827
25.1965
30.2001
33.9155
35.5462
34.6567
31.4824
27.2516
22.957
19.0021
15.6065
12.8441
10.6902
9.00904
7.86293
7.17627
6.81444
6.74547
6.98913
7.70441
9.26583
12.4092
18.9801
35.3792
95.5827
449.839
3082.99
3.01393
2.57998
2.23902
2.00946
1.85506
1.75125
1.68241
1.63809
1.61115
1.59748
1.59187
1.5908
1.59612
1.60385
1.61453
1.62662
1.64036
1.65521
1.67123
1.68832
1.7065
1.72584
1.74639
1.76804
1.79102
1.81581
1.84255
1.87147
3.56804
4.34748
5.58067
7.878
11.4731
16.4515
22.6236
29.5009
36.3063
42.0392
45.6403
46.2795
43.6922
38.4807
32.369
26.5741
21.4929
17.2867
13.9587
11.4201
9.47705
8.16957
7.38784
6.96669
6.85819
7.06434
7.75281
9.30242
12.4295
18.9822
35.402
96.1443
454.556
3116.7
3.61873
2.99779
2.51469
2.19511
1.98074
1.83604
1.73871
1.67434
1.63316
1.60841
1.59626
1.59154
1.591
1.59697
1.60486
1.61562
1.62775
1.64143
1.65624
1.67218
1.68919
1.70727
1.72653
1.74669
1.76804
1.79102
1.81581
1.84255
1.87147
4.45174
5.80739
8.3735
12.464
18.2293
25.552
33.9947
42.7917
50.8782
56.9978
59.943
58.9364
54.005
46.2283
37.8834
30.3834
24.067
18.9972
15.0797
12.1464
9.9376
8.46789
7.59147
7.1119
6.95082
7.12811
7.8058
9.34263
12.4524
18.9856
35.4458
96.6879
460.184
3153.41
4.54299
3.59799
2.90097
2.45163
2.15394
1.95329
1.81767
1.72659
1.66659
1.62845
1.60587
1.59518
1.59131
1.59138
1.59778
1.6059
1.61668
1.62886
1.64248
1.65725
1.6731
1.69004
1.70803
1.72687
1.74669
1.76804
1.79102
1.81581
1.84255
1.87144
6.0326
8.86907
13.4562
20.0192
28.5244
38.6016
49.5255
60.2215
69.3196
75.3148
76.9072
73.4865
65.5092
54.6344
43.7229
34.3354
26.693
20.719
16.1961
12.8632
10.3881
8.75685
7.78684
7.23187
7.02943
7.1979
7.86385
9.38689
12.478
18.993
35.4845
97.3855
465.956
3193.38
4.51571
6.23085
3.44955
2.80967
2.39261
2.11455
1.92674
1.79988
1.71489
1.65914
1.62397
1.60356
1.59421
1.5911
1.59197
1.59856
1.60695
1.61773
1.62995
1.64351
1.65824
1.674
1.69087
1.7084
1.72687
1.74669
1.76804
1.79101
1.81581
1.84245
1.87137
9.35977
14.4393
21.8002
31.5007
43.2507
56.3847
69.8597
82.2734
91.9406
97.1272
96.5225
89.8278
78.0778
63.5908
49.811
38.3815
29.342
22.4353
17.2986
13.5657
10.8262
9.03557
7.94909
7.33405
7.11557
7.27431
7.92747
9.43562
12.5072
19.0013
35.5468
98.0905
472.781
3236.92
4.27111
6.20612
9.79242
3.31447
2.72446
2.33613
2.07644
1.90102
1.78268
1.70363
1.65202
1.61969
1.60147
1.59338
1.59086
1.59267
1.59933
1.60799
1.61875
1.63101
1.64451
1.6592
1.67488
1.69128
1.7084
1.72687
1.74669
1.76804
1.79101
1.81565
1.84225
1.87129
15.402
23.5535
34.4466
47.8789
63.2591
79.6017
95.535
109.316
118.933
122.456
118.679
107.792
91.5495
72.9773
56.0709
42.4765
31.9882
24.1316
18.3793
14.2498
11.2502
9.26805
8.08776
7.44644
7.21004
7.35805
7.99729
9.48935
12.5399
19.0152
35.6117
98.9574
479.958
3283.96
4.0566
5.77307
9.78979
16.254
3.1898
2.64297
2.28153
2.03952
1.87614
1.7661
1.69282
1.64522
1.6157
1.59963
1.59269
1.59069
1.59342
1.6001
1.60902
1.61976
1.63205
1.64549
1.66014
1.67531
1.69128
1.7084
1.72687
1.74669
1.76804
1.7908
1.81533
1.84204
1.87122
25.2611
37.3329
52.4342
70.0552
89.2843
108.818
126.953
141.585
150.356
151.196
143.171
127.154
105.738
82.6693
62.4286
46.5785
34.6084
25.7961
19.4321
14.9122
11.6046
9.46731
8.24085
7.57019
7.31375
7.44983
8.07381
9.54864
12.5772
19.0326
35.6986
99.8686
488.27
3335.25
3.86282
5.39581
8.99839
16.318
26.7812
3.07116
2.56431
2.22869
2.00383
1.85214
1.75017
1.68249
1.63883
1.61213
1.59806
1.59212
1.59062
1.59419
1.60089
1.61003
1.62075
1.63307
1.64645
1.6606
1.67531
1.69129
1.7084
1.72687
1.74669
1.76778
1.79038
1.815
1.84183
1.87114
40.1316
56.8748
76.7003
98.7766
121.889
144.437
164.373
179.177
186.128
183.12
169.704
147.639
120.445
92.5438
68.8144
50.6498
37.1838
27.4187
20.4516
15.4662
11.9089
9.68792
8.41005
7.70661
7.4277
7.55064
8.15826
9.61424
12.6196
19.0554
35.8057
100.907
497.332
3389.94
3.68172
5.05629
8.29425
14.9806
27.0116
42.6309
2.9571
2.48835
2.17768
1.96943
1.82908
1.73492
1.67273
1.63301
1.60901
1.59671
1.59169
1.59065
1.59496
1.6017
1.61101
1.62173
1.63407
1.64692
1.66061
1.67531
1.69129
1.70841
1.72687
1.74638
1.76725
1.78994
1.81466
1.84161
1.87106
61.1607
83.1396
107.985
134.576
161.444
186.704
207.911
222.043
226.023
217.878
197.908
168.95
135.469
102.484
75.1652
54.6587
39.6982
28.9915
21.3045
15.9419
12.2461
9.93243
8.59731
7.85716
7.55304
7.66069
8.25142
9.6869
12.6676
19.0878
35.9232
102.102
507.51
3449.63
3.51048
4.74143
7.65273
13.7444
24.9478
43.17
64.9887
2.84735
2.4152
2.1286
1.9364
1.807
1.72049
1.6638
1.62784
1.60628
1.59557
1.59138
1.59079
1.5957
1.60253
1.61199
1.62272
1.63457
1.64691
1.66062
1.67532
1.69129
1.70841
1.72653
1.74577
1.76672
1.78949
1.81431
1.84139
1.87098
89.3207
116.844
146.765
177.754
208.141
235.73
257.555
269.992
269.669
255.01
227.362
190.775
150.616
112.381
81.4268
58.5782
42.1384
30.3083
22.037
16.4694
12.6204
10.2037
8.80476
8.02348
7.69126
7.78097
8.35412
9.76737
12.7233
19.1227
36.0961
103.361
519.093
3512
3.34831
4.44695
7.05395
12.5875
23.0073
40.1903
66.0128
94.8274
2.74196
2.34501
2.08153
1.9048
1.78609
1.70724
1.6558
1.62324
1.60389
1.5946
1.59118
1.59103
1.59641
1.60338
1.61298
1.6232
1.63456
1.64692
1.66062
1.67533
1.6913
1.70804
1.72583
1.74514
1.76616
1.78902
1.81396
1.84116
1.8709
125.292
158.391
193.244
228.41
262.042
291.515
313.167
322.682
316.556
293.973
257.618
212.809
165.707
122.143
87.5531
62.386
44.1836
31.4397
22.8494
17.0548
13.0362
10.5051
9.03483
8.20744
7.8438
7.91261
8.46728
9.85693
12.7849
19.1794
36.2533
104.974
531.668
3592.04
3.19495
4.17214
6.49142
11.4887
21.1533
37.3624
61.9314
96.5211
132.776
2.64104
2.27794
2.03659
1.87493
1.7669
1.69534
1.64863
1.61914
1.60182
1.5938
1.59105
1.59144
1.59713
1.60431
1.61345
1.62317
1.63457
1.64693
1.66063
1.67534
1.69089
1.70727
1.72512
1.7445
1.76559
1.78855
1.81359
1.84092
1.87082
169.39
207.865
247.393
286.511
323.125
353.982
374.491
379.619
366.047
334.163
288.222
234.765
180.584
131.692
93.5056
65.5796
45.9422
32.6954
23.7513
17.7052
13.4983
10.8401
9.29024
8.41108
8.01224
8.05688
8.592
9.95585
12.8593
19.2311
36.5256
106.536
549.284
3684.45
3.05003
3.91722
5.96532
10.441
19.3568
34.6243
58.0535
91.1543
135.295
179.045
2.54479
2.21412
1.99416
1.84752
1.74964
1.68465
1.6422
1.61549
1.60006
1.5931
1.59085
1.59198
1.59793
1.60475
1.6134
1.62318
1.63458
1.64694
1.66064
1.67491
1.69006
1.70649
1.72439
1.74384
1.76501
1.78806
1.81322
1.84068
1.87073
221.561
265.078
309.039
351.963
391.343
422.994
441.142
440.158
417.409
374.953
318.742
256.393
195.116
140.96
98.497
68.3263
47.8948
34.0902
24.7535
18.4283
14.0124
11.2127
9.57399
8.63672
8.19833
8.21517
8.7292
10.0668
12.9385
19.3254
36.7402
109.17
570.1
3774.37
2.91285
3.68286
5.47733
9.44739
17.6059
31.9342
54.2727
86.0909
128.447
182.466
233.418
2.45353
2.15409
1.95533
1.82289
1.73412
1.67504
1.63645
1.61221
1.59854
1.59252
1.59075
1.59272
1.59827
1.60468
1.61341
1.6232
1.63459
1.64697
1.66018
1.67403
1.68921
1.70569
1.72365
1.74316
1.76441
1.78756
1.81283
1.84043
1.87064
281.446
329.693
377.971
424.707
466.694
498.376
512.606
503.515
469.834
415.721
348.792
277.48
209.193
148.721
102.788
71.3763
50.0648
35.641
25.868
19.2327
14.5846
11.6274
9.88936
8.88686
8.404
8.38895
8.88049
10.1884
13.039
19.402
37.2332
111.903
595.639
3858.61
2.78293
3.47153
5.02832
8.51762
15.901
29.2713
50.5267
81.1512
122.084
173.9
237.699
295.336
2.3681
2.09931
1.92051
1.80076
1.72017
1.66642
1.63129
1.6093
1.59723
1.5921
1.59097
1.59305
1.59811
1.6047
1.61343
1.62321
1.63462
1.64651
1.65924
1.67313
1.68833
1.70487
1.72288
1.74246
1.7638
1.78705
1.81244
1.84017
1.87055
348.518
401.347
454.089
504.899
549.33
579.94
588.229
568.775
522.492
455.902
378.044
297.853
220.948
155.384
107.549
74.7653
52.4783
37.3664
27.1082
20.1279
15.2215
12.089
10.24
9.16422
8.63127
8.58001
9.04648
10.3264
13.1418
19.579
37.6688
115.988
620.752
3935.39
2.6613
3.27886
4.61802
7.65197
14.2492
26.632
46.779
76.2441
115.915
166.125
227.096
300.271
364.047
2.29059
2.05034
1.88931
1.78089
1.70763
1.65867
1.62665
1.60672
1.5962
1.5921
1.59096
1.5929
1.59812
1.60472
1.61345
1.62327
1.63414
1.64555
1.65828
1.67221
1.68744
1.70403
1.72209
1.74175
1.76317
1.78652
1.81203
1.83991
1.87046
422.247
479.844
537.614
593.019
639.587
667.454
667.179
634.926
574.591
495.006
406.233
314.81
231.019
162.763
112.833
78.5331
55.1642
39.2873
28.4889
21.1244
15.9305
12.6026
10.6296
9.47168
8.8824
8.78984
9.22983
10.4759
13.3036
19.7467
38.4878
119.774
651.06
4004.35
2.55093
3.10316
4.24823
6.85298
12.6689
24.0247
43.0143
71.3087
109.811
158.688
217.765
287.184
369.244
438.807
2.22171
2.00656
1.86134
1.76304
1.69637
1.65169
1.6225
1.60461
1.59576
1.59194
1.59063
1.59294
1.59814
1.60473
1.61353
1.62281
1.63313
1.64458
1.65731
1.67127
1.68653
1.70316
1.72129
1.74102
1.76253
1.78598
1.81162
1.83965
1.87037
502.289
565.357
629.197
689.874
737.914
760.513
748.415
700.934
625.418
532.63
429.614
329.296
242.14
170.933
118.699
82.7233
58.1543
41.4267
30.0263
22.2336
16.7193
13.1737
11.0622
9.81223
9.15946
9.02082
9.4302
10.6799
13.4891
20.0478
39.205
124.909
681.379
4059.2
2.45298
2.94623
3.92044
6.12692
11.1769
21.4669
39.2332
66.308
103.676
151.413
209.024
276.086
353.032
443.707
519.102
2.1605
1.96743
1.83627
1.74701
1.68622
1.64539
1.61898
1.60338
1.59533
1.59152
1.59065
1.59296
1.59818
1.60484
1.61307
1.62183
1.63212
1.6436
1.65631
1.6703
1.6856
1.70228
1.72046
1.74026
1.76187
1.78544
1.81121
1.8394
1.87029
588.753
658.692
730.159
796.857
844.783
858.404
830.744
765.809
674.373
563.758
449.533
345.237
254.411
179.977
125.209
87.3831
61.4837
43.8094
31.7381
23.4676
17.5961
13.808
11.5418
10.1887
9.46505
9.27394
9.69252
10.9265
13.7303
20.3296
40.2513
130.515
717.944
4098.55
2.36631
2.80719
3.64022
5.48244
9.79184
18.9812
35.4478
61.2236
97.4432
144.162
200.642
265.974
339.853
423.441
523.032
604.964
2.10605
1.93247
1.8138
1.73258
1.67704
1.64
1.61669
1.60247
1.59475
1.59156
1.59068
1.59296
1.59839
1.60442
1.61209
1.62087
1.6311
1.64258
1.6553
1.66931
1.68464
1.70137
1.71962
1.73949
1.76119
1.78489
1.81081
1.83916
1.8702
682.55
761.521
843.079
916.015
960.526
960.149
912.938
828.674
714.869
590.216
471.372
362.752
267.935
189.977
132.429
92.563
65.1894
46.4624
33.6429
24.8394
18.5695
14.511
12.0723
10.6043
9.80051
9.60362
10.0134
11.2023
13.977
20.7229
41.4568
136.764
759.228
4122.83
2.28975
2.68313
3.40925
4.93246
8.54421
16.5932
31.6798
56.0498
91.0606
136.825
192.429
256.551
328.241
407.743
497.377
607.19
697.438
2.05759
1.90123
1.7936
1.71954
1.66912
1.63627
1.61514
1.60164
1.59481
1.59159
1.59073
1.59316
1.59808
1.60352
1.61112
1.6199
1.63006
1.64155
1.65426
1.66829
1.68367
1.70043
1.71875
1.73871
1.76053
1.78436
1.81043
1.83892
1.87012
785.467
877.617
972.162
1049.82
1085.27
1064.72
993.801
880.919
749.267
619.14
495.263
381.956
282.812
201.018
140.428
98.3159
69.3108
49.4139
35.7606
26.3621
19.6478
15.2881
12.6574
11.0605
10.2367
10.0067
10.348
11.4887
14.2732
21.1906
42.7625
145.258
801.819
4126.66
2.22217
2.57255
3.21465
4.4743
7.46175
14.3455
27.9606
50.7936
84.4891
129.309
184.225
247.562
317.81
394.413
478.599
574.246
697.411
799.313
2.01444
1.87325
1.7754
1.70825
1.66343
1.63388
1.61405
1.60171
1.59485
1.59164
1.59115
1.59286
1.59729
1.6027
1.61016
1.61892
1.629
1.64049
1.6532
1.66725
1.68267
1.69948
1.71787
1.73794
1.75988
1.78385
1.81005
1.83869
1.87004
902.458
1013.67
1123.41
1201.26
1219.78
1170.74
1061.9
925.415
786.835
650.667
521.32
402.952
299.135
213.183
149.274
104.695
73.8884
52.693
38.1111
28.0489
20.8392
16.1445
13.2994
11.6532
10.7685
10.4252
10.6908
11.8002
14.6107
21.6965
44.6505
154.038
850.229
4118.69
2.16247
2.4744
3.0474
4.09586
6.55019
12.3298
24.3562
45.4769
77.7009
121.523
175.888
238.798
308.226
382.947
463.235
551.759
654.326
797.327
916.099
1.97592
1.84813
1.75958
1.69994
1.65986
1.63243
1.61415
1.60177
1.5949
1.59215
1.59121
1.59215
1.59659
1.60191
1.60917
1.61792
1.62792
1.6394
1.65213
1.66618
1.68164
1.69851
1.71699
1.73719
1.75925
1.78335
1.80969
1.83847
1.86997
1042.49
1180.38
1305.42
1377.83
1363.54
1262.24
1120.38
974.145
827.736
684.912
549.635
425.824
316.987
226.547
159.032
111.754
78.9618
56.3282
40.7139
29.9123
22.1511
17.0831
14.132
12.3732
11.3141
10.8539
11.0469
12.1345
14.9745
22.4199
46.4443
166.337
897.426
4098.04
2.10955
2.38768
2.90116
3.78432
5.79251
10.588
21.0074
40.1762
70.6842
113.385
167.267
230.06
299.224
372.905
450.639
533.967
627.502
739.623
913.647
1060.03
1.94145
1.8263
1.74768
1.69486
1.65796
1.63258
1.61422
1.60182
1.59557
1.59237
1.59104
1.59167
1.5959
1.60115
1.60817
1.61691
1.62684
1.63829
1.65103
1.66509
1.6806
1.69756
1.71614
1.73646
1.75863
1.78287
1.80933
1.83825
1.86989
1220.95
1396.52
1544.22
1583.53
1491.89
1341.86
1185.03
1027.41
872.131
721.964
580.269
450.631
336.429
241.173
169.758
119.538
84.5677
60.3461
43.5868
31.9634
23.5883
18.2992
15.1401
13.1075
11.8677
11.2909
11.4158
12.4862
15.4338
23.1125
49.3046
178.621
950.853
4058.8
2.06248
2.31126
2.77158
3.53055
5.16906
9.11107
18.0033
35.0897
63.4989
104.819
158.208
221.138
290.55
363.957
440.214
520.077
606.836
707.746
835.735
1063.17
1257.32
1.91151
1.80963
1.74048
1.69242
1.65817
1.63268
1.61428
1.60277
1.59608
1.59243
1.59119
1.59135
1.59518
1.60041
1.60717
1.61587
1.62575
1.63715
1.64992
1.66398
1.67957
1.69663
1.71532
1.73576
1.75804
1.7824
1.80899
1.83804
1.86982
1475.1
1726.65
1853.93
1772.67
1605.18
1431.17
1256.68
1085.69
920.218
761.903
613.256
477.397
357.492
257.102
181.497
128.088
90.737
64.769
46.7446
34.2094
25.4489
19.7676
16.1641
13.8476
12.4246
11.7337
11.7952
12.8825
15.9008
24.1585
52.1304
194.737
1002.73
4011.03
2.02166
2.24393
2.65603
3.32167
4.65874
7.87575
15.3489
30.3702
56.3847
95.8295
148.546
211.799
281.943
355.795
431.548
509.271
591.423
683.748
797.622
955.643
1293.65
1575.59
1.88826
1.79975
1.73735
1.69271
1.6583
1.63272
1.61552
1.6038
1.59659
1.59292
1.59144
1.59119
1.59445
1.59969
1.60618
1.61481
1.62465
1.63598
1.64879
1.6629
1.67857
1.69574
1.71452
1.73507
1.75746
1.78195
1.80865
1.83784
1.86975
1927.03
2185.81
2136.3
1940.78
1735.36
1532.67
1337.11
1149.8
972.344
804.829
648.602
506.106
380.173
274.345
194.269
137.427
97.4902
69.6119
50.195
37.1136
27.6911
21.2554
17.1915
14.5855
12.9804
12.18
12.1962
13.2926
16.5115
25.2196
56.0733
212.385
1057.09
3956.55
1.98963
2.18606
2.55314
3.14529
4.24388
6.85243
13.0463
26.0584
49.5563
86.6536
138.188
201.783
273.104
348.114
424.278
501.024
580.175
666.487
769.881
909.422
1132.22
1752.58
2248.54
1.87458
1.79583
1.73774
1.69287
1.65833
1.63436
1.61721
1.60513
1.59773
1.59359
1.59165
1.59114
1.59373
1.59897
1.60523
1.61371
1.62355
1.6348
1.64767
1.66185
1.6776
1.69488
1.71374
1.73441
1.7569
1.78151
1.80833
1.83764
1.86972
2624.95
2644.85
2410.98
2151.67
1892.07
1655.25
1429.33
1221.51