/*--------------------------------*- C++ -*----------------------------------*\
  =========                 |
  \\      /  F ield         | OpenFOAM: The Open Source CFD Toolbox
   \\    /   O peration     | Website:  https://openfoam.org
    \\  /    A nd           | Version:  8
     \\/     M anipulation  |
\*---------------------------------------------------------------------------*/
FoamFile
{
    version     2.0;
    format      ascii;
    class       volScalarField;
    location    "100";
    object      p;
}
// * * * * * * * * * * * * * * * * * * * * * * * * * * * * * * * * * * * * * //

dimensions      [0 2 -2 0 0 0 0];

internalField   nonuniform List<scalar> 
15677
(
49.5414
46.5242
46.6136
46.5029
45.6552
46.0768
46.7287
46.1748
45.8904
45.9278
46.6923
46.2282
46.0926
45.91
45.7858
46.6306
46.1711
46.02
45.9511
45.7926
45.6652
46.5895
46.1701
46.0063
45.9114
45.7956
45.6714
45.5412
46.5514
46.1769
46.0185
45.9239
45.7876
45.6707
45.5451
45.3953
46.5109
46.178
46.021
45.9276
45.7984
45.6725
45.5462
45.3978
45.2199
46.469
46.1771
46.0209
45.9257
45.7987
45.6775
45.5493
45.4002
45.2217
45.0079
46.426
46.1758
46.0213
45.9249
45.7996
45.6783
45.5518
45.4029
45.2244
45.0094
44.7514
46.3823
46.1735
46.0219
45.9247
45.8015
45.6806
45.5538
45.4051
45.2271
45.0122
44.7527
44.442
46.3386
46.1694
46.0223
45.9245
45.8036
45.6832
45.5564
45.4079
45.2297
45.0153
44.7554
44.443
44.0703
46.2955
46.1629
46.0226
45.9246
45.8061
45.6861
45.5592
45.4109
45.2331
45.0184
44.7589
44.4457
44.071
43.628
46.2574
46.1538
46.0227
45.9253
45.8095
45.6898
45.5628
45.4144
45.2367
45.0223
44.7626
44.4497
44.0736
43.6284
43.1064
46.2258
46.1433
46.0224
45.9265
45.814
45.6948
45.5675
45.4189
45.2412
45.0268
44.7672
44.454
44.0781
43.6311
43.1066
42.4989
46.1987
46.1327
46.0217
45.9285
45.8198
45.7016
45.574
45.4252
45.2472
45.0325
44.7728
44.4595
44.0834
43.6362
43.1093
42.4989
41.7981
46.1754
46.1222
46.0209
45.9312
45.8272
45.7105
45.5828
45.4337
45.2554
45.0403
44.7801
44.4664
44.09
43.6424
43.115
42.5016
41.7979
40.9986
46.1553
46.1121
46.0199
45.9342
45.8356
45.7221
45.5949
45.4456
45.2668
45.0511
44.7902
44.4757
44.0985
43.6503
43.1224
42.5079
41.8006
40.998
40.0956
46.138
46.1027
46.019
45.9375
45.8442
45.7356
45.6109
45.4619
45.2826
45.0662
44.8042
44.4884
44.11
43.6607
43.132
42.5166
41.8076
41.0008
40.0947
39.0865
46.1231
46.0939
46.0181
45.9413
45.8534
45.7498
45.6298
45.4838
45.3044
45.0871
44.8238
44.5064
44.1261
43.6749
43.1445
42.5279
41.8177
41.0084
40.0976
39.0852
37.969
46.1107
46.0859
46.0173
45.9454
45.8629
45.7649
45.6501
45.5098
45.3338
45.1158
44.8511
44.5315
44.1488
43.6948
43.1618
42.5428
41.8309
41.02
40.1059
39.0881
37.9674
36.7442
46.1009
46.0791
46.0168
45.9499
45.8729
45.7808
45.6719
45.5379
45.3691
45.1548
44.8886
44.5666
44.1807
43.7231
43.1862
42.5634
41.8484
41.0352
40.1189
39.0971
37.9703
36.7422
35.4132
46.0931
46.0735
46.0164
45.9546
45.8832
45.7974
45.6951
45.5684
45.4073
45.2018
44.9396
44.6149
44.2251
43.7629
43.2209
42.5928
41.8726
41.0554
40.1362
39.1115
37.9799
36.7451
35.4108
33.9802
46.0868
46.0689
46.0163
45.9594
45.8938
45.8145
45.7193
45.6008
45.4488
45.2528
45.0011
44.6805
44.2864
43.8183
43.2698
42.6346
41.9073
41.0834
40.159
39.1307
37.9956
36.7551
35.4136
33.9773
32.4498
46.0817
46.0652
46.0163
45.9639
45.9041
45.832
45.7445
45.6349
45.4932
45.3083
45.0682
44.76
44.3698
43.8949
43.338
42.6937
41.9569
41.1237
40.1909
39.1561
38.0167
36.772
35.4241
33.9799
32.4466
30.8293
46.0775
46.0622
46.0164
45.968
45.9135
45.8489
45.7703
45.6703
45.5399
45.3679
45.1414
44.8468
44.4709
43.9993
43.4323
42.7763
42.0272
41.1816
40.237
39.1918
38.0446
36.7946
35.442
33.9907
32.449
30.8257
29.1266
46.0741
46.0597
46.0166
45.9717
45.922
45.8644
45.7954
45.7068
45.5886
45.4308
45.22
44.9417
44.5815
44.1261
43.561
42.8907
42.1259
41.264
40.3035
39.2435
38.0838
36.8246
35.466
34.0093
32.4599
30.8278
29.1227
27.3513
46.0712
46.0576
46.0168
45.9751
45.9296
45.8783
45.8183
45.7423
45.6389
45.4964
45.3031
45.0438
44.7027
44.2649
43.7177
43.0471
42.2625
41.3798
40.3986
39.3188
38.1411
36.867
35.4977
34.0342
32.4789
30.8387
29.1245
27.347
25.5142
46.0687
46.0558
46.0171
45.9781
45.9364
45.8907
45.8389
45.7748
45.6879
45.5642
45.3901
45.152
44.8333
44.4174
43.8895
43.2377
42.4496
41.5407
40.5326
39.4268
38.2249
36.9294
35.5427
34.0671
32.5044
30.8579
29.1352
27.3486
25.5095
23.6251
46.0667
46.0544
46.0174
45.9808
45.9424
45.9018
45.8574
45.804
45.7327
45.6305
45.48
45.2654
44.972
44.582
44.0785
43.4472
42.6784
41.7615
40.7193
39.5797
38.3459
37.0213
35.6095
34.114
32.5379
30.8833
29.1542
27.3588
25.5107
23.6202
21.4844
46.0649
46.0531
46.0176
45.9833
45.9478
45.9116
45.8738
45.8301
45.7731
45.6912
45.5681
45.3828
45.1175
44.7572
44.283
43.6783
42.9303
42.0323
40.9764
39.7934
38.5178
37.1547
35.7087
34.1843
32.5859
30.9166
29.1791
27.3772
25.5204
23.6207
21.4794
19.0779
46.0634
46.052
46.0179
45.9854
45.9525
45.9203
45.8883
45.8534
45.8092
45.7459
45.6488
45.4979
45.2684
44.9411
44.5009
43.9287
43.2089
42.3312
41.2924
40.0884
38.7589
37.3453
35.8537
34.2897
32.6586
30.9647
29.2115
27.4009
25.538
23.6295
21.4795
19.0725
16.6486
46.0622
46.0511
46.0182
45.9873
45.9568
45.928
45.9013
45.8741
45.8414
45.7949
45.7217
45.6036
45.4166
45.1324
44.7303
44.1962
43.5115
42.6625
41.6423
40.4523
39.093
37.6136
36.0619
34.445
32.7688
31.0385
29.2586
27.4315
25.56
23.6455
21.4874
19.0717
16.6427
14.2273
46.061
46.0503
46.0184
45.989
45.9605
45.9349
45.9128
45.8925
45.8701
45.8386
45.787
45.699
45.553
45.3204
44.9692
44.4783
43.8354
43.0233
42.0311
40.8565
39.5066
37.9869
36.3566
34.6695
32.9327
31.1519
29.3319
27.4764
25.5878
23.6648
21.5015
19.0784
16.6408
14.2211
11.8404
46.0496
46.0597
46.0186
45.9904
45.9638
45.9409
45.923
45.9088
45.8955
45.8775
45.8453
45.7848
45.6762
45.4937
45.2046
44.7728
44.1779
43.4105
42.4557
41.307
39.9675
38.4511
36.7683
34.9887
33.1712
31.3222
29.4465
27.5477
25.6291
23.689
21.5175
19.0901
16.6453
14.218
11.8339
9.50215
46.0187
46.0488
46.0582
45.9917
45.9667
45.9463
45.932
45.9232
45.9181
45.912
45.8972
45.8613
45.787
45.6506
45.4218
45.0636
44.5362
43.8209
42.9127
41.8005
40.483
38.9701
37.2825
35.437
33.5125
31.5722
29.6208
27.6614
25.6966
23.7255
21.5367
19.1011
16.6534
14.2203
11.8296
9.49541
7.22429
45.9928
46.0192
46.048
46.0568
45.9693
45.9511
45.9401
45.9361
45.9381
45.9426
45.9432
45.9295
45.8861
45.7918
45.6189
45.3325
44.8909
44.2514
43.3986
42.3334
41.0496
39.5527
37.8598
35.9996
33.9943
31.9322
29.879
27.8369
25.8071
23.7875
21.5666
19.113
16.6584
14.2244
11.8295
9.48992
7.21732
5.01819
45.9715
45.9945
46.0198
46.0472
46.0554
45.9554
45.9472
45.9475
45.9559
45.9697
45.9841
45.99
45.9744
45.9182
45.7965
45.5769
45.2196
44.6788
43.9098
42.9017
41.6635
40.1954
38.5103
36.6338
34.6022
32.4434
30.2537
28.0997
25.9808
23.8925
21.6206
19.1333
16.6617
14.2229
11.8291
9.48704
7.21052
5.01104
2.89284
45.9591
45.9747
45.9965
46.0204
46.0464
46.054
45.9537
45.9578
45.9716
45.9937
46.0202
46.0437
46.0528
46.031
45.9558
45.7975
45.5191
45.076
44.4188
43.5015
42.3205
40.8943
39.2309
37.3517
35.2908
33.0923
30.7893
28.4843
26.2441
24.0611
21.7168
19.1755
16.6702
14.2166
11.8205
9.48191
7.20485
5.00286
2.88552
0.854074
45.9591
45.9641
45.9782
45.9985
46.0211
46.0457
46.0527
45.9669
45.9857
46.015
46.0522
46.0912
46.1223
46.1313
46.098
45.9956
45.7898
45.4386
44.8932
44.1009
43.0164
41.645
40.0173
38.1499
36.0736
33.8311
31.4736
29.0384
26.6334
24.3207
21.8761
19.2581
16.6979
14.2121
11.8037
9.46554
7.19472
4.99435
2.87605
0.846558
-1.09435
45.9746
45.9665
45.9694
45.9818
46.0005
46.0217
46.045
46.0515
45.9982
46.0339
46.0804
46.1331
46.1839
46.2202
46.2246
46.1728
46.0334
45.7672
45.3274
44.6613
43.7144
42.4435
40.8656
39.0249
36.9478
34.6748
32.2568
29.7512
27.1993
24.7094
22.1268
19.4024
16.7632
14.2233
11.7847
9.4372
7.17027
4.97907
2.86466
0.835987
-1.10199
-2.95057
46.0087
45.985
45.9738
45.9748
45.9853
46.0025
46.0223
46.0443
46.0503
46.0507
46.1055
46.1702
46.2383
46.299
46.337
46.3307
46.2516
46.0634
45.7219
45.1757
44.3693
43.2476
41.7717
39.9729
37.9104
35.6212
33.1554
30.5715
27.9326
25.2798
22.5084
19.637
16.8874
14.2682
11.7773
9.40262
7.13005
4.9465
2.84423
0.822166
-1.11355
-2.95811
-4.71356
46.0646
46.0228
45.9947
45.9813
45.98
45.9887
46.0044
46.0229
46.0436
46.0492
46.1276
46.203
46.2863
46.3687
46.4367
46.4711
46.4463
46.3291
46.0781
45.6442
44.9723
44.0049
42.6882
40.9901
38.9582
36.6685
34.1685
31.5175
28.7814
26.0245
23.075
20.0025
17.0997
14.3683
11.7994
9.37526
7.07918
4.89421
2.80366
0.796892
-1.12947
-2.97034
-4.72095
-6.38381
46.1457
46.0833
46.0354
46.0047
45.9886
45.9851
45.9921
46.0062
46.0234
46.043
46.0481
46.2319
46.3288
46.4302
46.5249
46.5957
46.6198
46.5667
46.3984
46.0684
45.5231
44.7046
43.5549
42.0239
40.088
37.8142
35.2955
32.59
29.7659
26.8921
23.8219
20.5532
17.44
14.5527
11.8723
9.37266
7.03089
4.82664
2.73909
0.748175
-1.15941
-2.98827
-4.734
-6.39128
-7.96349
46.2552
46.1704
46.0994
46.0485
46.0144
45.9956
45.9901
45.9953
46.008
46.024
46.0424
46.0471
46.3661
46.4847
46.6029
46.7062
46.7739
46.7786
46.6853
46.4505
46.023
45.3457
44.3586
43.0057
41.2421
39.0559
36.5348
33.7893
30.8883
27.9047
24.699
21.2878
17.9617
14.8593
12.0238
9.4158
7.00248
4.75703
2.65464
0.671072
-1.21636
-3.023
-4.75418
-6.40541
-7.97113
-9.45498
46.3961
46.2875
46.1907
46.1163
46.0612
46.0238
46.0024
45.9948
45.9983
46.0097
46.0245
46.0419
46.0462
46.5326
46.672
46.804
46.9107
46.9673
46.9417
46.7935
46.4745
45.9292
45.0975
43.9198
42.3432
40.3312
37.8854
35.1155
32.1507
29.066
25.7302
22.1594
18.6677
15.3402
12.2895
9.53009
7.01401
4.70234
2.56375
0.570014
-1.30567
-3.08808
-4.7936
-6.42773
-7.98609
-9.46263
-10.8606
46.5709
46.4379
46.3128
46.2121
46.1326
46.0733
46.0327
46.0089
45.9993
46.0013
46.0113
46.025
46.0413
46.0454
46.7328
46.8908
47.0321
47.135
47.1703
47.1006
46.8807
46.4575
45.7721
44.7632
43.3728
41.5539
39.2802
36.5692
33.5547
30.3799
26.9209
23.1927
19.5152
16.0028
12.7191
9.74885
7.08799
4.68106
2.48281
0.45839
-1.42266
-3.18889
-4.8661
-6.47146
-8.0101
-9.47817
-10.8681
-12.1818
46.7813
46.6246
46.4693
46.3398
46.2328
46.148
46.0848
46.0411
46.015
46.0036
46.0041
46.0128
46.0255
46.0409
46.0447
46.9673
47.14
47.284
47.3738
47.3749
47.245
46.9338
46.3844
45.5355
44.3262
42.7022
40.6245
38.0794
35.103
31.8502
28.2773
24.3954
20.5292
16.8087
13.3245
10.1182
7.25476
4.71252
2.42814
0.35164
-1.55426
-3.32101
-4.97777
-6.551
-8.05795
-9.50372
-10.8841
-12.1897
-13.4215
47.028
46.8498
46.6635
46.5033
46.3658
46.2523
46.1626
46.0956
46.0491
46.0207
46.0076
46.0067
46.0142
46.0259
46.0405
46.044
47.2352
47.4168
47.5549
47.6195
47.5711
47.3621
46.938
46.2388
45.2023
43.7697
41.8927
39.5426
36.7213
33.4816
29.8057
25.7767
21.7199
17.7824
14.0718
10.6533
7.55611
4.82354
2.41577
0.263685
-1.68594
-3.47149
-5.1244
-6.67332
-8.14473
-9.55589
-10.9115
-12.2068
-13.4301
-14.5814
47.3105
47.1148
46.8978
46.7058
46.5358
46.3902
46.2705
46.1762
46.1057
46.0565
46.0261
46.0113
46.0091
46.0155
46.0263
46.0401
46.0435
47.5341
47.7167
47.8376
47.8624
47.7462
47.4369
46.8762
46.0024
44.7541
43.0766
40.9298
38.298
35.1973
31.5137
27.3458
23.099
18.9366
14.9846
11.326
8.00947
5.0506
2.46847
0.206895
-1.80653
-3.62684
-5.29242
-6.83358
-8.27765
-9.65025
-10.9686
-12.2366
-13.4489
-14.5914
-15.6655
47.6264
47.4197
47.1739
46.9505
46.7463
46.5661
46.4129
46.2875
46.1888
46.1149
46.0633
46.031
46.0148
46.0113
46.0166
46.0267
46.0398
46.043
47.8597
48.0328
48.1225
48.0899
47.8852
47.4519
46.7296
45.6559
44.1724
42.2301
39.7999
36.8784
33.323
29.1133
24.6789
20.2851
16.0772
12.1577
8.59282
5.4123
2.61624
0.199784
-1.90756
-3.779
-5.46994
-7.01762
-8.45042
-9.79333
-11.0707
-12.2995
-13.482
-14.613
-15.6775
-16.6716
47.9717
47.7627
47.4922
47.2393
47.0007
46.7837
46.594
46.4338
46.303
46.2003
46.1234
46.0694
46.0354
46.0178
46.0131
46.0176
46.0269
46.0395
46.0426
48.2054
48.3559
48.3974
48.2871
47.9705
47.388
46.4779
45.1794
43.4381
41.2138
38.4876
35.1069
30.9999
26.4723
21.8426
17.3651
13.1637
9.32454
5.89352
2.87831
0.264692
-1.97504
-3.92344
-5.65225
-7.21575
-8.64899
-9.9776
-11.2236
-12.4096
-13.5515
-14.6504
-15.7022
-16.6873
-17.6074
48.3398
48.1407
47.8515
47.5731
47.3012
47.0468
46.8181
46.6196
46.4527
46.317
46.2106
46.1309
46.0749
46.0392
46.0203
46.0147
46.0185
46.0272
46.0392
46.0422
48.5623
48.6741
48.6475
48.4363
47.9824
47.224
46.1
44.552
42.5322
40.009
36.8235
32.8719
28.4006
23.6239
18.8649
14.3607
10.2204
6.50843
3.24677
0.421147
-1.9952
-4.05098
-5.83873
-7.42654
-8.86619
-10.1894
-11.4185
-12.5721
-13.6704
-14.7278
-15.7444
-16.717
-17.632
-18.3366
48.7217
48.5479
48.2492
47.9513
47.6495
47.358
47.0889
46.8493
46.6426
46.4696
46.3294
46.2196
46.1374
46.0795
46.0424
46.0225
46.0161
46.0192
46.0274
46.039
46.0419
48.9185
48.9726
48.8549
48.5175
47.8991
46.9378
45.5732
43.7521
41.4331
38.4536
34.6828
30.3269
25.5555
20.5948
15.768
11.2983
7.27332
3.73092
0.668778
-1.94813
-4.15691
-6.02524
-7.65331
-9.10361
-10.4241
-11.6425
-12.7771
-13.8427
-14.8564
-15.8309
-16.7667
-17.6665
-18.3666
-18.9312
49.1055
48.9766
48.6803
48.3721
48.0453
47.7191
47.4094
47.1268
46.877
46.6628
46.4844
46.34
46.2272
46.1428
46.0833
46.0451
46.0243
46.0172
46.0198
46.0276
46.0389
46.0416
49.2593
49.2335
48.9992
48.508
47.6976
46.5051
44.8741
42.7555
39.9854
36.411
32.2031
27.5032
22.4924
17.4098
12.5817
8.20751
4.34765
1.01154
-1.82668
-4.22098
-6.21634
-7.89696
-9.36854
-10.6862
-11.8933
-13.0125
-14.0578
-15.0394
-15.9706
-16.8654
-17.7208
-18.4112
-18.9533
-19.5892
49.4761
49.416
49.1377
48.8313
48.4875
48.1307
47.782
47.4554
47.1602
46.9011
46.6802
46.4968
46.3488
46.2333
46.147
46.0863
46.0472
46.0258
46.0182
46.0203
46.0277
46.0387
46.0414
49.5668
49.4363
49.0575
48.3843
47.3523
45.9008
43.9754
41.4127
38.0435
34.0079
29.421
24.4328
19.2408
14.1033
9.34008
5.11785
1.46679
-1.63278
-4.22875
-6.39151
-8.17145
-9.66689
-10.9869
-12.1781
-13.2782
-14.304
-15.265
-16.1659
-17.0195
-17.8302
-18.4835
-19.0091
-19.6021
-20.3111
49.815
49.8525
49.6118
49.3228
48.9726
48.592
48.2075
47.8378
47.4956
47.1889
46.9215
46.6945
46.5067
46.3555
46.2378
46.1502
46.0885
46.0488
46.0269
46.0189
46.0207
46.0278
46.0386
46.0412
49.8202
49.5577
49.0053
48.1194
46.8366
45.0952
42.7339
39.5731
35.7269
31.2875
26.3726
21.1483
15.8375
10.7126
6.0764
2.05669
-1.34883
-4.18851
-6.52975
-8.45676
-10.0224
-11.3371
-12.5119
-13.5837
-14.5834
-15.5219
-16.4026
-17.2287
-17.998
-18.6194
-19.1104
-19.6643
-20.323
-21.0843
50.1005
50.2692
50.0899
49.8382
49.4956
49.1005
48.6858
48.2754
47.8863
47.5298
47.2127
46.9379
46.7055
46.5139
46.3602
46.241
46.1524
46.0902
46.0501
46.0278
46.0195
46.021
46.0279
46.0385
46.0411
49.9951
49.5725
48.8147
47.6856
46.1183
43.9503
40.9965
37.3504
33.0847
28.2873
23.0904
17.6864
12.3204
7.27311
2.82133
-0.951955
-4.08238
-6.64528
-8.72476
-10.4155
-11.7707
-12.911
-13.9479
-14.9079
-15.8141
-16.6709
-17.4781
-18.2209
-18.8175
-19.2836
-19.7871
-20.3922
-21.1022
-21.9113
50.3068
50.6464
50.5561
50.3661
50.049
49.6519
49.2151
48.7685
48.334
47.9271
47.5577
47.2313
46.95
46.7131
46.5185
46.3631
46.2429
46.1538
46.0913
46.0509
46.0285
46.02
46.0213
46.028
46.0383
46.0409
50.066
49.4522
48.457
47.0485
45.0648
42.314
38.8724
34.7981
30.1535
25.0378
19.6077
14.0816
8.72384
3.81704
-0.397915
-3.88744
-6.71989
-8.9951
-10.8101
-12.2675
-13.4186
-14.3923
-15.2996
-16.1556
-16.9757
-17.7573
-18.4826
-19.0728
-19.5241
-19.9907
-20.5266
-21.1829
-21.9348
-22.8019
50.4062
50.9608
50.9915
50.8922
50.6229
50.2398
49.7919
49.3159
48.8395
48.3829
47.9598
47.579
47.2446
46.9577
46.7173
46.5208
46.3643
46.2437
46.1544
46.0918
46.0514
46.0289
46.0203
46.0214
46.0279
46.0382
46.0409
50.0031
49.1672
47.8959
46.0804
43.5267
40.2896
36.4166
31.9503
26.9605
21.5676
15.9543
10.3648
5.07921
0.373865
-3.55703
-6.73184
-9.24991
-11.2316
-12.7834
-14.0129
-14.9682
-15.7849
-16.5716
-17.3323
-18.0731
-18.7733
-19.3639
-19.8244
-20.268
-20.7483
-21.3285
-22.0269
-22.8266
-23.7578
50.3666
51.187
51.3737
51.3993
51.2044
50.8556
50.4108
49.9149
49.4022
48.8984
48.4216
47.9843
47.5934
47.2522
46.9612
46.7186
46.521
46.3642
46.2436
46.1544
46.0919
46.0516
46.0291
46.0205
46.0215
46.0279
46.0381
46.0408
49.7757
48.68
47.0089
44.6364
41.6011
37.9334
33.6614
28.8316
23.5303
17.9012
12.1562
6.56516
1.41669
-3.02922
-6.6345
-9.47043
-11.6636
-13.3506
-14.6438
-15.6532
-16.4224
-17.0923
-17.7686
-18.4415
-19.1004
-19.6793
-20.1586
-20.6069
-21.0494
-21.5639
-22.1848
-22.925
-23.7815
-24.7732
50.1536
51.297
51.6773
51.8666
51.7777
51.4877
51.0643
50.5611
50.0202
49.4735
48.9447
48.45
48.0001
47.6007
47.2546
46.961
46.7173
46.5195
46.3629
46.2426
46.1538
46.0916
46.0515
46.0294
46.0208
46.0215
46.0278
46.0381
46.0409
49.3452
47.8718
45.6558
42.8062
39.3442
35.276
30.6295
25.4634
19.883
14.0606
8.23993
2.71231
-2.23454
-6.36722
-9.6122
-12.0916
-13.9549
-15.3503
-16.3924
-17.1912
-17.785
-18.3189
-18.893
-19.4796
-20.0234
-20.5102
-20.9798
-21.4134
-21.8809
-22.4325
-23.0925
-23.8814
-24.7957
-25.8407
49.7272
51.2617
51.8738
52.2706
52.3239
52.1221
51.7425
51.2481
50.6898
50.107
49.5293
48.978
48.4675
48.0071
47.6016
47.2524
46.9576
46.7138
46.5164
46.3605
46.2409
46.1526
46.0909
46.0517
46.0299
46.0208
46.0214
46.0277
46.0381
46.0409
48.594
46.6102
43.9186
40.6461
36.7866
32.3392
27.3404
21.8627
16.0363
10.0683
4.23308
-1.1639
-5.84668
-9.61826
-12.4751
-14.5869
-16.1206
-17.2311
-18.0317
-18.6308
-19.0606
-19.4679
-19.9451
-20.4112
-20.8781
-21.3643
-21.8119
-22.2599
-22.7602
-23.3491
-24.0537
-24.8955
-25.8634
-26.9574
51.0445
48.976
51.9328
52.5842
52.821
52.7415
52.4326
51.9672
51.4057
50.796
50.1747
49.569
48.9979
48.4741
48.006
47.5968
47.2462
46.9515
46.7084
46.512
46.3571
46.2383
46.1509
46.0909
46.0525
46.03
46.0208
46.0213
46.0276
46.0381
46.041
47.4006
44.9673
41.8532
38.1873
33.9493
29.141
23.8082
18.0428
12.0081
5.94863
0.164563
-5.03383
-9.39379
-12.763
-15.2114
-16.9505
-18.1595
-18.9949
-19.5657
-19.9771
-20.2535
-20.5429
-20.8801
-21.2751
-21.7564
-22.2203
-22.674
-23.1472
-23.6821
-24.3141
-25.0689
-25.9635
-26.9802
-28.1205
51.8222
50.5374
47.7727
52.7776
53.2439
53.3255
53.1191
52.7073
52.1605
51.5361
50.8789
50.2229
49.5922
49.0043
48.4709
47.998
47.5872
47.2367
46.9429
46.7013
46.5064
46.3527
46.2351
46.1506
46.0921
46.0528
46.0299
46.0205
46.021
46.0274
46.0381
46.0412
45.8278
42.9986
39.4922
35.4501
30.8494
25.6938
20.0428
14.0163
7.81802
1.72788
-3.9354
-8.86807
-12.8518
-15.7852
-17.8121
-19.1796
-20.0729
-20.6456
-21.0001
-21.236
-21.3705
-21.4836
-21.7412
-22.1656
-22.6325
-23.0982
-23.5696
-24.0713
-24.6465
-25.3278
-26.1349
-27.0797
-28.1421
-29.3227
52.8192
51.4588
49.6411
46.1874
53.5638
53.851
53.7835
53.4545
52.9445
52.321
51.6383
50.938
50.2508
49.599
48.9987
48.4592
47.9842
47.5734
47.2242
46.9324
46.6928
46.4995
46.3474
46.2343
46.1522
46.0925
46.0526
46.0295
46.0201
46.0207
46.0272
46.0381
46.0414
43.9317
40.7392
36.8555
32.451
27.4983
22.005
16.0515
9.79728
3.4876
-2.56504
-8.03535
-12.638
-16.1987
-18.6712
-20.2715
-21.2737
-21.864
-22.1891
-22.3422
-22.4157
-22.3298
-22.3373
-22.6338
-23.0555
-23.526
-24.0038
-24.4962
-25.0322
-25.6541
-26.3877
-27.2468
-28.2393
-29.3434
-30.5562
53.751
52.6404
50.7141
48.3889
44.2822
54.2906
54.4047
54.1923
53.7455
53.1425
52.4477
51.7117
50.9726
50.2587
49.5911
48.9829
48.4403
47.9653
47.5561
47.2094
46.9202
46.6826
46.4914
46.3458
46.2366
46.1529
46.0924
46.0521
46.0289
46.0196
46.0203
46.0269
46.0382
46.0416
41.7506
38.2083
33.9589
29.2009
23.9021
18.0777
11.8444
5.40165
-0.958643
-6.89848
-12.1029
-16.3159
-19.4152
-21.4111
-22.5864
-23.2348
-23.5388
-23.6343
-23.6008
-23.4115
-23.1834
-23.2293
-23.5332
-23.9628
-24.4439
-24.9357
-25.4545
-26.0312
-26.7034
-27.4901
-28.3998
-29.4372
-30.5757
-31.8103
54.6163
53.7556
52.125
49.6267
46.8175
42.1012
54.9568
54.9012
54.5488
53.9901
53.3001
52.5397
51.7555
50.9828
50.2488
49.5708
48.9583
48.4154
47.9421
47.5359
47.1925
46.9058
46.6709
46.4888
46.3489
46.2375
46.1527
46.0916
46.0511
46.0284
46.0191
46.0198
46.0266
46.0382
46.0419
39.3021
35.4215
30.8133
25.7063
20.0625
13.9218
7.43369
0.849804
-5.48954
-11.2372
-16.1052
-19.8759
-22.4846
-23.9971
-24.7561
-25.0681
-25.1081
-24.9905
-24.6465
-24.2797
-24.0826
-24.1389
-24.4544
-24.8952
-25.3861
-25.8957
-26.4468
-27.0683
-27.7921
-28.6313
-29.5891
-30.6652
-31.8292
-33.0694
55.4142
54.7975
53.4638
51.2882
48.2281
44.9723
39.659
55.5576
55.3369
54.8505
54.1864
53.4161
52.5961
51.7698
50.9715
50.2238
49.5398
48.9264
48.3853
47.9155
47.5133
47.1729
46.8895
46.6669
46.493
46.3502
46.2373
46.1517
46.0902
46.0507
46.028
46.0185
46.0192
46.0263
46.0383
46.0422
36.6015
32.3904
27.4265
21.9688
15.9871
9.53991
2.82823
-3.83166
-10.0666
-15.5429
-20.0099
-23.2943
-25.393
-26.4245
-26.7835
-26.7851
-26.5818
-26.1003
-25.5413
-25.2006
-25.0122
-25.0784
-25.405
-25.8532
-26.3546
-26.8866
-27.4742
-28.1425
-28.9175
-29.8071
-30.8074
-31.9145
-33.0888
-34.3141
56.1384
55.7662
54.7234
52.8706
50.1503
46.5714
42.8686
36.9675
56.0883
55.7086
55.0954
54.3334
53.4895
52.617
51.7582
50.942
50.186
49.5
48.8883
48.3511
47.886
47.4874
47.151
46.8838
46.6724
46.4947
46.35
46.236
46.1498
46.0899
46.0506
46.0274
46.0177
46.0185
46.0259
46.0385
46.0427
33.6601
29.1245
23.8007
17.9889
11.6636
4.91978
-1.96234
-8.61188
-14.6483
-19.7742
-23.7857
-26.5501
-28.1291
-28.6922
-28.6786
-28.3944
-27.7663
-27.0326
-26.4959
-26.1642
-25.9816
-26.0543
-26.3861
-26.8391
-27.3528
-27.9105
-28.5368
-29.2525
-30.0767
-31.0114
-32.0471
-33.1703
-34.3396
-35.7402
56.7827
56.6542
55.9051
54.3677
51.9857
48.7671
44.6753
40.5215
34.0369
56.5447
56.0135
55.2817
54.4294
53.5203
52.6066
51.7246
50.8971
50.1376
49.4528
48.8452
48.3134
47.8525
47.4586
47.1431
46.891
46.6746
46.4944
46.3483
46.2334
46.1498
46.0904
46.0502
46.0265
46.0168
46.0178
46.0255
46.0387
46.0432
30.4889
25.628
19.9312
13.7503
7.07041
0.0595667
-6.91891
-13.455
-19.1911
-23.89
-27.4015
-29.6242
-30.6864
-30.8082
-30.4469
-29.6582
-28.7387
-28.0323
-27.5054
-27.1778
-26.9963
-27.0682
-27.3999
-27.856
-28.383
-28.9684
-29.6341
-30.3956
-31.2646
-32.2377
-33.2942
-34.4229
-35.7713
-37.2086
57.3415
57.4535
57.0014
55.782
53.7316
50.8648
47.1602
42.5545
37.9457
30.878
56.9233
56.2495
55.4074
54.4744
53.5135
52.5698
51.6725
50.8394
50.0803
49.3998
48.7981
48.2711
47.8155
47.448
47.1522
46.8938
46.6744
46.4923
46.3448
46.2339
46.1513
46.0905
46.0494
46.0254
46.0156
46.0169
46.0251
46.0389
46.0437
27.0937
21.8934
15.8056
9.23308
2.20196
-5.02968
-12.0107
-18.3185
-23.6507
-27.8519
-30.8267
-32.5031
-33.0695
-32.7732
-31.795
-30.6686
-29.786
-29.0993
-28.5751
-28.2458
-28.0579
-28.1217
-28.4486
-28.9061
-29.4468
-30.0605
-30.7645
-31.5679
-32.4755
-33.4725
-34.545
-35.8448
-37.2357
-38.4836
57.8103
58.1563
58.0026
57.1062
55.3903
52.8701
49.531
45.3448
40.2258
35.1556
27.4973
57.2215
56.414
55.4724
54.4743
53.4749
52.5108
51.605
50.7711
50.016
49.3419
48.7454
48.2243
47.8016
47.4595
47.1557
46.8935
46.6717
46.4876
46.346
46.2369
46.1523
46.0902
46.0483
46.024
46.0143
46.0159
46.0246
46.0392
46.0444
23.4651
17.913
11.4048
4.42094
-2.94431
-10.328
-17.1958
-23.1515
-27.9831
-31.6258
-34.0379
-35.187
-35.2745
-34.221
-32.8393
-31.7655
-30.9166
-30.238
-29.7081
-29.3697
-29.1677
-29.2167
-29.5339
-29.9907
-30.5447
-31.1858
-31.9246
-32.7643
-33.6967
-34.7162
-35.9547
-37.2887
-38.5075
-39.5779
58.1853
58.756
58.8989
58.3297
56.9539
54.7838
51.8074
47.9984
43.3385
37.7068
32.1618
23.8878
57.4354
56.506
55.4832
54.4361
53.4097
52.4334
51.5249
50.6943
49.9459
49.2774
48.6873
48.2066
47.816
47.4639
47.1554
46.8901
46.6656
46.4899
46.351
46.2391
46.1526
46.0893
46.0468
46.0223
46.0127
46.0147
46.0241
46.0395
46.0452
19.6008
13.6722
6.70099
-0.708297
-8.37151
-15.807
-22.4228
-27.8984
-32.1451
-35.1823
-37.0318
-37.6681
-36.8412
-35.2984
-33.9898
-32.9669
-32.1333
-31.4511
-30.9061
-30.5506
-30.3267
-30.3539
-30.6568
-31.1102
-31.6759
-32.341
-33.1095
-33.9729
-34.9308
-36.1081
-37.3728
-38.5524
-39.5979
-40.4664
58.4617
59.2464
59.6809
59.4418
58.4118
56.5973
53.9881
50.5555
46.2843
41.1608
35.0142
28.9666
20.0516
57.5635
56.5332
55.4483
54.366
53.3225
52.3408
51.4347
50.6109
49.8682
49.2063
48.6651
48.2243
47.8214
47.4635
47.1512
46.8824
46.6692
46.4976
46.3551
46.2405
46.1522
46.0879
46.0449
46.0203
46.0109
46.0134
46.0235
46.0399
46.046
15.4941
9.14068
1.65949
-6.18367
-14.0802
-21.4286
-27.6304
-32.5031
-36.0946
-38.5093
-39.8039
-39.3863
-37.9542
-36.507
-35.2757
-34.2739
-33.4387
-32.7406
-32.1703
-31.789
-31.5355
-31.5333
-31.8169
-32.2634
-32.8371
-33.5215
-34.3088
-35.1965
-36.3046
-37.4955
-38.6251
-39.6398
-40.4814
-41.1289
58.6366
59.6206
60.3398
60.4308
59.7523
58.2992
56.0639
53.0121
49.1299
44.4087
38.8316
32.1606
25.581
15.9876
57.6142
56.5057
55.3752
54.2694
53.2171
52.2363
51.3366
50.5183
49.7824
49.1788
48.6868
48.2308
47.8209
47.4584
47.1414
46.8876
46.6805
46.5042
46.3581
46.2411
46.1513
46.086
46.0426
46.0179
46.0089
46.012
46.0228
46.0403
46.047
11.115
4.27864
-3.76977
-12.0373
-20.0634
-27.1399
-32.7532
-36.9132
-39.8039
-41.6028
-41.7148
-40.5669
-39.2293
-37.8925
-36.6927
-35.6893
-34.8357
-34.1081
-33.5013
-33.0844
-32.7933
-32.7536
-33.0115
-33.4463
-34.0235
-34.7177
-35.5236
-36.5529
-37.6615
-38.7306
-39.706
-40.5205
-41.1392
-41.5562
58.7194
59.8725
60.864
61.2853
60.9628
59.8774
58.0226
55.3595
51.868
47.5503
42.3934
36.3685
29.1623
22.0176
11.6701
57.5996
56.4325
55.2705
54.1513
53.0974
52.1223
51.2278
50.4161
49.749
49.2051
48.6945
48.2303
47.8148
47.4461
47.1488
46.9035
46.6903
46.5093
46.36
46.2408
46.1495
46.0834
46.0397
46.0151
46.0065
46.0104
46.0222
46.0407
46.048
6.42309
-0.973312
-9.64983
-18.3045
-26.2958
-32.8784
-37.7234
-41.086
-43.2722
-43.7977
-43.0263
-41.9448
-40.7337
-39.444
-38.2416
-37.2161
-36.3262
-35.5544
-34.898
-34.4346
-34.0974
-34.0114
-34.2358
-34.6541
-35.226
-35.9284
-36.8661
-37.883
-38.8768
-39.8001
-40.5798
-41.1755
-41.5623
-41.7384
58.7243
60.0119
61.2416
61.9894
62.03
61.3179
59.8515
57.5856
54.4915
50.5731
45.8388
40.2592
33.7905
26.0375
18.2734
7.06044
57.5301
56.3215
55.14
54.0161
52.9667
51.996
51.1074
50.376
49.7805
49.2143
48.694
48.2229
47.7995
47.4562
47.1703
46.9174
46.6983
46.5132
46.3609
46.2396
46.1469
46.0801
46.0362
46.0119
46.0039
46.0086
46.0215
46.0412
46.049
1.36181
-6.6947
-16.0648
-25.0021
-32.7409
-38.5592
-42.4838
-45.0063
-45.8823
-45.3823
-44.5745
-43.6066
-42.4476
-41.1591
-39.9257
-38.8556
-37.9102
-37.0778
-36.3584
-35.8356
-35.441
-35.3012
-35.4849
-35.8783
-36.4411
-37.2643
-38.1768
-39.0776
-39.9311
-40.6626
-41.2279
-41.5953
-41.7405
-41.668
58.6637
60.0556
61.4807
62.524
62.9337
62.6066
61.5354
59.6773
56.9895
53.4737
49.1487
44.0179
38.0271
31.1175
22.7974
14.3345
2.10919
57.4155
56.1796
54.9891
53.8677
52.8214
51.8556
51.0599
50.4137
49.7913
49.2137
48.6852
48.2042
47.8128
47.4846
47.1894
46.929
46.7047
46.5157
46.3606
46.2372
46.1434
46.0761
46.0321
46.0082
46.0011
46.0068
46.0208
46.0418
46.0501
-4.14601
-13.0124
-23.0871
-32.1595
-39.2953
-44.1169
-46.9893
-48.135
-47.9224
-47.2349
-46.4548
-45.5236
-44.3663
-43.0417
-41.7467
-40.6075
-39.586
-38.6761
-37.8803
-37.2832
-36.818
-36.6171
-36.7491
-37.1109
-37.7803
-38.5667
-39.3529
-40.1146
-40.7786
-41.2999
-41.6412
-41.7701
-41.6661
-41.3446
58.5491
60.0187
61.5996
62.894
63.6472
63.7195
63.0583
61.619
59.3502
56.2431
52.3249
47.6173
42.11
35.7179
28.3669
19.4486
10.1817
-3.25244
57.2638
56.0133
54.8224
53.7025
52.6595
51.8
51.1046
50.4262
49.7907
49.2034
48.6625
48.2214
47.8494
47.5099
47.2056
46.9388
46.7095
46.5167
46.3588
46.2337
46.1388
46.0711
46.0274
46.0042
45.998
46.0049
46.02
46.0423
46.0513
-10.239
-20.0773
-30.8676
-39.6508
-45.9302
-49.4483
-50.7532
-50.7444
-50.2368
-49.4405
-48.6309
-47.689
-46.494
-45.0941
-43.7049
-42.4701
-41.3515
-40.3453
-39.4569
-38.7728
-38.2229
-37.9453
-38.016
-38.4679
-39.0882
-39.7291
-40.3722
-40.9447
-41.4012
-41.7029
-41.81
-41.6922
-41.3386
-40.7731
58.3903
59.915
61.6161
63.1183
64.1716
64.6223
64.3924
63.3931
61.5583
58.8724
55.3618
51.0667
46.0018
40.1352
33.3507
25.5542
15.9932
5.78527
-9.11369
57.0829
55.8282
54.6363
53.5175
52.5951
51.8526
51.1191
50.4256
49.7787
49.176
48.6842
48.2678
47.8823
47.5318
47.2197
46.9466
46.7123
46.5158
46.3554
46.2287
46.1331
46.0653
46.0221
45.9999
45.9949
46.003
46.0193
46.0429
46.0525
-17.1015
-28.2629
-39.2089
-47.634
-52.4102
-54.0076
-54.0083
-53.6114
-52.8781
-51.9629
-51.0954
-50.1078
-48.8322
-47.3156
-45.7979
-44.4392
-43.1995
-42.0717
-41.0718
-40.2902
-39.6392
-39.2689
-39.4083
-39.7947
-40.245
-40.7324
-41.1834
-41.5495
-41.7897
-41.8615
-41.7267
-41.3609
-40.7632
-39.9648
58.1964
59.7567
61.5463
63.2156
64.5261
65.3125
65.4949
64.9674
63.5963
61.3481
58.254
54.3645
49.7219
44.3217
38.1147
30.952
22.6875
12.4387
1.14319
-15.5568
56.8795
55.6206
54.4269
53.4435
52.6567
51.8693
51.1184
50.4117
49.7458
49.2029
48.7419
48.3095
47.911
47.5511
47.2313
46.952
46.7129
46.513
46.3502
46.2222
46.1262
46.0587
46.0164
45.9953
45.9916
46.001
46.0186
46.0435
46.0538
-25.1376
-37.4418
-48.7427
-55.4987
-58.0015
-57.974
-57.4811
-56.7482
-55.8225
-54.7982
-53.8541
-52.7802
-51.3782
-49.7029
-48.0207
-46.5062
-45.1165
-43.8374
-42.707
-41.8122
-41.0455
-40.7176
-40.766
-40.9551
-41.2344
-41.5244
-41.7677
-41.9193
-41.9336
-41.7682
-41.3908
-40.7816
-39.9514
-38.9354
57.9756
59.555
61.4055
63.2041
64.7298
65.8099
66.3589
66.2892
65.4285
63.6544
60.9919
57.5106
53.2731
48.3109
42.6046
36.0797
28.5374
19.7827
8.82551
-3.71404
-22.6214
56.6501
55.3857
54.3426
53.5153
52.6757
51.8685
51.1024
50.3726
49.7787
49.2736
48.7939
48.3463
47.9367
47.5675
47.2399
46.9546
46.711
46.5078
46.3431
46.2141
46.1181
46.0515
46.0103
45.9905
45.9882
45.9989
46.0178
46.0442
46.0552
-34.59
-49.5755
-57.8072
-62.5069
-62.7905
-62.1021
-61.1518
-60.151
-59.0736
-57.9527
-56.9051
-55.7008
-54.1264
-52.2487
-50.3629
-48.658
-47.0878
-45.6314
-44.3472
-43.3198
-42.5733
-42.1213
-41.9386
-41.9341
-42.0071
-42.0858
-42.1149
-42.0436
-41.8256
-41.4226
-40.8077
-39.9656
-38.919
-37.7051
57.7247
59.3195
61.2075
63.1008
64.8019
66.1343
67.005
67.3449
66.9919
65.754
63.5631
60.5001
56.6618
52.1099
46.8629
40.8769
34.0428
26.1212
16.8841
5.19183
-8.69375
-30.6604
56.3887
55.2904